/*--------------------------------*- C++ -*----------------------------------*\
  =========                 |
  \\      /  F ield         | OpenFOAM: The Open Source CFD Toolbox
   \\    /   O peration     | Website:  https://openfoam.org
    \\  /    A nd           | Version:  10
     \\/     M anipulation  |
\*---------------------------------------------------------------------------*/
FoamFile
{
    format      ascii;
    class       volVectorField;
    location    "26.5";
    object      U;
}
// * * * * * * * * * * * * * * * * * * * * * * * * * * * * * * * * * * * * * //

dimensions      [0 1 -1 0 0 0 0];

internalField   nonuniform List<vector> 
14667
(
(1.03732 0.0668358 -1.42875e-19)
(0.887269 0.0445466 -6.21114e-20)
(0.557778 0.0283656 -1.41421e-22)
(0.678095 0.0267169 1.85843e-22)
(0.663407 0.0277912 -3.0636e-23)
(0.99 -0.0900313 -3.05041e-20)
(1.03208 -0.0831296 6.72054e-20)
(0.443919 0.0377786 -7.50138e-22)
(0.530656 0.0301757 0)
(0.65232 0.0297599 1.11508e-22)
(1.03694 -0.0672632 -2.87392e-20)
(1.02569 -0.0395824 1.54483e-20)
(0.986154 -0.0230963 -3.81178e-20)
(0.885748 -0.0752699 1.12967e-19)
(0.490755 0.0256375 -7.38495e-22)
(1.0186 -0.0314044 0)
(1.019 -0.029451 0)
(0.608149 0.013036 -1.00925e-21)
(0.368264 0.0149726 0)
(1.03984 -0.0592407 0)
(1.05575 0.0854155 -1.10234e-19)
(0.885622 -0.00312671 7.5092e-20)
(0.997459 0.01598 0)
(1.0013 0.040745 6.2422e-21)
(0.0659165 0.0393326 6.61329e-20)
(0.458109 -0.011395 2.15496e-19)
(0.0197907 -0.0083478 6.71112e-20)
(-0.093057 -0.0106006 -2.53418e-19)
(-0.0941348 0.093083 4.6278e-21)
(0.816436 0.122308 1.58853e-20)
(0.86788 0.0859285 -1.49225e-21)
(0.876738 0.0592324 -4.52054e-20)
(-0.0895731 0.0932028 2.05837e-20)
(-0.124877 0.093182 1.16479e-19)
(-0.251956 0.0399477 1.20891e-19)
(-0.0067292 0.0511593 -1.84272e-19)
(0.0703603 0.108846 -2.53829e-21)
(0.445361 -0.0522856 1.93906e-21)
(0.442283 -0.0314263 5.61074e-23)
(0.568997 -0.0206841 -3.70125e-22)
(0.556661 -0.0161817 0)
(0.453909 0.00793281 -1.56669e-20)
(0.542964 -0.153733 5.35475e-19)
(0.606252 -0.0273701 -1.74436e-19)
(0.426024 0.0185062 -1.21649e-19)
(0.354664 -0.197778 8.10474e-20)
(0.562958 -0.347579 -4.9143e-21)
(1.4972 -0.285899 -1.11435e-19)
(1.48318 -0.337409 4.2716e-20)
(1.38197 -0.379502 0)
(1.37591 -0.302221 0)
(0.737116 0.0712537 0)
(0.798099 0.0454792 0)
(0.850912 0.0356591 -7.98477e-20)
(1.32479 -0.223404 1.55976e-20)
(1.35403 -0.193707 1.01778e-20)
(1.49188 0.16251 5.26016e-20)
(1.53653 0.128338 3.45085e-20)
(0.633455 0.0740536 -5.84839e-20)
(0.862219 -0.0382994 4.6314e-20)
(-0.0786492 -0.0273439 1.88415e-19)
(-0.0153392 0.056705 0)
(0.967145 -0.427136 -1.39764e-20)
(0.975795 -0.351872 -6.27077e-20)
(0.893057 -0.305013 -4.99072e-21)
(0.849577 -0.556812 -9.74584e-21)
(0.915311 -0.501312 5.56441e-20)
(0.496384 0.763341 4.51933e-20)
(0.823527 0.785729 -7.36004e-21)
(0.907146 0.0579727 3.96253e-20)
(0.924637 0.040936 -3.73924e-20)
(0.929187 0.0631754 -4.03159e-20)
(0.143422 0.0407802 0)
(0.140364 -0.197261 4.26955e-20)
(1.35448 -0.467786 4.17326e-20)
(1.37478 -0.500409 4.79239e-20)
(1.42376 -0.424161 -1.57527e-19)
(1.42354 -0.436847 1.03002e-19)
(0.913433 0.0238561 2.13375e-19)
(0.898603 -0.00466748 7.62896e-22)
(0.651411 -0.0129033 -1.22307e-21)
(0.733621 -0.0118291 0)
(0.661971 -0.0156748 3.00813e-21)
(0.879568 0.0307563 1.06694e-22)
(0.881757 0.0314927 0)
(-0.201376 0.303194 0)
(-0.257005 0.336397 -1.07973e-19)
(1.02197 -0.146829 2.90429e-20)
(1.25837 -0.188507 -1.59471e-19)
(1.0944 -0.0827765 -3.56196e-20)
(1.25953 -0.100016 4.53135e-20)
(0.747313 0.333195 -2.44537e-21)
(0.786845 0.377819 4.5676e-21)
(0.990443 0.516379 8.44918e-21)
(0.969552 0.508776 -3.76544e-21)
(0.919897 -0.496212 7.61305e-21)
(0.954802 -0.525711 6.82185e-21)
(0.691274 0.276634 8.31499e-22)
(0.69785 0.276952 -3.75421e-21)
(0.74497 0.382275 1.599e-21)
(0.734676 0.411472 -1.11492e-21)
(1.43199 -0.238749 7.2621e-21)
(1.40015 -0.185288 3.07014e-20)
(0.940219 0.148703 7.03875e-21)
(0.920277 0.126453 -2.44724e-20)
(0.945044 0.104244 3.22219e-21)
(0.966698 0.123364 3.07662e-21)
(0.979823 0.189713 2.08486e-20)
(0.958375 0.158368 4.58584e-22)
(0.382778 -0.014706 1.57816e-22)
(0.236082 -0.00939734 -1.20439e-22)
(0.255352 -0.00484189 -2.13577e-22)
(0.403937 -0.00896101 0)
(0.495562 -0.0230549 -2.40468e-22)
(0.510119 -0.0157105 1.16555e-22)
(1.19649 -0.100458 4.3412e-21)
(1.21281 -0.110012 -7.00968e-21)
(1.20256 -0.101039 0)
(0.345431 -0.0324955 -6.26163e-23)
(0.266317 -0.0301596 -9.11668e-23)
(0.393886 -0.0237958 2.32999e-22)
(0.973251 0.464628 -3.88945e-21)
(0.953484 0.465662 1.95754e-20)
(0.936887 0.399725 -1.05036e-20)
(0.920452 0.30764 1.38244e-20)
(0.929413 0.267263 0)
(0.952061 0.383375 2.66225e-21)
(0.909538 0.196199 -3.87697e-20)
(0.898315 0.0642729 1.94159e-20)
(0.91683 0.0208524 0)
(0.921034 0.152216 0)
(0.890779 -0.0640761 0)
(0.890278 -0.192515 -1.89508e-20)
(0.926035 -0.229205 0)
(0.920299 -0.110212 0)
(0.899203 -0.312385 1.90455e-20)
(0.910806 -0.41387 0)
(0.936714 -0.426086 0)
(0.930869 -0.335311 0)
(0.924911 -0.489244 -1.5218e-20)
(0.94073 -0.536816 1.51084e-20)
(0.957459 -0.542452 0)
(0.945258 -0.496349 0)
(0.957136 -0.558907 0)
(0.973803 -0.563166 1.08323e-20)
(0.986546 -0.569003 2.72383e-24)
(0.971988 -0.564575 0)
(0.9898 -0.558069 -1.09045e-20)
(1.0038 -0.552173 0)
(1.0103 -0.557588 0)
(0.999607 -0.563885 0)
(1.01461 -0.550663 8.43663e-24)
(1.0223 -0.554889 0)
(1.02296 -0.559527 0)
(1.01803 -0.555457 0)
(1.02839 -0.564262 1.18446e-20)
(1.03445 -0.574844 -1.04025e-20)
(1.02773 -0.579813 -1.08348e-21)
(1.02596 -0.568557 0)
(1.03879 -0.588823 0)
(1.03839 -0.600023 0)
(1.02199 -0.599109 -2.15882e-21)
(1.0274 -0.591417 1.16757e-21)
(1.03599 -0.607147 3.04215e-21)
(1.02739 -0.606338 3.73864e-21)
(0.999928 -0.595202 -3.55676e-21)
(1.0146 -0.601925 2.8715e-21)
(0.980083 -0.571563 7.02176e-21)
(1.01303 -0.590103 -7.85765e-21)
(1.00414 0.544478 -7.95622e-22)
(0.98502 0.534748 3.30163e-21)
(0.993713 -0.55208 6.8448e-23)
(1.02709 0.55354 2.61646e-21)
(1.03393 0.563027 -5.01605e-21)
(1.01482 0.555908 -1.81328e-22)
(0.948547 0.490486 0)
(0.967169 0.518204 -2.95478e-21)
(1.04751 -0.603243 -1.90729e-21)
(1.05769 -0.607851 -7.65858e-21)
(1.05594 -0.612772 3.15755e-21)
(1.0495 -0.581266 5.30907e-21)
(1.05485 -0.596451 -5.47591e-21)
(1.02913 -0.552818 0)
(1.03974 -0.566521 0)
(1.00403 -0.533305 -8.00553e-24)
(1.01772 -0.540074 0)
(0.969166 -0.535691 4.36609e-24)
(0.987674 -0.532953 0)
(0.931218 -0.520412 0)
(0.949799 -0.534376 0)
(0.899808 -0.429992 1.44518e-23)
(0.914424 -0.48669 0)
(0.878094 -0.252867 7.12466e-25)
(0.887405 -0.350945 0)
(0.866346 -0.0208957 0)
(0.871918 -0.140764 0)
(0.87928 0.20551 8.32457e-25)
(0.866202 0.0937863 0)
(0.913122 0.38685 0)
(0.895231 0.303657 0)
(0.929643 0.445301 -9.75297e-21)
(0.983568 0.532133 -2.85604e-21)
(0.998227 0.546283 2.94624e-21)
(1.00542 0.479034 -1.88022e-21)
(1.01671 0.5272 0)
(0.978992 0.310653 -2.44029e-22)
(0.993138 0.40723 -2.25056e-21)
(0.963757 0.0568251 0)
(0.969525 0.190517 -8.71045e-23)
(0.957812 -0.218125 0)
(0.958021 -0.0830247 0)
(0.972576 -0.434408 0)
(0.964347 -0.337412 0)
(0.987594 -0.550246 0)
(0.980226 -0.505581 0)
(1.00408 -0.573085 0)
(0.99567 -0.570585 0)
(1.01762 -0.558323 0)
(1.01171 -0.566181 0)
(1.02309 -0.558817 0)
(1.02141 -0.555097 0)
(1.02034 -0.578903 -1.07934e-21)
(1.02277 -0.567936 0)
(1.00645 -0.593304 5.59036e-22)
(1.01543 -0.588507 -6.0198e-23)
(0.974615 -0.579256 -2.8727e-21)
(0.9941 -0.592183 0)
(0.949633 -0.548577 -8.99002e-21)
(1.02271 0.556503 -1.83239e-21)
(1.03857 0.561354 4.36529e-22)
(1.03428 -0.571984 2.11315e-21)
(0.922719 -0.451203 -4.57895e-21)
(0.972254 0.514926 0)
(0.989157 0.521783 5.41491e-22)
(0.99776 0.536462 6.06267e-22)
(0.884467 -0.416247 0)
(1.08411 -0.609707 -2.01745e-21)
(1.07918 -0.60372 -1.05649e-21)
(1.08458 -0.612519 0)
(1.05923 -0.571762 -4.77323e-21)
(1.0705 -0.588599 5.49151e-21)
(1.03187 -0.541274 0)
(1.04519 -0.556485 1.86405e-21)
(1.00347 -0.519042 7.28033e-24)
(1.01811 -0.528113 0)
(0.966943 -0.518366 -4.93139e-25)
(0.986713 -0.516064 0)
(0.919971 -0.516074 -4.71603e-24)
(0.944318 -0.521105 0)
(0.874757 -0.44787 -9.29728e-25)
(0.895992 -0.494079 0)
(0.846314 -0.280202 1.19116e-24)
(0.857968 -0.375331 0)
(0.842983 -0.0530218 0)
(0.840425 -0.170235 0)
(0.858992 0.182324 1.19007e-24)
(0.849587 0.0674579 0)
(0.892039 0.36377 0)
(0.873216 0.281359 0)
(0.933072 0.470282 3.89815e-23)
(0.912272 0.424821 6.01299e-22)
(0.953263 0.498915 4.51038e-21)
(1.00928 0.548348 -5.39868e-24)
(1.05548 0.561806 5.70826e-22)
(1.04944 0.554595 2.80281e-21)
(1.0537 0.564469 1.51982e-21)
(1.03477 0.478578 1.0505e-21)
(1.04241 0.527395 -9.64574e-22)
(1.0188 0.305128 5.47277e-24)
(1.02675 0.403583 7.66931e-23)
(1.00814 0.048886 0)
(1.01254 0.184699 0)
(1.00638 -0.222204 0)
(1.00669 -0.0905075 0)
(1.00984 -0.437123 0)
(1.00707 -0.339765 0)
(1.01752 -0.555979 0)
(1.01375 -0.50982 0)
(1.02392 -0.57886 0)
(1.02093 -0.57701 0)
(1.0271 -0.560268 0)
(1.02618 -0.570291 0)
(1.02418 -0.556286 0)
(1.02645 -0.554762 0)
(1.01337 -0.572845 0)
(1.01999 -0.56354 0)
(0.991514 -0.581929 5.23301e-22)
(1.00414 -0.580014 -5.12457e-22)
(0.951747 -0.558429 4.31442e-21)
(0.974743 -0.576555 0)
(0.890175 -0.465466 -3.60149e-21)
(0.923368 -0.522856 4.81774e-21)
(0.846792 -0.310747 -4.50482e-21)
(0.812141 -0.273693 3.8192e-21)
(0.852037 -0.382221 -1.03334e-21)
(1.0774 -0.586728 -5.38448e-22)
(0.966041 -0.485264 -4.81208e-21)
(0.888253 -0.349182 3.75646e-23)
(1.00988 0.534528 -6.22098e-22)
(0.807737 -0.180145 0)
(0.774446 -0.143923 -4.44294e-21)
(1.00401 0.521743 -1.11978e-21)
(1.07515 0.559741 0)
(0.963924 0.49621 -1.01094e-21)
(0.983081 0.504752 -8.76456e-23)
(1.06959 0.547768 0)
(1.05423 0.552106 -6.67659e-22)
(1.06416 -0.535851 1.00545e-20)
(1.01375 -0.513655 0)
(1.11671 -0.553063 -2.21666e-21)
(1.12022 -0.609625 2.49664e-21)
(1.12248 -0.594065 1.34998e-21)
(1.10011 -0.594697 -1.54747e-22)
(1.11265 -0.607148 1.66615e-21)
(1.06964 -0.559051 -3.70576e-23)
(1.08583 -0.576934 3.33835e-23)
(1.03678 -0.525929 0)
(1.0533 -0.541869 2.35573e-22)
(1.0018 -0.501407 -4.34658e-25)
(1.01985 -0.511782 0)
(0.959125 -0.495118 -3.85906e-24)
(0.981724 -0.496282 0)
(0.908995 -0.482686 4.71603e-24)
(0.934497 -0.492968 0)
(0.861385 -0.411957 -9.1445e-25)
(0.884074 -0.457345 0)
(0.830145 -0.256806 1.07746e-24)
(0.842917 -0.344534 0)
(0.822496 -0.043195 0)
(0.82352 -0.153889 0)
(0.838946 0.170196 7.21755e-24)
(0.827481 0.0655955 0)
(0.875891 0.343243 0)
(0.855389 0.263703 0)
(0.920767 0.448718 -2.60697e-22)
(0.898142 0.403586 1.08156e-21)
(0.943062 0.478653 -1.70168e-22)
(1.02872 0.550497 -1.25753e-21)
(1.01826 0.544305 0)
(1.04088 0.553276 6.47672e-22)
(1.08008 0.559606 -1.77633e-21)
(1.07866 0.565333 0)
(1.07632 0.490191 0)
(1.07914 0.536506 0)
(1.06704 0.316387 -5.47219e-24)
(1.0718 0.417042 0)
(1.05919 0.0549721 0)
(1.06266 0.192903 0)
(1.05489 -0.222779 0)
(1.05658 -0.0870092 0)
(1.05214 -0.439589 0)
(1.05361 -0.342385 0)
(1.04858 -0.556739 0)
(1.05048 -0.511273 0)
(1.04461 -0.5799 -2.71348e-24)
(1.04662 -0.577846 0)
(1.03874 -0.559753 -2.05822e-24)
(1.04221 -0.570952 0)
(1.02741 -0.551516 0)
(1.03384 -0.552386 0)
(1.00829 -0.562848 0)
(1.01906 -0.556153 0)
(0.978427 -0.566031 0)
(0.994951 -0.567226 0)
(0.931624 -0.533766 5.01691e-22)
(0.957699 -0.556336 0)
(0.864402 -0.432748 0)
(0.900696 -0.494675 -2.74414e-21)
(0.785295 -0.239226 4.6186e-21)
(0.82527 -0.348796 -8.26697e-22)
(0.721609 0.024638 -1.82831e-21)
(0.74931 -0.111234 0)
(0.934978 -0.38751 -5.4621e-21)
(1.0437 -0.451665 -6.74231e-21)
(1.10299 -0.477773 4.31504e-21)
(1.05097 0.538876 0)
(1.06228 0.532961 -5.22366e-22)
(0.849577 -0.219752 8.55269e-21)
(0.744398 -0.00245967 2.2524e-21)
(0.775382 -0.0346373 0)
(0.723273 0.139357 0)
(0.999972 0.50654 1.38229e-21)
(0.70424 0.158371 1.83868e-21)
(0.987146 -0.422039 -2.91389e-21)
(1.07859 -0.364435 -4.49537e-21)
(1.14553 -0.394057 -4.57932e-21)
(1.16876 -0.559908 1.37468e-21)
(1.16303 -0.495306 -2.46533e-21)
(1.15484 -0.601021 1.36832e-21)
(1.16582 -0.592126 -2.77273e-21)
(1.1212 -0.579011 -9.551e-24)
(1.13939 -0.594406 0)
(1.08209 -0.541165 3.6582e-24)
(1.1018 -0.560178 0)
(1.04228 -0.507724 0)
(1.06215 -0.523637 0)
(1.00261 -0.481056 -4.85005e-25)
(1.02265 -0.493241 0)
(0.955917 -0.469499 0)
(0.980754 -0.472979 0)
(0.899771 -0.459507 -3.25176e-24)
(0.928366 -0.467346 0)
(0.848269 -0.396562 -5.00716e-24)
(0.872422 -0.437905 0)
(0.815444 -0.250911 5.95066e-24)
(0.82891 -0.333504 0)
(0.808459 -0.049666 0)
(0.8086 -0.154096 0)
(0.826547 0.15608 4.99115e-24)
(0.814592 0.0557904 0)
(0.864742 0.321756 0)
(0.843663 0.245512 -2.87869e-28)
(0.912129 0.426454 -7.20959e-23)
(0.888105 0.381313 0)
(0.958154 0.476058 5.20663e-22)
(0.935812 0.457047 -6.02237e-22)
(0.998122 0.48925 -1.73191e-21)
(0.979107 0.485896 -5.17525e-22)
(1.0155 0.504234 -8.70214e-22)
(1.01998 0.52887 5.76259e-22)
(1.01691 0.517842 4.9843e-22)
(1.03227 0.540943 0)
(1.02513 0.536654 0)
(1.04098 0.54166 6.05818e-22)
(1.07396 0.523473 8.73961e-22)
(1.09468 0.552216 2.60872e-22)
(1.085 0.539248 4.69989e-22)
(1.10976 0.554656 0)
(1.10285 0.559052 3.48328e-22)
(1.11678 0.488594 0)
(1.11437 0.533138 0)
(1.11614 0.317504 0)
(1.11721 0.41683 0)
(1.11181 0.0566243 0)
(1.1142 0.1945 0)
(1.10541 -0.220303 0)
(1.10896 -0.0853424 0)
(1.09552 -0.436799 0)
(1.10098 -0.33965 0)
(1.08175 -0.552754 0)
(1.08908 -0.508064 0)
(1.0664 -0.574857 2.71349e-24)
(1.07403 -0.573171 0)
(1.05112 -0.553718 2.05822e-24)
(1.05896 -0.565576 0)
(1.03207 -0.542645 0)
(1.04232 -0.545221 0)
(1.00513 -0.549019 0)
(1.01983 -0.54501 0)
(0.967488 -0.545691 0)
(0.987868 -0.550423 0)
(0.913757 -0.504221 -4.89466e-22)
(0.943013 -0.531463 0)
(0.842709 -0.396779 0)
(0.880134 -0.460655 0)
(0.764923 -0.205183 0)
(0.803429 -0.312285 5.43554e-22)
(0.706265 0.046082 -2.54255e-21)
(0.731543 -0.0828078 -1.27804e-21)
(0.692627 0.169856 2.55537e-21)
(1.01565 0.488596 2.09376e-21)
(0.898309 -0.25902 1.55501e-21)
(1.01483 -0.33114 7.90842e-21)
(0.814718 -0.0703838 -2.86555e-21)
(1.11894 -0.255026 3.14855e-21)
(1.04882 -0.217096 0)
(0.750761 0.114754 2.56041e-21)
(1.08669 0.510642 -1.93644e-21)
(1.07107 0.494252 4.02268e-22)
(1.0619 0.507437 -1.19294e-21)
(0.712235 0.270323 3.72873e-21)
(0.706217 0.372662 -1.97912e-21)
(0.997431 0.470278 0)
(1.01709 0.471148 0)
(0.705647 0.359395 1.85503e-21)
(0.954088 -0.296496 -2.0105e-22)
(1.08298 -0.0880974 5.23228e-23)
(1.15728 -0.134839 -5.22553e-23)
(1.21098 -0.417152 1.10609e-22)
(1.18974 -0.290873 0)
(1.21714 -0.559769 1.36686e-21)
(1.22007 -0.506678 0)
(1.18609 -0.585513 0)
(1.20501 -0.583014 -2.48395e-22)
(1.14027 -0.557835 0)
(1.16389 -0.574992 0)
(1.09315 -0.519298 0)
(1.11655 -0.538305 0)
(1.04783 -0.486388 2.19715e-24)
(1.07021 -0.502046 0)
(1.00375 -0.458989 -4.54288e-24)
(1.02589 -0.471837 0)
(0.954581 -0.443322 0)
(0.980332 -0.449309 0)
(0.896672 -0.429619 7.36448e-25)
(0.926335 -0.438624 0)
(0.841913 -0.371935 3.15749e-24)
(0.867749 -0.409323 0)
(0.806977 -0.239284 -3.78964e-24)
(0.82122 -0.314875 0)
(0.799841 -0.0518677 0)
(0.799881 -0.149571 0)
(0.818979 0.141422 -4.99115e-24)
(0.80644 0.0469625 0)
(0.858027 0.299149 0)
(0.836603 0.226331 2.87869e-28)
(0.906574 0.402206 0)
(0.881931 0.357503 0)
(0.954549 0.453913 -3.27072e-22)
(0.931194 0.43352 0)
(0.977003 0.465221 6.28481e-22)
(1.02871 0.501668 0)
(1.03459 0.471575 3.17088e-22)
(1.03121 0.487569 -8.09445e-22)
(1.02806 0.522454 5.21502e-22)
(1.02771 0.513416 -4.88338e-22)
(1.03395 0.53083 0)
(1.03018 0.528326 0)
(1.04559 0.525525 0)
(1.03917 0.52984 0)
(1.05336 0.517993 1.49509e-21)
(1.1157 0.541256 0)
(1.10152 0.527069 0)
(1.14115 0.547602 0)
(1.12912 0.549649 0)
(1.15841 0.486543 4.08218e-24)
(1.15103 0.528667 0)
(1.16534 0.318257 0)
(1.1631 0.416584 0)
(1.16399 0.0584845 0)
(1.16551 0.195819 0)
(1.15565 -0.216045 0)
(1.16081 -0.0825203 0)
(1.13854 -0.428854 0)
(1.14819 -0.333484 0)
(1.11471 -0.542896 0)
(1.1272 -0.498884 0)
(1.08881 -0.5647 0)
(1.10172 -0.563047 0)
(1.06403 -0.543022 0)
(1.07634 -0.555328 0)
(1.03754 -0.52957 0)
(1.05136 -0.533601 0)
(1.00367 -0.531393 -9.7149e-25)
(1.02183 -0.529907 -1.31863e-28)
(0.959016 -0.52165 0)
(0.982886 -0.529875 0)
(0.899838 -0.472098 4.43576e-25)
(0.931445 -0.503356 0)
(0.826118 -0.359828 0)
(0.864366 -0.425031 0)
(0.750116 -0.172549 1.18831e-22)
(0.787125 -0.275594 -5.10691e-22)
(0.697043 0.0615167 2.36387e-21)
(0.719113 -0.057175 1.04841e-21)
(0.691117 0.26932 -2.5685e-21)
(0.687312 0.174921 -1.47289e-21)
(0.710812 0.34008 -2.54667e-21)
(0.862239 -0.10677 -3.09699e-21)
(0.981221 -0.178812 -4.88347e-21)
(1.0489 0.493214 -6.75777e-22)
(1.05517 0.478964 -4.06298e-22)
(0.786466 0.0867964 0)
(1.01133 -0.0446827 -3.42378e-21)
(0.734674 0.258184 -1.73682e-22)
(1.11632 0.0396712 2.07816e-22)
(1.04349 0.0912645 -2.07434e-22)
(0.714507 0.380307 3.29817e-21)
(0.729473 0.436496 1.18589e-21)
(1.0392 0.454041 7.26695e-22)
(0.771595 0.438299 1.48982e-21)
(0.784728 0.40332 -1.95653e-22)
(1.05129 0.472442 3.6889e-22)
(1.05746 0.455662 0)
(0.918276 -0.14294 0)
(1.07111 0.214222 -7.28861e-21)
(1.14193 0.157343 1.48524e-21)
(1.2304 -0.178999 3.02633e-21)
(1.19002 -0.0133905 -3.05753e-21)
(1.27251 -0.4334 7.59517e-22)
(1.2586 -0.322689 0)
(1.25988 -0.548702 2.19674e-22)
(1.27255 -0.507623 0)
(1.21296 -0.56149 0)
(1.23892 -0.563835 -2.21011e-22)
(1.15678 -0.531596 0)
(1.18501 -0.548963 0)
(1.10313 -0.494612 -2.21189e-24)
(1.12938 -0.512775 0)
(1.05345 -0.46312 -2.19715e-24)
(1.0779 -0.478081 0)
(1.00623 -0.435716 3.49653e-24)
(1.0297 -0.449031 0)
(0.955718 -0.41576 1.52498e-24)
(0.982013 -0.424246 0)
(0.89635 -0.400067 2.51531e-24)
(0.926853 -0.40918 0)
(0.839585 -0.348599 -8.6347e-25)
(0.866422 -0.381869 0)
(0.803152 -0.228428 9.89742e-25)
(0.818033 -0.297246 0)
(0.795677 -0.0554033 0)
(0.795706 -0.145971 0)
(0.815409 0.125842 0)
(0.802556 0.0370073 0)
(0.854904 0.275983 0)
(0.833331 0.206378 0)
(0.903995 0.377024 0)
(0.879017 0.332759 0)
(0.953619 0.430638 3.29026e-22)
(0.929193 0.409002 0)
(0.999144 0.449891 5.16547e-22)
(0.97693 0.4435 -9.0716e-22)
(1.01946 0.452985 0)
(1.04089 0.50019 0)
(1.04584 0.487378 4.18134e-22)
(1.03433 0.51782 -2.45103e-22)
(1.03698 0.510478 2.47496e-22)
(1.03385 0.522503 0)
(1.03333 0.521851 0)
(1.0389 0.513786 0)
(1.03573 0.519753 0)
(1.04344 0.504882 7.82026e-22)
(1.06198 0.462712 3.20122e-22)
(1.09884 0.494405 -3.75799e-22)
(1.08032 0.478133 -3.87998e-22)
(1.1356 0.524765 0)
(1.11721 0.510689 0)
(1.17066 0.533542 0)
(1.15372 0.534028 0)
(1.19822 0.477706 -4.08218e-24)
(1.18579 0.516912 0)
(1.21275 0.315538 0)
(1.20728 0.410918 0)
(1.21375 0.0604428 0)
(1.21478 0.195585 0)
(1.20286 -0.209188 0)
(1.20981 -0.078261 0)
(1.17921 -0.416711 0)
(1.19263 -0.323897 0)
(1.14588 -0.527578 0)
(1.1633 -0.484731 0)
(1.11033 -0.549544 -2.02263e-24)
(1.12797 -0.547481 0)
(1.07714 -0.52856 -1.36432e-24)
(1.09345 -0.54073 0)
(1.0437 -0.513128 0)
(1.06086 -0.518534 0)
(1.0036 -0.510407 9.71491e-25)
(1.02483 -0.511433 1.31863e-28)
(0.952783 -0.494442 0)
(0.979707 -0.506004 0)
(0.888871 -0.43752 4.42254e-25)
(0.92253 -0.472419 0)
(0.813466 -0.321197 0)
(0.852091 -0.387602 0)
(0.740192 -0.139956 0)
(0.775237 -0.237971 0)
(0.693765 0.0758276 3.03879e-22)
(0.712035 -0.0326599 0)
(0.697534 0.258373 0)
(0.688354 0.176272 2.42862e-22)
(0.758786 0.350504 3.31977e-22)
(0.721234 0.317366 -3.89776e-22)
(0.826963 0.414157 -1.30584e-21)
(0.84009 0.378587 -6.43927e-23)
(0.799819 0.366803 4.34852e-22)
(0.830395 0.0586437 1.5388e-21)
(0.943801 -0.00575818 1.6871e-21)
(0.765435 0.241669 0)
(0.973631 0.136497 1.75882e-21)
(0.730441 0.381411 -1.0775e-21)
(1.00178 0.266369 -3.00733e-21)
(0.730845 0.457312 -5.17741e-22)
(1.08673 0.318464 0)
(1.02278 0.373994 5.80942e-21)
(0.762457 0.471376 0)
(0.812781 0.449637 -1.47135e-21)
(0.877151 0.393736 -3.52078e-22)
(0.865707 0.423884 4.92711e-22)
(1.04383 0.435217 -9.9396e-22)
(0.90995 0.413547 1.01691e-21)
(1.06921 0.443996 0)
(1.06741 0.475277 -7.57608e-22)
(1.07557 0.458675 -3.33302e-22)
(1.04872 0.430087 -1.10171e-21)
(1.04335 0.448859 7.95744e-22)
(0.918162 0.396257 2.83665e-21)
(1.0638 0.437308 2.47535e-22)
(0.882488 0.0284124 0)
(1.03498 0.451922 2.88083e-21)
(1.09285 0.393426 -7.0693e-22)
(1.21368 0.097404 2.45268e-21)
(1.15363 0.256169 -2.47618e-21)
(1.29937 -0.216332 2.67457e-21)
(1.26171 -0.0641001 -1.05995e-21)
(1.32629 -0.438141 6.22256e-22)
(1.32123 -0.343801 -1.32431e-21)
(1.29446 -0.528857 0)
(1.31628 -0.498252 0)
(1.23388 -0.531756 0)
(1.26578 -0.537358 0)
(1.16959 -0.501942 0)
(1.20129 -0.518513 0)
(1.11134 -0.467697 2.21189e-24)
(1.13959 -0.48451 0)
(1.0587 -0.438178 0)
(1.08451 -0.452264 0)
(1.0093 -0.411346 -5.23927e-25)
(1.03373 -0.424686 0)
(0.958388 -0.388241 -5.73066e-25)
(0.984603 -0.398797 0)
(0.899404 -0.369586 0)
(0.92984 -0.379517 0)
(0.841398 -0.32377 -7.97744e-25)
(0.869034 -0.352944 0)
(0.803454 -0.216889 9.07051e-25)
(0.818999 -0.278486 0)
(0.795284 -0.0588062 0)
(0.795556 -0.142015 0)
(0.815056 0.110151 0)
(0.802118 0.0269689 0)
(0.854672 0.252866 0)
(0.833038 0.186372 0)
(0.904007 0.35157 1.47429e-24)
(0.87874 0.308012 0)
(0.954487 0.406595 -1.00653e-22)
(0.929398 0.384199 0)
(1.00182 0.428714 -4.41207e-22)
(0.978404 0.421131 1.01509e-22)
(1.02318 0.43349 2.03949e-22)
(1.05156 0.501925 2.18774e-22)
(1.05937 0.489864 -6.31716e-22)
(1.03896 0.516654 0)
(1.04467 0.510909 0)
(1.03192 0.517841 0)
(1.03476 0.518961 0)
(1.03047 0.50557 0)
(1.03045 0.513315 0)
(1.035 0.481319 4.28492e-22)
(1.0321 0.494768 -3.14549e-22)
(1.03871 0.465921 3.58795e-22)
(1.11082 0.475028 7.53182e-22)
(1.08972 0.459563 2.78417e-22)
(1.15459 0.504686 0)
(1.13227 0.490646 0)
(1.19825 0.515614 0)
(1.17666 0.514679 0)
(1.23513 0.465377 0)
(1.2181 0.501363 0)
(1.25645 0.310751 0)
(1.24813 0.402324 0)
(1.25906 0.062583 0)
(1.25997 0.194371 0)
(1.24519 -0.199972 0)
(1.25411 -0.0727176 0)
(1.21544 -0.400518 0)
(1.23221 -0.310957 0)
(1.17399 -0.507712 0)
(1.19564 -0.466175 0)
(1.13006 -0.529973 3.39811e-25)
(1.15179 -0.527357 0)
(1.08967 -0.510478 3.09315e-25)
(1.1094 -0.522058 0)
(1.05019 -0.493703 0)
(1.07027 -0.50025 0)
(1.00454 -0.486537 0)
(1.02851 -0.490058 0)
(0.948359 -0.464631 0)
(0.977911 -0.479294 0)
(0.880651 -0.401668 7.24484e-25)
(0.915871 -0.439421 0)
(0.805067 -0.283279 0)
(0.843262 -0.349878 0)
(0.73557 -0.109792 7.50718e-23)
(0.768179 -0.202209 0)
(0.696671 0.0867813 -3.00621e-25)
(0.710817 -0.0107879 -7.59832e-23)
(0.710425 0.243223 -1.98847e-22)
(0.696029 0.174236 3.24384e-22)
(0.777166 0.31551 5.32997e-23)
(0.738559 0.289172 9.18421e-23)
(0.853996 0.347142 2.54606e-23)
(0.81697 0.331424 -1.95615e-22)
(0.88616 0.36926 -2.16903e-22)
(0.805156 0.222425 -3.52957e-22)
(0.910033 0.171759 1.70891e-21)
(1.0237 0.437842 4.60931e-22)
(1.02759 0.417951 -2.26979e-22)
(0.946171 0.380245 -4.10556e-22)
(0.754986 0.378012 -2.28761e-21)
(0.937285 0.307485 0)
(0.739671 0.472952 -1.86835e-21)
(0.962302 0.420736 3.0085e-21)
(0.758485 0.502443 -1.23388e-22)
(0.980758 0.501129 0)
(0.801439 0.48527 8.48942e-22)
(1.03185 0.499573 1.73243e-21)
(0.98547 0.550194 -3.9114e-21)
(0.853267 0.456227 0)
(0.897978 0.441256 7.28929e-22)
(0.940052 0.43376 6.12134e-22)
(1.0834 0.440351 -2.48187e-22)
(0.853633 0.19986 0)
(0.981426 0.565744 0)
(1.02293 0.510346 -1.86964e-22)
(1.15446 0.326773 2.24261e-21)
(1.0855 0.435828 -1.1936e-21)
(1.28218 0.0406878 1.09363e-21)
(1.22086 0.19159 -1.09568e-21)
(1.36125 -0.245253 0)
(1.32931 -0.109923 -3.29764e-22)
(1.3695 -0.432216 -7.78018e-25)
(1.37442 -0.354835 0)
(1.32002 -0.50014 0)
(1.34973 -0.478751 0)
(1.24867 -0.497035 0)
(1.28513 -0.503932 0)
(1.17905 -0.469761 0)
(1.21293 -0.484557 0)
(1.11798 -0.439407 -1.09283e-24)
(1.14744 -0.454386 0)
(1.06364 -0.412263 6.6139e-25)
(1.09022 -0.425348 0)
(1.01298 -0.386542 -1.41398e-24)
(1.03796 -0.399547 0)
(0.962432 -0.361146 -5.39447e-25)
(0.988168 -0.373392 0)
(0.905061 -0.339329 -5.18194e-25)
(0.934744 -0.350351 0)
(0.846879 -0.298386 -1.49627e-24)
(0.874906 -0.323803 0)
(0.807382 -0.204784 8.17489e-25)
(0.82372 -0.259071 0)
(0.798068 -0.0619645 0)
(0.798818 -0.137667 0)
(0.817304 0.0946448 0)
(0.804565 0.0171082 0)
(0.856586 0.229962 0)
(0.835079 0.166539 0)
(0.905768 0.326118 -1.47429e-24)
(0.880491 0.283342 0)
(0.956698 0.382046 0)
(0.93132 0.358784 0)
(1.00472 0.406956 1.26248e-24)
(0.981207 0.397541 0)
(1.0487 0.415222 -1.19391e-22)
(1.02725 0.411934 0)
(1.09081 0.420744 2.09475e-22)
(1.06998 0.417599 2.81681e-22)
(1.10305 0.444712 5.13512e-22)
(1.08287 0.480432 1.343e-23)
(1.09335 0.463486 7.00806e-22)
(1.06147 0.506416 0)
(1.07221 0.494834 2.30595e-22)
(1.04227 0.518953 0)
(1.05129 0.514512 0)
(1.0282 0.517107 0)
(1.03457 0.519835 0)
(1.02019 0.501319 0)
(1.02332 0.510855 0)
(1.01919 0.473821 0)
(1.01893 0.488859 0)
(1.02066 0.456534 -6.35313e-22)
(1.03211 0.397051 5.6386e-22)
(1.07643 0.423297 -1.84566e-22)
(1.05412 0.409999 0)
(1.12166 0.452458 0)
(1.09829 0.438007 -2.63485e-22)
(1.1711 0.480817 0)
(1.14595 0.467113 0)
(1.22236 0.492755 0)
(1.19681 0.490785 0)
(1.26777 0.448561 2.85477e-24)
(1.24655 0.480811 0)
(1.2952 0.304034 0)
(1.2844 0.390332 0)
(1.29847 0.0655545 0)
(1.29975 0.192739 0)
(1.2811 -0.188403 0)
(1.29208 -0.0654425 0)
(1.24591 -0.380828 0)
(1.26562 -0.295071 0)
(1.19779 -0.483969 0)
(1.22285 -0.443776 0)
(1.14723 -0.506916 1.68282e-24)
(1.17221 -0.503517 0)
(1.10096 -0.489306 1.055e-24)
(1.12351 -0.500099 0)
(1.05638 -0.471545 0)
(1.07893 -0.479072 0)
(1.00597 -0.460092 0)
(1.03231 -0.466051 0)
(0.945249 -0.432622 0)
(0.976988 -0.4501 0)
(0.874705 -0.364971 9.40871e-26)
(0.910993 -0.404794 0)
(0.800033 -0.246422 0)
(0.837218 -0.31218 0)
(0.736007 -0.0826944 0)
(0.765339 -0.168838 0)
(0.706381 0.092008 5.06402e-25)
(0.71533 0.00683056 0)
(0.732064 0.219882 0)
(0.711789 0.16516 0)
(0.804658 0.27921 3.97224e-23)
(0.765452 0.256362 -7.52205e-24)
(0.879198 0.318978 -1.53257e-22)
(0.843554 0.297411 1.08701e-22)
(0.91183 0.347249 7.33035e-23)
(1.11169 0.424576 -7.24452e-22)
(0.788347 0.370649 3.5272e-22)
(0.879782 0.337383 0)
(0.966944 0.55138 5.37429e-23)
(0.938875 0.596338 -4.94219e-24)
(0.756983 0.484141 2.12208e-21)
(0.907787 0.453472 0)
(0.761268 0.53012 1.09418e-21)
(0.929795 0.539623 0)
(0.794226 0.52099 -1.243e-21)
(0.943616 0.590232 0)
(0.841723 0.490116 -8.38173e-22)
(0.947882 0.607214 0)
(0.886874 0.469945 -1.14814e-21)
(0.929218 0.462295 4.93469e-22)
(0.970112 0.407458 -3.13143e-23)
(0.969823 0.438439 -3.01575e-21)
(1.0113 0.428716 3.08748e-22)
(1.09742 0.400157 1.44599e-22)
(1.03704 0.375694 -9.47435e-22)
(1.0135 0.364066 -7.38857e-23)
(1.11944 0.40343 -5.00986e-22)
(1.00901 0.386532 0)
(0.830433 0.35704 0)
(0.922041 0.561788 -9.73063e-23)
(0.949513 0.51185 -2.06395e-22)
(1.0752 0.442829 1.01231e-21)
(1.00679 0.492749 1.7674e-22)
(1.22085 0.255038 6.11361e-22)
(1.14602 0.364406 -1.01336e-21)
(1.34719 -0.0129652 9.20317e-22)
(1.28929 0.125751 -1.69506e-21)
(1.4124 -0.264035 0)
(1.38938 -0.147415 0)
(1.39989 -0.415022 -7.94638e-25)
(1.41518 -0.354106 0)
(1.33529 -0.464622 0)
(1.37144 -0.449821 0)
(1.25701 -0.459436 0)
(1.2961 -0.465999 0)
(1.18494 -0.436319 0)
(1.21974 -0.448752 0)
(1.12281 -0.410396 1.09283e-24)
(1.15272 -0.423329 0)
(1.06795 -0.385863 -6.6139e-25)
(1.09475 -0.397864 0)
(1.01696 -0.361547 4.32114e-25)
(1.04208 -0.373986 0)
(0.967359 -0.334907 -4.97887e-25)
(0.992327 -0.34829 0)
(0.912724 -0.309865 5.55669e-25)
(0.940991 -0.322272 0)
(0.855569 -0.272527 1.27783e-25)
(0.88349 -0.294808 0)
(0.814535 -0.191845 7.24485e-25)
(0.831808 -0.238852 0)
(0.803469 -0.0645535 0)
(0.805023 -0.132609 0)
(0.821529 0.0795093 0)
(0.80931 0.00768407 0)
(0.859998 0.207307 0)
(0.838857 0.146989 0)
(0.908732 0.300681 0)
(0.883647 0.258762 0)
(0.959768 0.356993 0)
(0.934353 0.333143 0)
(1.0085 0.383873 -2.29463e-25)
(0.984729 0.373151 0)
(1.05366 0.394285 1.57671e-22)
(1.03174 0.38977 -3.93673e-23)
(1.07581 0.396933 -1.26491e-22)
(0.907741 0.597768 7.9273e-23)
(0.882866 0.551796 0)
(0.89597 0.510664 2.67528e-23)
(1.123 0.449065 -3.47811e-22)
(1.14214 0.406219 -7.2896e-23)
(1.13305 0.428269 -2.77826e-22)
(1.09847 0.485902 0)
(1.11118 0.468669 0)
(1.07064 0.511823 0)
(1.08479 0.500505 -2.28034e-22)
(1.04443 0.522657 0)
(1.05709 0.519111 0)
(1.02289 0.518382 0)
(1.03297 0.522432 0)
(1.00816 0.499619 0)
(1.01451 0.510688 0)
(1.00171 0.46899 0)
(1.00398 0.485614 0)
(1.00255 0.429838 -1.43412e-22)
(1.0012 0.450153 -4.33368e-23)
(1.00528 0.408355 2.28106e-22)
(1.08292 0.401037 1.50999e-22)
(1.05966 0.388674 6.95322e-23)
(1.13143 0.427725 0)
(1.10643 0.414419 -4.02189e-23)
(1.18513 0.454135 0)
(1.1576 0.44137 0)
(1.24245 0.466341 0)
(1.21361 0.463756 0)
(1.29512 0.428254 -2.85476e-24)
(1.27024 0.456574 0)
(1.32802 0.295765 3.06527e-24)
(1.31498 0.375576 0)
(1.33132 0.0696998 0)
(1.33335 0.191005 0)
(1.30973 -0.174383 0)
(1.32306 -0.0561547 0)
(1.26971 -0.358308 0)
(1.29183 -0.276565 0)
(1.21649 -0.457163 1.62556e-24)
(1.24414 -0.418367 0)
(1.161 -0.481145 0)
(1.18837 -0.476744 0)
(1.11031 -0.465766 0)
(1.13501 -0.475627 0)
(1.06163 -0.447136 0)
(1.0862 -0.455609 0)
(1.00729 -0.431419 3.14769e-25)
(1.03558 -0.4398 0)
(0.943001 -0.398823 0)
(0.97641 -0.41879 0)
(0.870737 -0.327955 3.55937e-25)
(0.907528 -0.368986 0)
(0.798087 -0.211384 -6.0753e-25)
(0.833712 -0.275205 0)
(0.74069 -0.0596997 0)
(0.766123 -0.138295 0)
(0.72218 0.0904644 4.25764e-25)
(0.72506 0.0189064 0)
(0.7588 0.191207 0)
(0.733802 0.148856 0)
(0.828162 0.242134 -1.10405e-22)
(0.792597 0.220052 0)
(0.891789 0.290406 3.17082e-23)
(0.861766 0.264552 1.14808e-22)
(0.953566 0.346112 2.19836e-22)
(0.921579 0.319099 3.4353e-22)
(1.01617 0.392047 -7.84473e-22)
(0.986222 0.370344 -2.73243e-22)
(1.04188 0.404606 1.1413e-21)
(1.05285 0.430566 -1.57289e-22)
(1.07832 0.400515 1.91878e-22)
(0.783004 0.48818 0)
(0.859406 0.474325 0)
(0.985037 0.376426 2.49215e-22)
(0.989618 0.353223 -2.52576e-22)
(0.771276 0.552481 0)
(0.885851 0.562987 0)
(0.792041 0.555468 2.4332e-22)
(0.906839 0.616492 0)
(0.832983 0.525406 0)
(0.918845 0.635758 -6.73162e-22)
(0.876625 0.499309 7.97362e-22)
(0.918008 0.628596 0)
(0.918348 0.489788 -5.31372e-22)
(0.962721 0.480749 9.26407e-22)
(1.00425 0.468504 1.99683e-22)
(1.04487 0.453979 1.46811e-21)
(0.880668 0.582387 0)
(0.852087 0.489586 -2.95611e-23)
(0.848646 0.527966 -5.30723e-23)
(0.808813 0.458757 1.76885e-21)
(1.14939 0.383856 2.22629e-22)