/*--------------------------------*- C++ -*----------------------------------*\
  =========                 |
  \\      /  F ield         | OpenFOAM: The Open Source CFD Toolbox
   \\    /   O peration     | Website:  https://openfoam.org
    \\  /    A nd           | Version:  10
     \\/     M anipulation  |
\*---------------------------------------------------------------------------*/
FoamFile
{
    format      ascii;
    class       surfaceScalarField;
    location    "4";
    object      phi;
}
// * * * * * * * * * * * * * * * * * * * * * * * * * * * * * * * * * * * * * //

dimensions      [0 3 -1 0 0 0 0];

internalField   nonuniform List<scalar> 
57492
(
0.000768949
-1.98133e-05
-0.000148413
-0.000600724
-0.000739587
0.00088648
0.000622057
-3.34881e-05
9.61365e-05
0.000378862
-0.000441511
0.00317901
0.00337585
-0.000278613
-0.00627625
-0.00862655
0.00401767
0.00778789
0.00218629
-0.00211394
-0.0011127
0.00104035
-0.0040291
0.00102779
-0.000478608
0.00347992
0.000684955
-0.00252777
0.000833727
-0.00426402
0.00405256
-0.000622265
0.000779693
0.00392813
-0.00387409
-0.00259411
-0.000811774
0.00249943
0.000906459
-0.000119388
-0.00245889
-1.58341e-05
0.0012493
-0.00136235
-6.33671e-06
-0.000246037
0.000683566
0.00366782
-0.00341803
-0.0012865
0.00103671
0.000404534
0.0029306
0.000332679
-0.000331758
0.000793097
0.00330542
-0.00376676
-0.000661971
0.00322813
-0.00289791
0.00013812
-0.000299436
0.000161316
-0.00175512
0.00127874
0.000614507
-0.00465053
0.000291972
0.00336172
0.000996837
0.00112138
-0.00471285
-0.00105906
-6.55781e-05
-0.000907929
-0.00133506
0.00230857
-0.000671284
0.000639618
-3.39118e-05
-0.0042135
0.00319936
0.00149448
-0.000480337
-0.00418751
0.000446528
-0.000472526
-0.00111797
0.00058476
0.000459053
7.41566e-05
-0.000774399
-0.000357061
1.34901e-05
-0.000396778
-0.00123801
0.00144037
0.000194411
-0.000453908
0.000129768
-7.26378e-05
0.00234646
-0.00157575
-0.00148426
0.00071355
-0.00198937
0.00139047
0.00294536
-0.00242369
-0.00487746
0.00393645
0.0033647
-0.00486699
-0.00128072
0.00372402
-0.000738928
-0.000169224
0.000908152
-0.000286919
-0.000452009
-0.0014175
0.00196807
-0.000837497
0.000211896
-0.000789182
-0.000840211
-0.00201019
0.00303798
-0.000240112
-0.00192422
0.00116388
0.000760337
-0.00438571
0.0024615
0.00445653
-0.000441666
2.89417e-05
-0.00404381
0.00327271
-0.000375663
0.00155949
-0.000351288
0.00435486
-0.00444524
0.00390941
0.000680207
-0.00390466
0.00379985
-0.000369048
0.00417326
-0.00154698
-0.00303212
0.000405832
0.00470283
0.000150643
0.00268704
-0.00150637
0.00261918
0.00197416
0.00419281
-0.00413418
-0.000622444
0.000589351
0.00416728
-0.00426954
-0.000345418
0.000480772
0.000511509
0.00416543
-0.00412584
-0.000551098
0.000220772
-0.00397328
-0.00551636
0.00313648
0.00426473
-0.00188485
-0.00214063
0.00387017
-0.0072459
-9.67967e-05
-0.00057873
3.11691e-05
0.000644357
-0.0010821
-0.000377047
0.000373107
-0.000383297
-0.00107191
-0.000271616
6.5993e-05
0.000170822
-0.000139652
4.49213e-05
0.0001259
0.0087154
0.00354813
-0.00668544
-0.00557809
0.00179741
-0.000333215
0.00725121
-0.00870258
0.00232494
0.00817505
0.00165648
-0.00681093
0.00151393
-0.00287857
0.00218312
-0.000818487
0.00242473
-0.00293828
0.00202747
-0.000112853
0.000103971
-1.09307e-05
-0.000235198
-2.6068e-05
-0.00072506
-0.000110861
-0.0030571
0.00556869
0.00322377
-0.00573536
0.00419603
-0.0048284
0.00277819
0.00501242
-0.00222192
0.0115757
-0.00306634
-0.000528329
-0.007981
0.000542929
0.00643444
0.0045983
0.0005781
-0.00610622
0.00607105
5.52387e-05
-8.87268e-05
0.000151375
0.000993324
0.00196055
-0.000699543
-0.00225433
0.00124803
0.000124155
-0.000224697
7.88472e-05
0.00014585
-0.000556803
0.000332106
-0.00725477
0.00317106
-0.0020423
0.00612601
-0.00606503
-0.00316922
0.00197948
-0.00275017
0.00237232
-0.00568718
0.00215716
-1.86139e-05
-0.00102303
-0.00111552
-0.00078152
0.00244656
0.000492124
-0.000923119
-9.19878e-05
0.000233587
-0.000847146
-9.4587e-05
-0.000290757
-0.00157942
-0.00155621
-0.000552775
6.50571e-05
0.00204393
-0.00129356
-0.00254625
0.0022836
0.00124001
0.000198359
-0.00273193
0.000787522
-0.000100289
0.000984679
-0.0001321
-0.00069376
0.000403003
8.24328e-05
-0.000776193
0.000233704
-0.000790506
0.00426859
0.00333456
-0.000176431
0.00212929
-0.00648725
-5.92828e-05
0.00231507
-0.00180649
-0.000449294
0.000187758
0.00323915
-0.00348619
0.00272063
0.00186342
-0.000766307
-0.00381774
-0.000632997
0.000134467
0.00321916
0.00362369
-0.00239327
-0.00149687
-0.00301065
0.00101133
0.00349619
-0.0013353
0.00349544
-0.00365701
0.000234815
-0.00458076
0.000682942
0.000461426
-2.45207e-05
0.00263247
-0.0013625
-0.00200956
0.000887788
-0.00175591
0.00350059
0.0016584
0.000115865
-0.000188783
0.000340292
6.93777e-05
-0.000220887
0.00101747
-0.00124201
3.57545e-05
-0.000366941
0.000855984
0.000528427
-0.000128391
0.000101742
-0.00688139
0.0032031
0.00684935
0.00769156
-0.00247147
-0.00838932
-0.00333769
0.00414786
-9.68347e-05
-0.000935809
-0.000205364
-0.00056226
1.15178e-05
4.35039e-05
-0.000133757
4.47341e-05
4.55194e-05
-0.000128739
0.000138493
3.37501e-05
-0.000289462
2.6966e-05
-0.000289841
-0.000333342
6.09236e-05
-0.000872229
-0.000353422
-0.00197812
-0.0021654
0.00255351
0.00159001
0.000106011
0.000953833
-0.00303796
-0.00289197
0.000832581
-0.00306191
0.00135957
-5.27909e-05
-0.00359493
0.000770928
-0.000237899
0.00071942
-0.00337205
0.00266749
-1.48607e-05
0.000542219
-0.00289895
0.00307615
0.00245091
-0.0102087
-0.0019144
0.00232091
0.00312195
-0.00367678
0.00217168
-0.000372832
-0.000321441
0.0005198
-0.000356203
3.47614e-05
0.000303739
-4.26537e-05
0.00474385
-0.00291453
-0.00231546
0.000486132
0.00415112
0.000241441
0.00581204
-0.00165159
-0.00630108
0.000195814
0.0040467
0.00156952
-0.000234774
-0.00394685
0.00437743
1.86515e-05
-0.000374854
0.000785088
-0.00228207
-0.0030806
0.00140821
0.00341066
0.00250505
-0.000150883
-0.00262937
0.000275205
0.000750088
-0.000234409
-0.00309568
0.000471805
0.00401435
0.0004416
-0.00278719
-0.00013196
2.15668e-05
-0.000279031
0.000227441
6.52459e-05
-1.36558e-05
9.89976e-05
3.66115e-06
-0.00038169
0.000136
-0.00108035
0.00104335
-0.00320749
0.00463508
-0.00119388
0.00328338
-0.00547808
-0.0010128
-9.88865e-05
-0.00381912
0.00438981
-0.00498391
0.000463186
-0.00333389
-0.00244493
0.000794913
0.00284771
0.00279928
-0.00535502
0.00242159
0.00446068
-0.00403456
0.00216961
-0.00307228
0.00162784
-0.000725166
0.00236858
-0.00301629
0.00281732
0.00444955
0.00171145
0.00443394
-0.000276143
-0.00443712
0.000279326
0.00486991
-0.000646787
0.000210813
0.00518684
-0.000501791
-0.000284018
-0.00440103
0.00372245
-0.000940472
0.00240486
0.00426233
-0.00112155
0.000864513
-0.00400529
0.000943746
0.00434221
-0.00102363
-0.00386854
-0.00139539
0.00414238
0.000823473
-0.00368069
-0.00150801
0.00360881
-0.00199561
-0.00328245
0.00174992
0.00352814
-0.00205972
-0.00332987
0.00339397
0.00193517
0.00314153
-0.00122388
-0.00385282
0.00312015
-0.00324469
-0.0022495
0.00221082
0.00315883
-0.0017967
0.00268872
-0.0040972
0.00365734
-0.000784012
-0.00516208
0.00078584
0.00544683
-0.00107059
0.00170906
-0.000997365
0.00287906
-0.00306758
0.00118589
-0.000564248
0.00305974
-0.00349286
-0.000132766
0.000985372
0.000805796
-0.00289813
-0.00384666
0.00240455
-5.63955e-05
6.00566e-05
3.47978e-06
-5.98753e-05
-0.000326984
-0.00453327
0.00335388
-0.003669
-0.000241164
0.00358319
0.000199489
-0.00385411
-1.4379e-05
-0.000404624
0.0018328
0.000432428
-0.0018606
0.00196938
0.000406107
-0.00278011
0.00181721
0.00198496
-3.42475e-05
6.56367e-05
0.000430036
6.71321e-05
-0.00010138
0.000132769
-2.29711e-05
5.18139e-05
-0.000300458
2.18456e-05
-4.48168e-05
7.36595e-05
-0.000102025
5.75032e-05
-0.000626762
6.53626e-05
-0.000167388
0.000122866
5.43313e-05
-5.51536e-06
-0.000177206
-1.72375e-05
7.15688e-05
-2.27529e-05
0.000967831
0.00276485
-0.00359821
0.00137102
-0.00391332
0.00351013
0.00385857
0.0002773
-0.00116897
-0.00242062
0.00114684
0.00244275
-0.000707476
0.0026975
-0.00315899
0.000152256
-0.00328036
0.00387719
-0.00391484
-1.20144e-05
4.96558e-05
0.00387458
3.5259e-05
-3.26444e-05
-2.40138e-05
-0.00391001
1.91859e-05
0.00390267
-9.98881e-07
-2.70876e-05
0.00397114
5.68744e-05
-0.000125352
2.7993e-05
0.00406917
-0.000126014
0.00402026
-0.00399736
5.09544e-06
-0.00018906
0.00425829
-6.26135e-08
0.00390758
-7.63797e-05
-0.00387586
-6.46273e-05
-0.00386343
-1.34259e-05
-0.00385902
3.08448e-05
-0.00394282
7.17902e-05
-0.00387942
-8.74195e-05
-0.000183291
0.00444192
-3.45255e-07
0.00372428
7.01548e-09
-1.91334e-05
-0.00387821
-1.26616e-05
-0.00391209
1.35383e-05
-2.72772e-05
-0.0041032
0.000252261
9.00706e-08
0.00444184
-4.23595e-09
0.0037248
-4.29527e-07
-0.00405679
0.000117423
0.00444187
2.61441e-07
-2.94145e-07
1.48774e-07
0.00444167
5.24448e-08
0.00372501
4.87178e-08
0.00372556
-4.01915e-07
-2.30331e-05
-0.00407952
-6.43278e-07
-0.00407959
-2.27046e-07
3.78553e-07
0.00444155
-2.55343e-07
0.00372586
8.46346e-08
-7.26398e-09
-0.00407909
-4.26849e-07
-0.0040789
-6.97077e-07
3.74393e-07
0.00444107
9.9995e-08
0.00372661
-3.77623e-07
8.77928e-08
-0.0040784
-7.70256e-07
-0.00407849
-3.26273e-07
8.3709e-07
0.00444046
-2.21644e-07
0.00372733
1.14967e-07
-1.04773e-08
-0.00407784
-5.51736e-07
-0.0040777
-7.97963e-07
1.28496e-06
0.00443903
1.40856e-07
0.00372897
-3.58808e-07
1.1314e-07
-0.00407707
-8.84449e-07
-0.00407713
-4.53865e-07
2.66692e-06
0.00443656
-1.93349e-07
0.0037315
1.40876e-07
9.4462e-06
-0.00408585
-6.69612e-07
-0.00406674
-9.44636e-07
4.93622e-06
0.00443144
1.77031e-07
0.00373677
-3.37159e-07
2.66262e-05
-0.00397055
-0.000141927
-0.00399734
-4.27786e-05
9.96505e-06
0.00442164
-1.65003e-07
0.00372927
1.74636e-05
2.63923e-05
-0.0039897
-7.24343e-06
-0.00396772
-3.22847e-06
1.94524e-05
0.00440197
2.17395e-07
0.00370302
4.57022e-05
5.67264e-05
-0.00384962
-0.000196802
-0.00385366
-5.73304e-05
0.000188787
0.00421331
-1.23796e-07
0.00381557
7.62458e-05
6.53632e-05
-0.00383295
-8.20329e-05
-0.00381212
2.38193e-05
0.000166694
0.00390258
0.000144036
0.00387838
0.00010388
0.000104288
-0.000146233
-0.00379101
-0.00379794
9.01054e-05
1.17133e-05
3.77181e-05
0.00385315
0.00385305
3.70409e-05
-0.00384674
0.00390651
-0.0001418
-0.00386925
-0.000123724
0.000178262
-0.000154029
-0.00381524
9.0949e-05
-0.00371062
-0.00382234
0.00385529
-4.01899e-05
-0.00011264
-0.00371521
0.00371605
-1.51094e-06
-1.84885e-06
-0.00371685
0.00371759
-1.29692e-06
-1.67921e-06
-0.00371829
0.00371894
-1.08124e-06
-1.46607e-06
-0.00371957
0.00397274
-9.10317e-07
-1.27324e-06
-0.00396119
0.00390649
7.38791e-05
-1.10311e-06
-0.00403175
0.00399972
-6.16009e-07
-7.56042e-05
-0.00387128
0.00381433
-6.84043e-05
0.000101357
-0.00372341
0.00372377
-4.26638e-07
-3.50871e-05
-0.00372413
0.00372446
-3.34805e-07
-7.0455e-07
-0.00372479
0.00372509
-2.51514e-07
-6.24202e-07
-0.00372539
0.00372567
-1.7768e-07
-5.54347e-07
-0.00372594
0.0037262
-1.12983e-07
-4.93036e-07
-0.00372644
0.00372668
-5.72219e-08
-4.41259e-07
-0.00372691
0.00372713
-3.95648e-09
-3.95525e-07
-0.00370529
0.00379241
5.69174e-05
2.17134e-05
0.00378284
4.72839e-05
-2.30442e-05
7.4572e-05
0.00380162
-2.93596e-06
0.00383294
0.00380722
-0.00374455
1.35802e-05
-0.00384417
0.00383588
4.53351e-05
6.69243e-05
0.00374424
-0.00372671
-6.68454e-08
4.53943e-05
0.00372647
-0.00372622
-1.11757e-07
-5.79821e-07
0.00372596
-0.00372569
-1.5816e-07
-6.1763e-07
0.0037254
-0.0037251
-2.14045e-07
-6.61605e-07
0.00372479
-0.00372446
-2.79052e-07
-7.15158e-07
0.00372411
-0.00372376
-3.50642e-07
-7.76182e-07
0.0037993
-0.00379376
-4.41224e-07
-8.39116e-07
0.00385746
-0.00381576
-5.51297e-05
-9.2862e-07
0.00379086
-0.0037661
4.70275e-05
5.95172e-06
0.00381334
-0.00383819
3.83875e-05
-4.01761e-05
0.00371956
-0.00371895
-8.43221e-07
-1.20732e-06
0.0037183
-0.00371761
-1.01646e-06
-1.34248e-06
0.00371688
-0.0037161
-1.23363e-06
-1.52921e-06
0.00371529
-0.00375658
-1.48221e-06
-1.75796e-06
0.00375781
-0.0038134
-1.73846e-06
-2.00442e-06
0.00378732
-0.00373322
3.60007e-05
-2.25763e-06
-0.00369346
5.11947e-05
-0.00390005
-0.000123222
0.00379442
6.29989e-05
8.05405e-07
0.00383214
0.000142119
-0.000126989
-0.00372575
0.000114566
-0.00366591
0.000129259
-0.000119364
-0.00390995
-0.00381297
-0.00382436
0.00376174
-7.91856e-05
0.00386883
-0.00390225
-8.98018e-05
-7.92483e-05
-0.00371367
0.00371441
-4.0928e-05
-6.45709e-05
-0.0037153
0.00371612
-2.33844e-06
-2.73281e-06
-0.0037169
0.00371764
-2.03432e-06
-2.45898e-06
-0.00371833
0.00371898
-1.73189e-06
-2.15554e-06
-0.00371959
0.00372015
-1.47473e-06
-1.8809e-06
-0.0037207
0.00379585
-1.26564e-06
-1.65353e-06
-0.0037217
0.00372217
-1.08106e-06
-1.45783e-06
-0.00382484
0.00375735
-9.14684e-07
-1.31805e-06
-0.00372343
0.0037238
-7.97699e-07
-1.16444e-06
-0.00372415
0.00372449
-6.74566e-07
-1.05844e-06
-0.00372481
0.00372512
-5.6086e-07
-9.45763e-07
-0.00372541
0.0037257
-4.58901e-07
-8.45229e-07
-0.00372596
0.00372622
-3.69837e-07
-7.56519e-07
-0.00372646
0.00372669
-2.94018e-07
-6.81238e-07
-0.00372691
0.00372714
-2.2424e-07
-6.17136e-07
-0.00372706
0.0037572
2.6775e-05
2.17905e-05
8.86678e-06
-1.67304e-05
0.00380949
2.2325e-06
0.00380105
-0.00374591
0.00378292
2.59892e-05
5.85777e-05
0.00378533
-0.00378631
4.63152e-05
0.0037548
3.1334e-05
-2.38253e-06
4.50259e-05
0.00378949
0.00381383
0.00378698
-0.00375938
-1.40259e-05
6.76018e-05
0.00372696
-0.00372672
-3.01929e-07
1.29773e-05
0.00372649
-0.00372624
-3.60927e-07
-8.19181e-07
0.00372598
-0.00372571
-4.2923e-07
-8.74749e-07
0.00372543
-0.00372513
-5.11926e-07
-9.43292e-07
0.00372482
-0.00372449
-6.07377e-07
-1.02562e-06
0.00372415
-0.00372379
-7.12264e-07
-1.119e-06
0.0037234
-0.00372301
-8.35638e-07
-1.22367e-06
0.00372259
-0.00377677
-9.56589e-07
-1.34179e-06
0.00376934
-0.00372121
-1.10395e-06
-1.46943e-06
0.00375979
-0.00372014
-1.26178e-06
-1.5973e-06
0.00371958
-0.00371897
-1.45265e-06
-1.77372e-06
0.00371833
-0.00371765
-1.69446e-06
-1.98051e-06
0.00371694
-0.00371618
-1.98869e-06
-2.24095e-06
0.00371539
-0.00371456
-2.31784e-06
-2.54762e-06
0.00371369
-0.00371277
-2.65529e-06
-2.87379e-06
0.00371182
-0.00367283
-2.99633e-06
-3.20694e-06
0.00365127
-0.00360084
6.41366e-05
2.96416e-05
-0.00393069
-9.09258e-05
0.000101849
-0.000157492
-0.00361027
-0.0035781
7.91014e-05
-0.000211342
-0.0036719
2.48655e-05
0.00376028
0.00376037
3.94558e-05
-5.67853e-05
8.18547e-05
-0.00393502
-5.25733e-05
-0.0039349
7.75652e-05
-0.000156269
-0.00353156
5.47424e-05
-0.00355527
-0.00394246
0.00379249
-0.00378141
1.49086e-05
0.00375356
6.37914e-05
6.75207e-05
-2.91499e-05
0.00375112
4.44702e-05
0.00378342
-0.00388911
0.00393034
-9.38017e-05
-0.00010477
8.70938e-05
-0.00391723
0.00397628
-8.78393e-05
0.00031928
-0.00420772
-1.76006e-05
-0.00392482
0.00389304
-5.80188e-05
-8.54113e-05
-0.00384206
0.00378059
-1.77092e-05
-2.82729e-05
-0.00375215
0.00371466
-3.43403e-06
-3.61373e-05
-0.00371548
0.00371627
-3.13038e-06
-3.55571e-06
-0.00371702
0.00371774
-2.74844e-06
-3.20822e-06
-0.00371841
0.00371905
-2.37118e-06
-2.82838e-06
-0.00371965
0.00372022
-2.04551e-06
-2.48202e-06
-0.00372076
0.00372127
-1.77259e-06
-2.19183e-06
-0.00372176
0.00372222
-1.54223e-06
-1.9489e-06
-0.00372265
0.00372307
-1.34147e-06
-1.74668e-06
-0.00372347
0.00372385
-1.17103e-06
-1.56376e-06
-0.0037242
0.00372454
-1.01354e-06
-1.41159e-06
-0.00372486
0.00372517
-8.67607e-07
-1.26595e-06
-0.00372546
0.00372573
-7.36552e-07
-1.13465e-06
-0.003726
0.00372625
-6.21787e-07
-1.01858e-06
-0.00372649
0.00372672
-5.23946e-07
-9.19346e-07
-0.00372693
0.00372715
-4.36882e-07
-8.35412e-07
-0.00373763
0.00374404
2.03584e-05
1.13093e-05
2.1215e-05
2.46838e-05
-8.7828e-06
0.00379359
-4.01187e-05
1.1392e-05
0.00378901
0.00378562
0.0037759
0.00377471
-0.00377072
4.23242e-05
-0.00376926
0.0037487
6.00156e-05
3.67865e-05
0.00372738
-0.00374094
-4.64998e-07
2.42643e-05
0.00372697
-0.00372674
-5.30088e-07
-9.96118e-07
0.00372651
-0.00372626
-6.05428e-07
-1.05169e-06
0.00372601
-0.00372574
-6.97351e-07
-1.12812e-06
0.00372546
-0.00372517
-8.07628e-07
-1.22224e-06
0.00372486
-0.00372453
-9.34059e-07
-1.33372e-06
0.00372419
-0.00372383
-1.07417e-06
-1.45977e-06
0.00372345
-0.00372306
-1.23223e-06
-1.60044e-06
0.00372264
-0.0037222
-1.40118e-06
-1.75688e-06
0.00372174
-0.00372125
-1.59012e-06
-1.92875e-06
0.00372073
-0.00372019
-1.8038e-06
-2.11692e-06
0.00371962
-0.00371902
-2.05644e-06
-2.3433e-06
0.00371838
-0.00371772
-2.36138e-06
-2.61159e-06
0.00371702
-0.00371629
-2.72176e-06
-2.93636e-06
0.00371553
-0.00371472
-3.12079e-06
-3.31045e-06
0.00371389
-0.00371301
-3.53408e-06
-3.70973e-06
0.0037121
-0.00371114
-3.95569e-06
-4.11796e-06
0.00367696
-0.00360845
-4.38137e-06
-4.53346e-06
0.00356858
-0.00357585
6.2008e-05
3.92354e-05
6.9691e-05
-6.80607e-05
-0.0035569
-0.00355871
5.25521e-05
0.000114768
-0.00396269
-9.32324e-05
-0.00373494
3.75474e-05
0.00372741
0.00376152
3.16467e-05
0.000135879
-0.00414094
1.84585e-06
-0.00360147
0.000807138
-0.00332639
0.00433647
-6.64205e-05
4.49888e-05
-0.00353727
-0.000100101
-0.00352322
-0.00262754
0.00399681
0.000615692
-0.00205436
-0.00014075
-0.00392092
-0.00378729
0.00394519
0.000161378
0.000338268
-0.000128749
-0.00390556
0.00386873
-5.69776e-05
2.20331e-05
-0.00383572
0.00378239
-4.68405e-06
-5.23978e-05
-0.00375893
0.00374571
-4.48785e-06
-4.8216e-06
-0.00371419
0.003715
-4.24159e-06
-4.61914e-06
-0.00371577
0.00371651
-3.87144e-06
-4.32333e-06
-0.00371722
0.0037179
-3.42932e-06
-3.91553e-06
-0.00371855
0.00371917
-2.99286e-06
-3.47645e-06
-0.00371976
0.00372032
-2.60831e-06
-3.07131e-06
-0.00372085
0.00372136
-2.28131e-06
-2.72439e-06
-0.00372184
0.0037223
-2.00188e-06
-2.4306e-06
-0.00372274
0.00372315
-1.75748e-06
-2.17984e-06
-0.00372355
0.00372392
-1.5434e-06
-1.95652e-06
-0.00372427
0.0037246
-1.34907e-06
-1.76232e-06
-0.00372492
0.00372522
-1.17102e-06
-1.58303e-06
-0.00372551
0.00372579
-1.01077e-06
-1.42114e-06
-0.00372604
0.00372629
-8.6961e-07
-1.27747e-06
-0.00372653
0.00372675
-7.48039e-07
-1.15324e-06
-0.00372696
0.00372717
-6.42694e-07
-1.04756e-06
-0.00373944
0.00376035
-5.52223e-07
-9.60079e-07
-0.00375135
0.00374913
1.71235e-05
3.02153e-05
-0.00376387
0.00375966
4.17602e-05
4.90544e-05
5.27293e-05
-2.93981e-05
0.00376568
-3.28511e-05
7.81842e-06
0.00378469
0.00374728
3.67817e-05
1.51964e-05
0.00374161
0.003793
-2.59936e-05
1.80471e-05
0.00375907
0.0037651
-2.24889e-05
3.76014e-06
0.00378025
0.00377898
0.00378323
-0.00376993
4.67195e-05
-0.00384163
0.00373908
0.000106311
-2.67574e-05
0.00376061
-0.00375277
3.4485e-05
2.74634e-05
0.00372738
-0.00372718
-6.63953e-07
-1.12332e-06
0.00372698
-0.00372676
-7.47819e-07
-1.19678e-06
0.00372654
-0.0037263
-8.44454e-07
-1.2772e-06
0.00372605
-0.00372579
-9.61741e-07
-1.37704e-06
0.00372551
-0.00372522
-1.10015e-06
-1.49784e-06
0.00372491
-0.00372459
-1.25781e-06
-1.63883e-06
0.00372425
-0.00372389
-1.43277e-06
-1.7976e-06
0.00372352
-0.00372312
-1.62751e-06
-1.97426e-06
0.00372271
-0.00372227
-1.84082e-06
-2.17042e-06
0.00372181
-0.00372132
-2.07835e-06
-2.38794e-06
0.00372081
-0.00372027
-2.34616e-06
-2.6295e-06
0.0037197
-0.0037191
-2.65551e-06
-2.90965e-06
0.00371848
-0.00371782
-3.01786e-06
-3.23539e-06
0.00371714
-0.00371643
-3.43591e-06
-3.61734e-06
0.00371569
-0.00371491
-3.89644e-06
-4.05006e-06
0.00371411
-0.00371326
-4.38068e-06
-4.51507e-06
0.00371238
-0.00371145
-4.88368e-06
-4.99927e-06
0.00371048
-0.00370945
-5.41298e-06
-5.50412e-06
0.00366417
-0.0035962
-5.96702e-06
-6.03925e-06
0.00359905
-0.00358593
3.18704e-05
5.54046e-05
5.3995e-05
-5.05693e-05
-0.0035407
-0.00356173
2.97899e-05
0.000111104
-0.00393792
-2.85343e-05
-0.00370456
0.00028726
-0.00362107
1.84886e-06
-0.00370342
0.0037609
-0.00376648
4.73422e-05
0.00374775
2.09716e-05
4.75466e-05
-3.24184e-05
0.00376512
1.28339e-05
0.00377379
0.000275157
-0.00319544
3.25941e-06
-0.00357705
-0.00192977
-0.00198519
-0.00311649
0.00357891
0.000153273
8.29792e-05
-5.72339e-05
-0.00356645
5.89412e-05
-0.00353769
-0.00290175
-0.000355487
-0.00383835
-0.00373156
0.00377945
0.000113494
0.000185611
-0.00380821
0.00375738
-6.15372e-06
-6.72791e-06
-0.0037111
0.0037121
-5.6816e-06
-6.11169e-06
-0.00371301
0.00371387
-5.34257e-06
-5.73912e-06
-0.00371467
0.00371542
-4.99263e-06
-5.41692e-06
-0.00371613
0.00371682
-4.56021e-06
-5.03689e-06
-0.00371748
0.00371812
-4.07236e-06
-4.57742e-06
-0.00371874
0.00371934
-3.59142e-06
-4.09458e-06
-0.00371991
0.00372046
-3.15868e-06
-3.64336e-06
-0.00372099
0.00372149
-2.78265e-06
-3.24764e-06
-0.00372196
0.00372242
-2.45586e-06
-2.9056e-06
-0.00372284
0.00372325
-2.16741e-06
-2.60806e-06
-0.00372364
0.00372401
-1.9114e-06
-2.34334e-06
-0.00372436
0.00372469
-1.68034e-06
-2.10892e-06
-0.003725
0.0037253
-1.47029e-06
-1.89589e-06
-0.00372558
0.00372585
-1.2812e-06
-1.70376e-06
-0.00372611
0.00372635
-1.11319e-06
-1.53247e-06
-0.00372658
0.0037268
-9.66715e-07
-1.38246e-06
-0.003727
0.0037272
-8.39774e-07
-1.25306e-06
-0.00372738
0.00372756
-7.26754e-07
-1.14188e-06
-0.00375881
0.00374583
3.01047e-05
-1.04161e-06
2.84036e-05
4.05136e-05
-6.43948e-05
0.00378956
-1.70779e-05
2.92896e-05
0.00377248
0.00377072
1.62786e-08
-1.01417e-07
0.00374169
0.00372862
-3.63391e-05
5.41406e-05
0.00374127
0.00372866
0.0038007
0.00378527
-0.0037741
3.55455e-05
-0.00373818
0.00377615
6.83473e-05
2.03299e-05
0.0037628
-0.00372756
-7.543e-07
1.61712e-05
0.00372739
-0.0037272
-8.52088e-07
-1.29742e-06
0.00372701
-0.0037268
-9.56473e-07
-1.39145e-06
0.00372658
-0.00372635
-1.07788e-06
-1.49593e-06
0.0037261
-0.00372584
-1.22173e-06
-1.62123e-06
0.00372557
-0.00372528
-1.38887e-06
-1.76945e-06
0.00372498
-0.00372466
-1.57758e-06
-1.94009e-06
0.00372433
-0.00372397
-1.78703e-06
-2.13139e-06
0.0037236
-0.00372321
-2.01928e-06
-2.34395e-06
0.0037228
-0.00372237
-2.2761e-06
-2.58012e-06
0.00372191
-0.00372143
-2.56213e-06
-2.84309e-06
0.00372092
-0.00372038
-2.88292e-06
-3.13645e-06
0.00371982
-0.00371923
-3.24714e-06
-3.46978e-06
0.00371862
-0.00371797
-3.66358e-06
-3.85029e-06
0.0037173
-0.00371661
-4.13438e-06
-4.28532e-06
0.00371588
-0.00371513
-4.65104e-06
-4.77148e-06
0.00371435
-0.00371353
-5.20204e-06
-5.29694e-06
0.00371267
-0.00371177
-5.78763e-06
-5.85506e-06
0.00371082
-0.00370981
-6.42004e-06
-6.45271e-06
0.00370875
-0.0037076
-7.1117e-06
-7.10351e-06
0.00364437
-0.00360462
-7.88045e-06
-7.82789e-06
0.00356621
-0.00353791
3.06448e-05
-8.62351e-06
0.000100547
-6.47722e-05
-0.00357346
-0.00351715
7.97868e-05
8.20372e-05
-0.0037327
5.12303e-07
-0.00370322
4.65169e-05
0.00373052
0.00376196
2.70184e-05
0.000162951
-0.00350886
-0.000476248
-0.00423363
-7.61079e-05
-0.00359558
1.83229e-06
-0.00370199
3.36412e-06
-0.00363765
-0.0041766
-0.000710344
0.000135898
-0.000423415
-0.00388908
-0.000313065
-0.00378467
-5.79661e-05
-0.00357325
6.3023e-05
-0.00011915
-0.00351734
0.000103983
-0.00355811
-0.0037558
-0.00339848
0.00354901
2.74911e-06
0.00357442
-0.00393852
-0.000346247
-0.000179548
-0.00365753
0.00370822
6.27976e-05
7.70908e-05
-0.00370945
0.00371062
-7.3197e-06
-7.95485e-06
-0.00371169
0.00371267
-6.66544e-06
-7.186e-06
-0.00371357
0.00371439
-6.16597e-06
-6.63525e-06
-0.00371515
0.00371586
-5.7013e-06
-6.17328e-06
-0.00371653
0.00371717
-5.20455e-06
-5.70513e-06
-0.00371779
0.0037184
-4.67924e-06
-5.19851e-06
-0.00371899
0.00371956
-4.16479e-06
-4.68226e-06
-0.00372011
0.00372065
-3.69262e-06
-4.19499e-06
-0.00372116
0.00372165
-3.27259e-06
-3.75731e-06
-0.00372211
0.00372256
-2.90087e-06
-3.37062e-06
-0.00372298
0.00372338
-2.56967e-06
-3.02853e-06
-0.00372376
0.00372412
-2.27336e-06
-2.723e-06
-0.00372446
0.00372479
-2.00646e-06
-2.4501e-06
-0.0037251
0.00372539
-1.76486e-06
-2.20378e-06
-0.00372567
0.00372593
-1.54715e-06
-1.98188e-06
-0.00372619
0.00372642
-1.35249e-06
-1.78318e-06
-0.00372665
0.00372686
-1.18028e-06
-1.60711e-06
-0.00372706
0.00372725
-1.02909e-06
-1.45279e-06
-0.00372743
0.0037276
-8.95881e-07
-1.31831e-06
-0.00372775
0.00375862
-7.67636e-07
-1.19646e-06
-0.00376147
0.00377023
3.85752e-05
2.55601e-05
-0.00371989
0.00373581
3.0598e-05
7.13116e-05
6.36638e-05
-4.70722e-05
0.00375589
-1.44429e-05
-7.0833e-06
0.00375734
0.00377974
4.71931e-05
2.93679e-08
0.00374234
0.00377084
3.75842e-08
-1.05493e-07
0.00374176
0.00372869
1.67873e-07
-2.43244e-07
0.00374134
0.00372872
-2.76953e-05
2.2317e-05
0.0037705
0.00377276
-1.61587e-05
2.11117e-05
0.00375701
0.00377995
0.00378862
-0.00374589
2.56117e-05
-0.00377112
0.00374898
4.32514e-05
4.45185e-05
0.00375339
-0.00374526
2.74127e-05
2.7838e-05
0.00372774
-0.00372758
-9.10725e-07
-1.35138e-06
0.00372742
-0.00372724
-1.02993e-06
-1.46392e-06
0.00372705
-0.00372685
-1.15833e-06
-1.57878e-06
0.00372664
-0.00372641
-1.306e-06
-1.70874e-06
0.00372617
-0.00372591
-1.47715e-06
-1.8606e-06
0.00372565
-0.00372536
-1.67295e-06
-2.03656e-06
0.00372507
-0.00372475
-1.89257e-06
-2.23667e-06
0.00372442
-0.00372407
-2.13587e-06
-2.46012e-06
0.00372371
-0.00372332
-2.4056e-06
-2.70814e-06
0.00372292
-0.00372249
-2.70497e-06
-2.98394e-06
0.00372204
-0.00372156
-3.0383e-06
-3.29148e-06
0.00372107
-0.00372054
-3.41057e-06
-3.63477e-06
0.00371999
-0.00371941
-3.82827e-06
-4.0203e-06
0.0037188
-0.00371817
-4.29723e-06
-4.45399e-06
0.00371751
-0.00371683
-4.81945e-06
-4.94066e-06
0.00371612
-0.00371538
-5.39016e-06
-5.4786e-06
0.00371462
-0.00371381
-6.00544e-06
-6.0622e-06
0.00371298
-0.00371209
-6.67209e-06
-6.6921e-06
0.00371116
-0.00371018
-7.4073e-06
-7.38111e-06
0.00370913
-0.00370802
-8.228e-06
-8.14726e-06
0.00370684
-0.00370557
-9.14754e-06
-9.00693e-06
0.00370422
-0.00366339
-1.01856e-05
-9.97232e-06
0.00362346
-0.00355686
3.73861e-05
3.98533e-05
5.22415e-05
-8.44056e-05
-0.00352595
-0.00355567
5.1053e-05
5.36737e-05
-0.00362342
-0.00399444
-0.000367497
1.79323e-05
-0.0036029
0.00378395
-0.00379332
3.99716e-05
0.00378063
-3.7652e-06
4.13247e-05
-3.53298e-05
0.00375101
5.13189e-05
0.00373899
4.04692e-07
-0.0037018
1.83275e-06
-0.00370046
-0.000113436
-0.00379521
3.49936e-06
-0.00369912
5.38137e-06
-0.00369778
7.46067e-06
-0.0036092
7.18607e-05
-3.7869e-05
-0.00355994
2.92251e-05
-0.00351304
-0.00370172
-0.00385028
0.00366607
-0.000162033
-0.00030032
0.0004155
-0.00410962
0.00401625
-0.00418011
-0.000136465
-0.000201528
-0.00353541
0.00359713
-5.89793e-05
-4.88845e-05
-0.00366839
0.00370876
2.24292e-05
5.83519e-06
-0.00370999
0.00371115
-8.47726e-06
-9.18629e-06
-0.00371221
0.00371319
-7.64181e-06
-8.25164e-06
-0.00371407
0.00371488
-6.97046e-06
-7.51753e-06
-0.00371561
0.00371629
-6.38299e-06
-6.90611e-06
-0.00371693
0.00371754
-5.81821e-06
-6.34402e-06
-0.00371813
0.00371871
-5.2571e-06
-5.78925e-06
-0.00371927
0.00371982
-4.71402e-06
-5.24326e-06
-0.00372035
0.00372087
-4.20795e-06
-4.72547e-06
-0.00372136
0.00372184
-3.74825e-06
-4.25076e-06
-0.00372229
0.00372272
-3.33463e-06
-3.82291e-06
-0.00372313
0.00372353
-2.96257e-06
-3.43904e-06
-0.0037239
0.00372425
-2.62793e-06
-3.09421e-06
-0.00372459
0.00372491
-2.32642e-06
-2.78473e-06
-0.00372521
0.0037255
-2.05403e-06
-2.50598e-06
-0.00372577
0.00372603
-1.80826e-06
-2.25491e-06
-0.00372628
0.00372651
-1.58717e-06
-2.02921e-06
-0.00372673
0.00372694
-1.38934e-06
-1.8273e-06
-0.00372714
0.00372732
-1.21349e-06
-1.64789e-06
-0.00372749
0.00372765
-1.05774e-06
-1.48969e-06
-0.00372781
0.00372795
-9.13775e-07
-1.34883e-06
-0.00375473
0.00376825
2.50505e-05
-1.21651e-06
4.62414e-05
1.87712e-05
-4.19919e-05
0.00377911
-2.94572e-05
3.24733e-06
0.00378355
0.00376906
-6.12255e-08
-7.38855e-09
0.00374241
0.00372879
6.33707e-08
-1.09535e-07
0.00374181
0.00372874
1.54739e-07
-2.14246e-07
0.0037414
0.00372877
-4.37054e-05
3.27348e-05
0.00378147
0.00372884
0.00377736
0.0037831
-0.00378547
2.79802e-05
-0.00377491
0.00375845
5.97074e-05
5.27115e-05
0.00375627
-0.00372792
-9.34249e-07
-1.36445e-06
0.00372778
-0.00372762
-1.06432e-06
-1.4961e-06
0.00372746
-0.00372729
-1.20165e-06
-1.62311e-06
0.00372711
-0.00372691
-1.35494e-06
-1.76061e-06
0.00372671
-0.00372648
-1.52923e-06
-1.91654e-06
0.00372625
-0.003726
-1.72765e-06
-2.09516e-06
0.00372574
-0.00372546
-1.95176e-06
-2.29864e-06
0.00372517
-0.00372486
-2.20171e-06
-2.52778e-06
0.00372453
-0.00372419
-2.47834e-06
-2.78278e-06
0.00372383
-0.00372345
-2.78473e-06
-3.06558e-06
0.00372306
-0.00372264
-3.1253e-06
-3.38007e-06
0.0037222
-0.00372173
-3.50431e-06
-3.73077e-06
0.00372125
-0.00372073
-3.92632e-06
-4.12185e-06
0.00372019
-0.00371962
-4.39591e-06
-4.55816e-06
0.00371903
-0.00371841
-4.91716e-06
-5.04406e-06
0.00371777
-0.0037171
-5.49136e-06
-5.58255e-06
0.00371641
-0.00371568
-6.11702e-06
-6.17319e-06
0.00371493
-0.00371414
-6.79637e-06
-6.81535e-06
0.00371331
-0.00371244
-7.54216e-06
-7.51603e-06
0.00371153
-0.00371056
-8.37568e-06
-8.29314e-06
0.00370954
-0.00370845
-9.31655e-06
-9.16833e-06
0.0037073
-0.00370607
-1.03774e-05
-1.01582e-05
0.00370477
-0.00370338
-1.1573e-05
-1.12729e-05
0.003651
-0.0036007
-1.29087e-05
-1.25302e-05
0.00357729
-0.00358133
3.32665e-05
2.76397e-05
-0.000200511
2.98491e-05
-0.00361401
-0.00367409
7.38855e-05
-4.02885e-05
-0.00354663
-0.00352249
1.50457e-05
1.21951e-06
-0.00360671
4.4821e-05
0.00373906
0.00379003
1.97404e-05
9.33978e-05
-0.00414851
-0.000124998
3.0812e-07
-0.00370027
0.000204906
-0.00422113
-3.57599e-05
-0.00368058
1.86931e-06
-0.00369883
-4.46448e-05
-0.00372072
3.66193e-06
-0.0036974
5.67193e-06
-0.00369599
7.89156e-06
-0.00365496
-2.93522e-05
-0.00357087
4.32673e-05
-4.3965e-05
-0.00354594
4.57587e-05
-0.00352498
-0.00370019
-0.0041074
0.00393906
3.18756e-05
-0.000221379
-0.00408975
0.000162619
0.0042263
-0.00412826
-0.000319416
-6.09868e-06
-0.00382659
0.00374118
-7.66194e-05
-8.90609e-05
-0.00370533
0.0036585
-1.21467e-05
-1.30372e-05
-0.00367601
0.00370926
-1.08251e-05
-1.16708e-05
-0.00371047
0.00371161
-9.61635e-06
-1.03972e-05
-0.00371266
0.00371362
-8.60581e-06
-9.30153e-06
-0.0037145
0.00371529
-7.76572e-06
-8.38974e-06
-0.00371602
0.00371669
-7.05378e-06
-7.62939e-06
-0.00371731
0.00371791
-6.41583e-06
-6.96968e-06
-0.00371848
0.00371904
-5.81519e-06
-6.36183e-06
-0.00371958
0.00372011
-5.24274e-06
-5.7838e-06
-0.00372062
0.00372112
-4.70471e-06
-5.23626e-06
-0.00372159
0.00372205
-4.20814e-06
-4.72703e-06
-0.00372249
0.00372291
-3.75536e-06
-4.26088e-06
-0.00372331
0.00372369
-3.34487e-06