/*--------------------------------*- C++ -*----------------------------------*\
  =========                 |
  \\      /  F ield         | OpenFOAM: The Open Source CFD Toolbox
   \\    /   O peration     | Website:  https://openfoam.org
    \\  /    A nd           | Version:  10
     \\/     M anipulation  |
\*---------------------------------------------------------------------------*/
FoamFile
{
    format      ascii;
    class       volVectorField;
    location    "4";
    object      U;
}
// * * * * * * * * * * * * * * * * * * * * * * * * * * * * * * * * * * * * * //

dimensions      [0 1 -1 0 0 0 0];

internalField   nonuniform List<vector> 
28942
(
(0.0148082 -0.00959328 3.04748e-23)
(0.0188774 -0.0130174 2.28411e-23)
(0.0213037 -0.0145028 -1.94686e-21)
(0.103362 0.0180132 -8.28241e-21)
(0.102389 0.021901 2.6847e-21)
(0.0486608 0.00276268 0)
(0.0574639 0.00344154 4.31109e-23)
(0.063675 0.00325661 -3.73944e-23)
(0.123915 -0.00177097 -7.39952e-22)
(0.122449 -0.00129981 2.06009e-21)
(0.0366658 0.0274849 6.35042e-22)
(0.0462237 0.0315046 -3.83679e-22)
(0.0269836 0.021348 0)
(0.0228291 0.0187414 0)
(0.0966806 0.00159351 -4.88991e-23)
(0.0958638 0.0033714 -1.08938e-23)
(0.0884795 0.0160388 1.00097e-21)
(0.0860785 0.013959 1.59479e-21)
(0.0127848 -0.0157387 5.39912e-21)
(0.031088 -0.0317764 -1.43017e-21)
(0.0986029 0.0333014 1.51519e-21)
(0.0975157 0.03113 0)
(0.0381135 0.0191547 4.80174e-22)
(0.0187242 0.00988652 8.70183e-23)
(0.0602421 0.0210654 2.54501e-22)
(0.0835921 0.0145578 -2.32e-22)
(0.0078057 -0.018383 1.17958e-20)
(0.00678077 -0.0164369 -4.26875e-21)
(0.0395758 -0.0273494 1.32016e-21)
(0.0213147 -0.0148371 4.75164e-22)
(0.0496291 -0.00522425 0)
(0.0612137 -0.0061718 -2.90021e-23)
(0.069793 0.0071648 9.59783e-22)
(0.0857913 0.000646549 -1.93486e-22)
(0.0199333 0.0187476 2.1986e-21)
(0.0165075 0.0197908 -2.51991e-21)
(0.0338351 0.0387714 -4.55958e-21)
(0.0194814 0.0314613 -1.44553e-21)
(0.0295537 0.00216085 -3.04947e-23)
(0.00902965 0.0167087 -3.72611e-21)
(0.0309261 -0.0060684 0)
(0.0517806 -0.0107393 0)
(0.102788 -0.00296713 -9.44774e-23)
(0.102823 -0.00278377 2.7738e-22)
(0.102992 -0.00304359 2.42319e-22)
(0.080168 0.00280305 3.66094e-23)
(0.0758893 0.00168433 -6.66734e-23)
(0.0924992 0.00109601 -2.37527e-22)
(0.090455 0.00119239 6.45544e-23)
(0.0807467 -0.00322843 -6.42284e-22)
(0.0684502 -0.0054528 3.93899e-22)
(0.112068 0.00387301 -1.16909e-21)
(0.112318 0.00365026 -1.048e-21)
(0.124944 -0.00422298 -3.26359e-24)
(0.12327 -0.00372411 3.77638e-22)
(0.117983 0.0363247 -1.28293e-22)
(0.132735 0.0278057 -3.36614e-22)
(0.0145656 0.0116178 9.27935e-23)
(0.0285098 0.0207393 0)
(0.0242097 0.0167576 3.83101e-23)
(0.0124293 0.00959152 -8.68579e-23)
(0.00411299 0.00334527 8.0661e-23)
(0.00393072 0.00335225 1.12018e-22)
(0.129688 -0.0385259 0)
(0.131541 -0.0173291 -1.5481e-22)
(0.142363 -0.0190373 1.21548e-22)
(0.138129 -0.0327931 0)
(0.090087 -0.0301574 -9.64155e-22)
(0.0936596 -0.0320594 -6.45046e-22)
(0.00740711 -0.00479191 -1.46608e-22)
(0.00915111 -0.00680976 1.51773e-23)
(0.0148444 -0.0109706 -4.31643e-24)
(0.0864149 -0.0422511 0)
(0.0918902 -0.0359647 3.34183e-21)
(0.0831577 -0.0500334 9.31594e-22)
(0.140678 -0.0106423 -5.51176e-22)
(0.139403 -0.0192887 5.67758e-22)
(0.141356 -0.0159735 6.56698e-22)
(0.00552205 -0.00335968 -1.2227e-22)
(0.00748309 -0.00518849 1.32204e-21)
(0.0604338 -0.0344621 4.34233e-22)
(0.0401684 -0.0239529 -4.93693e-22)
(0.00471934 -0.00275463 2.24987e-21)
(0.00978309 -0.00526669 -9.00951e-22)
(0.116857 0.0463901 2.06161e-22)
(0.108997 0.0540248 -1.55353e-21)
(0.0899297 0.0550257 1.4821e-21)
(0.0526462 0.0368552 -5.21249e-21)
(0.0499979 0.0342052 3.70159e-21)
(0.0328717 0.0224273 -2.54854e-22)
(0.036203 0.0251147 -1.16776e-21)
(0.0418146 0.0302876 1.60714e-21)
(0.0320592 0.0182785 1.3729e-22)
(0.0398454 0.0241556 3.14303e-23)
(0.0233877 0.0180542 -6.29834e-23)
(0.0203637 0.0150402 8.74672e-22)
(0.019066 0.0125116 -1.14173e-21)
(0.0171707 0.0124144 -6.07931e-21)
(0.0189413 0.0145103 1.44443e-21)
(0.0149813 -0.00760986 0)
(0.101402 0.00521044 0)
(0.0982963 0.0157734 -5.75137e-21)
(0.0614174 0.0101147 3.45241e-21)
(0.0899448 0.0170849 0)
(0.114329 -0.0160695 0)
(0.113477 -0.0160162 0)
(0.113674 -0.0171382 -2.37655e-21)
(0.113797 0.0193136 -4.05193e-22)
(0.113139 0.0209645 3.93626e-21)
(0.112381 0.0193428 2.10075e-21)
(0.0138766 0.0118846 -2.72119e-22)
(0.0122611 0.0106652 3.05436e-22)
(0.0435033 -0.0245836 1.10321e-22)
(0.05024 -0.0295868 -2.47591e-22)
(0.0300987 -0.0198112 -5.82728e-22)
(0.00657526 0.0114614 1.97359e-21)
(0.019276 0.0185927 4.68884e-21)
(0.0138723 0.023413 2.80708e-22)
(0.00504245 0.0146742 -1.16578e-20)
(0.131604 0.0405428 1.53268e-22)
(0.116575 0.0525813 2.34146e-21)
(0.127408 0.0463724 -4.04481e-21)
(0.0427977 -0.0313241 1.33417e-21)
(0.0261521 -0.0185187 -9.81275e-22)
(0.00530957 -0.000506406 -5.49719e-21)
(0.00453333 -0.00337668 0)
(0.0125301 -0.00134308 2.75987e-21)
(0.0236752 -0.0171674 1.32473e-21)
(0.0369759 -0.0293337 -3.53279e-21)
(0.0906645 0.00148545 1.94257e-22)
(0.0931173 0.00137788 -1.08436e-22)
(0.0879734 0.00160626 -5.8073e-24)
(0.0297053 -0.0432274 0)
(0.0311215 -0.0435736 0)
(0.0918841 -0.0168549 -8.40736e-22)
(0.101577 -0.0197657 5.46584e-21)
(0.0874461 -0.0249098 0)
(0.0508303 -0.0418537 0)
(0.0624594 -0.0524207 -1.3636e-21)
(0.0439241 0.0406609 3.14488e-21)
(0.00695965 0.00626805 -5.33236e-22)
(0.00587309 0.00562495 4.84805e-22)
(0.0237857 -0.02026 -1.37223e-21)
(0.103218 -0.00324781 1.42102e-21)
(0.103206 -0.00309627 -2.61633e-22)
(0.136863 0.0231544 1.9639e-22)
(0.129194 0.0303213 -2.61739e-22)
(0.130441 0.0279665 -1.22395e-21)
(0.00640358 0.00576246 -1.49019e-22)
(0.0478917 0.0362878 5.4756e-21)
(0.0683962 0.0481482 -1.38832e-21)
(0.0674613 0.0420972 -6.86126e-24)
(0.0708088 -0.00270754 1.23241e-23)
(0.0703613 -0.00352327 6.348e-23)
(0.0742498 -0.00553088 6.30023e-24)
(0.0799296 -0.00346868 -3.89954e-23)
(0.0490788 0.039677 1.44762e-22)
(0.0203096 0.0168797 0)
(0.00669178 -0.00619928 -4.90379e-22)
(0.00870086 -0.00854792 5.44727e-22)
(0.0193694 -0.0146443 -5.60774e-22)
(0.0590952 -0.0204163 -1.13606e-21)
(0.0948547 -0.0158394 -3.14324e-22)
(0.085985 -0.00385796 3.73541e-26)
(0.0983887 -0.00196879 1.80974e-22)
(0.0906181 -0.0148059 -5.51495e-22)
(0.0951127 0.0359869 3.37739e-21)
(0.0929123 0.0412499 9.87363e-23)
(0.0885024 0.0275263 1.84881e-21)
(0.0912756 0.0289199 -1.33982e-21)
(0.099566 0.0362604 0)
(0.112443 -0.00285118 3.9529e-22)
(0.112277 -0.00312663 7.77167e-22)
(0.118123 -0.00130559 -7.7498e-22)
(0.118493 -0.000516531 1.34704e-21)
(0.11519 0.0159801 5.22748e-22)
(0.116771 0.0156026 -1.49552e-21)
(0.115407 0.0177071 0)
(0.113809 0.0177344 2.92924e-22)
(0.115266 0.0196042 0)
(0.116676 0.0260791 -1.06485e-21)
(0.115696 0.0285177 -5.58608e-22)
(0.112208 0.0335108 -9.77361e-22)
(0.114179 0.0310267 0)
(0.117468 0.0327523 3.42706e-21)
(0.115255 0.0355191 4.66077e-23)
(0.109687 0.0363496 -5.25489e-22)
(0.102157 0.0441747 -2.20226e-21)
(0.0999296 0.0400211 -3.80553e-22)
(0.072167 -0.0291498 -5.67814e-22)
(0.0784331 -0.0304369 2.2649e-22)
(0.0270459 -0.0199872 4.12922e-22)
(0.0857242 0.00173265 -1.4708e-22)
(0.095357 0.000997688 0)
(0.00276181 -0.00231784 -3.44134e-22)
(0.00273152 -0.00210385 -2.44978e-22)
(0.0903371 -0.00152852 5.49999e-23)
(0.0963225 -0.00134997 1.51684e-23)
(0.0960005 -0.000201889 0)
(0.0891209 0.000633659 2.16137e-23)
(0.103818 0.000177943 -3.04008e-22)
(0.103815 0.00014624 1.46027e-21)
(0.103848 0.000150909 7.14644e-22)
(0.00975655 0.00862778 -2.19649e-22)
(0.00260292 0.00241823 1.4317e-22)
(0.00295868 0.00259973 -3.07837e-22)
(0.00688329 0.00508056 0)
(0.00150051 0.001414 4.51435e-22)
(0.00205705 0.0014131 1.16691e-23)
(0.0161472 0.00926676 -3.59146e-22)
(0.00405474 0.00249758 -7.11757e-22)
(0.00444837 0.00248711 0)
(0.00159819 0.00772314 0)
(0.000589606 0.00334377 0)
(0.000318857 0.00201714 0)
(0.113549 -0.0148363 3.92839e-22)
(0.113228 -0.0138567 0)
(0.112748 -0.0148093 -4.43884e-22)
(0.0872239 -0.0147302 6.56955e-21)
(0.0892592 -0.0153121 -2.38881e-21)
(0.0881379 -0.0129448 0)
(0.104349 7.12656e-06 -1.79975e-23)
(0.104363 7.06924e-06 3.60228e-23)
(0.104335 8.17605e-06 -1.21629e-23)
(0.104375 6.96718e-06 0)
(0.104387 7.22683e-06 -2.30085e-23)
(0.104399 6.82942e-06 0)
(0.104398 -6.49471e-06 0)
(0.10441 5.69707e-06 8.54656e-23)
(0.104408 -7.59106e-06 0)
(0.104387 -6.566e-06 -2.31549e-23)
(0.104376 -6.68337e-06 0)
(0.104363 -6.8793e-06 1.20492e-23)
(0.104349 -7.09266e-06 -1.7991e-23)
(0.104335 -7.48178e-06 1.21477e-23)
(0.10442 5.06383e-06 -8.17836e-23)
(0.104419 -8.08589e-06 -2.86413e-24)
(0.104321 8.54814e-06 1.34691e-27)
(0.104321 -7.61136e-06 -1.8564e-23)
(0.104305 8.8975e-06 9.86796e-23)
(0.104429 4.99707e-06 7.65245e-26)
(0.10443 -7.86172e-06 -2.86897e-24)
(0.104305 -7.43379e-06 3.65719e-23)
(0.104439 4.80437e-06 7.7122e-23)
(0.104448 4.49857e-06 -7.70586e-23)
(0.104439 -7.59338e-06 5.77441e-24)
(0.104448 -7.34053e-06 1.14242e-23)
(0.104288 1.07777e-05 -9.60104e-23)
(0.104288 -8.45854e-06 -2.40675e-23)
(0.104456 4.23023e-06 0)
(0.104457 -7.0898e-06 -1.12681e-23)
(0.10427 1.14292e-05 1.18644e-26)
(0.104271 -9.32698e-06 -1.18941e-26)
(0.104464 3.96135e-06 0)
(0.104465 -6.81955e-06 0)
(0.104252 1.21919e-05 0)
(0.104252 -1.02036e-05 0)
(0.104472 3.72615e-06 0)
(0.104473 -6.54733e-06 5.42262e-24)
(0.104232 1.30676e-05 -4.97251e-23)
(0.104232 -1.10026e-05 -1.21378e-26)
(0.10448 3.48379e-06 2.84349e-25)
(0.10448 -6.22933e-06 -5.79148e-24)
(0.10421 1.414e-05 4.99627e-23)
(0.10421 -1.16961e-05 0)
(0.104487 3.22536e-06 0)
(0.104487 -5.87725e-06 0)
(0.104187 1.54413e-05 -3.1598e-24)
(0.104187 -1.235e-05 5.4216e-23)
(0.104494 2.86715e-06 3.52156e-23)
(0.104494 -5.40569e-06 0)
(0.104162 1.63486e-05 -2.54197e-25)
(0.104163 -1.37357e-05 -5.13135e-23)
(0.1045 2.28664e-06 -5.26855e-23)
(0.104501 -5.02573e-06 -1.5296e-23)
(0.104135 1.57541e-05 5.23094e-23)
(0.104137 -1.52186e-05 0)
(0.104506 1.46619e-06 1.73611e-23)
(0.104507 -4.76058e-06 1.02023e-23)
(0.104108 1.51175e-05 -2.64583e-23)
(0.104111 -1.7665e-05 5.36614e-23)
(0.104513 5.52484e-07 -6.94285e-23)
(0.104514 -3.70559e-06 7.82524e-23)
(0.10408 1.21154e-05 2.72876e-23)
(0.104082 -1.97603e-05 8.63465e-25)
(0.10452 -4.9141e-07 0)
(0.10452 -3.37522e-06 3.73319e-23)
(0.10405 9.51185e-06 -5.48774e-23)
(0.104053 -2.26696e-05 1.09796e-22)
(0.104527 -1.35657e-07 0)
(0.104527 -4.13659e-06 0)
(0.10408 4.18414e-05 -2.70009e-23)
(0.104051 4.04703e-05 -1.09289e-22)
(0.10402 6.56374e-06 0)
(0.104023 -2.60874e-05 -5.59426e-23)
(0.104136 4.13818e-05 -1.69802e-23)
(0.104109 4.23539e-05 3.33221e-24)
(0.104188 3.78361e-05 0)
(0.104162 4.02411e-05 -5.47993e-23)
(0.104232 3.3495e-05 -1.05892e-25)
(0.104211 3.57061e-05 0)
(0.104271 2.8799e-05 0)
(0.104252 3.11487e-05 0)
(0.104306 2.42823e-05 0)
(0.104289 2.63116e-05 0)
(0.104336 2.23828e-05 2.40349e-23)
(0.10432 2.36192e-05 6.05316e-24)
(0.104362 2.02395e-05 -2.31855e-23)
(0.10435 2.14124e-05 -2.40052e-23)
(0.104388 1.79565e-05 4.12179e-23)
(0.104375 1.88138e-05 5.26981e-23)
(0.104411 1.57113e-05 0)
(0.104399 1.68785e-05 0)
(0.10443 1.32175e-05 -1.81573e-25)
(0.104421 1.4467e-05 0)
(0.104448 1.1464e-05 0)
(0.104439 1.2276e-05 0)
(0.104465 1.00061e-05 0)
(0.104457 1.07063e-05 0)
(0.10448 8.76632e-06 0)
(0.104473 9.34571e-06 0)
(0.104494 7.78198e-06 0)
(0.104487 8.23106e-06 0)
(0.104507 6.97057e-06 0)
(0.1045 7.34389e-06 0)
(0.104519 5.34195e-06 -2.84126e-23)
(0.104513 6.55734e-06 0)
(0.104525 4.40953e-06 -9.19313e-24)
(0.104533 -4.40108e-07 8.9689e-24)
(0.104533 -4.23361e-06 -8.89427e-24)
(0.104514 -9.96955e-06 0)
(0.104526 -8.60118e-06 -3.64876e-23)
(0.10452 -8.93917e-06 -1.87609e-23)
(0.104501 -1.20572e-05 5.12534e-24)
(0.104508 -1.08338e-05 -2.00853e-23)
(0.104488 -1.34417e-05 1.65876e-25)
(0.104495 -1.30009e-05 0)
(0.104473 -1.42192e-05 0)
(0.10448 -1.38165e-05 0)
(0.104457 -1.51554e-05 0)
(0.104465 -1.46591e-05 0)
(0.10444 -1.62903e-05 0)
(0.104449 -1.56983e-05 2.17694e-29)
(0.10442 -1.7536e-05 1.83381e-25)
(0.10443 -1.68864e-05 0)
(0.104398 -1.99239e-05 0)
(0.104409 -1.88452e-05 0)
(0.104375 -2.06508e-05 0)
(0.104387 -2.05181e-05 0)
(0.10435 -2.16114e-05 0)
(0.104363 -2.08823e-05 -1.21802e-23)
(0.104321 -2.36481e-05 3.19129e-24)
(0.104336 -2.32452e-05 -1.56958e-23)
(0.104289 -2.69851e-05 0)
(0.104305 -2.46833e-05 -1.27631e-23)
(0.104253 -3.06375e-05 0)
(0.104271 -2.86959e-05 0)
(0.104212 -3.54489e-05 0)
(0.104233 -3.28568e-05 0)
(0.104166 -4.13913e-05 0)
(0.104189 -3.84061e-05 0)
(0.104115 -4.76028e-05 -1.38627e-23)
(0.104141 -4.42057e-05 0)
(0.104059 -5.42421e-05 -5.61853e-23)
(0.104087 -5.07295e-05 -1.39439e-23)
(0.10403 -5.81825e-05 5.71908e-23)
(0.104021 3.89184e-05 1.08333e-22)
(0.104531 3.73018e-06 1.79966e-23)
(0.104532 -8.29576e-06 -3.51873e-23)
(0.103993 -2.92647e-05 0)
(0.104 -6.22289e-05 0)
(0.10399 3.75082e-05 0)
(0.103989 3.54552e-06 0)
(0.104086 6.98535e-05 0)
(0.104028 6.85133e-05 2.71847e-23)
(0.104057 6.92807e-05 2.7434e-23)
(0.10414 6.73009e-05 3.48927e-23)
(0.104114 6.90291e-05 -6.97172e-24)
(0.10419 6.14215e-05 1.07987e-25)
(0.104166 6.42977e-05 0)
(0.104234 5.4429e-05 0)
(0.104212 5.80615e-05 0)
(0.104272 4.73355e-05 0)
(0.104254 5.0777e-05 0)
(0.104306 4.16401e-05 0)
(0.10429 4.42061e-05 0)
(0.104337 3.60488e-05 0)
(0.104322 3.85989e-05 0)
(0.104364 3.20798e-05 -9.72633e-26)
(0.10435 3.4314e-05 2.50703e-23)
(0.104388 2.90627e-05 -9.35187e-26)
(0.104376 3.02232e-05 -4.90115e-23)
(0.104411 2.60739e-05 0)
(0.1044 2.74642e-05 0)
(0.104431 2.33431e-05 9.07059e-26)
(0.104421 2.46719e-05 0)
(0.104449 2.08309e-05 0)
(0.10444 2.2017e-05 0)
(0.104466 1.85915e-05 0)
(0.104458 1.96517e-05 0)
(0.104481 1.6663e-05 0)
(0.104473 1.75666e-05 0)
(0.104494 1.50299e-05 0)
(0.104487 1.58006e-05 0)
(0.104507 1.34817e-05 0)
(0.104501 1.42595e-05 0)
(0.104519 1.09199e-05 1.94048e-23)
(0.104513 1.23306e-05 0)
(0.104538 -1.44703e-06 0)
(0.104537 3.18497e-06 1.76263e-23)
(0.10453 7.53545e-06 0)
(0.104524 9.10919e-06 1.89255e-23)
(0.104525 -1.41028e-05 3.76588e-23)
(0.104531 -1.32312e-05 9.2638e-24)
(0.104538 -7.62996e-06 7.2251e-23)
(0.104538 -3.80506e-06 0)
(0.104514 -1.69953e-05 0)
(0.104519 -1.5315e-05 -5.68402e-23)
(0.104502 -1.91392e-05 1.61511e-25)
(0.104508 -1.81092e-05 2.02075e-23)
(0.104488 -2.02944e-05 -1.65875e-25)
(0.104495 -1.97038e-05 0)
(0.104474 -2.16846e-05 0)
(0.104481 -2.09531e-05 0)
(0.104458 -2.34131e-05 0)
(0.104466 -2.25028e-05 0)
(0.10444 -2.54539e-05 0)
(0.104449 -2.43919e-05 -2.17693e-29)
(0.104421 -2.76685e-05 -3.66716e-25)
(0.104431 -2.65372e-05 0)
(0.1044 -3.05639e-05 0)
(0.104411 -2.88747e-05 0)
(0.104376 -3.33066e-05 6.15219e-24)
(0.104388 -3.19245e-05 0)
(0.104351 -3.61293e-05 0)
(0.104364 -3.461e-05 -6.12652e-24)
(0.104321 -3.96514e-05 1.27985e-23)
(0.104336 -3.77922e-05 1.27198e-23)
(0.10429 -4.40728e-05 0)
(0.104306 -4.19034e-05 0)
(0.104254 -4.96393e-05 0)
(0.104272 -4.66561e-05 0)
(0.104214 -5.66695e-05 0)
(0.104234 -5.29786e-05 0)
(0.104169 -6.46246e-05 0)
(0.104192 -6.0623e-05 0)
(0.10412 -7.26625e-05 2.2231e-25)
(0.104145 -6.86709e-05 0)
(0.104067 -8.16085e-05 -2.25429e-25)
(0.104094 -7.6919e-05 0)
(0.104009 -9.12991e-05 -5.89328e-23)
(0.104038 -8.65428e-05 5.89057e-23)
(0.103997 6.82024e-05 5.52215e-23)
(0.103968 -6.61891e-05 0)
(0.103978 -9.6724e-05 -1.19898e-22)
(0.103961 -3.12134e-05 0)
(0.104535 6.68517e-06 0)
(0.104537 -1.17596e-05 -8.99626e-24)
(0.103959 3.65151e-05 1.39834e-22)
(0.103966 6.93097e-05 5.5906e-23)
(0.103936 -6.92691e-05 3.02675e-23)
(0.103945 -0.000101417 1.51505e-22)
(0.103957 2.37817e-06 0)
(0.104528 1.35236e-05 7.41422e-23)
(0.104533 1.10298e-05 -3.66391e-23)
(0.104543 -7.21672e-06 -1.78191e-23)
(0.104542 -9.94886e-06 8.86353e-23)
(0.103979 0.000101912 1.96073e-22)
(0.103933 7.28582e-05 -1.10154e-22)
(0.103909 0.000116852 -4.98526e-22)
(0.103945 0.000107793 -1.11915e-22)
(0.10404 9.79069e-05 5.47522e-23)
(0.10401 9.90287e-05 -1.67001e-22)
(0.104096 9.65184e-05 -5.59741e-23)
(0.104069 9.74185e-05 -4.21776e-23)
(0.104148 9.22763e-05 -1.39617e-23)
(0.104123 9.49183e-05 -1.39835e-23)
(0.104194 8.43854e-05 -1.07987e-25)
(0.104172 8.85184e-05 0)
(0.104237 7.48683e-05 0)
(0.104216 7.9748e-05 0)
(0.104274 6.54749e-05 0)
(0.104256 7.00407e-05 0)
(0.104308 5.7521e-05 0)
(0.104292 6.12843e-05 0)
(0.104338 5.08282e-05 0)
(0.104324 5.39035e-05 0)
(0.104366 4.51828e-05 0)
(0.104352 4.77386e-05 0)
(0.10439 4.02726e-05 1.77551e-30)
(0.104378 4.29042e-05 0)
(0.104413 3.64731e-05 0)
(0.104402 3.8184e-05 0)
(0.104432 3.28318e-05 9.07112e-26)
(0.104423 3.46509e-05 0)
(0.10445 2.9404e-05 0)
(0.104442 3.10711e-05 0)
(0.104467 2.63351e-05 0)
(0.104459 2.7824e-05 0)
(0.104481 2.36727e-05 0)
(0.104474 2.49548e-05 0)
(0.104495 2.14312e-05 0)
(0.104488 2.25121e-05 0)
(0.104507 1.9417e-05 0)
(0.104501 2.04381e-05 0)
(0.104519 1.6919e-05 9.89217e-24)
(0.104513 1.82356e-05 -4.9761e-24)
(0.104524 1.53313e-05 -3.78036e-23)
(0.104543 -1.64503e-06 -8.43772e-24)
(0.10454 5.44824e-06 3.53151e-23)
(0.104541 1.46697e-06 -2.6964e-23)
(0.104543 -3.08313e-06 0)
(0.104524 -2.06308e-05 -2.80745e-23)
(0.104535 -1.62678e-05 -8.11436e-23)
(0.10453 -1.8431e-05 6.5277e-23)
(0.104514 -2.3995e-05 0)
(0.104519 -2.26269e-05 0)
(0.104502 -2.54997e-05 6.20237e-30)
(0.104508 -2.46866e-05 0)
(0.104489 -2.7135e-05 0)
(0.104496 -2.62711e-05 0)
(0.104475 -2.91809e-05 -1.70263e-25)
(0.104482 -2.81018e-05 0)
(0.104459 -3.16873e-05 0)
(0.104467 -3.03776e-05 0)
(0.104441 -3.45993e-05 0)
(0.10445 -3.30959e-05 0)
(0.104422 -3.78263e-05 1.83361e-25)
(0.104432 -3.61763e-05 0)
(0.104401 -4.15106e-05 1.87727e-25)
(0.104412 -3.95574e-05 0)
(0.104378 -4.54047e-05 0)
(0.10439 -4.34117e-05 0)
(0.104352 -4.99245e-05 0)
(0.104365 -4.76816e-05 0)
(0.104323 -5.49048e-05 0)
(0.104338 -5.20928e-05 0)
(0.104291 -6.09005e-05 0)
(0.104307 -5.78023e-05 0)
(0.104255 -6.83635e-05 -2.09414e-25)
(0.104273 -6.44269e-05 0)
(0.104216 -7.73518e-05 0)
(0.104236 -7.2685e-05 0)
(0.104173 -8.73517e-05 0)
(0.104195 -8.22824e-05 0)
(0.104126 -9.76131e-05 1.33306e-29)
(0.10415 -9.24904e-05 0)
(0.104075 -0.000108069 -9.30859e-30)
(0.104101 -0.000102813 0)
(0.104019 -0.000119726 2.33457e-25)
(0.104048 -0.00011358 0)
(0.103956 -0.00013274 -1.22761e-22)
(0.103988 -0.000126027 3.02037e-23)
(0.10391 -0.000105336 3.08773e-23)
(0.103922 -0.000139364 6.13266e-23)
(0.103926 3.75894e-05 -5.47113e-23)
(0.103928 -3.28093e-05 -5.86741e-23)
(0.104538 9.16429e-06 8.98743e-24)
(0.10454 -1.42048e-05 6.37874e-23)
(0.103898 7.73445e-05 6.70518e-24)
(0.103901 -7.11662e-05 0)
(0.103868 0.000121735 7.60258e-22)
(0.103885 -0.000145752 9.4487e-23)
(0.103874 -0.000109544 1.26002e-22)
(0.103873 0.000158806 -1.28294e-21)
(0.103831 0.000183393 2.27571e-22)
(0.103925 2.45741e-06 0)
(0.10393 0.0001455 1.26141e-22)
(0.103901 0.000156835 6.56658e-23)
(0.103996 0.000132494 1.13764e-22)
(0.103962 0.000137928 -1.73538e-22)
(0.104057 0.00012504 -5.67329e-23)
(0.104027 0.000128261 -2.83325e-23)
(0.104111 0.000120742 2.84654e-23)
(0.104085 0.000122691 2.88077e-23)
(0.104159 0.000115018 0)
(0.104135 0.000118343 -6.71139e-26)
(0.104202 0.000105807 0)
(0.104181 0.000110848 0)
(0.104241 9.43731e-05 1.05857e-25)
(0.104222 0.000100206 0)
(0.104278 8.30882e-05 0)
(0.10426 8.85988e-05 0)
(0.104311 7.32802e-05 0)
(0.104295 7.79654e-05 0)
(0.104341 6.50956e-05 0)
(0.104326 6.89796e-05 0)
(0.104368 5.81453e-05 9.72283e-26)
(0.104355 6.14189e-05 0)
(0.104392 5.20699e-05 -3.15698e-30)
(0.104381 5.51111e-05 0)
(0.104415 4.69217e-05 0)
(0.104404 4.93634e-05 0)
(0.104434 4.21945e-05 -1.81425e-25)
(0.104425 4.45257e-05 0)
(0.104452 3.78529e-05 0)
(0.104443 3.99677e-05 0)
(0.104468 3.39688e-05 0)
(0.10446 3.58538e-05 0)
(0.104483 3.05796e-05 0)
(0.104476 3.22118e-05 0)
(0.104496 2.7707e-05 0)
(0.10449 2.90844e-05 0)
(0.104508 2.52044e-05 0)
(0.104502 2.64391e-05 0)
(0.104519 2.25607e-05 -4.94304e-24)
(0.104513 2.38268e-05 0)
(0.104528 1.939e-05 0)
(0.104523 2.12163e-05 -9.60113e-24)
(0.104537 1.35601e-05 5.13815e-27)
(0.104533 1.66403e-05 0)
(0.104544 3.63017e-06 -3.58055e-23)
(0.104542 1.07117e-05 2.16492e-24)
(0.104543 7.48425e-06 1.7557e-23)
(0.104547 -1.29102e-06 1.28807e-23)
(0.104546 5.5995e-07 -8.89102e-24)
(0.104547 -6.75654e-06 -4.47514e-24)
(0.104548 -3.29458e-06 4.46787e-24)
(0.104545 -1.27718e-05 0)
(0.104546 -8.57567e-06 -4.06011e-23)
(0.104534 -2.21918e-05 -1.82482e-23)
(0.104543 -1.78127e-05 -3.49313e-23)
(0.104538 -1.99083e-05 8.03871e-23)
(0.104524 -2.6393e-05 -9.55706e-24)
(0.104529 -2.43399e-05 0)
(0.104514 -2.98449e-05 0)
(0.104519 -2.84046e-05 0)
(0.104503 -3.16721e-05 7.14397e-30)
(0.104508 -3.08456e-05 0)
(0.10449 -3.38607e-05 0)
(0.104496 -3.26987e-05 0)
(0.104476 -3.6588e-05 1.70263e-25)
(0.104483 -3.5155e-05 0)
(0.10446 -3.987e-05 0)
(0.104468 -3.81626e-05 0)
(0.104443 -4.36457e-05 0)
(0.104452 -4.17012e-05 0)
(0.104424 -4.78587e-05 0)
(0.104434 -4.56976e-05 0)
(0.104403 -5.25713e-05 1.02152e-29)
(0.104414 -5.0145e-05 0)
(0.10438 -5.76977e-05 0)
(0.104392 -5.50701e-05 0)
(0.104354 -6.34845e-05 0)
(0.104367 -6.05409e-05 0)
(0.104325 -7.00014e-05 0)
(0.10434 -6.65507e-05 0)
(0.104293 -7.76559e-05 0)
(0.104309 -7.36737e-05 0)
(0.104258 -8.68043e-05 2.09414e-25)
(0.104276 -8.20291e-05 0)
(0.10422 -9.75109e-05 0)
(0.104239 -9.19781e-05 0)
(0.104178 -0.000109357 0)
(0.104199 -0.000103336 0)
(0.104133 -0.000121722 -2.22302e-25)
(0.104156 -0.000115503 0)
(0.104083 -0.000134351 2.26569e-25)
(0.104109 -0.000128011 0)
(0.104029 -0.000147425 -2.30819e-25)
(0.104057 -0.000140785 0)
(0.103968 -0.000162392 3.03864e-23)
(0.103999 -0.000154467 -5.99074e-23)
(0.103897 -0.00018003 -3.06698e-23)
(0.103934 -0.000170903 6.21984e-23)
(0.103846 -0.000152298 1.10489e-24)
(0.103859 -0.000189146 6.29958e-23)
(0.103892 4.11347e-05 -5.61809e-23)
(0.103895 -3.35612e-05 0)
(0.103863 8.83931e-05 -5.4498e-22)
(0.103864 -7.06231e-05 0)
(0.104537 2.04581e-05 -9.00491e-24)
(0.104541 1.80126e-05 6.59685e-24)
(0.104549 -1.05762e-05 -3.44062e-23)
(0.104548 -1.54679e-05 -3.89984e-23)
(0.103822 0.000123849 -5.34596e-22)
(0.103834 -0.000113499 -1.27234e-22)
(0.103802 0.000189974 0)
(0.103882 0.000202922 -1.48137e-22)
(0.103804 -0.000159193 -6.24884e-23)
(0.103817 -0.000199205 9.56327e-23)
(0.103843 0.000217368 2.97414e-22)
(0.103891 3.73234e-06 0)
(0.103947 0.000180129 0)
(0.103914 0.00019229 -1.31968e-22)
(0.104014 0.000163068 0)
(0.10398 0.000170504 0)
(0.104075 0.000151659 0)
(0.104045 0.00015668 2.93528e-23)
(0.104126 0.000144604 0)
(0.104101 0.000147975 0)
(0.104171 0.000136677 0)
(0.104149 0.000140911 0)
(0.104211 0.000125725 0)
(0.104191 0.000131583 0)
(0.104248 0.000112846 -1.05857e-25)
(0.10423 0.000119384 0)
(0.104283 0.000100132 0)
(0.104266 0.000106365 0)
(0.104315 8.88362e-05 0)
(0.104299 9.42721e-05 0)
(0.104345 7.91813e-05 0)
(0.10433 8.38114e-05 0)
(0.104371 7.0894e-05 4.90158e-30)
(0.104358 7.48752e-05 0)
(0.104395 6.36373e-05 -4.44933e-30)
(0.104384 6.71767e-05 0)
(0.104417 5.72536e-05 0)
(0.104407 6.03371e-05 0)
(0.104437 5.14891e-05 -3.45275e-30)
(0.104427 5.43092e-05 0)
(0.104454 4.62521e-05 0)
(0.104446 4.88032e-05 0)
(0.10447 4.15579e-05 0)
(0.104462 4.38372e-05 0)
(0.104484 3.74268e-05 0)
(0.104477 3.94209e-05 0)
(0.104497 3.3873e-05 0)
(0.104491 3.55801e-05 0)
(0.104509 3.08399e-05 0)
(0.104503 3.22978e-05 0)
(0.104519 2.8241e-05 0)
(0.104514 2.95602e-05 0)
(0.104528 2.41972e-05 9.53926e-24)
(0.104524 2.62631e-05 9.74692e-24)
(0.104532 2.23032e-05 -1.83237e-23)
(0.104548 2.00696e-06 -1.7587e-23)
(0.104546 8.82582e-06 0)
(0.104547 5.78603e-06 -1.77619e-23)
(0.104551 -1.44579e-06 0)
(0.10455 2.92006e-07 1.79487e-23)
(0.104551 -6.20173e-06 2.6786e-23)
(0.104551 -3.7987e-06 -9.05251e-24)
(0.10455 -7.54249e-06 -5.2636e-23)
(0.104533 -2.80622e-05 9.20596e-24)
(0.104542 -2.1953e-05 3.43353e-23)
(0.104537 -2.60477e-05 0)
(0.104524 -3.22999e-05 -1.90454e-23)
(0.104528 -3.01613e-05 1.91082e-23)
(0.104514 -3.5169e-05 0)
(0.104519 -3.40538e-05 0)
(0.104503 -3.75725e-05 8.37325e-30)
(0.104509 -3.63678e-05 0)
(0.104491 -4.04216e-05 0)
(0.104497 -3.89247e-05 0)
(0.104477 -4.3875e-05 0)
(0.104484 -4.20703e-05 0)
(0.104462 -4.79505e-05 0)
(0.10447 -4.58378e-05 0)
(0.104445 -5.25957e-05 0)
(0.104454 -5.02065e-05 0)
(0.104426 -5.7772e-05 1.83389e-25)
(0.104436 -5.51165e-05 0)
(0.104405 -6.35383e-05 -1.87738e-25)
(0.104416 -6.0578e-05 0)
(0.104382 -6.99078e-05 0)
(0.104394 -6.66398e-05 0)
(0.104357 -7.7023e-05 0)
(0.10437 -7.33748e-05 0)
(0.104328 -8.50478e-05 0)
(0.104343 -8.08877e-05 0)
(0.104297 -9.42637e-05 0)
(0.104313 -8.9492e-05 0)
(0.104262 -0.000104951 0)
(0.10428 -9.94116e-05 0)
(0.104225 -0.00011718 0)
(0.104244 -0.000110884 0)
(0.104184 -0.000130649 -2.18058e-25)
(0.104205 -0.000123791 0)
(0.10414 -0.000144934 2.22344e-25)
(0.104162 -0.000137707 0)
(0.104092 -0.000159938 -2.26615e-25)
(0.104116 -0.000152341 0)
(0.104039 -0.000175854 0)
(0.104066 -0.000167759 0)
(0.103979 -0.000192928 0)
(0.10401 -0.00018423 0)
(0.10391 -0.000213364 2.42309e-25)
(0.103946 -0.000202306 3.0662e-23)
(0.103832 -0.000238926 -1.60371e-22)
(0.103873 -0.000225798 0)
(0.103773 -0.000210419 -9.48589e-23)
(0.103789 -0.000252865 -1.1039e-24)
(0.103857 4.67744e-05 1.7569e-22)
(0.103859 -3.3148e-05 0)
(0.104546 1.42602e-05 -3.42921e-23)
(0.104546 -1.89973e-05 -6.61087e-23)
(0.103821 9.06522e-05 -9.35135e-23)
(0.103792 0.00015252 1.19463e-24)
(0.103781 0.000125038 2.72625e-22)
(0.103826 -7.10383e-05 0)
(0.103792 -0.000116631 3.19639e-23)
(0.103807 0.000233945 -2.72153e-22)
(0.103762 0.000232924 2.35428e-22)
(0.103758 0.000179683 -2.33793e-22)
(0.103759 -0.000166556 -9.61234e-23)
(0.103726 -0.000221831 6.43439e-23)
(0.103743 -0.000268141 6.32178e-23)
(0.103856 5.75763e-06 0)
(0.103892 0.000248902 8.28358e-24)
(0.103811 0.000283655 -1.20103e-24)
(0.103853 0.000266484 6.41342e-23)
(0.103963 0.000218034 6.34979e-23)
(0.103928 0.000232375 -6.38277e-23)
(0.104031 0.000194887 1.16549e-25)
(0.103997 0.000205636 0)
(0.104091 0.000179411 0)
(0.104062 0.000186278 0)
(0.104141 0.00016811 0)
(0.104117 0.000173539 0)
(0.104184 0.000157027 0)
(0.104164 0.000162692 0)
(0.104222 0.000144251 1.0802e-25)
(0.104203 0.000150873 0)
(0.104256 0.000130252 0)
(0.104239 0.000137314 0)
(0.104289 0.000116485 0)
(0.104273 0.000123258 0)
(0.104321 0.000103986 0)
(0.104305 0.000110044 0)
(0.104349 9.30247e-05 0)
(0.104335 9.83167e-05 0)
(0.104375 8.34405e-05 -9.72332e-26)
(0.104363 8.80746e-05 0)
(0.104399 7.49676e-05 -5.27862e-30)
(0.104387 7.90872e-05 0)
(0.10442 6.74303e-05 0)
(0.10441 7.10873e-05 0)
(0.10444 6.06557e-05 1.81439e-25)
(0.10443 6.396e-05 0)
(0.104457 5.45324e-05 0)
(0.104448 5.75149e-05 0)
(0.104472 4.90344e-05 0)
(0.104465 5.17068e-05 0)
(0.104487 4.4154e-05 0)
(0.10448 4.65174e-05 0)
(0.104499 3.98874e-05 0)
(0.104493 4.1946e-05 0)
(0.10451 3.61945e-05 0)
(0.104505 3.79731e-05 0)
(0.10452 3.29997e-05 1.55238e-25)
(0.104516 3.45656e-05 0)
(0.104529 2.94226e-05 -9.58094e-24)
(0.104525 3.1476e-05 0)
(0.104537 2.41476e-05 9.12362e-24)
(0.104533 2.69514e-05 0)
(0.104546 1.84873e-05 8.73023e-24)
(0.104541 2.14254e-05 -8.91465e-24)
(0.104551 6.89982e-06 1.72507e-23)
(0.104551 1.48101e-05 0)
(0.10455 1.17718e-05 2.56771e-23)
(0.104552 1.45743e-06 0)
(0.104551 3.454e-06 0)
(0.104553 -1.97639e-06 0)
(0.104553 -1.85171e-08 0)
(0.104554 -5.96448e-06 0)
(0.104554 -3.81576e-06 0)
(0.104553 -9.06181e-06 3.50656e-23)
(0.104553 -6.91409e-06 8.71892e-24)
(0.104551 -1.64454e-05 8.63267e-24)
(0.104552 -1.25276e-05 6.87668e-23)
(0.104541 -2.69923e-05 4.47597e-23)
(0.10455 -2.1372e-05 8.60154e-24)
(0.104545 -2.40583e-05 -1.74539e-23)
(0.104533 -3.27834e-05 9.19799e-24)
(0.104537 -2.98863e-05 -5.51333e-23)
(0.104525 -3.74395e-05 1.65586e-29)
(0.104529 -3.53218e-05 0)
(0.104515 -4.01992e-05 0)
(0.10452 -3.88267e-05 0)
(0.104505 -4.32588e-05 9.5201e-30)
(0.10451 -4.16858e-05 0)
(0.104493 -4.68272e-05 0)
(0.104499 -4.49678e-05 0)
(0.104479 -5.10368e-05 0)
(0.104486 -4.88491e-05 0)
(0.104464 -5.5914e-05 0)
(0.104472 -5.33939e-05 0)
(0.104447 -6.1426e-05 0)
(0.104456 -5.85939e-05 0)
(0.104429 -6.75561e-05 -3.66791e-25)
(0.104438 -6.44122e-05 0)
(0.104408 -7.43713e-05 0)
(0.104419 -7.08732e-05 0)
(0.104386 -8.19482e-05 0)
(0.104397 -7.80575e-05 0)
(0.10436 -9.04059e-05 0)
(0.104373 -8.60637e-05 0)
(0.104332 -9.98944e-05 0)
(0.104347 -9.50043e-05 0)
(0.104301 -0.000110619 -2.05142e-25)
(0.104317 -0.000105091 0)
(0.104267 -0.000122785 0)
(0.104285 -0.000116514 0)
(0.104231 -0.000136451 0)
(0.104249 -0.000129438 0)
(0.104191 -0.000151436 2.18058e-25)
(0.104211 -0.000143797 0)
(0.104148 -0.000167535 2.65909e-29)
(0.10417 -0.000159351 0)
(0.104101 -0.000184851 4.5326e-25)
(0.104125 -0.000176021 0)
(0.104049 -0.000203783 0)
(0.104075 -0.000194087 0)
(0.10399 -0.00022467 0)
(0.10402 -0.000213961 0)
(0.103923 -0.000247941 3.11289e-29)
(0.103958 -0.00023603 0)
(0.103848 -0.000274666 0)
(0.103887 -0.00026071 0)
(0.103762 -0.000308295 -9.58794e-23)
(0.103806 -0.000290391 0)
(0.103695 -0.000283601 -1.08798e-24)
(0.103715 -0.000327923 1.63196e-22)
(0.103819 5.13189e-05 0)
(0.103769 0.00029407 3.7095e-22)
(0.103778 9.41707e-05 6.40472e-23)
(0.104546 2.26103e-05 -8.71379e-24)
(0.104551 2.00902e-05 0)
(0.104556 -1.42994e-05 8.42009e-24)
(0.104555 -1.86476e-05 -1.66877e-23)
(0.10382 -3.13789e-05 0)
(0.103784 -7.26173e-05 0)
(0.10374 0.000141593 0)
(0.103748 -0.000120864 -3.14817e-23)
(0.103712 -0.000174933 -6.36721e-23)
(0.103677 -0.000235086 0)
(0.103644 -0.000300207 1.64636e-22)
(0.103665 -0.000347803 -1.31594e-22)
(0.103818 9.40111e-06 0)
(0.103822 0.00032604 -3.08606e-26)
(0.103726 0.000306242 1.17668e-22)
(0.103736 0.000356445 -4.20973e-22)
(0.10378 0.000342199 1.22251e-22)
(0.103905 0.000289353 -4.00026e-23)
(0.103864 0.000307534 -6.35884e-23)
(0.103977 0.000255082 0)
(0.103942 0.000271414 0)
(0.104046 0.000227542 -1.16538e-25)
(0.104012 0.000240455 0)
(0.104106 0.000206961 0)
(0.104077 0.000216481 0)
(0.104155 0.000190806 0)
(0.104132 0.000198521 0)
(0.104196 0.000176318 0)
(0.104177 0.000183493 0)
(0.104232 0.000161699 -1.0802e-25)
(0.104215 0.000169077 0)
(0.104266 0.000146722 0)
(0.104249 0.000154218 0)
(0.104297 0.000132126 0)
(0.104282 0.000139324 0)
(0.104327 0.000118628 0)
(0.104312 0.000125212 0)
(0.104355 0.000106506 0)
(0.104341 0.000112393 0)
(0.10438 9.57064e-05 9.7246e-26)
(0.104368 0.00010095 0)