/*--------------------------------*- C++ -*----------------------------------*\
  =========                 |
  \\      /  F ield         | OpenFOAM: The Open Source CFD Toolbox
   \\    /   O peration     | Website:  https://openfoam.org
    \\  /    A nd           | Version:  10
     \\/     M anipulation  |
\*---------------------------------------------------------------------------*/
FoamFile
{
    format      ascii;
    class       volScalarField;
    location    "8.5";
    object      p;
}
// * * * * * * * * * * * * * * * * * * * * * * * * * * * * * * * * * * * * * //

dimensions      [0 2 -2 0 0 0 0];

internalField   nonuniform List<scalar> 
28942
(
-0.401351
-0.396868
-0.174464
0.183681
0.193307
-0.0120251
-0.0063909
-0.0141643
-0.014602
-0.0110273
-0.349735
-0.348264
-0.355845
-0.35446
-0.00083182
0.00403874
0.447331
0.471052
0.172959
0.245897
0.333007
0.335098
-0.374406
-0.378566
-0.362734
-0.398207
0.779557
0.794355
0.00723939
0.0194865
-0.0218218
-0.0197203
0.0267111
0.00395849
0.156282
0.204573
0.452935
0.580589
-0.0148475
0.471605
0.242669
0.270716
-0.0985059
-0.0863827
-0.0939249
-0.00766014
-0.00539592
-0.00724069
-0.00529633
0.00359422
0.0153434
-0.0425868
-0.0382687
-0.000436749
0.00388302
-0.314157
-0.273522
-0.359398
-0.356648
-0.360445
-0.362485
-0.361964
-0.359695
-0.128932
-0.218956
-0.110554
-0.0435905
0.423573
0.395207
-0.407702
-0.410199
-0.411706
0.424036
0.401674
0.422333
-0.266852
-0.268221
-0.22065
-0.151906
-0.201696
-0.129457
-0.250039
-0.45876
-0.493737
-0.0433483
0.045557
0.113247
0.086943
0.0250079
0.0286888
0.0659711
0.0855139
-0.356141
-0.358901
-0.350475
-0.346459
-0.347601
0.0796351
0.128606
-0.528887
0.212036
0.21381
0.189751
0.196834
-0.210916
-0.212106
-0.223359
0.152318
0.163163
0.162887
-0.356534
-0.354807
-0.401213
-0.375378
-0.380197
0.858119
0.791554
0.732577
0.806609
-0.00764062
0.136531
0.070233
0.086117
0.0704264
0.901106
0.913035
0.879558
0.0981592
0.137101
-0.00856892
-0.00778373
-0.0107174
0.444516
0.54394
0.169732
0.159976
0.240025
0.207529
0.345496
0.333795
-0.349582
-0.348672
0.152538
-0.0978201
-0.0899962
-0.244799
-0.264465
-0.249249
-0.350688
0.158907
0.164179
-0.033498
-0.014957
-0.0153582
-0.0129774
-0.0135384
0.23183
0.149701
-0.339442
-0.350734
-0.354995
-0.412176
-0.412302
-0.00916896
-0.382895
-0.35907
0.356004
0.369666
0.424791
0.402054
0.325006
-0.0253219
-0.0303974
0.00586942
-0.00366783
0.122187
0.109139
0.131934
0.143977
0.143795
0.159257
0.173699
0.213257
0.192007
0.171422
0.193634
0.236605
0.296794
0.315056
-0.399132
-0.400986
-0.377031
-0.010007
-0.00823378
-0.332692
-0.34693
-0.000104472
-0.000471368
-0.0027166
-0.00350286
0.0963268
0.0952177
0.0925855
-0.352683
-0.354259
-0.355196
-0.367647
-0.369088
-0.367259
-0.38884
-0.438977
-0.406232
0.844834
0.815794
0.858005
-0.198971
-0.190398
-0.20283
0.465149
0.448376
0.456936
0.0441317
0.0426046
0.0457248
0.0411147
0.0397133
0.0383727
0.0384279
0.0370646
0.0371273
0.0397705
0.0411817
0.042673
0.0442389
0.0458589
0.0358302
0.0358537
0.0473662
0.0475232
0.0491289
0.034658
0.0346343
0.0493155
0.0335122
0.0324069
0.0334838
0.0323801
0.0509824
0.0511984
0.0313476
0.0313176
0.0528331
0.0531349
0.0303317
0.030297
0.0548712
0.0551352
0.0293574
0.0293172
0.0569652
0.0572368
0.0284209
0.0283771
0.0591793
0.0594483
0.0275216
0.0274751
0.0614961
0.0617689
0.0266553
0.0266092
0.0639186
0.064198
0.0258215
0.025776
0.0664755
0.0667337
0.0250136
0.0249635
0.0691657
0.0694113
0.0242387
0.0241745
0.0719732
0.0721503
0.023461
0.0234079
0.0749368
0.0750896
0.0226931
0.0226594
0.0714244
0.0743874
0.0780229
0.0781257
0.0659097
0.0686319
0.060959
0.0633914
0.0565383
0.0586929
0.0524989
0.0544823
0.0487884
0.0506261
0.0454896
0.0471453
0.0424438
0.0439201
0.0395888
0.040965
0.0369609
0.0382614
0.0345762
0.035743
0.0323591
0.0334483
0.030308
0.0313129
0.0284133
0.0293427
0.0266568
0.027519
0.025025
0.025827
0.0234744
0.024252
0.0227292
0.021968
0.0219326
0.0240885
0.0225925
0.0233298
0.0256822
0.0248689
0.0273782
0.0265124
0.0292221
0.0282805
0.0312281
0.0302043
0.0334032
0.0322945
0.0357761
0.0345604
0.0383715
0.0370617
0.0411531
0.0397406
0.0441864
0.0426249
0.0474955
0.0458382
0.0511338
0.049262
0.05508
0.0530687
0.0593733
0.0571801
0.0640741
0.0616678
0.0692248
0.066574
0.0747514
0.0719221
0.0777278
0.0775012
0.0219975
0.0218747
0.0812723
0.0807768
0.0807244
0.0812456
0.0705499
0.0765087
0.0734492
0.0651381
0.0677736
0.0603109
0.0626406
0.0559987
0.0581074
0.0520419
0.0539785
0.0484435
0.0501926
0.0451496
0.0467797
0.0421592
0.0436407
0.0393888
0.0407087
0.036813
0.0380836
0.0344598
0.0356109
0.0322791
0.0333505
0.0302544
0.0312475
0.0283775
0.0292986
0.026634
0.0274898
0.0250132
0.0258086
0.0234736
0.0242366
0.0212659
0.0213055
0.0220077
0.0227319
0.0225017
0.0218005
0.0211778
0.0212298
0.0239789
0.0232301
0.0255494
0.0247416
0.0272395
0.0263751
0.0290773
0.0281385
0.0310782
0.0300568
0.0332518
0.032143
0.0356183
0.034409
0.0381984
0.0368836
0.040991
0.0395634
0.043995
0.0424555
0.0472832
0.0456217
0.0508665
0.0490424
0.054774
0.0527844
0.0590133
0.0568507
0.0636136
0.0612674
0.0686026
0.0660596
0.0739894
0.0712451
0.0797529
0.0768274
0.0796906
0.0839588
0.0828518
0.0844737
0.0213209
0.0211133
0.0840627
0.0829599
0.0872058
0.0859992
0.0845331
0.0220085
0.0213206
0.0205069
0.0204479
0.0816899
0.0864341
0.0880568
0.0853521
0.0751506
0.0782837
0.0694
0.0722008
0.0641928
0.0667334
0.0595198
0.0617747
0.0553235
0.0573781
0.0514705
0.0533541
0.0479642
0.0496737
0.0447564
0.0463231
0.0418112
0.0432548
0.0391081
0.0404309
0.0366024
0.0378325
0.0342921
0.0354238
0.032149
0.0332019
0.030154
0.0311335
0.0282992
0.02921
0.0265723
0.0274204
0.0249627
0.025753
0.0234402
0.0241896
0.0227083
0.0205983
0.0206538
0.0206356
0.0205591
0.0223885
0.0210291
0.0217017
0.0238401
0.0231039
0.0253884
0.0245931
0.0270657
0.0262085
0.0288896
0.0279582
0.0308747
0.0298614
0.0330327
0.0319316
0.0353785
0.0341814
0.0379241
0.0366261
0.0406781
0.0392729
0.0436577
0.0421394
0.0468956
0.0452414
0.0504079
0.0486156
0.0542297
0.0522807
0.0583735
0.0562609
0.0628531
0.0605714
0.0676734
0.0652227
0.0728315
0.0702114
0.0783238
0.0755339
0.0842645
0.081236
0.0891643
0.087284
0.0874562
0.0878293
0.0206495
0.0203756
0.0898967
0.0904851
0.0920296
0.0903525
0.0923449
0.0883021
0.0939079
0.0879526
0.0857547
0.0872741
0.0800896
0.0833658
0.0736088
0.0767215
0.068072
0.0707457
0.0631045
0.0655506
0.0586101
0.060795
0.0545316
0.0565277
0.0507931
0.0526205
0.0473812
0.0490484
0.0442619
0.0457864
0.0413972
0.0427988
0.0387592
0.0400539
0.0363187
0.0375157
0.0340575
0.0351668
0.0319561
0.0329886
0.0299967
0.0309594
0.0281702
0.0290677
0.0264655
0.0273032
0.0248721
0.0256549
0.0233712
0.0241083
0.0219638
0.0226543
0.0206215
0.0212797
0.0200097
0.0199789
0.019999
0.0199631
0.0199909
0.0198737
0.0199225
0.0197561
0.0198209
0.0209174
0.0196783
0.0202898
0.0222502
0.0215771
0.0236756
0.0229553
0.025201
0.0244218
0.026858
0.0260124
0.0286585
0.0277394
0.0306167
0.0296174
0.032744
0.0316587
0.0350526
0.0338754
0.0375509
0.0362777
0.0402491
0.0388755
0.043166
0.0416799
0.0463239
0.0447122
0.049746
0.0480008
0.053454
0.0515636
0.0574644
0.0554212
0.0617861
0.0595867
0.0664158
0.0640642
0.0713334
0.068841
0.0765199
0.0738937
0.0820225
0.0792304
0.0877982
0.0848882
0.09341
0.0906541
0.0909059
0.0912013
0.0935269
0.0936765
0.0205638
0.0199378
0.0191541
0.0190758
0.0951359
0.095545
0.0970159
0.087659
0.0963757
0.093494
0.0923291
0.0913496
0.0834255
0.0853907
0.0780904
0.0810369
0.0719133
0.0749319
0.0666602
0.069192
0.0619155
0.0642421
0.0575798
0.0596953
0.0536302
0.0555616
0.0500143
0.0517824
0.0467072
0.0483241
0.0436797
0.0451609
0.040898
0.0422601
0.0383312
0.0395901
0.0359558
0.0371213
0.0337499
0.0348329
0.0316968
0.0327057
0.0297801
0.0307223
0.0279891
0.0288697
0.0263131
0.0271374
0.0247423
0.0255149
0.0232707
0.0239926
0.0218788
0.0225653
0.0212092
0.0193924
0.0193622
0.0193868
0.0193561
0.0193839
0.0192716
0.0193197
0.0192169
0.0207894
0.0195719
0.0201856
0.022092
0.021434
0.0234869
0.0227807
0.0249887
0.024224
0.026616
0.025786
0.0283828
0.0274813
0.0303018
0.0293228
0.0323837
0.031322
0.0346385
0.0334893
0.0370738
0.0358334
0.0396991
0.0383624
0.0425312
0.0410885
0.0455898
0.044031
0.048896
0.0472111
0.0524665
0.0506477
0.0563136
0.0543553
0.060443
0.0583435
0.064849
0.0626129
0.0695104
0.0671502
0.074396
0.0719278
0.0794594
0.0769122
0.0847788
0.0820554
0.0900662
0.0874768
0.0962279
0.0926237
0.0943706
0.0944837
0.0193167
0.0189826
0.0964198
0.0977195
0.0989952
0.0970179
0.0986493
0.0965833
0.0989919
0.102228
0.0993471
0.0989548
0.0951261
0.0947061
0.0863558
0.0936225
0.0901949
0.0808614
0.0832929
0.0757829
0.0785212
0.0701027
0.0728854
0.065119
0.067532
0.060588
0.0628094
0.0564246
0.0584593
0.0526226
0.0544817
0.0491383
0.050843
0.0459435
0.0475065
0.0430118
0.0444469
0.0403137
0.0416356
0.0378218
0.0390438
0.0355134
0.0366462
0.0333682
0.0344216
0.0313699
0.0323519
0.0295029
0.030421
0.0277548
0.0286148
0.026115
0.0269221
0.0245745
0.0253328
0.0231271
0.0238395
0.0217637
0.0224359
0.0204741
0.0211115
0.019242
0.0198576
0.0187665
0.0186467
0.0187121
0.0188122
0.0187978
0.0187826
0.0188051
0.0187016
0.0187487
0.01858
0.0186461
0.0184185
0.0185045
0.0194478
0.0183218
0.0188749
0.0206446
0.0200452
0.0219157
0.0212717
0.023279
0.0225855
0.0247493
0.0240006
0.0263391
0.0255287
0.028062
0.0271834
0.0299298
0.0289774
0.0319527
0.0309215
0.0341396
0.0330255
0.0364977
0.035297
0.0390362
0.037744
0.0417687
0.0403774
0.0447125
0.0432135
0.0478845
0.0462693
0.0512978
0.0495607
0.0549603
0.053098
0.058873
0.056886
0.0630276
0.0609214
0.0674042
0.0651901
0.0719731
0.0696677
0.0766627
0.0743096
0.0814571
0.0790437
0.0861855
0.0838523
0.0907743
0.0884866
0.0974908
0.0929007
0.0975753
0.0964563
0.100389
0.0191441
0.0185655
0.0178672
0.0177753
0.0978582
0.100321
0.103124
0.101845
0.102284
0.101635
0.0996923
0.0948608
0.0980476
0.090118
0.099913
0.0958007
0.0929904
0.0836456
0.086999
0.0781274
0.0806408
0.0733039
0.0758159
0.068125
0.0706815
0.0634218
0.0657103
0.0591208
0.0612301
0.0551538
0.0570952
0.0515154
0.0532959
0.0481708
0.0498085
0.0450939
0.0466005
0.0422619
0.0436491
0.0396497
0.0409301
0.0372343
0.038419
0.0349953
0.0360941
0.0329147
0.0339364
0.0309768
0.0319291
0.0291658
0.0300565
0.0274679
0.0283036
0.0258715
0.0266578
0.0243677
0.0251086
0.0229503
0.0236486
0.0216158
0.0222726
0.0203493
0.0209743
0.0197392
0.0181974
0.018074
0.0181491
0.0182522
0.0182347
0.0182334
0.0182502
0.018155
0.0182021
0.0180293
0.0180972
0.0179538
0.0193103
0.0182073
0.0187503
0.0204736
0.019884
0.0217173
0.0210865
0.0230493
0.022372
0.024482
0.0237528
0.0260269
0.0252399
0.0276965
0.0268456
0.0295023
0.0285819
0.0314548
0.0304599
0.0335628
0.0324892
0.0358333
0.0346775
0.0382748
0.0370324
0.040898
0.0395631
0.0437161
0.0422821
0.0467418
0.0452026
0.0499843
0.0483359
0.0534475
0.0516886
0.0571283
0.0552615
0.0610149
0.0590473
0.0650852
0.063029
0.0693077
0.0671806
0.0736227
0.0714584
0.0779551
0.075795
0.0821384
0.0800755
0.0861288
0.0841654
0.0896738
0.0879743
0.105587
0.103432
0.0965782
0.0911511
0.101317
0.0180037
0.0176692
0.0988273
0.101329
0.103443
0.104382
0.10372
0.107084
0.105067
0.105247
0.104095
0.101687
0.097986
0.0922649
0.101653
0.0912071
0.102134
0.0968166
0.0939281
0.0861258
0.0887453
0.0804489
0.0832821
0.0753127
0.0777574
0.0707177
0.0730445
0.0659923
0.0683372
0.061591
0.0637418
0.0575378
0.0595268
0.0537825
0.0556232
0.050318
0.0520154
0.0471198
0.0486874
0.0441661
0.0456138
0.0414376
0.0427751
0.038914
0.0401515
0.0365767
0.0377233
0.0344089
0.0354727
0.0323958
0.0333841
0.0305222
0.0314427
0.0287725
0.029633
0.027131
0.0279392
0.0255845
0.0263467
0.0241233
0.0248438
0.0227414
0.0234228
0.0214349
0.022079
0.0201975
0.0208082
0.019023
0.0196011
0.0179077
0.0184644
0.0175304
0.0173637
0.0174526
0.0176571
0.0175998
0.0177118
0.0176933
0.0177014
0.0177144
0.0176262
0.0176722
0.0175018
0.0175678
0.0173395
0.0174246
0.0171521
0.0172477
0.0180684
0.0170366
0.0175483
0.0191495
0.0186018
0.0202841
0.0197078
0.0214993
0.0208825
0.0227967
0.0221375
0.0241865
0.0234796
0.0256796
0.0249197
0.0272878
0.0264688
0.0290231
0.028139
0.0308967
0.0299421
0.032918
0.0318886
0.0350944
0.0339866
0.0374327
0.0362431
0.0399404
0.038665
0.0426264
0.0412608
0.0454985
0.0440389
0.048562
0.0470064
0.0518174
0.0501661
0.0552582
0.0535155
0.0588692
0.0570439
0.0626251
0.0607312
0.0664883
0.0645466
0.0704039
0.0684435
0.0742876
0.072359
0.0779865
0.0761685
0.0813743
0.0797314
0.0843059
0.0829103
0.0863606
0.0854976
0.109286
0.107561
0.092977
0.0868395
0.105148
0.10488
0.0995067
0.105233
0.107007
0.108327
0.107125
0.0177857
0.0172577
0.0166435
0.0165361
0.110666
0.108233
0.108032
0.106431
0.103418
0.0989899
0.102188
0.0957188
0.0976506
0.0933781
0.0869451
0.1048
0.105337
0.0913043
0.0934864
0.0863573
0.0888089
0.0818795
0.0841605
0.0769818
0.0794244
0.0723652
0.0746198
0.0680387
0.0701955
0.0637329
0.0658736
0.0596525
0.0616549
0.0558591
0.0577229
0.0523237
0.0540596
0.049041
0.0506517
0.0459955
0.0474899
0.04317
0.0445564
0.0405489
0.041835
0.0381166
0.0393102
0.0358591
0.0369669
0.0337643
0.0347922
0.0318204
0.0327743
0.0300141
0.0309011
0.0283293
0.0291577
0.0267489
0.0275272
0.0252574
0.0259929
0.0238439
0.0245415
0.0225021
0.0231644
0.0212284
0.0218569
0.0200212
0.0206166
0.018875
0.0194402
0.018326
0.0170058
0.0168391
0.0169307
0.0171308
0.0170745
0.0171893
0.0171683
0.0171835
0.0171944
0.017114
0.0171567
0.0169932
0.0170582
0.0168375
0.0169207
0.0167447
0.0179121
0.0169086
0.0174049
0.018966
0.0184303
0.0200782
0.0195136
0.0212613
0.0206607
0.0225203
0.0218811
0.0238628
0.0231807
0.0252986
0.0245685
0.0268394
0.0260553
0.028498
0.0276533
0.0302871
0.0293757
0.0322175
0.0312343
0.0342962
0.0332381
0.036528
0.0353928
0.0389172
0.0377028
0.0414675
0.0401721
0.0441825
0.0428044
0.0470633
0.0456023
0.0501072
0.0485654
0.0533052
0.051688
0.0566393
0.0549569
0.0600808
0.058349
0.0635869
0.0618292
0.0670993
0.0653466
0.0705315
0.0688332
0.0737528
0.0721769
0.0766047
0.0752375
0.0789084
0.0778393
0.0803092
0.0797506
0.0804453
0.0806083
0.1083
0.0864208
0.0932086
0.0854093
0.0785381
0.0797024
0.11301
0.111574
0.109034
0.108454
0.0167403
0.0164141
0.110664
0.112127
0.110499
0.114461
0.111306
0.1107
0.108571
0.104848
0.0996615
0.0994538
0.0917226
0.0928038
0.0718132
0.0698422
0.0767514
0.101133
0.107024
0.111402
0.0924686
0.0837266
0.109077
0.089085
0.0904147
0.085585
0.0873996
0.0815747
0.0836345
0.0776
0.079591
0.0734233
0.0755313
0.0692817
0.0713313
0.0653002
0.0672778
0.0613868
0.0633335
0.0576319
0.0594818
0.0541033
0.05584
0.0507924
0.0524209
0.0476974
0.0492184
0.0448097
0.0462285
0.0421167
0.0434397
0.0396066
0.0408396
0.0372684
0.0384168
0.0350928
0.0361609
0.0330724
0.0340638
0.0311992
0.0321181
0.0294617
0.0303144
0.027844
0.0286391
0.0263278
0.0270744
0.0248946
0.0256016
0.0235328
0.0242055
0.0222348
0.0228761
0.0209978
0.0216088
0.019821
0.020402
0.0187026
0.0192549
0.0176424
0.0181653
0.0166192
0.017124
0.0163344
0.0161241
0.0162325
0.0165038
0.0164237
0.0166222
0.0165692
0.0166826
0.0166603
0.0166795
0.0166889
0.0166164
0.0166552
0.0165012
0.0165643
0.0163451
0.0164298
0.0161548
0.016253
0.0159311
0.0160493
0.0167545
0.0158063
0.0162779
0.0177369
0.0172412
0.0187656
0.0182431
0.0198529
0.0193016
0.0210026
0.0204196
0.0222201
0.0216026
0.0235118
0.0228563
0.0248865
0.0241882
0.026356
0.0256087
0.0279345
0.0271308
0.0296364
0.0287693
0.0314738
0.0305377
0.0334534
0.0324458
0.0355777
0.0344975
0.0378472
0.0366945
0.0402608
0.0390361
0.0428175
0.0415215
0.0455151
0.044149
0.0483479
0.0469152
0.0513044
0.0498118
0.0543641
0.0528231
0.0574957
0.0559235
0.0606527
0.0590746
0.0637721
0.0622219
0.066764
0.065291
0.0695077
0.0681752
0.0718493
0.0707402
0.073582
0.0728087
0.0744007
0.0741251
0.0739147
0.0743656
0.0730906
0.116807
0.115223
0.0741669
0.0671593
0.112846
0.11201
0.113657
0.115948
0.113801
0.0164785
0.0159961
0.0154629
0.015338
0.11837
0.114248
0.113163
0.110428
0.106038
0.10007
0.0937296
0.0851192
0.0854167
0.0944905
0.102566
0.108977
0.113854
0.0913929
0.0815847
0.06366
0.0709262
0.112789
0.0841131
0.0845013
0.0825999
0.0835442
0.0799218
0.0813675
0.0767881
0.0784015
0.0733998
0.0751148
0.069804
0.0716276
0.0661295
0.067962
0.0625278
0.0643191
0.0589847
0.0607486
0.0555511
0.0572485
0.0522887
0.0538977
0.0492044
0.0507242
0.0463006
0.04773
0.0435742
0.0449158
0.0410172
0.0422751
0.0386215
0.0397997
0.0363802
0.0374819
0.0342887
0.0353159
0.0323443
0.0332984
0.0305427
0.0314261
0.0288748
0.0296929
0.0273251
0.0280864
0.0258733
0.0265884
0.0245014
0.0251787
0.0231936
0.0238401
0.0219422
0.0225611
0.0207445
0.0213367
0.0196004
0.0201658
0.0185104
0.0190486
0.0174745
0.0179847
0.0169725
0.0158439
0.0156396
0.015749
0.0160133
0.0159347
0.0161308
0.0160787
0.0161904
0.0161682
0.0161893
0.0161973
0.016132
0.0161675
0.0160234
0.0160836
0.0158716
0.0159528
0.0156827
0.0157816
0.0155778
0.0165833
0.0156594
0.0161191
0.0175439
0.0170574
0.0185495
0.0180401
0.0196085
0.0190722
0.0207231
0.0201587
0.021897
0.0213024
0.0231356
0.0225079
0.024447
0.0237816
0.0258435
0.0251338
0.0273407
0.0265786
0.0289548
0.0281323
0.0306991
0.0298102
0.0325797
0.0316226
0.0345965
0.0335712
0.0367463
0.0356552
0.0390235
0.0378693
0.0414228
0.0402082
0.0439388
0.0426667
0.0465634
0.0452383
0.0492828
0.0479125
0.0520742
0.0506713
0.0549037
0.0534869
0.0577226
0.0563182
0.0604643
0.0591082
0.0630369
0.0617786
0.0653212
0.0642236
0.067167
0.0663098
0.0683718
0.0678652
0.0686635
0.0686509
0.067666
0.0683519
0.0651547
0.0666127
0.0603328
0.0631116
0.0593753
0.052565
0.0567646
0.12037
0.118417
0.116628
0.11551
0.0155181
0.015204
0.117118
0.119758
0.11699
0.122194
0.117004
0.115373
0.111976
0.106797
0.0998849
0.0850339
0.0757957
0.0743122
0.0460476
0.0409867
0.0473806
0.0840466
0.0946316
0.103336
0.11073
0.116082
0.0896094
0.0787998
0.0668932
0.0543033
0.116453
0.0770196
0.0766217
0.0769985
0.0770265
0.0763143
0.0768624
0.0744767
0.0754908
0.0720582
0.0733272
0.0692409
0.0706869
0.066165
0.0677306
0.0629535
0.0645651
0.0597393
0.0613436
0.0565504
0.0581404
0.0534303
0.0549775
0.0504325
0.0519146
0.0475745
0.0489856
0.0448634
0.0462004
0.0423005
0.0435637
0.0398819
0.0410735
0.0376031
0.0387253
0.0354613
0.0365152
0.0334563
0.0344417
0.0315896
0.0325056
0.0298605
0.0307081
0.0282625
0.029046
0.0267807
0.0275083
0.0253945
0.026077
0.0240831
0.0247307
0.0228303
0.0234501
0.021627
0.0222228
0.0204705
0.021043
0.0193609
0.0199098
0.0182995
0.0188241
0.0172886
0.0177864
0.0163192
0.0167988
0.0153792
0.0158493
0.01517
0.0149187
0.0150461
0.0153753
0.015279
0.0155373
0.0154606
0.0156536
0.0156024
0.0157118
0.01569
0.0157127
0.0157192
0.0156603
0.015693
0.0155587
0.0156153
0.0154139
0.0154915
0.0152296
0.0153258
0.0150122
0.0151267
0.0147626
0.0148908
0.0154944
0.0146236
0.0150568
0.0163965
0.0159441
0.0173353
0.0168602
0.0183167
0.0178201
0.0193458
0.0188252
0.0204236
0.0198785
0.0215526
0.0209816
0.0227368
0.0221374
0.0239844
0.0233521
0.0253081
0.0246358
0.0267247
0.0260037
0.028252
0.0274735
0.029904
0.0290619
0.0316863
0.0307797
0.0335963
0.0326257
0.035627
0.0345972
0.0377689
0.0366847
0.0400129
0.0388787
0.0423507
0.0411707
0.0447718
0.0435517
0.0472604
0.046009
0.049792
0.0485228
0.0523303
0.0510631
0.0548245
0.0535867
0.0572062
0.0560345
0.0593833
0.058327
0.061237
0.060359
0.0626182
0.0619974
0.0633327
0.0630729
0.0631301
0.0633642
0.061693
0.0625845
0.0587299
0.0604259
0.0536554
0.0565026
0.0502339
0.123915
0.122
0.0412119
0.035003
0.120355
0.118917
0.119832
0.123499
0.120016
0.0152281
0.0147821
0.0143297
0.0141946
0.125952
0.119528
0.117262
0.113101
0.107051
0.0991619
0.0722388
0.0625343
0.0597138
0.0694514
0.0822154
0.0937997
0.10379
0.111779
0.118111
0.0870895
0.075059
0.0619283
0.0482459
0.0279473
0.0340502
0.120046
0.0669898
0.0649542
0.06947
0.068518
0.070346
0.0700319
0.0703309
0.0704855
0.0692247
0.069887
0.0674174
0.0683918
0.065138
0.0663243
0.0625533
0.0638765
0.059787
0.0611844
0.0569533
0.0583742
0.0541051
0.0555287
0.0512882
0.0526893
0.0485507
0.0499075
0.0459166
0.0472198
0.0433975
0.0446422
0.0409987
0.042183
0.0387199
0.0398444
0.0365601
0.0376251
0.0345201
0.0355249
0.0326037
0.0335461
0.0308164
0.0316936
0.0291609
0.0299722
0.0276327
0.0283815
0.026218
0.0269124
0.0248961
0.0255469
0.0236448
0.0242629
0.0224469
0.02304
0.0212923
0.0218645
0.0201778
0.0207301
0.019104
0.0196357
0.0180727
0.0185828
0.0170867
0.0175736
0.0161405
0.0166083
0.0156815
0.0147161
0.0144701
0.0145985
0.0149188
0.0148245
0.0150773
0.0150025
0.0151893
0.0151401
0.015246
0.0152245
0.0152489
0.015254
0.0152009
0.0152311
0.0151059
0.015159
0.0149682
0.0150423
0.0147895
0.0148836
0.0145733
0.014687
0.0144539
0.0153166
0.0144697
0.0148916
0.0161936
0.0157526
0.0171107
0.016647
0.0180676
0.0175841
0.0190655
0.0185614
0.0201056
0.0195803
0.0211888
0.0206417
0.0223189
0.0217477
0.0235033
0.0229036
0.0247556
0.02412
0.0260936
0.0254127
0.027536
0.0268007
0.029097
0.0283012
0.0307819
0.0299232
0.0325864
0.0316699
0.0344991
0.03353
0.0365073
0.0354921
0.0385989
0.0375434
0.0407627
0.0396725
0.0429862
0.0418679
0.0452519
0.0441152
0.0475335
0.0463928
0.0497929
0.0486688
0.051978
0.0508986
0.0540191
0.0530216
0.0558249
0.054958
0.0572787
0.0566041
0.0582336
0.0578289
0.0585035
0.0584674
0.0578539
0.0583103
0.0560104
0.0570978
0.0526656
0.0545518
0.0473673
0.050285
0.0397636
0.0438882
0.0291454
0.0349377
0.0200127
0.0147963
0.022393
0.127143
0.125
0.123993
0.122184
0.0143443
0.0140497
0.122492
0.127135
0.122829
0.129487
0.121749
0.118751
0.113735
0.106696
0.0977314
0.0559296
0.0465741
0.0416977
0.0101288
0.00195402
0.00615813
0.0512377
0.0657809
0.0795118
0.0921027
0.103153
0.112464
0.119565
0.0836336
0.0703399
0.0560017
0.0411003
0.0260569
0.0110828
0.123523
0.0539267
0.0505327
0.0590086
0.0566016
0.062442
0.0610354
0.0640959
0.0634164
0.0646516
0.0645107
0.0641537
0.0645191
0.0628948
0.0636006
0.0611228
0.0620614
0.0590015
0.0600976
0.0566546
0.0578489
0.0541873
0.0554309
0.051666
0.0529303
0.0491406
0.0504007
0.0466565
0.0478912
0.0442421
0.0454395
0.041913
0.0430662
0.0396776
0.0407833
0.037539
0.0385961
0.0354994
0.0365066
0.0335631
0.034518
0.0317374
0.0326359
0.0300312
0.0308689
0.0284501
0.0292249
0.0269916
0.0277061
0.025643
0.0263047
0.0243837
0.0250036
0.0231911
0.0237803
0.0220471
0.0226139
0.0209408
0.0214896
0.0198687
0.0204005
0.0188312
0.0193455
0.017831
0.0183263
0.0168696
0.0173453
0.0159465
0.0164029
0.0150615
0.0154987
0.0142013
0.0146303
0.0140411
0.0137767
0.0139118
0.0142806
0.0141643
0.0144759
0.0143838
0.0146306
0.0145584
0.0147373
0.0146904
0.0147926
0.0147713
0.0147972
0.0148012
0.0147533
0.0147811
0.0146641
0.0147141
0.014533
0.0146037
0.0143597
0.0144517
0.0141484
0.0142583
0.0139098
0.0140327
0.0136407
0.0137795
0.0142969
0.0134928
0.0138923
0.0151243
0.0147114
0.0159785
0.0155468
0.0168729
0.0164216
0.0178031
0.0173337
0.0187691
0.0182817
0.0197707
0.0192654
0.0208083
0.0202849
0.0218849
0.0213415
0.023008
0.02244
0.0241913
0.0235911
0.0254533
0.0248112
0.0268134
0.0261201
0.0282857
0.0275351
0.0298746
0.0290655
0.0315739
0.0307112
0.0333697
0.0324607
0.0352464
0.0342989
0.0371888
0.0362102
0.0391836
0.0381805
0.0412162
0.0401962
0.0432675
0.042241
0.0453098
0.0442919
0.0473039
0.0463158
0.0491964
0.0482667
0.0509175
0.0500835
0.052377
0.0516864
0.053461
0.052974
0.0540274
0.0538189
0.0538991
0.0540625
0.0528573
0.0535075
0.0506527
0.0519161
0.0469905
0.0490266
0.0415063
0.0444955
0.0338623
0.0379792
0.023555
0.0290841
0.017297
0.130185
0.127896
-0.00336998
-0.00709882
0.127491
0.125261
0.124719
0.130584
0.125361
0.0140413
0.0136309
0.0132386
0.0130989
0.132798
0.123591
0.119759
0.113768
0.105635
0.0955003
0.0358533
0.0273486
0.0207167
0.0291754
0.0454539
0.0610405
0.0757971
0.0894023
0.10173
0.112133
0.120463
0.0791484
0.0645379
0.0490012
0.0328709
0.0168892
0.00115018
-0.0170427
-0.0138447
0.126834
0.0379667
0.0328453
0.046243
0.0424622
0.0519245
0.0493293
0.055949
0.054197
0.0582046
0.0572461
0.0592558
0.0588679
0.059278
0.0593822
0.0585225
0.0589804
0.0572206
0.0579289
0.0555301
0.0564155
0.0535749
0.0545787
0.0514563
0.0525308
0.049247
0.0503594
0.0470004
0.0481252
0.0447614
0.0458776
0.0425612
0.043655
0.0404185
0.0414818
0.0383447
0.0393726
0.0363459
0.0373356
0.0344272
0.0353761
0.0325959
0.0335
0.0308627
0.0317163
0.0292391
0.0300365
0.0277331
0.0284712
0.026344
0.0270244
0.0250602
0.0256901
0.0238617
0.0244517
0.0227259
0.0232872
0.0216342
0.0221754
0.0205753
0.021101
0.0195451
0.0200567
0.0185443
0.0190409
0.0175754
0.0180557
0.0166406
0.0171036
0.0157414
0.0161866
0.0148789
0.0153041
0.0144578
0.013623
0.013362
0.0134978
0.0138546
0.0137428
0.0140459
0.0139556
0.0141951
0.014126
0.0142972
0.0142522
0.0143511
0.0143301
0.0143571
0.01436
0.0143167
0.0143426
0.0142327
0.01428
0.0141077
0.0141753
0.0139418
0.0140299
0.0137371
0.0138439
0.0135016
0.0136235
0.0133733
0.0141123
0.0133313
0.0137192
0.0149153
0.0145105
0.0157521
0.015329
0.0166225
0.0161835
0.0175247
0.0170697
0.0184579
0.0179875
0.019421
0.0189358
0.0204136
0.0199135
0.0214382
0.0209216
0.0225023
0.0219646
0.0236194
0.0230531
0.0248086
0.0242038
0.026089
0.0254363
0.0274746
0.0267682
0.0289688
0.0282083
0.0305639
0.0297546
0.0322443
0.0313945
0.0339916
0.0331107
0.0357887
0.0348849
0.0376197
0.0367009
0.0394685
0.038543
0.0413144
0.0403933
0.0431288
0.0422277
0.0448713
0.044012
0.0464884
0.0456994
0.0479105
0.0472288
0.0490489
0.0485214
0.0497933
0.0494781
0.0500074
0.0499761
0.049524
0.0498645
0.048141
0.0489586
0.045628
0.0470408
0.0417125
0.0438648
0.0360865
0.0391312
0.0284369
0.0325364
0.0183962
0.0237351
0.00564598
0.012388
-0.0102794
-0.0018437
-0.0278492
-0.0297815
-0.019618
0.132844
0.130306
0.130782
0.128084
0.0132253
0.0129443
0.126515
0.133792
0.12754
0.135763
0.124969
0.120184
0.113098
0.103755
0.0923344
0.013272
0.00619413
-0.0019529
0.00534991
0.0213906
0.0382502
0.0551085
0.0709421
0.0859372
0.099366
0.111113
0.120571
0.0735117
0.0575656
0.0407489
0.0236481
0.00665605
-0.0097878
-0.02534
-0.0312258
-0.0407679
-0.0414641
0.129915
0.019545
0.0130177
0.0306036
0.025509
0.0393409
0.0352774
0.0455291
0.0427192
0.0499162
0.0479352
0.0526538
0.0514667
0.0541377
0.0535326
0.0546197
0.0544911
0.05432
0.0545529
0.0534466
0.0539444
0.0521532
0.0528441
0.0505622
0.0513881
0.0487725
0.0496869
0.046859
0.0478274
0.044878
0.0458739
0.0428747
0.0438767
0.0408819
0.0418754
0.0389213
0.0398966
0.0370065
0.0379576
0.0351462
0.0360691
0.0333483
0.0342389
0.031623
0.0324758
0.0299835
0.0307916
0.0284437
0.0292004
0.0270135
0.0277146
0.0256935
0.0263401
0.0244732
0.0250719
0.0233334
0.0238946
0.0222522
0.0227868
0.0212109
0.0217275
0.020198
0.0207014
0.0192092
0.0197007
0.0182448
0.0187238
0.0173077
0.0177727
0.0164004
0.0168502
0.0155251
0.0159587
0.0146819
0.0150988
0.0138697
0.0142738
0.0130749
0.0134702
0.0129632
0.0126841
0.0128256
0.0132196
0.0130951
0.013441
0.0133331
0.0136271
0.0135394
0.0137702
0.0137041
0.0138683
0.0138249
0.0139209
0.0139003
0.013928
0.0139301
0.0138908
0.0139148
0.0138115
0.0138563
0.0136923
0.0137568
0.0135338
0.013618
0.0133357
0.0134398
0.0131056
0.0132236
0.0128458
0.0129788
0.012564
0.0127083
0.0131552
0.0124097
0.0127798
0.0139144
0.0135329
0.0146988
0.014302
0.0155146
0.0151027
0.0163601
0.0159338
0.0172337
0.0167935
0.0181337
0.0176805
0.0190585
0.0185931
0.0200071
0.0195297
0.0209815
0.0204908
0.0219891
0.0214805
0.0230433
0.0225093
0.0241627
0.0235936
0.0253662
0.0247529
0.026667
0.026004
0.0280679
0.0273553
0.0295601
0.0288035
0.0311266
0.0303353
0.0327472
0.0319314
0.0344028
0.0335717
0.0360756
0.035238
0.0377478
0.0369129
0.0393977
0.0385772
0.0409955
0.0402053
0.0425006
0.0417626
0.0438594
0.0432021
0.0450031
0.044463
0.0458454
0.0454679
0.0462797
0.0461209
0.0461763
0.0463042
0.0453783
0.0458749
0.0436995
0.0446614
0.0409279
0.0424644
0.0368169
0.0390562
0.0310982
0.0341749
0.0234887
0.0275485
0.0136984
0.0188802
0.00149589
0.00791295
-0.0134084
-0.0055953
-0.0219152
0.135109
0.132357
-0.0394936
0.133805
0.130579
0.127669
0.136664
0.12928
0.0129117
0.0125333
0.012191
0.0120416
0.138312
0.125787
0.11992
0.111609
0.10093
0.0881178
-0.0107339
-0.0164818
-0.0259006
-0.0525027
-0.0524773
-0.0209424
-0.0043702
0.0127556
0.0301252
0.0478158
0.0650586
0.0812349
0.0961312
0.109166
0.119953
0.0666272
0.0492858
0.0312398
0.0130939
-0.00469062
-0.0216864
-0.0374376
0.132699
-0.000316769
-0.00792253
0.0132093
0.00680361
0.0244377
0.0191867
0.0331815
0.0290793
0.0396842
0.0367059
0.0443272
0.0422068
0.047435
0.0460578
0.0493029
0.0485042
0.0501898
0.0498565
0.0502961
0.0503277
0.0498102
0.0501169
0.0488807
0.0493927
0.0476269
0.0482877
0.0461452
0.0469093
0.0445109
0.0453432
0.0427819
0.0436551
0.0410039
0.0418966
0.0392113
0.0401077
0.0374275
0.0383171
0.0356682
0.036544
0.0339446
0.0348013
0.032267
0.0330993
0.030648
0.0314492
0.0291031
0.0298652
0.027648
0.0283635
0.0262939
0.0269579
0.0250424
0.0256556
0.0238844
0.0244527
0.0228015
0.0233348
0.0217726
0.0222815
0.0207797
0.0212725
0.0198112
0.0202928
0.0188627
0.0193345
0.0179344
0.0183959
0.017029
0.0174786
0.0161495
0.0165859
0.0152979
0.0157202
0.014476
0.0148827
0.0136855
0.0140777
0.0132978
0.0125746
0.0123001
0.0124418
0.0128234
0.0127029
0.0130397
0.0129355
0.0132185
0.0131343
0.0133557
0.0132923
0.0134502
0.0134083
0.0135015
0.0134813
0.0135095
0.0135109
0.0134751
0.0134975
0.0134002
0.0134426
0.0132864
0.0133481
0.0131347
0.0132153
0.0129444
0.0130446
0.0127196
0.0128354
0.0124669
0.0125976
0.012332
0.012966
0.0122431
0.0126023
0.0137065
0.0133335
0.014473
0.0140864
0.0152668
0.0148665
0.0160868
0.0156736
0.0169313
0.0165062
0.0177982
0.0173621
0.0186851
0.0182393
0.0195909
0.0191356
0.0205172
0.0200512
0.021471
0.02099
0.0224652
0.021962
0.0235179
0.0229831
0.0246471
0.0240719
0.0258653
0.0252446
0.0271744
0.0265088
0.0285651
0.0278605
0.0300195
0.0292856
0.0315162
0.0307639
0.0330343
0.0322738
0.0345545
0.0337952
0.0360577
0.0353095
0.0375208
0.0367959
0.0389136
0.0382282
0.0401952
0.0395712
0.0413125
0.0407782
0.0421981
0.041789
0.0427683
0.0425284
0.042921
0.0429038
0.0425331
0.042803
0.0414582
0.0420915
0.0395252
0.0406103
0.0365401
0.038177
0.0322823