/*--------------------------------*- C++ -*----------------------------------*\
  =========                 |
  \\      /  F ield         | OpenFOAM: The Open Source CFD Toolbox
   \\    /   O peration     | Website:  https://openfoam.org
    \\  /    A nd           | Version:  10
     \\/     M anipulation  |
\*---------------------------------------------------------------------------*/
FoamFile
{
    format      ascii;
    class       volScalarField;
    location    "48";
    object      p;
}
// * * * * * * * * * * * * * * * * * * * * * * * * * * * * * * * * * * * * * //

dimensions      [0 2 -2 0 0 0 0];

internalField   nonuniform List<scalar> 
28942
(
-0.00375022
-0.00312131
0.00205239
0.00953754
0.0098377
0.000111886
0.000336829
3.66608e-05
0.00275172
0.0028398
-0.00229608
-0.00256565
-0.00295056
-0.00286784
0.000222996
0.000559668
0.00991814
0.010188
0.00561138
0.00717241
0.00819048
0.00818235
-0.0052153
-0.00503858
-0.00356723
-0.00378926
0.0139161
0.0138651
0.00356143
0.00350493
2.71572e-05
6.50551e-05
0.000876666
0.000364988
0.00718179
0.00838787
0.0109253
0.0128845
4.29033e-06
0.0150804
0.00914187
0.0116397
0.00186675
0.0017927
0.00184316
0.000335209
0.000189281
0.000268351
0.000309532
0.000433085
0.000813506
0.00283699
0.00290724
0.00288331
0.00303931
-0.00233294
-0.00102768
-0.00335933
-0.00320456
-0.00347697
-0.00354989
-0.0035509
-0.00344856
-8.99759e-05
-0.00179582
-0.000334241
0.00100053
0.00945942
0.0089628
-0.00333985
-0.00355054
-0.00328478
0.00902339
0.00887559
0.0091672
-0.00144969
-0.00106118
-0.000719488
0.00238785
0.00278738
0.00187638
0.000778954
-0.00629651
-0.00752724
0.00111428
0.00384207
0.00488455
0.00567309
0.00405599
0.00418065
0.00614891
0.00552666
-0.0013661
-0.0016605
-0.00194065
-0.00177717
-0.00160083
0.005371
0.0066629
-0.00783858
0.0113349
0.0105359
0.00582982
0.00942711
0.000940653
0.000851946
0.000758688
0.00551302
0.00570566
0.00569963
-0.00320217
-0.00312249
-0.00310499
-0.00258644
-0.0027084
0.0158718
0.0138657
0.0133077
0.0149394
0.00167582
0.00475946
0.00345626
0.00510225
0.00477931
0.0155434
0.0158391
0.0144987
0.00594496
0.00702455
0.000226255
0.000336202
0.000135098
0.0105337
0.0110375
0.00771911
0.00737133
0.0128282
0.00672962
0.00802174
0.00908948
-0.00187794
-0.00239163
0.00739049
0.0017892
0.00187012
-0.00115388
-0.00141971
-0.00095505
-0.00249137
0.0066303
0.00575709
0.00374672
0.000302979
0.000241965
0.000103398
0.00024508
0.00756763
0.00683234
-0.0018306
-0.00194833
-0.00184307
-0.00411857
-0.00366123
8.30999e-05
-0.00283667
-0.000481005
0.00843252
0.00854131
0.00963563
0.00917098
0.00774856
0.00313232
0.00305027
0.00329429
0.00317066
0.00508358
0.00486134
0.00519602
0.00541654
0.00535402
0.00542378
0.00563463
0.00618814
0.00588242
0.00547992
0.00580993
0.00651573
0.00726887
0.0075612
-0.000535468
-0.000517158
-0.00244318
0.000251558
8.38716e-05
-0.0019596
-0.0020492
0.000339381
0.000401966
0.00036239
0.000291762
0.00204702
0.00201029
0.0019802
-0.00289823
-0.00308692
-0.00274935
-0.00432416
-0.00480833
-0.00411692
-0.00470632
-0.00647526
-0.00517059
0.0160658
0.0167762
0.0165437
0.000980548
0.0011259
0.00101196
0.010388
0.00996019
0.0100406
0.00157379
0.00155214
0.00159547
0.00153044
0.00150911
0.00148778
0.00148866
0.00146666
0.00146765
0.00150965
0.0015309
0.00155239
0.00157419
0.00159594
0.00144602
0.00144657
0.00161699
0.00161748
0.0016388
0.00142547
0.00142563
0.00163924
0.00140472
0.00138414
0.00140508
0.00138465
0.001661
0.00166149
0.0013638
0.00136432
0.00168253
0.00168326
0.00134361
0.00134416
0.0017043
0.00170501
0.00132359
0.00132416
0.00172604
0.00172679
0.00130371
0.00130435
0.00174777
0.00174849
0.0012841
0.00128457
0.00176946
0.00177012
0.00126458
0.001265
0.00179098
0.00179167
0.0012452
0.00124551
0.00181231
0.00181288
0.00122592
0.00122602
0.00183392
0.00183442
0.00120679
0.00120641
0.00185492
0.00185513
0.00118727
0.00118702
0.001876
0.00187619
0.00116737
0.00116758
0.00185392
0.00187496
0.00189702
0.00189695
0.00181074
0.00183266
0.0017676
0.00178951
0.00172469
0.00174625
0.00168117
0.001703
0.00163735
0.00165922
0.00159444
0.00161654
0.0015516
0.00157291
0.00150856
0.00152987
0.00146592
0.0014872
0.00142431
0.00144508
0.00138325
0.00140372
0.00134284
0.00136298
0.00130306
0.00132288
0.00126392
0.00128343
0.00122538
0.00124459
0.00118672
0.00120626
0.00116726
0.00114781
0.00114797
0.00120652
0.00116773
0.00118713
0.00124547
0.00122595
0.00128447
0.00126495
0.00132401
0.00130418
0.00136417
0.00134402
0.00140497
0.00138451
0.00144632
0.00142561
0.00148849
0.00146743
0.00153102
0.0015098
0.00157378
0.00155226
0.0016175
0.0015959
0.00166094
0.00163892
0.00170464
0.00168287
0.00174799
0.0017264
0.00179099
0.00176951
0.00183362
0.00181218
0.00187495
0.00185452
0.00189572
0.0018963
0.0011477
0.00114827
0.00191716
0.00191559
0.00191725
0.00191759
0.00185167
0.00189399
0.00187284
0.0018086
0.00183033
0.00176604
0.00178721
0.00172312
0.00174467
0.00167978
0.00170149
0.0016364
0.00165806
0.00159291
0.00161469
0.0015499
0.00157173
0.00150767
0.00152844
0.00146509
0.00148628
0.00142348
0.00144422
0.00138251
0.00140292
0.00134216
0.00136226
0.00130244
0.00132223
0.00126335
0.00128283
0.00122488
0.00124404
0.00118641
0.00120567
0.00112826
0.00112837
0.00114768
0.0011671
0.00116792
0.0011487
0.00112901
0.00112847
0.00120664
0.0011873
0.00124521
0.00122577
0.00128408
0.00126458
0.00132355
0.00130374
0.00136367
0.00134354
0.00140442
0.00138397
0.00144577
0.00142504
0.00148775
0.00146667
0.00153034
0.00150893
0.00157312
0.0015517
0.00161642
0.00159492
0.00165993
0.00163822
0.00170343
0.00168171
0.00174668
0.00172511
0.00178941
0.00176815
0.00183139
0.00181055
0.00187251
0.00185206
0.00191227
0.00189278
0.00191474
0.00193546
0.00193205
0.00193655
0.0011286
0.00112933
0.00193678
0.00193421
0.0019547
0.00195152
0.00193755
0.00114782
0.0011288
0.00110976
0.00111008
0.00193009
0.00195523
0.0019784
0.00195571
0.00189013
0.00191042
0.00184832
0.00186925
0.00180597
0.00182738
0.00176366
0.00178464
0.00172098
0.00174242
0.00167787
0.00169946
0.00163464
0.00165626
0.00159145
0.00161299
0.00154851
0.00156993
0.00150599
0.00152722
0.00146396
0.00148493
0.00142246
0.00144314
0.00138157
0.00140194
0.00134131
0.00136136
0.00130167
0.00132141
0.00126264
0.00128208
0.00122421
0.00124336
0.00118602
0.00120505
0.00116688
0.00110926
0.00110942
0.00110929
0.00110944
0.00116801
0.00112968
0.0011489
0.00120642
0.0011872
0.00124467
0.00122542
0.00128346
0.00126399
0.00132287
0.00130309
0.0013629
0.00134281
0.00140356
0.00138315
0.00144482
0.00142412
0.00148668
0.00146568
0.00152903
0.00150781
0.0015719
0.00155044
0.00161498
0.00159338
0.00165828
0.00163665
0.00170156
0.00167994
0.00174458
0.00172312
0.00178706
0.00176592
0.00182866
0.00180802
0.00186919
0.00184903
0.00190842
0.00188894
0.00194675
0.00192732
0.00196935
0.00196487
0.00195628
0.00195581
0.00110977
0.00111056
0.00197369
0.00197281
0.0019727
0.00198231
0.00198652
0.00192262
0.00200133
0.00195715
0.00196059
0.00196303
0.00192604
0.00194701
0.00188454
0.00190525
0.00184379
0.00186399
0.00180241
0.00182345
0.00176063
0.00178157
0.00171819
0.00173949
0.00167534
0.0016968
0.00163234
0.00165385
0.0015894
0.00161085
0.00154668
0.00156799
0.0015043
0.00152546
0.00146245
0.00148332
0.0014211
0.0014417
0.00138034
0.00140064
0.00134018
0.00136018
0.00130064
0.00132034
0.00126171
0.0012811
0.00122335
0.00124246
0.00118542
0.0012043
0.0011477
0.00116655
0.00110981
0.00112869
0.00109063
0.0010908
0.00109074
0.00109056
0.0010905
0.00109088
0.00109066
0.0010917
0.00109124
0.00112983
0.00109218
0.00111102
0.00116776
0.00114881
0.00120579
0.00118681
0.00124392
0.0012248
0.00128263
0.0012632
0.00132195
0.00130222
0.00136187
0.00134184
0.00140241
0.00138207
0.00144355
0.00142291
0.00148526
0.00146434
0.00152745
0.00150631
0.0015701
0.00154874
0.001613
0.00159151
0.00165607
0.00163454
0.00169908
0.0016776
0.0017418
0.0017205
0.00178396
0.00176298
0.00182521
0.00180474
0.00186516
0.00184537
0.00190356
0.0018846
0.00194054
0.00192215
0.00197593
0.00195794
0.00199862
0.00199215
0.0019744
0.00197475
0.00198931
0.0019888
0.00110975
0.00109104
0.00107287
0.00107307
0.00199681
0.00200311
0.00202648
0.00195378
0.00201284
0.0020072
0.00199029
0.00197504
0.00194867
0.00195474
0.00191917
0.00193705
0.00187829
0.00189875
0.00183895
0.00185876
0.00179836
0.00181884
0.00175688
0.00177771
0.00171477
0.0017359
0.00167225
0.00169355
0.00162955
0.00165091
0.00158688
0.0016082
0.00154441
0.00156561
0.00150227
0.0015233
0.00146059
0.00148138
0.00141942
0.00143994
0.00137881
0.00139905
0.0013388
0.00135874
0.00129939
0.00131902
0.00126056
0.0012799
0.00122232
0.00124137
0.00118463
0.00120341
0.00114717
0.00116582
0.00112837
0.00107202
0.00107207
0.00107204
0.00107219
0.00107217
0.00107242
0.00107234
0.00107256
0.00112975
0.00109211
0.00111118
0.00116728
0.0011485
0.00120494
0.00118614
0.00124298
0.0012239
0.00128159
0.00126221
0.00132079
0.00130112
0.00136058
0.00134061
0.00140098
0.00138071
0.00144196
0.0014214
0.00148348
0.00146266
0.00152548
0.00150443
0.00156788
0.00154665
0.00161054
0.00158919
0.00165332
0.00163194
0.00169602
0.0016747
0.00173839
0.00171727
0.00178015
0.00175937
0.00182098
0.00180071
0.00186048
0.00184093
0.00189824
0.00187962
0.00193411
0.00191657
0.00196767
0.00195026
0.00200003
0.00198504
0.00202086
0.00201331
0.00199237
0.00199116
0.00107201
0.00107344
0.00200298
0.00196837
0.00199846
0.00200555
0.00201708
0.00201589
0.00202346
0.00202401
0.00202672
0.00203367
0.0020277
0.00199202
0.00196267
0.00201253
0.00199158
0.00193949
0.00194843
0.00191051
0.00192853
0.00187235
0.00189145
0.00183356
0.00185314
0.00179348
0.00181367
0.00175246
0.00177307
0.00171076
0.00173169
0.00166862
0.00168974
0.00162627
0.00164746
0.00158392
0.00160509
0.00154174
0.0015628
0.00149987
0.00152076
0.00145841
0.00147909
0.00141745
0.00143787
0.00137703
0.00139717
0.00133718
0.00135703
0.00129791
0.00131747
0.00125922
0.0012785
0.0012211
0.0012401
0.00118353
0.00120226
0.00114636
0.00116494
0.00110913
0.00112775
0.00107176
0.00109059
0.0010535
0.00105309
0.00105313
0.00105393
0.00105369
0.00105424
0.00105408
0.00105432
0.00105432
0.00105442
0.00105436
0.00105489
0.00105455
0.00109202
0.00105505
0.00107351
0.00112927
0.00111072
0.00116655
0.0011479
0.00120392
0.00118518
0.00124185
0.00122282
0.00128033
0.00126102
0.00131939
0.00129979
0.00135904
0.00133915
0.00139926
0.00137908
0.00144005
0.00141959
0.00148136
0.00146065
0.00152312
0.00150219
0.00156525
0.00154416
0.00160762
0.00158642
0.00165007
0.00162885
0.00169239
0.00167127
0.00173435
0.00171344
0.00177566
0.00175512
0.001816
0.00179599
0.00185499
0.0018357
0.00189224
0.00187387
0.00192733
0.00191015
0.00196005
0.00194386
0.00198992
0.00197573
0.00201753
0.00200276
0.00204068
0.0020314
0.00200621
0.00201754
0.00201294
0.0010714
0.00105302
0.00103638
0.00103639
0.00200685
0.00202016
0.00202281
0.00203084
0.00203915
0.00204756
0.00205179
0.00204316
0.00200708
0.00200153
0.00202808
0.00201779
0.00201104
0.00196046
0.00198283
0.00193144
0.00194354
0.00190209
0.0019193
0.00186543
0.00188388
0.00182736
0.0018466
0.0017879
0.00180778
0.00174741
0.00176777
0.00170619
0.00172689
0.00166449
0.00168539
0.00162254
0.00164354
0.00158055
0.00160154
0.00153869
0.00155959
0.00149711
0.00151786
0.00145592
0.00147646
0.00141519
0.00143549
0.00137498
0.00139502
0.00133532
0.00135508
0.00129622
0.0013157
0.00125769
0.00127689
0.00121971
0.00123863
0.00118226
0.00120092
0.00114532
0.00116374
0.00110837
0.00112685
0.00108985
0.00103528
0.00103465
0.00103499
0.001036
0.0010357
0.00103644
0.00103626
0.00103648
0.00103651
0.0010363
0.00103643
0.00103629
0.00109181
0.00105488
0.00107334
0.00112855
0.00111017
0.00116548
0.00114703
0.00120274
0.00118404
0.00124053
0.00122157
0.00127887
0.00125963
0.00131777
0.00129825
0.00135724
0.00133744
0.00139727
0.00137719
0.00143784
0.00141749
0.0014789
0.00145832
0.0015204
0.00149961
0.00156222
0.00154128
0.00160425
0.00158323
0.00164632
0.0016253
0.00168823
0.00166732
0.00172974
0.00170906
0.00177055
0.00175026
0.00181034
0.0017906
0.00184876
0.00182976
0.00188543
0.00186735
0.00191993
0.001903
0.00195195
0.00193628
0.00198076
0.00196686
0.00200771
0.0019938
0.00203175
0.00201933
0.00204359
0.00203589
0.00205342
0.00204296
0.00201806
0.00103466
0.00103621
0.002025
0.00202142
0.00203883
0.00202884
0.00203434
0.00204475
0.00204497
0.00205339
0.00205866
0.00206193
0.00206316
0.00205319
0.00202084
0.00200426
0.00204118
0.00203369
0.00201381
0.00198856
0.00200054
0.00195443
0.00197088
0.00192345
0.00193786
0.00189326
0.00190975
0.00185777
0.00187575
0.00182048
0.00183935
0.00178169
0.00180125
0.0017418
0.00176187
0.00170111
0.00172154
0.00165988
0.00168055
0.00161837
0.00163915
0.00157677
0.00159757
0.00153527
0.001556
0.00149402
0.00151461
0.00145311
0.00147352
0.00141265
0.00143283
0.00137267
0.0013926
0.00133323
0.00135289
0.00129432
0.00131371
0.00125596
0.00127508
0.00121813
0.00123698
0.00118083
0.00119942
0.00114402
0.00116236
0.00110753
0.0011258
0.00107094
0.00108917
0.00103438
0.0010528
0.00101667
0.00101602
0.0010163
0.00101752
0.00101703
0.00101828
0.00101792
0.00101874
0.00101856
0.00101877
0.00101881
0.00101849
0.00101863
0.00101817
0.00101826
0.00101797
0.00101803
0.00105458
0.00101805
0.00103645
0.00109121
0.00107281
0.00112761
0.00110946
0.00116425
0.00114587
0.00120138
0.00118276
0.00123903
0.00122014
0.00127721
0.00125805
0.00131593
0.0012965
0.0013552
0.0013355
0.00139501
0.00137504
0.00143533
0.00141511
0.00147612
0.00145568
0.00151731
0.00149668
0.0015588
0.00153804
0.00160046
0.00157963
0.00164212
0.00162131
0.00168358
0.0016629
0.00172458
0.00170416
0.00176485
0.00174484
0.00180406
0.00178462
0.00184186
0.00182317
0.00187789
0.00186014
0.00191175
0.00189513
0.00194311
0.00192778
0.00197139
0.00195769
0.00199689
0.00198453
0.00201932
0.00200788
0.00204033
0.00203087
0.00205374
0.00205042
0.00205858
0.00204509
0.00203281
0.00203587
0.00204065
0.00205199
0.0020492
0.00204488
0.00204825
0.00103397
0.00101591
0.000999862
0.000999866
0.0020588
0.00205798
0.00206503
0.00206868
0.00207077
0.00206894
0.002046
0.00203755
0.00204115
0.00206504
0.0020566
0.00205796
0.00203542
0.00202369
0.00202575
0.00199282
0.00200502
0.00197539
0.00198742
0.00194485
0.0019596
0.00191522
0.00193006
0.00188409
0.00190021
0.00184957
0.00186713
0.00181304
0.00183154
0.00177494
0.00179417
0.00173567
0.00175544
0.00169554
0.0017157
0.00165483
0.00167525
0.00161378
0.00163434
0.00157262
0.00159321
0.00153151
0.00155205
0.0014906
0.00151103
0.00145002
0.00147027
0.00140984
0.00142988
0.00137012
0.00138992
0.00133091
0.00135045
0.00129221
0.0013115
0.00125404
0.00127307
0.00121639
0.00123516
0.00117924
0.00119776
0.00114258
0.00116085
0.00110638
0.00112443
0.00107014
0.00108827
0.00105208
0.000998795
0.000997984
0.000998378
0.000999878
0.000999365
0.00100069
0.00100032
0.00100114
0.00100097
0.00100116
0.0010012
0.00100082
0.00100102
0.00100035
0.00100059
0.00100012
0.00105406
0.00101792
0.00103603
0.00109031
0.00107215
0.00112637
0.0011083
0.00116288
0.00114457
0.00119986
0.00118131
0.00123735
0.00121854
0.00127534
0.00125628
0.00131387
0.00129454
0.00135292
0.00133333
0.00139248
0.00137264
0.00143254
0.00141246
0.00147303
0.00145274
0.0015139
0.00149343
0.00155502
0.00153444
0.00159627
0.00157565
0.00163749
0.00161691
0.00167846
0.00165803
0.00171893
0.00169878
0.00175862
0.0017389
0.00179722
0.00177809
0.00183438
0.00181602
0.00186974
0.00185232
0.00190292
0.00188664
0.0019336
0.00191861
0.00196135
0.00194788
0.00198606
0.00197415
0.00200765
0.00199722
0.00202539
0.00201742
0.0020432
0.00203134
0.00205703
0.0020585
0.00207262
0.0020627
0.00205149
0.00204193
0.00206499
0.00206185
0.00204794
0.00204992
0.000997856
0.000999641
0.00206668
0.00205953
0.00206139
0.00206985
0.00207004
0.00207566
0.00207867
0.00207717
0.00207303
0.00204689
0.00203287
0.00203515
0.00203661
0.00204259
0.0020563
0.00205071
0.00206378
0.0020727
0.00207182
0.00206601
0.00204984
0.00202652
0.0020254
0.00200721
0.00201288
0.00198285
0.00199552
0.0019622
0.00197345
0.00193478
0.00194887
0.0019057
0.00192042
0.00187468
0.00189056
0.00184092
0.0018581
0.00180512
0.00182325
0.00176771
0.0017866
0.00172908
0.00174853
0.00168954
0.00170941
0.00164937
0.00166952
0.00160882
0.00162913
0.00156811
0.00158848
0.00152741
0.00154775
0.00148688
0.00150712
0.00144664
0.00146673
0.00140677
0.00142666
0.00136734
0.001387
0.00132837
0.0013478
0.00128991
0.00130908
0.00125195
0.00127087
0.00121448
0.00123316
0.00117751
0.00119594
0.001141
0.0011592
0.00110494
0.00112291
0.00106916
0.00108707
0.00103343
0.00105121
0.000997559
0.00101544
0.000980252
0.000979655
0.00097986
0.000981298
0.000980674
0.000982384
0.000981856
0.000983195
0.000982837
0.000983619
0.000983455
0.000983657
0.000983686
0.000983313
0.000983526
0.000982682
0.000983053
0.00098204
0.000982338
0.00098149
0.000981781
0.00101731
0.000981352
0.000999447
0.00105339
0.00103532
0.00108908
0.00107127
0.00112499
0.00110698
0.00116136
0.00114312
0.00119818
0.00117972
0.00123549
0.00121678
0.00127329
0.00125433
0.0013116
0.00129238
0.00135041
0.00133094
0.00138971
0.00137
0.00142948
0.00140954
0.00146965
0.00144952
0.00151016
0.00148987
0.00155089
0.00153051
0.00159171
0.00157131
0.00163245
0.00161211
0.0016729
0.00165274
0.00171282
0.00169296
0.00175192
0.0017325
0.00178988
0.00177107
0.00182638
0.00180835
0.00186105
0.00184398
0.00189355
0.00187761
0.00192355
0.0019089
0.00195069
0.00193751
0.0019748
0.00196316
0.00199568
0.00198569
0.00201249
0.00200473
0.00202629
0.00201987
0.00202719
0.00207573
0.00207858
0.00205628
0.00204418
0.00206221
0.00206327
0.00206766
0.00207135
0.0020736
0.000996899
0.000979191
0.000963653
0.000963261
0.00208172
0.00208106
0.00208551
0.00208664
0.00208488
0.00208176
0.00204139
0.00202757
0.00203857
0.00204817
0.00206205
0.00206495
0.00207737
0.00207726
0.00206469
0.00204311
0.00205691
0.00206355
0.0020213
0.00201223
0.0020092
0.00201649
0.0019912
0.00200033
0.00197181
0.00198217
0.00195007
0.0019614
0.00192399
0.00193748
0.00189552
0.00191
0.00186493
0.00188056
0.00183186
0.00184868
0.00179677
0.00181455
0.00176005
0.0017786
0.00172207
0.00174121
0.00168313
0.00170271
0.00164353
0.0016634
0.0016035
0.00162355
0.00156326
0.0015834
0.001523
0.00154313
0.00148288
0.00150292
0.001443
0.0014629
0.00140346
0.00142318
0.00136432
0.00138384
0.00132563
0.00134492
0.00128741
0.00130646
0.00124967
0.00126848
0.00121241
0.00123099
0.00117562
0.00119396
0.00113929
0.0011574
0.00110338
0.00112128
0.00106789
0.00108559
0.00103246
0.00105012
0.00101469
0.000962623
0.00096175
0.000962217
0.000963906
0.000963294
0.000965009
0.000964489
0.000965784
0.000965443
0.000966191
0.000966033
0.000966233
0.000966258
0.000965905
0.000966116
0.000965248
0.000965611
0.000964368
0.000964838
0.000963914
0.00101663
0.000980974
0.000998949
0.00105234
0.00103445
0.00108772
0.00106999
0.0011235
0.00110556
0.0011597
0.00114155
0.00119635
0.00117797
0.00123346
0.00121485
0.00127105
0.0012522
0.00130912
0.00129003
0.00134768
0.00132834
0.0013867
0.00136714
0.00142615
0.00140638
0.00146598
0.00144603
0.00150611
0.00148602
0.00154643
0.00152626
0.0015868
0.00156663
0.00162705
0.00160696
0.00166696
0.00164707
0.0017063
0.00168673
0.00174478
0.00172567
0.0017821
0.00176362
0.00181792
0.00180023
0.00185191
0.00183518
0.00188373
0.00186813
0.00191305
0.00189874
0.00193956
0.00192669
0.00196304
0.00195171
0.00198327
0.0019736
0.00199973
0.00199204
0.00201222
0.00200667
0.00202029
0.00201631
0.00203016
0.00202661
0.00204261
0.00203035
0.00202466
0.0020843
0.00208082
0.00207443
0.00207559
0.0009613
0.000963125
0.00208208
0.00208268
0.0020848
0.00209217
0.00209103
0.00209412
0.00209407
0.00209125
0.00208522
0.00203951
0.00202283
0.00201978
0.00201579
0.00201096
0.00202937
0.00203649
0.00205766
0.00206086
0.00207615
0.0020773
0.00207879
0.00206867
0.00205535
0.00204043
0.00207594
0.00201743
0.00202366
0.00200504
0.0020009
0.00199292
0.00200226
0.00197821
0.00198603
0.00195954
0.00196937
0.00193792
0.00194915
0.00191272
0.00192573
0.00188493
0.00189911
0.00185485
0.0018702
0.00182245
0.00183893
0.00178805
0.00180549
0.00175202
0.00177023
0.00171469
0.0017335
0.00167637
0.00169564
0.00163734
0.00165693
0.00159785
0.00161764
0.00155811
0.001578
0.00151831
0.00153821
0.0014786
0.00149844
0.0014391
0.00145882
0.0013999
0.00141946
0.00136108
0.00138045
0.00132268
0.00134183
0.00128473
0.00130365
0.00124723
0.00126592
0.00121019
0.00122865
0.0011736
0.00119184
0.00113744
0.00115547
0.0011017
0.00111952
0.00106636
0.00108398
0.00103136
0.00104883
0.000996015
0.00101365
0.000960635
0.000978454
0.000944094
0.00094282
0.000943394
0.000945352
0.000944668
0.000946632
0.000945998
0.000947718
0.000947217
0.000948455
0.00094813
0.000948848
0.000948695
0.000948894
0.000948914
0.000948594
0.000948788
0.000947958
0.000948316
0.00094704
0.000947519
0.000946099
0.000946543
0.000945415
0.000945701
0.000980436
0.000945354
0.00096294
0.00101573
0.000998178
0.00105102
0.00103339
0.00108625
0.00106859
0.00112188
0.00110402
0.0011579
0.00113984
0.00119436
0.00117608
0.00123126
0.00121276
0.00126863
0.00124989
0.00130645
0.00128749
0.00134474
0.00132554
0.00138346
0.00136405
0.00142258
0.00140298
0.00146205
0.00144228
0.00150178
0.0014819
0.00154167
0.00152172
0.00158156
0.00156163
0.0016213
0.00160147
0.00166066
0.00164105
0.0016994
0.00168013
0.00173726
0.00171847
0.00177393
0.00175577
0.00180908
0.00179173
0.00184239
0.001826
0.00187353
0.00185827
0.00190219
0.00188821
0.00192808
0.00191552
0.00195096
0.00193993
0.00197059
0.00196122
0.00198664
0.00197911
0.00199888
0.00199331
0.00200746
0.00200346
0.00201299
0.00201143
0.00200977
0.00209391
0.00209291
0.00202783
0.00201663
0.00208572
0.00208691
0.00208784
0.00209299
0.00209495
0.000959982
0.000942454
0.000927903
0.000927633
0.0021016
0.0020999
0.00210169
0.00210041
0.0020961
0.00208888
0.00201613
0.00200211
0.00199843
0.0020146
0.00203437
0.00205383
0.00207058
0.00207367
0.00208626
0.00208057
0.0020679
0.0020516
0.00203751
0.00200367
0.00201449
0.00208731
0.00200874
0.00200127
0.00199944
0.00200829
0.00198921
0.001993
0.00197953
0.0019857
0.00196507
0.00197273
0.00194686
0.00195641
0.00192561
0.00193664
0.00190114
0.00191376
0.001874
0.00188789
0.0018445
0.00185956
0.00181275
0.0018289
0.00177902
0.00179612
0.00174366
0.00176154
0.00170698
0.00172548
0.00166928
0.00168825
0.00163084
0.00165015
0.00159189
0.00161142
0.00155266
0.00157231
0.00151333
0.00153301
0.00147406
0.00149369
0.00143496
0.00145448
0.00139613
0.00141551
0.00135764
0.00137684
0.00131954
0.00133854
0.00128186
0.00130065
0.00124462
0.00126319
0.00120781
0.00122616
0.00117143
0.00118957
0.00113547
0.0011534
0.00109991
0.00111765
0.00106473
0.00108227
0.00102991
0.00104728
0.000994939
0.00101245
0.00097742
0.000926682
0.00092533
0.000926053
0.000928173
0.000927456
0.000929471
0.000928842
0.000930504
0.000930029
0.000931208
0.000930896
0.000931586
0.000931438
0.000931636
0.000931652
0.000931361
0.000931539
0.000930763
0.000931102
0.000929869
0.000930346
0.000928764
0.000929347
0.000928224
0.000979814
0.000944835
0.0009625
0.00101471
0.000997253
0.00104959
0.00103218
0.00108468
0.00106709
0.00112013
0.00110236
0.00115597
0.00113801
0.00119223
0.00117405
0.00122891
0.00121052
0.00126603
0.00124742
0.00130359
0.00128476
0.00134159
0.00132254
0.00138
0.00136075
0.00141877
0.00139935
0.00145786
0.00143829
0.00149718
0.00147751
0.00153662
0.0015169
0.00157603
0.00155634
0.00161523
0.00159568
0.00165403
0.00163471
0.00169218
0.00167321
0.00172941
0.00171094
0.00176542
0.0017476
0.00179991
0.00178289
0.00183256
0.0018165
0.00186304
0.0018481
0.00189107
0.0018774
0.00191636
0.00190409
0.00193868
0.00192793
0.00195779
0.00194867
0.00197344
0.00196609
0.00198543
0.00197994
0.00199394
0.00199005
0.0019984
0.00199699
0.00199878
0.00199866
0.00200062
0.00199629
0.00200104
0.00198853
0.0019892
0.00210179
0.00209995
0.00209603
0.00209719
0.000925011
0.000927262
0.00209142
0.00210232
0.00210401
0.00210963
0.00210769
0.00210821
0.00210554
0.00209986
0.00209132
0.00199707
0.00198225
0.00197319
0.00197643
0.0019656
0.00197968
0.00199138
0.00201416
0.00203019
0.00205206
0.00206692
0.0020823
0.00208881
0.00208041
0.00206553
0.00204794
0.00203025
0.00201017
0.00199219
0.00209764
0.00199487
0.0019915
0.00199236
0.00198078
0.00198298
0.00199279
0.00197602
0.00197935
0.00196603
0.00197174
0.00195175
0.00195932
0.00193403
0.00194331
0.00191322
0.00192402
0.00188936
0.00190167
0.00186284
0.00187642
0.00183392
0.00184868
0.0018028
0.00181863
0.00176973
0.0017865
0.00173503
0.00175257
0.00169899
0.00171717
0.00166191
0.00168057
0.00162406
0.00164307
0.00158567
0.00160492
0.00154696
0.00156635
0.00150811
0.00152754
0.00146928
0.00148869
0.00143059
0.00144991
0.00139214
0.00141133
0.001354
0.00137303
0.00131622
0.00133506
0.00127883
0.00129747
0.00124185
0.00126029
0.00120529
0.00122352
0.00116914
0.00118716
0.00113338
0.00115121
0.00109801
0.00111565
0.001063
0.00108046
0.00102833
0.00104562
0.000993887
0.00101112
0.000959273
0.000976477
0.000924481
0.000942022
0.000908184
0.000906964
0.000907547
0.000909661
0.000908855
0.000911123
0.00091041
0.000912389
0.000911787
0.000913365
0.000912915
0.000914037
0.000913739
0.0009144
0.000914257
0.000914455
0.000914466
0.000914201
0.000914366
0.000913643
0.00091396
0.000912781
0.00091325
0.000911681
0.000912247
0.000910586
0.0009111
0.000909948
0.00091025
0.00094425
0.000909782
0.000927015
0.000978911
0.000961623
0.00101349
0.000996156
0.00104808
0.00103076
0.001083
0.0010655
0.00111827
0.00110059
0.00115392
0.00113605
0.00118996
0.00117189
0.0012264
0.00120813
0.00126327
0.00124479
0.00130056
0.00128187
0.00133825
0.00131936
0.00137632
0.00135725
0.00141474
0.0013955
0.00145344
0.00143407
0.00149233
0.00147287
0.0015313
0.00151182
0.00157021
0.00155078
0.00160889
0.0015896
0.00164712
0.00162808
0.00168466
0.001666
0.00172127
0.00170311
0.00175664
0.00173914
0.00179048
0.00177378
0.00182247
0.00180674
0.00185233
0.0018377
0.00187975
0.00186638
0.00190449
0.00189249
0.0019263
0.00191579
0.00194496
0.00193606
0.00196026
0.00195306
0.00197203
0.00196662
0.00198032
0.0019766
0.00198476
0.00198316
0.00198502
0.00198543
0.00198221
0.00198403
0.00197554
0.00210839
0.00210563
0.00197665
0.00196668
0.00210532
0.00210638
0.0020968
0.00211045
0.00211197
0.000923798
0.000906541
0.00089269
0.000892449
0.00211641
0.00211438
0.00211353
0.00210951
0.00210245
0.00209268
0.00197254
0.00196149
0.00194606
0.00195695
0.00199197
0.00200678
0.00203104
0.00204172
0.00206502
0.0020798
0.00209195
0.00207871
0.00206211
0.00204394
0.00202143
0.00200479
0.00198434
0.00195328
0.00196333
0.0021069
0.00197131
0.00195296
0.00197968
0.00198022
0.00197518
0.00196973
0.00196962
0.00197565
0.00196273
0.00196621
0.0019525
0.00195818
0.00193848
0.00194592
0.00192117
0.00193024
0.00190078
0.00191136
0.00187747
0.00188949
0.00185151
0.00186481
0.00182316
0.00183763
0.00179265
0.00180817
0.00176022
0.00177666
0.00172616
0.00174338
0.00169075
0.00170861
0.00165429
0.00167264
0.00161702
0.00163575
0.00157919
0.00159817
0.001541
0.00156013
0.00150265
0.00152184
0.00146427
0.00148346
0.00142601
0.00144512
0.00138795
0.00140695
0.00135016
0.00136902
0.00131271
0.0013314
0.00127563
0.00129413
0.00123893
0.00125724
0.00120263
0.00122073
0.00116671
0.00118462
0.00113117
0.0011489
0.001096
0.00111354
0.00106117
0.00107855
0.00102667
0.00104388
0.000992492
0.00100955
0.000958214
0.000975289
0.000941053
0.000891109
0.000889715
0.00089045
0.000892724
0.000891927
0.000894166
0.00089347
0.000895372
0.000894803
0.000896298
0.00089587
0.000896938
0.000896654
0.000897288
0.000897149
0.000897346
0.000897353
0.000897113
0.000897266
0.000896593
0.000896889
0.000895789
0.000896227
0.00089473
0.000895284
0.000893518
0.00089415
0.00089303
0.000943646
0.000909409
0.000926509
0.000977896
0.000960712
0.00101205
0.000994946
0.00104647
0.00102922
0.00108121
0.0010638
0.00111629
0.00109871
0.00115173
0.00113397
0.00118755
0.00116959
0.00122375
0.0012056
0.00126035
0.001242
0.00129735
0.0012788
0.00133472
0.00131599
0.00137246
0.00135355
0.0014105
0.00139145
0.00144879
0.00142963
0.00148725
0.00146801
0.00152575
0.00150651
0.00156415
0.00154498
0.00160228
0.00158327
0.00163994
0.00162119
0.00167689
0.00165853
0.00171288
0.00169503
0.00174762
0.00173043
0.00178082
0.00176445
0.0018122
0.00179677
0.00184145
0.00182712
0.00186832
0.00185522
0.00189253
0.00188079
0.00191389
0.0019036
0.00193216
0.00192344
0.00194718
0.00194011
0.00195878
0.00195344
0.00196694
0.00196331
0.00197138
0.0019697
0.00197197
0.00197215
0.00196855
0.00197094
0.00196071
0.00196486
0.00195429
0.0019529
0.00193967
0.00193169
0.00194236
0.00211372
0.00210958
0.00211347
0.00211445
0.000889339
0.000891986
0.00210081
0.00211736
0.00211879
0.002122
0.00211987
0.00211767
0.00211225
0.00210384
0.00209258
0.0019325
0.00193077
0.00192407
0.00194275
0.00195811
0.00197718
0.00200697
0.00202038
0.00204391
0.0020582
0.00207626
0.00209047
0.0020756
0.00205766
0.00203759
0.00201769
0.00199561
0.00197224
0.00194923
0.00192277
0.00192882
0.00191647
0.00211504
0.00195397
0.00192835
0.00195518
0.00194751
0.0019632
0.00196197
0.00195987
0.00196078
0.00195682
0.00195964
0.00194952
0.00195341
0.00193916
0.00194482
0.00192536
0.00193268
0.00190836
0.00191726
0.00188835
0.00189873
0.00186551
0.00187728
0.00184007
0.00185311
0.00181227
0.00182646
0.00178234
0.00179757
0.00175052
0.00176666
0.00171708
0.001734
0.0016823
0.00169985
0.00164644
0.00166449
0.00160976
0.00162819
0.00157248
0.00159119
0.00153483
0.0015537
0.00149697
0.00151592
0.00145906
0.00147802
0.00142123
0.00144013
0.00138357
0.00140237
0.00134615
0.00136483
0.00130905
0.00132756
0.00127228
0.00129062
0.00123587
0.00125403
0.00119983
0.0012178
0.00116416
0.00118195
0.00112885
0.00114646
0.00109389
0.00111133
0.00105925
0.00107653
0.00102493
0.00104206
0.000990904
0.00100788
0.000956953
0.000973884
0.000923049
0.000940043
0.000888755
0.000905965
0.000872797
0.000871553
0.000872143
0.000874327
0.000873501
0.000875883
0.000875112
0.000877278
0.000876611
0.000878419
0.000877881
0.000879298
0.000878892
0.000879908
0.000879637
0.000880244
0.00088011
0.000880306
0.000880309
0.000880093