/*--------------------------------*- C++ -*----------------------------------*\
  =========                 |
  \\      /  F ield         | OpenFOAM: The Open Source CFD Toolbox
   \\    /   O peration     | Website:  https://openfoam.org
    \\  /    A nd           | Version:  10
     \\/     M anipulation  |
\*---------------------------------------------------------------------------*/
FoamFile
{
    format      ascii;
    class       volScalarField;
    location    "28";
    object      p;
}
// * * * * * * * * * * * * * * * * * * * * * * * * * * * * * * * * * * * * * //

dimensions      [0 2 -2 0 0 0 0];

internalField   nonuniform List<scalar> 
25879
(
0.101057
0.103662
0.102693
0.0999163
-0.0801972
-0.0692615
-0.0323653
-0.0190024
-0.00205578
-0.00931315
-0.0995235
-0.0702228
-0.132678
-0.647761
-0.687376
0.291118
0.217861
-0.209638
-0.360843
0.747455
0.723927
0.326945
0.425022
0.124734
0.12651
0.132401
0.129747
0.119261
0.123495
0.119621
0.119023
-0.611028
-0.609515
-0.594197
0.0660783
0.12964
0.132892
-0.0151737
-0.00956028
-0.245763
-0.205046
-0.148818
0.292519
0.308765
0.315223
-0.284956
-0.304884
-0.376533
-0.348669
-0.369271
-0.0387415
0.00449597
-0.649663
-0.44927
0.00290819
0.00443686
0.00665384
0.519651
0.523622
0.485841
0.474203
0.452243
0.445554
0.00276834
0.00535476
0.00481353
-0.66474
-0.668441
-0.609955
-0.551814
-0.63532
0.180724
0.184386
0.189195
0.328328
0.471651
0.396317
0.109148
0.10954
0.106075
0.327464
0.31014
0.829896
0.767884
0.772017
0.239934
0.248536
0.235805
0.0844487
0.0878952
-0.272938
-0.220595
-0.319925
0.114963
0.114307
-0.0434369
-0.0627648
-0.0567544
0.109674
0.101325
0.0955752
0.0802417
0.0881998
0.087107
0.0809596
0.212239
0.209707
-0.0254544
0.0252961
0.136264
0.13687
0.00482039
0.0081451
0.023545
0.0236834
0.234507
0.223463
-0.0827131
0.0364011
0.0691416
0.0748883
-0.356889
-0.35776
-0.135744
-0.133807
-0.208199
-0.192234
-0.672147
-0.72774
-0.678122
-0.619527
-0.602842
0.467687
0.446296
0.43719
0.453137
0.103728
0.107012
-0.0233745
0.00878439
-0.100572
-0.100154
-0.102849
-0.105511
-0.111499
-0.119112
-0.128588
-0.139819
-0.152739
-0.167232
-0.182961
-0.198989
-0.21447
-0.228007
-0.238573
-0.2448
-0.245367
-0.244075
-0.23725
-0.226211
-0.211907
-0.195622
-0.1784
-0.161569
-0.14587
-0.132098
-0.120366
-0.110815
-0.103188
-0.0973854
-0.0932043
-0.0906047
-0.0895026
-0.0897092
-0.0913883
-0.0951211
-0.101879
-0.0879241
-0.0902129
-0.0980062
-0.0997729
-0.0980579
-0.0985968
-0.104557
-0.0907333
-0.0933357
-0.0901908
-0.0897476
-0.0954506
-0.0920424
-0.107034
-0.100368
-0.12596
-0.115451
-0.152692
-0.138348
-0.184205
-0.168132
-0.213208
-0.199477
-0.231745
-0.224073
-0.23368
-0.236379
-0.218609
-0.227838
-0.192734
-0.206586
-0.163672
-0.178131
-0.137856
-0.150099
-0.11814
-0.127149
-0.106054
-0.110987
-0.102325
-0.110763
-0.0995738
-0.10434
-0.128111
-0.118603
-0.153063
-0.139712
-0.184982
-0.168234
-0.218848
-0.202051
-0.245644
-0.233747
-0.256023
-0.253364
-0.247337
-0.25424
-0.221792
-0.236495
-0.187069
-0.205215
-0.152402
-0.169383
-0.124448
-0.137462
-0.105069
-0.113766
-0.0932082
-0.0982902
-0.0877324
-0.0896948
-0.0871661
-0.0981268
-0.097887
-0.0977839
-0.1132
-0.110522
-0.114481
-0.124631
-0.126455
-0.0937626
-0.0833471
-0.0844163
-0.0976838
-0.0967029
-0.0943855
-0.0950678
-0.0968729
-0.0982485
-0.105215
-0.0898759
-0.0931539
-0.088108
-0.0882317
-0.0922169
-0.0894276
-0.102333
-0.0964904
-0.119158
-0.109855
-0.142982
-0.130283
-0.171166
-0.156901
-0.197384
-0.185078
-0.214362
-0.207509
-0.216698
-0.217884
-0.204282
-0.212173
-0.181921
-0.194024
-0.156207
-0.169104
-0.132888
-0.143999
-0.114965
-0.123168
-0.103758
-0.108529
-0.0976586
-0.100066
-0.0965225
-0.0964636
-0.10886
-0.102431
-0.126751
-0.11684
-0.152122
-0.138492
-0.184635
-0.167754
-0.21916
-0.202195
-0.246786
-0.234551
-0.258363
-0.255094
-0.250648
-0.257117
-0.225924
-0.240005
-0.191602
-0.209372
-0.15639
-0.173526
-0.126972
-0.140625
-0.105711
-0.115268
-0.0919086
-0.0979172
-0.0845922
-0.0874509
-0.0832724
-0.105934
-0.0922706
-0.120755
-0.0978315
-0.0941121
-0.0957388
-0.138296
-0.141179
-0.0870501
-0.0925137
-0.0998516
-0.0984625
-0.09875
-0.0946996
-0.0970569
-0.113806
-0.141284
-0.126199
-0.0965073
-0.104012
-0.0871861
-0.0909438
-0.0845296
-0.0850814
-0.0876316
-0.0853766
-0.0963887
-0.0912726
-0.111341
-0.103037
-0.132659
-0.121266
-0.157862
-0.14508
-0.181193
-0.170213
-0.196123
-0.190083
-0.198258
-0.198988
-0.187573
-0.19435
-0.168138
-0.178621
-0.14566
-0.156921
-0.125156
-0.134917
-0.109397
-0.116596
-0.0992915
-0.103651
-0.0942935
-0.0961638
-0.093644
-0.094386
-0.0884133
-0.0907947
-0.105854
-0.0993812
-0.124211
-0.114063
-0.150331
-0.136286
-0.183347
-0.166169
-0.218217
-0.201063
-0.245879
-0.233603
-0.257487
-0.25412
-0.249403
-0.255931
-0.224764
-0.238752
-0.190939
-0.208486
-0.156034
-0.173141
-0.126299
-0.140252
-0.10417
-0.114257
-0.0891277
-0.0958228
-0.0802822
-0.0839323
-0.0773601
-0.0781462
-0.0799306
-0.0778356
-0.157995
-0.15906
-0.0913598
-0.114885
-0.100372
-0.0986234
-0.133386
-0.154427
-0.0840173
-0.0994596
-0.0835628
-0.177512
-0.179223
-0.0870929
-0.0820585
-0.0896911
-0.107942
-0.100303
-0.100917
-0.095657
-0.0984978
-0.0869899
-0.0917826
-0.13865
-0.177726
-0.156724
-0.110834
-0.12338
-0.0929713
-0.100733
-0.0831139
-0.0871265
-0.0797422
-0.0806809
-0.0818734
-0.0801453
-0.0892373
-0.084878
-0.102262
-0.0949916
-0.121132
-0.111015
-0.143636
-0.132202
-0.164503
-0.154681
-0.177753
-0.172413
-0.17958
-0.180222
-0.170143
-0.176119
-0.153063
-0.162258
-0.133419
-0.143246
-0.11559
-0.124068
-0.101998
-0.108187
-0.0934431
-0.0970879
-0.0897465
-0.0910016
-0.0905655
-0.0896545
-0.0957422
-0.092573
-0.0898613
-0.0861335
-0.101493
-0.094884
-0.119998
-0.109797
-0.14626
-0.13213
-0.179372
-0.162151
-0.214259
-0.197109
-0.241751
-0.229588
-0.253009
-0.249823
-0.244653
-0.251275
-0.219857
-0.233912
-0.186194
-0.203616
-0.151714
-0.168611
-0.122252
-0.13612
-0.10002
-0.110217
-0.0844746
-0.0914809
-0.0746194
-0.0788519
-0.0702572
-0.0717508
-0.0713919
-0.0699405
-0.0787874
-0.0743776
-0.201523
-0.20025
-0.0967269
-0.0843979
-0.126599
-0.108114
-0.0815363
-0.148684
-0.100133
-0.0917461
-0.0963642
-0.173214
-0.199437
-0.105845
-0.225605
-0.224652
-0.0917103
-0.118181
-0.104154
-0.102771
-0.103346
-0.104389
-0.0977823
-0.101109
-0.0881086
-0.093392
-0.172309
-0.220186
-0.195214
-0.133325
-0.151549
-0.105861
-0.118218
-0.0878862
-0.0957415
-0.0777721
-0.0819493
-0.0738478
-0.0751019
-0.0750939
-0.073856
-0.0811331
-0.077499
-0.0922755
-0.0860225
-0.108694
-0.0998654
-0.128457
-0.118399
-0.146847
-0.138189
-0.158476
-0.153805
-0.160072
-0.160625
-0.15183
-0.157045
-0.137022
-0.144979
-0.120122
-0.12856
-0.104925
-0.112131
-0.0935445
-0.0986843
-0.0866713
-0.0895283
-0.0842154
-0.0849023
-0.0859102
-0.0845593
-0.0883165
-0.0777738
-0.0753554
-0.0761598
-0.0841445
-0.0804301
-0.0958751
-0.0892735
-0.114216
-0.104122
-0.140181
-0.126214
-0.172868
-0.155872
-0.207221
-0.19035
-0.234096
-0.222247
-0.244783
-0.24186
-0.236208
-0.242868
-0.211637
-0.225539
-0.178446
-0.195605
-0.144577
-0.16116
-0.115641
-0.129272
-0.0936418
-0.103764
-0.0779839
-0.0850902
-0.0675996
-0.0721633
-0.0620523
-0.0642289
-0.0615136
-0.0610587
-0.066798
-0.0634769
-0.0771627
-0.0713099
-0.249245
-0.244616
-0.10037
-0.0844124
-0.0820137
-0.140844
-0.118793
-0.10592
-0.102279
-0.166397
-0.116246
-0.194485
-0.22264
-0.249687
-0.0685412
-0.109648
-0.272137
-0.268116
-0.0914374
-0.0753966
-0.0684197
-0.13077
-0.109411
-0.10829
-0.107707
-0.109191
-0.10105
-0.10501
-0.0903473
-0.0961924
-0.0764492
-0.0837133
-0.210884
-0.259035
-0.23546
-0.163851
-0.186999
-0.12577
-0.143425
-0.0990558
-0.11107
-0.081505
-0.0892066
-0.0713996
-0.0756265
-0.0670898
-0.0685867
-0.0675571
-0.0667599
-0.072359
-0.0694091
-0.0816938
-0.0764219
-0.0957403
-0.0881586
-0.112858
-0.104127
-0.128861
-0.121327
-0.138961
-0.134908
-0.14034
-0.140817
-0.133276
-0.137738
-0.120682
-0.127436
-0.106425
-0.113527
-0.0937459
-0.0997353
-0.0844585
-0.0886122
-0.0791617
-0.0812932
-0.0778545
-0.0779954
-0.0802652
-0.0785296
-0.0866989
-0.082989
-0.0973927
-0.0914788
-0.0711915
-0.0694479
-0.0776064
-0.0737961
-0.0891233
-0.082651
-0.10698
-0.0971637
-0.132193
-0.118634
-0.16392
-0.147425
-0.197215
-0.180877
-0.223069
-0.211715
-0.233012
-0.230403
-0.224292
-0.23093
-0.200319
-0.213836
-0.168216
-0.184796
-0.135487
-0.151518
-0.107391
-0.120653
-0.0857878
-0.0957679
-0.0701153
-0.0772747
-0.0593439
-0.0641533
-0.0529565
-0.0556086
-0.0510367
-0.0513959
-0.0538109
-0.0518534
-0.0621604
-0.0571341
-0.0741368
-0.0680002
-0.0973566
-0.0794388
-0.287676
-0.278975
-0.157166
-0.131527
-0.0690034
-0.186248
-0.12769
-0.104651
-0.0914981
-0.0986915
-0.216677
-0.117857
-0.246129
-0.103397
-0.271971
-0.291311
-0.301473
-0.293396
-0.145454
-0.113088
-0.109493
-0.116104
-0.115255
-0.113521
-0.115585
-0.105636
-0.110209
-0.0937
-0.100085
-0.0785882
-0.0864466
-0.245355
-0.279982
-0.265204
-0.197909
-0.222287
-0.152561
-0.174271
-0.116364
-0.132996
-0.0908357
-0.102279
-0.0741018
-0.0814829
-0.0642242
-0.0684026
-0.0596756
-0.0613471
-0.0594801
-0.0590681
-0.0631559
-0.0608341
-0.0707981
-0.0664497
-0.082586
-0.0761946
-0.0971833
-0.0897147
-0.110949
-0.104459
-0.11966
-0.116163
-0.120882
-0.121268
-0.114953
-0.118699
-0.10443
-0.110063
-0.0926216
-0.0984878
-0.0822628
-0.087131
-0.0748901
-0.0781453
-0.0710253
-0.0725028
-0.0706814
-0.0704162
-0.0738432
-0.0717806
-0.0806411
-0.0766956
-0.0855073
-0.0611888
-0.0612756
-0.0609549
-0.0639003
-0.062144
-0.0703044
-0.0665701
-0.0814459
-0.0752015
-0.0985458
-0.0891572
-0.122618
-0.109676
-0.152899
-0.137155
-0.184647
-0.16908
-0.209128
-0.19842
-0.218225
-0.215952
-0.209463
-0.215999
-0.186414
-0.199366
-0.155843
-0.171608
-0.124749
-0.139986
-0.0978899
-0.110606
-0.0769128
-0.0866561
-0.0613274
-0.0685019
-0.0502131
-0.0552461
-0.0430949
-0.0461563
-0.0400335
-0.0410345
-0.0410125
-0.0400286
-0.0467127
-0.0431363
-0.0566825
-0.051419
-0.0622367
-0.300683
-0.287635
-0.0705278
-0.175256
-0.145236
-0.113198
-0.107051
-0.207048
-0.139922
-0.238858
-0.127303
-0.2676
-0.107242
-0.290713
-0.304911
-0.308341
-0.0847778
-0.0532999
-0.299759
-0.287658
-0.0623556
-0.0541185
-0.161506
-0.121735
-0.118117
-0.124346
-0.12389
-0.120875
-0.123398
-0.111624
-0.116922
-0.0981024
-0.105303
-0.0817477
-0.0902077
-0.064098
-0.0728521
-0.262082
-0.271158
-0.270336
-0.227579
-0.247689
-0.181701
-0.204787
-0.138686
-0.158967
-0.105242
-0.120668
-0.0815692
-0.0922423
-0.0659181
-0.0728534
-0.056459
-0.0605009
-0.0518148
-0.0535934
-0.0510769
-0.0509913
-0.0537515
-0.0519933
-0.059846
-0.0563461
-0.0695364
-0.0642531
-0.0817845
-0.0754911
-0.0934885
-0.0879569
-0.100949
-0.0979477
-0.102062
-0.102346
-0.0971784
-0.10027
-0.0885233
-0.0931478
-0.0789135
-0.0836708
-0.0706411
-0.0745009
-0.0649943
-0.0674399
-0.0624267
-0.0633115
-0.0629841
-0.0623149
-0.0666915
-0.064435
-0.0737011
-0.0697536
-0.0846212
-0.0786674
-0.0996686
-0.0916067
-0.0534538
-0.0530729
-0.0562277
-0.054445
-0.0624661
-0.0588565
-0.0730495
-0.067136
-0.0891451
-0.0803193
-0.111736
-0.0995931
-0.140163
-0.125379
-0.169974
-0.155363
-0.192825
-0.182867
-0.200992
-0.199068
-0.192356
-0.198687
-0.170486
-0.182728
-0.141762
-0.156554
-0.112609
-0.126899
-0.0872806
-0.0993062
-0.0671837
-0.0765717
-0.0518664
-0.058976
-0.0405242
-0.0457288
-0.0327613
-0.0361933
-0.028654
-0.0302322
-0.028236
-0.0279853
-0.0316162
-0.0294229
-0.0384045
-0.0346435
-0.0492107
-0.0433163
-0.279669
-0.264102
-0.066236
-0.0457334
-0.19421
-0.159755
-0.0553808
-0.22759
-0.151554
-0.108977
-0.0914645
-0.100306
-0.25908
-0.135566
-0.285655
-0.113023
-0.304107
-0.0874386
-0.311815
-0.307331
-0.29118
-0.249388
-0.264074
-0.0642231
-0.0428792
-0.178226
-0.123137
-0.116628
-0.131792
-0.128212
-0.134144
-0.133898
-0.129639
-0.132742
-0.118928
-0.124998
-0.103681
-0.111852
-0.0856813
-0.0949603
-0.0665938
-0.0761743
-0.250583
-0.231539
-0.244898
-0.240181
-0.248984
-0.205911
-0.225178
-0.162505
-0.184294
-0.123323
-0.141853
-0.0930939
-0.10704
-0.0715857
-0.0813164
-0.0572102
-0.0636071
-0.0483222
-0.0521565
-0.0437057
-0.0455319
-0.0425428
-0.0427243
-0.0443495
-0.0430848
-0.0490599
-0.0463227
-0.0568391
-0.052569
-0.0669321
-0.0617164
-0.0767636
-0.0720978
-0.083115
-0.0805484
-0.0841504
-0.084336
-0.0802012
-0.0827104
-0.0731942
-0.0769304
-0.065518
-0.0692994
-0.0590865
-0.0620554
-0.0549721
-0.0566979
-0.0535623
-0.0539169
-0.0549155
-0.0538904
-0.0590579
-0.0566256
-0.0662394
-0.0621946
-0.0768808
-0.0709979
-0.0835975
-0.0451772
-0.0467545
-0.0457473
-0.0454642
-0.0449747
-0.0483235
-0.0465327
-0.0542781
-0.0508594
-0.0641591
-0.0586552
-0.0790525
-0.0708963
-0.0998939
-0.0886937
-0.126139
-0.112484
-0.153709
-0.140194
-0.174757
-0.165615
-0.181986
-0.180399
-0.173588
-0.179643
-0.153097
-0.164523
-0.126449
-0.140156
-0.0994338
-0.112684
-0.0758103
-0.0870592
-0.0567746
-0.0657154
-0.0419074
-0.0488627
-0.030504
-0.0357987
-0.0222404
-0.0259759
-0.0172023
-0.0193002
-0.0155109
-0.0159326
-0.0169892
-0.015882
-0.0212916
-0.0187481
-0.029317
-0.0249106
-0.029416
-0.0311488
-0.0223534
-0.0215784
-0.0392004
-0.0193487
-0.0208731
-0.0572085
-0.228374
-0.211518
-0.212554
-0.173744
-0.119274
-0.109993
-0.24594
-0.161658
-0.275545
-0.140512
-0.298065
-0.113149
-0.310396
-0.0861294
-0.310585
-0.0601683
-0.298372
-0.27509
-0.242263
-0.00263977
-0.202486
-0.0382938
-0.0481355
-0.0393787
-0.186402
-0.000708948
-0.0165443
-0.0344934
-0.194314
-0.134209
-0.127413
-0.143276
-0.139743
-0.145186
-0.1452
-0.139599
-0.143323
-0.127372
-0.134237
-0.110322
-0.119337
-0.0905075
-0.100683
-0.0698353
-0.0802099
-0.0499461
-0.0596226
-0.21128
-0.168943
-0.192801
-0.226888
-0.222769
-0.214458
-0.223955
-0.18115
-0.199399
-0.141923
-0.161582
-0.107119
-0.123552
-0.0803683
-0.092715
-0.0612039
-0.069903
-0.0482204
-0.0540243
-0.0400112
-0.0435847
-0.0355273
-0.0373485
-0.0340506
-0.034442
-0.0351237
-0.034281
-0.0386245
-0.0365574
-0.044698
-0.0413362
-0.0528422
-0.0486025
-0.0609877
-0.0570985
-0.0663631
-0.0641749
-0.067343
-0.0674361
-0.0642138
-0.0662146
-0.0586346
-0.0616026
-0.0526281
-0.055567
-0.0477901
-0.0499871
-0.0450074
-0.0461071
-0.0446015
-0.044497
-0.0466219
-0.0453047
-0.0510957
-0.0485396
-0.0582465
-0.054306
-0.0685394
-0.062938
-0.0824622
-0.075038
-0.0997771
-0.090754
-0.0369535
-0.037378
-0.0375146
-0.0369441
-0.0403483
-0.0386155
-0.0459228
-0.0427457
-0.0549884
-0.0499536
-0.0685333
-0.0611253
-0.0874306
-0.0772769
-0.11126
-0.0988523
-0.136381
-0.124056
-0.155543
-0.147239
-0.161888
-0.160597
-0.153805
-0.159547
-0.134811
-0.14536
-0.110363
-0.122922
-0.0856055
-0.0977582
-0.0637939
-0.0742133
-0.0459326
-0.0543674
-0.0316507
-0.0383811
-0.020345
-0.0256474
-0.0117599
-0.0157071
-0.00599596
-0.00850714
-0.00322358
-0.00422725
-0.00322654
-0.00291268
-0.00587308
-0.00415246
-0.0111374
-0.00833445
-0.0132152
-0.0126679
-0.00737027
-0.0122621
-0.00470234
-0.158663
-0.142074
-0.013442
0.000952526
-0.228735
-0.185821
-0.0407938
-0.260421
-0.168251
-0.109446
-0.0889814
-0.0979033
-0.286278
-0.141725
-0.30314
-0.111081
-0.308389
-0.0822403
-0.300972
-0.0543126
-0.28165
-0.0298907
-0.252682
-0.215668
-0.173809
-0.010487
-0.130357
-0.114171
0.00245706
-0.208367
-0.130386
-0.120375
-0.146398
-0.139087
-0.155827
-0.15208
-0.157208
-0.157583
-0.150427
-0.154819
-0.136568
-0.144292
-0.117653
-0.127595
-0.0959198
-0.10707
-0.0735865
-0.0847689
-0.052164
-0.0626568
-0.14999
-0.0976749
-0.12482
-0.188357
-0.171851
-0.200678
-0.197879
-0.186248
-0.196115
-0.155463
-0.172109
-0.12067
-0.137623
-0.0906404
-0.104846
-0.0674559
-0.0781687
-0.0506999
-0.0583341
-0.0391682
-0.0443495
-0.031707
-0.0349832
-0.0274387
-0.0292117
-0.0257479
-0.0262967
-0.0262174
-0.0257265
-0.0286852
-0.0271937
-0.0332662
-0.0307036
-0.0396719
-0.036306
-0.0463081
-0.0431126
-0.0508251
-0.0489665
-0.0517643
-0.0517733
-0.0493429
-0.050907
-0.0449793
-0.0472944
-0.0403873
-0.0426126
-0.0368995
-0.0384422
-0.0352463
-0.0358151
-0.0356852
-0.035196
-0.0382478
-0.0366979
-0.0429607
-0.0403245
-0.0500229
-0.0461732
-0.0598743
-0.0545486
-0.0728586
-0.0658929
-0.0806057
-0.0424079
-0.0299563
-0.0320436
-0.0308875
-0.0289694
-0.0292355
-0.0297258
-0.0291098
-0.0324517
-0.0308171
-0.0375687
-0.0346698
-0.0457419
-0.0412153
-0.0578476
-0.0512357
-0.0746828
-0.0656389
-0.0959517
-0.0848657
-0.118502
-0.10742
-0.135765
-0.128289
-0.141308
-0.140266
-0.133635
-0.139032
-0.116174
-0.125832
-0.0939481
-0.105349
-0.0714716
-0.0825124
-0.0515205
-0.0610826
-0.0349088
-0.0427971
-0.0213128
-0.0277645
-0.0102392
-0.0154772
-0.00150943
-0.00557391
0.004745
0.00194599
0.00833654
0.0068821
0.00943167
0.00917296
0.0081168
0.00910953
0.00527085
0.00673763
0.00438803
0.00432821
0.00756741
0.00515522
0.0114679
0.00972307
0.0133559
0.0127062
0.00340097
0.0135491
0.0137467
-0.0865748
-0.0704822
-0.241242
-0.194461
-0.119479
-0.10702
-0.269484
-0.170787
-0.29004
-0.139799
-0.300098
-0.106799
-0.298012
-0.0759819
-0.283763
-0.048191
-0.25882
-0.0253322
-0.225454
-0.00829191
-0.186652
-0.144855
-0.102374
-0.0607585
0.022412
0.00359977
-0.033304
0.0129616
0.021004
-0.0449327
-0.218908
-0.141995
-0.131261
-0.159131
-0.151423
-0.168933
-0.165099
-0.169762
-0.170522
-0.161704
-0.16681
-0.14611
-0.154743
-0.125229
-0.13617
-0.101627
-0.113637
-0.0775908
-0.089609
-0.054792
-0.0659835
-0.0346683
-0.0443172
-0.0812431
-0.0301579
-0.055311
-0.129591
-0.106596
-0.16283
-0.14874
-0.171199
-0.170386
-0.15633
-0.165863
-0.129058
-0.143389
-0.0997198
-0.114123
-0.0743781
-0.086366
-0.0547128
-0.0638224
-0.0403231
-0.0469074
-0.030243
-0.0347974
-0.0235631
-0.0265214
-0.0195717
-0.0212626
-0.0177542
-0.0184132
-0.0177415
-0.0175365
-0.0193483
-0.0183394
-0.0226512
-0.0207774
-0.0275271
-0.0249345
-0.0328164
-0.0302405
-0.0365737
-0.0350051
-0.0374779
-0.0374138
-0.0356577
-0.0368523
-0.0323116
-0.0340818
-0.0288951
-0.030528
-0.0265267
-0.0275271
-0.0258076
-0.0259379
-0.0269372
-0.0261354
-0.029926
-0.0281973
-0.0347879
-0.0321141
-0.0416871
-0.0379607
-0.050976
-0.0460018
-0.0630091
-0.0565918
-0.0778346
-0.0700875
-0.0942518
-0.0859444
-0.0236809
-0.0258354
-0.0247536
-0.0219149
-0.0226809
-0.0213298
-0.0214438
-0.0222065
-0.0215722
-0.0247568
-0.0232489
-0.0293637
-0.0267671
-0.0366029
-0.0326043
-0.0472317
-0.0414348
-0.0619605
-0.05405
-0.0806099
-0.0708767
-0.100543
-0.0907212
-0.115942
-0.109263
-0.120788
-0.119944
-0.113614
-0.118569
-0.0976855
-0.106469
-0.077613
-0.087893
-0.0573525
-0.0673109
-0.0392435
-0.0479499
-0.0239208
-0.0312362
-0.011093
-0.0172202
-0.00037073
-0.00547972
0.00834323
0.00424748
0.0148771
0.0119023
0.0190354
0.0172613
0.0209163
0.0202487
0.0206737
0.0210541
0.0193377
0.0200887
0.0193078
0.018998
0.021378
0.020139
0.0235607
0.0226437
0.023994
0.0240369
0.0233953
-0.0211778
-0.00645158
0.0116516
0.0192892
-0.248669
-0.198551
-0.272056
-0.169186
-0.0361513
-0.0270277
-0.102365
-0.0812058
-0.0884455
-0.286263
-0.134483
-0.289206
-0.0999543
-0.280324
-0.0686355
-0.260526
-0.0422022
-0.231755
-0.0217149
-0.19629
-0.00708653
-0.157384
0.00298857
-0.116872
-0.0760771
-0.0366693
0.0100053
0.000514679
0.0151845
0.0172249
-0.224694
-0.129536
-0.116194
-0.153653
-0.142235
-0.171918
-0.163841
-0.182025
-0.178173
-0.182279
-0.183429
-0.172914
-0.178752
-0.15554
-0.165104
-0.132684
-0.144624
-0.107212
-0.120109
-0.0815905
-0.0943735
-0.0575672
-0.0692773
-0.0463627
0.0271844
0.0351714
0.0472103
-0.016708
0.00611566
-0.064686
-0.0405824
-0.108079
-0.0876891
-0.135488
-0.124418
-0.140553
-0.140904
-0.12674
-0.135423
-0.103731
-0.115799
-0.0795665
-0.0914238
-0.0587306
-0.0685927
-0.0424139
-0.0500026
-0.0302752
-0.0358576
-0.021601
-0.025544
-0.015706
-0.0183392
-0.0120331
-0.0136169
-0.0101626
-0.010891
-0.00977751
-0.00979799
-0.0106842
-0.0100702
-0.0129174
-0.0116245
-0.0164683
-0.0145514
-0.0205589
-0.0185373
-0.023634
-0.0223258
-0.0244997
-0.0243759
-0.0231827
-0.0240689
-0.0206758
-0.0219979
-0.0182182
-0.019369
-0.016757
-0.0173185
-0.0167898
-0.016568
-0.0184663
-0.0174187
-0.0217736
-0.0199157
-0.0267041
-0.0240296
-0.0333799
-0.029806
-0.0420766
-0.0374508
-0.0531888
-0.0472721
-0.0665176
-0.0595457
-0.0737738
-0.0158168
-0.0176478
-0.0166772
-0.014411
-0.0149873
-0.0141167
-0.014117
-0.0150382
-0.0144144
-0.0173652
-0.0160051
-0.0214335
-0.019151
-0.0277299
-0.0242612
-0.0368927
-0.0319031
-0.0495377
-0.0427487
-0.0655858
-0.0571979
-0.0829156
-0.074345
-0.096517
-0.0905891
-0.100821
-0.100087
-0.0942391
-0.0987841
-0.0797728
-0.0877282
-0.061715
-0.0709475
-0.0435367
-0.0524753
-0.0271909
-0.0350713
-0.0131564
-0.0198897
-0.00116104
-0.00692478
0.00909933
0.0041797
0.0176494
0.013601
0.0242799
0.0212248
0.0287858
0.0268071
0.0312121
0.0302521
0.0317824
0.0317075
0.0314432
0.0316497
0.0319039
0.0316459
0.0332797
0.0325658
0.0338626
0.033787
0.032801
0.0336149
0.0299836
0.0315625
0.0260048
0.0281267
0.0146881
0.0207763
0.0235886
-0.250097
-0.197791
-0.0185217
-0.110175
-0.0954573
-0.267695
-0.163604
-0.275198
-0.126414
-0.271596
-0.091497
-0.257246
-0.0612722
-0.23362
-0.0371685
-0.202948
-0.0193822
-0.167505
-0.00690043
-0.129827
0.00176864
-0.0911981
0.00789833
-0.0528792
-0.0154345
0.0200908
0.0538615
0.0260603
0.0117477
0.0175215
0.0226845
-0.225021
-0.139198
-0.125
-0.164893
-0.152707
-0.184186
-0.17556
-0.194453
-0.190619
-0.194117
-0.195659
-0.183465
-0.190023
-0.164352
-0.174822
-0.139611
-0.152497
-0.112351
-0.126115
-0.08515
-0.0986548
-0.0599526
-0.0722457
-0.0376705
-0.0484338
-0.0192507
-0.0279667
0.0721456
0.0839629
0.0366724
0.0557414
-0.00450735
0.0167731
-0.0482428
-0.0265666
-0.0855801
-0.0683953
-0.107408
-0.098875
-0.110228
-0.11112
-0.0983908
-0.105675
-0.0798109
-0.0894929
-0.060651
-0.0700427
-0.0440278
-0.0519249
-0.0307818
-0.0369763
-0.0207193
-0.0253741
-0.0133662
-0.0167306
-0.00823435
-0.0105467
-0.00490359
-0.00636331
-0.0030401
-0.00380352
-0.00237894
-0.00257153
-0.00273171
-0.00243233
-0.00409244
-0.00327713
-0.0065175
-0.00518108
-0.00954544
-0.00802034
-0.0119967
-0.0109291
-0.0128096
-0.0126432
-0.0119075
-0.0125397
-0.0100844
-0.0110429
-0.00839563
-0.00916128
-0.00765204
-0.00786762
-0.00827113
-0.00777598
-0.0103624
-0.00913077
-0.0138895
-0.0119478
-0.0188192
-0.0161754
-0.0252297
-0.0218264
-0.0333391
-0.0290535
-0.0434226
-0.0381268
-0.0553371
-0.0491673
-0.0684596
-0.061777
-0.0810354
-0.0748697
-0.0100495
-0.0114069
-0.0108227
-0.00848976
-0.00920736
-0.00747427
-0.00787295
-0.00738014
-0.00730548
-0.00828617
-0.00769869
-0.0103575
-0.00915829
-0.0138792
-0.0119115
-0.0192527
-0.0162999
-0.0270014
-0.022789
-0.0376436
-0.0319329
-0.0511756
-0.0440921
-0.0659632
-0.0586167
-0.0778369
-0.0726191
-0.0817382
-0.0810378
-0.0758504
-0.0799454
-0.0627832
-0.0699653
-0.0465564
-0.0548399
-0.0302723
-0.0382806
-0.015564
-0.022671
-0.00277961
-0.00893864
0.0083424
0.00297128
0.018043
0.0133675
0.026293
0.0223639
0.0328581
0.0298065
0.0375278
0.0354392
0.0403192
0.0391525
0.041513
0.041086
0.0419332
0.0417593
0.0425232
0.0421992
0.0430328
0.0428417
0.0423971
0.0429259
0.040095
0.0414631
0.0363989
0.0383407
0.0317942
0.0341936
0.0290681
0.0138373
0.019001
-0.245208
-0.192283
-0.256652
-0.15449
-0.01987
-0.0118185
-0.0864889
-0.0671331
-0.0718751
-0.257965
-0.116458
-0.249055
-0.0825924
-0.230977
-0.054725
-0.205535
-0.0335238
-0.174755
-0.0182397
-0.140693
-0.00755766
-0.104833
6.96151e-06
-0.0683019
0.00509465
-0.0320124
0.00805377
0.00373199
0.0380985
0.0703308
0.00967002
0.0149066
0.116786
0.124795
-0.219753
-0.117438
-0.101802
-0.147894
-0.132897
-0.174954
-0.162083
-0.195144
-0.186138
-0.205534
-0.201733
-0.204612
-0.206536
-0.192743
-0.199977
-0.17202
-0.183326
-0.145562
-0.159303
-0.116682
-0.131234
-0.0881571
-0.102235
-0.0619777
-0.0746825
-0.0389665
-0.0500774
-0.0288459
0.0814521
0.0957315
0.0457839
0.0635491
0.00730832
0.0268382
-0.0314537
-0.0125253
-0.0625388
-0.0484778
-0.0795509
-0.0730379
-0.0813335
-0.0822099
-0.0721165
-0.0777303
-0.0579977
-0.0653393
-0.0434077
-0.0505823
-0.0305018
-0.0366719
-0.0199664
-0.0249257
-0.0117671
-0.015585
-0.00562667
-0.00845603
-0.00121884
-0.00322282
0.00176054
0.000434782
0.00356967
0.00279934
0.00442421
0.00410563
0.00449699
0.00455278
0.00382777
0.00426152
0.00233647
0.00318508
0.000241497
0.00132373
-0.00162857
-0.000790113
-0.00237051
-0.00217591
-0.00179624
-0.00222319
-0.000524248
-0.00119082
0.00055778
9.42365e-05
0.000748558
0.000797779
-0.000309707
0.000388295
-0.00269646
-0.00133661
-0.0063545
-0.00436951
-0.0112247
-0.00863702
-0.0173439
-0.0141192
-0.0248712
-0.0209176
-0.0339768
-0.0292238
-0.0445536
-0.0390995
-0.0560633
-0.0502495
-0.0617369
-0.00310162
-0.0043194
-0.00382665
-0.00179559
-0.0023827
-0.00110924
-0.00136549
-0.001151
-0.00103363
-0.00199651
-0.00146462
-0.00379336
-0.00276098
-0.00677732
-0.00511627
-0.0112711
-0.00880789
-0.017691
-0.0142073
-0.0264576
-0.021757
-0.0376158
-0.0317669
-0.049963
-0.0437976
-0.0601658
-0.0556308
-0.0637588
-0.0630368
-0.0586705
-0.0622666
-0.0469694
-0.0534191
-0.032383
-0.0398254
-0.0177703
-0.0249561
-0.00453635
-0.0109408
0.00706994
0.00146104
0.0173053
0.012343
0.0263699
0.0219832
0.0342034
0.0304558
0.0405654
0.037588
0.0452517
0.0431273
0.0482725
0.0469645
0.0499084
0.049237
0.0507382
0.0503904
0.0511707
0.0510112
0.0508837
0.0511436
0.0492223
0.0502536
0.0459942
0.0477723
0.041773
0.0440419
0.0367347
0.039383
0.0307442
0.0338663
0.0236063
0.0272675
0.0102981
0.0151674
0.0195035
-0.234382
-0.182428
-0.0047141
-0.0911262
-0.0759369
-0.240075
-0.142779
0.120071
0.129519
0.12754
-0.23635
-0.105607
-0.223828
-0.0741882
-0.203914
-0.0494494
-0.178354
-0.0312467
-0.148801
-0.0181421
-0.116626
-0.00886221
-0.0828444
-0.00260017
-0.0482386
0.00160234
-0.0133653
0.00382103
0.0210487
0.00504889
0.0539857
0.0840522
0.107369
0.12584
0.0195533
0.0052171
0.0102516
0.014872
-0.209331
-0.123405
-0.107195
-0.155074
-0.139436
-0.183269
-0.169866
-0.204137
-0.194865
-0.214592
-0.210837
-0.213117
-0.215395
-0.200168
-0.207998
-0.17805
-0.190076
-0.15014
-0.164601
-0.119939
-0.135128
-0.0903697
-0.104916
-0.0634341
-0.0764791
-0.0400157
-0.051274
-0.0203274
-0.029678
-0.00488344
-0.0121043
0.10455
0.110876
0.0848325
0.0967918
0.0525879
0.0688134
0.0185848
0.0358186
-0.0143657
0.0015217
-0.0395728
-0.0282742
-0.0530397
-0.0479008
-0.0548786
-0.0552645
-0.0486254
-0.0524943
-0.0386286
-0.0438664
-0.0279735
-0.0332559
-0.0182415
-0.0229339
-0.0100497
-0.0139362
-0.00349119
-0.00656789
0.00155761
-0.000786621
0.00529316
0.00357892
0.00792398
0.00673615
0.00964323
0.00888815
0.010622
0.0102163
0.0110107
0.0108838
0.0108722
0.0110108
0.0101323
0.0105826
0.00884214
0.00953443
0.00751959
0.00813427
0.00688885
0.00708328
0.00720593
0.00694234
0.00803749
0.00760346
0.00864725
0.00841674
0.00842447
0.00866946
0.00705449
0.00789391
0.00447778
0.00591627
0.00076732
0.00275993
-0.00399421
-0.00148325
-0.00980356
-0.00676232
-0.0167572
-0.0131275
-0.0249563
-0.0206969
-0.0343173
-0.0295067
-0.0443607
-0.0393041
-0.0539802
-0.0493127
-0.0616045
-0.0580591
0.00210121
0.00149793
0.00165872
0.00322627
0.00270886
0.00421507
0.00377667
0.00467472
0.00451746
0.00455567
0.00469047
0.0038031
0.00426643
0.0022876
0.00315309
-0.000181286
0.00118869
-0.00385563
-0.00184636
-0.00905596
-0.00623964
-0.0161092
-0.0123315
-0.0250813
-0.0203735
-0.035127
-0.0300848
-0.043699
-0.0398369
-0.047012
-0.0462471
-0.0428086
-0.0458599
-0.0324791
-0.0382142
-0.0193763
-0.0260733
-0.00620661
-0.0126845
0.00574241
-4.50039e-05
0.0162746
0.0111755
0.0256418
0.0210888
0.0340245
0.0299561
0.0413561
0.0378362
0.0474112
0.0445611
0.0520048
0.0498994
0.0551387
0.0537503
0.0570201
0.0562203
0.0579585
0.0575955
0.0580354
0.0581207
0.0568648
0.0576391
0.0544055
0.0558254
0.0507751
0.0527383
0.0462702
0.0486231
0.0410127
0.0437459
0.034858
0.038104
0.0276789
0.0314195
0.0237707
0.00488109
0.00981551
-0.218723
-0.169207
0.131846
-0.219709
-0.129706
-0.00504092
0.00146825
-0.0643405
-0.0482549
-0.0506739
-0.212529
-0.0949581
-0.19819
-0.0669521
-0.178084
-0.045696
-0.15359
-0.0301818
-0.125821
-0.018927
-0.0956257
-0.0112021
-0.0636821
-0.00600992
-0.0305257
-0.00275457
0.00308732
-0.00106952
0.0361329
-0.000535831
0.0675411
-0.000610164
0.095752
0.117888
0.132902
-0.00106673
0.00432228
-0.194801
-0.0946319
-0.0790846
-0.127817
-0.111284
-0.160361
-0.144276
-0.189303
-0.175558
-0.210584
-0.201156
-0.221021
-0.217334
-0.219058
-0.221638
-0.205235
-0.21354
-0.182032
-0.194611
-0.153035
-0.168033
-0.121906
-0.137531
-0.0916299
-0.106503
-0.0641901
-0.0774645
-0.0405357
-0.0518593
-0.0207126
-0.03016
-0.0122947
0.121684
0.138334
0.107174
0.11429
0.0866582
0.0981065
0.0587851
0.0729127
0.0298729
0.0443996
0.00275074
0.0157486
-0.0177209
-0.00856039
-0.0290364
-0.0245903
-0.0316893
-0.0313289
-0.0282779
-0.0305566
-0.0217839
-0.0252601
-0.0143785
-0.0181007
-0.00728371
-0.0107432
-0.00107275
-0.0040477
0.00406967
0.00163665
0.00815338
0.00624119
0.0112761
0.00982889
0.0135702
0.0125196
0.0151744
0.0144514
0.0162207
0.0157602
0.0168341
0.0165753
0.0170881
0.017007
0.0169309
0.0170678
0.0163158
0.016673
0.015506
0.0159021
0.0150273
0.0151943
0.015163
0.015023
0.0156474
0.0153968
0.0158938
0.0158405
0.0153715
0.0157554
0.0137971
0.0147259
0.0111214
0.0125956
0.00742684
0.00939608
0.0028158
0.00523271
-0.00267118
0.00018423
-0.00907457
-0.00575207
-0.0164471
-0.0126367
-0.0247021
-0.0204778
-0.0334227
-0.0290452
-0.0417227
-0.0377045
-0.0452257
0.00798944
0.00730396
0.00752495
0.0089075
0.00844631
0.00959322
0.00929263
0.00988552
0.00979388
0.00973818
0.00986943
0.00910063
0.00948747
0.00786349
0.00856693
0.00587698
0.0069765
0.00294999
0.00454714
-0.00115495
0.00106355
-0.00667904
-0.00372483
-0.0136866
-0.0100084
-0.0216058
-0.0176128
-0.028581
-0.0253943
-0.0315642
-0.0307802
-0.0282686
-0.0307508
-0.0193508
-0.0243619
-0.00764107
-0.0136565
0.00428041
-0.00159338
0.0151404
0.00987751
0.0247302
0.020085
0.0332832
0.0291217
0.0409759
0.0372362
0.047759
0.0444936
0.0534406
0.050753
0.0578573
0.055816
0.0609791
0.0595809
0.0628881
0.0620821
0.063664
0.0634196
0.0632492
0.0636169
0.061488
0.062543
0.0584946
0.060135
0.0545491
0.0566259
0.0499015
0.0523085
0.0445795
0.0473322
0.0384743
0.0416485
0.0314278