/*--------------------------------*- C++ -*----------------------------------*\
  =========                 |
  \\      /  F ield         | OpenFOAM: The Open Source CFD Toolbox
   \\    /   O peration     | Website:  https://openfoam.org
    \\  /    A nd           | Version:  10
     \\/     M anipulation  |
\*---------------------------------------------------------------------------*/
FoamFile
{
    format      ascii;
    class       volVectorField;
    location    "28";
    object      U;
}
// * * * * * * * * * * * * * * * * * * * * * * * * * * * * * * * * * * * * * //

dimensions      [0 1 -1 0 0 0 0];

internalField   nonuniform List<vector> 
25879
(
(1.08465 0.0182318 8.76209e-21)
(1.08118 0.0189135 -1.31285e-20)
(1.08139 0.015286 2.44696e-20)
(1.0847 0.0148345 -2.41401e-20)
(0.70609 0.164894 3.658e-22)
(0.736813 0.254554 -2.91187e-21)
(1.29964 0.145938 0)
(1.2823 0.1469 -2.12267e-21)
(1.26268 0.138808 0)
(1.26946 0.128724 0)
(1.38017 0.191694 -2.16277e-21)
(1.34578 0.173842 4.75473e-21)
(1.4216 0.208638 -5.51945e-20)
(0.236946 -0.209146 5.14126e-20)
(0.391956 -0.144638 -7.54824e-20)
(0.984383 0.469377 -2.40579e-20)
(1.03545 0.596918 -3.45655e-20)
(1.35075 -0.707651 7.32091e-20)
(1.49703 -0.623322 -8.41483e-20)
(0.47447 -0.180669 6.39489e-20)
(0.467087 -0.342649 2.81172e-19)
(0.367596 0.665323 -1.47108e-19)
(0.628015 0.592761 1.16385e-19)
(1.03615 0.0447306 3.67884e-21)
(1.04152 0.0493055 4.68985e-21)
(1.03575 0.0480846 3.4887e-22)
(1.02936 0.0410987 -4.92565e-23)
(1.03304 0.0383776 -4.73079e-21)
(1.02939 0.0380105 -6.63658e-21)
(1.03849 0.0425502 -2.67073e-21)
(1.04424 0.0474074 3.09041e-20)
(-0.115547 -0.168658 6.93301e-20)
(-0.109713 -0.134441 -2.99461e-20)
(-0.146777 -0.251036 4.40446e-20)
(0.860304 -0.429735 -8.84839e-21)
(1.07117 -0.245132 -2.73245e-21)
(1.03541 -0.235879 2.55968e-21)
(1.22646 -0.272035 1.55393e-22)
(1.20925 -0.282452 1.53797e-21)
(1.52418 0.280408 -4.92193e-20)
(1.47756 0.258498 -6.01351e-21)
(1.42053 0.270176 -6.84615e-21)
(1.01451 -0.266066 -1.38513e-20)
(1.00284 -0.244835 0)
(0.99838 -0.225859 -1.46479e-21)
(1.48358 -0.200362 0)
(1.50263 -0.178869 6.11545e-20)
(0.182486 -0.0377383 7.5638e-20)
(0.495751 0.00225988 3.44971e-21)
(0.658548 0.0597496 0)
(1.24031 -0.443148 -2.65134e-21)
(1.23779 -0.388233 -2.74757e-21)
(0.766517 0.25424 -1.13734e-19)
(1.00604 0.414611 0)
(0.617845 0.0079953 -1.54326e-22)
(0.607125 0.0066045 0)
(0.645042 0.00833959 3.28518e-22)
(0.836125 0.190463 -9.43415e-20)
(0.837253 0.164401 9.05527e-20)
(0.881874 0.149947 -1.75887e-19)
(0.884821 0.188522 1.6573e-19)
(0.882951 0.300557 7.15511e-22)
(0.898893 0.239722 -3.76383e-21)
(0.776462 -0.0120799 -1.13495e-23)
(0.838598 -0.0145776 2.11105e-21)
(0.79588 -0.0121224 -1.49677e-21)
(-0.130638 -0.0627631 2.94855e-21)
(-0.0927816 -0.0719789 0)
(-0.0997275 -0.104824 0)
(-0.0344279 -0.45293 1.39721e-19)
(-0.143454 -0.360295 -3.69957e-19)
(1.00635 0.0296895 1.23801e-20)
(1.0102 0.0415659 0)
(1.01339 0.0454218 -6.87009e-21)
(1.0651 -0.109564 5.01161e-20)
(1.01921 -0.123734 0)
(1.00434 -0.0843201 1.90016e-20)
(1.07439 0.0132674 0)
(1.07296 0.00809079 1.41224e-20)
(1.07664 0.009863 1.54173e-20)
(0.988212 -0.261511 0)
(0.999562 -0.291727 3.49806e-20)
(0.329229 0.172659 6.31871e-20)
(0.501504 0.132324 3.34755e-19)
(0.417436 0.29976 0)
(0.9987 -0.0140013 1.83927e-20)
(1.00026 -0.018682 -1.72371e-20)
(1.00493 -0.021621 0)
(1.11858 0.053191 4.10563e-21)
(1.11201 0.0476108 -1.16406e-22)
(-0.0509349 -0.0899487 -8.43159e-20)
(0.0728396 -0.065386 8.038e-20)
(-0.0866108 -0.13002 2.58391e-20)
(1.04066 0.0422074 1.23488e-20)
(1.03621 0.0380743 -3.71038e-22)
(0.668694 0.00776493 1.09719e-20)
(0.671576 0.0400673 -4.83173e-21)
(0.696537 0.133027 2.18734e-21)
(0.920579 -0.318065 -2.63577e-20)
(0.918274 -0.34136 -9.27713e-22)
(0.818576 -0.369215 1.84787e-21)
(0.812978 -0.413532 7.35874e-21)
(1.11727 0.0601397 4.30206e-21)
(1.12135 0.0625202 -3.59123e-23)
(1.1255 0.0579881 -2.30955e-22)
(1.07239 -0.0791938 9.33535e-21)
(1.05459 -0.0640316 -2.78021e-21)
(1.24011 -0.507073 1.62066e-20)
(1.15137 -0.693984 8.28184e-21)
(1.02818 -0.212495 -1.40364e-21)
(1.01243 -0.192535 1.361e-21)
(1.24934 -0.0656214 -2.60406e-22)
(1.2357 -0.0679168 0)
(1.13261 0.0469137 2.45815e-21)
(1.13527 0.051537 -3.16097e-21)
(1.05135 0.154513 -2.68016e-21)
(1.0614 0.165726 2.82464e-21)
(1.36613 0.164997 7.8748e-21)
(1.22156 0.264305 6.40573e-21)
(1.19774 0.236116 -1.2415e-20)
(1.19193 0.211611 3.58943e-20)
(1.53921 -0.104752 -7.81475e-21)
(1.53886 -0.0808236 0)
(1.40811 0.330491 -2.15879e-20)
(1.404 0.313963 4.24099e-20)
(0.208728 -0.065945 -3.84841e-20)
(0.451888 -0.0501159 0)
(-0.0837733 -0.268617 -2.3747e-20)
(0.0715726 -0.190705 0)
(0.0652874 -0.292569 0)
(-0.129426 -0.412062 -1.41316e-19)
(-0.143469 -0.348105 2.70588e-19)
(0.910855 -0.0941899 0)
(0.925697 -0.108452 9.43527e-20)
(0.939951 -0.0877797 2.97645e-20)
(0.929545 -0.077379 -2.45957e-20)
(1.07949 0.0131656 -3.46662e-20)
(1.07737 0.0161397 2.18446e-20)
(1.28827 0.132742 -2.31468e-21)
(0.638715 -0.0109305 -1.89731e-22)
(1.03557 -0.556307 -2.37036e-20)
(1.03235 -0.556826 0)
(1.03172 -0.565114 -3.07325e-21)
(1.03363 -0.570019 0)
(1.03078 -0.581039 0)
(1.02726 -0.587429 1.01977e-20)
(1.02256 -0.590907 9.87481e-22)
(1.01625 -0.587788 -2.47199e-20)
(1.0085 -0.575896 1.2738e-20)
(0.99944 -0.552484 -1.54331e-20)
(0.989511 -0.514798 -1.39188e-21)
(0.979679 -0.461899 1.68408e-20)
(0.970058 -0.392723 0)
(0.96224 -0.30955 -2.05635e-20)
(0.955838 -0.214062 2.033e-20)
(0.952375 -0.111383 0)
(0.950415 -0.00460906 2.13284e-20)
(0.951173 0.101009 -2.15702e-20)
(0.95318 0.202347 2.01936e-20)
(0.956726 0.295258 -3.9732e-20)
(0.960391 0.377458 3.68501e-20)
(0.964996 0.445546 -3.444e-20)
(0.969861 0.497914 1.63029e-20)
(0.975619 0.5336 0)
(0.98177 0.554 0)
(0.988401 0.5619 1.11275e-20)
(0.995052 0.561555 -9.32911e-22)
(1.00146 0.557414 -1.01839e-20)
(1.00729 0.553398 -8.73827e-21)
(1.01232 0.552076 8.83143e-21)
(1.0166 0.554388 -8.04448e-21)
(1.02012 0.560151 8.37634e-21)
(1.0231 0.568549 -4.90119e-22)
(1.02527 0.57896 0)
(1.02643 0.591052 0)
(1.02635 0.603964 -1.98817e-21)
(1.0265 0.616674 -1.34818e-20)
(1.02013 0.587629 0)
(1.01657 0.598846 3.57142e-21)
(1.03764 0.604468 -2.07771e-21)
(1.02857 -0.556384 2.702e-21)
(1.03053 -0.549228 -1.24631e-21)
(1.03216 -0.549616 0)
(1.04089 0.618052 0)
(1.03039 0.578336 0)
(1.03422 0.590945 4.11241e-21)
(1.0206 0.558008 7.86278e-21)
(1.02585 0.567269 4.80647e-22)
(1.0082 0.547321 -3.64609e-22)
(1.01476 0.551083 -1.59155e-20)
(0.992057 0.549869 0)
(1.00063 0.547117 8.43347e-21)
(0.97232 0.554543 -2.25375e-20)
(0.982423 0.553639 1.04096e-20)
(0.951888 0.530984 1.42867e-20)
(0.961843 0.548609 1.13791e-20)
(0.934072 0.450632 1.70886e-20)
(0.942298 0.49908 -1.3812e-20)
(0.920989 0.307844 0)
(0.926643 0.386506 -1.65208e-20)
(0.913465 0.11948 0)
(0.916217 0.217981 0)
(0.913531 -0.0877712 2.05768e-20)
(0.911871 0.0165157 0)
(0.925121 -0.283738 1.89635e-20)
(0.917652 -0.188923 -1.98919e-20)
(0.946249 -0.438409 -1.65443e-20)
(0.934531 -0.367515 -1.83318e-20)
(0.97148 -0.535018 -1.39985e-20)
(0.958634 -0.494009 1.59926e-20)
(0.99465 -0.577341 -1.17815e-20)
(0.98363 -0.561992 1.35266e-20)
(1.01214 -0.582922 -1.0082e-20)
(1.00429 -0.58358 1.12447e-20)
(1.02323 -0.571315 0)
(1.01885 -0.578633 9.91442e-21)
(1.02596 -0.563939 -2.74403e-22)
(1.04263 -0.579699 0)
(1.03974 -0.558184 1.32135e-20)
(1.04072 -0.568545 0)
(1.04092 -0.594633 1.04711e-20)
(1.04228 -0.588964 -1.07221e-20)
(1.03411 -0.58628 4.18857e-22)
(1.038 -0.594695 7.51209e-25)
(1.02222 -0.533224 3.25021e-20)
(1.02903 -0.567156 -1.50486e-20)
(1.00862 -0.417526 0)
(1.01607 -0.484316 -1.64655e-20)
(0.997749 -0.241271 0)
(1.00346 -0.336716 0)
(0.992921 -0.0302246 2.24075e-20)
(0.995498 -0.138846 0)
(0.994565 0.179921 2.1254e-20)
(0.994224 0.0758989 -2.17229e-20)
(0.998104 0.360076 1.87633e-20)
(0.997312 0.274397 -2.06033e-20)
(1.00152 0.488138 0)
(1.00076 0.430887 -1.81878e-20)
(1.00544 0.552804 -1.27402e-20)
(1.00407 0.527618 0)
(1.01066 0.565598 3.45087e-22)
(1.00844 0.563507 1.27186e-20)
(1.01627 0.557487 9.31478e-21)
(1.01389 0.561837 -9.00463e-21)
(1.02045 0.555662 -1.63833e-20)
(1.01885 0.55477 7.87948e-21)
(1.02213 0.567369 2.40703e-22)
(1.02177 0.55999 7.77586e-21)
(1.02186 0.576753 0)
(1.03364 -0.548324 -2.6247e-21)
(1.03095 -0.543585 2.89381e-24)
(1.03169 -0.543895 -6.08037e-22)
(1.04417 0.631175 5.26743e-21)
(1.03003 0.629021 -8.34044e-21)
(1.06149 0.630173 -4.29135e-21)
(1.04578 0.642143 0)
(1.0659 0.642554 6.20395e-21)
(1.01015 0.608965 -2.89098e-22)
(1.01546 0.582354 3.8235e-21)
(1.00906 0.592108 -1.12742e-20)
(1.04556 -0.553006 6.72376e-21)
(1.03657 -0.547146 7.21242e-21)
(1.03999 -0.542462 -2.36188e-21)
(1.03174 -0.538426 -4.7207e-21)
(1.03065 -0.54149 1.84219e-21)
(1.04985 0.601277 -4.51651e-21)
(1.05593 0.615933 2.36144e-21)
(1.03708 0.573926 -4.99749e-22)
(1.04354 0.587023 2.36335e-21)
(1.02236 0.552689 0)
(1.02996 0.562418 0)
(1.00544 0.540313 2.13753e-21)
(1.01428 0.545136 -7.71408e-24)
(0.984416 0.54056 -2.40251e-21)
(0.995584 0.538901 -2.05231e-21)
(0.958739 0.545224 0)
(0.972064 0.54383 2.30698e-21)
(0.931563 0.525388 0)
(0.945096 0.540653 0)
(0.907321 0.450883 0)
(0.918868 0.496206 0)
(0.889616 0.313654 4.33712e-21)
(0.897555 0.389584 -4.16454e-21)
(0.880293 0.129992 4.78306e-21)
(0.883898 0.226017 -4.59271e-21)
(0.881004 -0.0731462 4.92594e-21)
(0.879222 0.0290434 -4.72993e-21)
(0.894174 -0.265611 0)
(0.88609 -0.172703 0)
(0.918191 -0.419324 0)
(0.905169 -0.348845 0)
(0.947549 -0.518323 3.68569e-21)
(0.932756 -0.476068 -3.53925e-21)
(0.975719 -0.565115 0)
(0.962298 -0.547585 0)
(0.998657 -0.575427 1.27973e-21)
(0.988129 -0.573774 0)
(1.01505 -0.567023 0)
(1.00785 -0.572792 0)
(1.02543 -0.553042 -2.4208e-21)
(1.02061 -0.560068 2.39533e-21)
(1.03278 -0.542187 0)
(1.02959 -0.546783 1.20258e-21)
(1.05372 -0.576769 2.19513e-21)
(1.04989 -0.56512 -2.29538e-21)
(1.05919 -0.595641 -5.28189e-21)
(1.05714 -0.587483 5.30185e-21)
(1.05986 -0.594774 -4.29857e-22)
(1.06022 -0.598994 -1.83645e-25)
(1.05595 -0.550046 7.94877e-21)
(1.05852 -0.579367 -7.56595e-21)
(1.04908 -0.440912 9.50334e-21)
(1.05271 -0.504147 -9.04546e-21)
(1.04249 -0.266246 1.08535e-20)
(1.04559 -0.360663 -1.03303e-20)
(1.03848 -0.051342 1.15741e-20)
(1.0402 -0.161407 -1.1016e-20)
(1.03689 0.165348 1.14421e-20)
(1.03739 0.0590335 -1.08904e-20)
(1.03718 0.350975 1.04962e-20)
(1.03734 0.263615 -9.99015e-21)
(1.03537 0.483783 9.03068e-21)
(1.03681 0.424938 -8.5954e-21)
(1.03212 0.553075 7.42928e-21)
(1.03399 0.526287 -7.07132e-21)
(1.02968 0.568789 2.38002e-21)
(1.03092 0.565957 -3.73052e-22)
(1.02841 0.560562 2.59517e-21)
(1.02913 0.565488 -2.90989e-21)
(1.02665 0.556209 -1.27397e-22)
(1.02784 0.556754 -1.92048e-21)
(1.02269 0.564938 -2.40646e-22)
(1.02509 0.559003 0)
(1.01976 0.572951 0)
(1.01374 0.624151 2.9549e-21)
(1.03331 -0.532769 1.15807e-21)
(1.02555 0.637442 -2.87185e-21)
(1.03551 -0.539365 -1.23646e-21)
(1.03473 -0.538328 9.76669e-22)
(1.03944 -0.536245 -1.42741e-22)
(1.04351 0.647418 0)
(1.06837 0.65051 1.82041e-22)
(1.00006 0.600289 -2.10557e-21)
(0.987671 0.605329 -2.42747e-21)
(0.999291 0.615112 1.02482e-20)
(1.02916 -0.539515 -2.30984e-22)
(1.03199 -0.540581 -1.54024e-22)
(1.02598 -0.531966 1.16698e-21)
(1.02703 -0.536548 1.1336e-22)
(1.07932 0.625003 6.95196e-22)
(1.09335 0.648179 -3.43148e-21)
(1.08687 0.638655 1.51319e-21)
(1.06191 0.593799 1.36555e-22)
(1.07077 0.609509 0)
(1.04376 0.565614 5.14113e-22)
(1.05291 0.578995 -2.62784e-22)
(1.02417 0.543833 0)
(1.03412 0.553842 0)
(1.00273 0.530144 0)
(1.01378 0.535774 0)
(0.977258 0.527959 0)
(0.990641 0.527578 0)
(0.94671 0.53091 0)
(0.962493 0.530142 0)
(0.914331 0.511882 0)
(0.930392 0.526425 0)
(0.885274 0.44069 0)
(0.899056 0.484118 0)
(0.863903 0.308236 0)
(0.873377 0.381709 0)
(0.853166 0.129503 0)
(0.857066 0.223092 0)
(0.854795 -0.0682555 0)
(0.852334 0.0311103 0)
(0.869881 -0.255224 0)
(0.860689 -0.164966 0)
(0.896516 -0.405091 0)
(0.882077 -0.336186 0)
(0.929087 -0.503235 0)
(0.912568 -0.460976 0)
(0.961038 -0.55184 0)
(0.945594 -0.533078 0)
(0.988107 -0.56516 -1.25546e-21)
(0.975355 -0.561791 0)
(1.00863 -0.559375 0)
(0.999081 -0.563706 6.03133e-22)
(1.0234 -0.547576 0)
(1.01653 -0.553571 1.69881e-23)
(1.02958 -0.542196 2.83755e-22)
(1.05187 -0.546869 -2.25601e-21)
(1.03597 -0.525758 5.32992e-22)
(1.0441 -0.535848 -1.62622e-21)
(1.0656 -0.571452 3.70659e-22)
(1.05898 -0.559054 -2.92223e-22)
(1.07693 -0.592581 0)
(1.07166 -0.583176 -6.27407e-25)
(1.08433 -0.594301 0)
(1.08123 -0.597262 1.86727e-25)
(1.08715 -0.55255 0)
(1.08628 -0.580572 0)
(1.08639 -0.445586 0)
(1.08709 -0.508084 0)
(1.08423 -0.271891 0)
(1.08538 -0.366201 0)
(1.08183 -0.0566151 0)
(1.0831 -0.167251 0)
(1.07863 0.161104 0)
(1.08037 0.0543503 0)
(1.07444 0.347523 0)
(1.07682 0.259809 0)
(1.06747 0.480961 0)
(1.07146 0.421847 0)
(1.05808 0.551467 0)
(1.06303 0.524119 0)
(1.04897 0.568454 0)
(1.05348 0.565204 0)
(1.04132 0.560351 0)
(1.04513 0.56555 0)
(1.03369 0.554529 1.29472e-22)
(1.03774 0.556066 0)
(1.02414 0.560879 -9.01556e-22)
(1.02928 0.556241 0)
(1.0113 0.575479 -2.24155e-22)
(1.01842 0.567515 8.71531e-22)
(0.991158 0.590024 5.73876e-21)
(1.00261 0.583485 2.14722e-22)
(1.06772 0.650879 1.00772e-21)
(1.09723 0.651095 3.22482e-21)
(1.02566 -0.525277 0)
(1.00605 0.629026 -1.94863e-21)
(1.0373 -0.538784 5.88569e-22)
(1.04354 -0.53615 -1.18111e-21)
(1.01959 0.640048 0)
(1.0382 0.644439 -4.06757e-21)
(0.977001 0.593034 -4.03495e-21)
(0.972099 0.60573 -2.47529e-21)
(1.03915 -0.516336 1.44624e-21)
(1.06314 0.640138 0)
(1.09687 0.64356 -5.79452e-22)
(1.02657 -0.517351 4.00069e-21)
(1.028 -0.507688 -4.04097e-21)
(0.959026 0.591018 4.44097e-21)
(0.988072 0.61861 0)
(1.02673 -0.537437 3.02658e-22)
(1.03178 -0.539337 7.51017e-22)
(1.01931 -0.527781 0)
(1.02243 -0.533591 -3.65182e-23)
(1.0161 -0.510651 0)
(1.01701 -0.519827 0)
(1.11798 0.641635 0)
(1.13064 0.64248 3.19662e-21)
(1.12631 0.646635 -1.98563e-21)
(1.09693 0.61584 2.06938e-21)
(1.1077 0.630637 -2.95214e-21)
(1.07387 0.583309 -6.99627e-22)
(1.08558 0.599443 5.58764e-22)
(1.05011 0.554466 0)
(1.06202 0.568079 0)
(1.02581 0.532211 0)
(1.03804 0.54249 0)
(1.0002 0.517238 0)
(1.0133 0.523669 0)
(0.97076 0.512558 0)
(0.98614 0.513511 0)
(0.935967 0.513392 0)
(0.953934 0.513465 0)
(0.899195 0.4945 0)
(0.917425 0.508622 0)
(0.866525 0.425926 0)
(0.881972 0.467732 0)
(0.842773 0.298291 0)
(0.853277 0.369078 0)
(0.831108 0.126015 0)
(0.835265 0.216205 0)
(0.833305 -0.0642996 0)
(0.830385 0.0312784 0)
(0.850024 -0.244137 0)
(0.839935 -0.157313 0)
(0.878773 -0.389038 0)
(0.863218 -0.322233 0)
(0.913906 -0.485664 0)
(0.896026 -0.443711 0)
(0.948909 -0.53576 0)
(0.931836 -0.515936 0)
(0.979295 -0.551952 0)
(0.964845 -0.54709 0)
(1.0036 -0.549334 0)
(0.992182 -0.552155 0)
(1.02241 -0.540061 0)
(1.01355 -0.544944 -1.66891e-23)
(1.03754 -0.532496 -5.74019e-22)
(1.0304 -0.53569 -2.55879e-22)
(1.05024 -0.531534 2.29285e-21)
(1.04409 -0.531129 0)
(1.0591 -0.53829 5.34307e-22)
(1.04931 -0.526921 -4.94103e-22)
(1.07789 -0.563646 0)
(1.0687 -0.550714 -5.24008e-22)
(1.09494 -0.586435 0)
(1.08672 -0.576108 0)
(1.10882 -0.590653 0)
(1.10238 -0.592286 0)
(1.11813 -0.551484 0)
(1.1141 -0.578226 0)
(1.12277 -0.446075 0)
(1.12098 -0.507943 0)
(1.12414 -0.272666 0)
(1.12379 -0.366875 0)
(1.12306 -0.0578225 0)
(1.12397 -0.168093 0)
(1.11861 0.158983 0)
(1.12133 0.0526885 0)
(1.11032 0.34385 0)
(1.11497 0.257022 0)
(1.098 0.475461 0)
(1.10467 0.4172 0)
(1.08274 0.545404 0)
(1.0906 0.518128 0)
(1.06752 0.563174 0)
(1.075 0.559467 0)
(1.05395 0.555774 0)
(1.0606 0.560759 0)
(1.04083 0.549537 0)
(1.04753 0.551475 0)
(1.02607 0.554328 0)
(1.03379 0.550618 0)
(1.00805 0.566228 -8.0327e-22)
(1.01766 0.559819 0)
(0.98403 0.577179 -4.04833e-22)
(0.99689 0.572325 9.82413e-22)
(0.949192 0.575276 0)
(0.968579 0.578262 -1.88735e-21)
(1.09286 0.621462 -7.63461e-21)
(1.13219 0.624676 6.4973e-21)
(0.936468 0.580341 -6.82643e-21)
(0.925018 0.563513 -7.78289e-21)
(0.995997 0.629082 -8.24989e-22)
(0.953483 0.598552 2.46271e-21)
(1.01585 -0.49994 -3.78809e-21)
(1.00979 0.633979 0)
(1.05647 -0.533229 6.21279e-22)
(1.05758 -0.524754 -1.11322e-21)
(1.0656 -0.526809 5.63702e-22)
(1.02946 0.62984 3.88913e-21)
(1.05415 0.613841 -4.87531e-21)
(0.910876 0.559263 6.11794e-23)
(1.08417 0.580922 4.56504e-21)
(1.1269 0.589226 6.12295e-22)
(0.897093 0.539909 6.54389e-21)
(0.973595 0.615021 7.46048e-22)
(1.03872 -0.539793 -1.23587e-21)
(1.04737 -0.537641 1.16279e-21)
(1.0232 -0.537235 -2.9962e-22)
(1.03056 -0.539722 0)
(1.01155 -0.52568 -1.11631e-21)
(1.01685 -0.532532 0)
(1.0044 -0.506561 -5.44308e-22)
(1.00737 -0.516914 1.67503e-21)
(1.16335 0.636615 -3.16821e-21)
(1.16843 0.590836 5.47716e-21)
(1.16967 0.621978 1.04328e-21)
(1.14158 0.630799 0)
(1.15418 0.63798 2.29732e-21)
(1.11393 0.602692 0)
(1.12786 0.618245 0)
(1.08489 0.569781 0)
(1.09941 0.586013 0)
(1.05624 0.541027 0)
(1.0705 0.554642 0)
(1.02788 0.518628 0)
(1.04206 0.529045 0)
(0.998714 0.502587 0)
(1.01353 0.509727 0)
(0.966044 0.495401 0)
(0.983022 0.497742 0)
(0.927806 0.493979 0)
(0.947559 0.494954 0)
(0.887176 0.475661 0)
(0.907349 0.489052 0)
(0.851138 0.410785 0)
(0.868131 0.450415 0)
(0.825385 0.288853 0)
(0.836697 0.356589 0)
(0.813131 0.12355 0)
(0.817426 0.210128 0)
(0.816079 -0.0591539 0)
(0.812652 0.0325785 0)
(0.834092 -0.231765 0)
(0.823288 -0.148404 0)
(0.864524 -0.371602 0)
(0.848081 -0.306944 0)
(0.901686 -0.46655 0)
(0.882721 -0.424986 0)
(0.939152 -0.517966 0)
(0.920761 -0.497175 0)
(0.972424 -0.53703 0)
(0.956482 -0.530658 0)
(0.999985 -0.537512 0)
(0.986913 -0.538821 0)
(1.02232 -0.530755 -3.76359e-24)
(1.0117 -0.534451 3.76747e-24)
(1.04091 -0.524944 -1.83844e-23)
(1.03211 -0.527265 1.62034e-23)
(1.04945 -0.524066 -2.58177e-22)
(1.04282 -0.505001 -9.24326e-22)
(1.01668 -0.48795 4.58153e-21)
(1.02992 -0.496064 -1.71194e-21)
(1.06665 -0.527071 -1.16941e-22)
(1.05475 -0.515731 -1.18587e-22)
(1.0901 -0.553097 0)
(1.07839 -0.539876 0)
(1.11259 -0.576863 0)
(1.10151 -0.565974 0)
(1.13274 -0.582909 0)
(1.12309 -0.583511 0)
(1.14844 -0.546277 0)
(1.14127 -0.571696 0)
(1.15836 -0.44333 0)
(1.15415 -0.504035 0)
(1.16287 -0.271761 0)
(1.16125 -0.365113 0)
(1.16256 -0.0588216 0)
(1.16337 -0.168059 0)
(1.15663 0.15546 0)
(1.16039 0.0504641 0)
(1.14454 0.337749 0)
(1.15134 0.252209 0)
(1.12708 0.466923 0)
(1.13641 0.409817 0)
(1.10614 0.535673 0)
(1.11685 0.508752 0)
(1.08508 0.553967 0)
(1.09543 0.549842 0)
(1.06592 0.547481 0)
(1.07527 0.552068 0)
(1.04769 0.541275 0)
(1.05685 0.543356 0)
(1.0281 0.544953 0)
(1.03822 0.541947 0)
(1.00495 0.55441 0)
(1.01715 0.549454 0)
(0.975782 0.561108 0)
(0.991244 0.558695 0)
(0.938049 0.555863 7.99088e-22)
(0.958251 0.560511 0)
(0.886028 0.519315 0)
(0.914282 0.543555 3.5429e-21)
(1.11837 0.53221 -2.46155e-21)
(1.16544 0.539176 3.09198e-21)
(0.866338 0.502916 0)
(0.855273 0.48271 0)
(1.00244 -0.494572 0)
(0.981991 0.619718 -7.7422e-22)
(0.931235 0.581171 0)
(1.06203 -0.535359 2.99368e-22)
(1.0738 -0.528727 1.14589e-21)
(0.996124 0.615664 9.47675e-22)
(0.882799 0.525163 1.47625e-21)
(1.01538 0.599355 1.1183e-21)
(1.04094 0.568817 -2.13203e-21)
(1.07016 0.520081 0)
(1.01815 -0.474278 -8.07617e-22)
(0.833697 0.453157 -5.36448e-21)
(1.10151 0.453696 -8.98461e-21)
(1.15265 0.465579 -7.67489e-21)
(0.822057 0.433031 -1.04479e-21)
(1.00185 -0.481633 0)
(1.00239 -0.46769 2.46833e-21)
(0.955117 0.601511 -1.13142e-21)
(1.03932 -0.541471 0)
(1.05048 -0.539656 7.78355e-23)
(1.0191 -0.537769 1.53003e-22)
(1.02886 -0.540884 -1.63104e-22)
(1.00274 -0.524469 7.15469e-23)
(1.01026 -0.532239 0)
(0.991946 -0.503283 0)
(0.996653 -0.514763 -7.28071e-23)
(0.986243 -0.475765 3.60392e-21)
(0.988232 -0.490011 -1.8895e-21)
(1.21041 0.589471 -2.47344e-21)
(1.20261 0.475236 -3.06592e-21)
(1.2106 0.543193 2.95183e-22)
(1.19451 0.625757 -8.60349e-23)
(1.20517 0.61527 0)
(1.1639 0.615542 0)
(1.18018 0.624671 -1.3338e-21)
(1.12944 0.586196 6.0815e-22)
(1.14685 0.601904 -7.61466e-22)
(1.09492 0.553773 0)
(1.11196 0.569713 0)
(1.06209 0.525536 0)
(1.07831 0.538923 0)
(1.03023 0.503217 0)
(1.0461 0.513666 0)
(0.997996 0.486305 0)
(1.01429 0.494058 0)
(0.962664 0.47668 0)
(0.980939 0.48041 0)
(0.921728 0.472776 0)
(0.942875 0.474794 0)
(0.878021 0.454874 0)
(0.899762 0.467567 0)
(0.839169 0.394093 0)
(0.857469 0.431274 0)
(0.811738 0.278692 0)
(0.82372 0.342947 0)
(0.799179 0.121142 0)
(0.803454 0.20375 0)
(0.802774 -0.0534678 0)
(0.798934 0.0341956 0)
(0.82195 -0.218715 0)
(0.810533 -0.138839 0)
(0.853687 -0.353479 0)
(0.836568 -0.290974 0)
(0.892358 -0.446628 0)
(0.872585 -0.405532 0)
(0.93172 -0.499141 0)
(0.912311 -0.477511 0)
(0.967363 -0.520849 0)
(0.950186 -0.513071 0)
(0.997679 -0.524175 0)
(0.983221 -0.524075 0)
(1.02316 -0.519707 4.4789e-22)
(1.01101 -0.522255 -4.41745e-22)
(1.045 -0.515529 -2.11118e-22)
(1.03443 -0.517087 2.63647e-22)
(1.06523 -0.51612 0)
(1.05527 -0.515119 -1.16529e-22)
(1.08531 -0.52008 -2.45084e-21)
(1.07518 -0.518204 -4.83344e-22)
(1.04681 -0.491938 -4.21274e-22)
(1.03266 -0.482755 8.55482e-22)
(1.07427 -0.514068 1.17271e-22)
(1.06048 -0.502389 5.24259e-22)
(1.10202 -0.540147 0)
(1.08814 -0.526801 0)
(1.12972 -0.564484 0)
(1.11593 -0.553194 0)
(1.15589 -0.57221 0)
(1.14315 -0.571802 0)
(1.17775 -0.538468 0)
(1.16756 -0.56232 0)
(1.19267 -0.438818 0)
(1.18619 -0.497889 0)
(1.19996 -0.270186 0)
(1.19727 -0.362111 0)
(1.2 -0.0603114 0)
(1.20092 -0.167935 0)
(1.19231 0.150334 0)
(1.19722 0.0471684 0)
(1.17646 0.329157 0)
(1.18535 0.24527 0)
(1.15409 0.455708 0)
(1.16596 0.399782 0)
(1.12785 0.523262 0)
(1.14124 0.496709 0)
(1.1014 0.542055 0)
(1.11443 0.537517 0)
(1.07709 0.536531 0)
(1.08895 0.540683 0)
(1.05414 0.530425 0)
(1.06559 0.532611 0)
(1.03009 0.533019 0)
(1.04242 0.5307 0)
(1.00247 0.540228 0)
(1.01689 0.536568 0)
(0.96907 0.5433 0)
(0.986639 0.542865 0)
(0.927216 0.532884 0)
(0.94942 0.540447 0)
(0.875212 0.495153 1.53819e-21)
(0.902509 0.518672 -7.30469e-22)
(0.812311 0.412587 -7.20609e-21)
(0.845266 0.459929 1.88727e-21)
(0.785408 0.368462 0)
(0.77915 0.353852 4.01683e-21)
(1.13297 0.369572 3.35662e-21)
(1.18671 0.385122 1.38729e-22)
(0.963679 0.597378 8.95107e-22)
(0.905793 0.550563 -1.41191e-21)
(0.98562 -0.460955 1.42555e-21)
(0.977624 0.58118 -1.0624e-21)
(0.850521 0.47507 7.67191e-22)
(1.09604 -0.520458 1.2176e-21)
(1.09695 -0.509299 2.61933e-22)
(1.10936 -0.509506 -4.92051e-22)
(0.997815 0.550651 1.202e-21)
(0.797158 0.384215 5.37477e-21)
(1.02141 0.502225 2.83341e-21)
(0.74471 0.277977 0)
(1.04962 0.436339 3.338e-21)
(1.0788 0.352252 0)
(1.10896 0.255108 7.65511e-21)
(1.16398 0.274773 -7.33277e-21)
(0.933327 0.57519 3.93307e-22)
(1.06824 -0.53597 3.23028e-22)
(1.08232 -0.529327 0)
(1.04012 -0.541717 -6.76242e-22)
(1.05402 -0.540184 0)
(1.01415 -0.537094 0)
(1.02654 -0.540791 8.28083e-22)
(0.99318 -0.522464 0)
(1.003 -0.530944 0)
(0.978457 -0.499774 4.38815e-24)
(0.985003 -0.511984 0)
(0.969532 -0.470317 0)
(0.973127 -0.485624 0)
(1.25172 0.482695 3.09882e-21)
(1.21802 0.295367 0)
(1.2395 0.400138 2.06072e-22)
(1.25002 0.582479 0)
(1.25427 0.54321 1.28553e-21)
(1.22262 0.610615 0)
(1.23826 0.603946 0)
(1.18388 0.596649 -6.32991e-22)
(1.20393 0.606966 0)
(1.14291 0.566957 0)
(1.1632 0.582592 7.73979e-22)
(1.10395 0.535595 0)
(1.12308 0.550979 0)
(1.06762 0.508283 0)
(1.08551 0.52127 0)
(1.03282 0.486286 0)
(1.05011 0.496661 0)
(0.998037 0.468724 0)
(1.01554 0.476973 0)
(0.960657 0.456828 0)
(0.979899 0.46189 0)
(0.917798 0.450332 0)
(0.93994 0.453478 0)
(0.871737 0.432768 0)
(0.894711 0.444762 0)
(0.830556 0.37643 0)
(0.84995 0.410936 0)
(0.801744 0.268144 0)
(0.814261 0.328618 0)
(0.788977 0.118854 0)
(0.793222 0.197255 0)
(0.793202 -0.0473502 0)
(0.788972 0.0361737 0)
(0.813329 -0.205195 0)
(0.801423 -0.128809 0)
(0.846016 -0.334871 0)
(0.828418 -0.274534 0)
(0.885725 -0.426083 0)
(0.865397 -0.385547 0)
(0.926467 -0.479442 0)
(0.906308 -0.457112 0)
(0.963983 -0.503513 0)
(0.945812 -0.494459 0)
(0.99663 -0.509403 0)
(0.980962 -0.50805 0)
(1.02475 -0.506995 0)
(1.01126 -0.50864 0)
(1.04967 -0.504262 -5.54136e-23)
(1.0376 -0.50515 0)
(1.07313 -0.505548 -4.59902e-22)
(1.06146 -0.504311 5.66043e-22)
(1.08479 -0.507574 -2.60471e-22)
(1.02026 -0.459322 0)
(0.986338 -0.44538 -3.68742e-21)
(1.00362 -0.452179 1.38322e-21)
(1.05111 -0.477054 0)
(1.03574 -0.467781 0)
(1.08185 -0.499122 0)
(1.06645 -0.487512 0)
(1.11342 -0.524858 0)
(1.09751 -0.511678 0)
(1.14588 -0.54925 0)
(1.12959 -0.53784 0)
(1.17768 -0.558279 0)
(1.16203 -0.55701 0)
(1.20538 -0.527628 0)
(1.19231 -0.549715 0)
(1.22502 -0.432257 0)
(1.21641 -0.489118 0)
(1.23469 -0.267904 0)
(1.23113 -0.35773 0)
(1.23471 -0.0622493 0)
(1.23591 -0.167721 0)
(1.22497 0.143748 0)
(1.23112 0.0429427 0)
(1.20551 0.318285 0)
(1.21641 0.236415 0)
(1.17846 0.441906 0)
(1.19274 0.38724 0)
(1.14737 0.508348 0)
(1.16318 0.482098 0)
(1.11616 0.52781 0)
(1.13156 0.522769 0)
(1.08731 0.523421 0)
(1.10141 0.527056 0)
(1.06016 0.517483 0)
(1.07367 0.519757 0)
(1.0321 0.518919 0)
(1.04642 0.517334 0)
(1.00057 0.523838 0)
(1.01692 0.521468 0)
(0.963381 0.523474 0)
(0.982835 0.524903 0)
(0.917842 0.508082 0)
(0.941852 0.518381 0)
(0.862837 0.465192 0)
(0.891413 0.490921 0)
(0.800728 0.38454 7.47806e-22)
(0.832663 0.430178 0)
(0.768982 0.326704 3.12548e-21)
(1.13495 0.150195 3.68766e-21)
(1.19215 0.176364 3.64598e-21)
(0.96755 -0.454243 -1.66696e-21)
(0.941898 0.559115 8.4234e-23)
(0.878256 0.50634 0)
(1.10686 -0.517421 1.02123e-21)
(1.1225 -0.506261 -1.52427e-22)
(0.955948 0.528226 -9.63923e-23)
(0.819101 0.411651 -7.70958e-22)
(0.974898 0.480069 0)
(0.763821 0.305317 0)
(0.999197 0.414608 0)
(0.724696 0.19285 0)
(1.02587 0.331302 -7.13552e-21)
(1.05333 0.233563 0)
(1.07894 0.125338 -1.13925e-20)
(0.679078 0.0698026 2.27567e-21)
(0.98735 -0.42841 1.38321e-21)
(1.10346 0.0168973 -7.48493e-21)
(1.15892 0.0468559 0)
(0.967678 -0.438005 -2.10326e-21)
(0.968373 -0.420629 6.30188e-22)
(0.908678 0.53392 0)
(1.07332 -0.533315 0)
(1.09034 -0.52654 -1.73204e-21)
(1.03988 -0.53848 0)
(1.05651 -0.537213 0)
(1.00884 -0.53287 0)
(1.02383 -0.537049 0)
(0.98301 -0.517287 0)
(0.995182 -0.526265 0)
(0.964203 -0.493477 -4.32111e-24)
(0.972761 -0.50633 0)
(0.952398 -0.462838 1.15339e-21)
(0.957366 -0.478814 -1.14768e-22)
(0.94809 -0.428788 1.60339e-21)
(0.949087 -0.445756 -2.54826e-21)
(1.27309 0.315962 -7.63845e-22)
(1.21571 0.0790474 3.30844e-21)
(1.24757 0.202825 -3.30427e-21)
(1.29738 0.485328 -1.41079e-21)
(1.29056 0.41049 2.15212e-21)
(1.28438 0.570805 9.82051e-22)
(1.29492 0.538129 -1.23533e-21)
(1.24706 0.59053 0)
(1.26749 0.587151 -9.71474e-22)
(1.20082 0.574216 0)
(1.22436 0.585103 0)
(1.15468 0.545267 0)
(1.17742 0.560327 0)
(1.11197 0.515575 0)
(1.13284 0.530118 0)
(1.07273 0.489558 0)
(1.09198 0.501988 0)
(1.03553 0.468089 0)
(1.05397 0.478298 0)
(0.998728 0.450112 0)
(1.01719 0.458726 0)
(0.959884 0.436186 0)
(0.979782 0.44248 0)
(0.915877 0.427005 0)
(0.938605 0.431378 0)
(0.868229 0.409538 0)
(0.892077 0.420927 0)
(0.825173 0.357841 0)
(0.845481 0.389502 0)
(0.795162 0.257239 0)
(0.808147 0.313633 0)
(0.782229 0.116725 0)
(0.786439 0.190692 0)
(0.786982 -0.0408412 0)
(0.78243 0.0384481 0)
(0.807838 -0.19126 0)
(0.795566 -0.118356 0)
(0.841156 -0.315868 0)
(0.823251 -0.2577 0)
(0.881505 -0.40504 0)
(0.860834 -0.365138 0)
(0.923189 -0.459014 0)
(0.902504 -0.43611 0)
(0.962138 -0.485179 0)
(0.943185 -0.474979 0)
(0.996704 -0.493417 0)
(0.980013 -0.490923 0)
(1.02715 -0.492916 0)
(1.01241 -0.493724 0)
(1.05476 -0.491259 0)
(1.04118 -0.491865 0)
(1.08111 -0.493096 -4.6208e-22)
(1.06781 -0.49178 4.07061e-22)
(1.10821 -0.496616 -1.68996e-22)
(1.09446 -0.495007 5.39506e-23)
(1.13725 -0.493055 -1.7375e-23)
(1.12244 -0.496484 -1.11572e-21)
(1.02239 -0.443003 0)
(1.00547 -0.435154 -8.0709e-22)
(1.05567 -0.460794 0)
(1.03924 -0.45131 0)
(1.08914 -0.482498 0)
(1.07231 -0.471145 0)
(1.12407 -0.507535 0)
(1.10638 -0.494722 0)
(1.16076 -0.531524 0)
(1.14223 -0.520217 0)
(1.19768 -0.541544 0)
(1.17938 -0.539529 0)
(1.23079 -0.514179 0)
(1.21505 -0.534318 0)
(1.25478 -0.423992 0)
(1.24423 -0.478108 0)
(1.26644 -0.265189 0)
(1.26222 -0.352276 0)
(1.266 -0.0647979 0)
(1.26768 -0.167643 0)
(1.25418 0.135723 0)
(1.26154 0.0377061 0)
(1.23129 0.305305 0)
(1.24405 0.22575 0)
(1.19994 0.425715 0)
(1.21642 0.372394 0)
(1.16447 0.491088 0)
(1.18244 0.465097 0)
(1.12915 0.511367 0)
(1.14657 0.505739 0)
(1.09645 0.508308 0)
(1.11244 0.511327 0)
(1.06568 0.502677 0)
(1.08098 0.504983 0)
(1.03415 0.502968 0)
(1.05019 0.502125 0)
(0.999174 0.505548 0)
(1.01723 0.504487 0)
(0.958612 0.50177 0)
(0.979736 0.505043 0)
(0.910244 0.48202 0)
(0.935533 0.494576 0)
(0.853588 0.435446 0)
(0.882849 0.462761 0)
(0.790851 0.35275 0)
(0.822989 0.399485 0)
(0.725717 0.219667 0)
(0.758143 0.29336 -3.71867e-22)
(1.12188 -0.086561 0)
(1.17673 -0.0508012 -3.14444e-21)
(0.64802 -0.0551698 -7.21361e-21)
(0.644777 -0.0865301 -4.49499e-21)
(0.91685 0.502698 -1.14108e-21)
(0.847841 0.444952 0)
(0.948419 -0.411193 1.28911e-21)
(0.930673 0.454599 1.24292e-21)
(0.787391 0.333934 0)
(1.15249 -0.484656 8.3537e-23)
(1.15114 -0.477912 1.40613e-22)
(1.16809 -0.469441 -1.41023e-22)
(0.95028 0.388996 0)
(0.734998 0.21289 7.96024e-22)
(0.973601 0.306158 4.19661e-21)
(0.690139 0.0890789 -5.28039e-21)
(0.999122 0.20878 3.54078e-21)
(0.65431 -0.033955 2.76364e-21)
(1.02457 0.100931 3.73805e-21)
(1.04787 -0.0116647 7.4473e-21)
(1.06773 -0.1192 1.4191e-22)
(1.13414 -0.178338 7.55459e-21)
(1.08177 -0.216384 -1.67121e-21)
(0.644739 -0.147135 0)
(0.649987 -0.157437 -1.69721e-22)
(0.880723 0.474803 0)
(1.11733 -0.509219 -2.10133e-22)
(1.13556 -0.497916 1.78613e-22)
(1.07914 -0.524583 -7.52398e-22)
(1.09847 -0.518291 1.48354e-21)
(1.03951 -0.529209 0)
(1.05908 -0.528215 0)
(1.00318 -0.522767 0)
(1.02077 -0.527309 0)
(0.97264 -0.506538 0)
(0.987053 -0.515835 0)
(0.949763 -0.482106 0)
(0.960153 -0.495089 0)
(0.934938 -0.451264 0)
(0.941298 -0.46731 -1.33368e-22)
(0.928263 -0.416583 0)
(0.930527 -0.434026 0)
(1.27269 0.112699 0)
(1.18814 -0.136707 -1.47718e-21)
(1.2321 -0.0120795 -2.86436e-21)
(1.3266 0.333388 6.78694e-22)
(1.3026 0.229285 2.84743e-21)
(1.339 0.483705 0)
(1.33805 0.419277 -5.89155e-23)
(1.31349 0.554333 0)
(1.33016 0.528092 0)
(1.2669 0.566463 0)