/*--------------------------------*- C++ -*----------------------------------*\
  =========                 |
  \\      /  F ield         | OpenFOAM: The Open Source CFD Toolbox
   \\    /   O peration     | Website:  https://openfoam.org
    \\  /    A nd           | Version:  10
     \\/     M anipulation  |
\*---------------------------------------------------------------------------*/
FoamFile
{
    format      ascii;
    class       surfaceScalarField;
    location    "36";
    object      phi;
}
// * * * * * * * * * * * * * * * * * * * * * * * * * * * * * * * * * * * * * //

dimensions      [0 3 -1 0 0 0 0];

internalField   nonuniform List<scalar> 
12623
(
0.0958156
0.0215467
-0.0346095
-0.0827529
0.0746262
-0.0363776
0.0575671
0.0890575
0.00902763
-0.0827366
-0.0153485
0.00909406
0.0867814
-0.00681792
-0.0867474
-0.00905917
0.0135048
0.0823019
-0.0877265
0.0100731
0.000268907
0.0423847
-0.0485346
0.00588103
-0.0475895
0.0478584
-0.0262241
-0.00591074
0.0321349
-0.0158638
-0.00844221
-0.00191811
0.0976888
-0.0418146
-0.0558742
-0.0633044
0.0536922
0.107301
-0.0276433
-0.0181106
0.0204169
0.025337
0.00323423
0.00523888
-0.0361164
-0.0238622
0.0089858
0.00623249
-0.00540636
-0.00634055
0.00551442
-0.00480141
-0.00366481
0.0146987
-0.00849127
-0.00171651
-0.00277814
-0.0139372
0.00376419
0.0129511
-0.0257069
0.00394641
0.0189823
-0.0208282
-0.0188158
0.00454563
0.0117509
-0.0150279
-0.00126867
-0.00210888
0.00212284
0.00453168
-0.0220611
0.0317031
-0.0429855
0.00481197
0.0434124
0.00680809
-0.0485841
-0.00120943
-0.0550543
0.00485489
0.0550114
-0.0845998
-0.0275402
0.0259976
0.0861423
-0.0823992
0.0256154
-0.0278159
-0.0928534
0.0916173
0.0279256
-0.0266894
-0.0886744
-0.0317193
-0.0859878
-0.0013192
0.00679177
0.0805153
0.00589703
-0.0853634
-0.00652145
0.0836193
-0.0842044
0.00109554
0.00204242
0.0810665
0.00110263
-0.0839922
-0.00131486
-0.0877109
0.00577589
0.0830377
-0.0850244
-0.00400568
0.0820671
-0.00616847
-0.087604
0.0117053
-0.00268955
0.013009
0.0717477
-0.0837604
-0.00239549
0.0799874
-0.0843165
0.00165168
-0.0270272
0.0273338
0.0913107
-0.0920875
-0.0118808
0.0149243
0.0890441
0.0134122
-0.0919138
-0.013586
0.0102767
-0.0889756
-0.0882285
0.0147662
0.0835355
-0.0898326
-0.00739131
-0.0667307
0.00377277
0.0703493
0.0531202
0.00960946
-0.0701209
-0.0544233
0.0161234
0.09142
-0.02282
0.0858815
-0.070251
0.00718959
-0.0676339
0.0741429
0.016729
-0.015156
-0.0757159
0.0193554
0.0724011
-0.0176136
-0.0107477
0.0072402
0.0807756
-0.0772681
-0.0830428
0.0827556
-0.0104605
0.0807424
-0.00780641
0.00881926
-0.0817553
0.0683082
-0.0687284
-0.0303878
0.030808
-0.0186117
0.070178
0.0167419
-0.0690057
-0.0385385
0.0388157
-0.0711185
-0.0414224
0.0435351
-0.0722442
-0.0421472
0.043273
-0.0745443
-0.0411586
0.0434586
-0.0746927
-0.0408969
0.0410454
-0.0755116
-0.0414359
0.0422547
-0.0744724
-0.0429841
0.0419449
-0.0440192
-0.0732978
0.0428446
0.0664555
-0.0660561
-0.0190111
-0.00405889
0.0723731
0.00186381
0.0691802
-0.00678359
-0.0667735
-0.0296704
-0.0691688
-0.0361431
-0.0704161
-0.0401751
-0.0731679
-0.0393955
-0.0745912
-0.0397352
-0.0764698
-0.0390184
-0.0765521
-0.0413535
-0.077204
-0.0423321
-0.0766281
-0.0445951
-0.00831001
0.0718361
0.00565412
0.0756571
-0.011594
-0.0436052
-0.0724242
0.0427317
-0.0775551
-0.0426782
-0.0180997
0.0747956
0.0151403
0.0799237
-0.0223664
-0.0400485
-0.0710246
0.0386488
-0.0759082
-0.0416954
-0.0238774
0.0777443
0.0209287
-0.0263529
-0.0334795
-0.0684803
0.0309352
-0.0743717
-0.035016
0.0802105
0.0231492
0.0246873
0.0815208
-0.0235095
0.0197245
-0.0646954
-0.0252438
-0.0726374
0.071945
-0.0712032
0.0201869
-0.0692845
0.0720843
0.0218876
0.0258096
0.0692866
-0.0668081
0.00317554
0.0132237
0.0654201
-0.0653897
-0.0190416
-0.00817152
0.0669119
-0.0685337
-0.0345213
-0.0281482
0.0720076
-0.0740158
-0.0373873
-0.0367012
0.0771478
-0.0782159
-0.0379502
-0.0366032
0.0806598
-0.0812094
-0.0417825
-0.0389097
0.0829185
-0.0828419
-0.0427548
-0.042886
0.0832256
-0.080972
-0.0372696
-0.0413117
-0.0786503
-0.0275655
-0.0669972
0.0703226
0.0353234
0.0641795
0.0164244
-0.0608794
0.0281175
-0.0719472
0.0741179
0.0406739
0.041107
-0.074773
0.0758294
0.0411982
0.0412899
-0.0748151
0.0747473
0.0435264
0.0420597
-0.0725609
0.0725859
0.0435101
0.0454594
-0.0720782
0.0729946
0.0298916
0.0393235
-0.0751302
0.0758299
0.0011641
0.0146062
-0.0795
0.0815994
-0.0244658
-0.0152641
-0.0866971
-0.0297932
-0.0314505
-0.0269484
0.0253893
0.0830799
0.0871196
0.0280706
0.069403
0.0104442
-0.0753542
-0.0137403
0.0063996
-0.0685928
-0.0585982
0.0622107
0.0128119
0.00205001
-0.00417579
-0.0587536
-0.0567446
0.000196445
0.00329113
-0.00733131
-0.071314
-0.0822337
0.0852645
-0.0167711
-0.000345663
-0.078597
0.0950583
-0.0920409
-0.0297069
0.0689856
-0.0715477
0.0244497
0.0707131
0.0263431
0.0932462
-0.0252151
-0.0624716
0.0687898
-0.0674014
0.0187986
0.0230517
0.0660304
-0.0645918
0.00173695
0.0118527
0.0647531
-0.0648707
-0.018924
-0.00801025
0.0667148
-0.0694941
-0.031742
-0.026304
0.0724909
-0.075652
-0.0342262
-0.0337044
0.0780354
-0.0804375
-0.035548
-0.0342198
0.0822278
-0.0845546
-0.0394557
-0.0371194
0.0863423
-0.0875243
-0.0415728
-0.0410984
0.0879974
-0.0876525
-0.0376145
-0.0408386
-0.0299535
-0.0665866
0.0699735
0.0319365
0.0237417
-0.0738257
0.0757218
0.0387778
0.0372549
-0.0774638
0.0778377
0.0408243
0.0395478
-0.079485
0.0779081
0.0451033
0.0404124
-0.0792831
0.0771788
0.0456144
0.0440844
-0.078561
0.0786658
0.0297869
0.0379413
-0.0788398
0.0809592
-0.000955328
0.0144322
-0.0811967
0.082814
-0.0260831
-0.0155016
-0.0843583
0.0913842
-0.0368191
-0.0329948
-0.032376
-0.0275964
0.0353965
0.0752797
0.086857
-0.0317477
0.0712914
0.0311694
0.0730518
0.0134374
-0.0140695
-0.0561125
0.0124162
-0.0577324
-0.0106815
-0.0652426
-0.0898477
0.0919589
-0.0188823
-0.0850918
-0.0051016
-0.0214895
0.0178536
-0.074961
-0.0240512
-0.0687523
-0.0552485
0.055309
-0.0141301
-0.0251293
0.0263279
-0.0573111
-0.05785
-0.0225278
-0.0227712
0.0293176
0.0847643
0.0907022
-0.0202272
0.0277422
-0.0299413
0.0734905
0.0712561
-0.0692051
0.0291185
0.0740565
0.0249418
-0.0949754
-0.0239644
0.0937248
-0.0901783
-0.034504
-0.0607368
0.068252
-0.0677245
0.0239221
0.02539
0.0670849
-0.0660708
0.0177844
0.0224122
0.0645148
-0.0637345
0.000956702
0.0102967
0.063193
-0.0641101
-0.0180069
-0.00855175
0.066262
-0.0686463
-0.0293578
-0.0241521
0.0723933
-0.0750452
-0.0315743
-0.0299574
0.078257
-0.0802338
-0.0335712
-0.031008
0.0832431
-0.0855693
-0.0371296
-0.0341101
0.0893498
-0.0908903
-0.0400323
-0.0373179
0.0928844
-0.0925095
-0.0379893
-0.0388445
-0.0305041
-0.0579511
0.0610653
0.00969767
-0.00244563
-0.0648757
0.068888
0.0279242
0.0199312
-0.0733316
0.075041
0.0370684
0.0328112
-0.0783724
0.0796102
0.0395865
0.0362165
-0.0806828
0.0814147
0.0443714
0.0393398
-0.0818934
0.082216
0.0452918
0.0436057
-0.082541
0.0830704
0.0292575
0.0376162
-0.083791
0.0846949
-0.00185919
0.0137116
-0.0849575
0.086708
-0.0278337
-0.0157642
-0.0865116
0.0861752
-0.0364827
-0.0327984
-0.0363791
-0.0320934
0.0318119
0.0755612
0.0840812
0.0749224
-0.0807205
0.0134823
0.0270653
-0.0584698
-0.0259393
-0.0633545
0.0310331
-0.027508
-0.0613752
0.0342871
-0.0605651
-0.035766
0.0327707
-0.0719657
-0.0371232
-0.0673952
0.0296297
-0.0312661
0.0751269
0.0264455
0.0772406
-0.0243939
0.0316753
0.0774829
-0.0200687
0.086377
0.0857875
-0.0879902
-0.0323012
-0.0281072
0.0899302
0.0730487
-0.0697991
0.0258689
0.0753092
0.0226812
-0.0777039
0.0297542
-0.0437489
0.0400516
-0.0740067
-0.0449889
-0.0707256
0.0921806
-0.0186831
-0.0596108
0.0687493
-0.069248
0.0244208
0.0243402
0.067707
-0.0659484
0.0160258
0.0208712
0.0638774
-0.0628718
-4.88601e-05
0.00822564
0.0628591
-0.0640287
-0.0168373
-0.00856447
0.0662619
-0.0693998
-0.0262199
-0.021919
0.0727031
-0.0758878
-0.0283897
-0.026654
0.0785935
-0.0812512
-0.0309135
-0.0283023
0.0840147
-0.0871417
-0.0340026
-0.0313465
0.0902951
-0.0934991
-0.0368282
-0.0341645
0.0962412
-0.0980655
-0.0361651
-0.0361024
0.0978793
-0.0951346
-0.021627
-0.0306902
0.0911231
-0.0866035
0.00896276
-0.00911316
0.0805717
-0.0761917
0.0356717
0.0237223
-0.0560806
0.0552915
-0.0133409
0.0584116
-0.062811
-0.0231086
-0.0201968
-0.0569108
0.0601261
0.00648229
-0.00406487
-0.0639674
0.0671282
0.0247634
0.01609
-0.0714008
0.0750391
0.0334301
0.0285386
-0.0778538
0.0801472
0.0372932
0.0334017
-0.0818145
0.0832541
0.0429318
0.0376724
-0.0844106
0.0855285
0.0441739
0.0424492
-0.0865506
0.0876883
0.0281198
0.0365941
-0.088769
0.0897405
-0.00283074
0.0126309
-0.0904695
0.0897352
-0.0270994
-0.0164931
-0.0894905
0.088237
-0.0352291
-0.0325537
-0.0361324
-0.0363624
0.0342909
0.0776328
0.079394
0.0779472
-0.0293457
0.0334935
-0.0655229
-0.0673559
-0.0248009
0.0462572
-0.0470713
-0.0731926
-0.0716203
0.0416857
0.0362841
-0.0604668
-0.037627
-0.0628507
0.0260805
0.0756742
-0.014937
0.0870489
0.0888532
-0.0886681
-0.0324863
0.0884112
-0.0276652
0.0376098
-0.0646813
-0.0451504
-0.0672338
0.0299477
-0.026499
-0.0708046
0.0341323
-0.0697075
-0.0479291
-0.0698678
0.0439955
-0.047193
-0.0699951
0.0424716
-0.0700963
0.0922255
-0.0209783
-0.0609538
0.0762728
-0.0737242
0.0233203
-0.0754724
0.0775102
0.0240427
0.0234816
0.0732145
-0.0707109
0.0219172
0.0238305
0.0681943
-0.0657398
0.0135713
0.0183546
0.0639435
-0.0629652
-0.00102713
0.00642936
0.0630857
-0.0644517
-0.0154713
-0.00844406
0.0668494
-0.0700449
-0.0230244
-0.0195213
0.073239
-0.0762673
-0.0253614
-0.0234599
0.0789018
-0.0816652
-0.0281501
-0.0256678
0.0845891
-0.0879072
-0.0306844
-0.0284226
0.0913235
-0.0950719
-0.0330799
-0.0307482
0.098667
-0.101745
-0.0330869
-0.0325073
0.103347
-0.10139
-0.0235834
-0.0290887
0.0983148
-0.0915582
0.00220614
-0.0121887
0.0849928
-0.0786882
0.0293672
0.0171569
0.0731191
-0.0678883
0.0372408
0.0361166
-0.0649403
0.0610897
-0.019258
0.0686646
-0.0717037
-0.0234598
-0.0210766
-0.0574857
0.0562568
-0.012112
-0.0165927
-0.0568428
0.0590747
0.00425034
-0.00465085
-0.0627408
0.0668835
0.0206207
0.0124238
-0.0708423
0.0746916
0.0295809
0.0245798
-0.0777891
0.0804913
0.034591
0.0303042
-0.0826579
0.0847451
0.0408446
0.0355058
-0.0866079
0.0885078
0.0422739
0.0405865
-0.0902472
0.0920291
0.026338
0.0348548
-0.0935304
0.0945688
-0.0038691
0.0111295
-0.0944915
0.094315
-0.0269229
-0.0164158
-0.0927787
0.0908665
-0.0333169
-0.0310175
-0.033934
-0.0293202
0.0324973
-0.0739817
-0.074494
-0.0265299
0.0392163
-0.0430371
-0.0662755
-0.0631496
0.0344776
0.0907007
-0.0244809
-0.0223949
0.0263311
0.0831127
0.0832301
-0.0357673
0.0348717
0.0783785
0.0769408
-0.0367251
0.0366072
0.0777506
0.0775406
-0.0351406
0.0326814
0.0775861
0.0794138
-0.0303286
0.0284076
0.0775952
0.0795935
0.0269186
0.0789992
0.0406495
-0.0635065
-0.0434371
-0.064564
0.0373518
-0.0679009
-0.0468478
-0.068315
0.0350259
-0.0722361
-0.0465086
-0.0705522
0.0319606
-0.0281904
-0.0782642
0.034904
-0.0769251
-0.0443373
-0.068695
-0.0346205
0.0302583
-0.0587874
-0.039094
-0.0618019
0.0776425
-0.0769806
0.0233808
0.079853
0.0247081
-0.0637414
0.0757765
-0.0748981
0.0224418
0.0222776
0.0730974
-0.0712369
0.0200567
0.0220299
0.0684482
-0.0659993
0.0111224
0.0155659
0.0642986
-0.0634575
-0.00186825
0.00472864
0.0637821
-0.0653557
-0.0138976
-0.00811946
0.0678538
-0.0709638
-0.0199144
-0.0170231
0.073915
-0.0766841
-0.0225923
-0.0205088
0.0792056
-0.0819744
-0.0253813
-0.0231463
0.0849046
-0.0881991
-0.0273899
-0.0254924
0.0916419
-0.0955706
-0.0291512
-0.0273055
0.0995909
-0.103563
-0.029115
-0.028487
0.106445
-0.107326
-0.0227017
-0.0262069
0.105251
-0.0996206
-0.00342404
-0.0142642
0.0918612
-0.0837272
0.0212332
0.00939753
0.0761496
-0.0701616
0.0312528
0.028539
0.0649578
-0.0609847
0.0262852
0.0292738
-0.0724315
0.0702013
-0.0212297
0.0753444
-0.0786116
-0.0249231
-0.023617
-0.0672257
0.0635793
-0.0156117
-0.0181009
-0.0598388
0.0577189
-0.00999216
-0.0128522
-0.0575378
0.059489
0.0022992
-0.0044698
-0.0626827
0.066789
0.0165144
0.00923018
-0.0707956
0.0747274
0.0256492
0.0205731
-0.0779521
0.0808945
0.0316486
0.0270795
-0.0834172
0.0860171
0.0382447
0.0329831
-0.088465
0.0910464
0.0396926
0.0381386
-0.0934584
0.0958753
0.0239212
0.0324427
-0.0977428
0.0988243
-0.00495053
0.00926198
-0.0986764
0.0973244
-0.0255709
-0.0162679
-0.0946136
0.0925273
-0.0312306
-0.0283067
-0.0896742
0.086685
-0.029497
-0.0310809
-0.086795
0.0864965
-0.0241824
-0.0277752
-0.0169222
-0.0270657
0.0339068
0.0762716
0.0190907
0.0847196
0.0752551
-0.0357478
0.0372183
0.076908
0.0750998
-0.0382404
0.0368696
0.0791214
0.0765185
-0.0368534
0.0332277
0.0812118
0.07943
-0.0323983
0.0294721
0.0805214
0.080423
-0.029976
0.0335582
-0.0818464
-0.0818775
-0.0267101
0.0255107
-0.0307007
-0.0535974
-0.0574207
0.0219468
-0.0287142
0.027528
0.0810392
0.0797571
0.0410788
-0.0672335
-0.0443676
-0.0670442
0.0381057
-0.0709807
-0.0459056
-0.068918
0.0380534
-0.0753856
-0.0458466
-0.0690429
0.0373573
-0.0807242
-0.0429165
-0.0648725
0.0317709
-0.0284256
-0.0852228
0.0355913
-0.0856667
-0.0361319
-0.0563708
-0.0193111
-0.054764
0.0166543
-0.0252756
-0.0476329
-0.0855393
0.0817277
-0.024614
-0.0294396
0.0334667
-0.08925
-0.0889331
-0.0260459
0.0129166
-0.0138599
-0.0538207
-0.0673404
0.0684073
0.0155874
-0.067177
0.0127532
0.0828829
-0.0808176
0.0254628
0.026238
-0.0298141
0.0846152
0.0825162
0.0266047
-0.0670302
0.0790799
-0.0793884
0.0236893
0.0229704
0.078342
-0.0770131
0.0211129
0.0212312
0.0743329
-0.0714356
0.0171594
0.0193497
0.0688484
-0.0665224
0.00879638
0.0129787
0.0649814
-0.0643696
-0.00248003
0.00318762
0.0649407
-0.0666985
-0.0121399
-0.00754838
0.0691748
-0.0720131
-0.0170761
-0.0145468
0.0745927
-0.0770655
-0.0201195
-0.0179292
0.0794662
-0.0821734
-0.0226741
-0.0207456
0.0849918
-0.0881177
-0.0242641
-0.022674
0.0914049
-0.0952023
-0.0253538
-0.0240183
0.0991936
-0.103443
-0.0248652
-0.0244957
0.107149
-0.109694
-0.0201569
-0.022501
0.109809
-0.106687
-0.00654605
-0.0141493
0.100722
-0.0929087
0.0134202
0.00343227
0.0847775
-0.0777107
0.024186
0.0204077
0.0731031
-0.0700223
0.0232043
0.0246663
0.0203318
-0.0786944
0.0763669
-0.0225957
-0.0236767
-0.073352
0.0713562
-0.019234
-0.020602
-0.0687661
0.0664193
-0.0132648
-0.0155108
-0.0633446
0.0606599
-0.00730743
-0.00977751
-0.0595142
0.0603519
0.00146153
-0.00332412
-0.0628249
0.0665692
0.0127701
0.00675715
-0.0704978
0.0745269
0.02162
0.0166446
-0.0779531
0.0811899
0.0284118
0.0236533
-0.084041
0.0870112
0.0352745
0.030132
-0.0898432
0.0929253
0.0366105
0.0353066
-0.0959082
0.0989582
0.0208712
0.0294598
-0.101179
0.102229
-0.0059997
0.00704082
-0.101702
0.0997533
-0.0236218
-0.0157417
-0.097085
0.0942073
-0.0283529
-0.0256384
-0.0900534
0.0874777
-0.0269213
-0.026927
-0.0849854
0.0841613
-0.0233582
-0.0252829
-0.0217365
-0.0189619
0.0285464
0.0751351
0.0780784
-0.0310374
0.0333065
0.0740024
0.0727641
-0.0352512
0.0368876
0.0752716
0.0731551
-0.0380744
0.0387968
0.078399
0.0753317
-0.0389906
0.0390343
0.0811681
0.0792362
-0.0372118
0.0335005
0.0842327
0.0822454
0.0834435
0.0410941
-0.0702219
-0.0438167
-0.0691331
0.0408347
-0.073762
-0.0458199
-0.0689447
0.0411468
-0.0791751
-0.0459624
-0.065997
0.039673
-0.084806
-0.0419805
-0.0590239
0.0379074
-0.0901074
-0.0320649
-0.0495814
0.0303787
-0.025801
-0.0935108
0.0347542
-0.0936254
-0.0174692
-0.0440236
-0.00856629
-0.0683049
0.00969422
-0.00717417
-0.0552128
-0.0918538
0.0886409
-0.0225881
-0.0262898
0.0302272
-0.0974483
-0.0954368
-0.0227068
0.00638638
-0.0055967
-0.0690946
-0.0756683
0.0768603
0.00850223
-0.0746415
0.00535952
0.024001
-0.0280153
0.0886295
0.0201683
0.086349
0.0831858
-0.0823788
0.0246557
0.0841877
0.0256028
-0.0697528
0.0815983
-0.0804168
0.0225078
0.02219
0.0793696
-0.0772824
0.0190257
0.0201839
0.0746295
-0.0718309
0.0143609
0.0166968
0.0693547
-0.067226
0.00666765
0.0105025
0.065944
-0.0656635
-0.0027605
0.00190567
0.0665078
-0.068353
-0.0102946
-0.00670412
0.0706265
-0.0730415
-0.0146611
-0.0122734
0.0752243
-0.0774513
-0.0178924
-0.0157463
0.0797335
-0.082299
-0.0201086
-0.0184635
0.084914
-0.0877946
-0.0213835
-0.0200589
0.0908196
-0.0942792
-0.0218942
-0.0209932
0.0979035
-0.101863
-0.0209056
-0.0208714
0.105617
-0.108888
-0.016885
-0.0187475
0.110622
-0.110046
-0.00712152
-0.0124161
0.106704
-0.100967
0.00768342
8.97686e-05
0.0942257
-0.0883661
0.0183263
0.0136664
0.0832983
-0.0793663
0.0192724
0.0195985
0.07706
-0.0773256
0.0158529
0.0180255
0.012288
-0.0852234
0.0825011
-0.0218917
-0.0226284
-0.079684
0.077325
-0.0202367
-0.0208596
-0.0745492
0.0722024
-0.0168872
-0.0178262
-0.0703489
0.0685463
-0.0114622
-0.0136573
-0.0665978
0.0643898
-0.00509944
-0.007829
-0.0627964
0.0624163
0.0018416
-0.00173071
-0.0635907
0.0662221
0.0101387
0.00558272
-0.0695039
0.0732808
0.0178431
0.0133628
-0.0767908
0.080315
0.0248876
0.0201433
-0.0834834
0.0867788
0.031979
0.0269637
-0.0899833
0.0936726
0.0329211
0.0321021
-0.0974177
0.101177
0.0171117
0.0257147
-0.103703
0.104575
-0.00687152
0.00451509
-0.103624
0.101182
-0.0211799
-0.014791
-0.098137
0.0946723
-0.0248882
-0.0225933
-0.0916139
0.0882275
-0.0235349
-0.0238686
-0.0859708
0.0841826
-0.0215701
-0.0230262
-0.0202905
-0.011073
0.0176258
0.075749
0.0793381
-0.0233223
0.0269824
0.071475
0.0723819
-0.0293034
0.0314737
0.0718322
0.0704431
-0.0333486
0.034959
0.0736611
0.0712803
-0.0361875
0.0370318
0.0775547
0.0741032
-0.037413
0.036333
0.0822481
0.0788551
-0.0338517
0.0312617
0.0868227
0.0847267
0.0866898
0.0431659
-0.0725531
-0.0449354
-0.0700176
0.0444295
-0.0770447
-0.0476765
-0.0672307
0.0438369
-0.083339
-0.0463446
-0.0616329
0.0425136
-0.0894122
-0.0385139
-0.052575
0.0399882
-0.0953414
-0.0242512
-0.0427994
0.0356592
-0.0990574
-0.00839954
-0.0427982
0.0256365
-0.0219657
-0.0991076
0.0295218
-0.101333
-0.00202786
-0.0587816
-0.00258487
0.00199344
-0.07405
-0.00204944
-0.06963
0.0329333
0.0714226
-0.0715222
0.0828987
-0.0828448
0.0246018
-0.0758363
0.0431383
0.0656313
0.0326652
0.0835956
-0.0810735
0.0199856
0.0229408
0.0797807
-0.0771915
0.0164366
0.0188911
0.0749666
-0.0721077
0.011502
0.0144719
0.069846
-0.0680718
0.00489343
0.00824073
0.0672114
-0.0673412
-0.00263067
0.00104531
0.0683889
-0.0701176
-0.00856595
-0.00565648
0.0720102
-0.0739617
-0.0127095
-0.0103808
0.0758219
-0.0778633
-0.0158511
-0.0138861
0.0799977
-0.0823506
-0.0177557
-0.0163291
0.0847173
-0.0873206
-0.0187802
-0.0176922
0.0900293
-0.0930655
-0.0188579
-0.0182846
0.0961916
-0.099589
-0.0175082
-0.0177453
0.102873
-0.105972
-0.0137859
-0.015464
0.108164
-0.108947
-0.00633919
-0.0102234
0.107732
-0.104448
0.00439942
-0.00112505
0.0999668
-0.0949121
0.0132717
0.00918536
0.0904215
-0.0864561
0.015307
0.0151078
0.0831046
-0.0806679
0.0134162
0.014674
0.0794913
-0.0787814
0.00779238
0.0111113
0.077634
-0.076863
0.00122245
0.00421207
-0.0906486
0.0876108
-0.0195503
0.0927357
-0.0973397
-0.0173617
-0.0206197
-0.0849144
0.0824915
-0.0194688
-0.019932
-0.0799884
0.0777591
-0.0180074
-0.0183566
-0.0755629
0.0734274
-0.0147518
-0.01563
-0.0717122
0.070279
-0.0100291
-0.0119421
-0.069104
0.067829
-0.00382443
-0.006654
-0.066671
0.0658736
0.00263899
-0.000572703
-0.0659682
0.0671534
0.00895358
0.00548814
-0.0691802
0.0719967
0.0150266
0.011336
-0.0750099
0.0783679
0.0215295
0.0171301
-0.08163
0.0852732
0.0283358
0.0237016
-0.0891235
0.0938037
0.0282409
0.0282519
-0.0985033
0.102834
0.0127814
0.021015
-0.105346
0.105787
-0.00731305
0.002003
-0.104356
0.101535
-0.0183591
-0.0133597
-0.0983159
0.0948183
-0.0213907
-0.019374
-0.0914773
0.0885028
-0.0205604
-0.0205276
-0.0858143
0.0838517
-0.0196076
-0.0203377
-0.0814574
0.0814764
-0.0153675
-0.0178962
-0.0107049
-0.0141433
0.0191857
0.0707067
0.00949671
0.0767945
0.0746914
-0.0223522
0.0239903
0.0698369
0.0692153
-0.0259016
0.0277157
0.070018
0.0685318
-0.0293173
0.0307426
0.0722358
0.0696787
-0.0318997
0.0327891
0.0766653
0.0729461
-0.0333161
0.0325233
0.0830409
0.0783281
-0.0320363
0.0303219
0.0885371
0.0852137
-0.0250402
0.0203023
0.0933674
0.0919716
-0.00653788
0.121099
0.100113
-0.0197777
0.0238617
-0.103192
-0.0997652
-0.0173522
-0.00088936
0.00117974
-0.0743404
-0.0768187
-0.000933615
0.046755
-0.0748786
-0.047944
-0.0697501
-0.0839589
-0.00758702
0.0474682
-0.080676
-0.0494272
-0.0641481
0.110326
-0.08282
0.0381251
0.0260573
-0.012107
0.107148
0.0287525
0.107631
0.0467261
-0.0875514
-0.0442771
-0.0558697
0.0452166
-0.0946406
-0.0314066
-0.0454196
0.0413959
-0.101078
-0.0133782
-0.0378208
0.0357958
-0.105331
0.000645272
-0.0454713
0.0288587
-0.106331
0.00183636
-0.0626674
0.0182886
-0.0158572
-0.102197
0.0215991
-0.106502
0.00207794
-0.0705282
-0.00410082
0.00498382
-0.0752234
-0.0034575
-0.077462
-0.0727111
0.0851204
-0.0853628
0.0248443
0.0349656
0.0833181
-0.0820592
0.0187267
0.0208961
0.0794397
-0.0772467
0.0142436
0.0162716
0.0743789
-0.0722574
0.00938056
0.0116041
0.070452
-0.0692401
0.00368159
0.00643535
0.0688696
-0.0693063
-0.00219396
0.000674792
0.0703282
-0.0717335
-0.00716064
-0.00463461
0.0731962
-0.0747785
-0.0111273
-0.00891806
0.0764175
-0.0782905
-0.0139781
-0.012247
0.0802307
-0.0823381
-0.0156482
-0.0143889
0.0844549
-0.0867777
-0.0164574
-0.0155755
0.0891563
-0.0917622
-0.0162521
-0.0159061
0.0943855
-0.0971767
-0.014717
-0.015122
0.0998334
-0.102357
-0.0112625
-0.0128072
0.104273
-0.105321
-0.00529076
-0.00830776
0.105052
-0.10328
0.00262694
-0.00139368
0.100338
-0.0965595
0.00949305
0.00624365
0.0924044
-0.0891012
0.0120038
0.0109527
0.085652
-0.0826403
0.0104044
0.0112249
0.0800419
-0.0783182
0.00606874
0.00851295
0.0779346
-0.0781309
0.00141881
0.00382842
0.0780834
-0.0788045
-0.00273641
-0.000981164
-0.0939094
0.0928569
-0.0163092
0.0967391
-0.0993803
-0.013216
-0.0145225
-0.089393
0.0874116
-0.0175689
-0.0171558
-0.0845598
0.0825563
-0.0174652
-0.0170802
-0.080354
0.078206
-0.0158594
-0.0161543
-0.0763242
0.0744989
-0.0129265
-0.0137481
-0.0729936
0.0717535
-0.00878901
-0.0104368
-0.0709368
0.070338
-0.00322566
-0.00583728
-0.0698993
0.069581
0.00295735
-0.000133994
-0.0695546
0.0700133
0.00849491
0.00551453
-0.0710211
0.0727063
0.0133414
0.0103281
-0.0748268
0.0775741
0.0187822
0.0150096
-0.0806697
0.0846412
0.0243643
0.020606
-0.0892115
0.0947658
0.0226866
0.0236816
-0.0999257
0.104118
0.00858868
0.0158551
-0.106035
0.105777
-0.0070554
8.63579e-05
-0.103897
0.100909
-0.0153717
-0.0114788
-0.0977517
0.094434
-0.0180729
-0.0162166
-0.0912497
0.0889943
-0.018305
-0.0173433
-0.085654
0.0835795
-0.0175331
-0.0169974
-0.0818782
0.0820806
-0.0155699
-0.0161949
-0.0125833
-0.00753143
0.0108626
0.0734633
0.0775487
-0.0153321
0.0163559
0.0696829
0.0702218
-0.0178264
0.0192335
0.0684299
0.0677448
-0.0205573
0.0218357
0.0687396
0.067208
-0.0230144
0.0241267
0.0711235
0.0685
-0.0251074
0.0259378
0.0758349
0.0719655
-0.0265204
0.026815
0.0827463
0.0777454
-0.0267508
0.0256728
0.0896151
0.085278
-0.0238284
0.0199097
0.0972861
0.093816
0.107916
-0.0124252
0.0147225
-0.104494
-0.100988
-0.010817
-0.00537929
0.00640425
-0.078487
-0.0799703
-0.00421349
0.0498003
-0.0772107
-0.0505297
-0.0686476
0.104404
-0.0945977
0.0283188
0.10611
0.0270464
0.0499122
-0.0838622
-0.0484384
-0.0599868
0.049225
-0.0915599
-0.038074
-0.0492024
0.0464364
-0.099681
-0.0202357
-0.038562
0.0413602
-0.106643
-0.000727797
-0.0364477
0.0342582
-0.110731
0.00785199
-0.051487
0.0260325
-0.110764
0.00545057
-0.0660401
0.0178217
-0.109601
0.00653101
-0.0720754
0.00980843
-0.0092107
-0.101586
0.0117671
-0.106453
0.00805948
-0.0768786
-0.0980089
0.096566
-0.00776783
0.00517508
-0.0971206
-0.00606344
0.00657188
-0.102983
0.00272051
0.0759505
-0.00615899
0.00833213
-0.0806601
-0.00576128
-0.080368
-0.0734405
0.08841
-0.0859676
0.0224019
0.0287778
0.0841088
-0.0815241
0.016142
0.0190373
0.0789634
-0.0765931
0.0118733
0.0137108
0.0744914
-0.07273
0.00761917
0.00950234
0.0714929
-0.0708365
0.00302511
0.00519832
0.0707846
-0.0712556
-0.00172288
0.000622884
0.0720404
-0.0730667
-0.00613432
-0.00384984
0.0741963
-0.0755382
-0.00978539
-0.0077885
0.0770062
-0.0786896
-0.0122947
-0.010779
0.0804116
-0.0822788
-0.0137811
-0.0126669
0.0841593
-0.0862082
-0.0144085
-0.013695
0.0882693
-0.0904799
-0.0140414
-0.0138449
0.0926536
-0.094904
-0.0124665
-0.0129483
0.096984
-0.0989092
-0.00933726
-0.0107272
0.100355
-0.10119
-0.00445558
-0.00686176
0.101131
-0.100039
0.00153455
-0.00145276
0.0980378
-0.0952598
0.00671499
0.00424252
0.0922447
-0.0891097
0.00886874
0.00793768
0.0862699
-0.0836872
0.00782174
0.00838506
0.0813374
-0.0798217
0.00455303
0.00616315
0.0784084
-0.0776343
0.000644693
0.00241521
0.0775118
-0.0784002
-0.00184808
-0.00110364
0.079564
-0.0806014
-0.00472384
-0.00304966
-0.0955031
0.0939434
-0.0116562
-0.00975413
-0.0928861
0.0907968
-0.0142198
-0.0134653
-0.0884095
0.0863972
-0.0155565
-0.0147685
-0.084533
0.0825674
-0.0154996
-0.015216
-0.0804997
0.0786239
-0.0139837
-0.0140866
-0.0769974
0.075447
-0.011376
-0.0121216
-0.0741726
0.0731044
-0.00772075
-0.0091625
-0.0724414
0.0721282
-0.00291245
-0.00517431
-0.0721444
0.0724039
0.00269785
-0.000150144
-0.0728205
0.0734528
0.00786264
0.00509789
-0.0742883
0.0755149
0.0121149
0.00949255
-0.0771009
0.0793851
0.016498
0.0134236
-0.0823089
0.0864228
0.0202505
0.0176823
-0.0912356
0.0967543
0.0171678
0.0188688
-0.101348
0.104511
0.00542526
0.0112616
-0.105442
0.104501
-0.00611424
-0.000844218
-0.1024
0.0995341
-0.0125059
-0.009378
-0.096658
0.0936871
-0.0151021
-0.0133405
-0.0910646
0.088503
-0.0157434
-0.0147208
-0.086262
0.0840459
-0.015317
-0.0147564
-0.082059
0.0805817
-0.0140925
-0.014208
-0.0801655
0.0820895
-0.00951106
-0.0121671
-0.00590835
-0.00659908
0.00923928
0.0708231
0.0736701
-0.0107464
0.0115178
0.0689115
0.0687147
-0.0122043
0.012858
0.0677761
0.0670584
-0.0134938
0.0141492
0.0680843
0.0665721
-0.0148193
0.0155124
0.0704304
0.0678299
-0.0161793
0.0167994
0.0752148
0.0712986
-0.0173007
0.0176467
0.0824003
0.0772442
-0.0177838
0.0166139
0.090785
0.0851408
-0.0172774
0.015527
0.0990365
0.0931525
-0.0221789
0.0204406
0.108887
0.101264
-0.014154
-0.00424233
0.124506
0.113918
0.0513302
-0.0786286
-0.0507675
-0.0663184
0.00661981
-0.00599048
-0.0812308
0.00745544
-0.0812036
0.10555
-0.113277
0.00348403
-0.0164122
0.0705926
0.0703259
0.0937425
-0.00460432
-0.079257
0.0778267
-0.00329348
-0.0793839
-0.00586359
0.0512716
-0.0859087
-0.0436022
-0.0544585
0.0493099
-0.0944334
-0.0275258
-0.0419123
0.0448475
-0.103168
-0.00585807
-0.0334318
0.0383435
-0.110728
0.0112559
-0.0398517
0.0301318
-0.11483
0.0116742
-0.0577106
0.0213477
-0.11429
0.0093711
-0.0688801
0.0132378
-0.111072
0.0110075
-0.0750234
-0.00437114
-0.0972987
0.00454926
-0.0950776
0.09468
-0.00397358
0.00216096
-0.0948882
-0.00235038
-0.0975187
0.002381
0.00746532
-0.107346
0.0108079
-0.0793544
-0.102908
0.00447442
0.0157117
-0.0358374
0.0907183
-0.0817337
-0.00389762
-0.01145
0.0974876
-0.0728779
0.101619
-0.0952048
0.0219049
0.0153884
0.0893222
-0.0850825
0.0181621
0.0228952
0.0825742
-0.0803722
0.01394
0.0165291
0.0782801
-0.0764577
0.0100508
0.0116188
0.0749271
-0.0737498
0.00644188
0.00797178
0.0729781
-0.0726093
0.0026563
0.00442661
0.0725995
-0.0728979
-0.00142448
0.000613014
0.0734144
-0.0741664
-0.00538234
-0.00333332
0.0750937
-0.0762694
-0.00860969
-0.00686112
0.0775733
-0.079056
-0.010812
-0.00947519
0.0805695
-0.0822165
-0.012134
-0.0111534
0.083874
-0.0856609
-0.0126217
-0.0120375
0.0874297
-0.0892913
-0.0121799
-0.0120761
0.0910803
-0.0928813
-0.0106655
-0.0111594
0.0944926
-0.0959301
-0.00789972
-0.00911592
0.0969645
-0.0975238
-0.0038963
-0.00582741
0.0974391
-0.0966231
0.000718547
-0.00153747
0.0951553
-0.0930796
0.00463929
0.00277477
0.0907586
-0.0882676
0.00637773
0.00561673
0.0859647
-0.0838324
0.00568942
0.00608213
0.0821232
-0.0807956
0.00322549
0.00445391
0.0799322
-0.0792009
-8.65894e-05
0.00155175
0.078587
-0.0779951
-0.00243996
-0.00171754
-0.00321809
-0.0947802
0.0943834
-0.00737102
-0.00616356
-0.0940067
0.0929082
-0.0105577
-0.00937748
-0.0911899
0.0896545
-0.0126844
-0.0117469
-0.0878603
0.0858977
-0.013594
-0.0129743
-0.084105
0.0822757
-0.0136704
-0.0134232
-0.0806246
0.0789989
-0.012358
-0.0124355
-0.0775946
0.0762744
-0.0100558
-0.0107173
-0.0752081
0.0743183
-0.00683094
-0.00809619
-0.0737666
0.0735551
-0.00270096
-0.0046226
-0.0737268
0.0742701
0.0021546
-0.000321866
-0.0750461
0.0760691
0.00683965
0.00432188
-0.0771924
0.078583
0.0107243
0.00836926
-0.0802044
0.082465
0.0142373
0.0118022
-0.0853491
0.0893169
0.0162826
0.0147982
-0.0936784
0.0982184
0.0126278
0.0145073
-0.101538
0.103386
0.00357644
0.00794241
-0.103487
0.102223
-0.00485026
-0.000944611
-0.100238
0.097743
-0.0100106
-0.00739351
-0.0952927
0.0927519
-0.0125613
-0.0108902
-0.0904754
0.0882138
-0.0134818
-0.0124443
-0.0862206
0.0842239
-0.0133203
-0.0127632
-0.0822398
0.0804857
-0.0123385
-0.0122238
-0.0794076
0.0800494
-0.0101528
-0.0110889
-0.00759273
-0.000231383
0.00262915
0.0735527
0.0770664
-0.00487413
0.00568141
0.0700158
0.0714251
-0.00572522
0.00566532
0.0689714
0.0686709
-0.00555625
0.00545558
0.0678768
0.0671674
-0.00539733
0.00541437
0.0680672
0.0666304
-0.00552155
0.00571286
0.0702391
0.0677227
-0.00595407
0.00623368
0.0749352
0.0710574
-0.00651613
0.00678677
0.0821296
0.0769617
-0.00700815
0.00713615
0.090657
0.0849194
-0.00712573
0.00784027
0.0983219
0.0931629
-0.0096889
0.015284
0.103292
0.0994156
0.0933642
0.0088938
-0.0820985
0.0891016
-0.00680911
-0.00537504
0.00630238
-0.0821581
-0.081618
-0.00314097
0.0508795
-0.0782365
-0.0480435
-0.0618772
0.0493964
-0.0859952
-0.0346425
-0.0473418
0.0452064
-0.0947922
-0.0130174
-0.034753
0.00789584
-0.0827971
0.0389635
-0.103788
0.00983574
-0.0320116
0.031315
-0.111911
0.0196183
-0.0477958
0.0231308
-0.116613
0.0142673
-0.0626068
-0.000946619
-0.0944348
0.000493193
-0.0924378
0.0923064
-0.000815167
-0.000299649
-0.0923039
0.000165681
-0.0941436
-0.00059077
0.0150454
-0.116097
0.0148041
-0.0726767
-0.0975265
0.000500952
0.00853168
-0.112138
0.0152286
-0.0794441
-0.102305
0.00177784
0.00419793
-0.10707
0.0130343
-0.083495
0.0072108
-0.013637
0.0955278
0.0554196
-0.089717
0.0473064
0.00799937
-0.00638248
0.0701308
-0.00491622
0.0058499
-0.0830918
-0.0834199
-0.00311429
-0.00932238
0.0727414
-0.0700419
0.0999573
-0.1039
0.00742627
-0.0953431
-0.00694975
0.0954837
9.95326e-06
0.0991539
-0.0929842
0.0157352
0.0106428
0.0876627
-0.0847544
0.0152539