/*--------------------------------*- C++ -*----------------------------------*\
  =========                 |
  \\      /  F ield         | OpenFOAM: The Open Source CFD Toolbox
   \\    /   O peration     | Website:  https://openfoam.org
    \\  /    A nd           | Version:  10
     \\/     M anipulation  |
\*---------------------------------------------------------------------------*/
FoamFile
{
    format      ascii;
    class       volVectorField;
    location    "36";
    object      U;
}
// * * * * * * * * * * * * * * * * * * * * * * * * * * * * * * * * * * * * * //

dimensions      [0 1 -1 0 0 0 0];

internalField   nonuniform List<vector> 
6397
(
(1.03527 -0.162645 1.11251e-20)
(1.03764 -0.173033 -5.21935e-20)
(1.05568 0.270329 0)
(1.02928 0.260573 2.56406e-22)
(0.993971 0.286086 3.54918e-22)
(1.0221 0.295878 6.49303e-22)
(0.762844 -0.449786 -5.32137e-20)
(0.467063 -0.652573 1.13557e-19)
(0.0109946 0.2522 1.75836e-20)
(-0.0583329 0.194457 -6.21509e-21)
(0.516861 0.764819 5.84094e-20)
(0.829997 0.768161 -6.70453e-21)
(0.465099 0.0289908 -2.2685e-22)
(0.530067 0.0169719 -5.62263e-23)
(0.341353 0.0274491 9.26235e-22)
(-0.0438595 0.0754163 -1.26088e-19)
(0.173464 0.0810816 -7.33082e-20)
(-0.135819 0.106937 5.96812e-20)
(0.331178 0.0594253 5.50989e-20)
(0.444507 -0.111385 -1.68431e-19)
(0.544515 0.0234737 -8.74595e-20)
(0.212535 0.0115997 -9.00837e-20)
(0.00710127 0.0540706 3.92065e-21)
(0.435531 0.0488386 -5.86434e-20)
(0.66677 0.0172493 0)
(0.665907 0.0150229 2.64019e-23)
(0.79357 0.0201475 -2.6712e-23)
(1.01879 0.481395 8.97866e-21)
(1.00518 0.446103 -2.31046e-21)
(1.05282 0.501546 4.71903e-21)
(1.05133 0.495588 -6.06157e-21)
(0.988405 0.204059 2.30331e-21)
(1.01282 0.215766 1.14299e-21)
(1.00303 0.249963 -3.413e-21)
(0.977901 0.111071 9.97456e-22)
(0.994092 0.129275 0)
(0.979417 0.156651 -7.17594e-22)
(1.00012 0.172489 -1.46221e-21)
(0.99895 0.0573585 2.33734e-21)
(0.990934 0.0406993 -1.27305e-21)
(0.981625 0.0729323 0)
(0.99472 0.0905846 0)
(1.05199 0.496969 -1.66349e-21)
(1.04002 0.376185 -4.88799e-22)
(1.06693 0.385246 6.74972e-22)
(1.05022 0.304632 3.44149e-22)
(1.01616 0.332796 -1.63582e-22)
(1.04486 0.340383 6.00836e-22)
(1.01423 -0.023858 2.36637e-21)
(1.02527 -0.0171686 -3.76321e-22)
(1.03493 -0.0284763 4.46679e-21)
(1.0456 -0.0194456 -1.67454e-21)
(1.03909 -0.0209296 -1.16686e-20)
(0.986597 0.212439 -7.89386e-21)
(1.04867 0.239612 5.192e-21)
(1.03226 0.0511288 4.97642e-21)
(1.03782 0.0639612 5.00924e-21)
(1.13472 -0.0428491 -4.37164e-21)
(0.936176 -0.384773 -7.04551e-21)
(0.927766 -0.227619 7.12625e-21)
(0.953221 -0.493275 4.81409e-21)
(0.976006 -0.546433 -4.74463e-21)
(0.999633 -0.554353 -3.35829e-21)
(1.02188 -0.539712 3.30125e-21)
(1.03679 -0.529118 0)
(1.04336 -0.535345 2.79354e-21)
(1.04175 -0.552816 -2.92681e-21)
(1.0354 -0.562817 0)
(0.891019 -0.241267 -6.15689e-21)
(0.932074 -0.0447861 -5.87324e-23)
(0.890556 -0.0730794 5.79315e-21)
(0.903835 -0.383468 0)
(0.926684 -0.479493 0)
(0.955813 -0.523613 0)
(0.987036 -0.528369 -1.14224e-23)
(1.01546 -0.518792 1.42649e-24)
(1.03716 -0.516997 0)
(1.0505 -0.532305 -3.20465e-25)
(1.05902 -0.554758 0)
(1.06375 -0.569072 0)
(0.90248 0.0925715 -6.47704e-21)
(0.946339 0.13038 4.85512e-22)
(1.02165 -0.549578 0)
(1.06186 -0.562388 0)
(0.923741 0.235967 5.74979e-22)
(0.966943 0.275628 0)
(0.995549 -0.501773 0)
(1.04627 -0.526043 0)
(0.948538 0.345223 1.0631e-20)
(0.987619 0.380132 -1.52636e-21)
(0.95449 -0.410522 0)
(1.01401 -0.444248 0)
(0.972217 0.417378 -7.55229e-21)
(0.99219 0.459207 -3.7297e-21)
(0.902726 -0.266973 0)
(0.969014 -0.304894 1.0578e-21)
(0.918354 0.30649 0)
(0.972675 0.432751 6.7165e-21)
(0.945924 0.385249 4.82152e-22)
(0.872577 0.0578425 -5.0615e-21)
(0.892739 0.196278 0)
(0.864572 -0.250492 -2.16711e-21)
(0.8622 -0.0979033 5.05784e-21)
(0.907679 -0.459087 1.69502e-21)
(0.8802 -0.376626 1.7988e-21)
(0.980172 -0.498828 1.14408e-23)
(0.94267 -0.495269 -1.76625e-21)
(1.04142 -0.498953 -3.34401e-23)
(1.01452 -0.493177 -1.32366e-21)
(1.07969 -0.544399 -1.20265e-21)
(1.06155 -0.519954 2.43417e-21)
(1.10631 -0.562606 0)
(1.09581 -0.561337 0)
(1.08533 -0.470694 0)
(1.10372 -0.538328 0)
(1.04973 -0.342255 -2.17617e-21)
(0.953711 -0.472685 -4.43646e-21)
(0.852315 -0.226718 -2.88108e-21)
(0.906215 -0.373569 4.37852e-21)
(1.01289 -0.54592 3.12807e-21)
(0.98853 -0.527356 -3.05773e-21)
(1.03983 -0.531703 2.07299e-23)
(1.03051 -0.540536 8.48697e-23)
(1.03219 -0.554933 0)
(1.04113 -0.53571 0)
(1.00482 -0.557354 5.37159e-21)
(1.02071 -0.569866 4.84005e-22)
(0.981232 -0.375173 1.33891e-21)
(0.993776 -0.493369 -5.32186e-21)
(0.984846 -0.0168684 4.48159e-21)
(0.980224 -0.207072 -4.62644e-22)
(1.01822 0.311816 -6.829e-21)
(1.00066 0.165857 -4.10629e-21)
(1.04521 0.469022 0)
(1.03504 0.412533 7.42952e-21)
(1.01007 0.477826 -3.51005e-21)
(1.02866 0.494345 -3.5659e-22)
(0.997042 0.455726 1.49345e-21)
(1.00206 -0.151751 -3.65614e-21)
(0.917282 -0.11018 9.07135e-22)
(0.816002 -0.185235 -2.63809e-23)
(0.802505 -0.0386844 2.88912e-21)
(0.770307 -0.00741106 0)
(0.946832 0.0796042 2.48112e-21)
(1.09726 -0.197569 -5.05251e-21)
(1.03728 0.0329897 5.02339e-21)
(1.07964 0.498993 1.95567e-21)
(0.961338 0.40477 -3.24707e-21)
(0.990426 0.43075 -1.42923e-21)
(1.07054 0.489418 1.63332e-21)
(0.849836 -0.0723137 2.44809e-22)
(0.901772 0.277592 0)
(0.932446 0.357577 -6.81659e-22)
(0.853857 0.0369682 7.07608e-23)
(0.874719 0.169947 0)
(0.847313 -0.246333 -6.56962e-22)
(0.843576 -0.10806 1.16843e-21)
(0.89674 -0.429425 0)
(0.865288 -0.358397 2.13413e-22)
(0.978505 -0.461681 0)
(0.936238 -0.458297 8.53888e-23)
(1.04647 -0.473884 0)
(1.01578 -0.461757 1.35923e-22)
(1.10033 -0.522227 -9.3906e-24)
(1.07286 -0.497516 1.18286e-22)
(1.15037 -0.551313 1.17588e-22)
(1.12743 -0.541745 -1.96431e-22)
(1.1615 -0.488536 -1.15752e-22)
(1.16316 -0.540102 -1.01469e-22)
(1.14008 -0.376715 1.10601e-21)
(0.916242 -0.431884 3.93689e-23)
(0.868007 -0.329626 6.54849e-23)
(0.993443 -0.518704 -2.48629e-24)
(0.958985 -0.493851 0)
(1.03971 -0.52274 0)
(1.02183 -0.521833 -2.82039e-23)
(1.05 -0.562816 0)
(1.0496 -0.53698 0)
(1.0431 -0.567344 -4.91102e-24)
(1.04861 -0.581072 -4.91118e-22)
(1.03596 -0.372648 -9.22816e-22)
(1.03942 -0.499653 0)
(1.05023 0.00738251 -4.23581e-21)
(1.03987 -0.194075 0)
(1.0768 0.337678 2.31722e-22)
(1.06365 0.193619 4.24348e-21)
(1.08902 0.481358 4.9601e-24)
(1.08534 0.432442 7.71956e-22)
(1.0861 0.499421 -2.22366e-21)
(1.02343 0.483997 8.38602e-22)
(1.03532 0.495006 0)
(1.01515 0.44708 6.05013e-22)
(1.01725 0.467384 -6.21798e-22)
(0.741169 0.178331 0)
(0.76716 0.166112 0)
(0.868952 0.117785 -1.06114e-21)
(1.1962 -0.238091 -5.46874e-22)
(1.1377 -0.0201048 0)
(0.972592 0.277053 -5.74315e-22)
(0.898391 0.312924 3.08943e-22)
(0.72772 0.182066 0)
(0.737805 0.334257 0)
(0.735836 0.310583 -8.62452e-22)
(1.04758 0.487121 1.57707e-21)
(1.05843 0.476264 0)
(1.03545 0.458377 -1.24724e-21)
(1.01657 0.423466 -7.65155e-24)
(1.04069 0.439109 2.22534e-21)
(1.08985 0.471985 0)
(1.10715 0.484094 -1.65764e-21)
(0.809054 0.145482 0)
(0.956559 0.375229 2.84234e-22)
(0.989081 0.403155 0)
(0.890623 0.248832 8.12931e-24)
(0.923625 0.325876 1.78724e-22)
(0.841756 0.0201811 -2.13679e-22)
(0.862505 0.145583 0)
(0.837862 -0.235195 2.05126e-24)
(0.833053 -0.111473 -2.15392e-22)
(0.891887 -0.391845 -1.42767e-24)
(0.858226 -0.332024 -1.77481e-22)
(0.97802 -0.421902 1.67219e-22)
(0.934192 -0.416715 0)
(1.05085 -0.443453 0)
(1.01729 -0.427299 -1.70413e-22)
(1.11713 -0.491173 -7.19048e-23)
(1.08275 -0.467586 3.00745e-23)
(1.1875 -0.526984 0)
(1.15341 -0.511769 -1.17607e-23)
(1.23188 -0.490215 -1.42856e-22)
(1.21546 -0.526539 3.63012e-22)
(1.22786 -0.397404 1.10096e-21)
(0.788175 -0.143171 -2.82881e-22)
(0.748579 0.0197383 9.68183e-25)
(0.887715 -0.386123 -1.29446e-22)
(0.837502 -0.28249 4.43516e-22)
(0.979356 -0.484357 6.51711e-24)
(0.936282 -0.45256 -1.95225e-22)
(1.04267 -0.507438 0)
(1.01658 -0.496468 2.22e-22)
(1.07098 -0.561424 0)
(1.06072 -0.52981 0)
(1.08286 -0.57018 9.28607e-24)
(1.0786 -0.582565 0)
(1.09423 -0.37012 0)
(1.08748 -0.501863 0)
(1.1173 0.0169223 0)
(1.10423 -0.186832 0)
(1.13619 0.345772 1.64669e-21)
(1.12796 0.204672 0)
(1.13149 0.477105 -4.91216e-24)
(1.13685 0.434082 -1.68238e-21)
(1.12003 0.490696 1.87872e-21)
(1.03348 0.484955 8.16362e-22)
(1.03855 0.489876 -1.47768e-21)
(1.03277 0.473767 1.44597e-21)
(1.05852 0.22655 4.06101e-21)
(0.754483 0.347531 0)
(0.834866 0.335539 1.34298e-21)
(0.775009 0.382785 8.98446e-22)
(0.76562 0.42888 0)
(0.922761 0.479659 4.79045e-22)
(0.86761 0.498159 1.17763e-21)
(1.05211 0.472826 1.17824e-22)
(1.06355 0.457415 8.66921e-23)
(1.03904 0.48138 1.32769e-21)
(1.04384 0.46709 1.20197e-21)
(1.13199 0.461588 1.43009e-21)
(1.10708 0.44712 0)
(1.02131 0.397119 7.67144e-23)
(1.04885 0.416255 -1.8263e-22)
(0.984066 0.445087 -4.07287e-21)
(0.928019 0.589789 -3.48536e-22)
(0.895032 0.605393 -2.12867e-21)
(1.07121 0.45692 1.36122e-22)
(0.786062 0.347276 0)
(0.954682 0.343636 1.35966e-22)
(0.989744 0.373473 -5.8021e-22)
(0.885113 0.219284 -1.94628e-22)
(0.919564 0.29335 5.1159e-22)
(0.836233 0.00576599 0)
(0.857223 0.121813 0)
(0.835019 -0.222316 -9.31526e-25)
(0.828438 -0.113691 -1.0311e-28)
(0.894265 -0.354062 1.41486e-24)
(0.85803 -0.305402 0)
(0.983333 -0.380969 0)
(0.939043 -0.374002 -3.00126e-29)
(1.05629 -0.41064 0)
(1.0222 -0.391471 0)
(1.13033 -0.453534 0)
(1.09127 -0.433056 0)
(1.21501 -0.490958 0)
(1.17245 -0.473053 0)
(1.28981 -0.475184 0)
(1.25606 -0.497365 0)
(1.29068 -0.274533 -8.47629e-22)
(1.30508 -0.405867 0)
(1.15699 0.154709 0)
(1.24195 -0.0797022 3.81053e-23)
(0.971797 0.538201 0)
(1.06252 0.37769 -7.00958e-22)
(0.726583 0.178761 -1.07424e-22)
(0.797938 0.328984 -4.93468e-23)
(0.747754 0.278014 1.07888e-22)
(0.769807 -0.104014 6.30384e-23)
(0.736732 0.0420275 -9.67815e-25)
(0.866351 -0.336178 -4.32241e-23)
(0.815498 -0.234573 -7.53146e-23)
(0.969564 -0.442734 -7.62303e-25)
(0.919764 -0.404589 0)
(1.04621 -0.483169 0)
(1.01286 -0.463061 0)
(1.09073 -0.548481 0)
(1.07153 -0.512582 0)
(1.12146 -0.561673 -6.04647e-25)
(1.10707 -0.572549 0)
(1.15199 -0.360514 0)
(1.13608 -0.493884 0)
(1.1844 0.0283627 0)
(1.16873 -0.176001 0)
(1.19599 0.347539 8.91406e-22)
(1.19452 0.211521 -9.27115e-22)
(1.17309 0.465288 4.91981e-22)
(1.18819 0.429525 -8.04567e-23)
(1.15393 0.471379 -2.09812e-21)
(1.03786 0.489 -1.00169e-21)
(1.03652 0.488199 -1.42249e-21)
(1.04327 0.483585 0)
(0.834237 0.405563 0)
(0.860664 0.347572 1.71242e-23)
(0.899299 0.647734 1.42468e-21)
(0.909736 0.613377 0)
(0.770295 0.465782 0)
(0.822103 0.500712 0)
(1.07593 0.43764 0)
(1.05114 0.44574 -2.30137e-21)
(1.15214 0.432149 8.37674e-22)
(1.12226 0.416504 0)
(0.816789 0.462931 8.18715e-23)
(0.861567 0.604388 -1.6478e-21)
(0.913838 0.366664 1.18457e-23)
(0.8925 0.415534 -3.72607e-23)
(0.892186 0.647392 2.49792e-21)
(0.890301 0.637666 -6.26422e-22)
(0.866819 0.6165 0)
(1.08342 0.430201 2.14977e-21)
(0.789291 0.49048 0)
(1.02748 0.367973 -4.03814e-22)
(1.08844 0.413696 -3.40809e-22)
(1.05786 0.390138 -1.3703e-21)
(0.956314 0.310217 -1.41095e-22)
(0.992703 0.342377 3.91928e-22)
(0.884138 0.188552 0)
(0.919613 0.259166 7.75677e-23)
(0.835814 -0.00705901 5.08205e-29)
(0.856064 0.0970299 -5.28441e-29)
(0.838948 -0.205896 -8.0957e-25)
(0.830409 -0.112866 0)
(0.90301 -0.313061 0)
(0.865043 -0.274128 0)
(0.989487 -0.341307 1.49802e-25)
(0.947578 -0.330499 3.00129e-29)
(1.06067 -0.376033 1.16432e-29)
(1.02632 -0.356294 -1.2089e-29)
(1.13928 -0.411895 0)
(1.09791 -0.395049 0)
(1.2312 -0.445977 1.38271e-24)
(1.18387 -0.429104 0)
(1.32887 -0.44364 -3.07579e-24)
(1.28122 -0.454789 0)
(1.37101 -0.298381 -2.2524e-22)
(1.36361 -0.396952 0)
(1.26533 0.0696982 1.4311e-21)
(1.34008 -0.137827 4.88123e-22)
(1.0441 0.449837 5.03061e-22)
(1.15949 0.283146 -7.23634e-22)
(0.868217 0.557931 -5.69805e-22)
(0.947647 0.539011 -5.01913e-22)
(0.830419 0.272466 -8.34355e-23)
(0.931633 0.324372 4.73908e-23)
(0.887658 0.293516 8.54592e-23)
(0.740928 0.166688 -5.8753e-23)
(0.774323 0.237793 4.05768e-23)
(0.763088 -0.0681384 1.46544e-23)
(0.738777 0.0580359 2.82926e-24)
(0.856363 -0.284891 0)
(0.805341 -0.187447 -3.21752e-24)
(0.963551 -0.395322 1.99263e-25)
(0.910962 -0.352823 1.02795e-29)
(1.04781 -0.451186 0)
(1.00987 -0.423194 0)
(1.10598 -0.526083 -1.21853e-24)
(1.07895 -0.486554 0)
(1.15591 -0.543169 -3.88818e-24)
(1.13126 -0.552503 0)
(1.20568 -0.342744 0)
(1.18052 -0.475915 0)
(1.24918 0.0403773 0)
(1.22962 -0.159001 0)
(1.25243 0.342015 0)
(1.2571 0.216094 0)
(1.21074 0.442145 0)
(1.23553 0.413494 4.68387e-23)
(1.18228 0.443979 -6.06836e-22)
(0.953631 0.401383 -9.09307e-25)
(0.968448 0.362991 0)
(0.835965 0.580078 -1.31107e-22)
(0.804995 0.528274 6.95685e-22)
(1.05883 0.418061 0)
(1.09423 0.398282 -2.22585e-22)
(1.0294 0.438819 -1.03184e-21)
(1.03441 0.409451 6.71472e-22)
(1.02622 0.481131 7.62005e-22)
(1.02619 0.463015 -1.46203e-22)
(1.0368 0.499343 4.01447e-25)
(1.02952 0.493357 -6.74144e-22)
(1.06274 0.491794 -1.38789e-21)
(1.04814 0.498815 1.71353e-22)
(1.0968 0.461377 0)
(1.07961 0.479222 1.20749e-21)
(1.11368 0.439381 7.63972e-22)
(0.811212 0.514265 -8.25435e-23)
(0.834692 0.587683 -6.48778e-28)
(0.873798 0.466881 3.7407e-23)
(0.877704 0.631966 0)
(0.936087 0.441359 0)
(0.902945 0.633742 0)
(1.01018 0.395544 -1.75079e-23)
(0.992624 0.439146 -1.76594e-26)
(0.885282 0.599452 -7.89364e-22)
(0.750896 0.469029 -2.29608e-22)
(0.803677 0.523457 -4.66311e-22)
(1.09898 0.387285 4.26955e-22)
(1.12989 0.412768 -6.05203e-22)
(0.817686 0.556926 -4.5229e-28)
(1.03324 0.3362 8.88313e-23)
(1.06634 0.361662 -5.56061e-23)
(0.959562 0.273336 8.70685e-24)
(0.99665 0.309209 0)
(0.887419 0.156957 -5.87381e-32)
(0.921997 0.224022 -4.5583e-24)
(0.84126 -0.0190575 0)
(0.859544 0.0736536 0)
(0.849587 -0.187486 -2.93573e-25)
(0.837932 -0.110171 0)
(0.916638 -0.272776 0)
(0.878152 -0.241805 0)
(0.996536 -0.304395 -7.76807e-25)
(0.958649 -0.289659 0)
(1.06458 -0.340846 -5.01471e-25)
(1.03062 -0.322318 0)
(1.14346 -0.369502 0)
(1.10231 -0.35621 0)
(1.23616 -0.396246 -8.43848e-25)
(1.18772 -0.383291 0)
(1.34493 -0.397423 1.34996e-24)
(1.28972 -0.403243 0)
(1.42417 -0.29918 3.19751e-24)
(1.39393 -0.367858 -2.34475e-28)
(1.36935 -0.0132027 -1.8247e-24)
(1.41994 -0.179702 0)
(1.15375 0.332153 -2.54922e-22)
(1.27379 0.172789 3.26394e-22)
(0.930092 0.46346 1.02245e-21)
(1.03477 0.430728 2.07268e-22)
(0.777662 0.395147 -1.85501e-21)
(0.845802 0.44449 3.22153e-22)
(0.944464 0.288707 -1.90234e-23)
(1.02259 0.351724 1.75943e-23)
(0.980144 0.324908 0)
(0.86629 0.219982 2.67731e-23)
(0.909992 0.250206 -5.57074e-23)
(0.771002 0.142194 1.09302e-23)
(0.813819 0.190738 6.36804e-24)
(0.768437 -0.0379712 -6.82011e-25)
(0.754944 0.0639341 4.45777e-24)
(0.854868 -0.231917 0)
(0.805003 -0.141812 0)
(0.963495 -0.345937 -4.73811e-25)
(0.909904 -0.299182 1.17054e-28)
(1.0512 -0.415315 -4.88083e-29)
(1.01096 -0.38071 5.16603e-29)
(1.11915 -0.49646 7.63901e-25)
(1.08622 -0.455052 0)
(1.18511 -0.514863 0)
(1.15197 -0.523663 0)
(1.25269 -0.316547 4.10113e-24)
(1.21861 -0.44837 0)
(1.30624 0.0535989 0)
(1.28394 -0.136913 0)
(1.3007 0.327996 3.85417e-24)
(1.31214 0.215701 0)
(1.24116 0.412099 -4.41852e-24)
(1.27483 0.389765 3.3163e-23)
(1.1688 0.398236 -5.0999e-22)
(1.20521 0.410179 0)
(1.10204 0.365401 -9.97322e-22)
(1.13411 0.381904 1.05686e-21)
(1.07269 0.35046 -1.92615e-22)
(1.00479 0.4347 0)
(1.01182 0.369746 -5.17073e-22)
(1.00705 0.4043 -1.69784e-22)
(1.00915 0.483164 0)
(1.00449 0.460885 0)
(1.03178 0.510089 -7.80078e-22)
(1.01801 0.499745 -1.82954e-28)
(1.07168 0.509382 3.22371e-22)
(1.04971 0.51359 1.35797e-21)
(1.11961 0.481062 0)
(1.0957 0.498151 -1.04422e-21)
(1.05769 0.419282 -1.67148e-25)
(1.06754 0.37397 -2.07853e-23)
(0.694217 0.397465 1.96839e-21)
(0.724629 0.329121 4.98438e-21)
(1.15845 0.435834 -8.458e-22)
(1.14081 0.45979 2.70214e-22)
(0.86401 0.517905 -3.43672e-27)
(0.866402 0.604761 0)
(0.920065 0.48237 0)
(0.903119 0.616683 -8.84881e-27)
(0.973166 0.481972 -3.24919e-25)
(0.911328 0.605071 -1.87248e-22)
(1.04046 0.467786 3.95745e-25)
(0.865332 0.56032 0)
(1.11298 0.397116 9.52368e-23)
(1.10557 0.444408 2.64574e-25)
(0.751589 0.463169 8.90011e-22)
(0.690576 0.253467 -5.31763e-21)
(0.638162 0.309484 -7.933e-22)
(1.11511 0.349802 1.45761e-22)
(1.16352 0.416424 -9.69785e-23)
(1.16361 0.364293 -1.02104e-22)
(0.673653 0.177891 -3.3579e-21)
(0.846922 0.235184 6.864e-21)
(0.844627 0.186451 1.16906e-21)
(1.17314 0.404261 -2.63293e-22)
(1.18856 0.444903 0)
(1.2033 0.419796 3.26984e-22)
(0.862508 0.564765 -2.6261e-28)
(1.10652 0.356469 8.21265e-24)
(1.14085 0.386398 -7.72537e-23)
(1.03721 0.302535 -3.32171e-23)
(1.0724 0.331251 -8.12173e-24)
(0.96386 0.236535 0)
(1.00089 0.273985 0)
(0.893425 0.126342 0)
(0.926778 0.188767 0)
(0.85162 -0.028581 0)
(0.867096 0.0518753 0)
(0.866604 -0.166337 0)
(0.851395 -0.104547 0)
(0.933237 -0.234495 -9.83996e-29)
(0.896597 -0.20856 1.02242e-28)
(1.00303 -0.271294 6.26902e-25)
(0.970219 -0.252991 1.08314e-28)
(1.06774 -0.305911 5.01471e-25)
(1.03442 -0.290017 0)
(1.14367 -0.328453 0)
(1.10456 -0.317972 0)
(1.23223 -0.346505 -7.44034e-25)
(1.18567 -0.338579 0)
(1.34 -0.343798 1.18165e-24)
(1.2843 -0.349364 0)
(1.44103 -0.276528 -3.19722e-24)
(1.39514 -0.323071 0)
(1.44596 -0.0705387 -5.11095e-24)
(1.46336 -0.193206 -1.08193e-28)
(1.28037 0.217548 7.22189e-23)
(1.38107 0.0774102 0)
(1.06069 0.360548 -4.41644e-22)
(1.16646 0.316516 -6.97244e-23)
(0.907575 0.329946 2.31707e-21)
(0.974676 0.358641 -1.63599e-21)
(0.867914 0.284235 -6.07952e-21)
(1.03029 0.309406 1.34864e-22)
(1.07119 0.330653 -2.75105e-22)
(0.955426 0.256317 8.52214e-25)
(0.990461 0.28671 2.501e-23)
(0.896389 0.179805 2.15792e-22)
(0.926497 0.218499 -2.29178e-22)
(0.81624 0.108396 1.03415e-24)
(0.857883 0.146225 -6.46799e-24)
(0.785937 -0.0190361 6.81425e-25)
(0.788422 0.0545575 4.57897e-28)
(0.853206 -0.180395 0)
(0.810072 -0.101796 0)
(0.959807 -0.295345 3.72782e-28)
(0.90585 -0.245 -3.94463e-28)
(1.05303 -0.37666 0)
(1.00937 -0.336466 0)
(1.13004 -0.461143 7.72818e-25)
(1.09233 -0.419305 0)
(1.20646 -0.479183 0)
(1.16783 -0.48809 0)
(1.2896 -0.282713 -4.10115e-24)
(1.247 -0.41292 0)
(1.35251 0.0672726 0)
(1.32802 -0.10965 0)
(1.33684 0.307486 -1.21927e-24)
(1.35523 0.211564 -9.31459e-28)
(1.26325 0.37391 4.29564e-24)
(1.30352 0.357493 0)
(1.18044 0.360803 0)
(1.22102 0.371458 9.80781e-26)
(1.1087 0.332242 -4.49415e-23)
(1.14334 0.346154 2.69571e-26)
(1.07855 0.315465 -2.4224e-22)
(0.982575 0.360907 -5.78249e-22)
(0.987139 0.323614 2.24742e-22)
(0.976724 0.425923 0)
(0.977603 0.394098 0)
(0.989036 0.477545 -9.35178e-26)
(0.979869 0.453423 -1.60949e-28)
(1.02365 0.509207 -1.00494e-25)
(1.00352 0.496433 -2.05708e-28)
(1.07705 0.514582 -1.06435e-22)
(1.04839 0.515809 -4.28109e-28)
(1.13749 0.491074 -8.47133e-22)
(1.10748 0.506442 4.89053e-22)
(1.1653 0.46965 -1.76515e-22)
(0.910894 0.522554 8.91355e-27)
(0.902021 0.59454 -2.11311e-27)
(0.955273 0.521702 0)
(0.916513 0.607324 1.02861e-26)
(1.01864 0.518282 8.07404e-25)
(0.894931 0.592277 1.87554e-22)
(1.09249 0.496137 -4.36627e-24)
(0.817543 0.523103 -3.38995e-23)
(1.15858 0.470405 -1.32766e-23)
(0.681701 0.38417 0)
(1.21573 0.373332 1.16815e-22)
(1.22046 0.429167 0)
(0.582787 0.206206 -1.06372e-21)
(0.859462 0.138286 6.22883e-21)
(0.691007 0.107501 3.03084e-21)
(1.20088 0.322111 -1.88078e-23)
(1.27037 0.375668 9.71281e-22)
(1.24935 0.321758 1.18715e-24)
(0.879648 0.0903966 -4.69885e-22)
(0.970167 0.136818 6.11587e-21)
(0.963312 0.0874007 5.12556e-21)
(1.21667 0.435284 0)
(1.23396 0.410828 1.43265e-21)
(1.17742 0.379009 -2.27439e-22)
(1.22168 0.378733 2.37724e-22)
(0.906314 0.560821 1.93798e-27)
(1.10928 0.325787 -7.57071e-23)
(1.1492 0.352588 1.41185e-22)
(1.0397 0.267713 3.14905e-23)
(1.07685 0.298648 -6.60769e-23)
(0.96778 0.200149 -5.75251e-25)
(1.00517 0.23851 4.79054e-28)
(0.900852 0.0972998 0)
(0.932914 0.154898 0)
(0.866237 -0.0348555 0)
(0.877949 0.0324371 0)
(0.888791 -0.143051 1.33447e-24)
(0.870595 -0.095323 0)
(0.950136 -0.20081 0)
(0.918182 -0.176565 0)
(1.00916 -0.241688 0)
(0.980868 -0.221715 0)
(1.07065 -0.272156 0)
(1.03861 -0.259082 0)
(1.14114 -0.290151 0)
(1.10512 -0.281919 0)
(1.22267 -0.299962 2.05176e-25)
(1.17991 -0.296707 0)
(1.32048 -0.290383 9.52337e-25)
(1.2698 -0.298451 3.65473e-29)
(1.4223 -0.237032 0)
(1.37294 -0.27187 0)
(1.46999 -0.093308 1.67619e-24)
(1.45908 -0.178892 1.08194e-28)
(1.37912 0.127006 2.31694e-25)
(1.44314 0.0150094 8.82434e-29)
(1.20301 0.27143 4.89067e-22)
(1.2921 0.218346 2.12461e-25)
(1.06513 0.278345 -3.101e-22)
(1.12536 0.287631 -1.89314e-22)
(0.996411 0.220981 -2.48472e-21)
(1.02405 0.253749 1.67002e-21)
(0.979094 0.181957 -6.90279e-21)
(1.11187 0.305952 2.06207e-23)
(1.15493 0.316449 -1.32763e-24)
(1.0364 0.272238 -5.25989e-24)
(1.07249 0.291258 0)
(0.968937 0.225748 -8.42543e-25)
(1.00201 0.251377 -2.53264e-23)
(0.9187 0.153454 0)
(0.941441 0.192843 0)
(0.865687 0.0750128 1.88617e-25)
(0.894823 0.113533 0)
(0.82244 -0.0178246 0)
(0.837767 0.033317 0)
(0.85457 -0.138826 0)
(0.828192 -0.0772501 0)
(0.94371 -0.245098 -2.18594e-24)
(0.895608 -0.195372 0)
(1.03926 -0.334014 0)
(0.992609 -0.289741 0)
(1.12518 -0.421998 -3.18188e-25)
(1.08308 -0.379258 0)
(1.21161 -0.437873 -8.66099e-26)
(1.16703 -0.448603 0)
(1.31521 -0.240251 1.36943e-24)
(1.26168 -0.369109 -4.04652e-29)
(1.38569 0.0801345 2.09988e-24)
(1.36081 -0.0776588 1.396e-27)
(1.35851 0.280208 -1.17831e-24)
(1.38351 0.202365 0)
(1.2747 0.332153 0)
(1.31938 0.319292 0)
(1.18852 0.321439 0)
(1.22968 0.330115 -9.82427e-26)
(1.11533 0.297768 2.70055e-22)
(1.15005 0.310216 -2.6477e-26)
(1.08425 0.283653 -2.42004e-22)
(0.966408 0.272384 0)
(0.976725 0.237223 1.52588e-21)
(0.950754 0.341559 4.05213e-22)
(0.95787 0.307149 3.93832e-23)
(0.947551 0.40216 1.28185e-25)
(0.946405 0.372026 2.04073e-28)
(0.967677 0.451989 1.98209e-25)
(0.954243 0.428648 3.56521e-28)
(1.01354 0.48462 -4.65309e-28)
(0.987398 0.47095 4.73118e-28)
(1.08021 0.495128 -2.61406e-22)
(1.04487 0.493417 5.13808e-28)
(1.15489 0.477815 8.43295e-22)
(1.11771 0.490346 2.66384e-22)
(1.18845 0.458808 7.32084e-22)
(0.944102 0.55544 0)
(0.923599 0.602155 6.62633e-28)
(0.993295 0.566917 0)
(0.904878 0.622939 -2.88312e-26)
(1.07272 0.550987 -1.05328e-24)
(0.848539 0.585827 -3.86347e-26)
(1.14801 0.531149 3.43526e-24)
(0.741291 0.466174 -7.37672e-25)
(1.22265 0.49208 1.53538e-23)
(0.599416 0.275934 -3.58931e-24)
(1.28349 0.436903 0)
(0.55186 0.0948167 -1.27802e-21)
(1.29997 0.313542 7.84198e-22)
(1.32922 0.36861 -2.3914e-21)
(0.733486 0.053152 9.45744e-23)
(0.961612 0.0323757 -5.45483e-21)
(0.901493 0.0360142 -5.9503e-21)
(1.23551 0.394211 -8.62253e-22)
(0.935889 0.583087 -3.58122e-27)
(1.18621 0.329063 -2.35826e-22)
(1.26362 0.324616 -1.41151e-21)
(1.22202 0.373643 5.69549e-22)
(1.11173 0.286819 1.48673e-23)
(1.14942 0.330865 2.16407e-22)
(1.04025 0.231751 -3.14502e-23)
(1.07795 0.2684 7.34104e-23)
(0.969276 0.164766 -1.6415e-22)
(1.00684 0.20348 1.44771e-22)
(0.908819 0.0716168 -1.52492e-24)
(0.938069 0.122551 6.97205e-28)
(0.885771 -0.035809 -1.5806e-24)
(0.891997 0.0175099 -7.23426e-28)
(0.914036 -0.119519 3.03269e-25)
(0.895081 -0.0822745 0)
(0.965242 -0.173197 0)
(0.939719 -0.148604 0)
(1.0155 -0.214677 -1.63332e-24)
(0.990326 -0.195384 0)
(1.07302 -0.240665 7.18095e-28)
(1.04323 -0.229715 -7.45588e-28)
(1.13684 -0.255243 6.6214e-28)
(1.10427 -0.248953 -6.87251e-28)
(1.20985 -0.2586 -5.6754e-28)
(1.17187 -0.25879 5.88865e-28)
(1.29421 -0.243379 -1.54116e-24)
(1.25078 -0.253878 4.54622e-28)
(1.38309 -0.194842 1.0304e-24)
(1.33925 -0.224688 3.28501e-28)
(1.44247 -0.0891022 1.24688e-24)
(1.42025 -0.150406 0)
(1.40905 0.0707744 2.34551e-24)
(1.44031 -0.0122186 8.12757e-28)
(1.28711 0.197919 3.47023e-24)
(1.35353 0.14562 0)
(1.16511 0.226654 3.60362e-22)
(1.22174 0.223652 0)
(1.07906 0.189267 1.62799e-21)
(1.11797 0.213875 -1.75923e-21)
(1.02504 0.114343 0)
(1.04919 0.154721 1.75343e-22)
(0.99849 0.0226055 4.93941e-21)
(1.00798 0.0695457 -4.66845e-21)
(1.18838 0.278238 6.16673e-24)
(1.27126 0.26595 -5.16076e-23)
(1.22931 0.27494 4.69766e-23)
(1.11168 0.268299 1.06701e-23)
(1.14904 0.275738 6.32094e-25)
(1.04364 0.240158 0)
(1.07654 0.25662 0)
(0.984284 0.197429 -1.08629e-24)
(1.01334 0.220564 0)
(0.93775 0.134237 0)
(0.958414 0.169157 0)
(0.905708 0.0533636 -1.22273e-24)
(0.921568 0.0945329 0)
(0.873911 -0.0283849 0)
(0.888733 0.012802 0)
(0.876516 -0.115866 0)
(0.868338 -0.0713748 0)
(0.931654 -0.202426 -4.17639e-25)
(0.898744 -0.159662 0)
(1.01367 -0.28967 0)
(0.971079 -0.244932 0)
(1.10223 -0.378835 -1.57853e-27)
(1.05738 -0.336064 1.6712e-27)
(1.20621 -0.385953 8.57735e-26)
(1.15037 -0.402655 8.86326e-28)
(1.33544 -0.187869 -1.55023e-24)
(1.27059 -0.312468 -3.46712e-28)
(1.4049 0.089822 -1.29634e-24)
(1.38423 -0.0425375 0)
(1.36481 0.247276 -1.45705e-24)
(1.39569 0.187268 1.10949e-27)
(1.27648 0.28832 -2.86483e-28)
(1.3223 0.277408 3.03818e-28)
(1.19134 0.282518 0)
(1.23185 0.287996 0)
(1.12014 0.2646 -5.69538e-23)
(1.15405 0.274233 1.00967e-22)
(1.06177 0.239994 0)
(1.08902 0.253432 -1.32428e-23)
(1.03605 0.228171 0)
(0.938969 0.248177 0)
(0.965103 0.186725 -3.56305e-23)
(0.951481 0.217208 -5.5117e-22)
(0.920549 0.304305 -4.88911e-23)
(0.928393 0.276389 -2.32422e-23)
(0.920817 0.354569 1.16962e-26)
(0.917497 0.329576 0)
(0.947586 0.397103 -1.04884e-25)
(0.930654 0.377045 0)
(1.00234 0.42781 0)
(0.971496 0.414331 0)
(1.08071 0.442303 4.18001e-26)
(1.03905 0.437869 0)
(1.16857 0.434024 0)
(1.12495 0.441703 0)
(1.24323 0.396849 0)
(1.20931 0.418673 5.49264e-22)
(1.27198 0.349475 0)
(1.26618 0.37053 -6.61182e-22)
(1.35023 0.29471 -1.85576e-21)
(1.31155 0.248368 0)
(0.963376 -0.0233808 2.94295e-22)
(0.997926 -0.0236708 2.48758e-22)
(0.97221 0.605133 8.07211e-26)
(0.925709 0.636611 0)
(1.02214 0.185892 0)
(1.04118 0.60495 1.90486e-25)
(0.870745 0.640326 2.01729e-26)
(1.26349 0.32412 3.39706e-22)
(1.29593 0.301431 0)
(1.2928 0.273839 0)
(1.12813 0.590528 8.38363e-25)
(0.77964 0.551305 2.16541e-25)
(1.21374 0.56398 0)
(0.649289 0.366925 4.03312e-24)
(1.29672 0.508616 0)
(0.523311 0.137353 0)
(1.35513 0.435977 0)
(0.56275 -0.00391714 6.14274e-22)
(1.39103 0.349399 -4.33813e-22)
(0.795207 0.00701339 1.76106e-22)
(1.34889 0.223682 0)
(1.39761 0.264378 1.16251e-21)
(0.915862 -0.0251356 -2.48517e-21)
(0.975802 -0.0773443 3.13567e-21)
(1.00718 -0.0668411 -2.8875e-21)
(0.953035 0.628585 2.35813e-27)
(1.1838 0.305905 2.26243e-22)
(1.22117 0.328235 0)
(1.10726 0.254598 -9.33979e-23)
(1.14612 0.291983 -1.03032e-22)
(1.03546 0.196947 0)
(1.07359 0.232879 8.27958e-23)
(0.968772 0.131809 0)
(1.0037 0.169154 2.24603e-23)
(0.920399 0.0521292 1.52425e-24)
(0.942715 0.0950353 0)
(0.910674 -0.031492 3.4027e-24)
(0.910966 0.00971136 0)
(0.938423 -0.0991247 2.16621e-25)
(0.921966 -0.0676786 0)
(0.97805 -0.15116 -1.85542e-24)
(0.958267 -0.126552 -1.79661e-27)
(1.02229 -0.18968 1.6316e-24)
(0.99925 -0.172478 1.78314e-27)
(1.0746 -0.212242 -1.81726e-24)
(1.04779 -0.202618 1.63313e-27)
(1.13168 -0.223884 -1.62041e-27)
(1.10248 -0.219359 1.56832e-27)
(1.19581 -0.222734 -1.70046e-24)
(1.16281 -0.225175 1.58361e-27)
(1.26659 -0.20404 2.79153e-24)
(1.23054 -0.215996 0)
(1.33839 -0.158524 7.08109e-25)
(1.30319 -0.185372 1.45891e-27)
(1.39007 -0.0750323 -3.44502e-24)
(1.36894 -0.121932 0)
(1.38229 0.0411588 -2.34387e-24)
(1.39596 -0.0189328 -2.502e-27)
(1.30254 0.140744 0)
(1.34912 0.0973188 0)
(1.20024 0.174613 5.84211e-22)
(1.25054 0.166672 -6.14051e-22)
(1.11304 0.150015 0)
(1.15387 0.168437 -3.08536e-28)
(1.05186 0.088648 2.06574e-22)
(1.07873 0.122556 -3.37866e-22)
(1.02338 0.0132279 2.29065e-21)
(1.03343 0.051414 -2.28471e-21)
(1.02925 -0.0584785 0)
(1.0225 -0.0239407 -2.47588e-22)
(1.24324 0.228448 4.9387e-23)
(1.30613 0.190172 4.79806e-23)
(1.27613 0.212019 4.8065e-23)
(1.17397 0.241844 2.63103e-22)
(1.20866 0.238007 -4.86545e-23)
(1.10753 0.235107 1.63955e-22)
(1.14026 0.240996 -4.34001e-22)
(1.04773 0.211138 -9.86281e-25)
(1.07679 0.225262 7.33307e-24)
(0.996597 0.172384 1.08629e-24)
(1.02124 0.19349 0)
(0.955737 0.117411 4.83294e-27)
(0.97432 0.1474 -5.10998e-27)
(0.933527 0.0429439 -5.31092e-27)
(0.942454 0.0821588 5.61639e-27)
(0.92151 -0.0365725 -1.49152e-24)
(0.926989 0.002662 0)
(0.920834 -0.108334 5.72443e-27)
(0.918671 -0.0735294 -6.05621e-27)
(0.948259 -0.174635 2.59802e-24)
(0.930492 -0.141365 5.85997e-27)
(1.00596 -0.250191 0)
(0.973764 -0.210185 0)
(1.09 -0.330187 2.43661e-24)
(1.04432 -0.292765 -1.68883e-28)
(1.21385 -0.319497 -3.28514e-27)
(1.14574 -0.345523 3.47887e-27)
(1.35562 -0.131231 9.84785e-25)
(1.2886 -0.243798 0)
(1.4085 0.0920803 -8.0485e-25)
(1.39791 -0.0109906 0)
(1.35651 0.210569 -4.65473e-25)
(1.3912 0.165427 0)
(1.27012 0.245294 8.53338e-28)
(1.31387 0.234759 -9.04888e-28)
(1.19037 0.245357 0)
(1.22834 0.247958 0)
(1.12333 0.233328 1.39074e-22)
(1.15552 0.240519 1.49604e-22)
(1.06743 0.212584 -7.05829e-22)
(1.09378 0.224185 3.72632e-22)
(1.04353 0.199703 0)
(0.944278 0.160513 -1.29927e-22)
(0.960621 0.135367 8.47051e-22)
(0.914843 0.206661 0)
(0.929145 0.184782 1.27581e-22)
(0.896724 0.245215 2.01419e-25)
(0.903538 0.226212 0)
(0.900232 0.280101 -1.39134e-25)
(0.895212 0.262793 -9.63486e-28)
(0.930919 0.311356 0)
(0.91201 0.296247 0)
(0.991058 0.337286 0)
(0.957277 0.325374 0)
(1.07814 0.353272 -4.15549e-26)
(1.03172 0.347164 0)
(1.17682 0.352604 0)
(1.12782 0.355725 0)
(1.26197 0.328939 8.25403e-22)
(1.2227 0.343608 -5.30498e-22)
(1.29249 0.308447 -1.90374e-22)
(1.38033 0.18979 0)
(1.33104 0.162566 -8.84213e-23)
(1.02414 -0.105063 2.268e-21)
(1.04257 -0.0888894 -1.87796e-21)
(1.0048 0.647048 3.7989e-27)
(0.915964 0.666939 1.45191e-26)
(1.23784 0.281569 -7.32589e-22)
(1.2764 0.269688 3.39742e-22)
(1.08875 0.641104 -3.14476e-24)
(0.823701 0.621905 0)
(1.1837 0.627922 -1.1532e-23)
(0.698195 0.463824 -2.43004e-25)
(1.28638 0.583266 0)
(0.554099 0.218374 0)
(1.37549 0.512716 -2.35886e-22)
(0.475438 -0.0142108 2.81106e-23)
(1.43158 0.41939 0)
(0.624963 -0.066968 6.42609e-22)
(1.45097 0.316716 1.73628e-21)
(0.844552 -0.0464601 0)
(1.43839 0.222817 -1.16195e-21)
(0.934278 -0.0905037 2.18471e-21)
(1.34867 0.130464 2.39387e-22)
(1.40304 0.149046 -7.03183e-22)
(0.997155 -0.124862 -2.5059e-21)
(1.30362 0.115981 -2.44057e-23)
(1.31241 0.0884265 1.60561e-23)