/*--------------------------------*- C++ -*----------------------------------*\
  =========                 |
  \\      /  F ield         | OpenFOAM: The Open Source CFD Toolbox
   \\    /   O peration     | Website:  https://openfoam.org
    \\  /    A nd           | Version:  10
     \\/     M anipulation  |
\*---------------------------------------------------------------------------*/
FoamFile
{
    format      ascii;
    class       surfaceScalarField;
    location    "6";
    object      phi;
}
// * * * * * * * * * * * * * * * * * * * * * * * * * * * * * * * * * * * * * //

dimensions      [0 3 -1 0 0 0 0];

internalField   nonuniform List<scalar> 
17221
(
0.0840442
-0.0256401
-0.069994
0.01159
0.00160733
0.0765465
0.00589032
0.0654693
-0.0193889
-0.0717205
0.0864583
-0.00955136
-0.0783102
0.00140329
0.0156629
0.0770955
-0.00630017
0.0733572
0.018694
-0.0763882
-0.000448709
-0.00353227
0.0699037
-0.0659227
-0.00797753
-0.0678915
0.0754203
0.00233973
-0.042341
0.00776993
0.0322313
-0.0425065
0.00879564
0.0360506
0.00196168
0.0438106
-0.0517525
0.00598015
-0.0486501
0.0506118
-0.000436257
0.0609097
-0.06148
0.00100652
0.0607142
0.00378239
-0.0649328
0.0450228
0.0516395
-0.0203452
-0.0763171
0.0370277
-0.0265052
0.0345003
0.0165195
0.0614167
-0.0730211
-0.00491514
0.00768917
0.0533809
-0.0445506
-0.0463211
-0.00956909
0.0635793
-0.0287983
-0.060403
0.0727158
0.0164855
-0.0658525
0.00239802
0.0346562
0.0438221
0.0447527
-0.0504095
-0.0381653
0.0993311
-0.0647689
0.00925992
-0.0293112
0.0113007
0.0834798
-0.11151
-0.058837
0.0839786
0.0863683
-0.0473359
0.0301693
-0.0943432
0.0995063
-0.0954975
-0.0513448
0.0857675
-0.0450982
-0.0296487
-0.0562299
0.0145805
0.0712981
-0.0129491
-0.0578561
0.0411565
-0.0611646
0.00320191
0.0450136
-0.0947409
0.00304215
0.0678789
0.0238199
0.023708
-0.0945754
-0.0238734
0.114801
0.0241967
-0.11529
0.0154091
0.102434
0.066508
-0.000102881
-0.01907
-0.0473351
0.0115936
0.0672909
-0.0123766
-0.041812
0.0410556
0.0639292
-0.0631729
0.102456
-0.0792998
-0.0248875
0.00173093
0.0713229
-0.0106785
0.0348835
0.0938442
-0.0376912
0.0238373
0.0120826
-0.0163092
0.00422662
0.0101704
-0.012778
0.0146903
0.0905395
-0.042149
-0.0483904
-0.0584961
0.047685
0.101351
0.00335297
-0.00371492
-0.00415638
0.00451833
-0.00295229
0.00124107
0.00506419
-0.00531784
-0.00134937
0.0431794
0.067806
-0.0654394
-0.0455459
0.0539323
-0.0723038
0.0615509
-0.0320432
0.0464617
0.0395138
-0.0217947
0.0575575
-0.0843276
0.0153518
0.0693533
-0.000377578
-0.0746253
-0.00815928
-0.00154298
-0.00853096
-0.0663809
0.000286524
-0.0658636
0.00361001
0.0680693
-0.00581573
0.00815557
-0.0708163
-0.00320289
-0.0545892
0.0591745
-0.00996493
0.00537965
0.0167909
-0.0677701
-0.0749437
-0.00806661
0.0696459
0.0133645
-0.00915435
-0.0735391
0.0077498
0.0748732
-0.0144869
-0.0667074
0.00632103
-0.00986719
0.075586
0.00651339
-0.0584533
0.00303949
0.0489004
0.0635018
-0.000304653
-0.0566837
0.070044
-0.0100745
-0.0964422
0.00226756
0.0347273
0.0594473
-0.00249708
-0.102937
0.00899154
-0.000589746
0.0974237
-0.00967271
-0.0582953
0.00656777
0.0614002
-0.0629192
0.0605989
-0.00735246
0.0120866
-0.0643338
-0.00604806
-0.0637055
0.00691723
0.0688748
0.0142881
0.0594918
-0.0137259
-0.060054
0.0583078
-0.0616922
0.0176724
-0.0147451
0.0607873
0.0134496
-0.0129356
0.0590599
-0.0608694
0.0247824
-0.0829663
-0.0686385
-0.000932326
-0.000222508
0.0697933
-0.0750007
0.0125813
-0.00621911
-0.0027777
-0.0573078
0.000598964
0.0594865
-0.0565803
0.0594154
-0.00561278
0.0869882
-0.0729925
0.0107866
0.0899964
0.00598334
0.0728751
-0.00675486
0.0581636
-0.0562765
0.00486773
0.05603
-0.00757195
-0.0552129
0.00294541
0.057339
-0.059117
-0.00116746
0.0574641
0.00256463
-0.0570833
0.083774
-0.0522207
-0.0400843
0.0720172
0.00359759
-0.00119249
-0.0013947
-0.0637937
0.0262381
0.0772587
-0.0312954
-0.0722014
0.0213137
0.0754844
-0.0705601
-0.0483655
-0.0174279
0.0547237
0.0110698
-0.00637204
0.0395086
-0.0815021
0.0589551
0.00454036
-0.0698674
0.0440943
-0.0025672
-0.00974606
-0.0623502
0.0711533
0.000942987
-0.0365802
0.0815578
0.0669694
0.00528001
-0.00741965
-0.0648298
0.00714125
0.0685792
-0.00875105
0.062307
-0.00194817
0.000355325
0.0618137
-0.000683442
0.00117676
0.0628982
-0.00020998
-0.000874555
0.0616168
0.00146539
-0.00018391
0.0637578
-0.0022116
7.05239e-05
0.0631381
0.000746638
-0.000126947
0.0643072
-0.00136142
0.000192356
0.0639993
-0.000358591
0.000666478
0.0646905
-0.000653086
-3.80423e-05
0.0635396
0.00026946
0.000881441
0.0645277
-0.000458626
-0.000529558
0.0650183
0.000401219
-0.000891816
0.0645672
-0.000438469
0.000889559
0.064552
-0.000416952
0.000432161
-0.00141098
0.0654852
0.00047779
0.0647354
-0.0642282
-0.00191816
-0.00243627
0.00421601
-0.00203464
0.0649294
-0.0646961
-0.000671745
0.000284177
0.0647359
-0.0650406
-0.000153859
0.000441
0.0644095
-0.0642679
-0.000794681
-0.00036164
0.0643492
-0.065237
-0.000473595
-0.000277302
0.0638664
-0.0653057
-0.000772315
-0.000624012
0.0631684
-0.0627568
-0.000621641
-0.00067185
0.0628124
-0.065035
0.000274413
-0.000627848
-0.00207807
-0.0616114
0.0622748
0.000513316
-0.000346332
-0.0628816
0.0632376
-0.000539889
-0.00148134
-0.0629728
0.0627474
9.85084e-05
0.000335307
-0.0639949
0.0637902
0.000871152
-0.0010552
-0.0635844
0.0641035
0.000362303
0.000167825
-0.0651959
0.0643736
-6.95977e-05
-0.00162191
-0.0642629
0.0648938
-0.000198771
0.00100029
-0.0654832
0.0673939
0.00230534
-0.000111575
0.0667566
0.00755449
0.0132665
-0.0560288
0.0595532
0.00878054
0.0666621
-0.0640706
-0.00489669
0.0710789
0.00445828
0.00846044
-0.068075
0.00781651
0.0643575
-0.0658011
-0.000474498
-0.00174773
0.0654729
-0.0657757
-0.00036896
-4.40395e-05
0.0652475
-0.0649402
-0.000461197
-8.72015e-05
0.0656963
-0.0656178
-0.000873245
0.000394535
0.06519
-0.0652836
-0.000379966
-0.000705082
0.0651684
-0.0651721
-0.00076863
-0.000739192
0.0650551
-0.0645955
-0.00108131
-0.000788831
0.0647938
-0.0632864
-0.00123295
-0.000429576
0.0624425
-0.00433805
-0.00292199
0.00688983
-0.00919704
0.0689693
0.00609925
0.0718694
-0.0628623
0.0621157
0.00175312
0.00311784
-0.0620825
0.064064
-0.00146818
-0.000313157
-0.0632373
0.0632592
-0.00056182
-0.000654625
-0.0642831
0.0651386
-0.000756999
-0.000688597
-0.064301
0.0652138
-4.16227e-05
-0.000217572
-0.0656108
0.0661815
-0.000208407
-0.00022918
-0.0651672
0.0647535
0.000344088
-0.000607613
-0.0658346
0.065687
-5.11666e-05
-8.08523e-05
-0.0655235
0.0679889
-0.000160089
5.20036e-05
-0.0724832
0.0723494
0.00459208
0.00306022
0.0225751
0.0444677
-0.00644385
0.0747782
-0.0551403
0.00710097
0.0713477
0.00868574
-0.013162
-0.0663401
0.00221555
-0.0616048
-0.0680013
0.0694514
-0.00465303
-0.0752404
-0.00592287
0.0763753
-0.0463944
-0.00288898
0.0693971
-0.0604028
0.00756449
0.00527275
-0.00759895
-0.0528867
-0.0552458
0.00424212
0.0623262
-0.0650615
-0.00216137
-0.00542907
0.0662895
-0.0665475
-0.000216444
-0.000519773
0.0663853
-0.0664751
-0.000279182
-0.00020627
0.0662867
-0.0663752
-0.000372644
-0.000275582
0.0656085
-0.0659822
-0.000499585
-0.000372199
0.0661863
-0.0659401
-0.000626194
-0.000500899
0.0659647
-0.0658444
-0.000888881
-0.000714615
0.0657642
-0.0656969
-0.00114857
-0.000869093
0.0650242
-0.0648171
-0.00144008
-0.00110225
0.0663165
-0.0674304
-0.00322411
-0.00142259
-0.00379478
0.0692266
-0.0678771
0.00324259
0.0718156
0.0045119
-0.0565498
0.0602123
0.00120522
0.00293072
-0.00296544
-0.0552111
0.0569201
0.00280825
-0.0567976
0.00461245
-0.0618101
0.0648392
-0.00127604
0.00152003
-0.0655109
0.0650243
-0.00098159
-0.00098481
-0.0652529
0.0655757
-0.000884666
-0.000883173
-0.0655261
0.0654506
-0.000681514
-0.000639001
-0.0656615
0.0660754
-0.000455553
-0.000428452
-0.0661625
0.0662536
-0.000299525
-0.000316233
-0.0658556
0.0663928
-0.000193067
-0.000209625
-0.0664445
0.0665124
-0.000119059
-0.000132611
-0.0666512
0.0665728
-8.16619e-05
-8.68047e-05
0.00175594
-0.00313543
0.00273257
0.0693721
0.0687538
-0.00368135
0.00523673
0.0697923
0.0709207
-0.0605237
-0.0155896
0.00613566
-0.0568861
-0.0476528
-0.0431772
0.00757274
0.00353236
-0.0587579
-0.0565217
0.0209173
-0.0592202
7.72876e-05
0.00528012
0.0717723
0.000582092
-0.0564342
0.00386628
-0.0593354
-0.0554769
0.059267
-0.000981805
0.0026623
-0.00403206
-0.0554279
-0.0564799
0.00366527
-0.00146512
-0.0577781
0.00359706
-0.0569508
0.000964329
-0.0578164
0.000330362
0.000157694
-0.0579513
-0.0045232
0.00258428
-0.0558775
-0.0515832
0.0591941
-0.0121341
-0.00333788
-0.0112176
0.0662401
-0.0669894
-0.00141202
0.00159082
0.0667035
-0.0665946
-0.00032527
-0.000805735
0.0665717
-0.0665425
-0.000308381
-0.000229174
0.0665137
-0.0664767
-0.000409663
-0.000304401
0.0664402
-0.0663956
-0.000544139
-0.000408708
0.0663554
-0.0662617
-0.000719861
-0.000541125
0.0662676
-0.0662261
-0.000930421
-0.000708717
0.0661931
-0.0661705
-0.00117122
-0.000902056
0.06616
-0.066173
-0.00142713
-0.00111269
0.066257
-0.0677586
-0.00172253
-0.00133853
0.0687521
-0.0708524
-0.00255267
-0.00280132
0.075061
-0.0576458
0.00350212
-0.00171434
0.00187868
-0.0627548
0.064117
-0.000156972
0.0011246
-0.0658867
0.0657249
-0.00111421
-0.000249712
-0.0657687
0.0659083
-0.00112123
-0.00102858
-0.0658904
0.0659382
-0.000932463
-0.000865253
-0.0659985
0.0660398
-0.000722764
-0.000699345
-0.0661379
0.0662101
-0.000527743
-0.000526585
-0.0662703
0.0663378
-0.000367035
-0.000376414
-0.0663879
0.0664421
-0.000247263
-0.000259685
-0.0664845
0.0665292
-0.000163786
-0.000175006
-0.0665614
0.0663058
0.000173929
-0.000118973
-0.0679897
0.0701714
0.00106092
7.19611e-05
-0.0709363
0.0711113
0.0051052
0.00374695
0.00226782
-0.00128322
0.0684125
0.0697873
0.000471649
0.000940626
0.0679599
0.0679423
-0.00252069
0.00302146
0.0692915
0.0693406
-0.00495986
0.00474959
0.0713215
0.0698339
-0.0560754
0.00107977
0.000956446
0.00193893
0.0725102
-0.0700389
0.00263389
0.071831
0.00542873
-0.00152809
-0.0563712
6.96826e-05
-0.055808
-0.0730931
0.0617592
-0.00080023
0.00182912
-0.0232827
-0.00142173
-0.0553999
-0.000374596
-0.0564185
-0.000440801
-0.0549262
-0.00552034
-0.053695
0.0667164
-0.0664771
-0.000162004
-0.000501677
0.0649701
-0.0665203
0.000138125
8.3799e-05
0.0665634
-0.0666404
-0.000248189
-0.000762638
0.0666243
-0.0666042
-0.000328419
-0.00024534
0.0665856
-0.066563
-0.000432241
-0.000323083
0.0665433
-0.0665217
-0.000565827
-0.000428348
0.0665052
-0.0664935
-0.000731538
-0.000557601
0.0664897
-0.0664934
-0.000926689
-0.000712548
0.0665089
-0.0665453
-0.00113485
-0.000886543
0.0665943
-0.0666777
-0.00134372
-0.00106366
0.0667682
-0.0669135
-0.00157723
-0.00124804
0.0681985
-0.0690936
-0.0016576
-0.00151634
0.068976
-0.0655324
5.84661e-05
-0.00183187
-0.00189453
-0.058332
0.0599519
0.000319004
0.0145866
-0.00164742
-0.0720561
0.0588186
-0.0389607
-0.00527127
-0.000680835
-0.0638216
0.0632811
-0.000441297
-0.000204433
-0.0651412
0.0656541
-0.000669861
-0.000735554
-0.0661651
0.0662849
-0.00123395
-0.000760747
-0.0662525
0.0662305
-0.00109926
-0.000996197
-0.0662239
0.0662236
-0.000932188
-0.000858606
-0.0662364
0.0662636
-0.000750024
-0.000712107
-0.0662942
0.0663344
-0.000567927
-0.000557168
-0.0663711
0.0664157
-0.000411601
-0.000413146
-0.0664522
0.0664941
-0.000289172
-0.000296218
-0.0665272
0.0665639
-0.000200503
-0.000208032
-0.0665982
0.0666962
7.59961e-05
-0.000153313
-0.0668063
0.0680322
-0.000164899
-3.82103e-05
0.00174024
-0.00297727
0.00478678
0.0678363
0.000255266
0.000430554
0.0677267
0.0670653
-0.0016683
0.000713318
0.0689148
0.0667045
-0.00179728
0.00256519
0.0685236
0.0682566
-0.00290403
0.00406974
0.0701558
0.069495
0.00601789
0.0698829
-0.0575338
0.0582038
-0.081002
0.0361627
-0.0165933
0.0795838
0.0279855
-0.0348104
-0.0321358
-0.0690261
-0.0042262
0.000274881
-0.0580678
-5.28713e-05
-0.0561297
0.00363031
-0.0564655
-0.000132726
-0.0567266
-0.0706816
-0.0025101
0.0711741
0.00201759
0.00178034
-0.0605111
0.000626783
-0.0610733
0.00301549
-0.0470862
-0.00123345
-0.0789668
0.0384303
-0.0188608
-0.0769321
0.0122684
0.0677069
-0.0664286
-0.00144028
-0.00182082
0.0667879
-0.0662292
-0.000420653
0.000443097
0.0665696
-0.0666819
-0.000135927
-0.000422179
0.0666714
-0.0666577
-0.000342142
-0.000255795
0.0666461
-0.0666336
-0.000444783
-0.000334692
0.0666248
-0.0666182
-0.000572477
-0.000437077
0.0666175
-0.0666252
-0.000723846
-0.000558303
0.0666408
-0.0666722
-0.000895298
-0.000696911
0.0667128
-0.06678
-0.00106764
-0.000845913
0.0668569
-0.0669733
-0.00122739
-0.000986742
0.0670983
-0.06728
-0.00139549
-0.00112303
0.0675137
-0.067535
-0.00163627
-0.00128266
0.0678137
-0.0656714
-0.00208382
-0.00155322
0.0667309
-0.0668094
-0.00072174
-0.000834989
0.0607786
-0.0720473
-0.00907652
-0.00420171
-0.0557547
0.060328
-0.00984455
-0.0778545
-0.0127106
-0.0610208
0.0624431
-0.00110332
-0.00137363
-0.0641281
0.0655129
-0.00182605
-0.00188946
-0.0657007
0.0663683
-0.00133741
-0.000923402
-0.0666798
0.0666335
-0.00118771
-0.00107225
-0.0665703
0.0665075
-0.00103645
-0.000933003
-0.0664669
0.0664334
-0.000898706
-0.000817975
-0.0664188
0.0664152
-0.000746458
-0.000697459
-0.0664218
0.0664389
-0.000585055
-0.000563776
-0.0664587
0.0664865
-0.000439452
-0.000432891
-0.066512
0.0665432
-0.000320414
-0.000321657
-0.0665689
0.0665981
-0.00022967
-0.000233702
-0.0666162
0.0668595
-0.000167303
-0.000171408
-0.0669482
0.066679
0.000104247
-0.000126915
-0.0681003
0.0714479
-0.000713701
0.000318956
-5.54867e-05
-0.0139237
0.011014
-0.0734073
-0.0739379
-0.0120331
-0.00048409
0.000152116
0.0681683
-0.0193638
-0.0020326
0.0598267
0.0597359
-0.000286347
0.0009301
0.0670829
0.066931
-1.91799e-05
8.3759e-06
0.0689256
0.0676154
-0.00156527
0.00117172
0.0689171
0.0666997
-0.00151551
0.00262714
0.0690442
0.0691512
0.0699999
-0.0573118
0.00138105
-0.0558186
-0.000222417
-0.05604
0.00140661
-0.000432366
0.0701998
-0.0655759
0.0107952
0.0670491
0.00010546
0.0703679
-0.0690667
0.00255986
-0.0572451
0.0009921
-0.0570919
0.00142977
-0.0589253
0.00089177
-0.0631986
-0.00364743
-0.0755745
0.00120801
-0.0691608
-0.00997663
0.00460071
-0.0724786
0.0115166
-0.00886267
-0.0765918
0.0109401
-0.0728309
-0.053871
-0.00546937
0.000632759
0.0597929
0.012018
-0.0105696
-0.0620418
0.0605934
0.0649711
-0.0659722
-0.00322508
-0.00776075
0.0670362
-0.0673814
-0.00109507
-0.000756799
0.066424
-0.0666337
-0.000210988
-0.000514289
0.0668533
-0.0667196
-0.000269656
-0.00020251
0.0667125
-0.0667034
-0.000351162
-0.000262951
0.0666966
-0.0666907
-0.000450608
-0.000341561
0.0666888
-0.0666914
-0.000569859
-0.000439013
0.0666996
-0.0667181
-0.000705262
-0.000550172
0.0667437
-0.0667877
-0.000851353
-0.000671306
0.0668388
-0.0669168
-0.000989607
-0.000794842
0.067001
-0.0671232
-0.00110514
-0.000902562
0.0672499
-0.0674248
-0.00122068
-0.000996313
0.0675909
-0.0678115
-0.00141564
-0.00111655
0.0679979
-0.0682143
-0.00186742
-0.00136685
0.0680814
-0.0665275
-0.0022756
-0.000967883
0.0660845
-0.0691254
-0.00603568
-0.00464469
0.0737598
-0.0750021
-0.00762038
-0.00739866
-0.0122274
0.0113129
-0.0756772
0.0875951
0.0188671
-0.0579459
-0.0485163
0.000365569
-0.0669485
0.0632583
-0.00615441
0.0713254
-0.0727819
-0.00852012
-0.00833367
-0.0660724
0.0673328
-0.00236373
-0.00418763
-0.0670476
0.0667852
-0.00156368
-0.00160431
-0.0670362
0.0669947
-0.00129591
-0.00117438
-0.0669118
0.0668112
-0.00108716
-0.000989307
-0.0667407
0.0666686
-0.000964344
-0.000862454
-0.0666192
0.0665743
-0.000853717
-0.000768638
-0.0665478
0.0665289
-0.00072753
-0.000670999
-0.0665225
0.0665247
-0.000587265
-0.000557406
-0.066533
0.0665488
-0.000455267
-0.000441213
-0.0665657
0.0665884
-0.000343147
-0.000338529
-0.0666089
0.0666337
-0.000254464
-0.000254113
-0.0666524
0.0666735
-0.000188456
-0.000190145
-0.0666887
0.0669268
-0.000133824
-0.0001421
-0.0673482
0.0668994
-0.00026486
-0.000102487
0.001268
0.003466
0.000809712
0.0638926
0.0638347
-0.000991287
-0.000881198
0.0689554
0.0667494
-1.21155e-05
2.99492e-06
0.0689348
0.0667221
4.91087e-06
-1.21932e-05
0.0689244
0.0667076
-0.000837862
0.00156806
0.068314
0.0683012
0.0711356
-0.0561531
-0.0599472
-0.00210253
0.0710358
-0.0660811
0.00584043
0.0689649
0.00217638
0.00173883
-0.0549976
-0.000435212
-0.0546127
0.0018899
-0.0577052
0.000895794
-0.0570959
0.00168402
-0.0642568
0.00384182
-0.0658324
0.000888158
-0.071862
0.00953256
-0.0729392
-0.00937534
0.0106429
-0.0735889
0.00781068
-0.0660314
0.00859076
-0.0701088
0.0123695
-0.0691797
0.0145855
-0.0605134
-0.0579522
0.0710711
-0.00104182
-0.0120771
-0.0618282
-0.00669353
0.0109432
-0.010748
-0.0622369
0.0649094
-0.0660141
-0.00212042
-0.00279853
0.0661012
-0.0665734
-0.000622832
-0.000669684
0.066755
-0.066757
-0.000208984
-0.000332685
0.0667564
-0.0667521
-0.000273963
-0.000203076
0.0667481
-0.0667428
-0.000356512
-0.000266986
0.0667393
-0.0667379
-0.000451937
-0.000345056
0.0667401
-0.066748
-0.000561967
-0.000436797
0.0667607
-0.0667846
-0.000681376
-0.000537468
0.0668144
-0.0668621
-0.000803639
-0.00064152
0.0669147
-0.0669914
-0.000912948
-0.000742268
0.0670708
-0.0671823
-0.000993648
-0.000823129
0.0672941
-0.0674438
-0.00107096
-0.000884508
0.0675852
-0.0677608
-0.00124004
-0.000975166
0.067913
-0.0680937
-0.0016867
-0.00121468
0.0672774
-0.0669124
-0.00264058
-0.0017842
0.0686515
-0.0700916
-0.00459552
-0.00290558
0.0716013
-0.0746866
-0.00453504
-0.00588905
-0.00324992
-0.0717609
0.0706656
-0.00742483
-0.0111812
0.0114852
-0.0732432
0.0731397
-0.073139
-0.0111819
-0.00799649
-0.0688224
0.0672985
-0.00463051
-0.00649048
-0.0668608
0.0671234
-0.00262634
-0.00374999
-0.067103
0.067163
-0.00162374
-0.00158385
-0.0671329
0.0670314
-0.00119442
-0.0011442
-0.066958
0.066878
-0.00100719
-0.000915961
-0.0668177
0.0667551
-0.00090175
-0.000802071
-0.0667108
0.066668
-0.000810921
-0.000724403
-0.0666402
0.0666164
-0.000703701
-0.000643145
-0.0666039
0.0665973
-0.000580695
-0.000544928
-0.0665979
0.0666051
-0.000462385
-0.000441856
-0.0666154
0.0666317
-0.000359466
-0.000348873
-0.0666476
0.0666673
-0.000274191
-0.000269992
-0.0666836
0.0667007
-0.000205601
-0.000206412
-0.0667115
0.066724
-0.000146341
-0.000152832
-0.066764
0.0658274
0.000671766
-0.000142525
0.00101435
-0.0046483
0.00247634
0.0619648
0.00660138
-0.00548945
0.0583035
0.0614396
-0.0011058
2.75134e-05
0.0649709
0.0652052
-2.30724e-05
1.58811e-05
0.0689626
0.0667539
-8.90638e-06
1.53814e-06
0.0689421
0.0667291
5.41355e-06
-1.14916e-05
0.0689305
0.0667146
-0.00032084
0.00076218
0.0678727
0.0679688
-0.00133874
0.00160387
0.0699347
0.0705591
-0.00238482
0.0695784
0.00177134
0.0695869
-0.0548495
0.00219336
-0.055301
-0.000723943
-0.052993
0.00273052
-0.0587517
0.000815578
-0.0540697
0.00308798
-0.0025539
0.0690443
0.0692668
-0.0703367
0.00284124
0.0689473
0.00340748
0.00440244
-0.0677711
0.00762999
-0.068849
0.00984954
-0.0719532
0.0129142
-0.0731074
-0.0129457
0.012489
-0.072818
-0.0594581
0.00143639
0.00699531
-0.0644359
0.00797142
-0.0657107
0.00905325
-0.0636474
0.0102698
-0.05984
0.0569385
-0.0614763
-0.000951637
-0.0629887
-0.00958755
-0.0108147
0.00833761
-0.0597599
-0.00806738
-0.065736
-0.00829273
0.00577077
0.0608255
0.0564906
-0.00784492
0.0638315
-0.0634727
-0.00246135
-0.00325754
0.0642257
-0.0656753
-0.000670738
-0.00204558
0.0661405
-0.0666015
-0.00016184
-0.000204543
0.0667798
-0.0667828
-0.000205999
-0.000154369
0.0667836
-0.0667821
-0.000275455
-0.000202291
0.06678
-0.0667778
-0.00035877
-0.000269038
0.0667772
-0.0667792
-0.000449947
-0.00034563
0.0667842
-0.0667953
-0.000550852
-0.000431758
0.0668106
-0.0668371
-0.000654913
-0.00052218
0.0668682
-0.0669156
-0.000756219
-0.000610397
0.0669656
-0.0670354
-0.000843089
-0.000692315
0.0671051
-0.0671996
-0.000899187
-0.000753467
0.0672914
-0.0674115
-0.000950898
-0.00079263
0.0675222
-0.0676568
-0.00110537
-0.000864497
0.0677732
-0.067909
-0.00155094
-0.00109828
0.0680211
-0.0681784
-0.00248327
-0.00167212
0.0683736
-0.0690814
-0.00388775
-0.00271031
0.0704329
-0.0696049
-0.0053631
-0.00453756
0.0675139
-0.0641198
-0.00443598
-0.00534084
0.064222
-0.0645315
-0.00927807
-0.00659127
-0.0730065
0.0714908
-0.00966618
-0.0124817
0.0143005
-0.0749262
0.0735107
-0.0739486
-0.0120438
-0.0124414
-0.0701653
0.0697483
-0.00700785
-0.00667105
-0.0688921
0.0684056
-0.00414396
-0.0056343
-0.0673644
0.0671769
-0.00243881
-0.00270879
-0.0672046
0.0671248
-0.00154388
-0.00161161
-0.0670717
0.0670055
-0.00112822
-0.00109118
-0.0669526
0.0668953
-0.000949836
-0.00086305
-0.0668514
0.066805
-0.000855294
-0.000758228
-0.066771
0.0667362
-0.000776194
-0.000690403
-0.0667118
0.0666882
-0.00068015
-0.000618655
-0.0666734
0.0666618
-0.000569165
-0.00053008
-0.0666574
0.0666582
-0.000463204
-0.000437381
-0.0666635
0.0666745
-0.000370518
-0.000354189
-0.0666863
0.0667018
-0.000289704
-0.000281764
-0.0667144
0.0667278
-0.000219044
-0.000218987
-0.0667435
0.0668868
-0.000289575
-0.000168506
-0.0663672
0.0664515
0.000587514
0.000376982
-0.0668261
0.0700358
0.00263076
0.000639718
0.0018755
-0.0045334
0.00362061
0.0628776
0.062677
-0.0016166
2.3307e-05
0.0665642
0.0672092
-1.97076e-05
1.53966e-05
0.0689669
0.0667575
-1.04685e-05
4.93003e-06
0.0689477
0.066734
7.05063e-07
-6.05241e-06
0.0689359
0.0667202
-0.000245533
0.000907707
0.0672105
0.0677173
-0.0017463
0.00324146
0.0684395
0.0697205
0.0702745
-0.0533801
-0.0616341
-0.0109648
-0.0143745
0.00104722
-0.0524088
-0.039126
-0.0368826
0.00270625
-0.0552767
-0.00103798
-0.0511394
0.00288964
-0.00205677
0.0682115
0.00460887
0.067228
0.00464485
-0.0589941
0.00569096
-0.065832
0.00947099
-0.0684705
0.0122762
-0.0717405
0.0145052
-0.0730227
0.0142141
-0.0751227
-0.0130401
0.0143032
-0.0750153
-0.0562735
0.00381069
0.00471333
-0.0611779
0.00645762
-0.063115
0.00953328
-0.062911
0.00975344
-0.0612558
0.00475097
-0.0634636
-0.0128277
0.00741739
0.0662357
-0.0245611
0.0682241
0.0628814
-0.0637587
-7.43385e-05
-0.0693496
0.069039
0.0037181
-0.0702277
0.00371937
0.0465002
0.00853629
0.000675039
-0.0533083
0.0646375
-0.0657042
-0.00139462
-0.00237877
0.0661598
-0.0667099
-0.00012063
-0.00159003
0.0667914
-0.0667985
-0.000154684
-0.000123048
0.0668043
-0.0668074
-0.000202951
-0.000148561
0.0668088
-0.0668094
-0.000274817
-0.000200908
0.0668096
-0.0668104
-0.000358028
-0.000268812
0.0668123
-0.066817
-0.000445239
-0.000343725
0.0668242
-0.0668377
-0.000537353
-0.000424575
0.0668547
-0.0668826
-0.000627074
-0.000505114
0.0669137
-0.0669588
-0.000711034
-0.000579314
0.0670044
-0.0670653
-0.000782098
-0.000646801
0.0671237
-0.0671997
-0.000823116
-0.000695137
0.0672712
-0.0673617
-0.000860413
-0.000721183
0.0674427
-0.0675396
-0.00100847
-0.000783498
0.0676231
-0.0677234
-0.00145058
-0.0010148
0.0678164
-0.0679343
-0.00236533
-0.00157913
0.0680378
-0.0680762
-0.00384931
-0.00260691
0.0685698
-0.0682731
-0.00565985
-0.00404392
0.0680219
-0.066619
-0.00583888
-0.00559205
0.0664138
-0.0670704
-0.00862145
-0.00679647
-0.00673552
-0.0847992
0.0630286
-0.0829338
-0.0169774
-0.0150066
-0.074015
0.0729499
-0.0109787
-0.0140334
0.0155638
-0.0766531
0.0747243
-0.0760335
-0.0127241
-0.0123308
-0.0707377
0.0689041
-0.00783259
-0.0102293
-0.0696047
0.0687079
-0.00611105
-0.00737159
-0.0675505
0.0673162
-0.00390965
-0.00447692
-0.0671927
0.0671267
-0.00237282
-0.00258529
-0.0670838
0.0670365
-0.00149659
-0.00156868
-0.0670013
0.0669629
-0.0010898
-0.001056
-0.0669318
0.0668972
-0.000915226
-0.000831969
-0.0668702
0.0668404
-0.000825487
-0.000731225
-0.0668172
0.0667914
-0.000750409
-0.000667176
-0.0667714
0.0667499
-0.000658701
-0.000598635
-0.0667346
0.0667207
-0.000555231
-0.000514808
-0.0667132
0.0667098
-0.000459787
-0.000429889
-0.0667113
0.0667178
-0.000376983
-0.000355727
-0.0667257
0.0667366
-0.000300612
-0.000289635
-0.066745
0.0667533
-0.000227331
-0.000227405
-0.0667536
0.0666222
-0.000158199
-0.000168811
-0.0671202
0.0673047
0.000403087
-0.000121026
-0.0677281
0.06958
0.000778889
0.000216291
0.00122772
-0.00460132
0.00193847
0.0655405
0.065493
-0.0011802
0.000921276
0.0668231
0.0679675
-2.17628e-05
1.93715e-05
0.0689693
0.067657
-1.63806e-05
1.26385e-05
0.0689514
0.066737
-8.28205e-06
3.32677e-06
0.0689408
0.0667246
-0.00100507
-0.000719269
0.0689348
0.0667155
-0.000705834
0.00126347
0.0678819
0.0682954
0.0694812
-0.0517118
0.0078656
0.0657823
0.00327003
-0.0539019
0.00544439
-0.0587475
0.00829098
-0.064652
0.0112791
-0.0674734
0.0133176
-0.0705529
0.015282
-0.0740016
-0.0544755
0.00291537
0.00523782
-0.0599581
0.00725151
-0.0608333
0.00850354
-0.061661
0.0159541
-0.0754056
0.0148484
-0.0773991
-0.0134828
0.017992
-0.0797966
0.00686481
-0.0633697
0.00262465
-0.0728238
0.00918923
-0.07838
-0.013743
-0.0530616
-0.00139575
-0.0490686
0.00332528
-0.0789353
0.000617028
-0.0501147
-0.0114685
0.0519318
0.00431156
-0.0447748
0.063782
-0.0645628
0.00070648
0.0192567
0.0655023
-0.0659515
-0.000945404
-0.00143932
0.066807
-0.0668074
-0.000120236
-0.000734516
0.0668181
-0.0668238
-0.000148997
-0.000112294
0.0668275
-0.0668308
-0.000199658
-0.000144901
0.0668328
-0.0668351
-0.000272525
-0.000198899
0.0668373
-0.0668405
-0.000354773
-0.000266638
0.0668444
-0.0668513
-0.000438373
-0.000339838
0.0668602
-0.0668755
-0.000521992
-0.000415681
0.0668938
-0.0669219
-0.000598904
-0.000486867
0.0669518
-0.0669931
-0.000669668
-0.000549473
0.067033
-0.0670842
-0.000730864
-0.000606925
0.0671311
-0.0671895
-0.000764783
-0.000648264
0.0672416
-0.0673046
-0.000797465
-0.000669011
0.0673585
-0.0674213
-0.000945693
-0.000729561
0.0674756
-0.0675446
-0.00138162
-0.000960466
0.0676133
-0.0677104
-0.00226824
-0.00151038
0.0678201
-0.0679913
-0.00367812
-0.00249721
0.0681604
-0.0684263
-0.00539396
-0.00387484
0.0686906
-0.067756
-0.00677343
-0.00532779
0.0675135
-0.0677136
-0.00842134
-0.00703898
0.0724186
-0.0777716
-0.0116244
-0.0103016
-0.0130742
0.0148247
-0.0801305
0.0783939
-0.0787154
-0.0127527
-0.0131207
-0.0763612
0.0741333
-0.0104962
-0.0148032
0.0175146
-0.0801106
0.0776411
-0.0785738
-0.0138704
-0.012203
-0.0730405
0.0722738
-0.0102121
-0.011238
-0.0697047
0.0697322
-0.00786008
-0.00766011
-0.0680898
0.0677601
-0.00578135
-0.00572924
-0.0672652
0.0671618
-0.00380632
-0.00398198
-0.0670798
0.0670211
-0.00231406
-0.00250328
-0.0669892
0.0669631
-0.00147047
-0.00153679
-0.0669458
0.0669285
-0.00107256
-0.00103872
-0.0669151
0.0668995
-0.000899595
-0.000818552
-0.0668863
0.0668699
-0.000809096
-0.000718062
-0.0668552
0.0668365
-0.00073166
-0.000652471
-0.0668202
0.0668013
-0.00063975
-0.000582377
-0.0667869
0.0667729
-0.000541239
-0.000500429
-0.0667646
0.0667592
-0.000454401
-0.000421569
-0.0667583
0.0667608
-0.000379512
-0.000354842
-0.0667649
0.0667705
-0.000306209
-0.000293671
-0.0667749
0.0667793
-0.000231728
-0.000231804
-0.0667804
0.0667817
-0.000159446
-0.000169996
-0.0667756
0.0672772
-9.84556e-05
-0.000114984
-0.0675005
0.0676183
0.000661034
-6.97761e-06
-0.0692084
0.0695638
0.00336398
-0.000362351
-0.0689043
0.0611077
0.0156622
0.0043776
-0.00762216
0.00465223
0.0692057
0.0731833
-0.00205594
0.000113561
0.0674829
0.0680893
-0.00130277
-0.000868488
0.0689944
0.0667783
-2.8045e-05
2.65751e-05
0.0689708
0.0667605
-2.49693e-05
2.24922e-05
0.0689539
0.0667386
-1.88857e-05
1.40936e-05
0.0689456
0.0667282
-9.48431e-06
5.44472e-06
0.0689389
0.0667201
-0.00158168
0.000515737
0.0689478
0.0667191
-0.00163129
0.0022822
0.0675605
0.0683656
-0.00311523
0.00760177
0.0612957
0.066395
0.0572409
-0.0498376
0.00387077
-0.0523283
0.0063402
-0.0567967
0.00868699
-0.06206
0.0117437
-0.0658995
0.0137016
-0.0689725
-0.0524823
0.00324465
0.00586128
-0.0585678
0.00811439
-0.0604441
0.0149499
-0.0729974
0.0162325
-0.0736461
0.016355
-0.0786371
0.00824609
-0.0630423
0.00756953
-0.0683146
0.00835528
-0.0778538
0.0156008
-0.0803587
-0.0138159
0.0141491
-0.0786588
0.0141507
-0.0782613
0.0144797
-0.0809871
-0.012208
0.0134305
-0.0790813
0.0214335
-0.0533232
0.0788839
-0.0469942
-0.0705938
0.000443225
0.0692182
-0.077216
0.000403121
0.00636612
0.0669991
-0.0017508
-0.0467008
-0.0504307
0.00141907
0.000517696
-0.047717
0.0646959
-0.064989
0.000999618
0.00673652
0.0654612
-0.0666971
0.0002905
-0.000967159
0.0668318
-0.0668391
-0.000112897
-0.000599781
0.0668443
-0.0668482
-0.000145162
-0.000107109
0.0668504
-0.0668528
-0.000197172
-0.000142695
0.066855
-0.0668583
-0.000269252
-0.000196693
0.0668617
-0.0668667
-0.000349817
-0.000263235
0.0668721
-0.0668808
-0.000429656
-0.00033444
0.0668913
-0.0669082
-0.000505028
-0.000405212
0.0669272
-0.0669547
-0.000571349
-0.000467923
0.0669824
-0.0670189
-0.000633109
-0.000521849
0.0670528
-0.0670949
-0.000688829
-0.000573019
0.0671317
-0.067175
-0.00072147
-0.000611421
0.0672109
-0.0672507
-0.000757735
-0.000633081
0.0672819
-0.0673162
-0.000911384
-0.00069836
0.0673463
-0.0673887
-0.00133932
-0.000930297
0.0674372
-0.0675182
-0.00218725
-0.0014618
0.0676188
-0.0677798
-0.00351715
-0.00239659
0.0679583
-0.0682105
-0.00514175
-0.00369631
0.0684575
-0.0685967
-0.00663418
-0.00508087
0.069264
-0.0702465
-0.00743886
-0.00637165
0.0729644
-0.0763654
-0.00822348
-0.00758367
0.0777199
-0.0791839
-0.0112888
-0.0117661
-0.0112964
0.0116967
-0.0813875
0.08037
-0.0807404
-0.0109259
-0.0110219
-0.0769748
0.0751394
-0.012035
-0.0150441
0.0143955
-0.0797101
0.0800274
-0.0818757
-0.0131958
-0.0107633
-0.0738123
0.0727283
-0.00941218
-0.0108759
-0.0701902
0.0687756
-0.00879749
-0.00869992
-0.0683709
0.0679152
-0.00740434
-0.00725538
-0.0676323
0.0673523
-0.00550138
-0.00544635
-0.0671957
0.0670514
-0.00366207
-0.00382533
-0.0669893
0.0669474
-0.00227207
-0.00244119
-0.0669272
0.0669157
-0.00145901
-0.00151664
-0.0669116
0.0669096
-0.00107053
-0.00103457
-0.0669084
0.066906
-0.00089721
-0.00081738
-0.0669022
0.0668944
-0.000801324
-0.000714227
-0.0668849
0.0668704
-0.000717147
-0.000642944
-0.0668567
0.0668403
-0.000623354
-0.00056868
-0.0668279
0.066816
-0.00052938
-0.000488055
-0.066809
0.0668038
-0.000449273
-0.000414478
-0.0668018
0.0668013
-0.000379007
-0.000352841
-0.0668017
0.0668021
-0.000306664
-0.000294044
-0.0668022
0.0668013
-0.000230831
-0.000231813
-0.0668005
0.0668001
-0.00015905
-0.000169187
-0.0667992
0.0667997
-9.90216e-05
-0.000114083
-0.0669421
0.0677341
-0.000130968
-0.000149361
-0.0665329
0.0684148
0.00148203
0.000838859
-0.0683568
0.0855978
-0.00157885
0.00443566
-0.00960772
-0.00221425
0.000223396
0.0711965
0.0707465
-0.00153908
2.55176e-05
0.0689964