/*--------------------------------*- C++ -*----------------------------------*\
  =========                 |
  \\      /  F ield         | OpenFOAM: The Open Source CFD Toolbox
   \\    /   O peration     | Website:  https://openfoam.org
    \\  /    A nd           | Version:  10
     \\/     M anipulation  |
\*---------------------------------------------------------------------------*/
FoamFile
{
    format      ascii;
    class       surfaceScalarField;
    location    "38";
    object      phi;
}
// * * * * * * * * * * * * * * * * * * * * * * * * * * * * * * * * * * * * * //

dimensions      [0 3 -1 0 0 0 0];

internalField   nonuniform List<scalar> 
12623
(
0.0981068
0.0241452
-0.0379942
-0.0842578
0.0768148
-0.0399049
0.0611969
0.101983
-0.0369867
-0.0947811
0.0297853
-0.0350485
0.105951
0.0310796
-0.101735
0.0280423
-0.0284057
0.102098
-0.098242
-0.0385416
-0.0044136
0.0480666
-0.0543017
0.0106487
-0.0583416
0.053928
0.0398374
-0.0108058
-0.0290315
0.0156045
-0.00613793
0.0303708
0.084581
-0.0393941
-0.0451869
-0.0579904
0.0461603
0.096411
-0.0273064
-0.0179421
0.0203149
0.0249335
0.00311197
0.00542362
-0.035842
-0.0236655
0.0088354
0.00242615
0.00135205
-0.00936545
0.00558725
0.00321174
-0.00785583
0.00707025
-0.00145333
0.00601712
0.00327844
-0.012437
-0.00277665
0.0119352
-0.0302263
0.0121606
0.0213441
-0.0308403
-0.011823
0.000890777
0.0155939
-0.0126519
-0.00383278
0.00516173
-0.00248636
-0.0017846
-0.0223081
0.0430637
-0.04275
0.00516988
0.0430038
0.0071842
-0.0485032
-0.00143104
-0.0551502
0.00547033
0.0548497
-0.0777155
0.0406332
-0.0421668
0.0792491
-0.076171
-0.0417633
0.0402187
-0.0799091
0.0809509
-0.0391078
0.038066
-0.0781073
0.0388315
-0.109742
0.0232228
-0.0212461
0.107765
-0.0282094
-0.104369
0.0228366
0.105784
-0.114905
0.00601968
-0.00419559
0.113081
-0.0121903
-0.110396
0.00768125
-0.114941
-0.0109225
0.113673
-0.107291
0.015573
0.108804
-0.00708987
-0.115215
0.0135002
0.00092478
0.0129429
0.0949368
-0.113872
-0.00262574
0.109408
-0.112671
0.00481826
0.0399405
-0.0400076
0.081018
-0.091996
0.0434388
-0.0434953
0.0920525
-0.0459855
-0.0865794
0.0405689
-0.0400266
-0.0952021
-0.0956114
-0.0375587
0.0946285
-0.0921992
-0.0181429
-0.0789719
0.0154084
0.0817065
0.0595506
0.00501633
-0.0827098
-0.0677687
0.0285705
0.0987488
-0.0163177
0.0956192
-0.0803411
0.00103956
-0.07907
0.0722447
0.0135525
-0.0115837
-0.0742135
0.0163981
0.0698702
-0.0140235
-0.0108424
0.00735823
0.0807366
-0.0772525
-0.083016
0.082704
-0.0105303
0.080287
-0.011316
0.0127636
-0.0817346
0.0692693
-0.0697648
-0.00631461
0.00681011
-0.0194349
0.0707043
0.0179998
-0.0711316
0.00804728
-0.00668049
-0.0725316
0.0217446
-0.0203446
-0.0748271
0.032122
-0.0298265
-0.0765552
0.0392247
-0.0374966
-0.0796389
0.0421674
-0.0390837
-0.0810284
0.0418059
-0.0404165
-0.0831778
0.041293
-0.0391435
0.0408169
-0.0839143
-0.0400804
0.0723707
-0.0725224
-0.0192832
-0.0283646
0.0711463
0.0279226
0.0738139
-0.0298078
-0.0730529
-0.00578406
-0.0738055
0.0087999
-0.0749896
0.0229287
-0.0766069
0.0337393
-0.0790061
0.0416239
-0.0800641
0.0432254
-0.0820492
0.0437911
-0.0822113
0.0414551
-0.0836174
0.0422229
0.0347442
0.0745008
-0.035431
0.0728392
0.0330512
0.0417712
-0.0851597
-0.0405258
-0.0831037
0.0412575
0.038306
0.0755334
-0.0393386
0.0733887
0.0377565
0.042686
-0.0843216
-0.0435241
-0.0830342
0.0426165
0.0409565
0.0755912
-0.0410143
0.0381743
0.0427227
-0.0843866
-0.0426577
-0.0803715
0.0400599
0.0765523
-0.0427244
-0.0451187
0.0795042
0.039636
-0.0435502
-0.0804723
0.0387041
-0.0794396
0.0779114
-0.0775259
-0.0413998
-0.0755834
0.0768687
-0.0464039
-0.0403965
0.0783895
-0.0782331
-0.0355874
-0.038475
0.0779619
-0.0774071
-0.019838
-0.0300791
0.0772945
-0.0767551
0.0082605
-0.00589663
0.0774457
-0.0781239
0.0344175
0.0236193
0.0792473
-0.0799819
0.04396
0.0427473
0.0806258
-0.0804127
0.041242
0.0444349
0.0793848
-0.0799096
0.0417823
0.041195
0.0783461
-0.0761784
0.0378922
0.041053
-0.0732986
0.0358243
-0.0875448
0.0847387
-0.040718
0.0853192
-0.0452353
-0.0836342
-0.0448833
-0.0846364
0.0816875
-0.0371315
-0.0404235
-0.0817905
0.0765272
-0.0351533
-0.0392465
-0.0759732
0.0709818
-0.0325053
-0.0385296
-0.0706652
0.0675404
-0.0172198
-0.0295099
-0.0681127
0.0678037
0.0071191
-0.00725275
-0.0694192
0.0708998
0.0264421
0.0163843
-0.0720445
0.0750323
0.0347688
0.0319065
-0.0754389
0.0375504
0.0377677
0.0409566
-0.0429895
0.0815371
0.0810979
-0.0397183
0.0735975
-0.0340182
-0.0694364
0.030156
-0.0396881
-0.0737697
-0.087157
0.0862835
-0.0443617
-0.0441135
0.0428554
-0.0823761
-0.0880893
-0.0431813
0.0212933
-0.0268809
-0.0638488
-0.0658385
0.0697215
0.0262729
0.0167086
-0.0612538
0.0854879
-0.0831359
0.035714
0.0740424
-0.0803723
-0.0400741
0.0764758
-0.0421517
0.0839175
0.041511
-0.077305
0.0811045
-0.0830919
-0.0394125
-0.0396642
0.0843935
-0.0837739
-0.036207
-0.0371734
0.0840463
-0.0822166
-0.0216676
-0.0298067
0.0805805
-0.0797333
0.00741332
-0.00753279
0.0787474
-0.0788613
0.0345314
0.0226334
0.0782291
-0.0787689
0.0444998
0.0421152
0.078215
-0.0783149
0.0413419
0.0438811
0.0772961
-0.0753376
0.0398238
0.0401762
0.0730888
-0.0722968
0.0371002
0.0388042
0.0332491
-0.0843099
0.0835304
-0.0399385
-0.0429097
-0.0813152
0.0799923
-0.0358086
-0.0382083
-0.0751633
0.0746108
-0.0346007
-0.0344175
-0.0688353
0.068727
-0.0323969
-0.0327541
-0.0647208
0.0655598
-0.0180588
-0.0255036
-0.0649253
0.067152
0.00489245
-0.00661833
-0.0687467
0.0706167
0.0245721
0.0147896
-0.0729779
0.0750376
0.0327091
0.0295453
-0.077411
0.0789635
0.0359979
0.0353943
0.034659
0.0403461
-0.035215
0.076406
0.0814363
0.0366241
0.0728831
-0.0330314
0.0750066
0.0398539
-0.0410595
-0.0868837
0.0370414
-0.0795636
-0.0328832
-0.0677674
-0.0627052
0.0655649
0.0234132
-0.0580062
0.0120096
-0.00950097
0.00461148
-0.0563643
-0.0144848
-0.0588649
-0.0930385
0.0927016
-0.0407226
-0.0328325
0.0292411
-0.0832923
-0.0917009
-0.0341701
0.0425206
-0.0397528
0.0782501
0.0824944
0.0439437
-0.0358158
0.0374216
0.0712772
0.070318
-0.0708654
-0.0324839
0.0711693
-0.0366671
-0.0847024
0.0402063
0.0860071
-0.0833033
0.0343149
-0.0731468
0.0771856
-0.0802067
-0.0370529
-0.0358316
0.0833728
-0.0868393
-0.035946
-0.0364982
0.0867682
-0.0878536
-0.0351216
-0.0372445
0.0878219
-0.0872106
-0.0222789
-0.0298384
0.0857122
-0.0846252
0.00632633
-0.0090312
0.083043
-0.0828933
0.0343818
0.0210511
0.0811589
-0.0812778
0.0446187
0.0403807
0.079437
-0.0792885
0.0411934
0.0420403
0.0766499
-0.0745848
0.0377587
0.0375376
0.0713502
-0.0692403
0.0349904
0.0355696
0.0295736
-0.091734
0.0886078
-0.0412355
-0.0422137
-0.0855816
0.0833318
-0.0376887
-0.0398835
-0.079895
0.0782903
-0.0342039
-0.0347715
-0.0746561
0.0718589
-0.0318036
-0.0307833
-0.0686612
0.0657663
-0.029502
-0.0295564
-0.0638881
0.0632123
-0.017383
-0.0236254
-0.0636841
0.0652926
0.00328391
-0.00709012
-0.0674364
0.0701589
0.0218496
0.0126458
-0.0733384
0.074207
0.0318404
0.0263658
-0.0774428
0.0806455
0.0327951
0.0321585
0.0320012
0.0404879
-0.0386139
0.0745321
0.0821714
0.0738143
-0.0542488
0.000854143
0.0251924
-0.0755149
-0.0197912
-0.062461
0.0186063
-0.0232893
-0.0870179
0.0135443
-0.0782303
0.0049851
-0.00878659
-0.0525628
0.000965141
-0.054845
-0.034909
0.0363869
0.0697993
-0.0339924
0.0702527
0.0461533
-0.0438448
0.0759417
0.0447701
0.0838776
0.0811359
-0.0800936
0.0332726
0.036793
0.0845492
0.0735962
-0.0741172
-0.0319629
0.0706981
-0.033769
-0.0519545
-0.0110809
0.0206284
-0.0210091
-0.0515738
0.0194528
-0.0513872
0.0858181
0.0441327
-0.0677456
0.0778122
-0.082571
-0.032294
-0.0321366
0.0865683
-0.0875559
-0.0349585
-0.0325009
0.0907541
-0.0916005
-0.0342753
-0.0340462
0.092187
-0.0918521
-0.0226138
-0.0292519
0.0907249
-0.0890388
0.00464024
-0.0101584
0.0873027
-0.0855632
0.0326423
0.019315
0.0839657
-0.0822962
0.0429492
0.0387832
0.0806709
-0.0788691
0.0393916
0.040415
0.0768205
-0.0741382
0.0350764
0.035489
0.0708991
-0.0669494
0.0310407
0.0323304
0.0633186
-0.0584938
0.0185884
0.0259429
0.0553515
-0.0533868
-0.00111055
0.00886731
0.0521799
-0.0549628
-0.0182262
-0.0122879
-0.0992429
0.0968115
-0.0382912
0.0984383
-0.0958285
-0.0258991
-0.0349748
-0.0940201
0.0908034
-0.0380187
-0.0394223
-0.0862438
0.0836996
-0.0351444
-0.0353239
-0.0805521
0.0779453
-0.0315971
-0.031624
-0.0753366
0.0721671
-0.0286341
-0.0281747
-0.0689099
0.0657382
-0.0263304
-0.0262992
-0.063596
0.0626206
-0.0164076
-0.0214832
-0.0629432
0.0644443
0.00178289
-0.00741277
-0.0666374
0.0694625
0.0190245
0.0104526
-0.0719431
0.0756574
0.0281261
0.0238853
-0.0772069
0.0790706
0.0309314
0.030609
0.0309783
0.037723
-0.0370538
0.073863
0.0760495
0.0731473
-0.0067183
0.000435709
-0.0807353
-0.0900391
-0.0125077
-0.0257007
0.028844
-0.0547172
-0.0593181
-0.0213454
0.00825378
-0.0702244
-0.00359469
-0.0579011
-0.0312239
0.0679296
0.0461263
0.0844619
0.0819097
-0.0809779
0.0323407
0.0839338
0.034769
-0.00545106
-0.0723436
0.0173779
-0.05277
-0.0128411
0.00535655
-0.0825546
-0.0197761
-0.0738003
0.0310236
-0.0535667
-0.0281092
0.0334201
-0.0600281
-0.0233921
-0.0640352
0.0871938
0.0414881
-0.0630865
0.0758185
-0.0789128
-0.0288686
-0.0716582
0.0687618
-0.0283275
-0.0296087
0.0822393
-0.0856187
-0.0289146
-0.0288101
0.0874964
-0.0902454
-0.0322095
-0.0306232
0.0927357
-0.0948787
-0.0321323
-0.0315559
0.0961644
-0.0963698
-0.0224085
-0.0279661
0.0953877
-0.0934484
0.00270089
-0.0111405
0.0911733
-0.0887945
0.0302634
0.01704
0.0865763
-0.0842875
0.0406603
0.0365651
0.0821053
-0.0798143
0.0371006
0.0382328
0.0773953
-0.0743861
0.0320672
0.03307
0.0708246
-0.0665223
0.0267384
0.0287688
0.0615786
-0.0577287
0.0147386
0.0209991
0.0546419
-0.0528551
-0.00289734
0.00578043
0.0548834
-0.0587342
-0.0143754
-0.0102595
0.063235
-0.0671172
-0.0195099
-0.0168446
-0.103821
0.105201
-0.027279
0.099595
-0.0926172
-0.00162122
-0.0167341
-0.102889
0.0996249
-0.035027
-0.0326624
-0.0944946
0.0912166
-0.0347407
-0.0342921
-0.0873172
0.0839315
-0.0317588
-0.0314245
-0.0810208
0.0782706
-0.0288469
-0.0287133
-0.075728
0.0727167
-0.0256228
-0.0256321
-0.0695439
0.0662789
-0.0230653
-0.0231264
-0.0638986
0.0626297
-0.0151387
-0.0191029
-0.0627321
0.0640902
0.000424876
-0.00751517
-0.0662689
0.0691883
0.0161051
0.00827389
-0.0725005
0.0747709
0.0258557
0.020573
-0.0777394
0.0799839
0.0286869
0.0276406
0.0299843
0.02258
-0.0308002
-0.0743344
-0.0837809
0.0137437
-0.0252292
0.028834
-0.06764
-0.0697264
-0.02262
0.0873346
0.0388425
0.0435668
-0.0431224
0.0840175
0.0874061
0.038001
-0.0392095
0.0771502
0.0787562
0.036712
-0.0344535
0.0716045
0.0735519
0.0324758
-0.0311644
0.0684879
0.0711696
0.0297905
-0.0280125
0.0661515
0.0688788
-0.0257594
0.0665087
-0.0106996
-0.0649758
0.0145559
-0.0550792
-0.0253326
-0.0667871
0.0317397
-0.0534862
-0.0369813
-0.0676192
0.0372702
-0.0574168
-0.0355931
0.0264105
-0.0745983
-0.042901
-0.0670265
0.0336961
-0.0648902
0.0281776
-0.0259673
-0.0719367
0.0307964
-0.0702587
0.0693814
-0.0720523
-0.0256566
0.0668438
-0.0232217
-0.0592302
0.075859
-0.0791481
-0.0255796
-0.025802
0.0831498
-0.0850814
-0.026983
-0.0248084
0.0885977
-0.0916715
-0.0291358
-0.0271068
0.0946124
-0.0973926
-0.0293521
-0.0286149
0.0993601
-0.100155
-0.0216135
-0.0259987
0.0994138
-0.0972218
0.000508963
-0.0118818
0.0943813
-0.0913136
0.0271956
0.0141994
0.0885978
-0.0859521
0.0380146
0.0338493
0.0834749
-0.0808546
0.0344804
0.0357556
0.078101
-0.0747186
0.0286849
0.0303164
0.0708062
-0.0662193
0.0221516
0.0248564
0.0617511
-0.0578194
0.0108069
0.0165309
0.0556253
-0.0557262
-0.00279647
0.00358633
0.0585035
-0.0621414
-0.0107375
-0.00748225
0.0652735
-0.0684176
-0.0163658
-0.0137125
0.0710995
-0.0743168
-0.02275
-0.0199381
-0.102427
0.108163
-0.00735678
0.0942699
-0.0854639
0.0176044
0.00558645
-0.109571
0.107828
-0.0255361
-0.018142
-0.103746
0.0999764
-0.0312573
-0.0285808
-0.0953013
0.0911845
-0.0306239
-0.0296169
-0.0876971
0.0843363
-0.028398
-0.0279371
-0.0814141
0.0786298
-0.0260625
-0.025791
-0.07618
0.0734371
-0.0228799
-0.0231824
-0.0705174
0.0673257
-0.0198737
-0.0202067
-0.064799
0.0632315
-0.0135712
-0.0165762
-0.0630704
0.0642052
-0.000709836
-0.00735412
-0.0662749
0.0691569
0.0132231
0.00620414
-0.0721864
0.0754281
0.022614
0.0175435
-0.0789409
0.0799298
0.027698
0.0241278
-0.0806857
0.0833884
0.0296381
0.0292283
-0.0850538
0.0890352
0.0348611
0.0331036
0.0374048
0.0351378
-0.0343367
0.0832164
-0.0367957
0.0912895
0.0857482
0.0335848
-0.0324161
0.0759814
0.0780043
0.0309496
-0.0306288
0.0712837
0.0720855
0.0282004
-0.0280601
0.0683475
0.0687413
0.0253349
-0.0247206
0.0655372
0.0661536
0.0337447
-0.042156
-0.066187
-0.07675
0.0250309
-0.0273968
0.0310724
-0.0756123
-0.0776679
-0.0240458
0.0222426
-0.0194374
0.0640385
0.0640307
-0.0290837
-0.0612248
0.0311655
-0.0545049
-0.0409851
-0.0627832
0.0405067
-0.0567227
-0.0478231
-0.0626971
0.0388007
-0.0625215
-0.0484649
-0.0607176
0.0344587
-0.0685525
-0.0360224
0.0283662
-0.0690938
-0.0433846
-0.0588248
0.0342387
-0.073425
0.0290694
-0.0802529
-0.0264844
0.0332487
-0.0797916
-0.0823969
0.0895613
0.0212018
0.0280168
-0.0344726
-0.062638
-0.0769013
0.0225212
-0.0280634
0.0320722
-0.0842617
-0.0809476
0.0775089
-0.0230456
-0.084094
-0.024917
0.0659449
-0.0678821
-0.0175002
-0.0176095
0.0182602
0.0633879
0.0613173
-0.0129819
-0.0571485
0.07022
-0.0746547
-0.0212219
-0.0208838
0.0778298
-0.0811489
-0.0222604
-0.022627
0.083608
-0.086369
-0.024222
-0.0223493
0.0892721
-0.0925094
-0.0258985
-0.0242037
0.0957362
-0.0989698
-0.0261185
-0.0253881
0.101526
-0.102949
-0.0201907
-0.0234423
0.10261
-0.100302
-0.00179959
-0.0122203
0.0968256
-0.0928249
0.023195
0.0107232
0.089322
-0.0861714
0.034864
0.0303464
0.0833808
-0.080431
0.0315306
0.032965
0.0773142
-0.0736092
0.0249799
0.0271996
0.0695937
-0.0652712
0.0178291
0.0208408
0.0615538
-0.0589581
0.00821122
0.0128135
0.058351
-0.0597934
-0.00135411
0.00297921
0.0624725
-0.0650479
-0.00816209
-0.00480309
0.0674817
-0.0695896
-0.0142579
-0.0112786
0.0716443
-0.0753515
-0.0190428
-0.0178835
-0.0218884
-0.0971102
0.105002
0.00971268
0.0174819
-0.110291
0.112736
-0.0098014
0.000297326
-0.11123
0.108295
-0.0226002
-0.0166367
-0.103752
0.0991198
-0.0266253
-0.0240381
-0.0949551
0.0910094
-0.0266782
-0.0254522
-0.0877114
0.0845428
-0.0252294
-0.0246391
-0.0817421
0.0790022
-0.0233226
-0.0229904
-0.0766412
0.0741861
-0.0204247
-0.0208214
-0.0716509
0.0687493
-0.0169721
-0.0176715
-0.0662262
0.0644176
-0.0117626
-0.0140531
-0.0639251
0.0647694
-0.00155413
-0.00686166
-0.0666314
0.0693847
0.0104698
0.00434211
-0.0723707
0.0756256
0.0193591
0.0145575
-0.078582
0.0812509
0.0250291
0.0211714
-0.0841095
0.0855732
0.0281744
0.0263697
-0.0875732
0.0909988
0.0314354
0.0311036
0.0332015
0.029134
-0.0278507
0.0900063
0.0953568
0.0277688
-0.0272755
0.082723
0.0856663
0.0264578
-0.0253682
0.0748918
0.0771866
0.0241204
-0.0227524
0.0699157
0.0708377
0.021371
-0.0195715
0.0665481
0.0673599
0.0187529
-0.0186138
0.0653981
0.0653351
0.063677
-0.042658
-0.0595518
0.0424169
-0.056415
-0.0497348
-0.0608716
0.0433373
-0.0612592
-0.0515746
-0.0595874
0.0390377
-0.0671004
-0.0482716
-0.0558306
0.0378485
-0.0721623
-0.0405713
-0.0527261
0.0375946
-0.0777709
-0.0249924
0.0217574
-0.0736663
-0.0302853
-0.0573451
0.0356316
-0.083351
0.0292941
-0.088217
-0.025171
0.033045
-0.0880127
-0.0855199
0.0890704
0.018207
0.0196206
-0.0218352
-0.0714517
-0.0826346
0.0167352
-0.0256151
0.0294493
-0.0920512
-0.0879248
0.0854318
-0.0226779
-0.0911891
-0.0223508
-0.0148042
0.0137877
0.0644044
-0.0152536
0.0617667
0.0676189
-0.0700195
-0.0150996
0.0673317
-0.0126947
-0.0573896
0.0725244
-0.0758843
-0.017862
-0.0183789
0.0789272
-0.0816103
-0.0195773
-0.0195841
0.084002
-0.0867188
-0.0215052
-0.0199575
0.089578
-0.0927787
-0.0226979
-0.0213444
0.0960831
-0.0995454
-0.0226562
-0.0220837
0.102523
-0.104566
-0.0181477
-0.0204648
0.104824
-0.102837
-0.00378702
-0.0119619
0.0989989
-0.0939708
0.0181669
0.00688528
0.0892315
-0.0850287
0.0306613
0.025607
0.0815814
-0.0782552
0.0282044
0.0295177
0.0750065
-0.0715026
0.021476
0.0239509
0.0681387
-0.0650394
0.0147298
0.0174769
0.0629311
-0.0621032
0.00738338
0.0107051
0.0627145
-0.064344
0.000275376
0.00359054
0.0661625
-0.0678489
-0.00647573
-0.00298458
0.0695829
-0.0708553
-0.0129856
-0.00954459
0.073628
-0.0755726
-0.0170982
-0.0151107
0.0786733
-0.0816554
-0.0200635
-0.0187876
-0.0211406
-0.0942195
0.0994425
0.0159788
0.0173721
-0.105318
0.110058
0.0049723
0.0116067
-0.112711
0.112385
-0.0094757
-0.00235533
-0.109888
0.106026
-0.0187373
-0.01414
-0.101948
0.0977428
-0.0224199
-0.0199608
-0.0940436
0.0904802
-0.0231148
-0.021753
-0.0874524
0.0845376
-0.0223145
-0.0216113
-0.0819477
0.0793503
-0.0207252
-0.0204005
-0.0770902
0.0748713
-0.0182058
-0.0185614
-0.0727489
0.0703188
-0.0145421
-0.0155492
-0.0680233
0.0661047
-0.00984398
-0.0117575
-0.0652758
0.0656937
-0.00197209
-0.00603269
-0.067225
0.069736
0.00795882
0.00281079
-0.0725944
0.075801
0.0161525
0.0116992
-0.0788004
0.0818734
0.0219562
0.018172
-0.0845557
0.086905
0.025825
0.0236874
-0.0900661
0.0909178
0.0305837
0.0279425
0.0293382
0.0206802
-0.0182973
0.0997156
0.105219
0.0177863
-0.0184519
0.0906719
0.0948458
0.0181808
-0.0176466
0.0821888
0.0853952
0.0169929
-0.0161918
0.0740907
0.076533
0.0153396
-0.0144532
0.0690293
0.0699855
0.0136155
-0.0132549
0.0661875
0.0665222
0.0134843
-0.013442
0.0653558
0.0655645
0.0640227
-0.0492253
-0.0600613
0.0469607
-0.0600385
-0.0516721
-0.060774
0.0432297
-0.0654513
-0.0501843
-0.0576747
0.0410093
-0.0702612
-0.0447476
-0.0516543
0.0414352
-0.076003
-0.0353629
-0.0476484
0.040104
-0.0822433
-0.0244597
-0.0547207
0.0376807
-0.0879868
-0.0170847
0.0148014
-0.0803513
-0.0177715
-0.0707648
0.0344764
-0.0930398
0.0255092
-0.0222416
-0.0944567
0.0296373
-0.0961794
0.00310249
0.0489756
-0.0596543
0.0682906
-0.0711877
-0.0122026
-0.06336
0.0485134
0.0179491
-0.00776416
0.0747752
-0.0770202
-0.015617
-0.0147914
0.0797883
-0.0824052
-0.0169604
-0.016816
0.0839992
-0.0868507
-0.0186537
-0.0183636
0.0895409
-0.0925697
-0.0196691
-0.0186542
0.0957404
-0.0991698
-0.0192268
-0.0189131
0.102314
-0.104855
-0.0156067
-0.0173206
0.10587
-0.104725
-0.00493202
-0.0109471
0.101292
-0.0959461
0.0128207
0.00345278
0.0902597
-0.0848927
0.0252944
0.0199205
0.0806367
-0.0769961
0.0245638
0.0252616
0.0739718
-0.0712155
0.0187197
0.0209266
0.0690052
-0.0673655
0.01309
0.0152667
0.0665745
-0.066574
0.00738283
0.0099142
0.0671421
-0.0679798
0.00111299
0.00415871
0.068817
-0.0697864
-0.00550642
-0.00214729
0.0710369
-0.0727503
-0.0112722
-0.00829402
0.07476
-0.0767536
-0.0151046
-0.013101
0.0784511
-0.0812065
-0.0173081
-0.0170901
0.0837459
-0.0876185
-0.0188053
-0.0186012
0.0906231
-0.0938496
-0.0190151
-0.0193462
-0.0905627
0.0946376
0.0141321
0.0865024
-0.0848176
0.0131167
0.0126748
-0.0981982
0.103312
0.0108649
0.0138115
-0.107375
0.10991
0.00243795
0.00754352
-0.110395
0.109006
-0.00808671
-0.0028406
-0.106434
0.103023
-0.0153261
-0.0115681
-0.0995963
0.0960473
-0.0188709
-0.0165344
-0.0928816
0.0897629
-0.0199961
-0.0185873
-0.0870438
0.0843957
-0.0196664
-0.0188923
-0.0820479
0.0796693
-0.0183466
-0.0180526
-0.0775518
0.0755058
-0.0161597
-0.0164439
-0.0737058
0.0717874
-0.0126236
-0.0137492
-0.0699283
0.0681568
-0.00807256
-0.00989842
-0.0670949
0.0670078
-0.00188505
-0.0049707
-0.068013
0.0700645
0.00590729
0.00180565
-0.0726366
0.0756935
0.0130956
0.00912701
-0.0786736
0.0817736
0.0188562
0.0151919
-0.0849177
0.0871166
0.0236262
0.0205432
-0.0896343
0.093437
0.0267809
0.0254249
-0.0955111
0.0985232
0.0267733
0.0272641
0.0252337
0.00870692
-0.00733194
0.0983406
-0.0100757
0.106918
0.10385
0.00654173
-0.00708665
0.0912168
0.0940556
0.0067303
-0.00630979
0.0817683
0.0850389
0.00593931
-0.00560696
0.0737583
0.0761625
0.00530855
-0.00506481
0.0687856
0.0696871
0.00488179
-0.00545828
0.066764
0.0663392
0.00538063
-0.00574386
0.065719
0.0654868
0.00828855
-0.0102966
0.0664125
0.0665674
0.0185248
0.0789642
0.0699949
0.0123416
-0.0139064
-0.0787865
-0.082014
0.00953793
-0.0196322
0.0241636
-0.0989882
-0.0968083
-0.0166734
-0.0498704
-0.061863
0.0469818
-0.0637906
-0.103007
0.018552
-0.0498302
-0.0611281
0.0441088
-0.0685508
0.0793966
-0.0653832
0.00393573
-0.00226206
0.00721286
0.0740135
0.00109407
0.0760405
-0.0468832
-0.055539
0.0447113
-0.0735373
-0.039807
-0.0472101
0.0445344
-0.0804334
-0.0285605
-0.0435476
0.0428106
-0.0873732
-0.0176849
-0.0548073
0.0400514
-0.0935617
-0.0134548
-0.0712164
0.0348097
-0.0982122
-0.00875591
0.00665628
-0.0799143
-0.0101631
-0.0773793
0.0291069
-0.101123
-0.0181307
0.0219551
-0.102813
-0.0152552
-0.0996839
-0.0625429
0.0703671
-0.0730702
-0.00949939
-0.0027803
0.0753955
-0.0776131
-0.0133993
-0.0124662
0.0803583
-0.0818647
-0.015454
-0.0140708
0.0847098
-0.0867877
-0.0165758
-0.0155185
0.0892534
-0.0920127
-0.0169098
-0.0161885
0.0948932
-0.0980518
-0.0160682
-0.0160326
0.101064
-0.103789
-0.0128812
-0.0143089
0.105422
-0.105369
-0.00498493
-0.00931449
0.103109
-0.0986307
0.00834211
0.00119337
0.0931241
-0.0874008
0.0195711
0.0144139
0.0827162
-0.0789365
0.0207841
0.0205771
0.076185
-0.0740361
0.0165708
0.0181751
0.0725212
-0.0714552
0.012024
0.0137518
0.0708425
-0.0705281
0.00706839
0.00930153
0.0704269
-0.0704925
0.00117857
0.00405757
0.0707873
-0.0714558
-0.00483789
-0.00185254
0.072513
-0.0739761
-0.00980906
-0.00723682
0.0756721
-0.077281
-0.0134957
-0.0114051
0.0799742
-0.0812919
-0.0159905
-0.0143969
0.0836707
-0.0858738
-0.0166023
-0.0162224
0.0885492
-0.0920781
-0.0154862
-0.0166708
0.0942397
-0.0966702
-0.0128246
-0.0145119
-0.084622
0.0887065
0.00903217
0.082849
-0.0816766
0.0054838
0.007765
-0.091061
0.0944749
0.0107182
0.0103203
-0.0989225
0.102002
0.00778575
0.00936391
-0.104774
0.106142
0.00107078
0.00477074
-0.106064
0.104719
-0.00674196
-0.00276316
-0.102632
0.0999408
-0.0126345
-0.00948096
-0.0972065
0.0943007
-0.0159651
-0.0138002
-0.0916387
0.0889542
-0.0173116
-0.0159254
-0.0865575
0.0841823
-0.0172912
-0.0164956
-0.0820742
0.079946
-0.0162185
-0.0159445
-0.0780251
0.0761421
-0.0142767
-0.014523
-0.0745498
0.073017
-0.0110908
-0.0121569
-0.0716318
0.0702524
-0.00669315
-0.00851325
-0.069241
0.0688053
-0.00144931
-0.00395934
-0.0692204
0.0705783
0.00454938
0.00139051
-0.0725857
0.0752328
0.0104485
0.00711969
-0.0780107
0.0810648
0.0158021
0.012414
-0.0842702
0.0867977
0.0210987
0.0173378
-0.0900459
0.0912615
0.0255653
0.0221767
-0.0930784
0.096182
0.0236696
0.0254472
0.018409
0.000395822
0.00132884
0.105194
0.109874
-0.00443023
0.00385711
0.0989137
0.100748
-0.00435476
0.00484561
0.0907259
0.0935579
-0.00517827
0.00535585
0.0815907
0.0847062
-0.00534735
0.00517208
0.0739336
0.076171
-0.00486857
0.0044583
0.0691958
0.0699907
-0.00396232
0.00335148
0.0673748
0.0668352
-0.00265326
0.00151566
0.0668566
0.066185
-0.000254456
-0.00230631
0.0689732
0.0678286
0.0749014
0.00431345
-0.00531835
-0.0789094
-0.0806062
0.00324308
-0.0128069
0.0151063
-0.101983
-0.0989275
-0.0105496
-0.0485408
-0.0631524
0.0467143
-0.0663961
0.0772193
-0.0731256
-0.000157956
0.0760272
0.00228611
-0.0479007
-0.0601107
0.0472533
-0.0710927
-0.043527
-0.0518191
0.0482534
-0.0772563
-0.0337515
-0.0420191
0.0474135
-0.0850363
-0.0201919
-0.0410407
0.0454458
-0.0927676
-0.0109358
-0.0573264
0.0412329
-0.0999849
-0.00942179
-0.0719577
0.0352705
-0.104376
-0.00603856
-0.0766591
0.0268908
-0.106058
-0.00101566
0.00028404
-0.0798746
-0.00104701
-0.0788781
0.0183747
-0.106081
-0.0807457
0.080512
0.000517732
0.000718759
-0.0799323
-0.0015321
0.001822
-0.0809778
0.00366662
0.106788
-0.00913391
0.0116533
-0.104503
-0.00879548
-0.0992659
-0.0643694
0.0729105
-0.075186
-0.00722395
-0.00299534
0.077398
-0.0789847
-0.0118126
-0.0102541
0.0806754
-0.0825404
-0.0135891
-0.0123801
0.0844918
-0.0866172
-0.0144504
-0.013567
0.0888122
-0.0912506
-0.0144713
-0.0139935
0.0937601
-0.0964964
-0.0133319
-0.0135231
0.099139
-0.101674
-0.010346
-0.0116663
0.10351
-0.104242
-0.00425358
-0.00747862
0.103267
-0.100339
0.0054137
0.000218762
0.0960558
-0.0910357
0.014551
0.0101312
0.0865644
-0.0828186
0.0170383
0.0161058
0.0800971
-0.0779825
0.0144562
0.0154536
0.0764089
-0.075099
0.0107141
0.0121782
0.074064
-0.0732028
0.0062072
0.00826654
0.0726085
-0.0723117
0.000881759
0.00346319
0.0724112
-0.072936
-0.00431302
-0.00175304
0.0738119
-0.0750237
-0.00859726
-0.00636095
0.0764299
-0.0780801
-0.0118455
-0.00999893
0.0798497
-0.0818246
-0.0140156
-0.0126273
0.0838678
-0.085462
-0.0150082
-0.0141791
0.0875976
-0.0889694
-0.0141144
-0.0145351
0.0905324
-0.0927965
-0.0105605
-0.0129489
0.0946218
-0.0957864
-0.00763091
-0.0087243
-0.0815303
0.0830246
0.00398953
0.00222475
-0.0855251
0.0880005
0.00655681
0.00526445
-0.0909084
0.093965
0.00766154
0.00741244
-0.0967024
0.09909
0.00539813
0.00662651
-0.100958
0.101828
0.000200856
0.00290228
-0.101712
0.100716
-0.00574552
-0.00264685
-0.0991658
0.0971191
-0.0105878
-0.00793112
-0.0949767
0.092628
-0.0136164
-0.0116578
-0.0904149
0.0881317
-0.0150284
-0.0137123
-0.0860524
0.0839536
-0.0151924
-0.0144163
-0.0820747
0.0801854
-0.0143292
-0.0140656
-0.0784828
0.0767905
-0.0125843
-0.0128204
-0.0753552
0.0740505
-0.0097861
-0.0107217
-0.0730054
0.0720554
-0.00574315
-0.00746809
-0.0713353
0.0708977
-0.00101175
-0.0032392
-0.0709604
0.0716718
0.00383792
0.00132784
-0.0729674
0.0749165
0.00849944
0.00582412
-0.0771716
0.0798421
0.0131315
0.0101589
-0.0825091
0.0854417
0.018166
0.0146709
-0.088147
0.0910518
0.0226605
0.0194715
-0.0942067
0.0975733
0.020303
0.0222922
-0.0977415
0.104666
0.0116278
0.0182408
0.00984305
-0.0081409
0.0111183
0.102216
0.105399
-0.0129843
0.014115
0.097783
0.0988823
-0.0150178
0.0156686
0.0900751
0.0926551
-0.016
0.0159997
0.0815911
0.0843748
-0.0156901
0.015096
0.0745277
0.0764805
-0.0142926
0.013304
0.0701845
0.070794
-0.012202
0.0109692
0.0686075
0.0679373
-0.00966649
0.00752035
0.0690028
0.0674877
-0.00685734
0.00467581
0.0711548
0.0684916
-0.00803196
0.00547415
0.0765713
0.0715453
-0.000394734
-0.0110835
0.0875054
0.0811199
-0.0486411
-0.0624119
0.0486548
-0.0677976
0.00641967
-0.00633061
-0.0958755
0.00646819
-0.0993144
0.0785075
-0.083362
-0.00622891
-0.0154845
0.0516471
0.0513428
0.0697418
-0.00671879
-0.091364
0.0897616
-0.00602854
-0.091023
-0.00667155
-0.0470161
-0.0566216
0.0507287
-0.073568
-0.0394703
-0.0461004
0.0509142
-0.080757
-0.0256466
-0.0365643
0.0499207
-0.0895113
-0.0105278
-0.0414487
0.0467895
-0.0983242
-0.00519154
-0.0615566
0.0410269
-0.105741
-0.005231
-0.0727653
0.0329934
-0.110478
-0.00119286
-0.0765133
0.0232842
-0.110968
-0.00344706
-0.0808161
0.00433082
-0.0815811
0.0807347
-0.00260073
0.00452518
-0.0824725
-0.00363372
-0.0824439
0.00615303
0.00264573
-0.0797018
0.0142874
-0.108715
-0.0819418
0.00529481
0.0133062
-0.0271028
0.0654437
-0.107579
0.00259009
-0.0063814
0.0710304
-0.0643557
0.0784307
-0.0770184
-0.00157026
-0.0026452
0.0765299
-0.0766402
-0.00711363
-0.00348383
0.0781054
-0.0795179
-0.0104001
-0.00878889
0.0810448
-0.0827413
-0.0118926
-0.0108532
0.0844726
-0.0863707
-0.0125523
-0.0118358
0.0882929
-0.090408
-0.0123562
-0.0120713
0.09253
-0.0948049
-0.0110571
-0.011401
0.0969746
-0.0990806
-0.00823997
-0.00949653
0.100718
-0.101672
-0.00329975
-0.00584102
0.101478
-0.0998609
0.00379643
2.49155e-05
0.0970108
-0.0932076
0.0107478
0.00728101
0.0894228
-0.0859265
0.013542
0.0123209
0.0831696
-0.0808619
0.0121486
0.0126967
0.079016
-0.0773763
0.00907449
0.0103322
0.0760299
-0.0749095
0.00508687
0.00692008
0.0741571
-0.0737721
0.000496722
0.00271077
0.0738013
-0.0742114
-0.0039029
-0.00172383
0.0749206
-0.0759211
-0.0075967
-0.00565178
0.0771002
-0.0785079
-0.0104379
-0.00881981
0.0800175
-0.081703
-0.0123302
-0.0111176
0.0834259
-0.0852528
-0.0131812
-0.0124562
0.0870443
-0.0882638
-0.0128949
-0.0127436
0.0892954
-0.0895962
-0.0102596
-0.0119173
-0.00855894
-0.0809813
0.0815188
-1.97761e-05
-0.00177871
-0.0827365
0.0841246
0.00260143
0.00100709
-0.0857269
0.0877397
0.00454404
0.00366215
-0.0895944
0.0920747
0.00518124
0.00555769
-0.0942292
0.0961292
0.00349815
0.00447198
-0.0974118
0.0980541
-0.000441379
0.00161965
-0.09802
0.097343
-0.00506852
-0.00261274
-0.0962221
0.094677
-0.00904278
-0.00681025
-0.0930014
0.0911068
-0.0117217
-0.00998212
-0.0892732
0.0873403
-0.0130955
-0.0118787
-0.0855492
0.0837142
-0.0133574
-0.0126252
-0.0820538
0.0803845
-0.0126599
-0.0124053
-0.0788896
0.0774042
-0.0110989
-0.0113256
-0.0761311
0.0749826
-0.00863762
-0.00944856
-0.0741261
0.0734619
-0.00507895
-0.00661154
-0.0730449
0.0728298
-0.000796625
-0.00282227
-0.0728855
0.0732984
0.00342508
0.00127211
-0.0740743
0.0753291
0.00724465
0.00504816
-0.0768941
0.0788909
0.0111348
0.00859392
-0.0810191
0.0834853
0.0156998
0.0125427
-0.0859863
0.0888851
0.0197617
0.0169705
-0.0921497
0.0939474
0.0185053
0.0190276
-0.0981951
0.10164
0.00818253
0.0139932
0.00390399
-0.0063438
0.0109674
0.102165
0.103989
-0.0155719
0.0183978
0.0993904
0.100795
-0.0202798
0.0219542
0.0961086
0.0970003
-0.0232366
0.0240993
0.0892124
0.0913726
-0.0245083
0.024465
0.0816344
0.0839659
-0.0240092
0.023175
0.075362
0.0769363
-0.0220528
0.0206702
0.0715671
0.0719162
-0.0191342
0.0174451
0.0702967
0.0694732
-0.0156935
0.0138505
0.0708457
0.0692393
-0.0120145
0.0108453
0.072324
0.0703276
-0.0104814
0.0128264
0.0742262
0.0719092
0.0668434
0.00667089
-0.104705
0.0665175
-0.00315709
-0.00325305
0.0030619
-0.0956843
-0.0926414
-0.00163465
-0.0500699
-0.0593581
0.0515072
-0.0685761
-0.0452716
-0.0508203
0.0526152
-0.0752691
-0.0327417
-0.0390053
0.0524838
-0.08332
0.00318513
-0.0994377
-0.0148337
-0.0322584
0.0503407
-0.0930625
-0.000888761
-0.0457514
0.0455436
-0.102841
-0.000800699
-0.0659869
0.0382108
-0.110959
-0.00440094
-0.083618
0.00554644
-0.0832561
0.0820377
-0.00318254
0.00486167
-0.0844781
-0.00363965
-0.0850638
0.00630747
-0.000290242
-0.0736679
0.0286459
-0.11584
-0.0843967
0.00749925
0.00394386
-0.0778114
0.0190197
-0.1157
-0.0834014
0.00761265
0.00661276
-0.0810198
0.00975187
-0.111796
-0.00190626
-0.00401635
0.0724401
0.0714134
-0.114661
0.0561903
0.00283655
0.000902339
0.0911979
-0.000727601
1.42281e-05
-0.0949709
-0.0933787
9.68297e-06
-0.0164709
0.0907208
-0.0629184
0.076446
-0.0808636
-0.00181136
-0.0723985
-0.00367046
0.0729119
-0.00267125
0.0797277
-0.0782189
-0.003079
-0.00378108
0.07773
-0.0778322