/*--------------------------------*- C++ -*----------------------------------*\
  =========                 |
  \\      /  F ield         | OpenFOAM: The Open Source CFD Toolbox
   \\    /   O peration     | Website:  https://openfoam.org
    \\  /    A nd           | Version:  10
     \\/     M anipulation  |
\*---------------------------------------------------------------------------*/
FoamFile
{
    format      ascii;
    class       volScalarField;
    location    "46.5";
    object      p;
}
// * * * * * * * * * * * * * * * * * * * * * * * * * * * * * * * * * * * * * //

dimensions      [0 2 -2 0 0 0 0];

internalField   nonuniform List<scalar> 
28942
(
-0.00374256
-0.00311316
0.00206155
0.00954986
0.00985005
0.000114011
0.000341632
3.77392e-05
0.00276323
0.00285132
-0.00228805
-0.00255771
-0.00294294
-0.00286019
0.000226007
0.000565375
0.00992904
0.0101989
0.00562179
0.00718275
0.00820132
0.00819324
-0.00520929
-0.00503224
-0.00356089
-0.0037826
0.0139271
0.0138762
0.00357117
0.00351482
2.78956e-05
6.60954e-05
0.000887662
0.000370143
0.00719225
0.00839841
0.010936
0.0128953
5.34622e-06
0.0150914
0.00915435
0.0116522
0.00189338
0.00182033
0.0018704
0.000339525
0.000192679
0.000271857
0.000313566
0.000438999
0.000823345
0.00285046
0.00292058
0.00289464
0.00305077
-0.00232593
-0.00101999
-0.00335201
-0.00319718
-0.00346986
-0.00354273
-0.00354376
-0.00344135
-8.17164e-05
-0.00178849
-0.000325649
0.00100975
0.00947021
0.00897358
-0.00333193
-0.00354275
-0.00327682
0.00903401
0.00888628
0.00917784
-0.00144142
-0.00105272
-0.000710495
0.0023973
0.00279685
0.00188545
0.000787593
-0.00629
-0.00752121
0.00112355
0.00385177
0.00489441
0.00568309
0.00406571
0.0041906
0.00615914
0.00553667
-0.00135613
-0.00165116
-0.00193173
-0.00176788
-0.0015911
0.00538123
0.00667331
-0.00783257
0.0113472
0.0105483
0.00584216
0.00943949
0.00095184
0.000864005
0.000769998
0.00552424
0.00571686
0.00571081
-0.00319473
-0.00311499
-0.003097
-0.00257807
-0.00269986
0.015883
0.0138767
0.0133186
0.0149505
0.00168537
0.00476973
0.00346628
0.00511227
0.00478938
0.0155545
0.0158502
0.0145097
0.00595518
0.00703484
0.000229577
0.00034038
0.000137509
0.0105444
0.0110483
0.00773159
0.00738382
0.0128407
0.00673978
0.00803211
0.00910003
-0.00186855
-0.00238315
0.00740089
0.00181691
0.00189643
-0.00114641
-0.00141293
-0.000946897
-0.00248303
0.00664054
0.00576726
0.00375624
0.000306384
0.000244863
0.000105298
0.000248106
0.00757803
0.00684277
-0.00182105
-0.00193897
-0.00183353
-0.00411151
-0.0036538
8.48731e-05
-0.00282957
-0.000473447
0.00844334
0.00855208
0.00964652
0.00918185
0.00775934
0.00314541
0.00306345
0.00330609
0.00318269
0.00509492
0.00487266
0.00520728
0.0054278
0.0053652
0.00543474
0.00564554
0.00619897
0.00589329
0.00549069
0.00582069
0.00652652
0.00727954
0.00757195
-0.000524072
-0.00050601
-0.00243447
0.000254945
8.60289e-05
-0.00195028
-0.00204012
0.000344052
0.000406504
0.000366647
0.00029587
0.00206864
0.002033
0.00200233
-0.00289048
-0.00307942
-0.00274137
-0.00431753
-0.00480208
-0.00411011
-0.0046999
-0.00646941
-0.00516422
0.016077
0.0167874
0.0165549
0.000992784
0.00113825
0.00102387
0.0103989
0.00997103
0.0100514
0.00158136
0.0015596
0.00160317
0.00153785
0.00151644
0.00149509
0.00149594
0.00147396
0.00147495
0.00151697
0.0015383
0.00155987
0.00158178
0.00160363
0.00145331
0.00145392
0.00162488
0.00162538
0.00164696
0.00143278
0.001433
0.00164739
0.00141208
0.00139155
0.00141247
0.00139207
0.00166933
0.00166984
0.00137126
0.00137179
0.00169117
0.00169193
0.00135113
0.00135168
0.00171331
0.00171407
0.00133116
0.00133174
0.00173547
0.00173627
0.00131136
0.00131195
0.00175769
0.00175844
0.00129179
0.00129224
0.00177992
0.00178059
0.00127231
0.00127273
0.00180202
0.00180272
0.00125298
0.0012533
0.00182404
0.00182461
0.00123375
0.00123386
0.00184633
0.00184685
0.00121467
0.00121429
0.00186818
0.00186839
0.0011952
0.00119493
0.00189012
0.00189032
0.00117533
0.00117552
0.00186721
0.00188912
0.00191208
0.00191202
0.00182254
0.00184514
0.00177814
0.00180064
0.00173418
0.00175623
0.00168988
0.00171208
0.0016455
0.00166763
0.00160219
0.00162442
0.00155907
0.00158048
0.00151593
0.00153731
0.00147327
0.00149455
0.00143168
0.00145243
0.0013907
0.00141112
0.00135038
0.00137047
0.00131071
0.00133048
0.00127168
0.00129113
0.00123323
0.00125239
0.00119466
0.00121415
0.00117522
0.00115579
0.00115594
0.00121441
0.00117569
0.00119507
0.00125327
0.0012338
0.00129217
0.0012727
0.0013316
0.00131182
0.00137166
0.00135156
0.00141237
0.00139194
0.00145368
0.00143298
0.00149583
0.00147477
0.00153842
0.00151716
0.0015814
0.00155977
0.00162543
0.00160363
0.00166935
0.00164708
0.00171374
0.00169159
0.001758
0.00173592
0.00180215
0.00178006
0.00184616
0.001824
0.00188918
0.00186786
0.00191088
0.00191136
0.00115569
0.00115626
0.00193327
0.00193181
0.00193329
0.00193366
0.00186506
0.0019091
0.00188707
0.00182051
0.00184293
0.00177667
0.00179845
0.00173272
0.00175475
0.00168859
0.00171066
0.00164462
0.00166655
0.00160074
0.00162269
0.00155748
0.00157939
0.00151508
0.00153594
0.0014725
0.00149369
0.00143091
0.00145163
0.00139
0.00141038
0.00134974
0.0013698
0.00131013
0.00132986
0.00127114
0.00129057
0.00123275
0.00125188
0.00119437
0.0012136
0.00113626
0.00113637
0.00115572
0.00117511
0.00117593
0.00115673
0.00113702
0.00113645
0.00121455
0.00119527
0.00125303
0.00123362
0.00129181
0.00127236
0.00133118
0.00131142
0.00137119
0.00135111
0.00141186
0.00139145
0.00145317
0.00143245
0.00149516
0.00147407
0.00153782
0.00151637
0.0015808
0.00155926
0.00162443
0.00160274
0.00166843
0.00164644
0.00171262
0.00169053
0.00175678
0.00173473
0.00180067
0.00177879
0.00184406
0.00182248
0.00188686
0.00186554
0.00192862
0.00190808
0.0019308
0.00195276
0.00194947
0.00195377
0.00113665
0.00113737
0.0019539
0.00195134
0.00197319
0.00197001
0.00195472
0.0011559
0.00113689
0.00111778
0.00111813
0.00194722
0.00197338
0.00199743
0.00197366
0.00190536
0.00192656
0.00186187
0.00188362
0.00181804
0.00184013
0.00177444
0.00179605
0.00173073
0.00175265
0.00168681
0.00170878
0.001643
0.00166489
0.00159939
0.00162112
0.00155619
0.00157772
0.00151353
0.00153481
0.00147145
0.00149243
0.00142997
0.00145063
0.00138914
0.00140947
0.00134896
0.00136897
0.00130941
0.00132911
0.00127048
0.00128987
0.00123214
0.00125124
0.00119402
0.00121302
0.00117493
0.00111726
0.00111748
0.00111731
0.00111744
0.00117605
0.00113777
0.00115696
0.00121438
0.0011952
0.00125255
0.00123337
0.00129125
0.00127182
0.00133055
0.00131083
0.00137049
0.00135045
0.00141108
0.00139071
0.0014523
0.00143161
0.00149418
0.00147315
0.00153662
0.00151534
0.00157968
0.00155811
0.0016231
0.00160132
0.00166691
0.00164501
0.00171088
0.00168889
0.00175483
0.00173288
0.00179848
0.00177672
0.00184151
0.00182013
0.00188373
0.00186269
0.00192492
0.00190443
0.00196545
0.00194493
0.00198908
0.00198476
0.00197451
0.00197419
0.00111786
0.00111865
0.00199308
0.00199246
0.001994
0.00200342
0.00200752
0.00194636
0.00202456
0.00197541
0.00197978
0.00198338
0.00194314
0.001965
0.00189995
0.0019215
0.00185752
0.00187855
0.00181466
0.00183639
0.0017716
0.00179316
0.00172812
0.00174991
0.00168446
0.0017063
0.00164086
0.00166264
0.0015975
0.00161913
0.0015545
0.00157593
0.00151197
0.00153319
0.00147005
0.00149094
0.0014287
0.0014493
0.00138799
0.00140827
0.00134791
0.00136787
0.00130846
0.00132811
0.00126961
0.00128896
0.00123134
0.00125041
0.00119348
0.00121232
0.00115581
0.00117464
0.00111796
0.00113683
0.00109868
0.00109894
0.00109883
0.00109857
0.00109853
0.0010989
0.00109867
0.00109977
0.00109928
0.00113796
0.00110032
0.00111915
0.00117585
0.00115692
0.0012138
0.00119485
0.00125186
0.00123278
0.00129049
0.0012711
0.00132971
0.00131002
0.00136955
0.00134955
0.00141002
0.00138971
0.00145113
0.0014305
0.00149287
0.00147192
0.00153516
0.00151396
0.00157803
0.00155655
0.00162128
0.0015996
0.00166486
0.00164305
0.00170859
0.00168673
0.00175226
0.00173045
0.0017956
0.00177399
0.00183829
0.00181706
0.00187994
0.00185926
0.00192028
0.00190032
0.00195943
0.00193994
0.00199718
0.00197804
0.00202099
0.00201464
0.00199383
0.00199428
0.0020099
0.00200975
0.00111794
0.00109923
0.00108094
0.00108114
0.00201978
0.00202537
0.00204938
0.00197738
0.00203656
0.00203101
0.00201385
0.0019945
0.00196837
0.00197611
0.00193649
0.00195536
0.00189395
0.00191523
0.00185291
0.00187355
0.00181084
0.00183202
0.00176809
0.00178953
0.00172493
0.00174655
0.00168159
0.00170327
0.00163827
0.00165991
0.00159516
0.00161668
0.0015524
0.00157373
0.00151009
0.00153119
0.00146833
0.00148914
0.00142715
0.00144767
0.00138658
0.00140679
0.00134663
0.00136653
0.0013073
0.00132689
0.00126855
0.00128785
0.00123038
0.0012494
0.00119274
0.0012115
0.00115533
0.00117396
0.00113656
0.00108007
0.0010802
0.00108013
0.0010802
0.00108019
0.00108043
0.00108034
0.0010806
0.00113793
0.00110033
0.00111937
0.00117542
0.00115666
0.00121302
0.00119425
0.001251
0.00123195
0.00128953
0.00127019
0.00132864
0.00130901
0.00136837
0.00134843
0.00140871
0.00138846
0.00144967
0.00142911
0.00149123
0.00147038
0.00153335
0.00151223
0.00157598
0.00155462
0.00161901
0.00159746
0.00166233
0.00164065
0.00170576
0.00168405
0.00174908
0.00172745
0.00179204
0.00177063
0.00183432
0.00181329
0.00187553
0.00185509
0.00191523
0.00189561
0.00195324
0.00193461
0.00198915
0.00197059
0.00202401
0.0020077
0.00204601
0.00203865
0.00201304
0.00201199
0.00108021
0.00108168
0.00202546
0.00199319
0.0020233
0.00202773
0.00204069
0.00203868
0.00204884
0.00204838
0.00205175
0.00206012
0.00205427
0.00201278
0.00198615
0.00203639
0.00201524
0.00195977
0.00197041
0.00192827
0.00194729
0.00188831
0.0019083
0.00184782
0.00186823
0.00180625
0.00182715
0.00176394
0.00178517
0.00172119
0.00174261
0.00167821
0.00169972
0.00163523
0.00165671
0.00159242
0.00161379
0.00154992
0.00157112
0.00150786
0.00152884
0.00146631
0.00148702
0.00142532
0.00144575
0.00138493
0.00140505
0.00134513
0.00136495
0.00130593
0.00132546
0.00126731
0.00128655
0.00122925
0.00124821
0.00119172
0.00121043
0.00115459
0.00117315
0.00111739
0.001136
0.00108
0.00109884
0.00106162
0.00106125
0.00106135
0.00106196
0.00106176
0.00106223
0.00106209
0.00106232
0.00106231
0.00106248
0.00106239
0.00106306
0.00106267
0.00110029
0.00106327
0.00108177
0.00113752
0.00111897
0.00117475
0.00115613
0.00121209
0.00119337
0.00124996
0.00123096
0.00128837
0.0012691
0.00132736
0.0013078
0.00136694
0.00134708
0.00140713
0.00138696
0.00144791
0.00142745
0.00148928
0.00146853
0.00153118
0.00151017
0.00157356
0.00155232
0.00161631
0.0015949
0.00165931
0.0016378
0.00170239
0.00168086
0.00174532
0.0017239
0.00178784
0.00176666
0.00182964
0.00180886
0.00187035
0.00185016
0.00190954
0.00189017
0.00194677
0.00192849
0.00198176
0.00196444
0.00201403
0.0019986
0.00204413
0.00202819
0.00206842
0.00205917
0.00202843
0.00204343
0.00203707
0.00107972
0.00106131
0.00104452
0.0010446
0.002029
0.00204367
0.00204821
0.00205579
0.00206551
0.00207517
0.00208072
0.00207212
0.00202922
0.00202602
0.0020552
0.00204518
0.00203695
0.00198379
0.00200676
0.00195213
0.0019657
0.00192029
0.00193855
0.00188175
0.00190113
0.00184196
0.00186204
0.00180099
0.0018216
0.00175921
0.00178018
0.00171692
0.00173812
0.00167436
0.00169567
0.00163176
0.00165306
0.00158928
0.0016105
0.0015471
0.00156815
0.00150531
0.00152615
0.001464
0.00148459
0.00142323
0.00144355
0.00138303
0.00140306
0.0013434
0.00136315
0.00130436
0.00132381
0.00126588
0.00128506
0.00122795
0.00124685
0.00119054
0.00120918
0.00115363
0.00117203
0.00111671
0.00113516
0.00109818
0.00104337
0.00104284
0.00104313
0.00104401
0.00104374
0.00104442
0.00104425
0.00104447
0.00104449
0.00104434
0.00104444
0.00104438
0.00110013
0.00106319
0.00108166
0.00113686
0.00111849
0.00117377
0.00115533
0.00121099
0.00119232
0.00124874
0.00122981
0.00128702
0.00126782
0.00132587
0.00130638
0.00136529
0.00134551
0.00140529
0.00138522
0.00144587
0.00142551
0.00148701
0.00146638
0.00152866
0.00150778
0.00157076
0.00154966
0.0016132
0.00159195
0.00165584
0.00163451
0.00169852
0.0016772
0.00174102
0.00171982
0.00178305
0.00176212
0.00182432
0.00180381
0.00186445
0.00184456
0.00190305
0.00188398
0.00193968
0.00192166
0.00197396
0.00195715
0.00200513
0.00199002
0.00203443
0.0020194
0.00206076
0.00204724
0.00206895
0.00206227
0.00208351
0.00207305
0.00204179
0.00104294
0.00104455
0.0020537
0.00204492
0.00206724
0.00205408
0.00205918
0.00207085
0.00207117
0.0020809
0.00208749
0.002092
0.0020943
0.0020843
0.00204438
0.00203194
0.00207048
0.00206285
0.00204263
0.00201343
0.00202658
0.00197773
0.00199508
0.00194444
0.00196011
0.00191188
0.00192945
0.00187447
0.00189339
0.00183545
0.00185516
0.00179514
0.00181543
0.00175394
0.00177464
0.00171216
0.00173311
0.00167007
0.00169114
0.00162787
0.00164897
0.00158578
0.00160681
0.00154393
0.00156482
0.00150244
0.00152313
0.0014614
0.00148187
0.00142088
0.00144108
0.00138089
0.00140082
0.00134147
0.00136111
0.0013026
0.00132197
0.00126428
0.00128337
0.00122649
0.00124532
0.00118921
0.00120779
0.00115242
0.00117076
0.00111592
0.00113419
0.00107933
0.00109756
0.00104272
0.00106117
0.00102484
0.00102429
0.00102454
0.00102557
0.00102514
0.00102627
0.00102593
0.0010267
0.00102653
0.00102673
0.00102677
0.0010265
0.00102661
0.00102626
0.00102631
0.00102623
0.00102619
0.00106294
0.00102631
0.00104471
0.00109959
0.0010812
0.00113599
0.00111783
0.00117263
0.00115426
0.00120975
0.00119113
0.00124736
0.00122849
0.00128549
0.00126636
0.00132417
0.00130476
0.0013634
0.00134372
0.0014032
0.00138324
0.00144356
0.00142332
0.00148444
0.00146394
0.00152581
0.00150508
0.0015676
0.00154666
0.00160968
0.00158861
0.00165194
0.00163081
0.00169419
0.00167308
0.0017362
0.00171524
0.00177771
0.00175704
0.0018184
0.00179818
0.00185791
0.00183833
0.00189586
0.00187712
0.00193182
0.00191413
0.00196541
0.00194895
0.001996
0.00198114
0.00202377
0.0020103
0.00204839
0.00203589
0.00207139
0.00206094
0.00208065
0.00207812
0.00209082
0.0020773
0.0020578
0.00206067
0.00207093
0.00208219
0.00207873
0.00207111
0.00207437
0.00104239
0.00102434
0.00100806
0.00100812
0.00208626
0.00208543
0.00209378
0.00209871
0.00210193
0.00210118
0.0020774
0.00206874
0.00207329
0.0020982
0.00208949
0.00208997
0.00206026
0.00205289
0.0020563
0.00202066
0.00203381
0.00200063
0.00201378
0.00196827
0.00198401
0.00193645
0.00195243
0.00190311
0.00192029
0.00186666
0.00188515
0.00182839
0.00184773
0.00178877
0.00180873
0.00174818
0.00176858
0.00170695
0.00172763
0.00166535
0.00168618
0.0016236
0.00164448
0.00158191
0.00160275
0.00154043
0.00156114
0.00149927
0.00151981
0.00145853
0.00147885
0.00141827
0.00143834
0.00137853
0.00139834
0.00133932
0.00135886
0.00130065
0.00131992
0.0012625
0.00128151
0.00122488
0.00124363
0.00118774
0.00120625
0.00115108
0.00116936
0.00111487
0.00113293
0.00107863
0.00109676
0.00106054
0.00100691
0.00100624
0.00100656
0.00100789
0.00100743
0.00100865
0.00100831
0.00100907
0.00100891
0.0010091
0.00100913
0.0010088
0.00100898
0.00100841
0.0010086
0.00100824
0.00106251
0.00102631
0.00104443
0.00109876
0.0010806
0.00113486
0.00111677
0.00117137
0.00115306
0.00120834
0.0011898
0.0012458
0.00122702
0.00128377
0.00126473
0.00132226
0.00130295
0.0013613
0.00134172
0.00140087
0.00138102
0.00144098
0.00142087
0.00148159
0.00146123
0.00152265
0.00150207
0.00156409
0.00154333
0.00160579
0.00158492
0.00164763
0.00162671
0.00168941
0.00166854
0.0017309
0.00171021
0.00177185
0.00175147
0.00181193
0.00179203
0.0018508
0.00183155
0.00188806
0.00186967
0.00192332
0.00190599
0.00195619
0.00194009
0.00198619
0.00197159
0.0020131
0.0020001
0.00203677
0.00202533
0.00205643
0.0020475
0.00207586
0.00206339
0.0020885
0.00209232
0.00210649
0.00209721
0.00208573
0.0020757
0.00209329
0.00209128
0.0020741
0.002076
0.0010062
0.00100798
0.0020968
0.00208694
0.00208878
0.00209869
0.00209873
0.00210562
0.0021098
0.00210946
0.0021063
0.0020798
0.00206556
0.00206862
0.00207057
0.00207701
0.00209107
0.0020844
0.00209667
0.00210467
0.0021066
0.00210104
0.00207593
0.00205745
0.00205749
0.00203661
0.00204335
0.00201064
0.00202417
0.00198773
0.00200006
0.00195838
0.00197345
0.00192718
0.00194298
0.00189406
0.00191097
0.00185839
0.0018765
0.00182086
0.00183983
0.00178192
0.00180155
0.00174197
0.00176206
0.00170131
0.00172171
0.00166023
0.00168082
0.00161897
0.00163962
0.00157771
0.00159833
0.00153662
0.00155714
0.00149582
0.00151618
0.0014554
0.00147556
0.00141543
0.00143536
0.00137594
0.00139562
0.00133697
0.00135639
0.00129851
0.00131767
0.00126056
0.00127947
0.00122311
0.00124177
0.00118613
0.00120456
0.00114961
0.00116782
0.00111353
0.00113152
0.0010777
0.00109564
0.00104192
0.00105976
0.00100597
0.0010239
0.000988457
0.000988035
0.000988107
0.000989364
0.00098881
0.00099036
0.00098987
0.000991117
0.000990783
0.000991517
0.000991361
0.000991562
0.000991584
0.000991256
0.000991446
0.000990702
0.000991029
0.000990177
0.000990411
0.000989811
0.000989993
0.00102577
0.000989655
0.00100784
0.00106189
0.00104382
0.00109764
0.0010798
0.00113359
0.00111556
0.00116997
0.00115173
0.00120679
0.00118833
0.00124409
0.00122538
0.00128187
0.00126292
0.00132017
0.00130096
0.00135898
0.00133951
0.00139831
0.00137858
0.00143815
0.00141817
0.00147846
0.00145825
0.00151918
0.00149878
0.00156025
0.00153969
0.00160155
0.00158089
0.00164293
0.00162225
0.00168421
0.00166361
0.00172517
0.00170476
0.00176553
0.00174545
0.00180498
0.0017854
0.00184317
0.00182427
0.00187974
0.0018617
0.00191428
0.0018973
0.00194642
0.00193069
0.00197575
0.00196147
0.00200199
0.0019893
0.00202489
0.00201391
0.00204355
0.00203487
0.0020589
0.00205176
0.00206072
0.00210488
0.00210874
0.00209161
0.00207908
0.00208956
0.00209062
0.00209935
0.00210002
0.00210224
0.00100539
0.000987623
0.000971861
0.000971516
0.00211169
0.00211097
0.00211663
0.0021189
0.00211813
0.00211577
0.00207526
0.00206109
0.0020722
0.0020824
0.00209602
0.00209881
0.00211034
0.0021126
0.00210035
0.00207842
0.00209256
0.00209089
0.00205368
0.00204579
0.00204023
0.00204823
0.00202071
0.00203066
0.00199956
0.00201082
0.00197582
0.00198815
0.00194779
0.00196226
0.00191729
0.00193279
0.00188466
0.00190129
0.00184971
0.00186746
0.00181291
0.00183152
0.00177466
0.00179395
0.00173535
0.00175513
0.00169529
0.0017154
0.00165476
0.00167507
0.001614
0.0016344
0.00157319
0.00159359
0.00153252
0.00155284
0.00149209
0.00151227
0.00145201
0.00147201
0.00141235
0.00143213
0.00137314
0.00139269
0.00133442
0.00135372
0.00129619
0.00131524
0.00125845
0.00127726
0.00122119
0.00123976
0.00118439
0.00120273
0.00114802
0.00116615
0.00111208
0.00113
0.00107652
0.00109426
0.00104104
0.00105871
0.00102323
0.000970774
0.000970021
0.000970422
0.000971917
0.000971371
0.000972942
0.000972457
0.000973665
0.000973346
0.000974049
0.000973899
0.000974098
0.000974116
0.000973806
0.000973995
0.000973214
0.00097354
0.000972442
0.000972854
0.000972058
0.00102518
0.000989414
0.00100745
0.00106094
0.00104303
0.00109638
0.00107863
0.00113221
0.00111425
0.00116844
0.00115028
0.0012051
0.00118672
0.00124221
0.0012236
0.0012798
0.00126095
0.00131788
0.00129878
0.00135645
0.00133711
0.00139552
0.00137593
0.00143507
0.00141524
0.00147506
0.00145502
0.00151543
0.00149521
0.00155611
0.00153574
0.00159697
0.00157653
0.00163788
0.00161744
0.00167864
0.0016583
0.00171904
0.00169891
0.00175878
0.00173902
0.00179758
0.00177833
0.0018351
0.00181654
0.00187096
0.00185327
0.00190478
0.00188816
0.00193619
0.00192083
0.00196482
0.00195089
0.00199037
0.00197802
0.00201254
0.00200192
0.00203076
0.00202221
0.00204476
0.00203849
0.00205406
0.00204954
0.00206464
0.00206074
0.00207813
0.00206539
0.00205969
0.00211459
0.00211248
0.00210302
0.0021042
0.000969685
0.000971539
0.00211437
0.00211255
0.00211467
0.00212325
0.00212212
0.00212636
0.00212736
0.0021254
0.00212008
0.00207357
0.00205658
0.00205394
0.00205036
0.00204575
0.00206451
0.00207105
0.00209204
0.00209556
0.00211035
0.00211138
0.0021147
0.00210463
0.00209128
0.00207607
0.00210453
0.00205052
0.00205696
0.00203733
0.00203414
0.00202392
0.00203382
0.00200769
0.0020163
0.00198734
0.00199803
0.00196383
0.00197602
0.00193673
0.0019507
0.00190696
0.00192214
0.00187493
0.00189125
0.00184068
0.00185807
0.00180458
0.00182284
0.00176703
0.00178597
0.00172837
0.00174783
0.00168892
0.00170873
0.00164895
0.00166899
0.00160871
0.00162886
0.00156838
0.00158855
0.00152814
0.00154824
0.00148811
0.00150809
0.00144839
0.00146821
0.00140905
0.00142867
0.00137014
0.00138954
0.00133168
0.00135085
0.00129369
0.00131263
0.00125618
0.00127488
0.00121912
0.00123759
0.0011825
0.00120076
0.00114631
0.00116436
0.00111052
0.00112837
0.00107511
0.00109277
0.00104003
0.00105753
0.00100461
0.00102228
0.000969072
0.000986974
0.00095231
0.000951158
0.0009517
0.000953427
0.000952817
0.000954591
0.000954005
0.000955602
0.000955135
0.00095629
0.000955985
0.00095666
0.000956515
0.000956713
0.000956727
0.000956447
0.00095662
0.000955873
0.000956197
0.000955044
0.000955474
0.000954244
0.000954616
0.000953754
0.000953925
0.000988956
0.000953705
0.000971392
0.00102437
0.00100675
0.00105972
0.00104206
0.00109503
0.00107733
0.00113071
0.00111283
0.00116678
0.0011487
0.00120326
0.00118497
0.00124019
0.00122167
0.00127756
0.00125882
0.00131541
0.00129643
0.00135373
0.00133451
0.00139252
0.00137307
0.00143176
0.00141209
0.00147141
0.00145154
0.00151141
0.00149137
0.00155167
0.00153152
0.00159209
0.00157188
0.0016325
0.00161231
0.00167273
0.00165266
0.00171254
0.00169271
0.00175167
0.00173222
0.00178981
0.00177089
0.00182663
0.00180842
0.00186179
0.00184446
0.00189489
0.00187863
0.00192559
0.00191058
0.00195353
0.00193995
0.0019784
0.00196639
0.0019999
0.00198961
0.00201761
0.00200927
0.00203127
0.00202503
0.00204096
0.00203646
0.00204719
0.00204529
0.00204439
0.00212525
0.00212539
0.00206291
0.00205117
0.00211553
0.00211675
0.0021211
0.00212402
0.00212601
0.000968526
0.00095092
0.000936131
0.000935905
0.00213375
0.00213213
0.00213499
0.00213465
0.0021311
0.00212445
0.00205058
0.00203595
0.00203243
0.00204914
0.00206923
0.00208877
0.00210542
0.00210873
0.00212085
0.00211693
0.0021042
0.00208774
0.00207318
0.00203837
0.00204972
0.00211712
0.00204202
0.00203506
0.00203233
0.00204124
0.00202131
0.00202565
0.00201039
0.00201716
0.00199452
0.00200291
0.0019747
0.00198508
0.00195167
0.0019636
0.00192534
0.0019389
0.0018963
0.00191114
0.0018649
0.00188089
0.00183134
0.00184838
0.00179594
0.00181385
0.00175907
0.00177768
0.00172107
0.0017402
0.00168223
0.00170174
0.00164284
0.0016626
0.00160312
0.00162301
0.00156329
0.00158322
0.0015235
0.00154338
0.00148388
0.00150366
0.00144453
0.00146417
0.00140553
0.00142499
0.00136693
0.00138619
0.00132876
0.0013478
0.00129103
0.00130985
0.00125375
0.00127234
0.00121691
0.00123528
0.0011805
0.00119865
0.00114449
0.00116244
0.00110886
0.00112663
0.0010736
0.00109119
0.00103868
0.0010561
0.00100366
0.00102118
0.000986049
0.000934818
0.000933626
0.000934253
0.000936171
0.000935523
0.000937372
0.000936787
0.000938332
0.000937891
0.000938989
0.000938698
0.000939347
0.000939206
0.000939404
0.000939413
0.000939161
0.000939319
0.000938622
0.000938929
0.000937812
0.000938244
0.000936832
0.000937349
0.000936371
0.000988413
0.000953299
0.000971034
0.00102343
0.00100592
0.00105841
0.00104094
0.00109358
0.00107595
0.0011291
0.0011113
0.001165
0.001147
0.00120129
0.0011831
0.00123801
0.0012196
0.00127516
0.00125653
0.00131276
0.00129391
0.00135081
0.00133174
0.00138931
0.00137001
0.00142822
0.00140872
0.00146752
0.00144783
0.00150713
0.00148729
0.00154696
0.00152703
0.00158691
0.00156694
0.00162682
0.00160689
0.00166649
0.00164671
0.00170571
0.00168619
0.00174421
0.00172508
0.0017817
0.00176311
0.00181784
0.00179997
0.00185229
0.00183531
0.0018847
0.00186879
0.00191471
0.00190004
0.00194199
0.00192873
0.00196622
0.00195452
0.00198711
0.00197712
0.00200433
0.00199622
0.00201765
0.00201153
0.00202718
0.00202283
0.00203232
0.0020306
0.00203304
0.00203282
0.00203473
0.00203065
0.00203545
0.00202243
0.00202343
0.00213419
0.0021334
0.00212701
0.00212822
0.000933404
0.000935665
0.00212566
0.00213446
0.00213622
0.00214283
0.002141
0.0021425
0.00214065
0.00213561
0.0021275
0.00203102
0.0020157
0.00200669
0.00200986
0.00199887
0.00201335
0.00202533
0.00204864
0.00206527
0.00208731
0.00210235
0.00211762
0.00212409
0.00211714
0.0021021
0.00208417
0.00206594
0.00204518
0.00202635
0.00212864
0.00202803
0.00202476
0.00202531
0.00201433
0.00201563
0.00202544
0.00200787
0.00201167
0.00199675
0.00200304
0.00198115
0.00198942
0.0019619
0.00197198
0.00193939
0.00195106
0.00191375
0.00192696
0.00188538
0.00189989
0.00185463
0.0018703
0.00182174
0.00183844
0.00178703
0.0018046
0.00175083
0.0017691
0.00171348
0.00173229
0.00167526
0.00169447
0.00163645
0.00165592
0.00159727
0.0016169
0.00155794
0.00157762
0.00151861
0.00153827
0.00147942
0.00149899
0.00144046
0.00145991
0.00140182
0.0014211
0.00136354
0.00138264
0.00132567
0.00134456
0.00128821
0.00130689
0.00125118
0.00126965
0.00121457
0.00123283
0.00117836
0.00119642
0.00114254
0.00116041
0.0011071
0.00112478
0.00107199
0.00108951
0.00103721
0.00105457
0.00100262
0.00101994
0.000967912
0.000985183
0.000932961
0.000950607
0.000916396
0.000915336
0.000915845
0.000917711
0.000916985
0.000919051
0.000918393
0.000920225
0.000919667
0.000921133
0.000920714
0.00092176
0.000921481
0.000922104
0.000921967
0.000922165
0.00092217
0.000921942
0.000922089
0.000921441
0.000921727
0.00092066
0.000921086
0.000919664
0.000920175
0.000918731
0.00091916
0.000918306
0.000918436
0.000952769
0.000918133
0.000935502
0.000987612
0.000970254
0.00102231
0.00100492
0.00105701
0.00103963
0.00109203
0.00107448
0.00112738
0.00110967
0.00116309
0.00114519
0.00119919
0.0011811
0.00123569
0.00121739
0.0012726
0.0012541
0.00130995
0.00129123
0.00134772
0.00132878
0.0013859
0.00136676
0.00142448
0.00140515
0.0014634
0.0014439
0.0015026
0.00148298
0.001542
0.00152229
0.00158147
0.00156174
0.00162085
0.00160119
0.00165997
0.00164047
0.0016986
0.00167937
0.00173647
0.00171765
0.0017733
0.00175504
0.00180876
0.00179123
0.00184253
0.0018259
0.00187426
0.00185869
0.00190361
0.00188927
0.00193026
0.00191731
0.0019539
0.00194249
0.00197426
0.00196453
0.00199105
0.00198314
0.00200407
0.00199807
0.0020133
0.00200915
0.00201835
0.00201648
0.00201891
0.00201922
0.00201602
0.00201793
0.00200933
0.00214181
0.00213999
0.00200983
0.00199936
0.00213743
0.00213856
0.00213179
0.00214364
0.00214528
0.000932364
0.000915025
0.00090091
0.000900725
0.00215059
0.0021487
0.00214874
0.00214542
0.00213887
0.00212937
0.00200572
0.00199408
0.00197864
0.00199015
0.00202562
0.00204129
0.00206602
0.00207742
0.0021008
0.00211568
0.00212774
0.00211572
0.00209882
0.00208015
0.00205704
0.00203948
0.00201812
0.00198564
0.00199616
0.00213906
0.00200417
0.00198608
0.00201245
0.00201295
0.00200789
0.00200279
0.00200196
0.00200809
0.00199434
0.00199824
0.00198308
0.00198931
0.00196783
0.00197591
0.00194906
0.00195888
0.00192706
0.00193846
0.00190202
0.00191491
0.00187428
0.00188848
0.00184416
0.00185951
0.00181192
0.0018283
0.00177788
0.00179512
0.00174235
0.00176029
0.00170564
0.00172413
0.00166803
0.00168694
0.0016298
0.00164899
0.00159118
0.00161053
0.00155235
0.00157179
0.0015135
0.00153292
0.00147474
0.0014941
0.00143618
0.00145543
0.00139791
0.00141701
0.00135998
0.0013789
0.00132241
0.00134115
0.00128524
0.00130378
0.00124847
0.00126681
0.00121209
0.00123023
0.00117611
0.00119406
0.00114049
0.00115826
0.00110523
0.00112282
0.0010703
0.00108773
0.00103568
0.00105295
0.00100136
0.00101849
0.000966956
0.000984095
0.000949709
0.000899221
0.000898
0.000898632
0.000900689
0.000899966
0.000902023
0.000901378
0.000903139
0.000902612
0.000903999
0.000903602
0.000904597
0.000904331
0.000904929
0.000904797
0.000904993
0.000904994
0.00090479
0.000904924
0.000904324
0.000904589
0.000903598
0.000903994
0.000902637
0.00090314
0.000901566
0.000902122
0.000901153
0.000952328
0.000917862
0.000935065
0.000986685
0.000969439
0.00102098
0.00100381
0.00105553
0.00103822
0.00109038
0.00107292
0.00112556
0.00110793
0.00116108
0.00114327
0.00119696
0.00117897
0.00123323
0.00121505
0.0012699
0.00125152
0.00130697
0.00128839
0.00134444
0.00132566
0.00138231
0.00136333
0.00142053
0.00140138
0.00145907
0.00143977
0.00149786
0.00147844
0.0015368
0.00151732
0.00157578
0.0015563
0.00161464
0.00159524
0.00165319
0.00163397
0.00169122
0.0016723
0.00172847
0.00170997
0.00176465
0.00174672
0.00179946
0.00178226
0.00183256
0.00181626
0.00186364
0.00184839
0.00189237
0.00187834
0.00191843
0.00190577
0.00194154
0.00193039
0.00196143
0.00195193
0.00197786
0.00197011
0.00199063
0.00198473
0.00199965
0.00199563
0.00200465
0.00200273
0.00200548
0.00200559
0.00200199
0.00200446
0.00199379
0.00199817
0.00198659
0.00198577
0.0019716
0.0019632
0.00197434
0.0021481
0.0021448
0.00214667
0.00214774
0.000897716
0.000900352
0.00213644
0.00215156
0.00215313
0.00215711
0.00215514
0.00215371
0.00214887
0.00214083
0.0021297
0.00196491
0.00196247
0.00195537
0.00197444
0.00199079
0.00201081
0.00204119
0.0020555
0.0020795
0.00209434
0.00211259
0.00212682
0.0021128
0.00209441
0.00207371
0.00205299
0.00203
0.00200565
0.00198162
0.00195393
0.00195962
0.00194702
0.00214829
0.00198593
0.00196055
0.00198766
0.00197998
0.00199567
0.0019944
0.0019923
0.00199331
0.00198884
0.00199186
0.0019809
0.00198516
0.0019696
0.00197575
0.00195463
0.00196256
0.00193625
0.00194586
0.0019147
0.00192587
0.00189021
0.00190282
0.00186306
0.00187696
0.00183354
0.00184859
0.00180194
0.00181799
0.00176854
0.00178545
0.00173365
0.00175127
0.00169757
0.00171575
0.00166058
0.00167918
0.00162293
0.00164183
0.00158486
0.00160394
0.00154655
0.00156573
0.00150817
0.00152736
0.00146986
0.001489
0.00143172
0.00145076
0.00139382
0.00141274
0.00135624
0.00137499
0.00131899
0.00133757
0.00128212
0.00130051
0.00124562
0.00126382
0.00120949
0.00122751
0.00117374
0.00119157
0.00113834
0.001156
0.00110327
0.00112076
0.00106852
0.00108586
0.00103407
0.00105126
0.000999893
0.00101695
0.000965789
0.000982799
0.000931705
0.000948797
0.000897232
0.000914534
0.000880974
0.00087994
0.000880375
0.000882338
0.000881595
0.000883765
0.000883054
0.000885056
0.000884439
0.000886112
0.000885614
0.000886929
0.000886551
0.000887498
0.000887244
0.000887817
0.000887689
0.000887884
0.000887882
0.0008877