/*--------------------------------*- C++ -*----------------------------------*\
  =========                 |
  \\      /  F ield         | OpenFOAM: The Open Source CFD Toolbox
   \\    /   O peration     | Website:  https://openfoam.org
    \\  /    A nd           | Version:  10
     \\/     M anipulation  |
\*---------------------------------------------------------------------------*/
FoamFile
{
    format      ascii;
    class       surfaceScalarField;
    location    "46.5";
    object      phi;
}
// * * * * * * * * * * * * * * * * * * * * * * * * * * * * * * * * * * * * * //

dimensions      [0 3 -1 0 0 0 0];

internalField   nonuniform List<scalar> 
57492
(
0.000236875
-1.06522e-05
-4.39423e-05
-0.00018228
-0.000163438
0.000268819
0.000131494
-2.88007e-05
8.09776e-05
0.000323818
-0.000375994
0.00315967
0.00338646
-0.000272029
-0.0062741
-0.00862821
0.0040453
0.00774258
0.000810946
-0.000747932
-0.000392021
0.000329007
-0.00144832
0.000256719
-9.23683e-05
0.00128397
0.000307785
-0.000945159
0.00157933
-0.00463347
0.00442631
-0.00137217
0.00133362
0.00425006
-0.00400435
-0.000616438
-0.000208244
0.000689842
0.00013484
-0.000123233
-0.00083778
0.000344575
0.000233591
-0.000327589
-2.92347e-05
-5.37368e-05
7.90839e-05
0.00190385
-0.00183397
-0.000688035
0.000618152
0.000270743
0.00153537
9.77363e-05
-0.000324058
0.000787886
0.00333551
-0.00379934
-0.000660347
0.00326136
-0.00292507
0.000135528
-0.000288734
0.000153206
-0.00166447
0.00122075
0.000579246
-0.0046607
0.000190605
0.00333658
0.00113352
0.00122711
-0.00473072
-0.0011571
-0.00013331
-0.000198377
-0.000705028
0.00103672
-0.000288451
0.000177256
-2.21157e-05
-0.00255443
0.00216724
0.000737711
-0.00035052
-0.0030562
0.000924708
-0.000422936
-0.00112801
0.00059656
0.000456904
7.45489e-05
-0.000779161
-0.000362388
1.35363e-05
-0.000367451
-0.00113447
0.0012917
0.000210227
-0.000416282
0.000116466
-6.76357e-05
0.000844484
-0.000562473
-0.000523878
0.000241866
-0.000729066
0.000582511
0.000991038
-0.000996811
-0.00191017
0.00183809
0.0010689
-0.00225791
-0.000543032
0.00180413
-0.000707604
-0.000152166
0.00085977
-0.000271377
-0.000436226
-0.00137481
0.00189257
-0.00078913
0.000203139
-0.000767346
-0.000810606
-0.000643805
0.000900523
-0.000233087
-0.00190179
0.0011508
0.00075099
-0.00432156
0.00241977
0.00491291
-0.000907397
0.000427916
-0.00443343
0.00362267
-2.12675e-06
0.00129237
-0.000811645
0.00489399
-0.00498975
0.00158561
0.000339422
-0.00161725
0.00159618
-0.000102941
0.00192928
-0.000722897
-0.00143563
0.000229248
0.00216027
0.000108429
0.000994022
-0.000616571
0.00121873
0.000953209
0.00132478
-0.00474535
-0.000642879
0.000557588
0.00483064
-0.0048783
-0.000307911
0.000440864
0.00120863
0.00451368
-0.00443809
-0.00128422
0.000879713
-0.00430455
-0.00279705
0.00253815
0.00254753
-0.00228863
-0.000285389
0.00321265
-0.00572431
1.49273e-05
-0.000117533
-8.12338e-07
0.000103418
-0.000323135
1.04729e-05
6.74833e-05
-0.000136752
-0.000253867
-5.67722e-05
6.72217e-06
1.12797e-05
-1.20921e-05
8.94263e-06
2.33709e-06
0.00731512
0.00378603
-0.00588705
-0.0052141
0.00233553
-0.000700448
0.00568004
-0.00786298
0.00309553
0.00710298
0.00228943
-0.00636638
0.00162359
-0.00286652
0.00213448
-0.000891547
0.00235733
-0.00291526
0.00218151
-3.00027e-05
2.19323e-05
-2.5818e-06
-7.04927e-05
-3.45235e-06
-0.000223616
-2.91571e-05
-0.00293987
0.00535062
0.00339283
-0.00580358
0.00436315
-0.00494569
0.00298414
0.00475065
-0.00238417
0.0101033
-0.00149179
-0.00178678
-0.00682473
0.00223554
0.0054325
0.00243526
0.00160083
-0.00501835
0.00565307
4.6859e-05
-7.56598e-05
0.000127837
0.000817377
0.00175917
-0.000626915
-0.00194963
0.0010414
9.97954e-05
-9.61389e-05
2.64476e-05
6.96913e-05
-0.000298956
0.000202817
-0.00660945
0.00342261
-0.00201372
0.00520056
-0.005744
-0.00250086
0.00163541
-0.00262589
0.00209005
-0.00520816
0.00195297
-2.65555e-05
-0.000944679
-0.000981735
-0.000711983
0.00222873
0.000436225
-0.000835105
-8.52849e-05
0.000208407
-0.00077196
-8.97005e-05
-0.000271576
-0.00144506
-0.000239157
-6.30665e-05
1.87355e-05
0.000283488
-0.0002174
-0.000526648
0.000504891
0.000138428
1.69144e-05
-0.000372743
7.96473e-05
-4.28533e-06
0.000101028
-2.64486e-06
-0.000641407
0.000369832
8.34497e-05
-0.000724857
0.000172675
-0.000471631
0.00427357
0.00333165
-0.000178505
0.00212868
-0.00648332
-1.03102e-05
0.00226387
-0.00179744
-0.000456115
0.000291854
0.00316402
-0.00346618
0.00327362
0.00185422
-0.000512289
-0.00461556
-0.00102685
0.000491508
0.00380897
0.00400506
-0.0031777
-0.00164117
-0.00303496
0.00124848
0.00342765
-0.00118712
0.00350573
-0.00395978
0.000420781
-0.00464287
8.31263e-05
3.40287e-05
-4.63917e-06
0.00104989
-0.000618808
-0.000594523
7.7453e-05
-0.000326869
0.00129931
0.000365437
-1.91647e-05
-0.0001873
0.000331812
6.83422e-05
-0.000212855
0.000991814
-0.00121505
3.5939e-05
-0.000357608
0.000831025
0.000518398
-0.000125095
9.92989e-05
-0.00611964
0.00364972
0.00589253
0.0077238
-0.00200999
-0.00821467
-0.00285967
0.00446382
-9.71353e-05
-0.000874888
-0.000162451
-0.000522561
9.14411e-06
4.7956e-05
-0.00012995
3.71627e-05
4.48316e-05
-0.000130061
0.000144632
3.33845e-05
-0.000299614
3.96034e-05
-0.000265492
-0.000312946
5.58769e-05
-0.000804258
-0.000336121
-0.000907592
-0.0009745
0.00111455
0.000767537
3.72717e-05
0.000479582
-0.00142445
-0.00127173
0.000334503
-0.00293586
0.00133139
-5.99998e-05
-0.00350461
0.000809724
-0.000240981
0.00087612
-0.00334729
0.00256403
-9.2863e-05
0.000679126
-0.00272823
0.00292523
0.00252832
-0.0101972
-0.00176708
0.00218358
0.00302327
-0.00345896
0.00206169
-0.000321292
5.18605e-07
1.63958e-05
-3.35519e-06
3.8738e-06
0.000284447
-4.13218e-05
0.00560215
-0.00340848
-0.00243744
0.000243768
0.00483515
-4.46402e-05
0.00466062
0.000152362
-0.00509837
0.00137164
0.00331088
-2.19058e-05
0.000543602
-0.00292908
0.00375712
5.44408e-06
-8.79927e-06
0.000759428
-0.00212104
-0.0028482
0.00123301
0.00308576
0.000951592
-5.38039e-05
-0.00100061
0.000102821
0.000315107
-9.25807e-05
-0.00122362
0.000266619
0.00153951
0.000221129
-0.00112964
-0.000134913
7.5563e-05
-7.29577e-06
1.02911e-05
-2.6778e-06
-3.17542e-07
1.09655e-05
-2.44286e-07
-1.8017e-05
4.68693e-05
-0.000104475
6.85711e-05
-0.00172286
0.00265892
-0.000763379
0.00292103
-0.0037929
-0.000850996
5.61516e-06
-0.00167598
0.00193698
-0.00399911
0.000242458
-0.00274104
-0.00183548
0.000577412
0.00269326
0.00291095
-0.00541361
0.00260426
0.00429521
-0.00420621
0.00223967
-0.0030846
0.00160677
-0.000761843
0.00245476
-0.00302381
0.00280871
0.00437213
0.0018754
0.00499461
-0.000238849
-0.00496102
0.000205259
0.00553296
-0.000666738
0.000128392
0.00552967
-0.000897366
7.53835e-05
-0.00470769
0.00396961
-0.00136948
0.00292953
0.00430844
-0.00140194
0.00113863
-0.00404513
0.00126695
0.00438872
-0.00134723
-0.0038769
-0.00166388
0.00413884
0.00106467
-0.00369309
-0.00185732
0.0036211
-0.00237658
-0.00324039
0.00215206
0.00346491
-0.00239307
-0.00326859
0.00328508
0.00223327
0.00304751
-0.00147308
-0.0038077
0.00302141
-0.00318121
-0.00258757
0.00261156
0.00299742
-0.00203963
0.00249956
-0.00407003
0.00361614
-0.00101918
-0.00506718
0.00105177
0.00537642
-0.00136101
0.00190921
-0.000267977
0.00100067
-0.00106635
0.000333658
-0.000110576
0.00128286
-0.00144027
-5.33225e-05
0.000307259
0.000111501
-0.00122559
-0.0019089
0.0012408
-1.59781e-07
-8.4506e-08
3.11279e-07
-4.7106e-07
-0.000115428
-0.00211131
0.00161017
-0.00187606
-7.8211e-05
0.00183884
5.39816e-05
-0.00196646
3.64224e-05
-0.000273271
0.00175992
0.000298635
-0.00178528
0.00181318
0.000509731
-0.00259618
0.00180261
0.00177049
-2.48902e-06
4.89831e-07
3.60278e-05
-4.79109e-06
2.30207e-06
-4.30127e-06
-5.60088e-06
4.30853e-06
-5.54799e-05
1.06137e-06
-6.66225e-06
5.3699e-06
-4.41999e-05
2.14066e-05
-0.000265657
2.23467e-05
-6.65466e-05
4.37533e-05
5.32027e-05
-5.33715e-06
-0.00017296
-1.69073e-05
7.011e-05
-2.22444e-05
0.00141976
0.00328567
-0.00421392
0.00133869
-0.00447787
0.00455893
0.00471937
-9.50105e-05
-0.00118238
-0.00244452
0.00115821
0.00246868
-0.000710471
0.00272191
-0.00319381
0.000157324
-0.00331231
0.00415368
-0.00417995
-1.3699e-05
3.9965e-05
0.00416401
3.70655e-05
-4.73974e-05
-2.65264e-05
-0.0041599
6.47483e-06
0.00420669
-1.81116e-06
-4.08655e-05
0.00429251
6.08331e-05
-0.000146659
2.97542e-05
0.00440995
-0.000147185
0.00435649
-0.00432048
-6.25488e-06
-0.000206045
0.00462615
-1.0163e-05
0.00424466
-9.42158e-05
-0.00417754
-8.21112e-05
-0.00415183
-2.75206e-05
-0.00413391
1.91446e-05
-0.00420945
6.18495e-05
-0.00412689
-0.000109092
-0.000200572
0.00483653
-9.8003e-06
0.0040548
-1.07068e-05
-2.12145e-05
-0.00411023
-2.84494e-05
-0.00414583
-2.27663e-06
-2.98121e-05
-0.00433156
0.000251137
-1.25385e-06
0.00484664
-8.86534e-06
0.00406399
-1.0447e-05
-0.00428189
0.000106255
0.00485623
-1.06605e-06
-8.52036e-06
-1.17829e-06
0.004865
-7.59063e-06
0.00407235
-9.42592e-06
0.00408047
-9.29961e-06
-2.51356e-05
-0.00428829
-1.81264e-05
-0.00428751
-1.9518e-05
-9.16777e-07
0.00487324
-7.32116e-06
0.00408789
-8.3358e-06
-9.09308e-07
-0.00426839
-1.89937e-05
-0.00426746
-2.09573e-05
-9.04698e-07
0.00488058
-6.43784e-06
0.00409528
-8.29324e-06
-8.65703e-07
-0.00424731
-2.0216e-05
-0.00424651
-2.18156e-05
-3.86436e-07
0.00488721
-6.24515e-06
0.00410227
-7.37618e-06
-1.06497e-06
-0.00422521
-2.10311e-05
-0.00422428
-2.33e-05
1.30612e-07
0.00489249
-5.40813e-06
0.0041098
-7.40614e-06
-1.05063e-06
-0.00420196
-2.22034e-05
-0.00420109
-2.42428e-05
1.6495e-06
0.00489612
-5.28475e-06
0.00411799
-6.53176e-06
8.46144e-06
-0.00418742
-2.3e-05
-0.00416689
-2.57388e-05
4.17776e-06
0.00489644
-4.48807e-06
0.00412879
-6.62291e-06
2.58322e-05
-0.00404496
-0.000168296
-0.00407138
-6.96778e-05
9.74898e-06
0.00489112
-4.43145e-06
0.00412524
1.32983e-05
2.51371e-05
-0.00403916
-3.09372e-05
-0.00401595
-3.0287e-05
2.02857e-05
0.00487451
-3.67338e-06
0.00410055
4.49696e-05
5.5319e-05
-0.00387081
-0.000223663
-0.0038745
-8.61382e-05
0.000208057
0.00467012
-3.6671e-06
0.00422938
7.92257e-05
6.29999e-05
-0.00382656
-0.000107254
-0.00380573
-5.7649e-06
0.00018387
0.00432977
0.000156478
0.004303
0.000110256
0.000100493
-0.000171164
-0.00375589
-0.00376332
5.80789e-05
1.20247e-05
3.90174e-05
0.00427873
0.0042786
3.64196e-05
-0.00384436
0.00393181
-0.00019471
-0.00383836
-0.000177165
0.000171501
-0.000178114
-0.00374927
5.56736e-05
-0.00364749
-0.0038724
0.00393081
-8.93441e-05
-0.00016425
-0.00381003
0.00383238
-4.53445e-05
-4.75216e-05
-0.00385356
0.0038738
-4.12744e-05
-4.33882e-05
-0.00389295
0.00391123
-3.72731e-05
-3.93663e-05
-0.00392854
0.00421311
-3.34365e-05
-3.54322e-05
-0.00421645
0.00417305
4.98805e-05
-3.17891e-05
-0.00432113
0.0043002
-2.64632e-05
-0.000108124
-0.00417399
0.00412386
-9.65258e-05
8.53454e-05
-0.00403603
0.00404623
-2.03684e-05
-5.93571e-05
-0.00405571
0.00406463
-1.77858e-05
-1.928e-05
-0.00407295
0.00408078
-1.54273e-05
-1.68333e-05
-0.00408808
0.00409494
-1.33057e-05
-1.46127e-05
-0.00410133
0.00410733
-1.14148e-05
-1.26269e-05
-0.00411291
0.00411816
-9.7378e-06
-1.08631e-05
-0.00412303
0.00412761
-8.24985e-06
-9.30216e-06
-0.00410751
0.00420791
5.60745e-05
1.64332e-05
0.00420088
4.60449e-05
-2.66286e-05
8.03778e-05
0.00422498
-7.8027e-06
0.00425978
0.0042203
-0.00414681
5.73828e-06
-0.00426521
0.00425967
4.19607e-05
6.53415e-05
0.00414209
-0.00411811
-1.06858e-05
4.02483e-05
0.00411289
-0.00410725
-1.21698e-05
-1.18414e-05
0.00410127
-0.00409482
-1.38287e-05
-1.33853e-05
0.00408798
-0.0040806
-1.57111e-05
-1.51322e-05
0.00407279
-0.00406437
-1.78461e-05
-1.71156e-05
0.00405545
-0.00404588
-2.02729e-05
-1.93666e-05
0.00411817
-0.00410146
-2.29685e-05
-2.19278e-05
0.00415885
-0.00410177
-8.46022e-05
-2.4714e-05
0.00406224
-0.00402228
2.18878e-05
-2.03845e-05
0.00405832
-0.00406935
8.75166e-06
-7.30553e-05
0.00392804
-0.00391071
-3.6846e-05
-3.50493e-05
0.00389255
-0.00387328
-4.108e-05
-3.91261e-05
0.00385313
-0.00383183
-4.55451e-05
-4.34504e-05
0.00380958
-0.00382905
-5.02106e-05
-4.79857e-05
0.00380663
-0.00383771
-5.5059e-05
-5.27075e-05
0.00378582
-0.00370417
-2.35662e-05
-5.76559e-05
-0.00363718
-1.13208e-05
-0.0038387
-0.00017777
0.00421722
6.4045e-05
-7.03375e-06
0.0042589
0.000102337
-0.00011828
-0.00363155
4.62494e-05
-0.00358109
0.000152468
-0.000174487
-0.00381668
-0.00371509
-0.00382998
0.00379309
-0.000157819
0.0038473
-0.00385135
-0.000173716
-0.000159847
-0.00376874
0.00379277
-0.000113367
-0.000139904
-0.00381568
0.00383767
-6.73348e-05
-7.04317e-05
-0.00385851
0.00387842
-6.11896e-05
-6.42275e-05
-0.00389725
0.00391522
-5.52394e-05
-5.81987e-05
-0.00393218
0.00394831
-4.95587e-05
-5.23955e-05
-0.00396345
0.00405758
-4.42476e-05
-4.69311e-05
-0.00399128
0.00400409
-3.9268e-05
-4.18306e-05
-0.00412649
0.00406467
-3.47008e-05
-3.70586e-05
-0.00403796
0.004048
-3.04141e-05
-3.26478e-05
-0.00405735
0.00406616
-2.65949e-05
-2.86318e-05
-0.00407436
0.0040821
-2.31578e-05
-2.50342e-05
-0.00408929
0.00409606
-2.00802e-05
-2.18032e-05
-0.00410235
0.00410828
-1.73429e-05
-1.89218e-05
-0.00411379
0.00411897
-1.49202e-05
-1.63673e-05
-0.00412378
0.0041283
-1.27726e-05
-1.41101e-05
-0.0041322
0.00416928
1.89861e-05
1.25372e-05
7.63856e-06
-1.9636e-05
0.00423697
-2.86637e-06
0.00422772
-0.00416024
0.00420466
1.96259e-05
5.50935e-05
0.00420393
-0.00420144
3.94698e-05
0.00417327
2.36299e-05
1.55448e-06
4.25784e-05
0.00421477
0.0042417
0.00419837
-0.00416387
-2.87619e-05
6.22751e-05
0.00412377
-0.0041189
-1.55644e-05
1.48966e-07
0.00411373
-0.00410816
-1.77432e-05
-1.70047e-05
0.00410225
-0.00409588
-2.02018e-05
-1.92906e-05
0.00408913
-0.00408185
-2.29914e-05
-2.18842e-05
0.00407414
-0.00406584
-2.61479e-05
-2.48254e-05
0.00405705
-0.00404762
-2.97048e-05
-2.81494e-05
0.00403767
-0.00402697
-3.36661e-05
-3.18829e-05
0.00401566
-0.00406219
-3.80786e-05
-3.60202e-05
0.00404196
-0.00397718
-4.28941e-05
-4.06094e-05
0.00400457
-0.0039476
-4.82216e-05
-4.56639e-05
0.00393153
-0.00391445
-5.39233e-05
-5.11163e-05
0.00389656
-0.00387759
-6.00479e-05
-5.70169e-05
0.00385776
-0.00383678
-6.65209e-05
-6.32878e-05
0.00381488
-0.0037918
-7.32943e-05
-6.98825e-05
0.00376776
-0.0037425
-8.03168e-05
-7.67526e-05
0.0037163
-0.00365237
-8.74949e-05
-8.38509e-05
0.00360408
-0.00352754
-3.02912e-05
-5.96162e-05
-0.00384907
-0.000176765
2.85157e-05
-0.000113164
-0.00349644
-0.00347703
-2.19902e-05
-0.000197308
-0.0035474
1.91148e-05
0.00418267
0.00418269
3.3159e-05
-0.000114126
0.000104749
-0.0038073
-0.000142039
-0.00382116
9.45095e-07
-0.000107221
-0.00339016
-5.1327e-05
-0.00342476
-0.00380764
0.00421591
-0.00420046
4.17743e-06
0.0041757
5.9325e-05
6.80855e-05
-2.84238e-05
0.00417511
3.96231e-05
0.00421115
-0.00379439
0.00386518
-0.000212825
-0.000196872
0.000144863
-0.00376915
0.00385166
1.80644e-05
0.000192717
-0.00406245
-0.000139598
-0.00388906
0.00388521
-0.000169871
-0.000200648
-0.00386059
0.00382279
-0.000120016
-0.000135228
-0.0038178
0.00380163
-9.71941e-05
-0.000134914
-0.003824
0.00384543
-8.87633e-05
-9.28035e-05
-0.00386573
0.00388514
-8.05963e-05
-8.45333e-05
-0.00390349
0.003921
-7.2748e-05
-7.65511e-05
-0.00393753
0.00395325
-6.52849e-05
-6.89183e-05
-0.00396804
0.00398207
-5.82819e-05
-6.17149e-05
-0.00399523
0.00400772
-5.1761e-05
-5.49917e-05
-0.00401941
0.00403046
-4.57525e-05
-4.87462e-05
-0.00404082
0.00405063
-4.02173e-05
-4.30084e-05
-0.00405977
0.00406839
-3.52198e-05
-3.77742e-05
-0.00407643
0.004084
-3.07307e-05
-3.30656e-05
-0.00409104
0.00409768
-2.67194e-05
-2.8848e-05
-0.00410385
0.00410967
-2.3156e-05
-2.50922e-05
-0.00411506
0.00412015
-2.00053e-05
-2.17658e-05
-0.00412487
0.00412932
-1.72198e-05
-1.88301e-05
-0.00414483
0.0041555
8.31375e-06
-2.97848e-06
1.01402e-05
2.55135e-05
-1.07767e-05
0.00422224
-3.96918e-05
4.73527e-06
0.00421763
0.00421354
0.0042025
0.0041929
-0.00418508
3.16433e-05
-0.00419003
0.00417007
5.31155e-05
2.65077e-05
0.00413348
-0.0041444
-1.78358e-05
1.06736e-05
0.00412484
-0.00412005
-2.03577e-05
-1.94135e-05
0.00411498
-0.0041095
-2.32157e-05
-2.20745e-05
0.00410371
-0.00409745
-2.64556e-05
-2.50867e-05
0.00409083
-0.00408369
-3.01295e-05
-2.85068e-05
0.00407614
-0.00406801
-3.42795e-05
-3.23805e-05
0.00405941
-0.00405017
-3.89419e-05
-3.67476e-05
0.00404042
-0.00402994
-4.41379e-05
-4.16382e-05
0.00401889
-0.00400707
-4.99028e-05
-4.70737e-05
0.0039946
-0.00398126
-5.62285e-05
-5.30789e-05
0.00396726
-0.00395234
-6.31426e-05
-5.96687e-05
0.00393665
-0.00391998
-7.05914e-05
-6.68021e-05
0.00390252
-0.00388401
-7.85583e-05
-7.44792e-05
0.00386466
-0.0038442
-8.69792e-05
-8.26409e-05
0.00382286
-0.00380036
-9.5788e-05
-9.1226e-05
0.00377695
-0.00375236
-0.000104907
-0.000100164
0.00372684
-0.0037001
-0.000114234
-0.00010937
0.00364097
-0.00354751
-0.000123753
-0.000118744
0.00348224
-0.00346271
-7.08612e-05
-8.72622e-05
-4.12354e-05
1.32102e-05
-0.00339674
-0.00341725
-8.66921e-05
0.000135723
-0.00379816
-8.00592e-05
-0.00357456
3.09861e-05
0.00414945
0.00418721
2.24807e-05
0.000190357
-0.00394144
4.62286e-05
-0.00342318
0.000864121
-0.00313507
0.00407356
4.99135e-05
-0.000100476
-0.00336669
-1.29167e-05
-0.00333391
-0.00249311
0.00382509
0.000438511
-0.00189344
-0.00030103
-0.00375198
-0.00366016
0.00384362
9.25412e-06
0.000176038
-1.11111e-05
-0.00383212
0.00382319
-0.000203897
-0.000128093
-0.0038179
0.00378963
-0.000141603
-0.000195357
-0.00379018
0.00380079
-0.000130624
-0.000135776
-0.00379078
0.00381342
-0.000119829
-0.00012491
-0.00383495
0.00385558
-0.000109399
-0.000114335
-0.00387516
0.00389388
-9.93205e-05
-0.00010411
-0.0039116
0.00392851
-8.96591e-05
-9.42688e-05
-0.00394448
0.00395968
-8.04866e-05
-8.48811e-05
-0.00397398
0.00398758
-7.18748e-05
-7.6021e-05
-0.00400033
0.00401244
-6.38648e-05
-6.77474e-05
-0.00402377
0.0040345
-5.6482e-05
-6.0085e-05
-0.00404455
0.00405405
-4.97215e-05
-5.30522e-05
-0.00406292
0.0040713
-4.35986e-05
-4.66469e-05
-0.00407911
0.00408648
-3.80965e-05
-4.08732e-05
-0.00409333
0.0040998
-3.31828e-05
-3.57032e-05
-0.0041058
0.00411147
-2.88196e-05
-3.11015e-05
-0.00411673
0.00412169
-2.49638e-05
-2.70275e-05
-0.00412629
0.00413064
-2.15634e-05
-2.34351e-05
-0.00414792
0.0041748
-1.85637e-05
-2.02648e-05
-0.00416814
0.00416871
3.60101e-06
1.68029e-05
-0.00418806
0.00418586
3.31872e-05
3.99795e-05
5.14708e-05
-2.82395e-05
0.0041944
-2.64151e-05
-4.21336e-06
0.00421649
0.0041745
3.92338e-05
1.58959e-05
0.00416711
0.00422454
-2.51317e-05
1.35581e-05
0.00418668
0.00419326
-1.56322e-05
-8.01175e-06
0.00421086
0.00420907
0.00420945
-0.00419174
3.54074e-05
-0.00427707
0.00416591
0.000103149
-4.5145e-05
0.00417832
-0.00416621
1.95372e-05
1.30836e-05
0.00413467
-0.00413057
-2.19346e-05
-2.08619e-05
0.00412624
-0.00412156
-2.50351e-05
-2.37501e-05
0.00411661
-0.00411127
-2.85548e-05
-2.70222e-05
0.00410562
-0.00409952
-3.25519e-05
-3.07391e-05
0.00409307
-0.00408612
-3.70813e-05
-3.49595e-05
0.00407877
-0.00407085
-4.21915e-05
-3.97347e-05
0.00406249
-0.00405351
-4.79243e-05
-4.51103e-05
0.00404402
-0.00403385
-5.43121e-05
-5.11238e-05
0.00402312
-0.00401163
-6.1385e-05
-5.7806e-05
0.00399954
-0.00398661
-6.91503e-05
-6.51775e-05
0.00397304
-0.00395857
-7.7608e-05
-7.32467e-05
0.00394339
-0.00392725
-8.67241e-05
-8.19874e-05
0.00391036
-0.00389246
-9.64584e-05
-9.13738e-05
0.00387375
-0.00385399
-0.000106741
-0.000101346
0.00383339
-0.00381169
-0.000117489
-0.000111829
0.00378912
-0.00376543
-0.0001286
-0.000122731
0.00374085
-0.00371513
-0.000139961
-0.000133945
0.00368851
-0.00366079
-0.000151477
-0.000145357
0.00359119
-0.00349898
-0.000163071
-0.000156864
0.00347634
-0.00343539
-0.00014143
-0.000109326
-9.73889e-05
7.0475e-05
-0.00333977
-0.00338236
-0.000150417
0.00013047
-0.00373828
-1.61714e-05
-0.00351216
0.000332139
-0.00340946
4.84461e-05
-0.00348455
0.00418877
-0.00419211
3.65291e-05
0.00417636
8.19439e-06
4.14954e-05
-2.72955e-05
0.00419666
5.83775e-07
0.00420682
0.000353982
-0.00297932
8.64307e-05
-0.00334986
-0.00166383
-0.0020149
-0.00296447
0.00344691
-4.39226e-05
-7.86793e-05
6.82747e-05
-0.00332937
-0.000128477
-0.00333256
-0.00271895
-0.00054655
-0.00363768
-0.00362747
0.00370197
-6.5247e-05
-4.52277e-06
-0.00375924
0.00373474
-0.000179394
-0.000185363
-0.00371188
0.00373683
-0.000166549
-0.0001725
-0.00376083
0.00378407
-0.000153854
-0.000159784
-0.00380634
0.00382781
-0.000141305
-0.000147181
-0.00384829
0.00386795
-0.000129061
-0.00013481
-0.00388663
0.00390452
-0.000117208
-0.000122789
-0.00392146
0.00393764
-0.000105843
-0.000111211
-0.00395293
0.0039675
-9.50558e-05
-0.000100168
-0.00398122
0.00399427
-8.49233e-05
-8.97442e-05
-0.00400653
0.00401817
-7.54996e-05
-8.00057e-05
-0.00402907
0.00403941
-6.68143e-05
-7.09919e-05
-0.00404908
0.00405823
-5.88742e-05
-6.27224e-05
-0.00406678
0.00407486
-5.16788e-05
-5.51969e-05
-0.00408239
0.00408951
-4.52096e-05
-4.8408e-05
-0.00409613
0.00410238
-3.94318e-05
-4.23273e-05
-0.00410819
0.00411367
-3.43011e-05
-3.69146e-05
-0.00411877
0.00412357
-2.97677e-05
-3.21227e-05
-0.00412804
0.00413225
-2.57752e-05
-2.78987e-05
-0.00413616
0.00413986
-2.22598e-05
-2.41815e-05
-0.00417757
0.0041663
1.48777e-05
-2.09098e-05
1.41621e-05
3.84181e-05
-6.76452e-05
0.00422363
-9.86813e-06
2.07172e-05
0.00420564
0.00420305
-1.51412e-06
-1.13146e-06
0.00416975
0.00415538
-3.6912e-05
5.41299e-05
0.00416947
0.00415522
0.00423591
0.00421292
-0.00419769
2.01774e-05
-0.00416338
0.00420762
5.89126e-05
4.38979e-06
0.00418207
-0.00413984
-2.26939e-05
-2.53096e-06
0.00413615
-0.00413217
-2.59136e-05
-2.45563e-05
0.00412796
-0.00412343
-2.95702e-05
-2.79552e-05
0.00411863
-0.00411345
-3.37295e-05
-3.18193e-05
0.00410798
-0.00410208
-3.84546e-05
-3.6215e-05
0.00409583
-0.00408911
-4.38052e-05
-4.12042e-05
0.004082
-0.00407435
-4.98358e-05
-4.6844e-05
0.00406628
-0.00405761
-5.65948e-05
-5.31864e-05
0.00404845
-0.00403865
-6.4121e-05
-6.02755e-05
0.00402831
-0.00401725
-7.24441e-05
-6.81463e-05
0.0040056
-0.00399318
-8.15746e-05
-7.68198e-05
0.00398013
-0.00396623
-9.15042e-05
-8.62998e-05
0.00395166
-0.00393618
-0.000102199
-9.65629e-05
0.00391998
-0.00390284
-0.000113606
-0.00010757
0.00388493
-0.00386603
-0.000125644
-0.000119252
0.00384634
-0.00382561
-0.00013821
-0.000131519
0.00380409
-0.0037815
-0.000151183
-0.00014426
0.0037581
-0.00373364
-0.000164423
-0.000157344
0.00370837
-0.00368206
-0.000177785
-0.000170627
0.00365498
-0.00362694
-0.000191109
-0.000183951
0.00353911
-0.00347641
-0.000204132
-0.000197154
0.00341682
-0.00336353
-0.000181765
-0.000210007
-9.9765e-05
9.86219e-05
-0.00333142
-0.00331902
-0.000144275
0.000100959
-0.0035071
1.27467e-05
-0.00347646
3.75294e-05
0.00415955
0.00419435
1.38502e-05
0.000211691
-0.00326717
-0.000322904
-0.00393711
2.03693e-05
-0.00332259
5.05739e-05
-0.00344869
8.9301e-05
-0.00337089
-0.00387641
-0.000857441
0.000297616
-0.000584641
-0.00358939
-0.000166057
-0.00347344
7.1771e-05
-0.00330252
-0.000138578
5.65524e-05
-0.0032494
-0.000131419
-0.00332618
-0.00352398
-0.00327501
0.00344998
-0.000218892
0.00341854
-0.00372311
-0.000552868
-0.000403015
-0.00358412
0.00366198
-0.000143111
-0.000138662
-0.0036871
0.00371176
-0.000204048
-0.000210487
-0.00373571
0.00375905
-0.000189887
-0.000196452
-0.00378154
0.00380334
-0.000175658
-0.000182278
-0.00382426
0.00384446
-0.000161505
-0.0001681
-0.00386375
0.00388231
-0.000147614
-0.0001541
-0.00389996
0.00391688
-0.000134131
-0.00014044
-0.00393293
0.00394827
-0.000121188
-0.000127259
-0.00396278
0.00397662
-0.000108894
-0.000114676
-0.00398966
0.00400208
-9.73404e-05
-0.000102791
-0.00401376
0.00402485
-8.659e-05
-9.16821e-05
-0.00403525
0.00404512
-7.66801e-05
-8.13973e-05
-0.00405436
0.00406311
-6.76228e-05
-7.1961e-05
-0.00407129
0.00407902
-5.94131e-05
-6.3375e-05
-0.00408624
0.00409306
-5.20285e-05
-5.56257e-05
-0.00409941
0.00410541
-4.54305e-05
-4.86819e-05
-0.00411099
0.00411626
-3.95701e-05
-4.24989e-05
-0.00412116
0.00412579
-3.43907e-05
-3.70234e-05
-0.00413008
0.00413414
-2.98307e-05
-3.21963e-05
-0.00413791
0.00414148
-2.58239e-05
-2.79534e-05
-0.00414479
0.00418197
-2.23013e-05
-2.42259e-05
-0.00418775
0.00420002
2.42673e-05
8.37933e-06
-0.00414638
0.00416623
1.76855e-05
6.18256e-05
6.00712e-05
-4.39341e-05
0.0041895
-2.62337e-06
-2.31698e-05
0.00419202
0.004217
4.64628e-05
3.77862e-06
0.00417338
0.00420558
-1.32831e-06
-1.14515e-06
0.00417223
0.00415783
3.6069e-06
-6.05924e-06
0.00417192
0.00415768
-2.26233e-05
1.41826e-05
0.0042051
0.00420723
-4.9702e-06
8.32168e-06
0.004191
0.00421604
0.00422283
-0.00417278
8.86362e-06
-0.00420546
0.00418311
3.06668e-05
3.12226e-05
0.00417881
-0.00416698
8.35113e-06
1.04173e-05
0.00414481
-0.00414144
-2.60645e-05
-2.46985e-05
0.00413788
-0.00413405
-2.97478e-05
-2.81157e-05
0.00413
-0.00412563
-3.39395e-05
-3.20069e-05
0.00412101
-0.00411603
-3.87112e-05
-3.64398e-05
0.00411076
-0.00410508
-4.41303e-05
-4.14836e-05
0.00409908
-0.00409262
-5.02621e-05
-4.72048e-05
0.0040858
-0.00407847
-5.71673e-05
-5.36667e-05
0.00407073
-0.00406243
-6.48993e-05
-6.0927e-05
0.00405367
-0.00404429
-7.3502e-05
-6.90348e-05
0.0040344
-0.00402384
-8.30054e-05
-7.80283e-05
0.00401273
-0.00400089
-9.34198e-05
-8.79285e-05
0.00398845
-0.00397522
-0.000104733
-9.87364e-05
0.00396136
-0.00394665
-0.000116906
-0.000110426
0.00393127
-0.00391501
-0.000129874
-0.000122948
0.00389804
-0.00388014
-0.000143542
-0.000136223
0.00386151
-0.00384193
-0.000157791
-0.000150145
0.00382161
-0.00380032
-0.000172474
-0.000164582
0.00377829
-0.00375528
-0.000187427
-0.000179378
0.00373155
-0.00370687
-0.000202464
-0.000194359
0.00368149
-0.00365522
-0.000217384
-0.00020933
0.0036283
-0.0036005
-0.000231925
-0.000224074
0.00357215
-0.00350798
-0.000245937
-0.000238357
0.00344543
-0.00336122
-0.000215637
-0.000206822
-0.000184168
0.000124062
-0.00326607
-0.00333293
-0.000212456
7.26972e-05
-0.0033681
-0.00373344
-0.000574312
7.3575e-05
-0.00332038
0.00422081
-0.00422928
2.61585e-05
0.00421914
-2.15059e-05
3.13787e-05
-2.71408e-05
0.00418676
4.06254e-05
0.00417387
1.39791e-05
-0.00343987
5.25601e-05
-0.00341195
-1.45386e-05
-0.00347411
9.18334e-05
-0.00339095
0.000131798
-0.00337776
0.000172144
-0.00329748
-0.000173234
0.000170861
-0.0032637
-0.000238166
-0.003268
-0.0034373
-0.0036934
0.00355322
-0.000412691
-0.000506536
0.000593466
-0.00382037
0.00381491
-0.00393215
-0.000389294
-0.000452803
-0.0034478
0.00353227
-0.000303363
-0.000297592
-0.00362765
0.00369296
-0.000208419
-0.000234049
-0.0037165
0.00373951
-0.000227059
-0.000234024
-0.00376181
0.00378352
-0.000211601
-0.000218748
-0.00380445
0.00382475
-0.000195957
-0.000203207
-0.00384424
0.00386307
-0.000180337
-0.000187588
-0.00388107
0.00389841
-0.000164953
-0.000172106
-0.00391493
0.00393079
-0.000149987
-0.000156957
-0.00394584
0.00396025
-0.000135597
-0.000142311
-0.00397389
0.00398691
-0.000121917
-0.000128314
-0.0039992
0.00401091
-0.00010905
-0.000115082
-0.00402193
0.00403241
-9.7069e-05
-0.000102704
-0.00404225
0.00405159
-8.60198e-05
-9.12384e-05
-0.00406034
0.00406864
-7.59184e-05
-8.07143e-05
-0.0040764
0.00408375
-6.67588e-05
-7.11358e-05
-0.00409061
0.00409709
-5.85155e-05
-6.24866e-05
-0.00410314
0.00410886
-5.11468e-05
-5.47323e-05
-0.00411419
0.00411921
-4.45986e-05
-4.78242e-05
-0.00412389
0.00412831
-3.88089e-05
-4.17037e-05
-0.00413242
0.0041363
-3.37108e-05
-3.63061e-05
-0.00413991
0.00414332
-2.92338e-05
-3.15625e-05
-0.0041465
0.0041495
-2.53038e-05
-2.74012e-05
-0.00418163
0.00419919
6.70319e-06
-2.37483e-05
3.17375e-05
1.08965e-05
-3.89689e-05
0.00421757
-2.10325e-05
-1.05979e-05
0.00422365
0.00420686
-5.71939e-06
3.44725e-06
0.00417566
0.00416089
-1.15517e-06
-1.15845e-06
0.00417454
0.00416012
3.46252e-06
-5.75963e-06
0.00417421
0.00415998
-4.0986e-05
2.6485e-05
0.0042196
0.00416048
0.00421538
0.00421806
-0.00421832
9.12989e-06
-0.00421107
0.00419452
4.7223e-05
3.82052e-05
0.00418355
-0.00414952
-2.56798e-05
-2.43542e-05
0.00414652
-0.00414329
-2.9295e-05
-2.76972e-05
0.00413988
-0.00413621
-3.34194e-05
-3.15226e-05
0.00413233
-0.00412815
-3.8121e-05
-3.58857e-05
0.00412373
-0.00411897
-4.3473e-05
-4.08592e-05
0.00411394
-0.00410852
-4.95478e-05
-4.65162e-05
0.0041028
-0.00409664
-5.64161e-05
-5.29283e-05
0.00409015
-0.00408317
-6.41436e-05
-6.01643e-05
0.00407581
-0.00406792
-7.27887e-05
-6.82867e-05
0.00405961
-0.00405071
-8.23981e-05
-7.73491e-05
0.00404135
-0.00403135
-9.30025e-05
-8.73911e-05
0.00402084
-0.00400965
-0.000104611
-9.84339e-05
0.00399791
-0.00398544
-0.000117207
-0.000110475
0.00397238
-0.00395854
-0.000130745
-0.000123485
0.00394409
-0.00392881
-0.000145148
-0.000137404
0.00391289
-0.00389613
-0.00016031
-0.000152141
0.0038787
-0.0038604
-0.000176091
-0.000167575
0.00384143
-0.00382158
-0.000192324
-0.000183551
0.00380106
-0.00377967
-0.000208816
-0.000199893
0.00375763
-0.00373474
-0.000225354
-0.000216397
0.00371123
-0.00368691
-0.000241708
-0.000232841
0.003662
-0.00363631
-0.000257619
-0.000248984
0.00361008
-0.00358313
-0.000272882
-0.000264583
0.00351056
-0.00343898
-0.000287222
-0.000279394
0.00339463
-0.00337434
-0.000258458
-0.000256806
-0.000363165
0.0001452
-0.00325547
-0.00335909
-0.00020675
0.000207288
-0.00326853
-0.00329882
-0.00028227
2.22395e-05
-0.00331677
3.36993e-05
0.00417484
0.00423162
3.52556e-06
0.000319829
-0.00387078
-0.000381193
1.52772e-05
-0.00340259
0.000393612
-0.00389416
2.36308e-05
-0.00335855
5.42343e-05
-0.00337435
5.27149e-05
-0.00338162
9.42388e-05
-0.00335339
0.000135067
-0.00334069
0.000176183
-0.0033028
0.00018266
-0.00323907
-0.000239142
0.000208377
-0.00323777
-0.000262814
-0.00327514
-0.00339978
-0.00393038
0.0038021
-0.000261014
-0.000474753
-0.0037807
0.000384666
0.0040056
-0.0038767
-0.00060366
-0.000305974
-0.0037224
0.00366757
-0.000357859
-0.000373098
-0.00365625
0.00363258
-0.000279698
-0.000286273
-0.00367008
0.00372628
-0.000264622
-0.000271543
-0.00374809
0.00376937
-0.000248339
-0.000255834
-0.00378995
0.00380997
-0.000231624
-0.000239326
-0.00382927
0.00384799
-0.000214677
-0.000222505
-0.00386597
0.00388336
-0.000197726
-0.000205569
-0.0039
0.00391604
-0.000180995
-0.000188748
-0.00393134
0.00394605
-0.000164691
-0.000172256
-0.00396002
0.00397342
-0.000148993
-0.000156288
-0.00398611
0.00399825
-0.000134052
-0.000141008
-0.00400971
0.00402065
-0.000119985
-0.000126548