/*--------------------------------*- C++ -*----------------------------------*\
  =========                 |
  \\      /  F ield         | OpenFOAM: The Open Source CFD Toolbox
   \\    /   O peration     | Website:  https://openfoam.org
    \\  /    A nd           | Version:  10
     \\/     M anipulation  |
\*---------------------------------------------------------------------------*/
FoamFile
{
    format      ascii;
    class       surfaceScalarField;
    location    "8.5";
    object      phi;
}
// * * * * * * * * * * * * * * * * * * * * * * * * * * * * * * * * * * * * * //

dimensions      [0 3 -1 0 0 0 0];

internalField   nonuniform List<scalar> 
57492
(
-0.0213494
-0.000477955
0.00459833
0.017229
0.011356
-0.0160892
-0.0166162
-0.00333003
0.0111004
0.0333848
-0.0411552
0.09896
0.0723497
-0.0164036
-0.154906
-0.209937
0.0849872
0.22391
0.040619
-0.0393986
-0.0192197
0.0179993
-0.0749949
0.0181511
-0.0117002
0.0685441
0.0141039
-0.0484798
0.0257181
-0.104574
0.0996945
-0.0208388
0.0228858
0.0957848
-0.0929524
0.052357
0.0164545
-0.0396827
-0.0291288
-0.000601794
0.0362601
0.0166987
-0.0257144
0.0223959
0.00271663
0.00848525
-0.0177451
0.100018
-0.0879625
-0.0367105
0.0246548
0.0051704
0.0763206
0.0185272
0.000257922
0.0111304
0.0858496
-0.097238
-0.00964129
0.0846753
-0.0747761
0.0189336
-0.0381871
0.0192536
-0.102263
0.069617
0.0515797
-0.114048
0.0169817
0.0838837
0.0131822
0.0168673
-0.115924
-0.0149906
0.00476993
0.0147356
0.00480408
-0.0243096
0.0156897
-0.0126553
0.00173558
-0.13685
0.161011
-0.00137806
-0.0227833
-0.182001
0.08799
-0.0428384
-0.0844149
0.0309721
0.0424068
0.0110359
-0.0595413
-0.0283275
0.00345394
-0.029461
-0.0790551
0.0976549
0.0108612
-0.0363143
0.0123968
-0.00554348
0.0554609
-0.0350864
-0.0336298
0.0132553
-0.0445317
0.0381703
0.0618224
-0.0676812
-0.117159
0.0732621
0.111578
-0.123631
-0.0372114
0.0931606
-0.0543716
-0.0109224
0.065294
-0.0165996
-0.037772
-0.0635148
0.082904
-0.0359888
0.0147306
-0.0387228
-0.0395226
-0.033636
0.0517871
-0.0230413
-0.113207
0.0549499
0.058257
-0.204573
0.0913659
0.13269
-0.0422759
0.0307664
-0.121181
0.0980995
0.0200034
0.0145875
-0.036651
0.123417
-0.129042
0.0787235
0.0129244
-0.077544
0.0771006
-0.0100773
0.0890057
-0.030805
-0.0657611
0.00756036
0.100246
0.00168381
0.0650332
-0.036976
0.0490434
0.0224018
0.111175
-0.100434
-0.0149644
0.0143998
0.100999
-0.103763
-0.00819508
0.0115243
0.0171071
0.102006
-0.100347
-0.0187656
0.00932059
-0.0967873
-0.0958611
0.130349
0.124064
-0.158552
-0.0024675
0.138731
-0.232125
0.000324201
0.0120164
0.000944254
-0.0132848
0.0153687
0.00735147
-0.0049931
0.00780092
0.0125608
0.00719483
-0.000171573
-0.00103081
0.00197507
-0.00283332
0.00180251
0.265907
0.0983452
-0.181205
-0.183047
0.0859244
-0.0634407
0.243423
-0.226524
0.0814419
0.231007
0.0440367
-0.172216
0.0323531
-0.0795674
0.062868
-0.0156537
0.067895
-0.0802448
0.0447029
0.0048539
-0.0056294
0.000297544
0.00813141
0.00132083
0.0215969
0.00376355
-0.0874015
0.159852
0.0768223
-0.149273
0.100345
-0.119852
0.0610596
0.154245
-0.0554528
0.339716
-0.0433573
-0.0866079
-0.20975
0.0737844
0.184806
0.0811248
0.0421838
-0.133722
0.165323
0.00675064
-0.0100807
0.017851
0.0579548
0.0938307
-0.0437704
-0.108015
0.0800173
0.0113223
0.0100465
-0.00354291
-0.00650362
0.0135364
-0.00348986
-0.18086
0.0800251
-0.0640244
0.164859
-0.146503
-0.0971879
0.0628313
-0.0799974
0.086287
-0.152793
0.100719
-0.000951308
-0.0488799
-0.0508878
-0.0450979
0.112764
0.0330532
-0.0563811
-0.00674476
0.018028
-0.0489649
-0.00836752
-0.0184092
-0.0794356
0.131605
-0.011754
-0.0523068
-0.067544
0.00888571
0.0842245
0.0384945
-0.0711072
-0.00857716
0.08857
-0.0674679
-0.0153932
-0.0999674
-0.0198073
-0.0528431
0.0344339
0.00505525
-0.0578983
0.00879959
0.0047368
0.117909
0.0764483
-0.00868902
0.0422367
-0.134265
-0.0153946
0.0956495
-0.0671954
-0.0130596
-0.0229355
0.100835
-0.0932936
0.0747154
0.0396668
-0.00879595
-0.105586
-0.0262369
0.0141881
0.0867641
0.0909534
-0.0775235
-0.0319797
-0.0711323
0.0191685
0.0839435
-0.0357483
0.0820302
-0.0782616
0.000749791
-0.10763
-0.0134015
-0.00769065
0.00277439
0.00489707
0.000567935
0.00589097
0.00582537
-0.00735735
0.00642904
-0.0146091
0.00434526
-0.0137655
0.0170007
0.00477922
-0.00801449
0.035496
-0.0236928
-0.0255687
-0.0150161
0.0439216
0.00659051
-0.0076111
0.00959578
-0.160806
0.079647
0.161184
0.162698
-0.0688519
-0.191034
-0.0807278
0.0826204
-0.0083825
-0.0610785
-0.00959415
-0.0451396
0.00044284
0.00390191
-0.007223
-0.000254268
0.00357536
-0.0108654
0.0102355
0.00453185
-0.0253053
0.00721684
-0.0182349
-0.0314467
0.00454202
-0.0485916
-0.0307218
-0.0418263
-0.0437471
0.0527026
0.0328709
0.00269809
0.0196889
-0.0642133
-0.0579541
0.0169051
-0.144386
0.0538936
-0.0117709
-0.141742
0.0145829
-0.0172271
-0.00520605
-0.0859117
0.0791293
0.0119885
-0.000435007
-0.0890785
0.0843075
-0.00965944
-0.280825
-0.0798689
0.100894
0.0965891
-0.122564
0.0920031
-0.0200214
-0.0121479
0.00357073
-0.0119493
-0.000198585
0.0272261
-0.0063682
0.143919
-0.0860739
-0.0529813
-0.0048638
0.119828
-0.0125596
0.16085
0.00156811
-0.164886
0.0499977
0.123403
-0.012551
0.0167159
-0.0921822
0.125464
-0.000866734
-0.0110826
0.028959
-0.103339
-0.101926
0.0699453
0.129105
0.0569076
-0.00233503
-0.0597447
0.00517218
0.019278
-0.00690218
-0.0731186
0.0148568
0.0964321
0.0115498
-0.0653904
-0.00739564
-0.00394055
-0.0390418
-0.00917538
0.0473124
0.000904706
-0.0115484
0.00236001
-0.0298534
-0.0530599
-0.0249366
0.0664481
-0.0547661
0.0944489
-0.0308832
0.182039
-0.164691
-0.0721135
-0.00116276
-0.0937392
0.109759
-0.228004
-0.0174384
-0.172698
-0.0892886
0.0339833
0.0834922
0.0587915
-0.125302
0.041341
0.121139
-0.0789882
0.0405563
-0.0813224
0.0497606
-0.00899441
0.0445754
-0.0787436
0.0747244
0.112378
0.0302973
0.107716
-0.00309568
-0.107332
0.0027111
0.119039
-0.0121412
0.000818449
0.125461
-0.0143016
-0.00466689
-0.106493
0.0899695
-0.0250877
0.0605792
0.0997307
-0.022728
0.017165
-0.0941677
0.0196266
0.101302
-0.0211977
-0.0913275
-0.0288749
0.0974745
0.0152252
-0.0873843
-0.0296065
0.084675
-0.0391681
-0.0777349
0.0339013
0.0830017
-0.0410359
-0.0793977
0.0812655
0.0375908
0.0752797
-0.0204749
-0.0923956
0.0746197
-0.0780648
-0.0437418
0.0439164
0.0744451
-0.0344339
0.0659719
-0.0973766
0.0857154
-0.0088138
-0.125722
0.00484681
0.125219
-0.00434397
0.027997
-0.0798512
-0.035683
0.0254833
0.0900508
-0.0543427
-0.0228159
-0.00269253
0.0144948
-0.0373424
0.00823853
-0.0556464
-0.084929
0.0520388
-0.00963372
0.0119937
-0.00173856
-0.00789516
-0.0113983
-0.0972585
0.0716808
-0.0829017
-0.00995193
0.0814554
0.00708961
-0.086687
-0.00330427
0.0412701
0.0537566
-0.0381088
-0.0569178
0.0209122
0.076916
-0.0565581
0.0815384
-0.00686972
0.00212054
0.00319427
-0.0130055
0.00669745
-0.0045769
0.00989172
0.00141631
-0.000943693
0.00672221
-0.000859801
0.00227611
-0.00180349
0.0067095
-0.000410384
0.00939056
-0.0054691
0.0121786
-0.00587949
0.00592709
-0.000504242
-0.013034
-0.00231967
0.00824677
-0.00282391
0.033854
0.0730447
-0.0927105
0.0267362
-0.0956277
0.102745
0.10643
-0.00664878
-0.0335322
-0.0644488
0.0332029
0.0647781
-0.0163743
0.0689345
-0.0860924
0.00609828
-0.0869213
0.131602
-0.129818
0.0342246
-0.0360078
0.134269
0.0309187
-0.0335857
0.0380381
-0.126879
-0.0409773
0.138055
0.0231185
-0.0269053
0.142952
0.0175389
-0.0224357
0.00802111
0.148469
-0.013538
0.14919
-0.146334
0.00516537
-0.00943781
0.156974
0.000932945
0.146499
-0.00674745
-0.139426
0.0106312
-0.136079
0.0197709
-0.132838
0.0276778
-0.132773
0.0341598
-0.127442
0.0327071
-0.0189934
0.164898
0.0110691
0.140822
-0.0133158
0.0412074
-0.122996
-0.0450909
-0.125153
0.0389183
0.04292
-0.127871
-0.0380445
-0.0218019
0.165282
0.0214179
0.141386
-0.022366
-0.126724
0.0444911
0.165284
-0.0311353
0.0311337
-0.039576
0.16438
0.0404796
0.141441
-0.0311902
0.140765
-0.0389003
0.0439663
-0.124302
-0.0475357
-0.124876
0.0421186
-0.0473954
0.163489
0.0482869
0.139948
-0.0465785
0.0454555
-0.121579
-0.0481788
-0.12189
0.0424691
-0.0540824
0.161813
0.0557582
0.138592
-0.0527258
0.045641
-0.119191
-0.0480284
-0.119285
0.0430358
-0.0600895
0.160569
0.0613333
0.137392
-0.0588899
0.0454462
-0.116738
-0.0478996
-0.116614
0.0427759
-0.0646648
0.158624
0.0666099
0.135713
-0.0629863
0.0452935
-0.114684
-0.0473473
-0.114377
0.043056
-0.0685241
0.15743
0.0697183
0.134369
-0.0671798
0.045387
-0.1128
-0.047271
-0.11179
0.0427999
-0.0710492
0.155671
0.0728081
0.132592
-0.0692717
0.0460766
-0.107644
-0.0512321
-0.107826
0.0421126
-0.073343
0.155039
0.0739747
0.131536
-0.0722875
0.0466513
-0.106841
-0.0474545
-0.104758
0.0435835
-0.0747177
0.154094
0.0756625
0.129662
-0.0728437
0.0482179
-0.100651
-0.0544077
-0.0996448
0.0431046
-0.0706501
0.149112
0.0756329
0.132299
-0.0732865
0.0493096
-0.0983245
-0.0516364
-0.0965446
0.0462094
-0.0720322
0.135974
0.0851696
0.133621
-0.073355
0.0519038
-0.0547486
-0.0954798
-0.0937872
0.0491464
-0.0766558
0.0798981
0.132732
0.131276
-0.0743105
-0.0991843
0.101955
-0.0544075
-0.0991318
-0.0548011
0.0551063
-0.0564238
-0.0941623
0.0507862
-0.0894671
-0.100231
0.103187
-0.0504105
-0.0526828
-0.100376
0.101937
-0.0488324
-0.0484216
-0.103623
0.105484
-0.0497612
-0.0490325
-0.107406
0.109544
-0.0503167
-0.0499507
-0.111812
0.122962
-0.0491938
-0.0498037
-0.125025
0.126368
-0.0423207
-0.0471542
-0.13307
0.134883
-0.0353983
-0.0427096
-0.132836
0.133131
-0.0227304
-0.0248586
-0.131996
0.133748
-0.000819558
-0.0124029
-0.134998
0.135824
0.0205919
0.0098189
-0.136279
0.136304
0.0404545
0.0306794
-0.135953
0.135318
0.0563925
0.048638
-0.134504
0.13357
0.0675439
0.062148
-0.132601
0.131665
0.0737438
0.0706875
-0.130852
0.130208
0.0763062
0.0747879
-0.127703
0.132183
0.0806892
0.0781382
0.132498
0.079583
-0.075897
0.0779161
0.130713
-0.0735772
0.128956
0.129823
-0.129925
-0.0731845
-0.129629
0.127835
-0.0725157
-0.0731609
0.131301
-0.133016
-0.0705727
-0.0714683
0.134554
-0.136143
-0.0655907
-0.0677337
0.137689
-0.139117
-0.057462
-0.0614397
0.140379
-0.141418
-0.0455394
-0.0514643
0.142133
-0.142377
-0.0309458
-0.038185
0.142081
-0.141097
-0.0142998
-0.0226625
0.142261
-0.13991
0.00281419
-0.00558337
0.139806
-0.135597
0.0155622
0.0105271
0.131712
-0.127618
0.0300654
0.0237928
0.125951
-0.123835
0.036802
0.0310407
0.11666
-0.113601
0.0390602
0.0373157
0.110781
-0.108133
0.0403871
0.0396492
0.105692
-0.103376
0.0407397
0.0403353
0.101245
-0.100378
0.0412457
0.0406688
0.0982758
-0.0975399
0.0423687
0.0414815
0.0942808
-0.0910634
0.0459289
0.0429503
-0.0871711
0.046894
-0.099271
-0.0562846
0.131495
0.0789197
-0.0703719
0.124629
0.0533222
-0.0548921
-0.0878972
0.0500286
-0.0838775
0.0567301
-0.0574219
-0.0985792
-0.0923243
-0.0990413
0.0981577
-0.053524
0.099762
-0.0999609
-0.0560856
-0.0540805
-0.0975897
0.0985393
-0.05136
-0.0521148
-0.0997754
0.101083
-0.0501399
-0.0496577
-0.10246
0.103966
-0.0512669
-0.0504097
-0.105573
0.107378
-0.0521211
-0.0515585
-0.109268
0.111216
-0.0511417
-0.0516942
-0.113343
0.117963
-0.0469409
-0.0492811
-0.118069
0.120489
-0.0378181
-0.0428152
-0.126514
0.126591
-0.0228068
-0.0308841
-0.127322
0.129147
-0.00264503
-0.0131342
-0.130577
0.131624
0.019545
0.00838946
-0.132287
0.132596
0.0401457
0.0300161
-0.132558
0.132262
0.0566889
0.0486753
-0.13178
0.131194
0.0681302
0.0626303
-0.130558
0.129954
0.074348
0.0713225
-0.129445
0.129108
0.0766429
0.075297
-0.129163
0.131598
0.078254
0.0780837
0.0712841
-0.0708233
0.130252
0.0706864
0.132093
-0.132021
0.134207
0.0767337
0.0791602
0.123785
-0.125958
-0.0703429
0.120238
-0.0668242
0.0664437
-0.0640349
0.12222
0.124577
0.128083
-0.129675
-0.0715923
-0.0710361
0.130799
-0.132296
-0.0690755
-0.0703445
0.133916
-0.135591
-0.0639158
-0.066114
0.137213
-0.138706
-0.0559692
-0.0598172
0.140002
-0.14109
-0.0444513
-0.0501688
0.141893
-0.142314
-0.030525
-0.0373814
0.14219
-0.141424
-0.015066
-0.0227868
0.140014
-0.138027
0.000826777
-0.00699295
0.135633
-0.134907
0.0148358
0.00813374
0.131499
-0.126791
0.0253566
0.0203852
0.124802
-0.120306
0.0323067
0.0290519
0.117192
-0.114171
0.0360387
0.0342018
0.111269
-0.108536
0.0376545
0.0367469
0.105983
-0.103588
0.0383455
0.0377819
0.101364
-0.0992354
0.0391169
0.0384445
0.0972124
-0.0952158
0.0403721
0.0394585
0.0932006
-0.089246
0.0419743
0.0409352
0.0864325
-0.0823004
0.0458964
0.0440805
-0.10012
-0.0572626
0.0510187
-0.0546111
-0.0802851
-0.0789217
0.0476401
-0.0576093
-0.084899
0.0729939
0.131899
0.118259
-0.0620565
-0.0574167
0.0556551
-0.0968176
-0.058261
-0.0992759
0.0508176
-0.0556891
-0.0754135
0.0479779
-0.076082
-0.0942786
0.133758
-0.13177
0.0747457
0.132361
0.0743903
-0.0555199
0.0586408
0.1191
-0.0525016
0.115241
-0.0991956
0.100859
-0.0599241
-0.0625803
0.060393
-0.0970886
0.102832
0.0624376
-0.0471253
-0.118144
-0.0589438
-0.101379
0.101039
-0.0557451
-0.0577834
-0.100356
0.0988542
-0.0520217
-0.053398
-0.0987894
0.0981931
-0.0507638
-0.05205
-0.0991028
0.100092
-0.0511292
-0.0505673
-0.101169
0.102345
-0.0524422
-0.0514868
-0.103628
0.105003
-0.0534961
-0.0528418
-0.106472
0.108082
-0.0527524
-0.0531628
-0.109809
0.111659
-0.0487913
-0.0510075
-0.113672
0.115758
-0.039904
-0.044828
-0.117836
0.119874
-0.0248438
-0.0329627
-0.121808
0.123618
-0.00445431
-0.0150691
-0.125124
0.126356
0.0183133
0.00688261
-0.12727
0.127901
0.0395152
0.0291021
-0.128231
0.12833
0.0565896
0.0483454
-0.128245
0.128065
0.0683109
0.0627148
-0.127827
0.127607
0.0745681
0.0715599
-0.127457
0.127437
0.0766633
0.0754472
-0.128222
0.129686
0.0767906
0.0772983
0.077076
0.0645573
-0.0607314
0.126426
-0.0671659
0.0675398
0.131525
0.129484
0.122486
0.121969
-0.124712
-0.0675999
-0.118706
0.114168
-0.0575181
-0.0635617
0.126379
-0.127758
-0.0702137
-0.0693688
0.129496
-0.131066
-0.0675058
-0.0686057
0.132723
-0.134444
-0.0621948
-0.0644568
0.136094
-0.137611
-0.0544527
-0.0581674
0.138904
-0.139996
-0.0433592
-0.0488749
0.140838
-0.141358
-0.0300052
-0.03654
0.141389
-0.140801
-0.0156533
-0.0227559
0.139595
-0.137816
-0.000952274
-0.00819925
0.13557
-0.132937
0.012203
0.00588771
0.130043
-0.126975
0.0222895
0.0174908
0.123817
-0.120572
0.0290619
0.0258936
0.117454
-0.114376
0.0329611
0.031083
0.111463
-0.108679
0.0348708
0.0338339
0.106081
-0.103637
0.0359011
0.0351842
0.101346
-0.0991609
0.0369318
0.0361535
0.0970591
-0.0949859
0.0382989
0.0373567
0.0929175
-0.0908266
0.0398834
0.0388668
0.0872206
-0.0827747
0.0414505
0.0404744
0.0788195
-0.0756551
0.0448134
0.0436849
0.0483773
-0.051504
-0.0729553
-0.0725402
0.0452624
0.058354
-0.0947786
-0.0557827
-0.0848054
0.0689678
0.130933
0.111274
-0.0496074
0.0627341
-0.0973851
-0.0508403
-0.0760772
0.0844628
-0.0713722
0.0684479
-0.0486329
0.0453786
-0.0692859
-0.0524236
-0.0691645
-0.0580882
0.0944252
-0.0432067
-0.0274507
-0.0687464
-0.0917072
-0.0950634
0.101545
-0.0536065
-0.0503347
0.0496965
-0.100458
0.09954
-0.0590063
-0.0578569
-0.0991963
0.097848
-0.0543969
-0.0574397
-0.0974477
0.0977276
-0.0523016
-0.0529976
-0.0971294
0.0977377
-0.0513722
-0.0514518
-0.098361
0.0990412
-0.0518094
-0.0511906
-0.0997822
0.100594
-0.0532537
-0.0522278
-0.101465
0.102402
-0.0544333
-0.0537131
-0.103424
0.104554
-0.0538815
-0.0541851
-0.105799
0.107195
-0.0501866
-0.0522533
-0.108723
0.110376
-0.0415571
-0.0463565
-0.112106
0.113889
-0.0266267
-0.0346928
-0.115624
0.117271
-0.00610223
-0.0168034
-0.118826
0.120209
0.0169305
0.0053279
-0.121369
0.122325
0.0385593
0.027942
-0.123048
0.12358
0.0560579
0.0476219
-0.123949
0.12422
0.0680406
0.0623457
-0.124436
0.124641
0.0743623
0.0713437
-0.124897
0.125237
0.0763229
0.075192
-0.126873
0.127979
0.0756843
0.0756622
-0.128798
0.130129
0.0734145
0.0762574
-0.13146
0.133036
0.0673921
0.0730595
0.0611526
-0.0584501
0.128823
-0.0632241
0.063246
0.133014
0.128862
0.0562519
-0.0520057
0.12218
0.127286
0.0492399
-0.0462523
0.116112
0.11972
0.0435429
-0.04073
0.108461
0.112531
0.112961
-0.116362
-0.0541179
-0.110079
0.104267
-0.0349178
-0.0467249
0.119563
-0.122026
-0.0651374
-0.0603601
0.124362
-0.126149
-0.0684266
-0.0670325
0.127802
-0.129465
-0.0658431
-0.0669522
0.131155
-0.132904
-0.0604465
-0.0627664
0.134566
-0.13607
-0.0529494
-0.0565048
0.137315
-0.138329
-0.0423454
-0.0476298
0.139115
-0.139647
-0.0294725
-0.0357541
0.139789
-0.139389
-0.0160531
-0.0226147
0.138386
-0.136799
-0.00253902
-0.00920176
0.13474
-0.132268
0.00973063
0.0038281
0.129546
-0.126576
0.0193197
0.0147691
0.123498
-0.120363
0.025927
0.0228158
0.117284
-0.114246
0.0299232
0.0280037
0.111362
-0.108592
0.0321006
0.03095
0.106001
-0.103545
0.033445
0.0325935
0.101236
-0.0990191
0.034715
0.033844
0.0968785
-0.0947618
0.0361821
0.0352161
0.0926541
-0.0905093
0.0377387
0.036759
0.0883184
-0.0860305
0.0391626
0.0382835
0.0819051
-0.077315
0.0402233
0.0395595
0.0739475
-0.0706557
0.0420868
0.0418948
0.0450873
-0.0482098
-0.0661634
-0.0673292
0.0417608
0.0597922
-0.0918368
-0.0547083
-0.0809374
0.0680411
-0.0809634
-0.0516677
-0.0768331
0.129249
-0.129778
0.0679211
0.13029
0.0622045
-0.0277646
0.0317683
0.104457
-0.023971
0.100473
0.0719553
-0.0664115
-0.048912
-0.0684623
0.0208217
-0.10519
-0.0685864
0.0865118
-0.0611321
0.0454702
-0.0472704
-0.0643632
0.0411089
-0.0629679
-0.057568
-0.0797648
-0.0866234
-0.093848
0.0965463
-0.0563048
-0.0576709
-0.098549
0.0974513
-0.0579087
-0.0598596
-0.0958779
0.0961014
-0.0546204
-0.0558663
-0.0963453
0.0966176
-0.0525739
-0.0532415
-0.0969198
0.0972337
-0.051686
-0.051754
-0.0975661
0.0979243
-0.0521676
-0.0515231
-0.0983094
0.0987304
-0.0536747
-0.0526129
-0.0991826
0.0996773
-0.054928
-0.0541653
-0.100223
0.100853
-0.0545113
-0.0547305
-0.101586
0.102452
-0.0510529
-0.0529868
-0.103456
0.104626
-0.0427271
-0.0473601
-0.105934
0.107351
-0.0280433
-0.0360011
-0.108838
0.110362
-0.00762669
-0.0182905
-0.111894
0.113385
0.0154395
0.00379649
-0.114767
0.116033
0.0372936
0.0265596
-0.117149
0.118127
0.0550806
0.0465055
-0.11898
0.119741
0.0672795
0.0614928
-0.120449
0.121127
0.0736834
0.070636
-0.121821
0.122554
0.0755899
0.0744985
-0.123366
0.124301
0.0747493
0.0748503
-0.127669
0.127892
0.073191
0.0728895
0.0711739
0.0523613
-0.0503361
0.126798
-0.0528274
0.056173
0.129668
0.128396
0.0447238
-0.0419356
0.119392
0.121673
0.0380057
-0.0345694
0.112676
0.11579
0.10973
0.110072
-0.113952
-0.0502375
-0.105151
0.100483
-0.0302502
-0.0418038
0.117043
-0.119619
-0.0625621
-0.0572691
0.121918
-0.123938
-0.0664063
-0.0647336
0.125718
-0.127457
-0.0641034
-0.0651726
0.129184
-0.130947
-0.0586834
-0.0610401
0.132631
-0.134141
-0.0514396
-0.0548208
0.135355
-0.136277
-0.0414235
-0.0464157
0.13694
-0.137386
-0.0290259
-0.0350909
0.13755
-0.137294
-0.0163091
-0.0224509
0.136498
-0.135121
-0.00391549
-0.00999814
0.133261
-0.130993
0.0074629
0.00196738
0.128447
-0.125652
0.0165245
0.0122229
0.122725
-0.119721
0.0229227
0.0198898
0.116744
-0.113805
0.0269842
0.0250262
0.110997
-0.108293
0.0293966
0.028142
0.105752
-0.103325
0.0310187
0.0300526
0.101032
-0.0988146
0.0324976
0.0315506
0.0966678
-0.0945386
0.0340529
0.0330693
0.0924179
-0.0902606
0.0355815
0.0346383
0.0880566
-0.0857656
0.0368716
0.0360795
0.0833891
-0.080882
0.0377161
0.0371831
0.0766602
-0.072222
0.0376486
0.037673
0.0673919
-0.0634663
0.0371832
0.0369308
0.0407193
-0.0423725
-0.0613147
-0.0593361
0.0365891
0.0595729
-0.0833685
-0.0544888
-0.0781164
0.0573787
0.129085
0.0960097
-0.0194974
0.0657351
-0.0747432
0.0549296
-0.090666
0.0623734
-0.0738553
-0.0520851
-0.07366
-0.0484794
-0.0672533
-0.081128
-0.0816302
0.0728218
-0.0740803
-0.0798695
0.0559722
-0.0738164
-0.0454465
-0.0612891
0.0364607
-0.0410467
-0.0567287
0.0344643
-0.0573397
-0.0815393
-0.0858414
0.0910331
-0.0663238
0.0912084
-0.0966183
-0.0762203
-0.0743978
-0.0949549
0.0974736
-0.0588235
-0.0615927
-0.0972167
0.0970381
-0.05773
-0.0596027
-0.0969107
0.0968041
-0.0545138
-0.0557389
-0.0967354
0.0967079
-0.0525465
-0.0531727
-0.0967128
0.0967359
-0.0517092
-0.0517589
-0.0967613
0.0967842
-0.0521904
-0.0515485
-0.0968088
0.0968378
-0.0537037
-0.0526375
-0.0968744
0.0969191
-0.0549727
-0.0542019
-0.0969818
0.0970912
-0.0546207
-0.0547933
-0.0972755
0.0975767
-0.0513541
-0.0531711
-0.0980281
0.0986601
-0.043359
-0.0478116
-0.0994842
0.100506
-0.0290652
-0.0368252
-0.101708
0.103063
-0.00898255
-0.0194919
-0.104543
0.106103
0.0138793
0.00231709
-0.107674
0.109225
0.0357423
0.0249885
-0.110715
0.112134
0.0536612
0.045016
-0.113474
0.11475
0.0660036
0.0601525
-0.115969
0.117155
0.072498
0.0694171
-0.118317
0.119501
0.0744056
0.0733362
-0.120719
0.121982
0.0734859
0.0736328
-0.123267
0.126157
0.0703011
0.0716043
-0.128194
0.129918
0.0661978
0.0691367
-0.128531
0.129765
0.0561449
0.0635911
0.0478918
-0.0451828
0.126959
-0.0486472
0.0473312
0.131081
0.128329
0.0425726
-0.0377442
0.121969
0.125786
0.0349584
-0.0317763
0.11621
0.118888
0.0282108
-0.0242433
0.108708
0.112225
0.0196868
-0.0158007
0.100571
0.105174
0.0116146
-0.00699099
0.0913861
0.0962869
0.097288
-0.100787
-0.0267513
-0.0920892
0.0870177
-0.00191951
-0.0142986
0.105787
-0.109668
-0.0463564
-0.036804
0.11345
-0.11656
-0.0594524
-0.0534868
0.119155
-0.1214
-0.0641607
-0.0621387
0.123345
-0.125165
-0.0622836
-0.0632281
0.126926
-0.128697
-0.0569126
-0.0592785
0.13039
-0.131913
-0.0499158
-0.0531282
0.133119
-0.133976
-0.0405662
-0.0452103
0.134511
-0.13481
-0.0287265
-0.0345564
0.134895
-0.134688
-0.0165153
-0.0223661
0.134061
-0.132911
-0.0050659
-0.0106255
0.131272
-0.129214
0.00540518
0.000328735
0.126871
-0.124284
0.0139379
0.00987915
0.121561
-0.118734
0.0200963
0.0171665
0.115911
-0.113111
0.0241844
0.022203
0.110418
-0.107816
0.0267953
0.0254484
0.105355
-0.102992
0.0286557
0.0275913
0.100744
-0.0985575
0.030311
0.0293024
0.0964325
-0.0943182
0.0319386
0.0309443
0.0922111
-0.0900659
0.0334363
0.0325312
0.0878792
-0.085611
0.0346034
0.0338928
0.0832511
-0.0807484
0.0352135
0.0348231
0.0781061
-0.075327
0.0348695
0.0350307
0.0724058
-0.0681534
0.0329308
0.0340096
0.0638597
-0.058766
0.0293706
0.0322954
0.0291658
-0.0325144
-0.0539911
-0.0558174
0.0262173
0.0597755
-0.0774089
-0.0945063
-0.0761923
0.062262
-0.0746318
0.131463
-0.130678
0.0553597
0.131233
0.0475605
0.00620182
-0.00134085
0.0865251
0.0110554
0.0821641
-0.0551319
-0.0750696
-0.0519115
-0.0702278
0.0589561
-0.0768392
-0.0471387
-0.0655611
-0.0409473
-0.0613885
-0.0334508
-0.0557924
0.0245168
-0.0263194
-0.0521885
0.0210055
-0.0523062
-0.0768957
-0.103857
0.10091
-0.0732729
-0.0708289
0.0781791
-0.101856
0.106614
-0.109866
-0.0675765
-0.0734354
-0.0954889
0.0966029
-0.0674379
-0.0689769
-0.0984087
0.0995916
-0.0600064
-0.0633985
-0.0989478
0.0983909
-0.0571731
-0.0589589
-0.0979035
0.0974737
-0.054084
-0.0552515
-0.0971028
0.0967815
-0.0522251
-0.0528019
-0.0964976
0.0962256
-0.0514371
-0.0514751
-0.0959466
0.0956461
-0.0518899
-0.0512695
-0.0953234
0.0949745
-0.0533549
-0.0523148
-0.0946027
0.0942074
-0.0545774
-0.05383
-0.0938003
0.0933922
-0.0542125
-0.0543862
-0.0930282
0.0927555
-0.0510815
-0.0528071
-0.0926282
0.0926982
-0.043429
-0.0476842
-0.0930173
0.093608
-0.0296559
-0.0371443
-0.0944775
0.0956247
-0.0101298
-0.0203614
-0.0970096
0.0985995
0.0122893
0.000932245
-0.100319
0.102124
0.0339372
0.0232692
-0.103957
0.105799
0.0518189
0.0431831
-0.107613
0.109403
0.064214
0.0583382
-0.111139
0.112842
0.0707949
0.0676808
-0.114493
0.116137
0.0727618
0.0716854
-0.117764
0.119412
0.071838
0.0720055
-0.121036
0.122651
0.0686858
0.0699807
-0.126239
0.128113
0.0643233
0.0655492
0.0610265
0.0365246
-0.0348873
0.125322
-0.0377518
0.0394657
0.129367
0.127102
0.0304459
-0.0276814
0.119205
0.121344
0.0245518
-0.0210074
0.112665
0.115758
0.017143
-0.0129486
0.104514
0.10836
0.00745064
-0.00325899
0.0963795
0.0996758
0.0916871
0.0931219
-0.0979652
-0.0219079
-0.0881714
0.0831357
0.00311621
-0.0093481
0.102117
-0.106028
-0.0424455
-0.0326525
0.109829
-0.113208
-0.0560738
-0.0496852
0.116081
-0.118555
-0.0616865
-0.0592653
0.120672
-0.122597
-0.0603588
-0.0611111
0.124405
-0.126194
-0.0551233
-0.0574712
0.127903
-0.129457
-0.0483622
-0.0514189
0.130687
-0.131525
-0.0397284
-0.0439803
0.131966
-0.132111
-0.0285811
-0.0341153
0.132051
-0.131792
-0.0167743
-0.0224262
0.131249
-0.130296
-0.006019
-0.0111685
0.128896
-0.12707
0.00357884
-0.00107097
0.124943
-0.122578
0.0115725
0.00775244
0.120078
-0.117466
0.0174846
0.0146663
0.114837
-0.112212
0.0215594
0.0195744
0.109667
-0.107195
0.024324
0.0229028
0.104839
-0.102562
0.0263795
0.0252346
0.100382
-0.0982504
0.0281795
0.0271219
0.0961701
-0.0940937
0.0298621
0.028864
0.0920207
-0.0899076
0.0313231
0.0304583
0.087755
-0.0855209
0.0323693
0.0317402
0.0832013
-0.0807563
0.0327684
0.0325035
0.0781934
-0.0754928
0.0321689
0.0324678
0.0726667
-0.0697115
0.0299755
0.0311835
0.0653054
-0.0612498
0.025315
0.0278893
0.0577468
-0.0551347
0.0183933
0.0227143
-0.0740563
0.0569179
-0.0566779
-0.0757467
0.0161591
-0.0176943
-0.050771
-0.0518011
0.0128255
0.0583258
-0.0734728
0.0423515
0.128348
0.0793648
0.0148262
0.0616814
-0.110036
-0.061512
-0.0552309
-0.0717502
0.0660562
-0.106231
0.0593965
-0.0750722
-0.050759
-0.0666076
0.0593012
-0.0792225
-0.0446936
-0.0618149
-0.0370714
-0.0577679
-0.0283068
-0.0538049
-0.0196767
-0.0502061
0.0087915
-0.0105053
-0.0490572
0.00722571
-0.0502353
-0.0738008
-0.11952
0.114827
-0.0628839
-0.0564312
-0.108472
0.054867
0.122349
-0.119514
-0.0592669
-0.0586823
-0.110965
0.107869
-0.0701769
-0.0695729
-0.105418
0.10273
-0.06475
-0.0665262
-0.101538
0.10169
-0.0601588
-0.0622061
-0.100596
0.0996457
-0.0562224
-0.0578653
-0.098824
0.0980971
-0.0533572
-0.0544297
-0.0974465
0.096848
-0.0516266
-0.0521513
-0.096287
0.0957341
-0.0508843
-0.050914
-0.0951679
0.0945599
-0.0512819
-0.0507033
-0.0939022
0.0931878
-0.0526404
-0.0516571
-0.0924239
0.0916058
-0.0537593
-0.0530661
-0.0907462
0.0898534
-0.0533198
-0.0535267
-0.0889702
0.0881402
-0.0502514
-0.0519238
-0.0874487
0.086966
-0.0429464
-0.0469927
-0.086766
0.0869108
-0.0298008
-0.0369443
-0.0874289
0.0883213
-0.0110222
-0.0208794
-0.089569
0.0911432
0.0107152
-0.000315452
-0.0929618
0.0949769
0.0319221
0.0214506
-0.0971118
0.0993422
0.0495884
0.0410483
-0.101601
0.103882
0.0619333
0.0560793
-0.106121
0.108329
0.0685864
0.0654415
-0.110462
0.112557
0.0706673
0.0695526
-0.114592
0.116614
0.0698164
0.0699701
-0.11858
0.120488
0.0667778
0.0680141
-0.122266
0.125482
0.0611065
0.0637719
-0.128376
0.129719
0.0540169
0.0581325
-0.128631
0.128794
0.0421876
0.0486493
0.0325892
-0.0292288
0.126007
-0.0332135
0.0333663
0.128642
0.127723
0.0269628
-0.0231086
0.121468
0.124836
0.0203383
-0.017229
0.116096
0.118574
0.0137644
-0.00995051
0.108852
0.112293
0.00586668
-0.00153023
0.100177
0.104277
-0.00295423
0.00862959
0.0907041
0.0951914
-0.0131553
0.0176973
0.0819831
0.0871613
-0.0214745
0.02669
0.0741493
0.0783869
0.0796299
-0.0837282
0.0072145
-0.075015
0.0708669
0.0308381
0.0194411
0.0883572
-0.0928489
-0.0174163
-0.00471908
0.0975011
-0.101975
-0.0379718
-0.0280002
0.106007
-0.109645
-0.052436
-0.0456528
0.11277
-0.115478
-0.0589784
-0.0561404
0.117774
-0.119818
-0.0583143
-0.0588152
0.121685
-0.123495
-0.0533124
-0.055605
0.125225
-0.126822
-0.0467652
-0.0496896
0.128114
-0.128995
-0.0388474
-0.0426877
0.12941
-0.129437
-0.028554
-0.033701
0.129208
-0.128816
-0.0171671
-0.0226545
0.128257
-0.12743
-0.006846
-0.0117269
0.126252
-0.124676
0.00200291
-0.00224883
0.122789
-0.120653
0.00943643
0.00586531
0.118382
-0.115997
0.0151001
0.0123948
0.113584
-0.111154
0.0191294
0.0171618
0.108783
-0.106461
0.0220015
0.0205318
0.104231
-0.102061
0.0242094
0.0230046
0.0999672
-0.0979085
0.0261207
0.0250283
0.0958893
-0.093867
0.0278398
0.0268448
0.0918438
-0.0897788
0.0292582
0.0284351
0.0876745
-0.0854907
0.0301856
0.0296358
0.08323
-0.0808566
0.0303951
0.0302428
0.0783809
-0.075775
0.0295631
0.0299921
0.0730614
-0.0702377
0.0271518
0.0284699
0.0673781
-0.0645336
0.0224705
0.0250297
0.0608326
-0.0573613
0.014922
0.0190133
0.0545347
-0.0517855
0.00447647
0.00999898
-0.0762455
0.0585366
-0.038969
-0.085936
0.000665961
-0.00143053
-0.0494707
-0.0511923
7.28324e-05
0.0574957
-0.071572
-0.0542504
-0.0682588
0.0456469
-0.119486
-0.0456748
-0.108072
0.0452475
0.0478722
-0.0992364
0.0568131
-0.0725841
-0.0484294
-0.0628718
0.130696
-0.128802
0.0402938
0.129007
0.0350549
0.0377027
-0.0333451
0.0697917
0.0422926
0.0662771
0.0559154
-0.0766013
-0.0407419
-0.0581444
-0.0317283
-0.0543464
-0.0217597
-0.0517219
-0.011508
-0.0492034
-0.00251893
-0.0479688
-0.0311503
-0.118477
0.0301413
-0.127478
0.129896
-0.0335681
0.0175511
-0.128966
-0.0160628
-0.00700558
-0.0482877
0.00582255
-0.00785557
-0.0503423
-0.119524
0.0185977
-0.0705555
-0.122807
0.116749
-0.0532091
-0.0385866
-0.11809
0.118306
-0.0630999
-0.0600232
-0.114257
0.110138
-0.0660583
-0.0655237
-0.108278
0.106487
-0.0629586
-0.0646659
-0.10484
0.10332
-0.058639
-0.0605589
-0.101945
0.10072
-0.0549967
-0.0564909
-0.0996328
0.098644
-0.0523683
-0.0533428
-0.0977352
0.0968797
-0.0507712
-0.0512425
-0.0960643
0.0952529
-0.0500728
-0.0500986
-0.0944178
0.0935208
-0.0503849
-0.0498682
-0.0925547
0.0915068
-0.0515925
-0.050691
-0.0903896
0.0891914
-0.052561
-0.051949
-0.0879256
0.0865922
-0.0519863
-0.0522609
-0.0852355
0.0839012
-0.0489171
-0.0505672
-0.0826891
0.0816795
-0.0419367
-0.0457807
-0.0809771
0.0806634
-0.029487
-0.0362419
-0.0808027
0.0814221
-0.0116417
-0.0210187
-0.082486
0.0840013
0.00919993
-0.00137933
-0.0858683
0.088041
0.0297493
0.0195836
-0.0904266
0.0929947
0.0470203
0.0386627
-0.0956515
0.098378
0.0592068
0.0534226
-0.101081
0.103758
0.0659092
0.0627386
-0.106342
0.108863
0.068146
0.0669692
-0.111289
0.113667
0.0674382
0.0675441
-0.115957
0.118173
0.0645619
0.0657239
-0.120233
0.122114
0.0592259
0.0617116
-0.125309
0.127063
0.0522634
0.0549371
0.0469102
0.0216769
-0.020097
0.124427
-0.0235018
0.0242283
0.127915
0.125898
0.0159172
-0.013197
0.118748
0.120656
0.0101224
-0.00667883
0.112652
0.115499
0.00294379
0.00106665
0.104841
0.108558
-0.00527257
0.00966556
0.0957843
0.100071
-0.0141444
0.0186795
0.086169
0.0907125
-0.023899
0.0286012
0.0772809
0.0819419
0.073643
0.0755358
-0.0799098
0.0115885
-0.0711213
0.0661894
0.0357699
0.0238557
0.0836717
-0.0885345
-0.0125534
-0.000957237
0.0932936
-0.0978639
-0.0334016
-0.0232411
0.102073
-0.105919
-0.0485898
-0.0414442
0.109273