/*--------------------------------*- C++ -*----------------------------------*\
  =========                 |
  \\      /  F ield         | OpenFOAM: The Open Source CFD Toolbox
   \\    /   O peration     | Website:  https://openfoam.org
    \\  /    A nd           | Version:  10
     \\/     M anipulation  |
\*---------------------------------------------------------------------------*/
FoamFile
{
    format      ascii;
    class       volScalarField;
    location    "8.5";
    object      p;
}
// * * * * * * * * * * * * * * * * * * * * * * * * * * * * * * * * * * * * * //

dimensions      [0 2 -2 0 0 0 0];

internalField   nonuniform List<scalar> 
28942
(
-0.00236962
-0.00136114
0.00403101
0.0120892
0.0123859
0.000290967
0.000747197
0.000103676
0.00535312
0.00541307
-0.000110626
-0.000310152
-0.000883854
-0.000837347
0.000458621
0.000862418
0.0120879
0.0123543
0.00779024
0.00929741
0.0103229
0.0103293
-0.00400875
-0.00357512
-0.00236752
-0.00249428
0.0160518
0.0160005
0.00562596
0.00561433
6.0341e-05
0.000105372
0.00184903
0.000812243
0.00924369
0.0104523
0.0129924
0.0149699
0.000106371
0.01719
0.0116671
0.0141599
0.00431918
0.00427991
0.00432104
0.000628397
0.000488017
0.000506318
0.000576897
0.000925883
0.00161475
0.0055767
0.00563688
0.00543439
0.00559638
-0.000573109
0.00063352
-0.00143836
-0.00130658
-0.00171437
-0.00170438
-0.00155257
-0.00147392
0.00162414
-0.000345684
0.00160771
0.00305616
0.0116325
0.011139
-0.00150042
-0.00191109
-0.00166871
0.0111592
0.0110331
0.0113003
0.000266734
0.000783882
0.00133178
0.00445554
0.00488076
0.0038089
0.0026172
-0.00528698
-0.00675114
0.00290104
0.00569369
0.00678356
0.00761248
0.00593491
0.00614603
0.00816516
0.00747556
0.0018014
0.00121032
0.000621276
0.000871163
0.00135695
0.00739958
0.00872322
-0.00705268
0.0138845
0.0130841
0.00839155
0.0119683
0.00410411
0.00414847
0.00398041
0.00778317
0.00797125
0.00795917
-0.00125275
-0.00118993
-0.00153634
-0.000830444
-0.000699785
0.0179772
0.0159836
0.0154077
0.0170409
0.00353742
0.00677071
0.00541668
0.00720308
0.0069065
0.0176683
0.0179534
0.0165983
0.00808589
0.00915667
0.000491357
0.000616062
0.000355292
0.012678
0.0131846
0.0102495
0.00988629
0.0153522
0.00881834
0.01013
0.0111376
0.000755178
1.452e-05
0.00953996
0.0043314
0.00432885
0.000857363
0.000925345
0.00144198
-0.000154971
0.00863205
0.00774626
0.00555923
0.000508188
0.00042123
0.000263339
0.000441545
0.009598
0.00889661
0.00055637
0.000494283
0.000737025
-0.0031697
-0.00243306
0.000245769
-0.00143405
0.000997198
0.0105508
0.0106361
0.011779
0.0113157
0.00987347
0.00580872
0.00574311
0.00587142
0.00579088
0.0074015
0.00718173
0.00748818
0.00770331
0.00762026
0.00762969
0.00781911
0.00833785
0.00805017
0.00763419
0.00794691
0.00864983
0.00935941
0.00967206
0.00299589
0.00297226
-0.000373538
0.000498047
0.000314475
9.97227e-05
0.000251755
0.000701093
0.000669583
0.000623563
0.000593966
0.00348277
0.00347769
0.00345933
-0.000919053
-0.00109997
-0.000443889
-0.00274367
-0.00338677
-0.00233879
-0.0032817
-0.00521403
-0.00362087
0.0181697
0.0188843
0.0186464
0.00424091
0.00432648
0.00424603
0.0125775
0.0121532
0.0122302
0.00281741
0.00278638
0.0028482
0.00275524
0.00272409
0.002693
0.00269399
0.0026619
0.00266347
0.00272468
0.00275584
0.0027869
0.00281812
0.00284875
0.00263112
0.00263274
0.00287911
0.00287984
0.00291043
0.00260041
0.00260157
0.00291104
0.00256946
0.00253847
0.00257049
0.00253945
0.00294075
0.00294167
0.00250748
0.00250836
0.00297131
0.0029726
0.00247652
0.00247727
0.00300205
0.00300351
0.00244546
0.00244615
0.00303287
0.00303433
0.00241443
0.00241504
0.0030637
0.00306514
0.00238335
0.0023839
0.0030947
0.0030957
0.00235225
0.00235275
0.00312537
0.00312631
0.00232108
0.00232153
0.00315654
0.00315723
0.00228983
0.00229004
0.0031874
0.00318802
0.00225872
0.00225805
0.00321899
0.00321929
0.00222686
0.0022261
0.00325048
0.00325067
0.00219375
0.00219379
0.00321842
0.00325
0.00328232
0.00328215
0.00315583
0.00318727
0.003094
0.00312521
0.00303243
0.0030632
0.00297079
0.00300164
0.00290875
0.00293988
0.00284771
0.00287853
0.00278594
0.00281653
0.00272408
0.00275516
0.00266172
0.00269302
0.00259976
0.00263076
0.00253769
0.00256876
0.00247559
0.00250669
0.00241355
0.00244462
0.00235147
0.00238254
0.00228936
0.00232044
0.00222614
0.00225817
0.00219383
0.00216096
0.00216104
0.00225846
0.00219439
0.00222662
0.00232175
0.00229027
0.00238412
0.002353
0.00244628
0.0024152
0.0025084
0.00247735
0.00257048
0.00253946
0.00263257
0.00260152
0.00269454
0.00266378
0.00275623
0.00272553
0.00281823
0.00278718
0.00288018
0.00284935
0.00294192
0.00291078
0.00300368
0.00297282
0.00306536
0.00303452
0.00312696
0.00309614
0.00318859
0.00315768
0.00325031
0.00321933
0.0032817
0.00328166
0.00216113
0.0021617
0.00331408
0.00331327
0.00331322
0.00331408
0.00321805
0.00328051
0.00324925
0.00315559
0.00318685
0.00309391
0.00312472
0.0030324
0.00306317
0.00297077
0.0030016
0.00290905
0.00293992
0.00284722
0.00287825
0.00278551
0.00281659
0.00272389
0.00275443
0.00266166
0.00269281
0.00259973
0.0026307
0.00253773
0.00256874
0.0024757
0.00250672
0.00241363
0.00244467
0.00235152
0.00238258
0.00228937
0.00232045
0.00222632
0.00225806
0.00212803
0.00212845
0.00216193
0.00219439
0.00219548
0.00216343
0.00212941
0.00212824
0.00225919
0.00222757
0.00232194
0.00229052
0.00238416
0.00235307
0.00244632
0.00241525
0.00250844
0.00247739
0.00257052
0.00253949
0.00263257
0.00260155
0.00269459
0.00266362
0.00275661
0.00272559
0.0028183
0.00278743
0.0028802
0.00284946
0.00294203
0.00291111
0.00300375
0.0029729
0.00306541
0.00303459
0.00312697
0.0030962
0.00318844
0.0031577
0.00324993
0.00321915
0.00331215
0.00328102
0.00331179
0.00334481
0.00334365
0.00334557
0.00212975
0.00213063
0.00334457
0.00334288
0.00337636
0.00337518
0.00334581
0.00216306
0.00213105
0.00209683
0.0020979
0.00334114
0.0033742
0.00340347
0.00337282
0.00327936
0.00331028
0.0032175
0.00324841
0.00315556
0.0031865
0.00309396
0.00312469
0.00303243
0.00306321
0.0029708
0.00300162
0.0029091
0.00293996
0.0028473
0.00287822
0.00278548
0.00281644
0.00272365
0.00275453
0.00266167
0.00269266
0.00259974
0.00263071
0.00253775
0.00256875
0.00247571
0.00250673
0.00241363
0.00244467
0.00235151
0.00238257
0.00228934
0.00232043
0.00222666
0.00225805
0.00219497
0.00209573
0.00209712
0.00209619
0.00209599
0.00219637
0.00213205
0.0021644
0.00225969
0.00222814
0.00232202
0.00229079
0.00238422
0.00235313
0.00244638
0.00241531
0.00250851
0.00247745
0.0025706
0.00253956
0.00263264
0.00260162
0.00269463
0.00266365
0.0027566
0.00272562
0.00281847
0.00278754
0.00288033
0.00284943
0.00294211
0.00291123
0.00300382
0.00297297
0.00306547
0.00303466
0.00312702
0.00309626
0.00318847
0.00315776
0.00324984
0.00321916
0.00331134
0.00328056
0.00337384
0.00334248
0.00340656
0.00340501
0.00337576
0.00337719
0.00209863
0.0020995
0.00340592
0.00340782
0.00344043
0.00343616
0.00343761
0.00345036
0.00348273
0.00337678
0.00339965
0.00342598
0.00334021
0.00337087
0.0032786
0.0033094
0.003217
0.00324774
0.00315545
0.00318629
0.003094
0.00312472
0.00303245
0.00306324
0.00297082
0.00300164
0.0029091
0.00293997
0.00284734
0.00287823
0.0027855
0.00281643
0.00272362
0.00275457
0.00266168
0.00269266
0.00259973
0.00263071
0.00253773
0.00256874
0.00247568
0.00250671
0.0024136
0.00244465
0.00235148
0.00238255
0.00228931
0.0023204
0.00222691
0.0022581
0.00216395
0.00219556
0.00209987
0.00213199
0.0020649
0.00206732
0.00206598
0.00206379
0.00206406
0.00206448
0.00206391
0.00206705
0.00206559
0.00213329
0.00206921
0.00210119
0.00219704
0.0021653
0.00225985
0.00222852
0.00232209
0.00229096
0.00238429
0.0023532
0.00244646
0.00241538
0.00250858
0.00247753
0.00257067
0.00253963
0.00263272
0.0026017
0.00269471
0.00266372
0.00275666
0.00272569
0.00281856
0.00278762
0.00288041
0.0028495
0.0029422
0.00291131
0.00300392
0.00297307
0.00306557
0.00303476
0.00312713
0.00309637
0.0031886
0.00315788
0.00324994
0.00321929
0.00331121
0.00328059
0.00337269
0.00334187
0.00343475
0.00340372
0.00346735
0.00346585
0.00340689
0.00340812
0.00343691
0.00343871
0.00210091
0.00206873
0.00203472
0.00203605
0.00347156
0.00346863
0.00350167
0.00345559
0.0034984
0.00349702
0.00348654
0.00340759
0.00339955
0.00342793
0.00333987
0.00337021
0.00327824
0.00330909
0.00321691
0.00324757
0.00315551
0.00318623
0.00309405
0.0031248
0.00303249
0.00306328
0.00297084
0.00300168
0.00290913
0.00293999
0.00284735
0.00287825
0.00278551
0.00281644
0.00272363
0.00275458
0.00266169
0.00269267
0.00259973
0.00263071
0.00253772
0.00256873
0.00247567
0.0025067
0.00241359
0.00244463
0.00235146
0.00238253
0.0022893
0.00232038
0.00222707
0.00225819
0.0021645
0.00219577
0.00213273
0.00203286
0.00203485
0.00203364
0.00203211
0.00203254
0.00203271
0.00203239
0.00203344
0.00213432
0.00207015
0.0021026
0.00219742
0.00216599
0.00225993
0.00222876
0.00232217
0.00229105
0.00238437
0.00235328
0.00244654
0.00241546
0.00250866
0.00247761
0.00257075
0.00253971
0.0026328
0.00260178
0.0026948
0.00266381
0.00275675
0.00272578
0.00281866
0.00278771
0.00288051
0.00284959
0.0029423
0.00291141
0.00300403
0.00297318
0.00306569
0.00303487
0.00312726
0.00309649
0.00318874
0.00315802
0.00325011
0.00321944
0.00331135
0.00328075
0.00337251
0.00334194
0.0034338
0.00340299
0.0034957
0.00346473
0.00352829
0.00352689
0.00343734
0.00343873
0.00203601
0.00203771
0.0034689
0.00350294
0.0035026
0.00346915
0.00349931
0.00351542
0.00354256
0.00353492
0.00352933
0.00355929
0.00355826
0.00343817
0.00345966
0.00352128
0.00349114
0.00340025
0.00342971
0.00333976
0.00337041
0.00327836
0.00330905
0.00321705
0.00324772
0.00315563
0.00318635
0.00309413
0.00312489
0.00303255
0.00306335
0.00297089
0.00300173
0.00290916
0.00294003
0.00284738
0.00287828
0.00278553
0.00281646
0.00272364
0.00275459
0.00266171
0.00269268
0.00259973
0.00263072
0.00253772
0.00256873
0.00247567
0.0025067
0.00241358
0.00244463
0.00235145
0.00238252
0.00228929
0.00232038
0.00222709
0.0022582
0.0021647
0.00219594
0.00210155
0.00213325
0.00203699
0.00206963
0.0020025
0.00200425
0.00200315
0.0020014
0.00200181
0.00200108
0.00200109
0.00200128
0.00200116
0.00200261
0.00200183
0.00200543
0.00200383
0.0020713
0.00200703
0.00203925
0.00213498
0.00210338
0.00219771
0.00216641
0.00226001
0.00222888
0.00232225
0.00229114
0.00238446
0.00235336
0.00244662
0.00241555
0.00250875
0.00247769
0.00257084
0.0025398
0.00263289
0.00260187
0.00269489
0.0026639
0.00275685
0.00272588
0.00281876
0.00278781
0.00288062
0.0028497
0.00294242
0.00291153
0.00300416
0.0029733
0.00306582
0.003035
0.00312741
0.00309663
0.0031889
0.00315817
0.00325029
0.00321961
0.00331157
0.00328095
0.00337271
0.00334216
0.00343374
0.00340321
0.00349479
0.00346428
0.00355666
0.00352561
0.00358922
0.00358784
0.0034684
0.00354895
0.00350034
0.00203818
0.002006
0.00197303
0.00197435
0.00346911
0.00349948
0.00353218
0.00352987
0.00356023
0.00359036
0.00362005
0.00361875
0.00346872
0.00352283
0.00357804
0.00358135
0.00355212
0.00346145
0.00349263
0.00340073
0.00343079
0.00333991
0.00337058
0.00327856
0.00330923
0.0032172
0.00324789
0.00315575
0.00318648
0.00309422
0.00312499
0.00303262
0.00306343
0.00297095
0.00300179
0.00290921
0.00294009
0.00284741
0.00287832
0.00278556
0.0028165
0.00272367
0.00275462
0.00266172
0.0026927
0.00259975
0.00263074
0.00253773
0.00256874
0.00247567
0.00250671
0.00241358
0.00244463
0.00235145
0.00238252
0.00228929
0.00232038
0.00222708
0.00225819
0.00216483
0.00219597
0.00210205
0.00213349
0.00207022
0.00197051
0.00197197
0.00197109
0.00197003
0.0019703
0.00197008
0.00197001
0.0019702
0.00197013
0.0019709
0.00197051
0.0019718
0.00207243
0.00200833
0.00204049
0.00213533
0.00210396
0.00219783
0.00216665
0.00226011
0.00222897
0.00232235
0.00229123
0.00238455
0.00235346
0.00244672
0.00241564
0.00250885
0.00247779
0.00257094
0.0025399
0.00263299
0.00260197
0.00269499
0.002664
0.00275696
0.00272598
0.00281887
0.00278792
0.00288074
0.00284981
0.00294255
0.00291165
0.00300429
0.00297343
0.00306597
0.00303514
0.00312757
0.00309678
0.00318908
0.00315834
0.00325049
0.0032198
0.00331179
0.00328116
0.00337298
0.00334241
0.00343401
0.00340352
0.00349488
0.00346447
0.00355594
0.0035253
0.00361756
0.00358671
0.00356613
0.00357232
0.00364968
0.00364831
0.00349931
0.0019739
0.0019757
0.00361017
0.00349942
0.00360834
0.00353063
0.0035298
0.00356085
0.0035602
0.00359054
0.00362071
0.00365061
0.00368035
0.00367918
0.00349927
0.00358314
0.00363938
0.00364207
0.0036127
0.00352315
0.00355336
0.00346219
0.00349269
0.00340106
0.00343155
0.00334007
0.00337069
0.00327874
0.00330941
0.00321734
0.00324805
0.00315587
0.00318662
0.00309433
0.00312511
0.00303271
0.00306353
0.00297102
0.00300187
0.00290927
0.00294015
0.00284746
0.00287837
0.0027856
0.00281654
0.0027237
0.00275466
0.00266175
0.00269273
0.00259977
0.00263076
0.00253774
0.00256876
0.00247568
0.00250672
0.00241359
0.00244464
0.00235146
0.00238253
0.00228929
0.00232038
0.00222709
0.00225819
0.00216485
0.00219598
0.0021024
0.00213369
0.00203921
0.00207085
0.00197505
0.00200747
0.00194025
0.00194245
0.00194116
0.00193917
0.00193952
0.00193894
0.00193897
0.00193904
0.00193899
0.00193914
0.0019391
0.00193956
0.00193924
0.00194075
0.00194001
0.00194328
0.00194172
0.00200941
0.00194485
0.00197728
0.00207301
0.00204134
0.00213561
0.00210442
0.00219793
0.00216678
0.00226021
0.00222907
0.00232245
0.00229134
0.00238465
0.00235356
0.00244682
0.00241574
0.00250895
0.00247789
0.00257104
0.00254
0.00263309
0.00260207
0.0026951
0.0026641
0.00275707
0.00272609
0.00281899
0.00278804
0.00288087
0.00284994
0.00294269
0.00291178
0.00300445
0.00297357
0.00306614
0.0030353
0.00312775
0.00309696
0.00318928
0.00315853
0.00325071
0.00322001
0.00331204
0.00328139
0.00337325
0.00334266
0.00343433
0.00340381
0.00349524
0.00346481
0.00355599
0.00352563
0.00361677
0.00358631
0.00367783
0.0036473
0.00359787
0.00360455
0.00370995
0.00370868
0.00352991
0.0035297
0.00367117
0.0036687
0.00363778
0.00356007
0.00356005
0.00197613
0.00194413
0.00191099
0.00191245
0.00359056
0.00359039
0.00362068
0.00365093
0.00368101
0.00371082
0.0037
0.0037025
0.00373142
0.00374057
0.00373956
0.00372923
0.00352965
0.0036446
0.00367397
0.00358365
0.00361386
0.00352338
0.00355381
0.00346233
0.00349276
0.00340136
0.00343187
0.00334023
0.00337084
0.00327891
0.00330959
0.00321751
0.00324822
0.00315602
0.00318677
0.00309445
0.00312524
0.00303281
0.00306364
0.00297111
0.00300197
0.00290934
0.00294023
0.00284752
0.00287844
0.00278565
0.00281659
0.00272374
0.0027547
0.00266178
0.00269277
0.00259979
0.00263079
0.00253776
0.00256878
0.0024757
0.00250674
0.0024136
0.00244466
0.00235147
0.00238254
0.0022893
0.00232039
0.0022271
0.00225821
0.00216487
0.00219599
0.00210259
0.00213374
0.00203983
0.00207126
0.00200815
0.00190835
0.00191016
0.00190903
0.0019079
0.00190813
0.0019079
0.00190787
0.00190799
0.00190794
0.0019081
0.00190804
0.00190829
0.00190816
0.00190916
0.00190867
0.00190992
0.00201035
0.00194637
0.00197847
0.00207336
0.00204188
0.00213574
0.00210458
0.00219804
0.0021669
0.00226032
0.00222919
0.00232256
0.00229144
0.00238476
0.00235366
0.00244692
0.00241585
0.00250905
0.00247799
0.00257115
0.00254011
0.0026332
0.00260218
0.00269522
0.00266422
0.00275719
0.00272621
0.00281912
0.00278817
0.00288101
0.00285007
0.00294284
0.00291193
0.00300461
0.00297373
0.00306632
0.00303547
0.00312795
0.00309714
0.0031895
0.00315873
0.00325095
0.00322024
0.0033123
0.00328164
0.00337353
0.00334293
0.00343464
0.00340411
0.00349559
0.00346514
0.00355635
0.003526
0.00361692
0.00358665
0.00367733
0.00364716
0.00373831
0.0037075
0.00369798
0.00377025
0.00377133
0.00380086
0.00379996
0.00376892
0.00362785
0.0036376
0.00356015
0.00355995
0.00191189
0.00191373
0.00366829
0.00358994
0.00359025
0.00362079
0.00362052
0.00365078
0.00368099
0.00371118
0.00374131
0.00376022
0.0037626
0.00379158
0.00379878
0.00382958
0.0038309
0.0037891
0.00375809
0.00372756
0.00380135
0.00383137
0.00355994
0.00370478
0.00373358
0.00364507
0.00367473
0.00358412
0.00361466
0.00352348
0.00355385
0.0034626
0.00349305
0.0034016
0.00343212
0.00334044
0.00337105
0.00327911
0.00330979
0.00321768
0.00324841
0.00315617
0.00318694
0.00309458
0.00312539
0.00303293
0.00306376
0.0029712
0.00300207
0.00290942
0.00294032
0.00284759
0.00287851
0.00278571
0.00281666
0.00272379
0.00275476
0.00266183
0.00269281
0.00259983
0.00263083
0.00253779
0.00256881
0.00247573
0.00250676
0.00241362
0.00244468
0.00235149
0.00238256
0.00228932
0.00232041
0.00222712
0.00225823
0.00216489
0.00219601
0.00210263
0.00213376
0.00204016
0.00207146
0.00197717
0.00200872
0.00191314
0.00194523
0.00187833
0.00188078
0.00187946
0.00187701
0.00187738
0.00187678
0.00187681
0.00187684
0.00187681
0.00187692
0.00187688
0.00187704
0.00187698
0.0018772
0.00187711
0.00187769
0.00187745
0.00187896
0.00187818
0.00188114
0.00187997
0.00194721
0.00188257
0.00191511
0.00201093
0.00197924
0.00207353
0.00204231
0.00213586
0.0021047
0.00219816
0.00216702
0.00226043
0.00222931
0.00232267
0.00229156
0.00238487
0.00235378
0.00244703
0.00241596
0.00250917
0.00247811
0.00257126
0.00254022
0.00263332
0.0026023
0.00269534
0.00266434
0.00275733
0.00272634
0.00281926
0.0027883
0.00288116
0.00285022
0.002943
0.00291209
0.00300479
0.0029739
0.00306651
0.00303566
0.00312816
0.00309735
0.00318973
0.00315896
0.00325121
0.00322048
0.00331259
0.00328191
0.00337385
0.00334323
0.00343498
0.00340443
0.00349597
0.0034655
0.00355678
0.0035264
0.00361738
0.00358711
0.00367772
0.00364759
0.00373791
0.00370784
0.00376777
0.00365707
0.00366745
0.00386123
0.00385997
0.00359022
0.00359017
0.00369779
0.00361998
0.00362039
0.00191405
0.00188195
0.0018487
0.00184987
0.00365096
0.0036506
0.0036808
0.00371098
0.00374117
0.00377128
0.00382021
0.00382291
0.00385148
0.00384873
0.0038184
0.00378724
0.00375712
0.00383118
0.00386113
0.0038903
0.00389113
0.00359017
0.00376513
0.00379416
0.00370564
0.0037354
0.00364504
0.0036754
0.00358451
0.00361481
0.00352381
0.00355418
0.00346292
0.00349339
0.00340187
0.00343242
0.00334067
0.00337129
0.00327933
0.00331002
0.00321788
0.00324862
0.00315634
0.00318712
0.00309473
0.00312555
0.00303305
0.0030639
0.00297131
0.00300219
0.00290951
0.00294042
0.00284767
0.0028786
0.00278578
0.00281673
0.00272384
0.00275482
0.00266187
0.00269286
0.00259987
0.00263087
0.00253783
0.00256885
0.00247576
0.0025068
0.00241365
0.00244471
0.00235152
0.00238259
0.00228935
0.00232044
0.00222715
0.00225825
0.00216492
0.00219604
0.00210265
0.00213379
0.00204034
0.00207151
0.00197771
0.002009
0.00194607
0.00184648
0.00184837
0.00184735
0.00184573
0.00184606
0.00184572
0.0018457
0.00184576
0.00184574
0.00184584
0.0018458
0.00184597
0.0018459
0.00184612
0.00184604
0.00184636
0.00184622
0.00184708
0.00184669
0.00184772
0.001948
0.00188386
0.00191618
0.00201127
0.00197968
0.00207366
0.00204248
0.00213599
0.00210483
0.00219829
0.00216715
0.00226056
0.00222943
0.00232279
0.00229168
0.00238499
0.00235389
0.00244715
0.00241607
0.00250928
0.00247822
0.00257138
0.00254034
0.00263345
0.00260242
0.00269547
0.00266447
0.00275746
0.00272648
0.00281941
0.00278845
0.00288132
0.00285037
0.00294317
0.00291225
0.00300498
0.00297408
0.00306672
0.00303586
0.00312839
0.00309756
0.00318998
0.0031592
0.00325149
0.00322075
0.0033129
0.00328221
0.00337419
0.00334356
0.00343536
0.00340479
0.00349638
0.00346589
0.00355723
0.00352683
0.00361789
0.00358759
0.00367831
0.00364813
0.00373842
0.00370842
0.00379828
0.00376835
0.00385874
0.00382854
0.0039203
0.00391932
0.0038889
0.00368674
0.00369783
0.00362035
0.00362032
0.0018495
0.00185134
0.00372768
0.00365005
0.00365047
0.00368103
0.00368062
0.00371075
0.00374088
0.003771
0.00380108
0.0038798
0.00388279
0.00391093
0.00391837
0.0039484
0.00394971
0.00390829
0.00387784
0.00384712
0.00381705
0.00378688
0.00386079
0.00389068
0.0039206
0.00394996
0.00362033
0.00382575
0.00385463
0.00376623
0.00379538
0.00370586
0.00373631
0.00364549
0.0036757
0.00358496
0.00361525
0.00352421
0.00355461
0.00346327
0.00349377
0.00340218
0.00343274
0.00334094
0.00337158
0.00327957
0.00331027
0.00321809
0.00324884
0.00315653
0.00318732
0.00309489
0.00312572
0.00303319
0.00306405
0.00297143
0.00300232
0.00290962
0.00294053
0.00284775
0.00287869
0.00278585
0.00281681
0.00272391
0.00275488
0.00266193
0.00269292
0.00259991
0.00263092
0.00253787
0.00256889
0.00247579
0.00250683
0.00241368
0.00244474
0.00235155
0.00238262
0.00228938
0.00232047
0.00222718
0.00225829
0.00216495
0.00219607
0.00210269
0.00213383
0.0020404
0.00207155
0.00197805
0.00200922
0.00191478
0.00194645
0.00185035
0.00188291
0.00181615
0.00181784
0.00181676
0.00181502
0.00181546
0.0018146
0.00181465
0.00181463
0.00181462
0.00181467
0.00181465
0.00181476
0.00181471
0.00181488
0.00181481
0.00181505
0.00181496
0.00181525
0.00181514
0.00181559
0.00181538
0.00181685
0.00181613
0.00181925
0.00181787
0.00188497
0.00182084
0.00185317
0.00194863
0.00191697
0.00201144
0.00198008
0.0020738
0.00204262
0.00213613
0.00210497
0.00219842
0.00216728
0.00226068
0.00222956
0.00232291
0.0022918
0.00238511
0.00235402
0.00244727
0.0024162
0.00250941
0.00247835
0.00257151
0.00254046
0.00263358
0.00260255
0.00269561
0.0026646
0.00275761
0.00272662
0.00281957
0.0027886
0.00288149
0.00285054
0.00294336
0.00291243
0.00300518
0.00297428
0.00306694
0.00303607
0.00312863
0.0030978
0.00319025
0.00315945
0.00325179
0.00322103
0.00331322
0.00328252
0.00337455
0.00334391
0.00343576
0.00340517
0.00349682
0.00346631
0.00355771
0.00352729
0.00361841
0.00358809
0.00367889
0.00364868
0.00373909
0.00370903
0.00379893
0.00376906
0.0038585
0.00382878
0.003888
0.00371639
0.00372776
0.00397961
0.00397912
0.0036504
0.00365041
0.00375752
0.00368004
0.00368049
0.00185156
0.0018195
0.001787
0.0017882
0.00371103
0.00371058
0.00374065
0.00377071
0.00380076
0.00383078
0.00393896
0.00394183
0.00396941
0.00396737
0.00393709
0.00390661
0.00387673
0.0038467
0.00381662
0.00389029
0.00392009
0.0039499
0.00397951
0.00400862
0.00400871
0.00365041
0.00388532
0.00391383
0.00382661
0.00385628
0.00376652
0.00379663
0.00370639
0.00373652
0.00364604
0.00367624
0.00358544
0.00361577
0.00352464
0.00355506
0.00346365
0.00349416
0.00340251
0.0034331
0.00334123
0.00337189
0.00327983
0.00331054
0.00321832
0.00324909
0.00315673
0.00318754
0.00309507
0.00312591
0.00303334
0.00306422
0.00297156
0.00300246
0.00290973
0.00294065
0.00284785
0.00287879
0.00278593
0.0028169
0.00272397
0.00275496
0.00266199
0.00269299
0.00259996
0.00263098
0.00253791
0.00256894
0.00247583
0.00250688
0.00241372
0.00244478
0.00235158
0.00238266
0.00228942
0.00232051
0.00222722
0.00225832
0.00216499
0.00219611
0.00210273
0.00213387
0.00204045
0.00207159
0.00197814
0.0020093
0.00191533
0.00194677
0.00188352
0.00178416
0.0017855
0.00178471
0.0017836
0.00178391
0.00178352
0.00178351
0.00178353
0.00178353
0.00178357
0.00178355
0.00178366
0.00178361
0.00178379
0.00178372
0.00178396
0.00178387
0.00178418
0.00178406
0.00178445
0.0017843
0.00178514
0.00178477
0.00178583
0.00188591
0.00182202
0.00185429
0.00194903
0.00191759
0.00201159
0.00198037
0.00207395
0.00204277
0.00213627
0.00210511
0.00219856
0.00216742
0.00226082
0.00222969
0.00232304
0.00229193
0.00238524
0.00235414
0.0024474
0.00241632
0.00250953
0.00247847
0.00257164
0.00254059
0.00263371
0.00260268
0.00269575
0.00266474
0.00275776
0.00272676
0.00281973
0.00278875
0.00288166
0.00285071
0.00294355
0.00291261
0.00300539
0.00297448
0.00306717
0.00303629
0.00312889
0.00309804
0.00319054
0.00315972
0.0032521
0.00322133
0.00331357
0.00328285
0.00337494
0.00334427
0.00343619
0.00340558
0.00349729
0.00346676
0.00355823
0.00352778
0.00361897
0.00358863
0.0036795
0.00364927
0.00373976
0.00370967
0.00379971
0.00376978
0.00385925
0.00382954
0.0039184
0.00388888
0.00397814
0.0039479
0.00403836
0.00403746
0.00400756
0.00374602
0.00375763
0.00368039
0.00368042
0.00178739
0.00178971
0.00378754
0.00370997
0.00371045
0.00374098
0.00374047
0.00377048
0.00380047
0.00383043
0.00386038
0.00399751
0.00400081
0.00402849
0.00403716
0.00406662
0.0040671
0.00402591
0.0039959
0.00396569
0.00393608
0.00390619
0.00387631
0.0038464
0.00391969
0.00394941
0.00397908
0.00400874
0.00403784
0.00406736
0.00368042
0.00394555
0.00397357
0.00388688
0.00391573
0.00382699
0.00385727
0.00376716
0.00379712
0.00370704
0.00373714
0.00364662
0.00367686
0.00358596
0.00361632
0.00352509
0.00355555
0.00346406
0.0034946
0.00340287
0.00343348
0.00334154
0.00337222
0.0032801
0.00331084
0.00321857
0.00324935
0.00315695
0.00318777
0.00309526
0.00312611
0.00303351
0.00306439
0.0029717
0.00300261
0.00290985
0.00294078
0.00284795
0.00287891
0.00278602
0.00281699
0.00272405
0.00275504
0.00266205
0.00269305
0.00260002
0.00263104
0.00253796
0.002569
0.00247588
0.00250692
0.00241377
0.00244483
0.00235163
0.0023827
0.00228946
0.00232055
0.00222726
0.00225837
0.00216504
0.00219616
0.00210279
0.00213392
0.0020405
0.00207165
0.00197819
0.00200935
0.00191567
0.00194699
0.00185252
0.00188411
0.00178833
0.00182071
0.00175385
0.00175545
0.00175462
0.00175279
0.00175316
0.00175246
0.00175255
0.00175242
0.00175243
0.00175242
0.00175242
0.00175246
0.00175244
0.00175255
0.0017525
0.00175268
0.00175261
0.00175286
0.00175276
0.00175308
0.00175296
0.00175334
0.00175321
0.0017537
0.00175348
0.00175501
0.00175424
0.00175764
0.00175615
0.00182315
0.00175914
0.00179123
0.00188661
0.00185512
0.00194935
0.00191797
0.00201175
0.00198057
0.0020741
0.00204293
0.00213642
0.00210527
0.0021987
0.00216757
0.00226095
0.00222983
0.00232318
0.00229207
0.00238537
0.00235428
0.00244753
0.00241645
0.00250967
0.0024786
0.00257178
0.00254073
0.00263385
0.00260282
0.0026959
0.00266488
0.00275792
0.00272692
0.0028199
0.00278892
0.00288185
0.00285088
0.00294375
0.00291281
0.00300561
0.00297469
0.00306741
0.00303652
0.00312916
0.0030983
0.00319084
0.00316001
0.00325244
0.00322165
0.00331394
0.0032832
0.00337535
0.00334466
0.00343664
0.00340601
0.00349779
0.00346723
0.00355878
0.00352831
0.00361958
0.00358921
0.00368016
0.0036499
0.00374048
0.00371036
0.0038005
0.00377053
0.00386015
0.00383038
0.00391931
0.00388982
0.00397805
0.00394876
0.00400719
0.00377562
0.00378738
0.00409673
0.00409667
0.00371032
0.00371037
0.00381717
0.00373985
0.00374034
0.00178943
0.00175763
0.00172545
0.00172692
0.00377087
0.0037703
0.00380023
0.00383015
0.00386003
0.00388988
0.00405639
0.00405937
0.00408675
0.00408356
0.00405441
0.00402435
0.00399497
0.00396507
0.0039354
0.00390559
0.00387581
0.00394898
0.0039786
0.00400816
0.00403755
0.00406701
0.00409616
0.00412547
0.00412523
0.00371037
0.00400434
0.00403138
0.00394716
0.00397639
0.00388768
0.00391683
0.00382778
0.00385795
0.00376793
0.00379788
0.00370772
0.00373787
0.00364723
0.00367751
0.00358651
0.0036169
0.00352558
0.00355607
0.00346449
0.00349506
0.00340325
0.00343389
0.00334188
0.00337258
0.0032804
0.00331116
0.00321883
0.00324963
0.00315718
0.00318801
0.00309546
0.00312633
0.00303368
0.00306457
0.00297185
0.00300277
0.00290997
0.00294092
0.00284806
0.00287902
0.00278611
0.00281709
0.00272413
0.00275513
0.00266212
0.00269313
0.00260008
0.00263111
0.00253802
0.00256905
0.00247593
0.00250698
0.00241381
0.00244488
0.00235167
0.00238275
0.00228951
0.00232059
0.00222731
0.00225841
0.00216509
0.00219621
0.00210284
0.00213397
0.00204056
0.00207171
0.00197825
0.00200941
0.0019159
0.00194709
0.0018531
0.00188446
0.00182139
0.00172204
0.00172329
0.00172261
0.00172149
0.00172177
0.00172136
0.0017214
0.00172131
0.00172133
0.0017213
0.0017213
0.00172134
0.00172132
0.00172143
0.00172138
0.00172156
0.00172149
0.00172174
0.00172164
0.00172197
0.00172185
0.00172224
0.0017221
0.00172256
0.00172239
0.00172335
0.00172292
0.00172422
0.00182417
0.00176053
0.00179241
0.0018871
0.00185563
0.00194955
0.00191833
0.00201192
0.00198074
0.00207426
0.0020431
0.00213657
0.00210542
0.00219885
0.00216772
0.0022611
0.00222998
0.00232331
0.00229221
0.0023855
0.00235441
0.00244767
0.00241659
0.0025098
0.00247874
0.00257192
0.00254086
0.002634
0.00260296
0.00269606
0.00266503
0.00275808
0.00272708
0.00282008
0.00278909
0.00288204
0.00285107
0.00294396
0.00291301
0.00300584
0.00297491
0.00306767
0.00303676
0.00312944
0.00309856
0.00319115
0.00316031
0.00325278
0.00322198
0.00331433
0.00328357
0.00337578
0.00334507
0.00343712
0.00340647
0.00349832
0.00346774
0.00355937
0.00352887
0.00362023
0.00358982
0.00368087
0.00365058
0.00374125
0.0037111
0.00380134
0.00377134
0.00386106
0.00383125
0.00392035
0.00389077
0.00397908
0.00394981
0.00403725
0.00400825
0.00409606
0.00406614
0.00415409
0.00415417
0.00412511
0.00380514
0.00381717
0.00374019
0.00374026
0.00172536
0.00172804
0.00384678
0.00376967
0.00377016
0.00380069
0.00380005
0.00382991
0.00385974
0.00388954
0.00391929
0.00411387
0.00411768
0.00414471
0.00414242
0.00411251
0.00408279
0.00405351
0.00402369
0.0039942
0.00396459
0.0039349
0.00390523
0.00397817
0.00400766
0.00403707
0.00406639
0.00409553
0.00412449
0.00415337
0.00415335
0.00418325
0.00418245
0.00374025
0.00406382
0.00409018
0.00400622
0.0040345
0.00394792
0.00397736
0.00388827
0.00391814
0.00382868
0.00385854
0.00376874
0.00379876
0.00370845
0.00373864
0.00364789
0.0036782
0.0035871
0.00361752
0.00352611
0.00355663
0.00346495
0.00349555
0.00340366
0.00343432
0.00334224
0.00337297
0.00328072
0.00331149
0.00321911
0.00324992
0.00315742
0.00318827
0.00309567
0.00312655
0.00303386
0.00306477
0.002972
0.00300294
0.00291011
0.00294106
0.00284818
0.00287915
0.00278621
0.0028172
0.00272422
0.00275522
0.00266219
0.00269321
0.00260015
0.00263118
0.00253808
0.00256912
0.00247598
0.00250703
0.00241386
0.00244493
0.00235172
0.0023828
0.00228956
0.00232064
0.00222737
0.00225847
0.00216515
0.00219626
0.0021029
0.00213403
0.00204063
0.00207177
0.00197832
0.00200948
0.00191599
0.00194716
0.00185342
0.00188469
0.00179038
0.00182203
0.00172609
0.00175848
0.00169176
0.00169354
0.00169256
0.00169069
0.0016911
0.00169033
0.00169043
0.00169024
0.00169028
0.00169018
0.00169021
0.00169017
0.00169017
0.00169021
0.00169019
0.0016903
0.00169025
0.00169043
0.00169036
0.00169061
0.00169052
0.00169084
0.00169072
0.00169113
0.00169098
0.00169143
0.00169128
0.00169201
0.00169163
0.00169336
0.00169252
0.00169583
0.00169438
0.00176135
0.00169718
0.00172933
0.00182474
0.00179317
0.00188735
0.0018561
0.00194973
0.00191854