/*--------------------------------*- C++ -*----------------------------------*\
  =========                 |
  \\      /  F ield         | OpenFOAM: The Open Source CFD Toolbox
   \\    /   O peration     | Website:  https://openfoam.org
    \\  /    A nd           | Version:  10
     \\/     M anipulation  |
\*---------------------------------------------------------------------------*/
FoamFile
{
    format      ascii;
    class       volVectorField;
    location    "8.5";
    object      U;
}
// * * * * * * * * * * * * * * * * * * * * * * * * * * * * * * * * * * * * * //

dimensions      [0 1 -1 0 0 0 0];

internalField   nonuniform List<vector> 
28942
(
(0.00773067 -0.00452297 -1.7276e-22)
(0.0102082 -0.00572958 -2.2702e-23)
(0.0189411 -0.0130013 -1.29992e-21)
(0.10331 0.0181912 -6.6819e-21)
(0.102355 0.0222332 2.17486e-21)
(0.0347266 0.00160267 0)
(0.0413737 0.00159928 3.19506e-23)
(0.0468219 0.00200765 -2.80327e-23)
(0.130509 -0.00774016 -4.97193e-22)
(0.128927 -0.00668988 1.39364e-21)
(0.0201246 0.0140207 -6.54283e-23)
(0.0280978 0.0165818 -4.59591e-23)
(0.0142675 0.0099957 0)
(0.0111615 0.00835406 0)
(0.0864883 0.00216684 -3.87436e-23)
(0.0847114 0.00358078 -1.0778e-23)
(0.0893533 0.0161518 8.16347e-22)
(0.087004 0.0141151 1.30665e-21)
(0.0122459 -0.0151648 3.98961e-21)
(0.0295969 -0.030564 -1.05439e-21)
(0.0985643 0.0369462 1.20057e-21)
(0.0976603 0.0342059 0)
(0.0258118 0.00964888 8.44054e-22)
(0.0116061 0.00477653 3.32462e-22)
(0.0459411 0.012193 6.22413e-22)
(0.067 0.00728567 -5.67406e-22)
(0.00763442 -0.0182555 9.88621e-21)
(0.00667408 -0.0163366 -3.60858e-21)
(0.0365187 -0.0257327 8.93431e-22)
(0.0197829 -0.0139273 3.16735e-22)
(0.0355366 -0.00363068 0)
(0.0442809 -0.0038953 -2.82737e-23)
(0.0537411 0.00711904 7.17646e-22)
(0.071252 0.00173488 -1.4209e-22)
(0.0190833 0.0181604 1.68187e-21)
(0.0158948 0.0192536 -1.81367e-21)
(0.0325266 0.0378346 -3.67953e-21)
(0.0188274 0.0307238 -1.22429e-21)
(0.0201456 0.000856634 -2.49278e-23)
(0.00872959 0.0163022 -3.07219e-21)
(0.0306595 -0.00619326 0)
(0.0513664 -0.0109517 0)
(0.104209 -0.00490772 -6.77442e-23)
(0.104249 -0.00460141 1.98973e-22)
(0.104552 -0.00500434 1.73742e-22)
(0.0626881 0.00148368 2.96256e-23)
(0.0588264 0.000337773 -5.11434e-23)
(0.0775791 0.000101191 -1.94232e-22)
(0.0751613 9.19106e-05 5.36047e-23)
(0.0641866 -0.00390237 -5.08361e-22)
(0.0511515 -0.00558199 3.18335e-22)
(0.11777 0.0042987 -8.18008e-22)
(0.117962 0.00391241 -7.35244e-22)
(0.130864 -0.0110281 -3.9882e-24)
(0.129099 -0.00993291 2.5673e-22)
(0.100379 0.0211924 3.6259e-22)
(0.118582 0.0142172 8.11622e-24)
(0.00683392 0.00490703 -2.56713e-22)
(0.015902 0.00983157 0)
(0.0137637 0.00779736 1.44268e-22)
(0.00595859 0.00403827 2.17507e-22)
(0.00149189 0.00114591 -1.76752e-22)
(0.00132502 0.00109519 -1.44208e-22)
(0.11676 -0.0403429 0)
(0.114645 -0.0218347 6.87795e-24)
(0.130017 -0.0266545 2.63438e-23)
(0.129167 -0.0387216 0)
(0.090241 -0.0324874 -7.84349e-22)
(0.0938021 -0.0348437 -5.20146e-22)
(0.00356751 -0.00218778 5.50711e-22)
(0.00457491 -0.00347695 -1.86658e-22)
(0.00812876 -0.00555469 4.78044e-22)
(0.0852621 -0.0449968 0)
(0.0914818 -0.0390118 2.68701e-21)
(0.0811199 -0.0521442 7.33224e-22)
(0.127177 0.00136855 -7.64744e-23)
(0.127365 -0.00686106 6.33223e-23)
(0.135982 -0.0043575 2.13059e-22)
(0.00493006 -0.00300754 -8.24463e-23)
(0.00667487 -0.00464696 8.2254e-22)
(0.0538273 -0.0319366 2.57693e-22)
(0.0353295 -0.021517 -3.53691e-22)
(0.00305972 -0.0013036 2.74355e-21)
(0.00688982 -0.00320614 -1.07926e-21)
(0.106416 0.047012 9.41488e-23)
(0.100865 0.054426 -1.09476e-21)
(0.0834311 0.0540502 1.02589e-21)
(0.048716 0.0350641 -3.73938e-21)
(0.0460181 0.0322608 2.65223e-21)
(0.0304259 0.021073 -1.72547e-22)
(0.0336578 0.0237187 -8.58998e-22)
(0.038989 0.0288197 1.17718e-21)
(0.0158736 0.0108771 4.52823e-23)
(0.0213667 0.0147505 7.80139e-24)
(0.0108297 0.00894571 -1.5633e-23)
(0.00885806 0.00751198 2.51568e-22)
(0.0083239 0.00671125 -3.50564e-22)
(0.0161196 0.0117649 -4.42612e-21)
(0.0178669 0.0138454 1.03579e-21)
(0.0111261 -0.00523169 0)
(0.101388 0.00515203 0)
(0.0983984 0.0156673 -4.80013e-21)
(0.0605177 0.0104653 2.6412e-21)
(0.0887897 0.0178395 0)
(0.124579 -0.0192515 0)
(0.123508 -0.0197111 0)
(0.123823 -0.0209254 -1.44264e-21)
(0.114979 0.0247358 -3.02085e-22)
(0.114163 0.0263214 2.94285e-21)
(0.113346 0.0241075 1.57777e-21)
(0.00612557 0.00487297 4.05143e-22)
(0.00507021 0.00411118 -4.54737e-22)
(0.0282527 -0.0123185 -2.56149e-22)
(0.0320759 -0.0147006 1.46995e-22)
(0.0165806 -0.00892102 2.00343e-22)
(0.00647377 0.0112657 1.68404e-21)
(0.0189609 0.0183331 3.97501e-21)
(0.0135179 0.0229577 2.7383e-22)
(0.00493327 0.014404 -9.88346e-21)
(0.122526 0.0444563 9.67602e-23)
(0.110899 0.0561774 1.60405e-21)
(0.12187 0.0515558 -2.7717e-21)
(0.0399218 -0.029736 9.87299e-22)
(0.024477 -0.0175007 -6.86534e-22)
(0.00527772 -0.000588289 -4.68444e-21)
(0.0045022 -0.00342802 0)
(0.0124269 -0.00144617 2.32077e-21)
(0.0223062 -0.0163042 1.00957e-21)
(0.0347983 -0.0279966 -2.62451e-21)
(0.0746858 0.000681842 1.49444e-22)
(0.0779977 0.000760548 -9.23921e-23)
(0.0712518 0.000884273 -4.52396e-24)
(0.0282943 -0.0419031 0)
(0.0297977 -0.0426161 0)
(0.0898358 -0.0185059 -6.37519e-22)
(0.099812 -0.0218784 4.23482e-21)
(0.0870667 -0.025252 0)
(0.0478663 -0.0403037 0)
(0.0590404 -0.0512214 -1.03076e-21)
(0.0419185 0.0395804 2.52496e-21)
(0.00244897 0.0024815 -5.68428e-23)
(0.00183453 0.00210023 1.0518e-22)
(0.022573 -0.0193707 -1.03817e-21)
(0.104951 -0.00531988 1.01627e-21)
(0.104906 -0.0050554 -1.87506e-22)
(0.12923 0.0108748 4.56384e-23)
(0.123339 0.0197471 -6.08229e-23)
(0.129384 0.0191867 -4.46366e-22)
(0.00212344 0.00212071 1.22659e-23)
(0.0448324 0.0348265 4.14775e-21)
(0.0636703 0.0466413 -1.03748e-21)
(0.0617206 0.0399967 -4.63201e-24)
(0.0531496 -0.00200867 1.10884e-23)
(0.052595 -0.00239032 6.1885e-23)
(0.0563869 -0.00314255 4.26414e-24)
(0.0618324 -0.00216597 -3.25892e-23)
(0.0463345 0.0383973 1.38448e-22)
(0.0192933 0.01624 0)
(0.00256225 -0.00227434 -1.0029e-22)
(0.00336894 -0.00335569 1.11022e-22)
(0.00842964 -0.00657425 -1.62246e-22)
(0.045028 -0.0124089 -1.49935e-21)
(0.0763128 -0.00742976 -5.49602e-22)
(0.0691902 -0.00208713 -6.89498e-25)
(0.0827598 -0.0052714 2.24212e-22)
(0.077379 -0.0150425 -2.09032e-22)
(0.094794 0.0394932 2.67991e-21)
(0.0920322 0.044849 9.66317e-23)
(0.0889113 0.0292359 1.49669e-21)
(0.0916797 0.0309023 -1.08463e-21)
(0.0992416 0.0403835 0)
(0.117794 -0.00283997 2.78643e-22)
(0.11773 -0.00326391 5.45651e-22)
(0.12355 -0.00516038 -5.38315e-22)
(0.124342 -0.00426866 9.32711e-22)
(0.116799 0.0216512 3.8377e-22)
(0.118714 0.0218061 -1.0935e-21)
(0.116938 0.023631 0)
(0.115067 0.0230139 2.18383e-22)
(0.116639 0.0256506 0)
(0.117547 0.0331008 -7.84592e-22)
(0.116234 0.0354043 -4.17045e-22)
(0.112078 0.0398216 -7.34073e-22)
(0.114376 0.0376569 0)
(0.117329 0.0399345 2.51428e-21)
(0.114713 0.0422751 4.59467e-23)
(0.109173 0.0422977 -4.01442e-22)
(0.100665 0.0489189 -1.68285e-21)
(0.0991379 0.0445073 -2.94139e-22)
(0.0529707 -0.0269969 -2.99089e-22)
(0.0614829 -0.0297952 1.16966e-22)
(0.0135902 -0.00906921 -1.65136e-22)
(0.0685348 0.000710129 -1.0619e-22)
(0.0815796 0.000224741 0)
(0.000984154 -0.000873831 -2.17882e-23)
(0.000934234 -0.000780809 -3.22917e-23)
(0.0757885 -0.00224781 4.42199e-23)
(0.0846545 -0.00205892 1.39992e-23)
(0.0840436 -0.00104878 0)
(0.0740171 -0.000367323 1.81539e-23)
(0.105674 0.000294916 -2.17627e-22)
(0.105665 0.000255018 1.04491e-21)
(0.105714 0.000263617 5.10743e-22)
(0.00361207 0.00301647 9.03449e-23)
(0.000637986 0.000593919 -2.02489e-22)
(0.000709309 0.000609777 7.81269e-23)
(0.00318466 0.00193749 0)
(0.000491109 0.000463428 8.02837e-22)
(0.000711537 0.000339094 -4.36953e-22)
(0.0104685 0.00549545 -6.97164e-22)
(0.00237338 0.00134267 -9.54446e-22)
(0.00265303 0.0013861 0)
(0.00157284 0.00759883 0)
(0.000578396 0.00330127 0)
(0.000313612 0.00199114 0)
(0.123483 -0.0182034 2.48827e-22)
(0.12287 -0.0172062 0)
(0.122437 -0.0186629 -2.82389e-22)
(0.0880885 -0.0148616 5.38576e-21)
(0.0901159 -0.0152873 -1.95707e-21)
(0.0890132 -0.0128858 0)
(0.106481 8.75684e-06 -1.2837e-23)
(0.106502 8.70439e-06 2.56939e-23)
(0.106459 9.43524e-06 -8.67654e-24)
(0.106523 8.59219e-06 0)
(0.106542 8.7511e-06 -1.64082e-23)
(0.10656 8.29287e-06 0)
(0.106559 -1.15523e-05 0)
(0.106577 7.10508e-06 6.09399e-23)
(0.106576 -1.23866e-05 0)
(0.106541 -1.18385e-05 -1.65129e-23)
(0.106522 -1.2333e-05 0)
(0.106502 -1.3008e-05 8.5944e-24)
(0.106481 -1.38596e-05 -1.28327e-23)
(0.106459 -1.48921e-05 8.66569e-24)
(0.106593 6.23104e-06 -5.83145e-23)
(0.106592 -1.27689e-05 -2.04215e-24)
(0.106436 9.59037e-06 9.94767e-28)
(0.106436 -1.57303e-05 -1.32445e-23)
(0.106411 9.61106e-06 7.04105e-23)
(0.106608 5.83468e-06 5.45611e-26)
(0.106608 -1.24859e-05 -2.04545e-24)
(0.106411 -1.65635e-05 2.60943e-23)
(0.106622 5.31428e-06 5.49831e-23)
(0.106636 4.75424e-06 -5.49379e-23)
(0.106622 -1.21552e-05 4.11705e-24)
(0.106636 -1.18239e-05 8.14462e-24)
(0.106385 1.09354e-05 -6.8506e-23)
(0.106385 -1.82457e-05 -1.71729e-23)
(0.10665 4.22912e-06 0)
(0.10665 -1.15128e-05 -8.03335e-24)
(0.106359 1.10807e-05 8.46689e-27)
(0.106359 -1.96602e-05 -8.48812e-27)
(0.106662 3.72098e-06 0)
(0.106662 -1.11578e-05 0)
(0.106331 1.11258e-05 0)
(0.106331 -2.1208e-05 0)
(0.106674 3.30197e-06 0)
(0.106674 -1.08683e-05 3.86558e-24)
(0.106302 1.134e-05 -3.5497e-23)
(0.106301 -2.25633e-05 -8.66405e-27)
(0.106686 2.88094e-06 2.027e-25)
(0.106686 -1.05155e-05 -4.12853e-24)
(0.106271 1.17314e-05 3.56667e-23)
(0.10627 -2.38483e-05 0)
(0.106696 2.43664e-06 0)
(0.106697 -1.01656e-05 0)
(0.106238 1.2631e-05 -2.25606e-24)
(0.106237 -2.48187e-05 3.87121e-23)
(0.106707 1.91996e-06 2.51027e-23)
(0.106707 -9.69807e-06 0)
(0.106204 1.36782e-05 -1.84581e-25)
(0.106204 -2.60158e-05 -3.66398e-23)
(0.106716 1.22803e-06 -3.75557e-23)
(0.106717 -9.33206e-06 -1.09035e-23)
(0.106168 1.41072e-05 3.73562e-23)
(0.106168 -2.68948e-05 0)
(0.106726 4.01701e-07 1.23754e-23)
(0.106726 -8.99595e-06 7.27249e-24)
(0.10613 1.54131e-05 -1.88992e-23)
(0.10613 -2.81051e-05 3.83303e-23)
(0.106735 -4.69053e-07 -4.94905e-23)
(0.106735 -8.06728e-06 5.57803e-23)
(0.106089 1.54207e-05 1.94946e-23)
(0.10609 -2.8727e-05 6.16927e-25)
(0.106744 -1.38814e-06 0)
(0.106744 -7.68701e-06 2.66114e-23)
(0.106046 1.63665e-05 -3.92121e-23)
(0.106047 -2.97993e-05 7.84538e-23)
(0.106753 -1.3369e-06 0)
(0.106753 -8.1664e-06 0)
(0.106091 5.80817e-05 -1.92898e-23)
(0.106047 6.18426e-05 -7.80937e-23)
(0.105999 1.7208e-05 0)
(0.106001 -3.14791e-05 -3.99804e-23)
(0.10617 5.09911e-05 -1.21269e-23)
(0.106131 5.45799e-05 2.37998e-24)
(0.106241 4.53264e-05 0)
(0.106206 4.82004e-05 -3.91311e-23)
(0.106304 4.14693e-05 -7.55869e-26)
(0.106273 4.32379e-05 0)
(0.106362 3.82847e-05 0)
(0.106333 3.9875e-05 0)
(0.106414 3.48483e-05 0)
(0.106388 3.6544e-05 0)
(0.106461 3.26713e-05 1.71446e-23)
(0.106438 3.40277e-05 4.31843e-24)
(0.106504 2.99706e-05 -1.65374e-23)
(0.106483 3.14267e-05 -1.71239e-23)
(0.106543 2.6888e-05 2.93942e-23)
(0.106523 2.81503e-05 3.75831e-23)
(0.106578 2.37947e-05 0)
(0.106561 2.54262e-05 0)
(0.106609 2.04798e-05 -1.29459e-25)
(0.106594 2.21313e-05 0)
(0.106638 1.76474e-05 0)
(0.106624 1.90031e-05 0)
(0.106663 1.51466e-05 0)
(0.106651 1.63696e-05 0)
(0.106686 1.29945e-05 0)
(0.106675 1.40462e-05 0)
(0.106707 1.10529e-05 0)
(0.106697 1.20024e-05 0)
(0.106726 9.27132e-06 0)
(0.106717 1.01366e-05 0)
(0.106744 6.97032e-06 -2.02529e-23)
(0.106735 8.43549e-06 0)
(0.106753 5.87382e-06 -6.55296e-24)
(0.106761 -1.71854e-06 6.39342e-24)
(0.106761 -8.2476e-06 -6.34022e-24)
(0.106736 -1.67962e-05 0)
(0.106753 -1.52651e-05 -2.60098e-23)
(0.106744 -1.57161e-05 -1.33735e-23)
(0.106717 -1.91837e-05 3.65352e-24)
(0.106727 -1.78546e-05 -1.43174e-23)
(0.106697 -2.11378e-05 1.18244e-25)
(0.106707 -2.03461e-05 0)
(0.106675 -2.2603e-05 0)
(0.106686 -2.18591e-05 0)
(0.10665 -2.41956e-05 0)
(0.106663 -2.33682e-05 0)
(0.106623 -2.60191e-05 0)
(0.106637 -2.50648e-05 1.55202e-29)
(0.106593 -2.8147e-05 1.30758e-25)
(0.106608 -2.70159e-05 0)
(0.106559 -3.11798e-05 0)
(0.106576 -2.97269e-05 0)
(0.106523 -3.34225e-05 0)
(0.106542 -3.2407e-05 0)
(0.106482 -3.6407e-05 0)
(0.106503 -3.46245e-05 -8.68751e-24)
(0.106437 -4.06884e-05 2.27714e-24)
(0.10646 -3.90179e-05 -1.11969e-23)
(0.106387 -4.62179e-05 0)
(0.106413 -4.2917e-05 -9.10602e-24)
(0.106332 -5.17723e-05 0)
(0.10636 -4.89819e-05 0)
(0.106272 -5.76736e-05 0)
(0.106303 -5.46819e-05 0)
(0.106205 -6.38294e-05 0)
(0.106239 -6.08032e-05 0)
(0.106132 -6.95678e-05 -9.9013e-24)
(0.10617 -6.65319e-05 0)
(0.10605 -7.54705e-05 -4.01465e-23)
(0.106092 -7.22695e-05 -9.96088e-24)
(0.106005 -7.92287e-05 4.08724e-23)
(0.106001 6.60232e-05 7.74174e-23)
(0.106761 5.14184e-06 1.28286e-23)
(0.106761 -1.49884e-05 -2.50833e-23)
(0.105952 -3.36036e-05 0)
(0.105957 -8.38679e-05 0)
(0.105952 7.02488e-05 0)
(0.10595 1.75607e-05 0)
(0.106095 9.9823e-05 0)
(0.106007 0.000113143 1.94226e-23)
(0.106052 0.000106155 1.95983e-23)
(0.106175 8.79055e-05 2.49192e-23)
(0.106136 9.35622e-05 -4.97928e-24)
(0.106245 7.85179e-05 7.70959e-26)
(0.106211 8.26301e-05 0)
(0.106308 7.16265e-05 0)
(0.106278 7.49053e-05 0)
(0.106366 6.5797e-05 0)
(0.106338 6.86166e-05 0)
(0.106417 6.07158e-05 0)
(0.106392 6.3121e-05 0)
(0.106464 5.49528e-05 0)
(0.106441 5.77855e-05 0)
(0.106507 4.98149e-05 -6.93711e-26)
(0.106486 5.26479e-05 1.78823e-23)
(0.106545 4.49794e-05 -6.66895e-26)
(0.106526 4.71191e-05 -3.4954e-23)
(0.10658 4.00811e-05 0)
(0.106563 4.24437e-05 0)
(0.106611 3.55305e-05 6.46719e-26)
(0.106596 3.77624e-05 0)
(0.106639 3.14576e-05 0)
(0.106625 3.34123e-05 0)
(0.106664 2.78376e-05 0)
(0.106652 2.95709e-05 0)
(0.106688 2.45014e-05 0)
(0.106676 2.6105e-05 0)
(0.106709 2.14588e-05 0)
(0.106698 2.29378e-05 0)
(0.106728 1.85635e-05 0)
(0.106718 2.00013e-05 0)
(0.106745 1.5134e-05 1.38319e-23)
(0.106737 1.69117e-05 0)
(0.106769 -2.49554e-06 0)
(0.106769 4.67576e-06 1.25651e-23)
(0.106761 1.17441e-05 0)
(0.106754 1.32468e-05 1.34904e-23)
(0.106753 -2.31593e-05 2.68443e-23)
(0.106761 -2.23775e-05 6.60362e-24)
(0.106769 -1.46474e-05 5.15038e-23)
(0.106769 -8.01502e-06 0)
(0.106736 -2.62038e-05 0)
(0.106745 -2.44264e-05 -4.05174e-23)
(0.106718 -2.91851e-05 1.15129e-25)
(0.106728 -2.76808e-05 1.44044e-23)
(0.106698 -3.15796e-05 -1.18244e-25)
(0.106708 -3.03761e-05 0)
(0.106676 -3.41353e-05 0)
(0.106687 -3.28304e-05 0)
(0.106651 -3.69703e-05 0)
(0.106664 -3.55086e-05 0)
(0.106624 -4.01763e-05 0)
(0.106638 -3.8516e-05 -1.55202e-29)
(0.106594 -4.37956e-05 -2.61479e-25)
(0.10661 -4.1924e-05 0)
(0.106561 -4.83248e-05 0)
(0.106578 -4.58556e-05 0)
(0.106524 -5.31793e-05 4.38786e-24)
(0.106543 -5.06745e-05 0)
(0.106484 -5.85795e-05 0)
(0.106505 -5.56902e-05 -4.36955e-24)
(0.106439 -6.50434e-05 9.13078e-24)
(0.106462 -6.17294e-05 9.07384e-24)
(0.10639 -7.2332e-05 0)
(0.106415 -6.86996e-05 0)
(0.106335 -8.03185e-05 0)
(0.106363 -7.62256e-05 0)
(0.106276 -8.9014e-05 0)
(0.106306 -8.45922e-05 0)
(0.10621 -9.81671e-05 0)
(0.106243 -9.35794e-05 0)
(0.106137 -0.000107486 1.58791e-25)
(0.106174 -0.000102812 0)
(0.106056 -0.000117818 -1.61072e-25)
(0.106097 -0.000112429 0)
(0.105964 -0.000130691 -4.21203e-23)
(0.106011 -0.000124019 4.21009e-23)
(0.105958 0.000120496 3.94699e-23)
(0.105905 -8.94577e-05 0)
(0.105913 -0.00013894 -8.57277e-23)
(0.1059 -3.57257e-05 0)
(0.106769 1.10619e-05 0)
(0.106769 -2.14035e-05 -6.41298e-24)
(0.1059 7.41358e-05 9.99818e-23)
(0.105907 0.000128242 3.99774e-23)
(0.105851 -9.54049e-05 2.16447e-23)
(0.10586 -0.000147708 1.08329e-22)
(0.105898 1.84545e-05 0)
(0.106762 2.00288e-05 5.28484e-23)
(0.10677 1.8052e-05 -2.61164e-23)
(0.106776 -1.46452e-05 -1.27027e-23)
(0.106777 -2.04258e-05 6.31859e-23)
(0.105919 0.000181352 1.40172e-22)
(0.105853 0.000136644 -7.876e-23)
(0.105807 0.000207181 -3.56502e-22)
(0.105864 0.000193481 -8.00151e-23)
(0.106016 0.000159986 3.91214e-23)
(0.105969 0.00017036 -1.1937e-22)
(0.106103 0.000140913 -3.99888e-23)
(0.106061 0.000150211 -3.0142e-23)
(0.106182 0.00012473 -9.97061e-24)
(0.106144 0.000132475 -9.98721e-24)
(0.106252 0.000111799 -7.70959e-26)
(0.106218 0.000117756 0)
(0.106315 0.000101603 0)
(0.106284 0.000106465 0)
(0.106371 9.29314e-05 0)
(0.106344 9.71252e-05 0)
(0.106422 8.51066e-05 0)
(0.106397 8.89423e-05 0)
(0.106469 7.7435e-05 0)
(0.106446 8.11647e-05 0)
(0.10651 6.99157e-05 0)
(0.10649 7.35501e-05 0)
(0.106548 6.27233e-05 3.31315e-30)
(0.10653 6.64484e-05 0)
(0.106582 5.6316e-05 0)
(0.106566 5.93647e-05 0)
(0.106613 5.03138e-05 6.46717e-26)
(0.106598 5.32709e-05 0)
(0.106641 4.48331e-05 0)
(0.106628 4.74948e-05 0)
(0.106666 3.99178e-05 0)
(0.106654 4.23046e-05 0)
(0.106689 3.54684e-05 0)
(0.106678 3.76337e-05 0)
(0.10671 3.14311e-05 0)
(0.1067 3.34053e-05 0)
(0.106729 2.76634e-05 0)
(0.10672 2.95337e-05 0)
(0.106747 2.37842e-05 7.05099e-24)
(0.106738 2.57117e-05 -3.54691e-24)
(0.106755 2.18594e-05 -2.69462e-23)
(0.106776 -2.60379e-06 -6.01487e-24)
(0.106777 1.03721e-05 2.51742e-23)
(0.106776 3.62736e-06 -1.92212e-23)
(0.106776 -7.71301e-06 0)
(0.106754 -3.18807e-05 -2.00125e-23)
(0.10677 -2.83441e-05 -5.78433e-23)
(0.106762 -2.99487e-05 4.65318e-23)
(0.106738 -3.57558e-05 0)
(0.106746 -3.39295e-05 0)
(0.106719 -3.87654e-05 3.71443e-30)
(0.106729 -3.71549e-05 0)
(0.106699 -4.20435e-05 0)
(0.10671 -4.03614e-05 0)
(0.106677 -4.56837e-05 -1.21374e-25)
(0.106689 -4.38169e-05 0)
(0.106653 -4.97482e-05 0)
(0.106665 -4.7657e-05 0)
(0.106626 -5.43243e-05 0)
(0.10664 -5.19654e-05 0)
(0.106596 -5.9492e-05 1.3074e-25)
(0.106612 -5.68286e-05 0)
(0.106564 -6.54732e-05 1.33866e-25)
(0.10658 -6.23419e-05 0)
(0.106527 -7.21719e-05 0)
(0.106546 -6.87138e-05 0)
(0.106487 -7.98864e-05 0)
(0.106508 -7.59665e-05 0)
(0.106443 -8.84607e-05 0)
(0.106466 -8.39007e-05 0)
(0.106394 -9.80099e-05 0)
(0.106419 -9.3147e-05 0)
(0.10634 -0.000108586 -1.49455e-25)
(0.106368 -0.00010317 0)
(0.106281 -0.000120111 0)
(0.106311 -0.000114238 0)
(0.106216 -0.000132462 0)
(0.106249 -0.000126197 0)
(0.106144 -0.000145576 3.91774e-30)
(0.106181 -0.000138925 0)
(0.106063 -0.000159847 -4.51861e-31)
(0.106105 -0.000152537 0)
(0.105973 -0.000176828 1.66861e-25)
(0.10602 -0.000167742 0)
(0.105871 -0.000198433 -8.77896e-23)
(0.105924 -0.000186927 2.1592e-23)
(0.105803 -0.000156727 2.20841e-23)
(0.105815 -0.000210884 4.38519e-23)
(0.105846 7.81371e-05 -3.9111e-23)
(0.105845 -3.87482e-05 -4.19579e-23)
(0.106777 1.68156e-05 6.40635e-24)
(0.106777 -2.7148e-05 4.5471e-23)
(0.105794 0.000143788 4.7958e-24)
(0.105793 -0.000101798 0)
(0.105738 0.000212111 5.43854e-22)
(0.105757 -0.000223907 6.76045e-23)
(0.105743 -0.000166831 9.01527e-23)
(0.105744 0.000285859 -9.17548e-22)
(0.105688 0.00031368 1.62876e-22)
(0.105843 1.92198e-05 0)
(0.105832 0.000259825 9.01958e-23)
(0.105786 0.000277184 4.69564e-23)
(0.105934 0.000231606 8.13268e-23)
(0.105883 0.000245233 -1.24079e-22)
(0.106029 0.000204648 -4.05375e-23)
(0.105983 0.00021805 -2.02478e-23)
(0.106115 0.000180764 2.03331e-23)
(0.106073 0.000192115 2.05839e-23)
(0.106192 0.000160873 0)
(0.106154 0.000170364 -4.84397e-26)
(0.106261 0.000144653 0)
(0.106227 0.000152379 0)
(0.106323 0.000131165 7.55495e-26)
(0.106292 0.000137618 0)
(0.106378 0.000119574 0)
(0.106351 0.000125188 0)
(0.106429 0.000109086 0)
(0.106404 0.000114231 0)
(0.106474 9.91677e-05 0)
(0.106452 0.000104054 0)
(0.106515 8.96446e-05 6.93395e-26)
(0.106495 9.43043e-05 0)
(0.106552 8.06173e-05 2.35755e-31)
(0.106534 8.51303e-05 0)
(0.106586 7.24022e-05 0)
(0.10657 7.6382e-05 0)
(0.106616 6.48424e-05 -1.29343e-25)
(0.106602 6.85479e-05 0)
(0.106644 5.79759e-05 0)
(0.10663 6.13173e-05 0)
(0.106669 5.18101e-05 0)
(0.106657 5.48101e-05 0)
(0.106692 4.62628e-05 0)
(0.106681 4.89643e-05 0)
(0.106712 4.12579e-05 0)
(0.106702 4.3699e-05 0)
(0.106731 3.66786e-05 0)
(0.106722 3.89306e-05 0)
(0.106748 3.23152e-05 -3.52331e-24)
(0.10674 3.43812e-05 0)
(0.106764 2.83313e-05 0)
(0.106756 3.03656e-05 -6.84336e-24)
(0.106778 2.36335e-05 3.5054e-27)
(0.106771 2.595e-05 0)
(0.106784 9.48052e-06 -2.55239e-23)
(0.106785 2.18066e-05 1.54318e-24)
(0.106784 1.6016e-05 1.25155e-23)
(0.106784 -2.31277e-06 9.18228e-24)
(0.106784 3.24184e-06 -6.33814e-24)
(0.106784 -1.47229e-05 -3.19022e-24)
(0.106784 -8.05632e-06 3.18508e-24)
(0.106784 -2.66727e-05 0)
(0.106784 -2.00086e-05 -2.8943e-23)
(0.10677 -3.63819e-05 -1.30081e-23)
(0.106784 -3.37554e-05 -2.49008e-23)
(0.106777 -3.48462e-05 5.73044e-23)
(0.106755 -4.02144e-05 -6.8125e-24)
(0.106763 -3.81709e-05 0)
(0.106739 -4.45522e-05 0)
(0.106747 -4.24749e-05 0)
(0.106721 -4.826e-05 3.6859e-30)
(0.10673 -4.64225e-05 0)
(0.106701 -5.24498e-05 0)
(0.106711 -5.02894e-05 0)
(0.106679 -5.71485e-05 1.21374e-25)
(0.106691 -5.47348e-05 0)
(0.106655 -6.24091e-05 0)
(0.106668 -5.97038e-05 0)
(0.106629 -6.83226e-05 0)
(0.106642 -6.52783e-05 0)
(0.106599 -7.49971e-05 0)
(0.106614 -7.15574e-05 0)
(0.106567 -8.25818e-05 4.18223e-30)
(0.106584 -7.86665e-05 0)
(0.106531 -9.10901e-05 0)
(0.106549 -8.67095e-05 0)
(0.106491 -0.000100711 0)
(0.106512 -9.57843e-05 0)
(0.106448 -0.000111437 0)
(0.10647 -0.000105878 0)
(0.1064 -0.000123355 0)
(0.106424 -0.000117253 0)
(0.106347 -0.0001365 1.49455e-25)
(0.106374 -0.000129774 0)
(0.106288 -0.000150875 0)
(0.106318 -0.000143535 0)
(0.106224 -0.000166487 0)
(0.106257 -0.000158527 0)
(0.106153 -0.000183423 -1.58779e-25)
(0.106189 -0.000174777 0)
(0.106073 -0.000201981 1.61879e-25)
(0.106114 -0.000192479 0)
(0.105985 -0.000222774 -1.64976e-25)
(0.10603 -0.000212027 0)
(0.105885 -0.000247829 2.17242e-23)
(0.105936 -0.000234452 -4.28281e-23)
(0.105773 -0.000278861 -2.19329e-23)
(0.10583 -0.000262597 4.44884e-23)
(0.105694 -0.000237679 8.11942e-25)
(0.105712 -0.000295859 4.50781e-23)
(0.105788 8.19283e-05 -4.01842e-23)
(0.105788 -4.18011e-05 0)
(0.105734 0.000152503 -3.89837e-22)
(0.105733 -0.000106421 0)
(0.106779 3.21769e-05 -6.4186e-24)
(0.106786 3.03128e-05 4.70213e-24)
(0.106791 -2.58345e-05 -2.45284e-23)
(0.106791 -3.26448e-05 -2.78021e-23)
(0.105669 0.000211384 -3.82502e-22)
(0.10568 -0.000177367 -9.10347e-23)
(0.105639 0.000317448 0)
(0.105758 0.000347327 -1.05992e-22)
(0.105629 -0.000252325 -4.47069e-23)
(0.105647 -0.000314176 6.84563e-23)
(0.1057 0.000364153 2.12751e-22)
(0.105786 1.96157e-05 0)
(0.105855 0.000312728 0)
(0.105807 0.000331113 -9.43788e-23)
(0.105953 0.000279673 0)
(0.105904 0.000295879 0)
(0.106045 0.000247933 0)
(0.106 0.000263445 2.0977e-23)
(0.106128 0.000220394 0)
(0.106087 0.000233657 0)
(0.106203 0.000196884 0)
(0.106167 0.000208108 0)
(0.106271 0.000177067 0)
(0.106238 0.000186566 0)
(0.106332 0.000160289 -7.55495e-26)
(0.106303 0.000168342 0)
(0.106387 0.000145755 0)
(0.106361 0.000152798 0)
(0.106436 0.000132652 0)
(0.106412 0.000139067 0)
(0.106481 0.000120431 0)
(0.106459 0.000126447 0)
(0.106521 0.000108905 3.84184e-31)
(0.106501 0.000114572 0)
(0.106557 9.81188e-05 -3.09089e-31)
(0.10654 0.00010343 0)
(0.10659 8.82119e-05 0)
(0.106574 9.30442e-05 0)
(0.10662 7.91647e-05 -2.20516e-32)
(0.106606 8.35862e-05 0)
(0.106647 7.09673e-05 0)
(0.106634 7.49594e-05 0)
(0.106672 6.35937e-05 0)
(0.10666 6.71827e-05 0)
(0.106694 5.69627e-05 0)
(0.106684 6.0191e-05 0)
(0.106715 5.09965e-05 0)
(0.106705 5.39019e-05 0)
(0.106733 4.56344e-05 0)
(0.106724 4.82414e-05 0)
(0.10675 4.0941e-05 0)
(0.106742 4.32387e-05 0)
(0.106765 3.59185e-05 6.79915e-24)
(0.106758 3.83273e-05 6.94728e-24)
(0.106772 3.38699e-05 -1.30607e-23)
(0.106791 8.79584e-06 -1.25373e-23)
(0.106792 2.08804e-05 0)
(0.106791 1.52846e-05 -1.26615e-23)
(0.106791 -2.3443e-06 0)
(0.106791 3.35403e-06 1.27951e-23)
(0.106791 -1.47907e-05 1.90957e-23)
(0.106791 -8.60363e-06 -6.45347e-24)
(0.106791 -1.98963e-05 -3.75239e-23)
(0.106771 -4.44253e-05 6.56224e-24)
(0.106785 -3.99724e-05 2.4477e-23)
(0.106778 -4.28299e-05 0)
(0.106757 -4.8749e-05 -1.35759e-23)
(0.106764 -4.6433e-05 1.36207e-23)
(0.106741 -5.30849e-05 0)
(0.106749 -5.10586e-05 0)
(0.106723 -5.76113e-05 4.10029e-30)
(0.106732 -5.52998e-05 0)
(0.106704 -6.27322e-05 0)
(0.106714 -6.00945e-05 0)
(0.106682 -6.84815e-05 0)
(0.106693 -6.55264e-05 0)
(0.106658 -7.49222e-05 0)
(0.10667 -7.16107e-05 0)
(0.106632 -8.21506e-05 0)
(0.106645 -7.84319e-05 0)
(0.106603 -9.02841e-05 1.30752e-25)
(0.106618 -8.60967e-05 0)
(0.106571 -9.94599e-05 -1.3387e-25)
(0.106587 -9.47362e-05 0)
(0.106536 -0.000109743 0)
(0.106554 -0.000104456 0)
(0.106497 -0.000121256 0)
(0.106517 -0.000115348 0)
(0.106454 -0.000134081 0)
(0.106476 -0.000127489 0)
(0.106407 -0.000148291 0)
(0.106431 -0.000141012 0)
(0.106355 -0.000163956 0)
(0.106381 -0.000155938 0)
(0.106297 -0.000181158 0)
(0.106327 -0.00017236 0)
(0.106234 -0.000200006 -1.55688e-25)
(0.106267 -0.000190369 0)
(0.106164 -0.000220702 1.58794e-25)
(0.1062 -0.000210105 0)
(0.106086 -0.00024362 -1.61895e-25)
(0.106126 -0.000231858 0)
(0.105998 -0.000269264 0)
(0.106043 -0.00025606 0)
(0.1059 -0.000298292 0)
(0.105951 -0.000283302 0)
(0.105791 -0.000332897 1.73304e-25)
(0.105848 -0.000314502 2.19272e-23)
(0.105669 -0.000375169 -1.14774e-22)
(0.105732 -0.000353251 0)
(0.105579 -0.000334474 -6.78915e-23)
(0.105602 -0.00039873 -8.13817e-25)
(0.105728 8.57417e-05 1.25684e-22)
(0.105727 -4.46463e-05 0)
(0.106792 2.78098e-05 -2.44446e-23)
(0.106792 -3.82009e-05 -4.7127e-23)
(0.105666 0.000152722 -6.69179e-23)
(0.105615 0.00026861 8.67825e-25)
(0.105601 0.00021132 1.95068e-22)
(0.10567 -0.000111906 0)
(0.105614 -0.000186915 2.28808e-23)
(0.105637 0.000381051 -1.94748e-22)
(0.105571 0.000382092 1.68565e-22)
(0.105558 0.000299892 -1.67295e-22)
(0.105559 -0.000267349 -6.88069e-23)
(0.105507 -0.000355073 4.60731e-23)
(0.105531 -0.000424714 4.52342e-23)
(0.105726 1.94337e-05 0)
(0.105774 0.000408267 5.92446e-24)
(0.105649 0.000454478 -8.86662e-25)
(0.105713 0.000430901 4.58816e-23)
(0.105876 0.000365623 4.54014e-23)
(0.105827 0.000386287 -4.56372e-23)
(0.105972 0.000326476 8.32915e-26)
(0.105924 0.000345805 0)
(0.106062 0.000291061 0)
(0.106018 0.000308224 0)
(0.106143 0.000259655 0)
(0.106103 0.000274869 0)
(0.106217 0.000232328 0)
(0.106181 0.000245462 0)
(0.106284 0.000208924 7.71018e-26)
(0.106251 0.00022017 0)
(0.106344 0.000188876 0)
(0.106314 0.000198526 0)
(0.106397 0.000171397 0)
(0.106371 0.00017987 0)
(0.106445 0.000155698 0)
(0.106422 0.000163368 0)
(0.106489 0.000141218 0)
(0.106468 0.000148326 0)
(0.106528 0.000127726 -6.93399e-26)
(0.106509 0.000134351 0)
(0.106563 0.000115204 -4.71849e-31)
(0.106546 0.000121347 0)
(0.106596 0.00010371 0)
(0.10658 0.000109323 0)
(0.106625 9.32385e-05 1.29343e-25)
(0.106611 9.83511e-05 0)
(0.106652 8.37519e-05 0)
(0.106639 8.83745e-05 0)
(0.106676 7.52023e-05 0)
(0.106664 7.93654e-05 0)
(0.106698 6.75082e-05 0)
(0.106687 7.12542e-05 0)
(0.106718 6.059e-05 0)
(0.106708 6.39573e-05 0)
(0.106736 5.43895e-05 0)
(0.106727 5.74015e-05 0)
(0.106753 4.89289e-05 1.10641e-25)
(0.106744 5.15785e-05 0)
(0.106767 4.37879e-05 -6.82885e-24)
(0.10676 4.64529e-05 0)
(0.106781 3.83427e-05 6.50328e-24)
(0.106774 4.10497e-05 0)
(0.106794 3.36397e-05 6.22284e-24)
(0.106787 3.59618e-05 -6.35428e-24)
(0.106798 1.99323e-05 1.22972e-23)
(0.1068 3.09647e-05 0)
(0.106799 2.63097e-05 1.83034e-23)
(0.106797 8.79152e-06 0)
(0.106797 1.41018e-05 0)
(0.106797 -2.6547e-06 0)
(0.106797 3.38665e-06 0)
(0.106797 -1.4994e-05 0)
(0.106797 -8.81381e-06 0)
(0.106797 -2.54426e-05 2.49985e-23)
(0.106797 -2.00104e-05 6.21591e-24)
(0.106798 -3.68215e-05 6.15422e-24)
(0.106797 -3.11887e-05 4.90249e-23)
(0.106786 -4.67474e-05 3.19067e-23)
(0.106798 -4.28983e-05 6.13188e-24)
(0.106792 -4.46449e-05 -1.24423e-23)
(0.106773 -5.1664e-05 6.55662e-24)
(0.10678 -4.90682e-05 -3.93011e-23)
(0.106759 -5.68246e-05 1.0089e-29)
(0.106766 -5.42627e-05 0)
(0.106743 -6.1458e-05 0)
(0.106751 -5.90659e-05 0)
(0.106726 -6.68156e-05 4.4814e-30)
(0.106735 -6.40572e-05 0)
(0.106706 -7.28653e-05 0)
(0.106716 -6.97517e-05 0)
(0.106685 -7.96545e-05 0)
(0.106696 -7.61646e-05 0)
(0.106662 -8.72574e-05 0)
(0.106674 -8.33493e-05 0)
(0.106636 -9.57762e-05 0)
(0.106649 -9.13961e-05 0)
(0.106607 -0.000105333 -2.61509e-25)
(0.106622 -0.000100418 0)
(0.106576 -0.000116061 0)
(0.106592 -0.000110545 0)
(0.106541 -0.000128059 0)
(0.106559 -0.000121895 0)
(0.106503 -0.000141437 0)
(0.106523 -0.000134573 0)
(0.106461 -0.0001563 0)
(0.106483 -0.000148675 0)
(0.106415 -0.000172745 -1.46357e-25)
(0.106439 -0.000164321 0)
(0.106364 -0.00019089 0)
(0.10639 -0.000181598 0)
(0.106308 -0.000210888 0)
(0.106337 -0.000200648 0)
(0.106246 -0.000232938 1.55688e-25)
(0.106277 -0.000221643 0)
(0.106177 -0.00025733 8.3899e-30)
(0.106212 -0.00024482 0)
(0.1061 -0.000284501 3.23799e-25)
(0.106139 -0.000270539 0)
(0.106014 -0.000315004 0)
(0.106058 -0.000299299 0)
(0.105919 -0.000349441 0)
(0.105968 -0.000331687 0)
(0.105812 -0.000388541 5.34908e-30)
(0.105867 -0.000368392 0)
(0.105693 -0.000433534 0)
(0.105754 -0.000410173 0)
(0.105559 -0.000488538 -6.8639e-23)
(0.105628 -0.000459522 0)
(0.105457 -0.000451402 -8.04564e-25)
(0.105487 -0.000520408 1.16871e-22)
(0.105663 8.76155e-05 0)
(0.105584 0.000469778 2.65504e-22)
(0.105595 0.00015365 4.58358e-23)
(0.106795 3.93135e-05 -6.21113e-24)
(0.106801 3.71147e-05 0)
(0.106804 -3.57193e-05 6.00285e-24)
(0.106804 -4.11599e-05 -1.18971e-23)
(0.105664 -4.69109e-05 0)
(0.105603 -0.000118297 0)
(0.105535 0.000229089 0)
(0.105544 -0.000197185 -2.25356e-23)
(0.105486 -0.000283589 -4.55921e-23)
(0.10543 -0.000378024 0)
(0.105378 -0.000479858 1.17927e-22)
(0.10541 -0.000553274 -9.42443e-23)
(0.105661 1.98055e-05 0)
(0.10567 0.0005197 -2.20789e-26)
(0.105514 0.000487215 8.42385e-23)
(0.105536 0.000568348 -3.01377e-22)
(0.105605 0.000544513 8.74987e-23)
(0.105793 0.000465484 -2.86076e-23)
(0.105733 0.00049174 -4.54911e-23)
(0.105897 0.000416763 0)
(0.105847 0.000440467 0)
(0.105993 0.000372717 -8.32838e-26)
(0.105946 0.000394223 0)
(0.10608 0.000333245 0)
(0.106037 0.000352424 0)
(0.10616 0.000297987 0)
(0.106121 0.000315093 0)
(0.106232 0.000266999 0)
(0.106197 0.000281957 0)
(0.106297 0.000240122 -7.71018e-26)
(0.106265 0.000253076 0)
(0.106356 0.000216843 0)
(0.106327 0.000228076 0)
(0.106408 0.00019644 0)
(0.106383 0.000206333 0)
(0.106455 0.000178172 0)
(0.106432 0.000187081 0)
(0.106497 0.000161481 0)
(0.106477 0.000169654 0)