/*--------------------------------*- C++ -*----------------------------------*\
  =========                 |
  \\      /  F ield         | OpenFOAM: The Open Source CFD Toolbox
   \\    /   O peration     | Website:  https://openfoam.org
    \\  /    A nd           | Version:  10
     \\/     M anipulation  |
\*---------------------------------------------------------------------------*/
FoamFile
{
    format      ascii;
    class       surfaceScalarField;
    location    "38.5";
    object      phi;
}
// * * * * * * * * * * * * * * * * * * * * * * * * * * * * * * * * * * * * * //

dimensions      [0 3 -1 0 0 0 0];

internalField   nonuniform List<scalar> 
29080
(
0.0907076
-0.145246
-0.015296
0.0698348
0.0509664
0.0397413
0.0109151
0.0268284
-0.0240421
-0.0137013
0.0385386
0.00538658
-0.0330101
0.035327
-0.00159418
0.00480578
0.0315295
-0.0585001
0.0476118
-0.0206411
-0.0485158
0.0291494
0.0508958
0.0310639
0.00453997
-0.0426869
0.00708304
-0.0288252
0.0650093
-0.00512015
0.0110418
-0.103352
-0.0159766
0.0608287
-0.083835
0.0553371
0.0822474
0.0662708
-0.0174527
-0.107391
0.0377299
0.0652127
0.00444818
0.000806502
0.0344395
-0.0117082
-0.0209661
0.0500428
0.0265009
0.0535264
-0.0882888
0.00826149
0.020015
0.0748214
0.0204104
0.0635885
-0.00406313
0.00272719
0.000528742
-0.0061233
0.00286737
-0.0110782
-0.0203715
0.0341769
-0.00796088
-0.0041351
0.00101773
-0.0082713
0.00083916
-0.00492761
-0.009467
-0.069701
0.00603159
0.0040532
0.0596162
-0.0330531
-0.0486974
0.0120495
0.0425457
-0.0391708
-0.036428
0.00768225
-0.00328717
-0.00278399
-0.00161108
0.0050484
0.00263384
-0.00428388
0.00933228
0.0051281
-0.0126992
-0.00251343
0.00485754
-0.0242775
-0.00284177
0.0202448
0.00687445
0.00142628
-0.0189597
-0.00674407
0.0238949
0.00122596
-0.0236946
0.0153878
0.00566534
0.0159324
0.0197002
-0.0390725
0.0118311
0.0326994
-0.00545799
0.0248437
-0.0482779
-0.0156384
0.0214154
0.0119182
-0.00848982
0.0232442
0.0100023
0.0228031
0.0331405
0.0609651
0.00902722
-0.0365635
-0.0334288
0.00516749
0.0539731
0.00182455
-0.0313617
0.0283152
0.00821404
-0.0334399
0.0111054
-0.0580377
-0.00653367
0.0169624
0.0476089
-0.0663763
0.0143702
-0.0448108
0.0209801
0.0791895
0.0268616
-0.041004
-0.065047
-0.0272584
0.0231173
0.0833306
0.0630883
-0.106346
0.0709
-0.0276423
-0.0417938
0.0567797
0.0481024
-0.0190119
-0.000157907
0.0035402
0.0156296
0.0102256
-0.0153655
-0.013872
-0.00441939
0.00525855
-0.009347
-0.0628632
-0.0406278
0.00850018
0.0949909
-0.0293421
0.0254847
-0.0590058
0.0563737
-0.0598776
-0.0258381
0.0556865
-0.0399407
0.072044
-0.00785725
0.0854097
-0.0400429
-0.0453667
-0.0597963
0.0485848
0.0966212
-0.0281496
-0.0301549
0.0191337
-0.00431778
0.0177208
-0.0415526
0.0123893
-0.046862
0.00948624
0.00243192
0.0194885
0.000580544
0.0239078
0.0038268
-0.022356
0.0255093
0.00759088
-0.0107442
-0.0559792
-0.000217445
0.0338406
-0.00142555
0.0221767
-0.040884
0.0200898
-0.0427239
0.00419552
-0.0260056
0.0274754
-0.033951
-1.00419e-06
0.0381475
-0.026636
0.00185644
0.0410512
-0.0399896
-0.0020414
0.000979841
-0.000985264
-0.00108473
0.0431212
-0.0154437
0.0162617
0.0133283
-0.0141463
-0.00276744
-0.0286311
0.0159548
-0.0166495
0.0109003
0.0159748
0.0239205
-0.00993749
-0.0306325
0.0857694
-0.00751866
-0.0962785
0.0180278
-0.00673837
0.0591004
0.0334073
0.0601243
-0.0209012
0.0229981
-0.0622211
0.0591273
0.0210118
-0.0200148
-0.0215323
-0.0430455
0.0435035
0.0210743
-0.0443186
0.0456006
-0.0228143
0.0207866
0.0436548
-0.0434884
-0.020953
0.0426244
0.0191115
-0.0409493
-0.0239685
0.0471491
-0.0469746
0.023794
0.0461356
-0.0246549
-0.0454492
-0.0312108
0.0471874
-0.0462485
0.0302719
0.0465513
-0.0320773
-0.0456848
0.0319925
0.0908241
-0.130335
-0.0786444
0.0833785
-0.0110531
-0.0515004
0.00866181
0.0538917
-0.0487153
-0.0160679
0.0537301
0.0109119
-0.0115727
-0.0480545
0.00845448
-0.049043
-0.0524448
0.0061784
0.0520224
-0.00575599
0.00901105
-0.052794
-0.000667796
-0.0192246
0.00193067
0.0179617
-0.0113506
0.0107179
-3.51424e-05
0.00117549
-0.0122716
-0.000254476
0.00249282
-0.0205419
-0.0184268
-0.00298603
0.00245313
0.0108322
-0.0273284
0.0201767
0.0409178
-0.017945
-0.0431495
0.0224517
0.0578508
-0.0601258
0.00373188
0.0596376
-0.0087938
-0.0119232
0.0139729
-0.00305254
0.00497667
-0.0193332
-0.0409634
0.0172511
-0.038908
-0.0247438
-0.0371877
0.0125417
-0.014262
-0.00483945
-0.0238563
-0.00849189
0.038789
-0.0468168
0.00318833
0.0103673
-0.0220343
5.37394e-06
-0.00182737
-0.00665884
-0.0200893
0.00471381
0.0454344
-0.0455191
-0.00657416
-0.00137701
-0.0182522
-0.0126021
0.010765
-0.018139
-0.0165432
0.01643
0.0458424
-0.0463821
-0.0175993
-0.0122788
-0.0153095
-0.0222876
0.021054
-0.0257275
-0.0142784
0.0246964
0.0470425
-0.0477969
-0.0249731
-0.0216271
-0.0137836
-0.0274716
0.0269768
-0.0286324
-0.0134515
0.0283003
0.0485754
-0.0493434
-0.0278644
-0.0266932
-0.0135074
-0.0284799
0.0285358
-0.0284753
-0.013484
0.028452
0.0500245
-0.0505881
-0.0279117
-0.0277988
-0.0135471
-0.0279874
0.0280504
-0.0282496
-0.0133279
0.0280304
0.0509985
-0.0512661
-0.027982
-0.027577
-0.0130785
-0.0283282
0.0280788
-0.0291125
-0.0125598
0.0285939
0.0514089
-0.0514585
-0.0290629
-0.0281855
-0.0285568
-0.0295507
0.0455477
-0.0304229
-0.0316352
0.0335013
0.0514532
-0.0537159
-0.0281603
-0.029556
-0.039082
-0.0207582
0.028205
-0.0264041
-0.0406941
0.0280162
0.0466095
-0.0432663
-0.0297473
-0.0278646
-0.0420856
-0.0254755
0.026867
-0.0250234
-0.0400554
0.0229932
0.0424324
-0.0439829
-0.0234729
-0.0263093
0.0228241
-0.0241826
-0.0409877
0.0237564
-0.0254321
0.0233838
0.0455518
-0.025038
0.0452065
0.0179029
-0.0397792
0.0450145
-0.0425798
0.0209491
-0.0253284
0.046023
0.02432
-0.0272626
0.047486
0.0470594
-0.0468389
-0.0230349
0.0501329
-0.0281116
0.0428359
-0.0406527
0.0215733
-0.0410676
0.0408478
0.0270867
0.0247615
-0.039361
0.0382793
0.0292867
0.029503
-0.03417
0.0509183
0.0287994
0.0376106
-0.0510492
0.0511018
0.0280262
0.0284629
-0.0510648
0.05094
0.0281753
0.0280674
-0.05074
0.0504911
0.0287846
0.028652
-0.0502163
0.0498995
0.0272936
0.0285751
-0.0495185
0.0490588
0.0215137
0.0250774
-0.0486163
0.0483179
0.0110634
0.0168725
-0.0485134
0.0488051
-0.0021191
0.00451833
-0.0489961
0.0500189
-0.0152848
-0.00868288
-0.0215638
0.0298091
-0.0285888
0.0489126
0.047753
0.0401373
-0.0400892
0.017203
0.0186318
0.0400781
-0.0425927
0.00570292
0.0103562
0.0438236
-0.0441319
-0.00626586
-0.000146024
0.0445705
-0.04518
-0.0169898
-0.0118403
0.0458964
-0.0466995
-0.02417
-0.0209107
0.0475376
-0.0483915
-0.0270105
-0.0258551
0.0492104
-0.0499684
-0.0271538
-0.0269798
0.0506224
-0.0511706
-0.0274339
-0.026923
0.0516101
-0.0519535
-0.0287195
-0.0277459
0.052205
-0.0503726
-0.0299926
-0.0293045
0.0482638
-0.0491311
-0.0288799
-0.0299735
0.0480128
-0.0444891
-0.0269966
-0.0274276
-0.025017
0.0265696
-0.027211
0.0481274
0.0244682
0.0481243
0.0181515
-0.0409013
-0.0149042
0.0143667
-0.0404118
0.050988
-0.0502446
-0.0293322
0.0295035
0.0502594
-0.0287749
0.0288006
0.0496155
-0.0438439
-0.0145487
0.0409592
-0.0407451
0.0213592
-0.0416587
0.0405171
0.0282283
0.024062
-0.0421321
0.0416331
0.0297857
0.0278881
-0.0502557
0.0507497
0.0283055
0.028988
-0.0511138
0.0513703
0.0277697
0.0280988
-0.0515359
0.0516229
0.0280883
0.0279018
-0.0516546
0.0516457
0.0287936
0.0286203
-0.0515964
0.0514921
0.0273979
0.0286244
-0.0513548
0.0512308
0.0216377
0.0252147
-0.0511561
0.0510669
0.0111525
0.0169472
-0.0508389
0.0508093
-0.00208947
0.00474631
-0.0509103
0.0504454
-0.0148199
-0.0087839
-0.049328
0.0506752
-0.024382
-0.0204464
-0.0276809
0.0493427
-0.0457688
0.0238688
0.0463682
0.0442285
-0.0441988
0.0209194
0.0227797
0.044635
-0.0428583
0.0154263
0.019068
0.0430622
-0.0427382
0.0053789
0.0105601
0.0425633
-0.0427569
-0.00607228
-0.000320876
0.043208
-0.0438745
-0.0163232
-0.0113892
0.0446936
-0.0456622
-0.0232014
-0.0200916
0.046724
-0.047836
-0.0258985
-0.0247934
0.048893
-0.0498463
-0.0262005
-0.0259228
0.0506504
-0.0513379
-0.0267464
-0.0261188
0.0519356
-0.0524853
-0.0281699
-0.0271482
0.0529825
-0.0530176
-0.0299575
-0.0288073
0.0524331
-0.0513599
-0.0299532
-0.030558
0.0492424
-0.04577
-0.030469
-0.0295451
0.0460916
-0.0445436
-0.0225011
-0.0246953
-0.00627719
0.0052245
-0.0427912
0.045543
-0.0454016
-0.00641853
-0.0135493
-0.0397381
0.0171445
0.0135368
-0.0389493
0.00552601
-0.0407133
-0.0290883
0.0280246
0.0506792
0.00230978
-0.00291129
-0.0421897
0.00117709
-0.0442689
-0.0302643
0.0514354
0.0468728
-0.0455177
0.0225136
0.0518163
-0.0521758
-0.0289728
0.0524855
-0.0294441
-0.0241426
0.0478009
0.0232145
-0.0255828
0.0478085
-0.0130611
0.0120534
-0.0387304
-0.0404256
0.0402385
-0.0389857
0.0108006
-0.0416183
0.042443
0.0205345
0.0157648
-0.0434216
0.0456522
0.0259977
0.0230834
-0.0464985
0.0487743
0.02751
0.0270418
-0.04996
0.0506853
0.0275802
0.0278023
-0.0512754
0.0517448
0.0273003
0.0275086
-0.0521159
0.0524095
0.0277946
0.0275307
-0.0526619
0.0528937
0.0285618
0.028368
-0.0531102
0.0532987
0.0272093
0.0284079
-0.0534511
0.053542
0.0215468
0.0250623
-0.0535514
0.0534979
0.0112061
0.0169378
-0.0534958
0.0534731
-0.00206676
0.00474837
-0.0534931
0.0535595
-0.0148863
-0.00880394
-0.0532506
0.0526417
-0.0237732
-0.0201374
-0.027215
-0.0272807
0.0254078
0.0500004
0.0500866
0.0479492
0.0449006
-0.0450108
0.0210295
0.0221627
0.0439203
-0.0429413
0.0144473
0.0179775
0.0422446
-0.0418009
0.00493523
0.00986336
0.0416654
-0.0418525
-0.00588514
-0.000456398
0.0423164
-0.0430332
-0.0156064
-0.0109253
0.0439507
-0.0450459
-0.0221062
-0.0191741
0.046232
-0.0474509
-0.0246796
-0.0236072
0.0486066
-0.0496722
-0.0251349
-0.0247671
0.0506186
-0.0514841
-0.0258809
-0.0251724
0.0522854
-0.0530573
-0.027398
-0.0263469
0.0537864
-0.054463
-0.0292808
-0.0280783
0.0550467
-0.0540737
-0.0309262
-0.0299743
0.0527474
-0.0538631
-0.0293533
-0.0308714
0.0519296
-0.0512128
-0.0232178
-0.0266288
0.0490231
-0.0473849
-0.00805668
-0.015739
0.0464626
-0.00957093
-0.0459913
0.00909963
0.000254783
0.00598835
-0.0394117
0.00516641
-0.00566614
-0.0382307
-0.0375697
0.00375043
0.0245222
-0.0260201
0.0493063
0.0238025
0.0485206
-0.00269965
-0.0409249
-0.00979705
-0.0440428
-0.00983088
-0.0421558
0.016357
-0.0163781
-0.0440218
-0.0295678
0.0517889
0.0165013
-0.0401034
-0.00228664
0.00222396
-0.0375071
0.0375597
-0.0366765
-0.00316987
-0.0382192
0.0398951
0.00912469
0.00309095
-0.0413296
0.0430934
0.0187707
0.0143302
-0.044183
0.0460914
0.0240894
0.0219937
-0.047502
0.0487177
0.0262943
0.0256312
-0.0497766
0.0506821
0.0266747
0.0267433
-0.0514633
0.0521329
0.0266308
0.0267274
-0.0527197
0.0532487
0.0272657
0.0269438
-0.0537581
0.0542602
0.0280597
0.0278585
-0.0547518
0.055204
0.0267571
0.0279163
-0.0555941
0.0558948
0.0212461
0.0246722
-0.0560969
0.0561958
0.0111072
0.0167357
-0.0561933
0.0561407
-0.00201415
0.00475081
-0.0560507
0.0559342
-0.0147698
-0.00871389
-0.0556394
0.0554102
-0.0235439
-0.0198427
-0.054302
0.0532232
-0.0278939
-0.0261068
-0.0529811
0.0529044
-0.029491
-0.029202
0.029481
-0.0290705
0.0513784
-0.029158
0.0285913
0.0512458
0.0517585
-0.027871
0.0274091
0.0504623
0.0508069
0.0493382
-0.0472582
0.0227926
0.0482681
0.0467118
-0.0462923
0.0220942
0.0226681
0.0458024
-0.044605
0.0198321
0.0216727
0.043466
-0.0424689
0.0134503
0.0168385
0.0417167
-0.0412311
0.00444957
0.00911114
0.0410677
-0.0412308
-0.00572206
-0.000619708
0.0416879
-0.0424214
-0.014873
-0.0104682
0.04338
-0.0445421
-0.020944
-0.0182156
0.045823
-0.0471639
-0.0233387
-0.0223263
0.0484522
-0.0496495
-0.0239375
-0.0234789
0.0507202
-0.0517153
-0.0248857
-0.0241017
0.0526659
-0.0536204
-0.0264435
-0.0253963
0.0545639
-0.0554925
-0.0283522
-0.0271348
0.0563619
-0.0571337
-0.0301544
-0.0291049
0.0577264
-0.057023
-0.0300567
-0.0302787
0.0555375
-0.0547029
-0.0240525
-0.0281144
0.0522136
-0.050183
-0.0100873
-0.0182283
0.0481498
-0.0477543
0.00870408
-0.0017784
0.0158961
-0.028003
0.0518368
-0.00191893
-0.0401924
0.00220697
-0.0382137
-0.0093016
-0.0414542
0.00968558
-0.0368896
-0.00947242
0.00976135
-0.0375828
-0.0163249
-0.042209
0.0486434
-0.048095
0.0222442
-0.0231824
0.0489801
0.0228456
-0.0242197
0.0493055
-0.0247978
-0.0438788
0.0297655
-0.0297474
-0.0454674
0.0531992
-0.0549768
-0.0277134
0.0529497
-0.0277535
0.0293422
-0.0398153
-0.0146233
0.0157796
-0.0380459
0.0369891
-0.0376647
-0.0139477
-0.0364406
0.0367828
-0.00351206
-0.00892394
-0.037604
0.0388563
0.00787236
0.00226983
-0.0404253
0.0421877
0.0170084
0.0127612
-0.0439374
0.0455899
0.0224369
0.0202439
-0.0471141
0.0484676
0.0249408
0.0241071
-0.049671
0.0507311
0.0256145
0.0255399
-0.0516799
0.0525338
0.0257768
0.0257787
-0.0533304
0.0540938
0.0265023
0.0261473
-0.054855
0.0556142
0.0273005
0.0270973
-0.0563638
0.057072
0.0260489
0.0271667
-0.0577088
0.0582279
0.020727
0.0240354
-0.0585967
0.0587956
0.0109084
0.0163669
-0.0588407
0.0587648
-0.00193817
0.00470565
-0.0585933
0.0583389
-0.0145154
-0.00854243
-0.0580006
0.0575615
-0.0231048
-0.0195044
-0.0570351
0.0562146
-0.0270734
-0.0255804
-0.0279642
-0.0272367
0.0275283
0.0510868
0.0267095
-0.025337
0.0515772
0.0513096
-0.0278079
0.0278382
0.0512155
0.0514789
-0.0275469
0.027299
0.0507102
0.0510983
-0.0265065
0.0256649
0.050148
0.0501307
0.0499658
0.04681
-0.0468652
0.0221494
0.0213831
0.0456387
-0.0444014
0.0185948
0.0204462
0.0432457
-0.0422339
0.0124384
0.0156828
0.0414542
-0.0409433
0.00393859
0.00833153
0.040752
-0.0408827
-0.00559142
-0.000810931
0.0413241
-0.0420672
-0.0141299
-0.0100268
0.0430724
-0.0443099
-0.0197065
-0.0172104
0.0456761
-0.0470945
-0.0219204
-0.0209601
0.0484461
-0.0497067
-0.0226769
-0.0221273
0.0508603
-0.0519702
-0.0237758
-0.0229482
0.0530608
-0.0541757
-0.0253286
-0.0243056
0.0553008
-0.0564491
-0.0272039
-0.0260097
0.0575811
-0.0586685
-0.029067
-0.0279728
0.0596169
-0.0603314
-0.0293422
-0.0293304
0.0606875
-0.0604097
-0.0243303
-0.0277583
0.0593624
-0.0574764
-0.0119733
-0.0192756
0.0557981
-0.0527154
0.00562138
-0.00345671
0.0509226
-0.0486847
0.021556
0.0141033
0.0278449
-0.00941923
-0.0400747
0.0101252
-0.0385776
0.0233521
-0.0247439
0.0506973
0.0219673
0.0503649
-0.0165062
-0.041273
0.0161606
-0.0379639
-0.0233275
-0.0436792
0.0190823
-0.0395204
-0.0172266
0.0203165
-0.0392801
-0.028914
-0.0447122
-0.0324166
-0.0451281
0.0520798
-0.0508632
-0.0265535
0.0326637
-0.0324301
-0.0459184
-0.0457494
0.0321647
-0.0259271
0.026468
0.0510363
0.0514313
-0.0252786
-0.0391093
-0.0204271
0.0221738
-0.0412671
0.0394343
-0.0416079
-0.0182535
-0.0378986
0.0368413
-0.0128905
-0.0156908
-0.0365192
0.036764
-0.00375686
-0.00860186
-0.0376509
0.0387246
0.00679868
0.00138298
-0.0400593
0.0418019
0.0152658
0.0114264
-0.0435669
0.0452616
0.0207422
0.0184789
-0.0468572
0.0483126
0.0234854
0.0225115
-0.0496392
0.0508355
0.0244182
0.0242133
-0.0519316
0.0529449
0.0247634
0.0246826
-0.0539191
0.0548803
0.0255411
0.0251731
-0.055859
0.0568494
0.0263101
0.0261186
-0.0578399
0.0587867
0.0251022
0.0261762
-0.0596462
0.060357
0.0200162
0.0231758
-0.0608821
0.0611972
0.0105933
0.0158418
-0.0613095
0.0612416
-0.00187022
0.00459334
-0.0610131
0.0606354
-0.0141377
-0.00831395
-0.0601106
0.0594459
-0.02244
-0.0189796
-0.0585165
0.0572657
-0.0258225
-0.0246511
-0.0556945
0.0545981
-0.026617
-0.0263931
-0.0240186
-0.0266159
0.026985
0.0507176
0.0511617
-0.0270279
0.0272385
0.0510049
0.051436
-0.0272883
0.0271637
0.0508348
0.0510484
-0.0262019
0.0252798
0.0510701
0.0510925
0.0505016
-0.0503697
0.0220881
0.0502489
0.0488618
-0.0478153
0.0211977
0.0213377
0.0481327
-0.0468911
0.0209078
0.0217005
0.04563
-0.0443776
0.0173424
0.0191852
0.0432183
-0.0422016
0.0114217
0.0145234
0.0414106
-0.0408824
0.00341038
0.00754058
0.0406632
-0.0407648
-0.00548984
-0.0010301
0.0411897
-0.0419402
-0.0133794
-0.00960182
0.0429757
-0.0442591
-0.0184231
-0.0161749
0.0456743
-0.0471383
-0.0204564
-0.0195449
0.0485334
-0.0498444
-0.0213659
-0.0207322
0.0510626
-0.0522575
-0.0225809
-0.0217299
0.0534529
-0.0546941
-0.0240874
-0.0231103
0.0559692
-0.0573024
-0.0258707
-0.0247346
0.0586625
-0.0600335
-0.0276959
-0.0266128
0.0613143
-0.0624065
-0.02825
-0.0280496
0.0631597
-0.0627864
-0.0247036
-0.027005
0.0618257
-0.0604582
-0.0133408
-0.0202362
0.0582124
-0.0555932
0.00300226
-0.00570259
0.0532324
-0.0497309
0.0180545
0.0117425
0.0481138
-0.0476956
0.0298536
0.0262279
0.0324524
-0.0337043
-0.0444975
0.0471016
-0.0463602
0.031711
0.0315707
-0.016088
-0.0404929
0.01602
-0.0384369
-0.0226558
-0.0419447
0.0217664
-0.0394138
-0.0287009
-0.0438924
0.0236854
-0.0407917
-0.0318227
-0.0453061
0.0211313
-0.0430221
-0.0197171
0.0236288
-0.0437646
-0.0333584
-0.0441998
-0.0353497
-0.044273
-0.0307789
-0.0457666
0.0301853
-0.0332127
-0.0420637
0.053309
-0.0556505
-0.024212
0.0192386
-0.0352079
-0.0297974
0.0515235
-0.0496605
0.0202252
-0.0250381
0.0255964
0.0504781
-0.0247584
0.0511516
-0.0213708
0.0519875
0.0209068
-0.0226964
0.0515745
0.0475994
0.0219545
-0.0503153
0.0521843
-0.0241539
-0.0391774
-0.0206058
0.0231652
-0.0455815
0.0441646
-0.0457795
-0.0189909
-0.0418879
0.0401824
-0.0165479
-0.0174404
-0.0381737
0.0370895
-0.0118063
-0.0136821
-0.036541
0.0365419
-0.00375774
-0.00805334
-0.0370483
0.0383307
0.00551637
0.000876498
-0.0398887
0.0415934
0.0135611
0.00986836
-0.043353
0.0450706
0.0190245
0.0167193
-0.0467168
0.0482498
0.0219524
0.0208653
-0.0496751
0.0509826
0.0231106
0.022788
-0.0521988
0.0533402
0.0236219
0.0234665
-0.0544557
0.0555749
0.024422
0.0240576
-0.0567298
0.0579112
0.0251288
0.0249637
-0.0591022
0.060248
0.0239563
0.0249851
-0.0613002
0.0621923
0.0191241
0.0221237
-0.0628762
0.063313
0.0101565
0.0151579
-0.0635028
0.0634586
-0.00182597
0.00440353
-0.0631942
0.0627213
-0.0136647
-0.00804963
-0.0620484
0.0611972
-0.0215888
-0.0183068
-0.0601935
0.0589259
-0.0245549
-0.0236474
-0.0572594
0.0550088
-0.0243664
-0.0247266
-0.0246603
-0.0257793
0.0260936
0.0504033
0.0509788
-0.0266133
0.0269601
0.0506581
0.0509164
-0.027131
0.0271248
0.050841
0.0508775
-0.0269411
0.0265842
0.051427
0.0512761
-0.025038
0.0234146
0.0523207
0.0520478
0.0510832
0.0492257
-0.0495097
0.0214817
0.0209029
0.0482978
-0.0470216
0.0196316
0.0204886
0.0457498
-0.0444957
0.0160883
0.0179134
0.0433424
-0.0423283
0.0104076
0.0133701
0.0415326
-0.0409896
0.00286741
0.0067449
0.0407473
-0.0408274
-0.00540972
-0.00127243
0.0412441
-0.0420059
-0.0126176
-0.00918521
0.0430706
-0.0443896
-0.0171041
-0.0151101
0.0458322
-0.0473095
-0.0189791
-0.0181024
0.0487111
-0.0500385
-0.0200385
-0.0193306
0.0512959
-0.0525546
-0.0213222
-0.0204725
0.05383
-0.055165
-0.0227524
-0.0218349
0.0565508
-0.0580245
-0.0243971
-0.0233488
0.0595635
-0.0611657
-0.0260938
-0.0250738
0.0627336
-0.0641708
-0.0268128
-0.0264816
0.0652879
-0.0659114
-0.0240801
-0.0258879
0.0659034
-0.0643796
-0.0148646
-0.0202442
0.0624228
-0.0598822
0.000461618
-0.00765933
0.0567889
-0.0557521
0.0170178
0.00864913
0.0522207
-0.0489277
0.0265606
0.0226964
0.0475056
-0.0467729
0.0309783
0.0301486
0.0310118
-0.0224175
-0.0407313
0.0219041
-0.0385745
0.0223536
-0.0242315
0.0534523
0.0210489
0.0532923
0.0443414
-0.0473179
0.0249311
-0.0280471
-0.0425985
0.024793
-0.0405214
-0.0318214
-0.0438936
0.0256481
-0.0428111
-0.0335618
-0.0451027
0.0244028
-0.0450022
-0.033956
-0.0455935
0.0213629
-0.047202
-0.0199404
0.0229686
-0.0471871
-0.0336724
-0.0438133
-0.0340434
-0.0432282
-0.0360955
-0.0440171
-0.0232575
0.0506834
-0.0396908
-0.0206525
-0.0491931
0.0226436
0.0485252
-0.0502118
-0.0189659
-0.0461857
0.0441271
-0.0169323
-0.0176009
-0.0419161
0.0394736
-0.0141054
-0.0152294
-0.0382123
0.0367784
-0.0103724
-0.0124209
-0.036316
0.0364942
-0.00393601
-0.00759093
-0.0372284
0.0383969
0.00434785
0.000142377
-0.0398757
0.041526
0.0119107
0.00838958
-0.0432621
0.0449876
0.017299
0.0149833
-0.0466687
0.0482585
0.0203625
0.0191843
-0.0497573
0.051149
0.021719
0.0212893
-0.0524578
0.0536997
0.02238
0.0221577
-0.0549251
0.0561637
0.0231833
0.0228323
-0.0574494
0.0587721
0.0238061
0.0236779
-0.0601152
0.0614227
0.0226488
0.023642
-0.0626398
0.0636872
0.0180767
0.0209065
-0.0645117
0.06507
0.00959817
0.0143334
-0.0653421
0.0653457
-0.00182958
0.0041314
-0.0650781
0.0645426
-0.0131292
-0.00778202
-0.0637473
0.0627269
-0.0205684
-0.0175115
-0.061536
0.0602411
-0.02326
-0.0224565
-0.0588931
0.057544
-0.0230174
-0.0233786
-0.0557171
0.0538861
-0.022381
-0.0228334
-0.0525383
0.0512086
-0.0219278
-0.0228061
0.0230951
-0.0222713
0.0498595
-0.0238738
0.0244732
0.0498787
0.0503729
-0.0254435
0.0257293
0.0501175
0.0500085
-0.0263624
0.0268281
0.0501925
0.0502833
-0.0271175
0.0272224
0.050736
0.0505881
-0.0271408
0.0268719
0.051696
0.0513577
-0.0264137
0.0257757
0.0529587
0.0525061
0.0526273
-0.0524522
0.0197914
0.0537096
0.0519172
-0.0518347
0.0201426
0.0203718
0.0509827
-0.0497705
0.0202696
0.0200508
0.0485243
-0.0472372
0.0183444
0.0192423
0.0459644
-0.0447185
0.0148423
0.0166407
0.0435766
-0.0425699
0.00940092
0.0122282
0.0417735
-0.0412206
0.00231451
0.00594844
0.0409647
-0.0410361
-0.00533827
-0.00152832
0.0414579
-0.0422404
-0.0118351
-0.00876337
0.0433321
-0.044669
-0.0157671
-0.0140185
0.0461096
-0.0475676
-0.0175211
-0.0166618
0.0489483
-0.0502705
-0.0187163
-0.0179499
0.0515466
-0.0528443
-0.0200245
-0.0191964
0.0541707
-0.0555664
-0.0213566
-0.0205085
0.0570251
-0.058592
-0.0228302
-0.0218901
0.0602526
-0.0620203
-0.0243261
-0.0234132
0.0638115
-0.0655437
-0.0250805
-0.0246905
0.0670159
-0.068033
-0.023063
-0.0244157
0.0683688
-0.0678877
-0.0153457
-0.0199085
0.0666095
-0.0646329
-0.00151493
-0.00893752
0.0622575
-0.0587981
0.0135584
0.00627375
0.0555248
-0.0537259
0.0247617
0.0194231
0.0509591
-0.0474348
0.027454
0.0273819
0.0279184
-0.0208966
0.0498339
-0.0270062
-0.0417721
0.0260473
-0.0398289
0.0209642
-0.051586
-0.01959
-0.051318
0.0230891
-0.030643
-0.0437769
0.0267789
-0.0416522
-0.0326995
-0.0447559
0.0260698
-0.044478
-0.0340235
-0.0450352
0.0246024
-0.046636
-0.0337113
-0.0455547
0.0240916
-0.0486351
-0.0329778
-0.0448789
-0.0334168
-0.0459068
-0.0301729
-0.0431943
0.0260493
-0.030376
-0.0438141
0.0270951
-0.0258802
-0.0444093
0.0513471
-0.0530768
-0.020198
0.0539963
-0.0527811
0.0185762
-0.0204799
0.0552467
0.0192295
0.0500586
-0.0196082
-0.0219243
0.0551541
-0.0406497
-0.0208927
0.0224113
-0.0531046
0.0520312
-0.0534164
-0.0195075
-0.0500613
0.0486112
-0.0175158
-0.0176201
-0.0467163
0.0448998
-0.0151158
-0.015706
-0.0427786
0.0406125
-0.0119393
-0.0131082
-0.0389998
0.0377546
-0.00912724
-0.0108082
-0.037075
0.037041
-0.00390207
-0.00691127
-0.0375977
0.0386244
0.00332123
-0.000414321
-0.0399969
0.0415747
0.0103329
0.007017
-0.0432706
0.0449872
0.0155824
0.0132874
-0.046685
0.0483111
0.0187364
0.0174864
-0.0498605
0.0513128
0.0202667
0.0197399
-0.0526906
0.0540077
0.0210629
0.0207799
-0.0553132
0.0566351
0.0218614
0.0215268
-0.0580094
0.0594297
0.0223859
0.0223036
-0.0608821
0.0623096
0.0212213
0.0221896
-0.0636518
0.064825
0.0169034
0.0195643
-0.0657673
0.0664255
0.00893991
0.0133912
-0.0668021
0.066867
-0.00189454
0.00375487
-0.0666179
0.0660422
-0.0125535
-0.00753288
-0.0651517
0.0639954
-0.0194121
-0.016621
-0.0626503
0.0611982
-0.0218078
-0.0211114
-0.0597195
0.0582528
-0.0215506
-0.0219
-0.0565516
0.0546809
-0.0205104
-0.0211322
-0.0212019
-0.052821
0.0239142
-0.0214025
0.023393
-0.0550951
-0.0552299
-0.0195889
-0.0209002
0.021961
0.0487988
0.0201408
-0.0189878
0.0489057
0.0490744
-0.0230805
0.0240523
0.0489068
0.0492534
-0.0246177
0.0254881
0.0492472
0.0494431
-0.026222
0.0267929
0.0496215
0.0495494
-0.0271871
0.0273883
0.0505347
0.050194
-0.0273916
0.0271936
0.051894
0.0513545
-0.0267939
0.0262066
0.053546
0.0529057
-0.0248451
0.0232907
0.0550068
0.0539887
0.0546587
0.0524414
-0.0519049
0.0196061
0.0200321
0.0512993
-0.0500554
0.0190257
0.0194453
0.0487982
-0.0475082
0.0170544
0.0179851
0.0462426
-0.04501
0.0136097
0.0153752
0.0438823
-0.0428858
0.00840438
0.0111005
0.0420929
-0.041539
0.00176058
0.00515563
0.0412838
-0.0413656
-0.00525651
-0.0017835
0.0418103
-0.0426229
-0.0110226
-0.00831862
0.0437361
-0.045071
-0.0144323
-0.0129053
0.0464805
-0.0478894
-0.0161121
-0.0152523
0.0492254
-0.0505235
-0.0174182
-0.0166139
0.0518
-0.0531144
-0.0187101
-0.0179199
0.0544651
-0.055891
-0.0199308
-0.0191577
0.0573878
-0.0590049
-0.0212131
-0.0203932
0.0607318
-0.0625938
-0.0224641
-0.0216863
0.0645249
-0.0664686
-0.0231369
-0.0227593
0.0682375
-0.0696332
-0.0216674
-0.0226468
0.0703758
-0.0702651
-0.0154565
-0.0191658
0.0692237
-0.0673256
-0.00341304
-0.00997891
0.0648077
-0.0619281
0.0106788
0.00375587
0.0589665
-0.0552752
0.0210703
0.0164615
0.0517116
-0.049718
0.0254604
0.0238183
0.046582
-0.0457224
0.0240714
0.0247824
0.0430675
-0.039931
0.0239586
0.0233944
-0.0410111
-0.0255974
0.0266775
0.0116277
-0.014614
-0.0380248
-0.0354928
0.021523
-0.0296677
-0.0427474
0.0283649
-0.0414149
0.0202248
-0.0225218
0.0574511
0.0192526
0.0562189
-0.0318383
-0.0446381
0.0274402
-0.0430226
-0.0327188
-0.0460606
0.0257493
-0.0456249
-0.0327329
-0.0460136
0.025275
-0.0478195
-0.0330513
-0.0454811
0.0250153
-0.0505613
-0.0321459
-0.0461499
-0.0305705
-0.0457123
-0.026944
-0.0427503
-0.0218897
-0.0371336
-0.0542907
0.0248627
0.0222952
-0.0571572
-0.0203679
0.0240893
-0.0568892
-0.0212403
0.0230244
-0.0589413
0.0497157
-0.0501648
-0.0185387
0.0176214
-0.0200179
-0.0356282
-0.018697
0.0193563
0.0482463
-0.0318167
0.0139453
-0.0171985
0.0482173
-0.0419525
-0.0570738
0.0552339
-0.018528
-0.0191869
-0.0536154
0.0514658
-0.0173579
-0.0179704
-0.0503489
0.0486273
-0.0157942
-0.0165032
-0.0469868
0.0447134
-0.0128424
-0.0140656
-0.043323
0.0418206
-0.0104369
-0.0117178
-0.0402954
0.0389853
-0.00781715
-0.009283
-0.0381128
0.0378343
-0.00362359
-0.00603873
-0.0381617
0.039002
0.00248085
-0.000741691
-0.0402372
0.0417218
0.00884827
0.00578189
-0.0433604
0.0450502
0.0138926
0.0116488
-0.0467453
0.0483869
0.0170948
0.0157913
-0.0499654
0.0514563
0.0187758
0.0181615
-0.0528799
0.0542472
0.0196956
0.0193563
-0.0556046
0.0569788
0.0204873
0.0201693
-0.0584085
0.0598891
0.0209053
0.0208739
-0.0614122
0.0629182
0.0197154
0.0206665
-0.0643456
0.0656061
0.0156429
0.0181369
-0.0666359
0.0673988
0.00817705
0.0123614
-0.0678678
0.068014
-0.00204076
0.00328582
-0.0678011
0.0672053
-0.0119577
-0.00731998
-0.0662418
0.0649791
-0.0181494
-0.0156575
-0.0635131
0.0619477
-0.0202424
-0.0196454
-0.0603681
0.0588207
-0.0200032
-0.0203204
-0.0572394
0.0559381
-0.0192091
-0.0195509
-0.0536106
0.0521901
-0.0187775
-0.0188744
-0.0175829
-0.0205657
0.021435
0.0479295
0.0478651
-0.0225296
0.0232282
0.0482083
0.0481588
-0.0242896
0.0252363
0.0483004
0.0483817
-0.0260506
0.026706
0.0489662
0.0487351
-0.0271853
0.0274671
0.0502529
0.0497146
-0.0275427
0.0274063
0.0520304
0.0512789
-0.0270558
0.0265013
0.0541005
0.0532562
-0.0251052
0.0239483
0.0561636
0.0553849
0.0560852
-0.0551088
0.0172425
0.0571189
0.0550229
-0.0549857
0.0185391
0.0191436
0.0534922
-0.0528375
0.0189514
0.0185385
0.0516144
-0.050355
0.0177663
0.0182221
0.0490934
-0.0478085
0.0157695
0.0167235
0.0465548
-0.0453377
0.0123926
0.0141214
0.0442254
-0.0432421
0.00742113
0.00998821
0.0424604
-0.0419196
0.00121982
0.00437389
0.0416855
-0.0418006
-0.00514134
-0.00201764
0.0422866
-0.0431349
-0.0101743
-0.00783262
0.0442584
-0.0455658
-0.0131248
-0.0117818
0.0469154
-0.0482513
-0.0147762
-0.0139027
0.0495262
-0.0507865
-0.0161579
-0.015339
0.0520461
-0.0533536
-0.0174025
-0.0166604
0.0547008
-0.0561256
-0.018506
-0.0178106
0.0576258
-0.0592518
-0.0195871
-0.018893
0.060995
-0.0628884
-0.0205707
-0.0199431
0.064881
-0.0669414
-0.0210765
-0.0207667
0.0689101
-0.0706138
-0.0199637
-0.020678
0.0717607
-0.0720982
-0.0151189
-0.0180189
0.0714413
-0.0697749
-0.00507944
-0.0106358
0.067306
-0.0642958
0.00766853
0.00128697
0.0610649
-0.0577925
0.0177979
0.0132307
0.05469
-0.051783
0.0225533
0.0207158
0.0493979
-0.047246
0.0219195
0.0223974
0.046004
-0.0429517
0.0209063
0.0221523
0.0374295
-0.0342116
0.0183051
0.0211554
0.0200881
-0.0176491
-0.0342557
0.0346117
-0.0225777
0.00805405
0.0143454
-0.0306472
-0.0439385
0.0291604
-0.0431351
-0.0318171
-0.0455399
0.027524
-0.0447974
-0.032241
-0.0465524
0.0261902
-0.0465401
-0.032221
-0.0468439
0.0255597
-0.0483639
-0.031868
-0.0457589
0.0250242
-0.0516713
-0.0315817
-0.0451387
-0.0292354
-0.0434208
-0.0255699
-0.0390701
-0.0216904
-0.0354612
-0.0191063
-0.0341709
-0.0166693
0.0334285
-0.0393368
-0.014611
-0.0363141
0.0616389
-0.0195937
-0.0634406
0.0213954
-0.0562388
0.0260374
0.0248617
-0.0587265
0.0236927
-0.0616222
-0.0179708
0.0191455
0.0470716
0.0496403
-0.0515399
-0.0166391
0.0571914
-0.0565551
0.0166062
-0.0176338
0.0576965
0.0171287
-0.0193923
0.0588774
0.0490895
-0.0166477
-0.0173815
0.047628
-0.0434392
-0.0599719
0.0584421
-0.018485
-0.0192342
-0.0569357
0.0552097
-0.016802
-0.0176805
-0.0535405
0.0519175
-0.0157349
-0.0163012
-0.0499975
0.0478685
-0.0136651
-0.0145832
-0.0466297
0.0454472
-0.0116599
-0.0128268
-0.0442542
0.0429993
-0.0091819
-0.0105248
-0.0416694
0.0404111
-0.00655881
-0.00795314
-0.039421
0.0389073
-0.00310984
-0.00504869
-0.0389578
0.0395528
0.0018859
-0.000792218
-0.0405975
0.0419518
0.00749394
0.00473718
-0.0435085
0.0451531
0.012248
0.0100921
-0.0468288
0.0484688
0.0154548
0.0141156
-0.0500576
0.0515668
0.0172665
0.0165727
-0.0530142
0.0544079
0.0183019
0.0179089
-0.0557926
0.0571936
0.0190862
0.0187847
-0.0586503
0.0601617
0.0193939
0.0194172
-0.0617206
0.0632681
0.0181679
0.0191075
-0.064739
0.0660485
0.0143334
0.0166659
-0.0671508
0.0680065
0.00732135
0.011259
-0.0685797
0.0688143
-0.00227541
0.00271269
-0.068642
0.0680302
-0.0113459
-0.00714764
-0.0670062
0.0656614
-0.0168046
-0.0146335
-0.0641114
0.0624746
-0.0186056
-0.0180955
-0.0608369
0.0592529
-0.0184192
-0.0186827
-0.0577446
0.0560934
-0.017558
-0.0180425
-0.0542959
0.052456
-0.0169375
-0.017077
-0.0166669
-0.0197944
0.0206559
0.047068
0.0472162
-0.0215076
0.022682
0.0470339
0.047307
-0.0237828
0.0247764
0.0473068
0.0472809
-0.0256468
0.0263646
0.0482483
0.0478647
-0.0269119
0.0272633
0.0499016
0.0491674
-0.0274057
0.027329
0.0521071
0.0511365
-0.027028
0.0265083
0.0546202
0.0535571
-0.0257741
0.0248552
0.0570825
0.0561191
-0.0225116
0.0218685
0.0580942
0.0584289
0.0586951
0.055609
-0.0549738
0.0179039
0.0181975
0.05439
-0.0531448
0.0177062
0.0179547
0.0519083
-0.0506483
0.0165062
0.0169857
0.0493889
-0.0481143