/*--------------------------------*- C++ -*----------------------------------*\
  =========                 |
  \\      /  F ield         | OpenFOAM: The Open Source CFD Toolbox
   \\    /   O peration     | Website:  https://openfoam.org
    \\  /    A nd           | Version:  10
     \\/     M anipulation  |
\*---------------------------------------------------------------------------*/
FoamFile
{
    format      ascii;
    class       volVectorField;
    location    "38.5";
    object      U;
}
// * * * * * * * * * * * * * * * * * * * * * * * * * * * * * * * * * * * * * //

dimensions      [0 1 -1 0 0 0 0];

internalField   nonuniform List<vector> 
14667
(
(1.03724 0.0669583 -1.33732e-19)
(0.88701 0.0445596 -5.76309e-20)
(0.519895 0.023161 -3.35264e-22)
(0.636649 0.0194592 1.91427e-22)
(0.621239 0.0209561 5.59238e-23)
(0.99019 -0.0897989 -3.29521e-20)
(1.03219 -0.0828049 7.27373e-20)
(0.408333 0.0348169 -7.73269e-22)
(0.491104 0.0249328 0)
(0.606354 0.0239691 6.48121e-23)
(1.0369 -0.0671423 -3.08738e-20)
(1.02564 -0.0395527 1.66104e-20)
(0.986133 -0.023107 -4.05204e-20)
(0.885868 -0.0752389 1.20193e-19)
(0.454522 0.021514 -8.09654e-22)
(1.01854 -0.0313125 0)
(1.01895 -0.0293994 0)
(0.561183 0.00897143 -9.49956e-22)
(0.334875 0.0131861 0)
(1.03981 -0.0590197 0)
(1.05565 0.0857455 -1.01442e-19)
(0.885689 -0.00320561 7.02043e-20)
(0.997494 0.0160072 0)
(1.0013 0.0408686 5.5298e-21)
(-0.0312391 -0.122354 6.4639e-20)
(0.388855 -0.107564 2.17269e-19)
(-0.0538157 -0.0471479 6.79076e-20)
(-0.160059 -0.122256 -2.6546e-19)
(-0.131936 -0.147575 4.81157e-21)
(0.809887 0.0588558 1.59125e-20)
(0.862708 0.034427 -1.49543e-21)
(0.87592 0.00863984 -4.48382e-20)
(-0.0126903 -0.116879 1.9478e-20)
(-0.0572202 -0.085895 1.03871e-19)
(-0.179801 -0.0388021 1.22001e-19)
(0.0833659 -0.0492822 -1.82662e-19)
(0.124305 -0.0276308 -2.55456e-21)
(0.435183 -0.0524416 1.76203e-21)
(0.43187 -0.032196 2.99744e-22)
(0.557315 -0.0215908 -3.08081e-22)
(0.54579 -0.0169012 0)
(0.444427 0.00745172 -1.48949e-20)
(0.553205 -0.241919 5.2048e-19)
(0.61431 -0.125309 -1.70722e-19)
(0.438552 -0.0980849 -1.19577e-19)
(0.353817 -0.308383 8.02784e-20)
(0.590494 -0.478018 -1.00008e-20)
(0.915759 -0.0726536 -3.7205e-21)
(0.909072 -0.0535298 4.69454e-21)
(0.506996 -0.133322 0)
(0.58638 -0.153631 0)
(0.739656 -0.00562056 0)
(0.797104 -0.0201228 0)
(0.854818 -0.0157177 -7.86236e-20)
(1.41997 -0.242523 2.0829e-20)
(1.46332 -0.209885 1.32381e-20)
(1.36973 0.106184 4.73173e-20)
(1.3922 0.0909974 2.66015e-20)
(0.0618786 -0.339763 -2.61736e-20)
(0.337914 -0.294282 2.40013e-20)
(-0.0927079 -0.0697109 2.0072e-19)
(-0.0453108 -0.108652 0)
(1.02183 -0.502108 -4.38654e-21)
(1.02917 -0.41429 -5.56917e-20)
(0.952413 -0.369467 -4.86864e-21)
(0.888818 -0.668398 -8.7753e-21)
(0.977347 -0.581464 4.51546e-20)
(0.480034 0.655663 5.67081e-20)
(0.798564 0.690933 -2.04294e-20)
(0.90546 0.0179157 3.97507e-20)
(0.923561 0.00357593 -3.69653e-20)
(0.927622 0.0278655 -4.01484e-20)
(0.147368 -0.0541307 0)
(0.149161 -0.291664 3.99068e-20)
(0.437339 -0.0831331 -3.29708e-21)
(0.603676 0.0241453 -7.764e-21)
(0.832134 0.0134438 2.0973e-20)
(0.79432 -0.0195452 -8.25848e-21)
(0.913848 -0.0145948 2.11298e-19)
(0.899168 -0.0462178 3.40906e-22)
(0.64028 -0.0139986 -1.06695e-21)
(0.72145 -0.0141104 0)
(0.649655 -0.0172955 2.48764e-21)
(0.844236 0.0166559 8.26572e-23)
(0.842788 0.0178697 0)
(0.167197 -0.342818 0)
(0.0422227 -0.371699 -1.38085e-19)
(0.276904 -0.271357 8.211e-21)
(0.620931 -0.215802 -3.76021e-20)
(1.1645 -0.153988 -3.99596e-20)
(1.38861 -0.157361 5.49951e-20)
(1.18239 -0.408426 2.55973e-22)
(1.14383 -0.399403 -2.96747e-22)
(0.938002 -0.426761 8.98424e-21)
(0.963811 -0.444913 -4.56842e-21)
(0.998224 0.456752 1.28786e-20)
(0.953235 0.442833 9.22426e-21)
(1.02638 -0.432339 3.15024e-21)
(0.980472 -0.447844 -7.1865e-21)
(1.01604 -0.60342 5.71295e-21)
(0.988497 -0.617904 -2.58976e-21)
(1.54484 -0.295083 7.05671e-21)
(1.51679 -0.216341 3.90951e-20)
(0.934672 0.108959 7.04795e-21)
(0.913888 0.0840078 -2.46886e-20)
(0.940146 0.0698544 3.23592e-21)
(0.959704 0.0912903 3.10053e-21)
(0.961855 0.146718 2.12279e-20)
(0.953609 0.122425 4.59865e-22)
(0.372441 -0.0153628 2.50884e-22)
(0.228831 -0.00973484 -9.5755e-23)
(0.247045 -0.00511311 -3.93215e-22)
(0.392562 -0.0096814 0)
(0.4837 -0.023917 1.77481e-22)
(0.497685 -0.0168056 -6.5016e-23)
(1.24218 -0.0698164 -3.38816e-21)
(1.26687 -0.0781814 1.12836e-20)
(1.25037 -0.0654896 0)
(0.336048 -0.032567 -3.34528e-22)
(0.258784 -0.0301333 -1.76086e-22)
(0.383484 -0.0242251 1.06057e-22)
(0.923149 -0.347303 -4.14161e-21)
(0.95015 -0.36755 2.40061e-20)
(0.935099 -0.260768 -1.24579e-20)
(0.931139 -0.143198 1.73622e-20)
(0.909912 -0.114674 0)
(0.912053 -0.242115 2.57902e-21)
(0.93204 -0.0128269 -4.87563e-20)
(0.935636 0.109075 2.44685e-20)
(0.903549 0.152741 0)
(0.906916 0.0178176 0)
(0.940888 0.224496 0)
(0.945115 0.329804 -1.96458e-20)
(0.916074 0.378742 0)
(0.9082 0.272437 0)
(0.953102 0.415736 1.97392e-20)
(0.962148 0.481832 0)
(0.942423 0.52431 0)
(0.928548 0.46379 0)
(0.972594 0.525942 -1.35964e-20)
(0.983176 0.549921 1.34966e-20)
(0.973688 0.569906 0)
(0.958036 0.558417 0)
(0.993656 0.557455 0)
(1.00297 0.556083 9.8386e-21)
(1.00122 0.559121 2.43107e-24)
(0.988547 0.566866 0)
(1.01042 0.553035 -9.90241e-21)
(1.01555 0.553706 0)
(1.0179 0.556799 0)
(1.01109 0.554562 0)
(1.01821 0.559897 8.81137e-24)
(1.0186 0.570593 0)
(1.02354 0.577465 0)
(1.02185 0.565367 0)
(1.01585 0.585285 1.40336e-20)
(1.01124 0.598451 -1.23622e-20)
(1.0231 0.603091 -1.38662e-21)
(1.02398 0.590267 0)
(1.00283 0.606068 0)
(0.993898 0.607264 0)
(1.01574 0.617 -3.03101e-21)
(1.02076 0.612747 1.49301e-21)
(0.979313 0.595894 3.75798e-21)
(0.962101 0.566873 4.8542e-21)
(0.993174 0.581606 -5.25574e-21)
(1.00555 0.6088 4.05234e-21)
(0.976501 0.529148 1.07439e-20)
(0.938692 0.511273 -1.01104e-20)
(0.954652 -0.484493 -8.28266e-22)
(0.977126 -0.499515 4.0332e-21)
(0.911224 0.423388 4.66586e-24)
(0.934798 -0.466647 2.51984e-21)
(0.953294 -0.505309 -4.94764e-21)
(0.97075 -0.521694 -1.7952e-22)
(0.994844 -0.465906 0)
(1.004 -0.514777 -4.4141e-21)
(0.905318 0.487368 -2.01087e-21)
(0.955609 0.577055 -9.04418e-21)
(0.93228 0.543778 3.67273e-21)
(0.990324 0.594007 6.18254e-21)
(0.975432 0.592369 -6.36644e-21)
(1.01052 0.578982 0)
(1.00203 0.589256 0)
(1.01689 0.558687 -8.45493e-24)
(1.01489 0.56731 0)
(1.0151 0.557928 4.6367e-24)
(1.0169 0.555356 0)
(1.00682 0.568149 0)
(1.0116 0.56424 0)
(0.995463 0.538217 1.44629e-23)
(1.00129 0.562011 0)
(0.980486 0.422736 -4.4803e-25)
(0.988619 0.49276 0)
(0.963609 0.209176 0)
(0.971297 0.327811 0)
(0.967522 -0.0617997 9.89809e-26)
(0.961985 0.0760831 0)
(0.978197 -0.30489 0)
(0.97453 -0.189837 0)
(0.988357 -0.396454 -1.28156e-20)
(1.01272 -0.544393 -3.70818e-21)
(0.990404 -0.534578 3.82483e-21)
(0.897875 -0.330679 -1.67687e-21)
(0.915977 -0.409367 0)
(0.873639 -0.11997 -2.18139e-22)
(0.883386 -0.23181 -2.20976e-21)
(0.874197 0.117397 0)
(0.870497 -0.00320048 -7.5607e-23)
(0.89179 0.329803 0)
(0.88185 0.23012 0)
(0.920221 0.472695 0)
(0.905247 0.411151 0)
(0.953728 0.534675 0)
(0.936725 0.513178 0)
(0.986816 0.541947 0)
(0.970759 0.541813 0)
(1.01322 0.546323 0)
(1.00117 0.541911 0)
(1.03056 0.570182 0)
(1.02291 0.556149 0)
(1.04057 0.602219 -1.45253e-21)
(1.0365 0.586381 0)
(1.04163 0.622545 8.19782e-22)
(1.04239 0.615533 -2.0238e-22)
(1.0295 0.594662 -5.05971e-21)
(1.03724 0.617935 0)
(1.01659 0.542816 -1.49928e-20)
(0.984582 -0.541649 -2.00872e-21)
(0.97048 -0.527851 5.08074e-22)
(0.873706 0.398671 2.85611e-21)
(0.927075 0.320572 -6.61132e-21)
(1.0388 -0.546943 0)
(1.04142 -0.56032 8.3908e-22)
(1.01952 -0.558783 8.02112e-22)
(0.975502 0.334699 0)
(0.87623 0.459352 -1.64706e-21)
(0.935572 0.555401 -1.04593e-21)
(0.908003 0.519203 0)
(0.978392 0.578782 -5.12364e-21)
(0.959759 0.574434 5.8442e-21)
(1.00511 0.570624 0)
(0.993726 0.577488 2.01341e-21)
(1.02021 0.557683 8.14034e-24)
(1.01396 0.562863 0)
(1.02632 0.563121 -6.15256e-26)
(1.02414 0.557643 0)
(1.02729 0.576925 -5.81484e-24)
(1.02723 0.571656 0)
(1.02504 0.547383 1.43652e-25)
(1.02662 0.571225 0)
(1.01965 0.430315 -2.30922e-25)
(1.02243 0.501132 0)
(1.01724 0.223411 0)
(1.01796 0.336306 0)
(1.01145 -0.0336879 -3.96029e-25)
(1.01449 0.0983894 0)
(1.0151 -0.284049 0)
(1.0122 -0.165367 0)
(1.02556 -0.462553 7.12748e-23)
(1.02019 -0.383942 6.51171e-22)
(1.03285 -0.515724 7.04192e-21)
(1.00091 -0.551934 -6.2781e-24)
(0.959498 -0.511381 6.25261e-22)
(0.919168 -0.44759 2.27224e-21)
(0.939929 -0.487357 1.37184e-21)
(0.878191 -0.31344 8.99842e-22)
(0.898013 -0.390458 -8.02286e-22)
(0.853142 -0.10996 3.51797e-24)
(0.862751 -0.217182 5.81685e-23)
(0.847561 0.12434 0)
(0.84742 0.00728685 0)
(0.865212 0.332394 0)
(0.854194 0.23421 0)
(0.89768 0.472949 0)
(0.880023 0.413253 0)
(0.940215 0.525795 0)
(0.918151 0.509504 0)
(0.982751 0.527161 0)
(0.962359 0.52869 0)
(1.01508 0.534978 0)
(1.00037 0.528187 0)
(1.03886 0.562254 0)
(1.0276 0.546996 0)
(1.05862 0.596547 0)
(1.04934 0.579147 0)
(1.07026 0.623123 8.30041e-22)
(1.0658 0.612506 -8.12772e-22)
(1.0691 0.601433 7.81506e-21)
(1.07194 0.621775 0)
(1.04738 0.471026 -6.79737e-21)
(1.05963 0.552997 9.62869e-21)
(0.953333 0.184733 -8.09746e-21)
(1.00937 0.200938 6.00137e-21)
(1.02711 0.351253 -2.04015e-21)
(0.842822 0.372096 -1.2743e-22)
(0.882526 0.303223 -5.96015e-21)
(0.90112 0.170453 -4.08489e-22)
(1.02367 -0.561903 -7.38665e-22)
(0.932773 0.0172695 0)
(0.987671 0.030383 -8.50473e-21)
(1.04187 -0.561603 -1.51183e-21)
(0.951831 -0.492089 0)
(1.06936 -0.551181 -1.85329e-21)
(1.06637 -0.560403 5.52931e-24)
(0.971709 -0.506552 0)
(0.977196 -0.523805 -6.24655e-22)
(0.811194 0.258607 8.6706e-21)
(0.842979 0.281319 0)
(0.785821 0.232569 -1.66697e-21)
(0.852758 0.42765 2.10052e-21)
(0.818307 0.341851 8.72654e-22)
(0.917163 0.528505 -1.541e-22)
(0.886477 0.488443 1.43495e-21)
(0.966792 0.560591 -3.6013e-23)
(0.944131 0.551054 3.25188e-23)
(1.00177 0.559375 0)
(0.985797 0.562406 2.49204e-22)
(1.02561 0.552125 -3.44373e-25)
(1.01504 0.554827 0)
(1.03991 0.560608 -4.60422e-24)
(1.0337 0.553923 0)
(1.04961 0.574985 5.81484e-24)
(1.04501 0.569618 0)
(1.05781 0.546813 -1.62549e-25)
(1.05392 0.569586 0)
(1.06407 0.432783 8.01063e-26)
(1.06127 0.5021 0)
(1.06528 0.223768 0)
(1.06561 0.339107 0)
(1.06481 -0.0443483 1.22151e-23)
(1.06481 0.092719 0)
(1.06559 -0.301587 0)
(1.06526 -0.178879 0)
(1.06896 -0.476862 -4.85139e-22)
(1.06781 -0.40259 1.95141e-21)
(1.06999 -0.525178 -2.6692e-23)
(0.995808 -0.549541 -1.34759e-21)
(1.00847 -0.557576 0)
(0.985103 -0.537995 7.14077e-22)
(0.907182 -0.425703 -1.42041e-21)
(0.929979 -0.466251 0)
(0.863485 -0.294318 0)
(0.884465 -0.369208 0)
(0.835236 -0.102162 -3.5187e-24)
(0.846792 -0.203744 0)
(0.829645 0.116774 0)
(0.829142 0.00676184 0)
(0.847808 0.313113 0)
(0.836127 0.220855 0)
(0.884218 0.444271 0)
(0.864108 0.388641 0)
(0.931621 0.497189 0)
(0.907266 0.479363 0)
(0.978069 0.506499 -1.72061e-24)
(0.9557 0.503801 0)
(1.01604 0.519653 -1.69221e-24)
(0.998141 0.510867 0)
(1.048 0.5488 0)
(1.03245 0.532714 0)
(1.07706 0.58552 0)
(1.06295 0.566728 0)
(1.10013 0.616484 0)
(1.08979 0.603365 0)
(1.11038 0.602581 1.17721e-21)
(1.10741 0.618788 0)
(1.10004 0.483436 0)
(1.10757 0.560316 -5.72459e-21)
(1.06695 0.219806 1.01117e-20)
(1.08389 0.369826 -1.95893e-21)
(1.02219 -0.134337 -4.10061e-21)
(1.0453 0.0461497 0)
(0.855317 0.155544 -6.92172e-21)
(0.783179 0.120924 -5.47964e-21)
(0.758554 0.102609 2.86197e-21)
(0.992716 -0.528585 0)
(0.990041 -0.513444 -4.98335e-22)
(0.881362 0.00676851 1.1358e-20)
(0.968151 -0.146643 4.24859e-21)
(0.915913 -0.153804 0)
(0.950195 -0.312579 0)
(1.06186 -0.558106 2.18405e-21)
(1.00044 -0.30374 4.12396e-21)
(0.81547 0.138001 -2.72849e-21)
(0.738394 -0.0382398 -2.89214e-21)
(0.721907 -0.0468938 -2.03111e-21)
(0.768265 0.206365 7.99936e-22)
(0.741558 0.083762 -1.38343e-21)
(0.835236 0.394308 8.81012e-22)
(0.800484 0.310601 -1.91508e-21)
(0.90237 0.498185 -8.2786e-24)
(0.869728 0.455542 0)
(0.95798 0.53868 3.49033e-24)
(0.931929 0.524755 0)
(1.0001 0.543667 0)
(0.980608 0.543944 0)
(1.03123 0.540427 -4.83174e-25)
(1.01687 0.54133 0)
(1.05418 0.551422 0)
(1.04347 0.543669 0)
(1.07403 0.566805 -5.18623e-24)
(1.06418 0.561012 0)
(1.0932 0.54029 -7.46814e-24)
(1.08381 0.562073 0)
(1.10896 0.428124 9.70805e-24)
(1.10179 0.496529 0)
(1.11771 0.222658 0)
(1.11433 0.335678 0)
(1.11866 -0.0404759 1.17664e-23)
(1.11909 0.094977 0)
(1.11517 -0.294711 0)
(1.11743 -0.17372 -6.978e-28)
(1.10842 -0.469236 -1.45526e-22)
(1.11266 -0.394508 0)
(1.09775 -0.543363 8.63341e-22)
(1.10384 -0.517568 -1.12747e-21)
(1.08182 -0.548147 -2.80194e-21)
(1.0905 -0.551719 -8.78229e-22)
(1.05558 -0.548711 -1.25796e-21)
(1.02573 -0.557335 7.63432e-22)
(1.04015 -0.554818 6.38518e-22)
(1.00457 -0.549964 0)
(1.01387 -0.555594 0)
(0.997426 -0.540804 6.29455e-22)
(0.989231 -0.49623 7.40322e-22)
(0.946932 -0.470454 2.20869e-22)
(0.968851 -0.487069 4.29872e-22)
(0.899571 -0.402561 0)
(0.923413 -0.443393 2.49095e-22)
(0.8543 -0.274902 0)
(0.875811 -0.346702 0)
(0.824097 -0.0925646 0)
(0.83668 -0.189081 0)
(0.817441 0.114181 0)
(0.817466 0.0105342 0)
(0.835411 0.300505 0)
(0.823594 0.212737 0)
(0.873442 0.42528 0)
(0.852253 0.372537 0)
(0.924678 0.474255 0)
(0.898107 0.458052 0)
(0.976403 0.483957 1.7206e-24)
(0.951361 0.480379 0)
(1.01927 0.500976 1.69221e-24)
(0.998966 0.490221 0)
(1.05721 0.531802 0)
(1.03837 0.515277 0)
(1.09484 0.56953 0)
(1.07613 0.549995 0)
(1.12951 0.604106 0)
(1.11288 0.588786 0)
(1.15345 0.599112 -1.1484e-21)
(1.14358 0.609956 0)
(1.15477 0.491916 0)
(1.1578 0.562435 0)
(1.12628 0.237683 0)
(1.14394 0.383317 1.77131e-21)
(1.07725 -0.116318 -8.20167e-21)
(1.1042 0.0656993 -4.18108e-21)
(1.05249 -0.286493 7.61668e-21)
(1.0713 -0.537799 3.05775e-21)
(0.835658 -0.00439136 1.65304e-21)
(0.762537 -0.0283838 5.87087e-21)
(0.8663 -0.159447 -3.68978e-21)
(0.713109 -0.177983 1.42097e-21)
(0.727629 -0.179216 0)
(0.901563 -0.315591 3.6314e-21)
(0.990488 -0.477071 -1.62563e-21)
(1.01086 -0.484353 3.8205e-22)
(1.00768 -0.501628 -1.15304e-21)
(0.935467 -0.455187 7.13983e-21)
(0.966865 -0.558276 -3.38637e-21)
(1.10322 -0.536003 0)
(1.08784 -0.523861 0)
(1.00712 -0.543502 5.86873e-21)
(0.795526 -0.0168866 1.76129e-22)
(0.716053 -0.294209 1.7434e-23)
(0.711607 -0.277319 -1.74105e-23)
(0.713761 -0.0558928 1.86086e-22)
(0.70667 -0.174186 0)
(0.756638 0.177654 7.22103e-22)
(0.73124 0.0642321 0)
(0.822041 0.358046 0)
(0.787821 0.276653 -1.23456e-22)
(0.891316 0.465573 0)
(0.857206 0.420524 0)
(0.951657 0.513132 0)
(0.923014 0.495579 0)
(0.999564 0.523659 2.15025e-24)
(0.977131 0.521414 0)
(1.03718 0.524462 -5.71401e-24)
(1.01941 0.523484 0)
(1.06859 0.538044 0)
(1.05338 0.529237 0)
(1.09843 0.554108 5.20545e-25)
(1.08349 0.548121 0)
(1.12789 0.528468 6.51324e-24)
(1.11336 0.549625 0)
(1.15336 0.419906 -8.67597e-24)
(1.1415 0.486003 0)
(1.16879 0.220581 0)
(1.1627 0.330567 0)
(1.17142 -0.0390733 -1.17664e-23)
(1.17155 0.0948641 0)
(1.16476 -0.29281 0)
(1.16906 -0.171775 6.978e-28)
(1.15068 -0.467007 0)
(1.15873 -0.39309 0)
(1.1297 -0.536589 -7.8805e-22)
(1.14099 -0.51362 0)
(1.11701 -0.542071 1.36221e-21)
(1.04646 -0.536818 0)
(1.07134 -0.509718 4.53811e-22)
(1.05862 -0.524779 -1.14728e-21)
(1.02485 -0.549258 6.36794e-22)
(1.03511 -0.544863 -6.25555e-22)
(1.01078 -0.546484 0)
(1.01662 -0.549711 0)
(1.00543 -0.52999 0)
(1.00711 -0.539806 0)
(1.00564 -0.517098 1.43514e-21)
(0.944877 -0.447848 0)
(0.96857 -0.466087 0)
(0.895761 -0.378441 0)
(0.920514 -0.419446 0)
(0.849758 -0.255143 1.7483e-24)
(0.871558 -0.32385 0)
(0.81855 -0.0828562 0)
(0.831636 -0.173879 0)
(0.810772 0.111172 0)
(0.811429 0.013907 0)
(0.828124 0.285524 0)
(0.816411 0.20358 0)
(0.868039 0.400412 0)
(0.845546 0.352161 0)
(0.922671 0.446034 0)
(0.894407 0.430386 0)
(0.976884 0.459804 0)
(0.950713 0.453688 0)
(1.02306 0.480234 0)
(1.00079 0.468302 0)
(1.06658 0.511187 0)
(1.04475 0.494785 0)
(1.11147 0.548929 -1.85497e-24)
(1.08885 0.529285 -1.97019e-28)
(1.15663 0.585547 0)
(1.13426 0.56875 0)
(1.19494 0.587412 3.66583e-25)
(1.17748 0.594133 0)
(1.20994 0.494125 0)
(1.20657 0.55681 0)
(1.18873 0.255665 4.5255e-22)
(1.20428 0.393385 -1.6639e-21)
(1.1359 -0.0886386 7.625e-21)
(1.16571 0.0895141 3.36509e-21)
(1.07162 -0.409499 -8.41771e-21)
(1.10521 -0.260748 -5.4107e-21)
(1.04359 -0.52537 -8.46159e-21)
(0.821291 -0.166337 -3.18563e-21)
(0.749879 -0.178625 -3.34207e-21)
(1.02404 -0.50642 -7.11341e-22)
(1.02954 -0.49054 -3.85968e-22)
(0.855484 -0.316974 0)
(0.727818 -0.307252 -1.60302e-21)
(0.89236 -0.455758 -3.84507e-22)
(0.730761 -0.357601 6.18788e-23)
(0.731965 -0.385517 -6.17674e-23)
(0.928054 -0.562386 6.15553e-21)
(0.954619 -0.63006 2.33146e-21)
(1.08364 -0.490876 1.12932e-21)
(0.973051 -0.655952 3.73802e-21)
(0.991507 -0.644517 -9.04966e-22)
(1.05464 -0.494797 4.16426e-22)
(1.06445 -0.475699 0)
(0.781776 -0.173763 0)
(0.762567 -0.408485 -1.58033e-21)
(0.770884 -0.36908 2.81726e-22)
(0.714518 -0.259087 5.53083e-22)
(0.736586 -0.327066 -5.59112e-22)
(0.710839 -0.064734 3.07805e-22)
(0.70624 -0.169064 0)
(0.750544 0.149722 8.19808e-23)
(0.72663 0.0445811 0)
(0.814298 0.322805 0)
(0.780611 0.243613 -8.24753e-23)
(0.88421 0.432154 0)
(0.84948 0.385506 0)
(0.947503 0.484817 -1.30182e-24)
(0.917119 0.464503 0)
(1.0002 0.500689 -2.15025e-24)
(0.975194 0.495849 0)
(1.04367 0.505651 4.55143e-24)
(1.02287 0.50282 0)
(1.08221 0.520856 2.79287e-24)
(1.06325 0.511608 0)
(1.12068 0.536588 4.66568e-24)
(1.10127 0.530814 0)
(1.15973 0.511983 -7.2466e-25)
(1.14036 0.532255 0)
(1.19403 0.407975 8.52771e-25)
(1.178 0.471349 0)
(1.2156 0.215453 0)
(1.20683 0.321899 0)
(1.22087 -0.0375377 0)
(1.22021 0.093278 0)
(1.21198 -0.285611 0)
(1.21807 -0.16739 0)
(1.19058 -0.453968 0)
(1.20281 -0.38286 0)
(1.15944 -0.519516 7.9256e-22)
(1.17591 -0.498204 0)
(1.12321 -0.517316 1.126e-21)
(1.14145 -0.52417 -1.97145e-21)
(1.10312 -0.505931 0)
(1.03604 -0.524204 0)
(1.04499 -0.510977 4.70447e-22)
(1.02148 -0.540505 -2.80711e-22)
(1.02808 -0.534033 2.83398e-22)
(1.01446 -0.542498 0)
(1.01685 -0.543286 0)
(1.01608 -0.530724 0)
(1.01425 -0.53829 0)
(1.01944 -0.519933 8.04821e-22)
(1.03558 -0.472609 3.37651e-22)
(0.993216 -0.456257 -2.33188e-22)
(1.01522 -0.465066 -3.08185e-22)
(0.945632 -0.424061 0)
(0.969967 -0.443704 0)
(0.895306 -0.353892 0)
(0.920593 -0.394545 0)
(0.849111 -0.235071 -1.7483e-24)
(0.871029 -0.300717 0)
(0.817507 -0.072589 0)
(0.830853 -0.158167 0)
(0.808647 0.108967 0)
(0.809934 0.0180382 0)
(0.825409 0.27104 0)
(0.8138 0.1951 0)
(0.866579 0.375967 0)
(0.843251 0.332193 0)
(0.923181 0.417817 0)
(0.893959 0.40308 0)
(0.979103 0.434236 -8.76435e-25)
(0.952067 0.426315 0)
(1.02783 0.457393 -9.37317e-25)
(1.0041 0.444496 0)
(1.07555 0.487829 0)
(1.05141 0.471977 0)
(1.12643 0.524242 1.85497e-24)
(1.10053 0.505218 1.9702e-28)
(1.1807 0.561217 0)
(1.15327 0.543786 0)
(1.23226 0.570034 4.64649e-25)
(1.20768 0.57213 0)
(1.26281 0.492709 0)
(1.25176 0.546438 0)
(1.25112 0.273586 0)
(1.26306 0.401966 0)
(1.19572 -0.0589106 1.67048e-21)
(1.22844 0.11523 0)
(1.1186 -0.37908 0)
(1.15807 -0.230069 1.54152e-22)
(1.04798 -0.574844 1.58327e-21)
(1.08059 -0.49736 -2.32394e-21)
(0.973424 -0.652276 -4.76121e-21)
(0.992061 -0.627674 -7.11016e-22)
(1.01662 -0.617163 3.24519e-21)
(0.813074 -0.319452 1.53104e-21)
(0.747644 -0.315847 1.08845e-21)
(0.8511 -0.453357 0)
(0.740553 -0.409979 7.55522e-22)
(0.88902 -0.561476 -1.66166e-21)
(0.76027 -0.445559 -9.35384e-22)
(0.922561 -0.632286 -1.26778e-21)
(0.811307 -0.391649 0)
(0.802002 -0.434756 1.29989e-21)
(0.947389 -0.664623 0)
(0.961207 -0.662781 -3.69309e-21)
(0.970677 -0.618756 -7.41312e-22)
(0.959783 -0.641246 1.52313e-21)
(1.09591 -0.469854 -1.50752e-21)
(0.95245 -0.601634 3.02833e-21)
(1.04257 -0.452809 0)
(1.03716 -0.480891 -7.9515e-22)
(1.04471 -0.461102 -3.15383e-22)
(1.06447 -0.460949 -1.25726e-21)
(1.05587 -0.480172 9.35797e-22)
(0.947767 -0.579884 7.35255e-21)
(1.07415 -0.454363 2.81244e-22)
(0.776806 -0.319782 0)
(0.853475 -0.405135 4.75578e-22)
(0.86434 -0.365651 -2.71645e-25)
(0.78511 -0.329588 1.56774e-22)
(0.825327 -0.350015 -1.58295e-22)
(0.723976 -0.240505 2.96755e-22)
(0.749037 -0.295812 -1.21362e-22)
(0.713704 -0.0723933 1.38824e-22)
(0.712223 -0.164037 -1.64302e-22)
(0.748659 0.122768 0)
(0.726721 0.0257611 0)
(0.810323 0.288145 0)
(0.777376 0.211602 0)
(0.880058 0.397908 0)
(0.845171 0.350331 0)
(0.945362 0.454673 1.30182e-24)
(0.913703 0.432045 0)
(1.00194 0.47554 0)
(0.974805 0.468228 0)
(1.05023 0.484167 -6.27143e-25)
(1.02695 0.479811 0)
(1.09439 0.49997 -6.38589e-25)
(1.07246 0.49081 0)
(1.13989 0.514763 0)
(1.11678 0.509422 0)
(1.18693 0.491064 -8.42736e-25)
(1.16353 0.510479 0)
(1.22886 0.391879 1.01674e-24)
(1.20914 0.452294 0)
(1.25665 0.207906 0)
(1.24504 0.309778 0)
(1.26496 -0.0361189 0)
(1.26329 0.0903984 0)
(1.25467 -0.277057 0)
(1.26206 -0.162193 0)
(1.22743 -0.439498 6.55793e-24)
(1.24303 -0.371251 0)
(1.1873 -0.501134 -3.03099e-22)
(1.20849 -0.481481 0)
(1.14177 -0.49705 -9.53311e-22)
(1.16479 -0.504139 3.05717e-22)
(1.11787 -0.484851 4.37592e-22)
(1.02376 -0.513252 2.32715e-22)
(1.03003 -0.498378 -6.9719e-22)
(1.01564 -0.533652 0)
(1.01879 -0.525012 0)
(1.01568 -0.540518 0)
(1.01456 -0.538847 0)
(1.02409 -0.533443 0)
(1.01892 -0.538713 0)
(1.03921 -0.512259 4.76652e-22)
(1.03097 -0.524595 -3.53991e-22)
(1.04754 -0.497248 4.26383e-22)
(0.997269 -0.434257 5.33825e-22)
(1.02042 -0.444249 2.13098e-22)
(0.948492 -0.399062 0)
(0.973379 -0.420167 0)
(0.897604 -0.329097 0)
(0.922981 -0.369289 0)
(0.851572 -0.214937 0)
(0.873408 -0.277591 0)
(0.819793 -0.0619161 0)
(0.833332 -0.142243 0)
(0.810042 0.107291 0)
(0.811826 0.0227368 0)
(0.826495 0.256219 0)
(0.814865 0.186836 0)
(0.868877 0.350212 0)
(0.844808 0.311287 0)
(0.926582 0.388657 0)
(0.896959 0.374471 0)
(0.982736 0.40821 2.81378e-25)
(0.95558 0.398406 0)
(1.03301 0.433133 2.69178e-25)
(1.00824 0.419857 0)
(1.08394 0.462289 0)
(1.05807 0.447285 0)
(1.13925 0.496335 0)
(1.11091 0.478596 0)
(1.20068 0.53143 0)
(1.16923 0.514623 0)
(1.26358 0.544325 6.15057e-24)
(1.23276 0.5432 0)
(1.30913 0.482174 0)
(1.2903 0.52692 0)
(1.30883 0.287125 7.31738e-22)
(1.3162 0.402906 0)
(1.25315 -0.0271222 -5.47654e-24)
(1.2874 0.139179 -7.40568e-22)
(1.16349 -0.34317 -2.48112e-21)
(1.21025 -0.193925 2.83777e-21)
(1.07614 -0.544075 1.49116e-21)
(1.11738 -0.461713 2.10471e-21)
(1.00141 -0.607739 1.42992e-21)
(1.03515 -0.59198 -2.96076e-21)
(0.970014 -0.601518 -2.77249e-21)
(0.813323 -0.44906 -3.09352e-22)
(0.756954 -0.428205 8.69763e-22)
(1.07556 -0.488945 6.05856e-22)
(1.08649 -0.469561 -3.39751e-22)
(0.953171 -0.541569 -1.91112e-22)
(0.852894 -0.555842 -2.54658e-21)
(0.764796 -0.478605 0)
(0.891045 -0.628714 -2.37293e-21)
(0.797336 -0.476288 9.35857e-22)
(0.922975 -0.664181 -7.90108e-23)
(0.844497 -0.445942 0)
(0.94248 -0.670104 1.53362e-21)
(0.898764 -0.384568 1.03328e-22)
(0.890204 -0.419696 -5.79045e-22)
(0.95388 -0.649395 0)
(0.943492 -0.624018 1.35088e-21)
(0.935677 -0.572329 -2.44891e-21)
(1.05251 -0.439568 -2.81937e-22)
(0.78149 -0.441647 0)
(0.930813 -0.406142 0)
(0.938476 -0.373779 2.82496e-23)
(0.877024 -0.329901 -1.29465e-22)
(0.908497 -0.351717 2.84361e-23)
(0.804013 -0.291312 -2.27626e-23)
(0.841745 -0.310867 2.28067e-23)
(0.739692 -0.219592 0)
(0.767448 -0.263338 -1.50454e-23)
(0.721464 -0.0779356 -5.19343e-25)
(0.723869 -0.156577 0)
(0.750826 0.0980317 0)
(0.731236 0.00942277 0)
(0.809368 0.254524 0)
(0.777723 0.181267 0)
(0.878174 0.363312 0)
(0.843457 0.315438 0)
(0.944855 0.423312 1.48087e-25)
(0.912253 0.398768 0)
(1.00437 0.44851 1.69245e-25)
(0.975623 0.439042 0)
(1.05635 0.460234 -2.0582e-24)
(1.03116 0.454627 0)
(1.10487 0.476206 -6.66836e-25)
(1.08065 0.467337 0)
(1.15563 0.489542 -2.57703e-24)
(1.12978 0.484924 0)
(1.20875 0.466304 -4.94584e-24)
(1.18222 0.485021 0)
(1.25719 0.372329 1.11373e-24)
(1.23421 0.42946 0)
(1.2905 0.19797 0)
(1.27634 0.294674 0)
(1.30218 -0.0356771 0)
(1.29916 0.0857166 0)
(1.29175 -0.266863 0)
(1.29977 -0.156829 0)
(1.25965 -0.420368 -6.55793e-24)
(1.27829 -0.356313 0)
(1.21173 -0.476734 0)
(1.23716 -0.458986 0)
(1.15797 -0.472294 3.27487e-24)
(1.18539 -0.478833 0)
(1.10735 -0.445824 -2.29965e-22)
(1.13252 -0.459627 0)
(1.06042 -0.416459 1.79509e-22)
(1.0837 -0.430822 3.86143e-22)
(1.03022 -0.426287 4.01216e-22)
(1.01803 -0.469401 4.5754e-23)
(1.02387 -0.448543 6.41304e-22)
(1.00938 -0.504873 0)
(1.01315 -0.488316 2.04541e-22)
(1.00738 -0.529744 0)
(1.00725 -0.518769 0)
(1.01457 -0.541367 0)
(1.00984 -0.53737 0)
(1.03015 -0.538338 0)
(1.02141 -0.541693 0)
(1.05197 -0.520259 0)
(1.04045 -0.531211 0)
(1.06382 -0.506022 -7.77826e-22)
(1.09671 -0.448256 8.79232e-22)
(1.04987 -0.431209 -1.65176e-22)
(1.07277 -0.440101 0)
(1.00263 -0.411022 0)
(1.02637 -0.4223 -2.01321e-22)
(0.952802 -0.373776 0)
(0.978151 -0.395493 0)
(0.901906 -0.304405 0)
(0.927196 -0.343878 0)
(0.856298 -0.194959 5.35684e-25)
(0.877934 -0.254686 0)
(0.824486 -0.0510125 0)
(0.838144 -0.126314 0)
(0.814199 0.105942 0)
(0.816258 0.0278177 0)
(0.830891 0.241118 0)
(0.81897 0.178635 0)
(0.874384 0.324034 0)
(0.849771 0.289897 0)
(0.932023 0.359636 0)
(0.902665 0.345728 0)
(0.987312 0.382015 5.95057e-25)
(0.960508 0.370638 0)
(1.03832 0.407858 6.68139e-25)
(1.01293 0.394592 0)
(1.09129 0.43524 0)
(1.06431 0.421312 0)
(1.14953 0.466182 0)
(1.11957 0.450161 0)
(1.21583 0.498026 0)
(1.1816 0.482622 0)
(1.28756 0.513228 -5.06118e-24)
(1.25167 0.509731 0)
(1.34713 0.466693 0)
(1.32075 0.50168 0)
(1.36134 0.298413 0)
(1.36198 0.400244 0)
(1.31007 0.00932811 8.51989e-25)
(1.3436 0.164379 0)
(1.21159 -0.295928 0)
(1.2643 -0.150046 0)
(1.10565 -0.501521 -1.48413e-23)
(1.15788 -0.41493 -9.30917e-22)
(1.01691 -0.57283 7.2279e-22)
(1.05782 -0.553256 -8.92045e-22)
(0.981063 -0.567854 -1.4194e-22)
(1.03705 -0.403175 -5.82009e-22)
(0.821604 -0.544804 3.09149e-22)
(0.776918 -0.506324 0)
(0.968996 -0.394164 -1.04765e-23)
(0.961885 -0.427471 -3.94617e-25)
(0.862301 -0.617646 2.3063e-21)
(0.798368 -0.514854 0)
(0.89849 -0.657726 1.44899e-21)
(0.838322 -0.487377 0)
(0.926797 -0.666534 -1.77702e-21)
(0.88258 -0.456434 0)
(0.940844 -0.657503 -1.51437e-21)
(0.923269 -0.438761 0)
(0.943859 -0.630873 -2.19627e-21)
(0.927952 -0.603466 8.26305e-22)
(0.917128 -0.516416 -2.27165e-22)
(0.923003 -0.544349 -2.83899e-21)
(0.88019 -0.484857 -5.17107e-22)
(1.06805 -0.392171 1.11661e-22)
(1.10547 -0.425757 -1.61352e-21)
(1.13115 -0.432818 -3.57494e-22)
(1.04384 -0.379217 -2.94081e-22)
(1.12065 -0.456083 0)
(0.795982 -0.528448 0)
(1.00146 -0.411692 -1.06705e-23)
(1.00761 -0.378421 2.50544e-22)
(0.946977 -0.342633 -2.18909e-22)
(0.976439 -0.362033 -2.52442e-22)
(0.890218 -0.297795 -1.78122e-22)
(0.918264 -0.321191 1.92581e-22)
(0.825506 -0.25556 -1.12293e-22)
(0.859462 -0.276059 2.21373e-22)
(0.760901 -0.195928 0)
(0.790704 -0.231075 0)
(0.734272 -0.0797262 -4.39466e-25)
(0.741176 -0.145422 0)
(0.756507 0.0758955 0)
(0.740055 -0.00373063 0)
(0.810881 0.22212 0)
(0.780992 0.152779 0)
(0.878094 0.328747 0)
(0.843859 0.281157 0)
(0.945448 0.391055 -1.48087e-25)
(0.912273 0.365022 0)
(1.00698 0.419958 -1.69245e-25)
(0.977112 0.408607 0)
(1.06169 0.434475 7.92795e-25)
(1.03507 0.42773 0)
(1.11342 0.450427 -6.69594e-25)
(1.08754 0.441958 0)
(1.16776 0.461869 7.71884e-25)
(1.14006 0.458217 0)
(1.22525 0.438709 3.0868e-24)
(1.19641 0.456897 0)
(1.27867 0.349938 1.15081e-24)
(1.2532 0.403738 0)
(1.31652 0.185699 0)
(1.3002 0.276919 0)
(1.33192 -0.0363156 0)
(1.32718 0.0792523 0)
(1.32221 -0.255693 0)
(1.3304 -0.1516 0)
(1.28637 -0.398681 0)
(1.30732 -0.339506 0)
(1.2324 -0.449422 0)
(1.26082 -0.433846 0)
(1.17331 -0.444199 -1.95989e-24)
(1.2029 -0.450932 0)
(1.11793 -0.419868 3.34995e-22)
(1.14518 -0.432584 -1.06957e-22)
(1.09256 -0.405868 -1.39997e-22)
(0.994598 -0.446141 2.22257e-23)
(1.03432 -0.429365 0)
(1.03891 -0.395189 7.09744e-24)
(1.00719 -0.41475 -2.06316e-22)
(1.01991 -0.366749 3.38972e-23)
(1.01319 -0.390932 -1.36723e-22)
(0.997291 -0.459993 0)
(1.00165 -0.437973 0)
(0.992749 -0.498935 0)
(0.994168 -0.480473 -2.02276e-22)
(0.996875 -0.527941 0)
(0.993493 -0.514838 0)
(1.01137 -0.543735 0)
(1.0029 -0.537715 0)
(1.03464 -0.544044 0)
(1.02204 -0.545868 0)
(1.06387 -0.528389 0)
(1.04873 -0.53826 0)
(1.09417 -0.497825 -2.00331e-22)
(1.07926 -0.514778 -5.73115e-23)
(1.1082 -0.477909 3.41477e-22)
(1.057 -0.408501 1.19807e-22)
(1.08058 -0.417877 7.15439e-23)
(1.00864 -0.386705 0)
(1.03275 -0.399051 -2.93595e-23)
(0.958181 -0.348347 0)
(0.983596 -0.370518 0)
(0.907548 -0.279967 0)
(0.932594 -0.318555 0)
(0.862486 -0.1752 -5.35684e-25)
(0.883861 -0.232072 0)
(0.830813 -0.0400268 2.57108e-25)
(0.844468 -0.110449 0)
(0.820563 0.104565 0)
(0.822544 0.0330171 0)
(0.838193 0.225479 0)
(0.825675 0.170136 0)
(0.882595 0.297629 0)
(0.8577 0.267962 0)
(0.939001 0.331288 6.18113e-26)
(0.910539 0.317267 0)
(0.992475 0.356156 0)
(0.966425 0.343565 0)
(1.04349 0.382031 0)
(1.01787 0.36916 0)
(1.09744 0.407309 0)
(1.06992 0.394591 0)
(1.15721 0.434604 -5.90523e-25)
(1.12639 0.420638 0)
(1.22618 0.461869 0)
(1.19042 0.448682 0)
(1.30345 0.476466 5.59563e-25)
(1.26422 0.472254 0)
(1.37466 0.443071 2.56119e-24)
(1.34157 0.46912 0)
(1.40515 0.305746 0)
(1.39759 0.390465 0)
(1.36368 0.0485482 8.60019e-25)
(1.39391 0.188968 0)
(1.26157 -0.240816 0)
(1.31766 -0.100426 0)
(1.14119 -0.447394 5.45816e-22)
(1.20115 -0.359082 0)
(1.03573 -0.52795 -1.51255e-23)
(1.086 -0.50258 -3.62399e-22)
(0.951932 -0.510352 4.33112e-22)
(0.990961 -0.528804 2.18219e-22)
(0.871623 -0.451467 -8.36469e-21)
(0.911679 -0.486131 -1.44094e-21)
(0.825135 -0.416818 1.23269e-20)
(0.815393 -0.416874 1.99498e-21)
(0.792932 -0.369488 -2.42095e-21)
(0.837974 -0.600996 0)
(0.805804 -0.549144 0)
(1.14507 -0.461251 6.1893e-22)
(1.15768 -0.436906 -6.2735e-22)
(0.877515 -0.643126 0)
(0.836642 -0.526958 0)
(0.909799 -0.658742 3.67111e-22)
(0.876984 -0.493581 0)
(0.931286 -0.654666 0)
(0.916466 -0.471887 -2.21459e-22)
(0.93748 -0.64118 1.13101e-21)
(0.954192 -0.460529 0)
(0.930141 -0.616861 -7.39889e-22)
(0.90936 -0.580371 5.28806e-22)
(0.881083 -0.524645 3.65164e-22)
(0.833916 -0.446773 -2.29463e-21)
(1.02796 -0.464801 0)
(1.07246 -0.410285 -1.63973e-23)
(1.06891 -0.446475 1.07091e-23)
(1.10755 -0.425172 -3.34077e-22)