/*--------------------------------*- C++ -*----------------------------------*\
  =========                 |
  \\      /  F ield         | OpenFOAM: The Open Source CFD Toolbox
   \\    /   O peration     | Website:  https://openfoam.org
    \\  /    A nd           | Version:  10
     \\/     M anipulation  |
\*---------------------------------------------------------------------------*/
FoamFile
{
    format      ascii;
    class       volVectorField;
    location    "2.5";
    object      U;
}
// * * * * * * * * * * * * * * * * * * * * * * * * * * * * * * * * * * * * * //

dimensions      [0 1 -1 0 0 0 0];

internalField   nonuniform List<vector> 
28942
(
(0.0220328 -0.0145735 2.07078e-22)
(0.0274897 -0.0195743 6.00237e-23)
(0.0238475 -0.016162 -2.56139e-21)
(0.103422 0.0171341 -9.80776e-21)
(0.102208 0.020478 3.17078e-21)
(0.0592293 0.00370958 0)
(0.0687856 0.00474591 5.19384e-23)
(0.0750666 0.00405112 -4.55925e-23)
(0.120315 -0.000303493 -9.4674e-22)
(0.119024 -3.55606e-05 2.62929e-21)
(0.0491962 0.0350514 1.1765e-21)
(0.059619 0.039776 -6.33974e-22)
(0.0379836 0.0293855 0)
(0.0327447 0.0260105 0)
(0.0988503 0.00146702 -5.48323e-23)
(0.0985645 0.00337513 -1.07841e-23)
(0.0883785 0.0149248 1.18192e-21)
(0.0860307 0.0130058 1.87678e-21)
(0.0137152 -0.0168143 6.7608e-21)
(0.0334659 -0.0340102 -1.79283e-21)
(0.099048 0.0301803 1.82172e-21)
(0.0978738 0.0281902 0)
(0.0495689 0.0279257 1.28185e-22)
(0.0259307 0.015124 -1.29939e-22)
(0.0734815 0.0295545 -1.14973e-22)
(0.0984142 0.0213431 1.04805e-22)
(0.00828158 -0.0191544 1.38303e-20)
(0.00717397 -0.01711 -4.97969e-21)
(0.0433038 -0.0295921 1.73195e-21)
(0.0232673 -0.0160894 6.2638e-22)
(0.0602273 -0.00619935 0)
(0.0732839 -0.0076676 -2.76462e-23)
(0.0779862 0.00695741 1.09382e-21)
(0.0912405 0.000258509 -2.2012e-22)
(0.021336 0.019957 2.70034e-21)
(0.0176195 0.0210403 -3.18855e-21)
(0.0360755 0.0410865 -5.45797e-21)
(0.0207209 0.033418 -1.68263e-21)
(0.0371836 0.00350987 -3.36009e-23)
(0.00961736 0.0177619 -4.40082e-21)
(0.0319792 -0.00586326 0)
(0.0531367 -0.0103412 0)
(0.102076 -0.00239448 -1.17681e-22)
(0.102101 -0.00224815 3.45489e-22)
(0.102248 -0.00245422 3.01838e-22)
(0.0893449 0.00353558 4.05673e-23)
(0.0851973 0.00241878 -7.67303e-23)
(0.0979717 0.00161645 -2.71443e-22)
(0.0963755 0.00177401 7.36126e-23)
(0.0885435 -0.00251212 -6.98597e-22)
(0.0782323 -0.00472607 4.2323e-22)
(0.109763 0.00336652 -1.46853e-21)
(0.110003 0.00319295 -1.31595e-21)
(0.121464 -0.00227458 -2.8759e-24)
(0.119968 -0.00200944 4.81673e-22)
(0.124247 0.0415441 -6.03734e-22)
(0.135516 0.0319683 -6.4841e-22)
(0.0220244 0.0175067 3.81549e-22)
(0.0398363 0.029138 0)
(0.0342752 0.0246861 -5.65425e-23)
(0.0189937 0.01486 -3.38889e-22)
(0.00677389 0.00548732 2.81649e-22)
(0.0064677 0.00544894 3.00978e-22)
(0.139675 -0.0378806 0)
(0.144629 -0.0140412 -3.18602e-22)
(0.1494 -0.0139708 2.15962e-22)
(0.143015 -0.0291673 0)
(0.0906641 -0.0277879 -1.1416e-21)
(0.0941317 -0.0294106 -7.67893e-22)
(0.0114249 -0.00755632 -7.45449e-22)
(0.0139108 -0.010311 1.95158e-22)
(0.0217143 -0.0165572 -4.45768e-22)
(0.0880584 -0.0400416 0)
(0.0928379 -0.0333652 3.98967e-21)
(0.0855337 -0.0486162 1.12883e-21)
(0.145538 -0.0168999 -9.79983e-22)
(0.141306 -0.0236363 1.03837e-21)
(0.139191 -0.0190455 1.0333e-21)
(0.00617232 -0.00374822 -1.60089e-22)
(0.00837107 -0.00578881 1.79204e-21)
(0.0673576 -0.0375746 6.07211e-22)
(0.0451729 -0.0266511 -6.21193e-22)
(0.00633538 -0.00427433 1.77589e-21)
(0.0124672 -0.00728961 -7.28442e-22)
(0.125723 0.0469528 3.18259e-22)
(0.116344 0.0547312 -2.00685e-21)
(0.0967276 0.0571438 1.93251e-21)
(0.0574011 0.039518 -6.66259e-21)
(0.0546963 0.0368965 4.73497e-21)
(0.035912 0.0242641 -3.33947e-22)
(0.0394441 0.0271031 -1.47112e-21)
(0.0454581 0.0325302 2.03008e-21)
(0.0421798 0.0214193 1.9803e-22)
(0.0510078 0.0277436 4.78574e-23)
(0.0324938 0.0235309 -9.59046e-23)
(0.0285666 0.0196251 1.29379e-21)
(0.0263672 0.0158289 -1.66733e-21)
(0.0185979 0.0133705 -7.67976e-21)
(0.0204554 0.0155673 1.83718e-21)
(0.0185002 -0.00986169 0)
(0.101406 0.00540657 0)
(0.097729 0.0159048 -6.69316e-21)
(0.0639148 0.00925948 4.23295e-21)
(0.0928899 0.0156021 0)
(0.110864 -0.0136451 0)
(0.110173 -0.0135252 0)
(0.110249 -0.0144459 -3.07259e-21)
(0.112687 0.0162947 -4.99824e-22)
(0.112147 0.017825 4.84666e-21)
(0.111413 0.0163846 2.58339e-21)
(0.0210564 0.0177117 -8.0254e-22)
(0.0187389 0.0160165 9.00814e-22)
(0.0565796 -0.0342477 4.4247e-22)
(0.0640749 -0.0389939 -5.85008e-22)
(0.041755 -0.027865 -1.19552e-21)
(0.00694064 0.0122264 2.28829e-21)
(0.020292 0.0196308 5.45671e-21)
(0.0147025 0.0248775 2.97983e-22)
(0.00534391 0.0156242 -1.35687e-20)
(0.137406 0.0383962 2.05887e-22)
(0.120594 0.0502971 3.04862e-21)
(0.130328 0.0430029 -5.26267e-21)
(0.046524 -0.0337181 1.67303e-21)
(0.0284074 -0.020012 -1.26405e-21)
(0.00557563 -0.000339051 -6.38192e-21)
(0.00476595 -0.00337929 0)
(0.0131667 -0.00116877 3.22805e-21)
(0.0256263 -0.0185115 1.63596e-21)
(0.0400213 -0.031513 -4.42053e-21)
(0.0972448 0.00189814 2.26891e-22)
(0.0987784 0.00167418 -1.19251e-22)
(0.0956159 0.00198532 -6.73132e-24)
(0.0319117 -0.0459727 0)
(0.0332766 -0.0459466 0)
(0.0956389 -0.0146845 -1.03937e-21)
(0.104403 -0.0165394 6.65926e-21)
(0.0889167 -0.0243806 0)
(0.0548667 -0.0446105 0)
(0.0669035 -0.0550191 -1.69576e-21)
(0.046985 0.0430686 3.77375e-21)
(0.0103274 0.00892303 -8.43123e-22)
(0.00907522 0.00818256 7.29131e-22)
(0.0256661 -0.0217746 -1.70123e-21)
(0.102436 -0.00261133 1.77121e-21)
(0.10243 -0.00249917 -3.25946e-22)
(0.135128 0.0258211 3.19457e-22)
(0.126558 0.0306556 -4.25756e-22)
(0.126055 0.0274053 -1.82375e-21)
(0.00993892 0.00855141 -2.5554e-22)
(0.0518924 0.03874 6.79275e-21)
(0.0739626 0.0508244 -1.73607e-21)
(0.0738373 0.0451096 -9.01013e-24)
(0.0821192 -0.0029899 1.31563e-23)
(0.0818205 -0.00409504 6.05133e-23)
(0.0848924 -0.00694027 8.44745e-24)
(0.0900216 -0.0041426 -4.34858e-23)
(0.0528431 0.0421326 1.52358e-22)
(0.0218323 0.0180246 0)
(0.00946134 -0.00871735 -7.4301e-22)
(0.0125079 -0.0119503 8.25572e-22)
(0.0270052 -0.0193539 -8.22115e-22)
(0.0715671 -0.0276848 -7.60229e-22)
(0.110436 -0.0231391 -7.89963e-23)
(0.0937752 -0.00464089 -1.32983e-24)
(0.112783 0.000813153 1.39112e-22)
(0.103222 -0.0150394 -8.84244e-22)
(0.0958673 0.0330236 4.06375e-21)
(0.094116 0.0384032 1.06974e-22)
(0.0889343 0.0253908 2.19566e-21)
(0.0916463 0.0265596 -1.59119e-21)
(0.100186 0.0330158 0)
(0.110176 -0.0025316 4.95331e-22)
(0.110003 -0.0027543 9.74727e-22)
(0.115345 -0.00043857 -9.79134e-22)
(0.11558 0.000249994 1.70358e-21)
(0.113809 0.0132568 6.48541e-22)
(0.115191 0.0128505 -1.85897e-21)
(0.114071 0.0147806 0)
(0.112644 0.014873 3.61334e-22)
(0.114017 0.0164909 0)
(0.115664 0.0223797 -1.32252e-21)
(0.114924 0.0247224 -6.90198e-22)
(0.112038 0.0296821 -1.2059e-21)
(0.113695 0.0271895 0)
(0.117002 0.0287414 4.27551e-21)
(0.115169 0.0315612 4.9116e-23)
(0.109897 0.0325861 -6.43456e-22)
(0.103368 0.0409057 -2.70318e-21)
(0.100822 0.0367248 -4.63736e-22)
(0.078637 -0.0255211 -7.34227e-22)
(0.0834456 -0.0259581 2.93381e-22)
(0.0383487 -0.0274715 8.70112e-22)
(0.0939252 0.00233853 -1.79633e-22)
(0.0997733 0.00139497 0)
(0.00398421 -0.00329228 -5.34222e-22)
(0.00407084 -0.00303533 -3.77991e-22)
(0.0955712 -0.00103712 6.08854e-23)
(0.0992995 -0.000930299 1.58447e-23)
(0.0992028 0.000215045 0)
(0.0949905 0.0011332 2.38054e-23)
(0.102935 0.000122912 -3.79041e-22)
(0.102931 9.17098e-05 1.82083e-21)
(0.102962 9.49882e-05 8.91412e-22)
(0.0152169 0.0132097 -4.58954e-22)
(0.00440862 0.00404439 3.84198e-22)
(0.00500025 0.00433429 -5.75086e-22)
(0.0108571 0.00842256 0)
(0.00264052 0.00247268 1.60355e-22)
(0.0035803 0.00263573 3.849e-22)
(0.0219311 0.0132073 -3.88931e-23)
(0.00579785 0.00376867 -4.82293e-22)
(0.0063358 0.00369949 0)
(0.00169033 0.00823114 0)
(0.000625254 0.00355777 0)
(0.000337634 0.00214865 0)
(0.11031 -0.0125896 5.03614e-22)
(0.110122 -0.0117629 0)
(0.109672 -0.0124991 -5.68465e-22)
(0.0871373 -0.0137152 7.72603e-21)
(0.089086 -0.0142936 -2.80984e-21)
(0.087972 -0.0121168 0)
(0.103377 6.15182e-06 -2.2461e-23)
(0.103388 6.28649e-06 4.49567e-23)
(0.103366 7.27803e-06 -1.51788e-23)
(0.103399 6.36644e-06 0)
(0.103409 6.90437e-06 -2.87159e-23)
(0.103418 6.66474e-06 0)
(0.103417 -4.84749e-06 0)
(0.103427 5.56392e-06 1.06669e-22)
(0.103425 -6.07186e-06 0)
(0.103409 -4.98128e-06 -2.88985e-23)
(0.103399 -5.10492e-06 0)
(0.103389 -5.23627e-06 1.50373e-23)
(0.103378 -5.27306e-06 -2.24527e-23)
(0.103367 -5.44293e-06 1.51599e-23)
(0.103435 5.08975e-06 -1.02073e-22)
(0.103435 -6.65228e-06 -3.57468e-24)
(0.103355 7.51838e-06 1.65554e-27)
(0.103355 -5.23175e-06 -2.31666e-23)
(0.103342 7.69041e-06 1.23142e-22)
(0.103443 5.1876e-06 9.55105e-26)
(0.103443 -6.39252e-06 -3.58081e-24)
(0.103343 -4.48119e-06 4.56381e-23)
(0.10345 5.0469e-06 9.6257e-23)
(0.103458 4.75743e-06 -9.61778e-23)
(0.103451 -6.10002e-06 7.20705e-24)
(0.103458 -5.863e-06 1.42587e-23)
(0.103329 9.55464e-06 -1.19811e-22)
(0.10333 -5.20439e-06 -3.00336e-23)
(0.103465 4.53755e-06 0)
(0.103465 -5.63439e-06 -1.40639e-23)
(0.103316 9.94389e-06 1.4805e-26)
(0.103317 -5.80773e-06 -1.48421e-26)
(0.103471 4.35135e-06 0)
(0.103472 -5.39897e-06 0)
(0.103303 1.03986e-05 0)
(0.103302 -6.57202e-06 0)
(0.103478 4.25584e-06 0)
(0.103479 -5.14983e-06 6.76808e-24)
(0.103288 1.09035e-05 -6.2045e-23)
(0.103287 -7.50293e-06 -1.51453e-26)
(0.103484 4.18186e-06 3.54901e-25)
(0.103485 -4.85501e-06 -7.22846e-24)
(0.103272 1.17012e-05 6.23416e-23)
(0.10327 -8.56113e-06 0)
(0.10349 4.13011e-06 0)
(0.103491 -4.50392e-06 0)
(0.103253 1.29773e-05 -3.94247e-24)
(0.103252 -9.81491e-06 6.76437e-23)
(0.103496 3.95959e-06 4.39528e-23)
(0.103497 -4.00643e-06 0)
(0.103233 1.4294e-05 -3.15745e-25)
(0.103233 -1.19625e-05 -6.40223e-23)
(0.103503 3.51575e-06 -6.57568e-23)
(0.103504 -3.60304e-06 -1.90909e-23)
(0.103209 1.45707e-05 6.52625e-23)
(0.103212 -1.3904e-05 0)
(0.103508 2.68983e-06 2.16683e-23)
(0.10351 -3.3522e-06 1.27334e-23)
(0.103184 1.56346e-05 -3.3008e-23)
(0.103188 -1.63266e-05 6.69451e-23)
(0.103515 1.62772e-06 -8.66519e-23)
(0.103517 -2.08298e-06 9.76649e-23)
(0.103156 1.48033e-05 3.40413e-23)
(0.103162 -1.73399e-05 1.07714e-24)
(0.103522 2.28276e-07 0)
(0.103523 -1.63868e-06 4.65924e-23)
(0.103125 1.46613e-05 -6.8456e-23)
(0.103134 -1.86064e-05 1.36964e-22)
(0.103529 4.12136e-07 0)
(0.103529 -2.43507e-06 0)
(0.10315 4.54499e-05 -3.36837e-23)
(0.10312 4.72208e-05 -1.36331e-22)
(0.103094 1.3277e-05 0)
(0.103104 -2.03715e-05 -6.97812e-23)
(0.103206 3.77253e-05 -2.11846e-23)
(0.103179 4.22274e-05 4.1572e-24)
(0.103252 3.02612e-05 0)
(0.10323 3.42362e-05 -6.83705e-23)
(0.103287 2.54817e-05 -1.32131e-25)
(0.10327 2.75923e-05 0)
(0.103316 2.18547e-05 0)
(0.103302 2.35878e-05 0)
(0.103342 1.87193e-05 0)
(0.10333 2.00164e-05 0)
(0.103366 1.81681e-05 2.99953e-23)
(0.103354 1.88733e-05 7.55401e-24)
(0.103387 1.68069e-05 -2.89357e-23)
(0.103377 1.7667e-05 -2.9958e-23)
(0.103408 1.51207e-05 5.14422e-23)
(0.103398 1.56689e-05 6.57695e-23)
(0.103427 1.32862e-05 0)
(0.103418 1.42642e-05 0)
(0.103443 1.09705e-05 -2.26623e-25)
(0.103436 1.21617e-05 0)
(0.103458 9.37938e-06 0)
(0.103451 1.00847e-05 0)
(0.103471 8.29726e-06 0)
(0.103465 8.76343e-06 0)
(0.103484 7.71948e-06 0)
(0.103478 7.92416e-06 0)
(0.103496 7.59544e-06 0)
(0.10349 7.59233e-06 0)
(0.103507 7.5385e-06 0)
(0.103501 7.58097e-06 0)
(0.103519 5.66849e-06 -3.54611e-23)
(0.103513 7.25826e-06 0)
(0.103525 3.95572e-06 -1.14736e-23)
(0.103534 -3.76544e-07 1.11934e-23)
(0.103535 -2.2482e-06 -1.11003e-23)
(0.103516 -8.41423e-06 0)
(0.103528 -5.96454e-06 -4.55378e-23)
(0.103522 -6.96454e-06 -2.34147e-23)
(0.103504 -1.05607e-05 6.39691e-24)
(0.10351 -9.34382e-06 -2.50682e-23)
(0.103491 -1.14325e-05 2.07031e-25)
(0.103498 -1.13161e-05 0)
(0.103479 -1.16062e-05 0)
(0.103485 -1.14928e-05 0)
(0.103466 -1.20933e-05 0)
(0.103472 -1.17984e-05 0)
(0.103451 -1.2954e-05 0)
(0.103459 -1.24766e-05 2.71705e-29)
(0.103436 -1.40292e-05 2.28876e-25)
(0.103444 -1.34503e-05 0)
(0.103418 -1.65095e-05 0)
(0.103426 -1.53896e-05 0)
(0.103399 -1.68854e-05 0)
(0.103409 -1.70102e-05 0)
(0.103378 -1.71914e-05 0)
(0.103389 -1.68116e-05 -1.5201e-23)
(0.103355 -1.82016e-05 3.98238e-24)
(0.103367 -1.85169e-05 -1.95877e-23)
(0.10333 -2.01611e-05 0)
(0.103343 -1.84942e-05 -1.59274e-23)
(0.103301 -2.24033e-05 0)
(0.103315 -2.10972e-05 0)
(0.103269 -2.71126e-05 0)
(0.103285 -2.43223e-05 0)
(0.103233 -3.49188e-05 0)
(0.103251 -3.08174e-05 0)
(0.103191 -4.32608e-05 -1.72947e-23)
(0.103213 -3.89112e-05 0)
(0.103142 -4.93599e-05 -7.00873e-23)
(0.103168 -4.65535e-05 -1.73952e-23)
(0.103116 -5.20521e-05 7.13381e-23)
(0.103089 4.6788e-05 1.35134e-22)
(0.10353 2.08586e-06 2.24603e-23)
(0.103533 -4.58553e-06 -4.39138e-23)
(0.103074 -2.26903e-05 0)
(0.103087 -5.47879e-05 0)
(0.10306 4.30878e-05 0)
(0.103064 9.67456e-06 0)
(0.103151 7.39116e-05 0)
(0.103095 7.5611e-05 3.3912e-23)
(0.103123 7.63512e-05 3.42243e-23)
(0.103204 6.22898e-05 4.35328e-23)
(0.103179 6.85534e-05 -8.69787e-24)
(0.103249 5.03931e-05 1.34738e-25)
(0.103227 5.55644e-05 0)
(0.103285 4.20323e-05 0)
(0.103268 4.58764e-05 0)
(0.103315 3.63153e-05 0)
(0.103301 3.88534e-05 0)
(0.103342 3.27969e-05 0)
(0.103329 3.42708e-05 0)
(0.103366 2.87062e-05 0)
(0.103355 3.05235e-05 0)
(0.103389 2.58786e-05 -1.21387e-25)
(0.103378 2.76579e-05 3.12878e-23)
(0.103409 2.38897e-05 -1.16718e-25)
(0.103399 2.45134e-05 -6.11685e-23)
(0.103428 2.17028e-05 0)
(0.103419 2.27025e-05 0)
(0.103444 1.94412e-05 1.13211e-25)
(0.103436 2.05758e-05 0)
(0.103459 1.73211e-05 0)
(0.103451 1.83073e-05 0)
(0.103472 1.56501e-05 0)
(0.103465 1.63877e-05 0)
(0.103484 1.46015e-05 0)
(0.103478 1.50236e-05 0)
(0.103495 1.40644e-05 0)
(0.10349 1.42649e-05 0)
(0.103506 1.34708e-05 0)
(0.1035 1.38251e-05 0)
(0.103516 1.06279e-05 2.42187e-23)
(0.103511 1.24216e-05 0)
(0.103537 -2.1621e-06 0)
(0.103534 1.17492e-07 2.19975e-23)
(0.103525 4.49372e-06 0)
(0.103521 7.73208e-06 2.36202e-23)
(0.103524 -1.08407e-05 4.70003e-23)
(0.10353 -8.38104e-06 1.15615e-23)
(0.103537 -2.44249e-06 9.01706e-23)
(0.103538 -1.29875e-06 0)
(0.103514 -1.53842e-05 0)
(0.103519 -1.31135e-05 -7.094e-23)
(0.103503 -1.72727e-05 2.01581e-25)
(0.103509 -1.65164e-05 2.52206e-23)
(0.103491 -1.73692e-05 -2.0703e-25)
(0.103497 -1.73144e-05 0)
(0.103479 -1.78091e-05 0)
(0.103485 -1.75286e-05 0)
(0.103466 -1.8836e-05 0)
(0.103473 -1.82424e-05 0)
(0.103452 -2.04379e-05 0)
(0.103459 -1.95715e-05 -2.71704e-29)
(0.103436 -2.22734e-05 -4.57694e-25)
(0.103444 -2.13478e-05 0)
(0.103419 -2.48837e-05 0)
(0.103428 -2.32922e-05 0)
(0.1034 -2.71587e-05 7.67804e-24)
(0.10341 -2.60339e-05 0)
(0.103379 -2.92634e-05 0)
(0.103389 -2.8156e-05 -7.646e-24)
(0.103355 -3.15486e-05 1.59717e-23)
(0.103367 -3.03677e-05 1.58739e-23)
(0.103329 -3.40782e-05 0)
(0.103342 -3.29822e-05 0)
(0.103299 -3.75968e-05 0)
(0.103314 -3.55917e-05 0)
(0.103267 -4.36721e-05 0)
(0.103283 -4.02306e-05 0)
(0.103232 -5.27967e-05 0)
(0.10325 -4.79489e-05 0)
(0.103194 -6.3135e-05 2.77342e-25)
(0.103213 -5.80157e-05 0)
(0.10315 -7.29983e-05 -2.81209e-25)
(0.103172 -6.81527e-05 0)
(0.103101 -8.06982e-05 -7.35092e-23)
(0.103126 -7.72041e-05 7.34754e-23)
(0.103067 7.10759e-05 6.88795e-23)
(0.103059 -5.80693e-05 0)
(0.103074 -8.48978e-05 -1.49537e-22)
(0.103045 -2.52065e-05 0)
(0.103529 1.70546e-06 0)
(0.103535 -4.73607e-06 -1.12274e-23)
(0.103031 3.5931e-05 1.74403e-22)
(0.10304 6.367e-05 6.97243e-23)
(0.103032 -6.11798e-05 3.77486e-23)
(0.103047 -8.84479e-05 1.88956e-22)
(0.103034 5.50525e-06 0)
(0.103521 9.95677e-06 9.25349e-23)
(0.103526 5.1364e-06 -4.57279e-23)
(0.10354 -6.09108e-07 -2.2238e-23)
(0.103538 -6.35653e-07 1.10615e-22)
(0.103062 8.97252e-05 2.44554e-22)
(0.103014 5.59712e-05 -1.37385e-22)
(0.103007 7.99175e-05 -6.2174e-22)
(0.103035 8.30224e-05 -1.39584e-22)
(0.103111 0.000101558 6.83006e-23)
(0.103086 9.68835e-05 -2.08303e-22)
(0.10316 9.90274e-05 -6.98276e-23)
(0.103135 0.000102281 -5.26117e-23)
(0.103206 8.56009e-05 -1.7419e-23)
(0.103184 9.30592e-05 -1.74457e-23)
(0.103248 7.05147e-05 -1.34738e-25)
(0.103228 7.75971e-05 0)
(0.103284 5.88931e-05 0)
(0.103267 6.42444e-05 0)
(0.103315 5.08978e-05 0)
(0.1033 5.44822e-05 0)
(0.103343 4.54784e-05 0)
(0.10333 4.79553e-05 0)
(0.103368 4.09475e-05 0)
(0.103356 4.30059e-05 0)
(0.10339 3.67761e-05 0)
(0.103379 3.86147e-05 0)
(0.10341 3.28894e-05 8.45626e-31)
(0.103401 3.51121e-05 0)
(0.103429 3.00895e-05 0)
(0.10342 3.12917e-05 0)
(0.103445 2.71046e-05 1.1322e-25)
(0.103437 2.86427e-05 0)
(0.103459 2.41938e-05 0)
(0.103452 2.56043e-05 0)
(0.103473 2.18019e-05 0)
(0.103466 2.29235e-05 0)
(0.103484 2.01197e-05 0)
(0.103479 2.08808e-05 0)
(0.103495 1.9104e-05 0)
(0.10349 1.95564e-05 0)
(0.103505 1.8257e-05 0)
(0.1035 1.87457e-05 0)
(0.103514 1.58176e-05 1.23465e-23)
(0.103509 1.73329e-05 -6.21071e-24)
(0.103518 1.336e-05 -4.7182e-23)
(0.103539 -2.91795e-06 -1.05303e-23)
(0.103533 -1.64508e-06 4.40733e-23)
(0.103536 -3.36104e-06 -3.36515e-23)
(0.10354 1.32308e-07 0)
(0.10352 -1.70044e-05 -3.50381e-23)
(0.10353 -8.42492e-06 -1.01268e-22)
(0.103525 -1.29482e-05 8.1468e-23)
(0.103512 -2.18686e-05 0)
(0.103516 -2.01428e-05 0)
(0.103502 -2.26521e-05 7.4432e-30)
(0.103507 -2.23336e-05 0)
(0.103491 -2.30619e-05 0)
(0.103497 -2.28201e-05 0)
(0.10348 -2.39591e-05 -2.12507e-25)
(0.103486 -2.34277e-05 0)
(0.103467 -2.55863e-05 0)
(0.103474 -2.46761e-05 0)
(0.103453 -2.79242e-05 0)
(0.10346 -2.66785e-05 0)
(0.103437 -3.06565e-05 2.2885e-25)
(0.103445 -2.92674e-05 0)
(0.10342 -3.37544e-05 2.34296e-25)
(0.103429 -3.21029e-05 0)
(0.103401 -3.68695e-05 0)
(0.103411 -3.52782e-05 0)
(0.10338 -4.05449e-05 0)
(0.103391 -3.87755e-05 0)
(0.103356 -4.41895e-05 0)
(0.103368 -4.20624e-05 0)
(0.103329 -4.81424e-05 0)
(0.103343 -4.61672e-05 0)
(0.103299 -5.31916e-05 -2.6131e-25)
(0.103314 -5.04572e-05 0)
(0.103266 -6.04576e-05 0)
(0.103283 -5.64796e-05 0)
(0.103232 -7.05754e-05 0)
(0.103249 -6.51863e-05 0)
(0.103195 -8.24653e-05 1.88435e-29)
(0.103214 -7.64501e-05 0)
(0.103156 -9.3844e-05 -1.38432e-29)
(0.103176 -8.83783e-05 0)
(0.103111 -0.000104145 2.91197e-25)
(0.103134 -9.89463e-05 0)
(0.103061 -0.000114425 -1.53099e-22)
(0.103087 -0.000109126 3.76718e-23)
(0.103018 -9.12991e-05 3.8507e-23)
(0.103033 -0.000119518 7.64848e-23)
(0.103005 2.84824e-05 -6.82406e-23)
(0.103017 -2.89276e-05 -7.31764e-23)
(0.10353 9.4128e-07 1.12167e-23)
(0.103535 -3.88132e-06 7.96068e-23)
(0.102989 4.91175e-05 8.36179e-24)
(0.103004 -6.31337e-05 0)
(0.102977 7.56965e-05 9.48061e-22)
(0.103003 -0.000124074 1.17821e-22)
(0.102988 -9.41895e-05 1.5712e-22)
(0.102991 9.78025e-05 -1.59995e-21)
(0.102951 0.000122946 2.83755e-22)
(0.103007 5.35572e-07 0)
(0.103039 0.00010036 1.57324e-22)
(0.103016 0.000102886 8.18964e-23)
(0.103091 0.00011188 1.41896e-22)
(0.103065 0.000104657 -2.16443e-22)
(0.103136 0.000121342 -7.0771e-23)
(0.103115 0.000118018 -3.53419e-23)
(0.103175 0.000118272 3.55121e-23)
(0.103156 0.000121324 3.5936e-23)
(0.103214 0.000105151 0)
(0.103195 0.000112613 -8.35003e-26)
(0.103251 8.92618e-05 0)
(0.103232 9.71711e-05 0)
(0.103285 7.56446e-05 1.32093e-25)
(0.103268 8.19967e-05 0)
(0.103317 6.57325e-05 0)
(0.103301 7.02588e-05 0)
(0.103345 5.85689e-05 0)
(0.103331 6.18968e-05 0)
(0.10337 5.27529e-05 0)
(0.103358 5.55323e-05 0)
(0.103392 4.74822e-05 1.21348e-25)
(0.103381 4.99742e-05 0)
(0.103412 4.26269e-05 -5.62695e-30)
(0.103403 4.51169e-05 0)
(0.10343 3.85459e-05 0)
(0.103422 4.04612e-05 0)
(0.103446 3.46605e-05 -2.26444e-25)
(0.103438 3.66031e-05 0)
(0.103461 3.10279e-05 0)
(0.103454 3.27918e-05 0)
(0.103474 2.79434e-05 0)
(0.103467 2.94064e-05 0)
(0.103485 2.55711e-05 0)
(0.10348 2.66682e-05 0)
(0.103496 2.39012e-05 0)
(0.103491 2.4661e-05 0)
(0.103504 2.25806e-05 0)
(0.1035 2.32566e-05 0)
(0.103512 2.03069e-05 -6.16945e-24)
(0.103508 2.15497e-05 0)
(0.103519 1.54515e-05 0)
(0.103516 1.84768e-05 -1.19833e-23)
(0.103528 5.35815e-06 6.56676e-27)
(0.103524 1.0733e-05 0)
(0.103536 -5.24263e-06 -4.46853e-23)
(0.103533 4.4485e-07 2.7019e-24)
(0.103535 -2.66491e-06 2.1911e-23)
(0.103539 -2.76446e-06 1.60748e-23)
(0.103537 -5.38689e-06 -1.10958e-23)
(0.103541 8.83218e-07 -5.58484e-24)
(0.10354 2.13444e-07 5.57571e-24)
(0.103538 -4.97176e-07 0)
(0.10354 2.45735e-06 -5.06697e-23)
(0.103526 -1.45153e-05 -2.27741e-23)
(0.103536 -5.84045e-06 -4.35944e-23)
(0.10353 -9.97659e-06 1.00322e-22)
(0.103517 -2.2115e-05 -1.19277e-23)
(0.103521 -1.86358e-05 0)
(0.10351 -2.65462e-05 0)
(0.103514 -2.49566e-05 0)
(0.103501 -2.74699e-05 9.25474e-30)
(0.103506 -2.72257e-05 0)
(0.103492 -2.83903e-05 0)
(0.103497 -2.78656e-05 0)
(0.10348 -2.99171e-05 2.12507e-25)
(0.103486 -2.90649e-05 0)
(0.103468 -3.22209e-05 0)
(0.103474 -3.09664e-05 0)
(0.103454 -3.53031e-05 0)
(0.103461 -3.36768e-05 0)
(0.103438 -3.88835e-05 0)
(0.103446 -3.70539e-05 0)
(0.103421 -4.2776e-05 1.37618e-29)
(0.10343 -4.07877e-05 0)
(0.103402 -4.68914e-05 0)
(0.103412 -4.47784e-05 0)
(0.103381 -5.16135e-05 0)
(0.103392 -4.92272e-05 0)
(0.103357 -5.67346e-05 0)
(0.10337 -5.40252e-05 0)
(0.103331 -6.23568e-05 0)
(0.103344 -5.94805e-05 0)
(0.103301 -6.89641e-05 2.6131e-25)
(0.103316 -6.54886e-05 0)
(0.103268 -7.73925e-05 0)
(0.103284 -7.28985e-05 0)
(0.103233 -8.82112e-05 0)
(0.103251 -8.25069e-05 0)
(0.103197 -0.000100872 -2.77334e-25)
(0.103215 -9.44014e-05 0)
(0.10316 -0.000113611 2.82632e-25)
(0.103179 -0.00010737 0)
(0.103119 -0.000125081 -2.87906e-25)
(0.10314 -0.00011947 0)
(0.103072 -0.00013733 3.78988e-23)
(0.103097 -0.000130838 -7.4719e-23)
(0.103016 -0.000151688 -3.8249e-23)
(0.103045 -0.00014433 7.75654e-23)
(0.102971 -0.000128277 1.36703e-24)
(0.102984 -0.000158554 7.85502e-23)
(0.10298 2.38796e-05 -7.00624e-23)
(0.102991 -3.23775e-05 0)
(0.102966 5.4806e-05 -6.79617e-22)
(0.102975 -6.19585e-05 0)
(0.103527 1.35297e-05 -1.12386e-23)
(0.103532 9.50315e-06 8.23326e-24)
(0.103542 2.97946e-06 -4.29366e-23)
(0.103542 -2.02553e-06 -4.86674e-23)
(0.102938 7.76858e-05 -6.66613e-22)
(0.102957 -9.59522e-05 -1.58657e-22)
(0.102927 0.000132766 0)
(0.103004 0.00014074 -1.84727e-22)
(0.102936 -0.000132154 -7.79218e-23)
(0.10295 -0.000165974 1.19233e-22)
(0.102967 0.000154427 3.70896e-22)
(0.102982 -3.63993e-06 0)
(0.103065 0.000130502 0)
(0.103035 0.000135202 -1.64583e-22)
(0.103121 0.000133639 0)
(0.103094 0.000130534 0)
(0.103163 0.000137867 0)
(0.103144 0.000136442 3.66147e-23)
(0.103194 0.000134463 0)
(0.103179 0.00013747 0)
(0.103225 0.000122161 0)
(0.10321 0.000129067 0)
(0.103257 0.000106327 0)
(0.103241 0.000114332 0)
(0.10329 9.18899e-05 -1.32093e-25)
(0.103274 9.87458e-05 0)
(0.10332 8.05763e-05 0)
(0.103305 8.58514e-05 0)
(0.103348 7.18169e-05 0)
(0.103335 7.59477e-05 0)
(0.103373 6.45033e-05 0)
(0.103361 6.80301e-05 0)
(0.103395 5.7975e-05 8.07021e-30)
(0.103384 6.11407e-05 0)
(0.103415 5.20743e-05 -7.38122e-30)
(0.103405 5.49732e-05 0)
(0.103432 4.68856e-05 0)
(0.103424 4.93826e-05 0)
(0.103448 4.21683e-05 -5.89301e-30)
(0.103441 4.44867e-05 0)
(0.103462 3.78498e-05 0)
(0.103455 3.99511e-05 0)
(0.103475 3.40735e-05 0)
(0.103469 3.58852e-05 0)
(0.103487 3.096e-05 0)
(0.103481 3.24315e-05 0)
(0.103497 2.85156e-05 0)
(0.103492 2.96595e-05 0)
(0.103505 2.65918e-05 0)
(0.103501 2.75073e-05 0)
(0.103512 2.47118e-05 0)
(0.103509 2.57844e-05 0)
(0.103519 1.97176e-05 1.19061e-23)
(0.103515 2.24904e-05 1.21652e-23)
(0.103522 1.67455e-05 -2.28694e-23)
(0.103537 -7.61364e-06 -2.19479e-23)
(0.103538 -2.6062e-06 0)
(0.103538 -5.30432e-06 -2.21667e-23)
(0.103538 -3.01926e-06 0)
(0.103537 -5.91781e-06 2.23992e-23)
(0.103541 1.80531e-06 3.34273e-23)
(0.103539 -3.24385e-07 -1.1297e-23)
(0.103542 4.15836e-06 -6.5687e-23)
(0.103523 -2.0854e-05 1.14893e-23)
(0.103533 -1.09398e-05 4.28488e-23)
(0.103528 -1.72406e-05 0)
(0.103515 -2.72797e-05 -2.37696e-23)
(0.103519 -2.42602e-05 2.3848e-23)
(0.103509 -3.02771e-05 0)
(0.103512 -2.93553e-05 0)
(0.103501 -3.17223e-05 1.09807e-29)
(0.103505 -3.10632e-05 0)
(0.103492 -3.3403e-05 0)
(0.103497 -3.24937e-05 0)
(0.103482 -3.57027e-05 0)
(0.103487 -3.44675e-05 0)
(0.103469 -3.8754e-05 0)
(0.103476 -3.71279e-05 0)
(0.103455 -4.25909e-05 0)
(0.103463 -4.05835e-05 0)
(0.10344 -4.69813e-05 2.28888e-25)
(0.103448 -4.47373e-05 0)
(0.103423 -5.17266e-05 -2.34309e-25)
(0.103432 -4.93111e-05 0)
(0.103404 -5.68725e-05 0)
(0.103414 -5.42275e-05 0)
(0.103383 -6.27092e-05 0)
(0.103394 -5.97121e-05 0)
(0.10336 -6.92382e-05 0)
(0.103372 -6.58677e-05 0)
(0.103333 -7.64507e-05 0)
(0.103347 -7.27557e-05 0)
(0.103304 -8.46254e-05 0)
(0.103319 -8.03874e-05 0)
(0.103271 -9.42813e-05 0)
(0.103288 -8.92374e-05 0)
(0.103237 -0.000105772 -2.72067e-25)
(0.103254 -9.9797e-05 0)
(0.103201 -0.000118845 2.77394e-25)
(0.103219 -0.000112158 0)
(0.103164 -0.000132569 -2.82698e-25)
(0.103183 -0.000125699 0)
(0.103125 -0.000146177 0)
(0.103145 -0.000139376 0)
(0.10308 -0.000160175 0)
(0.103103 -0.00015306 0)
(0.103027 -0.00017763 3.02178e-25)
(0.103055 -0.000168017 3.82395e-23)
(0.102964 -0.000199392 -1.99959e-22)
(0.102997 -0.000188448 0)
(0.102913 -0.000173902 -1.18274e-22)
(0.102928 -0.000210498 -1.36454e-24)
(0.102957 2.45547e-05 2.19089e-22)
(0.102964 -3.36118e-05 0)
(0.103539 4.07926e-06 -4.27967e-23)
(0.103539 -6.38711e-06 -8.25014e-23)
(0.102934 5.5679e-05 -1.16603e-22)
(0.10292 9.74553e-05 1.48594e-24)
(0.102907 8.21741e-05 3.39944e-22)
(0.102945 -6.09506e-05 0)
(0.102923 -9.61666e-05 3.98523e-23)
(0.102937 0.000174393 -3.39368e-22)
(0.102896 0.000175476 2.93518e-22)
(0.102895 0.000130028 -2.91519e-22)
(0.102899 -0.00013617 -1.19846e-22)
(0.102873 -0.000181704 8.0216e-23)
(0.102889 -0.0002222 7.88277e-23)
(0.102958 -5.23322e-06 0)
(0.103016 0.000187877 1.03308e-23)
(0.102939 0.000220474 -1.48271e-24)
(0.102978 0.000203547 7.99792e-23)
(0.103084 0.000166436 7.91971e-23)
(0.103051 0.000175201 -7.96083e-23)
(0.103143 0.000157481 1.45385e-25)
(0.103116 0.000160858 0)
(0.103184 0.000154553 0)
(0.103166 0.000155827 0)
(0.103213 0.000148478 0)
(0.103199 0.00015229 0)
(0.103239 0.00013654 0)
(0.103226 0.000143096 0)
(0.103267 0.000121591 1.34789e-25)
(0.103253 0.000129195 0)
(0.103297 0.000107197 0)
(0.103282 0.00011417 0)
(0.103326 9.49652e-05 0)
(0.103311 0.000100793 0)
(0.103353 8.48099e-05 0)
(0.103339 8.96667e-05 0)
(0.103377 7.60758e-05 0)
(0.103365 8.03021e-05 0)
(0.103398 6.82876e-05 -1.21356e-25)
(0.103388 7.20749e-05 0)
(0.103418 6.12949e-05 -8.6365e-30)
(0.103408 6.47019e-05 0)
(0.103435 5.5108e-05 0)
(0.103427 5.80987e-05 0)
(0.103451 4.95799e-05 2.26468e-25)
(0.103443 5.22774e-05 0)
(0.103465 4.45708e-05 0)
(0.103458 4.70113e-05 0)
(0.103477 4.01052e-05 0)
(0.103471 4.22663e-05 0)
(0.103489 3.6242e-05 0)
(0.103483 3.80971e-05 0)
(0.103498 3.29831e-05 0)
(0.103494 3.45398e-05 0)
(0.103506 3.02768e-05 0)
(0.103503 3.1566e-05 0)
(0.103513 2.79415e-05 1.9376e-25)
(0.10351 2.91164e-05 0)
(0.103519 2.45029e-05 -1.19581e-23)
(0.103516 2.66712e-05 0)
(0.103527 1.78052e-05 1.13868e-23)
(0.103523 2.15171e-05 0)
(0.103539 9.74632e-06 1.08957e-23)
(0.103532 1.39519e-05 -1.1126e-23)
(0.103543 -4.66234e-06 2.15286e-23)
(0.103545 4.77209e-06 0)
(0.103544 8.75451e-07 3.20452e-23)
(0.103538 -7.46623e-06 0)
(0.103541 -7.50488e-06 0)
(0.103536 -3.41149e-06 0)
(0.103536 -5.56978e-06 0)
(0.10354 1.39352e-06 0)
(0.103537 -5.97986e-07 0)
(0.103545 4.34724e-06 4.37595e-23)
(0.103543 4.10408e-06 1.08805e-23)
(0.103545 -2.88359e-06 1.0773e-23)
(0.103546 1.54775e-06 8.58155e-23)
(0.103531 -1.75209e-05 5.58598e-23)
(0.103544 -9.25621e-06 1.07342e-23)
(0.103537 -1.31769e-05 -2.17819e-23)
(0.103522 -2.57066e-05 1.14792e-23)
(0.103526 -2.17293e-05 -6.88065e-23)
(0.103515 -3.13239e-05 2.10605e-29)
(0.103518 -2.89382e-05 0)
(0.103509 -3.35446e-05 0)
(0.103512 -3.25333e-05 0)
(0.103502 -3.56722e-05 1.25857e-29)
(0.103506 -3.45862e-05 0)
(0.103493 -3.82258e-05 0)
(0.103498 -3.688e-05 0)
(0.103483 -4.13631e-05 0)
(0.103488 -3.97173e-05 0)
(0.103471 -4.51893e-05 0)
(0.103477 -4.31824e-05 0)
(0.103457 -4.97745e-05 0)
(0.103464 -4.73923e-05 0)
(0.103442 -5.49563e-05 -4.57793e-25)
(0.10345 -5.23073e-05 0)
(0.103426 -6.05697e-05 0)
(0.103434 -5.77093e-05 0)
(0.103407 -6.67211e-05 0)
(0.103416 -6.35586e-05 0)
(0.103386 -7.36787e-05 0)
(0.103397 -7.00953e-05 0)
(0.103363 -8.15141e-05 0)
(0.103375 -7.74817e-05 0)
(0.103338 -9.02194e-05 -2.56e-25)
(0.103351 -8.57564e-05 0)
(0.103309 -9.99466e-05 0)
(0.103324 -9.49397e-05 0)
(0.103277 -0.000110944 0)
(0.103293 -0.000105275 0)
(0.103243 -0.000123323 2.72067e-25)
(0.10326 -0.000116965 0)
(0.103207 -0.000136925 3.77883e-29)
(0.103225 -0.000129993 0)
(0.10317 -0.000151428 5.65438e-25)
(0.103189 -0.00014408 0)
(0.10313 -0.000166912 0)
(0.103151 -0.000159007 0)
(0.103086 -0.000184186 0)
(0.103109 -0.000175255 0)
(0.103036 -0.00020412 4.64467e-29)
(0.103062 -0.000193883 0)
(0.102976 -0.000226992 0)
(0.103007 -0.000215081 0)
(0.102906 -0.000255022 -1.19537e-22)
(0.102942 -0.000240181 0)
(0.102848 -0.000233572 -1.3436e-24)
(0.102867 -0.000270878 2.03442e-22)
(0.102931 2.8274e-05 0)
(0.102901 0.000231906 4.62534e-22)
(0.102903 6.29352e-05 7.98592e-23)
(0.103537 1.52818e-05 -1.08752e-23)
(0.103543 1.16936e-05 0)
(0.103551 -6.65872e-07 1.05074e-23)
(0.10355 -5.63834e-06 -2.08246e-23)
(0.102936 -3.13e-05 0)
(0.102913 -6.01637e-05 0)
(0.102876 0.000104688 0)
(0.102886 -9.72409e-05 -3.92511e-23)
(0.102858 -0.000141001 -7.93785e-23)
(0.102831 -0.000191167 0)
(0.102805 -0.000245748 2.05227e-22)
(0.102825 -0.000286384 -1.64045e-22)
(0.102932 -1.7961e-06 0)
(0.102945 0.000259632 -3.84843e-26)
(0.102866 0.000245901 1.46709e-22)
(0.10287 0.000286773 -5.24872e-22)
(0.102907 0.000274183 1.52435e-22)
(0.103026 0.000228786 -4.98902e-23)
(0.102986 0.0002437 -7.92985e-23)
(0.103097 0.000201948 0)
(0.103062 0.00021441 0)
(0.103157 0.000182955 -1.45372e-25)
(0.103129 0.000191453 0)
(0.103198 0.000171117 0)
(0.10318 0.000176401 0)
(0.103227 0.000161118 0)
(0.103214 0.000166218 0)
(0.103252 0.000149227 0)
(0.103239 0.000155478 0)
(0.103278 0.000135404 -1.34789e-25)
(0.103264 0.000142457 0)
(0.103305 0.000121427 0)
(0.103291 0.000128327 0)
(0.103332 0.000108613 0)
(0.103319 0.000114835 0)
(0.103358 9.7304e-05 0)
(0.103345 0.000102777 0)
(0.103381 8.73062e-05 0)
(0.10337 9.21603e-05 0)
(0.103402 7.83552e-05 1.21377e-25)
(0.103392 8.27098e-05 0)