/*--------------------------------*- C++ -*----------------------------------*\
  =========                 |
  \\      /  F ield         | OpenFOAM: The Open Source CFD Toolbox
   \\    /   O peration     | Website:  https://openfoam.org
    \\  /    A nd           | Version:  10
     \\/     M anipulation  |
\*---------------------------------------------------------------------------*/
FoamFile
{
    format      ascii;
    class       volVectorField;
    location    "11.5";
    object      U;
}
// * * * * * * * * * * * * * * * * * * * * * * * * * * * * * * * * * * * * * //

dimensions      [0 1 -1 0 0 0 0];

internalField   nonuniform List<vector> 
33313
(
(0.335695 0.0153965 -5.62282e-21)
(0.488117 0.00815434 3.04637e-21)
(0.431764 0.0292022 0)
(0.189266 0.0117811 0)
(0.812869 0.0247414 -8.39728e-23)
(0.772459 0.0259063 0)
(0.658508 0.0289559 -1.14845e-21)
(0.684926 0.0220393 0)
(0.783105 0.0187623 2.32298e-22)
(0.658481 0.019185 1.5594e-21)
(0.73439 0.0253391 0)
(-0.0412003 0.0304042 -2.01354e-20)
(-0.016665 0.0117198 -7.10774e-20)
(-0.016199 0.0113588 -1.50826e-19)
(0.428199 -0.351654 -1.96177e-22)
(0.162799 -0.120774 2.48267e-21)
(0.143743 -0.114517 6.04842e-21)
(1.40478 -0.458566 0)
(1.39134 -0.343082 0)
(1.37855 -0.315914 0)
(1.42803 -0.389663 2.61074e-20)
(0.522009 0.0103249 0)
(0.441239 0.311179 -1.27034e-19)
(0.29013 0.266524 3.84702e-19)
(0.397762 0.00121491 -8.2564e-20)
(1.00471 -0.0198222 -4.83667e-20)
(1.00463 -0.0387401 3.35752e-20)
(1.00497 -0.0781014 0)
(0.964029 0.104903 -4.34321e-20)
(1.03661 0.099872 3.45498e-20)
(1.01615 0.0814272 2.40001e-20)
(0.996576 -0.0191228 -3.02229e-20)
(0.882359 0.0570873 -1.69798e-20)
(-0.0629001 -0.0709188 6.57851e-20)
(-0.0659985 -0.0424282 -1.36977e-19)
(-0.0659058 -0.0377502 8.5261e-20)
(-0.105322 -0.0635099 1.17888e-20)
(1.15867 -0.0577933 8.57687e-23)
(1.16709 -0.0591358 4.19788e-21)
(1.43604 0.277805 -1.52753e-20)
(1.41883 0.261108 2.83758e-20)
(1.01268 -0.197623 -5.54764e-20)
(1.01952 -0.194119 -4.55456e-21)
(-0.0646001 -0.033674 -5.63952e-20)
(-0.0740601 0.0701769 2.90393e-20)
(-0.0862956 0.065193 -1.1694e-19)
(0.19299 0.480401 9.09705e-20)
(0.174422 0.346186 3.32428e-20)
(0.492973 -0.0499511 1.66301e-21)
(0.618522 -0.0269844 -2.41195e-21)
(1.04193 0.0676405 -3.05442e-20)
(1.05976 0.0622725 1.68789e-20)
(1.06437 -0.0969905 -4.44268e-20)
(1.01927 -0.0604067 1.20621e-19)
(0.464931 0.525346 1.5201e-19)
(0.40316 0.579813 -7.33406e-20)
(0.619305 0.713773 -9.25142e-20)
(0.367034 0.656119 2.11844e-19)
(0.222743 -0.37652 4.19899e-20)
(0.35543 -0.699964 -3.35587e-21)
(0.209297 0.519385 -6.32737e-20)
(0.40774 -0.281439 2.34896e-19)
(0.22748 -0.210283 -7.06305e-20)
(0.0975221 -0.150473 0)
(0.101121 -0.00479748 0)
(0.136922 -0.0158519 1.71832e-20)
(1.40981 0.113446 3.89947e-20)
(1.3485 -0.337464 0)
(1.34785 -0.330114 0)
(0.0754148 -0.178245 3.45951e-20)
(0.101264 -0.1566 0)
(0.206495 -0.136756 0)
(0.153271 -0.0602061 7.92429e-21)
(1.44832 0.317455 5.61957e-20)
(-0.117616 -0.194776 7.41758e-20)
(-0.0413021 -0.189253 5.29049e-20)
(0.226358 -0.134734 0)
(0.202582 -0.150909 3.04907e-20)
(1.37021 0.356353 4.98029e-20)
(1.39264 0.305973 -3.06132e-20)
(0.818834 -0.0641648 1.48196e-19)
(0.833892 -0.0435622 -4.96475e-20)
(0.793449 -0.100216 0)
(1.25229 0.215584 1.54703e-20)
(1.11355 0.229989 -3.28881e-21)
(0.514376 0.0646155 -1.3084e-20)
(0.0461708 0.0342481 0)
(-0.0507807 0.0634237 1.39863e-20)
(-0.0685214 0.0548797 7.90738e-20)
(0.0381774 -0.137875 2.83197e-19)
(-0.134537 -0.179649 5.70804e-21)
(-0.0997039 -0.189128 -2.31616e-21)
(-0.10579 -0.148396 -3.93522e-19)
(-0.115595 -0.149441 0)
(-0.11877 -0.145397 4.30122e-20)
(1.04245 0.0620437 0)
(1.01603 0.0594769 -3.58535e-21)
(0.568322 -0.0551531 -3.10061e-21)
(0.712684 -0.0368969 5.85745e-22)
(1.44785 -0.335962 0)
(1.44555 -0.370633 -5.73342e-20)
(1.43417 -0.304388 0)
(1.43967 -0.262486 2.77335e-20)
(1.46604 -0.276224 4.60065e-21)
(1.37231 -0.253806 -3.08649e-20)
(0.215032 -0.0292211 -1.43017e-21)
(0.148101 -0.0556888 -7.52711e-20)
(-0.0325036 -0.0532106 -5.30828e-20)
(-0.0319031 -0.0530822 -2.65401e-22)
(0.89647 -0.61277 -3.44094e-21)
(1.09245 -0.787215 1.61547e-20)
(0.920918 -0.730768 4.06464e-20)
(0.706582 -0.496454 0)
(0.684751 -0.21142 6.66924e-20)
(0.248031 -0.0456329 3.2622e-20)
(0.59858 -0.099557 -2.96089e-20)
(0.20501 0.0534224 -4.345e-19)
(0.169873 0.19902 4.97057e-20)
(1.46417 -0.26574 1.39032e-21)
(1.45888 -0.258473 0)
(-0.0841228 -0.0740782 0)
(-0.0506835 -0.0407077 8.84127e-20)
(-0.0704435 -0.0581071 0)
(0.411037 -0.0167752 -3.86607e-21)
(0.482158 -0.0121228 2.96734e-21)
(0.24558 -0.0395081 -8.41628e-21)
(0.758798 0.707607 1.6229e-19)
(1.30455 0.0169149 1.6458e-21)
(1.30862 0.0112438 0)
(-0.156911 -0.0329106 2.01955e-20)
(-0.176207 -0.0558031 -2.49624e-20)
(-0.0511948 -0.0586486 -1.42844e-19)
(-0.0464963 -0.0477289 2.61379e-19)
(0.865263 0.671523 3.01297e-20)
(1.02229 0.689852 4.58255e-20)
(0.885456 0.63715 0)
(0.734837 0.576696 0)
(0.483024 -0.336892 -5.45002e-21)
(0.608414 -0.432621 0)
(0.85313 -0.767231 -1.06329e-19)
(0.853836 -0.730316 -4.16275e-20)
(0.723833 -0.781083 1.17108e-19)
(1.28638 0.0193381 3.28821e-21)
(1.28147 0.0240809 2.75607e-20)
(1.30329 0.0218915 -3.85433e-22)
(1.09786 -0.0261697 0)
(1.1031 -0.0263452 -2.60894e-22)
(1.10523 -0.0303174 6.45795e-22)
(1.11006 -0.0331182 7.63269e-24)
(0.994975 -0.238343 4.18876e-20)
(1.00843 -0.244402 0)
(0.992399 -0.193223 -7.22954e-20)
(0.999977 -0.209034 4.13432e-20)
(0.937336 0.0990827 2.97013e-20)
(0.929774 0.118176 -4.5945e-20)
(0.950388 0.127355 2.81716e-20)
(0.94338 0.138551 1.64359e-19)
(0.0626277 -0.172823 2.20247e-20)
(-0.0520114 -0.196852 0)
(0.0314918 -0.189884 -2.91639e-20)
(-0.0424279 -0.0381628 -2.19487e-19)
(0.433774 0.353281 4.28282e-21)
(0.463325 0.417187 -1.65457e-20)
(0.835615 0.697486 -4.07787e-20)
(0.470689 0.467295 -6.13943e-20)
(-0.0292945 -0.0112841 0)
(-0.0451578 0.0254397 6.83423e-20)
(-0.0911473 0.010924 -4.63219e-20)
(0.381282 0.0745471 0)
(0.835726 0.0196402 0)
(0.884485 0.019643 -5.38047e-22)
(1.07742 -0.0113655 1.3123e-21)
(1.0789 -0.0155812 -7.6563e-22)
(1.09655 0.0545971 5.54376e-22)
(1.0999 0.0599016 2.49117e-23)
(1.01363 -0.0908031 9.91395e-21)
(1.02542 -0.0749495 -4.26452e-20)
(0.198822 -0.00917423 8.99097e-20)
(0.114215 -0.0215588 -6.96585e-20)
(1.24196 0.156264 0)
(1.24939 0.161117 0)
(1.1366 0.0498253 6.11704e-23)
(1.14164 0.0540996 1.3291e-21)
(1.09776 0.204616 -2.99947e-20)
(1.09356 0.198038 1.08218e-20)
(0.64258 -0.0932972 0)
(0.64813 -0.0836881 -1.39893e-20)
(0.066852 -0.0339482 1.64115e-20)
(0.0429932 -0.0414098 1.80825e-20)
(-0.0676473 -0.0415006 1.89654e-22)
(-0.16466 -0.187797 -1.95411e-19)
(0.834856 0.0368583 -5.3022e-20)
(0.865428 0.0366705 2.25717e-20)
(-0.167587 -0.061815 5.64006e-21)
(-0.195214 -0.0661365 0)
(0.91688 0.243834 0)
(0.891022 0.274428 -4.56991e-21)
(0.857085 0.366061 -5.78076e-20)
(0.959859 -0.2877 2.59589e-20)
(0.931434 -0.316676 0)
(0.926342 -0.472714 3.12835e-20)
(0.810832 -0.00794896 -4.45121e-20)
(0.839545 -0.000579689 5.40199e-20)
(1.04096 -0.0666591 3.70422e-21)
(1.03399 -0.0598389 -8.17279e-21)
(-0.106767 0.0794986 0)
(-0.0891512 0.0805988 -4.14651e-20)
(1.20723 -0.663762 -1.56472e-20)
(1.14503 -0.667955 7.93364e-21)
(1.02928 -0.0563858 -2.89234e-20)
(1.03435 -0.0652019 3.4491e-20)
(0.784321 0.0257794 5.80754e-24)
(0.844427 0.0231412 -6.72751e-24)
(0.842914 0.0226624 -8.47059e-22)
(0.793464 0.0240775 -4.9922e-22)
(0.554715 -0.428285 5.33529e-21)
(-0.0200578 0.00983686 6.71801e-20)
(-0.021848 0.0144106 -3.59835e-20)
(0.978039 0.193589 1.2381e-20)
(0.977515 0.175875 -5.79017e-21)
(0.989385 0.176009 5.81484e-21)
(0.991868 0.194487 0)
(1.47315 -0.261314 -2.38029e-20)
(1.47525 -0.245172 1.33558e-21)
(1.47056 -0.239145 2.3146e-20)
(1.095 0.30194 0)
(1.07976 0.295894 -3.27691e-20)
(1.09833 0.300234 0)
(-0.0607002 0.0436894 -4.71771e-20)
(-0.0221677 0.0149841 -1.06296e-19)
(-0.0268094 0.0181809 0)
(0.190477 -0.129888 -3.48974e-20)
(0.156328 -0.113093 1.03954e-20)
(1.07516 -0.00973188 9.76573e-22)
(1.08845 0.023658 -2.18052e-21)
(1.09062 0.0277598 -9.10683e-22)
(1.22207 -0.40958 0)
(1.03472 -0.202826 0)
(0.746347 -0.0182508 1.80445e-21)
(0.763495 -0.00582692 1.61305e-21)
(0.783008 0.00719352 -2.17181e-21)
(0.801778 0.0191829 1.66656e-22)
(0.817684 0.028838 0)
(0.834321 0.0387932 1.12245e-21)
(0.850408 0.0478763 -1.12225e-21)
(0.866129 0.0561561 -1.0666e-21)
(0.880919 0.063468 1.06595e-21)
(0.895052 0.0699346 1.01394e-21)
(0.908083 0.0754389 -1.01327e-21)
(0.92039 0.0801261 -9.65939e-22)
(0.931584 0.0839244 9.65264e-22)
(0.942055 0.0869775 0)
(0.951437 0.0892446 0)
(0.960136 0.0908603 0)
(0.96781 0.0918072 -8.53197e-22)
(0.974875 0.0922066 8.53917e-22)
(0.980994 0.092055 0)
(0.986618 0.0914598 0)
(0.991346 0.0904195 0)
(0.995779 0.0890386 -7.44665e-22)
(0.999227 0.0872902 2.16355e-23)
(1.00286 0.0853184 1.42493e-21)
(1.0049 0.0829922 -7.01857e-22)
(1.00857 0.0806221 6.56889e-22)
(1.00832 0.0778059 -2.02432e-21)
(1.01071 0.0749752 -5.30282e-24)
(1.01125 0.0720513 0)
(1.0135 0.0689633 -1.86092e-22)
(1.01529 0.0656902 0)
(1.01738 0.0625145 3.54116e-22)
(0.727008 -0.038213 0)
(0.715583 -0.0423649 -3.869e-21)
(0.715175 -0.0541989 -1.18926e-21)
(0.734423 -0.0255871 -8.88006e-22)
(1.0228 0.0561415 3.46681e-22)
(1.01803 0.0588679 -3.29981e-22)
(0.997325 0.0636799 0)
(1.00352 0.0573663 1.634e-22)
(0.999723 0.060595 1.71451e-22)
(0.991201 0.0694963 0)
(0.994159 0.0666041 0)
(0.984499 0.0746479 0)
(0.98729 0.0720764 0)
(0.977342 0.0789405 6.10209e-27)
(0.981177 0.0769697 0)
(0.968927 0.0821305 0)
(0.973473 0.080728 0)
(0.958647 0.0839073 2.19321e-24)
(0.9641 0.0832264 0)
(0.946118 0.0839439 0)
(0.952703 0.0841663 0)
(0.931018 0.0818767 2.47266e-24)
(0.938911 0.0831949 0)
(0.913101 0.0773224 2.61898e-24)
(0.922423 0.0799309 0)
(0.892246 0.0699129 2.77231e-24)
(0.903042 0.0739919 3.31962e-28)
(0.868503 0.0593455 0)
(0.880724 0.0650347 0)
(0.842103 0.0454338 0)
(0.855614 0.0528103 0)
(0.813543 0.0281325 0)
(0.828038 0.0371981 0)
(0.78366 0.00759995 0)
(0.798792 0.0182632 0)
(0.754637 -0.0144491 -8.83422e-22)
(0.77096 -0.00186471 -2.07341e-22)
(0.742048 -0.0248313 1.14218e-23)
(0.701908 -0.0539368 2.01149e-23)
(0.704063 -0.0660127 -6.05385e-22)
(1.0027 0.0537304 0)
(0.716796 -0.0377368 3.27623e-21)
(1.01462 0.0513507 0)
(1.02654 0.0524315 -3.92441e-22)
(0.687005 -0.0666278 -2.34979e-23)
(0.694232 -0.0782783 6.22037e-22)
(1.00429 0.0498226 7.07807e-22)
(1.04087 0.0560644 0)
(0.698538 -0.050615 5.33391e-22)
(1.04265 0.052575 3.54446e-22)
(0.683525 -0.0896919 6.62819e-22)
(0.680022 -0.0639812 -5.76404e-22)
(0.672869 -0.0790089 0)
(0.767875 -0.00631115 6.86409e-23)
(0.726875 -0.0312732 -9.64176e-22)
(0.748071 -0.018227 -2.08106e-21)
(0.804345 0.0166657 -5.10558e-23)
(0.785524 0.0047003 8.88113e-22)
(0.848341 0.0409943 1.65748e-24)
(0.827142 0.0297388 1.76168e-21)
(0.885161 0.060022 0)
(0.867323 0.0509625 0)
(0.917338 0.0750852 0)
(0.901789 0.068042 0)
(0.945137 0.0863298 0)
(0.931799 0.0811749 0)
(0.968499 0.0939533 0)
(0.957361 0.0905735 0)
(0.98769 0.0983322 0)
(0.978595 0.0965192 0)
(1.00308 0.0999357 0)
(0.995836 0.0994499 0)
(1.0151 0.0992494 0)
(1.00948 0.0998487 0)
(1.02421 0.0967395 0)
(1.01998 0.098196 0)
(1.03087 0.0928253 0)
(1.02776 0.0949382 0)
(1.03561 0.0878662 -7.84967e-27)
(1.03322 0.0904675 0)
(1.0392 0.0821708 6.63462e-27)
(1.03658 0.0851027 0)
(1.03919 0.0759494 1.1181e-22)
(1.03751 0.078999 1.55085e-21)
(1.03773 0.0694656 3.74099e-22)
(1.03745 0.0726739 -6.71161e-22)
(1.03846 0.062843 -3.57351e-22)
(1.03813 0.0662033 1.84565e-22)
(1.03915 0.0595573 0)
(1.01582 0.047781 9.02146e-23)
(1.04313 0.0489997 1.45047e-23)
(1.02754 0.0488475 0)
(0.993051 0.0542138 2.14386e-23)
(0.999482 0.0465588 -6.88517e-22)
(0.996079 0.0504339 0)
(0.985548 0.0604985 0)
(0.989355 0.0573434 -8.89848e-23)
(0.977596 0.0661015 1.07689e-22)
(0.98135 0.0633415 0)
(0.969071 0.0708934 0)
(0.973259 0.0685707 -1.07958e-22)
(0.959849 0.0746109 1.29181e-26)
(0.964573 0.0729038 0)
(0.949431 0.0770128 0)
(0.954837 0.0760052 0)
(0.937445 0.0778227 -2.18757e-24)
(0.943671 0.0776414 0)
(0.923572 0.0767332 0)
(0.930766 0.0775359 0)
(0.907585 0.0734196 -2.4663e-24)
(0.915852 0.0753728 0)
(0.889377 0.06756 -2.61231e-24)
(0.898756 0.0708239 0)
(0.869014 0.058872 -2.76536e-24)
(0.879449 0.0635806 -3.31116e-28)
(0.846779 0.0471625 0)
(0.858099 0.0533978 0)
(0.823205 0.0323809 0)
(0.835114 0.0401486 0)
(0.799147 0.014636 0)
(0.811157 0.0238596 0)
(0.775931 -0.0055743 -3.58141e-24)
(0.787372 0.00477582 0)
(0.754363 -0.0273858 0)
(0.765009 -0.0161922 0)
(0.736268 -0.0501453 0)
(0.745026 -0.0381863 0)
(0.723703 -0.0737146 3.0475e-22)
(0.729586 -0.0624236 1.35761e-21)
(0.712875 -0.0958862 4.5558e-22)
(0.718529 -0.0854323 -1.83133e-21)
(1.00679 0.0459797 -2.60733e-22)
(0.70525 -0.0447277 1.0162e-21)
(0.675795 -0.1015 -6.63959e-22)
(0.710298 -0.107018 9.40567e-22)
(1.04364 0.0455852 -1.91748e-22)
(1.05962 0.0484505 -2.65422e-22)
(1.05974 0.0450203 -1.2987e-22)
(0.662107 -0.0774749 0)
(1.00113 0.0423871 -3.30308e-22)
(1.00337 0.042702 -8.19413e-23)
(1.00626 0.0385303 -3.61769e-22)
(0.683331 -0.0586572 1.62062e-23)
(0.659435 -0.0918418 0)
(0.768886 -0.0096709 2.52346e-22)
(0.721735 -0.0362862 1.30499e-21)
(0.746041 -0.0225368 -5.12798e-22)
(0.814547 0.0158254 9.56617e-22)
(0.792764 0.00362265 0)
(0.855955 0.0392316 -2.44407e-23)
(0.835501 0.0276794 -4.37669e-22)
(0.897094 0.0601403 9.77213e-23)
(0.877263 0.0502564 -1.23274e-22)
(0.932337 0.0769004 0)
(0.915425 0.069012 0)
(0.962276 0.089598 0)
(0.947929 0.0837494 0)
(0.98738 0.0984814 0)
(0.975426 0.0944952 0)
(1.00787 0.103893 0)
(0.998181 0.101596 0)
(1.02419 0.106269 0)
(1.01652 0.105429 0)
(1.03684 0.106108 1.19088e-24)
(1.03094 0.106474 0)
(1.04634 0.103902 0)
(1.04195 0.105232 0)
(1.0532 0.100104 0)
(1.05006 0.102178 0)
(1.05786 0.0951174 0)
(1.05574 0.0977462 0)
(1.06076 0.0892743 -1.15698e-26)
(1.0594 0.0923124 0)
(1.06232 0.0828477 1.03565e-26)
(1.06138 0.0861905 0)
(1.06243 0.0761786 1.52479e-23)
(1.06197 0.0796144 0)
(1.0611 0.0693453 4.70903e-23)
(1.0615 0.0727794 4.06532e-22)
(1.05995 0.0623943 -9.41434e-23)
(1.06049 0.0658509 -4.87131e-23)
(1.05965 0.0554276 9.12699e-23)
(1.05947 0.0589319 1.83669e-22)
(1.05976 0.0518963 -9.26931e-23)
(1.01726 0.0442034 1.07291e-22)
(1.02854 0.0453568 0)
(1.00734 0.0388582 -2.24363e-22)
(1.00948 0.0421902 4.41203e-23)
(0.991544 0.0496355 -9.60462e-24)
(0.996264 0.0461182 0)
(0.981845 0.0560179 -2.32247e-23)
(0.986658 0.0528706 3.44328e-23)
(0.971742 0.061473 -1.64404e-24)
(0.976811 0.0588655 -2.44569e-23)
(0.961265 0.0660107 0)
(0.966529 0.0638842 0)
(0.950118 0.069272 1.87747e-26)
(0.955772 0.0678049 0)
(0.93805 0.0710512 2.03255e-24)
(0.944213 0.0703629 0)
(0.924816 0.0710952 0)
(0.931594 0.0713075 0)
(0.910225 0.0691345 0)
(0.917699 0.0703814 0)
(0.894189 0.064901 0)
(0.902387 0.0673154 0)
(0.876772 0.058154 2.66776e-24)
(0.885641 0.0618513 0)
(0.858231 0.0487174 0)
(0.867615 0.0537754 0)
(0.839057 0.0365265 0)
(0.848681 0.0429606 0)
(0.819982 0.0216733 0)
(0.829452 0.0294164 0)
(0.801993 0.00441502 0)
(0.810778 0.0133175 0)
(0.786234 -0.0146761 3.60868e-24)
(0.793779 -0.00496396 0)
(0.773416 -0.0350573 0)
(0.779439 -0.0246701 0)
(0.764175 -0.0564191 -5.41872e-22)
(0.768288 -0.0455925 0)
(0.759613 -0.0774748 5.38884e-25)
(0.761274 -0.0669741 5.55014e-22)
(0.758115 -0.0983757 1.24789e-22)
(0.758907 -0.0879859 -1.20403e-21)
(0.706855 -0.117558 1.2859e-21)
(0.759349 -0.11908 0)
(0.75884 -0.108741 9.33348e-22)
(0.662697 -0.0714962 -2.87246e-21)
(0.698445 -0.0493353 1.47973e-21)
(0.644753 -0.0899439 -1.28338e-21)
(0.667567 -0.112626 0)
(1.01139 0.0346283 3.55584e-22)
(0.759674 -0.129417 0)
(0.705058 -0.128386 -2.96082e-21)
(1.04367 0.0421709 8.51762e-23)
(1.05933 0.0416314 -1.2167e-22)
(1.07561 0.0473761 -3.9751e-22)
(0.641732 -0.0840579 0)
(0.675509 -0.0616029 8.38889e-22)
(1.07518 0.0439679 0)
(0.646474 -0.103458 0)
(0.774549 -0.0115085 -1.06834e-21)
(0.725616 -0.0366373 -8.4492e-22)
(0.750318 -0.024239 8.61875e-22)
(0.823312 0.0140962 1.66971e-22)
(0.799747 0.00162761 -5.18796e-22)
(0.870201 0.0387181 6.43908e-22)
(0.847257 0.0266669 -1.03908e-22)
(0.911785 0.0603479 1.47371e-22)
(0.891402 0.0498635 0)
(0.949044 0.0782545 6.09346e-26)
(0.931131 0.0698122 -9.77601e-23)
(0.980683 0.092344 0)
(0.965564 0.0857798 0)
(1.00689 0.102489 0)
(0.994439 0.0979029 0)
(1.02817 0.108966 0)
(1.01812 0.106158 0)
(1.04499 0.112208 0)
(1.03711 0.110963 0)
(1.05791 0.112688 -1.21554e-24)
(1.0519 0.112762 0)
(1.06752 0.110908 -1.19088e-24)
(1.0631 0.11205 0)
(1.07437 0.107345 0)
(1.07126 0.109322 0)
(1.07897 0.102428 0)
(1.07692 0.105033 0)
(1.08174 0.09653 0)
(1.08055 0.0995871 0)
(1.08305 0.0899605 -1.54121e-26)
(1.08253 0.093328 0)
(1.08319 0.0829811 1.35652e-26)
(1.0832 0.0865404 0)
(1.0824 0.0758386 8.50522e-25)
(1.08285 0.079458 0)
(1.08087 0.0686328 1.61672e-24)
(1.08169 0.0722497 0)
(1.07888 0.061418 9.7055e-23)
(1.07991 0.0650058 0)
(1.07705 0.054335 9.3371e-23)
(1.07768 0.0578785 -1.88902e-22)
(1.07602 0.050843 1.36512e-22)
(1.01889 0.0406265 -2.12624e-23)
(1.02949 0.0418857 -8.15005e-23)
(1.01148 0.0349041 -3.10937e-22)
(1.01232 0.0383936 -3.88868e-23)
(1.0096 0.0372462 3.95359e-22)
(1.02149 0.0296425 -3.02499e-22)
(1.01561 0.0334659 2.84637e-23)
(0.9982 0.0441991 -3.18738e-26)
(1.0039 0.0408047 -8.32314e-23)
(0.986636 0.050487 9.40375e-23)
(0.992445 0.0474217 0)
(0.974814 0.0558742 1.58626e-24)
(0.980723 0.0533355 0)
(0.96265 0.0601795 0)
(0.968756 0.0581911 0)
(0.950046 0.0631191 2.42842e-26)
(0.956401 0.0618295 0)
(0.936872 0.0644746 -2.03255e-24)
(0.943535 0.0640068 0)
(0.923021 0.0640162 0)
(0.930036 0.0644847 0)
(0.908448 0.0615183 0)
(0.915824 0.0630333 0)
(0.893219 0.0567792 0)
(0.900906 0.059437 0)
(0.877554 0.0496471 -2.66776e-24)
(0.885421 0.0535156 0)
(0.861852 0.0400526 0)
(0.869675 0.0451543 0)
(0.846711 0.0280441 0)
(0.854169 0.0343381 0)
(0.832888 0.0138117 0)
(0.839585 0.0211852 0)
(0.821248 -0.00232451 0)
(0.826743 0.00595303 0)
(0.812563 -0.0198763 -3.74106e-24)
(0.816507 -0.0109602 0)
(0.807286 -0.038434 0)
(0.809487 -0.0290406 0)
(0.805593 -0.0578065 3.40551e-26)
(0.805992 -0.0480109 0)
(0.807276 -0.0773897 0)
(0.806087 -0.067602 0)
(0.811129 -0.097511 -3.07222e-22)
(0.809075 -0.0873997 0)
(0.815992 -0.118175 2.28707e-21)
(0.8137 -0.107755 -1.56691e-22)
(0.760047 -0.139965 2.71995e-21)
(0.819112 -0.139745 -2.67427e-21)
(0.817809 -0.128787 2.0011e-22)
(1.01687 0.0305342 1.18498e-23)
(0.651622 -0.0740758 0)
(0.700338 -0.0487926 4.79035e-23)
(0.627768 -0.102103 1.26543e-21)
(0.660955 -0.123958 6.55275e-22)
(1.07464 0.0406122 3.28986e-22)
(0.820125 -0.151049 -4.18303e-23)
(0.874285 -0.139436 -2.53372e-21)
(0.874792 -0.151556 5.2231e-21)
(0.620484 -0.0965695 1.31744e-21)
(0.70236 -0.13893 1.30903e-21)
(0.76028 -0.150741 -2.63272e-21)
(0.628145 -0.0856612 0)
(1.03702 0.0241165 2.82966e-22)
(1.02784 0.0255958 4.3488e-23)
(1.04356 0.0202704 2.84842e-22)
(0.674247 -0.0608192 -1.15925e-21)
(0.634067 -0.115357 -6.50771e-22)
(0.787813 -0.0105522 -5.10681e-22)
(0.734584 -0.0345354 0)
(0.761671 -0.0226224 1.59634e-21)
(0.837684 0.0139391 -2.31911e-22)
(0.813185 0.00171237 2.34373e-22)
(0.885785 0.0381763 -2.15388e-22)
(0.862223 0.0262162 4.49221e-22)
(0.929591 0.060351 0)
(0.908321 0.0495881 0)
(0.967783 0.0792933 0)
(0.949424 0.0702795 0)
(1.00019 0.0943548 2.84929e-24)
(0.984706 0.0873051 0)
(1.02703 0.105655 0)
(1.0143 0.100474 0)
(1.04856 0.11323 0)
(1.03843 0.109895 0)
(1.0654 0.117404 0)
(1.05753 0.115712 0)
(1.07816 0.118645 0)
(1.07225 0.118361 0)
(1.08749 0.117435 1.21554e-24)
(1.08322 0.118315 0)
(1.09399 0.114258 0)
(1.09106 0.116063 0)
(1.09823 0.109561 0)
(1.09636 0.112074 0)
(1.10066 0.103737 0)
(1.09964 0.106769 0)
(1.10169 0.0971208 0)
(1.10133 0.100512 0)
(1.10163 0.0899905 -1.89847e-26)
(1.10178 0.0936101 0)
(1.10072 0.082578 1.7117e-26)
(1.10126 0.0863149 0)
(1.09917 0.0750679 -8.5048e-25)
(1.10001 0.0788297 0)
(1.09711 0.0675792 0)
(1.09817 0.0713151 0)
(1.09474 0.0602011 0)
(1.09588 0.0638699 0)
(1.09228 0.0530217 -1.82929e-22)
(1.09323 0.0565932 0)
(1.08993 0.0460925 4.348e-22)
(1.09063 0.0495437 -8.65312e-23)
(1.08848 0.0393525 -6.68013e-22)
(1.08906 0.0426941 2.05326e-23)
(1.04412 0.0387796 7.97636e-23)
(1.07458 0.0373229 -7.73416e-23)
(1.05942 0.0383063 0)
(1.02063 0.0370125 0)
(1.03053 0.0383896 0)
(1.01555 0.0310733 3.87845e-23)
(1.01521 0.0346188 -1.47209e-22)
(1.03383 0.0216752 -1.7852e-22)
(1.02192 0.0266841 2.81211e-22)
(1.02448 0.031406 1.2134e-24)
(1.03083 0.0277755 3.31043e-22)
(1.01221 0.0381453 -3.32911e-26)
(1.01842 0.0348335 0)
(0.999586 0.0442944 2.88466e-24)
(1.00594 0.0413066 0)
(0.986687 0.0495703 -3.32918e-26)
(0.993169 0.0470562 0)
(0.973547 0.0537129 0)
(0.980145 0.0517992 0)
(0.960179 0.0564722 2.95774e-26)
(0.96689 0.0552771 0)
(0.946596 0.0576218 0)
(0.953414 0.0572587 0)
(0.932834 0.0569537 0)
(0.939735 0.0575244 0)
(0.918994 0.0542865 0)
(0.925917 0.055877 0)
(0.905276 0.0494826 0)
(0.912106 0.052155 0)
(0.892005 0.0424691 0)
(0.898562 0.0462503 0)
(0.879647 0.0332613 2.87522e-24)
(0.885682 0.0381314 0)
(0.868783 0.0219797 0)
(0.873994 0.0278648 0)
(0.86005 0.00884958 3.29685e-24)
(0.864116 0.0156254 0)
(0.854039 -0.00582831 0)
(0.85668 0.00167983 0)
(0.85113 -0.0217061 3.74106e-24)
(0.852194 -0.0136367 0)
(0.851348 -0.0385617 0)
(0.850868 -0.0300213 0)
(0.85434 -0.0563597 -1.68072e-26)
(0.852547 -0.0473341 0)
(0.859201 -0.0751561 0)
(0.856622 -0.065619 0)
(0.864845 -0.0951693 -2.08945e-24)
(0.862007 -0.0849956 0)
(0.870642 -0.116523 9.50939e-22)
(0.867744 -0.105684 4.61319e-22)
(0.872609 -0.127789 -8.01963e-22)
(0.820109 -0.162766 -2.69501e-21)
(0.87483 -0.164156 -2.76514e-21)
(1.08813 0.0360673 0)
(0.646345 -0.0730347 3.6712e-21)
(0.707432 -0.0458816 -1.1695e-21)
(0.610729 -0.113995 -1.29711e-21)
(0.654292 -0.135094 -3.21688e-22)
(1.05018 0.0163833 2.66887e-22)
(0.600358 -0.107572 0)
(0.700743 -0.149655 0)
(0.60337 -0.097335 1.31707e-21)
(0.760201 -0.161779 0)
(0.87395 -0.177223 0)
(0.819538 -0.174919 2.72398e-21)
(0.622699 -0.0822417 -4.43429e-21)
(1.10014 0.0380347 1.27855e-21)
(1.09936 0.034798 -3.82038e-22)
(0.682012 -0.0556742 4.11813e-23)
(0.622197 -0.126856 -3.01482e-22)
(0.806727 -0.00759902 1.01971e-21)
(0.753573 -0.0286742 5.50804e-22)
(0.779657 -0.0186814 -1.04582e-21)
(0.857818 0.0152454 -7.46233e-24)
(0.832587 0.00369366 2.35137e-22)
(0.906159 0.0384684 1.59632e-24)
(0.882493 0.0269346 -2.2279e-22)
(0.950199 0.0603536 0)
(0.928803 0.0496644 0)
(0.988705 0.0796163 0)
(0.970198 0.0703629 0)
(1.02122 0.0955516 0)
(1.00572 0.0880301 0)
(1.04789 0.107789 -2.74309e-24)
(1.03527 0.102138 0)
(1.06918 0.116382 0)
(1.05918 0.112528 0)
(1.08558 0.121547 0)
(1.07795 0.119375 0)
(1.09775 0.123644 0)
(1.09215 0.122949 0)
(1.10641 0.123141 1.19763e-24)
(1.10248 0.123687 0)
(1.1122 0.120509 -1.15617e-24)
(1.10963 0.122062 0)
(1.11573 0.1162 0)
(1.11422 0.118537 0)
(1.11751 0.110619 0)
(1.11681 0.113545 0)
(1.11797 0.104117 0)
(1.11788 0.107464 0)
(1.11745 0.0969853 0)
(1.11781 0.100614 0)
(1.11621 0.089467 -2.19986e-26)
(1.1169 0.0932628 0)
(1.11445 0.0817593 2.02138e-26)
(1.11538 0.0856278 0)
(1.1123 0.0740185 8.16894e-25)
(1.11341 0.0778847 0)
(1.10989 0.0663608 0)
(1.11111 0.0701749 0)
(1.10729 0.0588745 0)
(1.10856 0.0625991 0)
(1.10461 0.0516305 1.37526e-24)
(1.10584 0.0552396 0)
(1.10204 0.0447084 5.13119e-24)
(1.10298 0.0481482 0)
(1.10073 0.0413721 1.56716e-22)
(1.07374 0.0341439 7.67771e-23)
(1.09872 0.0316608 -7.16374e-23)
(1.08725 0.0329395 0)
(1.04436 0.0354111 0)
(1.05909 0.0350628 7.31215e-23)
(1.02253 0.033405 0)
(1.03151 0.0349022 0)
(1.01964 0.0272671 -2.05946e-22)
(1.01824 0.0308738 0)
(1.03963 0.0178383 -2.95355e-22)
(1.02696 0.0228386 1.55192e-22)
(1.05626 0.012682 4.05552e-23)
(1.0567 0.0184343 3.67251e-23)
(1.06944 0.0112074 -6.22584e-24)
(1.06306 0.0148139 -2.74601e-22)
(1.04457 0.025288 -2.98725e-26)
(1.0507 0.0218762 -3.63584e-23)
(1.03222 0.0318073 -3.27505e-26)
(1.03853 0.0285867 0)
(1.01939 0.0377829 -3.4284e-26)
(1.02587 0.0348764 0)
(1.00624 0.0429366 -3.51036e-26)
(1.01285 0.0404774 0)
(0.992927 0.0469963 0)
(0.999604 0.0451184 0)
(0.979565 0.0497108 3.43565e-26)
(0.986248 0.0485338 0)
(0.966293 0.0508599 1.95511e-24)
(0.972913 0.0504907 0)
(0.953275 0.0502571 0)
(0.959745 0.0507848 0)
(0.940725 0.047759 0)
(0.946931 0.0492491 0)
(0.928932 0.0432783 0)
(0.934718 0.0457665 0)
(0.918264 0.0367974 2.66025e-24)
(0.923437 0.0402831 0)
(0.90916 0.0283787 -2.87522e-24)
(0.913494 0.0328205 0)
(0.902082 0.0181634 0)
(0.905347 0.0234816 0)
(0.897445 0.00635027 -3.29685e-24)
(0.899445 0.0124408 0)
(0.895501 -0.00684472 0)
(0.896138 -8.97043e-05 0)
(0.896235 -0.0212521 3.71686e-24)
(0.895556 -0.013905 0)
(0.899284 -0.0368414 0)
(0.897514 -0.0288957 0)
(0.903986 -0.0537377 -8.34664e-24)
(0.901492 -0.0451139 0)
(0.909368 -0.0721913 0)
(0.906667 -0.0627466 0)
(0.91447 -0.0925318 -4.49595e-24)
(0.912014 -0.08211 0)
(0.918778 -0.114851 3.10845e-22)
(0.916712 -0.10341 3.03339e-22)
(0.921485 -0.139289 1.16785e-21)
(0.9202 -0.126827 -1.87973e-21)
(0.921797 -0.165749 2.51234e-21)
(0.921991 -0.152265 -2.49708e-21)
(0.872496 -0.190615 2.43541e-21)
(0.920373 -0.193811 0)
(0.920916 -0.179664 0)
(0.65235 -0.0664972 -3.09895e-21)
(0.726267 -0.038415 1.75269e-21)
(0.594216 -0.12515 1.29138e-21)
(0.648192 -0.146095 0)
(0.918213 -0.208295 0)
(0.870595 -0.204318 -2.57199e-21)
(0.579307 -0.118788 4.21258e-23)
(0.698869 -0.160439 -3.36313e-22)
(0.580036 -0.10714 1.28771e-21)
(0.759361 -0.173121 -4.21882e-23)
(1.0977 0.0286963 2.17038e-22)
(1.10748 0.0305026 1.86819e-23)
(1.10666 0.0275396 0)
(0.595331 -0.0926685 1.29713e-21)
(0.817786 -0.187413 1.65688e-22)
(0.631624 -0.072238 -1.28103e-21)
(1.07542 0.0076807 5.567e-24)
(0.706457 -0.0445621 0)
(0.610612 -0.138076 6.67635e-24)
(0.835508 -0.00177397 7.52983e-22)
(0.791378 -0.0175126 0)
(0.810814 -0.0107685 -1.5533e-21)
(0.884261 0.0180901 -2.33242e-22)
(0.859111 0.00752756 2.38292e-22)
(0.931539 0.0394969 0)
(0.908488 0.0287862 0)
(0.974545 0.060436 -1.5791e-24)
(0.953662 0.0501184 0)
(1.01214 0.0794479 -1.42805e-24)
(0.994065 0.0702446 0)
(1.04388 0.0957159 0)
(1.02875 0.0879637 0)
(1.06978 0.108717 0)
(1.05755 0.102645 0)
(1.0902 0.118227 4.69406e-26)
(1.08065 0.11391 0)
(1.1057 0.124352 0)
(1.09852 0.121695 0)
(1.11691 0.127385 0)
(1.1118 0.126233 0)
(1.12456 0.127707 0)
(1.12114 0.127856 0)
(1.12932 0.125769 -1.19763e-24)
(1.12726 0.126992 0)
(1.13184 0.122013 1.15617e-24)
(1.13083 0.124091 0)
(1.13267 0.116847 1.08126e-24)
(1.13244 0.119582 0)
(1.13226 0.110632 0)
(1.1326 0.11385 0)
(1.13099 0.103673 0)
(1.13172 0.107228 0)
(1.12913 0.0962202 0)
(1.13012 0.0999942 0)
(1.1269 0.0884813 -2.43492e-26)
(1.12805 0.0923756 0)
(1.12444 0.0806228 2.25919e-26)
(1.12569 0.0845583 0)
(1.12185 0.0727791 -8.16894e-25)
(1.12316 0.0766923 0)
(1.1192 0.0650553 -1.49774e-24)
(1.12053 0.0688989 0)
(1.11654 0.0575322 0)
(1.11785 0.0612706 0)
(1.11391 0.0502779 -1.31649e-24)
(1.11515 0.0538826 0)
(1.11136 0.0433703 8.00619e-23)
(1.11245 0.0467981 0)
(1.10919 0.0367917 -9.3476e-22)
(1.10996 0.0400703 -1.99429e-22)
(1.10827 0.0336105 2.88268e-22)
(1.07315 0.0310373 0)
(1.08643 0.0299184 0)
(1.04454 0.0320705 0)
(1.05871 0.0318515 -7.25393e-23)
(1.02457 0.0297965 0)
(1.03259 0.0314116 0)
(1.02378 0.0234955 9.86055e-23)
(1.02135 0.0271735 0)
(1.04525 0.0141054 9.64336e-23)
(1.03204 0.0190159 -8.23376e-23)
(1.09001 0.00638388 -5.19416e-22)
(1.09569 0.00307084 2.50346e-22)
(1.08145 0.00421399 -2.42305e-22)
(1.06223 0.00904885 -9.74279e-23)
(1.07888 0.0129291 1.06229e-24)
(1.08452 0.0096251 1.40018e-22)
(1.06788 0.0193505 -2.30733e-24)
(1.07347 0.0161436 0)
(1.05616 0.0255925 -3.10643e-26)
(1.06211 0.0225136 0)
(1.04391 0.0313672 -3.37197e-26)
(1.0501 0.0285542 0)
(1.03132 0.036402 -1.51798e-24)
(1.03765 0.0339924 0)
(1.01859 0.04043 0)
(1.02496 0.0385565 0)
(1.00593 0.0432047 3.81974e-26)
(1.01224 0.041986 0)
(0.99358 0.0445147 -1.95511e-24)
(0.999709 0.044052 0)
(0.98178 0.044191 2.08045e-24)
(0.9876 0.0445632 0)
(0.970816 0.0421155 0)
(0.976181 0.0433747 0)
(0.961006 0.0382296 0)
(0.965753 0.0403974 0)
(0.952693 0.0325392 -3.70296e-26)
(0.956648 0.0356046 0)
(0.946217 0.025111 0)
(0.949214 0.0290337 0)
(0.941862 0.0160579 0)
(0.94377 0.0207775 0)
(0.939783 0.00550547 0)
(0.940544 0.0109602 0)
(0.939929 -0.00645094 0)
(0.9396 -0.000301978 0)
(0.941997 -0.0198023 -3.71686e-24)
(0.940761 -0.01295 0)
(0.945435 -0.0346611 0)
(0.943595 -0.0270321 0)
(0.949545 -0.0512429 8.17798e-24)
(0.947462 -0.0427225 0)
(0.953577 -0.0698098 0)
(0.951622 -0.0602595 0)
(0.956929 -0.0906368 4.49667e-24)
(0.955373 -0.0799299 0)
(0.959285 -0.11381 0)
(0.95824 -0.101934 0)
(0.960742 -0.139225 1.49066e-22)
(0.960072 -0.126245 -1.4882e-22)
(0.960891 -0.166828 -4.44853e-22)
(0.96093 -0.152787 5.81802e-22)
(0.960458 -0.195989 1.17659e-21)
(0.960769 -0.181171 -1.18522e-21)
(0.91626 -0.222897 2.385e-21)
(0.958618 -0.225982 -2.23404e-21)
(0.959016 -0.210956 0)
(0.684675 -0.0499088 -2.49471e-21)
(0.769848 -0.0236271 0)
(0.867282 -0.218272 0)
(0.913542 -0.237387 -2.22925e-21)
(0.957227 -0.241012 1.9675e-21)
(0.577725 -0.136215 -6.65561e-22)
(0.642555 -0.156854 0)
(0.558841 -0.128814 -1.94895e-21)
(0.696502 -0.171208 3.33506e-22)
(1.09679 0.0258246 2.02502e-22)
(1.10586 0.0247057 -2.73134e-22)
(0.555868 -0.116891 0)
(0.757638 -0.184775 0)
(0.571765 -0.0993204 1.33771e-21)
(0.815753 -0.200295 -1.67245e-22)
(0.608186 -0.0775073 2.4946e-21)
(1.10096 -6.24256e-05 2.44812e-22)
(0.749202 -0.0282544 -3.60794e-21)
(0.661284 -0.0545045 -4.89177e-23)
(0.863314 -0.232272 -2.52174e-21)
(0.910508 -0.251923 -2.36588e-21)
(0.955996 -0.255971 2.06606e-21)
(0.725347 -0.0328036 1.25473e-21)
(0.839831 -0.00445017 1.16665e-21)
(1.1139 0.0294652 6.05038e-22)
(1.11315 0.026546 -3.51281e-23)
(0.818602 -0.00918891 -1.21782e-21)
(0.599525 -0.149043 -3.18271e-22)
(0.878966 0.00724245 1.01723e-21)
(0.857751 0.000436385 -1.58915e-21)
(0.919564 0.0228464 -2.3809e-22)
(0.897154 0.0141704 1.00198e-21)
(0.962235 0.0412096 0)
(0.940548 0.0316337 0)
(1.00283 0.0605301 -1.49657e-24)
(0.983138 0.0509283 0)
(1.03831 0.078742 1.42155e-24)
(1.02125 0.0698371 0)
(1.06829 0.0948933 1.42805e-24)
(1.05401 0.0871267 0)
(1.09268 0.108298 0)
(1.08118 0.101969 0)