/*--------------------------------*- C++ -*----------------------------------*\
  =========                 |
  \\      /  F ield         | OpenFOAM: The Open Source CFD Toolbox
   \\    /   O peration     | Website:  https://openfoam.org
    \\  /    A nd           | Version:  10
     \\/     M anipulation  |
\*---------------------------------------------------------------------------*/
FoamFile
{
    format      ascii;
    class       volVectorField;
    location    "21.5";
    object      U;
}
// * * * * * * * * * * * * * * * * * * * * * * * * * * * * * * * * * * * * * //

dimensions      [0 1 -1 0 0 0 0];

internalField   nonuniform List<vector> 
33313
(
(0.261871 0.00958597 1.90358e-22)
(0.382086 0.00381119 6.18037e-24)
(0.331505 0.0233341 0)
(0.147375 0.00788217 0)
(0.681728 0.0158706 7.80356e-22)
(0.634827 0.0187481 0)
(0.523356 0.0242643 -3.01337e-22)
(0.553399 0.0149041 0)
(0.649454 0.010665 5.59203e-22)
(0.53407 0.0121673 -4.43935e-22)
(0.603855 0.0167996 0)
(-0.00681207 -0.00517326 -2.46501e-20)
(-0.00549854 0.00348003 -8.56307e-20)
(-0.00734475 0.00230255 -1.85326e-19)
(0.453609 -0.374153 2.26231e-21)
(0.170765 -0.126624 -1.72125e-20)
(0.151158 -0.120734 -7.58334e-21)
(1.49562 -0.427211 0)
(1.54626 -0.302475 0)
(1.50107 -0.254521 0)
(1.50952 -0.331268 3.2522e-20)
(0.52139 -0.0268014 0)
(0.441447 0.277877 -1.29154e-19)
(0.28588 0.231784 3.90852e-19)
(0.399007 -0.0358061 -8.37092e-20)
(1.00475 -0.0202495 -6.54585e-20)
(1.00452 -0.039429 4.53806e-20)
(1.00488 -0.0786835 0)
(0.96283 0.105403 -5.71546e-20)
(1.03593 0.100802 4.54662e-20)
(1.01587 0.0818517 3.0126e-20)
(0.996669 -0.0192903 -4.04484e-20)
(0.881898 0.0570242 -2.17404e-20)
(-0.072101 -0.0915566 8.92305e-20)
(-0.0812349 -0.0528561 -1.84238e-19)
(-0.0825158 -0.0469976 1.14548e-19)
(-0.132051 -0.0769919 1.59322e-20)
(1.13218 -0.00351414 -1.00677e-22)
(1.13802 -0.00195229 -2.3603e-21)
(1.43784 0.173449 -1.56753e-20)
(1.41049 0.161854 2.91085e-20)
(1.02472 -0.195365 -5.61818e-20)
(1.03103 -0.190248 -4.64721e-21)
(-0.0803321 -0.0402668 -7.61656e-20)
(-0.0410241 0.0626136 3.78786e-20)
(-0.072025 0.0607561 -1.49896e-19)
(0.190762 0.448966 9.30671e-20)
(0.172341 0.315156 3.32822e-20)
(0.36383 -0.0391673 5.91625e-22)
(0.47085 -0.022347 -1.28618e-21)
(1.04202 0.0685271 -3.99438e-20)
(1.05973 0.0629608 2.14009e-20)
(1.06392 -0.0976333 -5.72628e-20)
(1.01895 -0.0608268 1.52119e-19)
(0.466873 0.510533 1.75148e-19)
(0.402264 0.560758 -8.85956e-20)
(0.617635 0.678915 -9.7457e-20)
(0.364321 0.623979 2.19229e-19)
(0.240456 -0.411096 3.29403e-20)
(0.377625 -0.760015 -2.91825e-21)
(0.208265 0.501037 -6.90391e-20)
(0.428719 -0.329913 2.34889e-19)
(0.236552 -0.251934 -7.05308e-20)
(0.101547 -0.181257 0)
(0.071973 -0.00386092 0)
(0.0990712 -0.0129081 1.04761e-20)
(1.3122 0.0580091 7.14381e-21)
(1.4079 -0.279966 0)
(1.40613 -0.272404 0)
(0.507615 -0.0380351 5.39899e-20)
(0.603788 0.0855119 0)
(0.765826 0.149788 0)
(0.247029 -0.0328253 1.07147e-20)
(1.46912 0.22146 6.28846e-20)
(0.11914 -0.28278 1.17111e-19)
(0.204601 -0.267267 8.14918e-20)
(0.517342 -0.154735 0)
(0.517033 -0.166622 4.60351e-20)
(1.36925 0.282793 5.28667e-20)
(1.39995 0.217801 -3.26545e-20)
(0.826753 -0.086455 1.48962e-19)
(0.840507 -0.0635068 -4.97312e-20)
(0.802017 -0.123281 0)
(1.33887 0.11855 1.66041e-20)
(1.22729 0.153536 -3.99158e-21)
(0.705903 0.0297802 -1.70858e-20)
(0.117619 0.018573 0)
(-0.00567946 0.0488267 1.77928e-20)
(-0.0479639 0.0438723 1.01643e-19)
(0.0406509 -0.157459 2.83985e-19)
(-0.0996193 -0.418136 8.02913e-21)
(-0.0375509 -0.384572 -3.26714e-21)
(-0.1015 -0.270511 -5.44587e-19)
(-0.123037 -0.321349 0)
(-0.117669 -0.342186 6.48478e-20)
(1.04213 0.0634507 0)
(1.01557 0.0610364 -4.86129e-21)
(0.430556 -0.0433635 -1.18065e-21)
(0.560216 -0.028427 -7.94421e-23)
(1.51716 -0.252555 0)
(1.51134 -0.296978 -7.1436e-20)
(1.52593 -0.225312 0)
(1.5636 -0.155153 3.36481e-20)
(1.57689 -0.168442 5.54658e-21)
(1.53217 -0.165809 -3.74633e-20)
(0.276168 -0.029872 -2.08146e-21)
(0.180265 -0.0644977 -9.97845e-20)
(-0.0373013 -0.0666403 -7.02976e-20)
(-0.0348782 -0.0685721 -3.54139e-22)
(0.952325 -0.644208 8.75103e-21)
(1.15322 -0.828672 6.81187e-21)
(0.976643 -0.777334 1.40039e-20)
(0.753991 -0.526397 0)
(0.773006 -0.235133 8.54922e-20)
(0.283095 -0.0521169 4.16914e-20)
(0.687068 -0.109609 -3.78141e-20)
(0.204239 0.0185816 -4.38059e-19)
(0.167994 0.166085 5.04309e-20)
(1.55639 -0.153968 1.64699e-21)
(1.55555 -0.141564 0)
(-0.0978439 -0.0732535 0)
(-0.0593848 -0.0374239 1.20038e-19)
(-0.078808 -0.049854 0)
(0.296206 -0.0127147 -1.97604e-21)
(0.354129 -0.00892969 1.51972e-21)
(0.18021 -0.0284038 -5.66679e-21)
(0.757952 0.675155 1.70778e-19)
(1.24681 0.00141172 -3.16885e-22)
(1.2522 -0.00376706 0)
(-0.213194 -0.313143 2.32027e-20)
(-0.230657 -0.340087 -2.69099e-20)
(-0.0359467 -0.0688055 -2.12969e-19)
(-0.0337138 -0.0373219 3.85637e-19)
(0.875568 0.657906 3.14288e-20)
(1.03338 0.66715 4.37125e-20)
(0.909029 0.636631 0)
(0.74985 0.575811 0)
(0.514369 -0.354052 -1.22903e-20)
(0.645878 -0.457528 0)
(0.901529 -0.817288 -8.87544e-20)
(0.903692 -0.777994 -1.14504e-20)
(0.761295 -0.838657 9.9421e-20)
(1.23036 0.00142079 -8.51254e-22)
(1.22558 0.00470277 -6.84767e-21)
(1.24455 0.00578805 7.25914e-23)
(1.07991 0.0064715 0)
(1.08354 0.00769898 -3.68652e-21)
(1.08628 0.00497097 5.66611e-21)
(1.0896 0.00387903 3.45799e-21)
(1.01017 -0.239572 4.20784e-20)
(1.02473 -0.244086 0)
(1.00375 -0.19472 -7.28347e-20)
(1.01201 -0.209057 4.17664e-20)
(0.939141 0.0833601 3.03479e-20)
(0.931631 0.100518 -4.69918e-20)
(0.951728 0.109745 2.89047e-20)
(0.944973 0.119742 1.68393e-19)
(0.359013 -0.198524 3.40996e-20)
(0.286793 -0.174593 0)
(0.384382 -0.153584 -4.59396e-20)
(-0.0299042 -0.0172418 -3.19071e-19)
(0.447098 0.356355 4.23661e-21)
(0.47305 0.414228 -1.91175e-20)
(0.836876 0.669316 -4.32827e-20)
(0.476719 0.458119 -7.00846e-20)
(0.0693865 -0.21573 0)
(0.0415749 -0.137484 8.73006e-20)
(-0.0246549 -0.198719 -5.93981e-20)
(0.498729 0.0615767 0)
(0.714701 0.0102621 0)
(0.775704 0.00867488 3.13857e-22)
(1.06438 0.0134103 4.22306e-21)
(1.06571 0.0104349 -2.65378e-21)
(1.08137 0.0318466 1.56889e-21)
(1.08428 0.0360054 -8.96988e-24)
(1.01294 -0.0918246 1.37648e-20)
(1.02473 -0.0762479 -6.03308e-20)
(0.29645 -0.225438 9.80745e-20)
(0.154194 -0.251256 -7.23478e-20)
(0.988923 -0.0805385 0)
(0.982957 -0.0574056 0)
(1.11162 0.0250444 -6.40285e-22)
(1.11563 0.0281402 -8.60735e-21)
(1.09539 0.169524 -3.46109e-20)
(1.09038 0.163958 1.20026e-20)
(1.26109 0.246318 0)
(1.27922 0.303104 -1.84046e-20)
(0.0730966 -0.275684 1.59563e-20)
(0.0150959 -0.288974 1.4444e-20)
(-0.112798 -0.31182 1.53405e-21)
(0.100226 -0.252623 -3.08551e-19)
(0.838542 0.0149306 -5.35622e-20)
(0.868884 0.0174267 2.28038e-20)
(-0.247822 -0.329493 4.87744e-21)
(-0.272015 -0.316618 0)
(0.918111 0.217427 0)
(0.892499 0.245255 -4.55332e-21)
(0.857712 0.334088 -5.90126e-20)
(0.981308 -0.298621 2.55759e-20)
(0.956608 -0.332038 0)
(0.961601 -0.500649 3.01503e-20)
(0.81673 -0.0306471 -4.48065e-20)
(0.844237 -0.0214955 5.45628e-20)
(1.04013 -0.0685846 5.47885e-21)
(1.03336 -0.0615854 -1.19745e-20)
(-0.101108 -0.0133574 0)
(-0.058896 0.0340873 -5.37074e-20)
(1.29493 -0.690101 -2.81638e-20)
(1.22241 -0.693074 1.13799e-20)
(1.02874 -0.0577868 -4.12853e-20)
(1.03368 -0.0667376 4.90633e-20)
(0.651929 0.016556 -1.43513e-23)
(0.718206 0.0126988 1.66083e-23)
(0.719893 0.0125326 7.28277e-22)
(0.66306 0.0153639 4.78435e-22)
(0.588434 -0.455024 -1.14283e-21)
(0.0233043 -0.0333401 8.43031e-20)
(0.0065689 -0.0126131 -4.47662e-20)
(0.979328 0.17081 1.27976e-20)
(0.978777 0.154727 -6.00575e-21)
(0.990523 0.154696 6.03136e-21)
(0.993005 0.171378 0)
(1.5489 -0.14067 -2.6599e-20)
(1.54822 -0.1169 1.51355e-21)
(1.5283 -0.107942 2.58767e-20)
(1.0971 0.264478 0)
(1.0814 0.260815 -3.43356e-20)
(1.09976 0.262639 0)
(-0.0570337 0.0445491 -6.08311e-20)
(-0.0226977 0.016288 -1.36716e-19)
(-0.0262348 0.0184793 0)
(0.202116 -0.136237 -6.95741e-20)
(0.168922 -0.120024 2.34619e-20)
(1.06247 0.0145252 2.92515e-21)
(1.07463 0.00692115 -6.83039e-21)
(1.07621 0.0101448 -3.25964e-21)
(1.37279 -0.434067 0)
(1.04719 -0.196223 0)
(1.02774 0.684137 -4.37026e-21)
(1.02867 0.686109 -3.40286e-21)
(1.02844 0.681698 4.57219e-21)
(1.02643 0.674005 -3.2267e-22)
(1.02138 0.664171 0)
(1.01607 0.653275 -2.13866e-21)
(1.00981 0.642221 2.13845e-21)
(1.00287 0.631649 2.07118e-21)
(0.995248 0.622085 -2.06992e-21)
(0.986852 0.614025 -2.115e-21)
(0.977566 0.608307 2.11362e-21)
(0.967176 0.605492 2.26555e-21)
(0.955645 0.605695 -2.26398e-21)
(0.94296 0.607777 0)
(0.929486 0.609495 0)
(0.915496 0.607548 0)
(0.901555 0.598514 3.14002e-21)
(0.887864 0.579297 -3.14263e-21)
(0.874879 0.548028 0)
(0.862602 0.503762 0)
(0.85143 0.447027 0)
(0.841313 0.378749 4.3812e-21)
(0.832682 0.300972 1.84461e-22)
(0.82549 0.215445 -9.2758e-21)
(0.820195 0.124988 4.71066e-21)
(0.816677 0.0306546 -4.8213e-21)
(0.814995 -0.0609555 1.45724e-20)
(0.81581 -0.154619 3.85994e-23)
(0.817963 -0.239646 0)
(0.821843 -0.322224 1.38285e-21)
(0.827543 -0.395763 0)
(0.834077 -0.459015 -2.56188e-21)
(1.00204 0.674502 0)
(1.00967 0.664669 9.4446e-21)
(0.990452 0.658319 2.56975e-21)
(1.03145 0.672019 2.49068e-21)
(0.849888 -0.552314 -2.36742e-21)
(0.84276 -0.511119 2.52147e-21)
(0.850357 -0.403024 0)
(0.864378 -0.52215 -1.1777e-21)
(0.856024 -0.467363 -1.37995e-21)
(0.843153 -0.243593 0)
(0.846153 -0.328345 0)
(0.843196 -0.0577681 0)
(0.842671 -0.151805 0)
(0.850234 0.133298 8.54928e-25)
(0.845991 0.0381078 0)
(0.861976 0.311432 0)
(0.855524 0.225083 0)
(0.877995 0.459053 -1.258e-23)
(0.869492 0.390088 0)
(0.897494 0.561399 0)
(0.887373 0.516524 0)
(0.919396 0.612854 -9.30593e-24)
(0.908222 0.593241 0)
(0.942174 0.623804 -7.97752e-24)
(0.930806 0.622056 0)
(0.963376 0.618436 -7.01374e-24)
(0.953145 0.621498 -9.1784e-28)
(0.980687 0.618637 0)
(0.972588 0.617068 0)
(0.993775 0.630401 0)
(0.987701 0.623284 0)
(1.00337 0.648952 0)
(0.998988 0.639197 0)
(1.00949 0.66897 0)
(1.00688 0.659096 0)
(1.01042 0.682188 1.76647e-21)
(1.01161 0.676645 4.03095e-22)
(1.00874 0.682063 6.63828e-23)
(1.00353 0.641236 -4.02854e-23)
(0.979704 0.630012 1.46598e-21)
(0.870779 -0.558045 0)
(1.02731 0.650375 -8.68497e-21)
(0.872372 -0.589931 0)
(0.859863 -0.582107 2.69815e-21)
(0.992766 0.604099 -3.94244e-23)
(0.965334 0.590234 -1.57992e-21)
(0.881911 -0.592222 -5.50935e-21)
(0.836427 -0.540857 0)
(1.0201 0.615615 -1.62141e-21)
(0.847227 -0.570717 -2.24266e-21)
(0.949689 0.535889 -1.65047e-21)
(1.00886 0.566503 1.74489e-21)
(0.979035 0.553291 0)
(1.05305 0.675884 4.30318e-23)
(1.04703 0.623817 2.74238e-21)
(1.05223 0.65665 5.61764e-21)
(1.04918 0.683995 1.12915e-22)
(1.05172 0.684151 -2.1993e-21)
(1.04039 0.667762 -3.33443e-24)
(1.04627 0.67753 -3.69821e-21)
(1.02529 0.644029 0)
(1.03337 0.656284 0)
(1.00704 0.620306 0)
(1.01647 0.631846 0)
(0.986346 0.600763 0)
(0.997026 0.609789 0)
(0.962288 0.589755 0)
(0.974835 0.593868 0)
(0.933692 0.589288 0)
(0.948562 0.588521 0)
(0.901733 0.587151 0)
(0.91794 0.589856 0)
(0.869918 0.558462 0)
(0.885579 0.57766 0)
(0.841399 0.484112 0)
(0.855118 0.52751 0)
(0.81794 0.362186 0)
(0.828966 0.42859 0)
(0.8009 0.20392 4.93198e-25)
(0.808547 0.286587 0)
(0.791547 0.0262875 -5.15933e-25)
(0.795291 0.116069 0)
(0.791939 -0.1548 -7.64914e-22)
(0.790034 -0.0667798 -1.11113e-20)
(0.801207 -0.317703 -2.72636e-21)
(0.795462 -0.239925 4.65786e-21)
(0.816659 -0.449975 2.58599e-21)
(0.808422 -0.388461 -1.30687e-21)
(0.826458 -0.500442 0)
(0.880201 -0.608767 -6.69789e-22)
(0.857862 -0.59128 1.0529e-23)
(0.868896 -0.60125 0)
(0.886035 -0.526995 -1.88566e-22)
(0.901642 -0.600987 5.35384e-21)
(0.893345 -0.569796 0)
(0.87546 -0.408325 0)
(0.88064 -0.474548 8.02799e-22)
(0.870053 -0.245439 -9.59236e-22)
(0.872195 -0.330666 0)
(0.870373 -0.0562364 0)
(0.869201 -0.152712 9.61204e-22)
(0.877152 0.137703 7.24239e-25)
(0.873094 0.0410782 0)
(0.888125 0.318341 0)
(0.882207 0.230862 0)
(0.901978 0.467562 1.25173e-23)
(0.894745 0.397902 0)
(0.918006 0.570836 0)
(0.90976 0.525568 0)
(0.9356 0.622738 9.24988e-24)
(0.926657 0.602958 0)
(0.953769 0.633461 7.92881e-24)
(0.944711 0.631933 0)
(0.970597 0.626816 6.97111e-24)
(0.962502 0.630642 9.12204e-28)
(0.983957 0.625062 0)
(0.977794 0.624492 0)
(0.993248 0.635059 0)
(0.989079 0.628771 0)
(0.998835 0.651976 0)
(0.996507 0.643082 0)
(1.0003 0.669323 6.26541e-24)
(1.00013 0.660994 0)
(0.995865 0.678966 0)
(0.999204 0.675796 0)
(0.98177 0.666841 0)
(0.990607 0.676545 0)
(0.955542 0.615893 -7.229e-22)
(0.969427 0.647297 -2.89685e-21)
(0.921069 0.51528 -9.88014e-22)
(0.937921 0.571032 4.23448e-21)
(0.89212 -0.614412 1.87178e-21)
(1.03858 0.576487 -3.17349e-21)
(0.931604 0.468893 1.71565e-21)
(0.900944 0.445124 -2.36956e-21)
(0.868017 -0.603742 1.16063e-21)
(0.849162 -0.580136 1.62972e-21)
(0.860422 -0.593673 7.50178e-22)
(0.994442 0.502589 0)
(0.921301 -0.60612 2.8299e-21)
(0.909534 -0.621276 6.17938e-22)
(0.926955 -0.625488 2.94723e-21)
(1.02624 0.513757 -1.31278e-22)
(0.962519 0.487175 0)
(1.07508 0.630165 -8.04225e-22)
(1.05902 0.525529 -4.56886e-21)
(1.0694 0.585857 1.68141e-21)
(1.07713 0.675612 -2.50571e-21)
(1.07802 0.659582 0)
(1.06866 0.678971 5.99149e-23)
(1.07384 0.681115 1.02638e-21)
(1.05353 0.660275 -2.0827e-22)
(1.06192 0.671268 2.66021e-22)
(1.0338 0.634627 0)
(1.04403 0.647685 0)
(1.01162 0.609815 0)
(1.02296 0.621853 0)
(0.987493 0.589092 0)
(0.99982 0.598782 0)
(0.960415 0.576084 0)
(0.974445 0.581308 0)
(0.928759 0.573436 0)
(0.945199 0.573675 0)
(0.893351 0.570651 -3.13285e-24)
(0.911333 0.573406 0)
(0.857991 0.543412 0)
(0.875396 0.561662 0)
(0.826553 0.471669 0)
(0.841612 0.513687 0)
(0.801283 0.352689 0)
(0.813071 0.41758 0)
(0.783434 0.197832 5.24647e-25)
(0.791388 0.278689 0)
(0.77412 0.024267 -5.44087e-25)
(0.7777 0.111952 0)
(0.77457 -0.151924 -9.87205e-23)
(0.772949 -0.0657012 0)
(0.785175 -0.311475 -3.05906e-22)
(0.778672 -0.23548 -2.76544e-21)
(0.802874 -0.439029 5.76011e-22)
(0.793507 -0.379981 3.15977e-22)
(0.825528 -0.528155 -5.53229e-22)
(0.814076 -0.488907 -1.10646e-21)
(0.837274 -0.558376 5.61654e-22)
(0.887626 -0.619733 -7.3412e-22)
(0.877257 -0.61245 0)
(0.915793 -0.631723 1.69743e-21)
(0.900022 -0.626026 -3.28005e-22)
(0.910859 -0.533737 7.96831e-23)
(0.915791 -0.575896 0)
(0.902547 -0.41141 2.46208e-22)
(0.906382 -0.478226 -2.92419e-22)
(0.899045 -0.244921 1.51871e-23)
(0.89992 -0.332858 2.3238e-22)
(0.900444 -0.0541788 0)
(0.898996 -0.151409 0)
(0.906801 0.141872 5.94123e-25)
(0.903103 0.044408 0)
(0.916333 0.323966 -1.51378e-23)
(0.911265 0.235817 0)
(0.927692 0.474304 0)
(0.921851 0.404127 0)
(0.940103 0.578352 0)
(0.933799 0.532744 0)
(0.953219 0.630631 0)
(0.946597 0.610717 0)
(0.966566 0.641135 -8.40048e-24)
(0.959925 0.639813 0)
(0.978822 0.633321 0)
(0.972955 0.637854 0)
(0.988116 0.629663 0)
(0.983932 0.630086 0)
(0.993566 0.637737 0)
(0.99132 0.632383 0)
(0.995139 0.652721 0)
(0.994859 0.644839 0)
(0.992063 0.667272 -6.30949e-24)
(0.99426 0.660503 0)
(0.982377 0.673092 0)
(0.988295 0.67195 0)
(0.962475 0.655911 1.0295e-21)
(0.973989 0.668484 0)
(0.931925 0.599103 -3.72324e-23)
(0.948376 0.633308 -1.04654e-21)
(0.893578 0.4933 -1.87093e-22)
(0.912913 0.551941 2.61597e-21)
(0.882726 0.365786 -3.32228e-21)
(0.852627 0.34009 0)
(0.872524 0.421663 -2.06462e-21)
(1.01248 0.43625 9.92169e-21)
(1.04636 0.448702 -4.99136e-21)
(0.978665 0.424073 4.10967e-21)
(0.91354 0.388957 0)
(0.931781 -0.635182 -2.69668e-21)
(0.832934 0.249406 0)
(0.862927 0.274372 7.72969e-21)
(0.877091 -0.610069 -5.71571e-22)
(0.870668 -0.601157 6.14953e-22)
(0.842641 -0.5681 2.11819e-21)
(0.996164 0.345397 0)
(1.03194 0.358336 -3.19127e-21)
(0.854789 -0.582742 0)
(0.945531 0.408424 0)
(1.09363 0.534861 3.78622e-21)
(1.06882 0.374676 3.16173e-21)
(1.08275 0.462213 -3.13072e-21)
(1.10446 0.632828 -5.64995e-22)
(1.10129 0.591821 1.79778e-21)
(1.10135 0.671704 -1.793e-21)
(1.10462 0.658528 2.75295e-22)
(1.08723 0.671008 -3.40804e-22)
(1.09529 0.674985 0)
(1.06637 0.650065 -1.60159e-25)
(1.07748 0.662042 2.23724e-22)
(1.04221 0.623023 0)
(1.05457 0.636684 0)
(1.0163 0.597324 0)
(1.02943 0.60978 0)
(0.988951 0.575574 0)
(1.00283 0.585842 0)
(0.959042 0.560722 0)
(0.974449 0.566989 0)
(0.924667 0.555756 2.49565e-24)
(0.942478 0.557125 0)
(0.886335 0.551795 3.13285e-24)
(0.905808 0.554897 0)
(0.848016 0.525519 0)
(0.866874 0.543019 0)
(0.814104 0.456527 0)
(0.830309 0.496993 0)
(0.787248 0.341364 0)
(0.799703 0.404251 0)
(0.768837 0.190896 5.34437e-25)
(0.776947 0.269516 0)
(0.759862 0.0218492 -5.4975e-25)
(0.763164 0.107411 0)
(0.761267 -0.148853 -4.74695e-24)
(0.759179 -0.0646993 0)
(0.7732 -0.30385 -1.00499e-23)
(0.766019 -0.229505 0)
(0.792802 -0.428472 -5.93589e-22)
(0.782316 -0.370432 0)
(0.817341 -0.515874 -4.94038e-22)
(0.804804 -0.477163 1.13749e-21)
(0.82982 -0.545922 -7.64091e-22)
(0.894512 -0.624201 1.18595e-22)
(0.884953 -0.617659 4.75604e-22)
(0.920802 -0.634198 2.25496e-21)
(0.906412 -0.629793 2.50913e-22)
(0.943768 -0.610841 -3.42066e-21)
(0.950151 -0.637577 2.43854e-21)
(0.94734 -0.629131 -1.45212e-22)
(0.937 -0.538276 -2.71667e-25)
(0.940318 -0.581093 7.45838e-22)
(0.931731 -0.413566 -9.1277e-22)
(0.934014 -0.482073 0)
(0.929995 -0.245204 -1.62345e-23)
(0.930148 -0.334077 0)
(0.932623 -0.0518861 0)
(0.93077 -0.150353 0)
(0.938628 0.145847 4.49149e-25)
(0.935296 0.0476813 0)
(0.946469 0.328745 1.51378e-23)
(0.942409 0.240288 0)
(0.954946 0.479403 0)
(0.950687 0.4091 0)
(0.963461 0.583656 0)
(0.959219 0.537949 0)
(0.971953 0.636096 0)
(0.96771 0.616115 0)
(0.980401 0.646462 8.40048e-24)
(0.976211 0.645275 0)
(0.988021 0.63775 0)
(0.984412 0.642846 0)
(0.993194 0.632408 0)
(0.991014 0.633739 0)
(0.994752 0.638534 0)
(0.994455 0.634158 0)
(0.992253 0.65139 0)
(0.994047 0.644623 0)
(0.984671 0.66302 5.86422e-24)
(0.9892 0.657856 0)
(0.969866 0.66458 0)
(0.978359 0.665746 0)
(0.945077 0.642352 4.79173e-25)
(0.958873 0.657474 0)
(0.910035 0.580242 0)
(0.928668 0.617026 0)
(0.868264 0.46978 6.02274e-22)
(0.8896 0.530986 0)
(0.825267 0.313387 -5.04798e-21)
(0.846267 0.396381 3.17746e-22)
(0.814836 0.152059 -6.54382e-21)
(0.787386 0.126665 5.9301e-21)
(0.805325 0.222827 -4.89983e-22)
(0.935751 -0.636735 -2.08693e-23)
(1.01433 0.258859 0)
(1.0521 0.275412 -6.28407e-23)
(0.96083 0.333348 -4.05069e-21)
(0.89473 0.298123 -1.81213e-21)
(0.865931 -0.591252 -1.81771e-21)
(0.771147 0.0260505 9.63205e-23)
(0.762806 0.103144 5.1243e-21)
(0.747656 0.00443083 -1.04825e-20)
(0.977073 0.244591 -4.42467e-21)
(0.844879 0.175933 -3.42043e-21)
(0.797826 0.0487707 6.34201e-21)
(0.995853 0.151936 0)
(0.969897 -0.638176 -2.27459e-21)
(0.952301 -0.637921 -2.72284e-22)
(0.97007 -0.637387 -2.17688e-21)
(1.03291 0.166874 4.47996e-21)
(0.927048 0.317118 1.97402e-21)
(1.10658 0.3889 2.06965e-21)
(1.07023 0.18209 0)
(1.08987 0.290567 -6.38747e-21)
(1.12892 0.543298 8.91308e-22)
(1.11987 0.473764 -9.0075e-22)
(1.13472 0.633138 7.01773e-22)
(1.13394 0.596374 -1.56441e-21)
(1.12509 0.66555 0)
(1.13157 0.655327 0)
(1.10493 0.660646 0)
(1.11601 0.666443 0)
(1.07898 0.63757 -5.73593e-24)
(1.09241 0.650407 0)
(1.05068 0.60953 0)
(1.065 0.6236 0)
(1.02133 0.583253 0)
(1.03611 0.59598 0)
(0.99106 0.560737 0)
(1.00635 0.571459 0)
(0.958669 0.544198 0)
(0.97527 0.551451 0)
(0.921993 0.536908 -2.49565e-24)
(0.940962 0.539424 0)
(0.881125 0.531816 0)
(0.901907 0.535215 0)
(0.840148 0.506805 0)
(0.860315 0.523379 0)
(0.804062 0.440925 0)
(0.821259 0.479671 0)
(0.775922 0.329821 0)
(0.788899 0.390596 0)
(0.757167 0.183975 5.3625e-25)
(0.765331 0.260236 0)
(0.748691 0.0199041 -5.48931e-25)
(0.751624 0.103045 0)
(0.751089 -0.14533 4.74647e-24)
(0.748492 -0.0637219 0)
(0.764195 -0.295391 0)
(0.756404 -0.223233 0)
(0.785435 -0.4169 0)
(0.774052 -0.360233 0)
(0.811309 -0.503065 9.97716e-22)
(0.798003 -0.464714 0)
(0.838168 -0.555674 -2.29136e-21)
(0.824685 -0.533536 4.45291e-22)
(0.862822 -0.580547 3.29124e-21)
(0.850905 -0.57107 -1.0427e-22)
(0.884819 -0.611471 -4.73456e-22)
(0.875698 -0.594963 4.15694e-22)
(0.879473 -0.603726 0)
(0.900414 -0.623435 0)
(0.891752 -0.618001 0)
(0.92403 -0.630808 -2.33347e-22)
(0.911276 -0.627811 9.97293e-22)
(0.952846 -0.632045 1.28469e-21)
(0.937623 -0.632197 -1.9849e-21)
(0.967956 -0.613242 -1.11905e-23)
(0.969296 -0.630678 -2.80802e-21)
(0.964857 -0.54055 -1.58239e-25)
(0.96648 -0.583606 0)
(0.962546 -0.414524 -2.99751e-23)
(0.963434 -0.483915 0)
(0.963039 -0.244495 -2.98702e-25)
(0.962409 -0.333887 0)
(0.9666 -0.0495007 0)
(0.964481 -0.148733 0)
(0.972102 0.149222 2.86682e-25)
(0.96921 0.0506682 0)
(0.978077 0.332397 0)
(0.975115 0.243881 0)
(0.983465 0.482841 0)
(0.980894 0.412687 0)
(0.987872 0.586768 0)
(0.985793 0.541213 0)
(0.9916 0.639056 0)
(0.989794 0.619127 0)
(0.99511 0.6493 0)
(0.99338 0.648199 0)
(0.998086 0.639952 -7.27422e-24)
(0.996739 0.645462 0)
(0.99911 0.633175 0)
(0.998951 0.635311 0)
(0.996744 0.637386 -5.81814e-24)
(0.99841 0.634003 0)
(0.990164 0.647959 0)
(0.994033 0.642399 0)
(0.978157 0.656465 -5.86422e-24)
(0.984955 0.653006 0)
(0.958517 0.653533 0)
(0.969447 0.657129 0)
(0.92925 0.626267 5.71972e-25)
(0.945147 0.643854 0)
(0.890868 0.560487 0)
(0.911023 0.598878 0)
(0.84668 0.448006 -1.21332e-23)
(0.869209 0.510136 0)
(0.801792 0.290625 -1.92785e-21)
(0.823842 0.374053 -8.98433e-22)
(0.781136 0.199441 1.62318e-21)
(0.75797 -0.0755757 5.73361e-21)
(0.735964 -0.0939497 5.49569e-21)
(0.873586 -0.585467 0)
(1.01085 0.0522692 -1.38433e-20)
(1.04892 0.0702882 4.47345e-21)
(0.942089 0.231238 4.4789e-21)
(0.876164 0.197547 9.07979e-22)
(0.969172 -0.630308 -1.9501e-21)
(0.95939 0.137664 0)
(0.827019 0.0706345 0)
(0.975416 0.0384911 -4.55859e-21)
(0.783102 -0.0564724 0)
(0.728325 -0.189182 0)
(0.748261 -0.174939 -5.79767e-21)
(0.992165 -0.0604107 1.57671e-20)
(0.861388 -0.569152 -6.09718e-21)
(0.872735 -0.575379 1.80484e-21)
(1.02832 -0.043613 7.94086e-23)
(0.908707 0.215989 1.06043e-21)
(1.1101 0.201385 -4.22108e-21)
(1.06476 -0.0254635 -2.0852e-21)
(1.08785 0.0893703 4.32894e-21)
(1.14566 0.401603 5.17749e-23)
(1.12969 0.306602 -9.8805e-22)
(1.16454 0.548407 -6.17406e-24)
(1.15752 0.48306 9.16041e-22)
(1.16419 0.629758 0)
(1.16672 0.596849 0)
(1.14792 0.656187 0)
(1.15766 0.648719 0)
(1.12184 0.647515 0)
(1.13575 0.654903 0)
(1.09112 0.622788 5.31749e-24)
(1.10681 0.636228 0)
(1.05897 0.594214 0)
(1.07511 0.608483 0)
(1.0265 0.567657 0)
(1.04276 0.580522 0)
(0.993601 0.544603 0)
(1.01014 0.555666 0)
(0.959051 0.526573 -1.79462e-24)
(0.976675 0.534726 0)
(0.920504 0.516947 1.90632e-24)
(0.940401 0.520651 0)
(0.877598 0.51052 0)
(0.899441 0.514322 0)
(0.83437 0.486759 0)
(0.855662 0.502365 0)
(0.796382 0.424366 0)
(0.814446 0.461163 0)
(0.767174 0.317874 0)
(0.780566 0.376258 0)
(0.748255 0.177148 5.30174e-25)
(0.756389 0.250813 0)
(0.740343 0.0184891 -5.41658e-25)
(0.742905 0.0989478 0)
(0.74371 -0.141177 -3.68559e-24)
(0.740617 -0.0622621 0)
(0.757832 -0.286282 0)
(0.749526 -0.216411 0)
(0.780328 -0.404542 0)
(0.768269 -0.349297 0)
(0.807482 -0.489708 -6.90073e-24)
(0.793546 -0.451482 0)
(0.835425 -0.542472 -2.4363e-23)
(0.821424 -0.520151 0)
(0.848606 -0.558732 -7.16736e-22)
(0.883963 -0.595703 -4.12656e-22)
(0.8829 -0.578401 3.66891e-22)
(0.882785 -0.587468 0)
(0.891218 -0.609437 0)
(0.886769 -0.603051 -4.12655e-22)
(0.904898 -0.618827 0)
(0.897157 -0.614667 0)
(0.925808 -0.623372 1.38342e-21)
(0.914568 -0.621802 0)
(0.951997 -0.62196 2.0345e-21)
(0.938122 -0.623409 -1.04462e-21)
(0.966678 -0.619056 -2.76398e-22)
(0.991298 -0.637202 -3.1517e-22)
(0.98641 -0.627083 4.87457e-23)
(0.989418 -0.635203 2.14158e-21)
(0.993781 -0.613885 4.23354e-26)
(0.992903 -0.630796 3.12015e-22)
(0.994392 -0.541331 -3.49285e-26)
(0.994261 -0.584336 0)
(0.995102 -0.414473 -9.87355e-26)
(0.994595 -0.484391 0)
(0.997648 -0.242993 -1.35826e-25)
(0.996112 -0.333145 0)
(1.00196 -0.0470187 0)
(0.99965 -0.146655 0)
(1.00678 0.151934 1.15637e-25)
(1.00441 0.0533604 0)
(1.01069 0.33472 -1.5854e-23)
(1.00892 0.246459 0)
(1.01284 0.484442 0)
(1.01203 0.414672 0)
(1.01305 0.587659 0)
(1.01317 0.542433 0)
(1.01197 0.639571 0)
(1.01261 0.619779 0)
(1.01054 0.649702 -8.43381e-24)
(1.01126 0.648652 0)
(1.00888 0.639924 7.27423e-24)
(1.0098 0.645731 0)
(1.00575 0.63192 0)
(1.00762 0.634771 0)
(0.999471 0.63425 5.81814e-24)
(1.00309 0.631867 0)
(0.988875 0.64242 0)
(0.99478 0.638141 0)
(0.972594 0.647642 -5.13531e-24)
(0.981563 0.645962 0)
(0.94853 0.640276 0)
(0.961666 0.646223 0)
(0.915231 0.608206 1.22745e-23)
(0.933041 0.628147 0)
(0.873732 0.53891 0)
(0.895331 0.578824 0)
(0.827362 0.424969 7.31936e-24)
(0.850882 0.48763 0)
(0.781426 0.26812 -5.78017e-22)
(0.803866 0.351259 -5.425e-22)
(0.742981 0.0828387 -2.14234e-21)
(0.76082 0.177781 3.45009e-21)
(0.718297 -0.11013 -4.57789e-21)
(0.728531 -0.0142311 4.52167e-21)
(0.725133 -0.276866 -4.31256e-21)
(0.711542 -0.284135 0)
(0.712468 -0.201554 0)
(1.00334 -0.157964 1.12243e-20)
(1.03921 -0.136461 -6.24425e-21)
(0.924455 0.123479 -4.18432e-21)
(0.857965 0.0900027 0)
(0.715985 -0.356581 0)
(0.726981 -0.354302 4.57815e-21)
(0.940413 0.0247279 6.87583e-23)
(0.810669 -0.038553 8.40233e-22)
(0.957044 -0.0748587 -4.49517e-21)
(0.771127 -0.160315 9.20903e-23)
(0.891789 -0.579514 -1.09559e-21)
(0.88439 -0.568996 -8.61197e-23)
(0.894114 -0.571168 0)
(0.970313 -0.173745 -4.51861e-21)
(0.742629 -0.268306 -3.17415e-22)
(0.985136 -0.262298 4.00686e-21)
(0.982298 -0.614616 -5.83798e-23)
(1.01861 -0.242101 0)
(0.890681 0.107756 -5.91712e-24)
(1.10423 -0.0019538 -2.98065e-21)
(1.05337 -0.219448 0)
(1.07738 -0.113658 5.99635e-21)
(1.15132 0.21953 9.94119e-22)
(1.12837 0.109588 -1.01556e-21)
(1.18535 0.413517 0)
(1.17063 0.32238 0)
(1.19927 0.550797 6.10621e-24)
(1.19506 0.490115 0)
(1.1923 0.623846 4.68009e-24)
(1.19816 0.595057 0)
(1.1695 0.64383 0)
(1.18245 0.639194 0)
(1.13773 0.631803 0)
(1.15434 0.640515 0)
(1.10254 0.605964 -2.47577e-25)
(1.12032 0.619756 0)
(1.06693 0.577278 0)
(1.0847 0.591549 0)
(1.03171 0.550734 0)
(1.04928 0.563606 0)
(0.996539 0.527373 0)
(1.01417 0.538662 0)
(0.96018 0.508069 1.79462e-24)
(0.978647 0.517021 0)
(0.920184 0.496163 -1.90632e-24)
(0.940785 0.501059 0)
(0.875713 0.488282 -1.78822e-24)
(0.898382 0.492553 0)
(0.83063 0.46578 0)
(0.852865 0.480382 0)
(0.791004 0.407155 0)
(0.809817 0.441835 0)
(0.760906 0.30569 0)
(0.774633 0.361469 0)
(0.741939 0.170477 5.17495e-25)
(0.749998 0.241354 0)
(0.734614 0.0175332 -5.27773e-25)
(0.736816 0.0951459 0)
(0.738907 -0.136486 3.68559e-24)
(0.735339 -0.0603271 0)
(0.753958 -0.276684 6.1303e-24)
(0.745198 -0.20911 0)
(0.777405 -0.391647 0)
(0.76485 -0.337824 0)
(0.805565 -0.47555 5.43355e-24)
(0.791123 -0.437654 0)
(0.83449 -0.528811 -3.4232e-22)
(0.820051 -0.506008 0)
(0.861448 -0.557248 4.21444e-21)
(0.848146 -0.54593 9.05322e-22)
(0.873428 -0.56469 -1.35256e-21)
(0.89102 -0.594041 0)
(0.890621 -0.587171 0)
(0.896206 -0.604977 0)
(0.89283 -0.600039 4.09408e-22)
(0.907829 -0.611562 0)
(0.901163 -0.608792 0)
(0.926184 -0.613237 -6.45027e-22)
(0.91627 -0.613121 0)
(0.949747 -0.609274 -6.46891e-22)
(0.937349 -0.611936 5.39749e-22)
(1.00448 -0.622135 3.768e-21)
(0.99886 -0.608599 -1.70777e-21)
(0.977279 -0.599488 1.54948e-21)
(0.963032 -0.605033 6.56697e-22)
(1.01404 -0.634159 -8.88182e-24)
(1.00976 -0.631143 -1.0966e-21)
(1.02089 -0.612215 2.18493e-23)
(1.01782 -0.628587 0)
(1.02523 -0.54031 9.21213e-26)
(1.02326 -0.583174 0)
(1.02893 -0.413056 4.95448e-26)
(1.02705 -0.483275 0)
(1.03333 -0.240838 1.66701e-23)
(1.03102 -0.331349 0)
(1.03819 -0.0445592 0)
(1.03579 -0.144248 0)
(1.04213 0.153922 -5.86714e-26)
(1.04038 0.0556749 0)
(1.04385 0.33567 1.5854e-23)
(1.04334 0.24798 0)
(1.04265 0.484126 -1.39943e-23)
(1.04363 0.414993 0)
(1.03862 0.586271 0)
(1.04095 0.541529 0)
(1.03277 0.637659 0)
(1.03584 0.618051 0)
(1.02648 0.64773 1.76379e-25)
(1.02963 0.646681 0)
(1.02025 0.637715 0)
(1.0234 0.643713 0)
(1.01299 0.628671 0)
(1.01687 0.632156 0)
(1.00286 0.629163 0)
(1.00839 0.627781 0)
(0.988359 0.634839 0)
(0.996239 0.631896 0)
(0.967992 0.636684 5.13532e-24)
(0.979022 0.636819 0)
(0.939886 0.625017 0)
(0.955011 0.633201 0)
(0.903019 0.588509 -1.09559e-23)
(0.922524 0.610609 0)
(0.858755 0.516026 0)
(0.881623 0.557298 0)
(0.810811 0.401381 -7.32085e-24)
(0.834926 0.464024 0)
(0.764892 0.247 0)
(0.787184 0.328562 0)
(0.727531 0.0658561 -2.47118e-22)
(0.744694 0.1587 2.46708e-22)
(0.704691 -0.121303 7.10456e-22)
(0.714074 -0.0285682 -9.42208e-22)
(0.701585 -0.286463 -1.77619e-21)
(0.700028 -0.207828 1.78908e-21)
(0.726024 -0.413692 -3.38201e-21)
(0.721349 -0.40234 2.81975e-21)
(0.70851 -0.352194 0)
(0.9959 -0.341084 7.54504e-21)
(1.02724 -0.319955 0)
(0.733997 -0.418383 0)
(0.741068 -0.454474 3.1569e-21)
(0.73961 -0.437354 -2.51435e-21)
(0.906256 0.0106067 2.0652e-21)
(0.84052 -0.0216079 0)
(0.922871 -0.0883115 6.33502e-21)
(0.796438 -0.147213 -8.33194e-22)
(0.899401 -0.579038 -1.04699e-21)
(0.902687 -0.571836 1.4114e-21)
(0.937895 -0.186874 0)
(0.762613 -0.259724 0)
(0.952448 -0.27934 -4.12434e-21)
(0.741361 -0.352136 3.28804e-22)
(0.96485 -0.359962 -7.95288e-21)
(0.991983 -0.592691 -1.5656e-21)
(1.00214 -0.410085 9.79605e-21)
(0.973826 -0.429479 -1.12245e-22)
(0.746152 -0.467125 3.6879e-21)
(0.761335 -0.480461 2.98783e-21)
(0.762399 -0.458287 -2.32759e-21)
(0.976716 -0.486587 -3.46053e-21)
(1.03179 -0.385589 -3.26317e-21)
(0.887243 -0.55889 -2.59538e-21)
(0.897717 -0.562165 1.58599e-22)
(1.00215 -0.465062 2.76327e-21)
(0.872789 -0.00521575 9.50493e-22)
(1.08968 -0.193465 -3.53685e-21)
(1.05953 -0.295042 5.20372e-21)
(1.14513 0.0225281 9.68513e-22)
(1.11647 -0.0876153 -3.84483e-21)
(1.19328 0.23912 0)
(1.17044 0.132725 0)
(1.22442 0.424209 6.3723e-24)
(1.21155 0.33771 0)
(1.23256 0.551164 -5.38767e-24)
(1.23144 0.495834 0)
(1.21876 0.614467 -4.68009e-24)
(1.22809 0.590208 0)
(1.18939 0.6283 0)
(1.20551 0.626241 0)
(1.15228 0.613628 0)
(1.17138 0.623303 0)
(1.11308 0.587286 -2.6573e-25)
(1.13271 0.601152 0)
(1.07445 0.558913 0)
(1.09363 0.572992 0)
(1.03687 0.532659 0)
(1.05556 0.545416 0)
(0.999786 0.509207 0)
(1.01832 0.520614 0)
(0.96196 0.488867 0)
(0.981097 0.4985 0)
(0.920932 0.474772 0)
(0.942015 0.480848 0)
(0.87539 0.465281 1.78822e-24)
(0.898637 0.470118 0)
(0.828858 0.443951 0)
(0.851855 0.457556 0)
(0.787831 0.389332 0)
(0.807295 0.421736 0)