/*--------------------------------*- C++ -*----------------------------------*\
  =========                 |
  \\      /  F ield         | OpenFOAM: The Open Source CFD Toolbox
   \\    /   O peration     | Website:  https://openfoam.org
    \\  /    A nd           | Version:  10
     \\/     M anipulation  |
\*---------------------------------------------------------------------------*/
FoamFile
{
    format      ascii;
    class       surfaceScalarField;
    location    "4.5";
    object      phi;
}
// * * * * * * * * * * * * * * * * * * * * * * * * * * * * * * * * * * * * * //

dimensions      [0 3 -1 0 0 0 0];

internalField   nonuniform List<scalar> 
12623
(
0.0960682
0.0231524
-0.0362405
-0.0829801
0.0747965
-0.0383173
0.059589
0.0863602
-0.00906047
-0.0798875
0.00258776
-0.00901246
0.0870282
0.00834442
-0.0865957
0.00765037
-0.00610091
0.0850462
-0.0851487
-0.0104594
-0.00166166
0.0439046
-0.050113
0.00787004
-0.0506707
0.049009
0.0153398
-0.0198695
0.00452971
0.00971798
-0.0162111
0.0218329
0.0922662
-0.0406125
-0.0516538
-0.0607595
0.0506783
0.102347
-0.0459881
-0.0321996
0.0335655
0.0446221
0.00484206
0.00796324
-0.0587934
-0.0428592
0.0155017
0.00616267
-0.00391634
-0.00568581
0.00343948
-0.00546265
-0.00188305
0.0135084
-0.00583221
-0.00354678
-0.000658306
-0.013204
0.00127671
0.0125856
-0.0272408
0.0069906
0.0195919
-0.0243024
-0.0161424
-6.1942e-05
0.0105791
-0.00872648
-0.00179073
0.00443085
-0.00364797
-0.000844822
-0.0134777
0.0284877
-0.0619958
0.00647778
0.0634813
0.0096892
-0.0695396
-0.0021454
-0.0703608
0.00624843
0.0705901
-0.0826476
0.00614014
-0.00711725
0.0836247
-0.0818667
-0.00558917
0.00480827
-0.0860704
0.0860557
-0.00536423
0.00537892
-0.0834857
0.00355546
-0.0875789
0.010757
-0.00754938
0.0843712
-0.00894458
-0.0849662
0.00633192
0.085734
-0.0878894
0.0079009
-0.00623552
0.086224
-0.00827935
-0.085663
0.00605298
-0.0897544
-0.00567176
0.0871468
-0.0855249
0.00652761
0.085569
-0.0104925
-0.0899622
0.0148858
-0.00583554
0.0157859
0.0756187
-0.0874563
-0.00802277
0.0849866
-0.0866199
0.00706442
0.00549087
-0.00580046
0.0863652
-0.0870599
0.0112261
-0.0104952
0.0863291
-0.0120336
-0.0840092
0.00898286
-0.0100499
-0.0841593
-0.085688
-0.0082804
0.083509
-0.0845118
-0.00905769
-0.0688396
0.00568364
0.0722136
0.0536848
0.00876978
-0.0715123
-0.0561318
0.018835
0.0909817
-0.0210701
0.0856657
-0.0704381
0.00584248
-0.0684321
0.0732862
0.0158895
-0.0141296
-0.0750461
0.018809
0.0712203
-0.016743
-0.0106893
0.00716571
0.0808078
-0.0772842
-0.0830658
0.0827955
-0.010419
0.0815434
-0.00844409
0.00956238
-0.0826617
0.079285
-0.0798196
0.000164519
0.00037011
0.000141895
0.0796532
-0.000510111
-0.0801269
1.12111e-05
0.000296125
-0.0800331
0.00018483
-0.000278689
-0.079701
-0.000214037
-0.000118065
-0.0795621
1.03182e-05
-0.00014916
-0.079432
3.11945e-05
-0.000161354
-0.0792503
5.89758e-05
-0.000240664
-0.0790026
0.000246222
-0.000493879
-8.19091e-05
-0.0783879
-0.000532812
0.0792259
-0.0794467
0.000362602
0.000652869
0.0797002
-0.000699879
0.079968
-8.91392e-05
-0.0799512
0.00066909
-0.0801614
0.000221398
-0.0796722
-0.000304404
-0.0797775
-0.000108685
-0.0796602
-0.000107059
-0.079485
-0.000143938
-0.0792761
-0.000149894
-0.0788074
-0.000222521
-0.0787633
-0.000125979
0.000411418
0.0798949
-0.000338316
0.0802435
-0.000131917
-0.0004922
-0.078585
0.000689275
-0.0790145
-0.000241005
0.00140963
0.0801012
-0.00161594
0.0809583
0.00069486
-0.000782917
-0.0780268
0.000224701
-0.0788743
-0.000923182
0.00339442
0.0801579
-0.00345115
0.00248598
-0.00118578
-0.077869
0.00102802
-0.0783699
-0.00169013
0.0807572
-0.00618844
-0.00859197
0.0822319
-0.00247991
0.000513541
-0.0759026
-0.00166163
-0.0791882
0.0784821
-0.0794091
-0.00252411
-0.0749172
0.0764771
-0.0101519
-0.00262356
0.0802798
-0.0801428
-0.000475295
-0.000745303
0.0800008
-0.0798426
0.000204374
-0.000231133
0.0800786
-0.0794936
-0.000363652
0.000905142
0.0799179
-0.0794029
-0.000623656
0.000119925
0.0797794
-0.0791869
-0.000736452
0.000269392
0.0795597
-0.078816
-0.000966262
0.000222922
0.078606
-0.0788951
4.80469e-05
-0.00033592
0.0791681
-0.0786545
-0.00220368
-0.000650181
-0.0786187
-0.00169744
-0.0783201
0.078322
0.000222824
0.0767209
-0.00061181
-0.0755956
-0.000571173
-0.0790795
0.0789299
-0.000383143
-6.82288e-05
-0.080139
0.0791482
0.000750164
-0.00170302
-0.0802632
0.0794076
0.000706435
-0.00127639
-0.0803923
0.0794981
0.000615442
-0.00110273
-0.0807165
0.0797249
0.00136166
-0.000922206
-0.0808183
0.0793637
0.000754676
-0.00160347
-0.0801849
0.0807045
0.000175302
-0.000953117
-0.0821336
0.00345616
0.0010569
0.00671826
-0.00838587
0.0838995
0.0849788
-0.00511095
0.0732022
0.00147754
-0.0782481
-0.00184814
-0.000463205
-0.0772474
-0.0760259
0.0767152
-0.00130111
-0.000751524
0.000679096
-0.0755232
-0.0763108
-0.000466679
-0.00210301
0.000669012
-0.0768141
-0.0787388
0.0787177
-0.00182708
-0.00236022
-0.0784816
0.088466
-0.0856492
0.00256209
0.0734981
-0.0784472
-0.00520273
0.0754428
-0.0070557
0.087344
0.00661295
-0.0756867
0.0779668
-0.0789679
-0.00152301
-0.00310395
0.0796308
-0.0794501
-0.000655971
-8.24306e-05
0.0801349
-0.0792917
-0.000638842
0.000453661
0.0787545
-0.0788857
-0.000232498
0.000367973
0.0786268
-0.0788984
-0.000352071
-0.000138926
0.078463
-0.0787424
-0.00045709
-0.00016597
0.07825
-0.0784806
-0.000735607
-0.000269507
0.0782029
-0.0777924
-0.000362416
-0.000613702
0.0776649
-0.0786621
-0.00120648
-0.000777646
-0.00164183
-0.0774663
0.0783779
-0.00068873
-0.00132225
-0.0789675
0.0793709
-0.000786523
-0.000657912
-0.0782486
0.0794035
-0.00040474
-0.000580683
-0.078466
0.0794768
-0.000304428
-0.000338882
-0.0786318
0.0794794
-0.000232143
-0.000257727
-0.0787578
0.0803009
-0.000181383
-0.000200604
-0.0788573
0.0797562
-0.000144278
-0.000159855
-0.0789945
0.0792711
-0.00010125
-0.000191402
-0.0800173
0.0835467
-7.32344e-05
0.00031061
0.001453
0.00610175
0.000333215
0.0774645
0.0852801
0.0023752
0.0740181
-0.000950478
0.0759106
0.00100279
-0.00153801
-0.0757756
0.00106176
-0.0755821
-0.000783327
-0.0757951
-0.079381
0.0783708
-0.00081689
-0.079018
-0.00272325
0.00193165
-0.00260356
-0.0778097
0.00102636
-0.0759088
-0.0765205
0.0767383
-0.00175574
-0.00164988
0.00199556
-0.0761212
-0.0768057
-0.00136476
0.00828447
-0.004179
0.0822598
0.086088
0.00954045
-0.00497074
0.00424785
0.074741
0.0724318
-0.0715307
-0.00185158
0.0747495
-0.00728843
-0.0863773
0.00611151
0.0868787
-0.0831632
-0.000652018
-0.0754083
0.0744281
-0.0759817
-0.00364904
-0.00415833
0.0776548
-0.079133
-4.4786e-05
-0.00143091
0.078951
-0.079486
-0.000120949
-0.00026446
0.0788845
-0.0793564
-0.00016697
-0.000147861
0.0787917
-0.0787985
-0.000225637
-0.000196725
0.0786751
-0.0787212
-0.000305968
-0.000262386
0.0785329
-0.0785704
-0.000419589
-0.000354257
0.0783566
-0.0785127
-0.000579463
-0.000483308
0.0784621
-0.0780235
-0.000800979
-0.000664312
0.0778849
-0.0779848
-0.00110662
-0.000916303
-0.00125576
-0.0778216
0.0777109
-0.00119038
-0.00155003
-0.0778392
0.0783299
-0.00117946
-0.00145052
-0.0784242
0.0783396
-0.000701836
-0.000752263
-0.0783288
0.0784367
-0.000512619
-0.000569928
-0.0785221
0.0786018
-0.000384128
-0.000424289
-0.0786685
0.0787314
-0.000295075
-0.000324414
-0.0787843
0.0788338
-0.00023094
-0.00025346
-0.0788749
0.0789114
-0.000180747
-0.000200939
-0.0788781
0.0789152
-0.000138384
-0.000158098
-0.0793459
0.0801265
-0.000853842
-0.000120122
-0.00158364
0.00370083
-0.00340169
0.0771654
0.0848019
0.0767568
-0.078939
-0.00268257
0.00152473
-0.0751113
-0.000215343
-0.0745534
0.00209473
-0.00197851
-0.0769219
0.00192841
-0.0759549
0.00216329
-0.0032757
-0.0766972
0.00119502
-0.0749406
-0.00470548
0.00394179
0.0755047
-0.00641479
0.0764588
0.00910658
-0.00501863
0.0781718
0.00979557
0.085399
0.0786597
-0.0790925
-0.000219164
0.00204579
0.0827254
0.0747087
-0.0731946
-0.00336574
0.0746146
-0.00719431
-0.0790318
-0.0031829
0.00291636
-0.00416979
-0.0777783
0.00210926
-0.0758901
0.086762
0.00965714
-0.0740989
0.0746301
-0.0774976
-0.000781545
-0.00272278
0.0788575
-0.0788128
-8.95371e-05
-7.10116e-05
0.0789582
-0.0789392
-0.000139876
-0.000119074
0.0789125
-0.078877
-0.000202449
-0.000174572
0.0788367
-0.0787884
-0.000273925
-0.000237062
0.0787362
-0.0786767
-0.000365437
-0.000314603
0.0786129
-0.0785407
-0.00049181
-0.000418055
0.0784649
-0.0783818
-0.000662584
-0.000559099
0.0782974
-0.0782082
-0.000890151
-0.00074872
0.0781218
-0.0780363
-0.00119209
-0.00100271
0.0781415
-0.0776759
-0.00128253
-0.00115057
0.0781871
-0.0792697
-0.00159996
-0.00221208
0.0787477
-0.0796436
-0.00327395
-0.00370484
-0.0779897
0.0778441
-0.00161013
0.0772192
-0.0772929
-0.00190482
-0.00213524
-0.0781233
0.0785204
-0.00158745
-0.00182928
-0.0782209
0.0781201
-0.00107866
-0.00115104
-0.0782498
0.078347
-0.000798954
-0.000881989
-0.0784341
0.0785171
-0.000595636
-0.000657051
-0.0785889
0.0786574
-0.00045264
-0.000496103
-0.0787157
0.0787716
-0.000350884
-0.000382735
-0.0788187
0.0788625
-0.000274804
-0.00030058
-0.0788984
0.0789308
-0.00021318
-0.000236766
-0.078958
0.0790261
-0.00020648
-0.000185305
-0.0788931
0.0788104
-0.000771161
1.28914e-05
-0.00186578
0.000370539
-0.00193373
0.0787286
0.0801538
0.0787648
-0.00256038
0.00273594
-0.0770974
-0.0772981
-0.00255519
-0.00298616
0.00305622
-0.0778484
-0.0793483
-0.00328141
0.00130593
-0.0744888
-0.000308178
-0.0730502
-0.00564675
0.0738466
0.012198
0.0843597
0.0793343
-0.0785221
-0.00103131
0.0804581
0.000921939
0.00266438
-0.0758834
0.000819425
-0.0736507
0.00308597
-0.00289199
-0.0774921
0.00338241
-0.0773939
0.0022155
-0.0750494
-0.00445273
0.00364298
-0.0770386
-0.00403761
-0.0797634
0.0857968
0.0065858
-0.0731012
0.0769653
-0.0771951
-0.00313593
-0.0746719
0.0744824
-0.00545725
-0.00490086
0.0786889
-0.0792077
-0.000262728
-0.00122899
0.0789773
-0.0789692
-9.75705e-05
-0.000301469
0.0789606
-0.0789481
-0.000152376
-0.000127672
0.0789318
-0.0789086
-0.000225665
-0.000190928
0.0788798
-0.078843
-0.000310757
-0.000265822
0.0788008
-0.0787506
-0.000415613
-0.000356796
0.0786959
-0.0786335
-0.000554207
-0.00047275
0.0785689
-0.0784981
-0.000733377
-0.000623755
0.0784276
-0.0783541
-0.000963656
-0.00081917
0.0782853
-0.078219
-0.00125836
-0.00107156
0.0779808
-0.0776344
-0.00162899
-0.00138877
0.0780573
-0.07756
-0.00209725
-0.00178914
0.0787353
-0.0794171
-0.00259209
-0.00252958
0.0797416
-0.0798452
-0.00393399
-0.00295694
-0.0774538
0.0780772
-0.00252815
0.0771607
-0.0772132
-0.00283952
-0.0028483
-0.0779977
0.0784089
-0.00202131
-0.00205579
-0.0781801
0.078109
-0.00151635
-0.00160052
-0.0782175
0.0782989
-0.00116002
-0.00125955
-0.0783776
0.078457
-0.000878369
-0.000960701
-0.0785285
0.0785991
-0.000666183
-0.000728558
-0.0786604
0.0787197
-0.000511937
-0.000557449
-0.0787704
0.0788186
-0.000399037
-0.000433437
-0.0788587
0.0788956
-0.000311716
-0.000340728
-0.0789254
0.0789523
-0.000240115
-0.000266516
-0.0789739
0.0789517
-0.000184286
-0.000206931
-0.0790738
0.0790153
-0.000712613
-0.000109209
-0.00137262
-0.00359245
0.00380564
-0.0777052
-0.0771342
-0.0036714
-0.00458798
0.00387145
-0.0790469
-0.0796212
-0.00481198
0.0859611
0.00303471
0.00749175
-0.00629057
0.0831585
0.0829577
-2.91801e-05
-0.00220034
0.0804013
0.0790792
0.00110554
-0.00103714
0.0786602
0.079059
0.00168409
-0.00302609
0.0768467
0.0794118
0.00412528
-0.00462734
0.0743486
0.077558
-0.00453045
0.0743855
0.00159853
-0.073423
-0.000428379
-0.0718024
0.00279899
-0.0752999
0.00089592
-0.0723311
0.00362816
-0.0772164
0.00269467
-0.0741011
0.00439403
-0.00410574
-0.0774225
0.00434119
-0.0776524
0.00374798
-0.0769152
0.00526517
-0.00557599
-0.0793104
0.00450788
-0.0782896
0.0741714
-0.0749565
-0.00467216
0.0740589
-0.00441796
-0.071931
0.0762029
-0.077426
-0.00191286
-0.00365442
0.0785886
-0.0787764
-7.49021e-05
-6.64319e-05
0.0789839
-0.0789721
-0.000109441
-9.395e-05
0.078962
-0.0789526
-0.00016184
-0.000137704
0.0789426
-0.0789293
-0.000238899
-0.00020093
0.0789122
-0.0788883
-0.000334648
-0.000282949
0.0788583
-0.0788203
-0.000453592
-0.000386845
0.0787772
-0.0787266
-0.000604789
-0.000515851
0.0786735
-0.0786147
-0.000792173
-0.00067684
0.0785565
-0.0784969
-0.00102325
-0.000877391
0.0784429
-0.0783937
-0.0013076
-0.00112556
0.0783528
-0.0783244
-0.00165743
-0.00142964
0.078308
-0.078311
-0.00209426
-0.00180548
0.0785624
-0.0786713
-0.00248317
-0.0022782
0.0785691
-0.0794147
-0.00308835
-0.0030592
0.0800811
-0.0809538
-0.00470327
-0.0041456
-0.077426
0.0778555
-0.0032691
0.077325
-0.0775452
-0.00388546
-0.00377239
-0.0779194
0.0779709
-0.00257964
-0.00291218
-0.078091
0.0781041
-0.00203448
-0.00217585
-0.0782064
0.0782789
-0.00158877
-0.00170282
-0.0783495
0.0784215
-0.00123206
-0.00133016
-0.0784885
0.0785571
-0.000946956
-0.00102772
-0.0786188
0.0786802
-0.000727501
-0.000790298
-0.0787335
0.0787847
-0.000563097
-0.000610792
-0.0788277
0.0788676
-0.000438886
-0.000476493
-0.0789001
0.0789295
-0.000341119
-0.000373205
-0.0789536
0.0789765
-0.000263038
-0.00029064
-0.0789956
0.079015
-0.000203658
-0.000226023
-0.0790857
0.0785653
-0.000192182
-0.000179977
-0.0777906
0.0778203
-0.00106102
-0.000597884
-0.0789813
0.0808808
0.00113514
-0.000239035
0.00535186
0.00268339
3.94866e-05
0.0804356
-0.00654272
0.0845914
0.0790983
-2.58558e-05
1.53894e-05
0.0804118
0.0790929
-1.5399e-05
-0.00169769
0.0803733
0.079059
0.0013197
-0.00377286
0.0792998
0.0790338
0.0031499
-0.00463612
0.0758349
0.076935
-0.00498614
0.00515883
-0.0775952
-0.0777774
-0.00475398
-0.0052546
0.00545692
-0.0795127
-0.0813979
-0.00481051
0.00391842
-0.00303684
0.0731773
0.0736678
0.00193883
-0.0725628
-0.000576794
-0.0703297
0.00332505
-0.0749968
0.00096133
-0.0705978
0.00433755
-0.0772128
0.0026086
-0.0729617
0.0052723
-0.0777659
0.00382884
-0.0762361
0.00591333
-0.00565832
-0.0780324
0.00619198
-0.0778739
0.0051287
-0.0779614
0.00592866
-0.0810461
-0.0062804
0.00574754
-0.0793316
-0.0788607
0.0783187
-0.00511628
-0.00655498
0.00699322
-0.0784706
-0.0792034
-0.00621227
-0.00658483
0.00673241
-0.0811937
-0.0815443
0.0809104
-0.00564655
-0.0816296
-0.00649953
0.0741916
-0.0742232
-0.00300527
-0.00460607
0.00361888
0.0741645
0.0709003
-0.00131477
-0.070569
0.0745732
-0.076916
-0.0023293
-0.00406793
0.0779771
-0.079072
-0.000817881
-0.0025934
0.0790518
-0.0790311
-9.55396e-05
-8.67226e-05
0.0790119
-0.0789934
-0.000127951
-0.000113201
0.0789775
-0.0789644
-0.000174983
-0.000153528
0.0789539
-0.0789438
-0.000249012
-0.00021141
0.0789328
-0.0789188
-0.000348696
-0.000293908
0.0789004
-0.0788762
-0.000477811
-0.000405236
0.0788476
-0.0788123
-0.000640088
-0.000544436
0.0787739
-0.07873
-0.000836124
-0.000715202
0.0786855
-0.0786399
-0.00106884
-0.00092184
0.0785993
-0.0785642
-0.00134268
-0.00116622
0.07854
-0.078528
-0.00166938
-0.00145385
0.0785313
-0.0785519
-0.00207363
-0.00180221
0.0785879
-0.0784818
-0.00258923
-0.00224224
0.0787183
-0.0789498
-0.00285689
-0.00282273
0.0793443
-0.0806745
-0.00337302
-0.00375108
-0.00457462
-0.0780305
0.0783968
-0.00425171
-0.00446581
-0.0782107
0.0783095
-0.00336788
-0.00358636
-0.0782099
0.0782621
-0.00263175
-0.00281262
-0.0782966
0.0783375
-0.00207533
-0.0022104
-0.0783856
0.0784379
-0.001641
-0.001751
-0.0784897
0.0785461
-0.00128844
-0.00138201
-0.0785998
0.0786561
-0.00100328
-0.00108142
-0.0787076
0.0787591
-0.000778966
-0.000841799
-0.0788038
0.0788462
-0.000605531
-0.00065549
-0.0788814
0.0789134
-0.000470885
-0.000511643
-0.0789393
0.0789633
-0.000365033
-0.000399164
-0.0789836
0.0790037
-0.000283112
-0.000310987
-0.0790219
0.0790407
-0.000222471
-0.000244269
-0.0790562
0.0790403
-0.000176243
-0.00019546
-0.0785991
0.0783072
-0.000769061
-0.000156733
-0.0781989
0.0794844
-0.000150425
-0.000130754
0.00067701
0.00443384
5.61509e-05
0.0801014
0.0818419
-4.96195e-05
3.93225e-05
0.0804459
0.0791049
-2.58181e-05
1.70994e-05
0.0804205
0.0791064
-1.74575e-05
2.32667e-05
0.0803675
0.0790586
-2.80794e-05
0.000437764
0.0788902
0.079029
0.0003844
-0.00219383
0.0776443
0.0777572
0.0750928
0.00234958
-0.0715873
-0.000768073
-0.0686003
0.00396906
-0.0746283
0.00102387
-0.0690131
0.00526051
-0.077201
0.00296245
-0.0720953
0.00645402
-0.0780279
0.0045734
-0.0756808
0.00747204
-0.0783527
0.00575888
-0.0779727
0.00804473
-0.00683079
-0.0804174
0.00833729
-0.0787632
0.00682663
-0.0794258
0.00761256
-0.0823907
-0.00685138
0.00753481
-0.081116
-0.0804725
0.0799282
-0.00628647
-0.00837994
0.00896476
-0.0810022
-0.0812187
-0.00763378
-0.00777995
0.00802015
-0.0826309
-0.0825012
0.0825072
-0.00685741
-0.082888
-0.00739316
-0.00627173
0.00429663
0.0761396
-0.00770871
0.0723373
0.0744994
-0.075512
-0.00199265
0.0750316
-0.00184695
-0.0689875
0.0762945
-0.0775614
-0.00106243
-0.00328547
0.0786252
-0.0791115
-0.000331603
-0.00152955
0.0790972
-0.0790777
-0.000115031
-0.000100973
0.0790575
-0.0790361
-0.000149361
-0.000133462
0.0790154
-0.0789955
-0.000194891
-0.000174188
0.0789792
-0.0789647
-0.000263516
-0.000227711
0.0789523
-0.078941
-0.000359959
-0.000306325
0.0789297
-0.0789166
-0.000490914
-0.000416587
0.0789022
-0.0788836
-0.000658662
-0.0005588
0.0788625
-0.0788366
-0.000862006
-0.000736366
0.0788088
-0.0787792
-0.00109841
-0.000949654
0.0787525
-0.0787306
-0.00136454
-0.00119295
0.0787187
-0.0787194
-0.00166875
-0.00146572
0.0787351
-0.0787697
-0.00203904
-0.00178644
0.0788252
-0.0789138
-0.00250062
-0.00218676
0.0790599
-0.0788543
-0.00306249
-0.00267668
0.0794164
-0.0792377
-0.00355171
-0.00318898
0.0799485
-0.0813067
-0.00428831
-0.00386381
-0.00529905
-0.079473
0.079147
-0.00479023
-0.0057571
-0.0789116
0.0787645
-0.00410459
-0.00423045
-0.0786701
0.0785883
-0.00328607
-0.00349195
-0.0785516
0.0785351
-0.00261526
-0.00277592
-0.0785393
0.0785532
-0.00208929
-0.00221456
-0.0785744
0.0786032
-0.00166982
-0.00177218
-0.0786353
0.0786734
-0.00132663
-0.00141403
-0.0787123
0.0787547
-0.00104575
-0.00112025
-0.0787945
0.0788348
-0.000819268
-0.000881592
-0.07887
0.0789036
-0.000639088
-0.000690675
-0.0789316
0.0789577
-0.000496961
-0.000539686
-0.0789797
0.079001
-0.000386318
-0.00042116
-0.0790199
0.0790391
-0.000302315
-0.000329891
-0.0790564
0.0790732
-0.000239277
-0.000261554
-0.0790872
0.0791006
-0.000189614
-0.000209492
-0.0791111
0.0787424
-0.000400312
-0.000167304
-0.0791641
0.0789239
8.97503e-05
-0.000552422
-0.00028655
0.00571402
-0.00220025
0.0815324
0.0838986
0.000242187
5.01037e-05
0.0798091
0.0798839
-4.56521e-05
3.78406e-05
0.0804537
0.0791093
-2.80609e-05
2.14785e-05
0.0804271
0.0791161
-2.13455e-05
2.54077e-05
0.0803634
0.0790588
-2.84505e-05
-0.000637196
0.0795558
0.0790259
0.00199624
-0.00296689
0.0786149
0.0791162
0.0764226
0.00284141
-0.0704597
-0.00100252
-0.0665739
0.00478348
-0.0741513
0.00108913
-0.0671398
0.00645005
-0.077197
0.00338636
-0.0709083
0.00793213
-0.078488
0.00536788
-0.0752898
0.00906655
-0.0790819
0.00684287
-0.077989
0.0100098
-0.0798083
0.00785051
-0.0797415
0.00974255
-0.00882857
-0.0821327
0.0103721
-0.0816318
0.00873025
-0.0818261
0.00894002
-0.00838965
-0.0834383
0.00939897
-0.0830899
0.0101662
0.0571567
-0.0671486
0.0741003
-0.0756927
-0.000400333
-0.0691202
0.0503567
0.0289297
0.00313318
0.0778542
-0.0780624
-0.000854295
-0.00112392
0.079
-0.0792742
-5.73566e-05
-0.000591917
0.0791363
-0.0791246
-0.000126757
-0.0002389
0.0791087
-0.0790893
-0.000168777
-0.0001493
0.0790685
-0.079045
-0.000218456
-0.000194964
0.0790235
-0.0790028
-0.00028423
-0.000249184
0.0789852
-0.078971
-0.000374122
-0.00032392
0.0789608
-0.0789528
-0.000498902
-0.000426862
0.0789476
-0.0789424
-0.000663884
-0.000563935
0.0789369
-0.0789296
-0.000869284
-0.000741871
0.0789206
-0.0789104
-0.00110867
-0.000958656
0.0789009
-0.0788944
-0.00137101
-0.00120242
0.078895
-0.0789065
-0.00165722
-0.00146519
0.0789324
-0.0789786
-0.00199291
-0.0017605
0.0790452
-0.0791379
-0.00240793
-0.00212013
0.0792506
-0.0794031
-0.00291001
-0.00256391
0.0796162
-0.0797091
-0.00345877
-0.00297594
0.0795429
-0.0801065
-0.0037247
-0.00403003
0.0809123
-0.0824761
-0.0052936
-0.00449323
0.0832232
-0.0840554
-0.00755738
-0.00664612
-0.0806375
0.080059
-0.00570802
0.0806223
-0.0828494
-0.0066015
-0.00764898
-0.0794318
0.0794636
-0.0048221
-0.00512983
-0.079285
0.0791293
-0.00394887
-0.00405181
-0.0789956
0.0788946
-0.00318503
-0.00335826
-0.0788312
0.0787898
-0.0025739
-0.00271255
-0.0787682
0.0787582
-0.00207927
-0.00219291
-0.0787576
0.0787652
-0.00167742
-0.00177165
-0.0787792
0.0788001
-0.00134752
-0.00142796
-0.0788242
0.0788527
-0.00107427
-0.00114442
-0.0788807
0.07891
-0.000848575
-0.000909553
-0.0789363
0.0789623
-0.000665024
-0.000716984
-0.0789848
0.0790068
-0.000518951
-0.000562242
-0.0790263
0.0790459
-0.000405867
-0.000440682
-0.0790634
0.079081
-0.000319914
-0.000347463
-0.0790961
0.0791101
-0.000253275
-0.000276574
-0.079121
0.0791298
-0.000198478
-0.000220404
-0.0791372
0.0788353
-9.83463e-05
-0.000174702
-0.0787072
0.0793041
-0.000507145
-0.000424319
-0.0790357
0.0804371
0.0011863
-1.81471e-05
0.00381533
0.00200526
-0.000112429
0.0796396
-0.00402376
0.0827232
0.0818801
-0.000669887
4.26001e-05
0.0804364
0.0791016
-4.11069e-05
3.69533e-05
0.0804579
0.0791108
-3.13636e-05
2.72328e-05
0.0804312
0.0791217
-2.63423e-05
2.73298e-05
0.0803624
0.0790597
-2.74814e-05
-0.000793603
0.0803769
0.0790258
0.000751702
-0.00123189
0.0790951
0.0790743
0.00429501
-0.00660004
0.0784447
0.0794857
0.0158626
0.0916508
0.0815998
-0.00961079
0.011169
-0.0836909
-0.0835839
-0.00887625
-0.00836178
0.00983276
-0.0849093
-0.0849767
-0.0074405
0.00344578
-0.069122
-0.00129132
-0.0641935
-0.0834693
0.00427631
0.00580956
-0.0735108
0.00117191
-0.0649253
0.0891193
-0.0713711
0.0111815
0.000380811
0.00738748
0.0838826
0.00480861
0.0846915
0.00794859
-0.0772135
0.00393686
-0.0694773
0.00975521
-0.0791767
0.00638314
-0.0748301
0.0110535
-0.0801256
0.00822497
-0.0783634
0.0120473
-0.0814835
0.00948848
-0.0804997
0.0128074
-0.0832701
0.010247
-0.0826741
0.0115199
-0.010322
-0.0847818
0.0130301
-0.0852011
0.0110937
-0.0843508
-0.00944636
0.0108233
-0.0862863
-0.00828304
-0.08614
-0.0649941
0.0754295
-0.0770601
0.00123026
0.00719156
0.0777339
-0.0785431
-4.50386e-05
-0.000450103
0.0790686
-0.0790377
-8.82028e-05
-6.64795e-05
0.0791666
-0.0791609
-0.000132466
-0.000110051
0.0791514
-0.0791383
-0.000181912
-0.000158714
0.0791225
-0.0791021
-0.00023894
-0.000210734
0.0790812
-0.0790591
-0.000306283
-0.000270072
0.079039
-0.0790214
-0.000391628
-0.00034408
0.079009
-0.0790007
-0.00050722
-0.000439267
0.0789981
-0.0789996
-0.000662348
-0.00056659
0.0790045
-0.0790124
-0.000861367
-0.000736996
0.0790212
-0.0790313
-0.0010986
-0.000949814
0.0790415
-0.0790532
-0.00135925
-0.00119225
0.0790683
-0.0790912
-0.00163427
-0.00145018
0.0791256
-0.0791788
-0.00193978
-0.00172609
0.0792503
-0.0793466
-0.00231166
-0.00204859
0.0794629
-0.0796111
-0.00276188
-0.00244754
0.0796733
-0.0798468
-0.00328533
-0.00291369
0.0804042
-0.0801474
-0.00398145
-0.00347263
0.0804445
-0.0808538
-0.00488431
-0.00419616
0.0819818
-0.0836271
-0.00591208
-0.00551811
0.0843922
-0.0856434
-0.00703181
-0.00667538
-0.0818551
0.0822464
-0.00699287
0.0833429
-0.0850681
-0.00859675
-0.00738839
-0.08074
0.0804277
-0.00539574
-0.00614252
-0.0800803
0.0798087
-0.00455049
-0.00478247
-0.0796579
0.0794411
-0.00373203
-0.003901
-0.079289
0.0791708
-0.00306687
-0.00320618
-0.0790887
0.0790258
-0.00251102
-0.0026304
-0.0789835
0.0789527
-0.00204851
-0.00215061
-0.0789341
0.0789237
-0.00166708
-0.00175298
-0.0789219
0.0789272
-0.00135286
-0.00142613
-0.0789378
0.0789532
-0.0010897
-0.001155
-0.0789702
0.0789895
-0.000867916
-0.000926517
-0.0790081
0.0790275
-0.000684476
-0.000735521
-0.0790454
0.0790635
-0.000537067
-0.000580116
-0.07908
0.0790963
-0.000422183
-0.00045714
-0.0791106
0.0791242
-0.000333532
-0.000361736
-0.0791351
0.0791446
-0.000262749
-0.0002875
-0.0791514
0.0791565
-0.000203595
-0.000227246
-0.0791581
0.0792126
-0.000152789
-0.000176297
-0.0789198
0.0785217
-0.000109021
-0.000131554
-0.0785161
0.0799274
-0.000224968
-1.25541e-05
0.000273343
0.00302352
-0.00150969
0.0812094
0.0839348
-0.000833323
3.08719e-05
0.080442
0.0795371
-3.35952e-05
3.50384e-05
0.080435
0.0790988
-3.60237e-05
3.58419e-05
0.0804581
0.0791098
-3.46215e-05
3.30422e-05
0.0804328
0.079123
-3.14423e-05
2.95088e-05
0.0803643
0.0790613
-2.70229e-05
2.36918e-05
0.0803802
0.0790283
-2.09894e-05
-0.000451862
0.079568
0.079077
0.000949061
-0.00296526
0.0804609
0.0799829
0.086022
-0.0105483
0.0123377
-0.0865712
-0.086477
-0.00913944
-0.00856185
0.00971048
-0.0872887
-0.0870843
-0.007121
0.00417864
-0.0674911
-0.00162988
-0.0613917
0.0851023
-0.0795625
0.0056417
0.0838024
0.00610849
0.00708314
-0.0726454
0.00130644
-0.0622949
0.00978244
-0.0772407
0.00465799
-0.0677521
0.0119747
-0.0800979
0.00767915
-0.0742843
0.0134723
-0.0815505
0.00995993
-0.0788349
0.0144137
-0.0830899
0.0114829
-0.0817357
0.0149591
-0.0851991
0.0128462
-0.0844266
0.0145491
-0.0874126
0.0125039
-0.0860313
0.0115228
-0.010377
-0.0876227
0.013956
-0.0890044
0.0112894
-0.0878652
-0.0868026
0.0849538
-0.00852819
0.0093076
-0.0870879
-0.00902231
0.011821
-0.0901361
-0.00408024
0.0822815
-0.00775661
0.00978823
-0.0893203
-0.007505
-0.0873359
-0.0624454
0.0776319
-0.0783501
0.00194842
0.00526096
0.0791767
-0.0791796
-4.20942e-05
0.000376484
0.0791825
-0.0791838
-8.69317e-05
-6.35683e-05
0.079185
-0.0791839
-0.000133532
-0.000108875
0.0791812
-0.0791755
-0.000187657
-0.000161393
0.0791673
-0.079155
-0.000251273
-0.000218901
0.0791406
-0.0791239
-0.000323006
-0.000284457
0.079107
-0.0790903
-0.000408271
-0.000360956
0.0790774
-0.0790679
-0.00051672
-0.000452245
0.0790645
-0.0790681
-0.000658807
-0.000569924
0.0790782
-0.0790962
-0.000843446
-0.000726826
0.079119
-0.0791468
-0.00107072
-0.000927008
0.0791761
-0.0792073
-0.00132801
-0.00116299
0.079239
-0.0792752
-0.00159805
-0.00141856
0.0793177
-0.0793745
-0.00188303
-0.00168355
0.0794458
-0.0795398
-0.00221762
-0.0019773
0.079652
-0.0797908
-0.00262301
-0.00233537
0.0799505
-0.0801552
-0.00308067
-0.002754
0.0803932
-0.0807118
-0.00366283
-0.00323466
0.0809594
-0.0812093
-0.00463435
-0.00394859
0.0815921
-0.0818251
-0.00567911
-0.0051353
0.0824034
-0.0838197
-0.00561545
-0.00609711
0.0852044
-0.0862737
-0.00643569
-0.00573634
-0.0839069
0.0828848
-0.00757459
-0.00809259
-0.0826523
0.0818749
-0.00621555
-0.00715588
-0.0811599
0.0807968
-0.0050327
-0.00542743
-0.0805201
0.0801863
-0.00421665
-0.00450575
-0.0799263
0.0797105
-0.00351618
-0.00364105
-0.0795507
0.0794195
-0.00293565
-0.00304647
-0.0793228
0.0792432
-0.0024314
-0.00253369
-0.0791851
0.0791384
-0.00200181
-0.00209248
-0.0791057
0.0790814
-0.00164275
-0.00172034
-0.0790666
0.0790585
-0.00134474
-0.00141138
-0.0790568
0.0790601
-0.00109299
-0.00115324
-0.0790667
0.0790765
-0.000877707
-0.000933156
-0.0790872
0.0790994
-0.000696683
-0.000746218
-0.0791112
0.0791234
-0.00054931
-0.000591922
-0.0791347
0.0791456
-0.000433086
-0.000468359
-0.0791548
0.079163
-0.00034182
-0.000370926
-0.0791692
0.079174
-0.000267511
-0.00029369
-0.0791771
0.0791791
-0.000205612
-0.000230381
-0.0791792
0.0791792
-0.000152778
-0.000176378
-0.0791788
0.079177
-0.00010726
-0.000131122
-0.0793027
0.0797237
-0.000645934
-0.000138221
-0.0794346
0.0828208
0.000890101
0.00056243
0.00368538
0.00162094
-0.000403968
0.0799924
0.0814755
-1.99572e-05
2.21135e-05
0.0804399
0.0791132
-2.46649e-05
2.74995e-05
0.0804321
0.0790963
-3.06899e-05
3.41142e-05
0.0804546
0.0791066
-3.67982e-05
3.76072e-05
0.080432
0.0791203
-3.58302e-05
3.19746e-05
0.0803682
0.079063
-2.79608e-05
2.55156e-05
0.0803827
0.0790323
-2.55465e-05
-0.000838732
0.0804322
0.079077
-2.86393e-05
-0.000695941
0.0811855
0.0791155
-0.00471035
0.00342777
0.0851651
0.0806157
0.00101666
-0.0121788
0.0949646
0.0891359
0.00505527
-0.0654632
-0.00200788
-0.0580774
0.00714909
-0.0067309
-0.0866919
0.00763758
-0.0878244
0.0844851
-0.0906846
-0.00597935
-0.0182094
0.058523
0.054651
0.0746171
-0.00834143
-0.0838054
0.0822602
-0.00489051
-0.083792
-0.00674427
0.0086164
-0.0714793
0.00153335
-0.0591702
0.0119602
-0.0772263
0.00561135
-0.0656843
0.0146079
-0.0812335
0.0093123
-0.0736366
0.0162829
-0.0834197
0.0120879
-0.0794399
0.0170006
-0.0851314
0.0138022
-0.0826917
0.0170793
-0.0877292
0.0145916
-0.0865143
0.0159325
-0.089389
0.0138355
-0.0885775
-0.00911247
-0.0887395
0.0107641
-0.088048
0.0865097
-0.00757417
0.00812313
-0.0892443
-0.00692683
-0.0907393
0.0101229
0.0141671
-0.0913506
0.0117786
-0.0898556
-0.0919687
0.0125967
0.0107633
-0.0231104
0.0708701
-0.0835647
0.00299786
-0.0107429
0.0761572
-0.059398
0.0846318
-0.0822633
0.00327319
5.56874e-05
0.0803133
-0.0790914
0.000726457
0.00331103
0.0791912
-0.079193
-4.02705e-05
0.000476272
0.0791959
-0.0791979
-8.49256e-05
-6.06161e-05
0.0792001
-0.0792021
-0.000131605
-0.000106678
0.0792032
-0.0792031
-0.000187835
-0.000160222
0.0792018
-0.0791982
-0.00025488
-0.000220182
0.0791924
-0.0791846
-0.000330869
-0.000290184
0.0791754
-0.0791649
-0.000418764
-0.000370108
0.079156
-0.0791491
-0.000523588
-0.000461203
0.0791472
-0.0791525
-0.000653525
-0.000571851
0.0791657
-0.0791892
-0.000819922
-0.00071357
0.0792208
-0.0792612
-0.00103035
-0.000895442
0.0793055
-0.0793539
-0.00127953
-0.00111871
0.0794017
-0.0794514
-0.00154831
-0.00137084
0.0795015
-0.0795593
-0.00182522
-0.00163346
0.0796259
-0.0797117
-0.0021318
-0.00191071
0.0798151
-0.0799467
-0.00249144
-0.00223193
0.0801005
-0.0802906
-0.00289051
-0.00260023
0.0805104
-0.0807848
-0.00338842
-0.00301493
0.0811122
-0.0815426
-0.00420393
-0.00362116
0.0820555
-0.0822898
-0.00544486
-0.00462241
0.0824387
-0.0822598
-0.00579442
-0.00594816
-0.00573587
-0.085714
0.0848126
-0.00762678
-0.00822659
-0.0843424
0.0836041
-0.00683626
-0.00762238
-0.0827022
0.0821735
-0.00568684
-0.00625401
-0.0815154
0.081073
-0.00459029
-0.00476935
-0.0807124
0.0803959
-0.00390015
-0.00414517
-0.080154
0.0799435
-0.00330564
-0.00339914
-0.0797799
0.0796399
-0.00279566
-0.00288293
-0.0795333
0.0794427
-0.00234075
-0.00242705
-0.0793741
0.0793166
-0.00194429
-0.0020239
-0.0792739
0.079239
-0.00160781
-0.00167768
-0.0792138
0.0791942
-0.00132513
-0.00138624
-0.0791813
0.0791728
-0.00108449
-0.00114032
-0.0791687
0.0791678
-0.000876809
-0.000929087
-0.0791692
0.0791722
-0.000699715
-0.000747567
-0.079176
0.0791805
-0.00055383