/*--------------------------------*- C++ -*----------------------------------*\
  =========                 |
  \\      /  F ield         | OpenFOAM: The Open Source CFD Toolbox
   \\    /   O peration     | Website:  https://openfoam.org
    \\  /    A nd           | Version:  10
     \\/     M anipulation  |
\*---------------------------------------------------------------------------*/
FoamFile
{
    format      ascii;
    class       volVectorField;
    location    "4.5";
    object      U;
}
// * * * * * * * * * * * * * * * * * * * * * * * * * * * * * * * * * * * * * //

dimensions      [0 1 -1 0 0 0 0];

internalField   nonuniform List<vector> 
6397
(
(1.03941 -0.183681 1.0303e-20)
(1.04468 -0.196466 -4.79507e-20)
(1.04643 0.00107286 0)
(1.0464 0.0009158 -2.56752e-23)
(1.04618 0.000794627 4.72667e-22)
(1.0462 0.000928481 9.40842e-22)
(0.772524 -0.486828 -4.63674e-20)
(0.465762 -0.696235 1.06721e-19)
(-0.217589 -0.00932775 1.6848e-20)
(-0.216709 -0.118241 -6.49979e-21)
(0.501241 0.710432 6.63835e-20)
(0.805837 0.72161 -8.15761e-21)
(0.812352 0.0367449 -1.80579e-21)
(0.849406 0.0211149 -1.05791e-21)
(0.596934 0.0366707 3.34536e-21)
(-0.0194941 0.0764591 -1.0791e-19)
(0.148111 0.0891211 -6.31849e-20)
(-0.0794862 0.141692 5.21792e-20)
(0.32552 0.0115014 5.46789e-20)
(0.442131 -0.16635 -1.66544e-19)
(0.542527 -0.0190369 -8.63371e-20)
(0.130806 -0.0566776 -8.04266e-20)
(-0.0542983 -0.0911756 3.64091e-21)
(0.354916 -0.0586559 -5.71759e-20)
(0.942761 0.025829 0)
(0.968955 0.0157396 6.01992e-22)
(1.00852 0.0229523 1.38543e-22)
(1.0448 0.000560113 -2.48401e-21)
(1.04453 0.000639824 6.0996e-22)
(1.04489 0.000790702 -1.25876e-21)
(1.04472 0.000868894 1.75967e-21)
(1.04651 0.000548113 1.29509e-21)
(1.04657 0.000711723 9.15317e-22)
(1.04637 0.00075017 -3.27347e-21)
(1.04671 0.000225261 3.56593e-22)
(1.04677 0.000379959 0)
(1.04658 0.000515347 -3.98824e-22)
(1.04669 0.000637581 -8.38425e-22)
(1.04703 -0.00012034 7.33452e-22)
(1.04697 -0.000245267 -3.59419e-22)
(1.04684 -2.23964e-06 0)
(1.0469 0.000136446 0)
(1.04503 0.000668955 5.74262e-22)
(1.04592 0.0010548 9.95416e-22)
(1.04587 0.00118358 -1.07173e-21)
(1.04621 0.00107366 2.06999e-21)
(1.04603 0.000972649 9.93788e-22)
(1.04603 0.00110858 -3.02848e-21)
(1.0468 -0.00106655 5.864e-22)
(1.04703 -0.00106054 -9.47207e-23)
(1.04712 -0.000959744 1.07361e-21)
(1.0474 -0.00143659 -3.74829e-22)
(1.04698 -0.00100773 -2.77519e-21)
(0.979227 0.198548 -7.96418e-21)
(1.03146 0.23033 5.25849e-21)
(1.03254 0.0502856 3.91364e-21)
(1.03814 0.063325 3.98309e-21)
(1.14765 -0.0361944 -6.21605e-22)
(1.04142 0.000718117 1.60164e-21)
(1.04213 0.000677575 -1.60457e-21)
(1.04061 0.000751185 -1.65725e-21)
(1.03967 0.000801393 1.63148e-21)
(1.03856 0.00081737 1.83837e-21)
(1.03728 0.000886767 -1.80697e-21)
(1.03578 0.000961353 0)
(1.03401 0.00111106 -2.05e-21)
(1.03191 0.00129062 2.15151e-21)
(1.02939 0.00157736 0)
(1.04215 8.8526e-05 1.4551e-21)
(1.04275 0.000695823 -3.81621e-25)
(1.04279 0.000158779 -1.3819e-21)
(1.0414 -3.6464e-06 0)
(1.04056 -0.000100594 0)
(1.03963 -0.000193471 0)
(1.03856 -0.000314924 7.06992e-24)
(1.03728 -0.000462191 -9.07015e-25)
(1.03577 -0.000631875 0)
(1.03399 -0.000832758 2.4822e-25)
(1.03188 -0.00106262 0)
(1.02931 -0.00133565 0)
(1.04331 0.00022166 1.45471e-21)
(1.04329 0.000683943 -9.82252e-23)
(1.02627 0.00193308 0)
(1.02622 -0.00160663 0)
(1.04378 0.00025571 -5.70347e-23)
(1.04377 0.000688254 0)
(1.02242 0.00246544 0)
(1.02245 -0.0019265 0)
(1.04422 0.000267597 -2.64926e-21)
(1.04418 0.000683589 3.26557e-22)
(1.01772 0.00316609 0)
(1.01782 -0.00223524 0)
(1.04459 0.000251227 1.96898e-21)
(1.0449 0.000214733 1.22895e-21)
(1.01204 0.00420765 0)
(1.01217 -0.00251962 -3.50627e-22)
(1.04433 -0.000225296 0)
(1.04498 -0.000270105 -2.41579e-21)
(1.04468 -0.000202999 -1.63265e-22)
(1.0434 -0.000370451 1.38678e-21)
(1.04391 -0.000265821 0)
(1.04222 -0.000572354 7.2114e-22)
(1.04284 -0.000471008 -1.39132e-21)
(1.04073 -0.000962315 -8.44716e-22)
(1.04152 -0.000736634 -5.63606e-22)
(1.03879 -0.00151556 -7.08157e-24)
(1.03982 -0.00121782 8.91841e-22)
(1.03618 -0.00227591 4.41058e-23)
(1.03757 -0.00184528 1.06928e-21)
(1.03262 -0.00342592 9.20855e-22)
(1.03454 -0.00276857 -1.91067e-21)
(1.02757 -0.00512525 0)
(1.0303 -0.00416455 0)
(1.02045 -0.00750498 0)
(1.02432 -0.00622144 0)
(1.01574 -0.00884365 7.05324e-22)
(1.02401 0.00637728 2.51746e-21)
(1.01507 0.010014 1.42341e-21)
(1.01996 0.00798559 -2.48191e-21)
(1.03029 0.00423992 -2.28871e-21)
(1.02745 0.00517808 2.23694e-21)
(1.03461 0.00309451 -1.57924e-23)
(1.03268 0.00367153 -6.52805e-23)
(1.03766 0.00237221 0)
(1.03628 0.00273918 0)
(1.03988 0.0018938 -1.63878e-21)
(1.03887 0.00213866 -2.18012e-22)
(1.04156 0.00159401 -2.89483e-22)
(1.04079 0.00175936 1.6282e-21)
(1.04285 0.00135896 -7.77622e-22)
(1.04225 0.00149239 9.12427e-23)
(1.04381 0.00111227 1.33176e-21)
(1.04338 0.00123223 7.08824e-22)
(1.0445 0.000954954 0)
(1.04419 0.00101889 -1.47227e-21)
(1.04511 0.000130355 1.17499e-21)
(1.04499 0.000475515 2.37419e-23)
(1.04516 -0.000256122 -6.37096e-22)
(1.01009 -0.0104692 1.1448e-21)
(1.00522 -0.00265432 -2.77421e-22)
(1.02032 0.0142071 2.0876e-23)
(1.00929 0.012653 -1.42668e-21)
(1.01657 0.0173934 0)
(1.00324 -0.0122092 -7.7089e-22)
(1.01809 -0.0158339 1.51761e-21)
(1.01401 -0.0185467 -1.50885e-21)
(1.04495 0.000845046 -6.05172e-22)
(1.04492 -0.000569445 1.27461e-21)
(1.04505 -0.000397075 6.09904e-22)
(1.04509 0.000736732 -5.63891e-22)
(1.00501 0.00558406 -8.76039e-23)
(1.04442 -0.000821311 0)
(1.0447 -0.000691121 3.1868e-22)
(1.0436 -0.00102987 -4.37697e-23)
(1.04406 -0.000907614 0)
(1.04247 -0.00139224 2.25266e-22)
(1.04307 -0.00118169 -4.59814e-22)
(1.04106 -0.00193792 0)
(1.04181 -0.00162337 -1.02548e-22)
(1.03927 -0.00269964 0)
(1.04022 -0.00226964 -5.43813e-23)
(1.03698 -0.00380204 0)
(1.0382 -0.00318486 -1.18337e-22)
(1.03396 -0.0054367 -7.11228e-25)
(1.03557 -0.00450781 -9.73581e-23)
(1.02995 -0.00789297 -7.21003e-23)
(1.03208 -0.00650513 1.31689e-22)
(1.02481 -0.0113408 4.21343e-23)
(1.02754 -0.00950602 4.04584e-23)
(1.02166 -0.0134022 -3.50614e-22)
(1.02681 0.00934849 -3.80107e-23)
(1.02377 0.0115495 -3.99162e-23)
(1.03178 0.00630697 2.16836e-24)
(1.02947 0.0076462 0)
(1.0355 0.00453251 0)
(1.03377 0.00535119 3.22111e-23)
(1.03823 0.00340993 0)
(1.03695 0.00394749 0)
(1.04026 0.00263338 1.64631e-24)
(1.0393 0.00301694 2.21192e-22)
(1.04183 0.00208844 1.93417e-22)
(1.04109 0.00236278 0)
(1.04305 0.00168296 6.92994e-22)
(1.04247 0.00190165 0)
(1.04395 0.00135914 -4.21539e-23)
(1.04354 0.00153025 -6.94263e-22)
(1.04455 0.00104127 -1.20646e-24)
(1.04427 0.0011809 -1.58504e-22)
(1.04477 0.000953381 6.05695e-22)
(1.04525 0.000127641 -2.73226e-22)
(1.04515 0.000365288 0)
(1.04517 -0.000225471 -2.93864e-22)
(1.04531 -0.000141162 2.58273e-22)
(1.0127 0.0211047 0)
(1.00246 0.0157147 0)
(0.99663 -0.00303112 4.09177e-22)
(1.02583 -0.0185703 1.72771e-22)
(1.02413 -0.02147 0)
(1.00932 -0.0215577 2.07447e-22)
(0.995006 -0.0142561 -1.02899e-22)
(1.02271 0.0229802 0)
(1.00879 0.0252027 0)
(1.02154 0.0266877 1.60802e-21)
(1.04516 0.000569846 -5.67905e-22)
(1.04525 0.000639035 0)
(1.0452 -1.12091e-05 5.87551e-22)
(1.04499 -0.000193018 4.70044e-24)
(1.04504 1.11855e-05 -1.44739e-21)
(1.04529 0.000897854 0)
(1.04512 0.000991103 5.24233e-22)
(0.996403 0.00705139 0)
(1.04478 -0.000662498 -1.62999e-22)
(1.04487 -0.000469487 0)
(1.04445 -0.00107123 -5.12066e-24)
(1.04465 -0.000884858 -4.63256e-24)
(1.04385 -0.00144873 8.74068e-23)
(1.04419 -0.00125826 0)
(1.04288 -0.00195214 -1.46585e-24)
(1.04341 -0.00169649 9.2061e-23)
(1.04158 -0.00262605 1.59409e-24)
(1.04227 -0.00225096 1.00024e-22)
(1.03997 -0.00357859 -2.27792e-22)
(1.0408 -0.00305665 0)
(1.03799 -0.00493608 0)
(1.03903 -0.00419394 2.32153e-22)
(1.03554 -0.00690704 6.66321e-23)
(1.03682 -0.00581884 -3.24893e-23)
(1.03257 -0.00973741 0)
(1.0341 -0.00819213 8.83479e-24)
(1.02927 -0.0135922 7.61261e-23)
(1.03094 -0.0115271 -1.60234e-22)
(1.02754 -0.0159484 -3.52766e-22)
(1.02605 0.0165452 2.99104e-22)
(1.02423 0.0195842 -1.34119e-24)
(1.03 0.0116522 1.1707e-22)
(1.02802 0.0139018 -4.73641e-22)
(1.03361 0.00818981 -1.45516e-23)
(1.03186 0.00974993 2.79804e-22)
(1.0366 0.00589955 0)
(1.03517 0.00692962 -3.04916e-22)
(1.03892 0.00441701 0)
(1.03783 0.00507928 0)
(1.04073 0.00339259 -3.20277e-24)
(1.03988 0.00385453 0)
(1.04217 0.00267027 0)
(1.04149 0.00299174 0)
(1.04328 0.0021235 0)
(1.04277 0.0023682 0)
(1.04409 0.00165001 -3.1946e-22)
(1.04372 0.00186735 0)
(1.04468 0.00126805 1.19485e-24)
(1.0444 0.00145669 3.26401e-22)
(1.04491 0.00108081 -6.0714e-22)
(1.04535 0.000116008 -2.8498e-22)
(1.04526 0.000275729 5.31963e-22)
(1.04535 8.16444e-07 -5.80899e-22)
(1.02237 -0.0246393 -1.64107e-21)
(0.994689 0.0193722 0)
(0.986201 -0.00324575 -5.19985e-22)
(1.02099 0.0307635 -1.72636e-21)
(1.00493 0.0297251 0)
(1.00402 -0.0249079 -2.23249e-22)
(0.985144 -0.0164208 -7.09193e-22)
(1.0452 0.0001456 -2.07926e-24)
(1.04511 0.000114389 -1.67931e-24)
(1.04533 0.000416588 -4.92107e-22)
(1.04542 0.000535056 -5.0883e-22)
(1.0453 0.00127566 -5.3798e-22)
(1.04552 0.00114045 0)
(1.04487 -0.000298312 -1.55594e-22)
(1.045 -0.000171171 -2.81883e-22)
(1.02066 -0.0281508 1.64593e-21)
(1.01871 -0.0320641 2.28643e-22)
(0.997795 -0.0285304 1.70415e-21)
(1.04545 0.000792362 1.51837e-23)
(0.986066 0.0090068 0)
(1.0446 -0.000674715 -1.49389e-22)
(1.04472 -0.000481083 6.16682e-22)
(1.0444 -0.00122028 1.61871e-22)
(1.04451 -0.000939805 -3.96399e-22)
(1.04402 -0.001841 0)
(1.04424 -0.00153752 0)
(1.0433 -0.00253039 1.22137e-26)
(1.04372 -0.00217544 9.0029e-29)
(1.04222 -0.00334897 -1.57982e-24)
(1.0428 -0.00290912 0)
(1.04082 -0.00443658 0)
(1.04155 -0.00385075 1.03335e-28)
(1.0391 -0.0059647 0)
(1.04 -0.00514139 0)
(1.03707 -0.00807868 0)
(1.03813 -0.00693482 0)
(1.03479 -0.0109797 0)
(1.03595 -0.00941016 0)
(1.0325 -0.0148677 0)
(1.03362 -0.0127958 0)
(1.03053 -0.0197343 2.72358e-22)
(1.03146 -0.0171806 0)
(1.02897 -0.0256565 0)
(1.02974 -0.0225709 1.12704e-24)
(1.02772 -0.0331735 0)
(1.02837 -0.0292334 3.93104e-22)
(1.02851 0.023205 3.6486e-22)
(1.02754 0.0302905 5.08829e-22)
(1.02794 0.0265065 -3.66433e-22)
(1.03033 0.0176246 -1.17351e-22)
(1.02931 0.0202885 1.3407e-24)
(1.03283 0.0130214 7.33242e-23)
(1.03151 0.0151963 1.67883e-22)
(1.03542 0.00954358 3.25433e-26)
(1.03413 0.0111587 0)
(1.03777 0.00705591 0)
(1.03664 0.00817965 0)
(1.03972 0.00534968 0)
(1.03879 0.00612459 0)
(1.04131 0.00415146 1.36942e-26)
(1.04055 0.00470048 0)
(1.04259 0.00327572 0)
(1.04198 0.00368394 0)
(1.04356 0.00257669 0)
(1.04311 0.00291441 0)
(1.04427 0.00201385 -1.63875e-22)
(1.04395 0.00228278 1.70438e-22)
(1.04484 0.00155054 -1.51314e-22)
(1.04457 0.00175398 1.9815e-23)
(1.04509 0.00140419 7.55777e-22)
(1.04538 0.000163942 3.66366e-22)
(1.04535 0.000211678 5.27255e-22)
(1.04533 0.000127997 0)
(1.02078 0.0354225 0)
(1.02715 0.0348484 -4.5807e-22)
(1.01665 -0.0366152 -1.98205e-21)
(1.02708 -0.0377435 0)
(0.986001 0.023407 0)
(0.973588 -0.00323566 0)
(1.04517 -8.85469e-05 0)
(1.0456 0.000708626 1.10778e-21)
(1.04548 0.00150963 -4.40472e-22)
(1.04566 0.00139652 0)
(1.00132 0.0348922 -1.16874e-22)
(0.973387 -0.0187388 9.27518e-22)
(1.02678 0.0405391 -3.47569e-22)
(1.02085 0.0411886 1.20214e-22)
(0.99072 -0.032669 -1.94869e-21)
(1.01413 -0.0419653 -1.20746e-22)
(1.02656 -0.0429427 0)
(1.04566 0.00103568 -1.11624e-21)
(0.973855 0.0113792 0)
(1.04493 -0.000453404 5.68627e-22)
(1.04543 -0.000300793 3.923e-22)
(1.04517 -0.000359124 1.37681e-21)
(1.04455 -0.000731688 2.43542e-22)
(1.04473 -0.000574884 -5.71815e-22)
(1.04433 -0.0012896 0)
(1.04443 -0.000984532 -1.50819e-22)
(1.04408 -0.00201775 -7.90912e-29)
(1.04422 -0.00163986 8.22411e-29)
(1.04364 -0.002905 1.47834e-26)
(1.0439 -0.00245852 0)
(1.04287 -0.00390302 0)
(1.0433 -0.00337671 0)
(1.04173 -0.00514416 1.67495e-24)
(1.04234 -0.00448456 -1.03335e-28)
(1.04026 -0.00682903 -1.09486e-28)
(1.04104 -0.00593199 1.13675e-28)
(1.03852 -0.00905723 0)
(1.03942 -0.00786449 0)
(1.03662 -0.0119886 -2.14093e-24)
(1.03758 -0.0104152 0)
(1.03476 -0.0158227 2.33138e-24)
(1.03567 -0.0137888 0)
(1.03322 -0.020597 8.59232e-23)
(1.03393 -0.0181078 0)
(1.032 -0.0266168 -7.57952e-22)
(1.03254 -0.0234439 -1.81936e-22)
(1.03126 -0.0343024 -8.37678e-22)
(1.03154 -0.0302738 3.61282e-22)
(1.03131 -0.0439498 -1.80694e-21)
(1.03117 -0.03887 8.35828e-22)
(1.02845 0.0310196 -3.85516e-22)
(1.02572 0.0414126 9.44242e-23)
(1.02709 0.0356848 4.28406e-22)
(1.03071 0.0239622 -5.61971e-22)
(1.02964 0.0272185 3.51804e-22)
(1.03276 0.0185071 2.64554e-22)
(1.03171 0.0210971 1.48688e-22)
(1.03487 0.0141048 0)
(1.03379 0.0161996 -3.25238e-22)
(1.03698 0.0106078 4.02978e-24)
(1.03593 0.0122378 1.33113e-28)
(1.03893 0.00800992 0)
(1.03799 0.00920312 0)
(1.0406 0.00615039 1.69672e-24)
(1.0398 0.00700285 0)
(1.04198 0.00481055 1.58214e-24)
(1.04132 0.00542856 0)
(1.04307 0.00379234 0)
(1.04256 0.00427088 0)
(1.04388 0.00295875 0)
(1.04351 0.00335347 0)
(1.04449 0.00227594 0)
(1.04421 0.0025919 0)
(1.04501 0.00181621 0)
(1.04476 0.00202177 -9.86064e-24)
(1.04527 0.00164231 2.90907e-22)
(1.0264 0.0479063 4.54643e-22)
(1.02452 0.0484907 0)
(1.02595 -0.0490366 -3.54113e-22)
(1.03191 -0.0495503 2.3217e-21)
(1.04576 0.000920792 0)
(1.04579 0.00130654 2.65726e-22)
(1.04574 0.000645293 4.87421e-22)
(1.04583 0.000849395 -4.92898e-22)
(1.04551 0.000311236 -2.76129e-22)
(1.04561 0.00045835 1.19394e-23)
(1.04535 0.000202936 -3.2147e-24)
(1.04543 0.000162352 2.43155e-22)
(1.04518 0.000257817 5.1716e-22)
(1.04525 0.000237485 -6.35089e-23)
(1.04538 -3.80488e-05 0)
(1.0452 0.000188575 -5.11442e-22)
(1.04567 -0.000255375 -6.47747e-22)
(0.976424 0.0281633 1.17831e-22)
(0.958497 -0.0030216 4.62638e-28)
(0.997654 0.0407792 -1.20684e-22)
(0.959556 -0.0212792 0)
(1.021 0.0485159 0)
(0.982398 -0.0372508 0)
(1.02395 0.057047 -1.02001e-22)
(1.02632 0.0573348 -7.90163e-24)
(1.01101 -0.0482809 1.98238e-21)
(1.03312 -0.0558794 -5.10736e-22)
(1.02577 -0.0562989 -1.68324e-21)
(1.0458 -0.000482435 -5.32863e-22)
(1.04601 -0.000441693 5.1861e-22)
(0.959602 0.014354 4.82919e-28)
(1.04526 -0.00064944 5.00658e-24)
(1.04554 -0.000557001 2.79241e-22)
(1.04476 -0.000894964 1.30071e-22)
(1.04499 -0.000768005 0)
(1.04438 -0.00140491 -7.21229e-29)
(1.04455 -0.00111184 -1.49945e-22)
(1.0441 -0.00212726 0)
(1.04423 -0.00173671 0)
(1.04384 -0.00311811 1.42698e-24)
(1.04399 -0.00260445 0)
(1.04338 -0.00428578 0)
(1.04364 -0.00366594 0)
(1.04257 -0.00571408 -3.32391e-24)
(1.04302 -0.00496555 0)
(1.04141 -0.00756097 -1.78256e-24)
(1.04203 -0.00659039 0)
(1.03998 -0.00989666 0)
(1.04072 -0.00865593 0)
(1.03841 -0.0128409 5.52276e-26)
(1.0392 -0.0112767 0)
(1.03695 -0.0165607 -7.33259e-26)
(1.03765 -0.0145998 0)
(1.03589 -0.0212105 -2.44406e-24)
(1.03636 -0.0187655 1.54589e-28)
(1.03542 -0.0270298 1.29728e-25)
(1.03557 -0.0239432 0)
(1.03598 -0.0343741 3.29355e-23)
(1.03551 -0.030508 -3.78898e-22)
(1.03819 -0.043396 8.69224e-22)
(1.03686 -0.0386597 1.25249e-21)
(1.04275 -0.0544815 -1.72914e-21)
(1.04012 -0.0486009 -1.6067e-22)
(1.02866 0.0426598 -1.04572e-22)
(1.02866 0.0569952 1.09405e-22)
(1.02826 0.049289 0)
(1.03054 0.0324163 5.65886e-23)
(1.02948 0.0370941 -1.29586e-22)
(1.0327 0.025064 4.17652e-23)
(1.03162 0.0284507 1.06352e-23)
(1.03465 0.0195379 -1.14425e-24)
(1.03367 0.0221463 2.07317e-23)
(1.03655 0.015079 0)
(1.03561 0.0171872 0)
(1.03838 0.0115305 -1.99657e-24)
(1.03748 0.0131947 2.60721e-28)
(1.04006 0.00882988 -2.27388e-28)
(1.03924 0.0100818 2.40684e-28)
(1.04151 0.00683853 -2.41568e-26)
(1.04081 0.00775831 0)
(1.04268 0.00536044 0)
(1.04213 0.00604886 0)
(1.04356 0.00420237 -1.42983e-24)
(1.04315 0.0047511 0)
(1.04422 0.00325938 0)
(1.04391 0.00370535 0)
(1.04475 0.00253691 -1.21641e-24)
(1.04449 0.00286598 0)
(1.04523 0.00201294 2.31432e-24)
(1.045 0.00225247 -9.86267e-24)
(1.04565 0.00169433 4.23562e-22)
(1.04545 0.00183658 0)
(1.04593 0.00139669 1.84232e-21)
(1.04581 0.0015359 -1.36577e-21)
(1.04601 0.00124254 -1.48646e-23)
(1.0459 0.000631802 0)
(1.04596 0.000950792 4.88655e-22)
(1.04594 0.000755635 1.28714e-23)
(1.04566 0.000264165 0)
(1.04581 0.000425182 0)
(1.04527 0.000237877 2.33e-22)
(1.04546 0.000157412 5.58773e-29)
(1.04519 0.00032909 -1.25442e-22)
(1.04516 0.000314658 -4.13012e-22)
(1.04561 2.27057e-05 0)
(1.04534 0.000239099 3.69411e-22)
(1.02456 0.0673129 1.93257e-24)
(1.03012 0.0661047 -1.02549e-22)
(1.0349 -0.063522 2.02186e-21)
(1.04608 -0.0614213 3.37764e-21)
(1.04617 -0.000295643 5.00737e-22)
(1.0459 -0.000169179 -2.54392e-22)
(0.96558 0.0336415 8.69489e-27)
(0.94062 -0.00260079 0)
(0.993882 0.0480737 0)
(0.943231 -0.0238611 1.54275e-26)
(1.02103 0.0582464 1.57484e-24)
(0.972192 -0.0425104 5.9568e-22)
(1.02701 0.0693106 -2.99194e-24)
(1.00736 -0.0559231 0)
(1.03292 0.0769668 -8.7588e-22)
(1.02692 0.0797138 3.20493e-24)
(1.02592 -0.0651436 2.59838e-21)
(1.05014 -0.0701163 -3.66546e-21)
(1.03744 -0.073066 -1.00809e-21)
(1.04399 0.0734116 6.88826e-22)
(1.0374 0.0902321 8.78924e-22)
(1.04976 0.0850279 7.65386e-22)
(1.05521 -0.081568 -1.97991e-21)
(1.05563 -0.0659973 3.62639e-21)
(1.06121 -0.0763277 5.69995e-22)
(1.0464 -0.000336752 2.39657e-22)
(1.04628 -0.000164893 0)
(1.04643 -0.000203344 -2.80903e-22)
(0.942918 0.017864 5.5521e-28)
(1.04617 -0.000605993 1.30401e-22)
(1.04633 -0.000541567 5.08738e-22)
(1.04574 -0.000844751 -2.69032e-22)
(1.04598 -0.000739046 -1.28957e-22)
(1.04523 -0.00115526 0)
(1.0455 -0.00102283 0)
(1.0447 -0.0016014 0)
(1.04495 -0.00135393 0)
(1.04427 -0.00225261 0)
(1.04448 -0.00190551 0)
(1.044 -0.00323738 0)
(1.04413 -0.0027144 0)
(1.04371 -0.00450761 -1.81301e-28)
(1.04386 -0.00382535 1.88377e-28)
(1.04321 -0.00610757 1.64876e-24)
(1.04349 -0.00527624 2.03384e-28)
(1.04244 -0.00811451 1.78256e-24)
(1.04287 -0.0070684 0)
(1.0414 -0.0105578 0)
(1.04195 -0.00926829 0)
(1.0402 -0.0135041 5.87383e-26)
(1.04081 -0.0119574 0)
(1.03911 -0.0170568 -7.67547e-26)
(1.03963 -0.0152049 0)
(1.03846 -0.0213847 2.44394e-24)
(1.03871 -0.0191202 0)
(1.0385 -0.0267804 5.15211e-24)
(1.03838 -0.0239282 1.53511e-28)
(1.03962 -0.0336045 3.12667e-22)
(1.03888 -0.0300089 0)
(1.04237 -0.041817 -3.88136e-22)
(1.04074 -0.0375525 -4.13639e-22)
(1.04749 -0.0518361 1.57906e-21)
(1.04461 -0.046524 -9.81262e-22)
(1.05118 -0.0581197 -3.24461e-21)
(1.0372 0.0556206 3.95464e-22)
(1.03996 0.0637845 -1.06069e-21)
(1.0347 0.0426402 1.34874e-24)
(1.0355 0.048662 4.51212e-23)
(1.03467 0.0330115 3.31105e-22)
(1.03445 0.0374638 -3.53014e-22)
(1.0356 0.0258974 1.18493e-24)
(1.03506 0.0292031 -1.0802e-23)
(1.03687 0.0203714 1.14333e-24)
(1.03621 0.0229744 5.92275e-28)
(1.03829 0.0159078 0)
(1.03757 0.0180253 0)
(1.03976 0.0123248 4.81451e-28)
(1.03903 0.0140116 -5.09476e-28)
(1.04116 0.00954283 0)
(1.04047 0.0108418 0)
(1.04238 0.00742649 -2.66039e-26)
(1.0418 0.00841312 0)
(1.04333 0.00580323 0)
(1.04289 0.00656514 0)
(1.04404 0.00452328 1.42983e-24)
(1.04371 0.00512751 0)
(1.04459 0.00351794 0)
(1.04433 0.00398745 0)
(1.04509 0.00277218 1.03491e-26)
(1.04484 0.00311404 3.20205e-28)
(1.04553 0.00223704 -2.25008e-24)
(1.04532 0.0024816 0)
(1.0459 0.00178283 0)
(1.04572 0.00200517 -1.38337e-25)
(1.04613 0.00139 -5.17718e-22)
(1.04603 0.00159442 -1.03436e-24)
(1.04619 0.00122653 -5.26811e-22)
(1.04598 0.00086906 8.79726e-22)
(1.04604 0.000849943 -4.80752e-22)
(1.04607 0.000605818 0)
(1.04603 0.000674633 0)
(1.04578 0.000269715 2.61065e-26)
(1.046 0.000423117 5.32185e-29)
(1.04518 0.000272249 2.73919e-26)
(1.04546 0.000188632 5.32068e-29)
(1.04519 0.000370673 2.75594e-23)
(1.04508 0.000355572 1.05805e-28)
(1.04577 0.000105778 2.21129e-22)
(1.04545 0.000295705 -1.43613e-22)
(1.04606 -6.90654e-05 -1.1615e-23)
(0.953592 0.0402629 -1.62966e-26)
(0.919558 -0.00182685 3.25215e-27)
(0.989581 0.0572858 0)
(0.923924 -0.0266555 -1.75368e-26)
(1.02085 0.0710738 -2.2841e-24)
(0.960432 -0.0489135 -5.96643e-22)
(1.02919 0.0842775 1.25546e-23)
(1.00301 -0.0654212 -1.44741e-22)
(1.03158 0.0950392 2.35376e-23)
(1.02686 -0.0763048 0)
(1.05768 0.0992871 -8.50909e-22)
(1.04401 0.106597 0)
(1.04119 -0.0855175 -1.03177e-21)
(1.06834 -0.0897302 2.86301e-21)
(1.06184 -0.0963666 1.80303e-21)
(1.06337 0.090219 1.11935e-23)
(1.06829 0.116703 -1.31703e-21)
(1.07348 0.104855 -8.54786e-24)
(1.07738 -0.106675 -3.43823e-22)
(1.07166 -0.0828998 2.55279e-21)
(1.08074 -0.0977928 1.89162e-21)
(1.04636 -8.21271e-05 0)
(1.04647 -2.7179e-05 -8.84513e-22)
(1.04657 -0.000275731 4.61593e-22)
(1.04657 -0.000317512 -4.82379e-22)
(0.923572 0.0221557 -3.27639e-27)
(1.04648 -0.0006499 -2.36892e-22)
(1.04658 -0.000609458 -2.41921e-22)
(1.04622 -0.00101836 3.25675e-23)
(1.0464 -0.000897706 -1.25302e-22)
(1.04584 -0.00141856 -5.40923e-25)
(1.04607 -0.00127141 5.40609e-28)
(1.04529 -0.00187355 0)
(1.04557 -0.00164302 0)
(1.04473 -0.00246527 0)
(1.04502 -0.00215994 0)
(1.04429 -0.0033758 1.37146e-24)
(1.0445 -0.00288288 0)
(1.04397 -0.0046438 0)
(1.04412 -0.00395643 0)
(1.04366 -0.00633053 0)
(1.04382 -0.00545233 0)
(1.04327 -0.00845825 0)
(1.04348 -0.00734536 0)
(1.04269 -0.0110148 0)
(1.04301 -0.00966834 0)
(1.04194 -0.0140033 2.02696e-24)
(1.04234 -0.0124515 0)
(1.04122 -0.017436 -7.92212e-26)
(1.04156 -0.0156714 5.33026e-28)
(1.04089 -0.0214584 0)
(1.04099 -0.0193679 0)
(1.0413 -0.0264292 -1.32827e-25)
(1.04099 -0.0238061 -1.53511e-28)
(1.04276 -0.0326749 2.66671e-24)
(1.04188 -0.029393 6.44296e-28)
(1.04575 -0.0401351 3.48692e-22)
(1.04401 -0.0362586 3.5229e-25)
(1.05074 -0.0491464 -1.80288e-22)
(1.04793 -0.0444025 -1.7522e-22)
(1.05892 -0.0618971 -1.16771e-21)
(1.05431 -0.0548011 7.90457e-22)
(1.06453 -0.0710369 -2.91306e-21)
(1.04997 0.0684094 9.17819e-23)
(1.05564 0.0782013 -1.37252e-23)
(1.04279 0.0532297 -1.12816e-23)
(1.04578 0.0602446 0)
(1.0395 0.0418006 -1.33354e-24)
(1.04073 0.0471457 -4.56921e-23)
(1.03853 0.0330013 0)
(1.03883 0.0370932 0)
(1.03862 0.0262245 -5.16426e-26)
(1.03849 0.0293944 0)
(1.03921 0.0208654 0)
(1.03887 0.0234027 0)
(1.04008 0.0164963 0)
(1.03962 0.0185737 0)
(1.04115 0.0129441 -1.86384e-24)
(1.0406 0.0146245 0)
(1.04223 0.010117 0)
(1.04169 0.0114474 0)
(1.04319 0.00789888 -1.64596e-24)
(1.04273 0.0089409 0)
(1.04395 0.00616041 -1.50345e-24)
(1.04359 0.00697903 0)
(1.04455 0.00480015 -1.39527e-24)
(1.04427 0.0054385 9.36553e-29)
(1.04506 0.00376381 -1.29166e-24)
(1.04481 0.0042438 -6.86277e-28)
(1.04553 0.00299869 1.18131e-26)
(1.04531 0.00335257 0)
(1.04592 0.00241197 0)
(1.04574 0.00269198 0)
(1.0462 0.00191014 0)
(1.04608 0.00214722 1.38575e-25)
(1.04637 0.00146031 4.80713e-22)
(1.04631 0.00167702 1.01598e-24)
(1.04641 0.00126775 -4.19162e-22)
(1.04616 0.000679347 0)
(1.04633 0.000618612 1.35237e-21)
(1.046 0.000739955 -4.60727e-22)
(1.04604 0.000717343 -1.34648e-22)
(1.0462 0.000575576 -4.95254e-26)
(1.04609 0.000605099 -1.01015e-28)
(1.04587 0.000315987 -5.09265e-26)
(1.04616 0.000434306 -1.01272e-28)
(1.0451 0.000312028 9.95312e-29)
(1.04545 0.000253169 -1.01202e-28)
(1.04521 0.00036902 5.25258e-23)
(1.04502 0.000370132 -1.0061e-28)
(1.04588 0.000131388 -2.20131e-22)
(1.04555 0.000292357 -5.35241e-23)
(1.04616 -7.55609e-06 -2.26477e-22)
(0.939802 0.0481831 0)
(0.89486 -0.000758965 -1.11949e-27)
(0.984099 0.0691705 0)
(0.901288 -0.0298374 8.15321e-26)
(1.02059 0.0876296 2.87806e-24)
(0.946187 -0.0565601 1.23333e-24)
(1.03366 0.102879 -8.55333e-24)
(0.998012 -0.0772446 -5.00751e-24)
(1.03914 0.114233 -3.07808e-23)
(1.02882 -0.0904897 -9.95649e-24)
(1.05358 0.126832 0)
(1.04627 -0.101849 -1.03544e-21)
(1.08661 0.122618 -9.19226e-22)
(1.08237 0.137659 2.45059e-21)
(1.07029 -0.11525 4.74612e-23)
(1.09232 -0.115673 -2.01174e-21)
(1.08887 -0.127283 -2.61728e-21)
(1.04653 0.000118139 1.43117e-23)
(0.90109 0.0272888 7.07587e-27)
(1.04661 -0.000276276 -4.91827e-22)
(1.04636 5.31328e-05 2.79574e-21)
(1.04681 -0.000201532 -1.72987e-21)
(1.04667 -0.00068037 6.09442e-23)
(1.04678 -0.000535618 4.56928e-22)
(1.0466 -0.00113316 -3.25255e-23)
(1.04673 -0.000937368 6.19207e-23)
(1.04641 -0.00162395 -1.35138e-22)
(1.04657 -0.00140382 1.20967e-22)
(1.04598 -0.00214896 -1.15885e-24)
(1.04623 -0.00189552 5.80345e-28)
(1.04541 -0.00276002 -1.25176e-24)
(1.04574 -0.00245282 -6.28073e-28)
(1.04484 -0.00360679 -2.13329e-26)
(1.04512 -0.00314653 0)
(1.04437 -0.00479478 0)
(1.04458 -0.00415414 0)
(1.04409 -0.00644214 -1.55826e-24)
(1.04421 -0.00557711 0)
(1.04395 -0.00858817 8.10484e-28)
(1.04401 -0.00744888 -8.415e-28)
(1.04379 -0.0112171 8.68503e-28)
(1.04388 -0.00982775 -9.01422e-28)
(1.04354 -0.0142618 -9.2902e-28)
(1.04369 -0.0126936 9.63905e-28)
(1.04328 -0.0176218 -4.12642e-24)
(1.04342 -0.0159177 1.02818e-27)
(1.04329 -0.0213702 2.13913e-24)
(1.04325 -0.0194422 1.09269e-27)
(1.04398 -0.0258736 -1.29078e-25)
(1.04353 -0.0235057 0)
(1.04573 -0.0314957 2.33059e-24)
(1.04472 -0.0285379 1.20813e-27)
(1.0488 -0.0382871 2.57686e-24)
(1.04709 -0.0347521 0)
(1.05362 -0.0463356 1.68959e-22)
(1.05095 -0.042089 0)
(1.06139 -0.0576859 7.02344e-22)
(1.05703 -0.0513727 -7.71062e-22)
(1.0738 -0.0762376 0)
(1.06691 -0.0657654 6.63827e-23)
(1.09341 -0.104676 1.57744e-21)
(1.08246 -0.0891981 -1.47615e-21)
(1.06764 0.0823479 7.50394e-23)
(1.08925 0.109282 4.73091e-22)
(1.07707 0.0945159 -4.55461e-22)
(1.05478 0.0639387 1.85338e-23)
(1.06038 0.072301 2.47035e-24)
(1.0475 0.0508275 0)
(1.05061 0.0569402 0)
(1.04371 0.0406418 -1.1637e-24)
(1.04526 0.0454319 0)
(1.04206 0.0326088 0)
(1.04271 0.0363884 0)
(1.04148 0.0262191 -1.13323e-24)
(1.04168 0.0292371 0)
(1.04148 0.0210713 0)
(1.04143 0.0235142 0)
(1.04186 0.0168535 0)
(1.04163 0.0188615 0)
(1.04253 0.0133811 4.82803e-26)
(1.04217 0.0150324 0)
(1.04329 0.0105464 0)
(1.04291 0.01189 0)
(1.04401 0.00826316 -1.59385e-27)
(1.04366 0.00934131 1.68749e-27)
(1.04462 0.00645386 1.50197e-24)
(1.04433 0.00730589 1.57186e-27)
(1.04515 0.00505443 2.76988e-24)
(1.04489 0.00570891 1.36783e-27)
(1.04563 0.00399812 1.56372e-26)
(1.0454 0.00448768 0)
(1.04604 0.00319546 1.19523e-24)
(1.04585 0.00357094 -1.25502e-27)
(1.04634 0.00254419 1.09208e-27)
(1.04621 0.00285861 -1.15808e-27)
(1.04652 0.00197371 0)
(1.04644 0.00225345 0)
(1.04661 0.00149624 -7.93887e-23)
(1.04657 0.00172748 1.25137e-22)
(1.04664 0.00104957 0)
(1.04663 0.00125704 -1.50876e-23)
(1.04663 0.000863409 0)
(1.04615 0.000549563 0)
(1.04645 0.000410931 -1.91015e-23)
(1.04629 0.000506813 -4.15426e-22)
(1.04601 0.000604093 5.10792e-23)
(1.04603 0.000566576 1.03128e-22)
(1.04628 0.000537518 2.53391e-27)
(1.04613 0.00052845 0)
(1.04594 0.000384058 2.48672e-26)
(1.04626 0.000451432 0)
(1.04506 0.000357385 0)
(1.04545 0.000336218 0)
(1.04525 0.000345397 -5.87717e-27)
(1.045 0.000372238 0)
(1.04597 0.000172793 0)
(1.04563 0.000279267 0)
(1.04637 1.98508e-05 0)
(1.04621 7.50648e-05 -9.87091e-23)
(1.04667 -8.90661e-05 0)
(1.04651 -9.48435e-06 1.9909e-22)
(1.10329 0.142924 1.58286e-21)
(1.10437 0.125554 0)
(1.10672 -0.135577 1.00125e-22)
(1.10701 -0.121556 5.15855e-23)
(0.923706 0.057976 -1.62916e-25)
(0.865897 0.00064454 0)
(1.04676 0.000790408 0)
(0.976811 0.0844635 -4.45526e-25)
(0.874372 -0.0336629 -6.00648e-26)
(1.04677 0.000410527 6.36902e-22)
(1.04679 0.000306853 0)
(1.04696 0.000677097 0)
(1.02048 0.10847 -1.29155e-24)
(0.928851 -0.0662346 -1.41745e-24)
(1.04094 0.126004 0)
(0.99212 -0.0921748 9.71095e-24)
(1.05036 0.13835 0)
(1.0319 -0.108846 0)
(1.06706 0.151199 0)
(1.0531 -0.122862 5.32676e-22)
(1.10044 0.161621 -2.67482e-22)
(1.08119 -0.13827 8.41455e-23)
(1.12317 0.143138 0)
(1.12407 0.164508 -6.98596e-22)
(1.10348 -0.150933 -8.51402e-22)
(1.12427 -0.15562 2.99848e-22)
(1.12326 -0.138111 -3.72558e-23)
(0.874876 0.0335082 -4.83761e-27)
(1.04676 -0.000130361 2.40097e-22)
(1.04681 -8.16113e-07 0)
(1.04685 -0.000610021 -6.08534e-23)
(1.04688 -0.000422161 -1.10034e-22)
(1.04688 -0.0011583 0)
(1.04692 -0.000908616 5.85263e-23)
(1.04684 -0.00175118 0)
(1.04689 -0.00147253 1.67785e-23)
(1.04659 -0.00236755 1.1583e-24)
(1.04675 -0.00205966 0)
(1.04616 -0.00306491 2.48601e-24)
(1.04642 -0.00270932 0)
(1.0456 -0.00390286 -2.23385e-26)
(1.04589 -0.003451 0)
(1.04506 -0.00500385 -1.42358e-24)
(1.04531 -0.00442155 -1.43401e-27)
(1.04472 -0.00653301 1.55678e-24)
(1.04486 -0.00572317 1.53726e-27)
(1.04464 -0.00858938 -1.62995e-24)
(1.04464 -0.0074795 1.54431e-27)
(1.04477 -0.0111963 -1.69051e-27)
(1.04469 -0.00981076 1.64808e-27)
(1.045 -0.0142587 -1.84168e-24)
(1.04489 -0.0126843 1.86734e-27)
(1.04527 -0.0175946 3.96696e-24)
(1.04515 -0.0159148 0)
(1.04567 -0.0211532 -1.00913e-25)
(1.04545 -0.0193468 2.08949e-27)
(1.04658 -0.0252156 -4.37096e-24)
(1.04604 -0.0230971 0)
(1.04849 -0.0302186 -2.32957e-24)
(1.0474 -0.0275816 -2.26388e-27)
(1.05157 -0.0362756 0)
(1.04989 -0.0331313 0)
(1.05617 -0.0433287 2.80762e-22)
(1.05363 -0.0396433 -2.94977e-22)
(1.06331 -0.0529341 0)
(1.05928 -0.0475996 -1.26802e-28)
(1.07465 -0.0688171 7.1885e-23)
(1.06831 -0.0598545 -1.23626e-22)
(1.09285 -0.0933022 6.46947e-22)
(1.08273 -0.0801402 -6.4528e-22)
(1.12011 -0.121201 0)
(1.10527 -0.107454 -5.13431e-23)
(1.09022 0.0968734 1.99994e-22)
(1.12007 0.124936 1.05311e-22)
(1.10362 0.110456 -2.14793e-22)
(1.07083 0.0744545 5.12288e-22)
(1.07943 0.0847078 -1.97025e-22)
(1.05886 0.0591641 2.61141e-22)
(1.06406 0.0661115 -7.87964e-22)
(1.05162 0.0480767 -1.0747e-24)
(1.05476 0.0532716 8.74857e-24)
(1.04752 0.0392148 1.1637e-24)
(1.04928 0.0434321 0)
(1.04532 0.0319356 4.3237e-27)
(1.04625 0.0353984 -4.57147e-27)
(1.04418 0.0259516 -4.17512e-27)
(1.04465 0.0287989 4.41522e-27)
(1.04369 0.0210459 -9.87188e-25)
(1.04387 0.0233779 0)
(1.04364 0.0170134 3.77261e-27)
(1.04362 0.0189352 -3.99127e-27)
(1.04393 0.0136532 1.812e-24)
(1.04376 0.0152592 3.76128e-27)
(1.0444 0.0108473 0)
(1.04416 0.012184 0)
(1.04491 0.0085463 1.55613e-24)
(1.04465 0.00963554 -1.03899e-28)
(1.04539 0.0067097 -2.91754e-27)
(1.04515 0.00757542 3.08978e-27)
(1.04584 0.00528868 -2.02925e-26)
(1.04562 0.00595495 0)
(1.04623 0.00420364 1.27667e-24)
(1.04604 0.00470902 0)
(1.04653 0.00334864 -1.16749e-24)
(1.04639 0.00375004 0)
(1.04671 0.00263672 2.16145e-27)
(1.04664 0.00297635 -2.29191e-27)
(1.0468 0.00201621 0)
(1.04677 0.00231013 0)
(1.04683 0.001487 8.02267e-23)
(1.04681 0.00173952 1.24871e-22)
(1.04681 0.00110187 -4.62358e-22)
(1.04683 0.00126313 2.19383e-22)
(1.0468 0.000941519 0)