/*--------------------------------*- C++ -*----------------------------------*\
  =========                 |
  \\      /  F ield         | OpenFOAM: The Open Source CFD Toolbox
   \\    /   O peration     | Website:  https://openfoam.org
    \\  /    A nd           | Version:  10
     \\/     M anipulation  |
\*---------------------------------------------------------------------------*/
FoamFile
{
    format      ascii;
    class       volScalarField;
    location    "22";
    object      p;
}
// * * * * * * * * * * * * * * * * * * * * * * * * * * * * * * * * * * * * * //

dimensions      [0 2 -2 0 0 0 0];

internalField   nonuniform List<scalar> 
25879
(
0.0992143
0.102249
0.101288
0.0982592
-0.0336288
-0.0446292
-0.0560284
-0.0366257
-0.0183531
-0.0302816
-0.126333
-0.095213
-0.159159
-0.550601
-0.538022
0.279989
0.193263
-0.123122
-0.278208
0.789215
0.775489
0.259523
0.386279
0.166173
0.167877
0.173779
0.171203
0.160755
0.165021
0.161039
0.160413
-0.477897
-0.496795
-0.484269
-0.0700716
-0.0162254
-0.0165297
0.063391
0.0711395
-0.255031
-0.215658
-0.16073
0.337812
0.351972
0.35764
-0.214255
-0.23184
-0.335346
-0.315454
-0.34744
0.0254084
0.0632678
-0.64483
-0.455857
0.00316716
0.00458587
0.00683139
0.532423
0.53833
0.50151
0.48812
0.458047
0.454883
0.007488
0.0119556
0.0129334
-0.586028
-0.590165
-0.510421
-0.398744
-0.4305
0.221975
0.225608
0.230374
0.331358
0.474701
0.399353
0.108582
0.109086
0.105286
0.37243
0.356369
0.844487
0.783715
0.776705
0.242921
0.251522
0.238785
0.0798732
0.0839341
-0.355743
-0.365277
-0.341637
0.156407
0.155801
0.00350334
-0.00979527
-0.022614
-0.0411918
-0.0454431
-0.0809633
-0.0740032
0.0842179
0.0830249
0.0758333
0.21517
0.21262
0.0480748
0.108959
-0.0145609
-0.0101846
-0.00284549
0.00239326
0.0250208
0.0242604
0.243486
0.231958
-0.116278
0.0383101
0.0723208
0.0778407
-0.273383
-0.270073
-0.13752
-0.138703
-0.351387
-0.345742
-0.44274
-0.467116
-0.501161
-0.452983
-0.466385
0.499897
0.480199
0.470071
0.484758
0.102511
0.106134
-0.0477708
0.0211032
-0.212934
-0.218144
-0.219031
-0.214154
-0.205022
-0.195134
-0.183246
-0.170192
-0.156938
-0.143759
-0.13138
-0.120283
-0.110707
-0.102815
-0.0965152
-0.0918316
-0.0886383
-0.0870004
-0.0869089
-0.0884896
-0.0918421
-0.0971174
-0.104491
-0.114059
-0.125972
-0.140053
-0.156152
-0.173451
-0.191214
-0.207938
-0.222547
-0.233482
-0.239894
-0.240728
-0.234579
-0.222393
-0.204474
-0.242623
-0.232048
-0.207824
-0.22723
-0.226753
-0.217704
-0.192361
-0.227342
-0.220609
-0.223816
-0.22829
-0.202209
-0.214803
-0.171081
-0.187269
-0.139782
-0.15496
-0.11477
-0.126275
-0.0981896
-0.105404
-0.0897109
-0.0929795
-0.0883513
-0.0881754
-0.0933922
-0.0900691
-0.104757
-0.0982291
-0.12294
-0.112943
-0.14768
-0.134583
-0.176256
-0.161771
-0.204297
-0.190611
-0.2255
-0.216194
-0.227323
-0.193257
-0.197863
-0.198325
-0.17374
-0.184221
-0.14959
-0.161848
-0.125413
-0.137075
-0.105723
-0.11482
-0.0921892
-0.0981389
-0.0848207
-0.0877145
-0.0834879
-0.0833221
-0.0887122
-0.0851401
-0.101591
-0.0939965
-0.12344
-0.111173
-0.154541
-0.137731
-0.191627
-0.172552
-0.226199
-0.209812
-0.246013
-0.238761
-0.247441
-0.206717
-0.213099
-0.222626
-0.174743
-0.182298
-0.158904
-0.153347
-0.140805
-0.216357
-0.24552
-0.235754
-0.182948
-0.194106
-0.180413
-0.188276
-0.200817
-0.190807
-0.175405
-0.209975
-0.203089
-0.208542
-0.211749
-0.190892
-0.201508
-0.163645
-0.177987
-0.135325
-0.149155
-0.11213
-0.122851
-0.0965127
-0.103321
-0.0885609
-0.0916048
-0.0875715
-0.0872306
-0.0929568
-0.0894752
-0.104753
-0.0980106
-0.123637
-0.113259
-0.149615
-0.13581
-0.180245
-0.164604
-0.210433
-0.195731
-0.230424
-0.22231
-0.235639
-0.234292
-0.229988
-0.234671
-0.178269
-0.182107
-0.161408
-0.170738
-0.138822
-0.150261
-0.116194
-0.127267
-0.0977717
-0.106288
-0.0854484
-0.090838
-0.0791193
-0.0815684
-0.078578
-0.0781142
-0.0843681
-0.080625
-0.0976174
-0.0899816
-0.119673
-0.107489
-0.150957
-0.13427
-0.188566
-0.169426
-0.22428
-0.207491
-0.246364
-0.237891
-0.249002
-0.189192
-0.17518
-0.162394
-0.221367
-0.234564
-0.225111
-0.134193
-0.122724
-0.220395
-0.199752
-0.195281
-0.205078
-0.214293
-0.18113
-0.193636
-0.142717
-0.110081
-0.12623
-0.172249
-0.158515
-0.190184
-0.183157
-0.190692
-0.192731
-0.175894
-0.184895
-0.152087
-0.164645
-0.126922
-0.139232
-0.106096
-0.115728
-0.0920903
-0.0981712
-0.0852345
-0.0877786
-0.0850369
-0.0843291
-0.0910348
-0.0872623
-0.103388
-0.0963627
-0.122949
-0.1122
-0.14997
-0.135579
-0.182067
-0.165663
-0.213101
-0.198205
-0.234336
-0.225318
-0.241664
-0.239797
-0.240053
-0.16664
-0.160267
-0.164734
-0.161614
-0.165436
-0.146688
-0.155173
-0.125964
-0.136629
-0.105241
-0.11531
-0.0885118
-0.0961862
-0.0775501
-0.0822768
-0.0722756
-0.0742138
-0.0725302
-0.0716813
-0.0788937
-0.074874
-0.0925423
-0.0847065
-0.114886
-0.10254
-0.146445
-0.129568
-0.184472
-0.165027
-0.220879
-0.203616
-0.243817
-0.234763
-0.244156
-0.247289
-0.219956
-0.234965
-0.106902
-0.0954603
-0.168059
-0.170431
-0.209297
-0.212334
-0.143389
-0.117027
-0.200412
-0.177339
-0.144192
-0.0929041
-0.0830221
-0.153774
-0.138831
-0.177852
-0.175096
-0.194885
-0.203442
-0.172543
-0.18451
-0.145664
-0.159439
-0.0964419
-0.072348
-0.083556
-0.12558
-0.11061
-0.152791
-0.139897
-0.170124
-0.163026
-0.171705
-0.173053
-0.159059
-0.166852
-0.138124
-0.149193
-0.115886
-0.126765
-0.0975704
-0.106017
-0.0855298
-0.0906975
-0.0801553
-0.0820137
-0.0810704
-0.0798445
-0.0879351
-0.0837508
-0.101017
-0.0936359
-0.121246
-0.110163
-0.148925
-0.134204
-0.181568
-0.164925
-0.212977
-0.197918
-0.235545
-0.22576
-0.244047
-0.241749
-0.236221
-0.24222
-0.212963
-0.226202
-0.148887
-0.147657
-0.143883
-0.147406
-0.130627
-0.138191
-0.112166
-0.121744
-0.0934644
-0.10254
-0.0785065
-0.0853479
-0.0689094
-0.0730129
-0.0646002
-0.0661044
-0.0654851
-0.0643608
-0.0721762
-0.0680295
-0.0858629
-0.0780399
-0.108007
-0.0957787
-0.139311
-0.122541
-0.177393
-0.15785
-0.21434
-0.196745
-0.238109
-0.22864
-0.239571
-0.241946
-0.217377
-0.23107
-0.176737
-0.198865
-0.0726737
-0.0632105
-0.154898
-0.152887
-0.150042
-0.155577
-0.131633
-0.124955
-0.197488
-0.211101
-0.19491
-0.101686
-0.0810679
-0.133163
-0.0640482
-0.0557331
-0.129753
-0.15392
-0.195018
-0.197358
-0.182952
-0.190217
-0.162409
-0.173557
-0.136942
-0.150133
-0.0611732
-0.0469352
-0.0532942
-0.0819916
-0.0706355
-0.107641
-0.0944945
-0.132584
-0.120824
-0.148715
-0.142139
-0.150954
-0.151718
-0.140379
-0.147004
-0.122289
-0.131877
-0.103029
-0.112441
-0.0873582
-0.0945433
-0.0774476
-0.0816185
-0.0736991
-0.0748032
-0.0758336
-0.0740422
-0.0836159
-0.0790049
-0.0973809
-0.0896859
-0.118056
-0.106783
-0.145891
-0.131133
-0.178445
-0.161862
-0.209983
-0.194788
-0.233293
-0.22312
-0.242315
-0.23982
-0.234512
-0.240503
-0.224518
-0.127199
-0.117038
-0.122909
-0.130286
-0.129701
-0.125865
-0.129104
-0.114028
-0.120763
-0.0976403
-0.106148
-0.0810386
-0.0890923
-0.0678635
-0.073869
-0.0595838
-0.0630903
-0.0561465
-0.0572664
-0.057528
-0.0562004
-0.0643609
-0.0601886
-0.0778234
-0.0701588
-0.0993887
-0.0874894
-0.129908
-0.113535
-0.167387
-0.148088
-0.204373
-0.186653
-0.228905
-0.218993
-0.231266
-0.233208
-0.210211
-0.223459
-0.171858
-0.192596
-0.125993
-0.149291
-0.0501316
-0.0422048
-0.109115
-0.1044
-0.1236
-0.130548
-0.13492
-0.180432
-0.177157
-0.108505
-0.113589
-0.088396
-0.0713995
-0.0573462
-0.101823
-0.0912125
-0.0459435
-0.0388454
-0.0853854
-0.110138
-0.0966971
-0.133878
-0.17956
-0.181158
-0.169774
-0.175817
-0.151599
-0.161438
-0.128487
-0.140511
-0.103368
-0.115967
-0.0377039
-0.0312261
-0.0338402
-0.0494625
-0.0428375
-0.0669988
-0.0574426
-0.0895482
-0.0777691
-0.11178
-0.10121
-0.126499
-0.120463
-0.129236
-0.12948
-0.120656
-0.12614
-0.105392
-0.113504
-0.0891026
-0.0970506
-0.0760508
-0.0819889
-0.0682241
-0.0714231
-0.0660406
-0.0664229
-0.0693069
-0.0669992
-0.0778645
-0.0729078
-0.0920825
-0.0842029
-0.112858
-0.101583
-0.14044
-0.125847
-0.172607
-0.15621
-0.203995
-0.188831
-0.227511
-0.217196
-0.236935
-0.234272
-0.229431
-0.2352
-0.205947
-0.219582
-0.171909
-0.189684
-0.109672
-0.106262
-0.111952
-0.111399
-0.107752
-0.11071
-0.0972388
-0.103201
-0.0827771
-0.0902801
-0.0681895
-0.0752541
-0.0567376
-0.0619346
-0.0497163
-0.0526559
-0.0470704
-0.0478502
-0.0488271
-0.0473629
-0.0556235
-0.0515236
-0.0685994
-0.0612379
-0.0892074
-0.077844
-0.118427
-0.102729
-0.154679
-0.135948
-0.191076
-0.173541
-0.215912
-0.205745
-0.219174
-0.220612
-0.199354
-0.211945
-0.163032
-0.182616
-0.120905
-0.142203
-0.08022
-0.099926
-0.0692405
-0.0634293
-0.0367218
-0.029669
-0.113039
-0.115609
-0.0911426
-0.0940444
-0.0957689
-0.153405
-0.164248
-0.145888
-0.0774775
-0.0748664
-0.0635948
-0.054979
-0.0522201
-0.0430809
-0.0359008
-0.0292947
-0.11546
-0.162827
-0.159102
-0.163795
-0.164484
-0.15627
-0.160951
-0.140851
-0.149407
-0.120586
-0.131241
-0.0974212
-0.109224
-0.0231105
-0.0222717
-0.0221689
-0.0280125
-0.025057
-0.0374436
-0.0320714
-0.0519729
-0.0439699
-0.0712025
-0.0610659
-0.0907801
-0.0814101
-0.10413
-0.0985872
-0.107239
-0.107051
-0.100502
-0.104921
-0.087909
-0.0946237
-0.07444
-0.0809977
-0.0638697
-0.0686279
-0.0580043
-0.0602909
-0.0572696
-0.0569889
-0.0615347
-0.058781
-0.0706964
-0.0654857
-0.0851423
-0.077198
-0.105748
-0.0946098
-0.1328
-0.118509
-0.164273
-0.148228
-0.195063
-0.180172
-0.21834
-0.208084
-0.228103
-0.225197
-0.221032
-0.226728
-0.197979
-0.211125
-0.18203
-0.0861708
-0.0783884
-0.0823425
-0.091942
-0.089399
-0.0936201
-0.0933956
-0.0898262
-0.0924716
-0.0805472
-0.0857972
-0.0678713
-0.074438
-0.0551859
-0.0613123
-0.0453702
-0.049801
-0.0395209
-0.0419372
-0.0375727
-0.0380605
-0.0395933
-0.0380513
-0.0462083
-0.0422589
-0.0584934
-0.0515469
-0.0778406
-0.0671806
-0.10531
-0.0905323
-0.139749
-0.121888
-0.175006
-0.157913
-0.199774
-0.189508
-0.203852
-0.204798
-0.185365
-0.197223
-0.150913
-0.169494
-0.111216
-0.131163
-0.0729508
-0.0916238
-0.056979
-0.0304127
-0.0235456
-0.0859853
-0.0976756
-0.0986891
-0.135363
-0.127518
-0.0819976
-0.0805806
-0.0685755
-0.0613519
-0.0575196
-0.0430782
-0.048604
-0.0417546
-0.036617
-0.0218508
-0.0653875
-0.033012
-0.026385
-0.0744087
-0.0627509
-0.0993133
-0.145822
-0.141466
-0.148556
-0.148115
-0.143203
-0.146843
-0.13074
-0.137788
-0.113383
-0.122592
-0.092638
-0.103324
-0.0711147
-0.0817798
-0.0147359
-0.0192411
-0.0163292
-0.0146882
-0.0142677
-0.0182126
-0.0159243
-0.025368
-0.0212207
-0.0371434
-0.0306537
-0.0532061
-0.0447399
-0.070143
-0.0619452
-0.0821392
-0.0770872
-0.085477
-0.0849851
-0.0803587
-0.0838244
-0.0701922
-0.0756334
-0.059311
-0.0645904
-0.0510322
-0.0546995
-0.0469816
-0.0484245
-0.0475728
-0.0466892
-0.0527138
-0.0495767
-0.0623395
-0.0569476
-0.0768443
-0.0689237
-0.0970688
-0.0861793
-0.123304
-0.109472
-0.153676
-0.138201
-0.18343
-0.169021
-0.206172
-0.196097
-0.216068
-0.213033
-0.209385
-0.214862
-0.187049
-0.199979
-0.154299
-0.17167
-0.118302
-0.136153
-0.0707627
-0.0679805
-0.0747843
-0.0729989
-0.0758754
-0.0758315
-0.0723979
-0.0747686
-0.064242
-0.0688433
-0.0532082
-0.058912
-0.0422884
-0.0475424
-0.0339916
-0.0377126
-0.0292107
-0.0311542
-0.0278614
-0.0281067
-0.0300407
-0.0284753
-0.0363461
-0.0326153
-0.0477678
-0.04133
-0.0656042
-0.0557853
-0.0909463
-0.0772971
-0.123045
-0.106334
-0.156625
-0.140224
-0.181069
-0.170787
-0.185945
-0.18639
-0.168825
-0.179947
-0.136091
-0.153817
-0.0976415
-0.116997
-0.0615672
-0.0789366
-0.0343821
-0.0467834
-0.0308474
-0.023634
-0.000289758
0.0117671
-0.0846816
-0.0840558
-0.0604406
-0.0720988
-0.067693
-0.101138
-0.107362
-0.0907414
-0.061608
-0.0506325
-0.053149
-0.0319994
-0.0466571
-0.0114795
-0.0420084
-0.0390768
-0.0375319
-0.0296749
-0.0371493
0.00742379
0.0189232
-0.0854567
-0.118366
-0.110347
-0.129799
-0.124946
-0.134145
-0.132845
-0.131181
-0.133578
-0.121655
-0.127177
-0.107108
-0.114851
-0.0888556
-0.0983564
-0.0689453
-0.0789243
-0.0117973
-0.0218056
-0.0160846
-0.00697953
-0.00884655
-0.0060606
-0.00607331
-0.00834733
-0.00682193
-0.0137147
-0.0106014
-0.022899
-0.0177848
-0.0359698
-0.0290234
-0.0503029
-0.0432833
-0.0609202
-0.0563773
-0.064354
-0.0636322
-0.0606217
-0.0632587
-0.0526045
-0.0569137
-0.0440418
-0.0481733
-0.0378307
-0.0405122
-0.035422
-0.0361017
-0.0372018
-0.0357805
-0.0430963
-0.0396362
-0.0530591
-0.0475513
-0.0674682
-0.0596539
-0.087098
-0.0765738
-0.112214
-0.099003
-0.141123
-0.126401
-0.169496
-0.155737
-0.191412
-0.181654
-0.201383
-0.198193
-0.195195
-0.200293
-0.174038
-0.18636
-0.142278
-0.158824
-0.124807
-0.052129
-0.0495822
-0.0506952
-0.0554544
-0.0536231
-0.0583615
-0.0570805
-0.0589208
-0.0590437
-0.0557081
-0.0578435
-0.0485539
-0.0525724
-0.0390113
-0.0439291
-0.029711
-0.0341638
-0.0228026
-0.0258769
-0.0189756
-0.0205015
-0.0181257
-0.0181768
-0.0203707
-0.0188284
-0.026267
-0.0228064
-0.036702
-0.0308389
-0.0528523
-0.0439713
-0.0757882
-0.063424
-0.105113
-0.0897898
-0.136482
-0.121039
-0.160297
-0.150097
-0.1661
-0.165935
-0.1506
-0.160929
-0.119669
-0.136497
-0.0825642
-0.101322
-0.0482148
-0.0646005
-0.0224847
-0.0343618
0.0032851
-0.00990654
0.0236569
0.0153644
0.0257021
0.0381133
0.0315755
-0.0588651
-0.0374356
-0.0290089
-0.0739453
-0.0717858
-0.0855653
-0.0754453
-0.0642678
-0.0569654
-0.0564753
-0.0407038
-0.0505567
-0.0221718
-0.0464983
-0.00368487
-0.0442338
0.0139822
-0.0435054
-0.0440185
-0.0454069
0.0502319
-0.0470487
-0.0385627
-0.0488014
-0.0387412
-0.0378926
0.056481
0.0443654
0.0321168
-0.0738771
-0.103001
-0.0948174
-0.115313
-0.109739
-0.121226
-0.119107
-0.12056
-0.121722
-0.113753
-0.117887
-0.101855
-0.108375
-0.0860636
-0.094398
-0.0679058
-0.077184
-0.049044
-0.0584645
-0.0137288
-0.0283212
-0.0203611
-0.00419869
-0.0083908
0.000821863
-0.00122709
0.00250627
0.00203811
0.00119491
0.00213428
-0.00260731
-0.000364693
-0.00946139
-0.00560087
-0.0197238
-0.0142048
-0.0315578
-0.0256839
-0.0407976
-0.0367746
-0.044214
-0.0433318
-0.0416427
-0.0435756
-0.0354873
-0.0388121
-0.0289533
-0.0320787
-0.0245585
-0.0263735
-0.0235903
-0.0236013
-0.0263991
-0.0245157
-0.0329114
-0.0291945
-0.0430771
-0.0375217
-0.0572332
-0.0496081
-0.0760687
-0.0660155
-0.0998246
-0.0873597
-0.127005
-0.113171
-0.153706
-0.140745
-0.174502
-0.165203
-0.18471
-0.181116
-0.178742
-0.183468
-0.158723
-0.170414
-0.128388
-0.144412
-0.0951534
-0.111768
-0.064627
-0.0793076
-0.0390443
-0.0385824
-0.0409551
-0.0399004
-0.0428197
-0.0419936
-0.0429207
-0.0431925
-0.0399349
-0.041867
-0.0336662
-0.0371674
-0.0254646
-0.0296725
-0.0176334
-0.0213593
-0.011974
-0.0144693
-0.00898187
-0.0101466
-0.00853539
-0.0084375
-0.0107663
-0.00928553
-0.0161795
-0.013026
-0.0255494
-0.0203016
-0.0399102
-0.0320242
-0.0602657
-0.0492869
-0.0865029
-0.0727457
-0.115203
-0.100959
-0.137995
-0.128041
-0.144717
-0.143896
-0.131228
-0.140327
-0.102422
-0.118224
-0.0672823
-0.0850614
-0.0347838
-0.0502756
-0.00912923
-0.0213999
0.0143236
0.00312465
0.0354006
0.0254
0.0432442
-0.0485163
-0.0377568
0.0500151
0.0621487
-0.0652175
-0.0615627
-0.0396151
-0.0582845
-0.0477128
-0.0514299
-0.0532503
-0.0406074
-0.0531656
-0.0317411
-0.0498695
-0.0144001
-0.0483961
0.00266558
-0.0486364
0.0199896
-0.0502538
0.0375413
-0.0527315
-0.0558966
-0.0589874
0.055065
-0.0609119
-0.0488351
0.0674548
-0.0643139
-0.0718047
-0.061827
-0.0892628
-0.0810779
-0.102474
-0.0965472
-0.109983
-0.10698
-0.111505
-0.111511
-0.107205
-0.110064
-0.0977892
-0.103091
-0.0843409
-0.0915093
-0.0680205
-0.0764743
-0.0502025
-0.0592064
-0.0186562
-0.0367968
-0.0269939
-0.00553641
-0.0115493
0.00336516
-0.000542435
0.00855335
0.00641564
0.0105858
0.00992202
0.0102838
0.0107554
0.00782272
0.00931382
0.00300248
0.00575747
-0.00469801
-0.000494015
-0.0141583
-0.00938683
-0.0220257
-0.0185322
-0.025324
-0.0243459
-0.0236986
-0.0250479
-0.0191175
-0.0216069
-0.0143133
-0.0165801
-0.0114679
-0.0125444
-0.01172
-0.0111665
-0.0153804
-0.0131189
-0.0223621
-0.0184598
-0.0325938
-0.027059
-0.0463555
-0.0389917
-0.0642444
-0.0547398
-0.0864732
-0.0748404
-0.111728
-0.0988852
-0.136531
-0.124483
-0.15592
-0.147243
-0.164774
-0.162016
-0.160491
-0.164581
-0.141944
-0.152849
-0.113296
-0.128497
-0.0817544
-0.0974242
-0.0669905
-0.0412525
-0.0274666
-0.0301332
-0.0285812
-0.0266122
-0.026803
-0.0273204
-0.0268459
-0.0282902
-0.0278639
-0.0279921
-0.0283939
-0.025201
-0.0269577
-0.0197098
-0.022755
-0.0127069
-0.0162782
-0.00619548
-0.00926912
-0.00164351
-0.00362866
0.00063283
-0.000226655
0.000765144
0.000970973
-0.00138693
2.43933e-06
-0.0062696
-0.00344497
-0.01454
-0.00992345
-0.0270781
-0.0202052
-0.044781
-0.0352328
-0.0677392
-0.0556645
-0.0934055
-0.0805623
-0.114776
-0.105251
-0.122375
-0.120842
-0.111208
-0.11912
-0.0847861
-0.0994327
-0.0518492
-0.0685312
-0.0209905
-0.0358161
0.00464305
-0.0076294
0.0269375
0.0162774
0.0463295
0.0367649
0.0617557
0.054444
0.073979
0.0681467
0.072077
0.0841589
0.0793555
-0.0615103
-0.0477222
-0.0583411
-0.0530109
-0.0398338
-0.0295484
-0.0541426
-0.0398394
-0.0517902
-0.0246837
-0.0512909
-0.00858062
-0.0525774
0.00781759
-0.0554396
0.0247912
-0.0594393
0.04212
-0.0641817
0.0592909
-0.069022
-0.0731307
-0.075575
-0.0757415
0.0955487
0.0760211
-0.0323009
0.0883959
0.099617
-0.0601436
-0.056577
-0.0598775
-0.0500474
-0.0774402
-0.0690399
-0.091461
-0.0850508
-0.100481
-0.096641
-0.104032
-0.102973
-0.102034
-0.103723
-0.094954
-0.099095
-0.0836172
-0.0897692
-0.0690873
-0.0767152
-0.0525015
-0.0609909
-0.0352765
-0.0439187
-0.0249549
-0.0449434
-0.0343286
-0.00917259
-0.0165668
0.0026263
-0.00270186
0.0108026
0.00713371
0.015871
0.0137473
0.0183494
0.0174332
0.0187759
0.0188025
0.0174793
0.0183326
0.0143864
0.0161953
0.0089662
0.0119843
0.00173143
0.00545432
-0.00477518
-0.0018186
-0.00786592
-0.00685068
-0.00698621
-0.00786453
-0.00370371
-0.00550159
-0.000335745
-0.00188956
0.00122812
0.000761127
-1.83626e-05
0.000992358
-0.00434512
-0.00179334
-0.0116449
-0.00762928
-0.021815
-0.0163624
-0.0350678
-0.0280214
-0.0519015
-0.0429995
-0.0724908
-0.0617476
-0.0956956
-0.0839077
-0.118464
-0.107398
-0.136358
-0.128328
-0.14516
-0.142095
-0.141144
-0.144786
-0.124086
-0.134182
-0.0973675
-0.111552
-0.0679058
-0.0826181
-0.0411179
-0.0538642
-0.0192258
-0.0296136
-0.0205634
-0.0265963
-0.023259
-0.0166511
-0.0183613
-0.0148502
-0.0155152
-0.0146053
-0.0145905
-0.0148423
-0.0147455
-0.014206
-0.0147184
-0.0115816
-0.0131875
-0.00677161
-0.00941529
-0.000837127
-0.00383971
0.0044986
0.00200439
0.00808377
0.00654045
0.00975957
0.00915204
0.00965793
0.00993589
0.00763463
0.00891106
0.00330588
0.00579339
-0.00387078
0.000121245
-0.0146186
-0.0087399
-0.0296993
-0.0215707
-0.0493178
-0.0389758
-0.0716812
-0.0604032
-0.0912215
-0.0823296
-0.0994759
-0.097298
-0.0908007
-0.0973462
-0.0671382
-0.0804357
-0.0364985
-0.0521072
-0.00697971
-0.0212894
0.0184842
0.00627654
0.0397471
0.0296339
0.0578155
0.0490968
0.0728404
0.0656318
0.0853442
0.0792822
0.0907081
-0.074274
-0.0567382
0.091888
0.103423
-0.0533141
-0.0461243
-0.0519512
-0.0337293
-0.0391884
-0.0308152
-0.0101542
-0.0088768
-0.000511011
-0.0525324
-0.0196279
-0.0550324
-0.00449322
-0.0593167
0.0115774
-0.0650011
0.0284075
-0.0715503
0.0455747
-0.0786075
0.0627343
-0.085072
0.0791887
-0.0900672
-0.0928137
-0.0927775
0.095034
-0.089647
-0.0697867
0.106633
-0.0506339
-0.0299885
-0.0199527
-0.0496246
-0.0399054
-0.0674608
-0.0587549
-0.0821999
-0.0753111
-0.0926591
-0.088033
-0.0980955
-0.0960478
-0.098244
-0.0988409
-0.0933371
-0.0964033
-0.0839859
-0.0891732
-0.0711317
-0.0779747
-0.0558018
-0.0636974
-0.0475463
-0.0506738
-0.0822125
-0.0613585
-0.0305667
-0.040093
-0.0137715
-0.0218259
7.07123e-07
-0.00637005
0.010471
0.00564674
0.0179505
0.0145632
0.0228427
0.0207054
0.0255925
0.0244653
0.0266343
0.0263053
0.0263051
0.0266292
0.0246433
0.0256652
0.0211926
0.0231718
0.0160083
0.0187469
0.0108493
0.0132591
0.00805525
0.00905194
0.00836838
0.00785985
0.0106047
0.00936576
0.0128116
0.0118335
0.01335
0.0133685
0.0113295
0.012692
0.00651894
0.00927446
-0.000952
0.00310786
-0.0109438
-0.00562832
-0.0235942
-0.0169094
-0.0392972
-0.0310335
-0.0581879
-0.0483618
-0.0792953
-0.0685852
-0.0999876
-0.0899233
-0.116305
-0.108979
-0.123728
-0.121475
-0.121185
-0.124248
-0.105627
-0.114895
-0.0809481
-0.0940577
-0.0537212
-0.067257
-0.0288753
-0.0406177
-0.0182754
-0.0111888
-0.0179785
-0.0142612
-0.00642845
-0.00850634
-0.00384642
-0.00489742
-0.00285344
-0.00320051
-0.00250431
-0.00267112
-0.0015911
-0.00219449
0.000888243
-0.000587092
0.00509907
0.00281012
0.0100818
0.00758617
0.0143791
0.0123941
0.0171341
0.0159664
0.0183178
0.0179128
0.0180522
0.018372
0.0161938
0.0173432
0.0124218
0.0145754
0.00630132
0.00969327
-0.0027406
0.00219195
-0.015316
-0.00854719
-0.0316652
-0.0230356
-0.0505891
-0.0409811
-0.0678949
-0.0598618
-0.076432
-0.0737632
-0.0702184
-0.0753613
-0.0497472
-0.061477
-0.0216142
-0.0361092
0.00666776
-0.00716682
0.0314436
0.0196
0.0521039
0.0424234
0.0693187
0.0610833
0.0835796
0.0767577
0.095786
0.0899033
0.105871
0.101096
0.113461
0.109928
0.109281
0.118916
0.116515
-0.0502264
-0.0410725
-0.0223533
-0.00226655
0.00687391
-0.0518767
-0.0296051
-0.055611
-0.0164713
-0.0613646
-0.00198773
-0.0688707
0.0138766
-0.0776253
0.0307191
-0.0870031
0.0480649
-0.0962404
0.065254
-0.104117
0.081773
-0.109725
0.0978986
-0.111762
-0.110774
-0.104682
-0.091174
0.125735
0.11166
0.120311
0.126252
-0.0465877
-0.0215691
-0.0117535
-0.0409237
-0.0313103
-0.0590223
-0.0502092
-0.0745807
-0.067206
-0.0864072
-0.0810351
-0.0936318
-0.090646
-0.09581
-0.0953751
-0.0929512
-0.0950052
-0.0854775
-0.0897592
-0.0741485
-0.0802808
-0.0599739
-0.0673901
-0.0440243
-0.0522113
-0.0273577
-0.0356498
-0.0497592
-0.0596811
-0.0336394
-0.0421938
-0.0177193
-0.0254365
-0.00335684
-0.0101922
0.00858525
0.00297061
0.0178224
0.0135328
0.024618
0.0215091
0.0293126
0.0272112
0.0322588
0.0309852
0.0338096
0.0331899
0.0342736
0.0341639
0.0337717
0.034156
0.0319674
0.0330661
0.0286276
0.0304608
0.0247981
0.02665
0.0223922
0.0233152
0.0222991
0.0220711
0.0237107
0.0229141
0.0250035
0.0244773
0.0247517
0.0251411
0.0221637
0.0237788
0.0170433
0.0199198
0.00954136
0.0135796
-0.000164501
0.00496402
-0.0121354
-0.00584671
-0.0266642
-0.0190558
-0.0438502
-0.0349397
-0.0628839
-0.053237
-0.0815368
-0.0724551
-0.0963887
-0.0896869
-0.103695
-0.101224
-0.101199
-0.103958
-0.0870101
-0.0954868
-0.0643977
-0.0764082
-0.039381
-0.0518192
-0.0167507
-0.0275515
0.00146014
-0.00705393
0.0157803
0.00906862
-0.00944499
-0.0190412
-0.0139834
-0.00209704
-0.00548068
0.00317251
0.000826608
0.00634713
0.0050017
0.00791499
0.00728927
0.00872321
0.00834919
0.0098568
0.00918126
0.0122057
0.0108456
0.0158841
0.0139112
0.0200181
0.0179737
0.023407
0.0218639
0.0254625
0.0246074
0.0262535
0.0260064
0.025883
0.0262199
0.0242132
0.0252282
0.0209837
0.0228158
0.0158563
0.0186868
0.00839503
0.0124526
-0.0018624
0.00364653
-0.0151304
-0.0081272
-0.0306307
-0.0227214
-0.0453629
-0.0384053
-0.0536571
-0.0507516
-0.0497773
-0.0534893
-0.0327402
-0.0427279
-0.00746259
-0.0206904
0.0193042
0.00608927
0.0433199
0.0317881
0.0633958
0.0538696
0.0798986
0.0720225
0.0935616
0.0870302
0.105184
0.0995542
0.114647
0.11014
0.121594
0.118442
0.123979
0.121102
0.126025
-0.0492268
-0.0379937
-0.0541247
-0.0275034
-0.0331763
-0.0248594
0.0216906
0.0243291
0.0297044
-0.0612945
-0.0151932
-0.0705928
-0.0011111
-0.0816257
0.0147722
-0.093692
0.0317756
-0.105955
0.0495375
-0.11723
0.0670621
-0.126377
0.0841178
-0.13186
0.100656
-0.132832
0.11352
-0.128515
-0.117472
-0.100551
0.120559
0.124426
-0.0627508
-0.0433614
-0.0445783
0.00439249
0.0132169
-0.0144069
-0.00486918
-0.0336077
-0.024033
-0.0520448
-0.0430027
-0.0684444
-0.0605824
-0.0816111
-0.0755099
-0.0905708
-0.0866769
-0.0947016
-0.0932758
-0.0938041
-0.0948892
-0.0881129
-0.0915388
-0.0782435
-0.0836637
-0.0651234
-0.0720288
-0.0497383
-0.0577249
-0.041578
-0.0364734
-0.0447894
-0.0180559
-0.0256266
-0.00566773
-0.0116677
0.00633999
0.00047586
0.0165502
0.0117257
0.0246233
0.020843
0.0307857
0.0279335
0.0352699
0.0332248
0.0383462
0.0369685
0.0403001
0.0394481
0.0414
0.040943
0.0418126
0.0416957
0.0413338
0.0417148
0.0395992
0.0406245
0.0370629
0.0383506
0.03514
0.0359325
0.0347902
0.0347633
0.0355652
0.0351122
0.036156
0.0359743
0.0353224
0.0359804
0.0323548
0.0341316
0.0270861
0.0300065
0.0196847
0.0236397
0.010363
0.0152599
-0.000868179
0.00499953
-0.0142094
-0.00725653
-0.0297302
-0.0217091
-0.0467724
-0.0381436
-0.0634853
-0.055336
-0.0769502
-0.0708404
-0.0838643
-0.0814402
-0.0815435
-0.084057
-0.0686064
-0.0763389
-0.048039
-0.058952
-0.0254139
-0.0366474
-0.00504219
-0.014775
0.011437
0.00370642
0.0182797
-0.00112776
-0.0108901
-0.00579313
0.00657282
0.00300208
0.0121326
0.00961046
0.0157137
0.0141587
0.0177035
0.0168707
0.0188619
0.0183285
0.0201662
0.0194355
0.0223922
0.0211369
0.0255899
0.0239022
0.0289661
0.0273224
0.0315702
0.0304047
0.0330491
0.0324479
0.0335362
0.0334079
0.0331092
0.0334436
0.031641
0.0325195
0.0289269
0.0304569
0.0247121
0.0270291
0.0186802
0.0219486
0.0105069
0.0148829
4.03741e-05
0.00555662
-0.0122064
-0.00594027
-0.0241711
-0.0184456
-0.0316317
-0.0288141
-0.0295987
-0.0320701
-0.0160664
-0.0242081
0.0058889
-0.00580607
0.0306242
0.0182541
0.0536157
0.0425223
0.0730541
0.063807
0.0889902
0.0813734
0.10211
0.0958806
0.112897
0.107749
0.121458
0.117536
0.12727
0.12476
0.129883
0.12898
0.128541
0.129603
0.121945
0.123226
0.126147
-0.0505024
-0.0370323
-0.0166716
0.0268165
0.034405
-0.0589479
-0.027466
-0.0229575
-0.0441544
-0.0282129
-0.0698926
-0.0157732
-0.08308
-0.0018642
-0.0978936
0.014198
-0.113414
0.0317214
-0.128434
0.0502071
-0.141485
0.0686717
-0.151135
0.0865991
-0.155592
0.103008
-0.15411
0.114044
-0.145994
0.118994
-0.131558
-0.113741
-0.0875146
-0.0651435
0.123243
0.118254
0.119102
0.118955
-0.0447661
0.0100329
0.0186493
-0.00836138
0.000998871
-0.0275129
-0.0179049
-0.0463542
-0.0370479
-0.0636459
-0.0552768
-0.0781689
-0.0713342
-0.0888513
-0.0840589
-0.0949014
-0.0925033
-0.0959202
-0.0960605
-0.0919503
-0.0945522
-0.0834727
-0.0882369
-0.0713235
-0.0778015
-0.0565503
-0.0642145
-0.0399719
-0.0484671
-0.023116
-0.0315164
-0.0217309
-0.0204662
-0.0197814
-0.0231891
-0.00495766
-0.0117317
0.00523519
0.000337566
0.015067
0.0102021
0.0237407
0.0196096
0.0308195
0.027475
0.0364234
0.0338012
0.0406976
0.0387175
0.0438494
0.0424013
0.0461119
0.045079
0.0477127
0.0469823
0.0488305
0.0483293
0.0493781
0.0491984
0.0489823
0.0493162
0.0476686
0.048399
0.0463282
0.046927
0.045866
0.045966
0.046162
0.0459717
0.0462247
0.0462992
0.0449864
0.0458251
0.0418054
0.0436629
0.0365348
0.0394289
0.029354
0.0331695
0.0205031
0.0251298
0.0100554
0.0154865
-0.00211034
0.00420099
-0.0160419
-0.00886396
-0.0312207
-0.0235415
-0.0461306
-0.0388482
-0.0582809
-0.0527403
-0.0646755
-0.0624037
-0.0625234
-0.0648358
-0.0507287
-0.0577641
-0.0321808
-0.0419951
-0.0119734
-0.0219891
0.0061431
-0.0025154
0.0208481
0.013941
0.0323852
0.0269705
0.0414473
0.0372122
-0.00291503
-0.0148776
-0.00859579
0.0068448
0.00228949
0.0146697
0.0110256
0.020418
0.017795
0.024253
0.0225628
0.0265339
0.0255549
0.0279508
0.0272979
0.0293829
0.0286123
0.0314865
0.0303307
0.0342418
0.0328152
0.0369424
0.0356525
0.0388795
0.0380304
0.0398953
0.0394946
0.0401555
0.0401129
0.0397107
0.0400278
0.0384485
0.0391929
0.0362135
0.0374654
0.032821
0.0346777
0.0280537
0.0306262
0.0217059
0.0250909
0.0137022
0.0179069
0.00440989
0.00916319
-0.00477927
-0.00034838
-0.0108944
-0.00848047
-0.00998126
-0.0115618
0.00035328
-0.00601231
0.0186835
0.00874629
0.0407293
0.0295415
0.0622269
0.0517565
0.0808384
0.0719582
0.096108
0.0888709
0.108576
0.102699
0.118582
0.113904
0.126048
0.122647
0.13065
0.128753
0.131802
0.131661
0.129323
0.130999
0.12658
0.114413
0.114255
-0.0542735
-0.0383036
-0.0404215
-0.0666288
-0.0295576
-0.0305872
-0.0220145
0.045238
0.04797
0.0513666
-0.0817239
-0.0182497
-0.0990939
-0.004222
-0.117861
0.0123658
-0.136755
0.0308935
-0.15416
0.0506432
-0.168356
0.0701371
-0.177436
0.0888889
-0.179958
0.104374
-0.175458
0.114062
-0.163732
0.115297
-0.146159
0.113833
-0.122075
-0.0935057
-0.0657479
0.108857
0.108547
-0.0473337
0.0312138
0.038522
0.0148361
0.0232453
-0.00328787
0.00596702
-0.0224992
-0.0128098
-0.0418248
-0.0322187
-0.0600737
-0.0511657
-0.0760019
-0.0684119
-0.0884363
-0.0827327
-0.0964217
-0.0930447
-0.0993598
-0.0985558
-0.0970985
-0.0988837
-0.0899643
-0.094112
-0.0786926
-0.0847973
-0.064345
-0.0718317
-0.0478917
-0.0563692
-0.0393291
-0.010871
-0.0393742
-0.00638952
-0.00703583
-0.00423697
-0.00622559
0.00591398
0.000625378
0.01466
0.0105059
0.0227827
0.0187481
0.0301933
0.0266296
0.0364345
0.0334629
0.0415386
0.0391262
0.0456028
0.0436941
0.0487847
0.0472941
0.0512734
0.0501049
0.0532587
0.052318
0.0549084
0.0541197
0.0562186
0.0556204
0.0568824
0.0566557
0.0566724
0.0568766
0.0559983
0.0563426
0.0555762
0.0557258
0.0555343
0.055538
0.0552054
0.0554673
0.0537047
0.0546525
0.050451
0.0523196
0.045307
0.0481126
0.0384528
0.0420791
0.0301466
0.034471
0.0205109
0.0254978
0.0094873
0.0151826
-0.00296054
0.00343594
-0.016437
-0.00962216
-0.0297088
-0.0232149
-0.0406306
-0.035633
-0.046442
-0.0443745
-0.0443786
-0.046543
-0.0336305
-0.0400099
-0.0170627
-0.0257927
0.00075277
-0.00805785
0.0166573
0.00905492
0.0296215
0.0235187
0.0398604
0.0350521
0.0441681
0.00486624
-0.00679012
-0.00069607
0.0144809
0.00992649
0.0222045
0.0185729
0.0280095
0.0253477
0.0319756
0.0302111
0.0344408
0.0333654
0.0360417
0.0353019
0.0375647
0.0367676
0.0395386
0.0384816
0.0418799
0.0406947
0.043982
0.0430009
0.0453645
0.0447738
0.0460197
0.0457721
0.0461183
0.0461337
0.0456853
0.0459742
0.0446265
0.0452424
0.0428286
0.0438292
0.0401635
0.0416151
0.0364933
0.0384644
0.0317071
0.0342463
0.0258016
0.0288879
0.0190753
0.0225023
0.0124833
0.0156614
0.00803505
0.00981104
0.00860233
0.00749556
0.0164239
0.011535
0.0312276
0.0230857
0.0501147
0.040393
0.0695079
0.059949
0.0869047
0.078556
0.101378
0.0945152
0.113045
0.107547
0.122084
0.117897
0.128446
0.12561
0.131873
0.130557
0.132037
0.132378
0.128738
0.13085
0.122261
0.125848
0.112994
0.117938
0.102016
0.101309
0.107293
-0.0607829
-0.0419403
-0.01363
0.0484709
0.054387
-0.077439
-0.0338385
-0.0970131
-0.0225917
-0.11876