/*--------------------------------*- C++ -*----------------------------------*\
  =========                 |
  \\      /  F ield         | OpenFOAM: The Open Source CFD Toolbox
   \\    /   O peration     | Website:  https://openfoam.org
    \\  /    A nd           | Version:  10
     \\/     M anipulation  |
\*---------------------------------------------------------------------------*/
FoamFile
{
    format      ascii;
    class       volScalarField;
    location    "8";
    object      p;
}
// * * * * * * * * * * * * * * * * * * * * * * * * * * * * * * * * * * * * * //

dimensions      [0 2 -2 0 0 0 0];

internalField   nonuniform List<scalar> 
28942
(
-2.49722
-2.55172
-3.37231
0.758959
0.808039
-0.143938
-0.11034
-0.13757
-0.537662
-0.466539
-6.95508
-6.71221
-6.54948
-6.61564
-0.0254321
-0.0147958
2.61769
2.72597
-0.479747
0.397844
2.17839
2.16808
-6.84413
-6.85834
-6.99169
-6.33717
3.8621
4.1469
-1.57861
-1.50608
-0.119849
-0.11722
0.027988
-0.0302759
0.900041
1.15612
2.99624
3.61117
-0.142244
2.5537
1.78756
1.74714
0.446133
0.470524
0.480567
-0.118828
-0.101117
-0.11185
-0.103912
-0.0767339
-0.0522724
0.0349997
0.0199326
-0.549503
-0.466052
-4.6651
-3.87916
-6.57317
-6.50459
-6.54386
-6.60694
-6.59856
-6.58463
-2.72932
-3.2844
-2.1435
-1.7083
1.89538
1.696
-2.43873
-2.49112
-2.60689
1.68319
1.66702
1.63391
-1.00577
-0.996225
-0.56045
-3.1858
-3.85586
-2.88524
-4.00659
-2.48755
-2.53965
0.288978
0.734111
1.13002
0.921083
0.572631
0.582887
0.787911
1.06297
-6.78186
-7.25841
-6.64134
-6.38745
-6.10197
0.803874
0.955739
-2.65089
0.851819
0.867173
0.923568
0.856391
-0.20895
-0.225493
-0.275439
1.36342
1.40186
1.40636
-6.5572
-6.54938
-2.7365
-2.64846
-2.54995
5.05958
4.67436
4.50451
4.83754
0.47772
1.25158
0.917419
-0.994555
-1.19431
5.33268
5.42859
5.1251
-1.012
-0.688017
-0.129659
-0.132591
-0.141348
1.75676
2.53726
1.4671
1.4321
1.63636
0.00640686
1.06525
2.41811
-6.19387
-6.30103
-0.606241
0.491052
0.50388
-3.23912
-3.25969
-2.89162
-6.35925
1.45702
1.39862
0.340073
-0.0778328
-0.0894678
-0.0897005
-0.082991
1.91645
0.959891
-3.85956
-3.46761
-3.17699
-2.17163
-2.001
-0.0602755
-5.91256
-5.75319
2.30828
2.399
2.57995
2.48822
2.17962
0.666803
0.647728
-0.256107
-0.285023
1.24393
1.18519
1.28545
1.3351
1.3321
1.3959
1.46327
1.6491
1.54838
1.45975
1.57196
1.76256
2.07538
2.14999
-2.00198
-1.75574
-2.64371
-0.130242
-0.117358
-3.57082
-3.41587
-0.0754172
-0.0685596
-0.0823567
-0.09128
-1.8894
-1.88917
-2.05224
-6.51036
-6.50379
-6.44146
-6.71974
-6.73613
-6.67908
-6.9951
-7.24189
-7.0476
4.98987
4.78066
5.04426
-0.157946
-0.101501
-0.163901
2.31048
2.21173
2.2801
-1.92943
-1.96744
-1.91649
-2.02703
-2.1055
-2.19811
-2.29959
-2.29401
-2.41083
-2.19006
-2.09111
-2.00993
-1.95023
-1.91588
-2.38706
-2.51866
-1.92755
-1.90435
-1.96748
-2.47326
-2.61723
-1.91807
-2.54566
-2.59062
-2.6928
-2.73692
-2.03524
-1.95744
-2.59897
-2.74453
-2.13082
-2.02311
-2.56647
-2.71106
-2.25481
-2.11266
-2.49543
-2.63829
-2.40153
-2.22263
-2.38951
-2.52986
-2.55994
-2.34235
-2.253
-2.39006
-2.71613
-2.46198
-2.09042
-2.22459
-2.85509
-2.56941
-1.9096
-2.03978
-2.96517
-2.65509
-1.71924
-1.84188
-3.03318
-2.70481
-1.52473
-1.63766
-3.04376
-2.70606
-1.3252
-1.43472
-2.9895
-2.65277
-1.12832
-1.24047
-3.33934
-3.28681
-2.86769
-2.54435
-3.23252
-3.31752
-2.91672
-3.0933
-2.53055
-2.72422
-2.1973
-2.35161
-1.98231
-2.0748
-1.89012
-1.9225
-1.90146
-1.8839
-1.99939
-1.94041
-2.15283
-2.07361
-2.30375
-2.22982
-2.40621
-2.36692
-2.3805
-2.41183
-2.21513
-2.31491
-1.9313
-2.08541
-1.57779
-1.75953
-1.19976
-1.38981
-1.01147
-0.947841
-1.061
-1.74007
-1.35161
-1.54134
-2.14158
-1.94251
-2.49513
-2.32762
-2.74835
-2.63749
-2.85686
-2.82296
-2.80537
-2.84988
-2.62142
-2.72676
-2.37347
-2.50023
-2.13033
-2.24636
-1.94818
-2.02906
-1.85533
-1.89
-1.85505
-1.84381
-1.94777
-1.89055
-2.10715
-2.02254
-2.2707
-2.19286
-2.36343
-2.33153
-2.30163
-2.35504
-2.20874
-3.16158
-0.833248
-1.17737
-2.38601
-2.07427
-2.97941
-2.69478
-3.56553
-3.4063
-3.52807
-3.4214
-3.52844
-3.05109
-3.25614
-2.60873
-2.8293
-2.22685
-2.40469
-1.97078
-2.08215
-1.83906
-1.8907
-1.81473
-1.81491
-1.8779
-1.83623
-2.00157
-1.93695
-2.12865
-2.06641
-2.21369
-2.1811
-2.19166
-2.21853
-2.03941
-2.1319
-1.77232
-1.9179
-1.43485
-1.60909
-1.07148
-1.25413
-0.784269
-0.671897
-0.721153
-0.891961
-1.46478
-1.29936
-1.02577
-0.901105
-1.83658
-1.64692
-2.22501
-2.03007
-2.57561
-2.4085
-2.8298
-2.71803
-2.93916
-2.9049
-2.8868
-2.93226
-2.69408
-2.80522
-2.42065
-2.56272
-2.14241
-2.27742
-1.92269
-2.02308
-1.786
-1.8426
-1.73857
-1.75157
-1.77515
-1.74694
-1.8725
-1.81914
-1.97502
-1.9272
-2.01999
-2.00852
-1.95537
-2.00296
-1.76373
-1.87242
-3.21504
-1.91721
-1.63478
-2.20067
-0.563494
-1.15388
-2.75299
-2.97543
-1.75269
-1.49332
-2.48203
-0.610362
-0.459226
-0.893127
-1.02691
-3.12671
-2.73481
-2.62988
-2.87433
-3.56436
-3.37203
-3.70494
-3.67396
-3.53168
-3.65539
-3.12466
-3.34805
-2.6426
-2.88306
-2.22202
-2.41882
-1.93034
-2.05883
-1.76667
-1.83387
-1.71122
-1.72665
-1.74222
-1.717
-1.83362
-1.78367
-1.93853
-1.8867
-2.00989
-1.98223
-1.99086
-2.01449
-1.84945
-1.93617
-1.59909
-1.73552
-1.28181
-1.44586
-0.940292
-1.1116
-0.77159
-0.641994
-0.421298
-0.528062
-0.764981
-1.57619
-1.28601
-1.42224
-1.92252
-1.74432
-2.28926
-2.10447
-2.62951
-2.46645
-2.88086
-2.76975
-2.99053
-2.95594
-2.93665
-2.98358
-2.73514
-2.85177
-2.44111
-2.59508
-2.13235
-2.28369
-1.87491
-1.99456
-1.69812
-1.77562
-1.60638
-1.64208
-1.59175
-1.59017
-1.63365
-1.60807
-1.68455
-1.66165
-1.68974
-1.69558
-1.61466
-1.6635
-1.45754
-1.54521
-1.24131
-1.3564
-1.34859
-1.12013
-2.51036
-2.00511
-0.321416
-1.16847
-2.5012
-1.57891
-2.21303
-1.00119
-1.20729
-2.09694
-1.88593
-2.25862
-2.62904
-2.3516
-3.18477
-2.91263
-3.61869
-3.42836
-3.75265
-3.73066
-3.56142
-3.69435
-3.13522
-3.36856
-2.6283
-2.88195
-2.1797
-2.39048
-1.86043
-2.00253
-1.67151
-1.75116
-1.58928
-1.61836
-1.59158
-1.58124
-1.65422
-1.61743
-1.74019
-1.6971
-1.79913
-1.77646
-1.77842
-1.80155
-1.64867
-1.72669
-1.41961
-1.54489
-1.12519
-1.27787
-0.806692
-0.966499
-0.499127
-0.650478
-0.226363
-0.356271
-0.297345
-0.108719
-0.19887
-0.520562
-0.404004
-0.778131
-0.64548
-1.0683
-0.919521
-1.42047
-1.22626
-1.31495
-1.68159
-1.54267
-1.99397
-1.83266
-2.33408
-2.16253
-2.65718
-2.5015
-2.9009
-2.79261
-3.00905
-2.97463
-2.95411
-3.00206
-2.74584
-2.86678
-2.43523
-2.59883
-2.09997
-2.26575
-1.80854
-1.94575
-1.59522
-1.69139
-1.46387
-1.51979
-1.40486
-1.42625
-1.39788
-1.3969
-1.40351
-1.4021
-1.37846
-1.39683
-1.29734
-1.34587
-1.1592
-1.23371
-0.992769
-1.08023
-0.802488
-0.898603
-0.888304
-0.709403
-2.2813
-1.81204
-2.2286
-1.41435
-0.136463
-0.0263011
-0.981983
-1.14807
-1.92374
-1.07369
-1.77154
-2.07851
-0.785098
-0.62469
-1.886
-2.04189
-2.58331
-2.30683
-3.15819
-2.88021
-3.57598
-3.3947
-3.70476
-3.68583
-3.51196
-3.6455
-3.0807
-3.31734
-2.56259
-2.82251
-2.09915
-2.31759
-1.76305
-1.91378
-1.55616
-1.64499
-1.45295
-1.49303
-1.43167
-1.43337
-1.47132
-1.44545
-1.53845
-1.50443
-1.58415
-1.56703
-1.56224
-1.584
-1.44561
-1.51617
-1.2364
-1.35113
-0.966048
-1.10631
-0.67457
-0.820753
-0.39081
-0.530376
-0.258486
-0.191825
-0.00623907
-0.0949375
-0.416741
-0.299255
-0.680255
-0.544136
-0.825357
-1.55394
-1.386
-1.46544
-1.77727
-1.65832
-2.05111
-1.90895
-2.35938
-2.2031
-2.65928
-2.51395
-2.89017
-2.78711
-2.99385
-2.96079
-2.93758
-2.98628
-2.72501
-2.84878
-2.40249
-2.57318
-2.04553
-2.22333
-1.72501
-1.87738
-1.47952
-1.59199
-1.31419
-1.38739
-1.21819
-1.25848
-1.17213
-1.19072
-1.14114
-1.15738
-1.09012
-1.11935
-1.00622
-1.05272
-0.885698
-0.949521
-0.749118
-0.817748
-0.611408
-0.68095
-0.472272
-0.54029
-0.550969
-0.413514
-2.07323
-1.62742
0.0721396
-1.32559
-1.95027
-1.71878
-1.7085
-1.265
-0.954992
-1.70322
-1.54829
-1.53803
-0.700476
-0.493285
-0.364072
-1.84809
-2.05856
-1.66787
-1.86048
-2.51342
-2.26643
-3.05818
-2.79064
-3.44688
-3.28125
-3.57084
-3.54012
-3.38776
-3.51701
-2.96241
-3.19655
-2.4476
-2.70618
-1.98405
-2.20308
-1.64272
-1.79674
-1.42589
-1.52022
-1.30844
-1.35624
-1.2694
-1.2803
-1.28927
-1.27348
-1.33693
-1.31221
-1.37013
-1.35804
-1.34773
-1.36804
-1.24226
-1.30611
-1.05358
-1.15683
-0.810084
-0.936472
-0.545749
-0.678707
-0.287094
-0.414293
-0.0527473
-0.165909
0.141749
0.0500918
0.0787766
0.220599
0.155476
-0.10431
-0.00764793
-0.329204
-0.211585
-0.595611
-0.457169
-0.910397
-0.746738
-1.27744
-1.0874
-1.55403
-1.47803
-1.50955
-1.68298
-1.61216
-1.86418
-1.76694
-2.09434
-1.97306
-2.36529
-2.22681
-2.63638
-2.5042
-2.84938
-2.7539
-2.94539
-2.91503
-2.88733
-2.93659
-2.67282
-2.79796
-2.34293
-2.51821
-1.9703
-2.15701
-1.62679
-1.79139
-1.3545
-1.48061
-1.16131
-1.24855
-1.03557
-1.09106
-0.958522
-0.992477
-0.900947
-0.929572
-0.831818
-0.868854
-0.745168
-0.790338
-0.6426
-0.695941
-0.529693
-0.585924
-0.425231
-0.47659
-0.325453
-0.373838
-0.244971
-0.282123
-0.324821
-0.211993
-1.86341
-1.52004
-1.71345
0.204653
0.278484
-1.24304
-1.45656
-1.45971
-1.12846
-1.51857
-0.855112
-0.629891
-0.44598
-0.291574
-0.184378
-1.67035
-1.61562
-1.39638
-1.34579
-1.46311
-1.99662
-1.80063
-2.41246
-2.1937
-2.89925
-2.65744
-3.25432
-3.1031
-3.36771
-3.34364
-3.19405
-3.31671
-2.78636
-3.01122
-2.29049
-2.5398
-1.84115
-2.05402
-1.50538
-1.65776
-1.28613
-1.38254
-1.16024
-1.21297
-1.10764
-1.12588
-1.10971
-1.10327
-1.13982
-1.12331
-1.16215
-1.15445
-1.13856
-1.15814
-1.04324
-1.10058
-0.875845
-0.967616
-0.658458
-0.771411
-0.421654
-0.540799
-0.188411
-0.30353
0.0255121
-0.0781023
0.120111
0.148482
0.286622
0.222189
-0.0319364
0.0636746
-0.254753
-0.137885
-0.524733
-0.383331
-0.852361
-0.681171
-1.03999
-1.72408
-1.68621
-1.69969
-1.80759
-1.75935
-1.9411
-1.86867
-2.12457
-2.02612
-2.35262
-2.23483
-2.5893
-2.47302
-2.77964
-2.69396
-2.86495
-2.83857
-2.80461
-2.85429
-2.59044
-2.71544
-2.258
-2.43523
-1.87577
-2.06825
-1.5155
-1.68924
-1.22253
-1.35921
-1.00776
-1.10582
-0.859821
-0.926548
-0.760167
-0.8053
-0.68393
-0.721028
-0.60392
-0.645405
-0.516051
-0.560218
-0.428135
-0.472188
-0.338598
-0.383248
-0.255849
-0.29588
-0.184823
-0.218563
-0.128559
-0.155381
-0.0821662
-0.104153
-1.38366
-1.40937
-0.160531
-0.0631527
-1.64639
0.34049
-1.68477
-1.26148
-1.30331
-1.29529
-1.51357
-1.01003
-1.37197
-0.77297
-0.576457
-0.408705
-0.265131
-0.140472
-0.0447664
-1.48861
-1.28423
-1.19594
-1.15117
-1.20777
-1.53177
-1.39137
-1.88067
-1.69934
-2.26892
-2.06973
-2.69445
-2.48293
-3.01045
-2.87577
-3.10728
-3.08909
-2.94352
-3.05805
-2.56431
-2.77353
-2.10136
-2.33446
-1.67815
-1.8793
-1.3566
-1.50342
-1.14084
-1.23663
-1.01094
-1.06648
-0.948256
-0.972233
-0.935712
-0.936922
-0.951457
-0.941796
-0.963793
-0.960293
-0.938705
-0.957727
-0.853357
-0.904239
-0.705552
-0.786496
-0.514054
-0.613568
-0.304711
-0.410228
-0.0962641
-0.19952
0.0971393
0.00321932
0.261502
0.183949
0.386244
0.328942
0.338664
0.433091
0.390524
0.20457
0.276767
0.0286007
0.121855
-0.191756
-0.0755164
-0.466529
-0.321603
-0.806396
-0.627852
-1.21673
-1.00269
-1.69617
-1.44825
-1.90405
-1.96061
-1.92589
-1.89301
-1.89289
-1.92786
-1.90507
-2.00891
-1.96236
-2.14252
-2.06893
-2.32255
-2.22815
-2.51945
-2.4217
-2.68263
-2.60884
-2.75434
-2.73315
-2.69124
-2.74119
-2.47953
-2.60297
-2.14897
-2.32567
-1.76348
-1.9584
-1.39342
-1.57279
-1.0863
-1.23039
-0.856054
-0.961865
-0.692537
-0.767077
-0.577587
-0.630192
-0.490161
-0.532005
-0.40625
-0.448874
-0.319477
-0.362495
-0.241617
-0.279051
-0.172605
-0.20647
-0.108921
-0.139846
-0.0568485
-0.0810439
-0.0170173
-0.0358791
0.0160875
4.18835e-05
0.0456538
0.031158
-1.26483
-1.29197
-0.0293029
0.0590988
-1.4572
-1.16772
-1.10473
-1.14368
-1.21868
-1.3639
-0.911045
0.425831
0.469272
-1.7185
-2.00279
-1.25599
-0.705419
-0.532246
-0.37908
-0.243983
-0.12416
-1.07022
-1.014
-0.994697
-0.017888
0.0703144
-1.04852
-1.32989
-1.08854
-1.04443
-1.21917
-1.14735
-1.43427
-1.3118
-1.74695
-1.58263
-2.0988
-1.92025
-2.46119
-2.28228
-2.73129
-2.61613
-2.80817
-2.79657
-2.65491
-2.76022
-2.31146
-2.50073
-1.89103
-2.10314
-1.50217
-1.68775
-1.20098
-1.33939
-0.993469
-1.08638
-0.863569
-0.919986
-0.794344
-0.822326
-0.77094
-0.777896
-0.774654
-0.77098
-0.77785
-0.778212
-0.751461
-0.769938
-0.675126
-0.720166
-0.546053
-0.616572
-0.379123
-0.465954
-0.195587
-0.288249
-0.0112473
-0.102801
0.162221
0.0776427
0.311651
0.240748
0.373351
0.378983
0.470193
0.428768
0.249658
0.31943
0.0790553
0.169722
-0.139753
-0.0235259
-0.419531
-0.271316
-0.770109
-0.585482
-1.20045
-0.975342
-1.44858
-2.1273
-2.2351
-2.17652
-2.06116
-2.08794
-2.04019
-2.04479
-2.06774
-2.04766
-2.14839
-2.10143
-2.27647
-2.20751
-2.42894
-2.35206
-2.56077
-2.50082
-2.6161
-2.60129
-2.54908
-2.59976
-2.34234
-2.463
-2.01795
-2.19164
-1.63569
-1.82965
-1.26283
-1.44437
-0.947878
-1.09634
-0.708091
-0.818692
-0.535022
-0.614342
-0.410862
-0.467912
-0.317749
-0.361705
-0.234947
-0.27617
-0.153511
-0.193672
-0.0830539
-0.11627
-0.0288379
-0.0543912
0.0170963
-0.00520392
0.0555877
0.03757
0.0851047
0.0712228
0.109928
0.0978063
0.133762
0.122084
0.153926
0.143758
-1.10654
0.080062
-0.00855489
0.087883
0.171099
0.163306
-1.17833
-1.21225
-1.31089
-1.05428
0.503626
-2.29991
-1.16291
-1.24572
-0.831213
-1.1618
-0.651135
-0.496216
-0.356677
-0.228573
-0.112712
-0.989751
-0.929137
-0.939312
0.247864
0.253963
0.176044
-1.00001
-1.04128
-1.08308
-0.00355796
0.0924403
-1.19937
-0.948892
-0.932268
-1.01832
-0.978357
-1.1359
-1.07077
-1.32797
-1.22006
-1.59998
-1.45669
-1.90681
-1.75158
-2.21084
-2.06229
-2.43389
-2.33911
-2.49019
-2.48565
-2.3481
-2.44359
-2.04331
-2.21088
-1.66979
-1.85865
-1.3198
-1.48758
-1.0433
-1.17114
-0.848109
-0.936157
-0.721591
-0.777283
-0.648982
-0.67936
-0.617685
-0.629036
-0.611241
-0.612683
-0.606709
-0.610324
-0.579259
-0.597232
-0.511168
-0.550843
-0.399334
-0.460276
-0.255015
-0.330122
-0.0956956
-0.176262
0.0659024
-0.0146363
0.220333
0.144708
0.355105
0.290989
0.459316
0.411454
0.53066
0.499264
0.497236
0.553925
0.529212
0.409395
0.457672
0.285365
0.352095
0.119829
0.208367
-0.0984814
0.0181264
-0.382339
-0.231537
-0.74315
-0.552354
-1.1944
-0.95704
-1.74154
-1.4562
-2.36807
-2.04548
-2.51739
-2.69806
-2.60712
-2.35101
-2.4307
-2.22433
-2.28281
-2.14443
-2.17763
-2.11684
-2.12414
-2.1421
-2.12299
-2.21579
-2.17359
-2.32041
-2.26622
-2.41723
-2.3729
-2.45355
-2.44624
-2.38262
-2.43348
-2.18201
-2.29934
-1.8679
-2.03617
-1.49468
-1.68463
-1.12549
-1.30596
-0.808902
-0.958676
-0.565281
-0.677905
-0.388103
-0.469488
-0.259853
-0.318881
-0.165303
-0.209355
-0.0868706
-0.125215
-0.0132416
-0.0493441
0.0489566
0.0199683
0.094098
0.0736615
0.1264
0.111295
0.153169
0.140276
0.175769
0.164987
0.195738
0.185852
0.215628
0.205765
0.234032
0.225033
0.241608
-1.12123
-1.15554
0.180618
0.259126
-1.19632
-0.963998
-1.12316
-1.15102
-0.76943
0.551675
0.573018
-2.42685
-2.78279
-1.09589
-0.608615
-0.469024
-0.340113
-0.219886
-0.1079
-0.962333
-0.890152
-0.920925
-0.997023
-1.02396
-1.04868
-1.07465
-0.00450663
0.0913832
0.262386
0.180758
-1.09567
-0.859026
-0.868149
-0.879238
-0.863605
-0.943451
-0.906463
-1.04965
-0.990758
-1.21269
-1.12273
-1.44139
-1.31991
-1.70346
-1.57125
-1.9544
-1.8332
-2.13267
-2.0576
-2.16989
-2.17144
-2.03992
-2.12532
-1.77361
-1.91961
-1.44746
-1.61269
-1.13809
-1.28703
-0.889053
-1.00486
-0.708899
-0.790801
-0.58797
-0.641851
-0.514386
-0.545929
-0.477334
-0.492069
-0.462851
-0.468341
-0.452024
-0.458329
-0.423861
-0.44127
-0.363278
-0.398124
-0.266824
-0.319237
-0.142961
-0.207444
-0.00560481
-0.0751892
0.135121
0.0647549
0.271632
0.204501
0.392537
0.334804
0.487075
0.44355
0.523124
0.516047
0.570066
0.546356
0.431797
0.478174
0.31289
0.376897
0.150999
0.238154
-0.0670477
0.0497757
-0.353822
-0.201029
-0.723914
-0.527438
-1.19209
-0.945135
-1.76466
-1.46609
-2.08536
-2.8026
-3.0346
-2.92134
-2.57331
-2.68441
-2.38021
-2.47147
-2.23988
-2.30267
-2.15512
-2.19077
-2.12364
-2.1329
-2.14193
-2.12706
-2.19674
-2.16638
-2.25576
-2.22848
-2.27065
-2.27192
-2.19494
-2.24614
-2.00173
-2.11727
-1.70167
-1.8623
-1.34302
-1.52606
-0.983789
-1.16
-0.671544
-0.819743
-0.428912
-0.541273
-0.251827
-0.333205
-0.123473
-0.182547
-0.0304138
-0.0732708
0.0413771
0.00706333
0.105369
0.0740771
0.159417
0.134228
0.197392
0.180594
0.221251
0.210686
0.23854
0.230179
0.255173
0.246853
0.271912
0.263491
0.289199
0.280495
0.306583
0.298029
0.319755
0.314041
0.33114
0.325605
0.263998
0.338521
0.335737
-1.08287
-1.11498
-1.10671
-0.895052
0.58765
-3.13962
-1.09976
-1.08013
-0.722497
-1.05002
-0.577808
-0.449543
-0.33042
-0.216278
-0.107548
-0.960747
-0.8727
-0.9176
0.404106
0.405745
0.339618
-1.01449
-1.04238
-1.06042
-1.0717
-1.08169
-0.0100656
0.0867897
0.177906
0.26239
-1.01617
-0.812509
-0.838152
-0.788478
-0.795361
-0.807354
-0.793133
-0.862817
-0.830612
-0.955024
-0.903962
-1.09512
-1.01814
-1.28706
-1.18564
-1.50362
-1.39482
-1.70463
-1.6086
-1.84122
-1.7847
-1.86091
-1.86775
-1.74319
-1.81876
-1.5134
-1.63895
-1.23272
-1.37511
-0.963624
-1.0937
-0.742808
-0.846137
-0.57865
-0.653914
-0.464684
-0.515985
-0.39189
-0.423709
-0.351006
-0.368107
-0.330515
-0.339099
-0.314718
-0.323141
-0.286253
-0.303049
-0.232244
-0.26289
-0.149218
-0.194171
-0.0433722
-0.0984865
0.0744
0.0146488
0.196252
0.135115
0.316319
0.257023
0.424274
0.372525
0.509356
0.470112
0.567529
0.541841
0.599923
0.586889
0.57927
0.607217
0.596066
0.527703
0.556695
0.44712
0.49128
0.332676
0.394645
0.173152
0.259376
-0.0441642
0.0724748
-0.332929
-0.178615
-0.710289
-0.509435
-1.19226
-0.937394
-1.78619
-1.4757
-2.48021
-2.12294
-3.2245
-2.85005
-3.37125
-3.59459
-3.49244
-3.08456
-3.23149
-2.78863
-2.93416
-2.52718
-2.65165
-2.32472
-2.41812
-2.18142
-2.24596
-2.09313
-2.13066
-2.05628
-2.06866
-2.06082
-2.05465
-2.08042
-2.07112
-2.07186
-2.08272
-1.98794
-2.04192
-1.80283
-1.90431
-1.52289
-1.6735
-1.18363
-1.35729
-0.839575
-1.0089
-0.536775
-0.68092
-0.299658
-0.409543
-0.126633
-0.206109
-0.00128734
-0.058974
0.0885542
0.0475323
0.153294
0.123184
0.206345
0.180657
0.251689
0.230294
0.283557
0.270067
0.302275
0.294198
0.313715
0.30844
0.32487
0.319011
0.338679
0.33147
0.354293
0.34632
0.370518
0.362474
0.384666
0.378001
0.396776
0.390998
0.401102
-1.06384
-1.09242
0.339031
0.406832
-1.03704
-0.842046
-1.09066
-1.02783
-0.689712
0.607896
0.614449
-3.28288
-3.66243
-1.0253
-0.556805
-0.438755
-0.326828
-0.218152
-0.111862
-0.975633
-0.868063
-0.927467
-1.04706
-1.08277
-1.10068
-1.11113
-1.11132
-1.10559
-0.0195337
0.0785427
0.171856
0.257731
0.406627
0.335075
-0.954005
-0.781552
-0.819586
-0.733728
-0.753946
-0.716089
-0.720876
-0.733438
-0.72056
-0.781807
-0.753885
-0.860085
-0.817073
-0.975352
-0.912322
-1.13208
-1.04926
-1.30836
-1.22008
-1.46695
-1.39215
-1.56809
-1.52747
-1.57286
-1.58399
-1.46681
-1.53326
-1.27037
-1.37725
-1.0317
-1.15291
-0.800507
-0.912728
-0.606764
-0.698045
-0.458697
-0.527114
-0.352796
-0.400893
-0.282197
-0.31356
-0.239245
-0.257793
-0.214455
-0.225317
-0.194955
-0.204949
-0.166428
-0.182644
-0.118069
-0.145112
-0.0466044
-0.0851055
0.0437638
-0.00323834
0.144395
0.0932756
0.249531
0.196602
0.354737
0.302581
0.45062
0.404552
0.526854
0.491593
0.579045
0.555966
0.596265
0.582614
0.609546
0.598566
0.533077
0.561042
0.456246
0.49832
0.345012
0.405647
0.1874
0.272717
-0.028624
0.0875211
-0.318434
-0.163187
-0.700942
-0.496907
-1.19388
-0.932743
-1.80498
-1.48497
-2.5181
-2.15177
-2.89731
-3.69373
-3.9478
-3.83524
-3.35404
-3.53022
-2.99225
-3.1729
-2.6627
-2.82049
-2.39669
-2.52134
-2.19469
-2.28802
-2.05072
-2.11582
-1.96023
-1.99912
-1.91543
-1.93309
-1.89536
-1.9043
-1.86245
-1.88332
-1.77248
-1.82706
-1.5968
-1.69514
-1.33589
-1.47578
-1.01934
-1.1817
-0.695101
-0.855188
-0.406133
-0.544098
-0.178231
-0.283917
-0.0121172
-0.0883348
0.107826
0.0526582
0.193094
0.154378
0.251356
0.224941
0.293919
0.27389
0.32884
0.312251
0.354902
0.342674
0.37046
0.363873
0.379116
0.375309
0.386631
0.38266
0.397358
0.391496
0.411411
0.404074
0.426685
0.419063
0.441121
0.434056
0.453899
0.447846
0.461878
0.458732
0.465394
0.463903
0.403954
0.465368
0.466196
-1.06157
-1.08563
-0.986078
-0.804891
0.616417
-4.03243
-1.09859
-0.994886
-0.667425
-1.01672
-0.5465
-0.435806
-0.330338
-0.225529
-0.121434
-0.996119
-0.856813
-0.921496
0.51747
0.516502
0.463143
-1.08118
-1.13319
-1.16673
-1.17729
-1.17797
-1.16665
-1.14687
-0.0339251
0.0662049
0.161393
0.24939
0.328446
0.398645
-0.909636
-0.759065
-0.803052
-0.689618
-0.719625
-0.654376
-0.669026
-0.643302
-0.645609
-0.658422
-0.647579
-0.699265
-0.675674
-0.76526
-0.729117
-0.859977
-0.8085
-0.986337
-0.919818
-1.12618
-1.05647
-1.24775
-1.19122
-1.31906
-1.29173
-1.31174
-1.3263
-1.21626
-1.27461
-1.04923
-1.13964
-0.84784
-0.950199
-0.650723
-0.746819
-0.482082
-0.562039
-0.349971
-0.411433
-0.252803
-0.297321
-0.185427
-0.215762
-0.141803
-0.161078
-0.114157
-0.126584
-0.0920048
-0.103136
-0.0636194
-0.0792648
-0.0200342
-0.0440658
0.0418461
0.00869434
0.118924
0.0788912
0.204759
0.16111
0.295295
0.249555
0.387272
0.341506
0.472105
0.43126
0.540047
0.508591
0.58664
0.566038
0.612246
0.601899
0.619234
0.617959
0.607282
0.616313
0.613871
0.581148
0.59651
0.533532
0.560313
0.459705
0.500308
0.350549
0.410252
0.194931
0.279209
-0.0193579
0.0960519
-0.309101
-0.153611
-0.694513
-0.488563
-1.19452
-0.929327
-1.81586
-1.49054
-2.53693
-2.16669
-3.31355
-2.92267
-4.07603
-3.70041
-4.28669
-4.42932
-4.37879
-3.99423
-4.15557
-3.60434
-3.80776
-3.17867
-3.39208
-2.78308
-2.97393
-2.45358
-2.60932
-2.19402
-2.31545
-1.99661
-2.08806
-1.8551
-1.91919
-1.7632
-1.80369
-1.70453
-1.73136
-1.64725
-1.67823
-1.5508
-1.60628
-1.38541
-1.47741
-1.14432
-1.27312
-0.853165
-1.00261
-0.5521
-0.701246
-0.280546
-0.410544
-0.0649707
-0.164997
0.091827
0.019991
0.204591
0.152745
0.284458
0.248302
0.337054
0.313689
0.371157
0.35579
0.395798
0.384241
0.414952
0.405998
0.42729
0.421988
0.434439
0.431278
0.440474
0.437336
0.448851
0.444213
0.460987
0.454492
0.475205
0.468012
0.489325
0.482345
0.50199
0.495968
0.511246
0.507151
0.516338
0.514392
0.517496
-1.0762
-1.09554
0.459819
0.51414
-0.951404
-0.778906
-1.12392
-0.977387
-0.657223
0.618884
0.616152
-4.07928
-4.43419
-1.02635
-0.545319
-0.441816
-0.340917
-0.239212
-0.136317
-0.996671
-0.82813
-0.890442
-1.08617
-1.18023
-1.23658
-1.27086
-1.27462
-1.26337
-1.24034
-1.20663
-0.0536844
0.0485728
0.146422
0.237352
0.318898
0.391871
0.509104
0.454992
-0.878477
-0.727759
-0.773534
-0.655721
-0.689925
-0.603068
-0.625924
-0.576868
-0.587428
-0.570571
-0.571182
-0.584577
-0.575017
-0.618977
-0.599267
-0.672945
-0.643566
-0.74828
-0.707567
-0.847751
-0.795399
-0.95702
-0.902772
-1.04859
-1.00677
-1.09623
-1.07936
-1.07994
-1.09678
-0.994057
-1.04529
-0.852267
-0.928576
-0.682936
-0.769049
-0.515649
-0.597525
-0.369852
-0.439366
-0.252964
-0.307712
-0.164547
-0.205399
-0.101047
-0.129955
-0.0578112
-0.0772502
-0.0284938
-0.0419026
-0.00456807
-0.0164612
0.0234891
0.00839362
0.0630879
0.0415617
0.116976
0.0882886
0.182875
0.148699
0.256085
0.218819
0.334053
0.294524
0.414388
0.374287
0.489208
0.453117
0.549384
0.521512
0.590662
0.572411
0.613216
0.604179
0.618082
0.600997
0.609988
0.607375
0.575633
0.590575
0.529831
0.555572
0.457846
0.497639
0.350227
0.409093
0.196788
0.279922
-0.0153394
0.0990422
-0.303718
-0.148763
-0.689299
-0.48302
-1.19142
-0.924963
-1.8155
-1.48892
-2.53799
-2.16709
-3.31316
-2.92296
-3.70189
-4.59318
-4.75273
-4.69659
-4.26657
-4.44678
-3.82779
-4.05759
-3.34304
-3.58644
-2.88422
-3.10703
-2.49338
-2.67912
-2.17867
-2.32692
-1.93103
-2.04714
-1.7422
-1.82962
-1.60657
-1.6683
-1.51161
-1.55533
-1.43084
-1.47164
-1.32766
-1.38431
-1.17082
-1.25719
-0.952433
-1.06912
-0.688233
-0.824041
-0.412524
-0.549501
-0.16102
-0.281736
0.0398981
-0.053368
0.185672
0.118991
0.290025
0.242075
0.363813
0.330442
0.411461
0.390564
0.439445
0.427417
0.455652
0.448529
0.466826
0.461605
0.474922
0.471309
0.480347
0.477831
0.485573
0.482813
0.49279
0.488845
0.503118
0.497548
0.515968
0.509343
0.529536
0.522764
0.542109
0.536056
0.552409
0.54758
0.559643
0.556515
0.561508
0.561593
0.555582
0.559463
0.499966
0.538122
0.548794
-1.10874
-1.12298
-0.932159
-0.766462
0.61022
-4.75744
-1.16712
-0.977346
-0.65706
-1.05342
-0.554497
-0.45668
-0.359615
-0.260051
-0.157421
-0.967424
-0.768933
-0.815605
-1.05526
-1.19447
-1.29741
-1.3623
-1.39779
-1.39441
-1.37473
-1.33596
-1.28723
-0.0798258
0.0256803
0.127153
0.221468
0.307079
0.383528
0.447203
0.56552
0.523572
0.550305
-0.862248
-0.674938
-0.71859
-0.605991
-0.63839
-0.556233
-0.579304
-0.519986
-0.536312
-0.501798
-0.508676
-0.499336
-0.498701
-0.512232
-0.50382
-0.54096
-0.524619
-0.585046
-0.561171
-0.644408
-0.612638
-0.720766
-0.680674
-0.80383
-0.762758
-0.870835
-0.840854
-0.900062
-0.89122
-0.87749
-0.895711
-0.800281
-0.845317
-0.679764
-0.744229
-0.537449
-0.60983
-0.395811
-0.46537
-0.27026
-0.330439
-0.167297
-0.215844
-0.0873385
-0.124557
-0.0281351
-0.0553447
0.0139201
-0.00525213
0.0439764
0.0300527
0.0689382
0.0566001
0.0965512
0.0819711
0.132761
0.113344
0.179988
0.155
0.236643
0.207379
0.299132
0.267285
0.366392
0.332174
0.436568
0.401451
0.502361
0.470593
0.555361
0.530815
0.591643
0.575613
0.611291
0.60348
0.616063
0.615443
0.607767
0.613515
0.600811
0.599242
0.601108
0.591481
0.597807
0.566796
0.581294
0.522255
0.547372
0.4512
0.490551
0.345
0.403035
0.193891
0.275786
-0.0155647
0.0974345
-0.30102
-0.147536
-0.68374
-0.478876
-1.18286
-0.917962
-1.80283
-1.47851
-2.51828
-2.15151
-3.27946
-2.89618
-4.03767
-3.66331
-4.71311
-4.38742
-5.03402
-4.99478
-5.04249
-4.85765
-4.9712
-4.5015
-4.69937
-4.01831
-4.2714
-3.48026
-3.7511
-2.96252
-3.21507
-2.51431
-2.72817
-2.14814
-2.32135
-1.8544
-1.99303
-1.62277
-1.73124
-1.44774
-1.5286
-1.31981
-1.37893
-1.21735
-1.26729
-1.10785
-1.16561
-0.960779
-1.04034
-0.763779
-0.868482
-0.527031
-0.648853
-0.278008
-0.402065
-0.048299
-0.15885
0.136335
0.0506075
0.269847
0.208883
0.364953
0.321276
0.432194
0.40178
0.475322
0.45651
0.499216
0.489312
0.509861
0.505775
0.514057
0.512366
0.516635
0.515404
0.519202
0.517853
0.522971
0.520843
0.529229
0.525748
0.538294
0.533421
0.549797
0.54379
0.56269
0.556165
0.575277
0.56913
0.586108
0.580985
0.593631
0.590426
0.594723
0.595278
0.585829
0.591663
0.577222
-1.16082
-1.16934
0.486437
-0.928866
-0.765716
-1.23057
-0.993046
-0.668511
0.602851
0.595255
-4.61428
-4.89125
-1.09974
-0.574088
-0.481395
-0.38739
-0.288986
-0.18584
-0.871271
-0.651124
-0.679676
0.505916
0.532699
-0.929342
-1.13427
-1.3117
-1.43328
-1.50881
-1.54812
-1.5427
-1.51408
-1.45835
-1.3923
-0.112705
-0.00249459
0.104104
0.20335
0.293654
0.37359
0.434049
-0.859901
-0.597024
-0.624908
-0.541607
-0.568632
-0.497711
-0.51916
-0.465224
-0.479843
-0.442468
-0.452795
-0.430575
-0.434939
-0.430878
-0.429263
-0.44289
-0.435414
-0.466778
-0.453349
-0.502027
-0.48308
-0.547641
-0.523478
-0.604621
-0.574799
-0.666133
-0.635807
-0.713784
-0.692969
-0.729319
-0.726382
-0.702733
-0.721574
-0.633276
-0.672976
-0.530451
-0.585106
-0.410575
-0.471518
-0.290632
-0.349708
-0.182667
-0.234672
-0.0922466
-0.135135
-0.0203576
-0.0540404
0.0343679
0.00899851
0.0747129
0.0561083
0.104795
0.0907165
0.130222
0.11769
0.157243
0.143182
0.190555
0.172915
0.232298
0.210368
0.281184
0.256044
0.334739
0.307416
0.392975
0.363253
0.454336
0.423586
0.512013
0.484165
0.558414
0.536942
0.590039
0.57609
0.607058
0.600277
0.610836
0.610519
0.608213
0.588891
0.589093
0.588719
0.579087
0.585634
0.555149
0.569412
0.51101
0.535942
0.440494
0.479489
0.335754
0.392937
0.187048
0.26763
-0.0190513
0.0921343
-0.299882
-0.148885
-0.676685
-0.474989
-1.16776
-0.907217
-1.77687
-1.45829
-2.47672
-2.11847
-3.21244
-2.84388
-3.95319
-3.58911
-4.30033
-5.26686
-5.22693
-5.27765
-5.07477
-5.19686
-4.69156
-4.90424
-4.17061
-4.4439
-3.5855
-3.88089
-3.01498
-3.29415
-2.51496
-2.75427
-2.10221
-2.29797
-1.76728
-1.92595
-1.49803
-1.62495
-1.28861
-1.38617
-1.13188
-1.20448
-1.0103
-1.06831
-0.895354
-0.953982
-0.757705
-0.830782
-0.581679
-0.674736
-0.372148
-0.480009
-0.150108
-0.261051
0.0570557
-0.0428877
0.224364
0.146685
0.344914
0.289961
0.43036
0.391145
0.490759
0.463433
0.529431
0.512591
0.550406
0.541846
0.558119
0.555616
0.557963
0.558648
0.555479
0.556729
0.554205
0.554575
0.555509
0.554488
0.560092
0.557361
0.567938
0.563655
0.578266
0.572839
0.590215
0.584116
0.602243
0.596336
0.612454
0.607704
0.618568
0.616188
0.617655
0.619187
0.607199
0.613722
0.586388
0.598102
0.553222
0.570735
0.513311
0.51331
0.533622
-1.23485
-1.23655
0.469005
-0.940262
-0.777931
0.585655
-5.11894
-1.31604
0.486207
-1.02656
-0.692094
0.492875
-1.16691
-0.605086
-0.517265
-0.425517
-0.327412
-0.222326
-0.723885
-0.995591
-1.22226
-1.43177
-1.58734
-1.68317
-1.72835
-1.72205
-1.68545
-1.61232
-1.52678
-0.152204
-0.0351072
0.0783007
0.184153
0.280258
0.361705
0.417559
-0.871572
-0.4935
-0.768713
-0.511959
-0.512098
-0.474956
-0.481569
-0.45569
-0.468144
-0.425878
-0.440999
-0.401553
-0.413016
-0.382477
-0.39126
-0.369254
-0.375138
-0.363101
-0.365127
-0.365689
-0.3633
-0.376988
-0.370254
-0.396941
-0.385896
-0.424975
-0.410038
-0.459545
-0.4415
-0.500558
-0.479262
-0.544094
-0.522685
-0.576294
-0.562665
-0.581877
-0.583111
-0.553097
-0.571954
-0.490559
-0.525682
-0.402327
-0.44893
-0.300914
-0.35242
-0.199134
-0.249381
-0.106289
-0.151208
-0.0270556
-0.064838
0.0373109
0.00696624
0.0875992
0.0641045
0.125893
0.108065
0.155481
0.141513
0.180934
0.168404
0.20722
0.193694
0.238086
0.221921
0.275209
0.255865
0.317609
0.295901
0.363805
0.34023
0.414479
0.388547
0.468198
0.441272
0.518586
0.494284
0.558945
0.540295
0.586265
0.574251
0.60081
0.595026
0.603789
0.603629
0.596226
0.60122
0.579503
0.588992
0.575818
0.567705
0.572859
0.57527
0.576334
0.564067
0.57132
0.540927
0.555731
0.496508
0.521512
0.426471
0.465083
0.323221
0.379532
0.177068
0.256211
-0.024908
0.0840108
-0.299392
-0.151963
-0.667342
-0.470478
-1.14554
-0.892053
-1.73774
-1.42751
-2.41503
-2.06852
-3.12675
-2.76994
-3.83183
-3.48298
-4.46674
-4.16308
-4.9578
-4.7336
-5.40161
-5.12516
-5.29264
-5.4396
-5.45215
-5.23783
-5.3671
-4.83197
-5.05693
-4.27961
-4.56976
-3.65473
-3.97097
-3.03914
-3.34113
-2.49426
-2.75566
-2.04097
-2.25635
-1.67046
-1.84638
-1.3692
-1.51175
-1.13087
-1.24244
-0.950021