/*--------------------------------*- C++ -*----------------------------------*\
  =========                 |
  \\      /  F ield         | OpenFOAM: The Open Source CFD Toolbox
   \\    /   O peration     | Website:  https://openfoam.org
    \\  /    A nd           | Version:  10
     \\/     M anipulation  |
\*---------------------------------------------------------------------------*/
FoamFile
{
    format      ascii;
    class       volVectorField;
    location    "8";
    object      U;
}
// * * * * * * * * * * * * * * * * * * * * * * * * * * * * * * * * * * * * * //

dimensions      [0 1 -1 0 0 0 0];

internalField   nonuniform List<vector> 
28942
(
(-0.549755 0.0698867 -2.46913e-19)
(-0.571005 -0.0297836 -5.53609e-20)
(2.09457 -1.45556 6.73315e-19)
(2.52999 0.0505173 -4.1767e-19)
(2.49168 0.0796515 1.39245e-19)
(0.961713 0.0501037 0)
(1.14581 0.0780171 -8.59652e-21)
(1.29411 0.0419305 9.61983e-21)
(2.93554 -0.127422 4.64636e-20)
(2.9041 -0.113264 -1.1371e-19)
(0.272443 -0.307772 -1.86762e-18)
(0.214282 -0.196625 8.7579e-19)
(0.10601 -0.325091 0)
(0.0715513 -0.422845 0)
(2.40908 -0.0500336 2.08775e-21)
(2.44229 -0.0469626 2.13343e-22)
(2.32978 0.188009 1.78376e-19)
(2.29443 0.144265 2.76446e-19)
(1.17137 -1.92612 -1.31173e-19)
(1.80998 -1.97881 2.92838e-20)
(2.47223 0.527179 2.57904e-19)
(2.49497 0.49238 0)
(0.374462 0.192478 1.63877e-18)
(-0.319823 -0.130406 9.05286e-19)
(3.30644 -0.680366 1.71298e-18)
(3.86154 -0.808076 -1.5495e-18)
(0.82703 -1.47072 2.39269e-18)
(0.803804 -1.18328 -1.01556e-18)
(2.30568 -1.64301 -2.13413e-19)
(1.78219 -1.18263 -8.31e-20)
(0.990091 -0.0324334 0)
(1.3515 -0.0568913 8.91606e-21)
(1.70955 -0.0856621 1.44348e-20)
(2.0934 -0.056631 1.2703e-20)
(1.37031 1.78013 1.13872e-19)
(1.01141 1.89535 -1.2661e-19)
(1.58696 1.74513 -8.38543e-19)
(1.23595 1.7203 -2.98653e-19)
(0.412584 0.035286 9.96113e-21)
(0.570347 1.72757 -4.25879e-19)
(2.04013 -0.0239743 0)
(2.36129 -0.0741745 0)
(2.12557 -0.435839 -7.48863e-21)
(2.07385 -0.384513 2.26187e-20)
(2.15685 -0.40832 1.92074e-20)
(1.70326 0.0562377 -5.7539e-21)
(1.66642 0.0758957 9.4968e-21)
(2.04988 0.0695345 4.17984e-20)
(1.99867 0.0695175 -1.15352e-20)
(1.77171 0.0663899 2.81851e-20)
(1.62098 0.087247 -1.59745e-20)
(2.68993 -0.00696284 -6.12767e-21)
(2.68953 -0.00901995 -1.17245e-21)
(2.95337 -0.166653 -2.01608e-21)
(2.91659 -0.149614 -2.15251e-20)
(3.78652 0.109339 1.25832e-18)
(3.99418 -0.042372 6.36559e-19)
(-0.132686 -0.171746 -1.07285e-18)
(0.0660755 -0.178195 0)
(-0.136418 0.00318295 3.88431e-19)
(-0.195438 -0.0799711 9.42315e-19)
(-0.10852 -0.110652 -7.511e-19)
(-0.121295 -0.145595 -7.86008e-19)
(3.4418 -1.14651 0)
(4.01089 -0.827796 2.39327e-19)
(3.45049 -0.687281 -1.09588e-19)
(3.33158 -0.783528 0)
(2.36534 -0.551162 -1.30548e-19)
(2.437 -0.58481 -8.07139e-20)
(-0.277302 0.123779 8.08749e-19)
(-0.375423 0.223012 -2.60579e-19)
(-0.517625 0.31886 6.62467e-19)
(2.48587 -0.709578 0)
(2.4008 -0.648764 4.21977e-19)
(2.2836 -1.00723 8.86823e-20)
(3.6924 0.848477 1.8823e-19)
(3.83671 0.761237 -2.0818e-19)
(3.68388 0.595998 -9.88526e-20)
(0.719197 -0.383696 3.77151e-20)
(1.09041 -0.634114 -6.56033e-19)
(2.99519 -1.7725 -1.60241e-19)
(2.86786 -1.78187 2.07447e-19)
(-0.239288 0.127203 1.20016e-18)
(-0.405959 0.0920412 -4.62026e-19)
(3.20805 1.42973 -2.80253e-21)
(2.73745 1.1656 -1.66811e-19)
(2.73332 1.60529 1.39351e-19)
(2.5777 1.73267 -4.39719e-19)
(2.57043 1.78687 2.82833e-19)
(2.16449 1.56484 -1.11962e-20)
(2.22527 1.71758 -9.32995e-20)
(2.25228 1.80225 1.6272e-19)
(-0.265657 0.02465 -2.37675e-19)
(0.208629 0.417506 -6.33602e-20)
(-0.330622 -0.244329 1.26174e-19)
(-0.471478 -0.301121 -1.5752e-18)
(-0.477764 -0.378881 2.01481e-18)
(1.13757 1.24418 -4.63586e-19)
(1.34109 1.44296 9.80665e-20)
(-0.430363 -0.0627997 0)
(2.51603 -0.000949524 0)
(2.43032 0.0786462 -3.11758e-19)
(2.39923 0.177976 2.60028e-19)
(2.60644 0.150278 0)
(3.45713 -0.0220361 0)
(3.46923 -0.039911 0)
(3.51639 -0.0200566 1.00718e-19)
(2.67967 0.361094 -5.17614e-20)
(2.66181 0.383987 5.28299e-19)
(2.66579 0.345876 2.83044e-19)
(-0.127609 -0.281799 2.17199e-18)
(-0.150817 -0.351389 -2.4335e-18)
(-0.72342 -0.043662 -4.90527e-19)
(-0.791922 -0.357541 4.61238e-19)
(-0.676595 -0.269616 9.26423e-19)
(0.519221 0.6568 4.8169e-19)
(1.01291 0.505046 1.15734e-18)
(0.851655 1.17463 8.48813e-20)
(0.402954 1.12293 -2.79206e-18)
(3.35386 1.1738 1.53538e-20)
(2.92663 1.10601 2.86071e-19)
(2.83667 1.00816 -4.93391e-19)
(2.66481 -1.97897 -9.94438e-20)
(1.98846 -1.43944 1.25209e-19)
(0.590102 0.00462733 -1.43361e-18)
(0.624374 -0.186505 0)
(0.978585 -0.189328 8.16812e-19)
(1.83785 -1.39762 -6.68604e-20)
(2.21603 -1.82825 2.73441e-19)
(1.97865 0.0647354 -3.85463e-20)
(2.05204 0.0619465 1.99582e-20)
(1.85056 0.0605479 1.26151e-21)
(1.41748 -1.95699 0)
(1.49738 -1.4092 0)
(2.57343 -0.164941 -1.05102e-19)
(2.53074 -0.154252 6.14401e-19)
(2.53256 -0.0457881 0)
(2.26822 -1.90452 0)
(2.25079 -1.62565 -5.56223e-20)
(2.20381 1.83641 5.15233e-19)
(-0.479391 -0.551728 1.43442e-18)
(-0.412535 -0.49131 -1.04352e-18)
(2.09983 -1.84486 6.7991e-20)
(2.23919 -0.425169 1.08802e-19)
(2.21489 -0.383346 -2.16407e-20)
(3.71873 0.141761 -1.67145e-19)
(3.68118 0.316556 2.25007e-19)
(3.60191 0.279572 7.13226e-19)
(-0.342151 -0.446679 5.03704e-19)
(2.49221 1.84782 7.81626e-19)
(2.55783 1.63873 -2.04535e-19)
(2.95606 1.99212 -6.27028e-23)
(1.54146 -0.0314017 -1.78764e-21)
(1.5296 -0.0310264 -1.95026e-20)
(1.72187 -0.0362175 -1.64409e-21)
(1.77258 -0.0463206 5.54724e-21)
(2.14624 1.74005 8.87238e-20)
(1.3172 1.55635 0)
(0.109742 -0.381735 7.0488e-19)
(0.200455 -0.308452 -7.71517e-19)
(-0.0274923 0.38136 4.89647e-19)
(1.6085 0.558771 -8.34058e-19)
(2.82003 1.01164 -3.92769e-19)
(1.99677 -0.046496 1.72402e-21)
(4.23753 -1.5268 2.67031e-19)
(4.02671 -1.58771 7.48465e-19)
(2.45729 0.577158 5.95582e-19)
(2.28292 0.685622 4.02763e-20)
(2.33967 0.388822 3.26559e-19)
(2.38472 0.403353 -2.34704e-19)
(2.50176 0.591279 0)
(2.75196 -0.0143456 3.2253e-20)
(2.7605 -0.0258008 6.13944e-20)
(2.80766 -0.0814691 2.51788e-20)
(2.8181 -0.0835484 -4.60321e-20)
(2.7052 0.333824 6.38649e-20)
(2.73568 0.353519 -1.80343e-19)
(2.70695 0.358896 0)
(2.6789 0.33479 3.79625e-20)
(2.70455 0.389306 0)
(2.69331 0.5028 -1.42074e-19)
(2.68888 0.562065 -7.80202e-20)
(2.66491 0.621073 -1.45383e-19)
(2.68767 0.607302 0)
(2.74833 0.624443 4.73788e-19)
(2.69427 0.672014 1.36786e-20)
(2.62524 0.666732 -8.43793e-20)
(2.48677 0.792079 -3.67724e-19)
(2.49127 0.643939 -6.29492e-20)
(0.959584 1.51379 2.00689e-19)
(1.29464 1.13502 -7.08668e-20)
(-0.520189 -0.147425 -6.66921e-19)
(1.79226 0.0631484 3.49337e-20)
(2.13455 0.0665098 0)
(0.226827 -0.0971296 7.79273e-19)
(0.223624 -0.113664 3.60686e-19)
(2.03152 0.0758606 -5.02402e-21)
(2.21584 0.0757272 -1.50079e-21)
(2.21584 0.0747799 0)
(2.00752 0.0736728 -3.03837e-21)
(2.68924 1.70765 1.13392e-19)
(2.77816 1.61544 -5.77079e-19)
(2.71335 1.6615 -3.23459e-19)
(-0.226826 -0.395288 9.39835e-19)
(-0.179186 -0.212791 -1.19514e-18)
(-0.242998 -0.278622 1.1393e-18)
(-0.263732 -0.144731 0)
(-0.143077 -0.0783885 1.60207e-18)
(-0.126983 -0.0935508 -1.38403e-18)
(-0.297313 -0.159571 -1.41981e-18)
(-0.370583 -0.21066 -1.32042e-18)
(-0.254914 -0.16857 0)
(0.173668 0.854528 0)
(0.0866278 0.566867 0)
(0.0157689 0.336657 0)
(3.41852 -0.0541643 -9.48887e-21)
(3.35724 -0.082225 0)
(3.41306 -0.0811872 9.52502e-21)
(2.35003 -0.255235 9.84868e-19)
(2.38301 -0.264013 -3.60536e-19)
(2.37765 -0.229794 0)
(3.4366 -2.24772 8.95086e-21)
(3.44438 -2.22203 -1.7995e-20)
(3.43234 -2.25796 5.83722e-21)
(3.45688 -2.17106 0)
(3.46233 -2.08196 1.17845e-20)
(3.46505 -1.95062 0)
(3.41159 -1.94142 0)
(3.45155 -1.77512 -5.38978e-20)
(3.37952 -1.75477 0)
(3.4238 -2.07934 1.2997e-20)
(3.43378 -2.17366 0)
(3.43294 -2.22607 -6.16333e-21)
(3.43471 -2.24866 8.97962e-21)
(3.4418 -2.25238 -5.82193e-21)
(3.41756 -1.55311 5.15006e-20)
(3.33428 -1.522 1.99761e-21)
(3.43556 -2.26526 1.3849e-23)
(3.45635 -2.24877 8.76344e-21)
(3.44812 -2.2708 -4.8257e-20)
(3.37684 -1.29322 -4.9944e-23)
(3.28104 -1.24768 2.18729e-21)
(3.47934 -2.24483 -1.72428e-20)
(3.32267 -1.00201 -5.52972e-20)
(3.25571 -0.692658 5.52547e-20)
(3.21275 -0.942909 -4.21526e-21)
(3.13219 -0.619618 -8.82609e-21)
(3.4679 -2.27004 4.70529e-20)
(3.51426 -2.23409 1.1338e-20)
(3.17382 -0.372798 0)
(3.04033 -0.286485 8.71631e-21)
(3.49227 -2.25126 -5.93691e-24)
(3.55204 -2.20791 5.91463e-24)
(3.07947 -0.0517897 0)
(2.93904 0.0474338 0)
(3.52181 -2.1967 0)
(3.59387 -2.1483 0)
(2.97616 0.2627 0)
(2.8298 0.373231 -4.11396e-21)
(3.55042 -2.09074 2.89763e-20)
(3.63507 -2.04039 6.58371e-24)
(2.869 0.56255 -2.07045e-22)
(2.71745 0.680471 4.38771e-21)
(3.57821 -1.92751 -2.91103e-20)
(3.6735 -1.87689 0)
(2.75682 0.839958 0)
(2.60292 0.961431 0)
(3.60269 -1.70624 1.89196e-21)
(3.70834 -1.65998 -3.12847e-20)
(2.64269 1.08773 -2.14905e-20)
(2.48662 1.21041 0)
(3.6216 -1.43615 -7.96634e-22)
(3.73816 -1.39787 2.95767e-20)
(2.52601 1.30289 3.12927e-20)
(2.37424 1.42271 9.42434e-21)
(3.64106 -1.12265 -3.46539e-20)
(3.75831 -1.10034 0)
(2.40667 1.48355 -9.74409e-21)
(2.25322 1.60391 -6.14496e-21)
(3.64123 -0.784196 1.70121e-20)
(3.7704 -0.775351 -3.24369e-20)
(2.29915 1.6223 3.47275e-20)
(2.15043 1.73572 -3.92603e-20)
(3.64301 -0.420034 -1.93243e-20)
(3.76029 -0.432277 -5.11131e-22)
(2.18266 1.72972 0)
(2.04875 1.82708 -1.78092e-20)
(3.61272 -0.0534737 3.40601e-20)
(3.74128 -0.0775941 -6.397e-20)
(2.07863 1.78917 0)
(1.95251 1.87582 0)
(3.48956 -0.418193 1.91274e-20)
(3.45199 -0.0329799 7.95522e-20)
(3.57927 0.311417 0)
(3.70035 0.265958 2.89481e-20)
(3.498 -1.14203 1.27742e-20)
(3.48875 -0.793923 -2.46148e-21)
(3.47319 -1.72857 0)
(3.48429 -1.45654 3.73954e-20)
(3.44509 -2.1126 6.17436e-23)
(3.46035 -1.94975 0)
(3.4167 -2.27145 0)
(3.4315 -2.21817 0)
(3.40083 -2.28029 0)
(3.4056 -2.28685 0)
(3.40844 -2.2529 -1.14415e-20)
(3.40043 -2.26841 -2.89022e-21)
(3.44468 -2.20537 1.11915e-20)
(3.4246 -2.23514 1.10908e-20)
(3.48566 -2.072 -2.23222e-20)
(3.46676 -2.15543 -2.59359e-20)
(3.50325 -1.78655 0)
(3.50105 -1.95027 0)
(3.46157 -1.33907 1.14889e-22)
(3.48885 -1.58138 0)
(3.36507 -0.769828 0)
(3.4209 -1.06562 0)
(3.20967 -0.146293 0)
(3.29386 -0.460399 0)
(3.01188 0.461254 0)
(3.11478 0.164081 0)
(2.78921 0.979019 0)
(2.90237 0.735368 0)
(2.55527 1.36495 0)
(2.67186 1.18907 0)
(2.31883 1.62025 1.02217e-20)
(2.43926 1.50728 0)
(2.20673 1.69248 2.39369e-21)
(1.98315 1.80466 -2.96974e-21)
(1.86523 1.88014 2.94628e-21)
(2.01326 1.83758 0)
(1.8341 1.95423 1.511e-20)
(1.92091 1.91767 8.30201e-21)
(2.22971 1.53884 -3.28783e-21)
(2.11581 1.71059 1.24107e-20)
(2.45882 1.07982 -1.25744e-22)
(2.34037 1.32931 0)
(2.69008 0.489023 0)
(2.574 0.798754 0)
(2.9105 -0.180579 0)
(2.80293 0.159694 0)
(3.10117 -0.857769 0)
(3.01039 -0.522461 -1.76689e-26)
(3.24681 -1.46567 -1.31972e-22)
(3.18045 -1.17586 0)
(3.34385 -1.91743 0)
(3.30057 -1.71708 0)
(3.39409 -2.16438 0)
(3.37252 -2.06543 0)
(3.41985 -2.23908 0)
(3.40903 -2.21905 6.28978e-21)
(3.45971 -2.22445 -1.54632e-21)
(3.43637 -2.23685 7.31714e-21)
(3.53557 -2.19214 0)
(3.49241 -2.20961 5.80057e-21)
(3.63768 -2.10089 0)
(3.58561 -2.16137 0)
(3.73456 -1.83333 0)
(3.68846 -1.99461 0)
(3.80954 -1.36009 0)
(3.77472 -1.61852 0)
(3.85422 -0.764366 8.43396e-21)
(3.8363 -1.07242 0)
(3.83225 -0.117756 3.0605e-20)
(3.85147 -0.446168 7.3393e-21)
(3.79453 0.20672 -2.95957e-20)
(3.42259 0.346902 -7.70002e-20)
(2.10289 1.72098 -4.49715e-21)
(1.75469 1.94815 1.11425e-20)
(3.64845 0.587825 0)
(3.73715 0.510513 0)
(3.37301 0.691553 0)
(3.52847 0.644325 0)
(3.29463 -0.404005 0)
(3.23521 0.367065 -2.30507e-20)
(3.26477 -0.0148938 -2.12146e-20)
(3.3212 -1.14179 -2.69954e-20)
(3.30848 -0.785961 5.46205e-21)
(3.32432 -1.73206 -7.69448e-23)
(3.32538 -1.4591 0)
(3.32399 -2.11793 0)
(3.32514 -1.95425 0)
(3.328 -2.276 0)
(3.32688 -2.22317 0)
(3.34052 -2.2782 0)
(3.33258 -2.28895 0)
(3.37277 -2.23686 0)
(3.35282 -2.25858 0)
(3.43091 -2.17902 4.63641e-23)
(3.39837 -2.21317 -1.17654e-20)
(3.4949 -2.052 4.43397e-23)
(3.46369 -2.13018 2.39876e-20)
(3.53719 -1.78513 0)
(3.52184 -1.93802 0)
(3.52348 -1.36586 -5.51306e-23)
(3.53775 -1.59343 0)
(3.44985 -0.826861 0)
(3.49454 -1.10787 0)
(3.31611 -0.230583 0)
(3.38997 -0.531664 0)
(3.13373 0.352964 0)
(3.23001 0.0674335 0)
(2.91866 0.855629 0)
(3.02894 0.617827 0)
(2.68712 1.24121 0)
(2.8031 1.06408 0)
(2.44664 1.50897 -7.04503e-21)
(2.56594 1.39089 0)
(1.9022 1.77782 0)
(2.01597 1.70553 -2.70499e-21)
(2.22261 1.63098 0)
(2.32848 1.59174 -5.84155e-21)
(1.72295 2.02882 -1.89003e-20)
(1.65301 2.01391 -4.1546e-21)
(1.68985 1.90496 -2.64571e-20)
(1.79298 1.84368 0)
(1.88018 1.93701 0)
(1.79829 2.0047 2.86725e-20)
(2.08526 1.65331 -1.11867e-22)
(1.97887 1.81818 -1.24944e-20)
(2.31357 1.19794 1.25742e-22)
(2.19628 1.4451 0)
(2.54723 0.605862 0)
(2.4291 0.916899 0)
(2.77429 -0.0731877 0)
(2.66254 0.273055 0)
(2.97905 -0.767424 0)
(2.87999 -0.423025 1.7669e-26)
(3.14665 -1.39523 2.66799e-22)
(3.06845 -1.09502 0)
(3.26693 -1.87285 0)
(3.21316 -1.65748 0)
(3.34213 -2.14262 -3.29478e-21)
(3.30978 -2.03443 0)
(3.39245 -2.22086 0)
(3.36948 -2.20164 3.28039e-21)
(3.44858 -2.19235 -5.76423e-21)
(3.41709 -2.21297 -5.93801e-21)
(3.53902 -2.14127 0)
(3.48921 -2.16691 0)
(3.65771 -2.04548 0)
(3.5967 -2.10565 0)
(3.77066 -1.79188 0)
(3.71691 -1.94411 0)
(3.85326 -1.33887 0)
(3.81633 -1.5873 0)
(3.89939 -0.761401 -9.23493e-23)
(3.88156 -1.05873 0)
(3.88818 -0.150922 8.85412e-23)
(3.90348 -0.456456 0)
(3.79682 0.436659 2.32546e-20)
(3.85218 0.152306 -2.32281e-20)
(3.19198 0.718421 -3.92646e-20)
(3.67141 0.771632 0)
(3.72906 0.685813 3.99203e-20)
(3.58162 0.860595 0)
(2.1291 1.62825 0)
(1.59324 1.96303 3.67162e-21)
(3.32582 0.983159 -7.97906e-20)
(3.14862 1.01731 -3.26541e-20)
(3.59438 0.9843 -1.36402e-20)
(3.64545 0.891242 -5.07289e-20)
(3.46788 0.932278 0)
(2.34381 1.53116 -1.49677e-20)
(2.24482 1.54212 6.50558e-21)
(1.6337 1.83323 5.81758e-21)
(1.54397 1.88407 -2.94303e-20)
(2.95924 1.03749 -1.30274e-19)
(3.11057 1.25946 6.70835e-20)
(2.93238 1.45669 2.53027e-19)
(2.94019 1.28147 7.14918e-20)
(3.02507 0.390997 -4.40451e-20)
(2.98963 0.739789 1.17309e-19)
(3.0835 -0.386662 4.56617e-20)
(3.05323 0.00666145 3.24743e-20)
(3.12542 -1.1302 1.09927e-20)
(3.10611 -0.771317 1.15244e-20)
(3.15597 -1.72335 7.69449e-23)
(3.14342 -1.4499 0)
(3.18745 -2.10849 0)
(3.17239 -1.94487 0)
(3.22588 -2.26512 0)
(3.20713 -2.21287 0)
(3.26967 -2.26237 0)
(3.24645 -2.27631 0)
(3.3272 -2.20911 0)
(3.29522 -2.23712 0)
(3.40574 -2.14361 0)
(3.3634 -2.18034 0)
(3.49162 -2.01968 -3.55033e-24)
(3.44975 -2.09324 0)
(3.55648 -1.77206 0)
(3.52903 -1.91411 0)
(3.56965 -1.38074 -4.57564e-23)
(3.57052 -1.59338 0)
(3.52076 -0.874314 0)
(3.55326 -1.13893 0)
(3.40942 -0.307568 0)
(3.47272 -0.594743 0)
(3.24118 0.256505 0)
(3.33168 -0.021093 0)
(3.03405 0.751283 0)
(3.14119 0.516465 0)
(2.80557 1.13176 0)
(2.92146 0.956723 0)
(2.56718 1.39674 -2.9943e-21)
(2.68609 1.27891 1.62243e-21)
(2.45022 1.4831 8.5396e-21)
(1.83181 1.7202 1.68089e-21)
(2.04868 1.58922 -4.34074e-21)
(1.93941 1.65745 5.49244e-21)
(1.72994 1.77914 0)
(1.61706 2.10065 1.33989e-20)
(1.50501 2.01927 3.42012e-20)
(1.55689 2.07631 -3.08747e-20)
(1.7555 2.02957 0)
(1.68125 2.08785 0)
(1.9468 1.76136 -2.70334e-24)
(1.84815 1.91884 0)
(2.16929 1.31341 0)
(2.05531 1.55723 0)
(2.40249 0.722917 1.43422e-22)
(2.28409 1.03368 0)
(2.63418 0.0388438 0)
(2.51917 0.38861 0)
(2.85051 -0.669236 0)
(2.74478 -0.316987 0)
(3.03637 -1.31689 -1.34811e-22)
(2.94806 -1.00622 0)
(3.18047 -1.81553 -1.21122e-22)
(3.11421 -1.58991 0)
(3.28113 -2.10541 0)
(3.23552 -1.988 0)
(3.35266 -2.19184 0)
(3.3183 -2.17055 0)
(3.42456 -2.15309 0)
(3.38605 -2.18101 0)
(3.52767 -2.08395 0)
(3.47144 -2.11915 0)
(3.65785 -1.98053 7.45464e-23)
(3.59122 -2.04276 0)
(3.78008 -1.73323 0)
(3.72229 -1.88114 0)
(3.86836 -1.297 0)
(3.82893 -1.53572 0)
(3.91678 -0.749588 1.59731e-23)
(3.89797 -1.03055 0)
(3.90888 -0.178787 -1.6402e-23)
(3.92159 -0.463697 0)
(3.82518 0.363455 -6.60168e-23)
(3.876 0.100326 0)
(3.67562 0.796237 3.05698e-20)
(3.75774 0.600225 -7.88309e-21)
(3.55433 1.04954 -8.00011e-21)
(3.58214 0.949175 -1.61023e-20)
(3.26694 1.21829 3.37178e-20)
(3.51794 1.07508 2.33242e-20)
(2.15813 1.51577 -8.35634e-22)
(1.46028 1.93548 -2.62942e-20)
(3.09503 1.45052 -5.30935e-21)
(3.50785 1.14558 0)
(2.86016 1.57344 -3.46904e-19)
(3.48309 1.05976 -1.87431e-20)
(3.45775 1.1598 -2.97554e-20)
(2.73109 1.58135 5.45495e-19)
(2.63967 1.64397 -8.99575e-20)
(3.40658 1.15313 0)
(2.74656 1.42979 -7.31155e-20)
(2.72682 1.53309 -3.2711e-20)
(2.76524 1.02361 -7.5245e-20)
(2.75863 1.26197 1.0457e-19)
(2.79631 0.400746 4.50428e-20)
(2.77432 0.735191 2.08654e-20)
(2.85307 -0.36396 -2.36005e-20)
(2.82201 0.0260115 -2.30148e-20)
(2.9134 -1.1061 0)
(2.88392 -0.746988 1.5424e-22)
(2.97319 -1.70086 0)
(2.94469 -1.42699 0)
(3.03934 -2.08293 -6.46619e-23)
(3.00617 -1.92067 0)
(3.11317 -2.23726 0)
(3.07596 -2.18582 0)
(3.18912 -2.23139 0)
(3.15012 -2.24732 0)
(3.2725 -2.1695 0)
(3.22856 -2.20241 0)
(3.37131 -2.09632 -3.78652e-23)
(3.3198 -2.13568 0)
(3.47684 -1.9741 -3.86442e-24)
(3.42495 -2.04499 0)
(3.56272 -1.74467 0)
(3.52415 -1.87569 0)
(3.60144 -1.38286 8.65366e-23)
(3.58934 -1.5799 0)
(3.57727 -0.909683 0)
(3.59764 -1.15755 0)
(3.48682 -0.373503 0)
(3.54034 -0.646031 0)
(3.33598 0.166031 0)
(3.41797 -0.0998902 0)
(3.14137 0.641038 0)
(3.24302 0.415344 0)
(2.91862 1.01096 0)
(3.03224 0.839843 0)
(2.6826 1.27753 1.38091e-21)
(2.8005 1.15755 0)
(2.45705 1.42761 0)
(2.56696 1.36908 1.83816e-21)
(2.26286 1.43686 2.84731e-22)
(2.3551 1.45032 0)
(1.9759 1.52429 4.40377e-21)
(2.18224 1.39015 -5.02394e-23)
(2.07981 1.45935 -8.95091e-22)
(1.77112 1.64022 -2.22412e-21)
(1.87225 1.58434 1.42181e-21)
(1.58228 1.74065 8.90073e-22)
(1.67549 1.69276 -1.29831e-21)
(1.41282 1.83593 0)
(1.49571 1.78829 1.43952e-20)
(1.42115 2.07224 8.25253e-21)
(1.33736 1.8868 1.46458e-20)
(1.38287 1.98723 -3.47971e-20)
(1.51976 2.16514 5.05231e-21)
(1.46822 2.13352 0)
(1.64227 2.11155 0)
(1.57509 2.16107 0)
(1.81646 1.86177 -1.73829e-24)
(1.72577 2.0111 0)
(2.02838 1.42551 0)
(1.9194 1.66459 0)
(2.25801 0.839436 -1.43422e-22)
(2.14097 1.14859 0)
(2.49174 0.153523 0)
(2.37483 0.505104 0)
(2.71673 -0.564275 0)
(2.60587 -0.206252 0)
(2.91786 -1.22913 0)
(2.82097 -0.90901 0)
(3.08329 -1.74944 9.59413e-25)
(3.00573 -1.51271 0)
(3.20777 -2.05853 0)
(3.15042 -1.93231 0)
(3.30035 -2.15389 0)
(3.2567 -2.12997 0)
(3.38782 -2.10769 0)
(3.34275 -2.14148 0)
(3.50098 -2.023 0)
(3.44004 -2.06568 0)
(3.64225 -1.91688 -7.45463e-23)
(3.56989 -1.97725 0)
(3.77401 -1.68789 0)
(3.71225 -1.82485 0)
(3.86097 -1.26923 0)
(3.82372 -1.50057 0)
(3.90492 -0.735647 7.63935e-23)
(3.88761 -1.00826 0)
(3.90085 -0.198249 -7.25243e-23)
(3.91104 -0.463755 0)
(3.82067 0.3019 6.52663e-23)
(3.87057 0.0588755 0)
(3.67677 0.708821 -6.70334e-21)
(3.75548 0.522417 1.44194e-20)
(3.48794 0.964339 5.15171e-21)
(3.58588 0.856214 -1.24955e-20)
(3.38033 1.13524 2.81948e-21)
(3.38441 1.04049 -8.63871e-21)
(3.22728 1.40252 2.57393e-20)
(3.43761 1.2309 0)
(3.03985 1.59272 2.50622e-19)
(3.41253 1.25998 0)
(2.36537 1.35226 -7.41463e-23)
(2.28405 1.31661 8.72804e-23)
(1.36956 1.7259 1.1501e-20)
(1.29046 1.7762 1.55618e-20)
(2.92712 1.63298 2.17039e-19)
(3.36085 1.23152 3.00636e-20)
(2.71056 1.68037 0)
(2.57367 1.63168 5.40517e-20)
(3.27691 1.18106 1.2061e-20)
(3.2827 1.08696 -1.0129e-20)
(2.60244 1.67386 -1.23968e-19)
(3.34108 1.31883 0)
(2.55734 1.43654 0)
(2.55859 1.55547 5.98827e-20)
(2.56315 1.02991 0)
(2.56121 1.26278 0)
(2.57303 0.423259 0)
(2.56412 0.747977 -2.16185e-20)
(2.619 -0.324465 0)
(2.59093 0.0609075 0)
(2.69584 -1.06755 0)
(2.65638 -0.707441 0)
(2.78412 -1.66202 0)
(2.7398 -1.38899 0)
(2.88431 -2.03911 6.4662e-23)
(2.83299 -1.87923 0)
(2.99316 -2.19131 0)
(2.9379 -2.14043 0)
(3.1013 -2.18477 0)
(3.04686 -2.20127 0)
(3.21057 -2.11794 0)
(3.15493 -2.15399 0)
(3.32911 -2.03843 3.49556e-24)
(3.26855 -2.08025 0)
(3.45222 -1.91839 -4.00914e-24)
(3.39133 -1.98669 0)
(3.55779 -1.70618 0)
(3.50891 -1.8266 0)
(3.61936 -1.37302 -5.01586e-24)
(3.59565 -1.55488 0)
(3.61825 -0.932919 0)
(3.62727 -1.16404 0)
(3.54901 -0.429456 0)
(3.59213 -0.685938 0)
(3.41645 0.081754 0)
(3.49009 -0.171049 0)
(3.23306 0.539351 0)
(3.33011 0.320735 0)
(3.01701 0.900869 0)
(3.12799 0.732862 0)
(2.78706 1.16285 0)
(2.90204 1.04431 0)
(2.56178 1.3235 -1.06332e-21)
(2.67207 1.25771 -1.86623e-21)
(2.45902 1.35534 1.21654e-21)
(1.91297 1.43936 1.51738e-21)
(2.11153 1.32013 0)
(2.01377 1.38172 9.05625e-22)
(1.71797 1.54393 0)
(1.81408 1.49393 -1.5494e-21)
(1.53707 1.63498 -6.62835e-21)
(1.62605 1.59179 1.94434e-21)
(1.45126 1.67844 1.5283e-20)
(1.34775 2.12007 -4.97779e-21)
(1.26802 1.93619 -1.68727e-20)
(1.30642 2.03622 0)
(1.43264 2.2212 1.06853e-20)
(1.38892 2.18457 -1.07263e-20)
(1.54161 2.18203 0)
(1.48058 2.22354 0)
(1.69584 1.95391 -7.73587e-25)
(1.61437 2.09268 0)
(1.89334 1.53333 0)
(1.79095 1.7658 0)
(2.11622 0.954736 0)
(2.00208 1.26087 0)
(2.34927 0.270001 0)
(2.23191 0.621814 0)
(2.5801 -0.453565 0)
(2.46551 -0.0918316 0)
(2.79409 -1.13114 -1.34032e-22)
(2.68985 -0.803824 0)
(2.97849 -1.67003 1.20163e-22)
(2.89077 -1.42339 0)
(3.12517 -1.99907 0)
(3.05657 -1.86327 0)
(3.23851 -2.10648 0)
(3.18491 -2.07814 0)
(3.3405 -2.05614 0)
(3.2888 -2.09427 0)
(3.46146 -1.95473 0)
(3.39718 -2.00627 0)
(3.60809 -1.83861 0)
(3.53285 -1.90186 0)
(3.74717 -1.62365 0)
(3.68154 -1.75029 0)
(3.83697 -1.23679 5.08304e-23)
(3.7998 -1.45172 0)
(3.87174 -0.72762 -4.78534e-23)
(3.85975 -0.989597 0)
(3.8662 -0.216952 4.36189e-23)
(3.87478 -0.466991 0)
(3.79428 0.243651 0)
(3.84027 0.0206298 0)
(3.65439 0.621375 0)
(3.73069 0.446501 0)
(3.47751 0.865606 -2.61998e-23)
(3.56923 0.761254 -5.09314e-21)
(3.28074 0.992177 1.51914e-20)
(3.37935 0.941747 0)
(3.18477 1.11239 1.11359e-20)
(3.18442 1.02391 -1.40827e-21)
(3.17641 1.53069 -7.90132e-20)
(3.35616 1.3416 0)
(2.20808 1.25694 -1.37736e-21)
(1.21802 1.83284 3.12774e-20)
(3.06207 1.63265 3.66822e-20)
(2.81673 1.67129 4.60132e-21)
(2.88856 1.64891 -9.51914e-20)
(3.32451 1.32482 0)
(3.25908 1.27541 -5.89876e-21)
(2.61825 1.69071 9.48508e-20)
(2.67658 1.67062 -6.76293e-20)
(2.72202 1.65937 7.80094e-20)
(3.1823 1.20144 1.3763e-20)
(3.09392 1.12692 -7.25624e-21)
(3.09401 1.04243 -5.09199e-21)
(3.27602 1.43097 0)
(2.47984 1.62188 -3.48583e-21)
(2.55143 1.64847 -4.84328e-21)
(2.51949 1.65686 -2.41599e-20)
(2.4065 1.40855 -3.17487e-20)
(2.43612 1.53664 3.19687e-20)
(2.37785 1.00826 -7.42617e-23)
(2.38972 1.23551 0)
(2.36231 0.426712 0)
(2.36762 0.736743 0)
(2.39459 -0.291964 0)
(2.37089 0.0798816 0)
(2.48197 -1.02126 0)
(2.43426 -0.666566 0)
(2.59625 -1.60738 -7.16253e-23)
(2.53719 -1.33838 0)
(2.72842 -1.97707 0)
(2.66018 -1.82048 0)
(2.87038 -2.1277 0)
(2.79849 -2.07688 0)
(3.00925 -2.12318 0)
(2.94024 -2.13875 0)
(3.14358 -2.05533 0)
(3.07649 -2.0925 0)
(3.2809 -1.97226 3.43697e-23)
(3.21161 -2.01561 0)
(3.41987 -1.8552 -4.03218e-24)
(3.35104 -1.92078 0)
(3.54258 -1.65848 0)
(3.48483 -1.76949 0)
(3.62377 -1.35203 -6.65706e-23)
(3.58991 -1.51942 0)
(3.64381 -0.945153 0)
(3.64221 -1.15922 0)
(3.59534 -0.475821 0)
(3.62818 -0.715493 0)
(3.48075 0.0062919 0)
(3.54595 -0.232872 0)
(3.31138 0.441886 0)
(3.40182 0.233516 0)
(3.10524 0.788767 0)
(3.21191 0.626987 0)
(2.88076 1.04823 -2.40299e-23)
(2.99426 0.928451 0)
(2.65995 1.21653 1.06773e-21)
(2.76854 1.14527 0)
(2.46182 1.26578 -5.43561e-22)
(2.55686 1.25767 0)
(2.29824 1.19116 5.28213e-22)
(2.37583 1.24196 -3.68698e-23)
(2.04747 1.2361 7.19256e-22)
(2.22899 1.12074 0)
(2.14071 1.17852 1.24195e-21)
(1.85882 1.34174 0)
(1.95348 1.29072 0)
(1.6722 1.43628 0)
(1.76535 1.39059 0)
(1.49044 1.52254 0)
(1.58078 1.48073 0)
(1.31875 1.61365 -1.17188e-20)
(1.40302 1.56574 -2.23471e-21)
(1.1618 1.72817 -4.2256e-21)
(1.23723 1.66717 -2.66883e-20)
(1.2019 1.98883 -2.43998e-20)
(1.09177 1.7937 -5.44997e-21)
(1.15238 1.8927 9.78719e-21)
(1.28449 2.16401 -5.22568e-21)
(1.24261 2.08211 3.0055e-20)
(1.35768 2.26843 -4.05154e-24)
(1.31969 2.22906 0)
(1.45375 2.24202 0)
(1.40088 2.27531 0)
(1.58691 2.03664 1.67669e-25)
(1.51541 2.16372 0)
(1.76677 1.63538 0)
(1.67249 1.85931 0)
(1.97967 1.06764 0)
(1.86994 1.36922 0)
(2.20928 0.386976 0)
(2.0929 0.73756 0)
(2.44296 -0.339321 0)
(2.32617 0.0246248 0)
(2.66643 -1.02684 2.64722e-22)
(2.55663 -0.69367 0)
(2.86658 -1.58189 0)
(2.77022 -1.32655 0)
(3.0335 -1.92934 0)
(2.95447 -1.78441 0)
(3.16674 -2.05042 0)
(3.10365 -2.01641 0)
(3.283 -2.00058 0)
(3.22519 -2.04043 0)
(3.41212 -1.88863 5.39438e-23)
(3.34438 -1.94588 0)
(3.56472 -1.76985 0)
(3.48664 -1.83225 0)
(3.70866 -1.57057 0)
(3.6409 -1.68727 0)
(3.79874 -1.20931 -5.08304e-23)
(3.76236 -1.4111 0)
(3.82399 -0.72191 1.21057e-23)
(3.81799 -0.974023 0)
(3.81015 -0.233119 -7.503e-23)
(3.82114 -0.470826 0)
(3.74601 0.192982 0)
(3.78678 -0.0119017 0)
(3.61418 0.540922 0)
(3.6871 0.379276 0)
(3.44535 0.775261 8.90359e-24)
(3.53263 0.672946 0)
(3.26209 0.903559 0)
(3.3539 0.850755 0)
(3.08655 0.96289 5.12145e-21)
(3.17193 0.939118 0)
(3.01054 1.05737 -9.43222e-22)
(3.00512 0.983072 -6.17051e-21)
(3.14523 1.58773 0)
(2.57562 1.62855 -1.19478e-19)
(2.95906 1.64977 -2.39843e-20)
(2.38481 1.12321 -5.27408e-22)
(2.31589 1.06141 0)
(1.09898 1.62224 -4.73616e-21)
(1.02619 1.68898 8.13487e-21)
(3.2693 1.41292 0)
(3.22997 1.36388 0)
(2.82998 1.64026 0)
(3.16995 1.28995 5.80755e-21)
(3.09072 1.21137 7.18658e-21)
(3.01236 1.13355 0)
(2.93343 1.07335 -1.03453e-20)
(2.92908 1.00393 5.18221e-21)
(3.20843 1.50247 0)
(2.47892 1.67179 1.07521e-23)
(2.62335 1.58235 -3.23827e-20)
(2.55002 1.60431 1.11275e-19)
(2.5161 1.65118 -3.67606e-20)
(2.3814 1.61401 1.62066e-20)
(2.43749 1.66421 2.38804e-20)
(2.26819 1.38685 0)
(2.3201 1.52153 0)
(2.20736 0.989845 7.42786e-23)
(2.23343 1.21052 0)
(2.17324 0.424856 0)
(2.18706 0.725859 0)
(2.19174 -0.264405 0)
(2.17392 0.0910821 0)
(2.28237 -0.967667 0)
(2.23009 -0.624415 0)
(2.41763 -1.53807 7.16254e-23)
(2.34611 -1.27597 0)
(2.5785 -1.89861 0)
(2.49531 -1.74583 0)
(2.7502 -2.04837 0)
(2.66368 -1.99706 0)
(2.9167 -2.04824 0)
(2.83457 -2.0615 0)
(3.07383 -1.98272 0)
(2.99615 -2.01928 0)
(3.22819 -1.89878 -2.70238e-23)
(3.151 -1.94259 0)
(3.38086 -1.78501 -3.99629e-24)
(3.30532 -1.84794 0)
(3.51764 -1.60203 0)
(3.45265 -1.70465 0)
(3.61554 -1.32107 4.79454e-24)
(3.57291 -1.47433 0)
(3.65469 -0.94731 0)
(3.64334 -1.14425 0)
(3.62583 -0.512292 0)
(3.64893 -0.734966 0)
(3.52936 -0.0612886 0)
(3.58571 -0.285483 0)
(3.3745 0.350124 0)
(3.45825 0.152636 0)
(3.17864 0.683178 0)
(3.28037 0.527131 0)
(2.96205 0.938396 4.20724e-23)
(3.07148 0.819959 0)
(2.74632 1.11254 7.066e-24)
(2.85235 1.03742 0)
(2.55022 1.17751 -3.99091e-22)
(2.6445 1.16059 1.68621e-22)
(2.46341 1.16391 9.30821e-22)
(1.99371 1.14048 2.88376e-22)
(2.16835 1.03897 1.21761e-22)
(2.08319 1.09078 -8.80699e-22)
(1.81301 1.23497 0)
(1.90326 1.18929 0)
(1.62992 1.32106 1.08776e-26)
(1.72209 1.27895 0)
(1.4447 1.40713 0)
(1.53774 1.36379 0)
(1.26605 1.50248 -5.33981e-21)
(1.35388 1.45281 4.69452e-21)
(1.18015 1.55913 -8.01623e-23)
(1.14584 2.04425 -5.20658e-22)
(1.02959 1.86164 9.64144e-21)
(1.09224 1.95426 1.17849e-21)
(1.23013 2.20469 5.60497e-21)
(1.19007 2.12891 -5.61498e-21)
(1.29784 2.30743 9.42643e-23)
(1.26259 2.26753 0)
(1.37946 2.29254 1.05741e-22)
(1.33527 2.3184 0)
(1.49168 2.10904 1.05932e-24)
(1.43049 2.22443 0)
(1.65128 1.72988 0)
(1.56648 1.94352 0)
(1.85083 1.17662 0)
(1.7471 1.47194 0)
(2.07399 0.503133 0)
(1.96014 0.850952 0)
(2.30745 -0.222592 0)
(2.19003 0.141878 0)
(2.53747 -0.916451 -1.3069e-22)
(2.42354 -0.579242 0)
(2.75095 -1.48469 -1.09463e-22)
(2.64714 -1.22196 0)
(2.93576 -1.84966 0)
(2.84744 -1.69575 0)
(3.08735 -1.98546 0)
(3.01539 -1.94505 0)
(3.21693 -1.93784 0)
(3.1534 -1.97865 0)
(3.3513 -1.81341 -5.39438e-23)
(3.28178 -1.87812 0)
(3.50626 -1.68565 3.86178e-23)
(3.42674 -1.75026 0)
(3.65666 -1.50443 0)
(3.58508 -1.60814 0)
(3.75229 -1.18297 0)
(3.71414 -1.36396 0)
(3.76912 -0.725535 1.0596e-23)
(3.76946 -0.96553 0)
(3.74105 -0.252578 5.22203e-23)
(3.75799 -0.482198 0)
(3.68099 0.145751 0)
(3.7172 -0.0435032 0)
(3.56171 0.466047 0)
(3.62864 0.316627 0)
(3.40307 0.687448 7.8841e-24)
(3.48501 0.58998 0)
(3.23408 0.814727 0)
(3.31866 0.760914 0)
(3.07096 0.88386 -1.96237e-21)
(3.15108 0.854323 0)
(2.92081 0.934265 -1.21314e-21)
(2.9938 0.910789 2.98834e-21)
(2.76622 1.62259 1.02506e-19)
(2.66034 1.654 1.10291e-19)
(2.85701 1.02611 1.4592e-21)
(2.8508 0.960938 -1.45837e-21)
(3.04562 1.61709 0)
(2.25364 0.987168 2.09445e-21)
(0.963064 1.76046 4.3392e-20)
(2.59318 1.54948 -2.47291e-20)
(3.18477 1.44922 0)
(2.63808 1.57443 -7.32667e-21)
(2.92855 1.64151 0)
(3.14469 1.37253 0)
(2.83109 1.6009 0)
(3.082 1.29257 0)
(3.01246 1.21322 0)
(2.93527 1.14717 9.88699e-22)
(2.86224 1.09217 2.27515e-21)
(2.78803 1.05235 0)
(2.78228 0.987757 9.72965e-22)
(3.12306 1.5396 0)
(2.50117 1.5322 -5.3587e-20)
(2.6236 1.53112 -8.44891e-20)
(2.5879 1.48133 -5.19738e-20)
(2.54424 1.5082 5.5804e-20)
(2.40435 1.54923 -4.58498e-21)
(2.45422 1.54519 2.10325e-20)
(2.289 1.5114 -1.25151e-20)
(2.35049 1.54159 1.00721e-23)
(2.15692 1.32193 -5.49202e-23)
(2.2218 1.44126 0)
(2.06318 0.950145 -6.42818e-23)
(2.10477 1.15763 0)
(2.01024 0.4128 0)
(2.0316 0.699823 0)
(2.01762 -0.24079 0)
(2.00479 0.0957529 0)
(2.10618 -0.908414 0)
(2.05267 -0.581599 0)
(2.25604 -1.45651 0)
(2.17524 -1.20391 0)
(2.44072 -1.80643 0)
(2.34517 -1.65777 0)
(2.63755 -1.95596 0)
(2.53877 -1.90366 0)
(2.82727 -1.96187 0)
(2.73404 -1.97185 0)
(3.00366 -1.90099 0)
(2.91694 -1.93574 0)
(3.17248 -1.81831 3.69253e-24)
(3.0886 -1.86166 0)
(3.33639 -1.70836 -2.55832e-23)
(3.25543 -1.76857 0)
(3.48439 -1.53827 0)
(3.41357 -1.63301 0)
(3.59621 -1.28178 4.74815e-23)
(3.54622 -1.42149 0)
(3.65203 -0.94007 0)
(3.63206 -1.12043 0)
(3.64123 -0.53921 0)
(3.65526 -0.744783 0)
(3.562 -0.120684 0)
(3.61 -0.329165 0)
(3.42173 0.265242 0)
(3.49858 0.0793621 0)
(3.23827 0.581914 0)
(3.33416 0.432847 0)
(3.0318 0.830719 -1.80426e-23)
(3.13672 0.713922 0)
(2.82285 1.01034 -4.39953e-24)
(2.92642 0.930698 0)
(2.6314 1.08844 1.9975e-22)
(2.72401 1.06382 0)
(2.46743 1.05198 0)
(2.54538 1.08358 -1.27446e-21)
(2.33351 0.931799 -2.2165e-21)
(2.3977 0.999183 0)
(2.11475 0.950779 -2.25002e-21)