/*--------------------------------*- C++ -*----------------------------------*\
  =========                 |
  \\      /  F ield         | OpenFOAM: The Open Source CFD Toolbox
   \\    /   O peration     | Website:  https://openfoam.org
    \\  /    A nd           | Version:  10
     \\/     M anipulation  |
\*---------------------------------------------------------------------------*/
FoamFile
{
    format      ascii;
    class       volVectorField;
    location    "96.5";
    object      U;
}
// * * * * * * * * * * * * * * * * * * * * * * * * * * * * * * * * * * * * * //

dimensions      [0 1 -1 0 0 0 0];

internalField   nonuniform List<vector> 
28942
(
(0.00442692 -0.00225525 -3.37166e-22)
(0.00599216 -0.00233811 -6.24875e-23)
(0.0179327 -0.0123842 -8.34942e-22)
(0.103306 0.0182352 -5.27939e-21)
(0.102344 0.0222778 1.72837e-21)
(0.013149 0.000392661 0)
(0.0156165 -1.88197e-05 9.52415e-24)
(0.0181331 0.000505509 -8.37862e-24)
(0.135233 -0.018451 -2.58982e-22)
(0.133891 -0.0168174 7.36755e-22)
(0.00979175 0.00401435 -6.59385e-22)
(0.0160629 0.0056274 2.48944e-22)
(0.00713515 0.00315204 0)
(0.00470597 0.00206958 0)
(0.0413952 0.00189221 -1.34511e-23)
(0.0396904 0.00241055 -5.51927e-24)
(0.089315 0.0158896 6.70387e-22)
(0.087003 0.0138581 1.07877e-21)
(0.0121628 -0.0151102 2.93661e-21)
(0.0293265 -0.0304628 -7.72959e-22)
(0.0981156 0.037402 9.567e-22)
(0.0972946 0.0344376 0)
(0.018734 0.004625 1.15295e-21)
(0.00786129 0.0023626 5.4273e-22)
(0.0377882 0.00720829 9.2924e-22)
(0.0575177 0.00290994 -8.47129e-22)
(0.00764703 -0.0184876 8.53197e-21)
(0.00669315 -0.0165523 -3.14181e-21)
(0.0355039 -0.0253189 5.78789e-22)
(0.0192973 -0.0136799 1.99887e-22)
(0.0135042 -0.00123106 0)
(0.0168803 -0.00105087 -1.22527e-23)
(0.0214735 0.00394211 2.57817e-22)
(0.0310307 0.00180175 -3.8645e-23)
(0.0188244 0.018009 1.32054e-21)
(0.0157192 0.0191192 -1.31416e-21)
(0.0321679 0.0376172 -3.06393e-21)
(0.0186683 0.030536 -1.07121e-21)
(0.00718666 -2.52658e-05 -7.92405e-24)
(0.00864849 0.016197 -2.62254e-21)
(0.0306494 -0.00620316 0)
(0.0513428 -0.0109694 0)
(0.111763 -0.0116614 -2.76123e-23)
(0.111253 -0.0116587 8.14073e-23)
(0.115825 -0.0115541 7.09473e-23)
(0.0256115 0.000145103 1.02308e-23)
(0.0238378 -0.00059499 -1.63954e-23)
(0.0341607 -0.000484629 -7.5672e-23)
(0.0327198 -0.000552887 2.16064e-23)
(0.0265379 -0.00252946 -1.89184e-22)
(0.0196837 -0.00300703 1.23166e-22)
(0.12866 0.00127952 -4.06098e-22)
(0.127974 0.000808865 -3.79175e-22)
(0.134551 -0.0212165 -3.76921e-24)
(0.133005 -0.0194907 1.40559e-22)
(0.0824647 0.00634774 7.04283e-22)
(0.101716 -0.000772253 2.42184e-22)
(0.00305738 0.00162016 -5.56454e-22)
(0.00893961 0.00367815 0)
(0.00825441 0.00328773 2.34103e-22)
(0.00288149 0.00148748 4.80055e-22)
(0.000362021 0.000226119 -3.9936e-22)
(0.000192747 0.000122586 -3.83243e-22)
(0.109752 -0.0426053 0)
(0.104881 -0.0256119 1.2267e-22)
(0.121751 -0.0331182 -4.14785e-23)
(0.123401 -0.0437709 0)
(0.0901034 -0.0328032 -6.4111e-22)
(0.0936071 -0.0352705 -4.21444e-22)
(0.00188394 -0.00112891 1.11455e-21)
(0.00248729 -0.00201641 -3.51231e-22)
(0.00487049 -0.00315432 8.71374e-22)
(0.0848717 -0.0457589 0)
(0.0911982 -0.0396236 2.17672e-21)
(0.0805399 -0.0530238 5.88271e-22)
(0.11411 0.0124127 2.29517e-22)
(0.112706 0.006912 -2.54694e-22)
(0.125077 0.0110192 -1.05577e-22)
(0.0046829 -0.00286156 -5.40571e-23)
(0.00633784 -0.00442542 4.55369e-22)
(0.0510027 -0.0311441 1.28885e-22)
(0.0331505 -0.0205346 -2.58713e-22)
(0.00210999 -0.000595435 3.18029e-21)
(0.00515516 -0.00207147 -1.23947e-21)
(0.100974 0.0482492 1.54329e-23)
(0.0970239 0.0552166 -7.71603e-22)
(0.0807168 0.0540124 7.04764e-22)
(0.047202 0.0345093 -2.70256e-21)
(0.0444302 0.0316051 1.91405e-21)
(0.0294901 0.0205945 -1.14641e-22)
(0.0327106 0.0232473 -6.45434e-22)
(0.0379515 0.0283571 8.75398e-22)
(0.00440687 0.00272953 -5.73192e-23)
(0.00775848 0.00398079 -1.65839e-23)
(0.00318759 0.00202178 3.32324e-23)
(0.0019228 0.00164625 -4.43953e-22)
(0.00144972 0.00157061 5.43999e-22)
(0.0157414 0.0115431 -3.27549e-21)
(0.0174942 0.013635 7.50617e-22)
(0.00880194 -0.00384548 0)
(0.101389 0.00515936 0)
(0.0984003 0.0156831 -3.97009e-21)
(0.0604416 0.0104756 1.95093e-21)
(0.0886814 0.0178811 0)
(0.13544 -0.00106374 0)
(0.134878 -0.00177667 0)
(0.133182 -0.00227177 -2.65694e-22)
(0.114972 0.0266168 -2.13455e-22)
(0.114064 0.0280192 2.10976e-21)
(0.113266 0.0254789 1.13211e-21)
(0.00229318 0.00129895 1.03637e-21)
(0.00151089 0.000777135 -1.16323e-21)
(0.0190402 -0.00553118 -5.41185e-22)
(0.0201186 -0.00505903 4.60998e-22)
(0.00909407 -0.00292486 9.11203e-22)
(0.00647651 0.0111506 1.48213e-21)
(0.0189674 0.0181625 3.46535e-21)
(0.0134647 0.0228013 2.72175e-22)
(0.00492073 0.0143071 -8.64294e-21)
(0.116978 0.0477555 5.62343e-23)
(0.107857 0.0582443 1.07876e-21)
(0.118316 0.0548836 -1.86047e-21)
(0.0390829 -0.029412 7.35525e-22)
(0.0240043 -0.0172615 -4.71196e-22)
(0.0053207 -0.000740178 -4.11207e-21)
(0.00453778 -0.00359015 0)
(0.0124952 -0.00166954 2.00787e-21)
(0.0219597 -0.0161272 7.82122e-22)
(0.0342481 -0.0277787 -1.96625e-21)
(0.0322904 -4.34647e-05 5.2052e-23)
(0.034354 0.000109714 -3.85266e-23)
(0.0303086 0.00012922 -1.61029e-24)
(0.0280497 -0.0419398 0)
(0.0295992 -0.042831 0)
(0.0896238 -0.0186527 -4.65273e-22)
(0.0995917 -0.0220902 3.15991e-21)
(0.0870347 -0.0252785 0)
(0.0471078 -0.0401803 0)
(0.0581668 -0.0513747 -7.87132e-22)
(0.0413095 0.0393372 2.09259e-21)
(-2.35741e-06 0.0002144 5.0264e-22)
(-0.000194214 0.000130879 -3.30399e-22)
(0.0223221 -0.0192366 -7.95093e-22)
(0.120255 -0.0114253 4.00382e-22)
(0.119618 -0.011369 -7.74093e-23)
(0.115406 -0.00572966 -6.41909e-23)
(0.108332 0.000973133 8.55434e-23)
(0.117596 -0.000329494 1.69053e-22)
(8.21774e-05 0.000258949 1.94422e-22)
(0.0437409 0.0344174 3.22082e-21)
(0.0618683 0.0463068 -7.9251e-22)
(0.059302 0.0393626 -3.05338e-24)
(0.0210395 -0.000772624 5.19135e-24)
(0.020727 -0.000748392 2.68188e-23)
(0.0224968 -0.000516584 9.61237e-25)
(0.0251333 -0.000541826 -1.32444e-23)
(0.0454157 0.0380886 1.33755e-22)
(0.0189601 0.0160581 0)
(0.000137945 -2.72276e-05 3.60147e-22)
(0.000420734 -0.000254725 -3.99579e-22)
(0.00185717 -0.0010068 2.78229e-22)
(0.036541 -0.00771545 -1.82483e-21)
(0.0648463 -0.00209625 -7.42674e-22)
(0.0292585 -0.000161478 -2.12954e-24)
(0.0744608 -0.00764428 2.69098e-22)
(0.0706736 -0.0157262 5.40722e-23)
(0.0943022 0.0399241 2.15253e-21)
(0.0914026 0.0454595 9.92838e-23)
(0.0887474 0.0290904 1.22033e-21)
(0.0914727 0.0308074 -8.8436e-22)
(0.098694 0.0410856 0)
(0.126122 -0.000304087 1.50979e-22)
(0.126892 -0.000736365 2.8535e-22)
(0.128093 -0.0123585 -2.98551e-22)
(0.129557 -0.0121645 5.1114e-22)
(0.117053 0.024162 2.61934e-22)
(0.119111 0.0250638 -7.41868e-22)
(0.117099 0.0261742 0)
(0.115133 0.0249108 1.5431e-22)
(0.11667 0.028096 0)
(0.117171 0.0361167 -5.55105e-22)
(0.115708 0.0381678 -3.02898e-22)
(0.111334 0.0419789 -5.4396e-22)
(0.113729 0.0401119 0)
(0.116416 0.0430876 1.80087e-21)
(0.113694 0.0450093 4.73857e-23)
(0.108328 0.044189 -3.05381e-22)
(0.0996255 0.05029 -1.29414e-21)
(0.0984167 0.0455015 -2.27926e-22)
(0.0249354 -0.00846039 5.51621e-23)
(0.0327867 -0.00931601 -2.19941e-23)
(0.00627844 -0.00248434 -6.81047e-22)
(0.0286737 -0.000102273 -3.2737e-23)
(0.0368318 -0.00028078 0)
(-3.17961e-06 -3.97684e-05 4.23924e-22)
(1.30086e-05 -4.71237e-05 2.16071e-22)
(0.0332899 -0.00174049 1.57398e-23)
(0.0394151 -0.00169673 6.5532e-24)
(0.0389903 -0.00117721 0)
(0.0321891 -0.000817329 6.93612e-24)
(0.0852019 0.00326213 -1.09976e-22)
(0.0844293 0.00294816 5.1962e-22)
(0.085282 0.00302549 2.40772e-22)
(0.000670383 0.000271794 3.86443e-22)
(-0.00015944 -0.000129304 -5.60874e-22)
(-0.000201086 -0.000169043 4.77311e-22)
(0.00149952 0.000617066 0)
(7.98104e-05 8.77e-05 1.12808e-21)
(0.000171779 -3.90471e-05 -8.11824e-22)
(0.00744549 0.00367214 -9.82107e-22)
(0.00145098 0.000780956 -1.17552e-21)
(0.00171986 0.000860278 0)
(0.00157196 0.00754429 0)
(0.000576932 0.00328134 0)
(0.000313303 0.00197695 0)
(0.136616 -0.00107393 5.83478e-23)
(0.137631 -0.000907595 0)
(0.135989 -0.00185754 -6.79408e-23)
(0.0881097 -0.0148527 4.44156e-21)
(0.0901165 -0.0152622 -1.61231e-21)
(0.0890319 -0.0128774 0)
(0.0952262 0.000360904 -6.42229e-24)
(0.0957609 0.000356808 1.28539e-23)
(0.0946885 0.000364303 -4.34652e-24)
(0.0962896 0.000354115 0)
(0.0968159 0.000359047 -8.19274e-24)
(0.0973353 0.000358754 0)
(0.0973252 -0.000191757 0)
(0.0978456 0.000347858 3.03946e-23)
(0.09783 -0.000205352 0)
(0.0968121 -0.00018957 -8.25112e-24)
(0.0962858 -0.000192633 0)
(0.095756 -0.000195004 4.29831e-24)
(0.0952187 -0.000201415 -6.42044e-24)
(0.0946825 -0.000207077 4.34109e-24)
(0.0983423 0.000335272 -2.90851e-23)
(0.0983322 -0.000213605 -1.01678e-24)
(0.094141 0.000372706 1.09022e-28)
(0.0941299 -0.000207026 -6.63639e-24)
(0.0935828 0.00037906 3.53026e-23)
(0.0988314 0.000328343 2.7166e-26)
(0.0988372 -0.000214799 -1.0171e-24)
(0.0935744 -0.000214575 1.30816e-23)
(0.0993218 0.000320285 2.73494e-23)
(0.0998087 0.00031414 -2.73269e-23)
(0.0993322 -0.00021701 2.04856e-24)
(0.0998212 -0.000217979 4.04714e-24)
(0.0930398 0.000395454 -3.43476e-23)
(0.0930239 -0.000220518 -8.6112e-24)
(0.100291 0.000306344 0)
(0.100305 -0.000220213 -3.99184e-24)
(0.0924736 0.000402506 4.25058e-27)
(0.0924588 -0.000221616 -4.26124e-27)
(0.100769 0.000300188 0)
(0.100784 -0.000221417 0)
(0.0919006 0.000406306 0)
(0.0918856 -0.000226093 0)
(0.101242 0.000292137 0)
(0.101258 -0.000224059 1.91634e-24)
(0.0913209 0.000410142 -1.7838e-23)
(0.0913052 -0.000229681 -4.35309e-27)
(0.101712 0.000285653 1.00444e-25)
(0.101728 -0.000225653 -2.04665e-24)
(0.090734 0.000412224 1.79232e-23)
(0.0907181 -0.000234767 0)
(0.102177 0.000277189 0)
(0.102193 -0.000228571 0)
(0.0901408 0.00041486 -1.13435e-24)
(0.0901243 -0.000237764 1.94707e-23)
(0.102638 0.000270334 1.24129e-23)
(0.102654 -0.000230107 0)
(0.0895413 0.000415911 -1.0242e-25)
(0.0895237 -0.000240805 -1.84288e-23)
(0.103096 0.000261674 -1.85652e-23)
(0.103113 -0.000232847 -5.38752e-24)
(0.088922 0.000410869 1.8792e-23)
(0.0889075 -0.000244262 0)
(0.10355 0.000255588 6.11398e-24)
(0.103569 -0.00023105 3.5929e-24)
(0.0882986 0.000412236 -9.51493e-24)
(0.0882845 -0.000250277 1.92935e-23)
(0.104 0.000251232 -2.44088e-23)
(0.104025 -0.000223662 2.75111e-23)
(0.0876438 0.000399481 9.80986e-24)
(0.0876389 -0.000261776 3.10504e-25)
(0.104453 0.000248735 0)
(0.104474 -0.000217149 1.31069e-23)
(0.08698 0.00038707 -1.97366e-23)
(0.0869825 -0.000280016 3.94813e-23)
(0.104919 0.000237997 0)
(0.104926 -0.000216335 0)
(0.0879471 0.00105603 -9.70678e-24)
(0.0872771 0.00105277 -3.92959e-23)
(0.0862917 0.000368556 0)
(0.0863113 -0.00030932 -2.01183e-23)
(0.0892343 0.00105388 -6.09267e-24)
(0.0885949 0.00105575 1.19667e-24)
(0.0904492 0.00103758 0)
(0.089841 0.00104517 -1.96747e-23)
(0.091624 0.00101794 -3.79641e-26)
(0.0910407 0.00102823 0)
(0.0927679 0.000995012 0)
(0.0921996 0.00100683 0)
(0.093883 0.000965723 0)
(0.0933295 0.000981831 0)
(0.0949499 0.000934402 8.58105e-24)
(0.0944137 0.000949108 2.16419e-24)
(0.0960105 0.000913198 -8.27408e-24)
(0.0954868 0.000923792 -8.56989e-24)
(0.0970465 0.000895218 1.4683e-23)
(0.096525 0.000898909 1.87575e-23)
(0.0980801 0.000880082 0)
(0.0975661 0.00089038 0)
(0.099073 0.000861418 -6.44265e-26)
(0.0985805 0.000870737 0)
(0.100043 0.000839732 0)
(0.0995603 0.000850815 0)
(0.100994 0.000816471 0)
(0.100521 0.000828149 0)
(0.101928 0.000792578 0)
(0.101463 0.000804513 0)
(0.102845 0.000768401 0)
(0.102388 0.000780437 0)
(0.103747 0.000744209 0)
(0.103298 0.000756256 0)
(0.104638 0.000705138 -9.97104e-24)
(0.104192 0.000730938 0)
(0.105086 0.000683715 -3.21889e-24)
(0.105376 0.000223186 3.14266e-24)
(0.105381 -0.000219832 -3.11651e-24)
(0.1042 -0.000670619 0)
(0.105093 -0.000661661 -1.27902e-23)
(0.104647 -0.000664705 -6.59154e-24)
(0.103295 -0.000682792 1.80575e-24)
(0.103748 -0.000677601 -7.06451e-24)
(0.102382 -0.000689113 5.85028e-26)
(0.10284 -0.000687007 0)
(0.101453 -0.000693108 0)
(0.10192 -0.000690916 0)
(0.100506 -0.000698707 0)
(0.100982 -0.000695597 0)
(0.099539 -0.000706677 0)
(0.100025 -0.00070228 7.7097e-30)
(0.0985515 -0.000718187 6.51046e-26)
(0.0990477 -0.000711834 0)
(0.0975471 -0.000726296 0)
(0.0980492 -0.000723308 0)
(0.096515 -0.000735408 0)
(0.0970322 -0.000729931 0)
(0.0954599 -0.000752086 0)
(0.0959888 -0.000741022 -4.34392e-24)
(0.0943797 -0.000776267 1.14373e-24)
(0.0949222 -0.000766812 -5.60728e-24)
(0.0932862 -0.000804207 0)
(0.09384 -0.000788637 -4.56302e-24)
(0.0921552 -0.000828323 0)
(0.0927245 -0.000816297 0)
(0.0909938 -0.000852747 0)
(0.0915784 -0.000840459 0)
(0.089797 -0.000875929 0)
(0.0904009 -0.000864554 0)
(0.0885586 -0.000899527 -4.98444e-24)
(0.0891842 -0.00088641 0)
(0.0872827 -0.000941353 -2.02e-23)
(0.0879253 -0.0009154 -5.01096e-24)
(0.0866214 -0.000972209 2.05671e-23)
(0.086592 0.00105107 3.89672e-23)
(0.105536 0.000665454 6.30053e-24)
(0.105541 -0.000659382 -1.23049e-23)
(0.0856174 -0.000349287 0)
(0.0859506 -0.00101711 0)
(0.0858926 0.00104912 0)
(0.0855878 0.000342879 0)
(0.0885417 0.00169912 0)
(0.0872222 0.00172935 9.75773e-24)
(0.0878877 0.00171227 9.84877e-24)
(0.0898111 0.00166832 1.25119e-23)
(0.0891836 0.0016846 -2.50118e-24)
(0.0910052 0.00163034 3.86663e-26)
(0.0904144 0.0016491 0)
(0.0921621 0.00159284 0)
(0.0915877 0.00161167 0)
(0.0932878 0.00155503 0)
(0.0927286 0.00157396 0)
(0.0943865 0.00151949 0)
(0.0938401 0.00153627 0)
(0.0954523 0.00148256 0)
(0.094923 0.00150147 0)
(0.0964952 0.00144992 -3.46705e-26)
(0.0959733 0.0014669 8.94611e-24)
(0.0975047 0.00141549 -3.32533e-26)
(0.0970055 0.00143204 -1.74445e-23)
(0.0985101 0.0013799 0)
(0.0980087 0.00139672 0)
(0.0994878 0.00134764 3.21691e-26)
(0.0990021 0.00136358 0)
(0.100443 0.00131553 0)
(0.0999681 0.00133162 0)
(0.10138 0.00128312 0)
(0.100914 0.00129933 0)
(0.102299 0.00125069 0)
(0.101842 0.00126688 0)
(0.103202 0.00121844 0)
(0.102753 0.00123452 0)
(0.104089 0.00118552 0)
(0.103647 0.00120229 0)
(0.104965 0.00114076 6.81065e-24)
(0.104527 0.00116525 0)
(0.105832 0.000212568 0)
(0.105981 0.000647509 6.15807e-24)
(0.105842 0.00109557 0)
(0.105402 0.00111778 6.63339e-24)
(0.105414 -0.0011005 1.31988e-23)
(0.105852 -0.00109455 3.24091e-24)
(0.105989 -0.00066133 2.52967e-23)
(0.105834 -0.000221211 0)
(0.104534 -0.00111617 0)
(0.104974 -0.00110786 -1.99284e-23)
(0.103644 -0.00113221 5.6823e-26)
(0.10409 -0.00112316 7.10747e-24)
(0.102743 -0.00114486 -5.85026e-26)
(0.103195 -0.00113874 0)
(0.101826 -0.00115758 0)
(0.102287 -0.00115101 0)
(0.100892 -0.00117249 0)
(0.101361 -0.00116469 0)
(0.0999383 -0.00119038 0)
(0.100417 -0.00118101 -7.70968e-30)
(0.0989658 -0.00121177 -1.30136e-25)
(0.0994544 -0.00120065 0)
(0.0979752 -0.00123477 0)
(0.0984728 -0.0012232 0)
(0.0969582 -0.00126035 2.19171e-24)
(0.0974703 -0.00124687 0)
(0.0959217 -0.00128824 0)
(0.096441 -0.00127213 -2.18257e-24)
(0.0948601 -0.00132347 4.57246e-24)
(0.0953907 -0.00130555 4.54365e-24)
(0.0937729 -0.00135839 0)
(0.0943209 -0.00134095 0)
(0.0926568 -0.00139677 0)
(0.0932184 -0.00137727 0)
(0.0915107 -0.00143738 0)
(0.0920876 -0.0014168 0)
(0.090331 -0.00148029 0)
(0.0909253 -0.00145845 0)
(0.0891144 -0.00152706 7.97436e-26)
(0.0897277 -0.00150312 0)
(0.0878572 -0.00158056 -8.08802e-26)
(0.088492 -0.00155308 0)
(0.0865633 -0.00166524 -2.11569e-23)
(0.0872141 -0.00161949 2.11472e-23)
(0.0865408 0.00174673 1.98632e-23)
(0.0852731 -0.00107308 0)
(0.085904 -0.00172308 -4.30399e-23)
(0.0849201 -0.000395955 0)
(0.10628 0.00107867 0)
(0.106292 -0.00108919 -3.1423e-24)
(0.0851852 0.00104704 5.03072e-23)
(0.0858515 0.001765 2.01258e-23)
(0.0845782 -0.00113164 1.08804e-23)
(0.0852329 -0.00178825 5.43914e-23)
(0.0848697 0.000313022 0)
(0.106294 0.00152163 2.59193e-23)
(0.106718 0.00149911 -1.27987e-23)
(0.10643 -0.000660534 -6.22353e-24)
(0.106726 -0.00108235 3.09395e-23)
(0.0868556 0.00245618 7.06012e-23)
(0.0851411 0.00178282 -3.96402e-23)
(0.0854646 0.00251428 -1.77306e-22)
(0.0861574 0.00248231 -4.03386e-23)
(0.0881674 0.00238751 1.96406e-23)
(0.0875184 0.00242297 -6.00591e-23)
(0.0894228 0.00232255 -2.00793e-23)
(0.0888027 0.00235466 -1.51532e-23)
(0.0906445 0.00226517 -5.00306e-24)
(0.0900414 0.00229461 -5.00839e-24)
(0.091812 0.00221057 -3.86663e-26)
(0.0912353 0.00223804 0)
(0.092941 0.0021563 0)
(0.0923805 0.00218325 0)
(0.0940392 0.00210373 0)
(0.0934937 0.0021298 0)
(0.0951099 0.00205372 0)
(0.0945779 0.00207825 0)
(0.0961531 0.00200627 0)
(0.0956347 0.00202935 0)
(0.0971704 0.00195928 0)
(0.0966643 0.00198235 0)
(0.0981635 0.00191411 5.96226e-29)
(0.0976706 0.0019376 0)
(0.0991378 0.00186825 0)
(0.0986526 0.00189063 0)
(0.100092 0.00182483 3.20912e-26)
(0.0996175 0.00184634 0)
(0.101026 0.00178258 0)
(0.100561 0.0018036 0)
(0.101942 0.00174105 0)
(0.101486 0.00176174 0)
(0.10284 0.00170014 0)
(0.102393 0.00172053 0)
(0.103722 0.00165979 0)
(0.103283 0.00167992 0)
(0.104589 0.0016187 0)
(0.104157 0.00163958 0)
(0.105443 0.00157043 3.46756e-24)
(0.105018 0.00159528 -1.74537e-24)
(0.105869 0.00154628 -1.32258e-23)
(0.106276 0.00020555 -2.94974e-24)
(0.106714 0.00106119 1.23279e-23)
(0.106422 0.000635464 -9.43166e-24)
(0.106278 -0.000230241 0)
(0.105881 -0.00153049 -9.82218e-24)
(0.106733 -0.0015081 -2.83245e-23)
(0.106308 -0.00151962 2.28183e-23)
(0.105025 -0.00155538 0)
(0.105454 -0.00154205 0)
(0.104153 -0.00157303 -8.18023e-29)
(0.104589 -0.00156262 0)
(0.103271 -0.0015931 0)
(0.103714 -0.00158307 0)
(0.102372 -0.0016143 -6.0003e-26)
(0.102823 -0.00160344 0)
(0.101457 -0.00163819 0)
(0.101917 -0.00162587 0)
(0.100524 -0.0016654 0)
(0.100993 -0.00165136 0)
(0.0995717 -0.00169616 6.50406e-26)
(0.10005 -0.00168035 0)
(0.0986005 -0.00172998 6.66114e-26)
(0.0990886 -0.00171269 0)
(0.0976074 -0.00176765 0)
(0.0981066 -0.00174821 0)
(0.096592 -0.00180903 0)
(0.0971028 -0.00178811 0)
(0.0955527 -0.00185479 0)
(0.0960747 -0.00183097 0)
(0.0944879 -0.0019028 0)
(0.0950238 -0.00187827 0)
(0.0933957 -0.0019554 -7.48416e-26)
(0.0939453 -0.00192861 0)
(0.0922741 -0.00201174 0)
(0.0928387 -0.00198311 0)
(0.0911201 -0.00207214 0)
(0.0917013 -0.00204138 0)
(0.0899309 -0.00213775 -1.11971e-28)
(0.0905301 -0.00210423 0)
(0.0887044 -0.00220993 1.29337e-28)
(0.0893227 -0.00217305 0)
(0.0874432 -0.00229785 8.36023e-26)
(0.0880751 -0.00224954 0)
(0.0861537 -0.00241894 -4.39906e-23)
(0.0868012 -0.00235339 1.08121e-23)
(0.0845493 -0.00185352 1.10692e-23)
(0.0855078 -0.00249163 2.19885e-23)
(0.0844652 0.00103875 -1.96948e-23)
(0.0842043 -0.000446033 -2.10823e-23)
(0.107141 0.00147731 3.13118e-24)
(0.107159 -0.00150225 2.2257e-23)
(0.0843948 0.00178119 2.48677e-24)
(0.0838719 -0.00119681 0)
(0.0845277 0.0024301 2.71782e-22)
(0.0848543 -0.0025668 3.3822e-23)
(0.0838693 -0.0019233 4.51354e-23)
(0.0862179 0.00337702 -4.47495e-22)
(0.0859857 0.003522 8.2054e-23)
(0.0841553 0.000285482 0)
(0.0869515 0.00321357 4.53687e-23)
(0.0864782 0.00331729 2.31762e-23)
(0.0881453 0.00310652 4.09363e-23)
(0.0875117 0.00315005 -6.24354e-23)
(0.0893898 0.0030121 -2.03391e-23)
(0.0887791 0.00306095 -1.0157e-23)
(0.090579 0.00292619 1.01887e-23)
(0.0899891 0.00296777 1.03259e-23)
(0.0917373 0.00284659 0)
(0.0911598 0.00288468 -2.00454e-26)
(0.0928583 0.00277355 0)
(0.092302 0.0028099 0)
(0.0939489 0.00270338 3.77492e-26)
(0.0934072 0.00273801 0)
(0.0950111 0.00263661 0)
(0.0944834 0.00266961 0)
(0.096047 0.00257314 0)
(0.0955322 0.00260445 0)
(0.0970573 0.00251268 0)
(0.0965552 0.00254252 0)
(0.0980436 0.00245414 3.44986e-26)
(0.0975532 0.00248303 0)
(0.0990073 0.00239756 6.32922e-29)
(0.0985283 0.00242603 0)
(0.0999512 0.00234213 0)
(0.0994815 0.00236946 0)
(0.100876 0.00228889 -6.41247e-26)
(0.100416 0.00231531 0)
(0.101782 0.00223725 0)
(0.101331 0.00226289 0)
(0.10267 0.00218695 0)
(0.102228 0.00221196 0)
(0.103542 0.00213779 0)
(0.103108 0.00216225 0)
(0.104398 0.00208954 0)
(0.103972 0.0021136 0)
(0.10524 0.00204097 0)
(0.104821 0.00206548 0)
(0.10607 0.00199124 -1.73165e-24)
(0.105655 0.00201519 0)
(0.106889 0.00193765 0)
(0.106479 0.00196454 -3.354e-24)
(0.1077 0.00188246 -2.84732e-27)
(0.107298 0.00191072 0)
(0.107141 0.0010446 -1.24991e-23)
(0.108113 0.00186116 7.52446e-25)
(0.107565 0.00145954 6.1165e-24)
(0.106711 0.000194728 4.49968e-24)
(0.106855 0.000621867 -3.10568e-24)
(0.106865 -0.000659987 -1.56454e-24)
(0.106715 -0.000234655 1.56062e-24)
(0.107583 -0.00149657 0)
(0.107156 -0.00108219 -1.41789e-23)
(0.107316 -0.00192356 -6.3652e-24)
(0.108141 -0.00190491 -1.21852e-23)
(0.107729 -0.0019139 2.7981e-23)
(0.106495 -0.00195144 -3.34253e-24)
(0.106907 -0.00193715 0)
(0.105662 -0.00197829 0)
(0.106079 -0.0019642 0)
(0.104817 -0.0020036 -1.02151e-28)
(0.105241 -0.00199098 0)
(0.103958 -0.00203079 0)
(0.104389 -0.002017 0)
(0.103084 -0.00206014 6.0003e-26)
(0.103523 -0.00204514 0)
(0.102194 -0.00209267 0)
(0.102641 -0.00207598 0)
(0.101286 -0.00212889 0)
(0.101742 -0.00211032 0)
(0.100361 -0.00216901 0)
(0.100826 -0.00214847 0)
(0.0994164 -0.00221307 -1.13059e-28)
(0.0998912 -0.00219054 0)
(0.0984513 -0.00226159 0)
(0.0989365 -0.00223674 0)
(0.0974648 -0.00231443 0)
(0.0979609 -0.00228756 0)
(0.0964553 -0.00237193 0)
(0.0969628 -0.00234249 0)
(0.0954215 -0.00243339 0)
(0.0959416 -0.00240209 0)
(0.0943613 -0.00249987 7.48416e-26)
(0.0948947 -0.00246603 0)
(0.093273 -0.00257132 0)
(0.0938208 -0.00253498 0)
(0.0921543 -0.00264819 0)
(0.0927176 -0.00260903 0)
(0.0910029 -0.00273156 -7.9624e-26)
(0.0915828 -0.002689 0)
(0.0898172 -0.00282224 8.11566e-26)
(0.0904144 -0.00277602 0)
(0.0885957 -0.00292181 -8.26576e-26)
(0.0892106 -0.00287069 0)
(0.0873492 -0.00303801 1.08672e-23)
(0.087971 -0.00297544 -2.14351e-23)
(0.0861026 -0.00318613 -1.09487e-23)
(0.0867235 -0.00310708 2.22594e-23)
(0.0841874 -0.00263872 3.23368e-25)
(0.085467 -0.00326543 2.24776e-23)
(0.0837259 0.001013 -2.02028e-23)
(0.0834839 -0.000486319 0)
(0.0836287 0.00173128 -1.95458e-22)
(0.0831561 -0.00124664 0)
(0.108399 0.00228231 -3.122e-24)
(0.108784 0.00225181 2.28717e-24)
(0.108001 -0.00149238 -1.19762e-23)
(0.108545 -0.00189147 -1.35493e-23)
(0.0836012 0.00237715 -1.9014e-22)
(0.0831786 -0.00198877 -4.55769e-23)
(0.0851006 0.00351355 0)
(0.0876632 0.00402468 -5.18557e-23)
(0.0835192 -0.00271117 -2.23769e-23)
(0.0848216 -0.0033426 3.402e-23)
(0.0871091 0.00402208 1.04094e-22)
(0.0834271 0.000255734 0)
(0.0885397 0.00384419 0)
(0.0880697 0.00393738 -4.61809e-23)
(0.0896726 0.00371148 0)
(0.0890896 0.00377452 0)
(0.0908348 0.00359832 0)
(0.090257 0.00365213 1.05228e-23)
(0.0919559 0.00349684 0)
(0.0913983 0.00354694 0)
(0.093054 0.00340199 0)
(0.0925078 0.00344792 0)
(0.094125 0.00331393 0)
(0.093593 0.00335755 0)
(0.0951696 0.0032299 -3.77492e-26)
(0.0946505 0.00327138 0)
(0.0961885 0.00315002 0)
(0.0956822 0.00318948 0)
(0.0971831 0.00307403 0)
(0.0966888 0.00311156 0)
(0.0981541 0.00300151 0)
(0.0976714 0.00303737 0)
(0.0991027 0.00293184 -7.59677e-29)
(0.0986311 0.00296632 0)
(0.10003 0.00286477 7.38982e-29)
(0.0995691 0.00289813 0)
(0.100939 0.00279975 0)
(0.100487 0.00283192 0)
(0.101829 0.00273721 6.94516e-29)
(0.101386 0.00276823 0)
(0.102701 0.00267671 0)
(0.102267 0.00270673 0)
(0.103556 0.00261803 0)
(0.103131 0.00264717 0)
(0.104396 0.00256096 0)
(0.103978 0.00258932 0)
(0.105221 0.0025052 0)
(0.104811 0.00253296 0)
(0.106032 0.00244993 0)
(0.105628 0.00247758 0)
(0.106832 0.00239568 0)
(0.106433 0.00242268 0)
(0.107619 0.00233974 3.32243e-24)
(0.107225 0.0023665 3.40493e-24)
(0.108009 0.00231033 -6.37335e-24)
(0.107562 0.00102845 -6.13498e-24)
(0.108523 0.00184023 0)
(0.107977 0.00143758 -6.18788e-24)
(0.107139 0.000185812 0)
(0.107279 0.000610262 6.26114e-24)
(0.107292 -0.000661695 9.34609e-24)
(0.107143 -0.00023926 -3.16038e-24)
(0.10758 -0.00107969 -1.83593e-23)
(0.108035 -0.00232795 3.20071e-24)
(0.108817 -0.00229443 1.18904e-23)
(0.108433 -0.00231582 0)
(0.107244 -0.00235822 -6.64323e-24)
(0.107642 -0.00234354 6.66514e-24)
(0.106441 -0.00238866 0)
(0.106845 -0.00237368 0)
(0.105625 -0.00242078 -1.20743e-28)
(0.106034 -0.00240458 0)
(0.104795 -0.00245506 0)
(0.105212 -0.00243762 0)
(0.103951 -0.00249223 0)
(0.104375 -0.00247325 0)
(0.103092 -0.00253303 0)
(0.103524 -0.00251216 0)
(0.102216 -0.0025779 0)
(0.102656 -0.00255495 0)
(0.101323 -0.00262713 6.471e-26)
(0.101772 -0.00260198 0)
(0.100411 -0.00268094 -6.64984e-26)
(0.100869 -0.00265346 0)
(0.0994803 -0.00273974 0)
(0.0999482 -0.00270971 0)
(0.0985291 -0.00280346 0)
(0.0990074 -0.00277102 0)
(0.0975562 -0.00287238 0)
(0.0980454 -0.00283726 0)
(0.0965603 -0.00294637 0)
(0.0970612 -0.00290872 0)
(0.0955396 -0.00302606 0)
(0.0960531 -0.0029855 0)
(0.0944928 -0.00311169 0)
(0.0950196 -0.00306813 0)
(0.0934179 -0.00320378 -7.77562e-26)
(0.0939589 -0.0031569 0)
(0.0923134 -0.0033032 7.93154e-26)
(0.0928694 -0.00325253 0)
(0.0911782 -0.00341061 -8.08382e-26)
(0.0917496 -0.00335592 0)
(0.0900121 -0.00352636 0)
(0.0905989 -0.00346741 0)
(0.0888152 -0.00365036 0)
(0.0894169 -0.00358723 0)
(0.0876035 -0.00378753 8.62085e-26)
(0.0882123 -0.00371672 1.09392e-23)
(0.0863788 -0.00394752 -5.70241e-23)
(0.086987 -0.00386426 0)
(0.0841897 -0.00342775 -3.37894e-23)
(0.0857705 -0.0040348 -3.20335e-25)
(0.0829825 0.000986428 6.31684e-23)
(0.0827528 -0.000521877 0)
(0.109178 0.00222524 -1.18882e-23)
(0.109213 -0.0022834 -2.29214e-23)
(0.0827736 0.00167029 -3.33584e-23)
(0.0839513 0.00308126 1.12054e-24)
(0.0828281 0.00232689 9.50064e-23)
(0.0824387 -0.00128696 0)
(0.0824701 -0.00203668 1.1405e-23)
(0.0860911 0.00400412 -9.77895e-23)
(0.0851557 0.00391818 8.34124e-23)
(0.0835612 0.0031753 -8.20665e-23)
(0.0828371 -0.00277397 -3.42578e-23)
(0.0835354 -0.00350741 2.28555e-23)
(0.0851727 -0.00413459 2.24343e-23)
(0.0826882 0.000226459 0)
(0.0893003 0.00459299 2.9052e-24)
(0.087868 0.00462015 4.96312e-25)
(0.0886529 0.00459603 2.27131e-23)
(0.0902911 0.00443263 2.24213e-23)
(0.0897982 0.00451905 -2.25376e-23)
(0.0913762 0.00427623 4.15049e-26)
(0.0908172 0.00435033 0)
(0.0924684 0.00415091 0)
(0.0919266 0.00421061 0)
(0.0935326 0.00403688 0)
(0.0930033 0.00409318 0)
(0.0945741 0.00392974 0)
(0.0940562 0.00398222 0)
(0.0955909 0.00382891 3.83631e-26)
(0.0950856 0.00387878 0)
(0.0965839 0.00373261 0)
(0.0960903 0.0037802 0)
(0.0975538 0.0036408 0)
(0.0970717 0.00368617 0)
(0.0985013 0.00355329 0)
(0.0980303 0.00359653 0)
(0.0994272 0.0034697 0)
(0.0989669 0.00351104 0)
(0.100333 0.0033896 -3.44227e-26)
(0.0998823 0.00342923 0)
(0.101218 0.00331266 8.57152e-29)
(0.100778 0.0033508 0)
(0.102086 0.00323851 0)
(0.101654 0.00327522 0)
(0.102936 0.00316718 6.38475e-26)
(0.102513 0.00320254 0)
(0.10377 0.00309833 0)
(0.103355 0.00313247 0)
(0.104588 0.00303173 0)
(0.104181 0.00306478 0)
(0.105391 0.00296716 0)
(0.104991 0.00299922 0)
(0.10618 0.0029043 0)
(0.105787 0.00293556 0)
(0.106955 0.00284266 0)
(0.106569 0.00287337 0)
(0.107719 0.00278226 5.40507e-26)
(0.107339 0.0028123 0)
(0.108471 0.00272336 -3.33695e-24)
(0.108097 0.00275313 0)
(0.109211 0.00266006 3.17469e-24)
(0.108842 0.00269212 0)
(0.109944 0.00259425 3.017e-24)
(0.109577 0.00262709 -3.09267e-24)
(0.108917 0.00181588 5.98676e-24)
(0.110315 0.00256357 0)
(0.109569 0.00219989 8.89539e-24)
(0.107973 0.0010123 0)
(0.108383 0.00141838 0)
(0.107561 0.000177587 0)
(0.107697 0.000597011 0)
(0.107711 -0.000662353 0)
(0.107566 -0.000243586 0)
(0.108411 -0.00148734 1.22057e-23)
(0.107994 -0.00107911 3.03885e-24)
(0.1096 -0.00227165 2.98757e-24)
(0.108947 -0.00188432 2.38868e-23)
(0.109622 -0.00267894 1.55133e-23)
(0.110365 -0.00264645 2.96121e-24)
(0.109992 -0.00266125 -6.03013e-24)
(0.108876 -0.00271481 3.18986e-24)
(0.109248 -0.00269547 -1.91258e-23)
(0.108119 -0.00274882 -1.1592e-28)
(0.108498 -0.00273129 0)
(0.107349 -0.00278359 0)
(0.107735 -0.00276544 0)
(0.106567 -0.00282209 -1.39992e-28)
(0.106959 -0.00280258 0)
(0.105772 -0.00286331 0)
(0.106171 -0.00284233 0)
(0.104963 -0.00290794 0)
(0.105369 -0.00288518 0)
(0.104139 -0.0029566 0)
(0.104553 -0.00293175 0)
(0.1033 -0.00300971 0)
(0.103721 -0.00298259 0)
(0.102444 -0.00306763 -1.29264e-25)
(0.102874 -0.00303807 0)
(0.101571 -0.00313063 0)
(0.10201 -0.00309849 0)
(0.10068 -0.00319908 0)
(0.101128 -0.00316418 0)
(0.0997697 -0.00327303 0)
(0.100227 -0.00323538 0)
(0.0988394 -0.00335273 0)
(0.0993072 -0.00331216 0)
(0.0978878 -0.00343832 -7.27619e-26)
(0.0983664 -0.00339478 0)
(0.0969134 -0.00353026 0)
(0.0974035 -0.00348349 0)
(0.095915 -0.00362891 0)
(0.0964173 -0.00357874 0)
(0.0948914 -0.00373476 7.77562e-26)
(0.0954064 -0.00368091 0)
(0.0938414 -0.00384843 -1.98304e-28)
(0.0943697 -0.0037906 0)
(0.0927645 -0.00397039 1.61473e-25)
(0.0933063 -0.00390839 0)
(0.0916606 -0.00410062 0)
(0.0922159 -0.00403451 0)
(0.0905296 -0.00423872 0)
(0.0910983 -0.00416857 0)
(0.0893734 -0.00438309 -2.35497e-28)
(0.089955 -0.00431117 0)
(0.0881925 -0.00453743 0)
(0.0887849 -0.00445806 0)
(0.0870341 -0.00471955 -3.39255e-23)
(0.0876095 -0.00462479 0)
(0.0845549 -0.00422832 -3.12174e-25)
(0.0864622 -0.00482187 5.76276e-23)
(0.082198 0.000940282 0)
(0.087062 0.00463328 1.31797e-22)
(0.0819866 0.00161605 2.27913e-23)
(0.110821 0.00295067 -3.01132e-24)
(0.111175 0.00292084 0)
(0.109989 -0.00226277 2.9035e-24)
(0.11073 -0.00262921 -5.77003e-24)
(0.0820173 -0.000555374 0)
(0.0817108 -0.0013185 0)
(0.0821874 0.00240004 0)
(0.0817538 -0.0020774 -1.1233e-23)
(0.0821466 -0.00283836 -2.26168e-23)
(0.0828749 -0.00359068 0)
(0.0839238 -0.00432418 5.82703e-23)
(0.0858693 -0.00492541 -4.64813e-23)
(0.0819363 0.000192189 0)
(0.0899442 0.00521037 -1.09378e-26)
(0.0862198 0.00460298 4.13879e-23)
(0.0885198 0.00530361 -1.47553e-22)
(0.0892297 0.00527403 4.32198e-23)
(0.0911951 0.00512608 -1.40475e-23)
(0.0905886 0.00515035 -2.25195e-23)
(0.0922173 0.00498173 0)
(0.0917191 0.00506528 0)
(0.0932538 0.00481287 -4.15011e-26)
(0.0927255 0.0048927 0)
(0.0942873 0.00467426 0)
(0.0937748 0.00474108 0)
(0.0952926 0.00454784 0)
(0.094793 0.00461007 0)
(0.0962746 0.00442898 0)
(0.0957865 0.00448747 0)
(0.0972336 0.00431647 -3.83631e-26)
(0.096757 0.00437208 0)
(0.0981707 0.00420898 0)
(0.0977049 0.00426212 0)
(0.0990867 0.00410631 0)
(0.0986313 0.00415706 0)
(0.0999824 0.00400828 0)
(0.0995371 0.00405674 0)
(0.100858 0.00391458 0)
(0.100423 0.00396092 0)
(0.101716 0.00382484 3.42349e-26)