/*--------------------------------*- C++ -*----------------------------------*\
  =========                 |
  \\      /  F ield         | OpenFOAM: The Open Source CFD Toolbox
   \\    /   O peration     | Website:  https://openfoam.org
    \\  /    A nd           | Version:  10
     \\/     M anipulation  |
\*---------------------------------------------------------------------------*/
FoamFile
{
    format      ascii;
    class       volScalarField;
    location    "16";
    object      p;
}
// * * * * * * * * * * * * * * * * * * * * * * * * * * * * * * * * * * * * * //

dimensions      [0 2 -2 0 0 0 0];

internalField   nonuniform List<scalar> 
6397
(
4.36417
4.06685
-2.52062
-1.79522
-1.86876
-2.67281
6.72381
3.16761
-16.6552
-13.0437
5.80382
2.19976
-0.217123
-0.149706
-0.2103
-12.8723
-10.6853
-10.781
12.2964
12.1451
11.4701
-12.0435
-14.2114
-15.1567
-0.101209
-0.0559845
-0.0148565
-1.86756
-1.78647
-2.95696
-2.81065
0.0461263
-0.387786
-1.11408
1.22874
1.06067
0.799354
0.531105
1.43903
1.49728
1.4301
1.31615
-3.00611
-4.75352
-5.57196
-3.53542
-3.39765
-4.32841
1.47599
1.41806
1.40677
1.27686
1.3589
4.62719
4.14287
2.77993
2.8137
1.2179
-2.98339
-2.45803
-3.54511
-4.01602
-4.3092
-4.34632
-4.07813
-3.57079
-3.00428
-2.49437
-2.72125
-2.05307
-2.10574
-3.47871
-4.2679
-4.93479
-5.2993
-5.28065
-4.8644
-4.16871
-3.39943
-2.71734
-1.6617
-1.80308
-2.14131
-2.2153
-1.36062
-1.69419
-1.9838
-1.91622
-1.18375
-1.70644
-2.00496
-1.79633
-1.08998
-1.04749
-2.20983
-1.82289
-0.680015
-0.395184
-0.495423
-1.38567
-0.969949
-2.74
-1.96889
-4.63801
-3.67008
-5.90387
-5.4509
-5.28144
-5.81928
-3.46271
-4.41014
-2.01849
-2.6382
-1.40908
-1.62843
-1.30889
-1.88442
-2.45112
-2.06184
-2.08058
-1.8911
-2.76234
-2.39372
-3.24331
-3.06815
-2.96321
-3.15852
-2.31171
-2.63434
-1.86589
-2.02453
-1.98291
-1.85171
-2.54805
-2.24687
-0.998132
-1.88675
-0.297935
-1.31757
-2.00027
-2.50742
-3.09337
-3.33029
-1.44634
-0.639465
-0.645801
-4.11284
0.125654
0.248222
-4.24551
-2.61817
-0.214083
-0.00857965
-1.01552
-0.541982
-2.50368
-1.6643
-4.59643
-3.52655
-5.98039
-5.48622
-5.25054
-5.86684
-3.22799
-4.28888
-1.62731
-2.31009
-0.887157
-1.17657
-0.714815
-1.66819
-1.97848
-1.56774
-1.53902
-1.90704
-1.72135
-2.14111
-2.08869
-1.94214
-2.11532
-1.61215
-1.77897
-1.64157
-1.57127
-2.23909
-1.86416
-3.31812
-2.7479
-3.78043
-0.905853
-1.85152
0.362417
-0.19062
-4.49967
-4.01919
-2.34266
-0.012306
0.041116
-0.710127
-1.66805
-4.58777
-5.96373
-6.28139
-2.93126
-4.15515
0.431509
0.770339
0.838313
-5.36789
-5.16959
-3.24603
0.554291
0.656368
0.194296
0.408487
-0.604561
-0.13406
-2.08284
-1.24839
-4.1469
-3.09777
-5.54415
-5.03368
-4.75129
-5.3833
-2.75611
-3.80667
-1.13396
-1.8339
-0.333387
-0.659237
-0.13303
-2.337
-3.26071
-1.34315
-1.73052
-1.03606
-1.12861
-1.10733
-1.05757
-1.18308
-1.16586
-1.07224
-1.14556
-1.02884
-1.01827
-1.41334
-1.15821
-2.39789
-1.82701
-3.91826
-3.11552
-4.66121
-0.835644
-1.77715
-0.117843
0.0658999
-5.13979
-2.80397
-8.03127
-7.41396
-0.790317
-1.90338
0.464043
0.852566
-2.70545
-3.81306
-5.81334
-6.10017
1.06289
1.11347
0.072099
0.0852018
-0.849548
-5.25288
-4.01789
0.890038
0.986237
0.556319
0.755055
-0.17885
0.242401
-1.52039
-0.76485
-3.37777
-2.43823
-4.46793
-4.14633
-3.88327
-4.43177
-2.09926
-3.03534
-0.600429
-1.25412
0.175717
-0.138613
0.503321
0.379466
0.637854
0.587478
0.693248
0.667825
-4.28179
-7.84203
-6.00474
-1.98253
-2.93249
-0.929184
-1.35348
-0.517349
-0.670634
-0.41084
-0.445715
-0.362412
-0.387321
-0.326382
-0.334832
-0.494873
-0.368194
-1.11969
-0.741176
-2.38698
-1.66687
-4.27153
-3.29027
-5.16935
-0.770962
-1.67624
-0.0648013
-9.28958
-9.20352
0.0929663
0.713755
-6.24729
-3.26295
1.12078
-4.83041
-6.02584
-6.32834
-8.43931
-2.05809
-9.41501
-9.47419
-0.830819
0.120718
0.716562
-5.9746
-4.7705
1.2689
1.29834
1.30718
1.14915
1.23417
0.850186
1.03826
0.224866
0.589434
-0.893759
-0.264953
-2.4281
-1.65179
-3.35132
-3.06178
-2.81393
-3.27312
-1.34181
-2.11743
-0.0841581
-0.641427
0.595938
0.31704
0.906236
0.779776
1.04356
0.983752
1.1145
1.08254
1.11329
1.12865
-6.89205
-8.33666
-8.15278
-3.59216
-5.18958
-1.46977
-2.35945
-0.476408
-0.882931
-0.0294377
-0.206686
0.161388
0.082681
0.280378
0.227417
0.284741
0.304781
0.00732563
0.19307
-0.75751
-0.305262
-2.19175
-1.38486
-4.28578
-3.20116
-5.29475
-8.38365
-7.34115
0.670408
1.06096
-5.4743
-6.1514
-4.1854
-4.69983
-2.38399
-3.3325
-0.689264
-1.48683
0.448733
-0.0417163
1.07817
0.809205
1.2659
-7.0087
-3.55679
-8.59004
-2.05929
-8.50867
-0.743604
-5.65649
-6.59422
0.141837
0.974022
0.568346
1.40727
1.36814
-5.27588
1.41481
1.43046
1.33594
1.40049
1.0864
1.2455
0.579887
0.878705
-0.304871
0.190713
-1.45957
-0.880013
-2.12747
-1.91812
-1.7032
-2.04703
-0.595409
-1.18538
0.376284
-0.0593822
0.924526
0.694561
1.18438
1.07925
1.30361
1.25398
1.37193
1.34546
1.3666
1.38468
1.256
1.32259
-6.52491
-4.22123
-5.66928
-5.33573
-6.37862
-2.59829
-3.92123
-0.883334
-1.61231
-0.0162558
-0.377852
0.411195
0.235792
0.616539
0.528506
0.754793
0.691565
0.762066
0.785489
0.453655
0.657182
-0.357675
0.117167
-1.8437
-1.01082
-3.95207
-2.86747
-5.73935
-4.99221
-5.78874
-6.02497
-5.14226
-3.42333
-3.81554
-3.80263
-2.04174
-2.77911
-0.64408
-1.312
0.382978
-0.0714699
0.977875
0.723996
-3.88423
-2.72109
0.839587
1.1742
1.27345
1.16078
-7.10182
-3.58874
-7.78298
-1.90271
-6.81433
-0.643196
-4.69846
0.0823656
-1.45386
-2.38209
0.414929
1.08282
0.658532
-0.549272
-0.497841
0.173838
0.94058
1.37286
1.20986
1.31318
1.14599
1.20923
-5.32996
1.43938
1.42127
1.50003
1.50463
1.44985
1.50339
1.25822
1.38446
0.863654
1.0948
0.217354
0.572953
-0.575599
-0.18077
-1.01545
-0.879438
-0.726296
-0.953818
0.0299633
-0.379635
0.743705
0.417231
1.15875
0.984188
1.3636
1.27854
1.48248
1.42739
1.57855
1.53558
1.61312
1.60777
1.55044
1.59847
1.48313
-2.54198
-1.46869
-4.26872
-3.58384
-3.51596
-4.24514
-1.58735
-2.52733
-0.31047
-0.859932
0.391351
0.0904358
0.77733
0.615055
0.963459
0.885818
1.08659
1.029
1.10306
1.11936
0.816811
1.0087
0.0468429
0.498997
-1.35964
-0.573993
-3.32972
-2.31207
-4.97826
-4.29632
-4.98835
-5.23446
-4.32979
-2.85081
-2.46818
-2.68419
-2.88988
-1.77873
-2.28567
-0.690112
-1.2291
0.225901
-0.194929
0.81995
0.55931
1.0159
-6.49497
-3.32318
-6.36728
-1.65961
-5.00862
-0.595844
-3.10701
-0.0812654
-1.26667
0.201597
0.70214
0.175473
0.429346
1.02508
0.723147
1.15982
1.07077
1.42205
0.86612
1.355
1.26999
0.926797
1.04468
1.33802
1.22025
-4.90251
1.48266
1.43353
1.54308
1.53182
1.51594
1.54324
1.37241
1.45829
1.08389
1.2451
0.647309
0.8807
0.149315
0.39195
-0.110468
-0.0259929
0.0584058
-0.0717027
0.513919
0.263442
1.00443
0.773571
1.3179
1.18627
1.48517
1.41293
1.6157
1.55118
1.72756
1.6846
1.75846
1.75928
1.66073
1.72568
1.50752
1.58358
1.42816
0.323679
0.787273
-0.882102
-0.236263
-2.15677
-1.60169
-1.85577
-2.23385
-0.659369
-1.2506
0.200164
-0.177584
0.717658
0.488941
1.04147
0.899588
1.20628
1.13864
1.30463
1.25828
1.3243
1.33237
1.09071
1.24976
0.422788
0.818419
-0.807579
-0.119711
-2.51354
-1.62887
-3.92235
-3.3229
-3.92342
-4.13756
-3.3278
-1.11055
-0.51083
-1.90694
-1.57937
-2.06373
-2.07298
-1.58759
-1.88698
-0.814595
-1.21564
-0.0452757
-0.414767
0.544415
0.277579
0.756788
-5.41763
-2.8728
-4.84842
-1.46475
-3.50571
-0.658711
-1.9658
-0.347173
-0.493171
-0.0971876
0.647384
0.134626
1.579
1.29364
0.420777
1.15952
0.734387
1.07644
-4.17064
1.35657
1.11571
1.24028
1.49817
1.42369
1.55621
1.52278
1.54299
1.54744
1.43438
1.48953
1.23035
1.33989
0.944202
1.09394
0.669371
0.794809
0.560485
0.611152
0.628564
0.575915
0.866995
0.730219
1.18499
1.03054
1.42275
1.32021
1.56372
1.50175
1.67409
1.62066
1.7485
1.71252
1.74719
1.7547
1.71938
1.7333
1.67185
1.70212
1.57209
1.62544
1.49057
1.52617
1.5369
1.75209
1.68222
1.06482
1.32832
0.418643
0.776059
-0.509341
-0.060808
-0.512652
-0.663898
0.130199
-0.194461
0.638473
0.406009
0.980272
0.824587
1.22632
1.1111
1.37027
1.30985
1.44189
1.40915
1.45683
1.46138
1.27941
1.40087
0.743163
1.06229
-0.262951
0.300209
-1.63459
-0.926259
-2.72579
-2.26585
-2.74387
-2.91308
-1.54096
-2.22153
-0.896671
-0.406025
0.450126
0.0369797
-1.13915
-0.796316
-1.53822
-1.40522
-1.42912
-1.53414
-1.00284
-1.24495
-0.423048
-0.723025
0.179245
-0.11191
0.645945
0.433409
0.901605
0.81219
1.64909
1.76022
1.05569
1.46889
-4.27186
-2.42823
0.204837
-3.60147
-1.40308
1.13976
0.765732
0.98499
-2.45841
-0.885072
-1.21147
-0.71231
0.0370917
-0.547052
0.94659
-0.25398
1.38853
0.0533397
1.71603
1.63818
0.577485
1.05
1.46968
-3.41183
1.3449
1.23728
1.46662
1.40236
1.52604
1.49547
1.51814
1.52562
1.44635
1.48858
1.32372
1.3933
1.15904
1.24677
0.997445
1.07275
0.952998
0.937906
0.997574
0.974571
1.09986
1.03675
1.29954
1.19491
1.48521
1.40076
1.61652
1.55518
1.72664
1.67177
1.81092
1.77966
1.84353
1.83298
1.81468
1.83604
1.73097
1.77613
1.66422
1.68863
1.65083
1.65627
1.69678
1.65826
1.86652
1.78478
1.83882
1.80472
1.85852
1.60883
1.70964
1.2892
1.48555
0.623744
0.966447
0.451522
0.445254
0.740638
0.580475
1.02183
0.889054
1.2161
1.1263
1.36651
1.29108
1.47549
1.42684
1.52523
1.50496
1.52949
1.53746
1.39832
1.48846
0.992254
1.23634
0.222661
0.654384
-0.804029
-0.275366
-1.60075
-1.27204
-1.58136
-1.74033
-0.711636
-1.21451
-0.220905
0.815644
1.04856
0.202696
0.530226
-0.515515
-0.16179
-1.06825
-0.8252
-1.33311
-1.23707
-1.27604
-1.34644
-0.908202
-1.12737
-0.308725
-0.627094
0.30548
0.0123308
0.558854
1.62405
1.69424
1.54233
1.777
-3.36406
-2.15175
1.15378
1.10082
-2.7722
-1.5239
-1.82357
-1.29945
-0.734303
-1.24817
0.37401
-1.17304
1.08028
-0.800135
1.38828
-0.370679
1.54958
0.412406
1.54309
1.46421
1.1797
1.58197
1.43679
1.36774
1.39307
1.71672
1.88756
-2.84688
1.31517
1.2262
1.43112
1.36561
1.49001
1.45526
1.49833
1.49581
1.46575
1.48777
1.39547
1.43775
1.29283
1.34816
1.2021
1.2409
1.18907
1.17954
1.21865
1.20527
1.26319
1.23466
1.38168
1.31557
1.51944
1.45392
1.6344
1.57905
1.72865
1.68446
1.79469
1.75631
1.82412
1.81424
1.82393
1.82419
1.81097
1.82107
1.77472
1.79243
1.74834
1.75696
1.78404
1.75358
1.9257
1.84548
1.81084
1.70793
1.91919
1.87963
1.95114
1.94335
1.94477
1.9518
1.79205
1.90934
1.3328
1.5725
1.09488
1.16998
1.1383
1.09628
1.26723
1.19638
1.39809
1.33451
1.49364
1.44701
1.55994
1.53018
1.58232
1.57645
1.56718
1.57959
1.465
1.53303
1.17135
1.34969
0.616919
0.930304
-0.116696
0.262331
-0.673526
-0.441353
-0.655271
-0.749574
-0.0346631
-0.398726
0.627091
0.32888
0.863627
1.14364
1.29785
0.660226
0.93587
0.00714667
0.339643
-0.720106
-0.351501
-1.3454
-1.05972
-1.65226
-1.55057
-1.50154
-1.63753
-0.899753
-1.24804
-0.0952926
-0.493887
0.618
0.297202
0.988783
0.817777
-2.82031
-2.12127
2.01131
2.01089
1.07076
0.874296
0.918792
1.92702
1.96978
-2.32872
-1.87225
-1.48868
-1.93152
-0.462436
-2.06483
0.531072
-2.00234
1.09358
-1.55884
1.32544
-0.782503
1.40899
0.368744
1.28458
1.35051
1.2047
1.11245
1.26614
1.42352
1.17812
0.707953
1.20831
0.70413
-2.57964
1.18116
1.13033
1.28606
1.22636
1.3902
1.33938
1.45595
1.42596
1.47889
1.47239
1.46354
1.47738
1.41803
1.44587
1.36536
1.3933
1.33079
1.34551
1.33332
1.32707
1.35288
1.34327
1.37724
1.36148
1.44849
1.40692
1.54804
1.49735
1.64628
1.5979
1.73418
1.69185
1.80084
1.7686
1.83449
1.82225
1.83402
1.83685
1.81602
1.82598
1.81397
1.81049
1.82247
1.81939
1.84718
1.82784
1.88214
1.6087
1.48283
1.82149
1.71774
1.95069
1.89641
2.03542
1.99696
2.10547
2.0746
2.03259
2.10388
1.71884
1.88767
1.48094
1.5795
1.4157
1.43173
1.43955
1.41968
1.50197
1.4677
1.56513
1.53393
1.60793
1.58963
1.61767
1.61704
1.58887
1.60786
1.49711
1.55444
1.28602
1.41436
0.899652
1.12009
0.399037
0.654885
0.041419
0.186342
0.0664333
0.000895701
0.461624
0.235222
0.88663
0.681792
1.05518
1.5317
1.52861
1.39735
1.49396
1.03609
1.24911
0.402744
0.758247
-0.519115
-0.0389548
-1.4544
-0.999813
-2.11186
-1.83998
-2.19366
-2.2375
-1.58101
-1.9692
-0.555723
-1.08124
0.392402
-0.0412484
0.630362
1.95638
0.750229
2.05974
1.99209
-2.6205
-2.35202
-2.18526
-2.50332
-1.38833
-2.87034
2.11537
-0.373834
-3.23476
0.540451
-3.08553
1.04517
-2.43763
1.05713
1.17255
1.05706
0.916989
1.16932
-0.973673
0.927495
1.19591
0.639387
0.9687
1.0546
1.74684
0.654007
1.47732
1.55647
2.05756
1.98216
1.49608
-2.616
1.02137
0.792458
0.910121
1.16497
1.10129
1.25953
1.21718
1.3492
1.30992
1.41138
1.38411
1.44257
1.42956
1.4492
1.44815
1.43656
1.44565
1.41368
1.42695
1.40139
1.40513
1.41274
1.40285
1.43263
1.42275
1.45039
1.43923
1.497
1.46913
1.57048
1.53158
1.65237
1.61182
1.72785
1.69156
1.78823
1.76007
1.82404
1.80943
1.84043
1.8336
1.83896
1.84236
1.83121
1.83365
1.84231
1.83398
1.87452
1.85618
1.91877
1.89576
1.9403
1.93777
1.9294
1.87935
1.92272
1.41591
1.29413
1.63669
1.52955
1.82726
1.73606
1.96586
1.9034
2.06905
2.01967
2.15247
2.11569
2.11947
2.16043
1.90389
2.0243
1.68951
1.78475
1.58981
1.62585
1.57258
1.57494
1.58765
1.57867
1.60706
1.59782
1.62257
1.61588
1.62197
1.62421
1.58779
1.60929
1.50507
1.55405
1.34663
1.43925
1.07832
1.22657
0.750998
0.912649
0.531255
0.618791
0.558534
0.51723
0.772419
0.664826
1.03538
0.907927
1.26585
1.15475
1.35681
1.6614
1.62525
1.60471
1.65906
1.31775
1.49864
0.642707
1.03666
-0.399353
0.153039
-1.60348
-0.997353
-2.59233
-2.1569
-2.89009
-2.85053
-2.28494
-2.69411
-1.09222
-1.71546
0.0309965
-0.488149
0.44917
0.335863
0.547025
-2.71307
-2.87114
1.80678
1.84939
1.79686
-2.30325
-3.49238
2.15016
-1.50523
-4.22011
-0.425248
-4.72686
2.14927
0.951319
1.09619
1.03194
0.865673
0.485494
-4.34552
0.783388
0.909028
-2.97209
1.831
1.99722
0.744495
0.919892
-0.635509
0.737433
0.941341
1.24092
0.836382
0.83209
0.717869
0.758349
0.588988
1.42081
1.45518
0.664232
-2.94449
0.991485
0.91276
1.12874
1.06351
1.23275
1.18576
1.31655
1.27907
1.3792
1.35166
1.41648
1.40052
1.43159
1.42585
1.43046
1.43175
1.42821
1.42882
1.43291
1.43099
1.45498
1.44509
1.47416
1.46474
1.49231
1.48187
1.52873
1.5074
1.58687
1.55571
1.65579
1.62132
1.72183
1.68974
1.77542
1.75029
1.81007
1.79531
1.82896
1.82073
1.83865
1.83446
1.84769
1.84322
1.85329
1.85037
1.87619
1.86154
1.90448
1.89223
1.90498
1.90973
1.88585
1.27196
1.17869
1.46855
1.36919
1.65666
1.56465
1.82734
1.74592
1.96218
1.89953
2.0662
2.01624
2.14311
2.11007
2.12448
2.15099
1.97802
2.0602
1.81144
1.91138
1.69696
1.74576
1.64187
1.66281
1.63331
1.63426
1.64003
1.63764
1.64013
1.64222
1.62404
1.63416
1.58351
1.60619
1.50263
1.54577
1.37027
1.44087
1.1737
1.27529
0.957985
1.06052
0.826782
0.87894
0.839016
0.816502
0.963042
0.879886
1.11985
1.03458
1.27297
1.20072
1.36044
1.6204
1.4573
1.52428
1.73031
1.69145
1.73298
1.74717
1.5116
1.66885
0.824587
1.22968
-0.307539
0.309217
-1.74009
-1.0065
-3.02407
-2.4431
-3.51187
-3.40077
-2.89826
-3.33362
-1.58593
-2.27159
-0.405529
-0.943034
0.183142
-0.0288508
0.391666
1.71403
1.73529
-3.08873
-3.75785
2.09197
-2.67093
-4.88753
0.98454
1.14002
1.11413
0.945935
-1.793
-5.9602
2.24379
0.800266
-0.492983
-6.26162
0.666583
0.38363
-5.13072
1.70048
2.09515
0.570961
0.633718
-2.49602
1.87554
0.51781
0.631695
0.295769
0.585531
0.662719
0.706172
1.4184
1.61578
1.67248
-3.60419
0.847928
0.735306
0.783515
0.975818
0.914216
1.09507
1.03694
1.19857
1.15
1.2808
1.24369
1.34283
1.31522
1.38551
1.36643
1.41242
1.39999
1.42666
1.41975
1.43571
1.43084
1.45183
1.44211
1.47171
1.46081
1.49459
1.48334
1.51627
1.50482
1.54776
1.52993
1.59603
1.57003
1.65434
1.62494
1.71262
1.68397
1.76083
1.73794
1.79564
1.77997
1.81769
1.80792
1.83049
1.82459
1.84394
1.83689
1.85703
1.8507
1.87226
1.86391
1.88726
1.88123
1.87849
1.88648
1.83536
1.86237
1.75879
1.79798
1.61064
1.6879
1.72165
1.21758
1.17178
1.35369
1.28039
1.51372
1.43194
1.6722
1.5942
1.82196
1.74783
1.947
1.88831
2.04227
1.99812
2.10692
2.07997
2.09602
2.11376
1.98113
2.04944
1.84222
1.8855
1.74639
1.78973
1.69492
1.71577
1.6704
1.68102
1.65493
1.66305
1.63924
1.64868
1.61339
1.62902
1.56617
1.59388
1.49015
1.53293
1.37504
1.43734
1.22306
1.30243
1.07437
1.14478
0.990944
1.02105
0.993454
0.974136
1.0579
1.00695
1.16359
1.09639
1.26803
1.21544
1.35587
1.32997
1.39898
1.65881
1.56508
1.78945
1.726
1.8579
1.84167
1.64175
1.80244
0.95598
1.35943
-0.24087
0.420285
-1.81225
-1.00049
-3.30562
-2.63037
-3.93084
-3.76114
-3.35151
-3.78411
-2.00468
-2.71319
-0.772847
-1.33798
0.0334092
-0.305559
0.526313
0.303785
0.66398
0.615459
1.92698
-3.76159
-5.05863
0.695803
1.49327
1.08952
0.912546
-3.22701
-6.58813
1.65026
1.55181
2.33362
0.743293
-2.12209
-7.64846
1.51741
0.570307
-0.655528
-7.02263
1.55369
2.22783
0.418024
0.225314
-4.59021
1.69829
0.319568
0.289321
-1.04577
1.95014
0.309341
0.354958
1.4767
0.304907
1.60643
1.678
1.62327
1.08024
1.11614
-4.63355
0.748767
0.682707
0.715409
0.848596
0.794462
0.963458
0.908254
1.06996
1.0183
1.16741
1.12061
1.24904
1.21099
1.31168
1.28303
1.35692
1.33589
1.3885
1.37352
1.41079
1.39949
1.4313
1.42033
1.45449
1.44243
1.47764
1.46621
1.50113
1.48963
1.52591
1.51305
1.55721
1.54036
1.5997
1.57711
1.64964
1.62443
1.69872
1.67504
1.74445
1.72318
1.77843
1.76269
1.8026
1.7915
1.81957
1.81148
1.83483
1.82731
1.84907
1.84192
1.864
1.85666
1.87228
1.86993
1.86124
1.86953
1.83034
1.84831
1.78321
1.80716
1.74133
1.76134
1.71747
1.2395
1.26041
1.23119
1.27035
1.25503
1.32032
1.28867
1.42317
1.36522
1.55123
1.48562
1.68436
1.6171
1.81429
1.75088
1.92397
1.87232
2.00872
1.96935
2.06321
2.04085
2.05257
2.06813
1.96592
2.016
1.86304
1.91526
1.78049
1.81951
1.71903
1.7468
1.6822
1.69822
1.65882
1.6703
1.63556
1.64835
1.60319
1.62147
1.5537
1.5813
1.47963
1.51995
1.37865
1.4326
1.25738
1.31983
1.14608
1.19857
1.0823
1.10762
1.07411
1.0706
1.10997
1.08594
1.17669
1.14492
1.25419
1.21959
1.32094
1.28784
1.3697
1.34314
1.66943
1.58799
1.8148
1.73834
1.90513
1.88021
1.70012
1.8476
1.03773
1.43679
-0.188842
0.488236
-1.77394
-0.960982
-3.40266
-2.7088
-4.06325
-3.87468
-3.51065
-3.92787
-2.19188
-2.8951
-0.876704
-1.49549
0.0374336
-0.349405
0.500369
0.299275
0.630895
0.574563
0.662774
0.897062
-4.64048
-6.58282
1.56932
1.55723
1.5835
1.2394
0.652263
1.50877
2.41056
0.696184
-3.7499
-8.13349
1.43221
0.489991
-2.15511
-8.34321
1.41055
2.42155
0.29345
-0.713525
-6.16908
1.4934
0.130049
-0.0633092
-2.41646
2.09357
1.72376
0.0136907
-0.0232536
0.927123
-0.102772
0.0186742
1.35781
1.03509
0.926911
-5.8741
0.751927
0.716305
0.845797
0.797033
0.950277
0.898817
1.04929
1.00084
1.14001
1.09568
1.21869
1.1809
1.28189
1.2512
1.33051
1.30721
1.36739
1.34981
1.3956
1.38182
1.42075
1.40793
1.44735
1.43403
1.47491
1.46124
1.50195
1.48904
1.5283
1.51507
1.55901
1.54286
1.59797
1.57742
1.64257
1.62004
1.68694
1.66516
1.72773
1.70827
1.76074
1.74513
1.78589
1.77415
1.80518
1.79588
1.82274
1.81403
1.83828
1.83096
1.85087
1.8448
1.85851
1.85614
1.84945
1.85624
1.83012
1.84027
1.80636
1.81893
1.77605
1.79293
1.70929
1.74915
1.49997
1.52456
1.65368
1.66647
1.35882
1.39428
1.35782
1.37929
1.37026
1.40676
1.38888
1.48264
1.43871
1.58241
1.53119
1.69352
1.63687
1.80462
1.75016
1.90001
1.85453
1.97279
1.9395
2.0142
1.99812
2.00523
2.01694
1.94027
1.97866
1.85652
1.89078
1.78319
1.8191
1.72613
1.75227
1.6884
1.70604
1.65853
1.67364
1.62851
1.64417
1.59144
1.61092
1.54049
1.56728
1.47034
1.50746
1.38142
1.42812
1.28298
1.33284
1.19522
1.2357
1.1407
1.16187
1.12329
1.127
1.13815
1.12928
1.18077
1.16216
1.23385
1.21275
1.28177
1.25655
1.30496
1.29106
1.45938
1.34471
1.62597
1.54908
1.81642
1.71653
1.91821
1.89551
1.70226
1.85645
1.0337
1.43435
-0.165304
0.493665
-1.71781
-0.917583
-3.20781
-2.52795
-3.87462
-3.67744
-3.36496
-3.76039
-2.06874
-2.76701
-0.732215
-1.36278
0.150431
-0.207594
0.513879
0.367299
0.614239
0.569127
0.640203
1.49725
2.42678
0.665465
-5.39576
-7.82777
0.652655
1.48169
1.3855
0.427866
-3.8663
-8.67469
0.601179
1.55793
1.67852
1.29422
1.37974
1.2397
2.65711
0.178308
-2.03059
-7.3259
1.29625
-0.0496753
-0.815179
-3.92001
2.34708
1.45288
-0.277391
-0.465898
0.0735254
1.82891
-0.476106
-0.38428
2.54342
1.40726
1.4169
-0.419729
1.43524
0.801381
0.68023
-6.86201
0.750411
0.703703
0.841329
0.794981
0.936221
0.887927
1.02962
0.983093
1.11546
1.07331
1.19119
1.15452
1.25424
1.22382
1.30473
1.28048
1.34518
1.3259
1.37874
1.36253
1.4092
1.39419
1.43852
1.4244
1.46733
1.45315
1.4962
1.48208
1.52527
1.51077
1.55665
1.54055
1.59287
1.57405
1.633
1.61265
1.67349
1.65349
1.71074
1.69273
1.74248
1.72729
1.76807
1.756
1.78854
1.77866
1.80743
1.79799
1.82474
1.81661
1.83709
1.83141
1.84547
1.84222
1.84109
1.84509
1.8312
1.83564
1.82634
1.82878
1.80095
1.81807
1.74947
1.77617
1.72893
1.72866
1.60428
1.50737
1.69083
1.50676
1.5843
1.46073
1.46855
1.46866
1.46453
1.47986
1.47051
1.53321
1.50144
1.61119
1.57063
1.70069
1.65469
1.79488
1.74804
1.87564
1.83783
1.93424
1.90746
1.96773
1.95475
1.96091
1.9702
1.90913
1.93965
1.84068
1.87214
1.77921
1.80933
1.72683
1.75198
1.68589
1.70549
1.65182
1.66879
1.61787
1.63506
1.57842
1.59847
1.52797
1.55385
1.46193
1.49617
1.38358
1.42396
1.30049
1.34199
1.22648
1.26107
1.17625
1.19781
1.15308
1.16251
1.1557
1.15451
1.17953
1.16932
1.21194
1.19641
1.23851
1.22292
1.23487
1.24031
1.17344
1.20567
1.37223
1.189
1.26641
1.57221
1.47391
1.76924
1.67731
1.81559
1.82007
1.59543
1.74582
0.958008
1.33841
-0.152708
0.454852
-1.55194
-0.837203
-2.82075
-2.24124
-3.35419
-3.2091
-2.85376
-3.22701
-1.65855
-2.30049
-0.448827
-1.01715
0.293298
-0.0052494
0.55787
0.449302
0.60896
0.584409
0.618545
0.619129
0.609369
1.3853
0.384845
-5.58975
-8.13263
0.645011
1.75612
1.1366
1.23222
1.26458
1.25337
1.58712
1.46809
2.99743
0.0666604
-3.5232
-7.59177
1.13432
-0.236981
-1.91546
-5.20791
2.71473
1.28898
1.18055
-0.53145
-1.04117
-1.61074
1.46449
-0.809126
-0.97037
1.96439
2.05473
-0.895278
-0.885283
1.61921
0.500391
1.03018
0.770257
1.49631
0.379638
-7.07096
0.740198
0.692219
0.8322
0.787576
0.921153
0.876479
1.00996
0.965832
1.09269
1.05211
1.16627
1.13049
1.22925
1.19872
1.28133
1.25616
1.32438
1.30369
1.36104
1.3433
1.39459
1.37813
1.42693
1.41084
1.45824
1.44293
1.48839
1.47365
1.51832
1.50343
1.54991
1.53384
1.58496
1.56703
1.62202
1.60334
1.65891
1.64072
1.69324
1.67647
1.72364
1.70899
1.74933
1.73704
1.77073
1.76038
1.7908
1.78078
1.80876
1.80032
1.82266
1.81605
1.83324
1.82873
1.83472
1.83516
1.83368
1.83355
1.83782
1.83613
1.82197
1.83418
1.79065
1.80421
1.79488
1.78604
1.80071
1.86085
1.8201
1.72619
1.75453
1.68008
1.76404
1.87354
1.81866
1.60432
1.67265
1.54757
1.56367
1.54115
1.54328
1.54135
1.5388
1.57652
1.55416
1.63607
1.60491
1.70645
1.66964
1.78387
1.74545
1.84994
1.8192
1.89838
1.87622
1.92458
1.91495
1.91685
1.92531
1.87697
1.89995
1.82224
1.84977
1.76764
1.7949
1.71834
1.74229
1.6779
1.69739
1.64232
1.65989
1.60617
1.62411
1.56498
1.58574
1.51557
1.54093
1.45359
1.4857
1.38376
1.41951
1.31175
1.3472
1.24695
1.27732
1.19877
1.22069
1.17109
1.18382
1.16329
1.16711
1.17235
1.16776
1.1878
1.1805
1.19278
1.18985
1.17549
1.18957
1.11781
1.15136
1.07766
1.14967
1.03103
1.09598
1.29364
1.21182
1.49314
1.39229
1.65591
1.58672
1.66378
1.68379
1.41768
1.58071
0.803647
1.15944
-0.167032
0.355735
-1.31703
-0.737459
-2.29441
-1.85538
-2.65153
-2.57404
-2.15818
-2.50575
-1.12409
-1.66859
-0.15443
-0.601137
0.406285
0.187829
0.591853
0.518019
0.605968
0.602171
0.583302
0.595571
0.566008
0.572017
1.22996
1.3228
0.441244
0.872105
1.12222
3.45365
0.140727
-0.00975934
-5.05339
-7.17338
1.03966
-0.410957
-3.06552
-5.71549
1.85844
1.91215
3.28001
1.35544
1.6985
1.58928
1.82832
1.92194
0.968488
0.972462
0.917325
0.561784
0.539394
0.529024
0.947986
-0.761385
-1.9742
-3.33321
1.04642
1.06363
1.07529
-1.09163
-1.46577
0.00855678
2.45351
1.56277
0.00259584
0.550031
-1.38604
-1.5911
3.19574
-1.56875
0.00108188
-6.33216
0.638142
0.597576
0.728191
0.682306
0.819516
0.774687
0.906397
0.863226
0.991434
0.949208
1.07141
1.0321
1.14334
1.10837
1.20608
1.17571
1.25949
1.23363
1.30487
1.28293
1.34427
1.32512
1.3802
1.36258
1.41409
1.39774
1.44686
1.4307
1.47871
1.46304
1.50985
1.49445
1.54118
1.52545
1.5745
1.55759
1.60934
1.59181
1.64372
1.62664
1.67578
1.66005
1.70476
1.69071
1.73019
1.71787
1.75244
1.74158
1.77365
1.76309
1.79216
1.78346
1.80806
1.80015
1.82168
1.81561
1.82897
1.82589
1.83698
1.83227
1.84698
1.8429
1.84048
1.84587
1.83306
1.83537
1.84954
1.83639
1.91117
1.8743
1.78855
1.79888
1.62455
1.7095
1.91305
1.85897
1.99176
1.95506
1.68616
1.74789
1.62314
1.64536
1.60161
1.61054
1.59222
1.59447
1.61328
1.59868
1.6568
1.6335
1.71094
1.68246
1.7727
1.74153
1.82655
1.80116
1.86468
1.84777
1.88353
1.87679
1.87677
1.88365
1.8454
1.86333
1.79855
1.82235
1.75053
1.77456
1.70601
1.72782
1.66694
1.68598
1.63064
1.64852
1.59323
1.61183
1.55134
1.57252
1.50355
1.52791
1.44534
1.47514
1.38228
1.4144
1.31803
1.34966
1.25909
1.2872
1.21226
1.2342
1.18119
1.19581
1.16508
1.17246
1.16012
1.16203
1.15809
1.15731
1.15091
1.15575
1.12492
1.14117
1.06549
1.1002
1.02109
1.09885
1.03356
1.23945
1.16626
1.3985
1.31955
1.48383
1.46016
1.39076
1.46093
1.09615
1.2705
0.547495
0.856118
-0.235504
0.177554
-1.07385
-0.662058
-1.69668
-1.43243
-1.81729
-1.83212
-1.35439
-1.65009
-0.553464
-0.96839
0.144558
-0.168808
0.516576
0.379209
0.621539
0.582127
0.605205
0.618552
0.558573
0.578337
0.546682
1.02624
1.49373
-0.35413
-0.512841
-4.22136
-5.66155
1.95757
3.84696
1.46395
2.02326
0.923395
0.872414
0.551828
0.513839
0.796606
-0.963117
-2.92625
-4.18241
1.09864
0.729787
-1.35797
-2.2572
-2.16073
0.776519
0.803582
3.05016
0.99363
-0.578103
0.0990601
-1.85065
-2.04069
1.08775
1.79851
-2.4223
-2.43968
1.33079
1.11875
-0.499817
-5.17533
0.630957
0.590911
0.716799
0.673092
0.805314
0.761032
0.891046
0.848509
0.973725
0.932816
1.05155
1.01332
1.12232
1.08791
1.18485
1.1546
1.23918
1.21285
1.28624
1.26343
1.32776
1.3075
1.36555
1.34704
1.40108
1.3833
1.4351
1.41838
1.46768
1.45161
1.49948
1.48372
1.53103
1.51529
1.56305
1.54699
1.59565
1.57931
1.62755
1.61176
1.65784
1.64289
1.68578
1.67217
1.71067
1.69856
1.73358
1.72221
1.75595
1.74487
1.77561
1.76622
1.79401
1.7847
1.81099
1.8031
1.82375
1.81755
1.8391
1.8308
1.85439
1.84773
1.8593
1.85762
1.86876
1.86264
1.89496
1.8787
1.95477
1.92053
2.01153
2.04758
1.99831
1.92334
1.97063
1.78439
1.86172
4.2604
1.59485
1.6965
1.99933
1.90653
1.95269
2.06498
2.03414
2.1087
2.08944
2.05495
2.14963
2.12936
1.88463
1.96578
1.75601
1.81398
1.68646
1.71422
1.65222
1.66728
1.63496
1.64099
1.6439
1.63604
1.67368
1.65713
1.71359
1.69253
1.76094
1.73674
1.80385
1.78385
1.83262
1.82003
1.84646
1.84161
1.83945
1.84587
1.81075
1.82739
1.77341
1.79322
1.73172
1.75281
1.69109
1.71116
1.65355
1.67192
1.61743
1.63531
1.57958
1.59854
1.53776
1.55918
1.48808
1.51437
1.43697
1.46403
1.37924
1.40841
1.32041
1.34943
1.26562
1.2922
1.21995
1.24184
1.18563
1.20194
1.16207
1.17297
1.14625
1.15356
1.1326
1.13908
1.11285
1.12455
1.07979
1.09914
1.01541
1.05191
0.970827
0.901357
0.812552
0.856233
1.0334
0.96092
1.17517
1.10817
1.26063
1.22721
1.22416
1.26414
1.03644
1.14784
0.688343
0.882718
0.195217
0.457729
-0.368239
-0.0856036
-0.861177
-0.632304
-1.13228
-1.03526
-1.03551
-1.13489
-0.571509
-0.838762
0.0208037
-0.272842
0.460881
0.272969
0.647416
0.588254
0.660425
0.661999
0.610563
0.638765
0.549252
0.57521
0.516793
0.531509
0.477375
0.497634
0.75247
1.84563
-1.03879
-1.13457
-3.73029
-4.49123
1.17806
0.481999
-1.70064
-3.22306
-3.3435
0.846584
2.06954
2.10049
2.08569
2.17131
3.52511
0.742274
0.769892
0.703346
0.458887
0.443704
0.421269
0.468577
0.857249
-2.30569
-2.82919
-1.49954
0.407525
0.449027
0.939893
2.14435
-3.18638
-2.85634
1.76255
-1.41071
-0.510321
-3.54332
1.47545
1.73861
1.6523
1.76389
1.66534
-1.20776
-4.32933
1.3095
0.538565
0.498325
0.620715
0.579533
0.704592
0.662201
0.79086
0.747801
0.87557
0.833469
0.95679
0.916698
1.03304
0.995562
1.1029
1.06883
1.16538
1.13509
1.22047
1.19377
1.26888
1.24539
1.312
1.29096
1.35129
1.33203
1.38812
1.36985
1.42312
1.40591
1.45635
1.43994
1.4883
1.47251
1.51945
1.50395
1.5505
1.53498
1.58145
1.56604
1.61113
1.59649
1.63952
1.62545
1.66646
1.65322
1.69099
1.67902
1.71428
1.7026
1.73761
1.72605
1.75889
1.74849
1.78016
1.76936
1.80082
1.79085
1.8193
1.81006
1.84037
1.8294
1.8607
1.8512
1.87704
1.86884
1.89857
1.88672
1.93467
1.91402
1.99479
1.96104
2.07996
2.03466
1.99359
2.03406
1.88194
1.94209
1.81459
2.1736
2.1553
2.16664
2.18822
2.17944
2.21158
2.19851
2.22405
2.21375
2.24552
2.23445
1.93425
2.00563
1.81613
1.87068
1.73979
1.77287
1.69528
1.71486
1.67081
1.68055
1.66938
1.66716
1.6871
1.67658
1.71479
1.69996
1.7493
1.73153
1.78156
1.76645
1.80326
1.79386
1.81224
1.80949
1.80467
1.81066
1.78075
1.79433
1.74823
1.76532
1.7115
1.73021
1.67436
1.69281
1.63875
1.65629
1.60334
1.621
1.5659
1.58483
1.52486
1.54597
1.47812
1.50236
1.42861
1.45408
1.37495
1.40194
1.32029
1.34738
1.26844
1.2939
1.22296
1.24505
1.18564
1.20347
1.15606
1.17003
1.13178
1.14351
1.10844
1.12034
1.0794
1.09526
1.03642
1.06052
0.970266
1.0077
0.880879
0.927125
0.829572
0.835016
0.790005
0.943998
0.883757
1.06071
1.00954
1.07165
1.08502
0.908165
1.01528
0.567048
0.758829
0.107913
0.338763
-0.286022
-0.0990957
-0.580954
-0.450377
-0.70053
-0.665833
-0.607054
-0.681965
-0.300485
-0.476602
0.128818
-0.0937885
0.531579
0.343374
0.758989
0.673711
0.792104
0.797194
0.718273
0.762882
0.630069
0.672806
0.553942
0.588542
0.496514
0.52415
0.468602
0.38583
2.15691
-2.04043
-2.02935
-3.87902
-3.98932
0.943824
1.55617
1.32703
2.12869
2.25731
5.16992
0.731656
0.669962
0.440786
0.400738
0.0641022
1.54764
-2.754
-4.01389
-3.09483
0.505988
0.144673
2.35652
-3.69967
-3.98342
-1.4466
0.429845
0.869262
-4.5504
-4.36436
1.45244
-0.0702561
2.50778
2.58722
-0.136451
1.78681
1.74493
-2.18729
-4.14444
1.10889
0.524311
0.48285
0.607256
0.565655
0.691678
0.649374
0.776673
0.734115
0.86035
0.818774
0.940607
0.900997
1.01581
0.978847
1.08495
1.05115
1.14741
1.11704
1.20316
1.17608
1.25274
1.22865
1.29719
1.27551
1.33772
1.31785
1.37549
1.35686
1.4111
1.39357
1.44472
1.42813
1.47677
1.46094
1.50736
1.49221
1.53718
1.52231
1.56644
1.55192
1.59439
1.58057
1.62118
1.60791
1.64674
1.63411
1.67096
1.659
1.69481
1.68279
1.71892
1.70694
1.74207
1.73051
1.76621
1.75395
1.79052
1.77845
1.81504
1.8026
1.84137
1.82804
1.86681
1.8544
1.89263
1.87923
1.92465
1.90761
1.9689
1.94491
2.02915
1.99661
2.10928
2.06703
2.17948
2.20241
2.15495
2.13032
2.15577
2.06847
2.10178
1.98846
2.03216
1.89228
1.94105
1.83839
2.41706
2.45423
2.36545
2.38716
2.34361
2.35202
2.33457
2.33639
2.33789
2.33526