/*--------------------------------*- C++ -*----------------------------------*\
  =========                 |
  \\      /  F ield         | OpenFOAM: The Open Source CFD Toolbox
   \\    /   O peration     | Website:  https://openfoam.org
    \\  /    A nd           | Version:  10
     \\/     M anipulation  |
\*---------------------------------------------------------------------------*/
FoamFile
{
    format      ascii;
    class       volScalarField;
    location    "35.5";
    object      p;
}
// * * * * * * * * * * * * * * * * * * * * * * * * * * * * * * * * * * * * * //

dimensions      [0 2 -2 0 0 0 0];

internalField   nonuniform List<scalar> 
14667
(
0.319918
0.329602
-0.00342712
-0.00251621
-4.58216e-05
0.208721
0.195809
-0.00416205
0.00417626
0.00369708
0.211677
0.22516
0.3069
0.23922
-0.00570988
0.192018
0.199175
0.0226248
0.013954
0.201352
0.273834
0.354092
0.290124
0.281714
-0.353224
-0.375147
-0.420284
-0.373062
-0.369774
0.543701
0.508137
0.506581
-0.611435
-0.644893
-0.686759
-0.61219
-0.631902
0.00802571
-0.00191476
0.00818388
0.0170894
0.0261754
0.713415
0.721792
0.810878
0.798214
0.713602
-0.434695
-0.375074
-0.49047
-0.559238
0.628006
0.576841
0.537879
-0.0492276
-0.0791322
-0.488045
-0.430133
-0.733995
-0.70316
-0.363518
-0.386804
0.326639
0.378447
0.474374
0.419455
0.300735
0.227974
0.0985446
0.476376
0.463309
0.4531
0.877908
0.842399
-0.402531
-0.289778
-0.283357
-0.326855
0.478048
0.493568
0.0113376
0.00704129
0.00757738
0.00148203
0.00151076
-0.330887
-0.435565
-0.681279
-0.608232
-0.291357
-0.266273
0.0423501
0.0159342
-0.099314
-0.0973308
-0.0932493
-0.0974772
-0.0949898
-0.119427
-0.0749375
-0.101884
-0.198888
-0.130568
0.395916
0.435855
0.421097
0.38964
0.369492
0.362541
-0.00700737
-0.00990549
-0.00533257
-0.00461456
-0.000734365
-0.0036507
0.0503115
0.0412267
0.0448387
-0.00465825
-0.00795806
-0.00372768
-0.105098
-0.102183
-0.10937
-0.118193
-0.124674
-0.113205
-0.130048
-0.143636
-0.155716
-0.138909
-0.158075
-0.172756
-0.194226
-0.17452
-0.186197
-0.197301
-0.228625
-0.21297
-0.202858
-0.204483
-0.241682
-0.240377
-0.202445
-0.193808
-0.215834
-0.232346
-0.181966
-0.16739
-0.176434
-0.19644
-0.15146
-0.13488
-0.139042
-0.157117
-0.117828
-0.10684
-0.111187
-0.12301
-0.099157
-0.0942356
-0.0968937
-0.102937
-0.0914412
-0.0911834
-0.0917861
-0.0931029
-0.0931683
-0.0935946
-0.0957723
-0.0949679
-0.0990586
-0.0946956
-0.0925516
-0.0946769
-0.0935487
-0.0925193
-0.0916037
-0.0873609
-0.0881345
-0.093434
-0.0891922
-0.111538
-0.100058
-0.143458
-0.125648
-0.180205
-0.162382
-0.206073
-0.195026
-0.205331
-0.220909
-0.177435
-0.191127
-0.147743
-0.162754
-0.120977
-0.133622
-0.102377
-0.11037
-0.0970146
-0.0937453
-0.0950575
-0.105823
-0.0991332
-0.127752
-0.115007
-0.161446
-0.143366
-0.202839
-0.181744
-0.238496
-0.222629
-0.250267
-0.247051
-0.229641
-0.243526
-0.187434
-0.21024
-0.142657
-0.164037
-0.112487
-0.125258
-0.096281
-0.103083
-0.0896354
-0.091891
-0.0900591
-0.0958833
-0.0926224
-0.0982053
-0.104882
-0.0905261
-0.0944893
-0.0969413
-0.0991133
-0.0870709
-0.0813177
-0.0828783
-0.0857922
-0.0823973
-0.10089
-0.0921999
-0.12447
-0.111612
-0.151015
-0.138214
-0.164429
-0.160724
-0.164584
-0.154643
-0.152687
-0.161772
-0.128893
-0.141132
-0.107297
-0.117323
-0.0936032
-0.099327
-0.0883333
-0.0902093
-0.0884796
-0.0973861
-0.0877354
-0.0918921
-0.0887553
-0.104828
-0.0972194
-0.129521
-0.115546
-0.166863
-0.14671
-0.212424
-0.189297
-0.250725
-0.233846
-0.2616
-0.260653
-0.237523
-0.253505
-0.192746
-0.216386
-0.146029
-0.168642
-0.112143
-0.126896
-0.0931955
-0.101133
-0.084882
-0.0878916
-0.0862742
-0.0843685
-0.107413
-0.0970174
-0.0905775
-0.0944956
-0.108028
-0.115421
-0.102298
-0.11884
-0.106084
-0.100626
-0.0813576
-0.0855041
-0.0901417
-0.0813796
-0.0888358
-0.105544
-0.108466
-0.0993262
-0.0804348
-0.0881046
-0.073709
-0.0757493
-0.0762557
-0.0739156
-0.0871136
-0.0807371
-0.106835
-0.0959038
-0.12959
-0.118671
-0.141973
-0.137809
-0.141583
-0.142149
-0.129857
-0.137319
-0.111176
-0.120696
-0.094678
-0.102268
-0.0846675
-0.088758
-0.0816734
-0.0823982
-0.082719
-0.0993245
-0.101868
-0.0948485
-0.0869632
-0.0831715
-0.101211
-0.0928453
-0.127229
-0.112598
-0.166515
-0.145271
-0.214652
-0.190209
-0.255078
-0.237277
-0.266481
-0.26531
-0.241671
-0.258287
-0.193639
-0.219087
-0.144837
-0.168179
-0.109103
-0.125004
-0.0878628
-0.0968554
-0.0777459
-0.0816005
-0.07678
-0.0761524
-0.0842491
-0.0793784
-0.100465
-0.0913042
-0.120825
-0.120984
-0.114935
-0.0919251
-0.0832132
-0.12968
-0.117834
-0.133512
-0.130961
-0.0968375
-0.110492
-0.122971
-0.135546
-0.12514
-0.0903144
-0.105486
-0.0716707
-0.0792506
-0.0643002
-0.0667721
-0.0650077
-0.0637324
-0.0730316
-0.0680414
-0.0885398
-0.0800102
-0.106481
-0.0977661
-0.117246
-0.11334
-0.117189
-0.117854
-0.108074
-0.113776
-0.0939169
-0.101123
-0.0815533
-0.0872114
-0.0743634
-0.0772237
-0.0733361
-0.0730758
-0.0787176
-0.0751893
-0.0911592
-0.0839378
-0.105834
-0.109894
-0.108989
-0.104893
-0.108523
-0.0992645
-0.073645
-0.0735367
-0.0728374
-0.0801958
-0.0759614
-0.0954455
-0.0865784
-0.12229
-0.107247
-0.162611
-0.140813
-0.211838
-0.186878
-0.252792
-0.234832
-0.263628
-0.262919
-0.238019
-0.254827
-0.189791
-0.215438
-0.139764
-0.163769
-0.102815
-0.119341
-0.0801249
-0.0898834
-0.0681542
-0.0730083
-0.0649398
-0.0655062
-0.0695939
-0.066132
-0.0817207
-0.0748667
-0.0888292
-0.100467
-0.137867
-0.141353
-0.147481
-0.149842
-0.160895
-0.150207
-0.063413
-0.0647294
-0.075911
-0.143858
-0.126861
-0.0836154
-0.0932126
-0.0996338
-0.142023
-0.179123
-0.161783
-0.111694
-0.134595
-0.0793602
-0.0933913
-0.0615037
-0.0688827
-0.0538206
-0.056623
-0.0531592
-0.0527169
-0.0587525
-0.0551449
-0.0705705
-0.0639768
-0.0848436
-0.0778589
-0.0939514
-0.0904669
-0.094311
-0.0950941
-0.0871039
-0.0914894
-0.0764845
-0.0818606
-0.0674958
-0.0715551
-0.0628977
-0.0645623
-0.0637326
-0.0626174
-0.0704297
-0.066303
-0.0761436
-0.117341
-0.104957
-0.112249
-0.119915
-0.119923
-0.112567
-0.117457
-0.0968168
-0.105591
-0.0867467
-0.0645198
-0.063306
-0.0718881
-0.0673234
-0.0874892
-0.0785052
-0.114215
-0.0992767
-0.15422
-0.132586
-0.203108
-0.178323
-0.243538
-0.22588
-0.253636
-0.25328
-0.227553
-0.244532
-0.179954
-0.205094
-0.131054
-0.154604
-0.0939172
-0.110683
-0.0702162
-0.0805759
-0.0566616
-0.0623524
-0.0511617
-0.0529837
-0.0530422
-0.0511364
-0.0613951
-0.0566336
-0.0706595
-0.0664881
-0.0737479
-0.158574
-0.166338
-0.0796585
-0.0672584
-0.167743
-0.190527
-0.167289
-0.192904
-0.211318
-0.154555
-0.131205
-0.0959879
-0.100552
-0.072705
-0.118722
-0.109138
-0.165218
-0.22493
-0.199353
-0.14081
-0.169219
-0.0959574
-0.116209
-0.0670815
-0.079655
-0.0506317
-0.057545
-0.0429208
-0.0458836
-0.0412751
-0.0414425
-0.0447646
-0.0423605
-0.0534627
-0.0485215
-0.0645836
-0.0590753
-0.0721401
-0.0691528
-0.072659
-0.0732737
-0.0671891
-0.0704887
-0.059431
-0.0633178
-0.0533082
-0.0559832
-0.0510457
-0.0516226
-0.0534559
-0.0516523
-0.0610425
-0.056533
-0.0746749
-0.0670491
-0.0842989
-0.131184
-0.126231
-0.132406
-0.133327
-0.122324
-0.128678
-0.103437
-0.113801
-0.0918229
-0.0549524
-0.052726
-0.0533968
-0.0547428
-0.053121
-0.0625308
-0.0578255
-0.0779278
-0.0691233
-0.103781
-0.089362
-0.142281
-0.12147
-0.189253
-0.165454
-0.227777
-0.211039
-0.236684
-0.236771
-0.211045
-0.227585
-0.165141
-0.189333
-0.118484
-0.140908
-0.0826119
-0.0989556
-0.0586497
-0.0693067
-0.0438069
-0.0502431
-0.0362468
-0.0391791
-0.0356381
-0.0351045
-0.0409032
-0.0376745
-0.0477531
-0.0446681
-0.0498431
-0.0498093
-0.0670086
-0.0409413
-0.0468013
-0.182318
-0.194744
-0.188727
-0.222548
-0.181828
-0.243586
-0.161393
-0.227535
-0.253911
-0.130682
-0.0948749
-0.0342531
-0.0587362
-0.0850486
-0.030319
-0.0430729
-0.134044
-0.123709
-0.0445495
-0.0572879
-0.0158954
-0.0976254
-0.191666
-0.249294
-0.217189
-0.169427
-0.196358
-0.117685
-0.142407
-0.079216
-0.0965536
-0.0540978
-0.0651364
-0.0394357
-0.0456809
-0.0320014
-0.0349695
-0.0296727
-0.0302919
-0.0315108
-0.0300663
-0.0375957
-0.0340495
-0.0460446
-0.0417921
-0.0521457
-0.0496783
-0.0527943
-0.053176
-0.0488291
-0.0512183
-0.0434132
-0.0460812
-0.0396579
-0.0411859
-0.0392904
-0.0389989
-0.0429042
-0.0405914
-0.0509597
-0.0463391
-0.0647482
-0.057057
-0.0742759
-0.146956
-0.141964
-0.146801
-0.148612
-0.133702
-0.141715
-0.111334
-0.123378
-0.0844169
-0.0981694
-0.0706508
-0.0418824
-0.0421392
-0.0445681
-0.042659
-0.0524109
-0.0477757
-0.067092
-0.058751
-0.0913115
-0.0778318
-0.127222
-0.107814
-0.171025
-0.148837
-0.206663
-0.19127
-0.214091
-0.214658
-0.189441
-0.205163
-0.146517
-0.169089
-0.102955
-0.123908
-0.0691547
-0.0846344
-0.0457602
-0.0563266
-0.0301665
-0.0371141
-0.0210728
-0.0248289
-0.0183128
-0.0189245
-0.021109
-0.019213
-0.025584
-0.0236041
-0.0260487
-0.0265718
-0.0186176
-0.0233431
-0.0144522
-0.206714
-0.224796
-0.05998
-0.0463735
-0.00103688
-0.207549
-0.253366
-0.191767
-0.271306
-0.162345
-0.273813
-0.124599
-0.227577
-0.258327
-0.085297
-0.0495694
-0.0232923
-0.111129
-0.219311
-0.222949
-0.192064
-0.18101
-0.192962
-0.137568
-0.160968
-0.0941204
-0.114348
-0.0621853
-0.076639
-0.0410971
-0.0504335
-0.0282871
-0.0338212
-0.021363
-0.0242068
-0.0186494
-0.0195606
-0.0192354
-0.0185377
-0.0231811
-0.0207898
-0.0293781
-0.0261879
-0.0342177
-0.0322117
-0.0349688
-0.035139
-0.0322526
-0.0338998
-0.0286916
-0.0303996
-0.0267712
-0.027416
-0.0278189
-0.026886
-0.0322812
-0.0296096
-0.0406025
-0.0358962
-0.0539186
-0.0465227
-0.0729078
-0.0625918
-0.0970948
-0.0846185
-0.125034
-0.150218
-0.138831
-0.163699
-0.158604
-0.162147
-0.164929
-0.145894
-0.155621
-0.11975
-0.133688
-0.0894794
-0.104786
-0.0744003
-0.0337221
-0.0316379
-0.0325698
-0.0312004
-0.0310646
-0.0343672
-0.0322955
-0.0419473
-0.0375384
-0.0555179
-0.0478493
-0.0775392
-0.0653105
-0.110006
-0.0924674
-0.149589
-0.129539
-0.181583
-0.167836
-0.187453
-0.188465
-0.16423
-0.178857
-0.125104
-0.145596
-0.0855289
-0.104612
-0.0543002
-0.0686905
-0.0319982
-0.0421908
-0.0162462
-0.0234126
-0.00609084
-0.0104617
-0.00168917
-0.00318336
-0.00229466
-0.00151566
-0.00456981
-0.00352244
-0.00403297
-0.00493731
0.000942542
-0.00171173
0.00170213
-0.109622
-0.229405
-0.25357
-0.178274
-0.206063
-0.221203
-0.278756
-0.194517
-0.288844
-0.156673
-0.280097
-0.114244
-0.252751
-0.0737472
-0.0415318
-0.00272222
-0.0197872
-0.00321158
-0.0818861
-0.0222774
-0.0228146
-0.0931807
-0.0348333
-0.245324
-0.15278
-0.126072
-0.155907
-0.146693
-0.142525
-0.15402
-0.106091
-0.125207
-0.0713171
-0.0875582
-0.0457287
-0.0573989
-0.0284115
-0.0361388
-0.0175191
-0.0222835
-0.0112788
-0.0139051
-0.00841471
-0.00949056
-0.00810857
-0.00795862
-0.0103648
-0.00890307
-0.0146701
-0.0123829
-0.0184185
-0.016814
-0.0192421
-0.0192395
-0.0175021
-0.0185758
-0.0153368
-0.0163275
-0.0147612
-0.0147623
-0.0168188
-0.0154311
-0.0218317
-0.0189404
-0.0301215
-0.0255086
-0.0425179
-0.0357066
-0.0599942
-0.050517
-0.0706699
-0.177005
-0.119616
-0.0969261
-0.138498
-0.103977
-0.121569
-0.166179
-0.153677
-0.180238
-0.175197
-0.177149
-0.180967
-0.157834
-0.169209
-0.128077
-0.143838
-0.0944843
-0.111358
-0.0625195
-0.0781117
-0.0480052
-0.0207914
-0.0214862
-0.0210608
-0.0206014
-0.0244077
-0.0223218
-0.0314623
-0.0274078
-0.0436291
-0.0367894
-0.0630469
-0.0522902
-0.0914987
-0.0761366
-0.126202
-0.108617
-0.15415
-0.142192
-0.15852
-0.159902
-0.137014
-0.150348
-0.102108
-0.120313
-0.067021
-0.0839658
-0.0388281
-0.051923
-0.0179756
-0.0276087
-0.00256188
-0.00967748
0.00808787
0.00338069
0.0136016
0.0114861
0.0146013
0.0145393
0.0138437
0.0142045
0.0148832
0.0139646
0.0172082
0.0162892
0.0135334
0.0159599
0.0116988
0.011372
0.014302
0.00332077
0.0129793
-0.246365
-0.276531
-0.0356422
-0.0233054
-0.226974
-0.294166
-0.189964
-0.292177
-0.145283
-0.271001
-0.100924
-0.230116
-0.0631808
-0.0387763
-0.018826
-0.00529423
-0.141697
-0.0632588
-0.0834964
-0.0297284
-0.0859897
-0.00010373
-0.113448
0.00865684
-0.0940314
-0.265479
-0.0444105
-0.0136298
-0.0968302
-0.0733264
-0.11772
-0.111937
-0.104648
-0.114438
-0.0762358
-0.0907642
-0.0500641
-0.062437
-0.0302285
-0.0393304
-0.016432
-0.0226451
-0.00741306
-0.0114087
-0.00193937
-0.00429485
0.000904099
-0.000238761
0.00180275
0.00157426
0.000826948
0.00156743
-0.00191055
-0.000386859
-0.00470131
-0.00345477
-0.00555222
-0.00542228
-0.00455133
-0.00519422
-0.00340216
-0.00387487
-0.0037754
-0.00332542
-0.00651175
-0.0048256
-0.0118097
-0.00883197
-0.0198387
-0.0154468
-0.0312001
-0.025043
-0.0469094
-0.0384556
-0.0664391
-0.0563602
-0.0764947
-0.150867
-0.132496
-0.180757
-0.167179
-0.195256
-0.190222
-0.190493
-0.19535
-0.168353
-0.181235
-0.135424
-0.152765
-0.0989687
-0.117208
-0.0647137
-0.0813638
-0.0494542
-0.0125663
-0.0118428
-0.0124027
-0.0108185
-0.0112496
-0.0116196
-0.010942
-0.0149192
-0.0129372
-0.0212689
-0.0176577
-0.0318636
-0.0259386
-0.0484746
-0.0392993
-0.0726224
-0.0595939
-0.102106
-0.0871495
-0.125852
-0.115724
-0.128898
-0.130523
-0.109344
-0.121323
-0.0787197
-0.0946121
-0.0482085
-0.0629531
-0.0233226
-0.0349681
-0.00425002
-0.0131568
0.0104185
0.00357516
0.0210345
0.0162634
0.0271077
0.0246472
0.0291409
0.0285187
0.0294432
0.0293161
0.0305688
0.0298326
0.030847
0.0311824
0.0262306
0.0290183
0.023342
0.0240304
0.0204491
0.0220567
0.00474125
0.0118149
0.0162836
-0.254586
-0.289654
-0.222619
-0.296491
-0.177715
-0.281443
-0.13016
-0.247551
-0.0877444
-0.198279
-0.0570414
-0.0360515
-0.0186973
-0.0089258
-0.00440815
0.00874438
-0.000936957
0.0739966
-0.104935
-0.0492666
0.000912758
-0.120669
-0.0680012
-0.00318561
-0.00306648
-0.0124463
-0.0749936
-0.100189
-0.276109
0.0270373
0.0517982
-0.0253056
0.000682362
-0.0661624
-0.048276
-0.0800214
-0.0767526
-0.0695105
-0.0768023
-0.0497996
-0.0599883
-0.0309263
-0.0399443
-0.0161155
-0.02297
-0.00543532
-0.0102995
0.00185716
-0.00141635
0.00654279
0.00448433
0.00924376
0.00810618
0.0104932
0.010026
0.0104335
0.0106423
0.00896459
0.00985182
0.00703628
0.00794794
0.00622034
0.00643029
0.00666555
0.00634484
0.00708541
0.00697933
0.00607541
0.0068216
0.00294198
0.0047902
-0.00241412
0.000541034
-0.0100403
-0.00592833
-0.0203753
-0.0148402
-0.0341208
-0.0268347
-0.0512711
-0.042412
-0.0599684
-0.160664
-0.141277
-0.192437
-0.17826
-0.20712
-0.202279
-0.200826
-0.206584
-0.176319
-0.190458
-0.140846
-0.159439
-0.102191
-0.121475
-0.0662204
-0.0836261
-0.0360526
-0.0503296
-0.0234355
-0.00240434
-0.00290617
-0.00188051
-0.00202407
-0.00297802
-0.00219512
-0.0060702
-0.00426045
-0.0116072
-0.00848551
-0.0205654
-0.0155821
-0.034341
-0.0267576
-0.0541695
-0.0434833
-0.0784078
-0.0660922
-0.0980415
-0.0896676
-0.10003
-0.101766
-0.0825142
-0.0931367
-0.0559719
-0.0696675
-0.0298136
-0.0424571
-0.00824632
-0.0183981
0.00879109
0.000757606
0.0223582
0.0159755
0.0324998
0.0278939
0.0386821
0.0360936
0.0413678
0.0403651
0.0423817
0.0419532
0.0430875
0.0427827
0.0417105
0.0428914
0.0367489
0.0394331
0.0319016
0.0342371
0.0263865
0.029326
0.0155354
0.0217661
-0.251576
-0.289885
-0.0120763
-0.00265531
-0.209565
-0.283564
-0.160366
-0.257265
-0.114201
-0.214626
-0.0775579
-0.161908
-0.0530405
-0.0343954
-0.0199826
-0.0138095
-0.0108329
0.00428922
-0.00801115
-0.00426382
0.0029241
0.0953645
0.0780675
0.0932117
-0.0710668
-0.0191442
0.0273303
0.0653372
-0.0801376
-0.274569
0.0370588
0.0582708
-0.00463442
0.0155537
-0.0351288
-0.0219546
-0.0455883
-0.0429846
-0.0395991
-0.0439932
-0.0270259
-0.0336475
-0.0141808
-0.0204027
-0.00358686
-0.00855464
0.0044368
0.000733443
0.0101918
0.00757224
0.0141106
0.0123547
0.0165899
0.0155071
0.0180111
0.0174112
0.018558
0.0184021
0.0180696
0.0184457
0.0169211
0.0175118
0.0162235
0.0164561
0.016254
0.0161718
0.0161585
0.0163055
0.0147558
0.0156749
0.0114542
0.0133542
0.00621328
0.00906913
-0.000926419
0.00288503
-0.0102447
-0.00529316
-0.0222007
-0.0158853
-0.0365585
-0.0291624
-0.0509063
-0.0439791
-0.061215
-0.0569325
-0.0828945
-0.124804
-0.10354
-0.166613
-0.146559
-0.200104
-0.185577
-0.214394
-0.209887
-0.206923
-0.213342
-0.18079
-0.195778
-0.143646
-0.16305
-0.103683
-0.123576
-0.0667415
-0.0845812
-0.0359665
-0.050486
-0.0232006
0.00547146
0.00535049
0.00520074
0.00593768
0.0055901
0.00602103
0.00610318
0.00479711
0.00559324
0.0020262
0.00361699
-0.00265832
-3.8681e-05
-0.0100111
-0.00594408
-0.0210738
-0.0150088
-0.0367902
-0.0283352
-0.0560047
-0.0462224
-0.0717483
-0.0650122
-0.072952
-0.0746767
-0.0575521
-0.0668774
-0.0346722
-0.0464137
-0.0124266
-0.0231697
0.00601861
-0.00269699
0.0209073
0.0138366
0.0330882
0.0273193
0.0424291
0.038152
0.048432
0.0458508
0.0515008
0.0502596
0.0527997
0.0523112
0.0526627
0.0529578
0.0498594
0.0516807
0.0444647
0.0473187
0.0387282
0.0416113
0.0318773
0.0355868
0.0204531
0.026916
0.014073
-0.063355
-0.237995
-0.27649
-0.189813
-0.258886
-0.141098
-0.224277
-0.0999809
-0.177779
-0.0702849
-0.125292
-0.0501943
-0.0341338
-0.0243636
-0.020813
-0.0190756
-0.0156438
-0.00599502
-0.0154095
0.00200311
-0.0161876
-0.00613091
0.109616
0.109029
0.12082
0.107334
0.116852
-0.041822
0.00632914
0.0494936
0.0848039
-0.0439678
0.0125594
0.0127618
-0.0459632
0.00596726
-0.260876
0.0807714
0.0951757
0.0476176
0.0645538
0.0159236
0.0311228
-0.00738153
0.00279731
-0.0168188
-0.0138767
-0.0150554
-0.0169522
-0.00803708
-0.0118873
5.16e-05
-0.00395928
0.00728253
0.00382706
0.0131218
0.0103842
0.0175521
0.0155048
0.0207585
0.0192939
0.0229712
0.0219751
0.0244383
0.0237813
0.0253434
0.0249623
0.0255585
0.0255509
0.0250923
0.0253827
0.0245423
0.0247872
0.0243461
0.0244249
0.023894
0.0242117
0.0222775
0.0232783
0.0189786
0.0208483
0.0139802
0.0166819
0.00738774
0.0108811
-0.000914367
0.00346368
-0.0111428
-0.00578012
-0.0229969
-0.0169048
-0.0350666
-0.0291059
-0.0401764
-0.0829469
-0.0461294
-0.0635032
-0.124809
-0.103694
-0.166944
-0.148289
-0.202688
-0.189083
-0.216094
-0.211975
-0.207966
-0.214717
-0.181172
-0.196482
-0.143492
-0.163137
-0.103251
-0.123256
-0.0662278
-0.0840889
-0.0354195
-0.0499504
-0.0115228
-0.0226474
-0.00202491
0.0126738
0.0125074
0.0130923
0.0128995
0.0129128
0.013123
0.0116887
0.0124385
0.00930436
0.0106524
0.00546203
0.00759423
-0.000386873
0.0028283
-0.0089707
-0.00428827
-0.0209533
-0.0145256
-0.035554
-0.0281088
-0.0477001
-0.0424691
-0.0484862
-0.0499716
-0.0351997
-0.0432657
-0.0154533
-0.0255565
0.0034869
-0.00563669
0.0191692
0.0117479
0.0319609
0.0258621
0.0426038
0.037539
0.050952
0.0470975
0.0565884
0.0541123
0.0597087
0.0584265
0.0607526
0.0604812
0.0596052
0.0604813
0.0558081
0.0580252
0.0501695
0.0531088
0.0440573
0.04715
0.0367535
0.0406909
0.0264174
0.0318934
0.0153013
0.0211661
0.0091561
-0.216156
-0.252081
0.00646511
0.0131396
-0.16689
-0.226391
-0.12283
-0.187839
-0.0888426
-0.141531
-0.0655843
-0.0918478
-0.0490451
-0.0370312
-0.0314336
-0.0299581
-0.0287075
-0.0267935
-0.0274039
-0.0149054
-0.0265673
-0.00520522
-0.0241153
-0.0128149
0.121588
0.123327
0.128685
0.116978
0.119621
0.126711
-0.017085
0.0278573
0.0684565
0.101267
-0.0307362
-0.0449271
-0.0298421
-0.237445
0.104414
0.111964
0.0834342
0.0947148
0.058038
0.0709157
0.0337547
0.0454613
0.0151658
0.0235586
0.00576175
0.00926289
0.00434371
0.00427565
0.00731038
0.00548384
0.0118829
0.0095161
0.0165426
0.0142577
0.0206328
0.0186788
0.0239505
0.0223907
0.0265169
0.0253216
0.0284429
0.0275524
0.0298722
0.0292087
0.0309529
0.0304531
0.0316205
0.0313527
0.0317132
0.0317366
0.0314318
0.0315944
0.0310886
0.0312719
0.0303939
0.0308258
0.0286809
0.0297037
0.0255023
0.0272845
0.0208389
0.0233457
0.0148384
0.0179985
0.0075272
0.0113507
-0.00114044
0.00336292
-0.0108924
-0.00591737
-0.0207165
-0.0159016
-0.0284646
-0.0250571
-0.0303558
-0.0808214
-0.0620168
-0.122894
-0.101322
-0.165353
-0.144997
-0.198479
-0.184294
-0.211794
-0.207785
-0.203679
-0.210362
-0.177357
-0.19238
-0.140426
-0.159677
-0.100985
-0.120594
-0.064705
-0.0822097
-0.0344347
-0.0487277
-0.0108549
-0.0218385
-0.00140383
0.0188091
0.0185835
0.018617
0.0188896
0.0186981
0.0191656
0.0190773
0.0188376
0.0190985
0.0177131
0.0183748
0.0157414
0.016842
0.012694
0.0143722
0.00820007
0.0106536
0.00179096
0.00526554
-0.00694502
-0.00228039
-0.0174755
-0.0121067
-0.0263391
-0.0224946
-0.02681
-0.0280201
-0.0157497
-0.0225252
0.00122557
-0.00749347
0.0175239
0.00969003
0.0309338
0.0245938
0.04185
0.0366454
0.0509667
0.0466186
0.0582332
0.0548552
0.0632916
0.0610504
0.0660309
0.0649493
0.0664232
0.0665246
0.0644181
0.0657156
0.060106
0.0624877
0.0544686
0.0573895
0.0482223
0.0514155
0.0408658
0.0447707
0.0315762
0.0363848
0.0208664
0.0264572
0.00873828
0.0150794
0.00200536
-0.189903
-0.220931
-0.144464
-0.191285
-0.10765
-0.152654
-0.0811842
-0.109001
-0.0632752
-0.0631896
-0.0507851
-0.0432502
-0.0410776
-0.0411067
-0.0406872
-0.040404
-0.0400868
-0.0378023
-0.0203126
-0.0336334
-0.00956958
-0.0282243
-0.0157748
0.119419
0.111434
0.108419
0.116469
0.130807
0.133294
0.127299
0.00409373
0.046457
0.0849433
0.114815
-0.0419471
-0.0171122
0.0235949
0.0235922
0.019027
-0.0164806
-0.0272853
-0.208406
0.110526
0.112264
0.101169
0.10673
0.0854887
0.0939464
0.0663767
0.0761732
0.0472259
0.0565652
0.0318645
0.0388031
0.0226525
0.0264481
0.0191971
0.0203202
0.0194521
0.0189904
0.0215628
0.0203657
0.0243091
0.022909
0.0270288
0.0256967
0.0294324
0.0282788
0.0314401
0.0304856
0.0330786
0.0323022
0.0344167
0.0337792
0.0355506
0.0350052
0.0364627
0.0360449
0.0369601
0.0367741
0.0369746
0.0370216
0.0366151
0.036838
0.0357779
0.0362793
0.03404
0.0350504
0.0310509
0.0327112
0.0267826
0.0290672
0.0213982
0.0242187
0.0150192
0.0183291
0.00769968
0.0114716
-0.000327835
0.0037423
-0.00825199
-0.00437171
-0.0148109
-0.0118332
-0.0164588
-0.0765713
-0.058506
-0.117301
-0.0963542
-0.158029
-0.138327
-0.18904
-0.175451
-0.201994
-0.198046
-0.194533
-0.200755
-0.169761
-0.183923
-0.134783
-0.153045
-0.0971703
-0.115899
-0.0623602
-0.0791844
-0.0330908
-0.0469469
-0.0101351
-0.0208365
0.0069249
-0.000886712
0.0135361
0.0237684
0.0236426
0.0241176
0.0239407
0.0242516
0.0242354
0.0238678
0.024132
0.0229094
0.0234587
0.021349
0.0222114
0.0190257
0.0202955
0.0157127
0.0175078
0.0111433
0.0136014
0.00511523
0.00831074
-0.00197438
0.00162479
-0.00788805
-0.0053262
-0.00795174
-0.00896158
0.000908965
-0.00456666
0.0152314
0.00778905
0.0293721
0.0225569
0.0410167
0.035521
0.0503911
0.0459386
0.0581244
0.0544437
0.0642743
0.0614139
0.0685143
0.0666541
0.0705338
0.0698149
0.0701809
0.0706533
0.0675441
0.0691342
0.0631414
0.0655334
0.0576199
0.060476
0.0514264
0.0546084
0.0442559
0.0480049
0.0357193
0.0401449
0.0258957
0.0309727
0.0148122
0.0205214
0.00293347
0.00895154
-0.00313242
-0.16346
-0.187977
0.0191104
0.0235032
-0.125186
-0.158002
-0.0965189
-0.121683
-0.076839
-0.0814371
-0.0639544
-0.0390624
-0.0558359
-0.0528546
-0.0534748
-0.0551252
-0.0554471
-0.0555144
-0.0540302
-0.0497972
-0.0435515
-0.0219284
-0.0104568
-0.0273632
-0.0145902
0.0809084
0.103332
-0.0358994
0.0961783
0.111043
0.13685
0.134622
0.124765
0.0224991
0.0629878
0.0991288
0.125541
-0.0144748
-0.178388
0.0960781
0.089469
0.103819
0.10088
0.104071
0.104882
0.0976223
0.101508
0.0863785
0.0925241
0.0717815
0.0793696
0.0565049
0.0640236
0.0436284
0.0495761
0.0348832
0.038698
0.0303472
0.0321403
0.0289279
0.0293302
0.0293721
0.0289844
0.0307273
0.0299807
0.032397
0.0315477
0.0340656
0.0332433
0.035597
0.034852
0.0369613
0.0362997
0.038176
0.0375851
0.0392869
0.0387417
0.0402917
0.039809
0.0410305
0.040709
0.0413167
0.0412361
0.0410438
0.0412466
0.0401694
0.0406939
0.0384608
0.039437
0.0356916
0.0372157
0.0318429
0.0338941
0.0270727
0.0295603
0.0215476
0.0243958
0.0153745
0.018533
0.00876155
0.0120936
0.00231537
0.00546381
-0.00293311
-0.000538861
-0.00540949
-0.00461628
-0.00341625
-0.00507169
-0.0110267
-0.0371604
-0.0231961
-0.0701607
-0.0529051
-0.108689
-0.0890297
-0.146514
-0.128212
-0.175281
-0.162574
-0.187815
-0.183862
-0.181578
-0.186995
-0.159276
-0.172093
-0.127227
-0.14402
-0.092277
-0.109739
-0.0595108
-0.0753983
-0.0316144
-0.0448669
-0.00946299
-0.0198115
0.00720974
-0.000490498
0.01372
0.0272184
0.0276318
0.0274394
0.0280662
0.0278395
0.028399
0.0282556
0.0284519
0.0284742
0.0280916
0.028324
0.0273349
0.0277611
0.0261652
0.0268066
0.0244825
0.0253949
0.0221693
0.0234117
0.0191064
0.0207376
0.0152489
0.0172703
0.0109338
0.0130963
0.00757338
0.00898208
0.00814017
0.0071534
0.0151232
0.01082
0.0268418
0.0206659
0.0389909
0.0330795
0.0491987
0.0443767
0.0573403
0.0534944
0.0638872
0.0607938
0.0689461
0.0666136
0.0722467
0.070838
0.0734687
0.0731303
0.0725151
0.0732561
0.0696018
0.0712806
0.0652314
0.067571
0.0599021
0.0626596
0.0538872
0.0569816
0.0470271
0.0505799
0.0391626
0.0432204
0.0302545
0.0348405
0.0203389
0.0254012
0.0098864
0.0151307
-0.00054061
0.00460746
-0.00559381
-0.000594962
-0.140095
-0.157391
-0.110358
-0.129275
-0.0893999
-0.0958672
-0.0759071
-0.0584638
-0.0680326
-0.0184833
-0.0649464
-0.0661253
-0.069433
-0.07212
-0.0734298
-0.0726455
-0.0689504
-0.0621873
-0.0534599
-0.0430129
-0.0181061
-0.0319197
0.0764709
0.0680403
0.0701383
-0.00697121
-0.020665
-0.00893659
0.0869432
0.103413
0.139714
0.13272
0.119441
0.0386906
0.0773173
0.111196
0.133689
0.00603403
0.0302481
0.0298166
0.00823027
0.0268711
-0.151171
0.0894678
0.0837114
0.0965772
0.0937397
0.0979671
0.0979634
0.0940107
0.0965432
0.085866
0.0904301
0.0745693
0.0804887
0.0623964
0.0684416
0.0515799
0.0566809
0.0435357
0.0471655
0.0386009
0.0406978
0.0362266
0.0371448
0.0355834
0.0357372
0.0359564
0.0356793
0.0368405
0.0363576
0.0379298
0.0373723
0.0390636
0.0384968
0.0401765
0.0396244
0.0412511
0.0407187
0.0422937
0.0417756
0.0432945
0.0428032
0.0441359
0.0437487
0.0446036
0.0444274
0.0444824
0.0446215
0.0436751
0.0441719
0.0420569
0.0429759
0.0395218
0.0409067
0.0360867
0.0379092
0.0319003
0.0340751
0.0271366
0.0295805
0.0219216
0.0245762
0.0164401
0.0191908
0.0111582
0.0137304
0.00684606
0.00882901
0.00460299
0.00536494
0.004804
-0.00650532
0.010953
0.00295615
-0.030875
-0.0178032
-0.061922
-0.0456159
-0.0975252
-0.0794676
-0.132068
-0.115346
-0.158583
-0.146784
-0.170815
-0.166754
-0.166266
-0.170611
-0.147076
-0.158215
-0.118605
-0.133612
-0.0868623
-0.102805
-0.0565183
-0.0713013
-0.0302335
-0.0427747
-0.00900466
-0.0189668
0.0071888
-0.000311025
0.0188909
0.0135667
0.0232582
0.0309465
0.0306301
0.0314993
0.0312387
0.0318467
0.0317103
0.0318784
0.0319039
0.0315991
0.0317742
0.0310573
0.0313596
0.0302456
0.030688
0.0291157
0.029723
0.0276282
0.0284183
0.0257638
0.0267422
0.0235824
0.024702
0.0213938
0.0224518
0.0201044
0.0205462
0.0214731
0.0203291
0.0271699
0.0237471
0.0365352
0.0315606
0.0467003
0.0416905
0.0555519
0.0513486
0.0626286
0.0592995
0.0681612
0.0655742
0.072236
0.0703878
0.0746602
0.073671
0.0752018
0.0751736
0.0738441
0.074749
0.070841
0.0725248
0.0666029
0.0688527
0.0615123
0.0641445
0.0557645
0.0587205
0.0492912
0.0526252
0.0420412
0.0457627
0.0339974
0.0381201
0.025215
0.0296794
0.0161185
0.0206711
0.00711025
0.0115225
-0.000926113
0.00280495
-0.00425039
-0.121465
-0.131587
0.0262723
0.0291697
-0.100063
-0.105853
-0.0861901
-0.0747507
-0.0787118
-0.0391914
-0.0764666
-0.000747298
-0.0786309
-0.0837954
-0.0894299
-0.0933624
-0.0943612
-0.0915206
-0.0844621
-0.0744223
-0.0621222
-0.0488231
0.0576671
0.0555416
0.0453612
0.0462617
-0.0354261
0.0600805
-0.0100906
-0.0222079
0.0758818
0.0934904
-8.81407e-05
-0.0104887
-0.000377708
0.139203
0.127743
0.111476
0.0525714
0.0896606
0.121272
0.139058
0.0175441
0.0139831
0.0198844
-0.128806
0.0721338
0.0652689
0.0834227
0.0783273
0.0901765
0.0873611
0.0923728
0.0918473
0.0901907
0.091794
0.0842122
0.087634
0.0755085
0.0801006
0.0658239
0.0706718
0.0567555
0.0611062
0.049537
0.0528659
0.044621
0.0467934
0.0417677
0.0429662
0.0404531
0.0409519
0.0401563
0.0402059
0.0404672
0.0402558
0.0411093
0.0407593
0.0419176
0.0414994
0.0428069
0.0423553
0.0437365
0.0432683
0.0446854
0.0442096
0.045628
0.045161
0.0464723
0.0460726
0.0470136
0.046797
0.0470515
0.0471142
0.046383
0.0468121
0.0449221
0.0457554
0.04264
0.0438823
0.0395981
0.0412062
0.0359426
0.0378359
0.0318358
0.0339363
0.0274022
0.0296517
0.0228038
0.0251064
0.0183932
0.0205443
0.0147754
0.016435
0.0128507
0.0135379
0.0138453
0.0129631
0.0154956
-0.0017746
0.00681675
-0.0239636
-0.011973
-0.0524625
-0.0374776
-0.084747
-0.068401
-0.116081
-0.100883
-0.140533
-0.129555
-0.152679
-0.148388
-0.150124
-0.153236
-0.134374
-0.143673
-0.10978
-0.122857
-0.081487
-0.0957964
-0.0537323
-0.0673378
-0.0291501
-0.0409419
-0.00889727
-0.0184521
0.00683127
-0.000476247
0.0183462
0.0130766
0.0227122
0.0315252
0.0327642
0.0322208
0.0336335
0.0332274
0.0342337
0.0339572
0.0345768
0.0344402
0.0346385
0.0346399
0.0344774
0.034581
0.0341486
0.0343326
0.0336564
0.0339236
0.0329936
0.033346
0.0321728
0.0326011
0.0312376
0.0317145
0.0303072
0.0307594
0.0296679
0.0299232
0.0299256
0.0296307
0.0320831
0.0306981
0.0370817
0.0342031
0.0446141
0.0406274
0.0529292
0.0487935
0.0604188
0.0568364
0.0664797
0.0636327
0.0711147
0.0689696
0.0743465
0.0729109
0.0760433
0.0753973
0.0760689
0.076267
0.0744668
0.0754591
0.071481
0.0731261
0.0674291
0.0695692
0.0626101
0.0650996
0.057181
0.0599701
0.0511337
0.0542363
0.0444658
0.0478752
0.037204
0.0409069
0.0294503
0.0333723
0.0215142
0.0254853
0.0137546
0.0175709
0.00708524
0.0102067
0.00231595
0.00439773
0.00078209
-0.107781
-0.111127
-0.0940799
-0.0872642
-0.0871198
-0.0575479
-0.0861552
-0.0230163
-0.0900811
0.0144011
-0.0976966
-0.106844
-0.114714
-0.118883
-0.118031
-0.111516
-0.100121
-0.08577
0.0346792
0.0351196
0.0253475
0.0236302
-0.0698577
0.0343007
-0.0533502
0.047863
-0.037641
0.0636765
-0.0229257
0.0818104
-7.41359e-05
-0.0102227
0.135147
0.119654
0.101052
0.0640985
0.100195
0.129067
0.14099
0.0171113
0.0229443
0.0333956
0.0007276
0.00829379
0.00911241
0.0325145
0.030681
0.0246492
0.022314
-0.111668
0.0531072
0.0444196
0.0676239
0.0609739
0.0778904
0.0731655
0.0844702
0.0816553
0.0872376
0.0863346
0.0862167
0.0871856
0.0818954
0.0844197
0.0752306
0.0787823
0.0675226
0.0714159
0.0599424
0.0636265
0.0535886
0.0565668
0.0489267
0.0510396
0.0459047
0.0472262
0.0442113
0.0449147
0.043478
0.0437461
0.0433829
0.0433674
0.0436875
0.0434967
0.0442346
0.0439378
0.0449298
0.0445677
0.0457181
0.0453149
0.0465612
0.0461351
0.0474178