/*--------------------------------*- C++ -*----------------------------------*\
  =========                 |
  \\      /  F ield         | OpenFOAM: The Open Source CFD Toolbox
   \\    /   O peration     | Website:  https://openfoam.org
    \\  /    A nd           | Version:  10
     \\/     M anipulation  |
\*---------------------------------------------------------------------------*/
FoamFile
{
    format      ascii;
    class       volVectorField;
    location    "38";
    object      U;
}
// * * * * * * * * * * * * * * * * * * * * * * * * * * * * * * * * * * * * * //

dimensions      [0 1 -1 0 0 0 0];

internalField   nonuniform List<vector> 
28942
(
(-0.599594 0.184259 -4.62652e-19)
(-0.636066 0.0898679 -9.96644e-20)
(1.77567 -1.24815 2.56765e-19)
(2.53015 0.0494043 -7.19048e-19)
(2.49207 0.0787423 2.39137e-19)
(1.14452 0.0586294 0)
(1.33679 0.0821653 -2.40748e-21)
(1.49398 0.052124 2.71635e-21)
(2.87703 -0.227965 -2.46895e-20)
(2.85525 -0.210007 7.52393e-20)
(-0.550267 0.304436 -1.11185e-18)
(-0.0809507 -0.224723 4.99232e-19)
(-0.154993 0.0319798 0)
(-0.262152 0.179252 0)
(2.51426 -0.119777 9.22731e-22)
(2.54624 -0.119803 8.25766e-23)
(2.36144 0.336641 1.68328e-19)
(2.32793 0.295453 2.67881e-19)
(0.993306 -1.53026 6.76759e-19)
(1.57175 -1.64253 -1.97056e-19)
(2.56731 0.662375 2.08382e-19)
(2.58224 0.636155 0)
(0.170141 0.388289 9.96957e-19)
(-0.259646 0.0249915 5.29132e-19)
(2.65496 -0.683793 1.06682e-18)
(3.32002 -0.844559 -9.65449e-19)
(0.697233 -1.08249 2.80758e-18)
(0.70532 -0.848624 -1.10866e-18)
(2.03754 -1.44488 3.56839e-20)
(1.53964 -1.02814 1.01684e-20)
(1.13665 -0.0457221 0)
(1.5485 -0.0791663 8.39139e-21)
(1.91873 -0.125142 2.12075e-20)
(2.25316 -0.107274 9.25599e-21)
(1.53772 2.14392 -2.05399e-19)
(1.11323 2.31009 3.0436e-19)
(1.7379 2.10801 -5.68242e-19)
(1.3636 2.14279 -2.44396e-19)
(0.523882 0.0557102 2.92481e-21)
(0.625353 2.13657 -1.17486e-19)
(2.03875 -0.0240813 0)
(2.36013 -0.0744511 0)
(2.07888 0.432717 -1.03569e-20)
(2.04378 0.495177 2.98975e-20)
(2.1765 0.422518 2.64928e-20)
(1.91629 0.0668752 -1.1967e-21)
(1.87992 0.0843743 2.28088e-21)
(2.28693 0.078836 2.8992e-21)
(2.22919 0.0796304 -7.32897e-22)
(1.98614 0.0778231 6.85035e-21)
(1.83338 0.0913592 -3.93316e-21)
(2.74736 -0.0442559 -8.6473e-20)
(2.74121 -0.0513331 -7.36116e-20)
(2.87882 -0.255483 -1.43568e-21)
(2.85294 -0.235849 1.4102e-20)
(3.43811 -0.215877 8.2746e-19)
(3.73305 -0.360907 4.16011e-19)
(0.0227732 0.131565 -6.27708e-19)
(-0.0992752 0.091948 0)
(-0.13858 0.242045 2.30713e-19)
(-0.0616994 0.161587 5.53044e-19)
(0.030969 0.0473518 -4.30442e-19)
(0.0528885 0.0583408 -4.41349e-19)
(3.15187 -1.11825 0)
(3.61786 -0.936675 1.1915e-19)
(3.17191 -0.793704 -5.02917e-20)
(3.08676 -0.784528 0)
(2.29679 -0.403638 -1.63508e-19)
(2.3573 -0.443106 -1.06646e-19)
(-0.3051 0.154939 1.51487e-18)
(-0.413689 0.23421 -4.77509e-19)
(-0.571103 0.345902 1.19261e-18)
(2.32834 -0.541109 0)
(2.30677 -0.485115 5.67515e-19)
(2.15953 -0.783219 1.50999e-19)
(4.00501 0.683607 4.0926e-19)
(4.11219 0.525986 -4.548e-19)
(3.90722 0.373996 -2.79544e-19)
(0.604613 -0.325254 1.20301e-20)
(0.911537 -0.532585 -2.78779e-19)
(2.65303 -1.59447 -4.44144e-20)
(2.4696 -1.57682 1.12093e-19)
(-0.501123 0.185257 2.31859e-18)
(-0.638087 0.186788 -8.96994e-19)
(3.51662 1.55166 -6.45852e-20)
(2.95955 1.27298 2.95767e-20)
(2.98251 1.83895 -6.50522e-20)
(2.89179 1.96308 2.94236e-19)
(2.86365 1.99523 -1.99995e-19)
(2.44387 1.76916 3.20064e-20)
(2.48767 1.94373 5.78943e-20)
(2.51911 2.05454 -5.0513e-20)
(-0.875237 1.71612 -1.40292e-19)
(-0.668952 1.276 -3.43285e-20)
(-0.250878 0.954053 6.87814e-20)
(0.0552273 1.22276 -9.61856e-19)
(-0.173827 1.69743 1.21604e-18)
(1.23436 1.43949 4.08029e-19)
(1.48931 1.69118 -1.29583e-19)
(-0.613631 -0.125081 0)
(2.51609 -0.00103849 0)
(2.43012 0.0781251 -4.95155e-19)
(2.40053 0.177328 4.13129e-19)
(2.6075 0.149411 0)
(3.35166 -0.32342 0)
(3.34003 -0.352668 0)
(3.39744 -0.359877 3.29925e-19)
(2.75743 0.393776 -3.26542e-20)
(2.74887 0.428559 3.42282e-19)
(2.73366 0.378109 1.85014e-19)
(0.0524651 0.124431 1.24496e-18)
(0.0608647 0.196713 -1.3995e-18)
(-0.429311 0.196342 -8.31045e-19)
(-0.411451 -0.126077 7.61232e-19)
(-0.698956 -0.126164 1.63274e-18)
(0.61081 0.989972 4.59021e-19)
(1.07707 0.818936 1.13242e-18)
(0.926388 1.58867 1.06919e-19)
(0.450307 1.51356 -2.58759e-18)
(3.59826 1.24028 -1.49069e-21)
(3.1599 1.22365 4.5088e-20)
(3.08699 1.09662 -8.54635e-20)
(2.32731 -1.69457 9.37518e-20)
(1.73325 -1.24459 -4.69893e-20)
(0.693255 0.281479 -1.46786e-18)
(0.656813 0.0851815 0)
(1.07265 0.198229 8.1027e-19)
(1.58234 -1.19063 1.045e-19)
(1.94363 -1.54935 -2.54695e-19)
(2.20757 0.0740022 -1.97768e-21)
(2.28152 0.0722249 -1.9263e-21)
(2.06927 0.0668666 -4.03106e-23)
(1.23163 -1.57031 0)
(1.32419 -1.08472 0)
(2.57235 -0.165567 -8.13901e-20)
(2.52949 -0.155937 4.6794e-19)
(2.53206 -0.0456885 0)
(2.0413 -1.58342 0)
(2.04999 -1.30792 -1.99964e-19)
(2.47806 2.16327 2.90346e-19)
(0.297077 0.672311 7.91855e-19)
(0.287698 0.440316 -5.82581e-19)
(1.75662 -1.52982 -1.3556e-19)
(2.2653 0.313643 1.52013e-19)
(2.28515 0.37861 -2.88702e-20)
(3.48817 -0.177419 -9.63846e-20)
(3.4782 -0.0759991 1.29658e-19)
(3.42952 -0.0769779 3.87633e-19)
(0.199331 0.358152 2.7656e-19)
(2.80642 2.11921 2.02654e-19)
(2.83464 1.8533 -7.33316e-20)
(3.34235 2.23555 1.20152e-21)
(1.6912 -0.0594732 -1.49295e-21)
(1.68589 -0.0599263 -1.83613e-20)
(1.90494 -0.0682013 -1.30047e-21)
(1.91362 -0.0863677 4.72879e-21)
(2.38019 2.02072 1.23038e-19)
(1.45453 1.84088 0)
(0.315509 1.46283 1.05752e-18)
(0.000787072 0.246866 -1.20674e-18)
(0.0648259 2.36606 8.56221e-19)
(2.39903 0.649369 -1.6108e-18)
(3.581 0.995082 -8.04535e-19)
(2.14097 -0.093363 1.79367e-21)
(3.63183 -1.4557 1.57504e-19)
(3.51935 -1.47105 3.9613e-19)
(2.56022 0.733783 4.80125e-19)
(2.40714 0.869484 4.04179e-20)
(2.40681 0.541439 2.89297e-19)
(2.45091 0.561 -2.07789e-19)
(2.61005 0.734449 0)
(2.72494 -0.0680785 1.44699e-20)
(2.72622 -0.0826969 2.69894e-20)
(2.78045 -0.156605 -4.03417e-20)
(2.79416 -0.164877 7.03416e-20)
(2.77556 0.3464 3.68084e-20)
(2.81276 0.361398 -1.00766e-19)
(2.78373 0.378012 0)
(2.74955 0.357336 2.39591e-20)
(2.78727 0.417437 0)
(2.81728 0.555255 -8.34215e-20)
(2.81316 0.627464 -4.91223e-20)
(2.79006 0.712299 -9.36004e-20)
(2.80853 0.687597 0)
(2.8891 0.691693 2.65018e-19)
(2.84046 0.759032 1.55162e-20)
(2.75777 0.777424 -5.91315e-20)
(2.63331 0.949559 -2.52828e-19)
(2.61519 0.792563 -4.69812e-20)
(1.81425 0.249553 5.97638e-19)
(2.41129 -0.167945 -2.28265e-19)
(-0.740725 0.0981249 -1.1729e-18)
(2.01229 0.0706332 2.81244e-21)
(2.3729 0.0758907 0)
(0.443022 -0.205686 1.38036e-18)
(0.410984 -0.249602 6.3334e-19)
(2.26314 0.0871042 -8.14263e-22)
(2.45551 0.091764 -3.63522e-23)
(2.45815 0.0891197 0)
(2.24157 0.0846454 -3.38952e-22)
(1.73472 -1.94864 1.17639e-19)
(1.70231 -1.96534 -6.07969e-19)
(1.79718 -1.98333 -2.23819e-19)
(0.137698 0.273529 5.27672e-19)
(0.0753696 0.102381 -6.69971e-19)
(0.0966142 0.152476 6.30196e-19)
(-0.153059 0.0183793 0)
(-0.107911 -0.0252346 9.34657e-19)
(-0.0693204 -0.0154491 -7.98427e-19)
(-0.301407 -0.0988022 -8.60371e-19)
(-0.34725 -0.196417 -8.11585e-19)
(-0.248592 -0.168416 0)
(0.19843 1.20041 0)
(0.094516 0.791566 0)
(0.00622254 0.488737 0)
(3.28531 -0.346313 -4.01861e-20)
(3.21761 -0.345406 0)
(3.25861 -0.367481 4.13425e-20)
(2.32451 -0.117653 1.13408e-18)
(2.35464 -0.131529 -4.16335e-19)
(2.34893 -0.0886578 0)
(2.07555 -0.0988132 1.40906e-20)
(2.095 0.256781 -2.75827e-20)
(2.07209 -0.452367 8.91213e-21)
(2.11341 0.596328 0)
(2.13868 0.91019 1.80798e-20)
(2.16965 1.18873 0)
(2.01577 1.1482 0)
(2.19629 1.42363 -5.33115e-20)
(2.05262 1.37878 0)
(1.97728 0.875345 1.6409e-20)
(1.94808 0.566583 0)
(1.92342 0.233208 -8.01408e-21)
(1.90648 -0.116386 1.31494e-20)
(1.90617 -0.459658 -8.89728e-21)
(2.22351 1.61155 5.10341e-20)
(2.09111 1.56707 1.56344e-21)
(2.06952 -0.790142 2.62646e-22)
(1.91117 -0.789649 1.24819e-20)
(2.07794 -1.09488 -6.52903e-20)
(2.25154 1.75366 -4.31095e-23)
(2.13484 1.71258 1.30936e-21)
(1.92666 -1.08572 -2.29739e-20)
(2.27831 1.85326 -3.74647e-20)
(2.30551 1.91564 3.74343e-20)
(2.1791 1.81398 -2.89847e-21)
(2.22305 1.87863 -4.88863e-21)
(2.09655 -1.35398 6.36145e-20)
(1.95017 -1.34582 1.47573e-20)
(2.33175 1.947 0)
(2.26501 1.91316 4.81933e-21)
(2.11246 -1.57949 -6.69943e-24)
(1.98502 -1.56176 6.68723e-24)
(2.3557 1.95618 0)
(2.30317 1.92632 0)
(2.13739 -1.75314 0)
(2.02417 -1.73265 0)
(2.37598 1.9511 0)
(2.33732 1.92576 -1.97955e-21)
(2.16201 -1.88498 2.27447e-20)
(2.06815 -1.85961 5.62466e-24)
(2.39152 1.93982 -1.03314e-22)
(2.36602 1.91926 2.11447e-21)
(2.18909 -1.97493 -2.28616e-20)
(2.11152 -1.94925 0)
(2.40334 1.92765 0)
(2.39 1.91191 0)
(2.21433 -2.03417 1.22402e-21)
(2.15354 -2.00909 -1.97372e-20)
(2.40991 1.91936 -1.29308e-20)
(2.41025 1.90792 0)
(2.23803 -2.06769 -6.91494e-22)
(2.19254 -2.04495 1.86239e-20)
(2.41301 1.91632 1.9516e-20)
(2.42355 1.91012 5.63396e-21)
(2.25688 -2.08291 -1.85448e-20)
(2.22839 -2.06244 0)
(2.41327 1.9201 -6.54955e-21)
(2.43758 1.918 -3.80586e-21)
(2.27365 -2.08803 8.55523e-21)
(2.25894 -2.0695 -1.69809e-20)
(2.40613 1.92898 2.79917e-20)
(2.44415 1.93178 -3.16654e-20)
(2.28473 -2.09144 -8.69907e-21)
(2.28498 -2.07721 -2.70207e-22)
(2.39986 1.93888 0)
(2.44938 1.94563 -1.60889e-20)
(2.28962 -2.10277 1.73318e-20)
(2.30528 -2.09444 -3.42086e-20)
(2.39129 1.94549 0)
(2.45472 1.95246 0)
(2.29294 -2.08942 8.61622e-21)
(2.28532 -2.09314 3.43415e-20)
(2.28827 -2.1279 0)
(2.31995 -2.12581 1.76575e-20)
(2.29539 -2.09272 5.87252e-21)
(2.29828 -2.09214 -1.1289e-21)
(2.28639 -2.05231 0)
(2.29328 -2.08117 2.02988e-20)
(2.26903 -1.90951 5.19851e-23)
(2.28064 -1.99746 0)
(2.25171 -1.59952 0)
(2.26509 -1.7775 0)
(2.24632 -1.09862 0)
(2.25566 -1.37234 0)
(2.25657 -0.437453 -1.92933e-20)
(2.25091 -0.783205 -4.51417e-21)
(2.28547 0.281662 1.87836e-20)
(2.26595 -0.0746024 1.94632e-20)
(2.31231 0.938405 -3.06142e-20)
(2.29288 0.621832 -4.2081e-20)
(2.34758 1.45236 0)
(2.33209 1.21703 0)
(2.3753 1.78605 1.02878e-22)
(2.36243 1.6419 0)
(2.39874 1.94352 0)
(2.38732 1.88477 0)
(2.41728 1.97374 0)
(2.40902 1.97013 0)
(2.42404 1.94634 0)
(2.42234 1.96316 0)
(2.41584 1.91585 0)
(2.42194 1.92922 0)
(2.39311 1.90836 0)
(2.40709 1.90855 0)
(2.35871 1.92329 1.21592e-20)
(2.37683 1.91367 0)
(2.33452 1.9289 4.29551e-21)
(2.38401 1.93776 -4.74881e-21)
(2.46338 1.9431 4.71145e-21)
(2.48394 1.92017 0)
(2.52115 1.94668 1.81563e-20)
(2.5023 1.93828 8.31583e-21)
(2.43927 1.89075 -1.82939e-21)
(2.46328 1.9029 7.20011e-21)
(2.38213 1.88528 -5.39928e-23)
(2.41461 1.88479 0)
(2.30756 1.89044 0)
(2.34822 1.88811 0)
(2.21213 1.86958 0)
(2.26233 1.88655 0)
(2.10038 1.765 0)
(2.15738 1.83177 -8.54977e-27)
(1.98792 1.52018 -9.10456e-23)
(2.04303 1.66266 0)
(1.88551 1.10941 0)
(1.93597 1.33681 0)
(1.80597 0.538911 0)
(1.83995 0.838366 0)
(1.76506 -0.123973 0)
(1.77768 0.213197 8.41538e-21)
(1.77754 -0.769712 -2.21291e-21)
(1.76737 -0.456673 9.59796e-21)
(1.8406 -1.30695 0)
(1.80332 -1.05519 7.62605e-21)
(1.94048 -1.68013 0)
(1.88703 -1.51508 0)
(2.05414 -1.89724 0)
(1.99722 -1.8057 0)
(2.15994 -2.00015 0)
(2.10867 -1.9603 0)
(2.25105 -2.03507 4.43588e-21)
(2.20738 -2.02265 0)
(2.32203 -2.07057 1.72582e-20)
(2.28902 -2.04831 4.19108e-21)
(2.34989 -2.10719 -1.80494e-20)
(2.26995 -2.11014 -3.4174e-20)
(2.31027 1.91872 -9.80503e-21)
(2.54455 1.93767 2.18654e-20)
(2.32856 -2.17183 0)
(2.37314 -2.15559 0)
(2.24751 -2.1405 0)
(2.27892 -2.16702 0)
(2.3105 -2.07369 0)
(2.25561 -2.07798 -7.75919e-21)
(2.28768 -2.0698 -8.41149e-21)
(2.34539 -2.09012 -1.19676e-20)
(2.33179 -2.08354 2.34076e-21)
(2.36672 -2.05906 -4.42398e-23)
(2.35828 -2.08458 0)
(2.3818 -1.91633 0)
(2.37736 -2.0056 0)
(2.39643 -1.60096 0)
(2.39285 -1.78252 0)
(2.41895 -1.09191 0)
(2.41081 -1.37147 0)
(2.44587 -0.423624 0)
(2.43664 -0.773271 0)
(2.47515 0.29735 7.9533e-23)
(2.46124 -0.0630524 -2.05334e-20)
(2.49154 0.951933 7.2475e-23)
(2.4808 0.641984 3.92241e-20)
(2.49766 1.45849 0)
(2.49627 1.22618 0)
(2.49542 1.78664 -5.22111e-23)
(2.49734 1.64531 0)
(2.48748 1.94248 0)
(2.49205 1.88413 0)
(2.47543 1.97086 0)
(2.48211 1.96856 0)
(2.45595 1.93882 0)
(2.46692 1.95824 0)
(2.42503 1.9023 0)
(2.44185 1.91865 0)
(2.38041 1.88813 0)
(2.40451 1.89173 0)
(2.32008 1.89665 -8.17044e-21)
(2.3534 1.89084 0)
(2.37653 1.90074 0)
(2.28576 1.88311 -1.19982e-20)
(2.24346 1.88719 0)
(2.28346 1.89855 -8.64142e-21)
(2.58861 1.92117 -1.62046e-20)
(2.6232 1.91366 -4.54311e-21)
(2.56889 1.89989 -4.03687e-20)
(2.47174 1.90613 0)
(2.52718 1.89015 0)
(2.55735 1.91048 2.41905e-20)
(2.45914 1.85786 -5.13992e-23)
(2.49309 1.8727 -7.2492e-21)
(2.37937 1.8463 5.39912e-23)
(2.4216 1.84975 0)
(2.28403 1.84235 0)
(2.33546 1.84465 0)
(2.16828 1.8121 0)
(2.22935 1.83336 0)
(2.03565 1.70213 0)
(2.10332 1.77068 8.54957e-27)
(1.9021 1.45989 1.71874e-22)
(1.96768 1.59981 0)
(1.78113 1.05868 0)
(1.83955 1.28022 0)
(1.69198 0.507924 -3.59463e-21)
(1.73089 0.797498 0)
(1.65261 -0.128088 0)
(1.66355 0.195283 3.57843e-21)
(1.67365 -0.745279 -7.44272e-21)
(1.65726 -0.446041 -7.72343e-21)
(1.75474 -1.25875 0)
(1.70773 -1.02191 0)
(1.87584 -1.61947 0)
(1.81217 -1.45929 0)
(2.01069 -1.8367 0)
(1.94316 -1.74392 0)
(2.13917 -1.9453 0)
(2.07653 -1.90251 0)
(2.25267 -1.98766 -5.96433e-23)
(2.19819 -1.97081 0)
(2.34745 -2.03514 6.15223e-23)
(2.30265 -2.00653 0)
(2.4259 -2.1284 1.78459e-20)
(2.38824 -2.07612 -1.78358e-20)
(2.21732 -2.0991 -1.68874e-20)
(2.39295 -2.21025 0)
(2.46402 -2.18614 4.22868e-20)
(2.33112 -2.22515 0)
(2.20381 1.85184 0)
(2.66258 1.87624 4.9758e-21)
(2.21754 -2.17913 -5.00188e-20)
(2.16889 -2.12899 -1.97922e-20)
(2.40644 -2.26303 -1.20554e-20)
(2.50094 -2.24285 -5.41757e-20)
(2.26334 -2.2129 0)
(2.19022 1.84946 -3.46895e-20)
(2.1372 1.81584 1.79717e-20)
(2.59304 1.82382 1.16952e-20)
(2.69789 1.80084 -6.01693e-20)
(2.14738 -2.06289 -6.16146e-20)
(2.10906 -2.1575 3.76971e-20)
(2.00654 -2.09198 1.73888e-19)
(2.08579 -2.08074 3.52833e-20)
(2.25135 -2.03284 -1.53886e-20)
(2.20306 -2.04389 5.05743e-20)
(2.33485 -2.04499 1.6559e-20)
(2.29693 -2.03393 1.21097e-20)
(2.40202 -2.07149 4.77926e-21)
(2.37139 -2.0607 4.30417e-21)
(2.45438 -2.04591 4.42399e-23)
(2.43029 -2.06947 0)
(2.50124 -1.90226 0)
(2.47964 -1.99267 0)
(2.5479 -1.58662 0)
(2.52609 -1.76795 0)
(2.59543 -1.07767 0)
(2.57274 -1.35614 0)
(2.63592 -0.411184 0)
(2.61786 -0.75874 0)
(2.66136 0.307269 0)
(2.65146 -0.0509741 0)
(2.66692 0.954122 -1.08159e-24)
(2.66753 0.644815 0)
(2.64893 1.45423 0)
(2.66022 1.22583 0)
(2.61681 1.77784 -5.13143e-23)
(2.63422 1.6381 0)
(2.57799 1.93235 0)
(2.59782 1.87468 0)
(2.53692 1.95725 0)
(2.55781 1.95702 0)
(2.49126 1.91978 0)
(2.51503 1.94211 0)
(2.43718 1.87736 0)
(2.46546 1.89692 0)
(2.37191 1.8568 0)
(2.40584 1.86369 0)
(2.29005 1.8586 -3.79297e-21)
(2.33319 1.85581 1.91218e-21)
(2.24245 1.85959 1.68536e-20)
(2.37161 1.82586 5.53541e-21)
(2.16766 1.78352 -2.31334e-20)
(2.26497 1.81206 1.60907e-20)
(2.48383 1.83305 0)
(2.6568 1.87511 1.30197e-20)
(2.7523 1.83262 4.51116e-20)
(2.70071 1.86752 -3.10041e-20)
(2.57034 1.84625 0)
(2.61272 1.86475 0)
(2.48072 1.81438 4.40769e-24)
(2.52425 1.83047 0)
(2.38169 1.79716 0)
(2.43176 1.80484 0)
(2.26785 1.78402 4.63593e-23)
(2.32785 1.79157 0)
(2.13471 1.74398 0)
(2.20484 1.76996 0)
(1.98546 1.62885 0)
(2.06193 1.69905 0)
(1.83477 1.38953 -8.09126e-23)
(1.90924 1.52692 0)
(1.70058 0.999821 -8.14597e-23)
(1.76434 1.21393 0)
(1.60561 0.474066 0)
(1.64707 0.750509 0)
(1.56837 -0.13033 0)
(1.57801 0.176011 0)
(1.59835 -0.715659 0)
(1.57486 -0.430831 0)
(1.69368 -1.20303 0)
(1.63928 -0.976183 0)
(1.83087 -1.55016 6.9745e-23)
(1.75871 -1.39469 0)
(1.98192 -1.76725 0)
(1.90635 -1.67333 0)
(2.12734 -1.88181 0)
(2.05591 -1.83574 0)
(2.26056 -1.93192 6.05435e-24)
(2.19598 -1.91101 0)
(2.37439 -1.98791 -5.47258e-24)
(2.32009 -1.95505 0)
(2.47358 -2.08536 -6.50313e-23)
(2.42511 -2.03227 0)
(2.57225 -2.19766 4.54229e-20)
(2.52145 -2.14339 -9.15728e-21)
(2.53509 -2.28601 -1.24188e-20)
(2.62409 -2.23726 -2.14711e-20)
(2.17877 -2.21859 1.81317e-20)
(2.32908 -2.27755 2.26829e-20)
(2.08472 1.74919 -4.97291e-21)
(2.7983 1.76224 -3.63305e-20)
(2.03683 -2.17692 -8.55266e-22)
(2.41648 -2.30202 0)
(1.91469 -2.0978 -3.21747e-19)
(2.67861 -2.2447 -4.64175e-20)
(2.56933 -2.2974 -6.29232e-20)
(1.75457 -1.93388 4.52635e-19)
(1.70757 -1.88734 -8.25448e-20)
(2.24186 -2.25672 0)
(1.96519 -1.99875 -3.75022e-20)
(1.85649 -1.97763 -2.20218e-20)
(2.13896 -1.98908 -3.2904e-20)
(2.06341 -1.99733 5.08112e-20)
(2.26032 -1.97886 1.56149e-20)
(2.20389 -1.98071 7.29971e-21)
(2.36505 -2.00469 -8.10358e-21)
(2.3151 -1.98774 -7.85833e-21)
(2.4599 -2.03772 0)
(2.41438 -2.02426 -2.11407e-22)
(2.54299 -2.01358 0)
(2.50307 -2.0367 0)
(2.62207 -1.87082 -5.04956e-23)
(2.58326 -1.96062 0)
(2.69932 -1.55825 0)
(2.66169 -1.73812 0)
(2.76992 -1.05298 0)
(2.73605 -1.32909 0)
(2.82315 -0.395016 0)
(2.79957 -0.73725 0)
(2.84706 0.310084 -7.64475e-23)
(2.83904 -0.04044 0)
(2.83756 0.946194 -2.53333e-24)
(2.84652 0.642697 0)
(2.79787 1.4343 0)
(2.8212 1.21131 0)
(2.7368 1.75117 1.00706e-22)
(2.7691 1.61412 0)
(2.6682 1.90352 0)
(2.70284 1.84652 0)
(2.59871 1.92784 0)
(2.63349 1.9279 0)
(2.5278 1.88858 0)
(2.56366 1.91192 0)
(2.4518 1.84235 0)
(2.49075 1.86397 0)
(2.36665 1.81629 0)
(2.41073 1.82633 0)
(2.26566 1.8125 1.89222e-21)
(2.31846 1.81269 0)
(2.14549 1.79798 0)
(2.20791 1.81062 3.65206e-21)
(2.0164 1.70092 4.37744e-22)
(2.08088 1.76473 0)
(2.13583 1.67434 2.34707e-20)
(1.95503 1.5953 -1.21962e-21)
(2.03772 1.64088 -1.20469e-20)
(2.36973 1.71073 -9.65259e-21)
(2.24765 1.69839 6.60284e-21)
(2.62042 1.7015 3.46918e-21)
(2.49552 1.71623 -3.37666e-21)
(2.85316 1.64534 0)
(2.73968 1.68099 2.51184e-20)
(2.83726 1.77366 9.4015e-21)
(2.95738 1.59699 2.04763e-20)
(2.89679 1.70558 -4.75828e-20)
(2.72184 1.81652 3.88735e-21)
(2.77595 1.80829 0)
(2.61247 1.7943 0)
(2.66538 1.80852 0)
(2.50367 1.76312 4.98534e-24)
(2.55583 1.77901 0)
(2.38865 1.74049 0)
(2.44513 1.75172 0)
(2.25951 1.71832 -4.63593e-23)
(2.32543 1.73111 0)
(2.11219 1.66864 0)
(2.18861 1.69943 0)
(1.95009 1.54842 0)
(2.033 1.62038 0)
(1.78714 1.31269 0)
(1.86792 1.44716 0)
(1.64431 0.937474 1.29773e-23)
(1.71175 1.14262 0)
(1.5459 0.438138 0)
(1.58845 0.700555 0)
(1.5116 -0.13017 0)
(1.5196 0.157138 0)
(1.54983 -0.680942 0)
(1.52132 -0.412774 0)
(1.65608 -1.13975 0)
(1.59605 -0.925259 0)
(1.80463 -1.47277 -6.9745e-23)
(1.72711 -1.32221 0)
(1.96606 -1.68818 0)
(1.88531 -1.59396 0)
(2.12434 -1.80584 0)
(2.04593 -1.75788 0)
(2.27517 -1.8641 5.3624e-23)
(2.20124 -1.83816 0)
(2.41014 -1.93081 -5.6374e-23)
(2.345 -1.89306 0)
(2.53377 -2.03416 6.42937e-23)
(2.47241 -1.97855 0)
(2.66101 -2.15071 -9.31063e-21)
(2.59632 -2.09381 1.82574e-20)
(2.80482 -2.20101 1.06384e-20)
(2.73008 -2.19258 -2.50963e-20)
(2.73546 -2.20044 -8.92383e-21)
(2.88057 -2.15855 -3.17509e-20)
(2.1314 -2.24966 2.39782e-20)
(2.32197 -2.31668 0)
(1.96884 -2.18105 2.23229e-19)
(2.42246 -2.31163 0)
(1.96149 1.64257 4.47865e-21)
(1.89214 1.54753 -3.17779e-21)
(2.90123 1.48439 2.77431e-20)
(3.01866 1.43773 2.88367e-20)
(1.83619 -2.09403 2.25148e-19)
(2.60506 -2.26165 6.35222e-20)
(1.60056 -1.81136 0)
(1.7245 -1.83408 4.90356e-20)
(2.79739 -2.08833 2.92919e-20)
(2.96126 -2.04324 -5.69021e-20)
(1.65065 -1.76287 -9.05699e-20)
(2.20987 -2.28671 0)
(1.93752 -1.90669 0)
(1.82634 -1.88125 3.766e-20)
(2.13177 -1.9111 0)
(2.04302 -1.91175 0)
(2.27589 -1.91826 0)
(2.20886 -1.91192 -7.55975e-21)
(2.40145 -1.95364 0)
(2.34067 -1.93293 0)
(2.51803 -1.98885 0)
(2.46079 -1.97488 0)
(2.629 -1.96495 0)
(2.57414 -1.98786 0)
(2.73952 -1.82468 5.04957e-23)
(2.68456 -1.91289 0)
(2.84553 -1.51622 0)
(2.79382 -1.69393 0)
(2.9387 -1.01869 0)
(2.89454 -1.29009 0)
(3.00305 -0.37598 0)
(2.97588 -0.710083 0)
(3.02382 0.311278 4.1323e-24)
(3.01898 -0.0306326 0)
(3.0012 0.929423 -3.8308e-24)
(3.01785 0.635319 0)
(2.93887 1.40223 0)
(2.97448 1.18598 0)
(2.85078 1.71158 -2.78541e-24)
(2.89683 1.57732 0)
(2.7545 1.86251 0)
(2.80292 1.80572 0)
(2.65887 1.88703 0)
(2.70643 1.88711 0)
(2.56484 1.84656 0)
(2.61184 1.87082 0)
(2.46862 1.79732 0)
(2.51732 1.82063 0)
(2.36503 1.76587 0)
(2.41817 1.77875 0)
(2.24766 1.75426 0)
(2.30826 1.75842 0)
(2.11036 1.73466 -3.55744e-21)
(2.18138 1.74899 -3.70766e-21)
(2.03594 1.7028 8.3512e-21)
(2.10964 1.51845 1.40204e-20)
(1.90087 1.44664 0)
(1.99804 1.49059 1.21884e-20)
(2.37019 1.55141 0)
(2.23476 1.54123 -1.43185e-20)
(2.64397 1.53575 -2.22448e-20)
(2.50787 1.55287 7.63989e-21)
(2.77604 1.51508 4.13599e-20)
(2.91317 1.70567 -3.88777e-21)
(3.05526 1.53203 -2.10853e-20)
(2.99014 1.63453 0)
(2.78039 1.74958 7.11695e-21)
(2.8498 1.73694 -7.13528e-21)
(2.65108 1.73535 0)
(2.71661 1.7445 0)
(2.52687 1.70512 5.41037e-24)
(2.58857 1.71951 0)
(2.39884 1.67778 0)
(2.46227 1.69111 0)
(2.25807 1.64712 0)
(2.32884 1.66429 0)
(2.10045 1.58835 0)
(2.18077 1.62348 0)
(1.9296 1.46342 0)
(2.01618 1.5369 0)
(1.75942 1.23233 -4.86612e-23)
(1.84351 1.36317 0)
(1.61217 0.873856 6.84825e-23)
(1.68148 1.06903 0)
(1.51277 0.402765 0)
(1.55524 0.649872 0)
(1.48196 -0.127972 0)
(1.48797 0.139946 0)
(1.52741 -0.64169 0)
(1.49505 -0.391573 0)
(1.64041 -1.07284 0)
(1.57704 -0.870341 0)
(1.79469 -1.39376 0)
(1.71446 -1.24716 0)
(1.96214 -1.60903 0)
(1.87809 -1.514 0)
(2.13018 -1.72865 4.00467e-23)
(2.04636 -1.6798 0)
(2.29331 -1.79025 -3.99415e-23)
(2.21309 -1.76212 0)
(2.44318 -1.86272 4.33515e-23)
(2.37 -1.82227 0)
(2.58558 -1.96587 0)
(2.51452 -1.91129 0)
(2.73396 -2.07738 0)
(2.65838 -2.02321 0)
(2.90123 -2.12353 -8.61071e-23)
(2.81352 -2.11727 -1.06194e-20)
(3.08709 -1.96378 8.32815e-20)
(2.9933 -2.07736 0)
(3.04653 -1.85054 5.2303e-20)
(3.18739 -1.77106 8.43829e-21)
(2.0738 -2.2596 -7.61737e-20)
(2.30875 -2.33063 0)
(1.82587 1.40607 2.14753e-20)
(3.12416 1.38405 3.99281e-20)
(1.88763 -2.13541 4.51173e-20)
(1.59377 -1.83289 2.53884e-21)
(1.71504 -1.99987 -1.23457e-19)
(2.43314 -2.2724 0)
(2.64319 -2.16202 -2.04795e-20)
(1.51127 -1.6475 9.17766e-20)
(1.43817 -1.53204 -1.12117e-19)
(1.53381 -1.67806 1.03237e-19)
(2.86479 -1.90295 5.92599e-20)
(3.13235 -1.58797 -4.45766e-20)
(3.29117 -1.50961 -2.91953e-20)
(2.17092 -2.28858 0)
(1.71262 -1.7392 -1.91891e-21)
(1.48716 -1.55228 -2.75638e-21)
(1.61531 -1.6568 -1.6354e-20)
(1.92788 -1.81755 -1.48499e-20)
(1.81869 -1.7906 1.49349e-20)
(2.12998 -1.83015 -2.3416e-23)
(2.03567 -1.82618 0)
(2.29347 -1.84929 0)
(2.21545 -1.83683 0)
(2.44055 -1.89091 0)
(2.36879 -1.86819 0)
(2.578 -1.92619 0)
(2.51005 -1.91248 0)
(2.71428 -1.90246 -3.49315e-23)
(2.64596 -1.92507 0)
(2.85268 -1.76447 0)
(2.78374 -1.85131 0)
(2.98455 -1.46116 0)
(2.92026 -1.63571 0)
(3.0975 -0.976339 0)
(3.0446 -1.24017 0)
(3.16979 -0.354673 0)
(3.14027 -0.677673 0)
(3.18743 0.307885 7.23151e-23)
(3.18549 -0.0215502 0)
(3.15105 0.902367 -4.92281e-24)
(3.17588 0.619581 0)
(3.06786 1.35773 0)
(3.11437 1.14922 0)
(2.95615 1.65844 -8.97117e-23)
(3.01427 1.52737 0)
(2.83535 1.80794 0)
(2.89598 1.75123 0)
(2.71646 1.83373 0)
(2.77541 1.83304 0)
(2.60152 1.79405 0)
(2.65867 1.81806 0)
(2.48712 1.74352 0)
(2.54461 1.76778 0)
(2.36748 1.70789 0)
(2.42843 1.72332 0)
(2.23521 1.68944 -4.42181e-23)
(2.30346 1.69732 0)
(2.0854 1.66544 3.57232e-21)
(2.16233 1.68119 0)
(1.92112 1.57368 -4.62527e-21)
(2.00411 1.63316 0)
(1.76862 1.34713 -4.2632e-21)
(1.8417 1.47904 4.47778e-21)
(1.8576 1.25822 -1.2021e-20)
(1.70521 1.17043 0)
(1.77087 1.21786 -1.54524e-20)
(2.0888 1.3207 0)
(1.965 1.29464 0)
(2.37101 1.34873 0)
(2.22553 1.34178 0)
(2.66908 1.32663 0)
(2.51987 1.34629 0)
(2.95043 1.27763 -2.82752e-20)
(2.81449 1.30649 -8.14465e-21)
(3.18804 1.19362 -5.81272e-21)
(3.07517 1.23827 -5.38972e-20)
(3.14425 1.4601 -2.14537e-20)
(3.28781 1.14074 -4.42553e-21)
(3.2158 1.32121 9.34372e-21)
(2.98699 1.62504 -3.91775e-21)
(3.06661 1.56007 2.54193e-20)
(2.83412 1.67498 6.44942e-24)
(2.91375 1.65866 0)
(2.68831 1.66739 0)
(2.7625 1.67485 0)
(2.55057 1.63938 5.68756e-24)
(2.6206 1.65331 0)
(2.41171 1.60895 0)
(2.48212 1.62407 0)
(2.26251 1.5712 0)
(2.33803 1.59206 0)
(2.09849 1.50455 0)
(2.18153 1.54338 0)
(1.92316 1.37584 0)
(2.01123 1.45029 0)
(1.75035 1.15042 8.70916e-23)
(1.83518 1.27698 0)
(1.6025 0.810101 0)
(1.67177 0.994595 0)
(1.50482 0.369075 0)
(1.54599 0.59981 0)
(1.47797 -0.12339 0)
(1.48186 0.124978 0)
(1.52832 -0.599693 0)
(1.49367 -0.367701 0)
(1.6442 -1.00347 4.31923e-23)
(1.57962 -0.8129 0)
(1.79962 -1.31113 0)
(1.71889 -1.16959 0)
(1.96959 -1.52192 0)
(1.88384 -1.42851 0)
(2.14445 -1.64089 -4.00467e-23)
(2.0567 -1.59174 0)
(2.3172 -1.70801 7.16705e-24)
(2.23188 -1.67647 0)
(2.48142 -1.78575 -7.96148e-23)
(2.40015 -1.74323 0)
(2.64588 -1.88904 0)
(2.56295 -1.83505 0)
(2.81989 -1.9974 0)
(2.73132 -1.94489 0)
(3.00954 -2.04649 1.04583e-23)
(2.91272 -2.03632 0)
(3.21413 -1.90013 0)
(3.11113 -2.00705 0)
(3.42727 -1.45526 5.31278e-20)
(3.31878 -1.71526 0)
(3.38513 -1.20032 6.80697e-21)
(3.52921 -1.14537 -9.74461e-20)
(2.01976 -2.23752 0)
(1.39342 -1.43045 -1.34215e-19)
(1.82147 -2.04378 -3.20019e-20)
(1.72733 1.28654 4.25639e-21)
(1.65794 1.12538 0)
(3.24682 0.963852 -5.53457e-21)
(3.34763 0.920597 1.23125e-20)
(2.29906 -2.30182 0)
(2.44547 -2.16936 0)
(1.6246 -1.86354 0)
(2.68803 -1.98445 2.0168e-20)
(2.93575 -1.64721 4.41297e-20)
(3.21547 -1.26825 0)
(3.46793 -0.849924 -1.14328e-19)
(3.61719 -0.805153 8.01209e-20)
(2.13032 -2.24881 0)
(1.49771 -1.4449 7.45712e-24)
(1.28995 -1.23545 -3.92057e-20)
(1.28912 -1.1263 1.28329e-19)
(1.39669 -1.31256 -3.73857e-20)
(1.71789 -1.62957 7.85914e-21)
(1.61234 -1.54605 1.62764e-20)
(1.93336 -1.71989 0)
(1.8262 -1.68646 0)
(2.13709 -1.74292 2.33994e-23)
(2.04026 -1.73433 0)
(2.31216 -1.77003 0)
(2.22704 -1.75373 0)
(2.47736 -1.816 0)
(2.39568 -1.79172 0)
(2.637 -1.85191 0)
(2.55765 -1.8381 0)
(2.79748 -1.82812 3.49316e-23)
(2.71685 -1.85076 0)
(2.95967 -1.69133 0)
(2.879 -1.77723 0)
(3.11309 -1.39483 0)
(3.03844 -1.56493 0)
(3.24084 -0.927484 0)
(3.18171 -1.18116 0)
(3.31809 -0.33285 0)
(3.28706 -0.641486 0)
(3.33227 0.300211 -6.06788e-23)
(3.33348 -0.0146497 0)
(3.28323 0.868432 -5.75027e-24)
(3.3152 0.598228 0)
(3.18218 1.30358 0)
(3.23815 1.1041 0)
(3.0498 1.59446 4.04398e-24)
(3.11841 1.46693 0)
(2.90823 1.7427 0)
(2.97916 1.68592 0)
(2.76946 1.7706 0)
(2.83819 1.76872 0)
(2.6364 1.73284 0)
(2.7023 1.75612 0)
(2.5063 1.68184 0)
(2.57135 1.70671 0)
(2.37298 1.6423 0)
(2.44049 1.66003 0)
(2.22868 1.61614 8.23796e-23)
(2.30269 1.62794 0)
(2.06839 1.58552 4.26671e-23)
(2.15053 1.60373 0)
(1.89498 1.49738 -7.02368e-21)
(1.98281 1.5528 6.61836e-21)
(1.80866 1.41075 -6.6876e-21)
(1.82511 1.0294 -3.27906e-21)
(1.65228 0.958761 -6.32051e-22)
(1.72975 0.997383 9.29416e-21)
(2.07316 1.08404 0)
(1.94033 1.06073 0)
(2.37204 1.10287 1.39652e-25)
(2.21807 1.09951 0)
(2.6928 1.08032 0)
(2.53143 1.09888 0)
(2.99312 1.03263 -1.58676e-20)
(2.84793 1.06001 1.65683e-20)
(3.12792 1.00017 -1.25406e-21)
(3.21861 1.37973 5.77045e-22)
(3.37015 1.07951 1.0191e-20)
(3.29491 1.24728 -1.27341e-21)
(3.05141 1.53799 3.45557e-21)
(3.13433 1.47356 -3.46011e-21)
(2.88226 1.59536 4.41351e-23)
(2.967 1.57513 0)
(2.72403 1.59295 3.00826e-23)
(2.80364 1.59797 0)
(2.57524 1.56733 5.77499e-24)
(2.65089 1.58084 0)
(2.42762 1.53491 0)
(2.50323 1.5516 0)
(2.27243 1.49156 0)
(2.35179 1.51553 0)
(2.10515 1.41853 0)
(2.19007 1.4604 0)
(1.92909 1.28737 0)
(2.01724 1.36218 0)
(1.75762 1.06867 -3.84304e-23)
(1.84135 1.19041 0)
(1.6127 0.747489 -3.29607e-23)
(1.6802 0.920765 0)
(1.51913 0.33756 0)
(1.55803 0.551429 0)
(1.49634 -0.116734 0)
(1.49826 0.11222 0)
(1.54904 -0.55665 0)
(1.51366 -0.342058 0)
(1.66402 -0.934808 -4.31923e-23)
(1.60026 -0.755299 0)
(1.81618 -1.2307 2.90478e-23)
(1.73714 -1.0935 0)
(1.98469 -1.43798 0)
(1.89911 -1.34589 0)
(2.16326 -1.5552 0)
(2.07306 -1.50665 0)
(2.34216 -1.62417 7.10039e-24)
(2.2537 -1.59127 0)
(2.51355 -1.70217 6.53691e-23)
(2.42838 -1.66037 0)
(2.69028 -1.79886 0)
(2.60028 -1.7488 0)
(2.88385 -1.89605 0)
(2.78472 -1.84971 0)
(3.0969 -1.93028 1.11023e-23)
(2.98812 -1.92778 0)
(3.32061 -1.78313 0)
(3.20846 -1.88688 0)
(3.5384 -1.37352 -3.21524e-20)
(3.43066 -1.61145 0)
(3.7337 -0.758728 -3.45781e-20)
(3.63974 -1.08364 6.82525e-20)
(1.41965 -1.40715 2.12902e-19)
(1.32535 -1.30728 1.4454e-19)
(3.68528 -0.437214 4.02739e-20)
(3.80433 -0.414161 -4.0266e-20)
(1.96382 -2.15956 0)
(1.60016 0.925652 -7.82412e-21)
(3.43292 0.87322 4.40572e-20)
(1.21371 -0.921479 -2.25591e-20)
(2.29053 -2.21134 0)
(1.22404 -1.0227 -1.02837e-20)
(1.74185 -1.87413 0)
(2.46888 -1.9902 0)
(1.59194 -1.71464 0)
(2.73696 -1.72712 0)
(3.00542 -1.32941 0)
(3.27946 -0.910016 1.12166e-20)
(3.52551 -0.472015 3.62009e-20)
(3.7256 -0.0520223 0)
(3.85054 -0.0478611 7.59814e-20)
(2.09628 -2.15166 0)
(1.31452 -1.01591 -4.89935e-20)
(1.15847 -0.658131 -1.13145e-19)
(1.19848 -0.572372 -4.80279e-20)
(1.24431 -0.811083 5.40243e-20)
(1.52409 -1.32544 -3.11024e-21)
(1.4205 -1.18998 1.50743e-20)
(1.73744 -1.50989 -5.85529e-21)
(1.62987 -1.42839 5.6827e-24)
(1.95223 -1.61017 -1.57602e-23)
(1.84673 -1.56997 0)
(2.15471 -1.6478 -1.52082e-23)
(2.057 -1.63294 0)
(2.33532 -1.68117 0)
(2.24677 -1.66255 0)
(2.51155 -1.72899 0)
(2.42331 -1.70411 0)
(2.68986 -1.76508 0)
(2.60043 -1.75127 0)
(2.87192 -1.74122 0)
(2.78042 -1.76387 0)
(3.05447 -1.6064 0)
(2.96384 -1.69072 0)
(3.22497 -1.31964 0)
(3.14236 -1.48353 0)
(3.36288 -0.874091 0)
(3.29966 -1.11535 0)
(3.44331 -0.310941 0)
(3.41141 -0.602919 0)
(3.45404 0.289314 6.90131e-24)
(3.45785 -0.00931716 0)
(3.39469 0.826827 -5.56026e-23)
(3.43264 0.571481 0)
(3.27818 1.2395 0)
(3.34225 1.04973 0)
(3.12953 1.52078 7.3721e-23)
(3.20619 1.39655 0)
(2.97197 1.6682 0)
(3.05092 1.6111 0)
(2.81724 1.69875 0)
(2.8939 1.69531 0)
(2.6693 1.66382 0)
(2.74244 1.68582 0)
(2.52619 1.61349 0)
(2.5975 1.63842 0)
(2.38186 1.57137 0)
(2.45468 1.59101 0)
(2.22839 1.53927 -3.81615e-23)
(2.30687 1.55448 0)
(2.05991 1.50218 -7.12005e-24)
(2.14622 1.52341 0)
(1.88134 1.41704 -3.20218e-21)
(1.97114 1.46964 0)
(1.70581 1.22053 0)
(1.79135 1.33549 8.19992e-21)
(1.57023 0.88307 8.45493e-21)
(1.63187 1.07073 0)
(1.61512 0.721069 1.06558e-20)
(1.52156 0.663436 0)
(1.55689 0.69118 -1.04883e-20)
(1.80058 0.772053 0)
(1.69812 0.74693 1.35099e-20)
(2.06114 0.810554 0)
(1.92249 0.794823 0)
(2.37527 0.819844 6.23729e-27)