/*--------------------------------*- C++ -*----------------------------------*\
  =========                 |
  \\      /  F ield         | OpenFOAM: The Open Source CFD Toolbox
   \\    /   O peration     | Website:  https://openfoam.org
    \\  /    A nd           | Version:  10
     \\/     M anipulation  |
\*---------------------------------------------------------------------------*/
FoamFile
{
    format      ascii;
    class       volScalarField;
    location    "32.5";
    object      p;
}
// * * * * * * * * * * * * * * * * * * * * * * * * * * * * * * * * * * * * * //

dimensions      [0 2 -2 0 0 0 0];

internalField   nonuniform List<scalar> 
25879
(
0.110623
0.113214
0.112143
0.109322
-0.0638983
-0.0521342
-0.0182787
-0.00441219
0.0117666
0.00382853
-0.0823907
-0.0542773
-0.113948
-0.697362
-0.735163
0.304859
0.232766
-0.228156
-0.384083
0.748345
0.723776
0.33795
0.435983
0.123972
0.125792
0.131644
0.128946
0.118488
0.122679
0.118896
0.118333
-0.63642
-0.637979
-0.627765
0.0333052
0.119606
0.126505
-0.00318125
0.002509
-0.221085
-0.182044
-0.127948
0.287465
0.304334
0.311267
-0.299772
-0.319606
-0.341962
-0.31426
-0.336212
-0.053074
-0.00762569
-0.613876
-0.416902
0.00326905
0.00470117
0.00700117
0.527841
0.530875
0.493509
0.482654
0.462393
0.455345
0.00280351
0.00556181
0.00504639
-0.706437
-0.709687
-0.640381
-0.54815
-0.643718
0.179926
0.183608
0.188442
0.33776
0.481083
0.405751
0.11862
0.118934
0.115459
0.323216
0.305186
0.83443
0.773036
0.778195
0.249416
0.258009
0.245285
0.0948657
0.0981633
-0.246821
-0.196813
-0.291793
0.114263
0.113572
-0.036029
-0.0525192
-0.0435049
0.0882756
0.0746664
0.0719385
0.051898
0.0989965
0.098125
0.091527
0.221655
0.219131
-0.0392149
0.0131044
0.134101
0.138541
0.00759818
0.0114518
0.0248044
0.0247586
0.246432
0.235766
-0.0674418
0.0537794
0.0854209
0.0908116
-0.371388
-0.370652
-0.113957
-0.112385
-0.184441
-0.170668
-0.694145
-0.760613
-0.718684
-0.64311
-0.63354
0.468776
0.446716
0.43795
0.454436
0.113151
0.116528
-0.0100284
0.00924282
-0.101246
-0.10247
-0.101502
-0.101095
-0.102195
-0.10498
-0.109321
-0.115394
-0.123236
-0.133041
-0.144951
-0.158788
-0.174394
-0.191015
-0.207968
-0.223874
-0.237662
-0.247925
-0.253888
-0.255179
-0.250324
-0.241198
-0.228141
-0.21215
-0.194304
-0.176055
-0.158383
-0.142359
-0.128344
-0.116689
-0.10724
-0.0999344
-0.0944662
-0.0906059
-0.0880815
-0.0872071
-0.0884818
-0.0865429
-0.0845373
-0.0879455
-0.102927
-0.105688
-0.104338
-0.0895836
-0.0898725
-0.0880424
-0.0977642
-0.0930576
-0.112547
-0.104139
-0.135703
-0.122974
-0.166657
-0.150307
-0.200454
-0.183603
-0.228292
-0.215624
-0.241897
-0.237187
-0.237125
-0.24181
-0.216241
-0.228341
-0.186568
-0.201951
-0.156696
-0.171218
-0.132307
-0.143619
-0.115277
-0.122855
-0.105282
-0.109416
-0.101719
-0.102731
-0.101585
-0.100026
-0.0984111
-0.0985844
-0.107435
-0.102997
-0.121682
-0.113701
-0.144133
-0.1317
-0.174837
-0.158396
-0.210436
-0.192276
-0.242744
-0.227581
-0.261221
-0.254329
-0.258988
-0.26276
-0.237355
-0.250507
-0.202833
-0.221343
-0.16516
-0.183968
-0.132761
-0.148069
-0.109315
-0.119924
-0.094588
-0.100959
-0.0898186
-0.102047
-0.107879
-0.109853
-0.0927867
-0.0914575
-0.0924143
-0.0981266
-0.098274
-0.083611
-0.0835501
-0.0806489
-0.0940729
-0.0989815
-0.0946491
-0.100996
-0.104907
-0.0866258
-0.088612
-0.0875155
-0.0863
-0.0942828
-0.0901624
-0.107484
-0.0999957
-0.128256
-0.116894
-0.156041
-0.141469
-0.186477
-0.171421
-0.211826
-0.200404
-0.224501
-0.220205
-0.221125
-0.224936
-0.203402
-0.213852
-0.177461
-0.191032
-0.150746
-0.163819
-0.128491
-0.138865
-0.112765
-0.119769
-0.10355
-0.107378
-0.100247
-0.101257
-0.102364
-0.100516
-0.110332
-0.105661
-0.096408
-0.0945738
-0.104357
-0.0995594
-0.11908
-0.110762
-0.142064
-0.129531
-0.173211
-0.156742
-0.209272
-0.191089
-0.242111
-0.226846
-0.261271
-0.254095
-0.260327
-0.263248
-0.239805
-0.252234
-0.206209
-0.224086
-0.168605
-0.187264
-0.135169
-0.150923
-0.109935
-0.12138
-0.0931663
-0.100501
-0.0875839
-0.0888143
-0.0961736
-0.0961889
-0.116486
-0.109388
-0.115886
-0.105579
-0.106421
-0.0791136
-0.07968
-0.0847373
-0.113231
-0.115635
-0.10481
-0.109583
-0.0904701
-0.105131
-0.0967141
-0.0837349
-0.0862242
-0.0835621
-0.0828677
-0.0893308
-0.0857448
-0.101071
-0.0943769
-0.119752
-0.109505
-0.144779
-0.131631
-0.17207
-0.15855
-0.194645
-0.184442
-0.205928
-0.202025
-0.203018
-0.206291
-0.187568
-0.196615
-0.164927
-0.176743
-0.141457
-0.152937
-0.121774
-0.130946
-0.107869
-0.114042
-0.0998767
-0.10316
-0.0974761
-0.0979928
-0.100671
-0.0983191
-0.104361
-0.088544
-0.0900449
-0.0888456
-0.0915552
-0.0894294
-0.100148
-0.0950575
-0.115499
-0.106882
-0.138963
-0.12615
-0.17058
-0.153848
-0.2069
-0.188567
-0.239624
-0.224397
-0.258489
-0.251379
-0.257275
-0.260504
-0.23684
-0.249151
-0.203927
-0.221428
-0.167092
-0.18546
-0.133852
-0.149659
-0.108043
-0.119923
-0.0901083
-0.0981145
-0.0790221
-0.0838362
-0.073624
-0.0756447
-0.116681
-0.115969
-0.0990146
-0.092653
-0.124225
-0.12412
-0.102965
-0.115307
-0.0733954
-0.0818443
-0.0828698
-0.129614
-0.129311
-0.0923033
-0.0847674
-0.074652
-0.0879107
-0.120044
-0.12288
-0.110187
-0.115731
-0.0959163
-0.10353
-0.10185
-0.126615
-0.112824
-0.0867905
-0.0932436
-0.0794072
-0.082207
-0.0784112
-0.0781254
-0.0830904
-0.0800796
-0.0932963
-0.0874448
-0.109812
-0.100723
-0.132177
-0.120402
-0.156668
-0.144525
-0.176905
-0.167759
-0.18695
-0.183485
-0.184253
-0.187208
-0.17054
-0.178539
-0.150643
-0.161005
-0.13014
-0.140155
-0.113059
-0.120999
-0.101177
-0.106416
-0.0947216
-0.0972832
-0.0935706
-0.093484
-0.0976886
-0.0949429
-0.107081
-0.101742
-0.12246
-0.113966
-0.0820741
-0.0819747
-0.0856192
-0.0831958
-0.0946213
-0.0893657
-0.110214
-0.101491
-0.133734
-0.120907
-0.165302
-0.148602
-0.201458
-0.183222
-0.233836
-0.218805
-0.252213
-0.245349
-0.250617
-0.254037
-0.23011
-0.242433
-0.197474
-0.214781
-0.161344
-0.179336
-0.128814
-0.144306
-0.103333
-0.115122
-0.0850808
-0.0933408
-0.0731581
-0.0783961
-0.0668797
-0.0691692
-0.0663553
-0.0659611
-0.14543
-0.142764
-0.0773358
-0.0679986
-0.0986548
-0.0857703
-0.0877249
-0.112061
-0.132489
-0.119111
-0.129296
-0.12766
-0.145531
-0.0821983
-0.164616
-0.162141
-0.071588
-0.0929565
-0.133567
-0.133919
-0.128197
-0.131713
-0.11684
-0.123172
-0.1008
-0.109253
-0.121263
-0.156942
-0.137413
-0.0966194
-0.107697
-0.0815882
-0.0880525
-0.0738367
-0.0768683
-0.0721663
-0.0722836
-0.0757784
-0.073339
-0.0844695
-0.0794499
-0.0988249
-0.0908989
-0.118478
-0.10811
-0.140108
-0.129377
-0.157984
-0.149907
-0.166811
-0.163781
-0.164399
-0.167012
-0.152401
-0.159381
-0.135169
-0.144122
-0.117581
-0.126148
-0.103117
-0.109809
-0.0933293
-0.0975922
-0.0885056
-0.090298
-0.088561
-0.0879212
-0.0934376
-0.0903583
-0.103404
-0.097761
-0.110556
-0.0749425
-0.0787853
-0.0765009
-0.0746613
-0.0743293
-0.0787507
-0.0761256
-0.0879368
-0.0826283
-0.103453
-0.0947999
-0.12664
-0.11401
-0.157647
-0.141252
-0.193063
-0.175216
-0.224581
-0.209987
-0.24217
-0.235671
-0.240164
-0.243728
-0.219889
-0.23202
-0.187906
-0.204846
-0.152663
-0.170191
-0.121024
-0.136085
-0.096202
-0.107699
-0.0781878
-0.0863957
-0.0658797
-0.0713895
-0.0586463
-0.0615718
-0.0567297
-0.0570529
-0.0601453
-0.0576648
-0.184219
-0.178482
-0.0769155
-0.0644516
-0.0915226
-0.10709
-0.0917491
-0.144079
-0.140938
-0.123787
-0.0888601
-0.143186
-0.164216
-0.186548
-0.0694932
-0.0836638
-0.208334
-0.20272
-0.0695697
-0.0818839
-0.0720881
-0.100293
-0.144577
-0.145274
-0.137715
-0.141977
-0.124478
-0.131906
-0.106658
-0.116123
-0.0858369
-0.0965084
-0.148168
-0.192987
-0.169343
-0.113741
-0.129855
-0.0897885
-0.100517
-0.0750634
-0.0813969
-0.0672189
-0.0703508
-0.0650296
-0.0654688
-0.0676705
-0.0657699
-0.0749049
-0.070687
-0.0871617
-0.0803693
-0.104169
-0.0951732
-0.123022
-0.113661
-0.138601
-0.131569
-0.146257
-0.143634
-0.144156
-0.146421
-0.133868
-0.139838
-0.119243
-0.126823
-0.104469
-0.111643
-0.0925089
-0.0980088
-0.0847146
-0.0880482
-0.0813874
-0.0824888
-0.0824616
-0.0813675
-0.0880102
-0.0846157
-0.0983411
-0.0924636
-0.114272
-0.105564
-0.135839
-0.124428
-0.0664177
-0.0675549
-0.0667117
-0.0660293
-0.0710832
-0.0683521
-0.080237
-0.0749862
-0.0953738
-0.0869561
-0.117813
-0.105603
-0.147741
-0.131921
-0.181867
-0.164681
-0.212067
-0.198121
-0.228602
-0.222571
-0.226203
-0.229857
-0.206439
-0.2182
-0.175686
-0.191946
-0.141906
-0.158706
-0.111491
-0.125991
-0.0874465
-0.0986105
-0.0697669
-0.0778648
-0.0573435
-0.0629588
-0.0494958
-0.0528407
-0.0460287
-0.0472307
-0.0480563
-0.0461616
-0.0554569
-0.0512288
-0.0747973
-0.0598636
-0.227813
-0.21767
-0.117989
-0.100044
-0.0753102
-0.138464
-0.0973232
-0.148527
-0.129164
-0.141499
-0.161401
-0.0909489
-0.185973
-0.0809167
-0.210606
-0.23366
-0.25223
-0.24212
-0.110029
-0.156855
-0.153683
-0.156767
-0.157818
-0.14849
-0.153711
-0.13322
-0.141642
-0.113368
-0.123712
-0.0905729
-0.102177
-0.179791
-0.227307
-0.203453
-0.136953
-0.157379
-0.104377
-0.119276
-0.0817218
-0.0917998
-0.0675173
-0.0736363
-0.0597986
-0.0629374
-0.0572277
-0.0579198
-0.0590158
-0.0576003
-0.0648853
-0.0614234
-0.0751407
-0.0694328
-0.0896024
-0.081928
-0.105805
-0.0977454
-0.11924
-0.113176
-0.125837
-0.123578
-0.124083
-0.125991
-0.115438
-0.120447
-0.103253
-0.109552
-0.0910855
-0.096972
-0.0814342
-0.0858364
-0.0754638
-0.0779501
-0.0734624
-0.0739603
-0.0754074
-0.0739313
-0.0814284
-0.0778742
-0.0920373
-0.0860646
-0.107912
-0.0992076
-0.117875
-0.0598822
-0.0647215
-0.0621081
-0.0574496
-0.0582781
-0.0582897
-0.0574249
-0.0628162
-0.0600506
-0.0717496
-0.0666578
-0.0862524
-0.078208
-0.107596
-0.0959941
-0.135994
-0.120987
-0.168337
-0.152058
-0.196813
-0.183698
-0.212095
-0.2066
-0.209362
-0.213047
-0.190368
-0.201605
-0.161254
-0.176619
-0.12942
-0.145247
-0.100649
-0.114397
-0.0776012
-0.0883519
-0.060308
-0.0682816
-0.0478038
-0.0535068
-0.0394813
-0.0431255
-0.0350627
-0.0367904
-0.0352871
-0.0344585
-0.0406331
-0.0374268
-0.0449945
-0.264361
-0.248839
-0.079122
-0.131466
-0.110373
-0.161916
-0.154492
-0.155822
-0.107961
-0.182386
-0.100817
-0.209543
-0.0866645
-0.235796
-0.258389
-0.274757
-0.0722719
-0.0541908
-0.282142
-0.266863
-0.0678402
-0.0568522
-0.122048
-0.1705
-0.167266
-0.169839
-0.171477
-0.160189
-0.166126
-0.142787
-0.152329
-0.120509
-0.1321
-0.095839
-0.108344
-0.0711125
-0.083152
-0.208501
-0.247166
-0.229428
-0.163751
-0.186441
-0.123727
-0.142476
-0.0933439
-0.107097
-0.0725037
-0.0818416
-0.0592342
-0.0650172
-0.0518033
-0.0548706
-0.0489863
-0.0498647
-0.050043
-0.0490545
-0.0546649
-0.0518983
-0.0630617
-0.0583635
-0.0751391
-0.0687035
-0.0888651
-0.0820184
-0.100332
-0.09515
-0.105989
-0.104045
-0.10458
-0.106149
-0.0974416
-0.101573
-0.0874612
-0.0926063
-0.0776403
-0.0823676
-0.0700706
-0.0734824
-0.0657408
-0.0674667
-0.0649154
-0.0648818
-0.0676181
-0.0658145
-0.07402
-0.0703296
-0.0846642
-0.0787604
-0.100193
-0.0917729
-0.120851
-0.10994
-0.145061
-0.13267
-0.0501217
-0.0519001
-0.0483731
-0.0488781
-0.0496101
-0.0485971
-0.0541488
-0.0514247
-0.0626942
-0.0578512
-0.0763391
-0.0687885
-0.0962859
-0.085453
-0.122779
-0.10878
-0.152946
-0.137765
-0.179407
-0.16725
-0.193317
-0.188396
-0.190315
-0.19397
-0.172322
-0.18291
-0.145137
-0.159456
-0.115533
-0.130248
-0.0886935
-0.101546
-0.0668997
-0.0771186
-0.0501515
-0.0579342
-0.0376414
-0.0434059
-0.028872
-0.0327937
-0.0237031
-0.0258314
-0.0223733
-0.0225211
-0.0252529
-0.0232272
-0.0354242
-0.0292964
-0.279115
-0.259849
-0.0597673
-0.0413423
-0.147484
-0.122979
-0.0594824
-0.175551
-0.12006
-0.157808
-0.134212
-0.146217
-0.20512
-0.110972
-0.23436
-0.0955965
-0.260732
-0.0795821
-0.281098
-0.292819
-0.294085
-0.265223
-0.28368
-0.0631062
-0.0422238
-0.136397
-0.175614
-0.167686
-0.184406
-0.181192
-0.183287
-0.185253
-0.172114
-0.178902
-0.15266
-0.163276
-0.127976
-0.140885
-0.101104
-0.114708
-0.0744958
-0.0875829
-0.223583
-0.242958
-0.236531
-0.186829
-0.206627
-0.145195
-0.165822
-0.108718
-0.125853
-0.0814599
-0.0938778
-0.0626548
-0.0711101
-0.0504859
-0.0558281
-0.0434676
-0.046403
-0.0405187
-0.0415269
-0.0409623
-0.04034
-0.0444743
-0.0423307
-0.0511814
-0.0474044
-0.0610652
-0.0557713
-0.0725171
-0.066781
-0.0822044
-0.077816
-0.0870357
-0.0853624
-0.0859555
-0.0872157
-0.0801576
-0.0835116
-0.0721227
-0.0762502
-0.0643711
-0.0680754
-0.0586427
-0.0611776
-0.0557643
-0.056818
-0.0559713
-0.0554735
-0.0593142
-0.0572397
-0.0659843
-0.0622053
-0.076488
-0.0707072
-0.0914982
-0.0833275
-0.111138
-0.100665
-0.122299
-0.0438138
-0.0482455
-0.0459717
-0.0404178
-0.0417987
-0.0393393
-0.039556
-0.0408477
-0.0397484
-0.0452788
-0.0426582
-0.0532981
-0.0487761
-0.0659108
-0.058947
-0.0842305
-0.0742898
-0.108527
-0.0956877
-0.136224
-0.122282
-0.160477
-0.149353
-0.172979
-0.168631
-0.169774
-0.173357
-0.152933
-0.162785
-0.127873
-0.141047
-0.100677
-0.114196
-0.0759182
-0.0877997
-0.0555515
-0.0651486
-0.0395281
-0.0470321
-0.0271536
-0.0329167
-0.0180207
-0.0221832
-0.0121166
-0.0146519
-0.00946495
-0.0103899
-0.0105075
-0.00938937
-0.0180689
-0.0134087
-0.0224994
-0.0216827
-0.0196339
-0.0183851
-0.0416181
-0.0203623
-0.0198013
-0.0620102
-0.262328
-0.241128
-0.165465
-0.137163
-0.170095
-0.15774
-0.196723
-0.132635
-0.228548
-0.120213
-0.25844
-0.102625
-0.283148
-0.0840951
-0.299391
-0.0634888
-0.304686
-0.298284
-0.279734
-0.00206539
-0.250676
-0.0375507
-0.0502994
-0.0393246
-0.230866
-0.0009006
-0.0191111
-0.0392792
-0.152482
-0.188874
-0.180599
-0.198072
-0.194958
-0.196268
-0.198628
-0.183625
-0.19124
-0.162245
-0.173859
-0.135342
-0.149282
-0.106316
-0.120978
-0.0778773
-0.0919068
-0.0521829
-0.064458
-0.217603
-0.208637
-0.2173
-0.197328
-0.210287
-0.162742
-0.181077
-0.12499
-0.143459
-0.0930666
-0.108123
-0.0691368
-0.0800694
-0.0524703
-0.0599891
-0.041506
-0.0463501
-0.0349933
-0.0377514
-0.0320114
-0.0330983
-0.0319585
-0.0316412
-0.034507
-0.0329085
-0.0397121
-0.0367574
-0.0476167
-0.0433558
-0.0570082
-0.0522772
-0.0651042
-0.0614207
-0.0692174
-0.067776
-0.0684364
-0.0694205
-0.0638095
-0.0664868
-0.0574581
-0.060706
-0.0514952
-0.0543148
-0.047361
-0.0491363
-0.0457381
-0.046211
-0.0468264
-0.0459353
-0.050681
-0.0483974
-0.0574882
-0.0536886
-0.0677048
-0.0621252
-0.0819405
-0.0742774
-0.100407
-0.0906394
-0.122035
-0.110966
-0.143889
-0.133181
-0.0336312
-0.0354583
-0.0310491
-0.0320829
-0.0304951
-0.0304985
-0.032166
-0.0310329
-0.0363875
-0.033921
-0.0437734
-0.0396275
-0.0552273
-0.0489171
-0.0717593
-0.0627961
-0.0936621
-0.0820845
-0.118696
-0.106084
-0.140648
-0.130587
-0.151782
-0.147973
-0.148457
-0.15193
-0.132838
-0.141916
-0.109984
-0.121973
-0.085276
-0.0975596
-0.0626702
-0.073546
-0.0438163
-0.0527442
-0.0286458
-0.0358019
-0.0165616
-0.0222444
-0.00723795
-0.0115526
-0.000738696
-0.0036199
0.00291731
0.00143982
0.00312017
0.0035874
-0.00143747
0.00135948
-0.00544509
-0.00376647
-0.00303817
-0.00445417
-0.00266725
-0.213144
-0.192706
-0.0164551
0.000827984
-0.184698
-0.152046
-0.0408741
-0.21829
-0.144313
-0.153667
-0.129063
-0.138056
-0.250929
-0.128623
-0.279506
-0.107915
-0.30053
-0.0859588
-0.31084
-0.0611179
-0.308572
-0.0359264
-0.293853
-0.267284
-0.231366
-0.0129699
-0.189742
-0.170782
0.00316963
-0.169552
-0.181387
-0.168277
-0.201265
-0.192481
-0.21071
-0.207453
-0.208151
-0.21099
-0.19407
-0.202472
-0.170862
-0.183421
-0.141981
-0.156893
-0.11102
-0.126626
-0.0809765
-0.0957983
-0.0537604
-0.0668439
-0.183626
-0.150497
-0.170248
-0.189173
-0.190186
-0.169459
-0.181491
-0.137296
-0.153851
-0.104731
-0.120593
-0.0772335
-0.0899705
-0.0567364
-0.0661573
-0.0422233
-0.0487953
-0.0325083
-0.0368278
-0.0265646
-0.0291122
-0.0236316
-0.0247535
-0.0231894
-0.0231197
-0.0249209
-0.0237882
-0.0288202
-0.0265836
-0.0349701
-0.031629
-0.0425157
-0.0386856
-0.0491975
-0.0461369
-0.0526904
-0.0514467
-0.0521743
-0.0529172
-0.0485507
-0.0506502
-0.0436278
-0.0461302
-0.0391781
-0.0412494
-0.0363927
-0.0375253
-0.0358282
-0.0358126
-0.0376431
-0.0364316
-0.0418821
-0.0394502
-0.0487124
-0.0449491
-0.058547
-0.0532136
-0.0719262
-0.0647613
-0.0890398
-0.0800152
-0.108881
-0.0986389
-0.119198
-0.0419885
-0.0272255
-0.0301916
-0.02884
-0.0240278
-0.0254985
-0.0221349
-0.0228733
-0.021972
-0.021823
-0.0237058
-0.0225844
-0.0276373
-0.0253636
-0.0343158
-0.0305827
-0.0445349
-0.0389172
-0.0591903
-0.0512515
-0.0785914
-0.0683316
-0.100861
-0.0896242
-0.120495
-0.11149
-0.130356
-0.12703
-0.127019
-0.130334
-0.112645
-0.120951
-0.0919684
-0.102788
-0.0697229
-0.0807831
-0.0492695
-0.0591357
-0.031961
-0.0401987
-0.0177209
-0.0244838
-0.00605766
-0.0115879
0.00326498
-0.00109823
0.0101351
0.00702232
0.0144565
0.0126238
0.0156272
0.0155247
0.0135439
0.0148953
0.0113364
0.0121429
0.0120177
0.0112191
0.0137241
0.0127126
0.0159675
0.0148055
0.00546566
0.0182064
0.0172811
-0.144397
-0.125975
-0.204062
-0.166485
-0.162011
-0.14564
-0.238599
-0.154744
-0.270175
-0.135201
-0.29534
-0.11099
-0.310654
-0.0848352
-0.31362
-0.057324
-0.303358
-0.0313243
-0.280438
-0.00936108
-0.247208
-0.206587
-0.161927
-0.116009
0.0290745
0.00715827
-0.0310987
0.0187334
0.0284047
-0.099144
-0.186515
-0.191058
-0.177361
-0.211869
-0.202747
-0.221483
-0.218247
-0.218229
-0.22151
-0.202835
-0.211953
-0.177973
-0.191382
-0.147364
-0.163141
-0.11484
-0.131144
-0.0834732
-0.0989521
-0.0551988
-0.0688742
-0.031605
-0.0428241
-0.128916
-0.0823572
-0.107202
-0.156231
-0.145763
-0.158421
-0.160216
-0.139713
-0.15107
-0.111838
-0.125939
-0.0845569
-0.0976626
-0.0618329
-0.0724887
-0.0445676
-0.052534
-0.03215
-0.0377994
-0.0236749
-0.0274677
-0.0183338
-0.0206497
-0.0155146
-0.0166351
-0.0147802
-0.014905
-0.0158357
-0.0150916
-0.0186257
-0.0170023
-0.0232489
-0.0207128
-0.0291574
-0.0261288
-0.0345854
-0.0320753
-0.0375381
-0.0364644
-0.0372509
-0.0377872
-0.0344717
-0.0360866
-0.0307373
-0.0326207
-0.0275407
-0.0289928
-0.0258693
-0.0264714
-0.0261723
-0.0257579
-0.0285649
-0.0271027
-0.0330727
-0.0305468
-0.039835
-0.036151
-0.0492086
-0.0441606
-0.0616472
-0.0550165
-0.0772722
-0.0690785
-0.0952628
-0.0860084
-0.11365
-0.104568
-0.128764
-0.121862
-0.0201627
-0.02155
-0.0210581
-0.0175316
-0.0189159
-0.0150846
-0.0162066
-0.013753
-0.0142467
-0.0138705
-0.0136191
-0.0155842
-0.0145121
-0.0191663
-0.0171124
-0.0250951
-0.0217941
-0.0340501
-0.0291381
-0.0468072
-0.0399032
-0.0636824
-0.0547532
-0.0831679
-0.0733133
-0.100523
-0.0925405
-0.109246
-0.106327
-0.10602
-0.109126
-0.092881
-0.100438
-0.0742757
-0.0839848
-0.0543748
-0.0642678
-0.0359983
-0.0448842
-0.0202257
-0.02777
-0.00696352
-0.0133027
0.0041773
-0.00114252
0.0133402
0.00901469
0.0203736
0.0171396
0.0250964
0.0230441
0.027042
0.0264558
0.0265458
0.0270725
0.0257943
0.0260206
0.0261559
0.0258451
0.0274688
0.0267482
0.0289564
0.0282441
0.0292178
-0.0710912
-0.0558526
0.0183368
0.0273237
-0.222071
-0.179435
-0.255819
-0.163019
-0.031836
-0.0217784
-0.133926
-0.111407
-0.116087
-0.284303
-0.138857
-0.304023
-0.110801
-0.31214
-0.0810124
-0.307147
-0.0519943
-0.289142
-0.0264046
-0.259405
-0.00632458
-0.221327
0.00787312
-0.177971
-0.131994
-0.0864625
0.0174982
-0.0432865
-0.0292642
0.0258316
-0.202066
-0.168488
-0.151499
-0.198558
-0.184414
-0.220012
-0.21069
-0.229693
-0.226544
-0.225834
-0.229486
-0.209355
-0.219063
-0.183143
-0.197245
-0.151173
-0.167624
-0.117467
-0.13431
-0.085197
-0.101108
-0.0563105
-0.0702359
-0.043346
-0.0169934
-0.00293947
0.00826577
-0.0652337
-0.0414327
-0.105652
-0.0871002
-0.12716
-0.118927
-0.126827
-0.129569
-0.11039
-0.120062
-0.0876088
-0.0992007
-0.0655934
-0.0762451
-0.0471149
-0.0558267
-0.0328639
-0.0394647
-0.0224323
-0.027205
-0.0151534
-0.0184334
-0.0104246
-0.0124984
-0.00776833
-0.0088583
-0.00682703
-0.00709888
-0.00733709
-0.00690948
-0.0092067
-0.00809472
-0.0125283
-0.0106834
-0.0170008
-0.0146795
-0.0213139
-0.0192937
-0.0237889
-0.0228651
-0.0236925
-0.0240552
-0.021613
-0.0228277
-0.0188505
-0.020229
-0.0166695
-0.0176205
-0.0158947
-0.0160708
-0.0168867
-0.0161574
-0.0197198
-0.0180704
-0.0243947
-0.0218214
-0.0310155
-0.0274445
-0.0398719
-0.0351356
-0.0513285
-0.0452522
-0.0654569
-0.0580744
-0.081665
-0.0733291
-0.0979058
-0.0898539
-0.105184
-0.0109944
-0.0123563
-0.0117989
-0.00871813
-0.00985708
-0.00685376
-0.00769158
-0.00595913
-0.00626299
-0.00626402
-0.00595272
-0.00789253
-0.00689868
-0.0110869
-0.00926885
-0.0162525
-0.013387
-0.0239566
-0.0197402
-0.0348532
-0.0289624
-0.0492523
-0.0416286
-0.0659987
-0.0575044
-0.0811449
-0.074143
-0.0888776
-0.0862825
-0.0859036
-0.0887436
-0.0739758
-0.0808176
-0.0572848
-0.0659729
-0.0395406
-0.0483573
-0.023104
-0.0310687
-0.00881613
-0.0156815
0.00344127
-0.00245234
0.013976
0.00891475
0.0228505
0.0186321
0.0298751
0.0266123
0.0348071
0.032626
0.037331
0.0363844
0.0378564
0.0377887
0.0380183
0.038013
0.0386644
0.038305
0.0393527
0.0390507
0.0395838
0.0396513
0.0380838
0.0390621
0.035005
0.0367028
0.0239087
0.030691
0.0330162
-0.237079
-0.189799
-0.0124659
-0.137308
-0.119172
-0.268107
-0.168024
-0.291581
-0.139131
-0.304461
-0.107296
-0.304778
-0.0752016
-0.292032
-0.045971
-0.267358
-0.0220196
-0.232864
-0.00438092
-0.192041
0.00776827
-0.147713
0.0162303
-0.102748
-0.0584814
-0.0169248
0.0220972
0.0364251
0.0216957
0.0279961
0.0334948
-0.214767
-0.172672
-0.155314
-0.203371
-0.188923
-0.225181
-0.215674
-0.234744
-0.231698
-0.230417
-0.234348
-0.213162
-0.223288
-0.18602
-0.200596
-0.153173
-0.170046
-0.11876
-0.135931
-0.0859351
-0.102029
-0.0566742
-0.0707694
-0.0318365
-0.0437137
-0.012214
-0.0214231
0.0377858
0.0529984
-0.00494128
0.0174473
-0.0472056
-0.0265511
-0.0821694
-0.0658912
-0.097472
-0.0917913
-0.0961415
-0.0988002
-0.0829132
-0.0905515
-0.0651523
-0.0742037
-0.0479348
-0.0562892
-0.0333304
-0.0402471
-0.0218338
-0.0271912
-0.0132221
-0.0171881
-0.00706266
-0.00985878
-0.0029327
-0.00476442
-0.000472619
-0.00151021
0.000602848
0.000225275
0.000521121
0.000697368
-0.000603596
9.23486e-05
-0.00284069
-0.00157657
-0.0060702
-0.00436719
-0.00938872
-0.00780819
-0.0114301
-0.0106439
-0.011484
-0.0117062
-0.00997634
-0.0108648
-0.00799645
-0.0089701
-0.0066211
-0.00717611
-0.00654736
-0.00639177
-0.00806596
-0.00709831
-0.0112151
-0.00943596
-0.0159682
-0.0133879
-0.0223887
-0.0189567
-0.0306967
-0.0262842
-0.0411725
-0.0356464
-0.0538587
-0.0472548
-0.0681878
-0.0608939
-0.0824869
-0.0754661
-0.0946252
-0.0889397
-0.101739
-0.0988826
-0.00390512
-0.00404413
-0.0041657
-0.00257118
-0.00332358
-0.000756651
-0.00165389
0.000644022
3.07306e-05
0.00121042
0.00104582
0.00079724
0.00113292
-0.000697713
0.000197437
-0.00348462
-0.00190863
-0.00789858
-0.00545865
-0.0144
-0.0108501
-0.0235241
-0.0185978
-0.03556
-0.0291843
-0.0496678
-0.0424873
-0.062686
-0.0566234
-0.069555
-0.0672116
-0.0669655
-0.0694853
-0.0562579
-0.062411
-0.0412979
-0.0490712
-0.0254779
-0.0333334
-0.0107984
-0.0179231
0.00209395
-0.0041243
0.0133433
0.0079072
0.0232021
0.018441
0.0316759
0.0276253
0.0385453
0.0353311
0.0435389
0.0412983
0.0464646
0.0452606
0.0477578
0.0472643
0.0484719
0.048138
0.0491059
0.0488023
0.0492702
0.0492985
0.0482458
0.0489588
0.0454824
0.0470102
0.0414661
0.0435805
0.0390456
0.0249911
0.0303435
-0.247453
-0.196431
-0.273957
-0.16897
-0.0118797
-0.00364398
-0.102911
-0.0847256
-0.0856677
-0.29104
-0.135783
-0.296452
-0.101104
-0.289213
-0.0682016
-0.269922
-0.0402232
-0.240335
-0.0187084
-0.203267
-0.00349631
-0.161558
0.00710852
-0.117935
0.0143511
-0.074623
0.0188691
-0.0323881
0.00739084
0.0441231
0.0215902
0.0268415
0.100603
0.108438
-0.223224
-0.138881
-0.120372
-0.174241
-0.156708
-0.205037
-0.190528
-0.22688
-0.217376
-0.236242
-0.23331
-0.231607
-0.235708
-0.213943
-0.22428
-0.186377
-0.20116
-0.153202
-0.170221
-0.118583
-0.135843
-0.0856609
-0.101759
-0.0564422
-0.0704943
-0.0316514
-0.0435067
-0.0209797
0.0495046
0.0661276
0.00935936
0.0290774
-0.0278928
-0.0100606
-0.0541271
-0.0431411
-0.0683942
-0.0636704
-0.0675827
-0.0694884
-0.0579499
-0.0635197
-0.0448671
-0.0515655
-0.0319333
-0.038245
-0.0206995
-0.026057
-0.0116095
-0.0158771
-0.0046183
-0.0078607
0.000516971
-0.00183257
0.0040757
0.00247933
0.0063187
0.00534937
0.00746758
0.00701948
0.00771181
0.00769392
0.00717418
0.00754063
0.0058173
0.00660577
0.00364447
0.00481497
0.00121437
0.00239689
-0.000418754
0.000233114
-0.000579173
-0.000690368
0.000466434
-0.000158661
0.00182446
0.00117075
0.00257449
0.00232494
0.00211836
0.0025226
0.00021784
0.00135558
-0.00313612
-0.00127854
-0.00789034
-0.00533738
-0.014066
-0.0107912
-0.0218161
-0.0177273
-0.0313449
-0.0263454
-0.0426635
-0.036794
-0.0552392
-0.048859
-0.0677425
-0.0616092
-0.0783331
-0.0734123
-0.0821782
0.00368176
0.00327196
0.00324948
0.00498405
0.00429372
0.00638832
0.00570022
0.00741182
0.00697495
0.00774082
0.00767234
0.00728389
0.00761561
0.00595626
0.00673963
0.0035802
0.00491645
-0.000113633
0.00192148
-0.00548804
-0.00256064
-0.0129665
-0.00893486
-0.0228028
-0.0175909
-0.0344189
-0.0284854
-0.0453914
-0.0402342
-0.0514751
-0.0493372
-0.049407
-0.0515335
-0.0399354
-0.0454112
-0.0265402
-0.0335023
-0.0123933
-0.0194148
0.000743092
-0.00563902
0.0123618
0.0067426
0.0226285
0.0176484
0.0317625
0.0273335
0.0397397
0.0359093
0.0463296
0.0432285
0.0512645
0.0490223
0.0544353
0.0530655
0.0561994
0.0554584
0.0572095
0.0567703
0.0577091
0.057523
0.0571991
0.057641
0.0550555
0.0563292
0.0514663
0.0534788
0.0468283
0.0492795
0.0413747
0.0441972
0.0349977
0.0382489
0.0229177
0.0275509
0.0313571
-0.251908
-0.198339
0.00351771
-0.102319
-0.0854473
-0.272502
-0.165555
0.105014
0.11604
0.116373
-0.282576
-0.12899
-0.280752
-0.0929931
-0.267109
-0.060919
-0.243027
-0.0353899
-0.210769
-0.0165822
-0.173038
-0.00335712
-0.13217
0.00565751
-0.0904012
0.0119017
-0.0488149
0.0155964
-0.00867699
0.0178261
0.0291545
0.0636211
0.088272
0.112934
0.0316577
0.0185831
0.0232121
0.0274117
-0.226326
-0.137976
-0.120016
-0.172881
-0.155673
-0.203365
-0.18899
-0.224902
-0.215542
-0.234017
-0.231194
-0.229246
-0.233399
-0.211578
-0.221899
-0.184153
-0.198848
-0.151242
-0.168116
-0.116969
-0.134051
-0.0844542
-0.100332
-0.0556389
-0.069498
-0.0312495
-0.0428918
-0.0113364
-0.0206811
0.00395119
-0.00315974
0.082028
0.0920377
0.0554715
0.0704489
0.0217083
0.038234
-0.00893177
0.00576048
-0.0308476
-0.0214311
-0.0417172
-0.0378178
-0.0421637
-0.0430362
-0.0360182
-0.0396758
-0.0270078
-0.0316801
-0.0176883
-0.0222842
-0.00928469
-0.0133294
-0.00225541
-0.00558364
0.0033158
0.000711541
0.00753111
0.0055859
0.0105573
0.00918388
0.0125736
0.0116828
0.0137469
0.0132574
0.0142299
0.0140668
0.014142
0.0142549
0.0134784
0.0138889
0.0121822
0.012904
0.0105408
0.0113625
0.00930497
0.00981881
0.00908638
0.00905556
0.0097651
0.00935008
0.0106345
0.0102304
0.0109099
0.0108898
0.0100698
0.0106515
0.00791314
0.0091613
0.00445176
0.00634297
-0.000237698
0.00225909
-0.00613651
-0.00303044
-0.0133353
-0.0095615
-0.0219681
-0.0174637
-0.03201
-0.0268252
-0.0429969
-0.0374349
-0.053864
-0.048535
-0.0630285
-0.0587723
-0.0687065
-0.0664131
-0.0695868
-0.0696853
0.00990663
0.010117
0.00985978
0.0105023
0.0101915
0.0116314
0.0110417
0.0127377
0.0122118
0.0134685
0.0131668
0.0136354
0.0136278
0.0131851
0.0134914
0.0120456
0.0127105
0.0100709
0.0111763
0.00705062
0.00870955
0.00270811
0.0050676
-0.00327844
-5.69606e-05
-0.011117
-0.00696444
-0.0204287
-0.0156565
-0.029441
-0.0251621
-0.0347521
-0.0328134
-0.03327
-0.034963
-0.0250901
-0.029876
-0.0131508
-0.0193792
-0.000444647
-0.00675478
0.0113757
0.00562966
0.0218699
0.0167871
0.0312106
0.0266692
0.0396014
0.0355217
0.0470143
0.0434429
0.0532322
0.0502918
0.0580145
0.0558177
0.0612901
0.0598368
0.0632995
0.0624337
0.0643677
0.0639464
0.0643734
0.0645344
0.0631326
0.063955
0.0603793
0.0619637
0.0563112
0.058488
0.0513584
0.0539358
0.0456098
0.0486299
0.0390304
0.0424461
0.0354675
0.0184656
0.0228342
-0.24967
-0.195139
0.121709
-0.263769
-0.157951
0.00421776
0.0104288
-0.0681665
-0.0548436
-0.0537632
-0.267021
-0.119475
-0.259037
-0.0839093
-0.240739
-0.054252
-0.213994
-0.0317799
-0.181079
-0.015529
-0.144236
-0.0042631
-0.105303
0.00354701
-0.0655914
0.00874777
-0.0260729
0.0118131
0.0121978
0.0132194
0.0481084
0.0135789
0.0793945
0.104635
0.123585
0.0131817
0.0178129
-0.223521
-0.100117
-0.0836972
-0.134932
-0.117586
-0.168878
-0.15216
-0.198498
-0.184536
-0.219379
-0.210307
-0.228168
-0.225462
-0.223442
-0.227524
-0.206186
-0.216257
-0.179466
-0.193779
-0.147421
-0.163852
-0.114054
-0.130684
-0.0823984
-0.0978599
-0.0542905
-0.067822
-0.0304959
-0.0418314
-0.0109565
-0.0201994
-0.0027768
0.10877
0.131895
0.0887345
0.0988881
0.0620897
0.0762291
0.0338969
0.0475011
0.0092074
0.0210189
-0.00894777
-0.000938859
-0.018447
-0.0147906
-0.020386
-0.0202346
-0.0172385
-0.0192883
-0.0115529
-0.01458
-0.00517023
-0.00836951
0.000903071
-0.00205551
0.00619887
0.00366591
0.0105482
0.00849657
0.0139519
0.0123663
0.016491
0.0153246
0.0182796
0.017473
0.0194388
0.0189316
0.0200877
0.0198204
0.0203336
0.0202573
0.0201978
0.0203181
0.0196058
0.0199609
0.0186519
0.0191507
0.01781
0.018177
0.0175865
0.0176045
0.0179834
0.0177325
0.0184728
0.0182615
0.0183956
0.0185431
0.0172924
0.0179922
0.0149861
0.0162939
0.0115008
0.0133872
0.00693129
0.00934813
0.00133173
0.00426234
-0.00533243
-0.00185991
-0.0131324
-0.00908545
-0.0220142
-0.0174494
-0.0315851
-0.0267535
-0.0409735
-0.0363753
-0.0488866
-0.0452038
-0.0539084
-0.051852
-0.0548551
0.0159136
0.0157471
0.0157214
0.0165761
0.0161883
0.0174777
0.0170073
0.0183305
0.0179325
0.0188442
0.0186401
0.0189116
0.0189362
0.0185053
0.018771
0.0175641
0.018109
0.0159712
0.0168596
0.0135679
0.0148844
0.0101506
0.0120028
0.00548643
0.00799097
-0.000580972
0.00263071
-0.00781001
-0.00409581
-0.0149623
-0.0115334
-0.0194532
-0.0177485
-0.0185258
-0.019788
-0.0116878
-0.0157579
-0.00117109
-0.0067021
0.0102645
0.00456849
0.0209799
0.0157662
0.0305147
0.0258948
0.0390172
0.0348807
0.0466837
0.0429513
0.0535036
0.05021
0.0592944
0.0565443
0.0638503
0.0617397
0.0670931
0.065637
0.0691145
0.068252
0.0699887
0.0697018
0.0695588
0.0699559
0.0677053
0.0688094
0.0644164
0.0662135
0.0600949
0.0623675
0.0550107
0.0576415
0.0492276
0.0522246
0.0426368
0.0460356
0.0353243
0.0390789
0.0267652
0.03119
0.0124179
0.0170871
0.0220217
-0.240891
-0.186934
0.015865
-0.0656356