/*--------------------------------*- C++ -*----------------------------------*\
  =========                 |
  \\      /  F ield         | OpenFOAM: The Open Source CFD Toolbox
   \\    /   O peration     | Website:  https://openfoam.org
    \\  /    A nd           | Version:  10
     \\/     M anipulation  |
\*---------------------------------------------------------------------------*/
FoamFile
{
    format      ascii;
    class       surfaceScalarField;
    location    "26";
    object      phi;
}
// * * * * * * * * * * * * * * * * * * * * * * * * * * * * * * * * * * * * * //

dimensions      [0 3 -1 0 0 0 0];

internalField   nonuniform List<scalar> 
57492
(
-0.00663424
0.000221657
0.0014328
0.00497979
0.00314859
-0.00512713
-0.0046557
-0.000794926
0.00240076
0.00821975
-0.00982559
0.0386347
0.0296063
-0.00603374
-0.0622073
-0.083126
0.0348172
0.0869435
0.0136707
-0.0130735
-0.00671832
0.00612108
-0.0248493
0.00719351
-0.00415144
0.0218072
0.00478967
-0.0159682
0.01267
-0.0407814
0.0388112
-0.0106997
0.010974
0.0373858
-0.0356898
0.000227084
0.00299314
-0.00539304
0.00217281
0.00146317
0.00020797
-0.00144405
-0.00134006
0.00204407
0.000759149
0.00126964
0.00038344
0.0276272
-0.0248321
-0.0102571
0.00746186
0.00208832
0.0212262
0.00431269
-0.00238616
0.00680473
0.035053
-0.0394716
-0.00635642
0.0346161
-0.0306459
0.0035497
-0.00773934
0.00418964
-0.0316267
0.022037
0.0131394
-0.047451
0.00474808
0.0345982
0.0081047
0.00940409
-0.048001
-0.00885404
-0.000737173
0.00155098
-0.00415191
0.00333811
0.00150452
-0.00243949
0.000197798
-0.0375107
0.0387617
0.00486384
-0.00611477
-0.0549323
0.027581
-0.0101594
-0.019407
0.00757293
0.00971714
0.00211691
-0.013886
-0.00617669
0.000655664
-0.0079506
-0.0229531
0.0276598
0.00324383
-0.00939461
0.00294583
-0.00150182
0.0131584
-0.00854442
-0.00806508
0.00345113
-0.0110655
0.00882022
0.0154036
-0.0165029
-0.0281388
0.020743
0.0238988
-0.0319835
-0.00938945
0.02487
-0.0201431
-0.00276652
0.0229097
-0.00623852
-0.0139046
-0.0313926
0.0390742
-0.0139201
0.00516686
-0.0202628
-0.0162966
-0.0119037
0.0190972
-0.00873776
-0.0377924
0.0203183
0.0174741
-0.0730596
0.0352672
0.0392226
0.00192404
-0.00500646
-0.0361402
0.0274314
-0.00911626
0.0209075
0.00245057
0.0413885
-0.0419151
0.0262594
0.00466895
-0.0261387
0.0253047
-0.00319673
0.0302938
-0.0106975
-0.022374
0.00277766
0.0341308
0.000831943
0.0201966
-0.0119332
0.0170412
0.0101587
0.0318452
-0.0425062
-0.00453397
0.00357747
0.0434627
-0.0438362
-0.00148208
0.00281213
0.00890874
0.0396302
-0.0390831
-0.00945587
0.00608125
-0.037954
-0.0272049
0.0415093
0.0364243
-0.0507288
0.00543771
0.0475717
-0.0802143
-0.000116152
0.00207551
-2.17007e-05
-0.00193765
0.00163841
0.000289517
-0.00086504
0.00116635
0.0013371
0.00148901
-0.00027854
-0.00106362
0.00104192
-0.00034229
-0.000721328
0.0955907
0.0390375
-0.0657662
-0.068862
0.0319629
-0.0195694
0.0831972
-0.0838268
0.0315819
0.0842077
0.0182517
-0.0630409
0.0107587
-0.0309301
0.0247668
-0.00459539
0.0267674
-0.0312614
0.0152527
0.00118371
-0.00115888
0.000196826
0.0020355
0.000581005
0.00555988
0.00145541
-0.0340127
0.0612964
0.0265916
-0.0538754
0.0366929
-0.0439382
0.0207458
0.0552141
-0.0146634
0.145687
-0.015409
-0.0394329
-0.0908453
0.0359799
0.0809306
0.0287768
0.0206403
-0.0575348
0.0728745
0.00149769
-0.00229261
0.00389845
0.0168713
0.0315373
-0.0132433
-0.0351654
0.0227541
0.00233704
0.00355618
-0.00156026
-0.00199592
0.0039158
-0.00035962
-0.083857
0.0404853
-0.0305102
0.0738819
-0.0731378
-0.0366079
0.0258887
-0.0401036
0.0353441
-0.0683783
0.0410748
-0.000794178
-0.0205897
-0.019691
-0.0162549
0.0463033
0.0110264
-0.0200111
-0.00199595
0.00575214
-0.0182691
-0.0025362
-0.00681499
-0.0320438
-0.0218537
0.00409073
0.00916455
0.00859844
0.00523362
-0.0129428
-0.0141445
0.00739926
0.00287024
-0.00503589
0.00923456
0.00225543
0.0166789
0.00172016
-0.0168135
0.0099985
0.00244984
-0.0192633
0.00324129
0.000674513
0.0464936
0.0310444
-0.00327086
0.0174369
-0.0540692
-0.00313994
0.0358816
-0.0265333
-0.00620842
-0.00492851
0.0413934
-0.0396049
0.0333547
0.020267
-0.0065524
-0.0470693
-0.00977461
0.00376782
0.0393614
0.043375
-0.0328826
-0.0142405
-0.0292484
0.00941864
0.0340703
-0.0134973
0.0339871
-0.0347303
0.00167201
-0.0444178
-0.0015208
-0.000536016
0.000284863
-0.000565367
0.00196976
0.00174419
-0.00357709
0.00312149
-0.000109768
-0.00825158
-0.000452648
-0.00460782
0.00963574
0.00211476
-0.00714269
0.0209668
-0.022545
-0.00302963
-0.0101948
0.0218034
0.00935818
-0.00434911
0.00379009
-0.0672772
0.0377957
0.0699669
0.0745283
-0.0261125
-0.0850237
-0.0327075
0.0399586
-0.00212696
-0.0176465
-0.00317963
-0.0117438
0.000222198
-0.000334989
-0.00504412
0.00357964
0.00179947
-0.00329623
0.0015478
0.00141344
-0.00443215
-0.0039082
-0.00549094
-0.00751277
0.00125994
-0.0154328
-0.0077046
-0.0142108
-0.0148571
0.0177897
0.0112781
0.000901094
0.00681758
-0.0219295
-0.0196284
0.00567239
-0.0472843
0.0176634
-0.00200581
-0.0472802
0.00437541
-0.00437946
0.00227908
-0.0368475
0.0325151
0.00205339
0.00199197
-0.0340017
0.0342888
0.00249235
-0.112399
-0.0277915
0.0343957
0.0343799
-0.044508
0.0415529
-0.00524521
-0.00264781
0.00551805
-0.0014499
-0.00119791
0.00665926
-0.00122449
0.0445118
-0.0280988
-0.0251308
0.00871778
0.0400089
0.00695353
0.0561432
0.00791854
-0.058624
0.0241616
0.0428179
-0.0108363
0.0100579
-0.0298809
0.0439846
-0.00107056
-0.00037934
0.0142806
-0.0438745
-0.045514
0.0267177
0.0549297
0.0143281
-0.000587019
-0.0150545
0.00131336
0.00488562
-0.00162293
-0.0184782
0.00379565
0.0235028
0.00323167
-0.0168243
-0.00364633
0.00132467
0.00816717
0.00149736
-0.00887423
-0.000790298
0.00180424
-0.00036796
0.0067309
0.0108181
0.0145329
-0.0235468
-0.0160662
0.0297663
-0.0104587
0.0680766
-0.061737
-0.0224058
-7.39526e-05
-0.0246117
0.0284813
-0.0734395
-0.0010622
-0.0537236
-0.0284451
0.00872916
0.0321262
0.0268485
-0.0542265
0.0216814
0.0488596
-0.0384148
0.020024
-0.0328396
0.0187042
-0.00588863
0.0216638
-0.0317907
0.0301509
0.0461068
0.0153399
0.0441851
-0.002296
-0.0440908
0.00220172
0.0486517
-0.00604642
0.00157979
0.0493445
-0.00735637
0.00015436
-0.0421425
0.0352465
-0.0116638
0.0257618
0.0412209
-0.0108481
0.00841944
-0.0387922
0.0095192
0.0419558
-0.010254
-0.0375179
-0.0134277
0.0400975
0.00768387
-0.0357832
-0.0143406
0.0349831
-0.0190381
-0.0320494
0.0168068
0.0342807
-0.0195358
-0.0326798
0.0331775
0.0181231
0.0310956
-0.0110032
-0.0382155
0.0306522
-0.0320648
-0.0212786
0.0211582
0.0307726
-0.0168342
0.0266512
-0.0407626
0.0361495
-0.00639007
-0.052854
0.00579082
0.0544167
-0.0073535
0.0149342
0.00710504
0.0168273
-0.014028
-0.00990432
0.00506355
0.0233164
-0.0212749
0.000384577
-0.00167101
-0.00696514
-0.0190464
-0.0291937
0.0180978
0.000316856
-0.000684815
3.24285e-05
0.000284427
-0.00347918
-0.033015
0.024561
-0.0288938
-0.00298803
0.0284027
0.00208092
-0.030165
-0.00080975
-0.00869368
0.0125027
0.00845967
-0.0122687
0.0182164
-0.00578563
-0.0211245
0.00769273
0.0230264
0.000234132
8.55186e-05
-0.000855666
-0.000202334
0.000436465
-0.000116815
0.000297245
-0.000445277
0.00163704
-0.000318101
0.000615346
-0.000763378
0.00106945
-0.000100141
0.000535207
-0.0010769
0.00214635
-0.00117704
0.00248953
-0.000237078
-0.00660156
-0.000917549
0.00340708
-0.00115463
0.0129919
0.0329539
-0.042178
0.0145815
-0.0443591
0.0427695
0.0467481
0.000787353
-0.0138281
-0.0248256
0.0137588
0.0248949
-0.00562818
0.0261697
-0.0343697
0.00370611
-0.0341599
0.0364103
-0.0370276
-0.0200226
0.0206399
0.0363141
-0.0195923
0.0196885
-0.0201659
-0.0371343
0.0202726
0.0363626
-0.0193329
0.0192843
0.0367468
-0.0178437
0.0174595
-0.0166189
0.037493
0.0158727
0.0359228
-0.0359748
-0.0165669
-0.0164342
0.0388931
0.015034
0.0349063
-0.0154177
-0.0352795
-0.0185389
-0.0355781
-0.0190344
-0.0359007
-0.0192696
-0.03685
-0.0190733
-0.0366107
-0.0204053
-0.0141037
0.0405307
0.0124661
0.0332278
-0.0124252
-0.0200904
-0.037037
0.0199931
-0.0373755
-0.0193256
-0.0199975
-0.0390334
0.021994
-0.00966729
0.0405529
0.0096451
0.0331024
-0.00954181
-0.0389363
-0.0184367
0.0406985
-0.00648995
0.00634439
-0.00303212
0.0408479
0.00288274
0.0330793
-0.00646693
0.0331017
-0.00305449
-0.0198279
-0.0390596
0.0198541
-0.0391828
-0.0195814
0.000542545
0.0410759
-0.00077054
0.033201
0.000443259
-0.0198802
-0.0392148
0.0200354
-0.0394495
-0.0196134
0.00412942
0.0413876
-0.0044412
0.0333964
0.00393407
-0.0200884
-0.0392448
0.0201183
-0.0395568
-0.0199811
0.00763294
0.0416929
-0.00793817
0.0336361
0.00739321
-0.020392
-0.0393412
0.0204885
-0.0397711
-0.0201777
0.0108561
0.0421282
-0.0112914
0.034019
0.0104732
-0.0207359
-0.0393178
0.0207125
-0.0398322
-0.0206749
0.0138132
0.0424368
-0.0141218
0.0344099
0.0134223
-0.0210386
-0.0394606
0.0211813
-0.0398909
-0.0209798
0.0162784
0.0428515
-0.0166931
0.034999
0.0156893
-0.0213794
-0.0384172
0.020336
-0.0393095
-0.0219607
0.0184325
0.0429369
-0.018518
0.035227
0.0182045
-0.0219791
-0.0383406
0.0219025
-0.0392312
-0.0220574
0.0201021
0.042936
-0.0201012
0.0353477
0.0199814
-0.0222223
-0.0372688
0.0211505
-0.0382388
-0.0232147
0.0230827
0.0407688
-0.0209155
0.0369117
0.0215188
-0.022595
-0.0370424
0.0223685
-0.0379052
-0.0229285
0.0236884
0.0384258
-0.0213454
0.0378512
0.0227489
-0.0227197
0.0221267
-0.0364494
-0.0378845
-0.0227405
0.0226365
-0.022559
0.0383483
0.0380069
0.0224807
-0.0364532
0.0373877
0.021434
-0.0359649
0.0216384
-0.0221617
0.0221154
-0.0364031
-0.0231353
-0.0369109
-0.0371954
0.0373838
0.0217141
0.0213428
-0.0363696
0.036451
0.0210999
0.0213502
-0.0364981
0.0365184
0.0204682
0.0206654
-0.0365123
0.0364827
0.0200649
0.0201244
-0.0364319
0.0383782
0.0200476
0.019905
-0.0382957
0.037527
0.0210413
0.0200757
-0.0386592
0.038189
0.0201586
0.0195078
-0.0371171
0.0366455
0.0179311
0.0203562
-0.0356777
0.035609
0.0151028
0.0168405
-0.0355556
0.0355284
0.00967236
0.0125194
-0.0355282
0.0355654
0.00284548
0.00634459
-0.0356384
0.0357568
-0.00455962
-0.00084353
-0.0359205
0.0361265
-0.0114974
-0.00810184
-0.0363628
0.0366167
-0.016947
-0.014358
-0.0368677
0.0371028
-0.0203363
-0.018769
-0.0374344
0.0379521
-0.021863
-0.0212472
0.0376478
-0.0222548
0.0226188
-0.0220266
0.0377561
0.0225202
0.0381055
0.0366616
-0.0353002
0.0201574
-0.037517
0.0378415
0.0221563
0.0218935
0.0347784
-0.033901
0.0173271
0.0194596
0.0334412
-0.0330252
0.0130062
0.0152295
0.0326773
-0.0324056
0.00712152
0.0101253
0.0322235
-0.0321306
0.00035037
0.00375198
0.0321267
-0.032205
-0.00638864
-0.00305845
0.0323589
-0.0325779
-0.0122063
-0.00938782
0.0335724
-0.0337388
-0.0164005
-0.0144232
0.0346406
-0.034624
-0.019051
-0.017637
0.0348368
-0.0350654
-0.0188447
-0.0190568
0.0359138
-0.0364188
-0.0188206
-0.0195569
0.035763
-0.0360489
-0.0192956
-0.0190925
0.0363098
-0.0365511
-0.0197397
-0.0193525
0.0367752
-0.036986
-0.0204641
-0.0199537
0.0371783
-0.0377457
-0.0213933
-0.0207875
0.0380117
-0.0387985
-0.0224279
-0.0217914
0.0389448
-0.0383302
-0.0233551
-0.0227821
-0.0382595
-0.023206
-0.0354284
0.021579
0.038033
-0.0224117
0.0218345
0.0385271
-0.0224438
0.022226
-0.0366931
-0.0227237
-0.0379796
-0.0217037
0.0209696
-0.0346943
-0.0358808
-0.0355917
0.0355622
0.0214635
0.0352161
-0.0347201
0.021083
0.0212628
-0.0356027
0.0359489
0.0213679
0.0213023
-0.0361563
0.0363205
0.0209358
0.0211428
-0.0364491
0.0365495
0.0203678
0.0205367
-0.0366223
0.0366705
0.0200167
0.0200517
-0.036695
0.0366893
0.0200534
0.0198804
-0.0366814
0.037391
0.0203316
0.0200836
-0.0366463
0.0366388
0.0201661
0.0202525
-0.037508
0.0368267
0.0186124
0.019487
-0.0366618
0.0366726
0.015092
0.0170054
-0.036687
0.0367106
0.0096487
0.0125051
-0.0367466
0.036799
0.00279301
0.00630864
-0.0368719
0.0369699
-0.00465771
-0.000916372
-0.0370946
0.0372458
-0.0116486
-0.00822649
-0.0374148
0.0375915
-0.0171237
-0.014527
-0.0377591
0.0379044
-0.0204816
-0.0189365
-0.0379426
0.0378969
-0.0218174
-0.0212854
-0.0225306
0.0225903
0.0376964
-0.022174
0.0376763
-0.037539
0.0375293
-0.0224021
-0.0218969
0.0371529
-0.0365921
0.0215955
0.0373859
0.0216016
-0.0219804
0.0225017
0.0380059
0.0387155
0.0359295
-0.0348322
0.0190601
0.0212309
0.0337718
-0.0332312
0.0167865
0.0183992
0.0327267
-0.032266
0.0125455
0.014725
0.0318801
-0.0315785
0.00681984
0.00973947
0.0313769
-0.031276
0.000249471
0.00355042
0.0312761
-0.0313702
-0.00629446
-0.00305841
0.0315491
-0.0318052
-0.0119502
-0.009209
0.0321218
-0.0324968
-0.0160255
-0.0141066
0.0329197
-0.033777
-0.0181938
-0.017214
0.0343172
-0.034341
-0.0188209
-0.0185166
0.0352023
-0.0352189
-0.0188039
-0.0186957
0.0356079
-0.0359628
-0.0189407
-0.0187034
0.0362886
-0.0365973
-0.019431
-0.0190268
0.0368917
-0.0371775
-0.0201783
-0.0196593
0.0374505
-0.03771
-0.0211338
-0.0205145
0.0379463
-0.0381529
-0.0222213
-0.0215552
0.0383132
-0.0385033
-0.0231651
-0.0226218
0.0384205
-0.0381706
-0.0229737
-0.0232888
-0.0340364
0.0202859
-0.0224471
0.0214916
-0.037024
-0.0379346
-0.0226831
0.0203218
-0.0355233
-0.022134
0.0374894
0.0376783
0.0222092
0.0204566
-0.0206266
-0.0345243
0.0196148
-0.0331946
-0.0212812
0.02022
-0.0359628
-0.021983
-0.0372327
-0.0361856
0.0382473
-0.0386807
-0.0219686
0.0376598
-0.0215466
0.0225518
-0.0221234
0.0375775
0.0217057
0.0385244
-0.0321196
0.0334307
0.0183037
0.0178172
-0.0187094
-0.0323023
0.0312391
-0.0176975
0.0161336
-0.0296752
0.0169366
-0.034239
0.0348015
0.0205205
0.0194776
-0.035022
0.0352691
0.0212164
0.0210423
-0.0354904
0.0356814
0.0211769
0.0210809
-0.0359703
0.0362136
0.0206925
0.0208539
-0.0364192
0.036596
0.0201911
0.0203311
-0.0367447
0.0368684
0.0198931
0.0199029
-0.03697
0.0370541
0.0199693
0.0197788
-0.03713
0.0372017
0.0202599
0.0200077
-0.0372861
0.037376
0.0200762
0.0201681
-0.0374668
0.0375714
0.0185078
0.0193963
-0.037673
0.0377654
0.0149996
0.0169038
-0.0378497
0.0379273
0.0095711
0.0124209
-0.0379993
0.0380692
0.00272307
0.00623662
-0.0381407
0.0382193
-0.00473636
-0.000987816
-0.0383086
0.0384096
-0.0117496
-0.00831572
-0.0385154
0.0386166
-0.0172249
-0.0146328
-0.0386987
0.0387504
-0.0205333
-0.0190187
-0.0387808
0.0385246
-0.0215612
-0.0213157
-0.0220529
-0.0217606
0.0214109
0.038046
0.0217702
-0.0220381
0.0377573
0.037686
0.038003
0.0365277
-0.0357355
0.0208033
-0.0371223
0.0377091
0.0216224
0.0210069
0.0344068
-0.0341343
0.0187876
0.0199022
0.0332436
-0.0326596
0.0162025
0.0175085
0.0321128
-0.031614
0.0120468
0.0141782
0.0311962
-0.0308689
0.0064925
0.00932167
0.0306499
-0.03054
0.00013957
0.00333144
0.0305397
-0.0306438
-0.00619028
-0.00305878
0.0308425
-0.0311287
-0.0116639
-0.00901039
0.03149
-0.0319232
-0.0155922
-0.0137454
0.0324095
-0.0329365
-0.0176667
-0.0167278
0.0334821
-0.0340323
-0.0182707
-0.017971
0.0345514
-0.0350416
-0.0183138
-0.0181766
0.0354889
-0.035904
-0.0185256
-0.018256
0.0362904
-0.0366628
-0.0190586
-0.0186405
0.0370234
-0.0373799
-0.0198218
-0.0192987
0.0377283
-0.0380711
-0.0207911
-0.020166
0.0383999
-0.0387109
-0.0219104
-0.0212263
0.0389864
-0.0392122
-0.0229393
-0.0223462
0.039346
-0.038976
-0.0233437
-0.0231549
0.0388237
-0.0390304
-0.0217764
-0.0228355
-0.019912
0.0195782
-0.0368989
-0.0384394
-0.020503
-0.0189729
-0.0342608
0.0199209
-0.0352243
-0.0215395
0.0371612
0.0382186
0.0211963
-0.0159092
-0.0340906
0.018982
-0.0353667
-0.00696473
-0.0268752
0.0415326
0.01755
-0.0184286
-0.0375608
0.0165507
-0.0358996
-0.020099
0.0305961
0.0125293
-0.0164789
0.00483961
-0.0352376
-0.0291535
0.0308326
0.0144545
0.0133001
-0.0118575
-0.0317072
0.0325574
0.0174535
0.016062
-0.0331664
0.0336669
0.0200201
0.0188685
-0.0342607
0.0346913
0.0207858
0.0204485
-0.0350296
0.035453
0.0207535
0.0207426
-0.0358156
0.0361323
0.0203757
0.0204914
-0.0364098
0.0366578
0.0199431
0.0200536
-0.0368783
0.0370758
0.0196956
0.0196824
-0.0372547
0.037422
0.019802
0.0195998
-0.0375846
0.0377522
0.0200923
0.0198451
-0.0379278
0.038115
0.019889
0.0199924
-0.0383071
0.0385013
0.0183136
0.0192042
-0.0386886
0.0388625
0.0148257
0.0167165
-0.0390162
0.0391493
0.00943804
0.0122671
-0.0392597
0.0393503
0.00263243
0.00612623
-0.0394243
0.0394881
-0.00480013
-0.0010618
-0.0395455
0.0395977
-0.0118019
-0.00837311
-0.0396396
0.0396627
-0.017248
-0.0146747
-0.0396564
0.0396111
-0.020488
-0.0190123
-0.0394405
0.0395709
-0.0216916
-0.0211451
-0.0391477
0.0386634
-0.0214843
-0.0216297
-0.0384349
0.0375597
-0.0206642
-0.0213182
-0.0209425
0.0211898
0.0375099
0.0215012
-0.021529
0.0375875
0.0377199
-0.0210412
0.0215053
0.0375819
0.0378346
-0.0216258
0.0213119
0.0378914
0.0378825
-0.0214441
0.0210262
0.0386365
0.0383921
0.0375381
-0.0367387
0.020823
-0.0389414
0.0376775
0.0222901
0.019793
0.0359226
-0.0351989
0.0200797
0.0201908
0.0340522
-0.0334315
0.0181668
0.0187555
0.0328031
-0.0321827
0.0155821
0.0168801
0.0316007
-0.0310708
0.0115169
0.0135962
0.0306264
-0.030277
0.00614314
0.0088772
0.0300418
-0.0299216
1.94657e-05
0.00309617
0.0299188
-0.0300287
-0.00608045
-0.00306158
0.0302426
-0.0305556
-0.0113508
-0.00879649
0.0309548
-0.0314363
-0.0151107
-0.0133462
0.0319775
-0.0325673
-0.0170769
-0.0161866
0.0331745
-0.0337817
-0.0176634
-0.0173639
0.0343587
-0.0349021
-0.0177704
-0.0175996
0.0354012
-0.0358695
-0.0180574
-0.0177569
0.0363112
-0.0367425
-0.0186273
-0.0181987
0.0371649
-0.0375876
-0.0193991
-0.0188763
0.0380071
-0.0384286
-0.0203696
-0.0197465
0.038845
-0.0392552
-0.0215002
-0.0208099
0.0396433
-0.0399962
-0.0225865
-0.0219581
0.0402864
-0.0404879
-0.0231422
-0.0228646
0.0404605
-0.0399183
-0.0223185
-0.0228629
0.0400428
-0.0394805
-0.0189909
-0.0203785
-0.0152723
0.0145783
-0.0368667
-0.0384989
-0.0162539
-0.0168982
-0.0332718
0.0181914
-0.0344336
-0.0118173
-0.0292381
0.0163655
-0.0351815
0.0389365
-0.0391118
-0.0204888
0.0379511
-0.0205436
0.0213368
-0.021169
0.0384688
0.0202611
0.0387532
-0.00786813
-0.0247927
0.0139207
-0.0352421
-0.0173974
-0.0113502
-0.0233614
0.027038
0.00885268
-0.0114259
0.0105602
-0.036001
-0.0123099
-0.0376149
-0.0208229
0.00230107
-0.0339445
-0.0286078
0.0296778
0.0133845
0.0117303
-0.0306346
0.0311971
0.016891
0.0151053
-0.0319227
0.032774
0.0191687
0.018143
-0.0335252
0.0341859
0.0201251
0.0196973
-0.0347563
0.035255
0.0202549
0.0201721
-0.0356894
0.0360758
0.0199894
0.0200569
-0.0364209
0.0367357
0.0196283
0.0197085
-0.0370235
0.0372912
0.0194279
0.0193946
-0.0375436
0.0377899
0.0195557
0.0193474
-0.0380364
0.0382934
0.0198353
0.0195985
-0.0385611
0.0388431
0.019607
0.0197248
-0.0391297
0.0394154
0.0180279
0.0189175
-0.0396882
0.0399415
0.0145724
0.0164436
-0.0401642
0.0403534
0.00924887
0.0120445
-0.0405039
0.0406177
0.00251859
0.00597572
-0.0406975
0.0407497
-0.00485229
-0.00114163
-0.0407784
0.0407848
-0.0118083
-0.00840178
-0.0407653
0.0407123
-0.017195
-0.0146553
-0.0406186
0.0404776
-0.020347
-0.0189186
-0.0402915
0.0400615
-0.0214616
-0.020959
-0.0397451
0.0393695
-0.0211087
-0.0213133
-0.0210605
-0.0206711
0.0202865
0.0378946
0.0205618
-0.0207616
0.0377874
0.0376105
-0.0205784
0.0205615
0.0375987
0.0375427
-0.0210322
0.0214189
0.0375047
0.0374118
0.038642
0.0371617
-0.0363409
0.0200022
-0.0369766
0.0386356
0.0206311
0.0199781
0.0355928
-0.0343918
0.0188787
0.0194427
0.0337632
-0.033108
0.0175117
0.0181269
0.0324487
-0.0317975
0.0149308
0.0162208
0.0311878
-0.0306334
0.0109625
0.0129866
0.0301674
-0.0297995
0.00577525
0.00841119
0.0295494
-0.0294189
-0.000111004
0.00284604
0.0294112
-0.0295237
-0.00596797
-0.00306934
0.0297491
-0.0300844
-0.0110155
-0.00857108
0.0305161
-0.0310397
-0.0145871
-0.0129144
0.0316297
-0.0322728
-0.0164339
-0.0155966
0.032932
-0.033589
-0.0170064
-0.0167047
0.0342128
-0.0348007
-0.0171824
-0.0169758
0.0353441
-0.0358589
-0.0175425
-0.0172135
0.0363499
-0.0368341
-0.0181431
-0.0177077
0.0373125
-0.0377955
-0.018916
-0.0183979
0.0382803
-0.0387744
-0.0198755
-0.0192617
0.039272
-0.0397749
-0.0209973
-0.0203124
0.0402686
-0.0407432
-0.0221119
-0.0214643
0.0411709
-0.041525
-0.0227881
-0.0224369
0.0417671
-0.0418649
-0.0222208
-0.0226208
0.0411951
-0.0408129
-0.0193731
-0.0210482
0.0402763
-0.0392962
-0.01329
-0.0167905
-0.00779694
0.00704544
-0.0368634
-0.0382467
-0.00884644
-0.0141528
-0.0309363
0.0155771
-0.0336452
-0.0202317
0.0374212
0.0386957
0.020201
-0.00946932
-0.0276369
-0.00826114
-0.0302607
-0.00644466
-0.0266092
0.0131139
-0.0343747
0.010092
-0.034774
-0.0283949
-0.0037782
0.00147117
-0.00439165
-0.0254744
-0.00305501
-0.0257346
0.0061493
-0.0351049
-0.00334607
0.00179258
-0.0353099
-0.00407351
-0.0375193
-0.0325202
-0.0239823
0.0259434
0.00689152
0.0241312
-0.0259788
-0.0019306
0.00244995
-0.0274823
0.0285007
0.0123661
0.0101914
-0.0294916
0.030482
0.0159006
0.0141143
-0.0314346
0.0323314
0.0182719
0.0171904
-0.0331439
0.0338729
0.019396
0.0188849
-0.0345149
0.0350843
0.0196855
0.0195302
-0.0355874
0.0360405
0.0195363
0.0195538
-0.03645
0.0368282
0.0192502
0.019299
-0.0371789
0.0375122
0.0190946
0.0190438
-0.0378329
0.0381529
0.0192357
0.0190267
-0.0384779
0.0388187
0.0194946
0.0192735
-0.0391738
0.0395455
0.0192353
0.0193697
-0.0399217
0.0402958
0.0176538
0.0185413
-0.0406519
0.0409823
0.014242
0.0160875
-0.0412721
0.0415164
0.00900457
0.0117547
-0.0417073
0.0418459
0.00237994
0.00578488
-0.0419346
0.0419795
-0.00489712
-0.00123035
-0.0419843
0.0419497
-0.0117737
-0.00840665
-0.0418726
0.0417459
-0.0170683
-0.0145782
-0.0415668
0.0413311
-0.0201114
-0.0187395
-0.041046
0.0407146
-0.0211302
-0.0206739
-0.040354
0.0401384
-0.0208931
-0.0209526
-0.0395242
0.0390272
-0.0199918
-0.0204463
-0.0380902
0.037547
-0.0196885
-0.0196067
-0.0197317
0.0199831
0.037536
0.0203923
-0.01962
0.0367748
0.0380818
-0.0199686
0.02024
0.0376231
0.0376251
-0.0203197
0.0203275
0.037591
0.0374629
-0.0202635
0.0201293
0.0376388
0.0374758
-0.0205748
0.0205559
0.0384876
0.0381966
-0.0202818
0.0198971
0.0390804
0.0390274
0.0383232
-0.0373068
0.0196147
-0.0388099
0.038765
0.0199419
0.0197143
0.0365697
-0.0358654
0.0192979
0.019241
0.0348317
-0.0341969
0.0182439
0.018409
0.0335405
-0.032856
0.0168272
0.0174704
0.0321725
-0.0314982
0.0142566
0.0155373
0.0308683
-0.0302955
0.0103897
0.0123566
0.0298127
-0.0294296
0.00539208
0.00792846
0.0291662
-0.0290254
-0.000251812
0.00258272
0.029012
-0.029125
-0.005855
-0.00308273
0.0293591
-0.029713
-0.0106616
-0.00833695
0.0301729
-0.0307331
-0.0140269
-0.0124545
0.0313653
-0.0320529
-0.0157463
-0.0149644
0.0327548
-0.0334518
-0.0163094
-0.0160029
0.0341121
-0.0347355
-0.0165591
-0.0163154
0.0353154
-0.0358698
-0.0169881
-0.0166337
0.0364037
-0.0369344
-0.0176125
-0.0171738
0.0374622
-0.0379987
-0.0183795
-0.0178701
0.0385416
-0.0391006
-0.0193165
-0.0187189
0.0396711
-0.040258
-0.0204104
-0.0197418
0.0408481
-0.0414349
-0.0215252
-0.0208741
0.0419909
-0.0424922
-0.0222868
-0.0218809
0.0428969
-0.0431658
-0.0219519
-0.022216
0.0432515
-0.0431275
-0.0194971
-0.0209625
0.0427858
-0.0419189
-0.0141568
-0.0171322
0.0408309
-0.0392452
-0.00565919
-0.00993444
0.000290727
-0.0018029
-0.0360071
-0.0380734
-0.000881063
-0.0110635
-0.0293421
-0.0254341
-0.00493628
-0.00668019
-0.0274014
0.0380961
-0.0389827
-0.0188019
0.0374748
-0.0189987
0.0205569
-0.0202847
0.0388082
0.0201189
0.039203
0.0122635
-0.0327948
0.0092579
-0.0335406
-0.00260954
-0.0270546
0.00578437
-0.034409
0.00201054
-0.0353228
-0.00186129
-0.0352515
0.00539497
-0.00614967
-0.0352524
0.00365134
-0.0363298
-0.0313201
-0.0250343
0.0243297
-0.00122599
-0.00747366
0.00816913
-0.0261296
0.0255455
-0.0262405
-0.00677864
-0.00442505
-0.0242289
0.0255976
0.00552284
0.00255073
-0.0270002
0.0281152
0.011251
0.00878881
-0.0291066
0.0300997
0.0149076
0.0131229
-0.0310637
0.0319841
0.0173516
0.0162264
-0.0328348
0.0336138
0.0186171
0.0180341
-0.0343131
0.0349438
0.0190547
0.0188309
-0.0355092
0.0360243
0.0190211
0.0189884
-0.0364942
0.0369317
0.0188126
0.0188291
-0.0373414
0.0377353
0.0187007
0.0186342
-0.0381191
0.0385068
0.018848
0.0186429
-0.0389038
0.0393215
0.019077
0.0188764
-0.039757
0.0402117
0.0187806
0.0189341
-0.0406713
0.0411282
0.017197
0.0180817
-0.0415629
0.0419658
0.013839
0.0156528
-0.0423192
0.042616
0.00870772
0.0114013
-0.0428463
0.0430115
0.00221472
0.00555459
-0.0431125
0.0431549
-0.00493958
-0.00133128
-0.0431416
0.0430712
-0.0117034
-0.00839326
-0.0429411
0.0427444
-0.0168716
-0.0144481
-0.0424827
0.0421548
-0.0197835
-0.0184777
-0.0417744
0.0413473
-0.0207032
-0.0202935
-0.0408936
0.0404195
-0.020419
-0.0204989
-0.0398762
0.0394861
-0.0196018
-0.0199029
-0.0191033
-0.0195926
0.0195031
0.0376254
0.018745
-0.0191299
0.0371597
0.0372341
-0.0198422
0.0200157
0.0374497
0.037286
-0.0201174
0.0201473
0.0375612
0.0373612
-0.0201051
0.0199921
0.0377518
0.037518
-0.0204426
0.0203375
0.0385928
0.0377461
0.0390801
0.0380475
-0.0374924
0.0190596
-0.0385265
0.0391082
0.0193603
0.0192352
0.0363977
-0.0353363
0.0182366
0.0181463
0.0347171
-0.0340571
0.0175839
0.0177898
0.0333764
-0.03267
0.0161208
0.0167897
0.0319685
-0.0312781
0.0135661
0.0148358
0.0306342
-0.0300483
0.00980383
0.0117128
0.0295532
-0.0291579
0.00499676
0.00743334
0.0288832
-0.0287329
-0.000402172
0.00230804
0.0287136
-0.0288262
-0.00574234
-0.00310204
0.0290676
-0.0294378
-0.0102915
-0.00809552
0.0299225
-0.0305147
-0.0134347
-0.0119698
0.0311826
-0.0319063
-0.0150226
-0.0142965
0.0326412
-0.0333676
-0.0155829
-0.015268
0.0340546
-0.0347046
-0.0159091
-0.0156285
0.0353132
-0.0359002
-0.016401
-0.016025
0.0364703
-0.0370407
-0.0170421
-0.0166037
0.0376108
-0.0381934
-0.017797
-0.0172999
0.0387863
-0.0394015
-0.0187013
-0.018126
0.0400354
-0.0406955
-0.0197503
-0.019108
0.0413706
-0.0420574
-0.0208384
-0.020199
0.04273
-0.0433665
-0.0216503
-0.0212084
0.0439219
-0.0443549
-0.0215189
-0.0216606
0.0446127
-0.0446551
-0.0194547
-0.0207048
0.0444521
-0.0439965
-0.0146124
-0.0173352
0.0428389
-0.0414044
-0.00709369
-0.011092
0.0400702
-0.0388584
0.00243953
-0.00221529
-0.00594796
0.00294136
-0.022728
-0.0232532
0.00888464
-0.00974591
-0.0354685
-0.0367339
0.00676014
-0.00755139
-0.0284709
-0.0184852
0.0368301
0.0400293
0.0191977
0.009094
-0.0261154
-0.00921911
0.00840667
-0.0319436
0.0100276
-0.0270632
-0.00286635
-0.0271445
0.00496187
-0.0327181
0.00190288
-0.0260161
0.00118514
-0.0335836
-0.00272673
-0.0344574
-0.00657757
-0.0348236
-0.0106022
-0.0343961
0.0128215
-0.0139943
-0.0342958
0.0114729
-0.0353853
-0.0304648
-0.026098
0.0251869
-0.00586755
-0.0120079
-0.0260563
0.0119487
0.0268124
-0.0265794
-0.0122409
-0.00850469
-0.024771
0.0246707
-0.00112563
-0.00400913
-0.0250473
0.025542
0.00502815
0.00217406
-0.0266554
0.0278009
0.0101056
0.00767544
-0.0288029
0.029806
0.0139045
0.0121209
-0.0307818
0.0317197
0.0164136
0.0152506
-0.0325974
0.0334129
0.0178015
0.0171565
-0.0341566
0.0348377
0.0183737
0.0180872
-0.0354564
0.0360264
0.0184512
0.0183696
-0.0365508
0.0370429
0.0183205
0.0183047
-0.0375068
0.0379564
0.0182511
0.0181703
-0.0383979
0.0388471
0.0183988
0.0182014
-0.0393092
0.039796
0.0185901
0.0184143
-0.0403037
0.0408331
0.0182513
0.0184264
-0.0413679
0.0418997
0.0166652
0.0175469
-0.0424058
0.0428749
0.0133699
0.0151467
-0.0432864
0.0436325
0.00836156
0.0109899
-0.0439012
0.0440941
0.00202184
0.00528593
-0.0442112
0.0442568
-0.00498518
-0.00144841
-0.0442312
0.044131
-0.0116031
-0.0083677
-0.0439528
0.0436906
-0.0166094
-0.0142699
-0.04335
0.0429339
-0.0193675
-0.0181371
-0.0424624
0.0419446
-0.0201853
-0.019822
-0.0414044
0.0408473
-0.0198619
-0.0199588
-0.0402939
0.0397973
-0.0191052
-0.0193495
-0.0393209
0.0386638
-0.0181448
-0.0186269
-0.037507
0.036891
-0.0178692
-0.0178419
-0.0183601
0.0186572
0.0368626
0.0185495
-0.0177335
0.036075
0.0370195
-0.0188721
0.0194061
0.0370915
0.0370192
-0.0196689
0.0198636
0.037255
0.0370232
-0.0199862
0.0200362
0.0375111
0.0372386
-0.020013
0.0199179
0.0378469
0.0375412
-0.0197529
0.0201056
0.0382401
0.0379111
-0.0199782
0.0196655
0.0391209
0.0392076
-0.019042
0.0190265
0.0400448
0.0398265
0.0392887
-0.0384408
0.0185124
-0.0398853
0.0403957
0.0185162
0.0186011
0.037709
-0.036481
0.0178316
0.0185035
0.0359039
-0.0352872
0.0176198
0.0175692
0.0346455
-0.0339641
0.0169025
0.0171481
0.033265
-0.0325433
0.0153991
0.0160906
0.0318297
-0.0311289
0.0128653
0.0141222
0.0304765
-0.0298822
0.00920956
0.0110603
0.0293785
-0.0289739
0.00459222
0.00692965
0.0286901
-0.0285315
-0.000560813
0.00202419
0.0285071
-0.0286199
-0.00562953
-0.00312637
0.0288686
-0.029254
-0.00990604
-0.0078469
0.0297613
-0.0303814
-0.0128145
-0.0114626
0.0310786
-0.0318297
-0.0142715
-0.0135993
0.0325875
-0.0333329
-0.0148375
-0.0145102
0.0340367
-0.0347047
-0.0152411
-0.0149248
0.0353346
-0.0359474
-0.0157882
-0.0153951
0.0365469
-0.0371499
-0.0164392
-0.0160042
0.0377551
-0.0383758
-0.0171762
-0.0166946
0.0390105
-0.0396726
-0.0180392
-0.0174913
0.0403593
-0.0410807
-0.0190289
-0.0184213
0.0418274
-0.0426002
-0.0200656
-0.0194523
0.0433753
-0.0441343
-0.0208913
-0.0204333
0.0448314
-0.0454241
-0.0209262
-0.0209635
0.0458514
-0.0460637
-0.0192424
-0.0202774
0.0460159
-0.0456866
-0.0149417
-0.0173831
0.0450882
-0.0442466
-0.00793527
-0.0116904
0.0427383
-0.0409595
0.000660696
-0.00372364
0.0391966
-0.0368906
0.00916688
0.0049973
-0.0114826
0.00673365
-0.017979
-0.0247083
0.0158195
-0.0168312
-0.0343735
-0.0356492
0.0145781
-0.00336183
-0.0279754
0.00415126
-0.031133
0.0136908
-0.0272725
-0.0129978
-0.0265748
0.0142093
0.010643
-0.0257575
0.00124277
-0.0264844
0.000402991
-0.0319359
0.0375722
-0.0382099
-0.0172314
0.0365845
-0.0167458
0.0190389
-0.0192931
0.040299
0.018881
0.0405535
0.00608351
-0.025366
-0.00351434
-0.032796
-0.00739165
-0.0336433
-0.0110186
-0.0344072
-0.0142074
-0.0341831
-0.0176579
-0.0334691
-0.0136621
-0.0280205
0.0144101
-0.0287571
0.0282228
-0.0131278
0.014297
-0.0301109
-0.0129433
0.0187238
-0.0323798
-0.0207175
0.0168898
-0.0338152
-0.0294224
0.0156989
-0.0296754
-0.0261839
0.0244486
-0.0105055
-0.0109589
-0.0245353
0.0247504
-0.00608263
-0.0085914
-0.0244217
0.0243869
-0.00109085
-0.00368041
-0.0249607
0.0257107
0.00427812
0.00160025
-0.0265957
0.0275681
0.00913316
0.00679045
-0.0285683
0.0295768
0.0128959
0.0111208
-0.0305633
0.0315175
0.0154594
0.0142641
-0.0324177
0.0332628
0.0169564
0.0162563
-0.0340424
0.0347649
0.0176512
0.0173075
-0.0354285
0.0360456
0.0178341
0.0177061
-0.0366179
0.0371585
0.0177798
0.0177324
-0.0376712
0.038171
0.0177513
0.0176577
-0.0386645
0.0391685
0.0178948
0.0177079
-0.0396882
0.0402358
0.0180425
0.0178947
-0.0408065