/*--------------------------------*- C++ -*----------------------------------*\
  =========                 |
  \\      /  F ield         | OpenFOAM: The Open Source CFD Toolbox
   \\    /   O peration     | Website:  https://openfoam.org
    \\  /    A nd           | Version:  10
     \\/     M anipulation  |
\*---------------------------------------------------------------------------*/
FoamFile
{
    format      ascii;
    class       surfaceScalarField;
    location    "6.5";
    object      phi;
}
// * * * * * * * * * * * * * * * * * * * * * * * * * * * * * * * * * * * * * //

dimensions      [0 3 -1 0 0 0 0];

internalField   nonuniform List<scalar> 
17221
(
0.0841938
-0.0256949
-0.0701082
0.0116093
0.00160633
0.0766862
0.00590134
0.0656078
-0.0194347
-0.071868
0.0869145
-0.00991752
-0.0786572
0.00166024
0.0154363
0.0775827
-0.00610454
0.0738992
0.0185576
-0.0770205
-0.000553473
-0.00344763
0.069966
-0.0659649
-0.00806177
-0.0679336
0.0754419
0.00212847
-0.0423376
0.00796832
0.0322408
-0.0424732
0.00861617
0.0359855
0.00185708
0.043916
-0.0518462
0.00607311
-0.0488537
0.0507108
-0.000372834
0.0599655
-0.060484
0.000891388
0.0595899
0.00366394
-0.0636267
0.0455448
0.0518601
-0.0212542
-0.0761506
0.0371131
-0.0259474
0.034379
0.0160326
0.061845
-0.0733803
-0.00449732
0.00734143
0.053793
-0.0451018
-0.0465166
-0.0102135
0.0640715
-0.0288622
-0.0605522
0.0728845
0.0165299
-0.066012
0.0024087
0.034741
0.0439192
0.0448619
-0.0505298
-0.0382513
0.0995645
-0.0649216
0.00927632
-0.0293799
0.0113236
0.0836642
-0.111516
-0.0588435
0.0839377
0.0864215
-0.047406
0.0302638
-0.0943734
0.0995064
-0.095527
-0.0513855
0.0857339
-0.045071
-0.0294676
-0.0556888
0.014414
0.0707424
-0.0129206
-0.0575664
0.0410194
-0.0610652
0.00320174
0.0449429
-0.0930633
0.00350481
0.0665851
0.0229734
0.0238577
-0.0934201
-0.0235009
0.113863
0.0245408
-0.114546
0.0158728
0.101495
0.0665093
-0.000105735
-0.0190685
-0.0473351
0.0115902
0.067293
-0.0123739
-0.0418185
0.0410505
0.0639353
-0.0631674
0.102454
-0.0792997
-0.0248808
0.00172603
0.0713211
-0.010685
0.0348811
0.0938452
-0.0376897
0.0238349
0.0112825
-0.0155521
0.00426957
0.00927126
-0.0122322
0.0142435
0.0900931
-0.0420062
-0.0480869
-0.0582613
0.0474805
0.100874
0.00294316
-0.00365875
-0.00389267
0.00460826
-0.00275627
0.00122114
0.0044783
-0.00533881
-0.0010762
0.0432914
0.0679672
-0.065608
-0.0456507
0.0540591
-0.0724743
0.0617067
-0.0321284
0.0465729
0.0396145
-0.0218587
0.0576976
-0.0845895
0.0152334
0.0695564
-0.000200275
-0.0748235
-0.00804155
-0.00172449
-0.0084116
-0.0665129
0.000101001
-0.0651943
0.00355209
0.0675123
-0.00587008
0.0079379
-0.0699236
-0.00320857
-0.0535758
0.0582228
-0.00991382
0.00526685
0.0163519
-0.0663756
-0.0751427
-0.00805913
0.0698254
0.0133764
-0.00915253
-0.0737424
0.00775224
0.075065
-0.014497
-0.0668825
0.00631438
-0.00986327
0.0757758
0.00644817
-0.0584985
0.00308478
0.0489656
0.063557
-0.000385357
-0.0567235
0.0701031
-0.0099937
-0.0966655
0.00227628
0.0348043
0.0595849
-0.00250789
-0.103174
0.00901622
-0.000596915
0.0976536
-0.00973047
-0.0583928
0.00661011
0.0615131
-0.0630437
0.0607217
-0.00740848
0.0121396
-0.0644312
-0.0061012
-0.0637891
0.00694618
0.0689825
0.0143789
0.0595429
-0.013823
-0.0600987
0.0583576
-0.0617369
0.0177581
-0.0148565
0.0608502
0.0135491
-0.0130553
0.059122
-0.0609232
0.024845
-0.083157
-0.0688139
-0.000937182
-0.00021543
0.0699665
-0.0751997
0.0126194
-0.00623371
-0.00279872
-0.0574576
0.000621461
0.0596349
-0.0567407
0.0595743
-0.00563227
0.0871825
-0.0731527
0.0108152
0.0901977
0.00600101
0.0730392
-0.00633095
0.0578583
-0.0560899
0.00456251
0.0551797
-0.00709567
-0.054415
0.00461812
0.0578252
-0.0593382
-0.00310507
0.0577916
0.00402535
-0.0571988
0.0840124
-0.0523458
-0.0400782
0.0721963
0.00377456
-0.00137074
-0.00123913
-0.063903
0.0264352
0.077303
-0.0314905
-0.0722477
0.0215017
0.0755395
-0.070606
-0.0483921
-0.0172218
0.0547601
0.0108538
-0.00621199
0.0393384
-0.0815185
0.0589709
0.00469243
-0.0698753
0.0441853
-0.00243625
-0.00953348
-0.0623549
0.0711715
0.00071691
-0.036394
0.0816206
0.0669974
0.0053761
-0.00752268
-0.0648509
0.00724086
0.0686129
-0.00885633
0.0612515
-0.00202817
0.000366582
0.0608624
-0.000820351
0.00120944
0.0620325
-0.00036414
-0.000805933
0.0608693
0.00130169
-0.00013853
0.0630975
-0.00232372
9.56094e-05
0.0625908
0.000627171
-0.000120512
0.0638585
-0.00144694
0.000179271
0.0636522
-0.000434622
0.000640942
0.0644336
-0.000715445
-6.60243e-05
0.0633659
0.000213712
0.000854059
0.0644213
-0.000506551
-0.000548934
0.0649699
0.000356613
-0.000905172
0.0645662
-0.000479001
0.000882702
0.0645886
-0.000454486
0.000432117
-0.00144698
0.0655508
0.000484741
0.064817
-0.064285
-0.00197894
-0.00247214
0.00423381
-0.00208629
0.0649552
-0.0646824
-0.000751891
0.000215715
0.0646705
-0.0649158
-0.000261207
0.000344726
0.0642152
-0.0639962
-0.00093443
-0.000486882
0.0639921
-0.0647882
-0.000650798
-0.000438779
0.0633315
-0.0646699
-0.000985296
-0.000829589
0.0624706
-0.0619902
-0.000844539
-0.000897576
0.0619661
-0.0640853
9.10553e-05
-0.000844484
-0.00219859
-0.0607217
0.0614451
0.000486015
-0.000389646
-0.0621298
0.0625679
-0.000576599
-0.00149059
-0.0623986
0.0622628
1.52376e-05
0.000264896
-0.0635951
0.0634794
0.000756702
-0.00115302
-0.0633524
0.0639474
0.000259104
6.09319e-05
-0.0650991
0.0643283
-0.000134367
-0.00170065
-0.0642624
0.0649293
-0.000234733
0.000948547
-0.0655476
0.0674808
0.00230054
-0.000133558
0.0668572
0.00756984
0.0128203
-0.0548282
0.0583599
0.00881571
0.0667769
-0.0641922
-0.00495274
0.0711987
0.00447414
0.00804931
-0.0664871
0.00751594
0.0644698
-0.0658973
-0.000551379
-0.0018087
0.0655507
-0.0658196
-0.000483
-0.000130873
0.0652662
-0.0649132
-0.000614246
-0.000208706
0.065631
-0.0655064
-0.00105909
0.000231015
0.0650363
-0.0650739
-0.000613145
-0.000908899
0.0649341
-0.0648815
-0.00103792
-0.000969401
0.0647534
-0.0642741
-0.00132383
-0.00102566
0.0644601
-0.0629358
-0.00143329
-0.000658503
0.0620478
-0.00444934
-0.00308655
0.00692337
-0.00924572
0.0690993
0.00612011
0.072002
-0.0624372
0.0616642
0.00166432
0.00293711
-0.0616336
0.0636177
-0.00149812
-0.000359038
-0.0628267
0.0628897
-0.000639594
-0.000699528
-0.0639452
0.0648412
-0.000880743
-0.000790603
-0.0640624
0.0650345
-0.000215408
-0.00037423
-0.0654696
0.0660963
-0.000367621
-0.000374153
-0.0651285
0.0647548
0.000239351
-0.000732848
-0.0658598
0.0657432
-0.000118156
-0.000156462
-0.0655999
0.0680868
-0.000186307
9.73899e-06
-0.0726011
0.0724771
0.00459812
0.00305553
0.0226628
0.0445476
-0.00648868
0.0749302
-0.0538746
0.00711447
0.0714827
0.00833005
-0.0130417
-0.065212
0.00179369
-0.0599507
-0.0681591
0.0697357
-0.00478519
-0.0751297
-0.00607114
0.076566
-0.0465153
-0.00285712
0.0695598
-0.0605469
0.00754291
0.00468843
-0.00694226
-0.0521612
-0.0551692
0.0037677
0.0624736
-0.065214
-0.00221238
-0.00548175
0.0664443
-0.0666947
-0.000300922
-0.000578363
0.0665282
-0.0666029
-0.000408203
-0.000297469
0.0664084
-0.0664799
-0.000542786
-0.000403204
0.0657147
-0.0660626
-0.000711159
-0.000534187
0.0662765
-0.0660331
-0.000856569
-0.000695049
0.0660718
-0.0659841
-0.00112557
-0.000930692
0.0659513
-0.0659209
-0.00135429
-0.00105847
0.0653218
-0.0651544
-0.00160069
-0.00125757
0.0666958
-0.0677924
-0.00335279
-0.00154513
-0.0039267
0.0693608
-0.0680022
0.00323948
0.0719609
0.00451441
-0.0569119
0.0604894
0.00098505
0.00224435
-0.00222273
-0.0551908
0.057376
0.00215683
-0.0572885
0.00423178
-0.0619996
0.0649788
-0.00131486
0.00142689
-0.0656008
0.0650781
-0.000975434
-0.000981056
-0.0652796
0.0655799
-0.000939852
-0.000901043
-0.0655114
0.0654446
-0.000813963
-0.00072207
-0.0656463
0.0660727
-0.00064182
-0.000575892
-0.0661713
0.0662784
-0.000474691
-0.000472793
-0.0658858
0.0664515
-0.000326272
-0.000340308
-0.0665188
0.066605
-0.000204282
-0.000223851
-0.0667529
0.0666873
-0.000120756
-0.000138147
0.00174068
-0.00317252
0.00275908
0.0695127
0.0689005
-0.00369876
0.00524813
0.0699334
0.0710623
-0.0590231
-0.0153008
0.00567398
-0.0555852
-0.0471913
-0.0432392
0.00754186
0.00321841
-0.0579515
-0.0566725
0.0209752
-0.0593817
4.21644e-05
0.00528541
0.0719236
0.00124988
-0.0556338
0.00322598
-0.0575027
-0.056188
0.0600326
-0.00168778
0.00168822
-0.00310894
-0.0558678
-0.057115
0.00261518
-0.000550605
-0.0577491
0.00298779
-0.0553546
0.000947827
-0.0577149
9.45485e-05
-0.000117867
-0.0568858
-0.00478076
0.00252825
-0.0554624
-0.0516624
0.0596781
-0.0127965
-0.00302685
-0.0115224
0.066423
-0.0671761
-0.00145925
0.00155949
0.0668904
-0.0667859
-0.000405485
-0.000864029
0.0667658
-0.0667415
-0.000432428
-0.000317555
0.0667195
-0.0666955
-0.000566867
-0.00042521
0.0666752
-0.0666588
-0.000727506
-0.000554492
0.0666509
-0.0665984
-0.000909087
-0.000702987
0.0666702
-0.0667117
-0.00108398
-0.000858886
0.0667621
-0.0668522
-0.00126415
-0.00100816
0.0669437
-0.0670777
-0.00146663
-0.00116607
0.0672587
-0.0688433
-0.00176815
-0.00136418
0.0698683
-0.0719425
-0.00271092
-0.00290176
0.0760662
-0.0583481
0.00325713
-0.00194749
0.00142456
-0.0635245
0.0648518
-0.00034219
0.000739845
-0.0665713
0.0663316
-0.00107517
-0.000292663
-0.0663128
0.0663786
-0.00104123
-0.000962191
-0.0662985
0.0662831
-0.00092445
-0.000821002
-0.066294
0.0662893
-0.00080919
-0.000732978
-0.0663443
0.0663817
-0.000679217
-0.00063096
-0.0664216
0.0664734
-0.000526547
-0.000512621
-0.0665159
0.0665661
-0.000376399
-0.000382821
-0.0666087
0.066656
-0.000251598
-0.00026652
-0.0666917
0.0664397
0.000131235
-0.000173778
-0.068132
0.0703224
0.00104909
4.83934e-05
-0.071092
0.0712704
0.00510697
0.0037448
0.00224096
-0.00125005
0.0685689
0.0699576
0.000442282
0.000964555
0.0681059
0.0680927
-0.0025385
0.00303143
0.0694404
0.0694884
-0.00496718
0.00475236
0.0714852
0.0699878
-0.0545473
-0.000237504
0.00216136
0.000472709
0.0726829
-0.0702044
0.00262846
0.0720038
0.00543147
-0.000640063
-0.0555443
-0.00065277
-0.0538622
-0.073724
0.0625468
-0.00161931
0.000992731
-0.0228566
-0.000289025
-0.0552987
-0.000959059
-0.0545134
-0.000774356
-0.0535832
-0.00545712
-0.0530321
0.0669054
-0.0666748
-0.000188375
-0.000522638
0.0651695
-0.0667295
0.000100768
5.41343e-05
0.066778
-0.0668637
-0.00031972
-0.000815567
0.0668578
-0.0668541
-0.000436081
-0.000323503
0.0668542
-0.0668608
-0.000560306
-0.000425112
0.0668734
-0.0669004
-0.000700576
-0.00054182
0.0669353
-0.0669982
-0.000846256
-0.000668022
0.0670703
-0.0671785
-0.00097573
-0.000786796
0.0672964
-0.067466
-0.00109461
-0.000890261
0.0676349
-0.0678581
-0.00124342
-0.000997137
0.0680557
-0.0682986
-0.00152525
-0.00116655
0.0696458
-0.0705251
-0.00183165
-0.00155454
0.0702965
-0.066606
-0.000433379
-0.00217606
-0.0026347
-0.0588669
0.0606609
-0.00132123
0.0122971
0.00014497
-0.0717803
0.0591967
-0.0391584
-0.00774112
-0.00277531
-0.0646677
0.0641945
-0.00121452
-0.00139168
-0.0661086
0.0666097
-0.000843291
-0.00117427
-0.0670841
0.0671415
-0.00113252
-0.000767129
-0.0670446
0.066942
-0.000938654
-0.000865314
-0.0668665
0.0667828
-0.000840771
-0.000745454
-0.0667278
0.0666797
-0.000761123
-0.000677958
-0.0666538
0.0666353
-0.000660711
-0.000605011
-0.0666316
0.0666384
-0.000533416
-0.000508905
-0.0666513
0.0666731
-0.000398201
-0.000395689
-0.0666947
0.0667227
-0.000279629
-0.000288142
-0.0667552
0.0668489
3.74922e-05
-0.000206206
-0.0669606
0.0681909
-0.00018118
-6.32857e-05
0.00173124
-0.00295046
0.00477268
0.0680032
0.000218043
0.000466381
0.0678845
0.0672252
-0.00170307
0.000739706
0.0690693
0.0668561
-0.00181842
0.00258023
0.0686786
0.0684097
-0.0029126
0.0040757
0.0703221
0.0696555
0.00602583
0.0700537
-0.0558401
0.0583632
-0.0812342
0.0362473
-0.0166494
0.0797854
0.0295184
-0.038161
-0.0305158
-0.0692311
-0.00425081
0.00132197
-0.0571553
-0.000936113
-0.0538851
0.00495242
-0.0562258
-0.000824865
-0.0544629
-0.0708593
-0.00251421
0.0713554
0.00201812
0.00347667
-0.0605305
0.000218078
-0.0592584
0.0050546
-0.0473166
-0.00121612
-0.0777634
0.03853
-0.0189321
-0.0771262
0.0122927
0.0679138
-0.0666414
-0.00146079
-0.00183991
0.0670081
-0.0664522
-0.000455118
0.000420807
0.0668005
-0.0669244
-0.000195779
-0.000467319
0.0669284
-0.0669377
-0.000426776
-0.000319507
0.0669514
-0.0669763
-0.000535453
-0.000411413
0.0670072
-0.0670577
-0.00065005
-0.000510886
0.0671155
-0.0672043
-0.000757518
-0.000610212
0.0672998
-0.0674381
-0.000837458
-0.000691263
0.0675807
-0.0677778
-0.000897435
-0.000747664
0.06797
-0.0682183
-0.000995119
-0.000805023
0.0684432
-0.068713
-0.00125546
-0.000941636
0.0689834
-0.0689679
-0.00184723
-0.00128406
0.0691867
-0.0667778
-0.00284229
-0.00195726
0.0676935
-0.0675308
-0.00178207
-0.00171893
0.0612157
-0.0723318
-0.0101381
-0.00532238
-0.0560348
0.060775
-0.0124812
-0.0789501
-0.0152458
-0.061606
0.0631296
-0.00284484
-0.00360639
-0.0649357
0.0664312
-0.00271003
-0.00319773
-0.0666771
0.0673735
-0.00153962
-0.00142019
-0.0676634
0.0675634
-0.00103253
-0.00105703
-0.0674465
0.0673103
-0.00080251
-0.000748426
-0.0672034
0.0670878
-0.000725167
-0.000638491
-0.0670042
0.0669214
-0.000678244
-0.000594424
-0.0668659
0.0668164
-0.000611203
-0.000549569
-0.0667877
0.0667676
-0.000513269
-0.000480208
-0.0667608
0.0667621
-0.000399527
-0.000388876
-0.0667687
0.0667811
-0.00029208
-0.000294736
-0.0667878
0.0670284
-0.000203152
-0.000212874
-0.0671125
0.0668436
8.77117e-05
-0.00014737
-0.0682697
0.0716276
-0.000729419
0.000305149
-6.71747e-05
-0.0144657
0.011228
-0.0729129
-0.0739846
-0.0128129
-0.000513661
0.000187463
0.0683294
-0.0193882
-0.00205712
0.0599752
0.0598835
-0.000323362
0.000967653
0.0672402
0.0670893
-5.11935e-05
3.5687e-05
0.0690848
0.0677725
-0.00159103
0.00119032
0.0690793
0.0668543
-0.00152808
0.00263608
0.0692141
0.0693177
0.0701756
-0.0554542
0.00259097
-0.0547939
-0.00124706
-0.0534629
0.00140903
-0.000436014
0.0703824
-0.0657488
0.0108139
0.0672276
0.000102603
0.0705522
-0.0692458
0.00408691
-0.056836
0.000160195
-0.054405
0.00330753
-0.0587835
0.000462454
-0.060937
-0.00156761
-0.0762647
0.00120838
-0.0677438
-0.0123059
0.00679415
-0.0734383
0.0119189
-0.0094077
-0.0764958
0.0110604
-0.0720544
-0.0540212
-0.0054936
0.000660558
0.0599361
0.0124413
-0.0110067
-0.0622172
0.0607826
0.0651664
-0.06618
-0.0032372
-0.0077868
0.0672566
-0.0676085
-0.00110888
-0.000763356
0.0666527
-0.066865
-0.000242834
-0.000534968
0.0670947
-0.0669715
-0.000318946
-0.000237665
0.0669808
-0.0669976
-0.000409924
-0.000310262
0.0670185
-0.0670525
-0.000501408
-0.000390524
0.0670918
-0.0671522
-0.000589595
-0.000471653
0.067218
-0.067314
-0.000661515
-0.000544401
0.0674136
-0.0675533
-0.000697664
-0.000591752
0.0676932
-0.0678813
-0.000709332
-0.00060781
0.06806
-0.0682863
-0.000768839
-0.000626284
0.0684871
-0.0687201
-0.00102247
-0.000740866
0.0689024
-0.0690965
-0.00165316
-0.00110175
0.0692151
-0.0693053
-0.00275212
-0.0018386
0.0690048
-0.0672937
-0.00349324
-0.00201938
0.0666553
-0.0695824
-0.00721099
-0.0059607
0.0740779
-0.0752566
-0.00822901
-0.00831743
-0.0125851
0.0115618
-0.0754725
0.0878025
0.0191833
-0.0579291
-0.0490566
-3.91705e-05
-0.0676853
0.0638046
-0.00860054
0.0722118
-0.0738513
-0.0106664
-0.0107194
-0.0666813
0.0679824
-0.00414597
-0.00648301
-0.0678091
0.0676431
-0.00254405
-0.00302445
-0.0679207
0.0679069
-0.00152582
-0.00169772
-0.0678175
0.0676858
-0.000900811
-0.000967706
-0.0675765
0.0674475
-0.000673485
-0.000639083
-0.0673441
0.0672302
-0.000611261
-0.000535137
-0.0671445
0.0670559
-0.000589584
-0.000508749
-0.0669935
0.0669337
-0.0005514
-0.000487213
-0.0668951
0.0668621
-0.000480261
-0.000441641
-0.0668443
0.0668327
-0.000387948
-0.000371004
-0.0668299
0.0668333
-0.000295479
-0.000291954
-0.0668391
0.0668505
-0.000214532
-0.000218671
-0.0668618
0.0670999
-0.000150339
-0.000158701
-0.0675216
0.0670727
-0.000280537
-0.000116617
0.00125674
0.00344189
0.000844721
0.0640428
0.063986
-0.00102725
-0.000850923
0.0691184
0.0669068
-4.25912e-05
3.08248e-05
0.0690965
0.066879
-1.95784e-05
7.67291e-06
0.0690912
0.0668656
-0.000854126
0.00158008
0.0684882
0.0684712
0.0713196
-0.0541103
-0.0601278
-0.0021065
0.0712253
-0.0662584
0.00584705
0.0691483
0.00217957
0.00309618
-0.0538031
-0.0015766
-0.0517261
0.00357778
-0.0571063
7.79134e-06
-0.0539503
0.00368311
-0.0640342
0.00328375
-0.0630124
0.00294486
-0.0724154
0.0116065
-0.0741843
-0.0112736
0.0128648
-0.0746965
0.00756136
-0.0642448
0.00866125
-0.0691538
0.0125966
-0.0688859
0.0149871
-0.0604749
-0.0583043
0.0714203
-0.00139006
-0.011726
-0.0621533
-0.00715772
0.0115631
-0.0113928
-0.0623874
0.0651149
-0.0662317
-0.00212031
-0.00279977
0.0663256
-0.0668026
-0.000631855
-0.000669523
0.0669871
-0.0669927
-0.000237234
-0.000350423
0.0669985
-0.0670073
-0.000310121
-0.000231952
0.06702
-0.0670406
-0.000389324
-0.00029756
0.0670645
-0.0671019
-0.000464026
-0.000366615
0.0671433
-0.0672051
-0.000527821
-0.000430206
0.0672701
-0.0673618
-0.000569798
-0.000479417
0.0674539
-0.0675793
-0.000572265
-0.000499658
0.0677012
-0.0678609
-0.000549682
-0.000485886
0.0680087
-0.0681913
-0.000586318
-0.000478418
0.0683491
-0.0685292
-0.000842389
-0.000583002
0.0686727
-0.0688212
-0.00150466
-0.000958284
0.0689258
-0.0690278
-0.00265006
-0.00173401
0.068174
-0.0675533
-0.00411393
-0.00287317
0.0692738
-0.0706256
-0.00585921
-0.00424026
0.0720452
-0.0750527
-0.00522154
-0.0068978
-0.00367152
-0.0728037
0.0715939
-0.00945658
-0.0128892
0.0134063
-0.0747014
0.074346
-0.0745766
-0.0126585
-0.0097313
-0.0696049
0.0679345
-0.00693011
-0.0087304
-0.0673084
0.0677634
-0.00460099
-0.00585694
-0.0677233
0.0678995
-0.00272027
-0.00298437
-0.0678756
0.0677924
-0.00144268
-0.00167375
-0.0677206
0.0676268
-0.000807039
-0.000895829
-0.0675433
0.0674427
-0.000572849
-0.000555614
-0.0673602
0.067267
-0.000518091
-0.00045267
-0.067195
0.0671183
-0.00051281
-0.000436727
-0.0670623
0.0670059
-0.000494999
-0.000431242
-0.0669671
0.0669307
-0.000443885
-0.000402851
-0.0669081
0.0668897
-0.000369596
-0.000348365
-0.0668809
0.066877
-0.000291554
-0.000283178
-0.0668786
0.0668845
-0.000220363
-0.000220295
-0.0668902
0.0669011
-0.000161252
-0.000164437
-0.0669421
0.0660038
0.000657744
-0.000157615
0.00100214
-0.00468107
0.00250705
0.0621102
0.00663412
-0.00551255
0.0584527
0.0615879
-0.00113624
5.57889e-05
0.0651232
0.0653568
-5.05279e-05
4.19571e-05
0.0691269
0.066912
-3.35228e-05
2.45089e-05
0.0691056
0.0668874
-1.56729e-05
6.82747e-06
0.0691001
0.0668744
-0.00033629
0.000774476
0.06805
0.0681418
-0.00134824
0.00161092
0.0701197
0.0707459
-0.00239274
0.0697624
0.00177871
0.0697704
-0.0525907
0.00365825
-0.0538836
-0.00194029
-0.049778
0.00450701
-0.0579302
-6.62079e-05
-0.0506004
0.0031016
-0.00256439
0.0692252
0.0694509
-0.0705264
0.00285426
0.0691272
0.00342534
0.0064362
-0.0675255
0.00977642
-0.0693271
0.0118689
-0.0731591
0.0145789
-0.0747991
-0.0143565
0.014372
-0.0744945
-0.0564824
0.0010314
0.00679266
-0.0623762
0.00809432
-0.0646515
0.00939008
-0.0632889
0.0108794
-0.0597912
0.0570928
-0.0616518
-0.000953557
-0.0633156
-0.0102305
-0.0116113
0.00917634
-0.0599524
-0.00886131
-0.0660656
-0.00832552
0.00580127
0.060977
0.0566385
-0.0078712
0.064023
-0.0636726
-0.00245682
-0.00326111
0.0644359
-0.0658963
-0.000659977
-0.0020365
0.0663665
-0.06683
-0.000168344
-0.000199301
0.067011
-0.067018
-0.000230312
-0.000169379
0.0670256
-0.0670372
-0.000298507
-0.000224324
0.067051
-0.067073
-0.000367346
-0.000283706
0.0670978
-0.0671355
-0.000426399
-0.000341796
0.067176
-0.0672347
-0.000469162
-0.000389636
0.0672945
-0.0673762
-0.000488075
-0.000419624
0.0674556
-0.0675602
-0.000467698
-0.000420266
0.0676587
-0.0677841
-0.000424314
-0.000387349
0.0678971
-0.0680328
-0.000450548
-0.000365442
0.0681476
-0.0682772
-0.000712741
-0.000468274
0.0683816
-0.0684948
-0.00139143
-0.000853882
0.068584
-0.0686794
-0.00255463
-0.00164488
0.0687506
-0.0688523
-0.0040122
-0.00280198
0.0690395
-0.069621
-0.00527775
-0.00405307
0.0709311
-0.070032
-0.00612064
-0.00558769
0.0678805
-0.0644891
-0.00478145
-0.00582299
0.0646264
-0.0649558
-0.00990111
-0.00702044
-0.0743853
0.0726933
-0.0109665
-0.0138981
0.0160035
-0.0769044
0.0750997
-0.0757907
-0.0132072
-0.013642
-0.0711586
0.0706182
-0.00891618
-0.00819669
-0.0696831
0.069087
-0.00633408
-0.00779522
-0.0679302
0.0677837
-0.00445452
-0.00470006
-0.0677504
0.0676853
-0.00265517
-0.0029511
-0.0676509
0.0676015
-0.00139328
-0.00163933
-0.0675546
0.0674947
-0.000747113
-0.000848898
-0.0674406
0.0673737
-0.000505911
-0.000501609
-0.0673172
0.0672516
-0.000452452
-0.00039619
-0.0671993
0.0671416
-0.000455132
-0.000384451
-0.0670977
0.0670511
-0.000448375
-0.000387344
-0.0670169
0.0669824
-0.000409383
-0.000368683
-0.0669589
0.0669377
-0.000348362
-0.000324852
-0.0669255
0.0669174
-0.000283456
-0.000270928
-0.0669152
0.0669174
-0.000222562
-0.00021813
-0.0669285
0.0670688
-0.000301522
-0.000175588
-0.0665484
0.0666334
0.000572738
0.000362806
-0.0670087
0.0702263
0.0026295
0.00062678
0.00187944
-0.00456239
0.00364805
0.0630245
0.0628268
-0.00163933
4.15327e-05
0.066721
0.0673655
-3.65149e-05
3.06657e-05
0.0691328
0.0669171
-2.41668e-05
1.72011e-05
0.0691125
0.0668939
-1.05807e-05
4.36121e-06
0.0691063
0.066881
-0.000255646
0.000917895
0.0673877
0.0678905
-0.00175668
0.0032542
0.0686222
0.0699071
0.0704602
-0.0508728
-0.0620078
-0.0118093
-0.0150756
0.00194375
-0.0529338
-0.0388266
-0.0382568
0.00422269
-0.0535993
-0.00226779
-0.0475765
0.00290286
-0.00206596
0.0683883
0.00462987
0.0674001
0.00645079
-0.0579448
0.00771243
-0.0654615
0.0115464
-0.0690046
0.0142926
-0.0730797
0.0163954
-0.0748864
0.0156834
-0.0772172
-0.0142568
0.0159888
-0.0772098
-0.0530449
0.00335517
0.00470648
-0.0589883
0.00672541
-0.0619868
0.0100717
-0.0624812
0.0106077
-0.0612226
0.00579227
-0.0638009
-0.0128713
0.00744906
0.0663992
-0.0246306
0.0683978
0.0630583
-0.0639467
-6.5141e-05
-0.0695335
0.0692179
0.00374099
-0.0704179
0.0037386
0.0466262
0.00856093
-0.000164194
-0.0494048
0.0648365
-0.0659145
-0.00137886
-0.00237133
0.0663768
-0.0669324
-0.000104325
-0.00157418
0.0670153
-0.0670238
-0.000159865
-0.000116447
0.0670319
-0.0670402
-0.000222058
-0.000161217
0.067049
-0.0670622
-0.000285304
-0.000215533
0.0670768
-0.0670992
-0.000344974
-0.000269072
0.0671238
-0.0671602
-0.000389956
-0.000317193
0.0671984
-0.0672519
-0.000415681
-0.000351453
0.0673046
-0.067374
-0.000418631
-0.000366965
0.067439
-0.0675213
-0.000385395
-0.000355308
0.0675959
-0.0676873
-0.00033289
-0.000312755
0.0677667
-0.067859
-0.000358295
-0.000286006
0.0679348
-0.0680198
-0.000627773
-0.000392388
0.0680898
-0.0681719
-0.00130942
-0.000783849
0.0682448
-0.0683365
-0.00246298
-0.00157193
0.0684225
-0.0685247
-0.00390997
-0.00271597
0.0686044
-0.0685595
-0.0053226
-0.0039734
0.0690858
-0.0686989
-0.00650756
-0.00506139
0.0684508
-0.0670349
-0.00619735
-0.00607106
0.0668744
-0.0675897
-0.00918587
-0.00718097
-0.00581903
-0.0859414
0.0635419
-0.0838192
-0.0179795
-0.0158571
-0.075685
0.0743985
-0.0119207
-0.0152627
0.0170282
-0.0789826
0.076621
-0.0781658
-0.0137179
-0.0133208
-0.0719771
0.0699346
-0.00892396
-0.0112206
-0.0705659
0.0695155
-0.00786582
-0.00882798
-0.0682223
0.0678771
-0.00598895
-0.006502
-0.0677114
0.0675882
-0.00433138
-0.00453431
-0.0675187
0.0674617
-0.00259809
-0.0028816
-0.0674299
0.0674021
-0.00136545
-0.00160756
-0.0673791
0.06735
-0.000718009
-0.00082596
-0.0673231
0.067288
-0.000470815
-0.000474687
-0.0672567
0.0672183
-0.000414008
-0.000364892
-0.0671859
0.0671478
-0.000417038
-0.000352046
-0.0671167
0.0670812
-0.000412855
-0.000356263
-0.0670532
0.0670228
-0.000379058
-0.000340691
-0.0670007
0.0669792
-0.000326906
-0.00030271
-0.0669657
0.0669554
-0.000273126
-0.000257388
-0.0669506
0.0669487
-0.000220705
-0.000213312
-0.0669442
0.0668115
-0.000168878
-0.000171068
-0.0673097
0.0674929
0.000389597
-0.000135412
-0.0679163
0.0697711
0.000774681
0.000203401
0.00123265
-0.00462513
0.0019535
0.0656961
0.0656508
-0.00119045
0.000928538
0.0669829
0.0681285
-2.48542e-05
2.04704e-05
0.0691372
0.0678207
-1.55215e-05
1.02554e-05
0.0691178
0.0668989
-5.53483e-06
1.75231e-06
0.0691101
0.0668857
-0.00100802
-0.000719299
0.0691151
0.0668842
-0.000710525
0.00126995
0.0680628
0.0684773
0.0696642
-0.0489179
0.00789914
0.0659486
0.00476854
-0.051917
0.00718868
-0.057421
0.0102222
-0.0641373
0.0132547
-0.0679667
0.015261
-0.0719454
0.0171639
-0.0760615
-0.0510284
0.00268997
0.00540354
-0.0576665
0.00773479
-0.0596499
0.00931228
-0.0611858
0.0176033
-0.077785
0.0159457
-0.079718
-0.0143935
0.019349
-0.082386
0.00796024
-0.0633905
0.00376877
-0.0733887
0.0103565
-0.0793657
-0.01481
-0.0532041
-0.00257434
-0.0451663
0.00435806
-0.079943
-8.17184e-05
-0.0459679
-0.0115088
0.0520581
0.00432989
-0.0448792
0.0639625
-0.0647535
0.000725851
0.0193193
0.0657029
-0.0661585
-0.000923264
-0.00142192
0.0670191
-0.0670222
-0.000101308
-0.00071352
0.0670336
-0.0670417
-0.000151742
-0.000105035
0.0670492
-0.0670591
-0.000212078
-0.000153745
0.0670689
-0.0670829
-0.000271286
-0.000205761
0.0670979
-0.0671201
-0.000322719
-0.000254125
0.067144
-0.0671784
-0.000355569
-0.000293362
0.0672132
-0.0672603
-0.000368577
-0.000316594
0.0673049
-0.0673615
-0.000362087
-0.000322341
0.0674121
-0.0674732
-0.000324315
-0.00030469
0.0675256
-0.067586
-0.000272438
-0.000260375
0.0676353
-0.067689
-0.000304538
-0.000236746
0.0677312
-0.0677779
-0.000581074
-0.000350264
0.0678187
-0.0678733
-0.0012548
-0.000742987
0.0679308
-0.0680149
-0.00237886
-0.0015145
0.0681016
-0.068216
-0.00379565
-0.0026292
0.0683301
-0.0684873
-0.00516539
-0.00385931
0.0686297
-0.0688634
-0.00627385
-0.004919
0.0691254
-0.0681785
-0.00714425
-0.00580903
0.067987
-0.0682786
-0.00889426
-0.00737248
0.0731501
-0.0786482
-0.0124814
-0.0109856
-0.0141028
0.0160447
-0.0813076
0.0793953
-0.0798225
-0.0136756
-0.0140629
-0.0782902
0.0758374
-0.0112652
-0.0155339
0.0184439
-0.0826281
0.0797416
-0.0807902
-0.0144853
-0.012942
-0.0745451
0.0735872
-0.0109628
-0.0120285
-0.070772
0.0707953
-0.00894725
-0.0084054
-0.0688888
0.0685854
-0.0075624
-0.00692153
-0.0677956
0.0677967
-0.00599008
-0.00571219
-0.0675463
0.0674039
-0.00418903
-0.00428386
-0.0673241
0.0672684
-0.00254236
-0.00280183
-0.0672442
0.0672322
-0.00135352
-0.00158331
-0.067228
0.0672239
-0.000713878
-0.000821715
-0.0672189
0.0672099
-0.000461849
-0.00046973
-0.0671996
0.0671839
-0.000398328
-0.000354549
-0.0671681
0.0671464
-0.000395295
-0.00033626
-0.0671261
0.0671003
-0.000387052
-0.000335995
-0.0670783
0.067053
-0.00035375
-0.000318678
-0.0670337
0.0670142
-0.0003074
-0.000283436
-0.0670014
0.0669904
-0.000262188
-0.000244535
-0.0669847
0.0669814
-0.000217466
-0.000207566
-0.0669789
0.0669773
-0.000167241
-0.000168568
-0.0669681
0.0674706
-0.000112839
-0.00012622
-0.0676895
0.0678034
0.000660764
-1.55463e-05
-0.0693936
0.0697457
0.00338655
-0.000357527
-0.0690808
0.0612587
0.0157212
0.00440585
-0.00765183
0.00467405
0.069377
0.0733654
-0.00206744
0.000114685
0.0676489
0.0682574
-0.00130125
-0.000879392
0.0691636
0.066942
-1.6617e-05
1.29571e-05
0.0691408
0.0669247
-9.32737e-06
5.5972e-06
0.0691215
0.0669025
-2.5041e-06
6.36642e-07
0.069112
0.0668888
-3.50207e-07
1.44789e-06
0.069114
0.0668845
-0.00158558
0.000519265
0.0691291
0.0668931
-0.00163936
0.00229364
0.067734
0.0685441
-0.0031311
0.00763126
0.0614484
0.0665627
0.0573812
-0.0467237
0.00526305
-0.0499914
0.00795709
-0.0551559
0.0104648
-0.0613474
0.0135878
-0.0662935
0.0155631
-0.0703446
-0.0488992
0.00327431
0.00628217
-0.0562138
0.00886783
-0.0592055
0.0166691
-0.0751273
0.0176591
-0.0760951
0.0173577
-0.0812998
0.00935518
-0.0625808
0.00886202
-0.0684838
0.00964162
-0.0786723
0.0160757
-0.0826798
-0.0141861
0.0146321
-0.0811844
0.0154888
-0.079387
0.0154985
-0.0822695
-0.0130515
0.0145787
-0.0803878
0.0214806
-0.0534571
0.0790827
-0.0471063
-0.0707811
0.000447914
0.069396
-0.0774276
0.000412847
0.00637438
0.0671644
-0.00279081
-0.0424572
-0.0505573
0.00143012
2.55958e-05
-0.0433035
0.0648784
-0.0651777
0.00102522
0.00677002
0.0656561
-0.0668974
0.000318065
-0.000943604
0.0670337
-0.0670419
-9.30736e-05
-0.000577186
0.0670486
-0.0670564
-0.000143936
-9.83726e-05
0.0670638
-0.0670742
-0.000201704
-0.000146377
0.0670844
-0.0670989
-0.000256827
-0.000195527
0.0671139
-0.0671358
-0.000300792
-0.000239063
0.0671586
-0.0671904
-0.000323798
-0.000270576
0.0672214
-0.0672615
-0.000328404
-0.000285635
0.067298
-0.0673424
-0.000317739
-0.000285821
0.0673801
-0.0674228
-0.000281631
-0.000266937
0.0674563
-0.0674905
-0.000238197
-0.00022692
0.0675144
-0.0675359
-0.000282967
-0.000212906
0.0675501
-0.0675656
-0.000565638
-0.000336062
0.0675827
-0.0676145
-0.00122303
-0.000725864
0.0676577
-0.0677318
-0.00230473
-0.00147131
0.0678163
-0.0679392
-0.00367272
-0.00254472
0.0680656
-0.0682361
-0.00499487
-0.00373289
0.0684046
-0.0686328
-0.00604569
-0.0047505
0.0688646
-0.0690082
-0.00700067
-0.00557722
0.0697341
-0.0708035
-0.00782493
-0.00664656
0.0736701
-0.0772
-0.00895149
-0.00811889
0.078674
-0.0802549
-0.0120947
-0.0125889
-0.0120539
0.0125854
-0.082801
0.081549
-0.0820344
-0.0115685
-0.0117575
-0.0789087
0.0769525
-0.0125291
-0.0151892
0.0145307
-0.0820212
0.0820742
-0.083977
-0.0132865
-0.0110206
-0.0754939
0.0742533
-0.0100245
-0.0114835
-0.0714804
0.0698962
-0.00937861
-0.00925556
-0.0693778
0.0688113
-0.00838077
-0.00788697
-0.068449
0.0680698
-0.00718323
-0.00655919
-0.0678207
0.0675571
-0.00572653
-0.00546307
-0.0673965
0.0672549
-0.00404745
-0.0041232
-0.067173
0.0671187
-0.00248804
-0.00271992
-0.0671009
0.0671015
-0.00135415
-0.00156555
-0.0671112
0.0671259
-0.000728614
-0.000831342
-0.0671374
0.067148
-0.000472387
-0.000481257
-0.0671532
0.0671542
-0.000399364
-0.000359736
-0.0671504
0.0671404
-0.000385259
-0.000332495
-0.0671279
0.0671095
-0.000368645
-0.000323527
-0.0670926
0.0670726
-0.000333724
-0.000301798
-0.0670572
0.0670415
-0.000291668
-0.000268029
-0.0670308
0.0670211
-0.000252419
-0.000233901
-0.067015
0.0670091
-0.000211594
-0.000201457
-0.0670051
0.0670009
-0.00016303
-0.000164593
-0.066996
0.0669905
-0.000107333
-0.000121326
-0.0671277
0.0679159
-0.000127477
-0.000152724
-0.0667067
0.0685898
0.00150341
0.000851731
-0.0685287
0.0858172
-0.00156738
0.00446698
-0.0096193
-0.00222889
0.000230967
0.0713749
0.0709211
-0.00154396
1.8571e-05
0.0691743
0.0669444
-1.6274e-05