/*--------------------------------*- C++ -*----------------------------------*\
  =========                 |
  \\      /  F ield         | OpenFOAM: The Open Source CFD Toolbox
   \\    /   O peration     | Website:  https://openfoam.org
    \\  /    A nd           | Version:  10
     \\/     M anipulation  |
\*---------------------------------------------------------------------------*/
FoamFile
{
    format      ascii;
    class       volScalarField;
    location    "36.5";
    object      p;
}
// * * * * * * * * * * * * * * * * * * * * * * * * * * * * * * * * * * * * * //

dimensions      [0 2 -2 0 0 0 0];

internalField   nonuniform List<scalar> 
8711
(
0.0117805
0.0105853
0.0133964
-0.0101434
-0.00803062
-0.0162503
0.114196
0.11485
0.701036
0.689035
0.52408
0.315283
-0.0800071
-0.0843227
-0.21335
-0.228308
0.027497
0.0240655
0.0188122
0.0277998
0.0273131
0.0216053
0.0230026
0.0131973
-0.18053
-0.131977
-0.235336
-0.285335
0.00285706
0.00333731
0.00504647
-0.631688
-0.63866
-0.412536
-0.452274
0.238903
0.230064
0.180075
0.185978
0.178438
0.223505
0.196861
-0.410716
-0.393319
0.243659
0.124001
-0.565335
-0.569883
-0.557824
0.0308387
0.0322926
0.0316943
0.029716
0.0237001
0.027623
0.0317341
-0.113949
-0.138165
-0.0954375
-0.112368
-0.068805
-0.0610767
-0.0617294
-0.0678729
0.127748
0.124072
0.115493
0.0179022
0.0183797
0.0218643
-0.0752189
-0.0700234
-0.0809027
-0.085603
0.0712393
0.0724562
0.0645769
0.0631999
0.0190271
-0.0471841
-0.0505766
-0.0739654
-0.0601657
0.0163394
0.0156994
0.0154818
-0.0897064
-0.106168
-0.0620205
-0.0947777
0.0379497
0.0348394
0.038022
0.0547801
0.0651041
0.0542312
0.0695973
0.0732312
0.0595331
0.0312547
0.0366301
0.372744
0.366553
-0.077421
-0.076274
-0.078981
-0.0852736
-0.0968753
-0.113486
-0.133224
-0.152335
-0.167193
-0.174042
-0.171711
-0.161252
-0.145859
-0.127956
-0.110748
-0.100408
-0.0964514
-0.0889205
-0.129187
-0.114689
-0.150403
-0.141987
-0.146432
-0.152114
-0.117384
-0.133785
-0.0869679
-0.100752
-0.0736428
-0.0782065
-0.0761805
-0.0726332
-0.0840995
-0.0765493
-0.0758325
-0.0889739
-0.0806398
-0.12249
-0.103081
-0.167972
-0.145735
-0.193755
-0.18474
-0.176534
-0.189713
-0.137725
-0.158259
-0.101152
-0.118095
-0.0884956
-0.102061
-0.0791376
-0.0737658
-0.0800071
-0.131764
-0.0916336
-0.088087
-0.0791982
-0.110511
-0.0991977
-0.127344
-0.121433
-0.123529
-0.129014
-0.0987216
-0.11293
-0.0745355
-0.0858359
-0.0656308
-0.0684863
-0.0711912
-0.0664853
-0.0949526
-0.0805558
-0.0760983
-0.0754805
-0.0722093
-0.0787694
-0.072674
-0.0706395
-0.0888097
-0.0782558
-0.127678
-0.105639
-0.178843
-0.15338
-0.207093
-0.197166
-0.188591
-0.203216
-0.143573
-0.166845
-0.102579
-0.121663
-0.0782957
-0.0880526
-0.0688502
-0.0741611
-0.119722
-0.0723879
-0.16575
-0.156273
-0.1346
-0.163922
-0.0678502
-0.0734335
-0.0625434
-0.12334
-0.103008
-0.0641216
-0.0625287
-0.0739563
-0.0678571
-0.0905423
-0.082211
-0.103247
-0.0986717
-0.0987313
-0.104308
-0.0795119
-0.090894
-0.0612551
-0.0691956
-0.0555244
-0.0570276
-0.0632983
-0.0580675
-0.0893127
-0.0740361
-0.110203
-0.0735298
-0.0666322
-0.0712422
-0.116218
-0.0903253
-0.0808312
-0.0603843
-0.0642269
-0.0648644
-0.0616107
-0.0853469
-0.0726368
-0.127787
-0.104415
-0.182952
-0.155069
-0.213951
-0.203554
-0.192626
-0.208468
-0.144858
-0.170111
-0.100385
-0.120957
-0.0844169
-0.0767433
-0.076713
-0.0697949
-0.0745701
-0.141762
-0.19704
-0.2
-0.23019
-0.221795
-0.0563167
-0.0629581
-0.141413
-0.184518
-0.0650637
-0.0971216
-0.0694511
-0.126534
-0.225676
-0.254338
-0.256516
-0.272131
-0.251884
-0.252136
-0.0528051
-0.0533601
-0.0591227
-0.0548501
-0.0711526
-0.0648536
-0.080607
-0.0769193
-0.0764127
-0.0805957
-0.0600727
-0.0690353
-0.0471578
-0.0527695
-0.0444478
-0.0445244
-0.0532875
-0.0474323
-0.0787839
-0.0639513
-0.125472
-0.100218
-0.195699
-0.156748
-0.230541
-0.0514464
-0.0580759
-0.0463956
-0.0470355
-0.054447
-0.0489903
-0.0781149
-0.0644435
-0.122394
-0.0979503
-0.180534
-0.151269
-0.213447
-0.202484
-0.191767
-0.208479
-0.140038
-0.166915
-0.0945286
-0.11523
-0.0661583
-0.0777415
-0.0543189
-0.0586196
-0.080613
-0.0758691
-0.0809834
-0.0821365
-0.0705649
-0.0771068
-0.0525899
-0.0621168
-0.164546
-0.0996767
-0.0695106
-0.044275
-0.0422907
-0.157028
-0.21053
-0.230656
-0.227438
-0.132422
-0.247419
-0.271086
-0.264447
-0.0473977
-0.0536893
-0.0410423
-0.0431613
-0.0438004
-0.0414288
-0.0522226
-0.0476799
-0.0588449
-0.056284
-0.0549665
-0.0583634
-0.0422944
-0.0489806
-0.0331572
-0.0368615
-0.0326693
-0.0319098
-0.0415925
-0.0358723
-0.0647587
-0.0512037
-0.108305
-0.0843299
-0.172208
-0.138919
-0.204806
-0.0414456
-0.0482571
-0.0276369
-0.0343666
-0.0397202
-0.0427115
-0.0308565
-0.0347259
-0.0303508
-0.0291515
-0.0419716
-0.0346574
-0.0674947
-0.0529765
-0.112449
-0.0874381
-0.17115
-0.141774
-0.204573
-0.193426
-0.18198
-0.199171
-0.129914
-0.156672
-0.0853293
-0.105305
-0.056977
-0.0688364
-0.0488079
-0.0795355
-0.0900536
-0.0865665
-0.0885821
-0.0908728
-0.0744537
-0.0828607
-0.0528284
-0.0641064
-0.0413332
-0.186562
-0.0632477
-0.0721822
-0.0253373
-0.0523046
-0.167021
-0.229359
-0.129996
-0.253693
-0.0298532
-0.0821333
-0.261585
-0.0437931
-0.233341
-0.0600473
-0.0298063
-0.0365975
-0.0427213
-0.0288222
-0.0323182
-0.0291068
-0.0284802
-0.0345513
-0.031538
-0.039221
-0.0373615
-0.0354393
-0.0383005
-0.0259768
-0.0308397
-0.0199747
-0.0221707
-0.0210148
-0.0197421
-0.0293778
-0.0241724
-0.0493208
-0.0377069
-0.0862769
-0.0658276
-0.142242
-0.114209
-0.189465
-0.171807
-0.182754
-0.194315
-0.00763198
-0.00765347
-0.0142215
-0.00944999
-0.0145753
-0.0158031
-0.00968752
-0.0118769
-0.0134869
-0.0110679
-0.0277965
-0.0192658
-0.0538775
-0.0393101
-0.0977562
-0.0734502
-0.154274
-0.126045
-0.188031
-0.176252
-0.165043
-0.181936
-0.115279
-0.140778
-0.0725984
-0.092086
-0.0465244
-0.058173
-0.0332863
-0.0384798
-0.0307964
-0.182906
-0.146367
-0.093427
-0.0735035
-0.083232
-0.10321
-0.100402
-0.0990046
-0.103044
-0.0812297
-0.091405
-0.0554072
-0.0687809
-0.0424191
-0.201346
-0.166896
-0.233553
-0.0300285
-0.0181968
-0.0174661
-0.117904
-0.247301
-0.0701838
-0.233677
-0.0333091
-0.199584
-0.00534006
-0.102227
-0.132953
-0.0605011
-0.0889246
0.0468939
-0.039824
-0.0499564
-0.0247694
-0.0307
-0.0166966
-0.0204821
-0.015354
-0.0159839
-0.0186296
-0.0167856
-0.0209226
-0.0203268
-0.018182
-0.0204328
-0.011431
-0.0147806
-0.00803884
-0.00908806
-0.00997234
-0.00845426
-0.0175398
-0.0129445
-0.0341499
-0.0245782
-0.064204
-0.0473497
-0.110002
-0.0860475
-0.150636
-0.133442
-0.147273
-0.158338
-0.0692243
-0.110648
-0.0662791
-0.00919223
-0.0339314
0.0111032
0.0115418
0.0115906
0.009443
0.0113436
0.00841522
0.00832126
0.00896424
0.00864684
0.00296836
0.00701302
-0.0126315
-0.00371514
-0.0380959
-0.024049
-0.0790408
-0.0565253
-0.131203
-0.105116
-0.166528
-0.152219
-0.142196
-0.158018
-0.0968763
-0.120045
-0.058732
-0.0761363
-0.0352285
-0.0455098
-0.0228057
-0.0280982
-0.0189511
-0.110323
-0.101407
-0.119408
-0.117166
-0.111757
-0.117638
-0.0900284
-0.102241
-0.0599898
-0.0754829
-0.0446793
-0.203326
-0.0486732
-0.00778094
-0.00663877
-0.155261
-0.223704
-0.101327
-0.221136
-0.0559721
-0.194384
-0.0265875
0.00978607
-0.00548391
-0.153697
-0.0931386
-0.0363659
0.0136718
0.0315877
0.0680082
0.0637199
-0.027951
-0.0379757
-0.0132174
-0.0191807
-0.0057062
-0.00886441
-0.00331449
-0.00403088
-0.00478721
-0.00376099
-0.00602415
-0.0057112
-0.0034602
-0.00525625
0.00103845
-0.0010704
0.00247942
0.00224036
0.000226223
0.00172736
-0.00617408
-0.00235856
-0.0192037
-0.0117842
-0.0419332
-0.0292144
-0.0763567
-0.0580511
-0.107811
-0.0950481
-0.109075
-0.117525
-0.0410782
-0.0788725
-0.00763323
0.0251811
0.0059538
0.0175841
0.0220725
0.0283951
0.0272775
0.029754
0.0292737
0.0274635
0.0279019
0.0255682
0.0265878
0.0181059
0.0227981
0.00251327
0.0111955
-0.0212263
-0.00824652
-0.0578097
-0.0378308
-0.103738
-0.0808399
-0.126692
-0.121021
-0.115037
-0.126994
-0.0764714
-0.0962315
-0.0439217
-0.0587668
-0.0239058
-0.0326075
-0.0127661
-0.017222
-0.00938659
-0.107715
-0.0735949
-0.0907371
-0.130255
-0.120988
-0.137248
-0.136139
-0.12577
-0.133797
-0.0997398
-0.114051
-0.0660804
-0.0833645
-0.0323355
-0.0486031
-0.00672504
-0.0184391
-0.191836
-0.135329
-0.199211
-0.0828679
-0.185951
-0.00856968
0.00345166
0.00239174
-0.048232
-0.0236764
-0.00821235
0.0120455
0.000703469
-0.156421
-0.110364
-0.0615857
-0.0129001
0.036552
-0.0572695
0.0851333
0.0795762
0.104285
-0.0884111
-0.0690965
-0.0365115
-0.0464533
-0.0166603
-0.0260913
-0.00263373
-0.00877976
0.00428735
0.00135457
0.00730312
0.00636994
0.00698657
0.00746238
0.00660424
0.00662071
0.00875456
0.00741173
0.0113975
0.0102788
0.0115321
0.0117847
0.00927438
0.0106546
0.00400742
0.00709262
-0.00590244
-0.000335067
-0.022229
-0.0132011
-0.0456821
-0.0333072
-0.0689333
-0.0581107
-0.0687871
-0.0755241
-0.0161623
-0.0474024
0.0463894
0.0160716
0.0953755
0.0752205
0.0269878
0.00466201
0.0142366
0.0213386
0.0355525
0.0315936
0.0414143
0.0389121
0.0444595
0.0434422
0.0421363
0.0431717
0.0392421
0.0409152
0.0312786
0.0360277
0.0167675
0.0247289
-0.00431462
0.00711675
-0.0355901
-0.0185873
-0.0751336
-0.0553012
-0.0980111
-0.0906232
-0.0867762
-0.0966151
-0.0554928
-0.0714828
-0.0291943
-0.0411686
-0.0129897
-0.019754
-0.00341651
-0.00716219
0.00173771
-0.000256081
0.00319469
-0.125396
-0.107719
-0.149548
-0.139437
-0.155139
-0.154952
-0.139557
-0.149768
-0.109065
-0.125531
-0.0725055
-0.0909782
-0.0363253
-0.0538646
-0.0215009
-0.169241
0.110949
0.113951
0.118227
-0.112525
-0.167464
-0.0107932
0.0008945
-0.0695502
-0.0431676
-0.0242123
-0.0124852
-0.00686685
0.00544056
-0.00511744
-0.119474
-0.0800989
-0.0356358
0.01
0.0521161
0.0959983
-0.0982717
-0.0807756
-0.0433601
0.0116588
0.0119851
-0.0496031
-0.149164
-0.0236472
-0.0325982
-0.00576542
-0.0137957
0.00620151
0.000786088
0.0130879
0.0102698
0.0163175
0.0152279
0.0167541
0.016823
0.0169888
0.0167787
0.0185998
0.0177094
0.0198007
0.0194064
0.0191963
0.0196823
0.0171528
0.0183443
0.0130064
0.0153882
0.00585495
0.009812
-0.00512384
0.000850058
-0.0196812
-0.0121298
-0.0334332
-0.0271065
-0.0301366
-0.0353661
0.0076468
-0.0163102
0.0601242
0.0346364
0.100648
0.081983
0.12058
0.123689
0.113967
0.0218261
-0.00551242
0.00460738
0.0140456
0.0341442
0.0285135
0.043107
0.0390032
0.0502436
0.0468845
0.054576
0.0529249
0.053881
0.0546307
0.0502751
0.052357
0.042584
0.0469928
0.0298611
0.0367714
0.0120478
0.0216284
-0.0137026
0.000310111
-0.0473832
-0.0303099
-0.068362
-0.0611541
-0.0592645
-0.0669782
-0.0352984
-0.0475167
-0.0152353
-0.0243938
-0.00210769
-0.00797554
0.00522476
0.00207889
0.00995506
0.00801628
0.0116047
-0.139128
-0.120489
-0.166131
-0.154687
-0.170513
-0.171301
-0.151299
-0.163426
-0.116835
-0.135241
-0.077829
-0.0972457
-0.040577
-0.0586375
-0.0247384
-0.141785
0.0102985
-0.092779
-0.0611579
-0.0408037
-0.0271445
-0.0200426
-0.0176249
-0.0904827
-0.0549861
-0.0150809
0.027429
-0.0175653
-0.00629971
-0.0187676
0.0700479
0.109105
0.126987
-0.0536085
-0.135769
0.129171
-0.118309
0.0213353
-0.0288849
-0.0363548
-0.0109699
-0.0187076
0.0044073
-0.00252588
0.0141689
0.00963724
0.0205439
0.0178315
0.0237236
0.0225427
0.0246649
0.024405
0.0252859
0.0249483
0.0262942
0.025827
0.0264917
0.0265536
0.0255852
0.026128
0.0238464
0.0248338
0.0206994
0.0224688
0.0157397
0.0184394
0.00879587
0.0124827
0.000785451
0.00478469
-0.00488415
-0.00268455
0.00125225
-0.00380498
0.0288345
0.0126597
0.0693399
0.0493614
0.100354
0.0861012
0.117659
0.111268
0.127821
0.119173
0.120663
0.0129621
-0.0184709
-0.00591709
0.00395498
0.0280066
0.020997
0.0399276
0.0341578
0.0487973
0.044319
0.0563132
0.0524746
0.0614258
0.0591198
0.0623612
0.0624242
0.0592163
0.0611753
0.0524529
0.0562513
0.0419181
0.0475975
0.0275046
0.0352268
0.00652435
0.0180433
-0.0221764
-0.00754709
-0.0404335
-0.0340362
-0.0340013
-0.0395465
-0.0169207
-0.0256203
-0.00245345
-0.0091293
0.00715257
0.00287184
0.0134535
0.0104756
0.0168828
0.0151471
0.0189349
0.0184487
0.0174516
0.0193483
-0.106119
-0.0820763
-0.148166
-0.128611
-0.177844
-0.165305
-0.181157
-0.182754
-0.159179
-0.172744
-0.121925
-0.141678
-0.08091
-0.10124
-0.043388
-0.0614432
-0.0129366
-0.0270584
0.00895827
-0.000975284
0.0132727
-0.11589
-0.0786574
-0.0564159
-0.0420373
-0.0338669
-0.0310051
-0.0692232
-0.036086
0.00266307
-0.0314029
-0.0328843
-0.033488
0.0432931
0.083623
0.119364
-0.0163696
-0.0314726
0.132072
0.114422
0.123542
0.0223395
-0.0260363
-0.0255253
0.0200526
-0.10961
0.0197934
-0.0941258
-0.0134312
-0.0224053
0.000992898
-0.00671632
0.0132405
0.00715388
0.0212289
0.0174251
0.0266821
0.0242221
0.0296726
0.0284531
0.0309429
0.0304466
0.0317041
0.0313562
0.0321311
0.0320102
0.0317555
0.0320406
0.0308176
0.0313246
0.0294079
0.0301913
0.0271488
0.0283866
0.0239471
0.0256545
0.0199744
0.022013
0.0163515
0.0180064
0.0158945
0.015493
0.0241702
0.0187002
0.0461582
0.0333937
0.0756343
0.0611232
0.0980261
0.088006
0.110685
0.105859
0.109661
0.112102
0.105277
0.09527
0.104161
0.00436237
-0.0264698
-0.0117009
-0.00380503
0.019925
0.0124405
0.0332596
0.0266854
0.0441207
0.0389195
0.0527719
0.0485555
0.0600419
0.056538
0.065633
0.0630397
0.0678696
0.0672409
0.0660325
0.0673696
0.0608372
0.0637818
0.0526847
0.0570803
0.0413138
0.0474609
0.0237922
0.0335253
-0.000560838
0.0117467
-0.0156338
-0.0102746
-0.0120028
-0.0154276
-0.00101012
-0.00664399
0.00864785
0.00413611
0.0154321
0.0123139
0.0199569
0.0178896
0.0227366
0.0214592
0.0246138
0.0239041
0.0241093
0.0253454
0.0253175
-0.1052
-0.0760812
-0.151675
-0.130474
-0.182326
-0.169698
-0.185072
-0.187166
-0.161822
-0.176074
-0.123369
-0.143669
-0.0816009
-0.1023
-0.0442242
-0.0620974
-0.0143461
-0.0281438
0.00640274
-0.00270737
0.0134106
-0.0956926
-0.0702534
-0.0556395
-0.0473081
-0.0448797
-0.0535599
-0.0211455
-0.046416
-0.0491068
-0.0511248
0.0164084
0.0554965
0.095467
-0.0499373
0.126366
-0.0450114
0.130052
-0.0183438
-0.035449
0.115649
0.083342
0.0922789
0.0232317
-0.00944187
-0.00696354
0.0200375
-0.0907686
-0.0268343
-0.0469843
0.0253366
-0.0769978
0.000257231
-0.0038093
0.0113075
0.00506389
0.0204687
0.0155943
0.0271188
0.0238627
0.0316765
0.029528
0.0344101
0.0332034
0.0358183
0.0352169
0.0364839
0.0362313
0.0364705
0.03657
0.0358711
0.0362174
0.0350343
0.0354686
0.033944
0.0345345
0.0324283
0.0332334
0.0305676
0.0315269
0.0287195
0.0295983
0.0279825
0.028125
0.0305042
0.028702
0.0395486
0.0340816
0.0576069
0.0475322
0.0791418
0.068615
0.0949823
0.0881302
0.103189
0.100127
0.100049
0.103158
0.0862107
0.0944422
0.0685917
0.0625021
0.0754152
0.000135342
-0.0238672
-0.0090188
-0.00496034
0.0127895
0.00622811
0.025824
0.019143
0.0376508
0.0317816
0.0473686
0.0426024
0.0555777
0.0516223
0.0625234
0.0591863
0.0680996
0.0655153
0.0710888
0.0699736
0.0706464
0.0712506
0.0672242
0.0692341
0.0613377
0.0645559
0.0523738
0.057333
0.0374358
0.045752
0.0174138
0.0273569
0.00532522
0.00981966
0.00617196
0.00469014
0.0121668
0.00900641
0.0179707
0.0152007
0.0223925
0.020318
0.0255195
0.0240533
0.0275741
0.0266402
0.0292027
0.0282933
0.029685
0.0294186
0.0282956
-0.0996396
-0.0720908
-0.148521
-0.126312
-0.178737
-0.166471
-0.181375
-0.183479
-0.158621
-0.172595
-0.120906
-0.140819
-0.0798808
-0.100226
-0.0433094
-0.0607701
-0.0143118
-0.0277049
0.00630639
-0.00300837
0.0138504
-0.0821784
-0.0107564
-0.0667078
-0.0593122
-0.0582271
-0.0432631
-0.0618214
-0.0672159
-0.0714791
-0.011522
0.0255145
0.0649907
-0.0726947
0.104865
-0.0680708
0.128451
-0.0579653
0.123399
-0.0433963
0.101736
-0.0118463
-0.0276888
0.0761213
0.0479955
0.0523938
0.0233314
0.0201757
-0.0786105
0.0305128
0.0303998
-0.0659531
0.00722609
0.00369368
0.00448539
0.0129454
0.010335
0.0196697
0.0156869
0.026461
0.022868
0.0319143
0.0292236
0.0357175
0.0338876
0.0381441
0.0370288
0.0394696
0.0389035
0.0399232
0.0397924
0.0396752
0.0398693
0.0390642
0.0393871
0.0383747
0.0387262
0.0375811
0.0379961
0.0366639
0.0371302
0.0357835
0.0362042
0.0353616
0.0354773
0.0363791
0.0356244
0.0404195
0.0379496
0.0493368
0.0442208
0.0639621
0.0560752
0.0799188
0.072176
0.0914754
0.0864407
0.0957668
0.09471
0.0920819
0.0950605
0.0787528
0.086513
0.0574852
0.0687594
0.0320464
0.0309061
0.0447606
0.017144
0.00221612
-0.0128565
-0.000153964
0.00033159
0.00972808
0.0055057
0.0197566
0.0141815
0.030865
0.0250653
0.040991
0.0360564
0.0498208
0.0455126
0.0574891
0.0537893
0.06408
0.0609067
0.0694244
0.0669378
0.0727565
0.0713756
0.0733549
0.0733742
0.0714199
0.0726442
0.0673258
0.0696301
0.0602031
0.0642363
0.0477806
0.0546355
0.0320094
0.0397634
0.0220353
0.026031
0.0204156
0.0205269
0.0226528
0.0213349
0.0255643
0.024112
0.0281067
0.0268827
0.030043
0.0291343
0.0315222
0.0308059
0.0324423
0.0319607
0.0324604
0.03269
0.0316692
-0.0104422
-0.047578
-0.0272655
-0.0937331
-0.0697451
-0.139109
-0.117896
-0.167612
-0.156001
-0.170736
-0.172378
-0.150091
-0.162881
-0.114969
-0.133596
-0.0761692
-0.0954736
-0.0411927
-0.0579238
-0.0132768
-0.0262465
0.0069695
-0.00227172
0.0143896
-0.074738
0.0036827
0.0319366
-0.0682689
-0.0693338
-0.0611207
-0.0761283
-0.0857527
-0.0945934
-0.0393802
-0.00735429
0.0312706
-0.0993572
0.0735397
-0.0969709
0.112404
-0.0862062
0.12466
-0.0687792
0.111841
-0.0490983
0.0817433
-0.0294198
0.0576816
3.46464e-05
-0.0126939
0.0340975
0.0152916
-0.000482756
0.00237123
0.00914724
0.0137306
0.0140016
-0.0723745
0.00911228
0.0095623
0.0175695
0.0152981
0.0224515
0.020123
0.027007
0.0247347
0.031663
0.0292617
0.0358435
0.0337554
0.0389461
0.0374459
0.0409938
0.0400469
0.0420899
0.0416341
0.0423504
0.0423057
0.0420348
0.0422378
0.0415097
0.0417785
0.040973
0.0412418
0.0404448
0.0407071
0.0399952
0.0402025
0.039822
0.0398598
0.0403406
0.0399656
0.0423414
0.0411117
0.0469222
0.0442721
0.0551663
0.0505814
0.0669934
0.0607646
0.0788706
0.0731489
0.0871727
0.0835845
0.0894509
0.0891232
0.0846627
0.0880043
0.0725916
0.07951
0.0540438
0.0643223
0.0309239
0.0428271
0.0193891
0.0112492
0.0096998
0.0173414
0.0138119
0.0255114
0.0209565
0.0349287
0.0302072
0.0436948
0.0394004
0.05168
0.0477796
0.0587681
0.0553324
0.0649308
0.0619608
0.0699961
0.0676161
0.0734149
0.0719227
0.0746766
0.0743034
0.0737916
0.0744586
0.0709535
0.0726136
0.0653387
0.0685573
0.0554524
0.060862
0.0432008
0.0492583
0.0344676
0.0382389
0.031043
0.0322688
0.0307203
0.0306612
0.0315824
0.0310783
0.0327119
0.0321307
0.0337333
0.0332274
0.0346376
0.0341575
0.0351302
0.0347727
0.0347936
0.0349517
0.033985
0.0343194
0.0334724
0.0338289
0.0144104
-0.00836464
0.0046365
-0.0441592
-0.0247305
-0.0855174
-0.0645684
-0.125078
-0.106197
-0.151001
-0.140267
-0.15505
-0.155867
-0.137703
-0.148648
-0.10659
-0.123227
-0.0712065
-0.0889202
-0.0385499
-0.0542491
-0.0119716
-0.0244162
0.0076245
-0.00131595
0.0208828
0.0149644
0.0301679
0.0256018
0.0324847
-0.0729529
0.000427686
0.0100239
-0.0765081
-0.0729777
-0.087292
-0.102673
-0.118317
-0.0421398
-0.00769834
-0.129582
0.035121
-0.131746
0.0812583
-0.122218
0.115403
-0.102615
0.115623
-0.0774071
0.0970361
-0.0516814
0.0633011
-0.0292715
0.0370098
-0.0120585
-0.0016738
0.0143837
0.0220011
0.0156471
0.0225457
0.0333861
0.000329759
-0.0133007
-0.00401673
0.0100957
0.0220351
0.0217616
0.0251169
0.023199
0.0292655
0.0271402
0.0328667
0.0311857
0.0360404
0.0344305
0.0390427
0.0375304
0.0414434
0.0402807
0.0430682
0.0423222
0.0439043
0.0435654
0.0440463
0.0440408
0.043758
0.04393
0.0433454
0.0435548
0.042954
0.0431447
0.042651
0.0427881
0.0425485
0.0425677
0.0428553
0.0426379
0.0439532
0.0432834
0.0464559
0.0450025
0.0510742
0.0484864
0.0583748
0.0544059
0.0679345
0.0629788
0.0767842
0.0725363
0.0826269
0.0801798
0.0835736
0.0837328
0.0782997
0.0817765
0.0672138
0.0736691
0.051104
0.0599163
0.0309771
0.0412207
0.0106996
0.0204802
0.00291254
0.0183141
0.0230154
0.020583
0.0166589
0.0169962
0.0185923
0.0172008
0.0234623
0.0205869
0.0304294
0.0267424
0.0382794
0.0343421
0.0459388
0.0421535
0.0531058
0.0495925
0.059588
0.0564334
0.0652857
0.0625355
0.0699652
0.0677737
0.0733997
0.0718759
0.07504
0.0744301
0.0748539
0.0751444
0.0728903
0.0740918
0.0685067
0.0710354
0.0607433
0.0649839
0.0510087
0.0558879
0.0431162
0.0467089
0.0386563
0.0405306
0.0367515
0.0374868
0.0362312
0.0363819
0.0363324
0.0362318
0.0366491
0.0364686
0.0369608
0.0368038
0.0370178
0.0370026
0.0366425
0.036874
0.0360836
0.0364208
0.0349762
0.035658
0.034163
-0.00498335
0.00673538
-0.0366956
-0.0196746
-0.0731966
-0.054783
-0.10794
-0.0912621
-0.131446
-0.121544
-0.136757
-0.136531
-0.123377
-0.132112
-0.0970983
-0.111328
-0.0658578
-0.0816426
-0.0359874
-0.050463
-0.0109677
-0.022775
0.00799705
-0.00072173
0.0209864
0.0151766
0.0293265
0.0256762
0.031743
-0.0780562
-0.0930959
-0.114966
0.0336824
0.0111356
-0.0637851
-0.139474
-0.0503738
-0.160426
-0.0103223
-0.1714
0.0392887
-0.166784
0.0880176
-0.146185
0.110618
0.0197655
-0.115182
0.09959
0.0129826
-0.0813502
0.0717885
0.00167787
-0.0131349
-0.0257973
-0.0513294
0.0403472
-0.0108032
-0.0178526
-0.0277754
0.0141923
-0.0234244
0.0343075
-0.0122669
-0.00414174
0.0271997
0.0326776
-0.0816666
0.0278887
-0.0742085
0.0276415
0.0175848
0.0235418
0.0281291
0.0274612
0.030474
0.0288104
0.0341492
0.0323141
0.037099
0.0357384
0.0394127
0.0382851
0.0415183
0.040469
0.0432806
0.0424283
0.044505
0.0439469
0.0451208
0.0448748
0.0452099
0.0452125
0.0449877
0.0451186
0.0446838
0.0448368
0.0444257
0.0445455
0.0443064
0.0443445
0.0444534
0.0443401
0.0450704
0.0446927
0.0464856
0.0456627
0.0491595
0.0476509
0.0535369
0.0511346
0.0598275
0.0564745
0.0672548
0.0635277
0.0741501
0.0709589
0.0782022
0.0765835
0.07813
0.0786942
0.0729537
0.0761495
0.0628606
0.0684691
0.0485009
0.0561896
0.0309461
0.0397974
0.0130407
0.0218722
0.00416333
0.0251825
0.0271188
0.0232179
0.0236488
0.0249343
0.0234669
0.0287039
0.0263685
0.0345244
0.0314948
0.041095
0.0377642
0.0477913
0.0444595
0.054187
0.0510393
0.0600705
0.0571973
0.0652968
0.0627688
0.0696605
0.0675951
0.0729311
0.0714501
0.074738
0.0740079
0.0749824
0.0750345
0.0736119
0.0744948
0.0701261
0.0721492
0.0638959
0.067304
0.0559251
0.0599683
0.0487946
0.0521407
0.0439292
0.046099
0.0411416
0.0423384
0.0397356
0.0403173
0.0391123
0.0393571
0.0388733
0.0389614
0.0387371
0.0388025
0.0384647
0.0386228
0.0380441
0.0382438
0.0373249
0.0376821
0.0361576
0.0368236
0.0353871
-0.00047476
0.00964384
-0.0271063
-0.0129045
-0.0586107
-0.0425767
-0.0894957
-0.0745815
-0.111284
-0.101918
-0.118137
-0.116745
-0.108946
-0.115355
-0.0877651
-0.0994535
-0.0609114
-0.0746521
-0.033995
-0.0471814
-0.0106058
-0.0217377
0.00765049
-0.000807173
0.0202577
0.0146446
0.028289
0.0247424
0.0308256
-0.0915536
-0.119698
-0.00556874
0.0328371
0.0316808
-0.153884
-0.091431
-0.187157
-0.061635
-0.210931
-0.0122955
-0.216983
0.0453264
-0.200484
0.0901817
0.028793
0.0221011
-0.164765
0.0976953
0.0139505
-0.0199367
-0.0329274
-0.121402
0.076087
0.00415571
-0.0366525
-0.0808839
0.044336
-0.00834792
-0.0339527
-0.0479377
0.0140059
-0.0991395
-0.0248857
0.0322189
0.0351473
0.0383655
0.0277826
0.0304518
0.030568
0.0315913
0.0309252
0.0343179
0.0327853
0.0375109
0.0359278
0.0399967
0.0388514
0.0417781
0.040934
0.0432802
0.0425449
0.0445457
0.0439366
0.045444
0.045036
0.0458994
0.0457171
0.0459745
0.0459712
0.0458237
0.0459141
0.0456187
0.0457205
0.0454776
0.0455362
0.0455011
0.0454645
0.0458194
0.0456177
0.0466214
0.0461517
0.0481785
0.0472953
0.0508229
0.0493588
0.0548144
0.0526572
0.060152
0.0573507
0.066123
0.0631435
0.0713049
0.0689875
0.0740469
0.0730212
0.07327
0.07411
0.0682895
0.0712685
0.0592203
0.0641923
0.0465794
0.053291
0.0315139
0.039114
0.0161496
0.0238394
0.0017134
0.00845112
-0.00993705
-0.00404157
-0.0274725
0.032645
0.0332629
0.030856
0.0319736
0.0289088
0.0296697
0.0299965
0.0291913
0.0331483
0.0313231
0.0379201
0.0354183
0.0434727
0.0406343
0.0493111
0.0463903
0.0549966
0.0521877
0.0603042
0.0577047
0.065066
0.0627573
0.0690925
0.0671769
0.072149
0.0707494
0.073977
0.0732097
0.0744455
0.0743671
0.0734345
0.0741204
0.0705494
0.0722306
0.0653943
0.0682137
0.0587184
0.0621357
0.0523292
0.055378
0.047463
0.0497039
0.0442485
0.0456863
0.0423053
0.0431583
0.0411851
0.0416728
0.0405249
0.0408185
0.0400446
0.0402757
0.0395389
0.0397986
0.0389272
0.0392478
0.0380701
0.0385229
0.0369366
0.0375209
0.0352003
0.0361805
0.0278039
0.0196167
0.0245843
0.00460101
0.0129709
-0.0174735
-0.00563566
-0.044397
-0.03056
-0.0717581
-0.0584092
-0.0923291
-0.0832557
-0.100883
-0.0982834
-0.0957899
-0.0999383
-0.0795498
-0.088772
-0.0569637
-0.0687152
-0.0329261
-0.0448591
-0.0110902
-0.0215826
0.00649649
-0.00170554
0.0188776
0.0133521
0.0269297
0.0233224
0.02966
-0.11464
-0.0253624
0.0289286
0.0332629
-0.157542
-0.125125
-0.00966739
-0.203999
-0.113117
-0.243389
-0.0725524
-0.264884
-0.0102835
0.0421399
0.0359407
-0.0221853
-0.259946
0.0511735
0.02518
-0.0316322
-0.226169
0.0842998
0.0152604
-0.0412075
-0.174744
0.0756341
0.00592276
-0.0478578
-0.120967
0.0465201
-0.00592781
-0.0492835
-0.0757047
0.0135833
-0.0212461
-0.0449706
-0.0430364
0.0465876
0.0474083
0.0306329
0.0321887
0.0519332
0.0324339
0.0313823
0.0342088
0.0330621
0.0367875
0.0353435
0.0396266
0.0382128
0.0418142
0.0408048
0.0432824
0.0426026
0.044411
0.0438702
0.0453358
0.0448948
0.0459984
0.0456978
0.0463469
0.0462049
0.0464262
0.0464136
0.0463412
0.0463939
0.0462252
0.0462813
0.0461826
0.0461907
0.0463132
0.0462222
0.0467426
0.0464857
0.0476391
0.0471262
0.0492219
0.0483385
0.051723
0.050357
0.0552753
0.053379
0.0597571
0.0574349
0.0645066
0.0621652
0.0684062
0.0665743
0.0702137
0.0696119
0.0689964
0.0699907
0.0642659
0.0670372
0.0561713
0.0605742
0.0451755
0.050981
0.0323476
0.0388417
0.0193078
0.0256991
0.00761464
0.0131102
-0.00318051
0.00216276
0.0409134
0.043761
0.0374781
0.0387333
0.0355504
0.0365198
0.0339766
0.0345891
0.0342911
0.0337265
0.036876
0.0354076
0.0407735
0.0387067
0.0454844
0.0430616
0.0505568
0.0480066
0.0555915
0.053095
0.0603543
0.0580155
0.064664
0.0625715
0.0683397
0.0665858
0.0711569
0.0698607
0.0729114
0.0721618
0.073458
0.0733266
0.0726418
0.0732153
0.0701567
0.0716048
0.0657772
0.0681679
0.060089
0.0630167
0.0543971
0.0571473
0.049736
0.0519261
0.0463721
0.0479126
0.0441262
0.04514
0.0426748
0.0433288
0.0417053
0.0421511
0.0409612
0.0413192
0.0402541
0.0406095
0.0394496
0.039867
0.0384452
0.0389673
0.0371093
0.0378122
0.0355706
0.0363515
0.0327951
0.033505
0.0346108
0.0310253
0.0279217
0.0294424
0.0216164
0.0254604
0.00947556
0.0162455
-0.00880939
0.00107178
-0.0318665
-0.019922
-0.0560955
-0.0441371
-0.075729
-0.0668161
-0.0859844
-0.082218
-0.084698
-0.0867572
-0.0730148
-0.0799594
-0.0543878
-0.0642925
-0.0330222
-0.043794
-0.0125706
-0.0225072
0.00452023
-0.0035139
0.0169932
0.0113709
0.0252854
0.0215502
0.0303034
0.028141
0.0318065
-0.147928
-0.0142952
0.0322513
-0.205887
-0.157809
-0.0338489
0.0323831
0.0324401
0.0317317
0.0322961
-0.261611
-0.135235
0.0573654
0.0517951
-0.301276
-0.0796825
0.0403639
-0.0098751
-0.0205416
-0.313045
-0.00596558
0.0283589
-0.0340949
-0.289842
0.0529929
0.0167791
-0.0464478
-0.238464
0.0666689
0.0070296
-0.0572868
-0.173564
0.0451089
-0.00393509
-0.0636524
-0.113058
0.0117079
-0.0178474
-0.0638033
-0.0670069
-0.0203144
-0.0372612
0.0312715
0.0637137
0.0623671
0.0683686
0.031703
0.0333682
0.032502
0.035506
0.0343464
0.038159
0.0368026
0.0407765
0.0394985
0.0427898
0.0418653
0.0441052
0.0435075
0.0450288
0.0445962
0.045742
0.0454059
0.0462504
0.0460196
0.0465314
0.0464145
0.0466235
0.0465882
0.0465993
0.0466185
0.0465613
0.0465775
0.0465993
0.046567
0.0468081
0.0466788
0.0473035
0.0470159
0.0482323
0.0477092
0.0497679
0.048921
0.0520671
0.0508247
0.0551781
0.0535344
0.0589181
0.0570012
0.0627019
0.060855
0.0656291
0.0643104
0.0667265
0.0664451
0.065249
0.0663139
0.0608254
0.0633751
0.0536218
0.0575233
0.0440651
0.0490723
0.0331792
0.0387019
0.0221869
0.0275361
0.0126179
0.0170244
0.00336943
0.00784033
-0.00105628
0.000311088
-0.00698037
0.000715339
-0.000959725
-0.00212604
0.00581576
0.0523652
0.056899
0.0459034
0.0488791
0.0421081
0.0436695
0.0395874
0.0406767
0.0380458
0.0385861
0.0380723
0.0378027
0.0400461
0.0388948
0.0432159
0.0415176
0.0471952
0.0451368
0.0515807
0.0493651
0.0560178
0.0538097
0.0602686
0.0581764
0.0641432
0.0622596
0.0674667
0.0658778
0.0700316
0.068852
0.071656
0.0709572
0.0721902
0.0720532
0.0714701
0.0719816
0.0692636
0.070545
0.0654653
0.0675316
0.0605482
0.0630848
0.0554805
0.0579596
0.0511082
0.0531905
0.0477527
0.0493142
0.0453562
0.0464575
0.0436915
0.0444562
0.0424988
0.043056
0.0415488
0.0420075
0.0406593
0.0411047
0.0396923
0.0401857
0.0385666
0.0391403
0.0372583
0.0378928
0.0356538
0.0364581
0.033746
0.034836
0.0288986
0.0303036
0.0236105
0.0267314
0.0137933
0.0193195
-0.00145362
0.006844
-0.0213149
-0.0109433
-0.0429832
-0.0321586
-0.0619289
-0.0530851
-0.0737975
-0.0689506
-0.0759558
-0.0761293
-0.0683977
-0.0732757
-0.0533895
-0.0616041
-0.0344567
-0.0441769
-0.0151715
-0.0246641
0.00169169
-0.00631528
0.0145332
0.00867902
0.0232232
0.0193027
0.0286728
0.0262915
0.0305307
-0.190131
0.0741645
0.0706194
-0.0579769
0.0317898
0.031602
0.0325244
-0.260003
-0.192453
0.0581403
-0.0436038
0.0316617
0.0317293
0.01475
0.00454673
0.0781512
0.0800105
0.0845626
-0.318516
-0.152286
0.0863595
0.0736145
0.0813577
0.0450017
-0.0176161
-0.34964
-0.0786705
0.0318639
-0.0336812
-0.343084
-4.83823e-05
0.0194139
-0.0488749
-0.299748
0.0436869
0.00800564
-0.0639178
-0.232941
0.0368818
-0.00263481
-0.075061
-0.160209
0.00663332
-0.0149841
-0.0814128
-0.0990799
-0.0279487
-0.0315375
-0.0811147
-0.0570906
0.0184669
0.019282
0.032899
0.0310939
0.032144
0.0342064
0.0334428
0.0362297
0.0351241
0.0387824
0.0374904
0.0412447
0.0400532
0.0431523
0.0422728
0.0444102
0.0438413
0.045243
0.0448598
0.0458409
0.0455625
0.0462588
0.0460685
0.0465076
0.0464002
0.0466151
0.0465729
0.0466436
0.046634
0.046672
0.0466544
0.0467751
0.0467108
0.0470396
0.0468841
0.047569
0.0472677
0.0484893
0.0479771
0.0499357
0.0491456
0.0520097
0.0508988
0.0547049
0.0532934
0.0578132
0.0562352
0.0608245
0.0593706
0.063005
0.0620539
0.0635866
0.0635101
0.0619744
0.0630564
0.057906
0.06022
0.0515004
0.054955
0.0431905
0.0475186
0.0338803
0.0385985
0.0246031
0.0291368
0.016554
0.0204129
0.0095517
0.0127401
0.00674207
0.00738935
0.00943159
0.00704378
0.0136144
0.0665891
0.0722705