/*--------------------------------*- C++ -*----------------------------------*\
  =========                 |
  \\      /  F ield         | OpenFOAM: The Open Source CFD Toolbox
   \\    /   O peration     | Website:  https://openfoam.org
    \\  /    A nd           | Version:  10
     \\/     M anipulation  |
\*---------------------------------------------------------------------------*/
FoamFile
{
    format      ascii;
    class       volVectorField;
    location    "3.5";
    object      U;
}
// * * * * * * * * * * * * * * * * * * * * * * * * * * * * * * * * * * * * * //

dimensions      [0 1 -1 0 0 0 0];

internalField   nonuniform List<vector> 
6397
(
(4.19783 -0.825117 1.62297e-19)
(4.05641 -0.461304 -7.72299e-19)
(3.80169 -1.74857 0)
(3.76145 -1.61257 -1.8896e-20)
(3.16055 -1.40831 -8.65871e-20)
(3.25007 -1.61366 -1.39136e-19)
(3.15416 -1.9702 -8.38204e-19)
(1.73511 -2.94973 1.65895e-18)
(0.366416 0.388134 3.3336e-19)
(0.434038 -0.0810308 -9.286e-20)
(2.34566 3.16819 5.77624e-19)
(3.58891 3.84826 4.08978e-20)
(3.69484 0.0910604 -5.36097e-20)
(3.56618 0.0847786 -2.47848e-20)
(2.57019 0.110017 5.17524e-20)
(0.911758 1.4088 -4.88425e-18)
(2.0946 -0.11518 -2.49967e-18)
(-0.414808 0.212891 2.34074e-18)
(1.06301 0.352909 7.56258e-19)
(2.21391 -0.326075 -2.36202e-18)
(1.71894 0.123331 -1.19631e-18)
(-0.836542 0.0908363 -1.43569e-18)
(-0.959556 0.786735 6.36624e-20)
(1.7437 -0.108352 -8.60275e-19)
(3.79437 0.120471 0)
(4.11644 0.0528593 1.29186e-20)
(4.08787 0.105368 2.93521e-21)
(1.84762 -0.988625 1.6156e-19)
(1.83547 -0.677752 -2.82034e-20)
(2.13036 -1.1522 4.8104e-20)
(2.09229 -0.93925 -8.71677e-20)
(4.23712 -1.06304 -3.06734e-19)
(4.30065 -1.36773 -1.76852e-19)
(3.69588 -1.39796 6.21374e-19)
(5.31319 0.0279356 -7.68064e-20)
(5.34585 -0.375617 0)
(4.8334 -0.508751 1.01332e-19)
(4.85485 -0.897295 1.88483e-19)
(5.64874 0.427868 -9.12869e-20)
(5.55282 0.666133 2.79561e-20)
(5.54343 0.448308 0)
(5.64051 0.0963036 0)
(2.17472 -1.29932 -2.94025e-20)
(2.67099 -1.60117 -9.24199e-20)
(2.7462 -1.63051 7.14333e-20)
(3.33737 -1.73293 -2.00519e-19)
(2.86168 -1.56214 -1.1113e-19)
(2.95619 -1.66992 3.10052e-19)
(5.07126 0.8091 -3.84879e-20)
(5.12012 0.626055 5.58326e-21)
(4.98253 0.580542 -3.99854e-20)
(4.93506 0.471923 1.07767e-20)
(4.97212 0.547756 1.24251e-19)
(4.42677 1.15231 -6.59457e-20)
(3.67857 0.683804 4.25485e-20)
(4.03949 0.0435409 5.39455e-20)
(4.05587 0.0603834 5.18879e-20)
(4.50087 -0.185328 -6.97718e-20)
(2.60089 2.07747 -3.12822e-20)
(2.35173 1.6134 3.13827e-20)
(2.88221 2.47029 4.86573e-20)
(3.16375 2.72901 -4.8053e-20)
(3.48901 2.79585 -1.06757e-19)
(3.81561 2.62759 1.04901e-19)
(4.18154 2.17741 0)
(4.53477 1.45128 2.30907e-19)
(4.90759 0.471063 -2.4174e-19)
(5.15952 -0.58759 0)
(2.12745 1.90766 -8.15149e-20)
(2.13757 1.1048 2.72289e-21)
(1.91061 1.36247 7.89345e-20)
(2.38706 2.38794 0)
(2.65819 2.77418 0)
(2.9272 3.0337 0)
(3.20478 3.09423 -5.59875e-22)
(3.49409 2.90883 6.96044e-23)
(3.80267 2.43704 0)
(4.10638 1.66355 -3.12155e-23)
(4.41184 0.633684 0)
(4.65794 -0.488619 0)
(1.74593 0.799254 -1.04261e-19)
(1.97787 0.608101 4.55943e-21)
(5.29995 -1.54114 0)
(4.82672 -1.53305 0)
(1.64943 0.248338 -7.30491e-21)
(1.89125 0.120723 0)
(5.26887 -2.20852 0)
(4.83884 -2.29564 0)
(1.59945 -0.264638 2.26612e-19)
(1.83777 -0.301936 -1.11573e-20)
(5.12022 -2.5356 0)
(4.77319 -2.6843 0)
(1.61717 -0.702869 -1.67089e-19)
(1.65474 -1.06539 -1.46001e-19)
(4.92559 -2.56486 0)
(4.65153 -2.70608 1.94534e-20)
(1.44508 -0.241359 0)
(1.54017 -1.15195 3.35491e-19)
(1.48234 -0.743158 2.25502e-20)
(1.55879 0.987311 -1.49491e-19)
(1.47955 0.356564 0)
(1.96554 2.18327 -6.06274e-20)
(1.7293 1.61035 1.51798e-19)
(2.48007 3.06168 6.6861e-20)
(2.22201 2.67488 4.5773e-20)
(2.97587 3.36067 5.60943e-22)
(2.72843 3.31178 -7.11954e-20)
(3.44602 2.66979 -1.91277e-20)
(3.2113 3.15912 -1.16037e-19)
(3.91799 0.83128 -1.22475e-19)
(3.68146 1.88188 2.44963e-19)
(4.33564 -1.4808 0)
(4.14788 -0.361326 0)
(4.4929 -2.73277 0)
(4.44002 -2.31445 0)
(4.47697 -2.77096 -3.91435e-20)
(5.66012 -2.05872 -1.62348e-19)
(5.24483 -2.3865 -5.19503e-20)
(5.49496 -2.34679 1.60668e-19)
(5.5837 -0.65542 2.15592e-19)
(5.73043 -1.50629 -2.10751e-19)
(4.93041 1.19908 1.52482e-21)
(5.33919 0.280646 7.06405e-21)
(4.15941 2.32811 0)
(4.56429 1.89388 0)
(3.44578 2.40073 1.10827e-20)
(3.81547 2.46526 4.00008e-21)
(2.84034 1.78153 -1.77414e-21)
(3.14827 2.1367 -1.14392e-20)
(2.40951 0.885611 1.72335e-21)
(2.61784 1.33963 -7.20728e-22)
(2.16226 0.0129362 -2.16213e-20)
(2.2614 0.434419 -9.1623e-22)
(2.09466 -0.667598 0)
(2.10865 -0.357069 3.12401e-20)
(1.77667 -1.33533 -1.11281e-19)
(1.93232 -1.22433 4.85122e-21)
(1.72192 -1.45877 9.62683e-20)
(4.43621 -2.56248 -4.66588e-20)
(4.543 -2.52106 1.22378e-20)
(5.51409 -2.18056 -6.06204e-22)
(5.04833 -2.31497 5.20744e-20)
(5.27038 -2.13029 0)
(4.42203 -2.27369 3.05954e-20)
(4.38979 -2.53671 -5.9291e-20)
(4.44145 -2.24192 5.89667e-20)
(2.33407 -1.12937 2.47125e-20)
(1.57414 -1.29244 -2.02516e-19)
(1.78701 -1.63173 -9.22671e-20)
(2.33171 -1.2789 2.8882e-20)
(4.75829 -2.43454 3.51527e-21)
(1.38432 -0.222834 0)
(1.4636 -0.825054 -6.90087e-20)
(1.49871 1.15826 1.1372e-20)
(1.41818 0.458857 0)
(1.87699 2.44123 -3.42361e-20)
(1.67272 1.83614 6.91077e-20)
(2.36086 3.28953 0)
(2.13175 2.9218 8.67011e-21)
(2.78036 3.56324 0)
(2.58619 3.51463 4.91874e-21)
(3.13949 2.88891 0)
(2.96321 3.37 1.24663e-20)
(3.50296 1.05103 -6.10223e-22)
(3.31811 2.10341 1.27443e-20)
(3.89818 -1.29677 8.76935e-21)
(3.70601 -0.153031 -1.66725e-20)
(4.19813 -2.63771 -2.35201e-21)
(4.05961 -2.17338 -3.33459e-21)
(4.29428 -2.72139 1.9468e-20)
(5.92195 -1.95405 1.85194e-21)
(5.76054 -2.1489 2.01333e-21)
(5.87902 -0.806385 -1.88337e-22)
(5.98374 -1.51992 0)
(5.27189 0.953756 0)
(5.64303 0.0681909 -1.88709e-21)
(4.4827 2.03082 0)
(4.89253 1.63112 0)
(3.72182 2.06049 2.15217e-23)
(4.10804 2.15107 -4.05682e-21)
(3.10024 1.48331 2.56386e-21)
(3.4085 1.82561 0)
(2.67363 0.685612 1.2897e-20)
(2.87745 1.09633 0)
(2.44037 -0.0758036 1.10591e-22)
(2.53624 0.289652 -1.29264e-20)
(2.35586 -0.693363 2.82447e-24)
(2.3786 -0.405608 1.59014e-21)
(2.34684 -0.936421 -1.81918e-20)
(1.94139 -1.4944 2.77557e-20)
(2.02974 -1.37559 0)
(1.97808 -1.79017 4.25374e-20)
(1.91879 -1.6257 -3.1816e-20)
(5.01944 -2.04591 0)
(4.8843 -2.23476 0)
(4.46352 -2.30758 -1.2604e-20)
(4.38769 -2.39651 -9.09414e-21)
(4.51168 -2.16262 0)
(4.48086 -2.04029 -6.28714e-21)
(4.42087 -2.09607 3.24996e-21)
(4.97643 -1.73094 0)
(4.77133 -1.97872 0)
(4.65321 -1.64467 -1.39135e-20)
(2.21276 -1.39225 4.23074e-20)
(2.30991 -1.38382 0)
(2.15361 -1.85472 -8.02709e-20)
(2.10694 -1.96393 -7.8889e-22)
(2.30513 -2.01714 2.31471e-19)
(2.4983 -1.3206 0)
(2.55277 -1.16687 -6.38475e-21)
(4.64626 -2.29878 0)
(1.71755 -1.42825 3.84202e-20)
(1.90909 -1.78293 0)
(1.54084 -0.286461 1.44783e-21)
(1.60781 -0.940999 -1.09983e-20)
(1.62576 1.2565 -1.76087e-20)
(1.55268 0.452938 0)
(1.946 2.65874 2.95327e-22)
(1.75567 2.00659 -1.65713e-20)
(2.36612 3.51228 -2.28413e-22)
(2.16661 3.16316 -1.34839e-20)
(2.70008 3.71414 2.5384e-20)
(2.56409 3.69739 0)
(2.92395 3.01395 0)
(2.8234 3.50328 -2.58816e-20)
(3.17056 1.22453 -8.55556e-21)
(3.04385 2.24468 4.0703e-21)
(3.52605 -1.06915 0)
(3.34141 0.0592621 -1.09301e-21)
(3.96693 -2.44424 -6.29272e-21)
(3.74925 -1.95522 1.2109e-20)
(4.18751 -2.55806 1.58421e-20)
(5.60684 -1.94146 -8.53533e-21)
(5.29788 -1.83859 2.0374e-23)
(6.02887 -1.88565 -5.02117e-21)
(5.85779 -1.97638 1.47151e-20)
(5.99693 -0.978209 7.92533e-22)
(6.07332 -1.55253 -1.2895e-20)
(5.50191 0.593749 0)
(5.79566 -0.201702 1.43216e-20)
(4.77642 1.63643 0)
(5.14477 1.25019 0)
(4.0201 1.71658 -6.12165e-23)
(4.38814 1.77881 0)
(3.37662 1.22239 0)
(3.67505 1.52007 0)
(2.94083 0.521688 0)
(3.12956 0.883378 0)
(2.70489 -0.153117 -6.03159e-21)
(2.79729 0.171487 0)
(2.61396 -0.728876 -2.79782e-24)
(2.64788 -0.456405 6.16512e-21)
(2.58775 -0.969088 7.51344e-21)
(2.0621 -1.57012 2.56459e-20)
(2.12188 -1.46361 -3.95889e-20)
(2.07014 -1.7006 6.69997e-20)
(4.55459 -2.01565 4.62477e-20)
(4.77986 -2.17698 0)
(4.46522 -2.19204 1.58332e-20)
(4.33894 -1.56316 1.46311e-20)
(4.47848 -1.88246 0)
(4.52127 -2.02419 6.07215e-21)
(4.49334 -2.11807 1.8189e-20)
(2.33214 -1.83415 -2.7024e-21)
(2.48523 -1.96422 -3.77819e-21)
(2.24575 -1.44377 3.8884e-20)
(2.30302 -1.446 3.64973e-20)
(2.76545 -1.224 4.0967e-22)
(2.69581 -1.39803 0)
(2.33532 -2.1085 4.27075e-20)
(2.52845 -2.15159 7.16506e-20)
(4.57407 -1.98004 -4.63948e-20)
(4.63362 -2.07678 -6.04893e-21)
(4.60122 -2.16912 -4.6111e-20)
(2.43911 -1.42364 9.97197e-21)
(4.63409 -2.22495 0)
(2.02977 -1.59343 3.90633e-20)
(2.18581 -1.95003 -1.53635e-19)
(1.87926 -0.343456 -4.97105e-20)
(1.93698 -1.06148 1.14914e-19)
(1.91977 1.36746 0)
(1.86245 0.49096 0)
(2.17137 2.84333 5.66868e-23)
(2.02509 2.16453 -2.18082e-26)
(2.48853 3.6824 2.2639e-22)
(2.33555 3.35381 0)
(2.71659 3.80996 0)
(2.6316 3.83268 -1.39759e-26)
(2.80802 3.08166 0)
(2.77788 3.57537 0)
(2.93995 1.3286 0)
(2.86694 2.31988 0)
(3.24502 -0.86284 0)
(3.07325 0.208944 0)
(3.77644 -2.16098 0)
(3.50303 -1.68815 0)
(4.33922 -2.1839 -9.69476e-21)
(4.07475 -2.28791 0)
(4.60552 -1.95893 0)
(4.52857 -2.02897 7.96961e-22)
(4.6537 -1.97154 0)
(4.61582 -1.941 -9.15781e-21)
(4.84986 -1.42373 -2.52767e-21)
(4.36301 -1.34001 -1.80666e-21)
(4.59706 -1.37428 2.53857e-21)
(5.42222 -1.61696 2.46801e-21)
(5.12869 -1.50335 -2.0373e-23)
(5.84064 -1.69215 -2.36146e-21)
(5.67262 -1.70365 -3.17799e-21)
(5.87925 -1.04923 -3.98018e-23)
(5.90833 -1.48534 0)
(5.54874 0.343206 0)
(5.76394 -0.392658 0)
(4.88971 1.31171 0)
(5.24583 0.950916 0)
(4.17388 1.37884 -1.34917e-23)
(4.52311 1.43221 0)
(3.58944 0.959859 0)
(3.86104 1.20691 0)
(3.17608 0.360204 0)
(3.3589 0.665097 0)
(2.94689 -0.232155 -5.96374e-21)
(3.0412 0.0573782 6.20481e-21)
(2.84397 -0.763677 -1.51735e-21)
(2.88706 -0.50914 5.72129e-22)
(2.80755 -1.00851 1.55718e-22)
(2.19747 -1.58183 -3.534e-20)
(2.20521 -1.49214 -4.1947e-20)
(2.23207 -1.70133 0)
(4.07953 -1.46518 0)
(4.12877 -1.25513 1.28433e-21)
(4.78344 -2.23863 5.75898e-20)
(4.80276 -2.04626 0)
(4.60453 -2.14165 0)
(4.52711 -2.22068 0)
(2.68984 -2.08241 0)
(2.40036 -1.47628 -6.04604e-20)
(2.97532 -1.27784 -1.53939e-21)
(2.91359 -1.46053 0)
(4.20716 -1.73885 1.60625e-21)
(4.55848 -2.24945 -2.41356e-20)
(3.84267 -1.04923 1.11619e-21)
(3.82727 -1.29567 -1.08388e-21)
(4.69882 -2.34463 5.25903e-20)
(4.9296 -2.35839 1.16169e-20)
(5.02504 -2.16733 0)
(2.61805 -1.51047 5.01175e-20)
(4.60655 -2.2308 0)
(2.69168 -2.24224 -1.33556e-19)
(2.94939 -2.177 -5.39514e-20)
(2.83953 -2.27211 -2.45082e-19)
(2.49124 -1.72001 -7.87418e-20)
(2.59237 -2.08899 1.45731e-19)
(2.39682 -0.386599 0)
(2.44107 -1.16152 5.05871e-20)
(2.42186 1.42158 2.82097e-26)
(2.3974 0.49513 -2.93348e-26)
(2.56201 2.98589 4.25456e-23)
(2.47899 2.27525 0)
(2.74301 3.81037 0)
(2.65708 3.50088 0)
(2.83946 3.85992 -1.89748e-22)
(2.81289 3.92545 1.3974e-26)
(2.80858 3.09916 1.06346e-26)
(2.83747 3.59766 -1.10413e-26)
(2.81829 1.40687 0)
(2.80546 2.35451 0)
(3.04435 -0.642271 1.41317e-22)
(2.90122 0.354563 0)
(3.57053 -1.86581 -1.02278e-22)
(3.297 -1.41202 0)
(4.16055 -1.96939 -2.76978e-21)
(3.87962 -2.01024 0)
(4.51841 -1.92208 1.68701e-20)
(4.39139 -1.9194 5.02709e-21)
(4.64534 -1.86647 1.8053e-20)
(4.58065 -1.91549 -7.61672e-21)
(5.03379 -1.91342 4.84457e-20)
(4.79066 -1.83837 -1.80258e-20)
(4.38954 -1.13334 -7.02475e-23)
(3.71012 -0.695155 4.52488e-22)
(4.07811 -0.976421 6.50427e-25)
(4.83766 -1.23944 2.20808e-21)
(4.63752 -1.20026 -1.13104e-21)
(5.19559 -1.39025 -2.71105e-21)
(5.01974 -1.28805 -8.66221e-22)
(5.50128 -1.5763 0)
(5.36182 -1.51368 3.51678e-21)
(5.67895 -1.08111 -3.96786e-23)
(5.60716 -1.45616 -1.34736e-27)
(5.54938 0.136144 0)
(5.67533 -0.497254 0)
(4.98939 0.961658 4.00843e-23)
(5.30283 0.649022 0)
(4.33205 1.06665 5.36991e-23)
(4.65613 1.08793 0)
(3.78437 0.725303 0)
(4.03514 0.934727 0)
(3.39934 0.214446 0)
(3.56526 0.470374 0)
(3.17659 -0.298993 0)
(3.26641 -0.0503179 0)
(3.06524 -0.808378 0)
(3.11754 -0.562826 -2.27075e-22)
(3.029 -1.05501 1.47202e-21)
(3.50179 -0.666644 -1.20508e-21)
(3.33842 -0.281511 0)
(5.23184 -2.2204 1.05655e-20)
(5.32606 -2.01522 -6.42493e-20)
(2.54883 -1.55613 0)
(2.83125 -1.58776 -1.08084e-20)
(2.36163 -1.49159 -3.78144e-20)
(2.48187 -1.54123 4.42236e-20)
(2.26507 -1.44619 2.25636e-20)
(2.29068 -1.46144 1.94558e-21)
(2.29724 -1.53629 1.91231e-22)
(2.26804 -1.47123 -2.0028e-20)
(2.46295 -1.74232 -5.42437e-20)
(2.35672 -1.63177 6.05083e-21)
(2.82009 -1.94525 0)
(2.62202 -1.84614 5.7409e-20)
(3.05889 -2.02438 8.13368e-20)
(4.40068 -2.04496 -1.61919e-21)
(4.53543 -2.29103 -1.12584e-26)
(3.90624 -1.53114 1.0881e-21)
(4.58034 -2.36305 0)
(3.57645 -0.990357 0)
(4.73689 -2.41216 0)
(3.04416 0.181648 -1.09225e-22)
(3.13112 -0.115797 1.90749e-23)
(4.99677 -2.31173 -6.50791e-20)
(5.56778 -1.98426 1.90242e-20)
(5.32401 -2.07341 7.57209e-20)
(3.26936 -2.23086 8.22566e-20)
(3.3414 -2.06279 -6.36218e-20)
(4.51535 -2.22374 -9.77106e-27)
(3.1434 -2.33553 -8.79052e-21)
(3.22493 -2.3508 -6.23572e-20)
(3.07853 -1.79183 -4.86986e-20)
(3.11634 -2.17874 0)
(3.05262 -0.381351 2.87848e-26)
(3.06436 -1.1956 5.53879e-20)
(3.07414 1.47429 0)
(3.05803 0.524211 0)
(3.10152 3.06975 -3.92147e-22)
(3.08453 2.34267 0)
(3.1203 3.87543 0)
(3.11106 3.58159 0)
(3.06535 3.85631 3.64735e-22)
(3.10671 3.95995 0)
(2.90447 3.06025 1.24359e-22)
(2.99494 3.56546 0)
(2.79435 1.43012 0)
(2.83554 2.336 0)
(2.93727 -0.478904 -3.72531e-23)
(2.82797 0.442032 0)
(3.36338 -1.59988 2.49265e-23)
(3.14054 -1.18574 0)
(3.85941 -1.73417 5.25245e-23)
(3.61748 -1.73623 -4.21355e-27)
(4.28619 -1.7955 -1.52061e-23)
(4.08068 -1.73921 0)
(4.65871 -1.75243 -2.08416e-22)
(4.47828 -1.82523 6.49667e-21)
(5.02743 -1.65266 -2.10445e-20)
(4.8305 -1.66335 -2.35951e-20)
(5.58313 -1.69411 4.34873e-20)
(5.28583 -1.69684 -2.47598e-21)
(3.51773 -0.315497 -9.45025e-23)
(3.15959 0.298921 9.31758e-23)
(3.26646 0.00224537 0)
(4.17998 -0.7956 1.36714e-22)
(3.84325 -0.586427 -3.53315e-22)
(4.71251 -1.05857 -1.14397e-22)
(4.47755 -0.943855 1.85182e-23)
(5.0344 -1.30507 1.98151e-24)
(4.89244 -1.16599 -1.02181e-22)
(5.31154 -1.49711 0)
(5.16549 -1.44591 0)
(5.57785 -1.01532 5.26792e-24)
(5.46269 -1.35995 4.42078e-28)
(5.48466 -0.0334683 -2.54674e-27)
(5.59452 -0.539348 2.69593e-27)
(4.98447 0.682462 1.15414e-23)
(5.2646 0.400671 0)
(4.40007 0.784239 0)
(4.68891 0.798455 0)
(3.91695 0.506149 -7.05061e-23)
(4.13586 0.680199 0)
(3.59064 0.0646933 0)
(3.72959 0.288966 0)
(3.39018 -0.374502 -5.30988e-23)
(3.46488 -0.158274 0)
(3.29275 -0.8536 7.07665e-23)
(3.324 -0.615794 -3.43083e-22)
(3.22801 -1.33316 -1.83214e-21)
(3.25097 -1.11159 0)
(3.12186 -1.6547 -7.66636e-20)
(3.16833 -1.52706 3.25088e-20)
(3.04085 -1.7077 -1.16751e-20)
(2.29978 -1.41803 0)
(2.58285 -1.51645 -5.11718e-20)
(2.40387 -1.47585 6.38358e-21)
(2.26074 -1.38637 0)
(2.25355 -1.40011 0)
(2.37313 -1.44926 -2.00219e-20)
(2.3023 -1.40316 -4.69811e-27)
(2.58492 -1.61403 1.32577e-20)
(2.46492 -1.52084 3.61694e-20)
(2.92419 -1.77304 0)
(2.7407 -1.6992 -3.57099e-20)
(2.91918 0.586857 -5.58205e-24)
(3.1949 0.548761 -2.38093e-22)
(5.68824 -1.70656 -8.86828e-20)
(5.84335 -1.53148 -1.17108e-19)
(3.36082 -1.85926 -4.86627e-20)
(3.12963 -1.83248 2.7188e-20)
(4.12277 -1.85007 -1.44716e-25)
(4.45649 -2.28878 0)
(3.65253 -1.22589 0)
(4.49186 -2.3199 -4.72598e-25)
(3.25981 -0.494767 -1.19319e-23)
(4.67022 -2.24588 -2.21749e-20)
(2.83218 0.496723 1.26396e-23)
(4.91519 -2.01407 0)
(3.29585 0.76559 4.23407e-22)
(2.9988 0.854716 8.46836e-24)
(5.27432 -1.65881 -1.13124e-19)
(5.99055 -1.16126 1.27878e-19)
(5.65259 -1.12955 4.07036e-20)
(3.36657 0.691392 1.90058e-21)
(3.36592 0.996156 -4.34424e-22)
(3.4066 0.903399 4.24857e-22)
(5.93897 -0.53333 7.93354e-20)
(6.01496 -0.999878 -8.36345e-20)
(6.11121 -0.586979 -1.42159e-20)
(3.60612 -1.84861 -2.0441e-20)
(3.39953 -1.65116 0)
(3.62225 -1.64655 2.33769e-20)
(4.32133 -2.11014 -1.16722e-26)
(3.62458 -2.23587 -2.36872e-20)
(3.646 -2.06342 -6.16263e-20)
(3.65578 -2.35811 6.74966e-20)
(3.6653 -2.37193 2.34154e-20)
(3.73945 -1.78536 0)
(3.70828 -2.19476 0)
(3.79816 -0.370853 0)
(3.77873 -1.18299 0)
(3.80479 1.50095 0)
(3.81024 0.549192 0)
(3.72413 3.08813 0)
(3.77506 2.37044 0)
(3.57123 3.86359 3.81734e-26)
(3.65134 3.58773 -3.96612e-26)
(3.35369 3.79174 -1.74963e-22)
(3.4704 3.92176 -2.41936e-26)
(3.06706 2.9697 -1.24361e-22)
(3.21449 3.47869 0)
(2.84711 1.41266 0)
(2.93887 2.26801 0)
(2.88921 -0.335513 -3.4036e-23)
(2.8302 0.502006 0)
(3.19225 -1.37474 2.43568e-23)
(3.02629 -0.983697 0)
(3.57933 -1.53128 -5.25138e-23)
(3.38872 -1.52166 0)
(4.03157 -1.56074 -7.03e-23)
(3.78039 -1.52653 -1.99325e-27)
(4.63218 -1.54375 -4.00233e-21)
(4.3383 -1.57954 0)
(5.00597 -1.43146 6.06845e-21)
(4.85069 -1.48211 5.53576e-21)
(5.47926 -1.33881 -2.78727e-20)
(5.20069 -1.38592 1.76274e-20)
(5.7796 -1.22944 7.56041e-20)
(3.3227 0.24415 1.42367e-21)
(3.34604 0.460681 -3.33486e-21)
(3.42221 -0.137678 6.98407e-24)
(3.3323 0.0517661 2.16509e-22)
(3.83697 -0.494702 1.33266e-21)
(3.60249 -0.320731 -1.40709e-21)
(4.35351 -0.799133 3.96057e-24)
(4.09621 -0.649629 -1.88061e-23)
(4.79705 -1.10454 -1.98065e-24)
(4.58839 -0.947807 4.97571e-28)
(5.16385 -1.28808 0)
(4.98576 -1.24112 0)
(5.38756 -0.946783 5.58983e-27)
(5.30825 -1.19294 -5.91482e-27)
(5.28994 -0.185435 0)
(5.37983 -0.589232 0)
(4.92153 0.416361 5.88564e-24)
(5.13163 0.174094 0)
(4.43827 0.531374 0)
(4.6839 0.527399 0)
(4.01528 0.329817 7.0507e-23)
(4.20959 0.460528 0)
(3.74478 -0.0391901 0)
(3.85877 0.153041 0)
(3.58865 -0.438493 -1.1915e-25)
(3.64911 -0.239818 1.47406e-26)
(3.5082 -0.890937 -6.87788e-23)
(3.53269 -0.654342 0)
(3.47631 -1.37754 0)
(3.48272 -1.14136 -3.10418e-24)
(3.43252 -1.71802 2.94497e-20)
(3.46205 -1.57116 1.32825e-23)
(3.41765 -1.77093 6.41873e-20)
(2.48659 -1.35024 -1.26606e-19)
(2.75775 -1.38553 6.90792e-20)
(2.24869 -1.26717 0)
(2.33034 -1.31399 0)
(2.25527 -1.26215 -2.2222e-24)
(2.22655 -1.25922 -4.73326e-27)
(2.41992 -1.32573 -2.22962e-24)
(2.32234 -1.28461 -4.21208e-27)
(2.66768 -1.45481 -2.11068e-21)
(2.53767 -1.3791 -8.11288e-27)
(2.99505 -1.58269 -1.52069e-20)
(2.81738 -1.52587 1.19791e-20)
(3.18953 -1.62772 5.33425e-21)
(3.82877 -1.55115 2.66246e-25)
(4.25093 -2.13115 -8.63438e-26)
(3.34949 -0.781085 0)
(4.30619 -2.03772 5.28695e-25)
(2.91616 0.192919 2.21641e-23)
(4.47253 -1.81595 2.22172e-20)
(2.73951 1.00673 -6.07726e-23)
(4.72121 -1.44467 6.77873e-21)
(3.18763 1.043 -1.00818e-22)
(5.07341 -0.884011 0)
(3.50168 1.06033 -4.67291e-22)
(3.41883 1.20252 0)
(5.38227 -0.22176 5.04703e-20)
(5.99279 0.0264743 -5.26736e-20)
(5.56268 0.369036 -7.33998e-20)
(3.74437 0.980998 -1.3887e-22)
(3.63246 1.20395 5.15634e-21)
(3.87909 1.11952 -7.33245e-24)
(5.59226 0.7304 3.16303e-20)
(5.93412 -0.033023 -2.37099e-20)
(5.76981 0.428197 1.29995e-20)
(3.4126 -1.44291 0)
(3.58889 -1.44205 5.03624e-20)
(3.85003 -1.78811 -3.76109e-20)
(3.85772 -1.59196 3.94284e-20)
(4.04247 -1.86979 7.06356e-26)
(3.99218 -2.17631 2.90366e-20)
(3.94935 -2.01426 2.52711e-20)
(4.18444 -2.29066 -7.83575e-21)
(4.10341 -2.31115 2.22164e-20)
(4.40843 -1.7211 1.85518e-22)
(4.30051 -2.12063 -1.78145e-25)
(4.561 -0.333989 0)
(4.49956 -1.11932 0)
(4.55836 1.492 0)
(4.5826 0.564561 0)
(4.37672 3.03563 -3.83445e-22)
(4.48735 2.34184 0)
(4.06747 3.76955 0)
(4.23073 3.51556 0)
(3.69573 3.65202 0)
(3.88577 3.80325 0)
(3.28567 2.80886 0)
(3.48614 3.31828 0)
(2.96368 1.32542 0)
(3.09817 2.12843 0)
(2.9187 -0.287247 -7.00323e-23)
(2.8981 0.482975 0)
(3.1644 -1.23978 2.28064e-23)
(3.01074 -0.882559 -1.13884e-26)
(3.56743 -1.36464 0)
(3.36374 -1.37251 0)
(3.9798 -1.26442 1.16953e-23)
(3.76342 -1.31035 1.99324e-27)
(4.48771 -1.2383 -2.70205e-23)
(4.228 -1.23388 -4.90593e-27)
(4.92246 -1.25438 -3.46852e-21)
(4.723 -1.26712 -3.87464e-24)
(5.3323 -1.06822 2.0445e-21)
(5.1191 -1.17931 1.48593e-21)
(5.77264 -0.754556 1.73276e-20)
(5.56712 -0.936098 -1.08065e-20)
(5.91173 -0.459128 3.07046e-20)
(3.5152 0.682164 3.05209e-22)
(3.61505 0.842596 -3.47144e-23)
(3.4691 0.27001 -5.3189e-23)
(3.47061 0.486455 0)
(3.51301 -0.0805527 -6.90442e-24)
(3.48332 0.0807094 -2.19262e-22)
(3.67827 -0.326003 0)
(3.57335 -0.209906 0)
(4.01349 -0.560881 2.96611e-24)
(3.82743 -0.436503 0)
(4.43001 -0.885718 0)
(4.22071 -0.712124 0)
(4.78278 -1.13666 0)
(4.62056 -1.04754 0)
(5.00965 -0.919172 -4.17091e-23)
(4.90997 -1.10176 0)
(5.07587 -0.270115 0)
(5.07277 -0.618288 0)
(4.84369 0.230949 -5.75148e-23)
(4.99525 0.0336306 0)
(4.44721 0.312211 -6.51838e-23)
(4.65293 0.313928 0)
(4.07801 0.159292 -6.62632e-23)
(4.25086 0.258634 4.29704e-27)
(3.85237 -0.136606 -6.13029e-23)
(3.94654 0.0226682 -3.34025e-26)
(3.74829 -0.488612 1.49853e-24)
(3.79248 -0.309008 0)
(3.70854 -0.910841 0)
(3.73148 -0.686437 0)
(3.72546 -1.39076 0)
(3.7334 -1.15618 3.10944e-24)
(3.7665 -1.72987 -2.7267e-20)
(3.77764 -1.58802 -1.30452e-23)
(3.80693 -1.78991 2.23109e-20)
(3.10026 -1.1176 0)
(3.64296 -1.08259 -2.89941e-19)
(2.42605 -1.08411 6.6954e-20)
(2.68819 -1.11415 2.5463e-20)
(2.22592 -1.04068 5.80381e-24)
(2.28709 -1.04955 1.24846e-26)
(2.27132 -1.07969 4.3162e-24)
(2.22822 -1.05241 9.24548e-27)
(2.45955 -1.16748 -7.29986e-27)
(2.35097 -1.11761 7.42248e-27)
(2.7349 -1.27738 -3.31916e-21)
(2.59182 -1.21613 6.56416e-27)
(3.05535 -1.39074 1.51456e-20)
(2.88742 -1.34075 3.38177e-21)
(3.23141 -1.42523 1.54083e-20)
(3.49612 -1.09969 0)
(3.97283 -1.77474 2.95257e-26)
(3.04172 -0.136162 0)
(4.028 -1.51925 -3.01702e-24)
(2.64061 0.942016 -2.751e-23)
(4.18271 -1.11226 -5.58461e-23)
(2.90855 1.29524 4.6453e-23)
(4.39388 -0.50748 2.47775e-22)
(3.35085 1.25377 1.16228e-22)
(4.65186 0.286297 5.07059e-22)
(3.51465 1.36962 0)
(4.78988 0.967916 4.04405e-20)
(4.02946 1.2385 5.31585e-21)
(3.76866 1.35089 -1.45861e-20)
(4.87905 1.30324 -1.04479e-21)
(5.43525 0.819384 -1.38163e-20)
(5.04172 1.27413 2.24615e-20)
(3.74745 -1.42499 -4.30126e-21)
(3.70999 -1.45518 -1.63375e-25)
(4.11103 -1.6838 4.87319e-20)
(3.944 -1.27951 -1.60783e-19)
(4.01024 -1.54269 1.02116e-19)
(4.35155 -2.06536 -9.8439e-21)
(4.20981 -1.9279 -4.57185e-20)
(4.68567 -2.1592 7.82561e-21)
(4.50502 -2.18421 -1.08979e-20)
(5.03508 -1.61363 4.13366e-20)
(4.8618 -1.98915 -3.77518e-20)
(5.26701 -0.28565 4.26826e-22)
(5.17476 -1.03055 -2.21205e-25)
(5.25933 1.44623 4.30299e-22)
(5.29668 0.57256 2.38237e-25)
(4.98751 2.89755 4.7961e-23)
(5.15339 2.24981 0)
(4.54122 3.57389 0)
(4.77978 3.34661 0)
(4.03122 3.42486 9.42068e-23)
(4.29205 3.59291 0)
(3.50625 2.58575 -2.94135e-26)
(3.76477 3.08701 3.05339e-26)
(3.0937 1.2001 -1.57372e-26)
(3.27208 1.94111 1.63317e-26)
(2.98159 -0.23202 1.37931e-26)
(2.99059 0.443323 -1.43108e-26)
(3.25709 -1.00177 4.23102e-23)
(3.06872 -0.728737 -1.10084e-26)
(3.77539 -1.06799 -8.74902e-24)
(3.51637 -1.08443 -7.17384e-27)
(4.13359 -1.03934 8.15351e-24)
(3.9822 -1.04382 0)
(4.38051 -1.06291 -7.15864e-24)
(4.25321 -1.04287 -5.87388e-27)
(4.74846 -1.10656 -1.85857e-23)
(4.54904 -1.09779 0)
(5.13448 -0.901157 -7.85268e-22)
(4.9498 -1.04134 0)
(5.49547 -0.549157 -3.29846e-21)
(5.31687 -0.735305 3.31406e-21)
(5.65529 -0.0293103 0)
(5.62354 -0.313911 2.17395e-22)
(5.36708 0.555799 3.36294e-20)
(5.56368 0.278817 -3.32723e-20)
(3.7062 0.843973 1.99608e-22)
(3.92187 1.07055 4.26291e-22)
(3.79888 0.960824 -4.31646e-22)
(3.56978 0.588912 1.25977e-22)
(3.63209 0.721299 9.91627e-24)
(3.52765 0.26422 0)
(3.5309 0.437833 0)
(3.59679 -0.0426506 -9.82458e-24)
(3.55387 0.0990983 0)
(3.70573 -0.250778 0)
(3.64766 -0.155932 0)
(3.85686 -0.438875 -6.92563e-24)
(3.77419 -0.338109 0)
(4.08778 -0.743452 0)
(3.96026 -0.573269 0)
(4.39521 -1.0093 0)
(4.23435 -0.912925 0)
(4.72942 -0.791744 -3.63852e-24)
(4.56299 -0.971291 0)
(4.9092 -0.265982 0)
(4.8581 -0.532001 0)
(4.75273 0.0911355 -5.61524e-26)
(4.86326 -0.0505692 5.94565e-26)
(4.47496 0.143817 6.51241e-23)
(4.61662 0.149201 6.50271e-26)
(4.1849 0.0311068 1.28654e-22)
(4.33005 0.101081 6.2655e-26)
(3.97353 -0.199688 3.43566e-24)
(4.06295 -0.0687261 0)
(3.89799 -0.51571 5.17738e-23)
(3.92663 -0.348633 -5.51822e-26)
(3.90514 -0.907229 3.95174e-26)
(3.90324 -0.697117 -4.19209e-26)
(3.99146 -1.37247 0)
(3.95146 -1.14039 0)
(4.14286 -1.71366 1.1335e-21)
(4.06148 -1.57453 -2.67093e-21)
(4.29911 -1.73018 0)
(4.19612 -1.77646 1.09308e-21)
(4.29995 -1.6019 0)
(3.07743 -0.724725 0)
(4.21424 -0.653263 -5.34676e-21)
(3.61723 -0.676647 1.07431e-19)
(2.41515 -0.732979 -8.49806e-21)
(2.67663 -0.728972 -2.00506e-20)
(2.2392 -0.758494 -4.50286e-26)
(2.28538 -0.728747 0)
(2.31673 -0.852607 -2.09843e-24)
(2.26047 -0.79781 0)
(2.5122 -0.979736 0)
(2.40266 -0.912255 0)
(2.79607 -1.09362 2.80692e-25)
(2.64567 -1.03699 0)
(3.10778 -1.20389 0)
(2.9507 -1.15329 0)
(3.44217 -1.24866 0)
(3.27395 -1.23383 3.97555e-21)
(3.80508 -1.24245 0)
(3.61564 -1.24657 -7.44488e-21)
(4.20419 1.32438 -1.50804e-20)
(4.07609 1.16712 0)
(5.07754 1.05799 2.51124e-21)
(5.12178 0.751481 3.57148e-21)
(3.16261 -0.463133 3.11993e-24)
(3.64236 -1.18944 0)
(4.87102 -1.21293 0)
(2.70524 0.70784 4.45431e-24)
(3.67894 -0.722128 2.26633e-24)
(4.01316 -1.24962 -2.71399e-20)
(3.77411 -1.09375 0)
(3.92605 -1.08694 0)
(2.62281 1.50531 1.50488e-23)
(3.78334 -0.0486272 6.23371e-23)
(3.19116 1.45737 0)
(3.91376 0.811977 -5.06521e-22)
(3.50185 1.50875 0)
(3.99957 1.66181 0)
(3.65933 1.51656 0)
(4.00784 2.0318 -2.75444e-20)
(3.93731 1.4735 -5.33211e-21)
(4.15397 1.84875 -5.90406e-22)
(4.2523 1.2507 0)
(4.3729 1.38627 1.05942e-20)
(4.5767 1.46973 -2.53837e-20)
(4.79492 1.14218 7.1711e-20)
(4.87855 0.831709 -7.05122e-20)
(3.35413 -0.826544 1.14183e-25)
(4.28514 -1.60409 -2.02204e-20)
(4.18023 -1.40774 0)
(4.62744 -1.91795 9.72608e-21)
(4.45978 -1.76439 1.01521e-20)
(5.07625 -1.95923 0)
(4.85311 -1.98322 -7.09454e-21)
(5.54757 -1.4329 0)
(5.32598 -1.77611 -4.45017e-21)
(5.86094 -0.216666 -4.26611e-22)
(5.73568 -0.906476 0)
(5.84875 1.38201 -7.89644e-22)
(5.89751 0.570882 0)
(5.51331 2.70612 6.01707e-23)
(5.71579 2.11628 0)
(4.95958 3.3047 1.58314e-22)
(5.2539 3.106 2.16316e-25)
(4.33396 3.12847 -9.41089e-23)
(4.64974 3.30476 -1.03227e-25)
(3.7161 2.30211 1.39327e-23)
(4.01914 2.78858 -3.24694e-26)
(3.23718 1.01874 1.02767e-26)
(3.44602 1.6942 -1.03796e-26)
(3.11386 -0.219471 3.08961e-24)
(3.11871 0.349877 -9.03161e-27)
(3.46896 -0.817744 -1.28913e-23)
(3.23207 -0.612476 0)
(4.03418 -0.962173 8.30547e-24)
(3.76498 -0.904096 -4.33562e-27)
(4.33701 -1.07373 8.06206e-24)
(4.22538 -1.03098 0)
(4.47373 -0.976116 7.16152e-24)
(4.40569 -1.04945 3.04523e-27)
(4.70136 -0.840334 0)
(4.56946 -0.898446 0)
(5.01024 -0.716924 -2.33377e-23)
(4.86228 -0.786636 4.80315e-23)
(5.21755 -0.475958 0)
(5.12338 -0.621462 -4.38882e-28)
(5.33764 -0.0212569 8.68196e-22)
(5.30425 -0.263045 -8.51084e-22)
(5.1571 0.388879 2.07475e-20)
(5.28399 0.203124 -2.07072e-20)
(4.78292 0.595751 0)
(4.98289 0.528504 -3.55668e-21)
(4.0405 0.919183 8.59372e-22)
(4.32047 1.00234 1.58423e-21)
(4.17483 0.9665 8.75403e-22)
(3.81896 0.765245 3.49639e-21)
(3.92205 0.850834 -8.46752e-22)
(3.66642 0.549114 1.99925e-21)
(3.73454 0.664462 -5.57922e-21)
(3.59939 0.280331 -1.03015e-23)
(3.61788 0.421912 8.03763e-23)
(3.65502 0.00470962 9.82458e-24)
(3.61505 0.136572 0)
(3.75463 -0.202948 4.0728e-26)
(3.7049 -0.106774 -4.30599e-26)
(3.84371 -0.388598 -4.1305e-26)
(3.80128 -0.292655 4.36784e-26)
(3.96673 -0.636462 -1.37605e-23)
(3.89141 -0.50268 0)
(4.26048 -0.827097 6.30768e-26)
(4.08887 -0.76296 -6.67221e-26)
(4.62771 -0.641659 4.52632e-23)
(4.45386 -0.785334 9.04416e-26)
(4.77926 -0.270152 0)
(4.74124 -0.45223 0)
(4.64174 -0.0139751 5.67235e-23)
(4.73785 -0.123732 -3.54025e-27)
(4.42048 0.0361693 -1.17274e-25)
(4.52548 0.042222 1.24208e-25)
(4.23127 -0.0969158 -4.16504e-24)
(4.32623 -0.0204594 0)
(4.05844 -0.271989 5.78992e-23)
(4.13668 -0.178623 0)
(4.00716 -0.523903 -4.60723e-23)
(4.0146 -0.382673 0)
(4.07588 -0.881797 7.49368e-26)
(4.03018 -0.68479 -7.94683e-26)
(4.22884 -1.31067 0)
(4.13336 -1.08867 0)
(4.45461 -1.64395 -7.45642e-21)
(4.30941 -1.50388 -2.00581e-21)
(4.70806 -1.63896 3.72623e-20)
(4.54897 -1.70368 -2.63242e-20)
(4.78877 -1.46743 0)
(4.22837 -0.148259 2.68595e-20)
(4.82499 -0.0500318 -9.31272e-20)
(3.11079 -0.234615 0)
(3.63401 -0.186246 -2.63854e-20)
(2.45067 -0.326704 3.43174e-23)
(2.71319 -0.26684 0)
(2.28899 -0.442189 -5.72107e-24)
(2.32435 -0.373668 -5.07726e-26)
(2.38839 -0.597133 0)
(2.32199 -0.5145 0)
(2.58368 -0.768385 0)
(2.47751 -0.680163 0)
(2.85151 -0.905419 -2.79071e-25)
(2.7078 -0.842641 0)
(3.15172 -1.01677 0)
(3.00389 -0.96329 0)
(3.46113 -1.07047 5.99821e-21)
(3.3043 -1.05193 -3.84163e-21)
(3.62235 -1.08204 1.06446e-21)
(4.45719 1.29615 0)
(4.47889 1.0243 -1.88215e-21)
(4.65151 0.831081 5.17195e-20)
(4.59824 0.599619 -6.79739e-20)
(2.81906 0.410483 -3.60148e-25)
(3.25958 -0.332593 1.10813e-24)
(4.15566 -1.15614 4.5335e-20)
(4.08078 -1.04793 -1.56658e-20)
(2.5011 1.52127 -5.25388e-23)
(3.26054 0.393552 0)
(2.88101 1.76621 -1.02089e-22)
(3.30388 1.30352 -1.89557e-22)
(3.41924 1.68226 0)
(3.33929 2.18213 0)
(3.70775 1.73538 -1.56344e-21)
(3.34685 2.68848 -1.01898e-21)
(3.8379 1.68916 0)
(3.32674 2.50222 -1.22589e-20)
(4.14781 1.56418 1.37133e-20)
(3.61181 1.87198 0)
(4.55079 1.42186 -1.88674e-20)
(4.28289 1.46046 2.28022e-20)
(4.64179 1.03442 1.04037e-20)
(4.66954 1.28755 -1.75109e-20)
(4.55531 1.13318 -5.27173e-20)
(4.55599 0.90149 6.60766e-22)
(4.70676 0.846183 2.16481e-21)
(4.79963 1.02377 -1.23605e-20)
(5.24798 0.447717 1.77078e-19)
(4.42302 0.774631 2.71376e-21)
(4.42479 0.552548 1.53377e-19)
(2.98481 0.0587632 0)
(4.46546 -1.44628 7.78199e-21)
(4.29644 -1.33957 -1.70342e-20)
(4.86513 -1.69447 0)
(4.64071 -1.60956 0)
(5.37723 -1.7067 0)
(5.09554 -1.76341 0)
(5.92368 -1.22115 0)
(5.64558 -1.55037 0)
(6.29145 -0.137986 -2.84007e-22)
(6.1337 -0.753424 -1.64674e-26)
(6.28667 1.2922 3.59751e-22)
(6.33356 0.565997 -6.62385e-25)
(5.91015 2.4727 2.75849e-22)
(6.13322 1.95008 -5.41059e-25)
(5.2893 2.98334 -1.58205e-22)
(5.61606 2.8222 -3.31771e-25)
(4.57187 2.78188 0)
(4.93204 2.96577 4.57106e-27)
(3.86916 1.98789 -1.38996e-23)
(4.20991 2.45002 -2.10949e-27)
(3.32718 0.840796 0)
(3.5632 1.43316 -2.85091e-28)
(3.15943 -0.145702 -1.09779e-23)
(3.18564 0.287138 0)
(3.37651 -0.525485 -7.20543e-24)
(3.23634 -0.406994 0)
(3.63787 -0.657789 4.47549e-25)