/*--------------------------------*- C++ -*----------------------------------*\
  =========                 |
  \\      /  F ield         | OpenFOAM: The Open Source CFD Toolbox
   \\    /   O peration     | Website:  https://openfoam.org
    \\  /    A nd           | Version:  10
     \\/     M anipulation  |
\*---------------------------------------------------------------------------*/
FoamFile
{
    format      ascii;
    class       volScalarField;
    location    "1";
    object      p;
}
// * * * * * * * * * * * * * * * * * * * * * * * * * * * * * * * * * * * * * //

dimensions      [0 2 -2 0 0 0 0];

internalField   nonuniform List<scalar> 
14667
(
0.36156
0.366434
-0.000992237
0.000317704
0.00169574
0.320091
0.308083
0.00846432
0.00610024
0.00474994
0.326608
0.340363
0.422147
0.349973
9.64753e-06
0.307716
0.315137
0.0139509
0.00898674
0.316551
0.316258
0.393936
0.331563
0.322662
-0.505397
-0.585163
-0.722841
-0.599237
-0.421637
0.602458
0.567941
0.557272
-0.364035
-0.35463
-0.582534
-0.538555
-0.466802
0.00280765
-0.0143859
0.00101664
0.0176677
0.0539193
0.729243
0.752303
0.847616
0.814928
0.712725
0.0983477
0.107587
0.118364
0.106825
0.674516
0.622482
0.581729
-0.0337125
-0.0552123
-0.215245
-0.146165
0.0578083
0.040542
-0.507221
-0.341914
0.279263
0.348174
0.454391
0.372341
0.220278
0.366574
0.223784
0.531224
0.516686
0.510459
0.922265
0.851599
0.125001
0.13091
0.122331
0.115625
0.526924
0.536583
0.0122319
0.00604017
0.00303189
-0.000329865
0.000295217
0.0858061
0.142683
0.086176
0.0716924
-0.402325
-0.311502
0.114839
0.113499
0.0591128
0.0590046
0.0913917
0.0913168
0.0991323
0.0991114
0.101876
0.101865
-0.231562
-0.139909
0.470251
0.504023
0.489297
0.463492
0.449732
0.442014
-0.0297827
-0.0448248
-0.0336577
-0.0260062
-0.0180177
-0.0186406
0.103513
0.0947494
0.10186
-0.0329972
-0.0450512
-0.0300579
0.060332
0.06022
0.0616602
0.0629742
0.0629949
0.0616532
0.0642375
0.0654839
0.0656868
0.064325
0.0667519
0.0680353
0.0682904
0.0669651
0.0693362
0.0707105
0.0708831
0.0696159
0.0719694
0.0732205
0.0735795
0.0722375
0.0744504
0.0757195
0.0762657
0.0749216
0.0770163
0.0783061
0.0788062
0.0775465
0.0796605
0.0810203
0.0815419
0.0801639
0.082143
0.083394
0.0839192
0.0827886
0.0848154
0.0860774
0.0861804
0.0850002
0.0873773
0.0886786
0.0887726
0.0874652
0.0900342
0.0899712
0.0579395
0.0578293
0.0912656
0.0580179
0.0567861
0.0566949
0.0590252
0.0577668
0.0899018
0.0872748
0.0886096
0.0847006
0.0859673
0.0818101
0.0832919
0.078988
0.0804027
0.0764608
0.0776041
0.0739601
0.0752447
0.0714514
0.0726771
0.06904
0.070234
0.0666125
0.0678466
0.0641289
0.065388
0.0616059
0.0628559
0.0603687
0.0565772
0.0565987
0.0605133
0.0592267
0.0630195
0.0617733
0.0656183
0.0643172
0.0681949
0.0668806
0.0707826
0.069501
0.0732405
0.0720392
0.075862
0.0745564
0.0783982
0.0771602
0.0809833
0.07963
0.0838152
0.0823821
0.0863649
0.0851111
0.0888171
0.0875853
0.0900952
0.0553743
0.0554532
0.0912383
0.0926151
0.05652
0.0552875
0.0553491
0.0926897
0.089855
0.0871829
0.0885349
0.0844725
0.0858009
0.0817848
0.0830828
0.0793857
0.0806092
0.0769521
0.0781884
0.0743382
0.0756954
0.0717897
0.0730358
0.0692344
0.0705353
0.066653
0.0679501
0.0641547
0.0653968
0.061639
0.0628701
0.0590112
0.0603717
0.0577501
0.0553274
0.0554463
0.0580033
0.0567391
0.0605483
0.0592702
0.0630487
0.0618237
0.0656206
0.0643347
0.0681893
0.0668818
0.0707804
0.0694867
0.0733804
0.0720791
0.0760273
0.0747021
0.0786483
0.0773371
0.081258
0.0799747
0.0837982
0.0825206
0.0863907
0.0851052
0.0888585
0.0876334
0.0914313
0.0901431
0.093961
0.0940279
0.0927412
0.0911891
0.0925702
0.0939137
0.0541384
0.0952354
0.0952974
0.0540567
0.0554829
0.056513
0.0552529
0.0541883
0.0541486
0.0925243
0.0925591
0.0924697
0.0898064
0.0911445
0.0870893
0.0884541
0.0844074
0.0857303
0.081848
0.0831078
0.0792908
0.0806118
0.0766157
0.0779219
0.0741711
0.0754085
0.0716461
0.0729018
0.0691446
0.0704018
0.0666441
0.0678961
0.0641427
0.0653897
0.0616006
0.0628658
0.0590443
0.0603437
0.0577678
0.0540809
0.054094
0.0541584
0.0579848
0.0567467
0.0605282
0.0592377
0.0630464
0.0617892
0.0656167
0.0643393
0.0681838
0.0668874
0.0707501
0.069466
0.0733063
0.0720311
0.0759241
0.0746061
0.0784515
0.0771941
0.0811348
0.07979
0.0837772
0.0824596
0.0863663
0.0850862
0.0889336
0.0876446
0.0914805
0.0901892
0.0940388
0.0927539
0.0966232
0.0953361
0.0938992
0.093875
0.0938225
0.0528825
0.0529035
0.0952153
0.0965645
0.09651
0.0978191
0.0540361
0.0978725
0.0938949
0.0951989
0.0951233
0.09242
0.0937749
0.0897444
0.0910849
0.0870631
0.0884032
0.0844597
0.0857397
0.0818849
0.0831767
0.0793271
0.0806155
0.0767992
0.0780342
0.0742883
0.0755741
0.0717087
0.0729844
0.0691851
0.0704514
0.0666461
0.0679158
0.0641215
0.0653786
0.0615864
0.0628498
0.0590581
0.0603351
0.0565177
0.0577891
0.0540016
0.0552426
0.0528399
0.0529378
0.0528585
0.0528845
0.052903
0.0529072
0.0528897
0.0554901
0.054188
0.0579991
0.0567564
0.0605337
0.0592623
0.0630473
0.0617856
0.0656058
0.064331
0.0681772
0.0668845
0.0707499
0.0694618
0.0733316
0.072038
0.0759429
0.0746398
0.0785195
0.0772299
0.0811207
0.0798223
0.0837355
0.082421
0.0863524
0.0850487
0.088933
0.0876521
0.0914895
0.0902043
0.094028
0.0927534
0.0966544
0.0953328
0.0979086
0.0527959
0.0952319
0.0952378
0.0965077
0.0964976
0.0965585
0.0977953
0.0529076
0.05163
0.0516162
0.0991107
0.100466
0.0540157
0.0527722
0.100464
0.0952381
0.097876
0.0977788
0.0950705
0.0964246
0.092375
0.0937211
0.0897035
0.0910342
0.0870723
0.0883846
0.0844857
0.0857697
0.0818983
0.0831954
0.0793417
0.0806204
0.0767646
0.078048
0.0742324
0.075502
0.0716861
0.0729552
0.0691641
0.0704269
0.0666366
0.0679001
0.064116
0.0653733
0.0615851
0.0628503
0.0590509
0.0603245
0.0565205
0.0577836
0.0552594
0.0516313
0.051541
0.0515801
0.0517255
0.0516531
0.0516945
0.0516978
0.0516451
0.0516765
0.0516387
0.0554736
0.0541877
0.0579719
0.0567232
0.0605052
0.0592362
0.0630353
0.0617659
0.0655867
0.0643129
0.0681522
0.0668664
0.0707209
0.0694352
0.0732988
0.0720072
0.0758932
0.0745983
0.0784813
0.0771829
0.0810973
0.0797924
0.0836978
0.0823952
0.0863073
0.0850022
0.0889173
0.0876152
0.0914979
0.0902139
0.0940351
0.0927665
0.0966666
0.0953403
0.0991298
0.0979421
0.100422
0.0965312
0.0965845
0.0503611
0.0503558
0.0978095
0.0979159
0.0991414
0.0991531
0.0992313
0.100487
0.101833
0.0514904
0.103153
0.103214
0.0503253
0.0502895
0.0965588
0.100509
0.100407
0.0976956
0.0990458
0.0950097
0.0963494
0.0923373
0.0936694
0.089691
0.0910091
0.0870951
0.0883901
0.0845017
0.0857972
0.081915
0.083208
0.0793552
0.0806346
0.076787
0.0780655
0.0742646
0.0755285
0.0717121
0.0729876
0.0691786
0.070445
0.0666441
0.0679113
0.0641129
0.0653765
0.0615793
0.0628468
0.0590498
0.0603166
0.0565273
0.0577881
0.0540058
0.0552688
0.0527511
0.0504139
0.0503671
0.0504898
0.0504426
0.0504651
0.0504671
0.0504203
0.0504315
0.0503911
0.0503478
0.0529057
0.0516174
0.0554588
0.0541976
0.057967
0.0567102
0.0604963
0.0592314
0.0630306
0.0617599
0.0655807
0.064306
0.0681445
0.066861
0.0707134
0.0694278
0.0732924
0.0720008
0.0758791
0.0745873
0.0784629
0.077169
0.0810625
0.0797625
0.0836636
0.0823627
0.0862638
0.0849633
0.0888684
0.0875659
0.0914755
0.0901762
0.0940252
0.0927557
0.0966606
0.095323
0.0991204
0.0979446
0.101872
0.100391
0.104375
0.104398
0.103248
0.0978531
0.0979119
0.0991622
0.0992649
0.100504
0.100576
0.101834
0.10176
0.101868
0.103078
0.10435
0.105659
0.105639
0.051486
0.106873
0.05034
0.0491261
0.0490845
0.0490715
0.049073
0.106935
0.050257
0.0978851
0.103138
0.103043
0.100307
0.101671
0.0976278
0.0989618
0.0949689
0.0962964
0.0923156
0.0936411
0.0896998
0.091002
0.0871114
0.0884059
0.0845108
0.0858101
0.0819295
0.0832187
0.0793628
0.0806451
0.0767981
0.078078
0.0742538
0.0755269
0.0717
0.0729758
0.0691615
0.0704299
0.0666256
0.0678932
0.0640933
0.0653585
0.0615629
0.0628284
0.059038
0.0602997
0.0565215
0.0577761
0.0539939
0.0552646
0.0527066
0.0491964
0.0491702
0.0492493
0.0492402
0.0492239
0.0492292
0.0492184
0.0491912
0.0491263
0.0491344
0.0491015
0.0528978
0.0516201
0.0554172
0.0541574
0.0579327
0.0566725
0.0604628
0.0591969
0.063002
0.0617301
0.0655525
0.0642765
0.0681148
0.0668324
0.0706836
0.0693981
0.0732628
0.0719714
0.0758487
0.0745561
0.0784395
0.0771424
0.0810357
0.0797381
0.0836337
0.0823344
0.0862295
0.0849316
0.088826
0.0875276
0.0914387
0.090131
0.0940178
0.0927347
0.0966673
0.0953292
0.0991473
0.0979461
0.101824
0.100396
0.104474
0.103217
0.105789
0.0991939
0.0992419
0.0478091
0.0477958
0.107107
0.100529
0.100591
0.101833
0.101917
0.103096
0.103218
0.104362
0.104427
0.104516
0.10567
0.107011
0.107766
0.0490402
0.0992224
0.105818
0.105696
0.102947
0.104327
0.100232
0.101583
0.0975789
0.0988911
0.0949417
0.0962592
0.0923167
0.0936268
0.08971
0.0910115
0.0871127
0.0884112
0.0845182
0.0858136
0.0819392
0.083228
0.0793705
0.0806532
0.0768068
0.0780878
0.0742599
0.0755321
0.0717123
0.0729863
0.0691715
0.0704412
0.066634
0.0679026
0.0640987
0.0653659
0.0615668
0.0628329
0.0590385
0.0603022
0.0565103
0.0577743
0.0539698
0.0552405
0.0514712
0.0527167
0.0489963
0.0502244
0.0478246
0.0479336
0.0478855
0.047983
0.0479901
0.0480006
0.0480169
0.0479847
0.0479898
0.0479905
0.0479509
0.0479395
0.0478933
0.0478504
0.0477807
0.0503465
0.0490653
0.0528764
0.0516127
0.0553985
0.0541386
0.0579214
0.0566581
0.0604527
0.0591862
0.0629934
0.0617214
0.0655436
0.0642676
0.0681041
0.0668229
0.070671
0.0693867
0.073246
0.0719574
0.0758253
0.0745357
0.0784097
0.0771163
0.0809999
0.0797046
0.0835959
0.0822969
0.0861934
0.0848954
0.0887885
0.0874904
0.0913902
0.0900899
0.0939735
0.0926825
0.0966145
0.0952881
0.0991367
0.0978953
0.101819
0.100453
0.104472
0.10313
0.105819
0.0477821
0.10055
0.100579
0.107056
0.107195
0.101868
0.101917
0.103148
0.103254
0.104396
0.104576
0.105745
0.105892
0.10704
0.108302
0.108706
0.109001
0.110174
0.0489744
0.047773
0.0464946
0.047741
0.0465141
0.100563
0.10842
0.108269
0.10556
0.106915
0.102858
0.104211
0.100175
0.10151
0.0975443
0.0988507
0.0949338
0.0962399
0.0923192
0.093626
0.0897127
0.0910147
0.0871172
0.0884137
0.0845281
0.0858219
0.0819472
0.0832368
0.0793756
0.08066
0.0768106
0.0780923
0.0742561
0.0755325
0.0717027
0.0729793
0.0691552
0.070428
0.0666133
0.0678838
0.0640747
0.0653434
0.0615412
0.0628075
0.0590106
0.0602752
0.0564849
0.0577471
0.0539652
0.0552233
0.051463
0.052716
0.0502136
0.108552
0.109795
0.109636
0.0466249
0.0465207
0.046579
0.0467276
0.0466871
0.0467618
0.0467912
0.0467549
0.0467788
0.0467458
0.0467539
0.0467362
0.0467122
0.0467185
0.0466671
0.0465788
0.0466189
0.0465456
0.0503239
0.0490504
0.0528422
0.0515876
0.0553559
0.0540983
0.0578799
0.0566163
0.0604138
0.0591458
0.0629572
0.0616842
0.0655093
0.0642322
0.0680709
0.0667891
0.0706395
0.0693542
0.0732162
0.0719269
0.0757975
0.0745065
0.078384
0.0770901
0.080972
0.0796782
0.0835602
0.0822659
0.0861511
0.0848556
0.0887418
0.0874458
0.0913365
0.0900402
0.0939256
0.0926288
0.0965322
0.0952323
0.0991247
0.0978185
0.101695
0.100444
0.104447
0.102991
0.106876
0.10576
0.109849
0.108372
0.110951
0.111792
0.112049
0.101886
0.101912
0.0452655
0.0452343
0.103187
0.103254
0.104488
0.104592
0.105799
0.105928
0.107111
0.107264
0.108393
0.109528
0.110423
0.111578
0.10991
0.111001
0.111165
0.112357
0.0464629
0.113249
0.0453195
0.113179
0.0452627
0.1019
0.110825
0.112168
0.108129
0.109476
0.105445
0.106778
0.102785
0.104113
0.100129
0.101448
0.097527
0.0988233
0.0949275
0.0962307
0.0923147
0.0936203
0.0897121
0.0910124
0.0871181
0.0884139
0.0845297
0.0858233
0.0819498
0.0832388
0.0793776
0.0806625
0.0768136
0.078095
0.0742572
0.0755343
0.0717066
0.0729817
0.06916
0.0704326
0.0666186
0.067889
0.0640794
0.0653485
0.0615451
0.0628119
0.0590131
0.0602785
0.0564858
0.0577494
0.0539628
0.0552236
0.0514511
0.0527079
0.0489513
0.0502071
0.0477041
0.0454249
0.0453828
0.0454974
0.045484
0.0455329
0.0455699
0.0455241
0.045542
0.0455102
0.0455171
0.0454879
0.0454827
0.0454671
0.0454399
0.0453791
0.0453927
0.0453206
0.0452154
0.0477679
0.0464959
0.050294
0.0490254
0.0528139
0.0515533
0.0553351
0.0540742
0.0578634
0.0565983
0.0603992
0.0591304
0.0629436
0.0616704
0.0654952
0.0642185
0.068055
0.0667743
0.0706207
0.0693371
0.073193
0.0719062
0.0757692
0.0744807
0.0783507
0.0770593
0.0809368
0.0796432
0.0835262
0.0822313
0.0861151
0.0848208
0.0887037
0.0874094
0.0912907
0.089998
0.0938804
0.0925835
0.0964519
0.0951744
0.0990708
0.0977397
0.101517
0.100357
0.104334
0.102792
0.106649
0.105656
0.109617
0.10808
0.111822
0.110778
0.114358
0.114115
0.113063
0.10322
0.103251
0.104537
0.104601
0.105853
0.105939
0.107181
0.107285
0.108456
0.108618
0.10975
0.110738
0.11173
0.113292
0.114547
0.114879
0.115355
0.115942
0.111278
0.112527
0.113708
0.0441304
0.0464236
0.0452064
0.0439384
0.0439592
0.0451989
0.0440606
0.10324
0.113292
0.114615
0.110645
0.111969
0.107994
0.10932
0.105352
0.10667
0.102716
0.10403
0.100105
0.101406
0.0975136
0.0988093
0.0949112
0.0962143
0.0923072
0.0936081
0.0897099
0.091008
0.0871192
0.0884137
0.0845329
0.0858255
0.0819539
0.0832427
0.0793804
0.0806661
0.0768146
0.078097
0.0742536
0.0755332
0.0716979
0.0729756
0.0691451
0.0704208
0.0665984
0.0678713
0.0640547
0.0653259
0.0615172
0.0627855
0.0589828
0.0602494
0.0564563
0.057719
0.0539387
0.0551958
0.0514367
0.0526851
0.0489175
0.0501823
0.0476552
0.044229
0.0441855
0.044278
0.0442806
0.044301
0.0443242
0.0442977
0.0443095
0.0442836
0.0442913
0.0442546
0.044259
0.0442149
0.0442146
0.0441891
0.0441664
0.0440469
0.0440995
0.0439885
0.0477351
0.0464649
0.0502524
0.0489977
0.0527663
0.0515082
0.0552883
0.0540266
0.057819
0.0565527
0.0603575
0.0590873
0.0629046
0.0616301
0.0654587
0.0641807
0.0680208
0.0667389
0.070589
0.0693042
0.0731634
0.0718756
0.0757414
0.074452
0.0783225
0.0770318
0.0809046
0.0796135
0.083488
0.082196
0.086073
0.0847805
0.0886589
0.087366
0.0912397
0.0899502
0.0938245
0.0925308
0.0963865
0.0951112
0.099005
0.0976803
0.101439
0.100272
0.104165
0.102706
0.106545
0.105479
0.10937
0.107851
0.111573
0.110588
0.113986
0.112789
0.104569
0.104601
0.0427167
0.0426729
0.1059
0.105954
0.107221
0.107304
0.108535
0.108651
0.109826
0.109974
0.111019
0.112034
0.113296
0.114712
0.11575
0.11576
0.116419
0.117391
0.117217
0.117003
0.115712
0.117261
0.112644
0.11388
0.115042
0.116178
0.0439978
0.10459
0.113092
0.114398
0.110483
0.111784
0.107884
0.109184
0.105278
0.106578
0.102681
0.103978
0.100089
0.101385
0.0974953
0.0987925
0.0948982
0.0961969
0.0923016
0.0935999
0.0897068
0.0910036
0.0871178
0.0884118
0.0845321
0.0858244
0.0819523
0.0832418
0.0793777
0.0806639
0.0768113
0.0780941
0.0742495
0.0755294
0.0716949
0.0729719
0.0691432
0.0704184
0.0665976
0.0678701
0.064054
0.0653253
0.0615163
0.0627849
0.058981
0.0602482
0.0564529
0.0577165
0.05393
0.0551901
0.0514154
0.0526717
0.0488979
0.0501562
0.0463966
0.0476402
0.0439377
0.0451569
0.0427997
0.0429373
0.042868
0.0430262
0.0429967
0.0430626
0.0430768
0.0430725
0.0430857
0.0430733
0.0430803
0.0430574
0.0430675
0.0430303
0.0430364
0.0429879
0.0429929
0.0429541
0.0429446
0.0428271
0.042888
0.0427676
0.0426579
0.0451782
0.0439084
0.0476996
0.0464328
0.0502162
0.0489564
0.0527361
0.0514751
0.055262
0.0539985
0.0577958
0.0565281
0.0603361
0.0590652
0.0628841
0.0616093
0.0654377
0.0641602
0.0679983
0.0667172
0.0705638
0.0692805
0.0731346
0.0718487
0.0757093
0.0744214
0.0782884
0.0769984
0.0808708
0.0795793
0.0834533
0.0821624
0.0860342
0.0847438
0.0886158
0.0873249
0.0911949
0.0899058
0.093774
0.0924848
0.0963338
0.0950557
0.0989341
0.09763
0.101408
0.100187
0.104074
0.102718
0.106448
0.105283
0.109311
0.107841
0.111425
0.110466
0.114083
0.112682
0.115326
0.0427418
0.10593
0.105958
0.107263
0.107319
0.10859
0.108677
0.1099
0.110022
0.11116
0.111341
0.112304
0.113513
0.114792
0.115969
0.11698
0.117735
0.118349
0.118662
0.118072
0.119449
0.119106
0.118266
0.118542
0.119512
0.117968
0.119194
0.114008
0.115233
0.116375
0.117504
0.0438986
0.0426203
0.041367
0.0426622
0.0414039
0.105949
0.115466
0.116723
0.112898
0.114186
0.110353
0.111627
0.107803
0.10908
0.105231
0.106519
0.10265
0.103941
0.100067
0.10136
0.0974769
0.0987728
0.094885
0.0961808
0.0922928
0.0935892
0.0897012
0.0909965
0.0871139
0.0884073
0.0845294
0.0858211
0.0819507
0.0832395
0.0793775
0.0806631
0.0768105
0.0780939
0.0742458
0.0755273
0.0716875
0.0729665
0.0691305
0.0704084
0.0665797
0.0678548
0.0640314
0.0653049
0.0614897
0.0627602
0.0589512
0.0602198
0.0564211
0.0576855
0.0538966
0.0551574
0.051381
0.0526381
0.0488703
0.0501252
0.0463733
0.0476221
0.0451307
0.0416062
0.0414566
0.0415404
0.0417467
0.0416794
0.0418083
0.0418058
0.0418415
0.0418534
0.0418498
0.0418563
0.0418504
0.0418556
0.0418332
0.0418441
0.0418051
0.0418155
0.0417639
0.0417747
0.0417052
0.0417212
0.0416152
0.041661
0.041493
0.0415565
0.0414405
0.0451413
0.0438757
0.0476512
0.0463992
0.0501644
0.0489065
0.052686
0.0514241
0.0552145
0.0539496
0.057751
0.0564819
0.0602943
0.0590219
0.0628452
0.0615689
0.0654015
0.0641227
0.0679649
0.0666825
0.070533
0.0692484
0.0731055
0.0718189
0.0756805
0.0743927
0.0782576
0.0769691
0.0808354
0.0795462
0.0834161
0.0821256
0.0859954
0.0847061
0.0885725
0.0872843
0.0911465
0.0898597
0.0937189
0.0924336
0.0962786
0.0949986
0.0988544
0.0975701
0.101346
0.100099
0.103985
0.10267
0.106363
0.105168
0.109111
0.107742
0.111347
0.110261
0.113855
0.112583
0.116037
0.114965
0.117124
0.107296
0.107325
0.0401689
0.0401113
0.108637
0.108695
0.109967
0.110059
0.111256
0.111401
0.112512
0.112722
0.11374
0.114918
0.116142
0.117316
0.118214
0.119004
0.11986
0.12012
0.120553
0.11982
0.121058
0.120701
0.119794
0.120362
0.120714
0.120025
0.121143
0.121483
0.115374
0.11658
0.117713
0.118819
0.0413563
0.0402654
0.0401782
0.107316
0.117693
0.118886
0.115243
0.11647
0.112753
0.114
0.110253
0.111502
0.107741
0.109001
0.105187
0.106468
0.102619
0.103903
0.100041
0.101332
0.0974557
0.0987486
0.094871
0.0961635
0.0922835
0.0935778
0.089695
0.090989
0.0871095
0.0884021
0.0845263
0.0858174
0.0819487
0.083237
0.0793742
0.080661
0.0768037
0.0780887
0.0742372
0.0755194
0.0716783
0.0729575
0.0691216
0.0703993
0.0665713
0.0678462
0.0640232
0.0652967
0.0614813
0.062752
0.0589418
0.0602109
0.0564097
0.0576752
0.0538818
0.0551447
0.0513631
0.0526218
0.0488504
0.0501053
0.0463493
0.0475961
0.0438583
0.0451083
0.0426094
0.0404185
0.0403515
0.0405453
0.0404832
0.0405849
0.0405946
0.0406177
0.0406221
0.0406316
0.0406324
0.04063
0.0406357
0.0406126
0.0406233
0.0405837
0.0405967
0.0405393
0.0405579
0.0404711
0.0404997
0.0404069
0.0404311
0.0402836
0.0403422
0.0402215
0.0400685
0.0425775
0.0413226
0.0450947
0.0438422
0.0476051
0.0463493
0.0501232
0.0488631
0.0526487
0.051385
0.0551808
0.0539139
0.0577201
0.0564495
0.0602652
0.058992
0.062817
0.0615403
0.0653731
0.0640945
0.0679354
0.0666536
0.0705017
0.0692182
0.0730726
0.0717867
0.0756464
0.074359
0.0782246
0.0769352
0.0808019
0.0795137
0.0833789
0.0820902
0.0859559
0.0846676
0.0885306
0.0872437
0.0911013
0.0898164
0.0936676
0.0923856
0.0962275
0.0949466
0.098787
0.097513
0.101296
0.100037
0.103872
0.102594
0.106319
0.105084
0.108885
0.10763
0.111213
0.110031
0.113586
0.112444
0.115852
0.114715
0.117948
0.116939
0.118883
0.108673
0.108702
0.110019
0.110081
0.111345
0.11145
0.112647
0.112791
0.113922
0.11411
0.115127
0.116345
0.117563
0.118593
0.119436
0.120257
0.12104
0.121533
0.121513
0.121942
0.121194
0.122266
0.121895
0.122207
0.121863
0.122816
0.123164
0.121024
0.121852
0.122558
0.116752
0.117923
0.11905
0.120084
0.039085
0.0413245
0.040024
0.038765
0.0388221
0.0401074
0.0389908
0.108695
0.119721
0.120825
0.117429
0.118586
0.115051
0.116244
0.112636
0.113852
0.110179
0.11141
0.107685
0.10894
0.105142
0.106417
0.102584
0.103864
0.100014
0.101301
0.0974395
0.0987273
0.094859
0.0961501
0.0922738
0.0935668
0.089688
0.0909807
0.0871041
0.0883959
0.0845221
0.0858127
0.0819441
0.0832328
0.0793681
0.0806556
0.0767978
0.0780824
0.0742321
0.0755142
0.071671
0.0729515
0.0691107
0.0703903
0.0665561
0.0678331
0.0640036
0.0652792
0.0614574
0.0627302
0.0589142
0.060185
0.0563787
0.0576459
0.0538483
0.0551125
0.0513271
0.0525872
0.048814
0.0500691
0.0463185
0.0475629
0.0438079
0.0450701
0.0425406
0.0392353
0.0391705
0.0393339
0.0392862
0.0393672
0.0393659
0.0393981
0.0393939
0.0394157
0.0394137
0.0394142
0.0394192
0.039397
0.0394075
0.0393669
0.039382
0.0393192
0.0393417
0.0392555
0.039284
0.0391836
0.0392138
0.0390724
0.0391347
0.0389433
0.0390128
0.0388809
0.0425367
0.0412788
0.0450376
0.043782
0.0475492
0.0462925
0.05007
0.0488088
0.0525984
0.0513335
0.0551339
0.0538654
0.0576762
0.0564041
0.0602245
0.0589497
0.0627793
0.0615011
0.0653383
0.0640584
0.0679032
0.0666201
0.0704714
0.069187
0.0730429
0.0717569
0.0756147
0.0743288
0.07819
0.0769018
0.0807669
0.0794786
0.0833425
0.0820549
0.0859166
0.0846298
0.0884884
0.0872029
0.0910562
0.0897728
0.0936171
0.092338
0.0961724
0.0948943
0.0987166
0.0974499
0.101239
0.0999725
0.103772
0.102518
0.106257
0.105
0.108745
0.107533
0.111082
0.109898
0.113427
0.112283
0.115632
0.11454
0.11775
0.116704
0.119616
0.118722
0.120437
0.110059
0.11009
0.0375852
0.0375188
0.111412
0.111479
0.112748
0.112851
0.114066
0.114196
0.115327
0.115504
0.116562
0.117797
0.118911
0.119877
0.120693
0.121513
0.12208
0.122483
0.12277
0.122501
0.122222
0.122992
0.122677
0.12473
0.123676
0.12292
0.124429
0.124034
0.122204
0.122935
0.123549
0.118135
0.119282
0.120375
0.121325
0.0389093
0.110083
0.123332
0.124093
0.121529
0.122482
0.119448
0.120513
0.117208
0.118337
0.114918
0.11607
0.112549
0.113745
0.110115
0.111338
0.107628
0.108878
0.105101
0.106367
0.102555
0.10383
0.0999948
0.101276
0.0974242
0.0987109
0.0948452
0.0961352
0.0922634
0.0935546
0.0896803
0.0909719
0.0870977
0.0883889
0.0845166
0.0858069
0.081938
0.0832271
0.0793625
0.0806497
0.0767919
0.0780769
0.0742232
0.0755073
0.0716582
0.0729405
0.0690965
0.0703766
0.0665409
0.0678184
0.063988
0.0652639
0.0614407
0.0627141
0.0588964
0.0601679
0.0563587
0.057627
0.0538256
0.0550913
0.0513008
0.0525626
0.0487829
0.0500406
0.0462727
0.0475272
0.0437633
0.0450159
0.0412825
0.0425165
0.038831
0.0400471
0.0377171
0.0379002
0.0378087
0.0380562
0.0379852
0.0381176
0.038084
0.0381533
0.0381377
0.0381852
0.0381763
0.0382033
0.0381996
0.038202
0.0382054
0.0381854
0.0381958
0.0381541
0.0381708
0.0381062
0.0381297
0.0380441
0.038074
0.0379622
0.0380029
0.0378613
0.0379169
0.0377371
0.0378048
0.0376612
0.0374545
0.0399679
0.0387103
0.0424792
0.0412253
0.044982
0.0437285
0.0474964
0.046238
0.0500215
0.0487578
0.0525535
0.0512867
0.0550926
0.0538224
0.0576376
0.0563643
0.0601881
0.0589123
0.062744
0.0614654
0.0653036
0.0640234
0.0678685
0.0665854
0.0704366
0.0691522
0.0730093
0.0717225
0.0755829
0.0742962
0.0781569
0.0768698
0.0807315
0.0794442
0.0833059
0.0820189
0.0858783
0.0845925
0.0884472
0.0871632
0.0910121
0.0897303
0.0935698
0.0922922
0.0961217
0.094846
0.0986574
0.0973941
0.101178
0.0999148
0.103685
0.102442
0.10616
0.104915
0.108619
0.107408
0.110982
0.109802
0.113289
0.112148
0.115472
0.114399
0.117547
0.116524
0.119442
0.118528
0.121001
0.120269
0.121656
0.0376307
0.111459
0.111491
0.112826
0.11289
0.114176
0.114267
0.11549
0.115613
0.116774
0.116907
0.118029
0.1192
0.12027
0.121184
0.121999
0.122628
0.123107
0.123382
0.123493
0.123461
0.123016
0.123348
0.124494
0.125019
0.125218
0.122877
0.123215
0.123101
0.125051
0.124809
0.123341
0.123976
0.124461
0.119531
0.120657
0.121674
0.122563
0.0387691
0.0373927
0.0361445
0.037546
0.0362154
0.111486
0.123036
0.12382
0.121256
0.12218
0.11926
0.120278
0.117105
0.118196
0.11485
0.11599
0.112495
0.113685
0.110062
0.111286
0.107582
0.108827
0.105067
0.106328
0.102529
0.103801
0.0999737
0.101253
0.0974063
0.0986913
0.094832
0.0961198
0.0922533
0.0935433
0.0896723
0.090963
0.0870907
0.0883815
0.0845103
0.0858004
0.0819314
0.0832205
0.0793561
0.0806434
0.0767832
0.0780695
0.0742125
0.0754974
0.0716468
0.0729292
0.0690849
0.0703654
0.0665266
0.0678057
0.0639704
0.065248
0.061419
0.0626944
0.058871
0.0601443
0.0563292
0.0575995
0.0537928
0.0550602
0.0512642
0.0525278
0.0487424
0.0500023
0.046228
0.0474847
0.0437214
0.0449744
0.0412343
0.0424752
0.0399991
0.0365208
0.0363371
0.0364333
0.0367141
0.0366252
0.0368488
0.0367945
0.0368976
0.0368717
0.0369428
0.0369204
0.0369772
0.0369665
0.0369931
0.0369891
0.0369935
0.036996
0.0369771
0.0369876
0.0369456
0.036963
0.0368973
0.0369217
0.036833
0.0368659
0.0367488
0.0367921
0.0366453
0.0367013
0.0365374
0.0366046
0.0363664
0.0364415
0.0362904
0.0399066
0.0386474
0.0424123
0.0411613
0.0449204
0.0436653
0.0474387
0.0461786
0.0499676
0.0487019
0.0525032
0.0512347
0.055046
0.0537739
0.0575943
0.0563194
0.0601483
0.0588708
0.0627071
0.0614271
0.0652693
0.0639879
0.0678355
0.066552
0.0704035
0.0691194
0.0729751
0.0716888
0.0755488
0.0742618
0.0781233
0.0768361
0.0806968
0.0794102
0.0832695
0.0819833
0.0858403
0.0845553
0.088407
0.0871242
0.0909691
0.0896888
0.0935234
0.0922474
0.0960708
0.0947979
0.0986017
0.0973395
0.10112
0.0998606
0.103617
0.102376
0.106083
0.10485
0.108504
0.107305
0.110865
0.109689
0.113155
0.112022
0.11534
0.114263
0.117393
0.116389
0.119257
0.118353
0.120846
0.120092
0.122065
0.121505
0.12252
0.112878
0.112908
0.0350003
0.0349128
0.114259
0.114318
0.115619
0.1157
0.116954
0.117044
0.118248
0.118326
0.119476
0.12063
0.121645
0.122515
0.123214
0.123753
0.124058
0.124151
0.124078
0.123855
0.125367
0.125334
0.12559
0.125525
0.12355
0.125522
0.123177
0.123254
0.125509
0.125448
0.123274
0.123088
0.12326
0.124446
0.124953
0.125275
0.120943
0.122026
0.122968
0.123773
0.036235
0.0351517
0.0350513
0.112905
0.124338
0.124917
0.122845
0.123632
0.121105
0.122003
0.119148
0.120153
0.11703
0.118107
0.114781
0.115919
0.11243
0.113617
0.110007
0.111225
0.107541
0.108779
0.105037
0.106293
0.102505
0.103774
0.0999543
0.101232
0.0973916
0.0986742
0.0948206
0.096107
0.0922435
0.0935327
0.0896642
0.0909541
0.0870831
0.0883736
0.0845033
0.0857933
0.081924
0.0832133
0.0793481
0.0806359
0.0767734
0.0780605
0.0742024
0.0754874
0.0716352
0.0729184
0.0690707
0.0703527
0.0665085
0.0677894
0.0639497
0.0652285
0.0613958
0.0626723
0.0588461
0.0601204
0.0563014
0.0575731
0.0537625
0.0550312
0.0512297
0.0524952
0.048704
0.0499658
0.0461864
0.0474441
0.0436793
0.0449317
0.0411866
0.0424324
0.0386995
0.039945
0.037461
0.0353455
0.035252
0.0355164
0.0354306
0.0356318
0.0355882
0.0356841
0.0356524
0.0357369
0.0357122
0.0357704
0.0357594
0.0357877
0.0357824
0.0357888
0.0357909
0.0357728
0.0357831
0.0357412
0.0357589
0.0356916
0.0357175
0.0356255
0.03566
0.0355411
0.0355845
0.0354376
0.0354939
0.0353324
0.0353905
0.0351641
0.0352383
0.035078
0.0348402
0.0373193
0.0360771
0.0398371
0.0385799
0.0423412
0.0410876
0.0448559
0.0435973
0.0473791
0.0461166
0.0499126
0.0486446
0.052452
0.0511816
0.0549987
0.0537246
0.0575499
0.0562737
0.0601067
0.0588278
0.0626676
0.0613866
0.0652322
0.0639495
0.0678004
0.0665159
0.0703701
0.0690852
0.0729417
0.0716557
0.0755148
0.0742281
0.0780889
0.0768018
0.0806622
0.0793758
0.0832336
0.0819481
0.085803
0.0845187
0.0883679
0.0870861
0.0909278
0.0896486
0.0934792
0.0922047
0.0960226
0.0947521
0.0985486
0.0972883
0.101062
0.0998062
0.10355
0.102311
0.106011
0.104784
0.108423
0.107226
0.110773
0.109606
0.113047
0.111922
0.115213
0.114143
0.117258
0.116255
0.119119
0.118216
0.120734
0.11996
0.122001
0.121417
0.122883
0.122495
0.123145
0.114316
0.114343
0.115714
0.115765
0.117095
0.117153
0.118441
0.118492
0.119732
0.119762
0.120959
0.122066
0.123033
0.123822
0.124427
0.1248
0.124911
0.124818
0.125699
0.125982
0.126082
0.125653
0.124529
0.125501
0.124074
0.125613
0.123572
0.125788
0.123106
0.125921
0.123094
0.122807
0.125496
0.125824
0.125972
0.122365
0.123388
0.124249
0.124944
0.0339777
0.0361597
0.0347516
0.122754
0.123552
0.123382
0.0335089
0.0335999
0.0349469
0.03386
0.114343
0.125376
0.125738
0.124265
0.124881
0.122766
0.123549
0.121027
0.121921
0.119085
0.120078
0.116974
0.118051
0.114719
0.11586
0.112377
0.113558
0.10997
0.11118
0.107513
0.108748
0.105013
0.106267
0.102485
0.103752
0.0999384
0.101214
0.0973786
0.09866
0.0948096
0.0960951
0.0922339
0.0935224
0.0896559
0.0909453
0.0870751
0.0883656
0.0844958
0.0857856
0.0819158
0.0832055
0.0793393
0.0806275
0.0767633
0.0780509
0.0741914
0.0754771
0.0716214
0.0729061
0.0690546
0.0703378
0.06649
0.0677719
0.0639297
0.0652094
0.0613731
0.0626509
0.0588207
0.0600966
0.0562721
0.0575457
0.0537295
0.0550002
0.051192
0.0524598
0.0486622
0.0499264
0.04614
0.0474001
0.0436296
0.0448833
0.041132
0.0423776
0.0386266
0.0398817
0.0373768
0.0341758
0.0340832
0.034319
0.0342533
0.0344122
0.0343743
0.0344805
0.0344423
0.0345339
0.0345103
0.0345683
0.0345546
0.0345868
0.0345805
0.0345884
0.0345902
0.0345727
0.0345829
0.0345406
0.0345588
0.0344904
0.0345173
0.0344234
0.0344584
0.0343387
0.0343827
0.0342352
0.0342915
0.0341236
0.0341792
0.0339679
0.0340468
0.0337902
0.0338861
0.0336922
0.0372568
0.0360056
0.0397565
0.0385015
0.0422677
0.0410117
0.0447886
0.0435267
0.0473172
0.046052
0.0498557
0.0485853
0.0523995
0.051127
0.0549503
0.0536742
0.057505
0.0562272
0.0600649
0.0587844
0.0626278
0.061346
0.0651944
0.0639108
0.0677638
0.0664788
0.0703352
0.0690494
0.0729077
0.0716213
0.0754811
0.0741944
0.0780546
0.0767679
0.0806276
0.0793413
0.0831982
0.0819132
0.0857665
0.0844828
0.0883298
0.0870489
0.090888
0.0896097
0.0934371
0.0921638
0.0959777
0.0947088
0.0985011
0.0972419
0.10101
0.0997573
0.103492
0.102255
0.105944
0.104722
0.108349
0.107154
0.110696
0.109531
0.112969
0.111844
0.11514
0.114068
0.117178
0.11618
0.119041
0.118134
0.120675
0.11989
0.122008
0.121384
0.122994
0.12255
0.123526
0.123321
0.123605
0.115776
0.1158
0.0323691
0.0322649
0.117199
0.117234
0.118597
0.118628
0.119953
0.119963
0.121252
0.121216
0.122451
0.123526
0.124424
0.125123
0.125586
0.125758
0.126023
0.12668
0.126678
0.125795
0.125675
0.125428
0.125341
0.125318
0.124788
0.125485
0.124086
0.125851
0.123366
0.126212
0.122722
0.126459
0.126576
0.126501
0.122302
0.123064
0.122226
0.123793
0.124745
0.125508
0.126073
0.122599
0.124016
0.0337549
0.123798
0.115804
0.126335
0.126572
0.125521
0.12598
0.124311
0.124963
0.122784
0.123578
0.121031
0.121934
0.119073
0.120075
0.116945
0.118028
0.114692
0.11583
0.112359
0.113535
0.109952
0.111164
0.107493
0.108728
0.104994
0.106247
0.10247
0.103735