/*--------------------------------*- C++ -*----------------------------------*\
  =========                 |
  \\      /  F ield         | OpenFOAM: The Open Source CFD Toolbox
   \\    /   O peration     | Website:  https://openfoam.org
    \\  /    A nd           | Version:  10
     \\/     M anipulation  |
\*---------------------------------------------------------------------------*/
FoamFile
{
    format      ascii;
    class       surfaceScalarField;
    location    "36";
    object      phi;
}
// * * * * * * * * * * * * * * * * * * * * * * * * * * * * * * * * * * * * * //

dimensions      [0 3 -1 0 0 0 0];

internalField   nonuniform List<scalar> 
81299
(
0.0338051
0.0248823
-0.0392454
-0.019442
0.0499405
-0.0292399
0.0131046
-0.0521462
-0.0236966
0.0201308
0.0557121
-0.00807436
0.0278058
-0.0718776
0.0742554
-0.0774548
-0.00487496
0.057991
-0.00743219
0.0824997
-0.0043779
-0.0434259
0.0346953
0.0644426
0.042587
-0.0582071
-0.0551048
-0.0294691
0.00923129
0.0753426
0.0030633
-0.0355473
-0.0226208
0.0355819
-0.00672083
-0.0257978
-0.0171143
0.023227
-0.041494
-0.00149842
0.0522237
-0.0181908
0.00806993
-0.0313732
-0.0288557
-0.125864
0.0296158
0.112108
-0.0158595
-0.00866933
0.0185144
-0.0206266
0.021157
0.0241411
-0.0202539
-0.0250443
0.00273215
0.0513836
-0.0329587
-0.0375484
-0.0315971
-0.0112142
0.00338274
0.0152511
-0.00741957
-0.0168023
-0.00113273
-0.00177639
-0.0372704
-0.0776089
0.0250042
0.0822205
0.034175
-0.0473412
0.0784403
0.0126771
-0.0661131
0.0735219
-0.00508763
0.010006
-0.0582022
0.0312917
0.0475981
-0.0206876
-0.0101876
-0.0901178
0.0421032
0.0715966
-0.00826227
-0.0129849
-0.0231058
-0.00393931
0.0254902
0.00155486
-0.00346623
-0.0193878
-0.000251731
0.0186027
-0.00686079
-0.0152081
0.00127388
0.0133895
0.0217908
-0.021715
-0.0077761
0.00770035
-5.93303e-05
0.0235673
-0.00171713
0.00281339
-0.0137204
-0.0108081
-0.0182844
0.0195992
0.00149863
0.000589
-0.0191966
0.000323243
0.00241561
-0.015547
-0.0174669
0.0090745
0.00130776
-0.0193551
-0.00114929
0.00407666
-0.0183159
-0.0159226
0.00253228
-0.0366639
-0.0356197
0.0233645
0.0489191
-0.0320533
0.0193199
-0.0239305
0.0220928
-0.0446424
-0.00950376
-0.0375264
0.0239996
-0.0436451
0.0275555
0.040044
-0.0239545
0.0233241
-0.0436047
0.0881278
0.0150831
-0.0535621
-0.0496488
-0.00744972
0.0318432
0.0637344
-0.0616448
0.054638
-0.000442957
0.00831542
-0.0548771
0.0190765
-0.0413469
0.0681033
-0.070154
0.0918975
-0.0467931
0.0229989
0.0676054
0.0561353
-0.0453173
0.0380867
0.0403264
-0.0330959
0.0294634
-0.0472251
0.0511779
0.0245302
-0.0462447
0.0178253
0.0714393
0.000702663
-0.000349487
-0.000775526
0.000422351
-0.00096117
0.00166383
-0.00131066
-1.77244e-05
5.40307e-05
0.000382572
-0.000418878
-1.10546e-05
-6.66978e-06
4.29761e-05
5.13169e-05
0.0005035
0.000403535
-0.000958352
0.000272097
-0.00022078
0.000775597
0.0337095
0.00150132
-0.00621873
-0.0289921
0.0244181
-0.0195659
0.0288574
-0.0241565
-0.0119406
-0.0107146
0.00478644
-0.0084739
-0.00458579
0.00827325
-0.0299455
0.0112619
0.0186243
-0.0141907
-0.0109684
-0.0131682
0.0244301
0.00916295
-0.0251277
0.0315647
-0.0155999
-0.0295831
-0.00589628
-0.000236763
-0.00261249
-0.0267339
-0.00045174
-0.0249127
-0.0211084
-0.0238048
0.029262
0.0156511
-0.00749332
0.0188086
-0.0324237
0.00481264
-0.0361107
0.0684996
0.0433796
-0.0207189
-0.0911603
0.0184319
-0.121351
0.108933
-0.00601425
0.0952691
-0.00833771
0.00512796
-0.0646665
-0.061812
0.043599
-0.0813105
-0.0097794
0.0474909
0.0155482
0.0231146
-0.0140706
-0.018579
0.00953503
-0.0205527
0.0413219
0.00234543
-0.00950002
-0.0172714
-0.00328151
-0.0202891
-0.0221579
0.000297372
0.11796
0.00174002
-0.0476344
0.04553
0.0716696
0.000760316
0.000940539
0.00149951
-0.000786441
-0.00165361
0.000392659
0.00284042
-0.00229254
-0.00283553
0.00348296
-0.00109115
0.000443718
-0.00160072
-0.000903338
-0.000331475
0.0282984
0.0229885
-0.0312797
-0.0200073
0.0223367
0.0141912
0.00173499
-0.012293
-0.00363321
0.00300536
0.00514072
0.00604512
-0.00395541
0.0033894
-0.000389051
0.00095506
-0.0109435
0.00826199
-0.0146744
0.0374079
0.0227965
0.0130327
0.00666585
-0.00493201
-0.0147665
-0.0140875
-0.00187188
0.0170306
-0.00935107
0.0158877
0.0122432
0.0234117
-0.0260362
-0.00439176
0.030428
-0.011153
-0.0148832
-0.0256961
0.0365517
-0.0220086
0.00494478
-0.0129964
-0.0176445
-0.00101997
-0.00413223
0.0051522
-0.00630611
-0.00716835
0.0124545
-0.00993842
0.00197718
-0.00203165
-0.0182614
-0.0152278
0.00128239
-0.0128923
-0.0124875
0.00212751
0.00644372
-0.00340136
-0.00304236
-0.0054969
0.0341032
0.00248639
0.00202097
0.0252785
-0.0380335
0.00395141
0.0333968
0.000685318
-0.0280231
0.00273468
-0.0127451
0.0289941
0.0145725
-0.026483
-0.0170836
0.0240802
0.0276158
-0.0328874
0.0154337
0.0379084
0.0535308
0.0174646
-0.00199578
0.0400543
0.00304656
-0.0411051
0.0442525
-0.0413015
-0.00494676
0.000672307
-0.00132108
0.0449013
-0.00507773
0.0458043
0.0386251
-0.0283471
-0.00942624
-0.000851785
0.0447822
-0.00311051
0.00115543
-0.00702772
0.00702159
-0.00114929
-0.000175228
-0.00704313
0.00837379
0.00678284
-7.74356e-05
-0.00688064
-0.00319937
0.0024388
0.00116411
-0.000759867
-0.000419221
0.000220736
-0.000953881
0.0178125
-0.0188371
0.0275954
0.0549761
0.0419888
-0.00618794
5.6095e-05
0.00132789
0.00209898
-0.000767428
0.000810489
1.30342e-05
-0.00172436
-0.000134211
0.000174878
0.0019635
0.000466011
-0.000217601
-0.00184913
-0.00113499
-0.00012336
-0.00137153
1.89337e-05
-0.00658576
0.00929674
-0.0016906
-0.00102037
-0.0125462
0.00782421
-0.00186377
-0.013744
0.00193935
-0.000741568
-0.000149292
0.000930405
0.0180083
-0.000685581
-0.0296157
0.021798
0.00135107
-0.0266341
-0.00148466
0.0499168
-0.0440955
0.0201945
0.0432009
0.000961755
-0.034866
0.00665178
-0.00789506
-0.000241385
-0.000938228
0.00754663
4.33782e-05
0.0231808
-0.00712565
0.000581652
-0.025397
-0.013243
0.0177576
0.0208824
-0.00364102
0.0280522
0.0211808
-0.00892396
-0.0403089
-0.016343
0.00812041
0.0362748
0.0287625
-0.0239248
0.00365395
-0.000813141
-0.00239709
0.00602453
-0.00327393
-0.00890021
0.00746849
-0.005596
-0.00871816
-0.00722519
0.0696493
-0.00222056
-0.0518806
0.0303597
-0.00750351
0.0289721
0.00969433
-0.00344155
-0.0352249
-0.0178217
0.00283152
0.0439623
0.0258534
-0.0339808
-0.0185942
-0.0164678
0.0232257
0.0118363
0.0041932
0.0017293
-0.0245167
0.0156729
-0.0279474
0.0232562
-0.0428613
0.0186604
-0.0394998
0.00310621
0.000632935
0.00752786
-0.011267
-0.00188566
0.00508262
-9.07607e-05
-0.00254766
0.000512716
-0.00554794
0.0496154
0.0149527
-0.0291325
-0.0354357
0.0127862
0.0771557
-0.0292098
0.000620338
0.0413757
-0.0261644
0.0119074
-0.0050708
1.574e-05
0.00119035
0.00386472
-8.90788e-05
-0.00458906
0.00210337
-0.00219244
0.00211911
-0.0320894
0.037511
-0.0025901
0.000903145
-0.0364341
-0.00387121
0.000781654
0.00130348
-0.00915899
-0.00285907
-0.00121609
-0.011568
0.0382355
-0.0051967
-0.0477132
0.0182926
0.0238861
-0.00394315
0.0514798
0.0354539
0.0381224
-0.0222109
-0.0513654
0.0296966
0.0357896
-0.0300323
-0.0252012
0.0263022
0.0285957
-0.0201971
0.0331182
0.0590325
0.0237184
-0.0110813
-0.00686721
0.0436888
0.018047
-0.0182929
0.0220591
-0.0269977
0.0229856
-0.0200548
-0.00133201
0.00111543
-0.0198706
-0.0012996
-0.00326594
0.040975
0.0137707
-0.0271621
0.0172485
0.00991359
0.0218325
0.0226523
-0.0181826
0.00224792
-0.00761441
-0.0140213
-0.0466571
0.0173072
-0.00250486
0.0318548
-0.0412222
0.00336374
-0.00879868
0.0049593
-0.0017079
-0.00306291
-0.000188486
0.00417889
-6.03409e-06
0.0403769
-0.024181
0.0113995
0.0105539
-0.00976049
-0.00670962
0.00591619
-0.00710819
0.00404124
0.0136209
-0.0109004
0.0259626
-0.0221704
-0.00341675
-0.0172441
-0.00997636
0.00356747
-0.000300732
0.00604317
-0.00609748
0.00343705
0.00417997
0.0003412
0.000545316
-0.000886516
0.000256895
8.43053e-05
0.018675
0.0136408
-0.00869094
-0.0236249
0.0182181
-0.0286755
-0.0217788
0.0138324
-0.0109712
0.00283322
0.0366711
-0.00822105
-0.0343463
-0.00579141
0.0329587
-0.034089
0.0034663
0.0248313
-0.0130806
-0.0292294
0.0182777
0.034894
-0.0116742
-0.0414976
0.0273042
-0.041704
0.0326776
-0.0174964
0.003896
0.0409046
0.043405
-0.0260073
0.00216948
-0.0223975
-0.000352804
0.0205808
-0.0184007
-0.00777692
-0.023491
-0.0110487
-0.00234439
0.000601829
-0.00162313
-0.0100274
0.00172216
-0.00346472
0.000569345
0.00170832
0.00111174
0.00130192
-0.000732579
0.00301024
0.00190212
0.000139528
0.00304098
-0.00107262
0.00297474
-0.000933095
-0.0151275
-0.0100247
0.0161011
0.00905111
0.00374575
0.00519181
-0.024065
0.0184247
-0.0247037
-0.00166306
-0.0160259
0.0102952
0.00739377
0.0182273
-0.035112
0.0427381
-0.0422745
0.00645845
0.0521219
-0.0163058
-0.0329984
0.000792539
0.0325599
-0.000354043
0.00138841
0.0338026
-0.0331864
-0.00200464
0.00102812
0.0350856
-0.0347253
0.00142775
0.0350562
-0.0354558
0.00133048
0.0352996
-0.0352023
0.000168412
0.0350208
-0.0338587
0.00230999
0.0342133
-0.0363548
0.00463399
0.0332502
-0.0355742
0.00457599
0.0344654
-0.0344074
0.00593264
0.0329556
-0.0343123
0.00586809
0.034011
-0.0339465
0.0070486
0.0327066
-0.0338871
0.00698558
0.0336221
-0.0335591
0.00800737
0.0325078
-0.0335296
0.00794756
0.0332937
-0.0332339
0.00882789
0.032351
-0.0332313
0.00877249
0.0330193
-0.0329639
0.010721
0.0310364
-0.0329849
0.0100721
0.0333954
-0.0327465
0.0101274
0.0327356
-0.0327909
0.0100833
0.0326159
-0.0325717
0.0106394
0.0320823
-0.0326384
0.0106019
0.03248
-0.0324425
0.0110802
0.0320513
-0.0325296
0.0110495
0.032385
-0.0323543
0.0114631
0.0320478
-0.0324613
0.0114396
0.0323298
-0.0323063
0.0118004
0.0320726
-0.0324333
0.0117845
0.0323144
-0.0322986
0.0121033
0.0321276
-0.0324464
0.0120958
0.0323401
-0.0323326
0.0123822
0.0322162
-0.0325026
0.0123839
0.0324097
-0.0324114
0.0126441
0.0323442
-0.0326044
0.00932545
0.0358569
-0.0325382
0.0108674
0.031216
-0.032758
0.0207662
0.0269675
-0.0368663
-0.0127684
0.00375025
0.0297843
-0.0378836
0.0290667
-0.0362634
-0.00284574
0.0037071
0.035402
-0.00275962
0.000533813
-0.0340376
-0.00412904
0.0361592
-0.0347898
0.0364174
-0.00550213
-0.0350443
0.0036913
-0.00442408
0.0371502
0.0370048
-0.00474569
0.00210852
0.0364398
0.035259
-0.0362976
-0.00168173
0.00103717
0.0357007
0.0355124
-0.000571098
0.000503943
0.0350879
0.0357656
-0.000612924
0.000723103
0.03314
0.0341043
-0.000610264
0.000503473
0.0330624
0.0345782
-0.000397576
0.000299097
0.0328051
0.0341169
-0.000203412
0.000114459
0.0325967
0.0337178
-2.81017e-05
-5.2784e-05
0.0324319
0.03338
-0.000435752
-0.00139713
0.0328693
0.0325308
0.000868847
-0.000344118
0.0322108
0.0328671
0.000410966
-0.000474706
0.032146
0.0326827
0.000536865
-0.000596661
0.0321111
0.0325421
0.000655305
-0.000712124
0.0321046
0.0324436
0.000768037
-0.000822528
0.0321271
0.0323857
0.000876331
-0.000929054
0.0321804
0.0323682
0.000981292
-0.00103269
0.0322676
0.0323923
0.00108362
-0.000912315
0.0321729
0.0324606
-0.00280004
0.00147524
0.0325408
0.0321445
0.032193
0.00289789
0.00119713
-0.0372814
-0.0348705
0.0383022
-0.00201699
0.00170504
-0.0351438
-0.0355452
-0.00130581
0.00303421
-0.0355871
-0.0348031
-0.00292432
0.0016226
-0.0342725
-0.036245
-0.000749775
0.000623771
-0.0341863
-0.0335345
-0.000503505
0.000392867
-0.0337765
-0.0338262
-0.000286473
0.000187944
-0.033431
-0.0334527
-9.31297e-05
4.30279e-06
-0.0331425
-0.0331391
8.09066e-05
-0.000160294
-0.0329055
-0.0328787
0.000239545
-0.000313735
-0.0327167
-0.0326672
0.000384401
-0.000452726
-0.03257
-0.032501
0.000519256
-0.000583691
-0.0324652
-0.032376
0.000646366
-0.000707524
-0.0324002
-0.0322916
0.000767192
-0.000825845
-0.0323747
-0.0322466
0.000883245
-0.000940061
-0.0323896
-0.0322412
0.000995803
-0.00105117
-0.0324473
-0.0322769
0.00110507
-0.00115669
-0.0325528
-0.0323575
0.00120671
0.000128145
-0.0340929
-0.0324882
0.00295135
-0.00808503
-0.0327499
-0.0337868
-0.00547267
-0.0373531
0.0384017
-0.0384146
-0.00589914
0.0388411
0.00641092
-0.00767399
-0.0371516
-0.0364444
-0.0387899
-0.00939766
0.0422885
-0.0377668
-0.00869709
-0.0118046
-0.0392971
-0.00345259
0.00212088
0.031116
-0.00482162
0.0304357
-0.00142793
-0.0346802
0.00338779
-0.00482097
-0.0333566
0.002811
-0.0334608
-0.00529548
-0.0345698
-0.00740682
0.0061211
-0.0358658
-0.0365069
-0.0086668
-0.0483447
-0.00564268
0.0423131
-0.0089154
-0.0443867
-0.0021022
0.0386758
-0.002941
0.00333671
0.0384454
0.0372453
-0.00322676
0.00252362
0.0378533
0.0385117
-0.00242334
0.000889366
0.036936
0.0371051
-0.000523023
0.000633129
0.0363297
0.0356253
-0.000678062
0.00105536
0.0353234
0.0354675
-0.000922682
0.00108503
0.0349256
0.0358983
-0.00142384
0.000583471
0.0339804
0.0337655
-0.000471489
0.000369335
0.0331646
0.0346902
-0.000273502
0.000181895
0.0328967
0.0342127
-9.53351e-05
1.24697e-05
0.0326796
0.0338043
6.56923e-05
-0.000140773
0.032507
0.0334582
0.000442804
-0.000282236
0.0327087
0.0328328
0.00034765
-0.00041087
0.0322741
0.0329325
0.000472152
-0.000532005
0.0322059
0.032744
0.000589542
-0.000645854
0.0321674
0.0325997
0.000700338
-0.000753913
0.0321582
0.0324981
0.00080606
-0.000857524
0.0321785
0.0324378
0.000907891
-0.000957761
0.0322302
0.0324186
0.00100683
-0.0010555
0.0323163
0.0324414
0.00110328
-0.00137126
0.0324409
0.0325084
0.00124553
-0.00149035
0.0327857
0.0320188
0.0328236
-0.00338709
0.0319622
-0.0342328
-0.00458121
0.0373861
-0.0341316
0.0361751
-0.00135812
-0.00675599
-0.024641
-0.00262671
0.00157958
-0.0362343
-0.0346862
-0.0015094
0.00149892
-0.0351334
-0.035475
-0.00221923
0.0019643
-0.0353322
-0.0355234
-0.0004695
0.000323074
-0.0341261
-0.0347502
-0.000909002
0.000773756
-0.034051
-0.0341205
-0.000649507
0.000531197
-0.0336582
-0.0337019
-0.00042092
0.000315291
-0.0333254
-0.0333424
-0.000216444
0.000121444
-0.0330475
-0.0330402
-3.21274e-05
-5.38867e-05
-0.0328195
-0.0327894
0.000135249
-0.000214898
-0.0326371
-0.0325859
0.000290349
-0.00036379
-0.0324966
-0.0324256
0.000433787
-0.000502528
-0.0323964
-0.032306
0.000568401
-0.000633438
-0.0323351
-0.0322258
0.000696083
-0.000758253
-0.0323125
-0.0321839
0.000818425
-0.000878427
-0.0323296
-0.032181
0.000936773
-0.000995372
-0.0323887
-0.0322185
0.00105337
-0.00111298
-0.0324932
-0.0322995
0.00117115
-0.00201049
-0.0332535
-0.03243
0.00301453
-0.00191806
-0.0338464
-0.0327828
0.00290363
-0.0340873
-0.00304915
-0.0336946
-0.0356187
0.00388882
-0.00429752
-0.0329479
0.00304
-0.0326119
-0.00511858
-0.0337487
-0.00545526
0.00511875
-0.0355293
-0.00529506
-0.0366671
-0.00286806
0.00264051
-0.0338597
-0.0337544
0.0347488
-0.00404346
-0.00259557
-0.0340269
-0.0112066
-0.0460535
-0.0396836
-0.00831061
7.8996e-05
0.032709
-0.0396042
-0.00874625
-0.032661
-0.000258401
-0.00624571
0.00662729
0.0430234
-0.0469013
-0.00101584
0.0466408
-0.0448091
0.00462675
-0.00321069
0.0428347
0.00701678
0.0426654
-0.00553495
0.00435715
0.0398536
0.0419969
-0.00236359
0.0019482
0.0388608
0.0392388
-0.00220549
0.00278952
0.0372693
0.0382544
-0.00122931
0.00227826
0.035887
0.0386653
-0.0002434
0.00142696
0.0351462
0.0376602
-0.000105055
0.000888056
0.0345404
0.0367894
-0.000758026
0.00165429
0.0340293
0.0360283
-5.32493e-05
0.000427015
0.0336067
0.0353665
-0.000327237
0.000231749
0.0332601
0.03479
-0.000145089
6.04548e-05
0.0329813
0.0342994
1.70588e-05
-9.31992e-05
0.0327557
0.0338819
0.000163508
-0.000232813
0.0325763
0.0335285
0.000633338
-0.000361337
0.0324367
0.0332333
0.000421161
-0.000480396
0.0323333
0.0329923
0.000536058
-0.000591601
0.0322614
0.0327996
0.000644265
-0.000696828
0.03222
0.0326523
0.000747025
-0.000797201
0.0322083
0.0325483
0.000845493
-0.000893834
0.0322269
0.0324861
0.000940708
-0.00098768
0.0322772
0.0324654
0.00103355
-0.00107962
0.0323624
0.0324873
0.00112513
-0.00117077
0.0324865
0.0325539
0.00158689
-0.00169559
0.0328944
0.0324349
0.00137696
-0.00249577
0.0322348
0.0325049
0.00323224
-0.00287896
0.031609
0.0311722
0.0306226
0.0314794
-0.0338401
-0.00439525
-0.0025397
-0.00367258
-0.00253603
0.00194056
-0.0356388
-0.0341823
-0.0020799
0.00226726
-0.0353207
-0.0356144
-0.0017367
0.00124259
-0.034838
-0.0349928
-0.00094013
0.00115639
-0.0343423
-0.0344477
-0.00100766
0.000864012
-0.0339074
-0.0339717
-0.0007317
0.000606178
-0.0335327
-0.0335696
-0.000489704
0.000378111
-0.0332138
-0.0332259
-0.000274104
0.00017395
-0.0329474
-0.0329362
-8.02611e-05
-1.05786e-05
-0.0327286
-0.0326957
9.60061e-05
-0.000179288
-0.0325538
-0.0325004
0.000257769
-0.000334707
-0.0324197
-0.0323471
0.000407656
-0.000479717
-0.0323244
-0.0322331
0.00054835
-0.00061655
-0.0322669
-0.0321571
0.000681801
-0.000747036
-0.0322473
-0.0321187
0.000809732
-0.000872759
-0.0322665
-0.0321183
0.000933571
-0.000994939
-0.0323273
-0.0321577
0.00105402
-0.00111303
-0.0324342
-0.0322404
0.00117051
-0.00182942
-0.0325946
-0.0323725
0.00187144
-0.0023315
-0.0333864
-0.0327408
-0.0333856
-0.0356186
-0.00661049
-0.0382887
0.00390761
-0.00400714
-0.0328484
0.00409565
-0.0328
-0.0347368
0.033656
-0.00296261
-0.0344962
-0.00283613
-0.00359155
-0.0341643
-0.0526138
-0.00549407
0.00461385
0.00234752
0.0255985
-0.0302493
0.0202557
0.0146075
0.00178759
-0.0476126
-0.0116073
-0.04109
-0.0418362
-0.0158247
-0.00248746
0.00245499
0.0428672
-0.0397438
-0.00665006
0.0439064
0.0155526
-0.0482796
-0.0396401
-0.0101961
-0.00672775
-0.0395229
-0.0023986
0.00344008
0.041982
0.0427218
-0.00428537
0.00353481
0.0406042
0.0411516
-0.0021257
0.00294106
0.0380454
0.0406479
-0.00120511
0.00151932
0.0369551
0.0399903
-0.00135624
0.0011932
0.0360501
0.0388283
-0.00104984
0.000903289
0.0352927
0.0378036
-0.000781143
0.000661405
0.0346602
0.0369115
-0.000555999
0.000448085
0.0341372
0.0361337
-0.000354999
0.000257612
0.033704
0.0354596
-0.000174398
8.72213e-05
0.0333473
0.0348732
-1.23735e-05
-6.50154e-05
0.0330587
0.0343742
0.000131975
-0.000202168
0.0328259
0.0339488
0.000263324
-0.000327445
0.0326404
0.0335897
0.000384221
-0.000443274
0.0324958
0.0332901
0.000495814
-0.000550801
0.0323883
0.0330448
0.000600454
-0.000652114
0.0323131
0.0328493
0.000699402
-0.000748424
0.032269
0.0326996
0.000793896
-0.000840842
0.0322553
0.0325938
0.000884947
-0.000930309
0.0322722
0.0325302
0.000973444
-0.00101766
0.0323214
0.0325086
0.00106019
-0.00110372
0.0324059
0.0325298
0.00114611
-0.00118945
0.0325298
0.0325963
0.00146652
-0.00127566
0.0327035
0.032712
0.00166006
-0.00175116
0.0323259
0.0328893
0.00292055
-0.00237566
0.0310641
0.0323416
0.0305944
0.0318482
-0.0316651
-0.000441483
0.00124483
0.0318774
-0.0331051
-0.00316756
-0.00232742
-0.00312168
-0.00333573
0.00247607
-0.0347792
-0.0334223
-0.00223822
0.00201805
-0.0351006
-0.0353765
-0.00181326
0.00161751
-0.0346423
-0.034788
-0.00143869
0.00127235
-0.034176
-0.0342689
-0.00111904
0.000971826
-0.0337602
-0.0338184
-0.000835607
0.00070448
-0.0334015
-0.0334334
-0.00058357
0.000466674
-0.0330969
-0.033105
-0.000358635
0.00025357
-0.0328423
-0.0328282
-0.000156216
6.08914e-05
-0.0326333
-0.0325984
2.76881e-05
-0.000115093
-0.0324664
-0.0324119
0.000196631
-0.000277551
-0.0323388
-0.0322656
0.000353243
-0.000428933
-0.0322487
-0.0321574
0.000500033
-0.000571646
-0.0321953
-0.032086
0.000639184
-0.000707677
-0.0321788
-0.0320512
0.000772536
-0.000838743
-0.0322003
-0.0320534
0.000901736
-0.000966516
-0.0322625
-0.0320947
0.00102854
-0.00109279
-0.0323699
-0.0321784
0.00115472
-0.00121952
-0.0325298
-0.0323106
0.00146168
-0.00209753
-0.0327505
-0.0324986
0.00206962
-0.00243013
-0.0334992
-0.0334135
0.0422232
0.0294492
-0.0561198
-0.00986672
0.0454398
-0.0392688
-0.0127635
0.00301455
-0.0466674
0.00239636
-0.0341957
-0.00269695
-0.0340607
0.00452395
-0.00525661
-0.0347967
-0.0346862
0.00469455
-0.00540928
-0.037574
-0.0372291
-0.0408498
-0.0051467
0.0427218
-0.0231393
0.000825624
-0.0539308
0.00143853
-0.0463183
0.0078187
-0.00856032
0.0434634
0.00623061
0.0470279
-0.00258845
0.00296727
-0.0331788
-0.00162681
-0.03381
-0.0525135
-0.015925
0.0422172
-0.0627063
-0.00265021
-0.0082682
0.041925
-0.00632451
-0.0386076
-0.00265585
0.00241655
-0.0339564
-0.0345812
0.034799
-0.00291475
-0.00248646
-0.0347506
-0.0549457
-0.00693496
0.000597561
-0.0537042
-0.0108566
-0.0416357
-0.00411877
0.00305238
0.0439336
0.0460182
-0.0032502
0.00331538
0.0419168
0.042524
-0.00152242
0.00254959
0.039577
0.0429445
-0.00168753
0.00149084
0.0382421
0.04151
-0.00133387
0.00115856
0.0371304
0.0401473
-0.00103083
0.000880306
0.0362006
0.0389561
-0.000770365
0.000638857
0.0354242
0.0379135
-0.000543974
0.000428707
0.0347754
0.0370064
-0.000347351
0.000246436
0.0342381
0.0362151
-0.000173616
8.3228e-05
0.0337944
0.0355324
-1.75245e-05
-6.27344e-05
0.0334275
0.0349389
0.000121559
-0.000194203
0.0331314
0.0344331
0.000248167
-0.000313924
0.0328917
0.0340028
0.000363835
-0.00042401
0.0327006
0.0336396
0.000470746
-0.000526339
0.0325514
0.0333369
0.000570576
-0.000622216
0.0324399
0.0330891
0.000664622
-0.000713248
0.0323617
0.0328917
0.000754256
-0.000800427
0.0323152
0.0327406
0.000840423
-0.000884685
0.0322996
0.0326338
0.000924
-0.000966822
0.032315
0.0325695
0.00100575
-0.00104755
0.0323632
0.0325475
0.00108636
-0.00112755
0.0324471
0.0325686
0.00116657
-0.00120767
0.0325709
0.0326353
0.00124748
-0.00128835
0.0327444
0.0327518
0.00132794
-0.00161176
0.0326098
0.0329289
0.0021607
-0.003288
0.0321913
0.0328905
0.00672661
0.0391276
0.034033
0.0325606
-0.0322059
-0.000796203
-0.0313589
0.0407725
0.00519392
0.00244653
0.0326147
-0.0336865
-0.00209578
-0.00191865
0.0345218
-0.0348895
-0.0025949
-0.00228632
-0.0029266
-0.00324014
0.00262254
-0.0341616
-0.0336952
-0.0023773
0.00214903
-0.0348723
-0.0351313
-0.00193588
0.00173231
-0.0344387
-0.0345749
-0.00154831
0.00137215
-0.0339998
-0.0340849
-0.00121237
0.00105715
-0.033605
-0.0336586
-0.000916294
0.000778926
-0.0332642
-0.0332926
-0.00065436
0.000531987
-0.0329746
-0.0329805
-0.000420902
0.000310885
-0.0327323
-0.0327171
-0.00021092
0.000111054
-0.0325334
-0.0324984
-2.01854e-05
-7.13778e-05
-0.0323748
-0.032321
0.000154788
-0.00023961
-0.0322539
-0.0321822
0.000317024
-0.000396475
-0.0321692
-0.03208
0.000469167
-0.000544431
-0.0321201
-0.0320133
0.000613478
-0.000685567
-0.0321067
-0.0319821
0.0007519
-0.000821685
-0.0321306
-0.0319871
0.000886094
-0.000954266
-0.0321944
-0.0320303
0.00101731
-0.00108447
-0.0323027
-0.0321153
0.00114715
-0.0012144
-0.0324626
-0.0322479
0.00127689
-0.00134427
-0.0326831
-0.0324361
0.00206762
-0.00193765
-0.0336292
-0.0326902
-0.0335818
-0.00271568
-0.0330754
0.0037665
-0.00410862
-0.0344546
-0.0336353
0.00491144
-0.00593805
-0.0365474
-0.0364263
-0.0242488
-0.0410283
0.00257696
-0.00600282
0.0468892
0.00335988
0.046245
-0.0386679
0.0385202
-0.0502421
-0.000911274
0.00325886
0.03678
0.00275819
0.037103
-0.0382646
-0.00890973
-0.00792488
-0.0366208
-0.0350778
0.0351827
-0.00301966
-0.0347746
-0.00278968
-0.0270876
-0.0387147
0.0146663
-0.0603871
-0.0091666
0.0450888
-0.0519142
-0.017715
-0.0341629
0.0167992
-0.0288113
0.046175
0.00209459
-0.00263288
-0.0332717
0.00253611
-0.0336203
-0.00369301
0.00324026
0.0443863
0.0456851
-0.0022252
0.00167957
0.0424624
0.0435391
-0.00154422
0.00134364
0.0397776
0.0430799
-0.00123681
0.00105177
0.0384271
0.0416168
-0.000953129
0.000787446
0.037296
0.040246
-0.000704047
0.000559055
0.0363456
0.0390395
-0.000489184
0.000362488
0.0355509
0.0379834
-0.000303293
0.000190649
0.0348881
0.0370656
-0.000138721
3.94771e-05
0.0343374
0.036267
6.34639e-06
-9.48218e-05
0.0338829
0.0355783
0.000136804
-0.000216388
0.0335071
0.0349809
0.000255088
-0.000326608
0.0332029
0.0344718
0.00036314
-0.000427981
0.0329565
0.0340393
0.000462998
-0.000522189
0.0327598
0.0336746
0.000556171
-0.00061066
0.0326059
0.0333708
0.000644047
-0.000694541
0.0324904
0.0331225
0.000727629
-0.00077498
0.0324091
0.0329248
0.00080803
-0.000852817
0.03236
0.0327737
0.000885986
-0.000928757
0.0323423
0.032667
0.000962198
-0.00100344
0.0323563
0.032603
0.00103729
-0.00107744
0.0324034
0.0325813
0.00111183
-0.0011513
0.0324866
0.032603
0.0011864
-0.00122569
0.0326102
0.0326704
0.00126193
-0.00130111
0.0327836
0.032788
0.00133788
-0.00173851
0.0330104
0.0329657
0.00205371
-0.0030448
0.0331824
0.0332057
0.0342471
0.0331088
-0.033146
-0.000759055
-0.0345522
0.0373924
0.00235373
0.00100309
0.0334372
-0.0338852
-0.00164785
-0.00162737
0.0345127
-0.0350259
-0.00208176
-0.00165876
-0.00276976
-0.00262283
0.00276348
-0.0343022
-0.0337819
-0.00250239
0.00226282
-0.0346327
-0.0348702
-0.00204437
0.00183406
-0.0342284
-0.0343564
-0.00164682
0.00146298
-0.033816
-0.0338976
-0.00130065
0.00113911
-0.0334434
-0.0334963
-0.000996602
0.000853167
-0.0331207
-0.03315
-0.000727033
0.000598857
-0.0328464
-0.0328543
-0.000486466
0.000370976
-0.0326168
-0.0326047
-0.000269972
0.000164934
-0.0324284
-0.0323974
-7.3295e-05
-2.32003e-05
-0.0322783
-0.0322294
0.000107225
-0.00019681
-0.0321643
-0.0320981
0.000274687
-0.000358744
-0.0320852
-0.0320021
0.000431776
-0.000511545
-0.0320403
-0.0319403
0.000580861
-0.000657409
-0.0320302
-0.0319128
0.000723997
-0.000798262
-0.0320563
-0.0319205
0.000863005
-0.000935858
-0.0321215
-0.0319656
0.000999601
-0.00107191
-0.0322304
-0.0320516
0.00113544
-0.00120792
-0.0323901
-0.0321844
0.00127178
-0.00134437
-0.0326105
-0.0323723
0.00140832
-0.0021354
-0.0329021
-0.0326262
0.00203061
-0.00224397
-0.033743
-0.0336866
-0.0589592
0.00178211
0.00280214
0.0373485
-0.0378618
-0.00832773
-0.00210616
-0.0409664
0.00242304
-0.034488
-0.00270961
-0.0345716
-0.054057
0.0118686
-0.0108501
0.0352563
0.00720259
-0.0084398
-0.0353836
-0.00241894
-0.0332894
-0.00301998
-0.0330343
-0.00373401
-0.0337405
-0.00557948
-0.0345808
-0.0349243
-0.0593638
-0.072043
-0.0256309
0.017167
-0.00369767
0.00259492
0.0473478
-0.00346231
0.0466539
-0.00252309
0.00224469
-0.0333419
-0.00244531
-0.0333495
0.0367672
-0.0356071
0.00119361
0.0380119
0.00155737
-0.0350965
-0.011205
0.0279873
-0.0100749
0.0141707
-0.0450881
-0.00233842
0.00246539
-0.034615
-0.0350768
0.0351161
-0.00274891
-0.0346387
-0.0027766
-0.00154025
0.00146443
0.0444622
0.0467398
-0.00131339
0.000664566
0.0431112
0.0436901
-0.00165448
0.00083394
0.0405981
0.04209
-0.000798391
0.000603085
0.0386224
0.0416524
-0.000577864
0.000402847
0.0374711
0.0402712
-0.000385317
0.000228632
0.0365023
0.039057
-0.000216497
7.75123e-05
0.0356899
0.0379955
-6.93104e-05
-5.42024e-05
0.0350116
0.0370738
6.09167e-05
-0.000171446
0.0344479
0.0362737
0.000177734
-0.000276433
0.0339816
0.0355845
0.000284206
-0.000372747
0.0335956
0.0349886
0.000381911
-0.000461208
0.0332822
0.0344809
0.00047232
-0.000543716
0.0330279
0.0340504
0.000557018
-0.000621596
0.0328243
0.0336879
0.000637134
-0.00069591
0.0326646
0.0333864
0.000713655
-0.000767475
0.0325442
0.0331402
0.000787333
-0.000837103
0.0324588
0.0329446
0.000858989
-0.000905423
0.0324064
0.0327956
0.000929177
-0.000972927
0.0323861
0.0326907
0.00099842
-0.00104008
0.0323979
0.0326285
0.00106719
-0.00110729
0.0324435
0.0326085
0.00113595
-0.00117497
0.0325256
0.0326317
0.00120517
-0.00124369
0.0326487
0.0327006
0.00127569
-0.00131387
0.0328217
0.03282
0.00134711
-0.00138626
0.0330495
0.0329989
0.00142102
-0.0015783
0.0333397
0.0332405
0.00128289
0.000192896
0.0353042
0.0339517
-0.00226662
0.00253114
0.037084
0.0350293
0.0344926
-0.0340091
-0.00124256
-0.00011132
0.0340002
-0.0339869
-0.00166115
-0.00163632
0.0339678
-0.0343454
-0.00170416
-0.00167783
0.0347446
-0.0351561
-0.00260812
-0.00237057
-0.00282969
-0.00297155
0.00287872
-0.0342094
-0.0345088
-0.00260643
0.00235943
-0.0343857
-0.0345979
-0.00213832
0.00191914
-0.0340092
-0.0341353
-0.00173146
0.00153867
-0.0336232
-0.03371
-0.00137644
0.00120627
-0.0332733
-0.0333341
-0.00106441
0.000913116
-0.0329694
-0.0330082
-0.000788105
0.000652546
-0.0327108
-0.0327293
-0.000541546
0.000419006
-0.0324942
-0.0324937
-0.0003196
0.000207769
-0.0323166
-0.032298
-0.000117894
1.48024e-05
-0.0321752
-0.0321395
6.7307e-05
-0.000163336
-0.0320683
-0.032016
0.000239218
-0.000329643
-0.0319947
-0.0319262
0.000400637
-0.000486741
-0.0319542
-0.0318693
0.000554018
-0.000636915
-0.0319473
-0.0318455
0.000701495
-0.000782163
-0.0319756
-0.0318559
0.000844933
-0.000924217
-0.0320422
-0.0319028
0.000985957
-0.00106466
-0.0321517
-0.0319899
0.00112617
-0.00120503
-0.0323112
-0.0321229
0.00126687
-0.00134648
-0.0325309
-0.0323104
0.00140886
-0.00148913
-0.0328218
-0.0325638
0.00183279
-0.00215853
-0.0334173
-0.0333429
-0.0342647
0.0271507
-0.0656776
0.0449902
-0.0028429
-0.0328918
-0.00322527
-0.0326519
-0.00418137
-0.0327844
-0.00549194
-0.0332703
-0.00658838
-0.0338278
-0.00858208
-0.0333899
0.00318096
0.0373621
0.00331085
0.0391745
-0.00753097
0.0339886
-0.0330131
-0.0106655
0.00455913
-0.00685701
-0.03153
0.00398271
-0.0326938
-0.0390093
-0.0102849
-0.00692453
0.0273809
0.0242221
-0.0209962
0.0214303
-0.00728311
-0.00295415
0.00244074
-0.0341016
-0.00238903
-0.0352038
-0.0352676
0.0354474
-0.00292864
-0.0352606
-0.0027836
-0.00185475
0.00126757
0.0479349
0.04811
-0.00108143
0.000780123
0.0447635
0.0469259
-0.00074952
0.000961903
0.0428988
0.0437207
-0.00101359
0.000315201
0.0412965
0.0420383
-0.000396386
0.000148317
0.0388705
0.0415712
-0.000234214
9.60983e-06
0.0376957
0.0401853
-9.45292e-05
-0.000108951
0.0367058
0.0389721
2.86088e-05
-0.000212441
0.0358737
0.0379152
0.000138179
-0.000303513
0.0351769
0.0369995
0.000237551
-0.000385721
0.0345961
0.0362078
0.000328367
-0.00046064
0.0341139
0.0355272
0.000412889
-0.000530985
0.0337137
0.0349409
0.000492272
-0.000597197
0.0333871
0.0344422
0.000567223
-0.000660477
0.0331212
0.0340205
0.000638756
-0.000721716
0.0329073
0.0336662
0.000707605
-0.000781615
0.0327387
0.0333723
0.000774396
-0.000840647
0.0326105
0.033133
0.000839588
-0.000899311
0.0325186
0.0329436
0.000903742
-0.000957994
0.0324607
0.0328
0.000967238
-0.00101698
0.0324358
0.0326999
0.00103044
-0.00107655
0.0324441
0.0326419
0.00109369
-0.00113695
0.0324867
0.0326256
0.00115735
-0.00119846
0.0325667
0.032652
0.00122179
-0.00126152
0.0326885
0.0327239
0.00128771
-0.00132639
0.0328604
0.0328462
0.00135472
-0.00139313
0.0330879
0.0330272
0.00142299
-0.00145861
0.0333753
0.0332703
0.00107394
0.000234655
0.0339956
0.033567
-6.35235e-05
0.00225259
0.0348949
0.0352004
0.0373955
-0.0361153
0.00190076
-0.00296273
0.00364196
0.0367163
0.036652
0.0365391
-0.0349719
-0.000373571
0.00198115
0.0342505
-0.0339033
-0.00158976
-0.000832704
0.0339271