/*--------------------------------*- C++ -*----------------------------------*\
  =========                 |
  \\      /  F ield         | OpenFOAM: The Open Source CFD Toolbox
   \\    /   O peration     | Website:  https://openfoam.org
    \\  /    A nd           | Version:  10
     \\/     M anipulation  |
\*---------------------------------------------------------------------------*/
FoamFile
{
    format      ascii;
    class       volScalarField;
    location    "23";
    object      p;
}
// * * * * * * * * * * * * * * * * * * * * * * * * * * * * * * * * * * * * * //

dimensions      [0 2 -2 0 0 0 0];

internalField   nonuniform List<scalar> 
6397
(
2.72735
2.33384
1.35918
1.3368
1.07484
1.17199
5.28428
1.55582
-10.6909
-12.8003
6.44645
3.98726
-0.162796
-0.0784665
-0.145044
-6.12444
-6.01516
-7.383
12.348
11.5513
11.0687
-18.3182
-18.1357
-16.6801
-0.0307965
0.0338866
0.0556318
-2.06518
-1.86845
-1.96471
-1.84349
1.22202
1.33111
1.26457
0.959118
1.1174
1.12988
1.25851
0.784334
0.673555
0.769013
0.942561
-2.12185
0.496665
0.479348
1.19201
0.873295
0.915857
0.443841
0.54071
0.41732
0.564732
0.555313
5.72405
5.39747
1.98229
2.02205
0.626609
-2.82411
-2.45227
-3.10006
-3.19921
-3.08462
-2.82471
-2.51
-2.26069
-2.14853
-2.20921
-1.61581
-2.12367
-1.4709
-1.78465
-1.91897
-1.9559
-1.91526
-1.81048
-1.71632
-1.68244
-1.77856
-2.0356
-1.39796
-1.882
-2.46441
-2.48638
-1.42404
-1.76632
-2.89397
-3.12331
-1.54632
-1.76515
-3.47843
-3.94818
-1.76814
-2.07867
-4.17126
-4.9127
-1.14492
-1.89459
-1.46381
-0.829614
-0.946364
-0.809258
-0.789977
-0.91764
-0.860348
-0.939085
-0.938256
-0.970957
-0.940848
-1.29977
-1.07444
-2.27115
-1.69207
-4.09005
-3.06532
-5.27035
-2.44935
-3.24967
-2.78132
-2.23418
-2.24565
-2.80431
-2.42474
-3.91454
-3.34806
-4.55888
-4.38897
-3.92593
-4.40164
-2.75387
-3.33278
-1.98546
-2.29925
-1.78153
-1.82159
-2.45678
-2.3213
-2.43874
-6.34939
-5.79463
-2.28851
-3.73765
-2.59078
-6.9482
-6.29553
-6.92045
-1.47162
-1.60305
-2.30509
-1.49514
-4.85455
-0.678554
-1.07781
-0.212315
-0.398694
-0.0730138
-0.111594
-0.0937849
-0.0762888
-0.163385
-0.1301
-0.308703
-0.218387
-0.775172
-0.481386
-1.85539
-1.22346
-3.86045
-2.7292
-5.14404
-1.91884
-2.04058
-2.1956
-1.96005
-3.31034
-2.6399
-4.9796
-4.11334
-5.89283
-5.59708
-5.03657
-5.63933
-3.33687
-4.17817
-2.10597
-2.62971
-1.55491
-1.76089
-1.47943
-2.95346
-2.64127
-3.12085
-3.13971
-2.81409
-4.062
-6.32097
-5.56645
-6.15908
-6.7471
-6.82369
-1.6596
-2.82934
-1.68938
-2.31884
-1.54644
-3.89506
-2.89972
-3.66555
-0.853782
-0.921687
-5.28859
-1.26276
-2.04838
-0.188907
-0.639534
0.328244
0.123844
0.510272
0.444111
0.511542
0.520209
0.43307
0.471279
0.249933
0.359184
-0.251959
0.049135
-1.31096
-0.698961
-3.24807
-2.16763
-4.48227
-1.37925
-1.52507
-1.39391
-1.31735
-2.06853
-1.63713
-3.62497
-2.72726
-5.7794
-4.69695
-6.94107
-6.59667
-5.90212
-6.67387
-3.72113
-4.82262
-2.07196
-2.78531
-1.23826
-1.57153
-1.03561
-3.51102
-3.00152
-3.83512
-5.9163
-4.09075
-6.27538
-1.58703
-2.64911
-5.89331
-6.02736
-4.47719
-4.24485
-2.50184
-1.63963
-0.401957
-0.25691
-2.4841
-3.20343
-5.07399
-3.93953
-4.64618
-0.798221
-5.29196
-0.88538
-1.68568
0.22984
-0.249878
0.746824
0.536095
0.925956
0.866285
0.934045
0.946399
0.875851
0.913878
0.698668
0.810318
0.236473
0.512759
-0.713153
-0.162371
-2.38506
-1.45778
-4.3551
-3.42148
-4.57638
-4.86439
-2.75229
-3.76663
-0.702121
-0.709462
-0.736626
-0.601801
-0.633456
-0.879136
-0.676332
-1.81382
-1.2535
-3.67803
-2.61908
-6.1706
-4.92888
-7.521
-7.11743
-6.33331
-7.22047
-3.81843
-5.09306
-1.88841
-2.72737
-0.8511
-1.27463
-0.578084
-3.9619
-3.2984
-4.37781
-1.40826
-0.634195
-2.77496
-1.80996
-3.7742
-5.6417
-3.73371
-0.801962
0.0816349
0.25091
-2.31774
-4.85768
-0.558418
-1.23466
-3.36979
-1.80413
-1.02137
-0.15553
-4.83538
-1.89626
-3.04742
-2.56866
-0.46968
-1.17971
0.54845
0.097789
1.03981
0.844833
1.21561
1.15607
1.2468
1.24287
1.19598
1.22948
1.038
1.13958
0.642272
0.8796
-0.124221
0.3158
-1.42413
-0.701441
-2.90922
-2.22503
-3.08372
-3.32265
-1.52557
-2.41324
-0.13308
-0.733577
-0.0262586
0.00737134
-0.00120409
0.00642821
-0.0191047
0.00980037
0.0312269
-0.403976
-0.134896
-1.45174
-0.833387
-3.42624
-2.31403
-6.03397
-4.73249
-7.47289
-7.0345
-6.22768
-7.16542
-3.59116
-4.92584
-1.55658
-2.44807
-0.452776
-0.909596
-0.135013
-0.566539
-0.0605862
-0.430767
0.309806
-0.111213
0.381102
-0.879624
-0.149247
-2.6268
-1.74256
-4.20356
-3.48876
-4.76627
-4.65692
-3.97509
-4.53025
-3.22707
-3.24242
-4.661
-1.96924
-3.65998
-1.14347
-2.32035
-0.217296
-0.684509
-1.07883
0.629413
0.0073833
-2.24035
-2.39605
-4.07875
-1.22057
-1.82863
-0.00542066
-0.600121
0.820359
0.445347
1.24565
1.0714
1.40588
1.34728
1.44058
1.43378
1.40385
1.43063
1.27287
1.35786
0.969354
1.15026
0.413452
0.734386
-0.518552
-0.00485643
-1.46319
-1.05006
-1.50565
-1.53252
-0.459916
-1.08571
0.591655
0.134816
1.13054
0.908026
0.418609
0.165828
0.322989
0.457196
0.452499
0.502074
0.473308
0.451657
0.502688
0.0324328
0.301506
-0.990118
-0.390872
-2.88491
-1.81933
-5.379
-4.13168
-6.80061
-6.35466
-5.59823
-6.50764
-3.06789
-4.34349
-1.11966
-1.97313
-0.0457499
-0.494241
0.485938
0.268452
0.786728
0.660076
0.877359
-0.958486
0.405991
-0.24044
-2.62649
-1.76412
-4.16779
-3.47026
-4.67103
-4.59645
-3.80589
-4.40349
-0.447935
-0.0432906
0.853316
1.29803
-2.21641
-3.04478
-2.68114
-3.61321
-1.72887
-2.67083
-1.19415
-1.58424
-0.924028
-0.584463
-0.324587
-0.773083
0.326369
1.41234
0.998472
0.0904161
-0.708655
-0.171183
1.51392
1.69606
1.76926
-1.41876
-1.79928
-1.10215
-3.26183
-1.40468
-1.56173
-0.554328
-1.04631
0.400013
-0.061356
1.0529
0.761282
1.39247
1.24796
1.52694
1.47267
1.56091
1.54917
1.54394
1.55906
1.44242
1.50912
1.21772
1.34951
0.836995
1.05466
0.250582
0.567013
-0.284602
-0.0601226
-0.170743
-0.300074
0.434188
0.103293
1.08388
0.769981
1.48704
1.3239
1.61043
0.462206
0.297933
0.702567
0.597733
0.786096
0.75677
0.814877
0.80144
0.788074
0.829977
0.424949
0.6582
-0.476212
0.0539601
-2.14882
-1.2123
-4.33769
-3.24015
-5.58875
-5.19737
-4.54466
-5.33326
-2.34988
-3.4558
-0.64286
-1.39553
0.319326
-0.0871519
0.81115
0.602902
1.08291
0.962236
1.16149
0.272973
0.741355
-0.926883
-0.276857
-2.45723
-1.66799
-3.8292
-3.21532
-4.20383
-4.17793
-3.32718
-3.90246
-2.58804
-2.2521
-2.75007
-1.66528
-1.98858
-1.39118
-1.10866
-1.30022
-0.243143
-1.25785
0.547053
-0.500279
-1.22676
1.11536
1.82938
1.61203
0.122459
-0.910319
-0.129691
1.84384
2.03076
2.08609
-1.23244
-0.610081
-0.702698
-0.487658
-2.60747
-0.647723
-0.783363
0.0183028
-0.348767
0.72759
0.388323
1.21916
1.00627
1.4789
1.37457
1.59163
1.54866
1.63236
1.61863
1.63125
1.63777
1.561
1.60543
1.42101
1.49869
1.20237
1.32449
0.862103
1.047
0.549964
0.673205
0.737391
0.576953
1.11621
0.94497
1.4426
1.26889
1.73129
1.60235
1.90149
1.82543
1.9669
0.518055
0.33722
0.750684
0.648865
0.922857
0.838799
1.01099
0.978845
1.06931
1.03511
1.03516
1.06575
0.756252
0.940354
0.0177878
0.454495
-1.32861
-0.577241
-3.07544
-2.20101
-4.07888
-3.75633
-3.27087
-3.89012
-1.53226
-2.41188
-0.176502
-0.78184
0.618087
0.273034
1.04616
0.864352
1.2703
1.17359
1.32556
0.902488
1.11933
0.186678
0.586435
-0.863286
-0.288328
-2.16958
-1.50657
-3.25884
-2.7852
-3.46091
-3.50034
-2.60894
-3.14557
-1.93844
-2.04033
-2.19556
-1.7932
-1.58112
-1.77491
-0.806969
-1.87792
-0.0150786
-1.98608
0.677996
-1.92552
1.19532
-0.401649
-1.43337
1.75869
2.1509
1.64056
-0.165235
-2.21819
-0.0938439
0.30289
0.0977152
-0.0338259
-0.12593
0.449199
0.19655
0.96252
0.728952
1.32672
1.17551
1.52568
1.45022
1.62697
1.58938
1.68301
1.66128
1.7036
1.69962
1.67556
1.69432
1.5934
1.63966
1.44362
1.52473
1.249
1.34555
1.13551
1.16802
1.30591
1.18662
1.56149
1.45286
1.70404
1.63282
1.8677
1.78795
1.99863
1.93838
2.09304
2.0515
2.07985
2.10525
0.553912
0.310425
0.422513
0.79557
0.680165
0.999809
0.905797
1.13483
1.0733
1.1994
1.177
1.21689
1.21063
1.19244
1.21386
1.00117
1.13179
0.447792
0.778096
-0.558505
0.0037852
-1.84345
-1.20357
-2.59398
-2.3477
-2.00305
-2.45835
-0.742651
-1.38072
0.242043
-0.203422
0.850356
0.578935
1.2048
1.05285
1.37681
1.30544
1.43021
1.41583
1.39883
0.666551
1.04316
0.890561
0.0437232
0.392861
-0.853561
-0.37438
-1.85395
-1.35977
-2.5854
-2.28358
-2.60898
-2.70823
-1.79485
-2.29013
-0.626805
-1.21104
0.309137
-0.0872154
-0.649119
0.264726
2.02748
1.99132
-2.05924
-1.92236
1.35085
-2.12566
-1.36914
0.722644
0.817869
1.04071
-2.4297
-0.642203
-2.77899
0.0884937
-3.05335
0.741159
-2.8809
1.22756
-2.05505
2.11491
0.343624
-0.751251
1.72812
1.913
1.87806
-2.09439
0.38171
0.517911
0.434991
0.368458
0.759497
0.577899
1.12356
0.947033
1.39171
1.27533
1.55143
1.48648
1.64878
1.60864
1.71048
1.68544
1.73866
1.72878
1.72512
1.73507
1.66719
1.69893
1.58971
1.62644
1.52913
1.55557
1.51803
1.51201
1.66195
1.56645
1.83643
1.76494
1.89728
1.87437
1.95909
1.92478
2.04772
2.00128
2.12322
2.0912
2.09418
2.12841
1.91269
2.01752
0.807975
0.966017
0.843013
0.877175
0.827525
0.991819
0.929496
1.13125
1.0578
1.25386
1.19898
1.31856
1.29357
1.32857
1.33084
1.29266
1.32061
1.16013
1.24816
0.779498
1.00984
0.0691502
0.464864
-0.79874
-0.371853
-1.28936
-1.13453
-0.89541
-1.1951
-0.0758185
-0.492268
0.582648
0.281214
1.01803
0.821528
1.29468
1.17545
1.43592
1.3778
1.46726
1.45978
1.41735
0.754201
0.907602
0.325304
0.550735
-0.240021
0.071049
-0.944702
-0.584723
-1.59539
-1.29125
-1.92614
-1.81928
-1.73193
-1.90299
-0.977651
-1.40961
-0.0380027
-0.50393
0.406338
0.608194
1.18702
1.75319
1.78093
-2.29792
-1.86485
0.95942
1.09079
-2.7554
-1.33086
-3.47453
-0.634419
-4.15968
0.0963001
-4.54666
0.735685
-4.07039
1.13549
-2.56277
1.90813
-0.523609
1.6061
1.50004
1.07114
1.75236
1.68852
1.88054
1.83808
0.710879
1.60586
1.62926
-2.19983
0.721042
0.831161
0.748095
0.70628
0.956045
0.834875
1.21546
1.08462
1.41904
1.32645
1.55346
1.49679
1.64419
1.60697
1.70326
1.67767
1.73092
1.71971
1.73879
1.73515
1.73369
1.73597
1.71973
1.72683
1.70529
1.71004
1.73835
1.7114
1.86341
1.78877
1.98822
1.93816
2.01496
2.00948
2.03014
2.0205
2.07144
2.04789
2.11373
2.09821
2.07269
2.10751
1.92219
2.00724
1.69574
1.8186
1.28643
1.47175
1.0778
1.14771
1.11375
1.07485
1.18298
1.15206
1.25141
1.21462
1.31307
1.28399
1.36262
1.34126
1.38179
1.37754
1.35299
1.37502
1.258
1.31908
1.00276
1.15898
0.535641
0.79195
0.0109132
0.262108
-0.242319
-0.172639
-0.0278018
-0.18879
0.421829
0.18593
0.832624
0.638283
1.13147
0.995189
1.33711
1.2462
1.43967
1.40147
1.42962
1.45274
1.34078
1.40969
1.2455
0.34147
0.558322
-0.134743
0.104595
-0.654946
-0.390155
-1.1237
-0.900857
-1.41184
-1.3001
-1.37027
-1.44372
-0.944586
-1.19891
-0.228495
-0.613238
0.526838
0.16246
1.12062
0.860152
1.20454
1.19911
-2.81263
-2.01147
1.57011
1.47818
1.19971
1.3195
1.28795
1.73482
1.63787
-3.80797
-1.49158
-5.0631
-0.767781
-6.13003
0.0522133
-6.38871
0.649704
-5.13652
1.24185
-2.52684
1.7366
0.113865
1.47886
2.02789
1.93913
1.96549
2.10089
1.62336
1.5061
2.10836
1.39244
1.07782
1.3995
-2.5463
1.05867
1.12536
0.929756
0.994842
0.932991
0.914546
1.07072
0.993539
1.26162
1.16522
1.42809
1.34839
1.54983
1.49286
1.63946
1.59781
1.70408
1.67452
1.74676
1.72704
1.7687
1.75961
1.76841
1.76996
1.76639
1.76499
1.79552
1.77581
1.86781
1.82733
1.97011
1.9179
2.05257
2.01931
2.0687
2.06638
2.07227
2.06949
2.08855
2.07914
2.10278
2.09951
2.05392
2.08895
1.92466
1.99752
1.83564
1.72865
1.85321
1.45803
1.58495
1.30582
1.36359
1.25896
1.2739
1.26746
1.25728
1.32461
1.29017
1.38776
1.36004
1.41788
1.40712
1.42072
1.42303
1.39062
1.41354
1.31059
1.35987
1.12993
1.23832
0.838894
0.992688
0.570435
0.690687
0.455744
0.489496
0.54017
0.471615
0.761503
0.636456
1.01255
0.890295
1.2076
1.11719
1.34599
1.28361
1.41689
1.39305
1.40643
1.43101
1.30113
1.37839
1.2154
0.393404
0.556413
-0.130884
0.151443
-0.725868
-0.429207
-1.18311
-0.984751
-1.3791
-1.31256
-1.28799
-1.37239
-0.912153
-1.13798
-0.287847
-0.618882
0.384098
0.0514464
0.959038
0.696712
1.2997
1.16384
1.36423
1.42735
1.3668
1.46757
1.55577
-3.71656
-2.40291
-5.4023
-1.82638
-7.28886
-0.968361
1.35759
-8.52906
-0.0213689
-8.00543
0.520135
-5.26088
1.21391
1.93062
1.80614
1.71448
1.8326
-1.65279
1.45589
2.08891
1.03335
1.3376
2.25599
2.10913
1.21579
1.42373
0.691407
0.509431
1.38124
1.48554
0.636531
-3.20186
1.20582
1.3467
1.27469
1.10736
1.14943
1.04441
1.07009
1.04842
1.03439
1.14473
1.08807
1.28907
1.21403
1.42714
1.35827
1.53698
1.48339
1.62156
1.58161
1.68478
1.65537
1.72965
1.70942
1.76263
1.74722
1.79035
1.77616
1.81867
1.8041
1.85477
1.83469
1.91932
1.88269
2.01005
1.96366
2.0767
2.0505
2.08775
2.08686
2.08556
2.0861
2.09089
2.08735
2.08844
2.09325
2.0375
2.07072
1.93082
1.9902
1.77653
1.85801
1.62899
1.69685
1.42234
1.53041
1.57376
1.84039
1.84768
1.7363
1.79594
1.55218
1.64706
1.39365
1.46263
1.3472
1.3557
1.36493
1.35615
1.38769
1.37451
1.4155
1.40254
1.43174
1.42534
1.43014
1.43337
1.40101
1.41882
1.33178
1.37309
1.19581
1.27335
1.01588
1.10526
0.895097
0.944898
0.84456
0.864352
0.869003
0.846907
0.970474
0.910327
1.11971
1.04437
1.25287
1.18985
1.34489
1.30278
1.38764
1.37336
1.36672
1.38681
1.26917
1.32699
1.06075
1.17925
0.921551
0.00376817
0.28708
-0.721645
-0.347509
-1.44348
-1.09537
-1.81916
-1.69307
-1.71758
-1.82383
-1.23286
-1.51553
-0.540298
-0.902588
0.22329
-0.159226
0.883233
0.57837
1.31253
1.13451
1.47179
1.41516
1.48334
1.49506
1.45648
-5.09056
-3.03993
1.49854
1.62678
1.61631
-7.57595
-2.23681
1.23649
-9.89983
-1.13165
-10.598
-0.119592
1.24767
1.57139
1.51126
1.35656
1.37951
-8.33855
0.394745
1.65773
-4.01364
1.15611
1.35441
1.28558
1.98769
-0.103544
1.13164
2.28321
1.91581
1.09747
2.41168
1.31494
1.39497
1.34897
1.47288
0.784309
0.665707
1.42051
-4.20601
1.21361
1.26415
1.14385
1.17409
1.10786
1.11884
1.12187
1.10632
1.1949
1.15183
1.30788
1.24939
1.42464
1.36651
1.52526
1.4761
1.60731
1.56806
1.6727
1.64264
1.72288
1.69993
1.76063
1.74336
1.79066
1.7757
1.82606
1.80656
1.87968
1.8501
1.9488
1.91315
2.01977
1.98467
2.07081
2.04984
2.08602
2.08187
2.085
2.0862
2.08235
2.0835
2.07177
2.07989
2.02519
2.05421
1.93532
1.98492
1.81427
1.87722
1.69746
1.75209
1.6547
1.70716
1.63111
1.75947
1.74718
1.69337
1.74382
1.56681
1.63472
1.46697
1.50869
1.42237
1.43974
1.4049
1.41171
1.41117
1.40439
1.43278
1.42243
1.44195
1.43911
1.43468
1.43961
1.40411
1.4265
1.34319
1.37726
1.24349
1.29718
1.13447
1.18512
1.08097
1.10055
1.05443
1.06783
1.03934
1.04542
1.09669
1.06725
1.18055
1.13976
1.26498
1.22659
1.32628
1.29822
1.34943
1.33838
1.32141
1.33252
1.22554
1.26634
1.04253
1.14128
0.932625
0.267366
0.600477
0.492517
-0.411089
-0.0441284
-1.35994
-0.860801
-2.27168
-1.85181
-2.57311
-2.52103
-2.14311
-2.43689
-1.25909
-1.73808
-0.25121
-0.751797
0.630464
0.214679
1.24981
0.981097
1.57105
1.44399
1.63371
1.62546
1.59074
1.61807
1.5388
1.46604
1.61786
-6.90803
-3.81311
0.976228
-10.0104
-2.5631
1.18379
1.21344
1.06812
1.00139
-12.0466
-1.19177
1.06487
1.1591
-11.1295
-0.225035
1.41795
-6.69579
0.277261
1.27609
1.11425
1.78291
-1.69444
1.03179
1.16783
2.20209
1.46135
0.781348
2.52483
2.50053
1.36194
0.638029
1.44116
1.62597
-5.49015
1.27819
1.31516
1.30369
1.21404
1.24601
1.16766
1.18696
1.148
1.15222
1.16875
1.1516
1.23087
1.19467
1.32283
1.27497
1.42248
1.37279
1.51388
1.46913
1.59178
1.55423
1.65585
1.62517
1.70872
1.68396
1.75319
1.73222
1.79364
1.77356
1.83461
1.81364
1.88235
1.85661
1.94494
1.91221
2.01262
1.98036
2.05669
2.0388
2.07204
2.06683
2.07396
2.07401
2.06953
2.07237
2.05506
2.06448
2.01488
2.03872
1.94204
1.98216
1.84849
1.89651
1.7602
1.80111
1.71584
1.72999
1.73919
1.71921
1.65313
1.81579
1.77077
1.47216
1.35052
1.63377
1.56809
1.68971
1.67362
1.65554
1.68185
1.58255
1.62242
1.49855
1.53952
1.44666
1.46663
1.43232
1.43625
1.43437
1.43208
1.44291
1.43905
1.44284
1.44423
1.42729
1.43732
1.3983
1.40635
1.35163
1.3779
1.28186
1.31766
1.2171
1.24468
1.18783
1.1973
1.16685
1.17597
1.14995
1.15514
1.17025
1.15744
1.21499
1.19401
1.26338
1.24389
1.29558
1.28404
1.29789
1.30008
1.25748
1.28322
1.15908
1.22376
1.01232
1.10752
0.831714
0.932183
0.720307
-0.0214016
0.252429
-0.868159
-0.403783
-2.06804
-1.42688
-3.16486
-2.68381
-3.37236
-3.40169
-2.61298
-3.09246
-1.34417
-2.00692
-0.061562
-0.681712
0.936524
0.483455
1.55041
1.29399
1.78611
1.70618
1.76516
1.79854
1.66861
1.71468
1.50982
1.60173
1.36909
1.43581
0.785227
-8.86947
-4.48371
1.31567
0.260132
0.9203
0.819413
-11.8618
-2.67702
1.87638
1.72401
0.783769
0.930084
-12.4708
-1.19207
1.45445
1.14463
-9.29841
-0.371771
1.21758
0.876491
1.49193
-3.80722
0.16788
1.04289
1.98366
0.679604
0.66247
0.945169
2.47983
2.53536
0.4254
2.74815
1.95526
2.05028
2.09967
0.785613
0.683434
-6.79042
1.278
1.24378
1.27901
1.24079
1.25945
1.20458
1.21909
1.18022
1.18916
1.17478
1.17362
1.19925
1.18207
1.2551
1.2234
1.33364
1.29308
1.42078
1.37753
1.50411
1.46347
1.57812
1.54237
1.64112
1.61109
1.69461
1.66924
1.7407
1.71866
1.78404
1.76232
1.83046
1.80639
1.88283
1.85562
1.93891
1.91038
1.99307
1.96636
2.03381
2.01613
2.0534
2.04599
2.05748
2.05682
2.0532
2.05626
2.03927
2.04785
2.00612
2.02558
1.94946
1.98043
1.87892
1.91466
1.81529
1.84386
1.79355
1.7975
1.83422
1.80575
1.92831
1.87614
1.98716
1.01164
0.810222
0.900658
1.24361
1.12615
1.44741
1.35264
1.57712
1.52296
1.62701
1.61091
1.62303
1.63183
1.56867
1.60173
1.50302
1.53333
1.46625
1.48135
1.44838
1.45594
1.44106
1.44341
1.44163
1.44105
1.43762
1.44068
1.42132
1.43101
1.3956
1.40806
1.35749
1.37835
1.30745
1.33292
1.26547
1.28346
1.24341
1.25206
1.22431
1.23346
1.20734
1.21403
1.20777
1.20535
1.22714
1.21696
1.25217
1.24101
1.26561
1.26182
1.25395
1.26379
1.20777
1.23619
1.11789
1.16936
0.990564
1.05847
0.828855
0.907769
0.61856
0.725375
-0.27626
0.032133
-1.27177
-0.712961
-2.70682
-1.94409
-3.95292
-3.4202
-4.1087
-4.19601
-3.05279
-3.70339
-1.4366
-2.26353
0.0722415
-0.643114
1.15794
0.678663
1.74132
1.50701
1.91926
1.86952
1.86134
1.91114
1.71501
1.78771
1.522
1.62953
1.36164
1.43509
1.30064
0.653461
-10.3151
-4.65751
2.03072
2.0869
2.14375
0.471763
1.18712
1.83618
0.478459
0.703428
-12.0361
-2.63377
1.53837
0.856708
-10.5853
-1.19467
1.22232
0.542231
1.14978
-6.13542
-0.642755
0.946437
1.61339
-0.895417
0.0202642
0.632571
0.751638
2.24738
2.33676
-0.000410165
2.75907
3.03997
0.776867
0.439467
0.519859
-7.68606
1.22772
1.22686
1.20964
1.21828
1.19167
1.19792
1.18262
1.18464
1.1893
1.18364
1.21835
1.20118
1.27111
1.24252
1.34107
1.30538
1.4187
1.3802
1.4952
1.45788
1.56511
1.53127
1.62677
1.5967
1.68095
1.6548
1.72878
1.70552
1.77383
1.75144
1.8193
1.79608
1.86956
1.8435
1.92268
1.8961
1.97325
1.94944
2.00894
1.99325
2.02945
2.02095
2.03809
2.03508
2.03648
2.03867
2.02437
2.03166
1.99884
2.01367
1.95724
1.97976
1.90624
1.93225
1.86577
1.88228
1.86425
1.859
1.91316
1.88181
2.00953
1.95775
2.10622
2.06102
2.05343
2.14156
2.21708
2.14974
1.07987
0.934112
0.9952
1.26894
1.17456
1.43219
1.35653
1.53267
1.49062
1.58093
1.5615
1.58537
1.58942
1.5469
1.56951
1.50365
1.52418
1.47072
1.48606
1.45009
1.45884
1.44068
1.4443
1.43708
1.43846
1.42986
1.43419
1.4141
1.42283
1.3909
1.40308
1.35918
1.37607
1.32164
1.34035
1.29131
1.3047
1.27149
1.28065
1.25067
1.26222
1.23133
1.2414
1.2233
1.22672
1.22975
1.22572
1.23815
1.23295
1.23523
1.2363
1.21082
1.22532
1.15966
1.18999
1.07552
1.12194
0.958345
1.01776
0.809062
0.88294
0.629798
0.723199
0.172524
0.361773
-0.420247
-0.079544
-1.57814
-0.921417
-3.21244
-2.36009
-4.55263
-3.99061
-4.64369
-4.78739
-3.35735
-4.13638
-1.49421
-2.43642
0.164785
-0.612143
1.31355
0.809889
1.90017
1.67107
2.01716
2.00677
1.89336
1.97064
1.71225
1.80157
1.51761
1.62118
1.34502
1.42829
1.26763
1.96718
0.053227
0.487017
-10.1829
-4.68003
1.11808
0.911388
1.68939
0.566358
-10.217
-2.46156
1.02252
2.25218
2.32434
1.31896
0.635736
0.454852
0.167055
0.779399
-7.435
-1.33884
0.933496
1.15323
-3.03133
-1.01911
0.258552
0.597101
1.78407
1.17037
-0.353283
0.381307
2.54104
3.18566
-0.691993
1.99349
2.10035
3.14741
2.20865
0.20171
0.301824
-7.43911
1.17965
1.16143
1.1808
1.18373
1.17728
1.17786
1.18076
1.17766
1.19661
1.18745
1.22971
1.21183
1.28063
1.25379
1.34527
1.31233
1.41625
1.38087
1.4871
1.45221
1.55324
1.521
1.61297
1.58374
1.66671
1.64048
1.7151
1.69136
1.76132
1.73829
1.80734
1.78417
1.85506
1.83088
1.90357
1.87927
1.94953
1.9275
1.98466
1.96884
2.00576
1.99701
2.01616
2.01197
2.01861
2.01853
2.0109
2.01603
1.99259
2.00293
1.96454
1.97968
1.93055
1.94768
1.90982
1.91663
1.92504
1.91248
1.97926
1.94595
2.07243
2.02307
2.15809
2.11848
2.2771
2.20135
0.931615
0.803394
1.04269
1.03496
1.02323
1.14521
1.08099
1.29202
1.2176
1.42116
1.36129
1.50115
1.46745
1.5407
1.52479
1.54915
1.54914
1.52683
1.54106
1.49283
1.50977
1.46505
1.47799
1.44609
1.45449
1.43494
1.43963
1.42837
1.43124
1.41907
1.42412
1.40413
1.41214
1.38337
1.39433
1.35673
1.37071
1.32751
1.34213
1.30207
1.314
1.28217
1.29217
1.26096
1.27253
1.24125
1.25173
1.22793
1.23422
1.22176
1.22367
1.21657
1.21779
1.20289
1.20958
1.17162
1.18903
1.11776
1.14768
1.0357
1.0796
0.925479
0.982141
0.789333
0.859265
0.638163
0.718315
0.509858
0.580047
0.197432
0.418226
0.366924
-0.443278
-0.0671731
-1.7392
-1.00322
-3.45482
-2.58101
-4.77807
-4.2284
-4.82853
-4.99449
-3.45935
-4.28485
-1.49012
-2.4833
0.234088
-0.5685
1.39004
0.889903
1.96457
1.73701
2.0638
2.0637
1.91095
2.00593
1.6906
1.79806
1.49491
1.59217
1.31681
1.40849
1.12596
1.21757
1.06939
1.85811
0.288138
-8.61914
-4.14423
1.06039
2.37382
0.435547
1.49645
2.01288
1.87539
0.722484
0.535397
-0.424561
0.396909
-7.44553
-2.36272
1.04058
0.672714
-4.55121
-1.76748
-0.178932
2.14624
0.565308
1.18266
-0.850152
-1.41858
0.186643
2.00669
2.37811
-1.09597
-0.0385772
2.92587
3.48771
2.39394
-0.106781
0.209547
-0.102623
2.34462
0.0419613
-6.32244
1.12805
1.09709
1.15111
1.14285
1.1606
1.15537
1.1748
1.16651
1.19879
1.18575
1.23596
1.21634
1.28609
1.26012
1.3466
1.3158
1.4126
1.37963
1.47895
1.44616
1.54197
1.51116
1.59995
1.5715
1.65282
1.62694
1.70116
1.67736
1.74706
1.72423
1.79248
1.76967
1.83862
1.81544
1.88409
1.86152
1.92566
1.90613
1.95901
1.94352
1.98205
1.97196
1.99501
1.9897
1.99985
1.99837
1.99695
1.99946
1.98658
1.99267
1.97005
1.97902
1.95091
1.96003
1.94727
1.94588
1.97282
1.95634
2.03243
1.99771
2.12306
2.07584
2.20675
2.1662
2.32724
2.25623
2.47822
2.50616
2.41235
2.44535
0.988963
0.869892
1.13517
1.17509
1.08948
1.12525
1.1179
1.20143
1.15567
1.31219
1.25585
1.41363
1.366
1.47732
1.45091
1.50765
1.49509
1.5188
1.51602
1.50385
1.51445
1.47697
1.49029
1.4549
1.46537
1.43694
1.44532
1.42491
1.42995
1.41648
1.42044
1.40623
1.41156
1.39219
1.39965
1.37385
1.38364
1.3509
1.36282
1.32629
1.33864
1.30362
1.31459
1.28388
1.29423
1.26231
1.27423
1.24044
1.25169
1.22271
1.2309
1.20864
1.21421
1.19444
1.20071
1.17221
1.18434
1.13537
1.1562
1.07941
1.10972
0.999424
1.04132
0.895331
0.94923
0.772337
0.835705
0.64384
0.710049
0.516831
0.583224
0.449612
0.355962
0.396546
0.373879
0.2153
0.331003
-0.381393
-0.0031734
-1.69603
-0.931047
-3.34495
-2.50906
-4.62147
-4.08715
-4.66707
-4.83434
-3.31789
-4.12853
-1.41094
-2.37224
0.271887
-0.514268
1.42005
0.919035
1.98543
1.77184
2.0657
2.07428
1.89971
1.99752
1.67699
1.78705
1.46941
1.57192
1.27968
1.37693
1.08747
1.17509
0.985067
1.0308
1.69969
0.316325
-0.499209
-0.329568
0.0311961
-1.35908
-0.481693
0.0214269
-6.49494
-3.64177
1.24053
0.156286
-5.08564
-2.50614
2.5892
2.60556
-1.00358
2.3029
2.53516
2.50389
1.21408
1.24768
0.362994
0.414657
0.37338
0.941447
0.947242
0.898042
0.668882
0.58791
-2.68422
-2.50177
1.70728
1.88473
0.095307
1.2202
0.507074
-2.12402
-0.590699
-0.330267
-1.01839
-0.797427
2.29968
3.14902
-2.04302
3.29167
-0.286234
-5.04738
1.0163
0.980201
1.07966
1.04957
1.11817
1.1023
1.14228
1.13071
1.16627
1.15361
1.19698
1.18067
1.23746
1.21622
1.28794
1.26192
1.34603
1.31655
1.40833
1.37717
1.47098
1.43993
1.53117
1.50158
1.58746
1.5598
1.63931
1.6139
1.68729
1.6636
1.73268
1.71018
1.77684
1.75476
1.82069
1.7988
1.86324
1.84221
1.9024
1.88299
1.93454
1.9196
1.95786
1.94723
1.97388
1.96683
1.982
1.97896
1.98372
1.98348
1.98109
1.98294
1.97437
1.9782
1.96839
1.97042
1.97888
1.97089
2.01158
1.99236
2.07521
2.0389
2.16363
2.11833
2.25323
2.20801
2.37223
2.30676
2.5315
2.4476
2.5662
0.839311
0.487967
0.674038
1.06972
0.961868
1.23038
1.15813
1.19934
1.19697
1.25396
1.2202
1.33171
1.29118
1.40848
1.37189
1.45795
1.43741
1.48181
1.47175
1.49121
1.48872
1.48042
1.48823
1.45906
1.46987
1.44051
1.44937
1.42396
1.43186
1.41176
1.41705
1.40249
1.40689
1.39208
1.39752
1.37879
1.38581
1.3622
1.3711
1.34214
1.35249
1.32095
1.33159
1.30012
1.31059
1.27956
1.29039
1.25688
1.26901
1.23402
1.24542
1.21327
1.22301
1.19344
1.20247
1.17197
1.18266
1.14334
1.15899
1.10228
1.12491
1.0446
1.07534
0.9665
1.00737
0.868695
0.919472
0.756995
0.814186
0.639101
0.69883
0.519496
0.57887
0.463886
0.315225
0.343246
0.197958
0.283653
-0.293226
0.0389245
-1.43663
-0.79639
-2.90435
-2.16384
-4.05315
-3.56887
-4.10626
-4.24733
-2.94835
-3.64536
-1.26632
-2.1227
0.272301
-0.451935
1.34728
0.875531
1.89479
1.68368
2.01691
1.99877
1.88185
1.96787
1.66487
1.77477
1.43951
1.55353
1.23755
1.33495
1.06244
1.14161
1.00064
1.48936
0.249959
-0.978482
-0.328963
-4.85626
-3.47929
2.62027
-2.16336
2.47526
1.29344
0.42234
0.376254
0.896813
0.851201
0.886077
-0.0673582
-3.68097
-3.09154
2.05516
0.165754
0.411605
-1.49158
-3.59243
1.49276
1.72178
-1.59786
-0.519502
-1.69904
-1.39605
1.25582
1.53156
-3.5376
-1.02501
2.74056
3.58309
-0.0456345
-0.430254
-0.721102
-4.28227
0.976976
0.938838
1.04094
1.01149
1.08705
1.06553
1.12239
1.10538
1.15565
1.13879
1.19256
1.17338
1.23614
1.21357
1.28692
1.26083
1.34345
1.31479
1.40317
1.37323
1.46313
1.43336
1.52092
1.49243
1.57544
1.54865
1.62615
1.60127
1.67338
1.6501
1.71801
1.69592
1.76101
1.73962
1.80283
1.78207
1.84278
1.82307
1.87975
1.86165
1.91107
1.89632
1.9349
1.92387
1.95262
1.9445
1.96413
1.95917
1.97079
1.96791
1.97491
1.9731
1.97707
1.97617
1.98286
1.97868
2.00461
1.99142
2.04457
2.02222
2.11013
2.07367
2.19761
2.15243
2.29379
2.24437
2.4107
2.34903
2.55654
2.48049
2.71222
2.72196
2.63827
2.69306
2.70404
2.671
2.69219
-3.20539
2.6445
2.65486
0.965837
0.691154
0.837169
1.16187
1.07057
1.28851
1.23802
1.34955
1.39783
1.3476
1.28078
1.30986
1.2621
1.26434
1.2954
1.2737
1.34978
1.32146
1.40485
1.37831
1.44279
1.42676
1.46031
1.45334
1.46608
1.46463
1.45761
1.46375
1.43971
1.44888
1.42355
1.4313
1.40859
1.41581
1.3964
1.40191
1.38698
1.3915
1.37658
1.38207
1.36402
1.37058
1.34939
1.35706
1.33176
1.34082
1.3125
1.32231
1.2924
1.30269
1.27159
1.28249
1.2487
1.26061
1.22465
1.23661
1.2007
1.21235
1.1764
1.18828
1.14981
1.16361
1.11673
1.13457
1.07254
1.0962
1.01332
1.04446
0.936872
0.97689
0.844589
0.892644
0.740277
0.793576
0.630036
0.685559
0.521716
0.574154
0.472201
0.332782
0.334731
0.335373
0.299916
0.32265
0.200944
0.265304
-0.154576
0.0860577
-1.0249
-0.534992
-2.21567
-1.60585
-3.20931
-2.78225
-3.32727
-3.40374
-2.44979
-2.98866
-1.07999
-1.78766
0.238495
-0.390082
1.21436
0.778497
1.74637
1.53617
1.88926
1.85574
1.80945
1.86657
1.62895
1.72602
1.40117
1.51963
1.19207
1.28871
1.03282
1.10612
0.906516
0.966374
0.802517
0.851214
1.19601
0.511891
-1.64938
-0.722959
-4.02337
-3.7351
2.23876
0.429202
-0.361685
-2.81874
-4.3928
1.91912
2.80462
2.80647
1.39886
1.44244
-2.87912
0.304202
0.334271
0.299196
0.758786
0.749463
0.704204
-0.492444
-0.874186
0.324285
-0.524052
-5.38416
1.18623
1.46967
-1.34164
-2.14118
1.71508
2.2896
-5.64377
-2.6515
-2.2529
3.00619
2.63423
2.80987
2.82068
0.292687
0.0242144
-1.28866
-4.09391
2.43764
0.855346
0.808829
0.93915
0.898637
1.00671
0.975197
1.05891
1.03474
1.10249
1.08133
1.14336
1.12299
1.18575
1.16413
1.23251
1.20858
1.28409
1.25778
1.33963
1.31154
1.39729
1.36839
1.45508
1.42634
1.51103
1.48338
1.56402
1.53794
1.61358
1.58921
1.65984
1.63709
1.70338
1.68186
1.74511
1.72441
1.78511
1.76532
1.82298
1.80432
1.85798
1.8409
1.88816
1.87379
1.91266
1.90105
1.93207
1.92302
1.94647
1.93982
1.95777
1.95235
1.96797
1.96296
1.978
1.97282
1.99422
1.98468
2.02479
2.00761
2.07177
2.046
2.13994
2.10316
2.2266
2.18144
2.32719
2.27515
2.44458
2.38366
2.58183
2.51066
2.73339
2.65669
2.80272
2.80269
2.80173
2.80553
2.80374
0.905413
0.647554
0.785543
1.10406
1.0108
1.25981
1.18579
1.36085
1.30923
1.45196
1.40889
1.33722
1.36354
1.31593
1.32119
1.33205
1.32042
1.36583
1.34778
1.40318
1.38487
1.43047
1.41884
1.44167
1.43763
1.44367
1.44364
1.43556
1.44099
1.41995
1.42804
1.40499
1.41215
1.39143
1.39803
1.37942
1.38502
1.36996
1.37452
1.36004
1.36525
1.34856
1.35451
1.3353
1.34225
1.31956
1.32776
1.30178
1.31086
1.28277
1.29258
1.26196
1.27287
1.23843
1.25055
1.21315
1.22575
1.18691
1.19993
1.15948
1.1733
1.12906
1.14494
1.0923
1.1118
1.0453
1.07008
0.985039
1.01659
0.910319
0.949398
0.822085
0.867907
0.723785
0.77379
0.61936
0.671708
0.519801
0.568689
0.423017
0.471759
0.37675
0.317979
0.310899
0.324989
0.324369
0.270261
0.305924
0.0356838
0.192303
-0.567685
-0.21977
-1.46043
-0.995802
-2.24783
-1.90484
-2.40454
-2.42082
-1.85355
-2.20436
-0.877281
-1.39267
0.145233
-0.352814
0.964459
0.590466
1.47707
1.25758
1.70263
1.62485
1.68488
1.71544
1.54307
1.62403
1.33573
1.44433
1.13752
1.23013
0.984251
1.05616
0.855064
0.91772
0.799161
0.802549
0.495711
-2.5984
-1.24604
-3.7305
-4.76977
2.12856
2.8386
2.61218
2.81049
1.49009
-4.72903
0.33189
0.292864
0.718645
0.66424
-0.230792
-0.294469
-0.713576
-2.34
-6.54469
1.69043
-1.45263
-3.32346
0.0955529
0.161396
-8.07819
-1.58569
-2.45279
1.53181
2.64345
2.87564
1.02282
0.994058
0.936297
0.6661
3.04923
3.12172
-2.07696
-4.53047
2.36838
0.818161
0.770713
0.902981
0.86213
0.975022
0.940941
1.03336
1.00561
1.08351
1.05912
1.1305
1.10721
1.17758
1.15388
1.22705
1.20196
1.27961
1.25298
1.33473
1.30694
1.39105
1.36286
1.44709
1.41921
1.50138
1.47451
1.55298
1.52753
1.60145
1.5776
1.64677
1.6245
1.6892
1.66828
1.7295
1.70958
1.76775
1.74888
1.80375
1.78601
1.83712
1.82082
1.86621
1.85225
1.89086
1.87897
1.91178
1.90182
1.92879
1.92066
1.94421
1.93653
1.96003
1.95204
1.97732
1.96825
2.00243
1.98842
2.04043
2.0198
2.0935
2.06481
2.16504
2.12711
2.25221
2.20684
2.35524
2.30164
2.47405
2.41305
2.6045
2.53755
2.74568
2.67433
2.88805
2.89017
2.81813
2.89318
2.88916
2.90326
2.89836
2.93109
2.92218
2.97036
2.94603
3.00151
1.12574
1.05882
1.24751
1.18834
1.35353
1.30326
1.43532
1.395
1.50833