/*--------------------------------*- C++ -*----------------------------------*\
  =========                 |
  \\      /  F ield         | OpenFOAM: The Open Source CFD Toolbox
   \\    /   O peration     | Website:  https://openfoam.org
    \\  /    A nd           | Version:  10
     \\/     M anipulation  |
\*---------------------------------------------------------------------------*/
FoamFile
{
    format      ascii;
    class       surfaceScalarField;
    location    "23";
    object      phi;
}
// * * * * * * * * * * * * * * * * * * * * * * * * * * * * * * * * * * * * * //

dimensions      [0 3 -1 0 0 0 0];

internalField   nonuniform List<scalar> 
12623
(
0.393699
0.0889405
-0.148458
-0.334181
0.304578
-0.130463
0.219584
0.279315
-0.0337448
-0.259829
0.0142591
-0.0572953
0.283642
0.0529678
-0.260494
0.0729096
-0.0716554
0.259239
-0.258256
-0.0595331
-0.0180664
0.188188
-0.209062
0.03894
-0.249611
0.231545
-0.171675
-0.0283666
0.200042
-0.13394
-0.0722253
0.0344896
0.387427
-0.165654
-0.221773
-0.266145
0.217382
0.43619
-0.204757
-0.147283
0.15049
0.20155
0.0189327
0.0341473
-0.257837
-0.193843
0.0654924
-0.0307383
-0.0703319
-0.00180127
0.102871
-0.0117756
-0.00170505
-0.0172576
-0.107763
0.0256556
-0.00203273
-0.0494901
0.00156776
0.0499551
-0.104942
0.0284759
0.0744332
-0.0984907
-0.0559413
0.0507122
0.109272
-0.126
-0.0339842
-0.0136931
0.061336
0.0030693
-0.214052
0.309631
-0.2737
0.0259378
0.281909
0.0409259
-0.305176
-0.00944975
-0.311211
0.0243466
0.312802
-0.265813
-0.156254
0.159892
0.262175
-0.265525
0.169184
-0.169472
-0.265925
0.250709
0.142114
-0.126898
-0.262037
-0.160142
-0.30625
0.0955335
-0.0913133
0.30203
-0.0755461
-0.293001
0.0622969
0.281006
-0.353019
0.0985497
-0.104793
0.359262
-0.0968305
-0.331148
0.0749599
-0.328456
-0.096388
0.328013
-0.311259
0.0783366
0.375141
-0.101366
-0.379302
0.105526
-0.0867731
0.116841
0.345073
-0.370325
-0.108411
0.37737
-0.352445
0.0806696
-0.110685
0.121396
0.239997
-0.237333
0.0301931
-0.0208007
0.227941
0.00386002
-0.23934
-0.00185318
-0.0329108
-0.25909
-0.242654
-0.0512039
0.234325
-0.245371
-0.00592811
-0.339898
-0.0161197
0.361946
0.260004
0.0628497
-0.328782
-0.242124
0.0648161
0.437312
-0.121542
0.381342
-0.304499
0.0446992
-0.300816
0.296714
0.0595355
-0.0665737
-0.289676
0.0640336
0.273019
-0.0403386
-0.0287499
0.017744
0.313983
-0.302977
-0.325074
0.322198
-0.0258743
0.304004
-0.0370239
0.0435346
-0.310514
0.200465
-0.18585
0.07557
-0.0901853
0.120381
0.216468
-0.136384
-0.176352
0.0214879
-0.0309859
-0.173084
-0.0363734
0.0331053
-0.175197
-0.0911572
0.0932707
-0.186414
-0.138388
0.149604
-0.195074
-0.175843
0.184504
-0.210014
-0.200717
0.215657
-0.216867
-0.217039
0.223892
-0.225571
-0.221745
0.230449
0.221138
-0.202219
0.101462
0.152258
0.235936
-0.171725
0.239168
0.134228
-0.188648
0.0619992
-0.179223
0.0120622
-0.176411
-0.0391855
-0.182058
-0.0855103
-0.190145
-0.130301
-0.204633
-0.161356
-0.214905
-0.190444
-0.228202
-0.203742
-0.233367
-0.220406
-0.16749
0.252284
0.154375
0.248978
-0.180533
-0.229842
-0.224391
0.232488
-0.2446
-0.218609
-0.17597
0.261308
0.166946
0.264533
-0.191526
-0.224028
-0.225486
0.225123
-0.244424
-0.224204
-0.177522
0.269601
0.169229
-0.178513
-0.207793
-0.220373
0.202681
-0.24738
-0.204838
0.273084
0.165701
0.165014
0.267962
-0.174167
0.168359
-0.214565
-0.17193
-0.249617
0.262184
-0.264532
0.171577
-0.247527
0.254241
0.1583
0.180359
0.25612
-0.240737
0.138993
0.158533
0.222818
-0.206564
0.085208
0.116309
0.195185
-0.187983
0.00486025
0.0506197
0.190142
-0.194707
-0.0809452
-0.037026
0.207591
-0.218475
-0.150471
-0.117417
0.236786
-0.24856
-0.191968
-0.172134
0.264033
-0.270278
-0.212363
-0.204933
0.280172
-0.280954
-0.204055
-0.214311
-0.286099
-0.166786
-0.212979
0.223402
0.214701
0.209704
0.161072
-0.202417
0.199405
-0.220984
0.221452
0.22998
0.234906
-0.209621
0.205265
0.220013
0.235723
-0.190784
0.185671
0.154717
0.198985
-0.182046
0.185032
0.0301194
0.0968951
-0.200057
0.206878
-0.097007
-0.0460102
-0.228662
0.229976
-0.173039
-0.158168
-0.248458
0.249233
-0.1923
-0.199015
-0.264702
-0.166806
-0.193983
-0.149198
0.152454
0.264706
0.255091
0.166027
0.240668
0.107397
-0.290907
-0.102588
0.106391
-0.248611
-0.201227
0.214254
0.148045
0.105343
-0.108281
-0.199479
-0.194372
0.0984878
-0.0176771
0.0211005
-0.294331
-0.337152
0.327317
-0.0927532
-0.00868791
-0.346142
0.250395
-0.250366
-0.126927
0.264986
-0.274178
0.167492
0.267918
0.163095
0.23639
-0.0966797
-0.216455
0.264367
-0.257579
0.164789
0.170547
0.248217
-0.236739
0.127515
0.149171
0.225655
-0.211585
0.071138
0.105225
0.201937
-0.199434
0.00235764
0.0409716
0.201503
-0.20904
-0.0734087
-0.034957
0.2197
-0.2346
-0.135571
-0.106757
0.250472
-0.267659
-0.174781
-0.156262
0.283549
-0.297145
-0.198768
-0.189043
0.308837
-0.319462
-0.19343
-0.202618
-0.158931
-0.23031
0.237736
0.207274
0.18335
-0.246669
0.243005
0.233645
0.225973
-0.24083
0.225831
0.235012
0.237897
-0.222393
0.207425
0.169685
0.202423
-0.204378
0.204858
0.0296398
0.0999423
-0.202991
0.221075
-0.11509
-0.0441435
-0.218821
0.23911
-0.193328
-0.155915
-0.237746
0.241867
-0.196422
-0.197651
-0.240795
0.259213
-0.185223
-0.192911
-0.151295
-0.13146
0.164645
0.231521
0.245028
-0.156392
0.2698
0.15451
0.24892
-0.0322398
0.0298827
-0.192015
-0.0294961
-0.202222
0.0245488
-0.252059
-0.383636
0.368315
-0.0774319
-0.389794
-0.00253025
-0.0751102
0.0809194
-0.351951
-0.0676848
-0.301756
-0.192992
0.197131
0.0257441
-0.0416617
0.0483958
-0.198749
-0.198772
-0.0358823
-0.0749285
0.100001
0.214924
0.221976
-0.0605149
0.106615
-0.115427
0.278611
0.298495
-0.290734
0.146749
0.310915
0.0941951
-0.249068
-0.0849006
0.237288
-0.241674
-0.13432
-0.221402
0.281869
-0.277603
0.163225
0.154231
0.273868
-0.265679
0.1566
0.166812
0.258805
-0.248613
0.117324
0.142297
0.233413
-0.226718
0.0644425
0.0900246
0.218097
-0.215408
-0.000330785
0.0323503
0.216931
-0.222096
-0.0682445
-0.0334338
0.234167
-0.24677
-0.122968
-0.0946863
0.264887
-0.280647
-0.15902
-0.138145
0.303122
-0.318406
-0.183484
-0.166568
0.338133
-0.351329
-0.180234
-0.182892
-0.141945
-0.211221
0.225529
0.133736
0.0843979
-0.240272
0.252136
0.19541
0.168607
-0.265272
0.261046
0.237871
0.212837
-0.266345
0.25883
0.242527
0.232598
-0.252722
0.245498
0.17691
0.208531
-0.239503
0.235286
0.0338565
0.105938
-0.235535
0.238856
-0.118411
-0.0443929
-0.243287
0.248179
-0.19822
-0.160346
-0.24525
0.251983
-0.203155
-0.194723
-0.244363
0.236198
-0.177058
-0.185291
-0.156772
-0.116187
0.119824
0.227884
0.228842
0.253317
-0.396518
0.087643
0.0558586
-0.209685
-0.0614523
-0.258291
0.107088
-0.0966474
-0.209212
0.119245
-0.210906
-0.153864
0.153443
-0.351529
-0.147921
-0.3077
0.0687315
-0.0746636
0.284543
0.0555978
0.324049
-0.0449558
0.0665022
0.193378
-0.0305665
0.207587
0.227033
-0.238004
-0.12335
-0.0907177
0.23285
0.331519
-0.315336
0.130566
0.34311
0.0826041
-0.401796
0.158721
-0.207482
0.196198
-0.390512
-0.211313
-0.347699
0.225975
-0.0492011
-0.226996
0.307348
-0.306448
0.162326
0.146243
0.295547
-0.286868
0.147921
0.155911
0.268651
-0.258188
0.106861
0.124081
0.247707
-0.238496
0.0552316
0.0795431
0.232301
-0.229182
-0.00344944
0.0261554
0.230747
-0.237261
-0.0617308
-0.0318689
0.248223
-0.262819
-0.108372
-0.0837242
0.279468
-0.298608
-0.139881
-0.121496
0.31806
-0.338716
-0.162828
-0.147115
0.359747
-0.380909
-0.159072
-0.16186
0.397624
-0.406012
-0.0690438
-0.12523
0.415068
-0.421251
0.0938251
0.00652595
0.415515
-0.406444
0.187127
0.152986
-0.204843
0.209286
0.0213006
0.205197
-0.214539
-0.0873057
-0.035528
-0.221466
0.239095
0.116107
0.0722181
-0.257313
0.265696
0.187027
0.150389
-0.278893
0.286861
0.229903
0.19964
-0.291267
0.292692
0.241103
0.228192
-0.291603
0.288549
0.179964
0.20962
-0.284861
0.281356
0.0373619
0.109625
-0.279612
0.278131
-0.116931
-0.0426485
-0.276272
0.272965
-0.194913
-0.158486
-0.27111
0.260104
-0.192149
-0.192867
-0.253781
0.242817
-0.166094
-0.178968
-0.151959
-0.0842906
0.0823282
0.229846
0.211054
0.260982
-0.144717
0.159362
-0.223857
-0.230972
-0.128284
0.218875
-0.227752
-0.381635
-0.384137
0.196568
0.130187
-0.220627
-0.140758
-0.265454
0.0535648
0.345143
-0.0133424
0.208751
0.241008
-0.244762
-0.119596
0.235393
-0.085102
0.174401
-0.225945
-0.208499
-0.310513
0.170381
-0.150974
-0.25038
0.190368
-0.243843
-0.239004
-0.336446
0.20123
-0.229696
-0.353169
0.184774
-0.367681
0.232132
-0.0484828
-0.237568
0.369853
-0.354063
0.114776
-0.367212
0.375801
0.0449758
0.0852443
0.349523
-0.332801
0.145604
0.141703
0.317953
-0.301841
0.131808
0.141064
0.287021
-0.273203
0.0930431
0.109261
0.261078
-0.251447
0.0456003
0.0674183
0.244794
-0.242579
-0.00566369
0.019502
0.244671
-0.251892
-0.0545094
-0.0297774
0.262728
-0.278143
-0.0929558
-0.0728888
0.295694
-0.315536
-0.12004
-0.103945
0.335175
-0.356467
-0.141537
-0.127475
0.378513
-0.400702
-0.136883
-0.139814
0.419832
-0.429103
-0.0597727
-0.106099
0.434033
-0.426658
0.0864506
0.0114551
0.416076
-0.401631
0.172682
0.142404
0.382933
-0.359937
0.161778
0.177871
-0.224104
0.216747
-0.0799482
0.240525
-0.262105
-0.129394
-0.111863
-0.215861
0.224326
0.0128354
-0.0346423
-0.237689
0.249569
0.104227
0.0588553
-0.267472
0.283997
0.170502
0.132486
-0.298306
0.311322
0.216886
0.185331
-0.321525
0.329656
0.232971
0.217989
-0.334588
0.336411
0.178141
0.204688
-0.335106
0.331079
0.0413881
0.11093
-0.326868
0.320596
-0.110659
-0.0384368
-0.312932
0.303121
-0.185101
-0.150822
-0.290247
0.281918
-0.18382
-0.179993
-0.268419
0.256314
-0.153989
-0.165469
-0.140407
-0.158927
0.181205
-0.272657
-0.283922
-0.13711
0.160128
-0.190576
-0.337233
-0.337097
0.137288
0.222649
-0.0524299
0.00672588
0.00326467
0.19876
0.208575
-0.0235216
0.0224078
0.194492
0.18733
-0.029308
0.032228
0.226927
0.204153
-0.0313247
0.0260895
0.289778
0.261885
-0.0204638
0.0168724
0.348735
0.329675
0.0158824
0.376791
0.186731
-0.232957
-0.198511
-0.275442
0.203947
-0.239523
-0.237866
-0.311651
0.198169
-0.260808
-0.236821
-0.329321
0.161604
-0.140974
-0.304552
0.180221
-0.291273
-0.209811
-0.333934
-0.134999
0.115311
-0.31741
-0.164674
-0.307558
0.392896
-0.39075
0.0428298
0.395006
0.0137723
-0.249348
0.385081
-0.377697
0.107392
0.0795749
0.36496
-0.352803
0.133446
0.128966
0.333326
-0.314946
0.113427
0.121587
0.298438
-0.283694
0.0782998
0.092753
0.271025
-0.262209
0.0367844
0.0547492
0.256299
-0.255367
-0.006596
0.0135915
0.257578
-0.265095
-0.0469917
-0.0275662
0.275574
-0.290616
-0.0779142
-0.0624102
0.306592
-0.324489
-0.102142
-0.0879687
0.34335
-0.365127
-0.11976
-0.108615
0.38807
-0.411138
-0.113815
-0.116871
0.430841
-0.443446
-0.0471681
-0.0863961
0.445752
-0.437217
0.0779162
0.0137609
0.42
-0.401035
0.153717
0.125186
0.379216
-0.359486
0.142047
0.156052
0.339518
-0.322169
0.0979628
0.11732
-0.27329
0.253451
-0.109554
0.294047
-0.310793
-0.124229
-0.116353
-0.236707
0.22829
-0.0715315
-0.0951194
-0.228302
0.234869
0.00626852
-0.0346548
-0.248304
0.265323
0.0872077
0.0454206
-0.282383
0.300217
0.152669
0.115426
-0.316762
0.333762
0.199887
0.168786
-0.34904
0.363621
0.21839
0.202711
-0.374485
0.381657
0.170969
0.193823
-0.38349
0.380799
0.0440792
0.109098
-0.374242
0.363329
-0.0997461
-0.0318803
-0.34967
0.332938
-0.168369
-0.137163
-0.31696
0.300428
-0.167287
-0.164016
-0.281817
0.269191
-0.141363
-0.146859
-0.255888
0.243322
-0.107029
-0.127104
-0.241812
0.239666
-0.0502839
-0.0835923
-0.00755842
0.0340814
-0.0289485
0.193627
-0.0422734
0.21901
0.200382
0.0273951
-0.0252257
0.192322
0.185777
0.0230936
-0.0259413
0.229774
0.202021
0.021994
-0.0290238
0.296808
0.257938
0.0246302
-0.030898
0.355003
0.325281
-0.151273
0.167382
-0.32066
-0.326408
-0.135658
0.102576
-0.122477
-0.297509
-0.302039
0.082446
0.0254626
-0.0183274
0.387871
0.371356
0.218647
-0.247658
-0.229414
-0.283895
0.214467
-0.255821
-0.241438
-0.307035
0.198283
-0.278871
-0.225636
-0.313496
0.185224
-0.309116
-0.191635
-0.306973
0.160994
-0.142728
-0.344674
0.179459
-0.339126
-0.148134
-0.281901
-0.0894768
-0.280398
0.0678357
-0.113742
-0.273244
-0.348061
0.326368
-0.121035
-0.146068
0.168688
-0.367294
-0.366433
-0.127695
0.0606723
-0.0844891
-0.256581
-0.267818
0.284218
0.0514353
-0.252711
0.0455659
0.404691
-0.406097
-0.0169216
-0.0519335
0.0566954
0.383109
0.37638
-0.0236216
-0.260114
0.406199
-0.4116
0.0482304
0.0138739
0.406989
-0.397884
0.0982865
0.0749645
0.37994
-0.358671
0.112178
0.111022
0.340005
-0.32094
0.0943622
0.102921
0.304574
-0.290473
0.0641992
0.0763867
0.27888
-0.271529
0.0294328
0.0431563
0.26608
-0.265819
-0.0068567
0.00814293
0.267478
-0.275023
-0.0394462
-0.0259079
0.283788
-0.296282
-0.0654198
-0.0536456
0.308821
-0.324732
-0.0862308
-0.07543
0.343309
-0.365792
-0.0972771
-0.0900378
0.38885
-0.410771
-0.0918945
-0.0938128
0.42798
-0.438253
-0.0368952
-0.0691867
0.43896
-0.430559
0.0695152
0.0144682
0.416075
-0.396435
0.134077
0.110702
0.369891
-0.341917
0.114074
0.129507
0.320467
-0.3013
0.0787961
0.0958704
0.0653636
-0.308986
0.296315
-0.111559
-0.118277
-0.278727
0.261892
-0.0927186
-0.0987646
-0.244776
0.237751
-0.0645069
-0.0780032
-0.237498
0.245123
-0.00135644
-0.0344017
-0.257559
0.27458
0.0701873
0.0329843
-0.293005
0.313381
0.132293
0.0970009
-0.332937
0.353773
0.17905
0.14923
-0.373151
0.392571
0.19897
0.183333
-0.408193
0.420127
0.159035
0.178201
-0.425296
0.423417
0.0459581
0.103929
-0.414949
0.39982
-0.0846167
-0.0234124
-0.381869
0.360928
-0.147428
-0.119212
-0.34144
0.321178
-0.147025
-0.144528
-0.303133
0.286448
-0.124678
-0.128813
-0.267713
0.256738
-0.0960546
-0.10837
-0.248867
0.247141
-0.0485578
-0.0757214
-0.0195069
0.0713777
-0.0677722
0.215405
0.234047
0.0705575
-0.0731736
0.196243
0.203168
0.0745327
-0.0750741
0.192864
0.187136
0.0748966
-0.0727959
0.227674
0.201844
0.0689548
-0.0615607
0.289414
0.254097
0.0580457
-0.0582319
0.355189
0.321766
0.36982
0.227758
-0.260949
-0.23596
-0.289372
0.213179
-0.270717
-0.231456
-0.301215
0.200834
-0.294481
-0.208885
-0.296246
0.197698
-0.327355
-0.179361
-0.275746
0.192395
-0.362833
-0.137836
-0.257807
0.152069
-0.126859
-0.391643
0.178589
-0.393813
-0.104039
-0.253694
-0.0442473
-0.243522
0.0350581
-0.0650514
-0.235777
-0.380545
0.358457
-0.104771
-0.126472
0.154011
-0.419182
-0.406306
-0.10071
0.018602
-0.0255381
-0.236586
-0.266073
0.27199
0.0291407
-0.260957
0.0134861
-0.0912664
0.0924659
0.38191
-0.085412
0.370525
0.406716
-0.415706
-0.0079317
0.405256
-0.0221609
-0.268317
0.41749
-0.418495
0.0492362
0.0156571
0.411749
-0.399726
0.0862637
0.0682177
0.380081
-0.360871
0.0929678
0.0913776
0.341876
-0.324256
0.0767429
0.0839256
0.30896
-0.295891
0.0511301
0.0610902
0.285586
-0.27849
0.0223372
0.0328513
0.274094
-0.274104
-0.00684742
0.00374712
0.27692
-0.283447
-0.0329189
-0.0230913
0.29127
-0.300471
-0.0562192
-0.0458231
0.311561
-0.325445
-0.072346
-0.06434
0.342567
-0.36222
-0.0776241
-0.072916
0.383327
-0.404838
-0.0703834
-0.0727062
0.421926
-0.430088
-0.0287333
-0.0520986
0.425866
-0.410881
0.05453
0.0102463
0.390631
-0.367888
0.111334
0.090452
0.344166
-0.323976
0.0938837
0.105785
0.30323
-0.286207
0.0617731
0.0751241
0.275843
-0.275428
0.0510199
0.0549999
0.0421283
-0.336995
0.31882
-0.10286
-0.106233
-0.300642
0.288549
-0.0994657
-0.100098
-0.276719
0.264727
-0.0807261
-0.0869347
-0.252723
0.24508
-0.0568634
-0.0659996
-0.245261
0.252895
-0.00898998
-0.0345834
-0.264883
0.281123
0.0539475
0.0209958
-0.299014
0.320171
0.111137
0.0791097
-0.34179
0.365685
0.155155
0.12761
-0.388591
0.411921
0.175641
0.160427
-0.431389
0.446305
0.144119
0.158732
-0.453863
0.452773
0.0470478
0.0963714
-0.443592
0.426138
-0.0671625
-0.0142315
-0.405451
0.38118
-0.123157
-0.0985246
-0.358748
0.336892
-0.125169
-0.122097
-0.31821
0.299531
-0.105999
-0.110131
-0.283739
0.270015
-0.0823306
-0.0925781
-0.262466
0.258888
-0.0449795
-0.068172
-0.0204486
0.0906478
-0.0880906
0.256682
0.28034
0.0935309
-0.102096
0.22397
0.239487
0.106849
-0.110544
0.199939
0.20792
0.113703
-0.115906
0.195066
0.190295
0.116971
-0.115547
0.22625
0.202909
0.111444
-0.106838
0.284808
0.249994
0.103178
-0.0970531
0.349064
0.318107
0.365232
0.224092
-0.271862
-0.229741
-0.291088
0.213971
-0.283854
-0.220219
-0.28988
0.213032
-0.309815
-0.198411
-0.277196
0.213822
-0.348781
-0.166948
-0.246635
0.206539
-0.390784
-0.124508
-0.237338
0.18821
-0.428013
-0.0896572
-0.229088
0.1195
-0.091449
-0.434358
0.150373
-0.450055
-0.0361083
-0.225206
0.00185576
-0.00622285
-0.25659
0.00317029
-0.237901
0.0260079
0.293836
-0.273966
0.398788
-0.41328
0.0065602
-0.367224
0.281019
0.112213
0.00940318
0.422059
-0.416267
0.0434435
0.0244367
0.408747
-0.394073
0.0715897
0.0606977
0.378101
-0.35872
0.0735877
0.0754057
0.340618
-0.323866
0.0599908
0.0658234
0.30988
-0.297089
0.0383392
0.0471043
0.288652
-0.281793
0.015478
0.0244136
0.280185
-0.280216
-0.00681624
0.00213945
0.284658
-0.289137
-0.02844
-0.0186495
0.29664
-0.30485
-0.0480092
-0.0383193
0.316639
-0.33044
-0.0585453
-0.0525517
0.345904
-0.362848
-0.0606795
-0.057452
0.38018
-0.398135
-0.0524285
-0.0553745
0.411939
-0.418907
-0.0217653
-0.0382943
0.414649
-0.398601
0.0384824
0.00598783
0.375508
-0.351117
0.0869428
0.0673593
0.331094
-0.315089
0.0778788
0.0857625
0.304089
-0.29562
0.0533042
0.0641243
0.288652
-0.282408
0.0447755
0.0480321
0.278615
-0.275259
0.025784
0.0383357
0.270422
-0.26935
-0.0072951
0.00864931
-0.382065
0.360987
-0.0836934
0.397838
-0.422569
-0.0667182
-0.0849373
-0.342079
0.325993
-0.0867738
-0.0873247
-0.309432
0.294972
-0.0850055
-0.0835378
-0.283161
0.272627
-0.070192
-0.0751236
-0.262262
0.253035
-0.047637
-0.0556348
-0.250194
0.255708
-0.0145034
-0.0317424
-0.267319
0.284161
0.037106
0.00938463
-0.302496
0.323789
0.0898434
0.0607744
-0.345553
0.369909
0.130798
0.105847
-0.394083
0.418917
0.150806
0.136254
-0.440157
0.456784
0.127493
0.137493
-0.466092
0.466833
0.0463062
0.0870633
-0.458103
0.43974
-0.0487992
-0.00550123
-0.417289
0.391316
-0.0971841
-0.0760738
-0.36779
0.346152
-0.103531
-0.0985703
-0.328139
0.311366
-0.0892265
-0.0921183
-0.294986
0.282172
-0.0695163
-0.0761982
-0.272407
0.27106
-0.0436324
-0.0584072
-0.269689
0.27834
0.00560778
-0.0190778
0.0383068
0.104217
-0.11379
0.266255
-0.0990308
0.304673
0.285527
0.121773
-0.130949
0.233145
0.247471
0.135837
-0.139926
0.204028
0.212809
0.143589
-0.146162
0.19764
0.193957
0.147193
-0.145616
0.224674
0.203939
0.140758
-0.135169
0.279219
0.245135
0.122576
-0.109274
0.335761
0.305514
0.107325
-0.102118
0.376703
0.363283
0.131369
0.443485
0.399777
-0.0730745
0.103249
-0.464533
-0.437116
-0.0585274
-0.0218876
0.0230581
-0.25776
-0.272428
-0.0188094
0.221572
-0.279463
-0.223828
-0.287479
-0.300656
0.051694
0.22414
-0.294961
-0.215957
-0.272334
0.439528
-0.368105
0.0407899
-0.045537
0.0926171
0.396405
-0.00357509
0.397566
0.230584
-0.326578
-0.19223
-0.251913
0.230358
-0.3726
-0.152911
-0.218232
0.219046
-0.421619
-0.105474
-0.221521
0.18792
-0.46556
-0.0611694
-0.204027
0.13806
-0.484865
0.00355792
-0.225594
0.0521548
-0.0400428
-0.449228
0.0729593
-0.485337
0.0298307
-0.244673
-0.0356577
0.0428525
-0.264955
-0.0299497
-0.278136
-0.276221
0.396078
-0.409575
0.0200579
0.0373753
0.411809
-0.409671
0.0413052
0.0266703
0.399296
-0.385792
0.0580864
0.0503228
0.367279
-0.351316
0.0576247
0.0568926
0.335184
-0.32039
0.0451971
0.0496912
0.308419
-0.298648
0.0285683
0.0351324
0.29321
-0.289747
0.0120152
0.0189754
0.290668
-0.292293
-0.00519123
0.00306072
0.297038
-0.302262
-0.0232158
-0.013905
0.310067
-0.319439
-0.0386375
-0.0305136
0.329877
-0.340779
-0.0476425
-0.042114
0.350673
-0.361682
-0.0496698
-0.0475589
0.372674
-0.38525
-0.0398529
-0.0443828
0.395916
-0.403482
-0.0141991
-0.0276277
0.402807
-0.392103
0.0277784
0.00531201
0.373289
-0.35127
0.0649235
0.0485461
0.332946
-0.319775
0.0647073
0.0674388
0.310164
-0.305113
0.0482527
0.0545139
0.297885
-0.289721
0.0366124
0.0408036
0.280927
-0.274435
0.019292
0.0295412
0.273226
-0.275305
-0.00521599
0.00744005
0.277495
-0.283065
-0.0243802
-0.016619
-0.393702
0.385122
-0.0581378
0.409586
-0.422878
-0.02675
-0.0426439
-0.367553
0.357702
-0.073842
-0.0673687
-0.34527
0.337276
-0.0787796
-0.0748931
-0.326842
0.313981
-0.0721454
-0.0731035
-0.301327
0.289653
-0.058518
-0.062469
-0.279439
0.26913
-0.0373275
-0.0454214
-0.261984
0.261198
-0.0137174
-0.0245961
-0.267962
0.282247
0.0228206
0.00262046
-0.300445
0.322433
0.0678556
0.042576
-0.345014
0.369562
0.10625
0.0832654
-0.393728
0.418055
0.126479
0.112088
-0.439128
0.456592
0.110028
0.11642
-0.467214
0.469016
0.0445047
0.0764412
-0.460267
0.441863
-0.0303956
0.00324815
-0.419333
0.394491
-0.0723422
-0.0535439
-0.371931
0.351573
-0.0831722
-0.0760106
-0.334783
0.320189
-0.0746326
-0.0753287
-0.305667
0.295085
-0.0589335
-0.0616763
-0.282209
0.276766
-0.0381894
-0.0455312
-0.275601
0.283443
-0.00223441
-0.0179131
0.0210941
0.111437
-0.117073
0.310308
0.334658
0.125236
-0.138348
0.279367
0.29369
0.146367
-0.152617
0.239395
0.255489
0.157227
-0.160771
0.207572
0.217418
0.163418
-0.16464
0.198862
0.196604
0.164007
-0.161044
0.221711
0.203305
0.155256
-0.146372
0.270335
0.239347
0.134509
-0.120989
0.322241
0.293652
0.103925
-0.0931622
0.36594
0.346219
0.399232
-0.00945171
0.015031
-0.454807
-0.426046
-0.00628426
-0.0379307
0.0435836
-0.283789
-0.29095
-0.0300455
0.228316
-0.283639
-0.226232
-0.277204
0.408256
-0.391581
0.0241147
0.387157
0.0175248
0.240054
-0.304431
-0.21551
-0.249054
0.246679
-0.342899
-0.181464
-0.22336
0.242066
-0.39562
-0.128203
-0.195503
0.216728
-0.450427
-0.0734585
-0.209232
0.165487
-0.492987
-0.0145494
-0.18592
0.0952988
-0.507204
0.0493664
-0.24513
0.0206674
-0.490974
0.0503323
-0.252153
-0.018916
0.0108832
-0.418013
-0.0259324
-0.447791
0.0569104
-0.278282
-0.392546
0.394588
0.00884166
-0.0360591
-0.377802
0.0213149
-0.047771
-0.406301
-0.106507
0.357358
-0.040858
0.0500587
-0.292989
-0.0362352
-0.295573
-0.274137
0.388864
-0.396108
0.0273023
0.0346577
0.399778
-0.39379
0.0353171
0.0303402
0.384093
-0.370676
0.0446696
0.0406254
0.356894
-0.342244
0.0429743
0.0431107
0.329091
-0.317687
0.0337933
0.0365383
0.308855
-0.302585
0.0222977
0.0263009
0.298932
-0.296892
0.00997473
0.015323
0.296675
-0.297134
-0.00473203
0.00284392
0.298962
-0.301729
-0.0204494
-0.0120766
0.30619
-0.312281
-0.0325469
-0.0260526
0.319401
-0.328267
-0.0387765
-0.034994
0.337944
-0.34957
-0.0380444
-0.0378811
0.361047
-0.37268
-0.02822
-0.0329054
0.381736
-0.387823
-0.00811243
-0.0185714
0.388295
-0.382104
0.0215867
0.00578419
0.369469
-0.352757
0.0482115
0.0359119
0.337048
-0.324418
0.0520772
0.0517298
0.315584
-0.308413
0.0410821
0.0456792
0.301817
-0.294609
0.0294047
0.0342078
0.286924
-0.281654
0.0140215
0.0218563
0.277796
-0.277043
-0.00596883
0.00358187
0.279148
-0.284988
-0.0185401
-0.0145143
0.291348
-0.297574
-0.0300092
-0.0236846
-0.395618
0.391851
-0.0229831
-0.00731432
-0.386968
0.375653
-0.0468228
-0.0377614
-0.361775
0.348241
-0.0603079
-0.0534908
-0.334871
0.321834
-0.0657427
-0.0615223
-0.309869
0.300146
-0.0624232
-0.0611383
-0.292044
0.285325
-0.0517992
-0.0543663
-0.280366
0.27589
-0.0328515
-0.0404627
-0.2717
0.269096
-0.0111135
-0.0204061
-0.271118
0.27976
0.0141786
0.000598439
-0.294254
0.314412
0.0476978
0.0280824
-0.336897
0.361845
0.0813022
0.0607802
-0.38616
0.410311
0.102327
0.0877733
-0.431119
0.447848
0.0932988
0.0956127
-0.456667
0.456404
0.0447678
0.0676219
-0.447272
0.430749
-0.0138727
0.0123804
-0.411447
0.390752
-0.051647
-0.0342425
-0.371192
0.353213
-0.0651932
-0.0564503
-0.337701
0.325078
-0.0620089
-0.0598171
-0.313573
0.303252
-0.048612
-0.0501719
-0.293831
0.288138
-0.032496
-0.0361109
-0.287034
0.292022
-0.0072219
-0.0168092
-0.294193
0.314205
0.0316819
0.0189228
0.0613932
0.115317
-0.129714
0.324705
0.343468
0.144565
-0.156245
0.291046
0.308542
0.164566
-0.169906
0.244734
0.263811
0.173164
-0.174824
0.209232
0.220676
0.175291
-0.17456
0.198131
0.197071
0.172016
-0.167164
0.216859
0.200761
0.159597
-0.148653
0.25939
0.23178
0.134904
-0.121702
0.30904
0.279903
0.100395
-0.0843594
0.349904
0.324912
0.0438803
-0.0313276
0.383852
0.358753
0.0360247
-0.0684394
0.419571
0.402264
0.240192
-0.283777
-0.232658
-0.260057
0.0395139
-0.0347497
-0.302339
0.0455545
-0.301614
0.377928
-0.412412
-0.0339559
-0.0946006
0.275228
0.238944
0.330142
-0.0468148
-0.294764
0.287201
-0.0224463
-0.297192
-0.0323219
0.252069
-0.309821
-0.208074
-0.222444
0.253338
-0.35417
-0.155499
-0.196064
0.234182
-0.413074
-0.0880295
-0.180932
0.182531
-0.467471
-0.0257626
-0.198019
0.104485
-0.502174
0.0439595
-0.180513
0.0191682
-0.505705
0.0779718
-0.272769
-0.0434311
-0.473475
0.066195
-0.261438
0.0294919
-0.365655
-0.0416384
-0.357015
0.364772
0.0217341
-0.0345524
-0.347982
0.0255194
-0.354509
-0.045699
-0.0672364
-0.428325
0.0672571
-0.29548
-0.386998
-0.0609421
0.0321971
-0.0665431
0.309574
-0.335645
0.0581602
-0.0617885
0.332929
-0.266603
0.392352
-0.387749
0.0195118
-0.00253524
0.381354
-0.376843
0.0227919
0.0282626
0.37588
-0.371596
0.0310333
0.029377
0.364737
-0.355019
0.0349514
0.0337663
0.345308
-0.334517
0.0321834
0.0333995
0.325871
-0.31781
0.0257323
0.0278927
0.312311
-0.307868
0.0178546
0.0208016
0.305173
-0.303226
0.00802844
0.0126277
0.302369
-0.302565
-0.00453558
0.00198662
0.304113
-0.307567
-0.0169959
-0.0105286
0.312167
-0.318481
-0.0262322
-0.0214528
0.325188
-0.333219
-0.030745
-0.0282877
0.341093
-0.349487
-0.0296503
-0.0300072
0.35672
-0.363405
-0.0215346
-0.0256728
0.368381
-0.371732
-0.00476202
-0.013595
0.372044
-0.368198
0.0177415
0.00609599
0.359995
-0.348344
0.0365599
0.0277086
0.336172
-0.325009
0.0409144
0.0395581
0.316244
-0.308904
0.0337416
0.0369144
0.302668
-0.296767
0.0235034
0.0279718
0.291741
-0.287854
0.0101345
0.0168307
0.286067
-0.285304
-0.00673222
0.00179474
0.285506
-0.285714
-0.0183318
-0.0143121
-0.0221973
-0.374311
0.379788
0.00336482
0.0117764
-0.381976
0.378704
-0.0197114
-0.00950221
-0.371432
0.364307
-0.039697
-0.0304897
-0.356119
0.34748
-0.0516699
-0.0453027
-0.339078
0.329578
-0.0562421
-0.0531202
-0.32017
0.310505
-0.0527574
-0.051731
-0.301818
0.293768
-0.0437488
-0.0456796
-0.287763
0.283509
-0.0285973
-0.0344581
-0.280792
0.279054
-0.00937546
-0.0176896
-0.279305
0.283079
0.0104044
0.000348189
-0.291752
0.306167
0.0332831
0.019409
-0.324475
0.346335
0.0594424
0.0424719
-0.368363
0.390302
0.0803886
0.0657454
-0.408526
0.422689
0.0791359
0.0773884
-0.429912
0.43017
0.0445093
0.0603994
-0.424133
0.412828
-0.00256781
0.0184178
-0.398973
0.383113
-0.0357873
-0.0203875
-0.367555
0.352124
-0.0497619
-0.0408921
-0.338196
0.326736
-0.0505485
-0.0458896
-0.31692
0.309081
-0.0407735
-0.0403557
-0.301444
0.295376
-0.0264274
-0.0284742
-0.292177
0.290994
-0.0060393
-0.01361
-0.300292
0.310383
0.0215911
0.00962504
0.0361311
0.102607
-0.11578
0.37053
0.393204
0.128935
-0.145882
0.341651
0.356623
0.159422
-0.169593
0.301217
0.322083
0.17618
-0.179496
0.24805
0.270398
0.180619
-0.179654
0.208267
0.2218
0.177469
-0.174268
0.19493
0.194887
0.169704
-0.163257
0.210412
0.196197
0.154769
-0.143618
0.248239
0.223292
0.130608
-0.115681
0.294113
0.266894
0.0993147
-0.0789287
0.329518
0.308545
0.0551429
-0.0186373
0.347347
0.334967
0.317083
0.0537714
-0.301206
0.305598
-0.0372437
-0.0317206
0.0378197
-0.308438
-0.307563
-0.0213493
0.245951
-0.277658
-0.231193
-0.236937
0.250618
-0.307102
-0.183301
-0.194642
0.23608
-0.356068
-0.109976
-0.174118
0.0463008
-0.310095
0.186187
-0.41673
-0.0313832
-0.175312
0.101163
-0.464149
0.0369165
-0.190976
-0.000245077
-0.482761
0.0899397
-0.192481
0.0264528
-0.339196
-0.0352385
-0.336413
0.341042
0.0218231
-0.0248366
-0.332274
0.0206977
-0.333375
-0.0306572
-0.0743544
-0.474782
0.0918347
-0.298409
-0.345471
-0.0442758
-0.0994141
-0.441297
0.0819535
-0.276134
-0.368591
-0.0641051
-0.0884409
-0.400826
0.0742977
-0.316007
0.0316507
-0.0480472
0.321994
0.25323
-0.392326
0.255937
0.103974
-0.119059
0.360158
-0.0296914
0.0356689
-0.314415
-0.316379
-0.0208757
-0.0069378
0.364142
-0.251845
0.357512
-0.384397
-0.0070699
-0.332453
-0.0321396
0.327349
-0.0217561
0.382221
-0.374199
0.0114896
-0.00471136
0.367249
-0.363379
0.0189217
0.0213127
0.357762
-0.353709
0.0269799
0.0237603
0.348515
-0.34217
0.0286067
0.0285722
0.335866
-0.329209
0.0255265
0.0270955
0.323702
-0.318527
0.0205574
0.0223854
0.314526
-0.311083
0.014411
0.0168011
0.308401
-0.306542
0.0061695
0.00994546
0.30552
-0.305985
-0.00407037
0.000964596
0.307464
-0.310482
-0.0139779
-0.00904933
0.314274
-0.31915
-0.0213563
-0.017661
0.32427
-0.330014
-0.0250011
-0.0231678
0.335702
-0.341872
-0.0234807
-0.0243186
0.347792
-0.353573
-0.0157535
-0.0197526
0.357885
-0.360232
-0.00241547
-0.00928325
0.359755
-0.356195
0.0141813
0.00561949
0.3499
-0.341338
0.0279984
0.0214135
0.332252
-0.323306
0.0319688
0.0304717
0.315775
-0.309212
0.027179
0.0293827
0.303714
-0.298858
0.0186467
0.0224741
0.294963
-0.292168
0.00733942
0.0129363
0.290982
-0.291493
-0.00622061
0.00060824
0.293204
-0.294594
-0.0169412
-0.0126019
0.295906
-0.295479
-0.0228734
-0.0208857
0.301701
-0.304911
-0.0181394
-0.0260995
-0.0300836
-0.31255
0.0262546
0.303631
-0.311521
-0.0221939
-0.0221561
-0.349414
0.358871
0.012277
0.0171479
-0.365207
0.369031
-0.000458888
0.0054402
-0.369552
0.366752
-0.016912
-0.0100233
-0.363658
0.357601
-0.0336396
-0.0273953
-0.350176
0.340707
-0.0422016
-0.0378776
-0.332618
0.32415
-0.0477742
-0.0450309
-0.316826
0.309605
-0.0455359
-0.044407
-0.303324
0.297219
-0.0376445
-0.0393987
-0.292385
0.288676
-0.0248889
-0.0296236
-0.286722
0.285939
-0.00859227
-0.0157349
-0.286455
0.288765
0.00809523
-0.000168755
-0.293444
0.301995
0.0247317
0.0147301
-0.313522
0.328787
0.0441776
0.030945
-0.344741
0.361967
0.0631618
0.0497916
-0.376842
0.389978
0.0660006
0.0625134
-0.398279
0.402028
0.0407603
0.0520985
-0.400689
0.394891
0.00322948
0.0197568
-0.386388
0.37496
-0.0243592
-0.0118841
-0.363777
0.351085
-0.0370695
-0.0297097
-0.340116
0.328991
-0.0394241
-0.0349203
-0.320722
0.313238
-0.0332892
-0.0320865
-0.307496
0.302383
-0.0213145
-0.0227322
-0.299242
0.299153
-0.00595018
-0.0104696
-0.303362
0.310226
0.0147272
0.00541624
-0.319855
0.34252
0.0354956
0.026502
0.0438876
0.09889
-0.110226
0.381866
0.373035
0.130738
-0.148277
0.35919
0.377135
0.16125
-0.171803
0.311769
0.335056
0.178671
-0.181564
0.250943
0.277266
0.181173