/*--------------------------------*- C++ -*----------------------------------*\
  =========                 |
  \\      /  F ield         | OpenFOAM: The Open Source CFD Toolbox
   \\    /   O peration     | Website:  https://openfoam.org
    \\  /    A nd           | Version:  10
     \\/     M anipulation  |
\*---------------------------------------------------------------------------*/
FoamFile
{
    format      ascii;
    class       surfaceScalarField;
    location    "12.5";
    object      phi;
}
// * * * * * * * * * * * * * * * * * * * * * * * * * * * * * * * * * * * * * //

dimensions      [0 3 -1 0 0 0 0];

internalField   nonuniform List<scalar> 
29080
(
0.0907801
-0.145257
-0.0153282
0.0698049
0.0509843
0.0397957
0.012168
0.0301267
-0.0268884
-0.0154062
0.042684
0.00586941
-0.0363855
0.0392436
-0.00177511
0.00521554
0.0314824
-0.0585381
0.0476755
-0.0206199
-0.048551
0.0290829
0.0509504
0.0348742
0.0051218
-0.0478979
0.00790192
-0.0321872
0.0727439
-0.00568255
0.0121782
-0.103357
-0.0159476
0.0607665
-0.0837976
0.0552949
0.0822847
0.0663371
-0.0195463
-0.107365
0.0377756
0.0651801
0.00440926
0.000790214
0.0385928
-0.0129819
-0.0232062
0.0499911
0.0264718
0.0536094
-0.0883068
0.00822561
0.0200046
0.0748231
0.0203983
0.0635853
-0.00409042
0.000484091
4.45492e-05
-0.00327363
0.00274499
-0.0107113
-0.0184394
0.0296348
-0.00632112
-0.00403312
-0.000357075
-0.0068171
0.000540527
-0.00151582
-0.00857491
-0.0691633
0.00434608
0.00554382
0.0592734
-0.0338286
-0.0482732
0.0129385
0.0412381
-0.0385347
-0.036532
-0.000658999
0.00136358
0.00333531
-0.00403989
0.00583039
-0.00648939
-0.00305149
0.00888188
0.00283164
-0.00451954
0.00400848
0.00215846
-0.0270395
-0.00306682
0.0225002
0.0076062
0.00167762
-0.0211155
-0.00760166
0.0263097
0.00145629
-0.0260884
0.0169514
0.00629153
0.0175264
0.0219251
-0.0361187
0.012436
0.0308294
-0.00714676
0.0248713
-0.0481735
-0.0128165
0.0177214
0.0121133
-0.00496346
0.0201934
0.00996406
0.0200609
0.0309619
0.0728401
0.0010658
-0.0353454
-0.0385605
-0.00400032
0.0679532
0.00888717
-0.0408824
0.0449684
-0.00808632
-0.0283908
-0.0114258
-0.0577541
-0.00445546
0.0147588
0.0474508
-0.066077
0.0126689
-0.0447563
0.0199175
0.0748301
0.0287077
-0.041122
-0.0624158
-0.0288335
0.0253884
0.0782752
0.0715226
-0.098569
0.0613575
-0.0343111
-0.0348264
0.0517258
0.0546231
0.00876138
0.0095162
-0.00854467
-0.00973291
0.0176451
0.00566247
-0.0145462
-0.00520619
0.00574672
-0.00672201
-0.0608403
-0.037914
0.00835653
0.0903978
-0.0278616
0.0245277
-0.0575064
0.0541044
-0.0582322
-0.0237338
0.0528915
-0.0367011
0.0684667
-0.00721873
0.0873562
-0.039473
-0.0478832
-0.0594778
0.0503623
0.0964717
-0.0283642
-0.0298667
0.0196962
-0.00387377
0.0169922
-0.0414826
0.0129901
-0.0467306
0.00727218
0.00484112
0.0172362
0.00986236
0.0457526
-0.0106466
-0.0299971
0.0430443
0.0113521
-0.0243992
-0.0761137
0.000560114
0.0455565
0.00170187
0.0213107
-0.0408506
0.0191432
-0.0425888
0.00468014
-0.0283169
0.0299283
-0.0364137
0.000202338
0.0408915
-0.029042
0.00218142
0.0431476
-0.0420403
-0.00226512
0.00115785
-0.00116391
-0.00108699
0.0453985
0.000146194
-0.0091446
-0.00459939
0.0135978
-0.00923877
0.0213007
-0.0119158
0.00606469
0.0221037
-0.0105232
0.0320778
0.00325749
-0.0292706
0.0759725
-0.00437365
-0.08708
0.0154811
-0.00315473
0.0511824
0.0279449
0.0561115
-0.00659001
0.00696818
-0.0564897
0.0564629
0.00425877
-0.00461022
-0.00606084
-0.0446821
0.0448973
0.00584556
-0.0464588
0.0469441
-0.00654618
0.011883
0.0347228
-0.0354406
-0.0111652
0.0321249
0.011649
-0.0318909
0.017395
0.0433293
-0.0439644
-0.0167599
0.0414407
0.0170306
-0.0410762
0.020779
0.0454123
-0.0454228
-0.0207686
0.0441458
0.0195978
-0.0429645
0.0337482
0.0838685
-0.12199
-0.0725186
0.0774333
-0.0118438
-0.0513278
0.00954317
0.0536285
-0.0485346
-0.0168259
0.0535167
0.0115645
-0.0122168
-0.0478823
0.00913292
-0.0488962
-0.0521388
0.00734691
0.0516431
-0.00685119
0.00995429
-0.0525499
-0.000788841
-0.0214635
0.00221592
0.0200364
-0.0125571
0.0118397
-7.13627e-05
0.0013528
-0.0136222
-0.000287736
0.0028618
-0.0229725
-0.02053
-0.00339813
0.0028126
0.0121083
-0.0304223
0.0179812
0.0408209
-0.0157
-0.043102
0.0246698
0.0548617
-0.0615503
0.0068851
0.0586056
-0.00976839
-0.0132768
0.0154435
-0.00336148
0.00543275
-0.00760259
-0.0434988
0.00641931
-0.0407181
-0.0133433
-0.0398069
0.00615126
-0.00706249
-0.00520962
-0.0272471
-0.00735012
0.0422435
-0.0513826
0.00392949
0.00489597
-0.0271891
0.00751416
-0.00757216
0.00768276
-0.0270881
-0.00778374
0.0496926
-0.0491674
0.00715761
0.00582411
-0.0268479
0.00760331
-0.00784359
0.00756471
-0.0265495
-0.00786307
0.0485325
-0.0477496
0.00678181
0.00696844
-0.0260843
0.00722736
-0.0076926
0.00687973
-0.0255299
-0.00743408
0.0468434
-0.0457893
0.00582566
0.00632112
-0.0247967
0.00621286
-0.00694606
0.0054774
-0.0239483
-0.00632584
0.0446189
-0.0433232
0.00418174
0.00504242
-0.0229295
0.00443325
-0.00545207
0.00327542
-0.0217869
-0.00441792
0.0419505
-0.0405107
0.00183563
0.00306054
-0.0205127
0.00186507
-0.00313929
0.000361713
-0.0191611
-0.0017133
0.0390648
-0.0376067
-0.00109638
0.00041915
-0.0178126
-0.00128017
-6.83724e-05
-0.00299889
-0.0164137
0.00159997
0.0362571
-0.0350569
-0.00419907
-0.00262982
-0.0243545
-0.00486232
0.0128032
-0.00653351
-0.0243411
0.00652003
0.0342517
-0.0347521
-0.00603312
-0.00566752
-0.0270949
-0.00292094
0.00567478
-0.00731602
-0.027392
0.00761316
0.0312173
-0.0297825
-0.00875077
-0.00645576
-0.0281687
-0.00777952
0.00855621
-0.00935386
-0.027453
0.00863818
0.029841
-0.0318863
-0.00730853
-0.00772109
0.0105143
-0.0102756
-0.0286967
0.011758
-0.00660682
0.00523788
0.0462663
-0.00635363
0.0466909
0.0117748
-0.0288225
0.0451241
-0.0432106
0.00332441
-0.00514836
0.0456427
0.00462967
-0.00654543
0.0476634
0.0495508
-0.049849
-0.00624802
0.0519196
-0.00872243
0.0278889
-0.0267907
0.0106598
-0.0272074
0.0277813
0.00798234
0.00931972
-0.0283959
0.0289405
0.00513027
0.00699846
-0.0268118
0.0379924
0.00162261
0.00864868
-0.0398845
0.0417647
-0.00194855
-0.00029214
-0.0435425
0.0452029
-0.0047997
-0.00349112
-0.0467236
0.0480721
-0.00680053
-0.00593864
-0.0492503
0.0502493
-0.00794503
-0.0075041
-0.0510822
0.051758
-0.00836843
-0.00826693
-0.0522906
0.0527018
-0.00825481
-0.00839567
-0.0529942
0.0532077
-0.00778569
-0.00807611
-0.0533205
0.0543058
-0.00804779
-0.00746288
-0.00888651
0.00859673
-0.00731421
0.0506371
0.0487422
0.0419606
-0.0430292
0.00748793
0.00459556
0.0438158
-0.0466219
0.00673554
0.0056826
0.0474277
-0.046836
0.00656593
0.0066299
0.0461263
-0.0452954
0.00595089
0.0062587
0.0443604
-0.0433145
0.00477973
0.00538616
0.0421966
-0.0410123
0.00299743
0.0039246
0.0398221
-0.0386538
0.000667368
0.00187031
0.0376033
-0.0367079
-0.00199184
-0.00063134
0.0360268
-0.0355995
-0.0046264
-0.00331092
0.0354892
-0.0347089
-0.00681345
-0.00577774
0.0337548
-0.0351224
-0.00738314
-0.0074099
0.0354934
-0.0343463
-0.00845564
-0.00735007
-0.00989918
0.00508595
-0.00539521
0.0479726
0.00338709
0.0473416
0.0124032
-0.0274192
-0.0130879
0.0133856
-0.0321887
0.0522401
-0.0522209
-0.00733341
0.00670164
0.0514551
-0.00591668
0.00662467
0.0507141
-0.0364643
-0.0120642
0.0276628
-0.0268309
0.00982792
-0.0289425
0.0293947
0.00753015
0.00804
-0.03151
0.0324697
0.00417055
0.00488321
-0.0393312
0.041454
-0.000500188
0.00178722
-0.043452
0.0453481
-0.00384462
-0.00229019
-0.0470884
0.0486344
-0.00634571
-0.00523147
-0.0499866
0.0511334
-0.00794737
-0.00729078
-0.0520905
0.0528646
-0.00871916
-0.00846118
-0.0534775
0.0539458
-0.00883679
-0.00887978
-0.0542902
0.0545295
-0.00849414
-0.00873999
-0.0546807
0.0547548
-0.00785982
-0.00822728
-0.0547803
0.0537911
-0.00705864
-0.00748837
-0.0523729
0.0532669
-0.00714197
-0.00746832
-0.00767641
0.0499717
-0.0453806
0.00312054
0.0456471
0.0446282
-0.0458277
0.004524
0.00387727
0.0472536
-0.0459863
0.00622067
0.0060214
0.0465155
-0.0460444
0.00626451
0.00621174
0.0454943
-0.0448576
0.00592914
0.00607983
0.0441402
-0.0433395
0.00515019
0.00554133
0.0424802
-0.0415694
0.00386885
0.00452691
0.040653
-0.0397537
0.00209809
0.00300825
0.0389352
-0.0382427
-2.51609e-05
0.00105182
0.0377287
-0.0374476
-0.00227289
-0.0011453
0.0374337
-0.037694
-0.00436612
-0.00332482
0.0381933
-0.0387652
-0.0062416
-0.00527846
0.0390598
-0.0391807
-0.00726226
-0.00711527
0.0385016
-0.0366473
-0.0103099
-0.00802919
0.0375095
-0.0370211
-0.0116536
-0.00903698
-0.0124461
0.0121073
-0.0361254
0.0386447
-0.0390805
-0.0120103
-0.0104406
-0.0258188
0.0113911
0.0135988
-0.0290357
0.0129854
-0.0330668
-0.00599965
0.00536294
0.0513508
-0.0130145
0.0126103
-0.0357212
-0.0137423
-0.0383527
-0.00714908
0.0526045
0.0463265
-0.0458497
0.00264378
0.0528581
-0.0533744
-0.00681712
0.053624
-0.00668256
-0.00256894
0.0470895
0.00180592
-0.00355299
0.0466312
-0.0138347
0.012863
-0.0248471
-0.027655
0.0276813
-0.0258771
0.0110588
-0.0296368
0.0312327
0.00823203
0.00943554
-0.0330514
0.0356583
0.00492324
0.00622126
-0.0375924
0.0407495
0.00101345
0.0029491
-0.0433962
0.0455068
-0.00261072
-0.000859486
-0.0474396
0.0491705
-0.00557552
-0.00422299
-0.0506949
0.0519903
-0.00764114
-0.0067559
-0.0530707
0.0539404
-0.00881708
-0.00837112
-0.0546242
0.0551385
-0.0092335
-0.00914497
-0.0555099
0.0557588
-0.00908569
-0.0092512
-0.0559088
0.0559778
-0.00856314
-0.00888997
-0.0559845
0.0559406
-0.00781594
-0.008234
-0.0558633
0.0557545
-0.00694983
-0.00741104
-0.055081
0.0540766
-0.00613752
-0.00679485
-0.00697424
-0.00475837
0.00313179
0.0495992
0.0505763
0.0469204
0.0461196
-0.0470005
0.00540493
0.00414716
0.0465276
-0.0460366
0.00572966
0.00554852
0.045529
-0.044974
0.00570955
0.00570407
0.0443887
-0.043757
0.00529745
0.0054945
0.0430967
-0.0424084
0.00446188
0.00488105
0.0417239
-0.041059
0.00320396
0.00384241
0.0404601
-0.0399573
0.00159528
0.00240937
0.039602
-0.0394286
-0.000198576
0.000696567
0.0394677
-0.0397369
-0.00200377
-0.00110619
0.0402195
-0.0408835
-0.00370212
-0.00284214
0.0416512
-0.042459
-0.00543386
-0.00451077
0.0432224
-0.0430121
-0.00747257
-0.00635178
0.0424628
-0.0435462
-0.0092265
-0.00857857
0.0425623
-0.042665
-0.0115508
-0.0100209
0.0416538
-0.0410697
-0.0125944
-0.0114519
0.0408268
0.0153463
-0.0406695
-0.0155036
-0.0139852
0.0140525
-0.0301028
0.0137089
-0.0142931
-0.0242629
-0.0237821
0.0116139
0.00211407
-0.00345289
0.04797
0.00152213
0.0476814
0.0132467
-0.0337033
0.0151816
-0.0381879
0.0149473
-0.0354869
-0.0176029
0.0171359
-0.037721
-0.00655197
0.0530269
-0.0168317
-0.0278955
0.0127872
-0.0141356
-0.0224337
0.0265258
-0.0240759
0.0103373
-0.028809
0.0315698
0.008298
0.00933068
-0.0340354
0.0364393
0.00582807
0.00696992
-0.0385017
0.0410657
0.00235924
0.00415891
-0.0434916
0.0457743
-0.0012693
0.000523212
-0.0478994
0.0498011
-0.00451243
-0.00298454
-0.0514764
0.0529048
-0.00700388
-0.00589831
-0.0540996
0.0550586
-0.00860017
-0.00795072
-0.0558056
0.0563569
-0.00936839
-0.00911811
-0.0567424
0.0569855
-0.00947653
-0.00953046
-0.0571137
0.0571497
-0.0091217
-0.00937947
-0.0571157
0.0570289
-0.00847635
-0.00885592
-0.0569056
0.0567566
-0.00766698
-0.00811069
-0.0565937
0.0564209
-0.00677704
-0.00724814
-0.0559609
0.0556807
-0.00585737
-0.00633481
-0.0545228
0.0536541
-0.00594846
-0.0058163
-0.0535395
0.0538509
-0.00686338
-0.00656795
0.00643698
-0.0063447
0.0529346
-0.0060119
0.00530194
0.0520608
0.0530296
-0.00502682
0.00477273
0.0498533
0.0508514
0.0482403
-0.0478203
0.000614624
0.0487278
0.0477716
-0.0479115
0.00278372
0.00175724
0.0481783
-0.0475404
0.00476705
0.0044139
0.0469238
-0.0463158
0.00512165
0.00493197
0.0457201
-0.0451235
0.005113
0.00510834
0.0445402
-0.0439623
0.00471958
0.00491116
0.0434124
-0.0428954
0.00394485
0.00433116
0.0424429
-0.0420729
0.00283401
0.00338985
0.0418211
-0.0417115
0.00148571
0.00215754
0.0417688
-0.0419999
3.25479e-05
0.000753855
0.0424026
-0.0429584
-0.00144797
-0.000703531
0.0436116
-0.0443143
-0.00299937
-0.00218895
0.0449936
-0.0456134
-0.00481403
-0.00383148
0.0461362
-0.0465704
-0.00703834
-0.00582901
0.0469161
-0.0465127
-0.00962997
-0.00823288
0.0456002
-0.0453189
-0.0118321
-0.0109333
0.0439849
-0.0432389
-0.0133404
-0.0127859
0.0424465
-0.0432468
-0.0147033
-0.0147776
-0.0167492
-0.00540545
0.0529117
0.0144522
-0.0313083
-0.0145138
-0.0238847
0.0152878
-0.0340438
-0.0127838
-0.0219398
0.0106478
-0.0142284
-0.0209892
0.0169071
-0.0352581
0.0508842
-0.0507425
0.000472934
-0.000130725
0.0509787
3.6242e-05
-0.00142779
0.0500248
0.0172489
-0.0379393
-0.017801
0.0176713
-0.0409465
0.0535877
-0.0549655
-0.00548559
0.0535814
-0.0053991
-0.0176197
-0.0279571
0.0107816
-0.0125939
-0.0201275
0.0265364
-0.0243745
0.00861972
-0.0289556
0.0315617
0.00773122
0.00822854
-0.0340358
0.0365108
0.00582297
0.00685656
-0.0390109
0.0415465
0.0032925
0.00446983
-0.0440348
0.0464074
-1.34494e-05
0.00167066
-0.048629
0.0506418
-0.00328217
-0.00169832
-0.0524354
0.0539707
-0.00604773
-0.0047781
-0.0552558
0.056285
-0.00803312
-0.00718339
-0.057082
0.0576606
-0.00917874
-0.00874773
-0.0580509
0.0582778
-0.0095953
-0.00950838
-0.0583723
0.0583609
-0.0094652
-0.00962494
-0.0582692
0.0581189
-0.00897146
-0.00928771
-0.0579283
0.0577127
-0.00826075
-0.00866529
-0.0574838
0.0572507
-0.00743393
-0.00788177
-0.0570205
0.0567971
-0.00655372
-0.00701789
-0.0565846
0.0563848
-0.00565759
-0.00612221
-0.0561536
0.0557005
-0.00549543
-0.00558508
-0.00583294
-0.00435567
0.0043689
0.0529214
0.004426
-0.00384565
0.053001
0.052982
-0.00440307
0.00458084
0.051883
0.0529955
-0.00432973
0.00435103
0.049832
0.0511025
-0.00377445
0.00294436
0.0488001
0.0488168
0.049198
0.050049
-0.0505994
0.00333405
0.00106379
0.0498647
-0.0491462
0.00404851
0.00367921
0.0484601
-0.0477985
0.00445998
0.00424596
0.0471761
-0.0465871
0.00452395
0.00448598
0.0460489
-0.0455605
0.00423121
0.00437301
0.0451439
-0.0448057
0.00360668
0.00391453
0.0445691
-0.0444462
0.00271109
0.00315326
0.0444523
-0.0445947
0.00162811
0.00216364
0.0448667
-0.0452561
0.00042196
0.00102578
0.0457234
-0.0462435
-0.000927871
-0.000236222
0.046761
-0.0472447
-0.00251573
-0.00167139
0.0476599
-0.0480067
-0.00446723
-0.00341629
0.0482893
-0.0485342
-0.00679344
-0.00554637
0.0487623
-0.0490014
-0.00939084
-0.00800477
0.0492585
-0.0494039
-0.0116867
-0.0106762
0.0493126
-0.0488896
-0.0137633
-0.0128772
0.0489343
-0.0478492
-0.0157884
-0.0147329
0.0476232
-0.0463657
-0.0180174
-0.0169753
-0.018573
0.0150703
-0.0310908
-0.0146619
-0.0234512
-0.000380303
-0.0010659
0.051471
-0.00164344
0.0522418
0.016431
-0.0335677
-0.0141052
-0.0194779
0.0183584
-0.0363676
-0.0102365
-0.0226092
0.00847123
-0.0120581
-0.018306
0.0183716
-0.0386396
0.0193336
-0.0406824
0.0531849
-0.0510194
-0.00601119
-0.0212045
0.0212655
-0.0430256
-0.0454204
-0.0212069
-0.00474562
0.00450401
0.0532426
0.0534751
-0.00503577
-0.0275488
0.00738392
-0.00924471
-0.0207484
0.0299815
-0.0285217
0.00592412
-0.0319588
0.0341437
0.00643486
0.00649396
-0.0363529
0.0387059
0.00537822
0.00601931
-0.0411738
0.0432903
0.00370655
0.00438863
-0.045337
0.0476428
0.000986747
0.00242305
-0.0498396
0.0518586
-0.00203246
-0.000526109
-0.0536802
0.0552575
-0.00485946
-0.00351996
-0.0565899
0.0576603
-0.00711808
-0.00611051
-0.0584856
0.0590755
-0.00862299
-0.00800873
-0.0594595
0.0596626
-0.0093818
-0.00913174
-0.0597166
0.0596508
-0.00952952
-0.00956243
-0.0594932
0.0592697
-0.00924169
-0.00946732
-0.0590006
0.0587051
-0.00867592
-0.00901865
-0.0583958
0.058085
-0.00794996
-0.00835599
-0.0577797
0.0574868
-0.00714104
-0.00757645
-0.0572096
0.0569515
-0.00629566
-0.00674069
-0.0567137
0.0564969
-0.00544083
-0.00588434
-0.0559399
0.0553925
-0.00494804
-0.00502809
-0.0544243
0.0538635
-0.00492482
-0.00486473
-0.00255495
-0.00408451
0.00417783
0.052828
0.0534015
-0.00383543
0.00376263
0.0519558
0.0533379
-0.00391771
0.00389171
0.049858
0.0509474
-0.00301654
0.00193931
0.0498773
0.049692
0.0500714
-0.0539501
-0.00122313
0.0535298
0.0529707
-0.0525553
5.75425e-05
-0.000943203
0.0536336
-0.0529088
0.00260922
0.00214209
0.0521974
-0.051493
0.00334415
0.00296785
0.0508222
-0.0501809
0.00381868
0.00357513
0.0495917
-0.0490529
0.00398511
0.00389683
0.0485844
-0.0481873
0.00383414
0.00390451
0.0478791
-0.047663
0.00339053
0.00360634
0.0475495
-0.0475392
0.00270077
0.00303975
0.0476283
-0.0478077
0.00180746
0.00225279
0.0480541
-0.0483455
0.000713379
0.00127219
0.0486505
-0.0489396
-0.000638683
6.87443e-05
0.0491907
-0.0493977
-0.00230867
-0.00142039
0.0495592
-0.0496934
-0.0043331
-0.00325477
0.0498194
-0.0499621
-0.00665074
-0.00542039
0.0501382
-0.0503643
-0.00916472
-0.0078286
0.0506441
-0.0505216
-0.0118092
-0.0103964
0.0503363
-0.0503029
-0.0137967
-0.0130625
0.0498261
-0.0492648
-0.0163497
-0.0152097
0.048842
-0.0472917
-0.0195677
-0.0173981
0.0476311
-0.0495782
-0.0188215
-0.0182336
-0.0195113
0.0203501
-0.0462592
0.0509202
-0.0498823
-0.0205493
-0.0198649
0.0162564
-0.0309162
-0.0152548
-0.0223016
0.0177889
-0.0329982
-0.0134141
-0.0181219
0.0180782
-0.0360741
-0.0110219
-0.0165288
0.0195644
-0.0388703
-0.00665109
-0.0269953
0.00512462
-0.00800954
-0.01939
0.0203485
-0.0397655
0.0200024
-0.0426779
0.0200154
-0.0489602
-0.0209374
0.019577
-0.0458208
0.0540304
-0.0556653
-0.00437629
-0.022451
0.015218
-0.0417273
0.0562213
-0.0548583
-0.00258611
-0.00421706
0.00394743
0.0535123
-0.00497163
0.0542296
0.0030743
0.055973
-0.00282602
0.00185683
0.0547473
0.0473188
-0.0457426
-0.0240271
0.0539704
-0.00497579
-0.0265471
0.00396817
-0.00494722
-0.0260162
0.0367538
-0.0361032
0.0033176
-0.0379896
0.0395783
0.00433539
0.00388885
-0.0408767
0.0427574
0.00455416
0.00519554
-0.0444142
0.0461226
0.00366981
0.00436258
-0.047737
0.0497696
0.00167398
0.00277423
-0.0517545
0.0536222
-0.000880892
0.000438057
-0.0553401
0.0568532
-0.00354557
-0.002244
-0.0581502
0.0592022
-0.0059114
-0.004817
-0.0600166
0.060594
-0.00769546
-0.00692494
-0.0609575
0.0611286
-0.00879408
-0.00837229
-0.0611381
0.0610162
-0.00925987
-0.00914121
-0.0607918
0.0604937
-0.00923144
-0.00933806
-0.0601439
0.0597648
-0.00886256
-0.00911755
-0.0593703
0.0589754
-0.008281
-0.00862417
-0.0585874
0.0582152
-0.00757776
-0.007968
-0.0578619
0.0575321
-0.00681127
-0.00722311
-0.0572266
0.0569475
-0.00601652
-0.00643519
-0.0566942
0.0564673
-0.00521386
-0.00563109
-0.0562656
0.055733
-0.0044154
-0.00482645
-0.0548982
0.0536023
-0.00362891
-0.00402997
-0.00461793
-0.00326055
0.00287047
0.0532181
0.0540884
-0.00313624
0.00336829
0.0517237
0.0530721
-0.00348291
0.00340325
0.0499376
0.0508328
-0.00309355
0.00257197
0.0503989
0.0500017
-0.000792243
-0.00109658
0.0533599
0.0518511
0.0530021
0.0554218
-0.0565022
0.00113795
-0.000379781
0.0559134
-0.0553001
0.00199598
0.0015533
0.0546839
-0.0540666
0.00272687
0.0023516
0.0534727
-0.0529033
0.00324934
0.00298121
0.0523813
-0.0519072
0.00351103
0.00337479
0.0514994
-0.0511577
0.00349245
0.0034967
0.0508936
-0.0507041
0.00320102
0.00334221
0.0505904
-0.0505438
0.00265417
0.0029261
0.0505531
-0.0506025
0.00185687
0.00226206
0.0506721
-0.0507446
0.000785903
0.00134175
0.0508039
-0.0508418
-0.000600799
0.000128089
0.0508551
-0.0508526
-0.00231124
-0.00140708
0.0508489
-0.0508627
-0.00431922
-0.00325848
0.0509122
-0.051014
-0.00654894
-0.00537094
0.0511779
-0.0514149
-0.00892769
-0.0076647
0.0517289
-0.0521284
-0.0114097
-0.0100825
0.0526047
-0.0524422
-0.0139593
-0.0125863
0.0525225
-0.0523584
-0.0165138
-0.0151294
0.0521259
-0.0539834
-0.0177101
-0.0176307
0.0531469
-0.0518006
-0.0201677
-0.0190702
0.0522612
-0.0515387
-0.0212717
-0.0194043
-0.0251573
0.0163323
-0.0294596
-0.0149836
-0.0207321
-0.00287954
0.00119894
0.0564279
-0.00343853
0.056532
0.0551179
-0.0712763
-0.0295842
0.0171936
-0.0321137
-0.0127568
-0.016387
0.0181425
-0.0346523
-0.0095888
-0.0149495
0.0194876
-0.0380094
-0.00637056
-0.0179666
0.0206126
-0.0403756
-0.00314964
-0.03557
0.00261641
-0.00350645
-0.0256594
0.0193083
-0.0424092
0.0176577
-0.0482605
0.00984307
-0.0755975
-0.00440277
0.0534016
-0.0251984
0.00194115
-0.0358871
-0.00162403
0.0456721
-0.0457426
0.00201159
-0.0455939
0.0461384
0.00277307
0.0026946
-0.0466204
0.0472894
0.00366638
0.00340686
-0.0486815
0.0498032
0.00343242
0.00380352
-0.0512893
0.0528508
0.00210826
0.0028765
-0.0544366
0.0559763
0.00013433
0.00118844
-0.0574458
0.0587688
-0.00220387
-0.0010315
-0.0599272
0.0608821
-0.00450042
-0.0034024
-0.0616291
0.0621577
-0.00644001
-0.00556407
-0.0624813
0.0626135
-0.00782773
-0.00724846
-0.0625796
0.0624072
-0.00862161
-0.00833839
-0.0621238
0.0617593
-0.00889546
-0.00885779
-0.0613366
0.0608804
-0.00877521
-0.00891534
-0.0604056
0.0599296
-0.00838657
-0.00864272
-0.0594604
0.0590087
-0.00782932
-0.00815495
-0.0585776
0.0581731
-0.00717324
-0.00753691
-0.0577954
0.0574475
-0.00646339
-0.00684544
-0.0571285
0.0568394
-0.00572747
-0.00611615
-0.056579
0.0563474
-0.00498221
-0.00537067
-0.056143
0.0559659
-0.0042382
-0.00462213
-0.0558151
0.0556897
-0.00350356
-0.00387921
-0.0549055
0.0541162
-0.00358703
-0.00383365
-0.0538285
0.0536175
-0.00419178
-0.00468809
0.00359342
-0.00381808
0.0536262
-0.00325572
0.0027989
0.0539691
0.0545673
-0.00292523
0.00250747
0.0536359
0.0539621
-0.00276126
0.0029617
0.0515233
0.0528183
-0.00302582
0.0028876
0.0500759
0.0507687
-0.00252715
0.0019799
0.0509461
0.0503622
-0.00132204
0.000654887
0.054027
0.052509
0.0548559
-0.0568472
-0.00390231
0.057311
0.0574619
-0.0586801
-0.0013679
-0.00221133
0.0586404
-0.0582411
0.00073865
-0.000419445
0.0578057
-0.0573344
0.00152461
0.00111794
0.0568476
-0.056347
0.00222632
0.00186482
0.0558547
-0.0553721
0.00276674
0.00248887
0.0549194
-0.0544967
0.0030883
0.00292207
0.0541191
-0.0537839
0.00315727
0.00311913
0.0534989
-0.0532569
0.00295906
0.0030572
0.0530573
-0.0528885
0.0024853
0.00272649
0.0527432
-0.0526083
0.00172194
0.00211678
0.0524764
-0.0523391
0.000648658
0.00120987
0.0521965
-0.0520511
-0.000746258
-1.45133e-05
0.0519131
-0.0517925
-0.00243186
-0.00154505
0.0517058
-0.0516665
-0.00435861
-0.00334511
0.0516872
-0.0517781
-0.00645804
-0.00535022
0.051945
-0.0521968
-0.00867586
-0.0074978
0.052535
-0.0529693
-0.0109754
-0.00974421
0.0534992
-0.0541364
-0.0133221
-0.0120564
0.0548721
-0.0557211
-0.0156648
-0.0143936
0.0566624
-0.0564712
-0.0179012
-0.0166894
0.0567468
-0.0583981
-0.0185163
-0.0187946
0.0578906
-0.0567128
-0.0224495
-0.0199119
-0.0267522
-0.00365033
0.0534498
0.0160789
-0.0283448
-0.014418
-0.0190709
-0.00128924
-0.0459237
0.00147035
-0.0368334
-0.000343008
0.0174171
-0.0313883
-0.0115582
-0.0144176
0.0187033
-0.0338679
-0.00798582
-0.0133343
0.0188054
-0.0362022
-0.00439721
-0.0170759
0.0191556
-0.0402229
-0.00161103
-0.0256724
0.0190995
-0.043851
0.0154052
-0.0538227
0.0241365
-0.0698201
-0.0255927
0.0134117
-0.0648727
-0.0246214
0.0239973
-0.0691959
0.053081
-0.0538524
-0.0034204
0.0570933
-0.0573307
-0.00366485
0.00345115
0.0577464
-0.00410432
0.0525976
-0.00316689
0.00315916
0.0576029
-0.0235376
0.000140979
0.000195726
-0.0462604
0.0528138
-0.0524458
-0.000226961
-0.0526883
0.0531919
0.00150804
0.00159579
-0.0533192
0.0537262
0.00236609
0.00256728
-0.0538848
0.0544134
0.00313776
0.00324824
-0.0553546
0.0564035
0.00238349
0.00286239
-0.0575237
0.0586578
0.000974146
0.00175626
-0.0597738
0.0608276
-0.000919422
7.24355e-05
-0.0617681
0.0625608
-0.00299665
-0.00197197
-0.0631912
0.0636391
-0.00494832
-0.00403275
-0.0639066
0.0639979
-0.00653133
-0.00583159
-0.0639293
0.0637223
-0.00762074
-0.00717983
-0.0633999
0.0629903
-0.00821205
-0.00801595
-0.0625151
0.0620004
-0.00838081
-0.0083826
-0.0614617
0.0609184
-0.00823194
-0.00837656
-0.0603791
0.0598567
-0.00786416
-0.00810347
-0.0593545
0.0588799
-0.00735473
-0.00765268
-0.0584331
0.0580181
-0.00675825
-0.00709012
-0.0576335
0.0572812
-0.00611108
-0.00646084
-0.0569593
0.0566684
-0.00543663
-0.00579423
-0.0564069
0.0561746
-0.00474991
-0.00510909
-0.05597
0.0557928
-0.00406099
-0.0044176
-0.0556418
0.0555156
-0.00337731
-0.00372822
-0.054997
0.0543225
-0.00291254
-0.00331504
-0.00421802
-0.0377846
0.00114696
-0.000686665
0.0015846
-0.0471583
-0.0527036
-0.000428926
-0.00266201
0.00267077
0.0536175
0.00290047
-0.00305779
0.0527549
0.0536882
-0.00248396
0.00240899
0.0540441
0.0547541
-0.00192319
0.00215314
0.0534059
0.0544479
-0.00238476
0.0025426
0.0513655
0.0525867
-0.00254892
0.00235188
0.0502729
0.0507624
-0.00194733
0.00138379
0.0515097
0.0507667
-0.000740709
0.00011567
0.054652
0.0531521
0.00103312
-0.00218619
0.057581
0.0560047
0.057505
0.0584253
-0.059083
-0.000710165
-0.00111681
0.0596287
-0.0593747
0.00048459
0.000126311
0.0590791
-0.0587421
0.00118764
0.000822358
0.0583784
-0.0579887
0.00183662
0.00150112
0.0575901
-0.0571829
0.00235959
0.00209023
0.0567836
-0.0563907
0.00269536
0.00252274
0.0560169
-0.0556578
0.00279823
0.00274535
0.0553211
-0.054999
0.00263693
0.0027205
0.0546945
-0.0543979
0.00218871
0.00242195
0.0541108
-0.0538252
0.00143633
0.00182967
0.0535456
-0.0532697
0.000372757
0.000930318
0.0530088
-0.0527667
-0.00098829
-0.000275481
0.0525568
-0.0523876
-0.00260109
-0.00175493
0.0522727
-0.0522194
-0.00441189
-0.00346005
0.0522364
-0.0523301
-0.00636436
-0.00533319
0.0525038
-0.0527651
-0.00841463
-0.00732407
0.0531141
-0.0535609
-0.0105285
-0.00939521
0.054104
-0.0547564
-0.0126697
-0.0115133
0.0555134
-0.056391
-0.0147872
-0.0136367
0.0573809
-0.0584895
-0.0167926
-0.0156994
0.0596942
-0.0596806
-0.0185299
-0.01759
0.0605132
-0.0620752
-0.0208875
-0.0190793
0.0655074
-0.0718412
-0.0232503
-0.0233201
0.0745132
-0.0871065
-0.0120281
-0.0229207
-0.0333147
-0.0502442
-0.00354768
-0.0196715
0.0400001
-0.0536434
-0.0619551
-0.00796053
0.0154836
-0.0264114
-0.0134897
-0.0171393
-0.00415635
0.00269802
0.0590613
-0.00371459
0.0573047
0.0166651
-0.0293501
-0.00996284
-0.0124405
0.0176958
-0.0327583
-0.00599477
-0.0117367
0.0184752
-0.0355218
-0.00224144
-0.0164455
0.0176373
-0.0387607
0.000327294
-0.0263427
0.0173555
-0.0458012
0.0169892
-0.0574002
0.0202393
-0.0611148
0.0244904
-0.0536862
-0.0388642
0.00266416
0.00211337
-0.0530572
-0.00175974
0.00288602
-0.0479309
-0.00321057
0.00358549
-0.0534321
0.0533522
-0.052494
-0.00391604
-0.0117076
0.0171888
-0.0591246
-0.00324448
0.00239091
0.0536085
-0.0602992
-0.0133635
-0.00283163
0.0529394
-0.0215436
-0.0562584
0.0562834
-0.0017848
-0.00300602
-0.0566917
0.0565588
-9.40392e-05
-0.000837163
-0.0573712
0.0577243
0.00115492
0.000783347
-0.0579821
0.0578305
0.00251775
0.00230947
-0.0585293
0.0592899
0.00237723
0.00254939
-0.0600997
0.0609294
0.00155385
0.00205253
-0.0617612
0.062555
0.000180337
0.000924432
-0.0632961
0.0639284
-0.00155171
-0.000668683
-0.0644412
0.0648109
-0.00336635
-0.00248474
-0.0650315
0.0650991
-0.00501589
-0.00425342
-0.0650208
0.0648103
-0.0063209
-0.00575323
-0.0644841
0.064066
-0.00720271
-0.00685356
-0.0635746
0.0630355
-0.00767286
-0.00752457
-0.0624634
0.0618796
-0.007797
-0.00781051
-0.0612932
0.0607192
-0.00765798
-0.00779019
-0.0601616
0.0596298
-0.0073323
-0.00754584
-0.0591241
0.05865
-0.00688069
-0.00714701
-0.0582062
0.0577954
-0.00634746
-0.00664626
-0.0574155
0.0570678
-0.00576341
-0.00608093
-0.0567501
0.056463
-0.00514947
-0.00547655
-0.0562043
0.0559742
-0.00451984
-0.00485041
-0.055771
0.0555945
-0.00388445
-0.00421439
-0.0554432
0.0553165
-0.00325069
-0.00357692
-0.0549467
0.0550259
-0.00299173
-0.00294517
-0.0537446
0.0534561
-0.00313186
-0.00293675
-0.0022048
-0.00246638
0.00189259
0.0541913
0.0536127
-0.00202567
0.00140539
0.0546643
0.0546211
-0.00158748
0.00180357
0.0531898
0.0542658
-0.0020036
0.00211101
0.051258
0.0523867
-0.00205676
0.00180484
0.0505248
0.0508166
-0.00136568
0.000797914
0.0520774
0.0512059
-0.000181259
-0.000393123
0.0552264
0.0537687
0.00147113
-0.00208938
0.0581992
0.0570827
0.0581137
-0.0562824
-0.00464324
0.0572111
0.0582961
-0.0598842
-0.00207684
-0.00209058
0.0596844
-0.0601372
-0.000257359
-0.0013166
0.0600371
-0.0598898
0.000337229
2.62789e-05
0.0597001
-0.0594664
0.000953861
0.000632717
0.0591981
-0.0588942
0.00153279
0.00123282
0.0585673
-0.0582162
0.0020085
0.00176334
0.0578539
-0.0574778
0.00231927
0.00216037
0.0570996
-0.0567149
0.00241346
0.0023672
0.056333
-0.0559478
0.00225174
0.00233863
0.0555675
-0.0551859
0.00180713
0.00204163
0.054812
-0.0544422
0.00106648
0.00145578
0.054088
-0.0537498
3.4546e-05
0.000576177
0.0534428
-0.0531695
-0.00126163
-0.000582486
0.0529435
-0.0527697
-0.0027749
-0.00198088
0.0526585
-0.0526144
-0.00445602
-0.00357129
0.0526432
-0.0527498
-0.00625772
-0.00530435
0.0529364
-0.0532099
-0.0081412
-0.00713747
0.0535697
-0.0540258
-0.0100725
-0.00903539
0.0545754
-0.0552315
-0.0120136
-0.0109637
0.0559889
-0.0568631
-0.013913
-0.0128793
0.0578435
-0.0589444
-0.0156917
-0.014719
0.0601528
-0.0614732
-0.0172094
-0.0163816
0.0628668
-0.0654717
-0.0182826
-0.0176857
0.0681854
-0.0716979
-0.0197378
-0.0206064
0.0776431
-0.0739702
-0.015701
-0.0169755
0.0666615
-0.06382
-0.0108021
-0.0108563
0.00226049
0.00532829
-0.067888
0.0659927
-0.0522133
-0.011519
-0.0111908
0.0144116
-0.0241579
-0.0121268
-0.0149754
0.0153614
-0.0270157
-0.00796092
-0.0104744
0.0161542
-0.0304373
-0.0036058
-0.0103723
0.0166165
-0.0345009
-4.16645e-05
-0.0160765
0.0167668
-0.038172
0.00196141
-0.0271572
0.0155325
-0.0443445
0.0155252
-0.0526861
0.0181567
-0.0547811
0.0174084
-0.0539058
0.00830686
-0.0621031
-0.00668737
0.0469944
-0.0925203
0.00206171
-0.076637
0.0581045
-0.00773096
-0.0584189
0.00804529
-0.0402766
0.00429849
0.00431763
-0.0486631
0.00526274
-0.0544361
-0.00282813
0.00276754
0.0536691
0.0527952
-0.0536753
-0.00303587
0.0563229
-0.0577203
-0.00324578
0.00423401
0.0555413
-0.00345239
0.00368937
0.0577557
0.0534129
-0.00344933
-0.00360168
0.0537129
-0.0192589
-0.0578773
0.0580594
-0.00479226
-0.0063628
-0.0583175
0.0585548
-0.00202214
-0.00326416
-0.0588782
0.0592117
-0.000427611
-0.00116048
-0.059253
0.059134
0.001274
0.000742048
-0.0598081
0.0605183
0.00180754
0.00163535
-0.061248
0.0619758
0.00164938
0.0018197
-0.0626954
0.0633772
0.000872077
0.00133295
-0.0640106
0.0645698
-0.000378775
0.000290959
-0.065033
0.0653801
-0.00189885
-0.00113189
-0.0656036
0.0656949
-0.00345768
-0.00270824
-0.0656552
0.0654912
-0.00485187
-0.00421373
-0.0652128
0.0648382
-0.00594634
-0.00547481
-0.0643819
0.0638669
-0.00668765
-0.00639725
-0.0633067
0.062723
-0.00708917
-0.00696442
-0.0621254
0.0615308
-0.00720241