/*--------------------------------*- C++ -*----------------------------------*\
  =========                 |
  \\      /  F ield         | OpenFOAM: The Open Source CFD Toolbox
   \\    /   O peration     | Website:  https://openfoam.org
    \\  /    A nd           | Version:  10
     \\/     M anipulation  |
\*---------------------------------------------------------------------------*/
FoamFile
{
    format      ascii;
    class       volVectorField;
    location    "12.5";
    object      U;
}
// * * * * * * * * * * * * * * * * * * * * * * * * * * * * * * * * * * * * * //

dimensions      [0 1 -1 0 0 0 0];

internalField   nonuniform List<vector> 
14667
(
(1.03755 0.0665566 -1.10262e-19)
(0.88786 0.0444619 -4.59213e-20)
(0.58314 0.0251325 -3.30162e-21)
(0.703771 0.0220482 4.93313e-22)
(0.687067 0.0236115 9.80494e-22)
(0.991043 -0.0892101 -2.51336e-20)
(1.03297 -0.0819055 5.51352e-20)
(0.460279 0.037888 -1.52682e-21)
(0.548381 0.0279498 0)
(0.677664 0.0261797 -3.00087e-22)
(1.03703 -0.0666895 -2.41504e-20)
(1.02545 -0.0392876 1.29655e-20)
(0.986111 -0.0231207 -3.28617e-20)
(0.886377 -0.0752016 9.71683e-20)
(0.509438 0.0228928 -2.45274e-21)
(1.01839 -0.0305621 0)
(1.01869 -0.0289892 0)
(0.625714 0.0118076 -8.53958e-22)
(0.373535 0.0138146 0)
(1.04005 -0.0580936 0)
(1.05608 0.0847962 -7.87984e-20)
(0.885533 -0.00305073 5.76782e-20)
(0.997377 0.0158543 0)
(1.00135 0.0403734 3.78929e-21)
(0.00256154 -0.0725416 5.98449e-20)
(0.351402 -0.0943713 2.02537e-19)
(-0.0297533 -0.0550335 6.11915e-20)
(-0.122319 -0.0988335 -2.33282e-19)
(-0.118145 -0.0762083 4.26423e-21)
(0.806328 0.0853575 1.6063e-20)
(0.857616 0.056067 -1.51238e-21)
(0.871541 0.0283518 -4.50776e-20)
(-0.0455378 0.0532317 1.28438e-20)
(-0.0767426 0.0355009 6.85785e-20)
(-0.153664 0.0116094 7.32321e-20)
(0.000558258 0.0256766 -1.11352e-19)
(0.0256224 0.0826203 -1.55401e-21)
(0.484952 -0.0570028 1.51672e-21)
(0.480554 -0.0331375 1.18764e-21)
(0.615001 -0.0210868 -1.58486e-22)
(0.604245 -0.0161643 0)
(0.493982 0.00849048 -1.56016e-20)
(0.545038 -0.202574 5.23491e-19)
(0.60387 -0.0803238 -1.71464e-19)
(0.423668 -0.0442808 -1.1993e-19)
(0.348972 -0.25637 8.03923e-20)
(0.569474 -0.414387 -7.58618e-21)
(1.01648 0.126857 -9.87608e-20)
(1.0605 0.118025 3.1001e-20)
(0.694648 0.139265 0)
(0.666782 0.142935 0)
(0.731729 0.0274182 0)
(0.792327 0.00627904 0)
(0.848223 0.00441105 -7.88696e-20)
(1.35692 -0.286192 2.09783e-20)
(1.39022 -0.261241 1.26521e-20)
(1.28937 0.269871 3.22485e-20)
(1.37042 0.267363 2.23508e-20)
(0.180182 0.193028 -3.12282e-20)
(0.312331 0.154893 2.47345e-20)
(-0.102531 -0.0762645 1.73853e-19)
(-0.0869894 -0.0561508 0)
(0.974955 -0.474216 -8.79972e-21)
(0.989145 -0.397073 -5.72299e-20)
(0.909088 -0.34954 -4.84271e-21)
(0.856191 -0.609694 -9.03609e-21)
(0.929829 -0.545294 4.91295e-20)
(0.473515 0.687109 5.70477e-20)
(0.774331 0.713837 -2.62566e-20)
(0.901487 0.033808 4.01807e-20)
(0.920225 0.0174537 -3.69987e-20)
(0.924501 0.0417304 -4.042e-20)
(0.142291 -0.0135739 0)
(0.141906 -0.246597 4.08939e-20)
(0.73135 0.127679 4.1101e-20)
(0.949005 0.0744804 5.85449e-20)
(1.10805 0.076909 -1.89402e-19)
(1.0089 0.102852 1.14916e-19)
(0.909625 -0.000611924 2.12156e-19)
(0.895102 -0.0319738 1.69233e-22)
(0.699182 -0.0133309 -7.49315e-22)
(0.776064 -0.0118121 0)
(0.70852 -0.0158993 1.30706e-21)
(0.887859 0.0204092 -2.20963e-22)
(0.886563 0.0213643 0)
(-0.16008 0.114578 0)
(-0.227588 0.15028 -8.34324e-20)
(0.368911 0.179156 1.68396e-20)
(0.554486 0.146656 -9.89159e-20)
(1.02221 -0.156632 -3.72355e-20)
(1.20994 -0.170268 5.04792e-20)
(1.0983 -0.114673 -9.97386e-22)
(1.09379 -0.0847705 2.30769e-21)
(1.00134 -0.128787 -1.53601e-21)
(1.03331 -0.128402 7.57847e-22)
(0.79463 0.25922 -3.32639e-21)
(0.720427 0.264164 -2.30606e-21)
(0.98678 0.41299 3.04065e-22)
(0.926441 0.410636 4.20921e-23)
(1.05813 0.4477 2.17817e-21)
(0.994794 0.44868 -6.69213e-22)
(1.43138 -0.317521 6.16659e-21)
(1.42472 -0.260409 3.90368e-20)
(0.930545 0.128578 7.09849e-21)
(0.910528 0.103009 -2.50327e-20)
(0.936651 0.0853774 3.26729e-21)
(0.956652 0.107347 3.1369e-21)
(0.960085 0.17202 2.17328e-20)
(0.948623 0.142664 4.71456e-22)
(0.414675 -0.0157814 5.84067e-22)
(0.252007 -0.00990059 -7.40071e-23)
(0.274135 -0.00540775 -1.00437e-21)
(0.439084 -0.00954902 0)
(0.540453 -0.0247046 1.46151e-21)
(0.554071 -0.0165241 -5.95073e-22)
(1.22868 -0.137767 -9.76816e-21)
(1.24769 -0.151441 2.5201e-20)
(1.23676 -0.13942 0)
(0.373405 -0.0347025 -1.32531e-21)
(0.285707 -0.0326983 -5.05377e-22)
(0.428195 -0.0254503 -2.37447e-22)
(1.00045 -0.134145 6.88895e-22)
(1.03255 -0.134882 -3.5175e-21)
(1.02662 -0.141171 1.82109e-21)
(1.02679 -0.146213 -2.20475e-21)
(0.995315 -0.143006 0)
(0.996839 -0.138874 -4.10145e-22)
(1.0268 -0.151098 6.18161e-21)
(1.01677 -0.15359 -3.10027e-21)
(0.982788 -0.14672 0)
(0.995458 -0.14635 0)
(1.00831 -0.154268 0)
(0.995345 -0.152766 3.07506e-21)
(0.958083 -0.141632 0)
(0.973436 -0.1455 0)
(0.980691 -0.148479 -3.09037e-21)
(0.962523 -0.141196 0)
(0.922101 -0.124939 0)
(0.942038 -0.134902 0)
(0.941802 -0.130435 2.92109e-21)
(0.917857 -0.11595 -2.90006e-21)
(0.875407 -0.0939454 0)
(0.900169 -0.111329 0)
(0.891422 -0.0975798 0)
(0.862358 -0.0751759 -2.7282e-21)
(0.82066 -0.0474511 -6.99452e-25)
(0.848809 -0.0726 0)
(0.831488 -0.0488642 2.74622e-21)
(0.799446 -0.0192651 0)
(0.762395 0.0134863 0)
(0.791789 -0.0186636 0)
(0.768383 0.0115439 -2.65965e-24)
(0.738202 0.0445108 0)
(0.708635 0.0800075 0)
(0.733982 0.0472929 0)
(0.706801 0.0817665 -4.86677e-21)
(0.68224 0.115404 4.28371e-21)
(0.673546 0.140768 6.01818e-22)
(0.688176 0.111396 0)
(0.654516 0.151782 0)
(0.639029 0.184102 0)
(0.668372 0.19155 1.12561e-21)
(0.665562 0.167462 -6.48324e-22)
(0.629189 0.209464 -1.24078e-21)
(0.628533 0.233439 -1.48567e-21)
(0.689887 0.230513 1.62931e-21)
(0.674448 0.211335 -1.54961e-21)
(0.707991 0.246577 -3.227e-21)
(0.6344 0.252566 2.94511e-21)
(1.00132 -0.122886 1.17932e-22)
(1.03198 -0.121657 -6.63909e-22)
(0.641539 0.269181 -2.40426e-24)
(0.971405 -0.122399 -5.02805e-22)
(0.972596 -0.116645 9.80976e-22)
(1.00059 -0.116495 1.7375e-23)
(1.06335 -0.126455 0)
(1.06198 -0.118766 7.02652e-22)
(0.583538 0.248278 5.78756e-22)
(0.616588 0.192782 2.86571e-21)
(0.595388 0.223391 -1.14034e-21)
(0.675486 0.121341 -1.97783e-21)
(0.643265 0.159746 2.02861e-21)
(0.739005 0.0500458 0)
(0.710075 0.0846003 0)
(0.812205 -0.0250749 2.46894e-24)
(0.774835 0.0111093 0)
(0.883634 -0.083705 -1.1389e-24)
(0.849079 -0.0563748 0)
(0.944 -0.126234 0)
(0.915443 -0.10713 0)
(0.990739 -0.151762 -2.73017e-24)
(0.969155 -0.141064 0)
(1.0238 -0.162421 -6.20569e-26)
(1.00897 -0.158786 0)
(1.04493 -0.16177 0)
(1.0359 -0.163362 0)
(1.05644 -0.153465 -5.25235e-26)
(1.05234 -0.158503 0)
(1.06004 -0.141164 0)
(1.06108 -0.147508 0)
(1.06469 -0.133952 1.85316e-21)
(1.06034 -0.111049 6.63944e-22)
(1.03129 -0.114436 -6.84865e-22)
(0.966925 -0.131509 3.00343e-22)
(0.970191 -0.12748 0)
(0.956585 -0.136412 3.63175e-23)
(0.961273 -0.134359 3.49452e-22)
(0.938131 -0.135419 0)
(0.949214 -0.137121 1.22194e-23)
(0.90989 -0.125462 0)
(0.9257 -0.131811 0)
(0.872634 -0.104151 0)
(0.892663 -0.116398 0)
(0.828007 -0.0698231 0)
(0.851169 -0.0886478 0)
(0.780405 -0.0230712 0)
(0.804213 -0.0478286 0)
(0.738411 0.0320161 0)
(0.758066 0.00383277 0)
(0.711132 0.0898485 0)
(0.722438 0.0610782 0)
(0.706057 0.141056 7.11909e-22)
(0.705517 0.117001 0)
(0.726418 0.183686 -4.02729e-22)
(0.712709 0.163591 3.63124e-23)
(0.763733 0.218769 1.70172e-21)
(0.742775 0.201323 0)
(0.782742 0.237665 4.21334e-21)
(0.999582 -0.109861 3.94836e-22)
(0.974178 -0.110054 -9.16417e-23)
(0.575349 0.267713 -7.48991e-22)
(0.730539 0.282258 1.59618e-21)
(1.08363 -0.107657 0)
(1.08055 -0.0991636 -1.54437e-22)
(1.05776 -0.10312 -1.55606e-22)
(0.801793 0.282034 0)
(0.572979 0.226936 4.50667e-22)
(0.641592 0.161735 2.66604e-22)
(0.604655 0.196336 0)
(0.724612 0.0847314 1.38316e-21)
(0.680867 0.124551 -1.63667e-21)
(0.804157 0.0110282 0)
(0.762597 0.0489592 -5.42902e-22)
(0.884248 -0.0576203 -1.96777e-24)
(0.845302 -0.0249756 0)
(0.953315 -0.111766 2.20786e-25)
(0.92055 -0.0868342 0)
(1.00703 -0.148012 1.07701e-24)
(0.982219 -0.132166 0)
(1.045 -0.167179 1.02262e-25)
(1.02791 -0.159558 0)
(1.06934 -0.17251 -7.75623e-26)
(1.05874 -0.17133 0)
(1.083 -0.167833 0)
(1.0774 -0.171163 0)
(1.08895 -0.156652 -5.32346e-26)
(1.08696 -0.162791 0)
(1.08956 -0.141794 0)
(1.09009 -0.149356 0)
(1.08739 -0.124907 -2.80347e-24)
(1.08962 -0.133487 -9.85813e-23)
(1.08586 -0.116329 -1.10218e-21)
(1.02917 -0.107149 1.23426e-24)
(0.95905 -0.106541 -1.31117e-22)
(0.948074 -0.119081 -4.85874e-22)
(0.953319 -0.113516 -2.95819e-22)
(0.93721 -0.126454 -1.6585e-22)
(0.943204 -0.123593 1.64444e-22)
(0.921592 -0.128281 -7.45236e-25)
(0.929127 -0.127983 -1.13601e-23)
(0.899337 -0.123077 0)
(0.91096 -0.126665 0)
(0.870636 -0.109013 0)
(0.885853 -0.117296 0)
(0.836318 -0.0843772 0)
(0.854138 -0.0981008 0)
(0.799708 -0.0487123 0)
(0.81804 -0.0678736 0)
(0.767045 -0.00387026 0)
(0.782396 -0.0272139 0)
(0.746614 0.045158 0)
(0.754763 0.0206289 0)
(0.746074 0.0911502 0)
(0.743628 0.0688413 0)
(0.765739 0.131162 0)
(0.753701 0.11189 0)
(0.798119 0.167877 -4.01129e-22)
(0.781 0.149634 3.9279e-22)
(0.833241 0.207375 -2.55264e-21)
(0.816462 0.186821 0)
(0.856049 0.255497 1.71762e-21)
(0.845127 0.230674 -2.58685e-21)
(0.805098 0.305586 1.42422e-21)
(0.867057 0.308688 -1.09256e-21)
(0.860398 0.282127 3.76829e-22)
(0.546848 0.251818 2.64533e-23)
(0.650324 0.284076 1.50112e-21)
(0.733115 0.301183 -6.74481e-23)
(1.05368 -0.0954247 1.49724e-22)
(0.806288 0.328537 0)
(0.868336 0.33472 1.18893e-21)
(1.07673 -0.0908031 3.01461e-22)
(0.959883 -0.0988433 0)
(1.10021 -0.103974 3.06663e-22)
(1.09705 -0.0950333 5.61519e-24)
(0.971352 -0.0900322 0)
(0.965235 -0.0985846 1.35615e-22)
(0.525897 0.270878 -2.3666e-21)
(0.57249 0.28354 0)
(0.530632 0.241858 4.884e-22)
(0.609498 0.190558 -6.03969e-22)
(0.568825 0.218796 -2.71048e-22)
(0.701516 0.120706 4.1533e-23)
(0.65575 0.156493 -3.86835e-22)
(0.796631 0.04326 7.59128e-24)
(0.74961 0.081881 -6.98995e-24)
(0.885343 -0.0316873 0)
(0.841857 0.00505484 -5.62256e-23)
(0.962308 -0.0951901 2.14391e-25)
(0.925773 -0.0654988 0)
(1.02271 -0.141201 9.19176e-25)
(0.994718 -0.120508 0)
(1.06562 -0.168996 -1.07701e-24)
(1.04632 -0.157303 0)
(1.09275 -0.180714 7.72135e-26)
(1.08098 -0.176646 0)
(1.10748 -0.18014 -6.77878e-26)
(1.10146 -0.181702 0)
(1.11342 -0.171192 0)
(1.11139 -0.176471 0)
(1.11364 -0.15711 -1.37211e-24)
(1.11417 -0.164584 0)
(1.1104 -0.140219 0)
(1.11253 -0.148827 0)
(1.10562 -0.122163 6.28444e-23)
(1.10836 -0.131198 -2.52112e-22)
(1.10297 -0.11304 1.30688e-23)
(0.997111 -0.102797 2.79505e-22)
(1.02547 -0.099966 0)
(0.975116 -0.102784 -1.47155e-22)
(0.93976 -0.111851 3.10723e-22)
(0.949289 -0.106212 0)
(0.921008 -0.118277 0)
(0.930556 -0.115934 0)
(0.900662 -0.118181 7.45398e-25)
(0.91101 -0.119113 0)
(0.877171 -0.110459 0)
(0.889166 -0.115309 0)
(0.850741 -0.094069 0)
(0.864217 -0.103385 0)
(0.823377 -0.0684647 0)
(0.836977 -0.0823993 0)
(0.799436 -0.0345399 0)
(0.810637 -0.0524023 0)
(0.785229 0.00469406 1.20283e-24)
(0.790706 -0.0153109 0)
(0.786792 0.0443281 1.31285e-24)
(0.783769 0.02474 0)
(0.806079 0.0806588 0)
(0.794438 0.0630008 0)
(0.836633 0.114935 0)
(0.820639 0.0976972 0)
(0.867289 0.15307 0)
(0.85266 0.133211 0)
(0.890684 0.199158 -3.96343e-22)
(0.880431 0.174983 0)
(0.90627 0.252243 0)
(0.898088 0.224968 1.61513e-21)
(0.91824 0.308762 -1.66413e-21)
(0.910487 0.280456 3.38157e-22)
(0.926148 0.363735 2.97221e-22)
(0.922559 0.33689 0)
(0.652129 0.29807 1.43218e-21)
(0.507069 0.283958 1.49638e-21)
(0.496374 0.257971 -8.7471e-22)
(0.97318 -0.0891893 0)
(0.984273 -0.0797504 1.03944e-22)
(0.735781 0.319735 -2.03401e-21)
(0.868959 0.359675 -5.32675e-22)
(0.803783 0.350729 0)
(0.865175 0.382377 0)
(1.09369 -0.0864236 -4.30039e-22)
(0.927902 0.38887 -2.98909e-22)
(0.567939 0.295197 6.29158e-22)
(0.464028 0.268412 8.89169e-22)
(0.500771 0.229876 9.05171e-22)
(0.591757 0.197841 -2.80322e-22)
(0.545646 0.216816 4.81528e-22)
(0.690578 0.1423 -2.49241e-22)
(0.641886 0.171797 5.43452e-22)
(0.792244 0.0718906 1.83478e-24)
(0.742114 0.108128 0)
(0.888972 -0.00340206 -6.01337e-25)
(0.841806 0.0341632 0)
(0.973186 -0.0727205 0)
(0.933018 -0.0394576 0)
(1.03976 -0.127532 1.37001e-25)
(1.0089 -0.102311 0)
(1.08712 -0.164154 0)
(1.06582 -0.14815 0)
(1.11676 -0.183342 9.06454e-25)
(1.10399 -0.175771 0)
(1.13206 -0.188226 1.14572e-24)
(1.12596 -0.187323 0)
(1.13714 -0.182831 -1.25686e-24)
(1.13563 -0.186561 0)
(1.13577 -0.170833 0)
(1.13708 -0.17745 0)
(1.13084 -0.155022 -1.24451e-24)
(1.13364 -0.16325 0)
(1.12429 -0.137271 0)
(1.12776 -0.146272 7.50175e-29)
(1.11732 -0.118824 1.96012e-23)
(1.12095 -0.128055 0)
(1.11073 -0.100475 -1.52801e-22)
(1.11403 -0.109595 1.61982e-22)
(1.10458 -0.0826762 5.61615e-22)
(1.1077 -0.0914438 1.54211e-22)
(1.0908 -0.0778833 2.72642e-22)
(1.04968 -0.0877032 -1.51399e-22)
(1.07342 -0.0825596 -1.36823e-22)
(0.995897 -0.0952881 0)
(1.0221 -0.0925232 0)
(0.977818 -0.0944873 -1.31486e-22)
(1.01019 -0.0671602 -1.79128e-22)
(0.978883 -0.0871876 -5.33293e-23)
(0.994023 -0.077912 -9.55829e-23)
(0.952255 -0.100586 0)
(0.964827 -0.094873 -6.46519e-23)
(0.927578 -0.107188 0)
(0.939672 -0.104778 0)
(0.903764 -0.106632 0)
(0.915563 -0.107868 0)
(0.880421 -0.0983055 0)
(0.891964 -0.103456 0)
(0.858416 -0.0819713 0)
(0.869114 -0.0911147 0)
(0.840316 -0.0581644 0)
(0.848652 -0.0709087 0)
(0.830243 -0.0287385 0)
(0.833994 -0.0439732 0)
(0.832462 0.00319492 -1.20283e-24)
(0.82965 -0.0128646 0)
(0.848534 0.0346789 -1.31284e-24)
(0.838844 0.0190989 0)
(0.874626 0.0656419 0)
(0.860853 0.0500617 0)
(0.901745 0.100065 0)
(0.888649 0.0820695 0)
(0.922696 0.142477 0)
(0.913209 0.120154 0)
(0.936565 0.192848 3.86751e-22)
(0.93036 0.166846 0)
(0.94796 0.248381 0)
(0.942337 0.220139 0)
(0.9606 0.305969 0)
(0.953806 0.27711 -3.09783e-22)
(0.974376 0.362757 5.64622e-22)
(0.967736 0.334701 4.37613e-22)
(0.981863 0.389046 -9.67794e-23)
(1.10185 -0.0741063 -6.7022e-22)
(0.653913 0.311478 -3.09422e-22)
(0.490477 0.292547 -1.526e-21)
(0.731077 0.337775 6.04175e-22)
(0.459995 0.234363 -6.24236e-22)
(0.43467 0.270837 0)
(0.79482 0.370034 -2.67255e-22)
(1.04748 -0.0528824 3.89271e-22)
(1.06429 -0.0415111 -8.03965e-23)
(1.0269 -0.0554876 2.33268e-22)
(0.856701 0.401216 -4.18053e-23)
(0.924957 0.428506 -3.68616e-23)
(1.1104 -0.0794327 0)
(1.10776 -0.0709024 0)
(0.992244 0.433155 8.47277e-22)
(0.563992 0.304445 -1.03369e-23)
(0.420329 0.231947 -1.13634e-23)
(0.505856 0.189639 1.13476e-23)
(0.595427 0.182969 -2.47966e-23)
(0.549281 0.189929 0)
(0.696884 0.147233 -2.47829e-22)
(0.645981 0.168026 0)
(0.801483 0.0903004 0)
(0.750299 0.12039 4.13819e-23)
(0.900512 0.0220461 0)
(0.851959 0.0569998 0)
(0.9888 -0.0474209 0)
(0.946484 -0.0132512 0)
(1.05997 -0.107723 -1.74269e-25)
(1.02682 -0.0792288 0)
(1.11098 -0.152429 8.3363e-25)
(1.08804 -0.132265 0)
(1.14257 -0.179571 0)
(1.12905 -0.168146 0)
(1.15804 -0.191007 -4.77606e-26)
(1.15206 -0.187046 0)
(1.16178 -0.190361 -1.026e-24)
(1.16109 -0.191943 0)
(1.15812 -0.181504 1.12939e-24)
(1.16064 -0.186733 0)
(1.15054 -0.167656 0)
(1.15465 -0.175035 0)
(1.14143 -0.151087 1.24451e-24)
(1.14607 -0.159597 0)
(1.13226 -0.133247 0)
(1.13681 -0.14225 -7.50175e-29)
(1.1238 -0.114998 0)
(1.12794 -0.124123 0)
(1.11648 -0.0969455 1.32785e-22)
(1.12 -0.105907 0)
(1.11331 -0.0880899 -2.59512e-22)
(1.08671 -0.0698709 0)
(1.10517 -0.0627558 -1.18202e-22)
(1.09861 -0.0659298 2.60352e-22)
(1.04493 -0.0801385 -1.34299e-22)
(1.06863 -0.0747826 1.34049e-22)
(0.99508 -0.0872866 0)
(1.01847 -0.0849218 0)
(0.981443 -0.0793947 0)
(0.981279 -0.085665 0)
(0.997383 -0.0688479 -2.94987e-22)
(1.01414 -0.072922 0)
(1.03048 -0.0635531 0)
(0.984921 -0.0867523 0)
(0.999345 -0.0805903 0)
(0.957486 -0.0942445 -6.27681e-25)
(0.97088 -0.0913634 0)
(0.932607 -0.0946046 0)
(0.944669 -0.095352 0)
(0.911086 -0.0875645 0)
(0.921344 -0.0920001 0)
(0.894421 -0.0734969 0)
(0.902017 -0.0813459 0)
(0.884956 -0.0535892 0)
(0.888628 -0.0641537 0)
(0.885194 -0.0298252 0)
(0.883753 -0.0420409 0)
(0.896054 -0.00425952 0)
(0.889384 -0.0171723 0)
(0.914786 0.0227722 0)
(0.904764 0.00899244 0)
(0.935454 0.0533004 0)
(0.925341 0.0373875 0)
(0.952045 0.0906754 1.41118e-24)
(0.944483 0.0709653 1.72939e-28)
(0.963346 0.136229 0)
(0.958231 0.112499 0)
(0.972405 0.188058 -1.09092e-25)
(0.967912 0.161533 0)
(0.982893 0.243458 0)
(0.977309 0.215495 0)
(0.997239 0.300304 -5.18014e-23)
(0.989603 0.271801 2.91002e-22)
(1.01574 0.35658 -5.2493e-22)
(1.00623 0.328733 -3.47679e-22)
(1.03732 0.408207 -3.21271e-22)
(1.02701 0.383384 1.3009e-22)
(1.04828 0.430046 -1.46808e-21)
(0.648103 0.323435 5.65412e-22)
(0.473218 0.295431 8.87137e-22)
(1.0426 -0.0435677 1.25954e-22)
(1.08049 -0.0297336 8.12121e-23)
(0.717786 0.352783 0)
(0.404533 0.267517 6.36147e-22)
(0.78038 0.385233 2.14379e-22)
(0.465995 0.181407 -4.95795e-23)
(0.38383 0.220838 4.94894e-23)
(0.848695 0.415722 4.87483e-22)
(0.919087 0.440585 7.6828e-22)
(1.10761 -0.0602318 -3.38274e-22)
(0.990787 0.457539 2.66295e-21)
(1.06296 0.459901 8.27184e-22)
(1.10272 -0.0548556 -1.12791e-22)
(1.10569 -0.0525562 0)
(0.555326 0.310388 0)
(0.430188 0.165671 2.34454e-21)
(0.574784 0.132518 -4.62504e-22)
(0.644534 0.14759 -7.76465e-22)
(0.606923 0.143498 7.84371e-22)
(0.732239 0.134678 -1.50086e-22)
(0.687282 0.144392 0)
(0.82944 0.0965091 -3.0957e-23)
(0.781349 0.117955 0)
(0.925542 0.0408564 0)
(0.878424 0.070219 3.11439e-23)
(1.0128 -0.0227094 0)
(0.970662 0.00939359 0)
(1.08512 -0.0838328 1.95329e-26)
(1.05121 -0.0541912 0)
(1.138 -0.133991 1.7427e-25)
(1.11414 -0.110675 0)
(1.17073 -0.168593 -7.54801e-25)
(1.15679 -0.153358 0)
(1.18594 -0.187196 -6.19506e-25)
(1.18028 -0.179782 0)
(1.18805 -0.192362 -8.58694e-25)
(1.18833 -0.191236 0)
(1.18178 -0.187753 4.49647e-26)
(1.1857 -0.191047 0)
(1.17109 -0.176822 -5.74661e-26)
(1.17678 -0.182889 0)
(1.15879 -0.162218 0)
(1.16501 -0.169847 0)
(1.14666 -0.145707 0)
(1.15263 -0.154118 0)
(1.13564 -0.128362 0)
(1.14097 -0.137089 0)
(1.12617 -0.110798 0)
(1.1307 -0.119577 0)
(1.11841 -0.0934394 -1.33559e-22)
(1.12208 -0.102075 0)
(1.11228 -0.0764853 -2.44795e-22)
(1.11519 -0.084945 3.85312e-22)
(1.10987 -0.0683397 0)
(1.08282 -0.062046 0)
(1.09547 -0.0579848 -1.17029e-22)
(1.03994 -0.0726029 6.09104e-23)
(1.06388 -0.0671359 -6.14984e-23)
(0.995075 -0.0786972 0)
(1.01507 -0.0770728 0)
(0.99116 -0.0684946 0)
(0.985901 -0.075983 0)
(1.01109 -0.0571701 -1.47561e-22)
(1.11869 -0.017533 -6.94726e-23)
(1.08974 -0.0389938 9.13386e-23)
(1.10468 -0.0283433 8.50985e-23)
(1.05981 -0.0579933 0)
(1.07439 -0.0490611 0)
(1.03142 -0.0723494 0)
(1.0457 -0.0657524 0)
(1.00461 -0.0810774 6.27681e-25)
(1.01776 -0.0774785 0)
(0.98106 -0.0832924 0)
(0.992348 -0.0830209 0)
(0.962329 -0.0788514 0)
(0.971004 -0.0818795 0)
(0.950005 -0.0683404 0)
(0.955279 -0.074285 0)
(0.945465 -0.0529348 0)
(0.946717 -0.0611554 0)
(0.949027 -0.0339337 0)
(0.946302 -0.0438147 0)
(0.958868 -0.011887 1.21254e-24)
(0.953391 -0.023308 0)
(0.970997 0.0142753 1.27684e-24)
(0.964971 0.000540385 0)
(0.98102 0.0466204 0)
(0.976458 0.0295697 0)
(0.987477 0.086351 -1.41118e-24)
(0.984639 0.065561 -1.72939e-28)
(0.99251 0.132673 0)
(0.989959 0.108819 0)
(0.999485 0.183478 -1.26827e-25)
(0.99558 0.15764 0)
(1.01081 0.237056 0)
(1.00452 0.210031 0)
(1.02758 0.292126 0)
(1.01849 0.264484 0)
(1.05029 0.346885 -3.28934e-23)
(1.03832 0.31964 0)
(1.07794 0.397907 0)
(1.0637 0.373254 -5.22146e-24)
(1.10837 0.438894 6.60339e-23)
(1.09231 0.420547 -6.69586e-22)
(1.06581 0.463596 -4.49186e-21)
(1.13497 0.459766 -2.05374e-21)
(1.12209 0.4528 2.1578e-21)
(0.632763 0.332726 -2.5631e-22)
(0.453325 0.293461 -2.90564e-22)
(0.698588 0.363553 0)
(0.373365 0.256293 -3.51592e-22)
(0.763762 0.395332 4.78042e-23)
(0.347662 0.202714 8.01526e-22)
(0.833277 0.423359 -3.27737e-22)
(0.544762 0.116192 0)
(0.395932 0.143462 -1.88385e-21)
(0.906854 0.444767 0)
(0.982525 0.457143 -2.62994e-21)
(1.14553 0.457981 -4.06881e-21)
(1.06586 0.458763 3.36568e-21)
(1.10729 -0.0582402 4.34222e-22)
(1.14898 0.446683 1.23788e-20)
(1.15238 -0.0077004 0)
(1.10044 -0.0472521 2.18549e-22)
(1.104 -0.0450814 1.0061e-22)
(1.16216 0.00177983 2.60056e-22)
(1.13221 -0.00667238 -1.93933e-22)
(1.20648 0.448246 5.24667e-20)
(1.10562 -0.0507963 -9.97309e-23)
(0.540289 0.313222 0)
(0.523038 0.0933694 -1.78709e-21)
(0.71293 0.081835 5.984e-22)
(0.753893 0.105914 -9.54878e-22)
(0.728107 0.09654 9.64093e-22)
(0.81213 0.11005 -6.63109e-22)
(0.779585 0.111008 2.73068e-22)
(0.887437 0.0909183 -1.18217e-22)
(0.848838 0.103138 3.03896e-22)
(0.970135 0.0514051 0)
(0.929105 0.0731991 0)
(1.04911 -0.00147854 0)
(1.01054 0.0260554 0)
(1.11733 -0.0583946 0)
(1.08504 -0.0300438 0)
(1.16881 -0.11023 -1.95329e-26)
(1.14542 -0.0854451 0)
(1.20112 -0.150357 0)
(1.18737 -0.132031 0)
(1.21551 -0.175933 -3.29125e-26)
(1.21036 -0.164991 0)
(1.21586 -0.187662 -9.32172e-27)
(1.21715 -0.18338 0)
(1.20692 -0.188379 0)
(1.21226 -0.189183 0)
(1.19302 -0.181433 3.85679e-26)
(1.20036 -0.185665 0)
(1.17734 -0.169693 -5.35641e-26)
(1.18525 -0.176012 0)
(1.16192 -0.155232 0)
(1.16951 -0.162702 0)
(1.14788 -0.13938 0)
(1.15468 -0.147418 0)
(1.13574 -0.12293 0)
(1.14155 -0.131194 0)
(1.12567 -0.106337 -9.61838e-25)
(1.13043 -0.114631 0)
(1.11767 -0.0898772 5.90807e-23)
(1.12139 -0.0980725 0)
(1.11161 -0.0737505 2.30695e-22)
(1.11438 -0.0817634 -5.95873e-23)
(1.10925 -0.0658432 -1.1203e-22)
(1.07824 -0.0546136 -5.63748e-23)
(1.09216 -0.0503923 1.71903e-22)
(1.03508 -0.0650454 0)
(1.0586 -0.0597745 0)
(0.996099 -0.0695398 0)
(1.01233 -0.0689011 0)
(1.00124 -0.0572366 0)
(0.991527 -0.0657055 0)
(1.05907 -0.0310606 -7.54465e-23)
(1.02504 -0.045051 5.47579e-23)
(1.09653 -0.0178357 -6.56145e-23)
(1.13017 -0.0269564 -1.73941e-22)
(1.14163 -0.0174082 -7.9046e-23)
(1.10658 -0.044551 0)
(1.11834 -0.0360895 0)
(1.08187 -0.0591211 0)
(1.09416 -0.0523458 0)
(1.0581 -0.0690481 0)
(1.06974 -0.0647422 0)
(1.03722 -0.073371 0)
(1.0472 -0.0719384 0)
(1.02091 -0.0718482 0)
(1.02842 -0.0733248 0)
(1.01035 -0.064849 0)
(1.01488 -0.0689887 0)
(1.00581 -0.0530237 0)
(1.00738 -0.0594967 0)
(1.00618 -0.0367634 0)
(1.00552 -0.0454453 0)
(1.00896 -0.0156886 -6.3083e-26)
(1.00747 -0.0268838 0)
(1.01134 0.0112666 -7.82516e-26)
(1.01035 -0.00300661 0)
(1.01187 0.0450291 0)
(1.01183 0.0272888 0)
(1.01172 0.085253 0)
(1.01172 0.0644108 0)
(1.01369 0.130435 0)
(1.01227 0.107343 0)
(1.02021 0.178941 -2.20984e-24)
(1.01627 0.154351 0)
(1.03271 0.229755 0)
(1.02566 0.204116 0)
(1.0519 0.281941 -6.59061e-23)
(1.04146 0.255757 0)
(1.07811 0.334284 1.01881e-25)
(1.06418 0.308207 6.67069e-23)
(1.11074 0.384094 -2.88017e-22)
(1.09366 0.359767 1.14729e-22)
(1.14739 0.425749 9.85987e-22)
(1.1284 0.406288 4.61776e-22)
(1.18425 0.451432 3.5185e-21)
(1.16586 0.44159 -2.17786e-21)
(1.19928 0.454765 -1.1219e-20)
(0.61078 0.337649 3.07574e-23)
(0.427601 0.2851 -2.92151e-22)
(1.14367 0.00349868 -8.89899e-23)
(1.17033 0.0106508 5.80771e-23)
(1.26929 0.425234 8.65149e-21)
(0.673051 0.368209 -4.50349e-23)
(0.340647 0.238433 0)
(0.739652 0.397871 -3.3794e-22)
(0.312293 0.176937 -8.01846e-22)
(0.81188 0.422373 1.33983e-22)
(0.368784 0.113761 0)
(0.888049 0.439475 1.60996e-21)
(0.700812 0.063513 -1.15978e-21)
(0.506462 0.0663309 2.35154e-21)
(0.972121 0.447549 0)
(1.05742 0.44566 3.9762e-21)
(1.14954 0.429773 4.44854e-22)
(1.10432 -0.0436159 9.99841e-23)
(0.516313 0.311044 0)
(0.701541 0.0415652 0)
(0.887069 0.0486112 2.79505e-22)
(0.89702 0.0749514 -1.57054e-21)
(0.887555 0.0635222 8.16125e-22)
(0.929784 0.0862474 -4.48078e-22)
(0.910067 0.0828361 4.48903e-22)
(0.97643 0.0801266 0)
(0.950834 0.0856202 9.63531e-23)
(1.03568 0.0555333 9.5708e-26)
(1.00513 0.0699813 0)
(1.09877 0.0154389 0)
(1.0674 0.0370985 0)
(1.15703 -0.0334063 0)
(1.12902 -0.00839413 0)
(1.20302 -0.0829462 0)
(1.18192 -0.0586004 0)
(1.23267 -0.125748 1.28297e-25)
(1.22001 -0.105568 0)
(1.24548 -0.15704 -2.6928e-25)
(1.24108 -0.142997 0)
(1.2441 -0.175452 8.67038e-25)
(1.24632 -0.167819 0)
(1.23281 -0.182354 -2.08935e-26)
(1.23941 -0.180184 0)
(1.21601 -0.180469 8.02028e-25)
(1.22486 -0.182324 0)
(1.19714 -0.172611 9.42471e-25)
(1.20666 -0.177127 0)
(1.17849 -0.161044 -5.03251e-26)
(1.18769 -0.167175 0)
(1.16136 -0.147348 0)
(1.16969 -0.154386 0)
(1.14635 -0.132534 0)
(1.15357 -0.140035 0)
(1.13367 -0.11721 0)
(1.13971 -0.124909 0)
(1.12332 -0.101736 9.61838e-25)
(1.1282 -0.109476 0)
(1.11521 -0.0863262 0)
(1.11897 -0.0940138 0)
(1.10923 -0.0711258 -8.367e-25)
(1.11191 -0.078681 0)
(1.10505 -0.0565009 9.49373e-23)
(1.10687 -0.0637124 0)
(1.10239 -0.042554 -8.89435e-23)
(1.10351 -0.0494066 -1.8542e-22)
(1.1033 -0.0366777 -1.80285e-22)
(1.09807 -0.0400037 -5.38527e-24)
(1.10253 -0.0379386 -1.98823e-22)
(1.07365 -0.0473887 0)
(1.08874 -0.0431471 -5.08989e-23)
(1.0307 -0.05737 0)
(1.05338 -0.0524966 0)
(0.998272 -0.0598656 0)
(1.01051 -0.0603851 0)
(1.01198 -0.0455586 0)
(0.998234 -0.0548687 0)
(1.07289 -0.0194758 0)
(1.03826 -0.0331222 0)
(1.10989 -0.00676628 1.19057e-22)
(1.18811 0.0147584 -2.48213e-22)
(1.17769 -0.000820071 7.33108e-23)
(1.18345 0.00723247 0)
(1.16297 -0.0176223 0)
(1.17056 -0.00920626 7.44937e-23)
(1.14561 -0.033887 0)
(1.15472 -0.0258667 0)
(1.12614 -0.0481214 0)
(1.13603 -0.0413474 0)
(1.10644 -0.0587639 -5.5577e-25)
(1.11621 -0.0539649 0)
(1.08833 -0.0647222 0)
(1.09709 -0.0623684 0)
(1.07323 -0.0654771 0)
(1.08035 -0.0657578 0)
(1.06183 -0.0609478 0)
(1.06707 -0.0638646 0)
(1.05385 -0.0511739 0)
(1.05749 -0.0567152 0)
(1.04805 -0.0359697 0)
(1.05079 -0.0442725 0)
(1.04278 -0.0148177 -1.14946e-24)
(1.04544 -0.0261723 0)
(1.03709 0.0127646 -1.19859e-24)
(1.03999 -0.00183576 0)
(1.03157 0.0466103 0)
(1.03423 0.028955 0)
(1.02811 0.0856923 0)
(1.02944 0.0655903 0)
(1.02892 0.128557 0)
(1.02787 0.106743 0)
(1.03557 0.174008 1.94073e-24)
(1.03145 0.151015 0)
(1.04906 0.221304 0)
(1.04141 0.197468 0)
(1.0702 0.269758 0)
(1.05864 0.245443 0)
(1.09954 0.318286 -1.10426e-25)
(1.08381 0.294102 0)
(1.13724 0.364662 0)
(1.1174 0.341964 0)
(1.18238 0.404153 7.41056e-23)
(1.15931 0.38554 -2.55702e-22)
(1.22937 0.427474 1.2174e-21)
(1.20586 0.41851 -1.14922e-21)
(1.25114 0.430284 -1.89649e-21)
(1.10163 -0.0359245 2.69857e-22)
(0.580791 0.336104 -3.07392e-23)
(0.397399 0.270863 0)
(0.889799 0.0307836 -1.55622e-22)
(0.708385 0.0179853 1.00495e-23)
(0.642828 0.365246 1.67254e-22)
(0.305381 0.212811 0)
(0.70961 0.391265 5.65041e-22)
(0.278222 0.143684 0)
(0.784134 0.411441 -1.05054e-21)
(0.343318 0.0790516 0)
(0.866223 0.423942 -1.5895e-21)
(0.501682 0.0351678 0)
(0.953031 0.427266 -6.29753e-21)
(1.04951 0.420633 2.68741e-21)
(1.26734 0.422613 2.1019e-21)
(1.19376 0.408501 -4.26826e-20)
(1.27829 0.388261 6.51332e-21)
(1.09914 -0.0416951 -8.31134e-23)
(1.19678 0.0163015 5.00274e-22)
(1.19723 0.0219644 1.16737e-22)
(1.09849 -0.0353883 2.44741e-22)
(1.19109 0.0214411 0)
(0.48632 0.30286 0)
(0.89963 0.00996694 6.15026e-22)
(1.02476 0.0162378 1.89835e-21)
(1.02932 0.0494851 -1.31204e-21)
(1.02409 0.0348312 -2.05578e-21)
(1.04555 0.0676824 -3.84343e-22)
(1.03435 0.0606569 1.19369e-21)
(1.07354 0.0702953 -4.06877e-22)
(1.05802 0.0709099 8.53583e-22)
(1.11133 0.0570168 0)
(1.09131 0.0655885 0)
(1.15578 0.0289716 4.20925e-26)
(1.13313 0.0446709 0)
(1.20028 -0.0101243 0)
(1.17844 0.0104157 0)
(1.23776 -0.0541374 0)
(1.22038 -0.0318949 0)
(1.26279 -0.0964893 0)
(1.25204 -0.0759385 0)
(1.27339 -0.131396 -1.28297e-25)
(1.2699 -0.115138 0)
(1.27064 -0.155721 2.6928e-25)
(1.27352 -0.144962 0)
(1.25781 -0.169109 -9.85443e-25)
(1.26523 -0.163713 0)
(1.23892 -0.173143 -2.24498e-26)
(1.24888 -0.172152 0)
(1.2175 -0.17017 -1.00247e-26)
(1.22834 -0.172381 0)
(1.19608 -0.162427 -8.74458e-25)
(1.20668 -0.16677 0)
(1.17612 -0.151657 -4.80145e-26)
(1.18585 -0.157331 0)
(1.15836 -0.139081 0)
(1.16694 -0.145536 0)
(1.14308 -0.125492 0)
(1.1504 -0.132376 0)
(1.13028 -0.111392 0)
(1.13637 -0.118484 0)
(1.11989 -0.0970902 0)
(1.12479 -0.104253 0)
(1.11176 -0.0827873 0)
(1.11553 -0.0899316 0)
(1.10577 -0.0686334 7.31351e-25)
(1.10846 -0.0756791 0)
(1.10169 -0.0548846 -1.40347e-22)
(1.10343 -0.0616888 4.62023e-23)
(1.10019 -0.0481868 1.19041e-23)
(0.725615 -0.00718463 -3.23287e-22)
(0.908604 -0.0141611 0)
(1.02337 -0.00597664 6.11877e-23)
(1.10257 -0.0300481 8.5747e-23)
(1.09818 -0.0292875 -8.15927e-24)
(1.1012 -0.0295185 7.98592e-23)
(1.09575 -0.0330776 0)
(1.10114 -0.031111 0)
(1.06898 -0.0404417 0)
(1.08517 -0.0361956 5.03346e-23)
(1.02707 -0.0495479 0)
(1.04849 -0.0453044 0)
(1.00164 -0.0497618 0)
(1.00979 -0.0515219 0)
(1.02315 -0.0337128 0)
(1.0059 -0.0436702 0)
(1.0859 -0.00822008 0)
(1.0513 -0.0212601 0)
(1.15268 0.0126542 2.86782e-23)
(1.12133 0.00351907 7.33988e-24)
(1.17645 0.0185722 -5.83685e-23)
(1.19247 0.00318766 -5.56876e-23)
(1.19509 0.00998854 -3.51659e-23)
(1.18413 -0.011336 0)
(1.18875 -0.00393039 1.86469e-23)
(1.17232 -0.026046 0)
(1.17868 -0.0187335 0)
(1.15777 -0.0394624 0)
(1.16533 -0.0329996 0)
(1.14182 -0.0501163 5.5577e-25)
(1.14989 -0.0452106 0)
(1.12584 -0.0568162 -6.22119e-25)
(1.13377 -0.0540151 0)
(1.11089 -0.0587544 0)
(1.1182 -0.0584128 0)
(1.09743 -0.0554348 0)
(1.10398 -0.0577716 0)
(1.08525 -0.046492 0)
(1.09122 -0.0516845 0)
(1.07378 -0.0315648 -9.38477e-25)
(1.07947 -0.039794 0)
(1.0626 -0.0103812 0)
(1.06816 -0.0217563 0)
(1.05217 0.0169513 0)
(1.05723 0.0025462 0)
(1.04379 0.0497006 0)
(1.04763 0.0327234 0)
(1.03919 0.0866903 9.72526e-25)
(1.04091 0.0677482 0)
(1.03986 0.126719 0)
(1.0388 0.106395 0)
(1.04678 0.168851 -1.3053e-25)
(1.04249 0.14757 0)
(1.06071 0.212407 -5.7749e-25)
(1.05283 0.190492 0)
(1.08239 0.256698 0)
(1.07054 0.234516 0)
(1.11256 0.300717 -9.87399e-26)
(1.09636 0.278826 0)
(1.15214 0.342712 0)
(1.13113 0.322121 0)
(1.20049 0.379355 3.72807e-22)
(1.17546 0.362071 0)
(1.25456 0.403324 -1.72468e-22)
(1.22708 0.393207 -5.04274e-22)
(1.31272 0.410105 -5.99981e-21)
(1.28355 0.409295 -3.1477e-21)
(1.35154 0.386691 3.30148e-20)
(1.33684 0.402718 6.85517e-21)
(1.36031 0.361069 -5.2786e-20)
(1.33915 0.361364 -7.68833e-21)
(1.41012 0.326755 9.37922e-21)
(0.546733 0.327547 0)
(0.361634 0.249327 0)
(1.19267 0.027252 -1.09589e-22)
(1.19664 0.0268175 1.11074e-22)
(0.606292 0.353166 0)