/*--------------------------------*- C++ -*----------------------------------*\
  =========                 |
  \\      /  F ield         | OpenFOAM: The Open Source CFD Toolbox
   \\    /   O peration     | Website:  https://openfoam.org
    \\  /    A nd           | Version:  10
     \\/     M anipulation  |
\*---------------------------------------------------------------------------*/
FoamFile
{
    format      ascii;
    class       surfaceScalarField;
    location    "18";
    object      phi;
}
// * * * * * * * * * * * * * * * * * * * * * * * * * * * * * * * * * * * * * //

dimensions      [0 3 -1 0 0 0 0];

internalField   nonuniform List<scalar> 
81299
(
0.0319801
0.0272537
-0.0403898
-0.018844
0.0518034
-0.0315913
0.011768
-0.0535426
-0.0251399
0.0201088
0.0585737
-0.00927192
0.0301758
-0.0744465
0.0766182
-0.0804577
-0.00543247
0.059416
-0.00793766
0.0842467
-0.00472196
-0.0441424
0.0348694
0.0678467
0.0450362
-0.0590028
-0.0592009
-0.0316972
0.0114318
0.0794664
0.00113162
-0.0348517
-0.0254809
0.0375526
-0.00811324
-0.0283077
-0.0178719
0.0237273
-0.0431853
-0.000190347
0.0548074
-0.021367
0.0101097
-0.0319279
-0.028965
-0.127955
0.031214
0.112272
-0.0155312
-0.0088386
0.0186762
-0.0196675
0.0203221
0.0256507
-0.0200978
-0.025875
0.00098217
0.0538806
-0.0345407
-0.0383244
-0.0351399
-0.0115019
0.00341279
0.0158697
-0.00778067
-0.0181371
-0.00147805
0.000150357
-0.0386651
-0.0796644
0.027029
0.0838493
0.0364258
-0.0482434
0.0806123
0.0141029
-0.0676862
0.0756221
-0.00650911
0.0114993
-0.0607584
0.0336239
0.0471543
-0.0200199
-0.00922514
-0.0919403
0.0404071
0.073845
-0.00744803
-0.0146001
-0.00283666
0.00783274
0.00285939
-0.00785547
0.00535264
-0.00322521
-0.0049641
0.0010676
0.00349833
0.000786713
0.00756781
0.00133253
0.0207142
-0.0206827
-0.00746561
0.00743413
-0.000161331
0.0224294
-0.00155391
0.00274101
-0.0130965
-0.0103272
-0.0174834
0.0187235
0.0015009
0.000522463
-0.0183777
0.000371875
0.00228153
-0.0148556
-0.0166646
0.00861902
0.00121465
-0.0185458
-0.00104653
0.00386947
-0.0175104
-0.015157
0.00236184
-0.0339927
-0.034208
0.0217054
0.0464954
-0.0307537
0.0184981
-0.0217371
0.0199492
-0.0429642
-0.00773865
-0.0366322
0.0223733
-0.0415379
0.0261068
0.0379286
-0.0224975
0.0220192
-0.0418518
0.0905288
0.0177222
-0.0541914
-0.0540597
-0.00518699
0.0283018
0.067414
-0.0639032
0.0574265
0.00128976
0.0104225
-0.0566035
0.021615
-0.0421824
0.0653205
-0.0722258
0.0931221
-0.046936
0.0191343
0.0627094
0.0587145
-0.0429908
0.0370411
0.0375515
-0.0316018
0.0281071
-0.0449911
0.0485329
0.0237872
-0.044213
0.0177396
0.0678344
0.000875718
-0.000431671
-0.00148209
0.00103804
-0.00106447
0.00194019
-0.00149614
-6.14112e-05
7.48095e-05
0.000323063
-0.000336461
4.74396e-05
-0.000108851
0.000122249
-1.16956e-06
0.000619475
0.000675963
-0.00129427
0.000375114
-0.000376284
0.000994589
0.0321875
0.00155511
-0.00607106
-0.0276716
0.023366
-0.0189011
0.0277225
-0.0224065
-0.0108448
-0.0100066
0.00448859
-0.00781431
-0.00420221
0.00752793
-0.0281294
0.0104291
0.0175389
-0.0133626
-0.0102782
-0.0119323
0.0223614
0.0101746
-0.0239154
0.0297837
-0.016043
-0.0285334
-0.00425619
-0.00165189
-0.000994105
-0.0258874
-0.00140753
-0.0241597
-0.0211643
-0.0229749
0.0277647
0.0163745
-0.00644111
0.0172361
-0.0319593
0.00575954
-0.0351755
0.0643065
0.0438955
-0.0184574
-0.0897447
0.0214926
-0.114625
0.102456
-0.00932359
0.0901844
-0.0043852
0.00788271
-0.0614944
-0.0610137
0.0447757
-0.0807165
-0.00981298
0.0457538
0.012957
0.022253
-0.0134858
-0.0178548
0.00908764
-0.0196948
0.039754
0.00219375
-0.00919024
-0.0165756
-0.00321054
-0.0194655
-0.0212533
0.000187943
0.117946
0.00172715
-0.0476079
0.0455102
0.0716967
0.00073941
0.000198747
0.00117575
-0.000550229
-0.000824269
0.000388573
0.00190082
-0.00209065
-0.00506408
0.00495735
-0.00226488
0.0023716
-0.00691352
0.0026905
-0.000841062
0.0278086
0.0217696
-0.0307499
-0.0188283
0.0209601
0.0157449
0.00122352
-0.0122602
-0.00470824
0.00283431
0.0061339
0.00677666
-0.0031321
-0.00604275
0.00843275
0.000742107
0.00698249
-0.00254678
-0.0147039
0.0374357
0.0227784
0.0124594
0.00634258
-0.00475409
-0.0140479
-0.0133523
-0.0018599
0.0160296
-0.00881869
0.0152185
0.0117259
0.0218426
-0.0239067
-0.00422758
0.0281343
-0.010386
-0.0135207
-0.0231107
0.0335544
-0.0208296
0.00466318
-0.0113136
-0.0164603
-0.000975439
-0.00440311
0.00537855
-0.00669681
-0.00736994
0.0130913
-0.00885757
0.00185463
-0.00190757
-0.0174575
-0.0144849
0.0011825
-0.0122092
-0.0118003
0.00195297
0.00577869
-0.00307558
-0.00270311
-0.00506609
0.0340947
0.00248211
0.00200358
0.024154
-0.0382124
0.00348381
0.0337393
0.000989279
-0.0284442
0.00296265
-0.0127309
0.0308278
0.0132108
-0.0255536
-0.018485
0.0245625
0.0255429
-0.0328693
0.0162086
0.0361186
0.050867
0.0185714
0.00299966
0.0285416
-0.000480366
-0.0310609
0.0346602
-0.0327135
0.00105306
-0.0040777
0.0045113
0.0342266
-0.00625901
0.0307229
0.0249231
-0.0185265
-0.00439381
-0.00200275
0.0277372
-0.00329456
-0.0052436
-0.002654
0.00339276
0.00450484
-0.00517464
-0.00144324
0.00137428
-0.00152137
-0.00352483
-0.000128444
-0.00373306
0.00306817
0.00134085
-0.000569199
-0.000882526
0.000157457
-0.00146794
0.0169553
-0.0173885
0.0302735
0.054529
0.0447497
-0.00471169
-0.000105023
0.00139457
0.00366781
-0.00103949
0.00102615
-9.16791e-05
-0.00287672
-0.000427649
0.00014073
0.00227999
-0.000577468
-0.00359453
-0.00274152
-0.00262514
-0.000829053
-0.00458392
-0.00163574
-0.00546892
0.00768405
-0.00138609
-0.000829035
-0.010909
0.00711367
-0.00167364
-0.0120938
0.00186264
-0.000677749
-0.00120361
0.000959193
0.0193965
0.000881469
-0.0325381
0.02448
0.00105039
-0.027204
-0.00188128
0.0535652
-0.0423349
0.019363
0.035808
0.00126423
-0.0293882
0.0073266
-0.00885012
-0.000357762
-0.000832841
0.00818361
-2.4162e-05
0.0244247
-0.00836884
0.000569109
-0.0244329
-0.0128296
0.017146
0.0201165
-0.00357996
0.0228374
0.0155573
-0.00466692
-0.0337277
-0.0140238
0.0088515
0.0280097
0.020988
-0.0194545
0.00130676
0.00067462
0.000390217
0.00359323
0.000404031
-0.010078
0.00760698
-0.000182944
-0.00966052
-0.00186077
0.0661556
-0.0026131
-0.0505855
0.0265571
-0.00733753
0.0250435
0.00796396
-0.00236842
-0.0306391
-0.0158831
0.0029918
0.0379349
0.0218336
-0.0297528
-0.017965
-0.0163148
0.022204
0.0120758
0.00368322
0.0023469
-0.0239951
0.0148786
-0.0275103
0.0219768
-0.0414552
0.0177314
-0.0380896
0.00324581
0.00368051
0.00604634
-0.0129727
-0.000776561
0.00386322
0.00015916
-0.00266915
0.000688974
-0.00369687
0.0466427
0.0138
-0.0273031
-0.0331397
0.0114148
0.0727794
-0.027242
0.000323613
0.0383331
-0.0244231
0.0109811
-0.00406215
4.20943e-05
0.000805831
0.00321422
-5.09929e-05
-0.00362258
0.00174334
-0.00179434
0.00178544
-0.0277209
0.0323441
-0.00163142
0.00139027
-0.0314796
-0.0030735
0.00062667
0.00122973
-0.00858543
-0.0026509
-0.00118785
-0.0109347
0.0382276
-0.00521898
-0.0477125
0.0183152
0.0238863
-0.00397382
0.0478249
0.0354986
0.038127
-0.022255
-0.0513706
0.0297014
0.0358389
-0.0300417
-0.0252574
0.0263515
0.0286072
-0.0202606
0.0331302
0.059053
0.0236969
-0.0110531
-0.0069108
0.0437087
0.0166882
-0.0174517
0.024467
-0.0285129
0.0207341
-0.0192261
-0.00122729
0.00103089
-0.0190569
-0.00120011
-0.00291481
0.0381813
0.0125585
-0.0252195
0.0160455
0.009174
0.0218449
0.0226914
-0.0181847
-0.00127229
-0.00134984
-0.000603076
-0.0359648
0.0104437
0.00134756
0.0241735
-0.0322967
0.00548657
-0.00915462
0.00378562
-0.00141332
-0.00219531
-0.000176985
0.0032795
-4.41169e-05
0.0401717
-0.0236324
0.0137343
0.000580406
-0.00276518
-0.000440161
0.00262494
-0.0034627
0.0025186
0.0015245
0.00143831
0.000911216
-0.00581222
0.00139089
-0.00271777
-0.00181894
0.000996616
0.000382161
0.00621717
-0.00625504
0.00345066
0.00421496
0.000158939
-7.21162e-05
-8.68231e-05
1.08811e-05
0.000148058
0.0173683
0.0127092
-0.00807831
-0.0219992
0.0169129
-0.0268476
-0.0203079
0.0127977
-0.0102393
0.00264066
0.0354471
-0.00626955
-0.0334337
-0.00400062
0.031709
-0.0331128
0.00564079
0.0234714
-0.010297
-0.0290853
0.0199017
0.0333344
-0.0133888
-0.0398473
0.0260306
-0.0394273
0.0332985
-0.0195123
0.00589064
0.0396523
0.041617
-0.027795
-9.89721e-05
-0.0167321
0.00177517
0.015056
-0.0122753
-0.0063502
-0.0185637
-0.000629817
0.000201773
0.000510928
-0.00276294
0.0016222
0.000340888
0.000371813
0.000963073
-0.0011374
-0.00586843
-0.00262207
0.00358514
-0.00375946
0.00162517
0.000186849
0.00205119
-0.000892823
0.002518
-0.000705975
-0.014843
-0.0104236
0.0158157
0.00945082
0.00305256
0.00594135
-0.0238369
0.0174926
-0.0248637
-0.00191441
-0.0049083
0.00400127
0.00282145
0.0153718
-0.0308284
0.0372902
-0.0410175
0.00370692
0.0502743
-0.0129638
-0.0332963
0.000395215
0.0328364
6.46256e-05
0.00308766
0.0337378
-0.0330368
-0.00378864
0.00265678
0.0351124
-0.0346815
0.00303069
0.0351838
-0.0355577
0.00282435
0.0355675
-0.0353612
0.00166944
0.0353856
-0.0342307
0.00343371
0.0348608
-0.036625
0.00511107
0.0335649
-0.0352423
0.00504465
0.0348387
-0.0347723
0.00641995
0.0333391
-0.0347144
0.00634515
0.0344506
-0.0343758
0.00754195
0.0331459
-0.0343427
0.00746829
0.034108
-0.0340343
0.00850415
0.0329883
-0.0340242
0.00843312
0.0338121
-0.0337411
0.00932461
0.0328603
-0.0337518
0.00925733
0.0335587
-0.0334914
0.0112803
0.0314972
-0.0335202
0.0105853
0.0339801
-0.0332852
0.010614
0.0333058
-0.0333344
0.0105567
0.0331708
-0.0331136
0.0111157
0.0326228
-0.0331817
0.011065
0.0330328
-0.0329821
0.0115439
0.0325895
-0.0330684
0.0114998
0.0329312
-0.0328871
0.0119121
0.0325791
-0.0329914
0.011875
0.0328658
-0.0328287
0.012233
0.0325938
-0.0329517
0.0122036
0.0328375
-0.0328081
0.0125182
0.032636
-0.0329507
0.0124973
0.0328481
-0.0328272
0.0127787
0.0327096
-0.032991
0.0127674
0.0329008
-0.0328894
0.0130224
0.0328209
-0.0330759
0.0098218
0.0361986
-0.0329981
0.0113701
0.0316605
-0.0332088
0.02137
0.0272907
-0.0372906
-0.0123652
0.00344173
0.0302934
-0.0383376
0.0294562
-0.0360708
-0.0052831
0.00615155
0.0352024
-0.00497941
0.00279401
-0.0338854
-0.00639177
0.0358019
-0.0343895
0.035886
-0.00775042
-0.0345274
0.00608389
-0.00683479
0.0366369
0.0366027
-0.0065226
0.00387448
0.0363859
0.034925
-0.0352961
-0.00345543
0.00266168
0.0359775
0.0355314
-0.00225612
0.00216163
0.0354801
0.0359731
-0.00247195
0.00247931
0.0335576
0.0345505
-0.00230241
0.0021376
0.0335039
0.0350156
-0.00197189
0.00181641
0.0333013
0.0346163
-0.00166296
0.00151937
0.0331319
0.0342614
-0.00137821
0.0012452
0.0329933
0.0339533
-0.00170301
-0.000267366
0.0334676
0.0331009
-0.000245777
0.000756499
0.0327951
0.033467
-0.000643702
0.000535879
0.0327306
0.0332836
-0.000430426
0.00032923
0.0326906
0.0331383
-0.000230038
0.000134366
0.0326748
0.0330304
-4.05184e-05
-5.04121e-05
0.0326847
0.0329596
0.000139687
-0.000226456
0.0327228
0.0329268
0.000311778
-0.000394962
0.0327928
0.0329334
0.000476767
-0.000312863
0.032657
0.0329826
-0.00329919
0.00195972
0.033
0.0325866
0.0326922
0.00136127
0.00284837
-0.0372464
-0.0349294
0.0390847
-0.00367254
0.00327226
-0.0351574
-0.0355056
-0.00279395
0.00445344
-0.0358902
-0.0348829
-0.00421023
0.0033463
-0.0343783
-0.0363818
-0.00233488
0.00215038
-0.0345299
-0.0337609
-0.00197503
0.00181106
-0.0341787
-0.0342004
-0.00165196
0.00150207
-0.0338743
-0.0338752
-0.00135683
0.00121923
-0.0336142
-0.0335959
-0.0010859
0.000960328
-0.0333946
-0.0333581
-0.000835029
0.00071665
-0.033216
-0.0331599
-0.000603626
0.000494167
-0.0330723
-0.0330006
-0.000387488
0.000284144
-0.032965
-0.0328755
-0.000183715
8.60211e-05
-0.0328937
-0.0327867
9.04329e-06
-0.000101971
-0.0328588
-0.0327337
0.000192533
-0.000281405
-0.0328618
-0.0327175
0.000368097
-0.00045325
-0.0329059
-0.0327405
0.00053545
-0.000613911
-0.0329975
-0.0328072
0.000688849
0.000624014
-0.0345217
-0.0329232
0.00247063
-0.00763882
-0.0331694
-0.0341959
-0.00794408
-0.0367003
0.0378096
-0.0375741
-0.00835602
0.037986
0.00865213
-0.00986641
-0.0363598
-0.0357986
-0.0376828
-0.0119499
0.0412767
-0.0367585
-0.0107907
-0.013599
-0.0377783
-0.00298445
0.00170699
0.0315709
-0.004396
0.0308677
-0.000996474
-0.0350866
0.00544706
-0.00690795
-0.0329287
0.0047581
-0.0331964
-0.00735939
-0.0340759
-0.00943464
0.00818229
-0.0351075
-0.035641
-0.0105522
-0.0464062
-0.0077414
0.0407587
-0.0106796
-0.0427667
0.0010054
0.0381837
-0.00570915
0.00598993
0.0377053
0.0365729
-0.00584354
0.00506491
0.0374156
0.037956
-0.00484964
0.00327799
0.036774
0.036818
-0.00265451
0.00271408
0.0363263
0.0355485
-0.00265118
0.00293328
0.0356954
0.0355943
-0.00269433
0.00291935
0.0352551
0.036212
-0.00328537
0.0024181
0.0344248
0.0341844
-0.00223789
0.00207142
0.0336703
0.0351958
-0.00191011
0.00175686
0.0334546
0.0347776
-0.00160796
0.00146626
0.0332736
0.0344103
-0.00132906
0.00119834
0.033124
0.0340905
-0.000830752
0.000948656
0.0333497
0.0334685
-0.000831322
0.000718668
0.0329077
0.0335843
-0.000608714
0.000502573
0.0328368
0.0333936
-0.000399624
0.000300016
0.0327903
0.0332412
-0.000203182
0.000109132
0.0327688
0.0331273
-1.74874e-05
-7.17143e-05
0.0327739
0.0330513
0.000158814
-0.000243899
0.0328079
0.0330139
0.0003272
-0.000408754
0.0328744
0.0330167
0.000488423
-0.000809756
0.0329784
0.0330622
0.000746397
-0.00103322
0.0332868
0.0325232
0.0333659
-0.00302455
0.0323679
-0.0346177
-0.00418108
0.0378023
-0.0345193
0.0365593
-0.00105078
-0.00648517
-0.0250715
-0.004302
0.00316451
-0.0361089
-0.0344733
-0.00304469
0.00304803
-0.0351607
-0.0353858
-0.00379836
0.00336079
-0.0354527
-0.0356332
-0.00186494
0.00181334
-0.0343267
-0.034886
-0.00243274
0.00225056
-0.0343477
-0.0343803
-0.00207903
0.00191334
-0.034013
-0.0340289
-0.00175632
0.00160416
-0.0337221
-0.0337182
-0.00145973
0.00131949
-0.0334739
-0.0334514
-0.00118625
0.00105712
-0.0332655
-0.0332249
-0.000933924
0.000812581
-0.0330947
-0.0330367
-0.000696532
0.00058347
-0.0329592
-0.0328845
-0.00047513
0.000368879
-0.0328588
-0.0327671
-0.000266697
0.000166178
-0.0327932
-0.0326845
-6.92168e-05
-2.64461e-05
-0.0327631
-0.0326367
0.00011898
-0.000210537
-0.0327702
-0.032625
0.000299327
-0.000387619
-0.0328176
-0.0326517
0.000474622
-0.000563378
-0.0329087
-0.0327202
0.000649777
-0.00151714
-0.0336543
-0.0328368
0.00254446
-0.00147805
-0.0342358
-0.0331686
0.00249697
-0.0344583
-0.00265641
-0.0340676
-0.0349757
0.00574498
-0.00614263
-0.032531
0.00484218
-0.0322936
-0.00698822
-0.0332303
-0.0072832
0.00697787
-0.0348022
-0.00708827
-0.0358359
-0.00247831
0.00222423
-0.0342042
-0.0341179
0.0351414
-0.00367998
-0.00223049
-0.0343657
-0.0128702
-0.0442155
-0.0384392
-0.0101298
0.000394777
0.03314
-0.0384958
-0.0104955
-0.0330178
0.000116323
-0.00885961
0.00908617
0.0413905
-0.0448343
-0.00392461
0.044571
-0.0427027
0.00183858
-0.000427473
0.0409613
0.00403721
0.0409872
-0.00809122
0.00732494
0.03895
0.0406472
-0.0053928
0.00483466
0.0382634
0.0385051
-0.00504477
0.00552611
0.0369342
0.0377459
-0.00385669
0.00481673
0.035814
0.0384874
-0.00264337
0.00369027
0.0352794
0.0377219
-0.00224454
0.00311075
0.0348292
0.03704
-0.00290226
0.00371546
0.0344419
0.0364205
-0.00203326
0.00234186
0.0341162
0.0358666
-0.0021667
0.00200108
0.033836
0.035371
-0.00184307
0.00169176
0.0336059
0.0349356
-0.00154696
0.00140753
0.033413
0.0345551
-0.00127408
0.00114527
0.0332528
0.0342239
-0.000674542
0.000902128
0.0331221
0.0339392
-0.000787412
0.00067617
0.033019
0.0336991
-0.000569369
0.00046529
0.0329408
0.0335004
-0.000365134
0.000267392
0.032888
0.0333414
-0.000173111
8.08995e-05
0.0328611
0.0332215
8.34061e-06
-9.57573e-05
0.0328613
0.0331405
0.000180605
-0.000263928
0.0328912
0.0330987
0.000345077
-0.000425009
0.0329543
0.0330978
0.000503444
-0.000580592
0.0330555
0.0331407
0.00104489
-0.00120733
0.0334492
0.0329875
0.000872589
-0.00204817
0.0327465
0.0330312
0.00281672
-0.00250379
0.032055
0.0316363
0.0310314
0.0318763
-0.0342897
-0.00407168
-0.00219235
-0.00332938
-0.00429536
0.0036451
-0.0354587
-0.0339265
-0.00376888
0.00389316
-0.035285
-0.0355096
-0.00327926
0.00274911
-0.0349225
-0.0350193
-0.00244642
0.0026423
-0.0345226
-0.0345833
-0.00245096
0.00226318
-0.0341599
-0.0341889
-0.00208641
0.00191675
-0.0338433
-0.0338521
-0.00175687
0.00160212
-0.0335674
-0.0335583
-0.00145568
0.00131352
-0.0333318
-0.033305
-0.00117877
0.00104738
-0.0331341
-0.0330901
-0.000922332
0.000800111
-0.0329725
-0.0329116
-0.000683774
0.000569714
-0.0328451
-0.0327682
-0.000460692
0.000353272
-0.0327514
-0.0326581
-0.000250333
0.000148566
-0.0326914
-0.0325816
-5.0794e-05
-4.62183e-05
-0.0326661
-0.0325389
0.000139665
-0.000232702
-0.0326772
-0.0325316
0.000322511
-0.000412144
-0.032728
-0.0325619
0.000498452
-0.000583644
-0.0328235
-0.0326339
0.00066617
-0.00134894
-0.0329716
-0.0327542
0.00141153
-0.00189349
-0.0337538
-0.033106
-0.0337369
-0.0349861
-0.00831254
-0.0372716
0.00561185
-0.00569715
-0.0324457
0.00575645
-0.0324382
-0.0350933
0.0340342
-0.00262091
-0.0348288
-0.002495
-0.00526956
-0.0336579
-0.0499213
-0.00778315
0.00489929
0.00197462
0.0259625
-0.0306541
0.0202822
0.0152712
-0.0010878
-0.0455395
-0.013199
-0.0396975
-0.04015
-0.0172646
-0.00566801
0.00564775
0.0409815
-0.0378645
-0.00965889
0.0418554
0.0123527
-0.04618
-0.0383551
-0.0118379
-0.00835197
-0.0383157
-0.00552544
0.00656376
0.0403521
0.0411096
-0.00727821
0.00659258
0.0396356
0.0399328
-0.00522177
0.00601497
0.0374702
0.0398759
-0.00416433
0.0043899
0.0367087
0.0395965
-0.00413623
0.00388796
0.0360622
0.038741
-0.00365129
0.00342006
0.0355107
0.0379585
-0.00320658
0.00299911
0.0350367
0.0372535
-0.00280312
0.00261061
0.0346344
0.0366165
-0.00242978
0.00225192
0.0342941
0.0360475
-0.00208629
0.00192265
0.0339996
0.0355366
-0.00177085
0.00162084
0.0337559
0.0350874
-0.00148153
0.00134356
0.033551
0.0346944
-0.00121511
0.00108766
0.0333803
0.0343524
-0.000968487
0.000850642
0.0332399
0.0340584
-0.000740276
0.000630592
0.0331287
0.0338094
-0.000527424
0.000425
0.0330433
0.0336035
-0.00032823
0.000232168
0.0329841
0.0334381
-0.000140959
5.0451e-05
0.0329516
0.0333128
3.59506e-05
-0.000121694
0.032947
0.0332269
0.00020395
-0.000285591
0.0329728
0.033181
0.000364345
-0.000442606
0.0330326
0.0331766
0.000518617
-0.000594216
0.0331311
0.0332167
0.000912415
-0.000741264
0.0332781
0.0333057
0.00116542
-0.00128221
0.0328633
0.0334554
0.00250338
-0.00197647
0.0315281
0.0328575
0.0310296
0.0322326
-0.032042
-7.42692e-05
0.0016431
0.0322522
-0.0334875
-0.00283632
-0.00198214
-0.00278267
-0.00496544
0.00408811
-0.0345813
-0.0331355
-0.00382177
0.00357123
-0.0350345
-0.0352433
-0.00333421
0.00310375
-0.0346921
-0.0347823
-0.0028879
0.0026838
-0.0343185
-0.0343674
-0.00249352
0.00230869
-0.0339751
-0.0339987
-0.00213403
0.00196376
-0.0336731
-0.0336774
-0.00180379
0.00164774
-0.0334113
-0.0333984
-0.00150095
0.00135727
-0.0331881
-0.0331582
-0.00122194
0.001089
-0.0330012
-0.0329548
-0.000963571
0.00083968
-0.0328486
-0.0327862
-0.000722446
0.000606364
-0.0327291
-0.0326509
-0.000496433
0.000387092
-0.032642
-0.0325482
-0.000283274
0.00017955
-0.0325877
-0.0324777
-8.08384e-05
-1.82047e-05
-0.0325671
-0.0324402
0.000112684
-0.000207887
-0.032582
-0.0324371
0.000298974
-0.00039127
-0.0326357
-0.0324708
0.000480015
-0.000570532
-0.032733
-0.0325452
0.000658027
-0.000747946
-0.0328816
-0.0326667
0.00101128
-0.00167562
-0.0330895
-0.0328427
0.00166569
-0.00204759
-0.0338223
-0.0337468
0.0404852
0.0253959
-0.0535284
-0.0114489
0.0422753
-0.0380239
-0.013964
0.00049872
-0.0448401
0.00203213
-0.0345075
-0.00235343
-0.0343812
0.00621254
-0.00696469
-0.03405
-0.0340431
0.00634464
-0.00697017
-0.036646
-0.0364559
-0.0395794
-0.00679642
0.0384186
-0.0244716
-0.0021102
-0.0509195
-0.00126862
-0.0446593
0.0105299
-0.010953
0.0388417
0.00934996
0.0434552
-0.00413149
0.0045073
-0.0328141
-0.00319529
-0.0333819
-0.0499535
-0.0172324
0.0363557
-0.0555216
-0.00530572
-0.0102786
0.0356814
-0.00781313
-0.0374727
-0.0023217
0.00206636
-0.0342522
-0.0348921
0.0351344
-0.00259575
-0.00217453
-0.0350392
-0.0487608
-0.00887099
-0.00242948
-0.0508931
-0.012109
-0.0400791
-0.00759672
0.00654507
0.0420332
0.0436086
-0.00686328
0.00676162
0.0404538
0.0407913
-0.0049652
0.00596091
0.0386399
0.0417292
-0.00502846
0.00474585
0.0377528
0.0408083
-0.00449056
0.00422117
0.036978
0.0398518
-0.00398779
0.00373785
0.0363122
0.0389744
-0.00352131
0.00329057
0.0357414
0.0381751
-0.00309154
0.00287925
0.035249
0.0374526
-0.00269725
0.00250262
0.0348291
0.0367985
-0.00233437
0.00215564
0.0344728
0.0362157
-0.00200062
0.00183653
0.0341637
0.0356916
-0.00169426
0.00154383
0.0339063
0.0352297
-0.00141267
0.00127445
0.0336892
0.0348256
-0.00115314
0.00102579
0.0335076
0.0344737
-0.000913246
0.000795527
0.0333577
0.0341709
-0.000690665
0.000581636
0.0332377
0.0339143
-0.000483417
0.000381815
0.0331449
0.0337018
-0.000289434
0.000194398
0.0330791
0.0335305
-0.000107107
1.77254e-05
0.0330409
0.0334
6.51142e-05
-0.000149531
0.0330315
0.0333098
0.000228606
-0.000308844
0.0330531
0.03326
0.000384706
-0.000461444
0.0331093
0.0332524
0.000534732
-0.000608741
0.0332051
0.03329
0.000680102
-0.000751488
0.0333495
0.0333771
0.000820587
-0.00113615
0.0331788
0.0335245
0.00172866
-0.00290795
0.0327073
0.03345
0.00644241
0.0398023
0.034564
0.0329853
-0.0326134
-0.0004462
-0.0317734
0.0414108
0.00563384
0.00285501
0.0330072
-0.0340708
-0.00177269
-0.00158839
0.034897
-0.0352452
-0.00227269
-0.00195645
-0.00260584
-0.00477032
0.0041263
-0.0339373
-0.0333985
-0.00385876
0.00360601
-0.0347817
-0.0349757
-0.00336586
0.00313261
-0.0344588
-0.0345421
-0.00291715
0.00270809
-0.0341095
-0.034152
-0.00251459
0.0023248
-0.0337853
-0.0338052
-0.00214893
0.00197595
-0.0335001
-0.0335016
-0.00181577
0.00165757
-0.0332531
-0.0332382
-0.00151092
0.00136533
-0.0330425
-0.0330115
-0.00123025
0.00109542
-0.0328663
-0.0328197
-0.000970201
0.000844581
-0.032723
-0.032661
-0.000727835
0.00061007
-0.0326113
-0.0325342
-0.000500491
0.000389324
-0.0325309
-0.0324386
-0.000285738
0.000180068
-0.032482
-0.0323741
-8.14587e-05
-1.96766e-05
-0.0324659
-0.0323416
0.000114207
-0.000211659
-0.0324845
-0.0323425
0.000302891
-0.000397352
-0.0325412
-0.0323795
0.000485824
-0.000577844
-0.032641
-0.0324567
0.000664586
-0.000755427
-0.0327908
-0.03258
0.000840558
-0.000929956
-0.0330001
-0.0327576
0.00167681
-0.001563
-0.0339361
-0.033
-0.0338778
-0.00427141
-0.0325818
0.0053015
-0.00562275
-0.0337288
-0.033013
0.00640888
-0.00738691
-0.035668
-0.0356698
-0.0248488
-0.0390686
0.00612887
-0.00860978
0.0413226
0.00701448
0.0425696
-0.0327136
0.0312864
-0.0426862
-0.000529067
0.00293626
0.0373951
0.00316984
0.0377119
-0.0369123
-0.0104802
-0.00926773
-0.0355919
-0.0353882
0.0355205
-0.00272809
-0.0350644
-0.00249826
-0.0237346
-0.0371352
0.0105476
-0.0576364
-0.0105173
0.0375889
-0.0479662
-0.0201593
-0.0322851
0.0150337
-0.0286136
0.045865
0.00351994
-0.00406392
-0.0328379
0.00395742
-0.0332515
-0.00748957
0.0071775
0.0423452
0.0431335
-0.00613863
0.00555502
0.0410374
0.0418302
-0.00533768
0.00504895
0.0389286
0.0419465
-0.00483273
0.00454206
0.0380435
0.0410246
-0.00432423
0.00404581
0.0372565
0.0400696
-0.00384022
0.0035803
0.0365721
0.03918
-0.00338952
0.00314976
0.0359812
0.0383659
-0.00297394
0.00275268
0.0354702
0.0376284
-0.00259034
0.00238762
0.0350318
0.0369608
-0.00223805
0.00205251
0.0346584
0.0363653
-0.00191388
0.00174387
0.0343337
0.0358303
-0.00161605
0.0014608
0.0340616
0.0353575
-0.00134228
0.00120012
0.0338314
0.0349441
-0.0010898
0.000959403
0.033638
0.034584
-0.000856376
0.000736427
0.0334776
0.034274
-0.000639773
0.000529163
0.0333483
0.0340109
-0.000438126
0.000335572
0.0332474
0.0337928
-0.000249413
0.000153948
0.0331746
0.0336167
-7.21083e-05
-1.72364e-05
0.0331303
0.0334819
9.53663e-05
-0.000179408
0.0331155
0.0333879
0.00025431
-0.000333854
0.0331326
0.0333349
0.000406016
-0.000481795
0.0331851
0.0333246
0.000551727
-0.000624497
0.0332779
0.0333599
0.000692796
-0.000762996
0.0334197
0.0334454
0.000829568
-0.0012675
0.0336168
0.033591
0.00161827
-0.00266272
0.0337518
0.0338007
0.0348376
0.0335653
-0.033583
-0.00042846
-0.0350645
0.0379664
0.00273194
0.00135578
0.0338533
-0.0342872
-0.00133882
-0.0013181
0.0348904
-0.0353871
-0.00177606
-0.00135318
-0.00247242
-0.00403493
0.00416306
-0.0340655
-0.033476
-0.00388559
0.00362661
-0.0345228
-0.0346983
-0.0033862
0.00315145
-0.0342241
-0.0343017
-0.00293789
0.00272604
-0.0338976
-0.0339384
-0.0025347
0.00234311
-0.0335937
-0.0336138
-0.00216986
0.0019948
-0.033325
-0.0333283
-0.00183673
0.00167612
-0.0330925
-0.0330801
-0.00153134
0.00138325
-0.0328944
-0.0328668
-0.00124993
0.00111255
-0.032729
-0.0326864
-0.000989034
0.000860772
-0.0325947
-0.0325375
-0.00074556
0.000625011
-0.0324907
-0.032419
-0.000516848
0.00040281
-0.0324168
-0.0323304
-0.00030054
0.00019189
-0.0323734
-0.0322719
-9.44671e-05
-9.79563e-06
-0.0323617
-0.0322442
0.000103305
-0.000204081
-0.0323838
-0.032249
0.000294542
-0.000392703
-0.0324431
-0.0322891
0.000480986
-0.000577447
-0.0325445
-0.0323684
0.000664393
-0.00075985
-0.0326953
-0.032493
0.000845913
-0.000940193
-0.0329058
-0.0326715
0.00102496
-0.00177399
-0.0331871
-0.0329152
0.00168516
-0.00191886
-0.0340185
-0.0339666
-0.0504618
-0.00109537
0.00318481
0.0379514
-0.0366149
-0.00956516
-0.00339751
-0.0393679
0.0021164
-0.0347593
-0.00242148
-0.0348417
-0.0532661
0.0115276
-0.0094996
0.0259817
0.00850286
-0.0096757
-0.0344191
-0.00386501
-0.0327807
-0.00443611
-0.0324419
-0.00509454
-0.0330703
-0.00693468
-0.0338297
-0.0340998
-0.0577813
-0.061579
-0.0260181
0.0123886
-0.00735064
0.00681288
0.0431073
-0.00645114
0.0404231
-0.00383836
0.00355552
-0.0329687
-0.00375875
-0.0329175
0.0373568
-0.0361523
0.00152748
0.0386457
0.00189588
-0.0340466
-0.012244
0.0195206
-0.00803219
0.0112995
-0.0433106
-0.00205701
0.00216605
-0.0348684
-0.0353499
0.0354118
-0.00248336
-0.0348918
-0.00251508
-0.00593078
0.00583588
0.0424401
0.0440156
-0.00560774
0.00486504
0.0417801
0.0420583
-0.0057461
0.0048231
0.0398516
0.0410655
-0.00465834
0.00433601
0.0383658
0.0411893
-0.00417044
0.00386219
0.0375647
0.0402352
-0.00370444
0.00341539
0.0368611
0.0393378
-0.0032677
0.00300059
0.0362483
0.0385135
-0.0028639
0.00261824
0.0357159
0.0377651
-0.00249086
0.00226611
0.0352565
0.0370882
-0.00214783
0.00194312
0.0348631
0.0364836
-0.00183219
0.00164553
0.0345204
0.0359412
-0.00154181
0.00137244
0.0342309
0.0354612
-0.00127493
0.00112098
0.0339853
0.0350416
-0.0010288
0.000888711
0.0337781
0.0346762
-0.000801242
0.000673478
0.0336054
0.0343614
-0.000590139
0.000473328
0.0334651
0.0340943
-0.000393658
0.000286359
0.0333547
0.0338725
-0.000209878
0.00011088
0.0332736
0.0336932
-3.72933e-05
-5.45529e-05
0.0332221
0.0335555
0.000125647
-0.000211303
0.0332012
0.033459
0.000280206
-0.000360641
0.0332131
0.0334038
0.00042765
-0.00050372
0.0332612
0.0333916
0.000569172
-0.000641753
0.0333505
0.0334254
0.000706157
-0.000775803
0.0334893
0.0335098
0.000839111
-0.000907305
0.033685
0.0336543
0.000970014
-0.00116199
0.0339438
0.0338635
0.000880108
0.000594469
0.0359206
0.0345557
-0.00267819
0.00291323
0.0377164
0.0356281
0.0349944
-0.0344743
-0.000948621
0.000197887
0.0344389
-0.0343997
-0.00137798
-0.00135347
0.034356
-0.0347075
-0.00142456
-0.00139695
0.0350854
-0.0354748
-0.0023387
-0.00209452
-0.00256127
-0.00427753
0.00417886
-0.0339668
-0.034198
-0.00389554
0.003634
-0.0342612
-0.0344149
-0.00339554
0.00315638
-0.0339849
-0.0340632
-0.00294667
0.00272995
-0.0336809
-0.0337287
-0.00254244
0.00234564
-0.0333969
-0.0334263
-0.00217637
0.00199671
-0.0331454
-0.033159
-0.00184295
0.00167799
-0.0329275
-0.0329263
-0.00153753
0.00138514
-0.032742
-0.0327263
-0.00125607
0.00111436
-0.0325872
-0.0325573
-0.000994995
0.000862356
-0.0324621
-0.0324181
-0.000751218
0.000626221
-0.0323657
-0.0323078
-0.000521991
0.000403357
-0.0322982
-0.0322262
-0.00030485
0.000191435
-0.03226
-0.0321734
-9.75917e-05
-1.16281e-05
-0.0322524
-0.0321504
0.000101756
-0.000207695
-0.0322778
-0.0321589
0.000294949
-0.000398418
-0.0323396
-0.0322018
0.000483546
-0.000585317
-0.0324427
-0.0322833
0.000669081
-0.000769853
-0.0325946
-0.0324093
0.000852781
-0.000953111
-0.0328055
-0.0325886
0.00103542
-0.00113534
-0.0330872
-0.0328329
0.00149739
-0.00184336
-0.0336725
-0.0336046
-0.034519
0.0204373
-0.0552604
0.0366243
-0.00414688
-0.0323926
-0.00450873
-0.03208
-0.00543908
-0.03214
-0.00670565
-0.0325631
-0.00775884
-0.0330466
-0.00963148
-0.0325464
0.00354727
0.0380117
0.00666412
0.0313077
-0.00669333
0.0235204
-0.0320671
-0.0116109
0.00567106
-0.00788454
-0.0308332
0.00512556
-0.0320176
-0.0375536
-0.0113794
-0.00487397
0.0177012
0.0177862
-0.0168034
0.0146054
-0.00485133
-0.00268109
0.00215
-0.0343373
-0.00213381
-0.0354391
-0.0355561
0.0357603
-0.00268754
-0.0355237
-0.00254748
-0.00616769
0.005968
0.043307
0.0409195
-0.00589895
0.00556875
0.0427703
0.0440847
-0.00542337
0.00552378
0.0416797
0.0422037
-0.0054394
0.0045986
0.0406924
0.0411499
-0.0045261
0.00412597
0.038766
0.0412618
-0.00405107
0.00366999
0.0379458
0.0403101
-0.00359769
0.00324112
0.0372177
0.0394101
-0.00317188
0.00284253
0.0365776
0.0385828
-0.00277684
0.00247509
0.0360176
0.0378307
-0.00241167
0.00213687
0.0355313
0.0371516
-0.00207536
0.00182663
0.0351118
0.0365451
-0.00176577
0.00154087
0.0347453
0.0360021
-0.00148066
0.00127844
0.0344332
0.0355214
-0.00121855
0.0010368
0.0341671
0.0351015
-0.000976897
0.000813555
0.0339414
0.0347361
-0.000753569
0.000606606
0.0337523
0.0344214
-0.000546522
0.00041407
0.0335976
0.0341544
-0.000353979
0.000234143
0.0334745
0.0339326
-0.000174073
6.51717e-05
0.0333825
0.0337532
-5.13877e-06
-9.41876e-05
0.0333215
0.0336155
0.000153812
-0.000245211
0.0332926
0.0335186
0.000304578
-0.000389191
0.0332977
0.0334632
0.000448247
-0.000527205
0.0333401
0.0334507
0.00058599
-0.000660378
0.0334249
0.0334841
0.000719133
-0.000789729
0.0335599
0.0335686
0.000848144
-0.000915879
0.0337527
0.0337128
0.000973578
-0.00103654
0.0340067
0.0339212
0.000667548
0.000643331
0.0346097
0.0341867
-0.000440236
0.00263912
0.0355175
0.0358312
0.0380918
-0.0367677
0.00222316
-0.00332711
0.00399076
0.0374281
0.0373237
0.0371749
-0.0355491
-9.83149e-05
0.00230309
0.0347877
-0.0343992
-0.00133713
-0.000563465
0.0343936
-0.0343838
-0.00138773
-0.00135912
0.0343685
-0.0343482
-0.00144487
-0.00141229
0.034971
-0.035469
-0.00184069
-0.00147173