/*--------------------------------*- C++ -*----------------------------------*\
  =========                 |
  \\      /  F ield         | OpenFOAM: The Open Source CFD Toolbox
   \\    /   O peration     | Website:  https://openfoam.org
    \\  /    A nd           | Version:  10
     \\/     M anipulation  |
\*---------------------------------------------------------------------------*/
FoamFile
{
    format      ascii;
    class       volScalarField;
    location    "97";
    object      p;
}
// * * * * * * * * * * * * * * * * * * * * * * * * * * * * * * * * * * * * * //

dimensions      [0 2 -2 0 0 0 0];

internalField   nonuniform List<scalar> 
28942
(
-0.00371548
-0.0030904
0.00208173
0.00953604
0.00983592
7.02697e-05
0.000247563
1.40125e-05
0.00276089
0.00284874
-0.00225912
-0.00252772
-0.00290996
-0.00282752
0.000165707
0.000446899
0.00992797
0.010198
0.00563235
0.00719211
0.00819986
0.00819148
-0.00516238
-0.00498799
-0.00351689
-0.00374095
0.0139264
0.0138755
0.00358619
0.0035288
1.04991e-05
4.25654e-05
0.000674545
0.000270092
0.00719073
0.00839636
0.0109342
0.0128925
-1.56733e-05
0.015087
0.00913612
0.0116341
0.00177729
0.00168774
0.00175178
0.000251313
0.000126428
0.000199295
0.000230905
0.000323567
0.000630294
0.00283083
0.00290217
0.00289367
0.0030485
-0.00228867
-0.000987061
-0.00331637
-0.0031622
-0.00343263
-0.00350579
-0.00350645
-0.00340463
-5.4373e-05
-0.00175292
-0.000301242
0.0010284
0.00947211
0.00897577
-0.00330785
-0.00351733
-0.00325272
0.00903821
0.00888963
0.00918209
-0.00142138
-0.00103397
-0.000696343
0.00241506
0.00281432
0.00190629
0.000812446
-0.00625447
-0.00748181
0.00113397
0.00385859
0.00489973
0.00568674
0.00407173
0.00419414
0.00616059
0.00554003
-0.00134366
-0.00163258
-0.00190996
-0.00174949
-0.0015762
0.00538192
0.00667254
-0.00779318
0.0113333
0.0105342
0.00582815
0.0094249
0.00094913
0.00085449
0.000766203
0.00551941
0.00571215
0.00570628
-0.00316014
-0.00308097
-0.00307298
-0.0025567
-0.00268006
0.0158795
0.0138751
0.0133162
0.014947
0.00169372
0.004772
0.00347086
0.00512463
0.00480154
0.0155527
0.0158476
0.0145063
0.00596587
0.00704457
0.000162029
0.000253659
8.81897e-05
0.0105492
0.0110518
0.00771349
0.00736555
0.0128227
0.00675041
0.00804023
0.0090992
-0.0018481
-0.00235544
0.00740982
0.00169469
0.0017839
-0.00111352
-0.00137562
-0.000919309
-0.00245488
0.006642
0.00576949
0.00376424
0.000234334
0.000183807
6.67867e-05
0.000184907
0.00757822
0.00684158
-0.00180814
-0.00192519
-0.00182028
-0.00408042
-0.0036265
4.91841e-05
-0.00279145
-0.000439618
0.00844206
0.00855104
0.00964515
0.00918044
0.00775821
0.00312497
0.00304227
0.00330006
0.00317575
0.00508899
0.00486687
0.00520204
0.00542253
0.00536064
0.00543199
0.00564322
0.00619735
0.00589133
0.0054894
0.00581955
0.00652519
0.00727913
0.00757105
-0.000526068
-0.000506743
-0.00241576
0.000185244
4.37145e-05
-0.00193874
-0.00202695
0.000251681
0.00031265
0.000278548
0.000213622
0.00177947
0.00173016
0.00171283
-0.00285893
-0.00304533
-0.00271037
-0.00427592
-0.00475728
-0.00406989
-0.00465635
-0.00642031
-0.00511993
0.0160733
0.0167834
0.0165508
0.000981782
0.00112652
0.00101562
0.0103999
0.00997199
0.0100523
0.00141079
0.00139445
0.00142735
0.00137765
0.0013618
0.00134537
0.00134561
0.00132866
0.00132898
0.00136222
0.00137831
0.00139448
0.00141097
0.00142811
0.00131256
0.00131195
0.00144346
0.00144374
0.0014588
0.00129613
0.00129545
0.00145956
0.00127929
0.0012626
0.00127925
0.00126292
0.00147656
0.00147692
0.00124611
0.00124647
0.00149257
0.00149315
0.00122963
0.00123007
0.00150866
0.00150929
0.00121323
0.00121363
0.00152473
0.00152544
0.00119682
0.00119725
0.00154075
0.00154149
0.00118047
0.00118086
0.00155685
0.00155759
0.00116406
0.00116452
0.00157328
0.00157382
0.00114765
0.00114793
0.00158878
0.00158952
0.00113112
0.00113116
0.00160572
0.00160602
0.00111425
0.00111414
0.00162105
0.00162129
0.00109634
0.00109704
0.00163715
0.00163713
0.00107931
0.00108018
0.00162034
0.00163647
0.00165331
0.00165311
0.00158689
0.00160446
0.00155482
0.00157142
0.00152348
0.00153927
0.00149136
0.00150749
0.00145822
0.00147514
0.00142602
0.00144359
0.00139402
0.00141051
0.00136091
0.0013762
0.00132697
0.00134418
0.00129436
0.00131073
0.00126153
0.00127798
0.00122871
0.00124514
0.00119596
0.00121235
0.00116327
0.00117964
0.00113066
0.00114697
0.00109666
0.00111429
0.00107953
0.00106229
0.00106277
0.00111424
0.00107987
0.00109675
0.00114783
0.00113081
0.00118051
0.0011643
0.00121321
0.00119687
0.00124606
0.00122965
0.00127898
0.00126254
0.00131176
0.00129545
0.00134493
0.00132862
0.00137842
0.00136179
0.00141034
0.00139416
0.00144373
0.00142828
0.00147666
0.00145976
0.00150899
0.00149289
0.00154106
0.00152512
0.00157296
0.00155696
0.00160496
0.00158862
0.00163595
0.00162066
0.00165195
0.00165321
0.00106205
0.00106284
0.00166846
0.00166693
0.0016696
0.001669
0.00161876
0.00165194
0.00163504
0.0015854
0.00160251
0.00155364
0.00156917
0.00152206
0.00153796
0.00148991
0.00150604
0.00145736
0.00147369
0.00142433
0.00144129
0.00139204
0.00140916
0.00136007
0.00137492
0.00132595
0.00134307
0.00129317
0.00130955
0.00126038
0.00127679
0.0012276
0.001244
0.00119491
0.00121126
0.00116231
0.00117861
0.00112997
0.0011461
0.00109634
0.00111337
0.00104506
0.00104527
0.00106148
0.00107885
0.00107919
0.00106263
0.00104539
0.00104535
0.00111418
0.00109621
0.00114717
0.00113025
0.00117959
0.00116336
0.00121228
0.00119593
0.00124511
0.0012287
0.00127806
0.00126158
0.00131106
0.00129459
0.00134404
0.0013276
0.00137732
0.00136055
0.00140971
0.0013934
0.00144257
0.00142696
0.00147551
0.00145913
0.00150794
0.00149178
0.00154006
0.00152406
0.00157185
0.00155602
0.00160323
0.0015876
0.00163417
0.00161868
0.00166422
0.00164964
0.00166846
0.00168236
0.00167984
0.0016832
0.00104465
0.00104501
0.00168423
0.00168318
0.00169755
0.00169554
0.00168418
0.0010614
0.00104356
0.00102808
0.00102761
0.00168208
0.00169977
0.00172468
0.00170487
0.00164954
0.00166623
0.0016162
0.00163256
0.00158338
0.00160033
0.00155169
0.00156705
0.00152013
0.00153605
0.00148802
0.00150413
0.00145556
0.00147184
0.00142291
0.00143928
0.00139029
0.00140674
0.00135762
0.00137379
0.00132457
0.00134121
0.00129167
0.0013081
0.00125886
0.00127527
0.00122612
0.00124249
0.00119347
0.00120979
0.00116095
0.0011772
0.00112872
0.00114479
0.00109543
0.00111211
0.00107823
0.0010283
0.00102769
0.00102795
0.0010284
0.00107878
0.00104424
0.00106202
0.00111338
0.00109594
0.00114576
0.0011292
0.00117821
0.00116197
0.00121088
0.00119454
0.00124369
0.00122729
0.00127659
0.00126014
0.00130958
0.0012931
0.00134259
0.0013261
0.00137554
0.00135911
0.00140841
0.00139196
0.00144115
0.00142492
0.00147385
0.00145755
0.00150627
0.00149011
0.00153836
0.00152237
0.00157008
0.0015543
0.00160124
0.00158578
0.00163171
0.00161651
0.00166176
0.00164676
0.00169224
0.00167633
0.00170955
0.00170679
0.00169926
0.00169801
0.00102672
0.00102734
0.00171182
0.00171191
0.00171755
0.00172105
0.00172308
0.00165149
0.00172665
0.00169948
0.00170809
0.00170579
0.00168178
0.00169986
0.00164549
0.00166352
0.00161296
0.00162866
0.00158081
0.00159753
0.00154936
0.001565
0.00151765
0.00153358
0.00148556
0.00150166
0.00145319
0.00146942
0.00142066
0.00143696
0.00138803
0.00140437
0.00135527
0.00137164
0.00132245
0.00133892
0.0012896
0.00130602
0.00125684
0.00127323
0.00122415
0.0012405
0.00119156
0.00120786
0.00115911
0.00117533
0.00112693
0.00114298
0.00109412
0.00111047
0.00106062
0.00107724
0.00102588
0.00104291
0.00101097
0.00100878
0.00100999
0.0010118
0.00101133
0.00101177
0.00101192
0.00101069
0.00101131
0.00104353
0.00100914
0.00102737
0.00107757
0.00106095
0.00111173
0.00109508
0.0011439
0.00112771
0.00117639
0.00116014
0.00120904
0.00119271
0.00124181
0.00122542
0.00127467
0.00125824
0.00130761
0.00129115
0.00134058
0.0013241
0.00137348
0.00135707
0.00140634
0.00138993
0.00143907
0.00142276
0.00147167
0.00145541
0.00150403
0.00148791
0.00153606
0.00152011
0.00156769
0.00155195
0.00159875
0.00158332
0.00162899
0.00161399
0.00165846
0.00164387
0.00168807
0.00167299
0.00171729
0.00170177
0.00173464
0.0017309
0.00171289
0.00171294
0.00173028
0.0017235
0.00102489
0.00100845
0.000993808
0.000992998
0.00172309
0.00173681
0.00176311
0.0016778
0.00174586
0.00174333
0.00172199
0.00171328
0.00169638
0.00169324
0.00167703
0.00169166
0.00164083
0.0016588
0.00160963
0.00162516
0.00157798
0.001594
0.00154635
0.00156215
0.0015146
0.00153053
0.00148256
0.00149863
0.00145027
0.00146646
0.00141781
0.00143407
0.00138523
0.00140155
0.00135255
0.0013689
0.0013198
0.00133621
0.00128705
0.00130343
0.00125436
0.00127071
0.00122174
0.00123805
0.00118921
0.00120548
0.00115681
0.00117301
0.00112457
0.00114068
0.00109251
0.00110849
0.00105878
0.00107567
0.00104161
0.000994469
0.000992408
0.000994027
0.000995876
0.000995338
0.000995353
0.000995864
0.000994658
0.00104222
0.00100742
0.001027
0.00107642
0.00105951
0.00110941
0.00109341
0.00114167
0.00112551
0.00117414
0.00115791
0.00120675
0.00119045
0.00123947
0.00122311
0.00127229
0.00125589
0.00130517
0.00128874
0.00133807
0.00132164
0.00137094
0.00135454
0.00140374
0.00138737
0.00143642
0.00142013
0.00146895
0.00145273
0.00150123
0.00148515
0.00153318
0.00151727
0.0015647
0.00154902
0.00159566
0.00158028
0.00162586
0.00161088
0.00165514
0.00164065
0.00168383
0.00166972
0.0017115
0.00169621
0.00173942
0.001727
0.00175479
0.00175042
0.00172768
0.00172519
0.000990446
0.000991237
0.00173216
0.00169626
0.00171771
0.00173702
0.00174741
0.00177321
0.00175397
0.00176085
0.00175743
0.00176614
0.00176408
0.00172584
0.00169497
0.00176272
0.00173223
0.00168738
0.00168777
0.00166908
0.00168418
0.00163661
0.00165261
0.00160558
0.00162113
0.00157421
0.00158997
0.00154267
0.00155846
0.00151098
0.00152687
0.00147902
0.00149505
0.00144682
0.00146296
0.00141444
0.00143066
0.00138194
0.00139822
0.00134935
0.00136566
0.0013167
0.00133305
0.00128404
0.00130038
0.00125143
0.00126774
0.00121889
0.00123516
0.00118644
0.00120267
0.00115411
0.00117027
0.0011219
0.001138
0.00108985
0.00110586
0.00105736
0.00107389
0.00102294
0.00104026
0.000989241
0.00100626
0.000976144
0.000972317
0.000974404
0.00097902
0.000977507
0.000980314
0.000979976
0.000979956
0.000980274
0.000977927
0.000979112
0.00097499
0.000976525
0.00100667
0.000973368
0.000989707
0.00104081
0.00102452
0.00107472
0.00105809
0.00110677
0.00109076
0.00113906
0.00112291
0.00117148
0.00115527
0.00120403
0.00118776
0.0012367
0.00122037
0.00126945
0.00125308
0.00130226
0.00128587
0.0013351
0.0013187
0.0013679
0.00135153
0.00140063
0.0013843
0.00143325
0.00141698
0.00146569
0.00144952
0.00149788
0.00148184
0.00152973
0.00151387
0.00156114
0.00154552
0.00159198
0.00157666
0.0016221
0.00160716
0.00165134
0.00163686
0.00167959
0.0016657
0.00170692
0.00169306
0.00173283
0.00172072
0.00175823
0.00174356
0.001777
0.00177239
0.00173547
0.00175462
0.00173561
0.000987017
0.000970899
0.000958472
0.000956447
0.00173695
0.00174862
0.00174558
0.00175861
0.00176799
0.00177993
0.00178808
0.0017843
0.00173642
0.00175051
0.00176294
0.00175713
0.00175539
0.00170141
0.00172725
0.00168108
0.00168715
0.0016617
0.00167574
0.00163129
0.00164642
0.00160076
0.00161612
0.00156972
0.00158532
0.00153838
0.0015541
0.0015068
0.00152265
0.00147494
0.00149092
0.00144285
0.00145894
0.00141058
0.00142675
0.00137818
0.00139441
0.00134568
0.00136195
0.00131314
0.00132943
0.00128058
0.00129687
0.00124807
0.00126433
0.00121562
0.00123185
0.00118326
0.00119944
0.00115101
0.00116713
0.00111888
0.00113494
0.00108686
0.00110286
0.00105525
0.00107101
0.00102125
0.0010385
0.0010038
0.000960665
0.000955676
0.000958793
0.000963782
0.000962339
0.000964703
0.000964422
0.000964296
0.000964671
0.000962079
0.000963332
0.000960348
0.00100545
0.000971351
0.000988108
0.00103912
0.00102262
0.00107177
0.00105585
0.00110382
0.00108778
0.00113606
0.00111995
0.00116842
0.00115225
0.00120091
0.00118467
0.0012335
0.00121721
0.00126618
0.00124985
0.00129891
0.00128256
0.00133166
0.00131531
0.00136438
0.00134805
0.00139703
0.00138075
0.00142956
0.00141334
0.0014619
0.00144578
0.00149398
0.001478
0.00152572
0.00150993
0.00155701
0.00154145
0.00158772
0.00157247
0.00161773
0.00160285
0.00164688
0.00163244
0.00167504
0.00166114
0.00170211
0.0016887
0.0017273
0.00171515
0.00175288
0.00173883
0.00177748
0.00176429
0.00177835
0.00176769
0.00179517
0.00178985
0.00174304
0.000953668
0.000954637
0.00176135
0.00174835
0.00177199
0.00175097
0.00176035
0.00177094
0.00177124
0.00178174
0.00179046
0.00179859
0.00180624
0.00180184
0.00174672
0.00174788
0.00178135
0.00178185
0.00175614
0.00173939
0.0017498
0.00170189
0.00171842
0.00167623
0.00168676
0.00165444
0.00166763
0.00162534
0.00164001
0.00159534
0.00161047
0.00156465
0.00158008
0.00153353
0.00154915
0.00150209
0.00151787
0.00147036
0.00148628
0.00143839
0.00145442
0.00140624
0.00142235
0.00137395
0.00139013
0.00134157
0.00135779
0.00130914
0.00132538
0.0012767
0.00129293
0.00124429
0.0012605
0.00121194
0.00122812
0.00117968
0.00119582
0.00114752
0.00116361
0.00111548
0.0011315
0.00108355
0.00109952
0.00105184
0.00106766
0.00101947
0.00103607
0.000984948
0.00100194
0.000951783
0.000969106
0.000940209
0.000935187
0.000937923
0.000945186
0.000942436
0.000948148
0.000947117
0.000949098
0.000948775
0.00094872
0.000949079
0.000946733
0.000947998
0.000943551
0.000944913
0.00093896
0.00094161
0.000969251
0.000936344
0.000952777
0.00100404
0.000985711
0.0010365
0.00102086
0.00106848
0.00105252
0.00110054
0.00108452
0.0011327
0.00111663
0.00116499
0.00114885
0.00119739
0.0011812
0.0012299
0.00121366
0.00126249
0.00124621
0.00129513
0.00127883
0.00132778
0.00131148
0.00136041
0.00134413
0.00139296
0.00137672
0.00142538
0.00140921
0.0014576
0.00144155
0.00148957
0.00147365
0.00152118
0.00150545
0.00155233
0.00153685
0.00158291
0.00156773
0.00161278
0.00159797
0.00164181
0.00162744
0.00166985
0.001656
0.00169678
0.00168348
0.00172204
0.00170972
0.00174644
0.00173429
0.00176981
0.00175731
0.00179421
0.00178301
0.00178124
0.00178213
0.00180815
0.00179975
0.00175581
0.00176041
0.00178839
0.00179387
0.00178258
0.00176785
0.0017725
0.000949908
0.000932545
0.00092233
0.000920185
0.0017828
0.00178328
0.00179295
0.0018004
0.00180828
0.00181305
0.00179313
0.00179272
0.00179702
0.00181692
0.00181534
0.00180863
0.00175906
0.00177931
0.00177831
0.00174141
0.00175489
0.00172872
0.0017399
0.001697
0.00171132
0.00167184
0.00168386
0.00164727
0.00166031
0.00161897
0.00163335
0.0015894
0.00160433
0.00155903
0.00157431
0.00152813
0.00154365
0.00149687
0.00151256
0.00146529
0.00148113
0.00143346
0.00144942
0.00140144
0.00141749
0.00136928
0.00138539
0.00133702
0.00135318
0.00130472
0.0013209
0.0012724
0.00128858
0.00124011
0.00125627
0.00120788
0.00122401
0.00117573
0.00119181
0.00114368
0.00115971
0.00111173
0.00112771
0.0010799
0.00109582
0.00104818
0.00106404
0.00101676
0.00103246
0.000982751
0.00100003
0.000966494
0.000925598
0.000919839
0.000923132
0.000930032
0.00092772
0.000932493
0.000931497
0.000933524
0.000933178
0.000933154
0.000933513
0.000931484
0.00093248
0.000927759
0.000929895
0.000925239
0.000967196
0.000933836
0.000950406
0.00100177
0.000984224
0.00103311
0.00101744
0.00106496
0.00104904
0.00109693
0.00108096
0.001129
0.00111298
0.0011612
0.00114511
0.0011935
0.00117736
0.00122591
0.00120972
0.0012584
0.00124217
0.00129093
0.00127469
0.00132348
0.00130723
0.00135599
0.00133977
0.00138842
0.00137225
0.00142072
0.00140462
0.00145282
0.00143683
0.00148465
0.00146881
0.00151612
0.00150047
0.00154713
0.00153172
0.00157757
0.00156246
0.00160729
0.00159256
0.00163619
0.00162189
0.00166409
0.00165031
0.00169089
0.00167767
0.00171625
0.00170381
0.00174034
0.0017285
0.00176332
0.00175188
0.0017841
0.00177458
0.0018081
0.00179146
0.00179776
0.00181953
0.00182828
0.00182723
0.00182265
0.00180776
0.00178761
0.00178957
0.00176992
0.00177271
0.000916932
0.000917743
0.00180503
0.00178186
0.00178441
0.00179158
0.00179472
0.00180351
0.00181121
0.00181536
0.00181852
0.00180476
0.00179765
0.00180186
0.00181358
0.00182445
0.0018321
0.00181041
0.00181602
0.00181848
0.00182921
0.00183486
0.00177193
0.00178984
0.00178718
0.00176623
0.00177174
0.00173765
0.00175203
0.00171862
0.00172937
0.0016914
0.00170504
0.00166585
0.00167843
0.0016402
0.00165337
0.00161223
0.00162644
0.00158299
0.00159776
0.0015529
0.00156805
0.00152224
0.00153765
0.00149116
0.00150677
0.00145975
0.00147551
0.00142807
0.00144396
0.0013962
0.00141218
0.00136418
0.00138023
0.00133207
0.00134815
0.0012999
0.00131601
0.00126772
0.00128383
0.00123556
0.00125165
0.00120345
0.00121952
0.00117142
0.00118745
0.00113949
0.00115546
0.00110766
0.00112358
0.00107593
0.0010918
0.0010443
0.00106013
0.00101284
0.00102854
0.000980498
0.000997127
0.000947779
0.000963714
0.000914241
0.000930092
0.000903962
0.000898742
0.00090112
0.00091032
0.00090694
0.000914564
0.000912907
0.000916928
0.000915895
0.000917974
0.000917628
0.000917598
0.000917963
0.000915856
0.000916892
0.000911885
0.000914255
0.000906967
0.000909362
0.000901876
0.000904526
0.000931045
0.000898359
0.000916171
0.000965598
0.000947686
0.000997982
0.000982255
0.00102942
0.00101367
0.00106116
0.00104531
0.00109301
0.0010771
0.00112498
0.00110901
0.00115706
0.00114103
0.00118926
0.00117318
0.00122156
0.00120543
0.00125393
0.00123776
0.00128634
0.00127016
0.00131876
0.00130258
0.00135115
0.00133499
0.00138345
0.00136735
0.00141562
0.00139959
0.00144758
0.00143166
0.00147926
0.00146349
0.00151058
0.001495
0.00154143
0.0015261
0.00157171
0.00155668
0.00160128
0.00158663
0.00163003
0.0016158
0.0016578
0.00164408
0.00168446
0.00167131
0.00170979
0.00169734
0.00173382
0.00172201
0.0017565
0.00174537
0.0017767
0.00176711
0.0017959
0.00178638
0.00179855
0.00180158
0.00181016
0.00183605
0.00183047
0.00178332
0.00178477
0.00180259
0.00179282
0.00179586
0.000911359
0.000896299
0.000886186
0.000882772
0.00180382
0.00180558
0.00181383
0.00182019
0.0018251
0.00183045
0.00181212
0.00180571
0.0018226
0.00182317
0.0018273
0.00181828
0.00182435
0.00183871
0.00183664
0.00183395
0.00184146
0.00178439
0.00179417
0.00178335
0.00177692
0.00178664
0.0017542
0.00176527
0.00173212
0.00174364
0.00171032
0.00172161
0.00168469
0.00169774
0.00165901
0.0016718
0.00163289
0.00164618
0.00160511
0.0016192
0.00157613
0.00159077
0.00154631
0.00156133
0.00151588
0.00153118
0.00148499
0.00150051
0.00145376
0.00146944
0.00142225
0.00143806
0.00139054
0.00140644
0.00135868
0.00137465
0.00132671
0.00134273
0.0012947
0.00131073
0.00126266
0.0012787
0.00123064
0.00124667
0.00119868
0.00121467
0.00116678
0.00118274
0.00113497
0.00115088
0.00110326
0.00111912
0.00107166
0.00108747
0.00104016
0.00105592
0.00100873
0.00102445
0.000977542
0.000993143
0.00094492
0.000960903
0.000927444
0.000888681
0.000882885
0.000886356
0.000895276
0.000891995
0.000899006
0.00089738
0.00090141
0.00090037
0.000902445
0.000902103
0.000902089
0.000902441
0.000900402
0.000901397
0.000897519
0.000899163
0.000891886
0.000894945
0.000888699
0.00092838
0.000895387
0.000913706
0.000963078
0.000945443
0.000994064
0.000978547
0.00102549
0.00100978
0.00105708
0.0010413
0.0010888
0.00107295
0.00112065
0.00110474
0.00115261
0.00113664
0.00118469
0.00116867
0.00121686
0.00120079
0.0012491
0.001233
0.00128138
0.00126527
0.00131366
0.00129755
0.00134591
0.00132983
0.00137807
0.00136204
0.00141008
0.00139413
0.00144189
0.00142605
0.00147341
0.00145773
0.00150457
0.00148908
0.00153526
0.00152001
0.00156537
0.00155043
0.00159478
0.00158021
0.00162337
0.00160922
0.001651
0.00163735
0.00167752
0.00166444
0.00170277
0.00169035
0.00172667
0.00171493
0.0017491
0.00173812
0.00176939
0.00175961
0.00178734
0.00177888
0.00180225
0.0017944
0.00182238
0.00181381
0.00183865
0.00183272
0.00182027
0.00181116
0.00181035
0.00179475
0.00179628
0.000879494
0.000879963
0.00182131
0.00180392
0.0018068
0.00181495
0.00181588
0.00182337
0.00182928
0.00183397
0.00183671
0.00182692
0.00181655
0.00181647
0.00182366
0.00182357
0.00183758
0.00182655
0.00183851
0.00182836
0.00183508
0.00182456
0.00184429
0.00184591
0.00184462
0.00184183
0.00179594
0.00180402
0.00181481
0.00178305
0.00177925
0.00176503
0.00177814
0.00174613
0.00175583
0.00172461
0.00173565
0.00170211
0.00171363
0.00167718
0.00168987
0.00165158
0.00166444
0.00162526
0.0016386
0.00159761
0.00161161
0.00156886
0.00158338
0.00153928
0.00155419
0.00150907
0.00152427
0.0014784
0.00149381
0.00144735
0.00146294
0.00141603
0.00143174
0.00138449
0.0014003
0.00135279
0.00136868
0.00132099
0.00133692
0.00128913
0.00130509
0.00125725
0.00127321
0.00122539
0.00124133
0.00119357
0.00120949
0.00116181
0.0011777
0.00113015
0.00114599
0.00109858
0.00111437
0.00106711
0.00108285
0.00103574
0.00105143
0.00100445
0.00102011
0.000973267
0.000988859
0.000942459
0.000957669
0.000908225
0.00092492
0.000876992
0.00089283
0.000867178
0.000859719
0.000863809
0.000874519
0.000870551
0.000880018
0.000877854
0.000883542
0.000881894
0.000885919
0.000884899
0.00088694
0.0008866
0.000886602
0.00088694
0.000884954
0.000885934
0.0008822
0.000883711
0.000878117
0.000880404
0.000870602
0.000874517
0.000864259
0.000867437
0.000892807
0.000861244
0.00087771
0.000925632
0.000910217
0.00095927
0.00094285
0.000990014
0.000974534
0.00102129
0.00100566
0.00105274
0.00103702
0.00108432
0.00106854
0.00111603
0.00110019
0.00114786
0.00113196
0.0011798
0.00116385
0.00121183
0.00119583
0.00124393
0.0012279
0.00127606
0.00126002
0.0013082
0.00129216
0.00134029
0.00132428
0.00137229
0.00135634
0.00140415
0.00138827
0.00143579
0.00142003
0.00146714
0.00145154
0.00149812
0.00148272
0.00152864
0.00151348
0.00155858
0.00154372
0.00158782
0.00157333
0.00161625
0.00160218
0.00164372
0.00163015
0.0016701
0.0016571
0.00169523
0.00168287
0.001719
0.00170733
0.00174123
0.00173036
0.00176149
0.00175167
0.00177952
0.00177088
0.00179542
0.0017875
0.00181006
0.00180398
0.00181064
0.00182211
0.0018251
0.001842
0.00183682
0.0018058
0.0018073
0.00182863
0.0018146
0.0018172
0.000873832
0.000856852
0.000849122
0.000846341
0.00182552
0.00182557
0.00183241
0.00183778
0.00184161
0.00184384
0.00181649
0.00180954
0.00180985
0.00181987
0.00182853
0.00183764
0.00184415
0.00183425
0.00183791
0.00185064
0.00185
0.00184578
0.00184461
0.00182826
0.00183288
0.00180702
0.00180927
0.0018039
0.00179049
0.0018052
0.00177198
0.00177903
0.00175668
0.00176581
0.00173765
0.00174739
0.00171629
0.00172722
0.00169363
0.00170519
0.00166912
0.00168158
0.00164364
0.00165649
0.00161727
0.00163061
0.00158975
0.00160367
0.00156121
0.00157561
0.00153185
0.00154664
0.00150187
0.00151695
0.0014714
0.00148671
0.00144055
0.00145604
0.00140941
0.00142504
0.00137806
0.00139378
0.00134654
0.00136233
0.00131491
0.00133076
0.00128322
0.00129909
0.0012515
0.00126738
0.0012198
0.00123567
0.00118814
0.00120399
0.00115655
0.00117236
0.00112503
0.0011408
0.00109361
0.00110933
0.00106229
0.00107796
0.00103107
0.00104669
0.00099995
0.00101552
0.000968931
0.000984442
0.000938518
0.000953582
0.000905406
0.00092223
0.000888684
0.000852999
0.000844535
0.000849505
0.000860325
0.000856653
0.000864626
0.000862627
0.000868132
0.000866504
0.00087045
0.000869453
0.000871455
0.000871119
0.000871126
0.000871457
0.000869491
0.000870468
0.000866629
0.000868206
0.000862637
0.000864809
0.000855871
0.000859653
0.000852293
0.000890505
0.000858001
0.00087545
0.000923011
0.00090658
0.000954835
0.000939428
0.000985714
0.000970236
0.00101685
0.00100129
0.00104815
0.00103251
0.00107958
0.00106387
0.00111114
0.00109537
0.00114283
0.001127
0.00117462
0.00115874
0.00120649
0.00119057
0.00123843
0.00122249
0.00127041
0.00125445
0.00130238
0.00128643
0.00133431
0.00131839
0.00136615
0.00135028
0.00139783
0.00138204
0.00142929
0.00141363
0.00146047
0.00144496
0.00149127
0.00147596
0.0015216
0.00150653
0.00155136
0.00153659
0.00158043
0.00156602
0.00160869
0.00159471
0.00163601
0.00162251
0.00166225
0.00164931
0.00168725
0.00167495
0.00171088
0.00169929
0.00173295
0.00172217
0.00175314
0.00174334
0.00177121
0.0017625
0.00178731
0.00177941
0.00180068
0.00179475
0.00181108
0.00180563
0.00182533
0.00181365
0.00183231
0.00182472
0.00181834
0.0018314
0.00183397
0.00181638
0.00181778
0.00084121
0.000842542
0.00183373
0.00182484
0.00182701
0.00183507
0.00183471
0.00184091
0.00184551
0.00184862
0.00185018
0.00181401
0.00180508
0.00180017
0.00181698
0.00181152
0.00182184
0.00181328
0.00182519
0.00182892
0.00184028
0.00184353
0.00184835
0.00184372
0.00185525
0.00185267
0.00184754
0.00184277
0.0018349
0.00182946
0.00181757
0.00181034
0.00181122
0.00179802
0.00178781
0.00177827
0.00179456
0.00176378
0.00177049
0.00174777
0.00175642
0.00172863
0.00173846
0.0017075
0.00171831
0.00168485
0.00169639
0.00166061
0.00167293
0.00163525
0.00164807
0.00160892
0.00162224
0.00158153
0.00159538
0.00155318
0.00156749
0.00152405
0.00153873
0.00149428
0.00150926
0.00146402
0.00147923
0.00143338
0.00144877
0.00140244
0.00141797
0.00137127
0.0013869
0.00133994
0.00135565
0.00130849
0.00132425
0.00127698
0.00129277
0.00124545
0.00126124
0.00121392
0.0012297
0.00118243
0.00119819
0.001151
0.00116672
0.00111964
0.00113533
0.00108839
0.00110402
0.00105722
0.00107281
0.00102617
0.0010417
0.000995217
0.0010107
0.000964382
0.000979803
0.000933818
0.000949046
0.000902492
0.000918576
0.000870666
0.000885511
0.000838341
0.00085425
0.000830263
0.000822542
0.000826927
0.000838406
0.000833795
0.000844912
0.000842275
0.000849243
0.000847141
0.000852727
0.000851129
0.000855
0.00085402
0.00085599
0.000855659
0.000855666
0.000855993
0.000854051
0.000855017
0.00085119
0.000852774
0.000847228
0.000849325
0.000842326
0.000845025
0.000834755
0.0008386
0.000827528
0.00083093
0.000855323
0.000824461
0.000839705
0.00088786
0.000871249
0.000919706
0.000903491
0.000950347
0.000935045
0.000981192
0.000965771
0.00101218
0.000996696
0.00104332
0.00102776
0.0010746
0.00105897
0.001106
0.00109031
0.00113753
0.00112178
0.00116915
0.00115336
0.00120087
0.00118503
0.00123264
0.00121678
0.00126445
0.00124857
0.00129625
0.00128038
0.001328
0.00131216
0.00135965
0.00134388
0.00139115
0.00137546
0.00142243
0.00140686
0.00145342
0.001438
0.00148404
0.00146882
0.00151418
0.00149921
0.00154376
0.00152908
0.00157265
0.00155833
0.00160074
0.00158684
0.0016279
0.00161448
0.00165399
0.00164112
0.00167887
0.00166663
0.00170237
0.00169084
0.00172431
0.00171359
0.00174443
0.00173465
0.0017625
0.00175378
0.00177852
0.00177076
0.00179192
0.00178574
0.00180215
0.00179745
0.00181042
0.00180653
0.00180884
0.0018397
0.00184193
0.0018259
0.00182037
0.00182645
0.00182768
0.00184211
0.00183433
0.00183622
0.00083524
0.00081884
0.000812298
0.000808564
0.00184373
0.00184324
0.00184868
0.00185257
0.00185491
0.00185582
0.0018059
0.00180046
0.00178907
0.0017944
0.00182058
0.00182283
0.00183614
0.00183315
0.00184593
0.00184935
0.00185081
0.0018586
0.00185465
0.00184943
0.0018395
0.00183617
0.00182793
0.00181263
0.00181838
0.00182755
0.00180025
0.00178409
0.00179976
0.00180562
0.00178453
0.00178219
0.00176944
0.00178094
0.00175493
0.00176193
0.0017384
0.00174712
0.00171932
0.00172912
0.00169834
0.00170907
0.00167577
0.00168727
0.00165172
0.00166394
0.00162649
0.00163926
0.00160024
0.00161352
0.00157299
0.00158676
0.00154483
0.00155904
0.0015159
0.00153047
0.00148635
0.00150122
0.0014563
0.0014714
0.00142587
0.00144115
0.00139513
0.00141055
0.00136416
0.00137969
0.00133302
0.00134863
0.00130177
0.00131743
0.00127044
0.00128613
0.00123909
0.00125479
0.00120774
0.00122344
0.00117643
0.0011921
0.00114518
0.00116082
0.001114
0.0011296
0.00108291
0.00109846
0.00105192
0.00106742
0.00102104
0.00103649
0.000990263
0.00100566
0.000959609
0.000974939
0.000929102
0.000944346
0.000898824
0.000913974
0.000866903
0.000882394
0.000851062
0.000816405
0.000807468
0.000812673
0.000823819
0.000819888
0.000829409
0.000826854
0.000833894
0.00083176
0.000837329
0.000835757
0.000839568
0.000838603
0.000840544
0.000840217
0.000840226
0.000840547
0.000838636
0.000839588
0.000835827
0.000837381
0.000831885
0.000833985
0.000826999
0.000829609
0.000819762
0.00082367
0.000815858
0.000852387
0.000821613
0.000836587
0.000884763
0.000868192
0.000915134
0.000899806
0.000945761
0.000930456
0.000976475
0.00096113
0.00100731
0.000991901
0.00103828
0.0010228
0.00106939
0.00105385
0.00110063
0.00108502
0.00113198
0.00111632
0.00116343
0.00114772
0.00119497
0.00117922
0.00122657
0.00121079
0.00125819
0.00124241
0.00128981
0.00127403
0.00132137
0.00130563
0.00135284
0.00133716
0.00138415
0.00136855
0.00141524
0.00139976
0.00144603
0.00143071
0.00147645
0.00146133
0.00150641
0.00149153
0.00153579
0.00152121
0.00156451
0.00155028
0.00159243
0.00157861
0.00161943
0.00160609
0.00164538
0.00163258
0.00167013
0.00165795
0.00169351
0.00168204
0.00171535
0.00170468
0.00173542
0.00172566
0.00175349
0.00174475
0.00176945
0.00176176
0.00178288
0.00177659
0.00179343
0.00178852
0.0018008
0.00179774
0.00180436
0.00180265
0.00181112
0.00180204
0.00180491
0.00180032
0.00180484
0.00184718
0.00184835
0.00183585
0.00183695
0.000803885
0.00080506
0.00184977
0.00184303
0.00184479
0.00185168
0.00185107
0.00185576
0.00185885
0.00186042
0.00186036
0.00178027
0.00178439
0.00178358
0.001799
0.00180313
0.0018105
0.00182985
0.00182997
0.00184183
0.00184331
0.00184984
0.00185309
0.00186087
0.00185594
0.00184906
0.00184242
0.00183316
0.00182182
0.00181018
0.00179374
0.00180481
0.0017942
0.00183689
0.00179879
0.00177489
0.00178788
0.00178463
0.00178644
0.00179034
0.00177259
0.00177835
0.00176078
0.00176811
0.00174567
0.00175326
0.00172883
0.00173759
0.00170978
0.00171957
0.00168889
0.00169958
0.00166641
0.00167786
0.0016425
0.00165464
0.0016174
0.00163011
0.00159126
0.00160448
0.00156415
0.00157784
0.00153616
0.00155028
0.00150744
0.00152191
0.0014781
0.00149286
0.00144826
0.00146326
0.00141804
0.00143322
0.00138751
0.00140283
0.00135674
0.00137217
0.0013258
0.00134131
0.00129475
0.00131031
0.00126362
0.00127921
0.00123246
0.00124806
0.0012013
0.0012169
0.00117018
0.00118575
0.00113911
0.00115465
0.00110811
0.00112362
0.00107721
0.00109267
0.0010464
0.00106181
0.0010157
0.00103105
0.000985106
0.00100041
0.000954635
0.000969873
0.000924299
0.000939466
0.000894256
0.000909233
0.000863021
0.000878477
0.000832148
0.00084768
0.000800972
0.000815834
0.000793229
0.000785099
0.000789717
0.000801863