/*--------------------------------*- C++ -*----------------------------------*\
  =========                 |
  \\      /  F ield         | OpenFOAM: The Open Source CFD Toolbox
   \\    /   O peration     | Website:  https://openfoam.org
    \\  /    A nd           | Version:  10
     \\/     M anipulation  |
\*---------------------------------------------------------------------------*/
FoamFile
{
    format      ascii;
    class       surfaceScalarField;
    location    "97";
    object      phi;
}
// * * * * * * * * * * * * * * * * * * * * * * * * * * * * * * * * * * * * * //

dimensions      [0 3 -1 0 0 0 0];

internalField   nonuniform List<scalar> 
57492
(
0.000235069
-1.0569e-05
-4.35924e-05
-0.000180908
-0.000161978
0.000266707
0.00013034
-2.87409e-05
8.07934e-05
0.000323135
-0.000375187
0.00315991
0.00338638
-0.000272146
-0.00627415
-0.00862825
0.00404525
0.00774292
0.000630076
-0.000578312
-0.000303598
0.000251834
-0.00111982
0.000188173
-6.2243e-05
0.000993893
0.000242901
-0.000732648
0.00159329
-0.00463279
0.00442496
-0.00138546
0.00134462
0.00424832
-0.00399965
-0.0006102
-0.000205982
0.000682477
0.000133706
-0.00012211
-0.000830332
0.000342242
0.000231293
-0.000324498
-2.89057e-05
-5.31179e-05
7.8429e-05
0.00150719
-0.00145828
-0.000545317
0.00049641
0.000219793
0.0012173
7.0096e-05
-0.000324955
0.000788814
0.00333521
-0.00379907
-0.000661073
0.00326111
-0.00292499
0.000135381
-0.0002884
0.000153019
-0.0016625
0.00121936
0.000578528
-0.0046597
0.000189041
0.00333534
0.00113533
0.00122871
-0.00472988
-0.00115853
-0.000132849
-0.000195769
-0.000700893
0.00102951
-0.000286475
0.000175617
-2.19909e-05
-0.00254194
0.0021578
0.000733282
-0.000349139
-0.00304567
0.000925684
-0.000421953
-0.00112665
0.000595783
0.000456397
7.44695e-05
-0.000778295
-0.000361883
1.35285e-05
-0.000366954
-0.00113284
0.00128958
0.000210215
-0.000415677
0.000116271
-6.75469e-05
0.00065601
-0.000436104
-0.000406575
0.00018667
-0.00056537
0.000458
0.00076338
-0.000775576
-0.00148813
0.00145154
0.000812164
-0.00177877
-0.000421243
0.00142443
-0.000707266
-0.00015196
0.000859226
-0.000271187
-0.000436079
-0.00137456
0.00189185
-0.000788482
0.000203031
-0.000767352
-0.000810236
-0.000493961
0.000682135
-0.000233048
-0.0019019
0.00115086
0.000751036
-0.0043218
0.0024199
0.00486209
-0.000799855
0.000331064
-0.0043933
0.00357314
-9.80155e-05
0.00138697
-0.000707474
0.00488114
-0.00497352
0.00123417
0.000268991
-0.00126026
0.00124669
-7.47627e-05
0.00151392
-0.00056837
-0.00112841
0.000182863
0.00169466
8.82517e-05
0.000764306
-0.000476961
0.000959345
0.000753626
0.00100457
-0.00475749
-0.000631948
0.000542329
0.00484711
-0.00489079
-0.000295386
0.000428682
0.00122094
0.00451232
-0.00443714
-0.00129612
0.000892834
-0.00430468
-0.00277217
0.00252568
0.00253003
-0.00228355
-0.000269977
0.00319933
-0.00570152
1.47991e-05
-0.00011635
-7.97934e-07
0.000102348
-0.000320308
1.0609e-05
6.6833e-05
-0.000135609
-0.000251532
-5.61622e-05
6.64565e-06
1.10909e-05
-1.18888e-05
8.82378e-06
2.26712e-06
0.00729794
0.00378489
-0.00587572
-0.0052071
0.00233722
-0.000702022
0.00566274
-0.00784829
0.00309925
0.00708626
0.0022934
-0.0063568
0.00162384
-0.00286522
0.00213312
-0.000891732
0.0023556
-0.00291378
0.00218202
-2.9761e-05
2.17427e-05
-2.55071e-06
-6.99693e-05
-3.38421e-06
-0.000221999
-2.88781e-05
-0.00293742
0.00534598
0.00339221
-0.00580077
0.00436231
-0.00494413
0.00298384
0.00474567
-0.00238353
0.0100781
-0.00147718
-0.00179182
-0.00680915
0.00224562
0.00541471
0.00241783
0.0016079
-0.00500093
0.00563865
4.67543e-05
-7.54952e-05
0.000127548
0.000815401
0.00175631
-0.000625876
-0.00194583
0.00103901
9.953e-05
-9.54465e-05
2.62097e-05
6.92368e-05
-0.000297345
0.000201898
-0.00660234
0.00342366
-0.00201294
0.00519162
-0.00574023
-0.00249429
0.00163219
-0.00262449
0.00208727
-0.00520302
0.00195089
-2.66237e-05
-0.00094386
-0.000980403
-0.00071126
0.00222649
0.00043566
-0.000834196
-8.52106e-05
0.000208147
-0.000771178
-8.9641e-05
-0.000271365
-0.00144367
-0.000237917
-6.23343e-05
1.9002e-05
0.000281249
-0.000214799
-0.000521108
0.000497991
0.000137687
1.6942e-05
-0.000369428
7.95293e-05
-4.17672e-06
0.000101134
-2.6026e-06
-0.000640829
0.000369463
8.34521e-05
-0.000724281
0.000172129
-0.000469474
0.00427365
0.0033316
-0.000178534
0.00212861
-0.00648321
-1.0424e-05
0.00226404
-0.00179751
-0.000456112
0.000291643
0.00316423
-0.0034663
0.00326782
0.00183737
-0.000496464
-0.00460873
-0.0010347
0.000503595
0.00379892
0.0039845
-0.00318182
-0.0016431
-0.00303441
0.00125227
0.00342524
-0.00118409
0.00350462
-0.00396363
0.000424289
-0.0046428
8.22665e-05
3.37156e-05
-4.56704e-06
0.00104248
-0.000614929
-0.000589528
7.61693e-05
-0.000322614
0.00128892
0.000362026
-1.91493e-05
-0.000187104
0.000331907
6.8322e-05
-0.000213125
0.000991924
-0.0012158
3.67677e-05
-0.000357775
0.00083097
0.00051873
-0.000125168
9.92996e-05
-0.00611054
0.00365207
0.00588212
0.00772161
-0.00200486
-0.00821104
-0.00285389
0.00446496
-9.70666e-05
-0.000873769
-0.000162002
-0.000521862
9.11808e-06
4.77238e-05
-0.000130061
3.74915e-05
4.48456e-05
-0.000129921
0.000144259
3.33855e-05
-0.000298926
3.89441e-05
-0.00026511
-0.000312548
5.57959e-05
-0.000803156
-0.000335723
-0.000712031
-0.00076382
0.000871419
0.000604433
2.87233e-05
0.000378236
-0.00111899
-0.000995316
0.000260219
-0.00293265
0.0013301
-5.99506e-05
-0.00350112
0.000809182
-0.000240712
0.00087588
-0.00334741
0.00256426
-9.27364e-05
0.00067893
-0.00272861
0.00292556
0.0025281
-0.0101973
-0.00176475
0.00218095
0.00302036
-0.00345501
0.00206055
-0.000320655
2.75143e-07
1.66669e-05
-3.49422e-06
3.76939e-06
0.00028408
-4.12758e-05
0.00557621
-0.00340841
-0.00249565
0.000327845
0.00482843
4.03047e-05
0.00463659
0.00016994
-0.0050765
0.00138032
0.00329246
-3.61975e-05
0.000551655
-0.0029082
0.00373687
5.31601e-06
-8.81023e-06
0.000759134
-0.00211935
-0.00284576
0.0012313
0.00308246
0.000739852
-4.21974e-05
-0.000777825
8.01707e-05
0.000246806
-7.23242e-05
-0.000953161
0.000213875
0.00119729
0.000174755
-0.00088111
-0.000134946
7.61383e-05
-7.00246e-06
1.03197e-05
-2.98523e-06
-3.32029e-07
1.09295e-05
-2.55666e-07
-1.76763e-05
4.67746e-05
-0.000103148
6.73032e-05
-0.00171386
0.00264636
-0.000760373
0.00291516
-0.00377983
-0.000849188
7.68958e-06
-0.00131369
0.00151987
-0.00398853
0.000240834
-0.00273441
-0.00182952
0.000575397
0.00269052
0.00291176
-0.00541324
0.00260586
0.00429228
-0.00420762
0.00224086
-0.00308395
0.00160578
-0.00076269
0.00245614
-0.00302307
0.00280779
0.00436997
0.00187712
0.00500284
-0.000228419
-0.0049683
0.000193875
0.00554414
-0.000656968
0.00011567
0.0055282
-0.000906944
8.67158e-05
-0.00470797
0.00396763
-0.00137899
0.00293956
0.00430738
-0.00140629
0.0011433
-0.00404439
0.0012721
0.00438727
-0.00135199
-0.0038756
-0.00166767
0.00413698
0.00106884
-0.00369216
-0.00186216
0.00361972
-0.00238057
-0.00323852
0.00215657
0.00346252
-0.00239636
-0.00326653
0.00328232
0.00223614
0.00304528
-0.00147559
-0.00380583
0.00301902
-0.00317924
-0.00259045
0.00261518
0.00299429
-0.00204167
0.00249651
-0.0040684
0.00361445
-0.00102164
-0.00506468
0.00105453
0.00537407
-0.00136392
0.00191115
-0.000262576
0.000988038
-0.00105374
0.000328279
-0.00010651
0.00126677
-0.00142284
-5.28802e-05
0.000304585
0.000110321
-0.000957212
-0.00150547
0.000981491
-1.48897e-07
-1.06769e-07
3.0744e-07
-4.56339e-07
-8.61425e-05
-0.00165832
0.0012675
-0.00148229
-5.70979e-05
0.00145324
3.84269e-05
-0.00155361
3.28961e-05
-0.00024789
0.00151852
0.000273333
-0.00154396
0.0015688
0.000423821
-0.00224051
0.0015416
0.00154572
-2.44801e-06
5.07535e-07
3.56561e-05
-4.74794e-06
2.29993e-06
-4.2404e-06
-5.53311e-06
4.22173e-06
-5.48508e-05
1.02145e-06
-6.55456e-06
5.24318e-06
-4.38606e-05
2.12556e-05
-0.00026387
2.21327e-05
-6.59933e-05
4.33882e-05
5.32168e-05
-5.34449e-06
-0.00017304
-1.69146e-05
7.01313e-05
-2.22591e-05
0.00142812
0.00327757
-0.0042021
0.00132197
-0.00446015
0.00456629
0.00471289
-0.00011335
-0.00118218
-0.00244409
0.00115805
0.00246822
-0.000710339
0.00272146
-0.0031933
0.000157399
-0.00331183
0.00354715
-0.00356202
-8.117e-06
2.29842e-05
0.00356396
3.52597e-05
-5.20706e-05
-1.90031e-05
-0.00353787
-5.1424e-06
0.00360899
1.948e-06
-4.69797e-05
0.00369186
5.57983e-05
-0.000138667
2.91285e-05
0.00380261
-0.00013988
0.00375599
-0.0037155
-1.13591e-05
-0.000174757
0.00399953
-2.21631e-05
0.00366924
-8.80088e-05
-0.00358373
-7.5981e-05
-0.00355326
-2.85138e-05
-0.00352994
1.19348e-05
-0.00358685
4.87995e-05
-0.00350935
-9.65055e-05
-0.000170872
0.00419256
-2.21551e-05
0.00351473
-1.63546e-05
-1.43334e-05
-0.00348898
-3.45551e-05
-0.0035188
-4.88291e-06
-2.15896e-05
-0.00367086
0.000203466
1.3961e-06
0.00421295
-2.17913e-05
0.00353258
-1.64593e-05
-0.00362809
8.7702e-05
0.00423323
1.3931e-06
-2.16654e-05
1.14852e-06
0.00425326
-2.118e-05
0.00355004
-1.60658e-05
0.00356749
-1.62988e-05
-1.7512e-05
-0.00362843
-2.49183e-05
-0.0036271
-1.8507e-05
1.23017e-06
0.00427306
-2.10306e-05
0.00358466
-1.5942e-05
3.10052e-06
-0.00360638
-2.51478e-05
-0.00360496
-1.90435e-05
1.098e-06
0.00429248
-2.05155e-05
0.00360197
-1.62161e-05
3.1877e-06
-0.00358401
-2.55645e-05
-0.00358268
-1.90927e-05
1.3958e-06
0.00431144
-2.036e-05
0.00361925
-1.58837e-05
3.07753e-06
-0.00356138
-2.57037e-05
-0.00355996
-1.96419e-05
1.69622e-06
0.00432957
-1.98236e-05
0.00363714
-1.61895e-05
3.14248e-06
-0.00353847
-2.60472e-05
-0.0035371
-1.97121e-05
2.88688e-06
0.00434635
-1.9666e-05
0.0036559
-1.58735e-05
1.12259e-05
-0.00352357
-2.61299e-05
-0.00350565
-2.02225e-05
4.98813e-06
0.00436047
-1.91114e-05
0.00367708
-1.61941e-05
2.59497e-05
-0.00340159
-0.000147927
-0.00342328
-5.64281e-05
9.81878e-06
0.00436961
-1.89571e-05
0.00368584
1.06376e-06
2.54751e-05
-0.00339545
-3.16219e-05
-0.00337533
-2.24735e-05
1.91837e-05
0.00436883
-1.84011e-05
0.00367572
2.93047e-05
5.09922e-05
-0.003253
-0.000193437
-0.00325567
-6.86665e-05
0.000187962
0.0041991
-1.82367e-05
0.00380365
6.00274e-05
5.75638e-05
-0.00321565
-9.49117e-05
-0.0031978
-3.03825e-07
0.000167048
0.00390644
0.000125608
0.0038827
8.79995e-05
8.92569e-05
-0.000148218
-0.00315669
-0.00316272
5.4175e-05
1.23346e-05
2.03651e-05
0.00387375
0.0038737
2.133e-05
-0.00323867
0.00331267
-0.000168904
-0.00323395
-0.000152937
0.000149129
-0.000153646
-0.00315217
5.29863e-05
-0.00306658
-0.00326355
0.00331423
-8.23027e-05
-0.000144325
-0.0032143
0.00323559
-4.74264e-05
-4.79913e-05
-0.00325648
0.00327717
-4.63869e-05
-4.69359e-05
-0.00329748
0.00331763
-4.53021e-05
-4.58775e-05
-0.00333748
0.00358525
-4.43027e-05
-4.47689e-05
-0.00359454
0.00356446
2.49335e-05
-4.3842e-05
-0.00369866
0.0036889
-4.23048e-05
-0.000111215
-0.00358857
0.00355422
-0.000104319
5.33489e-05
-0.00348756
0.00350556
-4.01664e-05
-7.32177e-05
-0.00352318
0.00354065
-3.92629e-05
-3.97716e-05
-0.00355784
0.00357496
-3.8303e-05
-3.8853e-05
-0.00359181
0.00360862
-3.73165e-05
-3.78836e-05
-0.00362515
0.00364165
-3.6319e-05
-3.68971e-05
-0.00365789
0.0036741
-3.53196e-05
-3.59048e-05
-0.00369005
0.00370596
-3.43086e-05
-3.49136e-05
-0.00370005
0.00380247
2.3181e-05
-1.23237e-05
0.00380851
1.43317e-05
-2.29018e-05
5.84764e-05
0.00383817
-1.91304e-05
0.00386993
0.00380109
-0.00372302
-1.80405e-05
-0.00385412
0.00386188
1.35663e-05
3.49697e-05
0.00370687
-0.00367384
-3.1964e-05
1.31488e-05
0.00365772
-0.00364129
-3.23004e-05
-3.23103e-05
0.00362486
-0.00360812
-3.26249e-05
-3.26239e-05
0.00359136
-0.00357428
-3.3018e-05
-3.29755e-05
0.00355717
-0.00353973
-3.35073e-05
-3.34106e-05
0.00352223
-0.00350446
-3.41306e-05
-3.39548e-05
0.00355783
-0.00353439
-3.47993e-05
-3.46353e-05
0.0035751
-0.00351772
-8.58899e-05
-3.52729e-05
0.0034761
-0.00343479
7.48916e-06
-2.96864e-05
0.00345859
-0.00346166
-1.81799e-06
-7.27054e-05
0.00333592
-0.00331601
-3.84113e-05
-3.80366e-05
0.00329595
-0.00327549
-3.95544e-05
-3.91036e-05
0.00325488
-0.00323385
-4.074e-05
-4.02591e-05
0.00321262
-0.00322707
-4.19718e-05
-4.14549e-05
0.00320682
-0.00323218
-4.33115e-05
-4.27243e-05
0.00318829
-0.00312016
-1.39539e-05
-4.41861e-05
-0.00306487
-2.31266e-06
-0.00323521
-0.00015239
0.00383639
3.05895e-05
-3.11829e-05
0.00387394
9.30723e-05
-0.00010456
-0.00305509
4.77732e-05
-0.00301957
0.000131615
-0.000148571
-0.00321825
-0.00312512
-0.00324227
0.00321135
-0.000137987
0.00325727
-0.00326163
-0.000148031
-0.000137932
-0.00319159
0.00321319
-0.000103904
-0.000124565
-0.00323434
0.00325529
-6.83799e-05
-6.91357e-05
-0.00327584
0.00329621
-6.6748e-05
-6.74902e-05
-0.0033162
0.00333603
-6.51369e-05
-6.58691e-05
-0.00335555
0.00337485
-6.36044e-05
-6.42827e-05
-0.00339381
0.00348091
-6.21729e-05
-6.2802e-05
-0.00343107
0.00344947
-6.07032e-05
-6.13732e-05
-0.00356283
0.00351783
-5.93267e-05
-6.00083e-05
-0.00350311
0.00352078
-5.78375e-05
-5.8496e-05
-0.00353812
0.00355535
-5.64921e-05
-5.71123e-05
-0.00357229
0.00358916
-5.51707e-05
-5.57883e-05
-0.00360575
0.00362229
-5.38582e-05
-5.44763e-05
-0.00363857
0.00365481
-5.25566e-05
-5.31737e-05
-0.00367078
0.00368673
-5.12675e-05
-5.18838e-05
-0.00370242
0.00371806
-4.99515e-05
-5.06005e-05
-0.00373318
0.0037781
-2.17427e-05
-2.74388e-05
-7.27658e-06
-1.68308e-05
0.00386228
-2.93694e-05
0.00385849
-0.0037817
0.00383418
-2.18871e-05
1.07328e-05
0.00382173
-0.00380725
-9.1401e-07
0.00380611
-1.55577e-05
1.34627e-05
1.34463e-05
0.00384703
0.00386656
0.00379248
-0.00374982
-6.06977e-05
2.02001e-05
0.00370237
-0.00368643
-4.79054e-05
-3.43082e-05
0.0036705
-0.00365429
-4.85153e-05
-4.82322e-05
0.00363807
-0.00362155
-4.9145e-05
-4.88387e-05
0.00360502
-0.00358818
-4.98637e-05
-4.95089e-05
0.0035713
-0.00355412
-5.06957e-05
-5.02817e-05
0.0035369
-0.00351937
-5.16518e-05
-5.11747e-05
0.00350183
-0.00348393
-5.26997e-05
-5.21844e-05
0.00346592
-0.00349793
-5.38817e-05
-5.32734e-05
0.0034731
-0.00341045
-5.51517e-05
-5.45236e-05
0.0034273
-0.0033725
-5.66225e-05
-5.58582e-05
0.0033532
-0.00333351
-5.80989e-05
-5.73341e-05
0.00331371
-0.00329352
-5.97443e-05
-5.89067e-05
0.00327318
-0.00325242
-6.14943e-05
-6.06022e-05
0.00323148
-0.00321009
-6.33567e-05
-6.23992e-05
0.00318849
-0.00316642
-6.53818e-05
-6.43302e-05
0.00314414
-0.00309048
-6.76123e-05
-6.64651e-05
0.00305082
-0.00298789
-1.51597e-05
-4.19709e-05
-0.00326121
-0.000148991
3.4224e-05
-0.000102953
-0.00295084
-0.00294767
-5.9958e-06
-0.000171185
-0.00298686
-2.22001e-05
0.00382701
0.00382753
-7.9799e-06
-9.64916e-05
9.08695e-05
-0.00321263
-0.000117834
-0.00323987
1.21359e-05
-9.87813e-05
-0.00286419
-2.89985e-05
-0.00290653
-0.00320544
0.0038597
-0.0038343
-4.72922e-05
0.00383491
2.59025e-06
3.6734e-05
-1.35944e-05
0.00382389
-1.51359e-06
0.00386578
-0.00324017
0.00329836
-0.000176023
-0.00016278
0.000121372
-0.00319846
0.00329202
8.18648e-06
0.00017625
-0.00347646
-0.000110922
-0.00331717
0.00331281
-0.000143673
-0.000167801
-0.00329125
0.00325902
-0.00010576
-0.000116374
-0.00325544
0.00324268
-9.11454e-05
-0.000120983
-0.00326337
0.00328383
-8.8841e-05
-8.98221e-05
-0.00330389
0.00332375
-8.66143e-05
-8.75483e-05
-0.00334326
0.00336261
-8.44846e-05
-8.53746e-05
-0.00338162
0.00340047
-8.24606e-05
-8.32947e-05
-0.003419
0.00343736
-8.05346e-05
-8.13252e-05
-0.00345542
0.00347338
-7.86593e-05
-7.94344e-05
-0.00349098
0.00350851
-7.68554e-05
-7.76107e-05
-0.00352579
0.003543
-7.50428e-05
-7.57774e-05
-0.00355991
0.00357675
-7.33271e-05
-7.40284e-05
-0.0035933
0.00360979
-7.16593e-05
-7.2341e-05
-0.00362601
0.00364218
-7.00278e-05
-7.06953e-05
-0.00365809
0.00367396
-6.84276e-05
-6.90829e-05
-0.00368957
0.00370516
-6.6853e-05
-6.75001e-05
-0.00372049
0.0037358
-6.526e-05
-6.5932e-05
-0.00376109
0.00378178
-4.24308e-05
-5.2728e-05
-4.17901e-05
9.4719e-06
-9.11007e-06
0.00386192
-9.3458e-06
-3.55133e-05
0.00387187
0.00385861
0.00384386
0.00382767
-0.00380905
-1.95329e-05
-0.00383674
0.00382994
-1.18658e-06
-2.4628e-05
0.00375119
-0.00374913
-6.27592e-05
-3.76556e-05
0.00372043
-0.0037048
-6.35398e-05
-6.30031e-05
0.0036892
-0.00367331
-6.4405e-05
-6.38344e-05
0.00365742
-0.00364124
-6.53303e-05
-6.47261e-05
0.00362504
-0.00360854
-6.63627e-05
-6.57044e-05
0.00359202
-0.0035752
-6.75219e-05
-6.68011e-05
0.00355834
-0.00354118
-6.88144e-05
-6.80288e-05
0.00352398
-0.00350644
-7.02321e-05
-6.93861e-05
0.00348885
-0.00347092
-7.18032e-05
-7.0872e-05
0.00345293
-0.00343458
-7.35052e-05
-7.25191e-05
0.00341614
-0.00339738
-7.53765e-05
-7.42977e-05
0.00337849
-0.00335923
-7.73561e-05
-7.62243e-05
0.00333985
-0.0033201
-7.95029e-05
-7.82867e-05
0.00330019
-0.00327988
-8.18027e-05
-8.05094e-05
0.00325939
-0.00323848
-8.42692e-05
-8.28874e-05
0.00321736
-0.0031958
-8.69444e-05
-8.54506e-05
0.00317401
-0.00315176
-8.98635e-05
-8.82476e-05
0.00310244
-0.00302449
-9.31039e-05
-9.12972e-05
0.00297121
-0.00295744
-4.27649e-05
-5.92821e-05
-1.87341e-05
-1.48989e-06
-0.00288631
-0.00292233
-5.38401e-05
0.000116504
-0.00320777
-7.26704e-05
-0.00301297
-2.35366e-05
0.00382294
0.00385798
-2.9553e-05
0.000158714
-0.00334899
3.03266e-05
-0.00289601
0.000728179
-0.00268395
0.00349737
2.43484e-05
-6.33424e-05
-0.00288334
-2.48115e-05
-0.00283715
-0.00216658
0.00331174
0.000400555
-0.00165233
-0.000240908
-0.0031616
-0.00316221
0.0033153
2.31599e-05
0.000170441
-2.0907e-05
-0.00330228
0.00329242
-0.000166159
-9.79078e-05
-0.00328618
0.00326055
-0.00011804
-0.000161564
-0.00326022
0.0032691
-0.000114631
-0.000116047
-0.00326083
0.00328115
-0.000111464
-0.000112719
-0.00330108
0.00332081
-0.000108575
-0.000109748
-0.00334019
0.00335939
-0.000105821
-0.000106925
-0.00337826
0.00339698
-0.000103203
-0.000104242
-0.00341537
0.00343363
-0.000100715
-0.000101689
-0.00345156
0.00346937
-9.83429e-05
-9.9262e-05
-0.00348687
0.00350427
-9.60591e-05
-9.69372e-05
-0.00352137
0.00353837
-9.38591e-05
-9.47049e-05
-0.00355512
0.00357179
-9.17123e-05
-9.25217e-05
-0.00358818
0.00360451
-8.96522e-05
-9.04238e-05
-0.00362056
0.00363656
-8.76576e-05
-8.83983e-05
-0.0036523
0.00366799
-8.57194e-05
-8.6434e-05
-0.00368343
0.00369883
-8.38304e-05
-8.45226e-05
-0.00371399
0.00372912
-8.19805e-05
-8.26565e-05
-0.003744
0.00375887
-8.01299e-05
-8.08164e-05
-0.00378511
0.00382101
-7.83228e-05
-7.89694e-05
-0.00382589
0.00383723
-5.864e-05
-4.66707e-05
-0.00386631
0.00387446
-3.16844e-05
-2.64834e-05
8.18468e-06
4.41969e-07
0.00386324
2.84203e-05
-6.9257e-05
0.00391529
0.00385954
2.25589e-05
1.5057e-05
0.0038243
0.00388161
-1.05384e-05
-1.2813e-05
0.00384724
0.00384838
2.41578e-05
-5.87055e-05
0.00389253
0.00387713
0.00388647
-0.00385885
-2.87981e-05
-0.00396008
0.00387083
3.05441e-05
-0.000103168
0.00383547
-0.00381309
-4.1914e-05
-4.80153e-05
0.00377382
-0.00375887
-7.77048e-05
-7.69211e-05
0.00374394
-0.00372873
-7.87506e-05
-7.79353e-05
0.00371355
-0.00369809
-7.98655e-05
-7.90182e-05
0.00368263
-0.00366689
-8.10745e-05
-8.01829e-05
0.00365113
-0.00363509
-8.24072e-05
-8.14568e-05
0.00361903
-0.00360267
-8.38808e-05
-8.28638e-05
0.00358628
-0.00356959
-8.55026e-05
-8.44154e-05
0.00355286
-0.00353582
-8.72766e-05
-8.61162e-05
0.00351872
-0.0035013
-8.92198e-05
-8.79752e-05
0.00348381
-0.00346599
-9.13261e-05
-9.00062e-05
0.00344809
-0.00342986
-9.36075e-05
-9.21983e-05
0.00341152
-0.00339283
-9.60487e-05
-9.45628e-05
0.00337402
-0.00335484
-9.86784e-05
-9.70984e-05
0.00333553
-0.00331583
-0.0001015
-9.98251e-05
0.00329596
-0.0032757
-0.000104532
-0.00010275
0.00325525
-0.00323439
-0.000107807
-0.0001059
0.00321333
-0.00319183
-0.000111356
-0.000109312
0.00317013
-0.00314802
-0.000115211
-0.000113004
0.0030903
-0.00301368
-0.000119379
-0.000117007
0.00299754
-0.00296633
-9.45529e-05
-6.99764e-05
-5.84981e-05
4.0067e-05
-0.00286491
-0.00292524
-9.95931e-05
0.000111649
-0.0031607
-1.88449e-05
-0.0029638
0.000278265
-0.00289908
3.1632e-05
-0.00295245
0.00390375
-0.00389504
-4.03958e-05
0.00390205
-6.7559e-05
-1.32678e-05
1.33349e-05
0.00389246
-6.23071e-05
0.00391987
0.000292559
-0.00255269
5.87137e-05
-0.0028558
-0.00145834
-0.00173795
-0.00260019
0.00301448
-1.3737e-05
-3.9686e-05
3.65921e-05
-0.00286181
-7.79874e-05
-0.00288694
-0.00238899
-0.000452103
-0.0030688
-0.00316633
0.00322701
-3.75145e-05
1.8591e-05
-0.00327389
0.00325031
-0.000142587
-0.000144789
-0.00322874
0.00324902
-0.000138313
-0.000139993
-0.00326898
0.00328878
-0.000134438
-0.000136007
-0.00330831
0.00332767
-0.000130824
-0.00013225
-0.00334671
0.00336559
-0.000127453
-0.000128782
-0.00338415
0.00340256
-0.000124233
-0.000125484
-0.00342066
0.00343862
-0.000121169
-0.000122342
-0.00345629
0.00347382
-0.000118251
-0.000119351
-0.00349106
0.00350818
-0.000115467
-0.000116501
-0.00352502
0.00354176
-0.000112797
-0.000113775
-0.00355822
0.00357459
-0.000110231
-0.00011116
-0.0035907
0.00360674
-0.000107752
-0.000108633
-0.00362252
0.00363823
-0.000105368
-0.000106204
-0.0036537
0.0036691
-0.000103065
-0.00010386
-0.00368426
0.00369938
-0.000100836
-0.000101595
-0.00371426
0.0037291
-9.86715e-05
-9.93984e-05
-0.0037437
0.00375828
-9.65613e-05
-9.72625e-05
-0.00377264
0.00378699
-9.44826e-05
-9.51712e-05
-0.00380113
0.00381523
-9.24312e-05
-9.31041e-05
-0.00385967
0.0038604
-5.93715e-05
-9.11023e-05
-6.11246e-05
-3.51138e-06
-3.64147e-05
0.00390317
4.18799e-05
-4.55161e-05
0.00391893
0.00389791
-1.42687e-05
-7.70091e-07
0.00383934
0.00383093
-2.14998e-05
2.43888e-05
0.00384435
0.00382611
0.00391485
0.00391489
-0.00389011
-5.35791e-05
-0.00388084
0.00393072
-1.9328e-05
-6.91248e-05
0.00386476
-0.00381565
-9.10306e-05
-7.33589e-05
0.00380145
-0.00378699
-9.21616e-05
-9.1115e-05
0.00377257
-0.00375789
-9.34347e-05
-9.23596e-05
0.00374322
-0.00372829
-9.47989e-05
-9.36838e-05
0.00371336
-0.00369815
-9.62791e-05
-9.51124e-05
0.00368294
-0.00366745
-9.78983e-05
-9.66683e-05
0.00365194
-0.00363615
-9.96719e-05
-9.83712e-05
0.00362033
-0.00360423
-0.00010161
-0.000100233
0.00358808
-0.00357163
-0.000103722
-0.000102263
0.00355514
-0.00353834
-0.000106019
-0.000104472
0.00352148
-0.0035043
-0.000108502
-0.000106869
0.00348705
-0.00346948
-0.000111178
-0.000109451
0.00345181
-0.00343381
-0.000114049
-0.000112229
0.0034157
-0.00339725
-0.000117132
-0.000115209
0.00337867
-0.00335973
-0.000120438
-0.000118406
0.00334064
-0.00332119
-0.000123986
-0.000121834
0.00330157
-0.00328158
-0.0001278
-0.000125516
0.00326141
-0.00324087
-0.000131903
-0.000129478
0.00322014
-0.00319905
-0.000136301
-0.000133731
0.00317779
-0.00315619
-0.000140984
-0.000138266
0.00308302
-0.00303165
-0.000145917
-0.000143147
0.00298307
-0.00294118
-0.000119884
-0.000148171
-4.9629e-05
5.52502e-05
-0.00289256
-0.00290728
-8.35221e-05
8.63397e-05
-0.00296877
5.57226e-06
-0.00293774
-4.13524e-05
0.00389789
0.00393063
-6.22219e-05
0.000175281
-0.0027818
-0.000291792
-0.00340706
7.4815e-06
-0.00285196
3.29234e-05
-0.00292666
6.00028e-05
-0.00287921
-0.00340016
-0.000726788
0.000233939
-0.000485205
-0.00314889
-0.000158303
-0.00301482
3.79622e-05
-0.00284453
-8.16518e-05
1.62972e-05
-0.0028272
-6.88013e-05
-0.00292013
-0.00297689
-0.00290083
0.00305037
-0.000163277
0.00303013
-0.0033014
-0.000455526
-0.000322802
-0.00316405
0.00322874
-0.000102207
-9.50876e-05
-0.00324852
0.00326819
-0.000162257
-0.000164569
-0.00328759
0.0033068
-0.000157526
-0.000159386
-0.00332573
0.00334453
-0.000153234
-0.000154936
-0.00336304
0.00338141
-0.000149197
-0.000150766
-0.00339949
0.00341742
-0.000145388
-0.000146854
-0.00343507
0.00345258
-0.000141749
-0.000143128
-0.00346981
0.00348692
-0.000138278
-0.000139571
-0.00350375
0.00352046
-0.000134967
-0.000136179
-0.0035369
0.00355324
-0.000131804
-0.000132941
-0.00356931
0.00358529
-0.000128775
-0.000129844
-0.00360101
0.00361664
-0.000125869
-0.000126877
-0.00363203
0.00364736
-0.000123073
-0.000124023
-0.00366243
0.00367745
-0.000120386
-0.00012128
-0.00369223
0.00370696
-0.000117794
-0.000118639
-0.00372145
0.00373591
-0.00011529
-0.00011609
-0.00375013
0.00376433
-0.000112866
-0.000113625
-0.0037783
0.00379225
-0.00011051
-0.000111234
-0.00380598
0.00381971
-0.000108207
-0.000108905
-0.00383323
0.00384675
-0.000105955
-0.000106624
-0.00386005
0.00390448
-0.000103804
-0.000104401
-0.0039195
0.00394088
-6.17688e-05
-7.61471e-05
-0.00390118
0.00392957
-6.97372e-05
-2.78638e-05
-7.48959e-06
1.01516e-05
0.00391627
7.48515e-05
-0.00010821
0.00396293
0.00396525
4.88536e-06
2.869e-05
0.00386959
0.00391295
-1.39355e-05
-1.01271e-06
0.00385429
0.00384568
1.59013e-05
-3.06922e-05
0.00385914
0.003841
1.72163e-05
-3.79805e-05
0.00391323
0.00390137
5.89935e-05
-6.73125e-05
0.00393895
0.00394088
0.00397376
-0.00391625
-7.68416e-05
-0.00396755
0.00395852
-5.82823e-05
-5.60143e-05
0.00391234
-0.00389094
-7.49847e-05
-7.30278e-05
0.00386086
-0.00384725
-0.000104639
-0.000103433
0.00383364
-0.00381978
-0.000106018
-0.000104731
0.00380595
-0.00379188
-0.000107512
-0.000106187
0.00377782
-0.0037635
-0.000109117
-0.000107746
0.00374918
-0.00373461
-0.000110855
-0.000109427
0.00372003
-0.00370518
-0.000112745
-0.00011125
0.00369032
-0.00367519
-0.000114803
-0.000113233
0.00366003
-0.0036446
-0.00011704
-0.000115389
0.00362913
-0.00361339
-0.000119468
-0.000117729
0.0035976
-0.00358152
-0.000122096
-0.000120265
0.00356538
-0.00354896
-0.000124929
-0.000123003
0.00353246
-0.00351566
-0.000127975
-0.000125949
0.00349878
-0.00348159
-0.000131241
-0.000129111
0.0034643
-0.00344669
-0.00013474
-0.000132499
0.00342897
-0.00341092
-0.000138486
-0.000136127
0.00339274
-0.00337423
-0.000142495
-0.000140009
0.00335559
-0.0033366
-0.000146787
-0.000144164
0.00331747
-0.003298
-0.000151371
-0.000148609
0.00327838
-0.00325844
-0.000156248
-0.000153348
0.00323833
-0.0032179
-0.000161411
-0.000158371
0.00319737
-0.0031765
-0.00016679
-0.000163678
0.00315549
-0.00310289
-0.000172483
-0.000169177
0.00305235
-0.00298219
-0.000138954
-0.00013407
-0.000113326
6.68362e-05
-0.00287364
-0.00296299
-0.000132532
6.1983e-05
-0.00285548
-0.00331353
-0.000473073
5.75996e-05
-0.00283191
0.00401047
-0.00400959
-7.06119e-05
0.00401911
-0.000116849
-4.79144e-05
3.8232e-05
0.00394863
-4.98021e-05
0.00396041
6.62945e-06
-0.00291144
3.39545e-05
-0.00290061
-2.26884e-05
-0.00298758
6.10453e-05
-0.00290229
8.83296e-05
-0.00291656
0.000115798
-0.00287617
-0.000101142
0.000106203
-0.00287871
-0.000153344
-0.00291078
-0.00290827
-0.00331594
0.00318663
-0.000326221
-0.000411357
0.000488138
-0.00339031
0.00342847
-0.00353817
-0.000301663
-0.000360536
-0.00308956
0.0031613
-0.000235015
-0.000225728
-0.00324246
0.00329722
-0.000156966
-0.000176253
-0.003316
0.00333464
-0.000180896
-0.000183344
-0.00335299
0.00337117
-0.000175706
-0.00017774
-0.00338905
0.00340678
-0.000170969
-0.000172815
-0.00342424
0.00344156
-0.000166521
-0.000168225
-0.00345861
0.00347553
-0.000162308
-0.0001639
-0.00349218
0.00350872
-0.000158287
-0.000159781
-0.00352499
0.00354116
-0.000154445
-0.000155846
-0.00355707
0.00357288
-0.000150776
-0.000152088
-0.00358844
0.0036039
-0.000147268
-0.000148497
-0.00361912
0.00363425
-0.00014391
-0.000145061
-0.00364914
0.00366397
-0.00014069
-0.00014177
-0.00367855
0.00369308
-0.000137598
-0.000138611
-0.00370737
0.00372162
-0.000134627
-0.000135576
-0.00373563
0.00374961
-0.000131766
-0.000132657
-0.00376336
0.00377708
-0.000129006
-0.000129844
-0.00379058
0.00380405
-0.000126338
-0.000127127
-0.00381731
0.00383056
-0.000123751
-0.000124497
-0.00384359
0.00385662
-0.000121234
-0.000121942
-0.00386945
0.00388227
-0.000118779
-0.000119453
-0.0038949
0.00390748
-0.000116387
-0.000117025
-0.00394604
0.00397235
-8.80727e-05
-0.000114709
-6.51121e-05
-5.23273e-05
1.37852e-05
0.00395481
5.27858e-05
-9.61152e-05
0.00400625
0.00396571
-4.26662e-05
2.82287e-05
0.00388403
0.00388407
-1.35787e-05
-1.24261e-06
0.00386911
0.00386033
1.60095e-05
-3.07005e-05
0.00387383
0.00385576
-6.23114e-08
-2.62042e-05
0.00393949
0.00387061
0.00395291
0.00400153
-0.00399163
-8.67434e-05
-0.00400476
0.00399801
-5.15292e-05
-5.92439e-05
0.00394983
-0.00390861
-0.000116201
-0.000114833
0.0038959
-0.00388293
-0.000117612
-0.00011614
0.00386998
-0.0038568
-0.000119199
-0.000117678
0.00384365
-0.00383025
-0.000120907
-0.000119343
0.00381687
-0.00380325
-0.000122742
-0.000121127
0.00378963
-0.00377576
-0.000124723
-0.000123047
0.00376188
-0.00374776
-0.000126868
-0.000125122
0.00373363
-0.00371924
-0.000129192
-0.000127368
0.00370483
-0.00369016
-0.000131708
-0.0001298
0.00367546
-0.0036605
-0.000134428
-0.000132429
0.0036455
-0.00363023
-0.000137363
-0.000135266
0.00361492
-0.00359933
-0.000140517
-0.00013832
0.00358368
-0.00356775
-0.000143902
-0.000141599
0.00355175
-0.00353547
-0.000147524
-0.000145111
0.0035191
-0.00350244
-0.000151398
-0.000148868
0.00348569
-0.00346864
-0.000155536
-0.000152882
0.00345148
-0.00343402
-0.000159951
-0.000157166
0.00341645
-0.00339858
-0.000164657
-0.000161735
0.00338059
-0.0033623
-0.00016966
-0.000166599
0.00334389
-0.00332519
-0.000174954
-0.000171759
0.00330635
-0.00328723
-0.000180532
-0.000177206
0.00326798
-0.00324842
-0.000186353
-0.000182928
0.0032287
-0.0032087
-0.000192483
-0.000188894
0.00314762
-0.00308786
-0.00019871
-0.000195155
0.00305265
-0.00303963
-0.000166364
-0.000167739
-0.000288711
0.000109408
-0.00283552
-0.00294946
-0.000122068
0.000129529
-0.00291824
-0.00297621
-0.000185491
1.90559e-05
-0.00281693
-6.56202e-05
0.00398861
0.00404347
-9.52608e-05
0.000241877
-0.00348746
-0.000292586
7.53933e-06
-0.00288503
0.000311236
-0.00345967
1.50082e-05
-0.00286961
3.46467e-05
-0.00287422
3.39718e-05
-0.00291214
6.2078e-05
-0.00287604
8.99061e-05
-0.00289067
0.000117815
-0.00288778
0.000115069
-0.00286425
-0.000149668
0.000129
-0.00289758
-0.000164879
-0.002961
-0.00288168
-0.00358516
0.00346245
-0.000178953
-0.000375806
-0.00341074
0.00029909
0.00366052
-0.0035462
-0.00049013
-0.000217227
-0.00338623
0.00333281
-0.0002728
-0.000284313
-0.00331878
0.00329368
-0.000209913
-0.000211699
-0.00332443
0.00337215
-0.000204682
-0.000207006
-0.00338969
0.00340715
-0.00019835
-0.000200889
-0.00342434
0.00344137
-0.000192737
-0.000194929
-0.00345812
0.00347472
-0.000187576
-0.000189563
-0.00349106
0.00350728
-0.000182735
-0.000184567
-0.00352324
0.00353908
-0.000178151
-0.000179857
-0.00355468
0.00357017
-0.000173779
-0.000175377
-0.00358542
0.00360058
-0.000169602
-0.000171098
-0.0036155
0.00363033
-0.000165609
-0.000167009
-0.00364493
0.00365945