/*--------------------------------*- C++ -*----------------------------------*\
  =========                 |
  \\      /  F ield         | OpenFOAM: The Open Source CFD Toolbox
   \\    /   O peration     | Website:  https://openfoam.org
    \\  /    A nd           | Version:  10
     \\/     M anipulation  |
\*---------------------------------------------------------------------------*/
FoamFile
{
    format      ascii;
    class       surfaceScalarField;
    location    "10";
    object      phi;
}
// * * * * * * * * * * * * * * * * * * * * * * * * * * * * * * * * * * * * * //

dimensions      [0 3 -1 0 0 0 0];

internalField   nonuniform List<scalar> 
81299
(
0.0323746
0.0260887
-0.0395752
-0.0188881
0.0505441
-0.0303177
0.0121482
-0.0522607
-0.024602
0.019483
0.0573797
-0.00907243
0.0295581
-0.0727464
0.0743455
-0.0781211
-0.00529678
0.0575118
-0.00776835
0.0816318
-0.00463697
-0.0431358
0.0337143
0.0668012
0.0442275
-0.0578052
-0.0571301
-0.0306716
0.010871
0.0769306
0.00163849
-0.0345028
-0.0242657
0.0362177
-0.00755973
-0.0270195
-0.0172103
0.0227563
-0.0421114
-0.000412172
0.0533946
-0.0201937
0.00947963
-0.0313974
-0.0286079
-0.123918
0.0307181
0.108024
-0.0148238
-0.00857236
0.0180139
-0.0192043
0.0200499
0.0251781
-0.0198217
-0.0254063
0.00102484
0.0528128
-0.0337877
-0.0375312
-0.0341903
-0.0110918
0.00329776
0.0152343
-0.00744024
-0.0172942
-0.00135737
-0.00012499
-0.0378184
-0.0778317
0.0268959
0.0816539
0.0360946
-0.0471251
0.0790311
0.0141993
-0.0663345
0.0741541
-0.00685101
0.011728
-0.0599146
0.0336941
0.0453093
-0.0190888
-0.00852874
-0.0895968
0.0382109
0.0725662
-0.00694087
-0.0147939
-0.000885203
0.00861327
0.00293913
-0.0106672
0.00799823
-0.000621333
-0.0082621
0.000691856
0.00505777
0.00224861
0.00699908
0.00230604
0.0268713
-0.0265959
-0.00971497
0.00943958
-9.85438e-05
0.0290033
-0.00203345
0.00349337
-0.0167438
-0.0133455
-0.0219226
0.0235556
0.00186041
0.000653217
-0.0230379
0.000462083
0.00291395
-0.0190045
-0.0216909
0.0112594
0.0015308
-0.023285
-0.00128376
0.00497397
-0.0224477
-0.0198337
0.00311676
-0.035013
-0.034495
0.0224241
0.047084
-0.0310527
0.018616
-0.0225763
0.020912
-0.0434242
-0.00854046
-0.0366957
0.0231127
-0.0419871
0.026743
0.03834
-0.0230959
0.0226554
-0.0422184
0.0886244
0.0186745
-0.0526757
-0.0546232
-0.00355755
0.0250221
0.0671598
-0.063066
0.0571948
0.00231369
0.0113184
-0.0557099
0.0222521
-0.0412337
0.0612816
-0.0705954
0.0896726
-0.0449403
0.0165493
0.0571465
0.0575482
-0.0434624
0.0377074
0.0379431
-0.0321882
0.0287692
-0.0454886
0.0491217
0.0243676
-0.0447201
0.0181421
0.0686871
0.000872143
-0.000411107
-0.00155331
0.00109227
-0.00101719
0.00188934
-0.0014283
-0.000237348
0.000180159
0.000929632
-0.000872443
0.000161343
-0.000398691
0.000341502
2.28865e-05
0.000552594
0.000543481
-0.00111896
0.000317019
-0.000294133
0.000869613
0.0425353
0.00147595
-0.00770007
-0.0363112
0.0318844
-0.0242022
0.0348531
-0.030214
-0.0151323
-0.0136057
0.00611586
-0.0107622
-0.00580698
0.0104533
-0.0377336
0.0142136
0.0234214
-0.0177431
-0.0138747
-0.0165439
0.0307576
0.00949501
-0.0243949
0.0305193
-0.0156194
-0.0288748
-0.00505444
-0.000869769
-0.00182951
-0.0261755
-0.000834645
-0.0244301
-0.0213845
-0.0231864
0.0280254
0.0165456
-0.00647644
0.017393
-0.0323011
0.00585133
-0.0355142
0.065031
0.0443401
-0.0186326
-0.0907385
0.0215994
-0.115957
0.103708
-0.00935044
0.0912004
-0.00456997
0.00795902
-0.0621954
-0.0617207
0.0436302
-0.0773773
-0.00942579
0.0431729
0.0112457
0.0277981
-0.0169074
-0.0220795
0.0111888
-0.0251134
0.0502008
0.00271075
-0.0115668
-0.0212466
-0.00393698
-0.0245373
-0.0262729
0.000256473
0.117945
0.00172587
-0.0476057
0.0455087
0.0716994
0.000737404
0.00100317
0.00105792
-0.00106568
-0.000995419
0.000250912
0.00263799
-0.00188573
-0.0045842
0.00434001
-0.0014846
0.00172879
-0.0049787
0.00191905
-0.00152456
0.0277761
0.022367
-0.0307618
-0.0193813
0.0215997
0.0148876
0.00141216
-0.0121202
-0.00417957
0.00286314
0.00566751
0.00635696
-0.00267447
-0.00344883
0.00556008
0.000563221
0.00531998
-0.000995377
-0.0147066
0.0374382
0.0227771
0.0162677
0.0081844
-0.0061064
-0.0183457
-0.0176845
-0.00235903
0.0210845
-0.0113096
0.0192284
0.0147598
0.0297462
-0.0245535
-0.00423715
0.0287907
-0.0105921
-0.0139614
-0.0239945
0.0345357
-0.0211333
0.00473348
-0.0119245
-0.0168035
-0.000962962
-0.00416614
0.00512911
-0.00638704
-0.00709912
0.0125232
-0.00922793
0.00239664
-0.00240267
-0.0224417
-0.0190072
0.00157013
-0.0161986
-0.0157303
0.00264838
0.00811046
-0.00431496
-0.0037955
-0.00702182
0.0340938
0.00248166
0.00247714
0.030518
-0.0382313
0.00346703
0.0337633
0.00100104
-0.0284691
0.00297221
-0.0127344
0.0297777
0.0137142
-0.0257777
-0.0177142
0.0248119
0.0258158
-0.0332347
0.0163554
0.0364819
0.0514186
0.0187372
0.00228084
0.0306564
4.90537e-05
-0.0329862
0.036487
-0.0343319
0.000125775
-0.00332969
0.00357565
0.036241
-0.0061083
0.033435
0.0274196
-0.0203068
-0.00515447
-0.00195833
0.0308104
-0.00334171
-0.00390083
-0.000633726
0.000745419
0.00378914
-0.00292811
0.000142738
-0.00111547
-0.00245676
-0.00133171
0.000860364
-0.00343999
0.00274992
0.00123355
-0.000646415
-0.000658115
0.000185569
-0.00122327
0.0158529
-0.0157467
0.0309342
0.0519723
0.0450229
-0.00357476
1.08956e-05
0.00128174
0.00304737
-0.000734321
0.000740679
4.53748e-06
-0.00199687
-0.000222048
0.000166455
0.00185596
-0.000202242
-0.00224267
-0.00253378
-0.00177122
-0.000427895
-0.00312257
-0.000891316
-0.00544086
0.00784929
-0.00156383
-0.000844602
-0.0110174
0.0072843
-0.00170771
-0.0122429
0.00192969
-0.000704207
-0.00075071
0.000939604
0.0185582
0.000251862
-0.0309302
0.02309
0.00113571
-0.0265302
-0.00169495
0.0513151
-0.0427535
0.0199202
0.0365113
0.000957955
-0.02962
0.00689894
-0.00829018
-0.000303718
-0.000852126
0.00774835
2.71899e-06
0.0234435
-0.00771371
0.000559238
-0.030444
-0.0156922
0.021337
0.0247992
-0.00444532
0.0236433
0.0160263
-0.00485458
-0.034815
-0.0146287
0.00906478
0.0292072
0.0218908
-0.0204932
-0.00013541
0.00143628
0.000427924
0.00140805
0.00037559
-0.0063712
0.00465385
0.00108363
-0.00589788
-0.000330588
0.0617787
-0.00260736
-0.0479257
0.0237081
-0.00686975
0.025029
0.00820834
-0.00270903
-0.0305283
-0.0156054
0.00265148
0.0379829
0.0221959
-0.029593
-0.0182228
-0.0162672
0.0226828
0.0118072
0.00399524
0.00193701
-0.024155
0.0153133
-0.0275852
0.022618
-0.0417237
0.0182943
-0.0384298
0.00315573
0.002375
0.00661614
-0.0121469
-0.00124233
0.0043632
3.48553e-05
-0.00258864
0.000595598
-0.00439322
0.0473569
0.0139651
-0.0277815
-0.0335405
0.011546
0.0737539
-0.027637
0.000324965
0.0388581
-0.0247993
0.0111274
-0.00438629
2.52384e-05
0.0009738
0.00338725
-0.000105633
-0.00402974
0.00181835
-0.00192398
0.00184359
-0.0276582
0.0323048
-0.00199507
0.00104643
-0.0314137
-0.00361248
0.000640659
0.00153253
-0.0116079
-0.00353035
-0.00159763
-0.0145543
0.0382271
-0.0052211
-0.0477126
0.0183173
0.0238865
-0.00397662
0.0489145
0.035502
0.0381277
-0.0222584
-0.0513713
0.029702
0.0358425
-0.0300425
-0.0252615
0.0263551
0.0286083
-0.0202653
0.0331315
0.0590549
0.0236952
-0.0110508
-0.00691414
0.0437106
0.0171248
-0.0176647
0.0231752
-0.027584
0.0215336
-0.0241919
-0.00149575
0.00128819
-0.0240242
-0.0014559
-0.00306
0.0389071
0.0130674
-0.0257307
0.016366
0.00936463
0.021846
0.0226942
-0.0181851
-0.00422148
-0.00057358
0.00417373
-0.0378586
0.0113724
0.000936656
0.0255496
-0.0337666
0.00540554
-0.00949755
0.00460232
-0.000731244
-0.0033912
-0.000479867
0.00373094
-0.000194303
0.0383587
-0.0223192
0.0148947
0.00285371
-0.00519034
-0.00226074
0.00459737
-0.00490338
0.00338123
0.00437586
0.00051336
0.00276192
-0.00817866
0.00115856
-0.00583554
-0.00555224
0.00266089
0.000630608
0.00601783
-0.00602207
0.003302
0.00404183
0.000870497
7.45432e-05
-0.00094504
0.000217382
0.000653115
0.0177185
0.0128943
-0.00824464
-0.0223682
0.0171498
-0.0272127
-0.0206305
0.012981
-0.010407
0.00267069
0.0357373
-0.0071388
-0.033653
-0.00479334
0.0319902
-0.0332992
0.00464375
0.0238621
-0.0114851
-0.0289529
0.0198896
0.0336896
-0.013333
-0.0402462
0.0263068
-0.0398665
0.0334494
-0.0194485
0.00574202
0.0400133
0.042058
-0.027817
0.000144164
-0.0178347
0.00158024
0.0161103
-0.0133411
-0.00682153
-0.0198034
-0.00400544
-0.000388241
0.00118749
-0.0036624
-0.00153053
0.00146973
-0.000670478
0.000642028
-0.000403967
-0.00368689
-0.00112213
0.00176416
-0.0015261
0.00173397
0.00016466
0.00246457
-0.000968039
0.00270201
-0.000803379
-0.0148956
-0.0101676
0.0158587
0.00920453
0.00337379
0.00554965
-0.0238191
0.0178504
-0.0246442
-0.00163286
-0.00829732
0.00559433
0.00433584
0.0156826
-0.0306685
0.0371818
-0.0414152
0.00398061
0.0507898
-0.0133552
-0.0333188
0.000381255
0.0328582
7.93376e-05
0.00301527
0.0338921
-0.0331967
-0.00371067
0.00259175
0.0352595
-0.034836
0.00297384
0.0353189
-0.035701
0.00277671
0.0356902
-0.035493
0.00162416
0.0354967
-0.0343442
0.00341107
0.0349552
-0.0367421
0.00511316
0.0336594
-0.0353615
0.00504761
0.034931
-0.0348655
0.00642683
0.0334211
-0.0348003
0.00635265
0.034529
-0.0344548
0.00755246
0.0332165
-0.0344163
0.00747928
0.0341758
-0.0341026
0.00851749
0.03305
-0.0340882
0.00844681
0.0338717
-0.033801
0.00934016
0.032915
-0.0338084
0.0092731
0.0336118
-0.0335448
0.0112997
0.0315443
-0.033571
0.0106039
0.0340294
-0.0333335
0.0106326
0.0333521
-0.0333808
0.0105754
0.033215
-0.0331579
0.0111352
0.0326647
-0.0332245
0.0110845
0.033074
-0.0330233
0.0115642
0.0326288
-0.0331084
0.0115199
0.0329701
-0.0329258
0.0119327
0.0326164
-0.0330292
0.0118954
0.0329027
-0.0328654
0.0122536
0.0326294
-0.0329876
0.0122239
0.0328727
-0.032843
0.0125387
0.0326702
-0.0329849
0.0125174
0.0328818
-0.0328605
0.0127988
0.0327424
-0.0330238
0.0127869
0.0329332
-0.0329213
0.0130417
0.0328524
-0.0331072
0.00984467
0.0362252
-0.0330282
0.0113937
0.0316894
-0.0332384
0.0214009
0.027313
-0.0373202
-0.0123534
0.00343056
0.0303238
-0.0383672
0.0294809
-0.036268
-0.00515042
0.00603249
0.0353859
-0.00487558
0.00268082
-0.0340732
-0.00628839
0.0360155
-0.0346027
0.0361211
-0.00765121
-0.0347583
0.00595145
-0.00669956
0.0368692
0.0368165
-0.00644823
0.00379342
0.0365469
0.0351042
-0.03552
-0.00337849
0.0025954
0.036102
0.0356744
-0.0021927
0.00210575
0.0355837
0.0360929
-0.00241769
0.00243461
0.0336424
0.0346433
-0.00226647
0.00210911
0.0335784
0.0350992
-0.00195035
0.00180114
0.0333657
0.0346878
-0.00165355
0.0015152
0.0331884
0.0343234
-0.00137883
0.00125007
0.0330438
0.034008
-0.00171263
-0.000257469
0.0335144
0.0331492
-0.00025974
0.000774078
0.0328378
0.0335122
-0.000663381
0.000557331
0.0327707
0.0333257
-0.000453295
0.000353224
0.0327289
0.033178
-0.000254836
0.000159721
0.0327115
0.0330685
-6.61383e-05
-2.47075e-05
0.0327202
0.0329963
0.000114139
-0.000201229
0.0327572
0.0329621
0.000287064
-0.000370873
0.0328262
0.0329677
0.000453433
-0.000289375
0.0326883
0.0330157
-0.00332011
0.00197969
0.0330298
0.0326158
0.0327232
0.00144433
0.00278625
-0.0374273
-0.0351055
0.0392306
-0.00361888
0.00322563
-0.0353077
-0.0356686
-0.00275311
0.00442626
-0.0360173
-0.0350205
-0.00419097
0.00331754
-0.034488
-0.0365068
-0.00231119
0.00213292
-0.034622
-0.0338591
-0.00196312
0.00180435
-0.0342575
-0.034285
-0.00164992
0.00150434
-0.0339427
-0.0339482
-0.00136291
0.00122876
-0.0336742
-0.0336596
-0.00109845
0.000975619
-0.0334481
-0.0334144
-0.00085253
0.000736067
-0.0332643
-0.0332104
-0.000624638
0.000516482
-0.0331164
-0.0330464
-0.000410792
0.00030819
-0.0330058
-0.0329176
-0.000208238
0.000110806
-0.0329318
-0.0328259
-1.57789e-05
-7.72789e-05
-0.0328945
-0.0327704
0.000168163
-0.000257512
-0.0328956
-0.0327521
0.000344827
-0.000430723
-0.0329379
-0.0327732
0.000513774
-0.000593148
-0.0330278
-0.0328383
0.00066886
0.000643532
-0.0345508
-0.0329525
0.00245316
-0.00762411
-0.0331963
-0.0342236
-0.00780582
-0.0369592
0.0380655
-0.0378629
-0.00821727
0.0382744
0.00855535
-0.00977915
-0.0366391
-0.0360551
-0.0380038
-0.0118242
0.0416107
-0.0370644
-0.0107185
-0.0135511
-0.0381396
-0.00296708
0.00169124
0.0315996
-0.00438122
0.030895
-0.000980176
-0.035113
0.00537384
-0.00683788
-0.0331386
0.00469193
-0.0333913
-0.00728999
-0.0343061
-0.00937678
0.00811588
-0.0353782
-0.0359317
-0.0105095
-0.0468876
-0.00761764
0.0411722
-0.0106172
-0.0431801
0.000733981
0.0384574
-0.00550629
0.00580499
0.0379757
0.0368384
-0.00566847
0.00489953
0.0376381
0.038202
-0.00469978
0.00313276
0.0369529
0.0370163
-0.00253017
0.00260222
0.0364749
0.0357068
-0.00255254
0.00284888
0.0358056
0.0357241
-0.00262195
0.00285284
0.0353528
0.0363198
-0.00322674
0.00236556
0.0345036
0.0342694
-0.00219466
0.00203659
0.0337365
0.0352701
-0.00188333
0.00173721
0.0335118
0.034841
-0.00159503
0.00145924
0.0333242
0.0344656
-0.00132753
0.00120159
0.0331697
0.0341398
-0.000837944
0.000959935
0.0333924
0.0335129
-0.000845908
0.000736086
0.0329476
0.0336262
-0.000628526
0.000524337
0.0328749
0.0334333
-0.000422977
0.000324595
0.0328273
0.0332794
-0.000228667
0.00013524
0.032805
0.0331644
-4.39595e-05
-4.52034e-05
0.0328094
0.0330875
0.000132479
-0.000217913
0.0328427
0.0330494
0.000301749
-0.00038398
0.0329085
0.0330515
0.000464465
-0.000787739
0.0330116
0.0330962
0.000726761
-0.00101528
0.0333184
0.0325548
0.0333992
-0.00301214
0.0323942
-0.0346425
-0.00416746
0.0378298
-0.0345449
0.0365858
-0.00103992
-0.00647728
-0.0250954
-0.00425019
0.00311624
-0.0362934
-0.0346637
-0.00300229
0.00300966
-0.0353151
-0.0355546
-0.0037668
0.00333717
-0.0355877
-0.0357777
-0.00184019
0.00179084
-0.0344387
-0.0350098
-0.00241576
0.00223802
-0.0344443
-0.0344841
-0.00207095
0.0019095
-0.0340961
-0.034118
-0.00175643
0.00160792
-0.0337941
-0.0337951
-0.0014668
0.00132958
-0.033537
-0.0335185
-0.00119904
0.00107229
-0.0333214
-0.0332839
-0.000951164
0.000831612
-0.0331448
-0.0330893
-0.000717083
0.000605272
-0.0330046
-0.0329319
-0.000497928
0.000392431
-0.0329003
-0.0328103
-0.000290779
0.000190577
-0.0328316
-0.0327242
-9.37433e-05
-1.97611e-06
-0.0327988
-0.0326735
9.47259e-05
-0.000186654
-0.0328036
-0.0326594
0.000275948
-0.000364875
-0.032849
-0.0326839
0.000452638
-0.000542284
-0.0329382
-0.0327505
0.000629606
-0.0014983
-0.0336821
-0.0328652
0.00252695
-0.00146136
-0.0342619
-0.0331949
0.00248202
-0.0344824
-0.00264221
-0.0340924
-0.0352292
0.00570126
-0.00609945
-0.0327405
0.00479867
-0.0324887
-0.00694752
-0.0334581
-0.00724607
0.006937
-0.0350691
-0.00705184
-0.0361259
-0.00246397
0.00220868
-0.0342271
-0.034141
0.0351662
-0.00366744
-0.00221721
-0.0343877
-0.0128348
-0.04467
-0.0387838
-0.0100743
0.000406297
0.0331674
-0.0388307
-0.0104626
-0.0330418
0.000129283
-0.00865373
0.00889726
0.0418145
-0.0453289
-0.00370395
0.0450772
-0.0431928
0.00209627
-0.000705391
0.0414326
0.00434997
0.0414307
-0.00788563
0.00708362
0.0392594
0.0410249
-0.00514115
0.00460262
0.0385142
0.0387809
-0.00482784
0.00532965
0.0371363
0.0379767
-0.00367167
0.00465272
0.0359719
0.0386742
-0.0024902
0.00356009
0.035405
0.0378693
-0.00212627
0.00300141
0.0349305
0.0371579
-0.00280616
0.00363511
0.0345238
0.0365151
-0.00196101
0.00228152
0.0341831
0.0359434
-0.00211685
0.00196061
0.0338928
0.0354347
-0.00181164
0.00166831
0.0336551
0.03499
-0.00153103
0.00139819
0.033457
0.0346029
-0.00127084
0.00114733
0.0332932
0.0342671
-0.000680897
0.000913067
0.0331603
0.0339793
-0.000801964
0.00069377
0.0330558
0.0337373
-0.000589584
0.00048763
0.0329769
0.0335375
-0.000389199
0.000292778
0.0329237
0.0333778
-0.000199464
0.000107884
0.0328966
0.0332577
-1.90064e-05
-6.83553e-05
0.0328967
0.0331764
0.000153385
-0.000237102
0.0329264
0.0331345
0.000318849
-0.000399545
0.0329892
0.0331332
0.000478912
-0.000557123
0.0330898
0.0331756
0.00102348
-0.00118825
0.0334831
0.0330211
0.000852851
-0.00203141
0.0327782
0.0330638
0.00280188
-0.00249095
0.0320833
0.0316655
0.0310577
0.0319007
-0.0343166
-0.0040614
-0.00218102
-0.00331785
-0.00425372
0.00360631
-0.035646
-0.0341188
-0.00373531
0.00386598
-0.0354457
-0.0356836
-0.00325612
0.00272873
-0.0350603
-0.0351678
-0.00242875
0.00262987
-0.0346398
-0.0347099
-0.00244269
0.00225876
-0.0342604
-0.0342969
-0.00208561
0.00191935
-0.0339298
-0.0339448
-0.00176262
0.00161076
-0.0336423
-0.0336384
-0.00146694
0.00132715
-0.0333972
-0.0333746
-0.00119452
0.00106497
-0.0331918
-0.0331513
-0.000941525
0.000820657
-0.0330239
-0.0329658
-0.000705439
0.000592276
-0.0328914
-0.0328167
-0.00048394
0.000377004
-0.0327934
-0.032702
-0.000274361
0.000172712
-0.0327299
-0.0326216
-7.48996e-05
-2.23099e-05
-0.0327016
-0.0325757
0.000116087
-0.000209586
-0.0327101
-0.0325656
0.000299967
-0.000390279
-0.0327587
-0.0325935
0.000477343
-0.000563342
-0.0328522
-0.0326634
0.000646731
-0.0013306
-0.0329982
-0.0327818
0.00139395
-0.00187691
-0.0337789
-0.0331316
-0.0337606
-0.0352397
-0.00829049
-0.0375921
0.00559153
-0.0056765
-0.0326555
0.00573968
-0.0326368
-0.0351157
0.0340575
-0.00260918
-0.03485
-0.00248292
-0.0052461
-0.0338885
-0.0504907
-0.00767299
0.00491058
0.00196224
0.0259854
-0.0306801
0.0202924
0.0152983
-0.000849035
-0.0460478
-0.0131813
-0.0400731
-0.0405591
-0.0172921
-0.00536062
0.00533481
0.0414584
-0.0383315
-0.00941262
0.0423835
0.0127368
-0.0467183
-0.0387109
-0.0118249
-0.00833684
-0.0386645
-0.0052221
0.00626858
0.040768
0.0415434
-0.00700443
0.0063164
0.0399475
0.0402891
-0.00494285
0.0057516
0.0377054
0.0401544
-0.00391433
0.00416043
0.0368902
0.039814
-0.00392569
0.00369498
0.0362026
0.038909
-0.00347666
0.00326212
0.0356195
0.0380877
-0.00306615
0.00287475
0.0351219
0.0373539
-0.00269461
0.00251636
0.0347021
0.0366952
-0.00234948
0.00218385
0.0343487
0.0361103
-0.00203023
0.00187716
0.0340458
0.0355884
-0.00173542
0.00159427
0.0337963
0.0351317
-0.00146326
0.00133253
0.0335877
0.0347339
-0.00121075
0.00108908
0.0334149
0.0343889
-0.000975087
0.000861688
0.0332737
0.0340933
-0.000755242
0.000648832
0.0331622
0.0338437
-0.00054845
0.000448284
0.0330771
0.0336379
-0.000353333
0.000258653
0.0330184
0.0334728
-0.000168446
7.85542e-05
0.0329864
0.0333479
7.56634e-06
-9.32294e-05
0.0329824
0.0332625
0.000175703
-0.000257804
0.0330085
0.0332169
0.000337238
-0.000416361
0.0330683
0.0332127
0.000493406
-0.00057017
0.0331666
0.0332526
0.000890188
-0.000719936
0.0333129
0.0333412
0.00114609
-0.00126436
0.0328964
0.03349
0.00248848
-0.00196262
0.0315574
0.0328896
0.0310573
0.0322574
-0.0320657
-6.24198e-05
0.00165657
0.0322755
-0.0335111
-0.00282578
-0.00197123
-0.00277146
-0.00494713
0.00406828
-0.0347671
-0.0333262
-0.00380438
0.00355655
-0.0351979
-0.0354197
-0.00332222
0.00309438
-0.0348325
-0.0349335
-0.00288135
0.00268028
-0.0344387
-0.0344968
-0.0024929
0.00231086
-0.0340783
-0.0341095
-0.00213886
0.00197114
-0.0337621
-0.0337728
-0.00181358
0.00165977
-0.0334885
-0.0334808
-0.00151503
0.00137323
-0.0332554
-0.0332299
-0.00123957
0.0011081
-0.0330604
-0.0330176
-0.000983943
0.000861132
-0.0329011
-0.0328417
-0.000744788
0.000629412
-0.032776
-0.0327004
-0.000520009
0.000411024
-0.0326844
-0.0325925
-0.000307403
0.000203722
-0.0326262
-0.0325179
-0.000104914
5.63891e-06
-0.0326023
-0.0324769
8.91912e-05
-0.000184859
-0.0326145
-0.0324708
0.00027651
-0.000369467
-0.0326657
-0.0325019
0.000458954
-0.000550295
-0.0327608
-0.032574
0.000638683
-0.000729537
-0.0329074
-0.0326934
0.000993741
-0.00165942
-0.0331132
-0.0328673
0.00165024
-0.00203316
-0.0338441
-0.0337698
0.0409779
0.0259792
-0.0542203
-0.0113951
0.0429604
-0.0383867
-0.0139973
0.000711948
-0.045334
0.00201856
-0.0345277
-0.00234091
-0.0344023
0.00619482
-0.00695222
-0.0343117
-0.034291
0.00633038
-0.00696602
-0.0369564
-0.0367478
-0.0399554
-0.00676812
0.0392127
-0.0246287
-0.00191974
-0.0515886
-0.00105488
-0.0451282
0.0103381
-0.0108574
0.039732
0.00906839
0.0442302
-0.00412541
0.00450387
-0.0330153
-0.00318233
-0.0335986
-0.0505023
-0.0172806
0.0372981
-0.0566799
-0.00524683
-0.0103076
0.0367483
-0.00782143
-0.0378091
-0.00230922
0.00205309
-0.0342715
-0.0349116
0.0351551
-0.00258442
-0.00216305
-0.0350578
-0.0496724
-0.0089273
-0.0022338
-0.0514869
-0.0121251
-0.0405183
-0.00724056
0.00617361
0.0425254
0.0442113
-0.0064828
0.00640408
0.0408467
0.0412342
-0.00460781
0.0056219
0.0389334
0.0420853
-0.00470361
0.00444029
0.0379688
0.0410727
-0.0042069
0.00395839
0.0371387
0.0400474
-0.00374807
0.00351912
0.0364315
0.0391193
-0.00332458
0.00311368
0.0358304
0.0382822
-0.00293493
0.00274074
0.0353161
0.0375326
-0.00257687
0.00239832
0.0348806
0.0368591
-0.00224576
0.00208079
0.0345137
0.0362629
-0.00193912
0.00178677
0.0341982
0.03573
-0.00165562
0.0015149
0.033937
0.0352629
-0.0013928
0.00126245
0.0337181
0.034856
-0.00114837
0.00102722
0.0335361
0.034503
-0.000920256
0.000807277
0.0333866
0.0342003
-0.00070657
0.000600997
0.0332678
0.0339444
-0.000505703
0.000406448
0.0331763
0.0337331
-0.000315944
0.000222307
0.033112
0.0335633
-0.000136025
4.73076e-05
0.0330752
0.0334342
3.5286e-05
-0.000119762
0.0330669
0.0333451
0.000199156
-0.000279954
0.0330893
0.0332963
0.000356602
-0.000434317
0.033146
0.0332893
0.000508757
-0.000584061
0.0332419
0.0333271
0.000656852
-0.000729755
0.0333858
0.033414
0.000800473
-0.00111794
0.0332139
0.0335607
0.00171302
-0.00289545
0.0327398
0.0334847
0.00643565
0.0398422
0.0345975
0.0330115
-0.0326382
-0.000435773
-0.0318001
0.0414497
0.00564864
0.00286803
0.0330309
-0.0340941
-0.00176261
-0.00157851
0.0349198
-0.035267
-0.00226192
-0.00194575
-0.00259482
-0.00476907
0.00412339
-0.0341214
-0.0335914
-0.00385676
0.00360521
-0.0349464
-0.0351531
-0.00336642
0.0031347
-0.0346007
-0.0346947
-0.00292099
0.00271382
-0.0342316
-0.0342831
-0.00252225
0.00233437
-0.0338904
-0.0339179
-0.00216033
0.00198912
-0.0335909
-0.0335988
-0.00183062
0.00167398
-0.0333318
-0.0333223
-0.00152876
0.00138446
-0.0331111
-0.0330847
-0.00125054
0.00111673
-0.0329266
-0.0328837
-0.000992368
0.000867455
-0.0327762
-0.0327173
-0.000751272
0.00063392
-0.0326587
-0.0325842
-0.000524618
0.000413587
-0.0325734
-0.0324832
-0.000310012
0.000204226
-0.0325205
-0.0324144
-0.000105389
3.91375e-06
-0.0325009
-0.0323781
9.10518e-05
-0.000189035
-0.0325165
-0.0323758
0.000280875
-0.000376022
-0.0325706
-0.03241
0.000465235
-0.000558055
-0.032668
-0.0324847
0.000645637
-0.000737357
-0.0328157
-0.0326058
0.000823366
-0.000913663
-0.0330229
-0.0327813
0.00166167
-0.00154853
-0.0339573
-0.0330218
-0.0338978
-0.00426524
-0.0328056
0.00530357
-0.0056288
-0.0339865
-0.0332526
0.00642161
-0.00741028
-0.0359678
-0.035955
-0.0250122
-0.0394874
0.00577501
-0.00844345
0.0424004
0.00661994
0.0433852
-0.0336751
0.0324322
-0.0437765
-0.000517987
0.00292696
0.0374332
0.00318238
0.0377494
-0.0372622
-0.0105146
-0.0093138
-0.0359056
-0.0354072
0.0355408
-0.00271805
-0.0350824
-0.00248781
-0.0241646
-0.0376328
0.0109139
-0.0582759
-0.0106048
0.0389096
-0.0485752
-0.0201923
-0.0326258
0.0152392
-0.0288689
0.0462555
0.00352974
-0.00407742
-0.0330509
0.00396963
-0.0334552
-0.00706246
0.00672523
0.0428626
0.0437688
-0.00568702
0.00511343
0.0414203
0.0422724
-0.00491656
0.00464886
0.0392011
0.0422822
-0.00445861
0.00419262
0.0382347
0.041263
-0.00400261
0.00374977
0.0373916
0.0402374
-0.00357156
0.00333643
0.0366667
0.0392975
-0.00317127
0.0029545
0.0360472
0.0384474
-0.00280187
0.00260116
0.0355168
0.0376853
-0.00245914
0.00227439
0.0350654
0.0370011
-0.00214225
0.001972
0.034684
0.036395
-0.00184803
0.00169087
0.0343553
0.035854
-0.00157516
0.00143045
0.0340817
0.0353786
-0.0013217
0.00118799
0.0338518
0.0349647
-0.00108537
0.000961579
0.0336599
0.0346056
-0.000864455
0.00074949
0.0335016
0.0342974
-0.000657181
0.000550155
0.0333748
0.0340368
-0.000462134
0.000361971
0.0332765
0.0338212
-0.000277708
0.000183619
0.0332061
0.0336476
-0.000102715
1.39108e-05
0.033164
0.0335151
6.39924e-05
-0.000148164
0.033151
0.033423
0.000223492
-0.000303725
0.0331695
0.0333716
0.000376803
-0.0004537
0.0332229
0.0333624
0.000524924
-0.000599137
0.0333161
0.0333983
0.000669006
-0.000740884
0.0334577
0.0334838
0.000809221
-0.00124948
0.0336541
0.033629
0.00160256
-0.00265028
0.0337876
0.0338378
0.0348742
0.0335923
-0.0336086
-0.000419462
-0.0350948
0.0380009
0.0027425
0.00136551
0.0338776
-0.0343106
-0.00132962
-0.00130945
0.0349128
-0.0354085
-0.00176615
-0.00134362
-0.00246253
-0.00404759
0.00417661
-0.0342505
-0.0336694
-0.00389841
0.00363921
-0.0346872
-0.0348749
-0.00339893
0.00316457
-0.0343664
-0.0344544
-0.00295164
0.00274057
-0.0340205
-0.0340702
-0.00255016
0.00235953
-0.0336998
-0.0337275
-0.0021873
0.00201324
-0.0334168
-0.0334266
-0.00185616
0.00169649
-0.0331722
-0.0331652
-0.00155259
0.00140528
-0.0329638
-0.0329408
-0.00127268
0.0011359
-0.0327898
-0.0327511
-0.00101289
0.00088502
-0.0326483
-0.0325943
-0.0007701
0.00064972
-0.0325383
-0.0324693
-0.000541629
0.000427547
-0.0324593
-0.0323752
-0.000325142
0.000216247
-0.0324116
-0.032312
-0.000118498
1.38102e-05
-0.0323962
-0.0322803
8.01955e-05
-0.00018155
-0.0324151
-0.0322818
0.000272648
-0.000371518
-0.0324717
-0.0323189
0.000460554
-0.000557827
-0.0325707
-0.0323957
0.000645613
-0.000741947
-0.0327193
-0.032518
0.000828896
-0.000924082
-0.0329278
-0.0326944
0.00100973
-0.00175987
-0.0332071
-0.0329361
0.00167172
-0.00190638
-0.0340369
-0.0339859
-0.0515511
-0.00115275
0.00319521
0.0379881
-0.0369513
-0.00962468
-0.00338501
-0.0397555
0.00210481
-0.0347764
-0.00241079
-0.0348594
-0.0537691
0.0119391
-0.0101648
0.0274329
0.00856031
-0.00974746
-0.0347184
-0.00387789
-0.0330051
-0.0044548
-0.0326757
-0.00512027
-0.033321
-0.00697633
-0.0340989
-0.0343838
-0.0583482
-0.0626712
-0.0265127
0.0127322
-0.00695521
0.00630449
0.044036
-0.00619341
0.0416386
-0.0038685
0.00358271
-0.0331694
-0.00378994
-0.0331295
0.0373907
-0.0361834
0.00153512
0.0386829
0.00190309
-0.0343551
-0.0123437
0.0207957
-0.00906979
0.0114995
-0.0437534
-0.00204622
0.00215446
-0.0348847
-0.0353666
0.0354295
-0.00247371
-0.0349075
-0.00250526
-0.00537939
0.00528505
0.0429569
0.0446939
-0.00507293
0.00435095
0.0421423
0.0424845
-0.00526429
0.00436545
0.0400999
0.0413689
-0.00423321
0.0039416
0.0385264
0.0413952
-0.0038099
0.0035325
0.037669
0.0403691
-0.00340703
0.00314694
0.0369267
0.039423
-0.00302871
0.00278787
0.036288
0.0385656
-0.00267735
0.00245485
0.0357393
0.0377958
-0.00235006
0.00214524
0.0352702
0.0371059
-0.00204612
0.0018582
0.0348719
0.0364942
-0.0017632
0.00159048
0.0345281
0.035949
-0.00149977
0.00134171
0.0342398
0.0354693
-0.00125461
0.00110963
0.0339968
0.0350518
-0.00102558
0.000892419
0.033793
0.0346896
-0.000811111
0.000688512
0.0336242
0.0343787
-0.000609651
0.000496494
0.0334879
0.0341156
-0.000419881
0.00031496
0.0333814
0.0338978
-0.000240348
0.000142666
0.0333038
0.0337222
-6.99287e-05
-2.14553e-05
0.0332553
0.0335878
9.24718e-05
-0.000178402
0.033237
0.0334941
0.000247865
-0.000329145
0.0332508
0.0334411
0.000397221
-0.000474579
0.0333003
0.0334305
0.000541484
-0.00061568
0.0333903
0.0334652
0.000681821
-0.000753322
0.0335292
0.03355
0.000818559
-0.000888762
0.0337243
0.0336942
0.00095352
-0.00114794
0.033982
0.0339025
0.000867633
0.00060629
0.0359593
0.0345939
-0.00269004
0.00292294
0.0377552
0.0356656
0.0350228
-0.0345005
-0.000941705
0.000204944
0.0344637
-0.0344231
-0.0013702
-0.00134633
0.034378
-0.0347283
-0.00141587
-0.0013887
0.0351052
-0.0354936
-0.00232966
-0.00208564
-0.0025519
-0.00430768
0.00420756
-0.0341503
-0.0343944
-0.00392227
0.00365931
-0.0344242
-0.0345896
-0.00341989
0.00318005
-0.0341265
-0.034215
-0.00297
0.0027531
-0.0338036
-0.0338602
-0.00256565
0.00236898
-0.0335031
-0.0335401
-0.00219999
0.0020206
-0.0332374
-0.0332576
-0.00186718
0.00170254
-0.0330075
-0.0330118
-0.00156241
0.00141029
-0.0328117
-0.0328007
-0.00128148
0.00113994
-0.0326482
-0.0326223
-0.00102071
0.000888118
-0.0325157
-0.0324751
-0.000776978
0.000651878
-0.0324132
-0.0323581
-0.000547495
0.000428606
-0.0323404
-0.0322708
-0.000329795
0.00021598
-0.0322977
-0.0322131
-0.000121689
1.19356e-05
-0.0322864
-0.032186
7.87691e-05
-0.000185357
-0.0323086
-0.0321911
0.000273292
-0.000377506
-0.0323675
-0.032231
0.0004634
-0.000565986
-0.0324681
-0.0323098
0.000650574
-0.000752202
-0.0326177
-0.0324334
0.000835981
-0.000937183
-0.0328266
-0.0326106
0.00102036
-0.00112113
-0.0331064
-0.0328529
0.00148406
-0.001831
-0.0336899
-0.033623
-0.0345359
0.0206966
-0.0566644
0.0381218
-0.00418258
-0.0326124
-0.00454932
-0.032309
-0.00548951
-0.0323808
-0.00676939
-0.032819
-0.00783496
-0.0333182
-0.00972727
-0.0328261
0.00355542
0.0380504
0.00631356
0.0327449
-0.00733616
0.0252715
-0.0323521
-0.0117303
0.00574842
-0.00798288
-0.0310838
0.00519489
-0.0322655
-0.0379145
-0.0114657
-0.00587417
0.0193338
0.018493
-0.0182896
0.0157755
-0.00635236
-0.00267043
0.00213847
-0.0343527
-0.00212388
-0.0354541
-0.035573
0.0357783
-0.00267904
-0.0355395
-0.00253879
-0.00562845
0.00534104
0.0443234
0.0423237
-0.00524375
0.00491843
0.0432822
0.0447912
-0.00480073
0.0049338
0.0420092
0.0426022
-0.00488678
0.00408169
0.040905
0.0414159
-0.00404962
0.00368702
0.0388889
0.0414273
-0.00365233
0.00330773
0.0380136
0.0404038
-0.00327276
0.00294967
0.0372498
0.0394579
-0.00291375
0.00261415
0.0365876
0.0386015
-0.00257753
0.00230161
0.0360152
0.0378324
-0.00226298
0.00201011
0.0355231
0.0371445
-0.00196935
0.00173889
0.0351023
0.0365349
-0.0016951
0.00148517
0.034738
0.0359928
-0.00143877
0.00124856
0.03443
0.0355157
-0.0011996
0.00102727
0.0341691
0.0351008
-0.000975832
0.00081967
0.0339492
0.0347411
-0.000766023
0.000624328
0.0337659
0.0344324
-0.000568791
0.00043999
0.0336167
0.0341711
-0.000382943
0.00026541
0.0334989
0.0339548
-0.000207143
9.94479e-05
0.0334115
0.0337804
-4.03121e-05
-5.88609e-05
0.0333545
0.033647
0.000118586
-0.000210456
0.0333288
0.0335538
0.000270548
-0.000356205
0.0333365
0.0335012
0.000416501
-0.000496949
0.0333807
0.0334908
0.000557365
-0.000633571
0.0334665
0.0335256
0.000694243
-0.000766895
0.0336018
0.0336106
0.000827422
-0.00089736
0.0337943
0.0337548
0.000957289
-0.00102254
0.0340472
0.0339625
0.000655259
0.000654928
0.0346491
0.0342266
-0.000449256
0.00264811
0.0355564
0.0358713
0.038131
-0.0368036
0.00222807
-0.00333436
0.00399648
0.0374689
0.0373641
0.0372094
-0.0355803
-9.3988e-05
0.00230882
0.0348166
-0.034426
-0.00133228
-0.000558701
0.0344189
-0.0344076
-0.00138142
-0.0013535
0.0343909
-0.0343693
-0.00143748
-0.00140542
0.034991