/*--------------------------------*- C++ -*----------------------------------*\
  =========                 |
  \\      /  F ield         | OpenFOAM: The Open Source CFD Toolbox
   \\    /   O peration     | Website:  https://openfoam.org
    \\  /    A nd           | Version:  10
     \\/     M anipulation  |
\*---------------------------------------------------------------------------*/
FoamFile
{
    format      ascii;
    class       surfaceScalarField;
    location    "54.5";
    object      phi;
}
// * * * * * * * * * * * * * * * * * * * * * * * * * * * * * * * * * * * * * //

dimensions      [0 3 -1 0 0 0 0];

internalField   nonuniform List<scalar> 
57492
(
0.00023615
-1.06135e-05
-4.38029e-05
-0.000181734
-0.000162889
0.000267956
0.000131083
-2.87742e-05
8.0895e-05
0.000323514
-0.000375635
0.00315976
0.00338643
-0.000272071
-0.00627412
-0.00862823
0.00404528
0.0077427
0.00076591
-0.000705617
-0.000369962
0.000309668
-0.00136646
0.000239248
-8.45772e-05
0.00121179
0.000291741
-0.000892287
0.00158601
-0.00463354
0.00442609
-0.00137856
0.00133887
0.00424965
-0.0040025
-0.00061301
-0.000207059
0.000685982
0.000134087
-0.000122725
-0.000833957
0.000343672
0.000232297
-0.000325936
-2.90856e-05
-5.34074e-05
7.86453e-05
0.00180761
-0.0017429
-0.000653588
0.000588875
0.000258534
0.00145822
9.08609e-05
-0.00032426
0.000788111
0.0033353
-0.00379915
-0.000660468
0.00326116
-0.00292495
0.000135486
-0.000288622
0.000153136
-0.00166374
0.00122026
0.000578972
-0.00466007
0.000190011
0.0033359
0.00113415
0.00122766
-0.00473018
-0.00115755
-0.000133109
-0.00019702
-0.000702993
0.00103312
-0.000287456
0.000176401
-2.2055e-05
-0.00254841
0.00216276
0.000735519
-0.000349871
-0.00305127
0.000925371
-0.000422504
-0.00112779
0.000596468
0.000456788
7.45316e-05
-0.000779005
-0.000362315
1.3533e-05
-0.000367249
-0.0011338
0.00129079
0.000210255
-0.000416031
0.000116382
-6.75996e-05
0.000797515
-0.00053097
-0.000494628
0.000228082
-0.000688313
0.000551731
0.000934097
-0.000942151
-0.00180556
0.00174339
0.00100432
-0.0021404
-0.000513095
0.00171134
-0.000707366
-0.000152072
0.000859439
-0.000271271
-0.000436095
-0.00137445
0.00189199
-0.000788811
0.000203071
-0.000767156
-0.000810363
-0.000606283
0.000845531
-0.000233024
-0.00190183
0.00115082
0.000751007
-0.00432165
0.00241982
0.00490021
-0.000855676
0.000379439
-0.00442397
0.00360825
-5.10742e-05
0.00134303
-0.000762529
0.00490038
-0.00499353
0.00149859
0.000322118
-0.00152897
0.00150987
-9.5857e-05
0.00182733
-0.000684884
-0.00136035
0.00021791
0.00204593
0.000103519
0.000936843
-0.000582079
0.00115511
0.000904309
0.00124432
-0.00475159
-0.000638453
0.000551252
0.00483879
-0.00488464
-0.000302732
0.000435782
0.00121452
0.00451342
-0.00443798
-0.00128996
0.000885919
-0.00430494
-0.00278479
0.0025323
0.00253905
-0.00228656
-0.00027761
0.00320659
-0.00571378
1.48862e-05
-0.000116895
-8.09061e-07
0.000102818
-0.000321671
1.06211e-05
6.71271e-05
-0.000136169
-0.000252629
-5.64455e-05
6.67713e-06
1.11655e-05
-1.19746e-05
8.8788e-06
2.28672e-06
0.0073074
0.00378589
-0.00588206
-0.00521123
0.00233667
-0.000701349
0.00567208
-0.00785656
0.00309772
0.00709551
0.00229163
-0.0063623
0.00162398
-0.00286595
0.00213382
-0.000891842
0.00235651
-0.0029146
0.00218206
-2.99105e-05
2.18665e-05
-2.56948e-06
-7.0286e-05
-3.42746e-06
-0.000222972
-2.90476e-05
-0.00293873
0.0053486
0.00339297
-0.00580284
0.0043632
-0.00494542
0.00298447
0.00474858
-0.00238445
0.010091
-0.00148497
-0.0017889
-0.00681713
0.00224006
0.00542384
0.0024271
0.00160404
-0.00500996
0.00564598
4.68122e-05
-7.55864e-05
0.000127707
0.000816484
0.00175795
-0.000626469
-0.00194796
0.00104032
9.96741e-05
-9.58438e-05
2.63505e-05
6.94933e-05
-0.000298241
0.000202398
-0.00660573
0.00342277
-0.0020132
0.00519615
-0.00574178
-0.00249781
0.00163386
-0.00262499
0.00208865
-0.00520544
0.00195187
-2.65803e-05
-0.000944226
-0.000981068
-0.0007116
0.00222754
0.000435939
-0.000834631
-8.52447e-05
0.000208275
-0.000771545
-8.96659e-05
-0.000271456
-0.00144431
-0.000237211
-6.27148e-05
1.85109e-05
0.000281415
-0.000215999
-0.000522816
0.000501603
0.000137618
1.68471e-05
-0.000370464
7.9169e-05
-4.26549e-06
0.000100341
-2.66097e-06
-0.000641095
0.000369638
8.34396e-05
-0.000724534
0.000172417
-0.000470659
0.0042736
0.00333163
-0.000178515
0.00212866
-0.00648328
-1.03499e-05
0.00226393
-0.00179747
-0.000456114
0.000291781
0.00316409
-0.00346622
0.00327087
0.0018459
-0.000504454
-0.00461232
-0.00103081
0.000497548
0.00380413
0.00399496
-0.00317986
-0.00164197
-0.00303467
0.00125011
0.00342653
-0.00118579
0.00350517
-0.00396135
0.000422297
-0.00464275
8.26114e-05
3.38034e-05
-4.59947e-06
0.00104663
-0.000617085
-0.00059243
7.711e-05
-0.000325181
0.0012947
0.000364167
-1.91004e-05
-0.000187251
0.00033174
6.83262e-05
-0.000212815
0.000991584
-0.00121482
3.59841e-05
-0.000357535
0.00083081
0.000518309
-0.00012507
9.92748e-05
-0.00611514
0.00365049
0.00588742
0.00772219
-0.00200765
-0.00821235
-0.00285694
0.00446399
-9.71174e-05
-0.00087445
-0.000162232
-0.00052228
9.13157e-06
4.79466e-05
-0.000129925
3.71547e-05
4.48232e-05
-0.000130036
0.000144604
3.33784e-05
-0.000299562
3.96015e-05
-0.000265332
-0.000312791
5.5843e-05
-0.000803806
-0.000335976
-0.000859557
-0.000922588
0.00105464
0.000727501
3.52139e-05
0.000454693
-0.00134946
-0.00120354
0.000316168
-0.00293475
0.00133102
-6.00115e-05
-0.00350355
0.000809733
-0.000240936
0.000876036
-0.00334733
0.00256411
-9.28185e-05
0.000679057
-0.00272837
0.00292535
0.00252824
-0.0101972
-0.00176612
0.00218257
0.00302229
-0.00345739
0.00206095
-0.00032103
4.58993e-07
1.63881e-05
-3.37022e-06
3.82921e-06
0.000284303
-4.13064e-05
0.00560255
-0.00341597
-0.00247166
0.000285089
0.00484436
-4.33697e-06
0.00464932
0.000161253
-0.00508818
0.00137637
0.00330225
-2.93021e-05
0.000547791
-0.00291909
0.00374767
5.38506e-06
-8.75527e-06
0.000759209
-0.00212008
-0.00284685
0.00123215
0.00308403
0.000898934
-5.10104e-05
-0.000945163
9.72392e-05
0.000298137
-8.75156e-05
-0.00115654
0.000253741
0.00145453
0.000209651
-0.00106806
-0.000134904
7.57668e-05
-7.3903e-06
1.03038e-05
-2.59701e-06
-3.1653e-07
1.09247e-05
-2.3886e-07
-1.80762e-05
4.65295e-05
-0.000104351
6.87459e-05
-0.00171877
0.00265318
-0.000761995
0.00291811
-0.00378677
-0.000850113
6.15345e-06
-0.00158669
0.00183428
-0.00399428
0.000241659
-0.00273805
-0.0018327
0.000576462
0.00269206
0.00291106
-0.00541311
0.00260466
0.00429374
-0.00420633
0.00223992
-0.00308424
0.00160637
-0.000762049
0.0024551
-0.00302342
0.00280824
0.004371
0.00187595
0.00499889
-0.000234406
-0.00496481
0.000200326
0.00553868
-0.000662643
0.000122853
0.00552951
-0.00090183
8.05277e-05
-0.00470821
0.0039691
-0.00137397
0.00293439
0.00430791
-0.00140383
0.00114067
-0.00404475
0.00126921
0.00438801
-0.00134931
-0.00387626
-0.00166551
0.00413794
0.00106648
-0.00369263
-0.00185939
0.00362041
-0.00237822
-0.00323946
0.00215395
0.00346373
-0.00239437
-0.00326758
0.00328373
0.00223438
0.0030464
-0.00147405
-0.00380672
0.00302023
-0.00318023
-0.00258866
0.002613
0.0029959
-0.00204037
0.00249811
-0.00406912
0.0036152
-0.00102013
-0.00506581
0.00105281
0.00537501
-0.00136201
0.00190985
-0.000266321
0.000994359
-0.0010603
0.000332259
-0.00010924
0.00127479
-0.00143187
-5.31077e-05
0.000306068
0.000111206
-0.00115921
-0.00181037
0.00117752
-1.77967e-07
-6.08927e-08
3.11182e-07
-4.89149e-07
-0.000108204
-0.0020002
0.00152633
-0.00178025
-7.30329e-05
0.00174507
5.01335e-05
-0.00186598
3.55962e-05
-0.000251343
0.00166202
0.000276236
-0.00168691
0.00170617
0.000487112
-0.00244463
0.00170369
0.0016645
-2.46226e-06
4.89879e-07
3.57758e-05
-4.77502e-06
2.31276e-06
-4.28514e-06
-5.5649e-06
4.25898e-06
-5.51396e-05
1.03847e-06
-6.60337e-06
5.29745e-06
-4.40279e-05
2.13295e-05
-0.000264757
2.22358e-05
-6.62637e-05
4.35653e-05
5.31912e-05
-5.3364e-06
-0.000172925
-1.69039e-05
7.00952e-05
-2.22403e-05
0.00142399
0.0032818
-0.00420824
0.00133044
-0.00446932
0.00456287
0.00471641
-0.000104176
-0.00118222
-0.00244439
0.00115806
0.00246855
-0.000710518
0.00272184
-0.00319354
0.000157227
-0.00331214
0.00403578
-0.00405294
-1.54038e-05
3.25633e-05
0.00405408
3.40943e-05
-5.23978e-05
-2.79674e-05
-0.00402509
1.19673e-07
0.00410387
-3.54748e-06
-4.62394e-05
0.0041959
5.78561e-05
-0.000149889
2.77161e-05
0.00431898
-0.0001508
0.00426632
-0.00422302
-1.55897e-05
-0.000203446
0.00453918
-1.67522e-05
0.00416456
-0.000101681
-0.00407532
-8.98361e-05
-0.00404216
-3.67155e-05
-0.00401648
8.41855e-06
-0.00408142
4.95362e-05
-0.003993
-0.000116383
-0.000198576
0.00475411
-1.63559e-05
0.00398553
-1.95539e-05
-2.28756e-05
-0.0039686
-3.36144e-05
-0.00400293
-1.2951e-05
-3.12438e-05
-0.00417366
0.000236304
-2.81443e-06
0.00477238
-1.54498e-05
0.00400158
-1.8861e-05
-0.00412564
9.14646e-05
0.00478987
-2.52563e-06
-1.49696e-05
-2.50771e-06
0.00480636
-1.39788e-05
0.00401665
-1.75964e-05
0.0040312
-1.70596e-05
-2.67099e-05
-0.00412334
-2.36085e-05
-0.00412234
-3.00077e-05
-2.1401e-06
0.00482203
-1.35257e-05
0.0040449
-1.58368e-05
-3.46832e-06
-0.00409559
-2.42787e-05
-0.00409453
-3.12818e-05
-2.00599e-06
0.00483657
-1.25368e-05
0.00405828
-1.53821e-05
-3.50478e-06
-0.00406691
-2.51738e-05
-0.00406594
-3.20882e-05
-1.39535e-06
0.00485009
-1.21247e-05
0.00407108
-1.41988e-05
-3.75713e-06
-0.00403745
-2.57039e-05
-0.00403641
-3.32882e-05
-7.76358e-07
0.00486201
-1.1148e-05
0.00408413
-1.38237e-05
-3.79673e-06
-0.00400717
-2.64865e-05
-0.00400616
-3.40471e-05
8.31057e-07
0.00487196
-1.07821e-05
0.00409764
-1.26788e-05
5.24965e-06
-0.00398548
-2.69385e-05
-0.00396579
-3.51207e-05
3.44314e-06
0.00487834
-9.81919e-06
0.00411346
-1.23752e-05
2.17415e-05
-0.00384246
-0.000164759
-0.00386746
-7.65864e-05
9.08073e-06
0.00487876
-9.50039e-06
0.00411483
7.70468e-06
2.10061e-05
-0.00382985
-3.36218e-05
-0.00380779
-3.86693e-05
1.97083e-05
0.00486761
-8.55874e-06
0.00409482
3.97156e-05
4.95739e-05
-0.00366348
-0.000215944
-0.00366705
-9.11618e-05
0.000207518
0.00466837
-8.27919e-06
0.00422799
7.4353e-05
5.67219e-05
-0.00361524
-0.00010496
-0.00359576
-1.45741e-05
0.000183744
0.00433265
0.000151978
0.00430595
0.000105787
9.19823e-05
-0.000164751
-0.00354247
-0.00354985
4.60783e-05
1.19834e-05
3.48932e-05
0.00428577
0.00428565
3.22837e-05
-0.00363481
0.00372399
-0.000194139
-0.00362313
-0.000176434
0.000158694
-0.000170642
-0.00353052
4.40339e-05
-0.00343519
-0.00367431
0.00373673
-9.60416e-05
-0.000166263
-0.00362873
0.00365714
-5.53564e-05
-5.67585e-05
-0.00368467
0.00371156
-5.25869e-05
-5.40167e-05
-0.00373755
0.0037629
-4.96334e-05
-5.11654e-05
-0.00378743
0.00407033
-4.65991e-05
-4.81321e-05
-0.0040819
0.00404823
3.37926e-05
-4.51892e-05
-0.0042004
0.00418846
-4.04572e-05
-0.000119606
-0.00407337
0.00403225
-0.000108764
6.88491e-05
-0.00395395
0.00397131
-3.41177e-05
-7.24985e-05
-0.00398773
0.00400343
-3.11562e-05
-3.27705e-05
-0.00401831
0.00403255
-2.82231e-05
-2.98468e-05
-0.004046
0.00405885
-2.53827e-05
-2.69759e-05
-0.00407094
0.00408247
-2.26714e-05
-2.42189e-05
-0.00409329
0.00410358
-2.01078e-05
-2.16022e-05
-0.00411321
0.00412234
-1.76906e-05
-1.91366e-05
-0.00410667
0.00421118
4.74625e-05
7.39718e-06
0.0042081
3.79768e-05
-2.67251e-05
7.67021e-05
0.0042358
-1.17733e-05
0.00427069
0.00421923
-0.00414147
-3.41547e-06
-0.00426843
0.00426695
3.37723e-05
5.65878e-05
0.00413213
-0.00410346
-2.09686e-05
3.03777e-05
0.00409324
-0.00408231
-2.36061e-05
-2.25947e-05
0.00407085
-0.00405864
-2.64118e-05
-2.52787e-05
0.00404586
-0.00403227
-2.94259e-05
-2.81599e-05
0.00401808
-0.00400303
-3.26481e-05
-3.12502e-05
0.00398734
-0.00397081
-3.60891e-05
-3.45483e-05
0.00403442
-0.00401038
-3.96355e-05
-3.80665e-05
0.00405863
-0.00399499
-0.000100357
-4.15842e-05
0.00394854
-0.00390178
2.77706e-06
-3.8028e-05
0.00392864
-0.00393115
-1.04398e-05
-8.95259e-05
0.00378694
-0.00376241
-5.45353e-05
-5.27466e-05
0.00373724
-0.00371112
-5.82057e-05
-5.64531e-05
0.00368439
-0.00365673
-6.1703e-05
-6.00211e-05
0.00362846
-0.00364006
-6.49924e-05
-6.33928e-05
0.00361217
-0.00363525
-6.80849e-05
-6.65569e-05
0.00358022
-0.00349731
-3.68269e-05
-6.96006e-05
-0.00342903
-2.42545e-05
-0.00361774
-0.000176031
0.00422834
5.64589e-05
-1.47584e-05
0.00426993
8.82875e-05
-0.000108334
-0.00341515
3.07504e-05
-0.00337149
0.00014582
-0.000171897
-0.00359166
-0.00349304
-0.00362686
0.00359795
-0.000165229
0.00363756
-0.00363591
-0.000177677
-0.000165738
-0.00358105
0.00361037
-0.000125358
-0.000149368
-0.00363885
0.00366678
-8.32857e-05
-8.524e-05
-0.00369383
0.00372024
-7.90011e-05
-8.10629e-05
-0.00374577
0.00377066
-7.45232e-05
-7.66932e-05
-0.00379468
0.00381799
-6.99171e-05
-7.21497e-05
-0.00384037
0.00393945
-6.52952e-05
-6.75608e-05
-0.00388279
0.00390292
-6.05886e-05
-6.29453e-05
-0.00403003
0.00397722
-5.59486e-05
-5.82584e-05
-0.00395827
0.00397533
-5.11757e-05
-5.35499e-05
-0.00399149
0.00400697
-4.66387e-05
-4.89314e-05
-0.00402162
0.00403564
-4.22471e-05
-4.44959e-05
-0.00404888
0.00406152
-3.80277e-05
-4.0213e-05
-0.00407343
0.00408477
-3.40174e-05
-3.61223e-05
-0.00409543
0.00410556
-3.02407e-05
-3.22548e-05
-0.00411505
0.00412405
-2.66922e-05
-2.86251e-05
-0.00413218
0.0041732
6.4413e-06
-7.3225e-07
4.06478e-06
-1.97211e-05
0.00425145
-9.93221e-06
0.00424234
-0.00416794
0.00421606
8.33621e-06
4.32369e-05
0.00421167
-0.00420527
2.7374e-05
0.00418458
1.23299e-05
5.172e-06
3.54217e-05
0.00422934
0.00425615
0.00419809
-0.00415945
-4.20558e-05
4.94094e-05
0.00411501
-0.00410539
-3.05827e-05
-1.40691e-05
0.00409531
-0.00408454
-3.43762e-05
-3.26753e-05
0.00407326
-0.00406123
-3.84421e-05
-3.65619e-05
0.00404865
-0.00403527
-4.28038e-05
-4.07406e-05
0.00402131
-0.00400651
-4.74486e-05
-4.52104e-05
0.0039911
-0.00397484
-5.23522e-05
-4.99531e-05
0.00395798
-0.00394018
-5.74304e-05
-5.49287e-05
0.00392173
-0.0039594
-6.26864e-05
-6.00416e-05
0.00393212
-0.00386138
-6.79685e-05
-6.53025e-05
0.00388025
-0.0038173
-7.33867e-05
-7.06504e-05
0.00379411
-0.00376998
-7.86679e-05
-7.59416e-05
0.00374524
-0.00371957
-8.38755e-05
-8.1195e-05
0.00369329
-0.0036661
-8.88912e-05
-8.62939e-05
0.00363832
-0.00360965
-9.36682e-05
-9.11749e-05
0.00358039
-0.00355029
-9.81895e-05
-9.58083e-05
0.0035197
-0.0034541
-0.000102417
-0.000100196
0.00340355
-0.00332703
-4.57686e-05
-7.48126e-05
-0.00362867
-0.000179136
1.48222e-05
-9.87874e-05
-0.00328752
-0.0032755
-3.67071e-05
-0.000182445
-0.00333149
8.54141e-06
0.00419759
0.0041976
2.24019e-05
-0.000114082
0.000100333
-0.00357791
-0.000145068
-0.00359769
-1.00042e-05
-9.35533e-05
-0.00318397
-6.28829e-05
-0.00322262
-0.00357515
0.00422825
-0.00420937
-1.05438e-05
0.0041913
4.54896e-05
6.15771e-05
-2.51484e-05
0.00419291
2.98449e-05
0.00422933
-0.00358221
0.00365349
-0.000216345
-0.000195537
0.000142095
-0.00354424
0.00363277
2.61127e-05
0.000171534
-0.00383042
-0.000144976
-0.00368092
0.00368241
-0.000179166
-0.000206569
-0.00366448
0.00363409
-0.000134842
-0.000147808
-0.00363533
0.00362598
-0.000116005
-0.00015061
-0.00365375
0.00368092
-0.000110455
-0.000113008
-0.00370722
0.00373291
-0.000104691
-0.000107368
-0.00375774
0.00378195
-9.87288e-05
-0.000101521
-0.00380529
0.00382798
-9.26128e-05
-9.54916e-05
-0.00384978
0.00387091
-8.64221e-05
-8.93569e-05
-0.00389114
0.00391073
-8.01838e-05
-8.3174e-05
-0.00392943
0.00394745
-7.39748e-05
-7.69555e-05
-0.00396468
0.00398127
-6.77717e-05
-7.07715e-05
-0.00399702
0.00401214
-6.17516e-05
-6.46832e-05
-0.00402644
0.00404013
-5.59421e-05
-5.87981e-05
-0.00405306
0.00406541
-5.03796e-05
-5.31403e-05
-0.00407704
0.00408813
-4.51046e-05
-4.77509e-05
-0.00409854
0.00410845
-4.01474e-05
-4.2666e-05
-0.00411773
0.00412654
-3.55079e-05
-3.79055e-05
-0.00414616
0.00416062
-8.01751e-06
-2.03507e-05
-5.51498e-06
2.22851e-05
-1.0843e-05
0.00424001
-3.31502e-05
-5.26815e-06
0.00423601
0.00423147
0.00422015
0.0042017
-0.00419019
1.58588e-05
-0.00420231
0.00418552
3.91957e-05
1.1719e-05
0.00413479
-0.0041414
-3.54492e-05
-5.98265e-06
0.00411763
-0.00410822
-3.99926e-05
-3.78389e-05
0.00409836
-0.00408783
-4.49088e-05
-4.25343e-05
0.0040768
-0.00406504
-5.02002e-05
-4.75924e-05
0.00405275
-0.00403968
-5.58693e-05
-5.30314e-05
0.00402606
-0.00401161
-6.18907e-05
-5.88377e-05
0.00399659
-0.00398072
-6.82214e-05
-6.49779e-05
0.00396425
-0.0039469
-7.47883e-05
-7.13959e-05
0.00392891
-0.00391005
-8.15521e-05
-7.80227e-05
0.00389054
-0.0038701
-8.84079e-05
-8.48068e-05
0.00384907
-0.00382714
-9.53239e-05
-9.16808e-05
0.00380456
-0.00378107
-0.000102157
-9.85216e-05
0.00375698
-0.003732
-0.000108863
-0.000105281
0.00370643
-0.00367997
-0.000115348
-0.000111863
0.00365295
-0.00362506
-0.000121554
-0.000118197
0.00359664
-0.00356738
-0.000127445
-0.000124235
0.00353763
-0.00350706
-0.000132985
-0.000129951
0.00344655
-0.00335407
-0.000138254
-0.000135315
0.00328882
-0.00326727
-8.44368e-05
-0.000101954
-5.16458e-05
2.22717e-05
-0.00319325
-0.00322153
-9.73892e-05
0.000128923
-0.00356474
-7.22451e-05
-0.0033528
1.79234e-05
0.00416811
0.00420591
9.44846e-06
0.000183605
-0.00370174
4.96383e-05
-0.00321133
0.000818953
-0.00294759
0.00383232
5.81803e-05
-0.000108306
-0.0031714
-3.44566e-06
-0.00313162
-0.00235699
0.00361571
0.000405788
-0.00178707
-0.000293687
-0.00351847
-0.00346208
0.00363806
-4.44789e-06
0.000155536
-1.90393e-06
-0.00363036
0.00362574
-0.000211725
-0.000137275
-0.00362508
0.00360267
-0.000156753
-0.000205917
-0.00360797
0.00362334
-0.000150213
-0.000153108
-0.00361919
0.00364663
-0.000143445
-0.000146453
-0.00367328
0.00369938
-0.000136552
-0.000139663
-0.00372467
0.00374939
-0.000129412
-0.000132663
-0.0037733
0.00379661
-0.000122042
-0.000125424
-0.0038191
0.00384097
-0.000114486
-0.000117976
-0.00386199
0.00388239
-0.000106819
-0.000110382
-0.00390193
0.00392085
-9.91026e-05
-0.000102714
-0.00393892
0.00395636
-9.14126e-05
-9.50305e-05
-0.00397299
0.00398902
-8.37988e-05
-8.74043e-05
-0.00400425
0.00401887
-7.63728e-05
-7.99091e-05
-0.00403271
0.00404598
-6.92049e-05
-7.26431e-05
-0.0040585
0.00407047
-6.23496e-05
-6.56639e-05
-0.00408174
0.00409249
-5.58558e-05
-5.90234e-05
-0.00410259
0.0041122
-4.97603e-05
-5.27647e-05
-0.00412121
0.00412978
-4.40749e-05
-4.69148e-05
-0.00415089
0.00418167
-3.87934e-05
-4.14641e-05
-0.00417854
0.00418237
-1.4381e-05
-2.38164e-06
-0.00420499
0.00420547
1.74371e-05
2.28762e-05
4.24712e-05
-2.2207e-05
0.00421574
-1.40206e-05
-1.97931e-05
0.00423929
0.00419656
3.63529e-05
1.59472e-05
0.00418771
0.00424562
-2.2123e-05
7.45019e-06
0.00420758
0.00421398
-6.34845e-06
-2.04933e-05
0.00423276
0.00423043
0.00422631
-0.00420536
1.82463e-05
-0.0042971
0.00418876
8.7842e-05
-6.13404e-05
0.00418859
-0.00417284
1.15496e-07
-5.05492e-06
0.00413773
-0.0041296
-4.35808e-05
-4.10941e-05
0.00412106
-0.00411193
-4.91246e-05
-4.6378e-05
0.00410236
-0.00409214
-5.51293e-05
-5.21038e-05
0.00408144
-0.00407004
-6.16018e-05
-5.82924e-05
0.00405812
-0.00404546
-6.85282e-05
-6.49447e-05
0.00403227
-0.00401829
-7.58724e-05
-7.20355e-05
0.00400374
-0.00398839
-8.35792e-05
-7.95196e-05
0.00397245
-0.00395566
-9.15749e-05
-8.73328e-05
0.00393828
-0.00392004
-9.97913e-05
-9.54023e-05
0.0039012
-0.00388148
-0.000108131
-0.000103649
0.00386117
-0.00383999
-0.000116509
-0.000111986
0.00381821
-0.00379556
-0.000124808
-0.000120299
0.00377234
-0.00374826
-0.000132945
-0.000128501
0.00372362
-0.00369814
-0.000140827
-0.000136498
0.00367213
-0.00364531
-0.000148381
-0.000144206
0.00361798
-0.00358986
-0.00015556
-0.000151565
0.00356128
-0.00353193
-0.000162327
-0.000158535
0.00350216
-0.00347172
-0.000168696
-0.000165091
0.00340242
-0.00331215
-0.000174703
-0.00017125
0.00328837
-0.00324742
-0.000149254
-0.000121175
-0.000103099
7.57656e-05
-0.00314407
-0.00319542
-0.000155093
0.000123438
-0.00350457
-1.24463e-05
-0.00329071
0.000315472
-0.00319826
5.09687e-05
-0.00326575
0.00421046
-0.0042107
1.76719e-05
0.00420041
-9.73711e-06
3.00956e-05
-1.87732e-05
0.00422143
-1.35474e-05
0.00423241
0.000337777
-0.00279825
8.82832e-05
-0.00314414
-0.00156212
-0.00191186
-0.00281195
0.00327111
-5.33692e-05
-8.32954e-05
7.17727e-05
-0.00313254
-0.000131499
-0.00314722
-0.00257663
-0.000529007
-0.00340748
-0.00344452
0.00351759
-7.75255e-05
-1.78677e-05
-0.00357532
0.00355546
-0.000191865
-0.000195
-0.00353725
0.00356511
-0.000184611
-0.000187708
-0.00359243
0.0036194
-0.000177182
-0.000180435
-0.00364579
0.00367176
-0.000169412
-0.000172841
-0.00369704
0.00372183
-0.000161343
-0.000164941
-0.00374589
0.00376943
-0.00015295
-0.000156723
-0.00379221
0.00381444
-0.000144272
-0.000148203
-0.00383589
0.00385677
-0.000135367
-0.000139427
-0.00387685
0.00389635
-0.000126316
-0.000130467
-0.00391505
0.00393315
-0.000117206
-0.000121409
-0.00395046
0.00396717
-0.000108124
-0.000112337
-0.0039831
0.00399846
-9.91541e-05
-0.000103339
-0.00401305
0.00402708
-9.03973e-05
-9.45043e-05
-0.00404036
0.0040531
-8.19404e-05
-8.59309e-05
-0.00406513
0.00407664
-7.38544e-05
-7.76955e-05
-0.00408748
0.00409782
-6.61977e-05
-6.98624e-05
-0.00410754
0.00411679
-5.9015e-05
-6.24832e-05
-0.00412547
0.00413372
-5.23297e-05
-5.55925e-05
-0.00414146
0.0041488
-4.61378e-05
-4.91974e-05
-0.00418971
0.00418175
-6.42031e-06
-4.32905e-05
-6.07203e-06
3.0014e-05
-6.23163e-05
0.00424805
1.38486e-06
6.41761e-06
0.00423148
0.00422796
-4.31318e-06
-1.156e-06
0.00419318
0.00417899
-3.4256e-05
4.86673e-05
0.00419317
0.00417857
0.00426033
0.00423141
-0.00421314
-2.44201e-08
-0.00418477
0.00423142
4.11979e-05
-1.47061e-05
0.00419422
-0.00414866
-4.54474e-05
-2.39694e-05
0.00414133
-0.00413349
-5.14195e-05
-4.842e-05
0.00412527
-0.00411648
-5.7918e-05
-5.46009e-05
0.00410726
-0.00409742
-6.49684e-05
-6.1319e-05
0.00408713
-0.00407616
-7.2568e-05
-6.85888e-05
0.00406471
-0.00405254
-8.06926e-05
-7.63981e-05
0.00403987
-0.00402644
-8.92961e-05
-8.47121e-05
0.00401249
-0.00399775
-9.83138e-05
-9.34761e-05
0.00398247
-0.00396638
-0.000107665
-0.000102617
0.00394973
-0.00393226
-0.00011726
-0.000112052
0.00391422
-0.00389536
-0.000126995
-0.000121683
0.00387594
-0.00385569
-0.00013676
-0.000131406
0.00383488
-0.00381326
-0.000146436
-0.000141102
0.00379109
-0.00376812
-0.000155917
-0.000150664
0.00374464
-0.00372036
-0.000165103
-0.000159985
0.00369559
-0.00367006
-0.000173909
-0.000168972
0.00364408
-0.00361737
-0.000182272
-0.000177551
0.00359023
-0.00356241
-0.000190147
-0.00018567
0.00353421
-0.00350539
-0.000197513
-0.000193291
0.00347626
-0.0034466
-0.000204354
-0.00020039
0.00336079
-0.00329946
-0.000210588
-0.000206988
0.00324158
-0.00318992
-0.000183156
-0.000212971
-0.000101643
9.95342e-05
-0.00314511
-0.00314716
-0.000144408
9.53111e-05
-0.00328441
1.4422e-05
-0.00325416
2.06942e-05
0.00418613
0.00422085
-2.97818e-06
0.000201368
-0.00306185
-0.000297861
-0.00370889
2.32509e-05
-0.00311936
5.21729e-05
-0.00322964
8.95452e-05
-0.00316191
-0.00366831
-0.000820183
0.000285861
-0.000558958
-0.00339522
-0.000151549
-0.00327148
7.31094e-05
-0.00310612
-0.000135431
5.75679e-05
-0.00306725
-0.000129002
-0.00315359
-0.00329775
-0.00312098
0.00328903
-0.000221423
0.00325601
-0.00354269
-0.000533501
-0.000393976
-0.00341866
0.0034953
-0.000154164
-0.000147497
-0.00352198
0.00354858
-0.000218465
-0.00022168
-0.00357485
0.0036009
-0.000210653
-0.00021398
-0.00362647
0.00365173
-0.000202448
-0.000206005
-0.00367646
0.00370081
-0.000193769
-0.000197566
-0.00372456
0.00374787
-0.000184655
-0.000188682
-0.00377052
0.00379269
-0.000175129
-0.000179373
-0.00381418
0.00383516
-0.000165253
-0.000169685
-0.00385542
0.00387515
-0.000155102
-0.000159687
-0.00389415
0.00391261
-0.000144771
-0.000149465
-0.00393032
0.00394747
-0.000134363
-0.000139118
-0.00396389
0.00397975
-0.000123984
-0.00012875
-0.00399488
0.00400946
-0.000113737
-0.000118467
-0.00402333
0.00403666
-0.000103731
-0.000108373
-0.0040493
0.00406142
-9.40629e-05
-9.85716e-05
-0.00407288
0.00408385
-8.48175e-05
-8.91545e-05
-0.00409418
0.00410405
-7.60633e-05
-8.01968e-05
-0.00411332
0.00412216
-6.7852e-05
-7.17586e-05
-0.00413045
0.00413833
-6.02155e-05
-6.38817e-05
-0.00414572
0.00415275
-5.31621e-05
-5.65851e-05
-0.00415932
0.00419958
-4.66795e-05
-4.9864e-05
-0.00420812
0.00422308
2.70979e-06
-1.46131e-05
-0.00417181
0.00419403
-1.52729e-06
4.15397e-05
4.72273e-05
-3.36193e-05
0.00421788
1.34487e-05
-4.1332e-05
0.00422191
0.00424681
3.88366e-05
9.00908e-06
0.0042002
0.00423318
-3.94627e-06
-1.17312e-06
0.0041983
0.00418405
6.26845e-06
-1.13338e-05
0.00419824
0.00418366
-1.48035e-05
3.60945e-06
0.00423263
0.00423419
8.26812e-06
-7.31802e-06
0.0042199
0.00424428
0.00424843
-0.0041955
-1.17345e-05
-0.00423329
0.00421336
1.2613e-05
1.21672e-05
0.00419907
-0.00418427
-1.48278e-05
-1.11374e-05
0.00415924
-0.00415257
-5.21188e-05
-4.89926e-05
0.00414557
-0.00413808
-5.89106e-05
-5.54208e-05
0.00413022
-0.00412182
-6.63195e-05
-6.24574e-05
0.00411302
-0.00410363
-7.43618e-05
-7.01209e-05
0.0040938
-0.00408334
-8.30267e-05
-7.84139e-05
0.00407242
-0.00406084
-9.22812e-05
-8.73154e-05
0.00404877
-0.00403599
-0.000102071
-9.67823e-05
0.00402272
-0.00400871
-0.000112321
-0.000106751
0.00399419
-0.00397891
-0.000122942
-0.00011714
0.00396311
-0.00394654
-0.000133829
-0.000127852
0.00392945
-0.00391158
-0.000144864
-0.000138777
0.00389319
-0.00387403
-0.000155922
-0.000149793
0.00385436
-0.00383392
-0.000166873
-0.000160773
0.00381299
-0.00379131
-0.000177597
-0.000171593
0.00376916
-0.00374629
-0.00018798
-0.000182134
0.00372296
-0.00369895
-0.000197927
-0.000192292
0.00367452
-0.00364943
-0.00020736
-0.00020198
0.00362397
-0.0035979
-0.000216222
-0.00021113
0.00357149
-0.00354453
-0.000224474
-0.000219695
0.00351729
-0.00348955
-0.000232087
-0.000227635
0.00346161
-0.00343321
-0.000238989
-0.000234927
0.00340467
-0.00334255
-0.000245271
-0.000241516
0.00328252
-0.00320224
-0.000209285
-0.000204438
-0.000175874
0.000118856
-0.00309657
-0.00317542
-0.000202693
6.84527e-05
-0.00315149
-0.00355018
-0.000551472
7.11392e-05
-0.00310973
0.00425032
-0.00425676
4.91305e-06
0.00425081
-4.18229e-05
1.65797e-05
-1.50034e-05
0.00421832
2.37756e-05
0.00420616
1.53175e-05
-0.00321731
5.31258e-05
-0.00319322
-1.03741e-05
-0.00326054
9.04295e-05
-0.00317923
0.000127433
-0.00317599
0.000163984
-0.00311238
-0.000162346
0.000160405
-0.00309463
-0.000223841
-0.00311393
-0.00321398
-0.00353452
0.00340234
-0.000401321
-0.000484087
0.000565039
-0.00363113
0.00364913
-0.0037602
-0.000373019
-0.000436859
-0.00330254
0.0033846
-0.000303484
-0.000294176
-0.00347749
0.00354212
-0.000218795
-0.00024039
-0.00356708
0.00359188
-0.000243265
-0.000246641
-0.00361631
0.00364051
-0.000234852
-0.00023841
-0.00366426
0.00368772
-0.00022591
-0.00022975
-0.00371068
0.00373331
-0.000216398
-0.000220528
-0.00375538
0.00377707
-0.000206347
-0.000210755
-0.00379817
0.00381884
-0.000195804
-0.000200468
-0.00383889
0.00385848
-0.000184845
-0.000189729
-0.00387741
0.00389587
-0.00017356
-0.000178622
-0.00391365
0.00393094
-0.000162059
-0.000167248
-0.00394754
0.00396364
-0.000150461
-0.000155721
-0.00397905
0.00399395
-0.000138885
-0.000144161
-0.00400818
0.00402189
-0.000127455
-0.00013269
-0.00403495
0.00404751
-0.000116289
-0.000121426
-0.00405942
0.00407085
-0.000105496
-0.000110485
-0.00408167
0.00409202
-9.51703e-05
-9.99686e-05
-0.00410178
0.00411111
-8.53911e-05
-8.99621e-05
-0.00411989
0.00412825
-7.62172e-05
-8.05339e-05
-0.0041361
0.00414358
-6.76875e-05
-7.17327e-05
-0.00415058
0.00415723
-5.98177e-05
-6.35853e-05
-0.00416346
0.00416938
-5.25982e-05
-5.6095e-05
-0.00420401
0.00422427
-1.75461e-05
-4.92411e-05
9.0445e-06
-1.16848e-06
-2.94994e-05
0.00424854
-7.07219e-06
-2.74307e-05
0.00425641
0.00423857
-1.30086e-05
8.32915e-06
0.00420488
0.00419067
-3.59459e-06
-1.18973e-06
0.00420308
0.00418879
5.95424e-06
-1.06977e-05
0.00420298
0.00418843
-3.3903e-05
1.68169e-05
0.00424971
0.00418959
0.0042461
0.00424552
-0.0042433
-1.39578e-05
-0.00424078
0.00422607
2.73323e-05
1.69013e-05
0.00420601
-0.00416928
-5.15636e-05
-4.8421e-05
0.00416337
-0.00415705
-5.84461e-05
-5.4895e-05
0.00415041
-0.00414331
-6.60122e-05
-6.2055e-05
0.00413586
-0.00412791
-7.42788e-05
-6.99033e-05
0.00411957
-0.00411068
-8.32513e-05
-7.84555e-05
0.00410139
-0.0040915
-9.29117e-05
-8.77063e-05
0.00408119
-0.00407025
-0.00010322
-9.76274e-05
0.00405887
-0.00404682
-0.000114113
-0.000108168
0.00403432
-0.00402113
-0.000125509
-0.000119257
0.00400747
-0.00399311
-0.000137305
-0.000130802
0.00397826
-0.00396271
-0.000149383
-0.000142695
0.00394667
-0.00392992
-0.000161614
-0.000154812
0.0039127
-0.00389476
-0.000173857
-0.000167017
0.00387636
-0.00385727
-0.000185972
-0.000179172
0.00383772
-0.00381749
-0.000197824
-0.000191137
0.00379684
-0.00377554
-0.000209289
-0.000202784
0.00375383
-0.0037315
-0.000220257
-0.000213995
0.00370881
-0.00368553
-0.000230641
-0.000224671
0.00366193
-0.00363777
-0.000240374
-0.000234735
0.00361334
-0.00358841
-0.000249404
-0.000244129
0.00356324
-0.00353762
-0.0002577
-0.000252807
0.00351181
-0.00348557
-0.000265224
-0.000260744
0.00345917
-0.0034324
-0.000272033
-0.000267922
0.00336247
-0.00329373
-0.000278029
-0.000274372
0.00325141
-0.00323236
-0.000242889
-0.000245013
-0.000345753
0.000139489
-0.00306521
-0.00317593
-0.000190419
0.000191697
-0.0031152
-0.00316057
-0.000262207
2.10241e-05
-0.00310138
1.48734e-05
0.00420851
0.00426547
-1.56313e-05
0.00030371
-0.00370126
-0.000362648
1.61651e-05
-0.00318035
0.000373251
-0.00370067
2.3964e-05
-0.00314407
5.36856e-05
-0.00315647
5.20027e-05
-0.00317305
9.11922e-05
-0.00314299
0.000128605
-0.00314061
0.000165493
-0.00311746
0.000168958
-0.00307189
-0.000218219
0.000189869
-0.00308686
-0.000239947
-0.00313884
-0.00317679
-0.00378265
0.00365924
-0.000249615
-0.000449921
-0.00361483
0.000363494
0.00385535
-0.00373072
-0.000574552
-0.000289946
-0.00358334
0.00353164
-0.000349613
-0.00036096
-0.00352159
0.00349979
-0.00028168
-0.000284132
-0.003537
0.00359287
-0.000274669
-0.0002776
-0.00361591
0.00363876
-0.000266124
-0.000269676
-0.00366124
0.00368349
-0.000257098
-0.000260889
-0.00370531
0.00372687
-0.000247466
-0.000251571
-0.00374796
0.00376876
-0.000237195
-0.000241625
-0.00378906
0.00380902
-0.000226308
-0.000231053
-0.00382845
0.0038475
-0.000214859
-0.000219894
-0.00386599
0.00388408
-0.000202932
-0.000208217