/*--------------------------------*- C++ -*----------------------------------*\
  =========                 |
  \\      /  F ield         | OpenFOAM: The Open Source CFD Toolbox
   \\    /   O peration     | Website:  https://openfoam.org
    \\  /    A nd           | Version:  10
     \\/     M anipulation  |
\*---------------------------------------------------------------------------*/
FoamFile
{
    format      ascii;
    class       volScalarField;
    location    "25";
    object      p;
}
// * * * * * * * * * * * * * * * * * * * * * * * * * * * * * * * * * * * * * //

dimensions      [0 2 -2 0 0 0 0];

internalField   nonuniform List<scalar> 
14667
(
0.33769
0.347395
0.0117409
0.0116351
0.0122874
0.241567
0.228704
0.00681755
0.0113837
0.0136731
0.244592
0.2581
0.339787
0.272046
0.00746007
0.224999
0.232152
0.0265096
0.0175455
0.234291
0.291579
0.371863
0.307903
0.299491
-0.267312
-0.28884
-0.337425
-0.306399
-0.31066
0.574821
0.538787
0.535814
-0.584378
-0.580641
-0.651472
-0.600724
-0.614805
0.0103888
0.000259031
0.0107086
0.0198568
0.0294235
0.737813
0.74912
0.840373
0.820873
0.73013
-0.176422
-0.117552
-0.163899
-0.245025
0.657727
0.606227
0.566704
-0.0299944
-0.0658148
-0.435098
-0.371037
-0.514476
-0.494398
-0.306004
-0.333707
0.347892
0.401757
0.494483
0.433843
0.310807
0.306901
0.16189
0.505717
0.492496
0.482391
0.912105
0.860755
-0.0848232
0.00345856
-0.0176361
-0.0662274
0.506952
0.521916
0.013555
0.00872727
0.00997797
0.0191856
0.0165002
-0.34817
-0.392044
-0.398975
-0.35787
-0.239592
-0.232744
-0.0713675
-0.05672
-0.128252
-0.13656
-0.159562
-0.150691
-0.0366349
-0.0461001
-0.00518798
-0.018354
-0.167102
-0.109095
0.426554
0.46664
0.45129
0.419751
0.39999
0.392922
-0.00455786
-0.00779596
-0.00250073
-0.0016748
0.00171849
-0.000953938
0.05913
0.0487259
0.0514403
-0.00294117
-0.0062042
-0.00158141
-0.114406
-0.120476
-0.104831
-0.0907544
-0.0887905
-0.101528
-0.0781563
-0.0698022
-0.0700169
-0.0781287
-0.0637874
-0.060439
-0.0608408
-0.0642596
-0.0590393
-0.0597119
-0.0606519
-0.05961
-0.062496
-0.0676687
-0.0700977
-0.0640808
-0.0752638
-0.085335
-0.0908811
-0.0789578
-0.0976529
-0.111857
-0.124257
-0.106013
-0.126962
-0.141582
-0.166994
-0.14516
-0.157429
-0.172762
-0.202185
-0.186127
-0.184625
-0.189171
-0.213055
-0.212283
-0.185853
-0.174849
-0.193027
-0.206587
-0.17349
-0.157299
-0.14223
-0.151549
-0.13731
-0.130395
-0.139884
-0.153176
-0.143078
-0.158876
-0.138631
-0.163422
-0.153361
-0.165958
-0.167148
-0.145898
-0.158345
-0.116852
-0.131933
-0.0881144
-0.101695
-0.0682179
-0.0769063
-0.0580704
-0.061992
-0.0567203
-0.0563548
-0.0639512
-0.0592687
-0.0809186
-0.0711654
-0.109016
-0.0934078
-0.125577
-0.17077
-0.163541
-0.106035
-0.118393
-0.0827116
-0.094466
-0.0660897
-0.0731691
-0.0591139
-0.0615355
-0.060434
-0.0587468
-0.0709147
-0.0644041
-0.0928793
-0.0803175
-0.128087
-0.108817
-0.174294
-0.150332
-0.215235
-0.19719
-0.229377
-0.226165
-0.207836
-0.223074
-0.185199
-0.159722
-0.14561
-0.120269
-0.127715
-0.173939
-0.181876
-0.178519
-0.134545
-0.116593
-0.139781
-0.130258
-0.1439
-0.144652
-0.125414
-0.137522
-0.0986458
-0.112308
-0.0738947
-0.0854021
-0.0581461
-0.0647848
-0.051768
-0.0538534
-0.0537906
-0.0517774
-0.0638823
-0.0577917
-0.0829625
-0.0721699
-0.11124
-0.0959069
-0.145831
-0.128216
-0.161453
-0.170837
-0.129574
-0.11665
-0.124901
-0.0951775
-0.106122
-0.0743388
-0.0842327
-0.0605968
-0.0664718
-0.0551295
-0.0568764
-0.0577909
-0.0554102
-0.0699013
-0.0625314
-0.0939853
-0.0802797
-0.132157
-0.1113
-0.181273
-0.155992
-0.225161
-0.205459
-0.239588
-0.237129
-0.215853
-0.23236
-0.164626
-0.191709
-0.112798
-0.113888
-0.137703
-0.1008
-0.116625
-0.107314
-0.1809
-0.0941092
-0.0939596
-0.184193
-0.112779
-0.172499
-0.180638
-0.113151
-0.130509
-0.084986
-0.101855
-0.0666278
-0.0936365
-0.079888
-0.115078
-0.105964
-0.118025
-0.119183
-0.102279
-0.111667
-0.0806353
-0.0916753
-0.0610194
-0.0700912
-0.0490388
-0.0539634
-0.0452901
-0.0461756
-0.0490582
-0.0462666
-0.0601321
-0.0536123
-0.0797578
-0.0687022
-0.108875
-0.0931333
-0.143671
-0.126153
-0.159647
-0.16153
-0.172977
-0.14707
-0.101354
-0.108595
-0.0826723
-0.0923396
-0.0645492
-0.0730678
-0.0531267
-0.0578457
-0.0494212
-0.0503518
-0.0532551
-0.050349
-0.0661301
-0.058411
-0.0909013
-0.0768317
-0.130294
-0.108711
-0.181661
-0.155132
-0.22834
-0.207215
-0.244368
-0.241502
-0.218516
-0.236334
-0.165473
-0.193872
-0.112001
-0.137654
-0.0723919
-0.0902768
-0.0977336
-0.070799
-0.0551862
-0.127414
-0.110091
-0.0898472
-0.0772244
-0.0784083
-0.0636506
-0.182917
-0.0579017
-0.0852631
-0.0461599
-0.0321689
-0.0477615
-0.0388699
-0.069701
-0.058294
-0.0876585
-0.0799329
-0.0905834
-0.0912059
-0.0793629
-0.0862481
-0.0625083
-0.0711198
-0.0474211
-0.0543651
-0.0385782
-0.042111
-0.0367426
-0.0368006
-0.0415387
-0.0383174
-0.053144
-0.0463967
-0.0731899
-0.0619388
-0.102683
-0.086834
-0.137494
-0.119917
-0.166771
-0.15367
-0.177131
-0.174949
-0.178836
-0.177313
-0.180372
-0.15824
-0.169675
-0.143756
-0.092374
-0.0945031
-0.0950913
-0.0845523
-0.0907864
-0.0685866
-0.0768744
-0.0535954
-0.06054
-0.044553
-0.0482126
-0.0422817
-0.0425965
-0.0469549
-0.0436827
-0.0603037
-0.052389
-0.0852579
-0.0711251
-0.124744
-0.103107
-0.176505
-0.149706
-0.224315
-0.202534
-0.241705
-0.238213
-0.215464
-0.233719
-0.161148
-0.190003
-0.106487
-0.132659
-0.0649299
-0.0838303
-0.0494539
-0.172864
-0.0819205
-0.0594344
-0.0756052
-0.0277159
-0.0399504
-0.0659185
-0.074831
-0.0705433
-0.0870992
-0.0528261
-0.0367083
-0.166469
-0.162251
-0.0262484
-0.0716448
-0.0253273
-0.0136017
-0.0180522
-0.015059
-0.0292352
-0.0226851
-0.0462195
-0.0373146
-0.0610552
-0.0545917
-0.0645562
-0.0644519
-0.0566445
-0.0617094
-0.0437654
-0.0503517
-0.0324716
-0.0376178
-0.0263782
-0.0286725
-0.0263595
-0.0256071
-0.0322981
-0.0285777
-0.0445584
-0.037546
-0.064723
-0.0535156
-0.0936576
-0.0781712
-0.127735
-0.110552
-0.156237
-0.143531
-0.164326
-0.169051
-0.152352
-0.162869
-0.168463
-0.170989
-0.150559
-0.161376
-0.120931
-0.136695
-0.104193
-0.0760463
-0.0768519
-0.0677559
-0.0728481
-0.0544352
-0.0613693
-0.0421102
-0.0477794
-0.0350863
-0.0378393
-0.0340498
-0.0338364
-0.0392729
-0.0358069
-0.0525133
-0.0447351
-0.0767283
-0.0630366
-0.115067
-0.0940274
-0.165878
-0.139475
-0.213604
-0.191748
-0.231463
-0.227738
-0.205742
-0.223768
-0.151582
-0.180334
-0.0968798
-0.122975
-0.0551209
-0.0741545
-0.0253655
-0.038972
-0.0140468
-0.0697164
-0.0513364
-0.0806992
-0.0650405
-0.0647823
-0.0363417
-0.0564038
-0.0140462
-0.0249948
-0.0447611
-0.0300159
-0.138306
-0.01281
0.00169178
-0.138135
-0.124698
-0.0614883
-0.0164999
-0.00561378
-0.00190465
-0.00291568
-0.00416901
-0.00236737
-0.0117637
-0.00724418
-0.0244215
-0.0176399
-0.0364558
-0.0310795
-0.0401249
-0.0395859
-0.0346103
-0.0382699
-0.0250869
-0.0299523
-0.0170408
-0.0206325
-0.0134599
-0.0145975
-0.0152189
-0.0136644
-0.0222546
-0.0180742
-0.0348879
-0.0277943
-0.0545642
-0.0437233
-0.0822586
-0.0674691
-0.114517
-0.0983121
-0.141713
-0.129456
-0.151968
-0.149631
-0.148
-0.154887
-0.148404
-0.155352
-0.157181
-0.139552
-0.14928
-0.112288
-0.126907
-0.0966998
-0.0498075
-0.0576284
-0.0543011
-0.0581501
-0.0589868
-0.0512159
-0.055446
-0.0402107
-0.0459137
-0.030352
-0.0348302
-0.0251527
-0.0271012
-0.0250815
-0.0244856
-0.0305345
-0.0270405
-0.0432571
-0.0358395
-0.0660561
-0.0531928
-0.102063
-0.0822862
-0.150312
-0.125131
-0.196707
-0.175292
-0.214773
-0.210796
-0.190246
-0.207555
-0.137534
-0.165601
-0.0837724
-0.109486
-0.0425039
-0.0614087
-0.0126064
-0.026406
0.00897862
-0.000743828
0.00640594
0.0233475
0.016984
-0.0607809
-0.046249
-0.0571306
-0.0351334
-0.0500949
-0.0270011
-0.0396947
-0.0103436
-0.0212939
-0.026022
-0.00969081
0.0273289
0.00919889
-0.121477
0.0285575
-0.0351142
-0.121212
-0.108143
-0.0313263
-0.0449169
0.0453218
-0.108653
-0.0545681
-0.0175286
-0.00592065
0.00515267
0.000496995
0.00943044
0.00799822
0.008877
0.0096811
0.00427634
0.00714366
-0.00474046
0.000222983
-0.0141741
-0.00985015
-0.0176801
-0.0169097
-0.0140402
-0.0165621
-0.00732217
-0.0107469
-0.00199869
-0.00428059
-0.000572338
-0.000716318
-0.00379853
-0.00160013
-0.0115699
-0.00711919
-0.0241514
-0.0171908
-0.0429145
-0.0326489
-0.0687504
-0.0550117
-0.0985123
-0.0835775
-0.123754
-0.112391
-0.133691
-0.131357
-0.130124
-0.138047
-0.131347
-0.139784
-0.140886
-0.126547
-0.134846
-0.102606
-0.115579
-0.0736437
-0.0884064
-0.0591081
-0.0409071
-0.0385887
-0.0411255
-0.0417979
-0.0354413
-0.0389322
-0.0264804
-0.0310943
-0.0187607
-0.0222147
-0.0150691
-0.016366
-0.0157051
-0.0148502
-0.0211196
-0.0177397
-0.0329418
-0.0260961
-0.0537273
-0.0420253
-0.086464
-0.0684698
-0.130799
-0.107562
-0.174544
-0.154159
-0.192486
-0.188287
-0.1696
-0.185917
-0.1194
-0.146218
-0.067617
-0.0924074
-0.0276867
-0.046057
0.00165243
-0.0120812
0.0235115
0.0134447
0.0393394
0.0320902
0.044738
-0.0551302
-0.0438248
-0.0401836
-0.027582
0.0639921
-0.052646
-0.0364516
-0.046954
-0.0316119
-0.0376809
-0.0287791
-0.0247384
-0.0148001
-0.027408
-0.00880657
0.0107798
0.0293236
-0.0929283
-0.0506123
-0.026483
-0.0122951
0.00515699
-0.0025558
0.0152905
0.0109944
0.0199139
0.018247
0.0206844
0.0206851
0.018447
0.0199777
0.0126842
0.0159904
0.00566245
0.0089992
0.00251297
0.00336323
0.0046197
0.00301274
0.00909617
0.00682014
0.0122689
0.0110189
0.0120293
0.0126444
0.00775804
0.0103973
-0.00040047
0.00415795
-0.0126576
-0.00595831
-0.0301867
-0.0206728
-0.0537103
-0.0412504
-0.0805909
-0.0670949
-0.103385
-0.0931029
-0.112439
-0.110216
-0.102178
-0.109791
-0.0758836
-0.0904048
-0.0761695
-0.103282
-0.0906569
-0.120157
-0.113294
-0.123382
-0.123597
-0.113063
-0.119745
-0.0927096
-0.103874
-0.0668496
-0.0802045
-0.0533059
-0.0155095
-0.0212168
-0.0184011
-0.0252934
-0.023632
-0.0253356
-0.0259069
-0.0206533
-0.0235181
-0.0134507
-0.0171228
-0.00757564
-0.0101483
-0.00512762
-0.00590052
-0.00623298
-0.00523525
-0.0113786
-0.00822943
-0.0220286
-0.0159004
-0.040393
-0.0300814
-0.0691639
-0.0533459
-0.108508
-0.0877964
-0.148456
-0.129634
-0.166035
-0.161573
-0.145254
-0.160355
-0.0982148
-0.123435
-0.0490692
-0.0726741
-0.010957
-0.0284843
0.0171592
0.00403344
0.0390687
0.0287818
0.0550667
0.0479023
0.060578
-0.0603353
-0.0524608
-0.0441389
-0.0245453
-0.04135
-0.0515465
-0.0405512
-0.0472396
-0.0393228
-0.0389274
-0.0396501
-0.0265803
-0.0407532
-0.0103922
0.0101073
0.0608113
0.0357775
0.059763
-0.0578334
-0.00433708
-0.00263272
-0.0438445
-0.0132841
-0.0495551
-0.0397325
-0.0211877
0.00100284
-0.00906381
0.015658
0.00911506
0.0246552
0.0207811
0.029411
0.0275098
0.0311507
0.0305649
0.0307672
0.0312415
0.0277038
0.0295997
0.0229181
0.0253121
0.0201866
0.0210793
0.0212243
0.0202964
0.0240079
0.0225987
0.0255812
0.0250937
0.0241381
0.0252959
0.0191672
0.0220889
0.01087
0.0154225
-0.000846259
0.00548266
-0.0168899
-0.00825422
-0.0378633
-0.0267984
-0.061594
-0.049683
-0.0818179
-0.0726439
-0.0902388
-0.0879808
-0.0813001
-0.0879907
-0.0708228
-0.0597048
-0.0579667
-0.0355648
-0.0602343
-0.030602
-0.0455175
-0.0859289
-0.0738586
-0.102899
-0.0957274
-0.107682
-0.106913
-0.100367
-0.105417
-0.083517
-0.092924
-0.0608085
-0.072656
-0.0363682
-0.0485515
-0.0245134
-0.00822615
-0.00630637
-0.0110417
-0.00990121
-0.0109269
-0.0114606
-0.00705195
-0.00940064
-0.00136362
-0.00422414
0.00295822
0.00111747
0.00444019
0.00405929
0.00307456
0.00411919
-0.00163622
0.00120113
-0.0109397
-0.00561968
-0.0266555
-0.0178588
-0.0510739
-0.0376564
-0.0847001
-0.0669272
-0.119889
-0.103105
-0.136751
-0.132051
-0.118681
-0.132387
-0.0753632
-0.0986935
-0.0294117
-0.0515685
0.00667443
-0.0099578
0.0332899
0.0208816
0.0544996
0.0444495
0.0700002
0.0631113
0.0780821
0.0750065
0.082961
0.0795846
0.0883133
0.0780207
0.0958087
-0.0531341
-0.0474194
-0.0119392
-0.0018382
-0.0540313
-0.048011
-0.0512593
-0.0505833
-0.0439788
-0.0543262
-0.0315362
-0.0581515
-0.0145762
0.00686745
0.0348303
0.059959
-0.0819864
-0.0521512
-0.0791676
-0.0706273
-0.0153705
0.0787838
-0.0185916
0.0951014
-0.00479037
-0.0516893
-0.0283312
-0.0422438
-0.00464811
-0.0157552
0.0130108
0.00496067
0.0251733
0.0197113
0.0331667
0.0296647
0.0378848
0.0358683
0.040333
0.039331
0.0412713
0.040984
0.0403511
0.0410937
0.0376013
0.0390962
0.035465
0.0362719
0.0357714
0.0353258
0.037323
0.0365453
0.0377465
0.0378037
0.0354697
0.0369967
0.0300885
0.0331569
0.0218851
0.0263214
0.0109064
0.0167713
-0.00350768
0.00418614
-0.0218373
-0.0122119
-0.0423657
-0.0320635
-0.0600623
-0.0519793
-0.0676996
-0.0655932
-0.0599161
-0.0657366
-0.0394461
-0.0507687
-0.0271612
-0.0460258
-0.0324385
-0.0703029
-0.0587746
-0.08733
-0.0799811
-0.0937416
-0.0919489
-0.0892711
-0.092802
-0.0756508
-0.0834351
-0.0559702
-0.0663519
-0.0337184
-0.044963
-0.0226172
0.00747193
0.00621625
0.0070164
0.00378743
0.00507923
0.00175039
0.00257516
0.00203787
0.00151353
0.00525888
0.0033402
0.00965345
0.00748683
0.0126923
0.0114457
0.0134539
0.0133505
0.0119987
0.013014
0.00783689
0.0103106
-4.49876e-05
0.00443409
-0.0130658
-0.0058057
-0.0330457
-0.0220852
-0.0606274
-0.0460042
-0.090337
-0.0759889
-0.10578
-0.101153
-0.0910012
-0.102161
-0.0520123
-0.0732536
-0.00945651
-0.0300666
0.0243753
0.00875358
0.0492792
0.0376962
0.0690181
0.0596495
0.0834351
0.0770619
0.0915278
0.0882707
0.098022
0.0947085
0.104575
0.100534
0.0956114
0.104069
0.105643
-0.0574715
-0.0542227
-0.0605032
-0.0593593
-0.0592971
-0.0661372
-0.0525777
-0.0735442
-0.0396698
-0.07964
-0.0204152
0.00581685
0.0360235
0.0612204
0.0816752
0.102093
0.0935266
-0.0475374
-0.108011
-0.102851
-0.0904459
-0.00821412
-0.000638095
0.0160416
0.0154048
0.00712625
0.00849594
0.00444955
-0.0574739
-0.0286636
-0.0387325
-0.00795269
-0.0180732
0.00972778
0.00135348
0.0235247
0.017092
0.0336993
0.0290761
0.0407025
0.0375381
0.0453578
0.0432856
0.0482773
0.0469923
0.050106
0.0493048
0.050762
0.0506279
0.0497967
0.0504546
0.0484268
0.0490272
0.0483064
0.0481821
0.0489716
0.0486502
0.0485913
0.0490224
0.0457998
0.047541
0.0402856
0.0433685
0.0323952
0.0366138
0.022304
0.0276399
0.0095808
0.0163141
-0.0061569
0.00207046
-0.0236388
-0.0148631
-0.0388944
-0.0318896
-0.0456775
-0.0437853
-0.0388575
-0.0439933
-0.0212771
-0.0309958
-0.0107292
-0.0338633
-0.021141
-0.0570454
-0.0459859
-0.074144
-0.0665812
-0.0821313
-0.0793823
-0.0802032
-0.082383
-0.0694721
-0.0758025
-0.0524983
-0.0615796
-0.0322476
-0.0426015
-0.0116558
-0.0218253
-0.00196057
0.0159182
0.0162037
0.0144847
0.0153099
0.01312
0.0136791
0.0135629
0.0130418
0.0162286
0.0146808
0.0195175
0.0179393
0.0215285
0.0207455
0.021791
0.0218649
0.0203763
0.0213079
0.0168241
0.0189112
0.0103549
0.0140081
-7.87697e-05
0.00571214
-0.0158106
-0.00720748
-0.0374235
-0.02595
-0.0612573
-0.0496123
-0.0748507
-0.0704139
-0.0637434
-0.0727062
-0.0293189
-0.0483153
0.00983075
-0.00927646
0.0415099
0.0268622
0.0646732
0.0539571
0.0825924
0.0741288
0.0958402
0.0899132
0.104311
0.100504
0.110087
0.107485
0.112365
0.111679
0.106543
0.110594
-0.0659546
-0.0651265
0.00589476
0.0140836
-0.071284
-0.0753086
-0.0713755
-0.0867825
-0.0641758
-0.0978292
-0.0490161
-0.105615
-0.0258285
0.00513324
0.0373818
0.0636717
0.081732
0.0995573
0.0888163
0.091653
0.0938614
-0.0222483
-0.0186729
-0.0536374
-0.136502
-0.127735
-0.10929
-0.0835753
0.0164729
-0.0674421
-0.00586037
-0.0128083
0.00889557
0.00166258
0.0218152
0.0156279
0.0326867
0.0275505
0.0411089
0.0371995
0.0473431
0.0444698
0.0518503
0.0497874
0.0550488
0.0535839
0.0574445
0.0563191
0.0591577
0.0584164
0.0596519
0.0595786
0.0591833
0.0594641
0.0589209
0.0589768
0.0589546
0.0589646
0.0580337
0.0587036
0.0550068
0.0568229
0.0496097
0.0525887
0.0422206
0.046136
0.0331259
0.03789
0.0220794
0.0278784
0.00875087
0.015692
-0.00596273
0.00142972
-0.0189961
-0.0129773
-0.0248883
-0.0232442
-0.0189026
-0.0234277
-0.0037344
-0.0120171
0.013307
0.00485344
0.0278055
0.0209529
0.0235064
0.000506073
0.0123255
-0.023733
-0.0116522
-0.0461618
-0.035368
-0.0635631
-0.0557014
-0.0730167
-0.0694066
-0.0733337
-0.0743215
-0.065143
-0.0701993
-0.0504912
-0.0584678
-0.0319911
-0.0415471
-0.0124336
-0.022173
-0.0030313
0.0216457
0.0241748
0.0231151
0.0247337
0.0247079
0.0239373
0.0244433
0.0231096
0.0234299
0.0236872
0.0231689
0.0258552
0.0246378
0.0282053
0.0271173
0.0294262
0.0289867
0.0293755
0.0295458
0.0280941
0.0289057
0.025172
0.0268711
0.0200436
0.0229213
0.0119828
0.0164327
0.000105118
0.00656929
-0.0159785
-0.00745253
-0.0339193
-0.0250798
-0.0449933
-0.0411255
-0.0378246
-0.043956
-0.0080696
-0.0244663
0.0272709
0.00977239
0.057013
0.043187
0.0787647
0.0687598
0.094988
0.0874158
0.106856
0.101497
0.114468
0.111095
0.118625
0.11702
0.11777
0.118965
0.111116
0.114925
0.106664
0.0339166
-0.0790407
-0.0808636
-0.0865512
-0.0965758
-0.086942
-0.112852
-0.0776195
-0.127027
-0.0578725
-0.135711
-0.0288585
0.00628536
0.040237
0.065264
0.078561
0.0841798
0.0854734
0.0827361
0.0873162
0.0765653
0.0790154
-0.0223457
-0.0548402
-0.0184247
0.00283509
0.00641957
-0.165481
-0.151091
-0.12487
-0.0915921
0.0381302
0.028621
0.0264559
0.0433415
0.0195957
-0.0822252
0.00402891
0.00231507
0.0123757
0.00760634
0.0224405
0.0173939
0.0319526
0.0272885
0.0405147
0.0363944
0.0475784
0.0442472
0.0531225
0.0505272
0.0574083
0.055404
0.0607402
0.0591737
0.0634783
0.0621596
0.0658284
0.0647138
0.067388
0.0667453
0.0678542
0.0677388
0.0677404
0.0678272
0.0673741
0.0676106
0.0661022
0.0669155
0.0630477
0.0648326
0.0579709
0.0607477
0.051241
0.0547824
0.0432112
0.0473844
0.033758
0.0386879
0.0225826
0.0283838
0.0102636
0.0164698
-0.000814287
0.00432173
-0.00577696
-0.00442808
-0.000495729
-0.00443242
0.0122951
0.00536979
0.0261868
0.0194358
0.0324769
0.0294589
0.047625
0.0390669
0.00778875
0.0189616
-0.0153928
-0.00375511
-0.037556
-0.0267994
-0.0554764
-0.0472455
-0.0663257
-0.0619169
-0.0686687
-0.0685878
-0.0627048
-0.0666535
-0.0500282
-0.0570701
-0.0330012
-0.0418941
-0.0142871
-0.0236787
0.00377131
-0.00507415
0.0120602
0.0314707
0.0302573
0.0324768
0.0322203
0.0321752
0.0324401
0.0317922
0.0319113
0.0324658
0.0319634
0.0341694
0.0332524
0.0357391
0.0350464
0.0363889
0.0361854
0.0361746
0.0363792
0.0350854
0.0357568
0.0327805
0.0341079
0.0288751
0.0310527
0.0229035
0.0261796
0.0143568
0.0189763
0.00309547
0.00903249
-0.00932706
-0.0032013
-0.017148
-0.0143816
-0.0100871
-0.016181
0.0116473
-0.00130788
0.0422095
0.0267358
0.069719
0.0567711
0.0902578
0.0808348
0.105012
0.09824
0.115216
0.110662
0.121198
0.118698
0.123098
0.122698
0.120369
0.122324
0.112596
0.117121
0.10102
0.106752
0.0949414
-0.0970541
-0.101989
0.0168529
0.0238792
-0.105939
-0.123555
-0.104794
-0.144262
-0.0909265
-0.160435
-0.0646739
-0.168426
-0.0293799
0.00955063
0.0430564
0.0643623
0.073745
0.0768526
0.0729673
0.0698831
0.066892
0.0717092
0.0599869
0.0625685
-0.0499795
0.0134483
-0.0098614
0.0306612
0.0380793
0.0239545
-0.191116
-0.168733
-0.134232
-0.0932501
0.0551972
0.0512394
0.0582886
-0.102259
0.0218514
0.0249757
0.0216571
0.0209383
0.0264537
0.023685
0.0332403
0.0297496
0.0403948
0.0368147
0.0472221
0.0438925
0.0531611
0.0503213
0.0580763
0.0557419
0.062106
0.0601891
0.0654632
0.0638552
0.0683881
0.0669627
0.0710776
0.069763
0.0733065
0.0722841
0.0745932
0.0740828
0.0748748
0.0748411
0.0743837
0.0747244
0.0729221
0.0738081
0.0699707
0.0716581
0.0653541
0.0678588
0.0593956
0.0625143
0.0524498
0.0560386
0.0444533
0.0486042
0.0351218
0.0399595
0.0247788
0.0300075
0.0153978
0.019742
0.0114132
0.0124109
0.0160943
0.0127039
0.0266433
0.0209821
0.0379011
0.032439
0.0473705
0.042837
0.0515562
0.0342986
0.0432342
0.013789
0.0244289
-0.0088492
0.00260096
-0.0310468
-0.020202
-0.0496491
-0.0409865
-0.0618999
-0.0567073
-0.0661375
-0.0650708
-0.0621531
-0.065129
-0.051156
-0.0574124
-0.0353152
-0.0436842
-0.0171815
-0.026371
0.000783652
-0.00807145
0.00916078
0.0302677
0.034891
0.0327545
0.0379091
0.0366034
0.0391888
0.0387487
0.0392658
0.0393187
0.0392598
0.0392033
0.0399659
0.0395032
0.0412311
0.0405848
0.0421807
0.0417886
0.0424534
0.0423947
0.0421878
0.0423826
0.0413234
0.041846
0.0395999
0.0405838
0.0367749
0.0383401
0.0325816
0.0348654
0.0267953
0.0298936
0.0195005
0.0233034
0.0118319
0.0155644
0.00741161
0.00886028
0.0126001
0.00841319
0.0298463
0.0197158
0.0550244
0.0420222
0.0794058
0.0677396
0.0983586
0.0896315
0.111706
0.105671
0.12028
0.11655
0.124623
0.122956
0.124868
0.125262
0.121054
0.123459
0.112872
0.117534
0.101276
0.107301
0.0877818
0.0948562
0.0801457
-0.119809
-0.12873
-0.128274
-0.155805
-0.122925
-0.179688
-0.101932
-0.195868
-0.0678179
-0.200451
-0.026499
0.0141588
0.0447653
0.0611604
0.0673213
0.0673277
0.0626811
0.0561962
0.0526184
0.049148
0.0550573
0.0417502
0.0454704
0.0475653
0.0555735
0.0635653
0.0583608
-0.0390346
0.0032169
0.0361615
-0.209347
-0.177246
-0.134356
-0.0865614
0.0544092
0.061778
0.0359578
0.0332662
0.027445
0.0644455
0.0610903
-0.127553
0.0428095
0.0483868
0.0360764
0.0387025
0.0349289
0.034927
0.0373496
0.0357905
0.0419505
0.039463
0.0474204
0.0446425
0.052899
0.0501953
0.0579066
0.0554799
0.0622683
0.0601689
0.066032
0.0642173
0.0693362
0.0677323
0.072337
0.0708641
0.0751763
0.0737738
0.0777516
0.0765208
0.0796352
0.0788034
0.0804173
0.0801653
0.0800932
0.080391
0.078646
0.0795198
0.0759012
0.0774466
0.0718185
0.0740161
0.0666746
0.0693555
0.0607678
0.06381
0.0540383
0.0575251
0.0461974
0.0502673
0.037431
0.0418719
0.0295694
0.033169
0.0266043
0.0272204
0.0307269
0.0278553
0.0391855
0.0346855
0.0480543
0.043734
0.055534
0.0519237
0.0588439
0.038219
0.046783
0.0184119
0.0287439
-0.0039839
0.00740141
-0.0264066
-0.0153793
-0.0458635
-0.0366893
-0.0595977
-0.0535953
-0.0656805
-0.0636701
-0.0635057
-0.0656058
-0.0539422
-0.0595439
-0.0389931
-0.0469878
-0.0211698
-0.0302806
-0.00305261
-0.011992
0.0134918
0.00549463
0.0208532
0.0404941
0.0383824
0.0435023
0.0422004
0.0449034
0.0443696
0.0452868
0.0451656
0.0456115
0.0453928
0.0462624
0.0458655
0.0471268
0.0467143
0.0476208
0.0474372
0.0476786
0.0476923
0.0474393
0.047596
0.0468129
0.0471866
0.0456195
0.0462957
0.0437223
0.0447667
0.0409988
0.0424687
0.0374192
0.0393099
0.0332229
0.0353637
0.0293221
0.0311345
0.0280076
0.0281303
0.0330012
0.0294892
0.0465898
0.0387214
0.0665773
0.0561359
0.0870519
0.0771036
0.103715
0.0959837
0.115482
0.110201
0.122639
0.119603
0.125694
0.124655
0.124883
0.125762
0.120398
0.123091
0.112263
0.116755
0.101202
0.107032
0.0880744
0.0948837
0.0725768
0.0805866
0.0640869
-0.146209
-0.160364
0.024173
0.0302831
-0.151415
-0.191649
-0.138704
-0.216381
-0.108505
-0.229513
-0.0663623
-0.227411
-0.0206459
0.0188201
0.0442322
0.0554324
0.0588664
0.056743
0.0509899
0.0442395
0.0370535
0.0352845
0.0398191
0.0247386
0.0306581
0.0817913
0.0712977
0.0301486
0.0786376
0.0692267
-0.0223113
0.0199245
0.0503226
-0.216122
-0.174197
-0.124307
-0.0716463
0.0668354
-0.157168
0.0724704
0.0774919
0.0610752
0.0666733
0.0517049
0.0559704
0.0463906
0.048576
0.0445589
0.0450621
0.0457389
0.044818
0.048998
0.0471817
0.0532096
0.0510419
0.0576413
0.0554275
0.0618936
0.0598069
0.0657762
0.0638852
0.069277
0.0675706
0.0724761
0.0709082
0.0754719
0.0739934
0.0783468
0.0769223
0.081047
0.0797327
0.0832426
0.0822397
0.0845055
0.0840209
0.0845508
0.0846845
0.0833543
0.0841073
0.0809439
0.0822978
0.0774312
0.0793122
0.0730745
0.07534
0.0680909
0.0706583
0.0623903
0.0653487
0.0556953
0.0591772
0.0482175
0.0519917
0.0418168
0.0446775
0.0398229
0.040098
0.0433312
0.0409902
0.0498678
0.0464233
0.0566594
0.0533357
0.0625867
0.0597233
0.0674914
0.0650857
0.0717325
0.0696801
0.0690902
0.0571611
0.0636
0.0414476
0.0497816
0.0218537
0.0321063
-0.000553925
0.0108745
-0.023439
-0.0121071
-0.0439847
-0.0341868
-0.0593557
-0.0524813
-0.067311
-0.0643597
-0.0668499
-0.0681366
-0.0585155
-0.0635777
-0.0441628
-0.0519394
-0.0263473
-0.0355229
-0.0077252
-0.016969
0.00950107
0.00111533
0.0172409
0.035694
0.0409995
0.0384479
0.0453416
0.0433114
0.0482104
0.0469722
0.0496962
0.0490994
0.050329
0.0500724
0.0507598
0.0505454
0.0514384
0.0511045
0.0519692
0.0517404
0.052167
0.0521087
0.0521356
0.052169
0.0519715
0.0520731
0.0515825
0.0518133
0.0508593
0.051267
0.049739
0.0503515
0.0481985
0.0490191
0.0463274
0.0472914
0.0444451
0.0453537
0.0433151
0.0437135
0.0444377
0.0434693
0.04994
0.0465178
0.0611967
0.0548538
0.0770043
0.0687467
0.0935605
0.0854382
0.107511
0.100991
0.117471
0.113012
0.123315
0.120892
0.125331
0.124781
0.123792
0.124987
0.118962
0.121777
0.111062
0.115362
0.100629
0.10613
0.0880427
0.0945892
0.0735306
0.0810056
0.0574391
0.0656533
0.0487846
0.0736938
-0.174073
-0.194955
-0.172369
-0.22789
-0.149349
-0.250013
-0.109019
-0.256405
-0.0602589
-0.244748
-0.0132866
0.0216323
0.0405961
0.0478002
0.0484665
0.044484
0.0379724
0.0308914
0.0238517
0.0178442
0.0213503
0.0138911
0.0789971
0.0806646
0.0846954
0.0279061
0.0121808
0.0200359
0.0849613
0.0794831
-0.000552905
0.0388675
0.0650852
-0.209368
-0.159041
-0.104493
-0.0497076
0.0757884
0.0404095
0.0377103
0.0774667
0.0327193
-0.188992
0.0726417
0.0762344
0.0650222
0.0689215
0.0580105
0.0612848
0.0536225
0.0554929
0.0517339
0.0523573
0.0523154
0.0517441
0.0546638
0.0533263
0.0579323
0.0562245
0.0615624
0.0597272
0.0652077
0.0633988
0.0686788
0.0669708
0.0719278
0.07033
0.0749909
0.0734791
0.0779245
0.0764706
0.0807662
0.0793566
0.0834709
0.0821448
0.0858086
0.0847127
0.0873763
0.0867171
0.0878305
0.0877557
0.0870497
0.0875944
0.0851028
0.0862127
0.0821835
0.0837495
0.0785414
0.0804388
0.0743237
0.0765052
0.0694196
0.0719735
0.0636275
0.0666363
0.0573244
0.0604653
0.0523472
0.0544984
0.0511234
0.0511739
0.0539118
0.0521154
0.0587453
0.0562111
0.0638119
0.0613172
0.0683653
0.0661689
0.0722757
0.0703864
0.0740769
0.0711468
0.0789724
0.0754603
0.0596476
0.0658871
0.0440551
0.0523682
0.0243552
0.0346786
0.00164661
0.0132666
-0.0220231
-0.0102233
-0.0439631
-0.0333954
-0.0611902
-0.053348
-0.071119
-0.0671923
-0.0723386
-0.072846
-0.0650581
-0.0696857
-0.0510039
-0.0587242
-0.032848
-0.04226
-0.0134083
-0.0231152
0.00483199
-0.00403073
0.0203933
0.012986
0.0269882
0.0453694
0.0429791
0.0493927
0.047521
0.0521114
0.0509162
0.0536645
0.0530097
0.0545027
0.0541375
0.055103
0.0548132
0.0556124
0.0553771
0.0558897
0.0557869
0.0559329
0.0559312
0.0558991
0.055918
0.0558382
0.0558759
0.0556769
0.0557748
0.0553606
0.0555396
0.0548769
0.0551389
0.0542663
0.0545812
0.053681
0.0539548
0.0534603
0.0534941
0.0542368
0.0536706
0.0570226
0.055303
0.0630177
0.0595579
0.0728653
0.0674687
0.085673
0.0790432
0.0989324
0.0924124
0.11026
0.104946
0.118366
0.114749
0.122932
0.121088
0.124072
0.123916
0.122023
0.123426
0.117069
0.119894
0.10951
0.113587
0.0997317
0.104873
0.0879908
0.0940965
0.0745972
0.0814661
0.0597956
0.0673569
0.0440299
0.0519695
0.0359499
-0.200118
-0.229074
0.029412
0.0347674
-0.187838
-0.259936
-0.152399
-0.275473
-0.103293
-0.271855
-0.0507436
-0.248756
-0.00673591
0.0212605
0.0341566
0.0378637
0.0359985
0.0303814
0.0233815
0.016281
0.00989574
0.00516437
0.0808751
0.0771369
0.0753905
0.0792551
0.00287085
0.0857503
0.0124849
0.00320544
0.0894883
0.0882988
0.0206994
0.00538269
0.0147339
0.024272
0.0586925
0.0791742
-0.188932
-0.132501
-0.0752265
-0.0215812
0.0817689
0.0804198
0.0830596
-0.219581
0.0767236
0.0775116
0.0727728
0.0750494
0.067477
0.070193
0.0623648
0.0647964
0.0587942
0.0603436
0.0571581
0.057725
0.0574384
0.0570789
0.0591575
0.0581558
0.0617453
0.0603728
0.0647698
0.0632244
0.0679305
0.0663469
0.0710514
0.0695024
0.0740656
0.0725727
0.0769771
0.0755327
0.0798111
0.0784025
0.0825766
0.0812034
0.0852241
0.0839227
0.0875737
0.0864559
0.0893064
0.0885407
0.0900954
0.0898352
0.089762
0.0900723
0.0883378
0.0891775
0.0860094
0.0872723
0.0829976
0.0845782
0.0794071
0.0812764
0.0751533
0.077373
0.0701765
0.072744
0.0650335
0.067548
0.0613222
0.0628743
0.0605434
0.0605264
0.0625386
0.0612724
0.0659329
0.0641471
0.0696023
0.0677766
0.073058
0.0713714
0.0761701
0.0746681
0.0790664
0.0776427
0.0804624
0.0729246
0.0770811
0.0616447
0.0677998
0.0460313
0.0544214
0.0260351
0.0365307
0.00272607
0.0147028
-0.0220957
-0.00964224
-0.045777
-0.0342725
-0.0651332
-0.0561982
-0.0772012
-0.0722316
-0.0801206
-0.0798602
-0.0737406
-0.0780316
-0.059683
-0.0675137
-0.0407938
-0.0506437
-0.0201818
-0.0305182
-0.000578897
-0.0101142
0.0161594
0.00818194
0.0232193
0.039427
0.0445062
0.0420259
0.0490702
0.0468636
0.0527291
0.0510209
0.0552997
0.0541452
0.0569074
0.0562037
0.0578852
0.0574509
0.0585619
0.0582423
0.0589009
0.0587507
0.0590267
0.0589908
0.0590258
0.0590309
0.0590439
0.0590283
0.0591001
0.0590702
0.0591504
0.059128
0.0591786
0.0591668
0.0592055
0.0591892
0.0593089
0.0592394
0.0596654
0.0594396
0.0605954
0.0600321
0.0626068
0.0614271
0.0663863
0.06423
0.0725962
0.0691616
0.0814253
0.0766995
0.0920811
0.0866284
0.102809
0.0975505
0.111919
0.107649
0.118361
0.115507
0.121781
0.12045
0.122212
0.12236
0.119842
0.12136
0.114924
0.117684
0.107776
0.1116
0.0986544
0.103431
0.087846
0.093453
0.0755872
0.0818726
0.0621561
0.0690039
0.0479922
0.0551065
0.033895
0.040864
0.0271146
-0.220469
-0.258141
-0.195117
-0.282779
-0.147943
-0.288238
-0.0921372
-0.272517
-0.04041
-0.237773
-0.00306973
0.0171145
0.0248647
0.0254736
0.0212335
0.0143382
0.00701366
0.000344088
0.0721104
0.0695014
0.0653869
0.0674795
-0.00504269
0.0759009
-0.00798544
0.08458
-0.00813388
0.0918174
-0.00558723
0.0950558
0.00934309
-0.00124316
0.0504963
0.0777081
0.0915894
-0.156161
-0.096525
-0.0395935
0.0103266
0.0817909
0.0839291
0.0433513
0.00462854
0.0184728
0.0147591
0.040972
0.0367482
0.085051
0.0842999
-0.244599
0.0743172
0.0725172
0.0748864
0.0750535
0.0725962
0.0740076
0.0690046
0.0708788
0.0652926
0.0670917
0.0625375
0.0637452
0.0612343
0.0616977
0.0613718
0.0611336
0.0626855
0.0619044
0.0647966
0.0636642
0.0673656
0.0660416
0.0701411
0.0687393
0.0729658
0.0715537
0.0757644
0.0743703
0.078519
0.0771471
0.0812322
0.0798808
0.0838929
0.0825713
0.0864474
0.0851889
0.0887482
0.0876458
0.0905416
0.0897256
0.0915606
0.0911639
0.0916126
0.0917134
0.0906813
0.0912644
0.0889018
0.0898864
0.0864479
0.0877509
0.0834072
0.085001
0.0797618
0.0816617
0.0756038
0.0777258
0.071547
0.0734965
0.0687685
0.0699213
0.0681308
0.0681758
0.0693542
0.0685596
0.0715968
0.0703988
0.0741806
0.0728734
0.0767713
0.0754853
0.0792554
0.0780287
0.0816315