/*--------------------------------*- C++ -*----------------------------------*\
  =========                 |
  \\      /  F ield         | OpenFOAM: The Open Source CFD Toolbox
   \\    /   O peration     | Website:  https://openfoam.org
    \\  /    A nd           | Version:  10
     \\/     M anipulation  |
\*---------------------------------------------------------------------------*/
FoamFile
{
    format      ascii;
    class       surfaceScalarField;
    location    "25";
    object      phi;
}
// * * * * * * * * * * * * * * * * * * * * * * * * * * * * * * * * * * * * * //

dimensions      [0 3 -1 0 0 0 0];

internalField   nonuniform List<scalar> 
29080
(
0.090733
-0.14525
-0.0153078
0.0698252
0.0509731
0.0397599
0.0112685
0.0274825
-0.0246483
-0.0141027
0.0395542
0.00572032
-0.034006
0.0361513
-0.00176706
0.00516989
0.031542
-0.058491
0.0475958
-0.0206468
-0.0485075
0.029167
0.0508825
0.0318741
0.00478438
-0.0437758
0.00711726
-0.0293792
0.0661389
-0.00488558
0.0115565
-0.103352
-0.0159839
0.0608446
-0.0838442
0.0553467
0.0822382
0.0662543
-0.0180603
-0.107397
0.0377193
0.0652211
0.00445671
0.000809863
0.034443
-0.0113788
-0.0221065
0.0500564
0.0264915
0.0535554
-0.088296
0.00824922
0.0200109
0.0748219
0.0204058
0.0635874
-0.00407329
0.000499898
0.00267699
-0.00243098
-0.000745908
-0.00795178
-0.0179193
0.026371
-0.00672477
-0.00268199
0.00145499
-0.00597508
0.0019273
-0.00166156
-0.0067445
-0.0697059
0.0035541
0.00614309
0.0600087
-0.034718
-0.0484873
0.0134994
0.0406359
-0.0383727
-0.0369811
0.00260347
-0.00183326
0.00142447
-0.00219469
0.0094953
-0.00689183
-0.00338635
0.0128817
0.00832765
-0.0135473
-0.000680919
0.010433
-0.0250837
-0.00293187
0.0209073
0.00710824
0.00147684
-0.01956
-0.00700052
0.0245909
0.00124952
-0.0243636
0.015865
0.00579408
0.0163587
0.0204136
-0.035584
0.0126402
0.0306573
-0.00771354
0.0253654
-0.0487217
-0.0122277
0.0174182
0.0125262
-0.00457907
0.0199131
0.0101453
0.0197314
0.030839
0.0689884
0.0169414
-0.0461107
-0.039819
0.0139867
0.0622011
-0.00719935
-0.050822
0.0469772
0.0178315
-0.0528468
0.0189662
-0.0583413
-0.00392017
0.014056
0.0482055
-0.0666179
0.0118307
-0.0451981
0.019216
0.0761012
0.028422
-0.0413734
-0.0631499
-0.0290828
0.0251857
0.0799983
0.063794
-0.112385
0.0762993
-0.0277081
-0.0454203
0.0607369
0.0484775
-0.022515
0.0156814
-0.00784896
0.0146826
0.0272804
-0.0200187
-0.0297767
-0.0021641
0.0040914
-0.00382567
-0.0610952
-0.037814
0.00848047
0.0904287
-0.0272683
0.0237253
-0.0575522
0.0542588
-0.058262
-0.0232651
0.0528749
-0.0364301
0.0684073
-0.00705191
0.09139
-0.0412478
-0.0501422
-0.0622702
0.052074
0.101586
-0.0287749
-0.0298788
0.0202809
-0.00352004
0.0164588
-0.0417136
0.0135533
-0.0469521
0.00679924
0.00572698
0.0169446
-0.00900153
0.0403999
0.0155789
-0.0347026
0.0346334
0.000333054
-0.000263907
-0.0631012
-0.00842597
0.0368246
-0.00990166
0.0206042
-0.0411266
0.0182128
-0.0428068
0.00426566
-0.026678
0.0282064
-0.0347548
-3.04324e-05
0.0390509
-0.027316
0.00188752
0.0428828
-0.0417224
-0.00195078
0.000790398
-0.000768646
-0.00134546
0.0449969
-0.0251079
0.00900663
0.0205017
-0.00440047
-0.0134132
-0.0280959
0.0164013
-0.0266039
0.0324309
0.0214534
0.0347679
-0.0164189
-0.044953
0.077702
-0.00376974
-0.0882502
0.014318
-0.00237982
0.0525589
0.0275229
0.0742075
-0.0190145
0.020816
-0.076009
0.0730987
0.0207772
-0.0196684
0.0204909
-0.0402918
0.0415696
-0.0217687
-0.0424841
0.0430165
0.0199585
-0.0293312
0.0426085
-0.0430313
0.029754
0.0425438
-0.0293319
-0.042543
-0.0313913
0.0447933
-0.0448643
0.0314623
0.0459476
-0.0319751
-0.0453638
-0.0294106
0.0433654
-0.0421945
0.0282396
0.0443331
-0.03068
-0.0430636
0.0344272
0.0856875
-0.123884
-0.0738804
0.0792248
-0.0122826
-0.051845
0.00984465
0.0542829
-0.0489379
-0.0174213
0.0540767
0.0119891
-0.0127443
-0.0481827
0.00941881
-0.0492747
-0.0528401
0.00737294
0.0525034
-0.00703629
0.0101139
-0.0531093
-0.000704884
-0.0198999
0.00199716
0.0186076
-0.0118501
0.011196
-5.07534e-05
0.00122093
-0.0128013
-0.000269734
0.00257123
-0.0212502
-0.0189954
-0.00309236
0.00252779
0.0111408
-0.0281391
0.0190406
0.040885
-0.0168198
-0.0431058
0.0236362
0.0563581
-0.0609537
0.00529393
0.0592272
-0.00917445
-0.0123607
0.0145346
-0.00315454
0.00517606
0.0234837
-0.039196
-0.0245795
-0.0346848
0.0156844
-0.031397
-0.0289417
0.0256538
-0.0424279
-0.0158339
0.0268648
0.0395306
-0.0519297
-0.0300289
-0.028607
-0.0158808
-0.0269143
0.0269612
-0.0271257
-0.0157771
0.0270221
0.0510305
-0.0515015
-0.0266547
-0.0278135
-0.0158354
-0.0265934
0.0266517
-0.0268872
-0.0155924
0.0266443
0.0518146
-0.0520444
-0.0266574
-0.0262803
-0.0153986
-0.0269281
0.0267343
-0.0277252
-0.0149085
0.0272351
0.0521632
-0.0522098
-0.0276786
-0.0268093
-0.0145231
-0.0280804
0.027695
-0.0289179
-0.0139268
0.0283216
0.0521719
-0.0520265
-0.0290633
-0.0281183
-0.0134994
-0.0290779
0.0286505
-0.0294788
-0.012955
0.0289344
0.0517273
-0.0512363
-0.0299698
-0.029377
-0.012698
-0.0288745
0.0286175
-0.0280309
-0.0125455
0.0278784
0.0505531
-0.0497021
-0.0288819
-0.0295577
-0.0128912
-0.025694
0.0260398
-0.0225626
-0.0135558
0.0232272
0.048768
-0.0478239
-0.0235067
-0.0266281
-0.0284962
-0.0173846
0.0323249
-0.0110836
-0.0314302
0.0140176
0.0467078
-0.0469365
-0.0108549
-0.0185007
-0.036504
0.00201178
0.00306208
0.00521111
-0.0379684
-0.00374675
0.0422009
-0.0404512
0.00346141
-0.00272385
-0.0395684
0.0137375
-0.0121375
0.0198767
-0.0398872
-0.0195579
0.0399469
-0.041832
0.0217618
0.0132332
-0.0248079
0.0255198
-0.040885
-0.0238101
0.015882
-0.0173051
0.0429927
0.0150244
0.043874
-0.0286546
-0.0415623
0.0417167
-0.0396182
-0.0194036
0.0117443
0.0424184
-0.012446
0.0101653
0.0445717
0.0469975
-0.0472683
0.0202293
0.0491172
0.0129047
0.0396814
-0.0405433
-0.0229483
-0.0380509
0.0369825
-0.011069
-0.0179274
-0.0361884
0.0348126
0.00443794
-0.00295269
-0.0310509
0.045929
0.0174468
0.0177792
-0.0472412
0.0483937
0.0248873
0.021915
-0.0493564
0.0501356
0.0278383
0.0269157
-0.0507501
0.051219
0.0281815
0.02832
-0.0515694
0.0518248
0.0274395
0.0279712
-0.0519927
0.0520807
0.0266463
0.0270672
-0.0520785
0.0520151
0.026715
0.0266464
-0.0518939
0.0517053
0.0271498
0.0271432
-0.051615
0.0531149
0.0241539
0.0269551
0.021531
-0.00804905
0.00872979
0.0484365
0.0459903
0.0393229
-0.0415846
-0.0223178
-0.022064
0.0443796
-0.0484721
-0.0259364
-0.025812
0.0503701
-0.0509686
-0.0260562
-0.0259155
0.0514855
-0.0519306
-0.0262123
-0.0257634
0.0522902
-0.0525907
-0.0273781
-0.0264497
0.0528226
-0.0529713
-0.0289146
-0.0278864
0.0529941
-0.0528459
-0.030118
-0.0293542
0.0524858
-0.0518794
-0.0294883
-0.0299178
0.0510464
-0.0500552
-0.024498
-0.0274611
0.0490055
-0.0466586
-0.0132017
-0.0195504
0.0441516
-0.0445222
0.00383201
-0.00523085
0.0439086
-0.0423541
0.0202073
0.0126196
0.0257742
-0.00559905
0.00500116
0.0451696
-0.00736172
0.0441811
-0.0261816
-0.0430163
0.0309557
-0.0301356
-0.0433632
0.0505144
-0.0504581
0.00867352
-0.00332676
0.0501756
0.00366554
-0.00355296
0.0486627
-0.0444451
0.0323694
0.0391433
-0.0401898
-0.0219018
-0.0376103
0.0358691
-0.00932785
-0.0163943
-0.0360174
0.0355904
0.004865
-0.00310104
-0.0426636
0.0442047
0.0159057
0.010706
-0.0457106
0.0470706
0.0235273
0.0204091
-0.0482595
0.0492528
0.026845
0.0257268
-0.0500692
0.0507313
0.0275195
0.0275035
-0.0512735
0.0517168
0.0269963
0.0274289
-0.0520738
0.0523449
0.0263751
0.0267103
-0.0525413
0.0526625
0.0265938
0.0264501
-0.0527663
0.0527868
0.0271294
0.0270394
-0.0528537
0.0512585
0.0257491
0.0268883
-0.0504025
0.0513888
0.019243
0.0223869
0.0138354
0.0474385
-0.0419089
-0.00751966
0.0420669
0.0416383
-0.0438955
-0.0171464
-0.0127166
0.046535
-0.0463854
-0.0224674
-0.0194245
0.0482216
-0.0491066
-0.0250513
-0.0239758
0.0499816
-0.0507638
-0.0252739
-0.0250406
0.0514378
-0.0520108
-0.0256393
-0.0250895
0.0525053
-0.0529565
-0.0269269
-0.0259552
0.0533628
-0.0537104
-0.028567
-0.0274801
0.0539565
-0.0540666
-0.030008
-0.0291081
0.0540017
-0.0537263
-0.0297638
-0.0299827
0.0532224
-0.052491
-0.0252294
-0.0279649
0.0516017
-0.050454
-0.0143495
-0.0204397
0.0489798
-0.047584
0.00243621
-0.00670502
0.0457169
-0.0429292
0.0174196
0.0107524
0.0429268
-0.0420998
0.0289269
0.0257718
0.0333789
-0.033194
-0.0446299
0.0433634
-0.0451348
0.0351502
0.0336331
-0.0417919
-0.0245794
-0.0294651
-0.0422328
-0.032196
-0.0443612
-0.00275308
0.00176955
0.0496462
0.0333958
-0.0328984
-0.0451273
0.0335041
-0.045243
-0.00429082
0.0517134
0.0415353
-0.0417291
-0.00732593
0.0524498
-0.0526463
0.00887003
0.053609
0.00250626
0.00156777
0.0420347
-0.00206718
0.000747653
0.042887
0.028215
-0.026228
-0.0437789
-0.0442664
0.0425541
-0.0439891
-0.024793
-0.0408457
0.0387709
-0.019827
-0.022871
-0.0376714
0.0377246
-0.00938102
-0.0152949
-0.0378228
0.0396481
0.00303971
-0.00319931
-0.0412858
0.0428354
0.0143561
0.00906833
-0.0444402
0.0459601
0.0220074
0.0188043
-0.0473299
0.0485081
0.0256668
0.024357
-0.0495083
0.050349
0.0266788
0.0265033
-0.0510668
0.051679
0.0263841
0.0267111
-0.0522042
0.0526412
0.0259382
0.026185
-0.0530155
0.0533246
0.0262847
0.0260757
-0.0536267
0.0538883
0.0268678
0.0267374
-0.0541428
0.0543804
0.0255114
0.0266337
-0.0538427
0.0530047
0.020081
0.0229247
0.0141939
-0.000852477
-0.000980195
0.0470023
0.0483556
0.0439485
0.0429436
-0.0449274
-0.0151625
-0.0115021
0.0457015
-0.0466225
-0.0215465
-0.0186505
0.0476168
-0.048625
-0.0240432
-0.0229814
0.0496029
-0.050516
-0.0243608
-0.0240627
0.0513268
-0.0520621
-0.0249039
-0.0242787
0.0527379
-0.0533915
-0.0262732
-0.0252794
0.0540147
-0.0545995
-0.0279822
-0.026857
0.0551029
-0.0554946
-0.0296163
-0.0286047
0.0557208
-0.0557354
-0.0297491
-0.0297565
0.0555003
-0.0550043
-0.0257254
-0.0282
0.0542846
-0.0533913
-0.0152428
-0.0211593
0.0524307
-0.0506248
0.000630283
-0.00766561
0.0488682
-0.0486736
0.017225
0.00899585
0.0468313
-0.0465208
0.0286165
0.0239295
0.0453902
-0.0448253
0.0345853
0.0325025
0.045075
-0.032769
-0.0455299
0.0332238
0.0337538
-0.030547
-0.0438818
-0.0275099
0.0290178
-0.0452868
-0.0454363
-0.0260627
0.00429863
-0.00560253
0.0441909
0.00379484
0.0425385
-0.0320672
-0.0451924
-0.0323266
-0.0456854
-0.0317179
-0.045736
0.0308118
-0.0304148
-0.0460824
-0.0040493
0.0533675
0.0312296
-0.0457956
-0.0251203
0.0273024
-0.0476184
0.0465455
-0.0475855
-0.0240803
-0.044112
0.0423442
-0.0230252
-0.0236292
-0.0408142
0.0389559
-0.0179687
-0.021341
-0.0378753
0.0377341
-0.00923984
-0.0142142
-0.0381975
0.0390706
0.0021666
-0.00366273
-0.0403312
0.0418429
0.0128445
0.00780772
-0.0434787
0.0450834
0.0204027
0.0171685
-0.0465759
0.047898
0.0243448
0.0228645
-0.0490524
0.0500477
0.0256835
0.0253488
-0.0509177
0.0516768
0.025625
0.0258411
-0.0523486
0.0529372
0.0253496
0.0255132
-0.0534768
0.0539762
0.0257853
0.0255361
-0.0544793
0.0549686
0.0263786
0.0262343
-0.0554467
0.0558933
0.0250648
0.0261556
-0.0557514
0.0559505
0.0198819
0.0230666
-0.0551863
0.0548059
0.0092505
0.0149581
-0.0550246
0.0557047
-0.00472942
0.0022875
0.0102064
-0.0104343
0.0535954
-0.00937411
0.00826618
0.0507542
0.0525457
-0.00758547
0.00702552
0.0475622
0.0490363
0.0453715
-0.0410069
0.00313533
0.0416664
0.041357
-0.0421992
-0.00648376
-0.00171706
0.0435656
-0.0441935
-0.0145346
-0.0101357
0.0450119
-0.0460105
-0.0205478
-0.0178322
0.0471028
-0.0482568
-0.0228892
-0.0218891
0.0493757
-0.0504232
-0.0233133
-0.0229437
0.0513575
-0.0522157
-0.0240457
-0.0233444
0.0530235
-0.0538304
-0.0254664
-0.0244715
0.05463
-0.0554236
-0.0271886
-0.0260574
0.0561713
-0.0568506
-0.0289369
-0.027857
0.0573969
-0.057751
-0.0293951
-0.0292102
0.0578379
-0.0576158
-0.0259476
-0.028113
0.057088
-0.0562974
-0.0160334
-0.0216871
0.0553418
-0.0542987
-0.000412883
-0.00862115
0.0532785
-0.0519224
0.0158689
0.00797574
0.0501989
-0.0488303
0.0272479
0.0222061
0.0471875
-0.0454671
0.0328649
0.0308597
0.0444128
-0.0446629
0.0334739
0.0326995
0.03136
-0.0097975
0.0550679
-0.0303165
-0.0456325
0.0290717
-0.0470561
-0.0303939
-0.0465165
0.0259178
-0.0492395
-0.0242638
0.0273921
-0.0490927
-0.0301187
-0.0460321
0.0415408
-0.0415085
0.00310304
-0.00827776
0.04181
0.00800863
-0.00937433
0.042763
-0.0322675
-0.0457901
0.0318371
-0.0320265
-0.0451745
0.0571204
-0.0583401
-0.00350972
0.0573934
-0.0100705
0.0313059
-0.0470404
-0.0243721
0.0262998
-0.0511672
0.0500142
-0.0510981
-0.0232882
-0.0478211
0.0455865
-0.0218457
-0.0220707
-0.0433327
0.0409686
-0.0206611
-0.0213754
-0.0391556
0.0380183
-0.0168314
-0.0195281
-0.0373748
0.037253
-0.00911801
-0.0135707
-0.0376448
0.0384793
0.00133212
-0.00405455
-0.0396853
0.0411564
0.0113734
0.00660168
-0.042782
0.0444199
0.0187648
0.0155429
-0.0459866
0.0474134
0.0229179
0.0212978
-0.0486931
0.0498228
0.0245539
0.0240691
-0.0508299
0.0517241
0.0247308
0.024834
-0.052531
0.0532617
0.0246189
0.0247063
-0.053955
0.0546284
0.0251119
0.0248428
-0.0553147
0.056005
0.0256883
0.025548
-0.0566962
0.0573613
0.0243998
0.0254643
-0.0579792
0.0584981
0.019363
0.0224486
-0.0588076
0.0587498
0.00930838
0.0146485
0.00269713
-0.0146684
0.0143875
0.0538763
0.0149199
-0.0143666
0.05684
0.0553195
-0.0140707
0.0137324
0.0510925
0.0528625
-0.0130702
0.0126443
0.0479881
0.0496985
-0.0117774
0.0108358
0.0451325
0.0462385
0.044
0.0414114
-0.0426285
-0.00526671
-0.00181419
0.0430177
-0.0436669
-0.0138854
-0.00974651
0.0445414
-0.0456168
-0.0194724
-0.0169577
0.0468052
-0.0480544
-0.0216399
-0.0207008
0.0492575
-0.0503847
-0.0221861
-0.0217406
0.0514058
-0.0523734
-0.0230782
-0.0223233
0.0533129
-0.0542724
-0.0245069
-0.0235321
0.0552404
-0.0562263
-0.0262027
-0.0250894
0.0571959
-0.0581382
-0.0279947
-0.0268873
0.0589834
-0.0596678
-0.0287108
-0.028365
0.060088
-0.0601715
-0.0258642
-0.0276927
0.0598747
-0.0592112
-0.0166969
-0.0219839
0.0582667
-0.057134
-0.00154559
-0.00956565
0.0559274
-0.0547
0.0146414
0.00676923
0.0535526
-0.0525257
0.0262209
0.0210587
0.0512444
-0.0498026
0.0314232
0.0295784
0.0488765
-0.0469132
0.0315105
0.0317734
0.0461415
-0.0446784
0.0299992
0.0305882
0.0299929
-0.0293682
-0.0466582
0.0291072
-0.0487712
0.0126903
-0.0141559
0.0442285
0.0112749
0.0432253
-0.0298488
-0.0467863
0.0272821
-0.050075
-0.0307146
-0.047585
0.0254636
-0.0530277
-0.0235341
0.0266632
-0.0523667
-0.0314699
-0.0463467
-0.0315283
-0.0443262
0.0585452
-0.0561706
-0.0167411
0.0286301
-0.0291839
-0.0425099
-0.0410462
0.0274819
-0.0205693
0.0203565
0.0570529
0.0586482
-0.0206723
-0.0473014
-0.0255804
0.0268183
-0.0542656
0.0527524
-0.0545517
-0.0237811
-0.0512828
0.0495863
-0.0215917
-0.0220645
-0.0479881
0.0459863
-0.0198439
-0.0204725
-0.0439556
0.0414873
-0.0181928
-0.0193446
-0.0393471
0.0380643
-0.0155486
-0.017388
-0.0372945
0.0370765
-0.00890002
-0.0128009
-0.0373849
0.0381506
0.000566427
-0.004363
-0.0392961
0.0407155
0.00995393
0.00545626
-0.0423088
0.043948
0.0171257
0.0139496
-0.0455536
0.0470533
0.0214182
0.0196922
-0.0484322
0.0496768
0.0233093
0.0226902
-0.0508063
0.0518243
0.0237128
0.0237045
-0.052756
0.0536163
0.0237586
0.0237747
-0.0544462
0.0552692
0.0242889
0.024013
-0.0561163
0.0569848
0.0248197
0.0247009
-0.0578688
0.05873
0.0235387
0.0245803
-0.0595288
0.0602108
0.0186809
0.0216498
-0.0601345
0.0601545
0.00928835
0.0147249
-0.0594778
0.0591579
-0.00318977
0.00337383
-0.00708319
-0.0197745
0.0195516
0.0540992
0.0559014
-0.018925
0.0184899
0.0515275
0.0534891
-0.0180806
0.0175397
0.048529
0.0501079
-0.0162654
0.0150291
0.0463687
0.0475128
0.0448733
-0.0425067
0.0111604
0.0426213
0.0413625
-0.0410151
0.00275571
0.00686437
0.042225
-0.0423098
-0.00518191
-0.000604372
0.0426779
-0.0433421
-0.0132212
-0.00937836
0.0442541
-0.0453857
-0.0183407
-0.0160456
0.0466416
-0.0479588
-0.0203228
-0.0194449
0.0492251
-0.0504171
-0.0209942
-0.0204743
0.0515111
-0.0525672
-0.0220221
-0.0212293
0.0536106
-0.0546906
-0.0234268
-0.0224887
0.0557961
-0.0569466
-0.0250521
-0.023984
0.0581144
-0.0592982
-0.0268109
-0.0257196
0.0604247
-0.0614284
-0.0277071
-0.0272385
0.0621822
-0.062586
-0.0254603
-0.0269389
0.0625473
-0.062041
-0.0172032
-0.0220227
0.0611261
-0.0598976
-0.00277413
-0.0104806
0.058502
-0.0570133
0.0131528
0.00537364
0.0555537
-0.0541071
0.0247743
0.0195991
0.0523659
-0.0508681
0.0299254
0.0278372
0.0494689
-0.0478534
0.0298951
0.0303741
0.0465571
-0.0439647
0.0274068
0.0292919
0.0426415
-0.0420611
0.0276591
0.0286698
0.0263779
-0.0284899
-0.0389342
0.040961
-0.0392618
0.0246787
0.0263818
-0.0286684
-0.0478386
0.0277098
-0.049199
-0.0297592
-0.0477417
0.0282967
-0.0517085
-0.0314968
-0.047558
0.027839
-0.0533875
-0.0314772
-0.0463978
0.02585
-0.0552252
-0.0251764
0.0278557
-0.0562713
-0.0309033
-0.0426067
-0.0311017
-0.0398981
-0.0237152
-0.0374379
0.0218913
-0.0270416
-0.0356078
0.0609989
-0.0628635
-0.0148765
0.0123005
-0.0256515
-0.0240869
0.0433511
-0.0416661
0.0094754
-0.0240125
0.0239294
0.0571359
-0.0243862
0.059022
-0.0136379
0.0439809
0.0130081
-0.0151086
0.044092
0.0377769
0.0106605
-0.0361369
0.0605621
-0.0202356
-0.0482599
-0.0263307
0.0286936
-0.0575881
0.0562603
-0.0575929
-0.0249982
-0.0543311
0.0531345
-0.0225844
-0.0232472
-0.051089
0.0494976
-0.0200003
-0.020019
-0.0477461
0.0456295
-0.0177273
-0.018721
-0.0433834
0.0415601
-0.0163696
-0.0170986
-0.0398135
0.0384044
-0.0141394
-0.0156413
-0.0374936
0.037153
-0.0085595
-0.0118901
-0.0373602
0.038043
-0.000116387
-0.00457016
-0.039118
0.0404764
0.0085956
0.00438125
-0.0420241
0.0436444
0.0155053
0.0124019
-0.0452644
0.0468111
0.0198714
0.0180723
-0.0482642
0.049601
0.0219725
0.0212371
-0.0508322
0.0519563
0.0225887
0.0224732
-0.0529969
0.0539715
0.0227839
0.0227341
-0.0549219
0.0558753
0.0233354
0.0230627
-0.0568631
0.0578837
0.0237991
0.0237131
-0.0589277
0.0599514
0.022515
0.0235363
-0.0609071
0.0617328
0.0178552
0.0206941
-0.0623791
0.0622907
0.00937668
0.0140786
-0.0617354
0.0605442
-0.00199857
0.00392918
-0.0094025
-0.023373
0.0229861
0.0544861
0.0564578
-0.0228755
0.0225795
0.0518235
0.0535997
-0.0221186
0.0215093
0.0491382
0.0505688
-0.02076
0.0198934
0.0472353
0.0482621
-0.0180033
0.0161258
0.046106
0.0467634
0.0442425
0.0415932
-0.0423201
0.00348264
0.00679139
0.0420899
-0.0421478
-0.00512403
-0.000834568
0.042517
-0.0431944
-0.0125438
-0.00900912
0.0441409
-0.0453222
-0.0171595
-0.0150992
0.046629
-0.0479874
-0.0189643
-0.018138
0.0492845
-0.0505073
-0.0197714
-0.0191772
0.0516451
-0.0527661
-0.020901
-0.0200915
0.0538926
-0.0550706
-0.0222488
-0.0213623
0.0562868
-0.0575696
-0.0237692
-0.0227678
0.0588984
-0.0602834
-0.0254259
-0.0243908
0.061654
-0.062949
-0.0264121
-0.0258679
0.0640246
-0.0647567
-0.0247283
-0.0258633
0.0650017
-0.064689
-0.0175159
-0.0217777
0.0638383
-0.0625365
-0.00407599
-0.0113312
0.0609631
-0.0592118
0.0114015
0.00380029
0.0574385
-0.0557233
0.0230591
0.0178258
0.054185
-0.0526082
0.0283486
0.0262989
0.0508788
-0.0494464
0.0284627
0.0286447
0.0475292
-0.0472676
0.0271452
0.0273747
0.044672
-0.0418768
0.024864
0.0260742
0.0402731
-0.038747
0.0231526
0.0247781
0.0209212
-0.02921
-0.0483878
0.0284098
-0.0493121
0.0169268
-0.0189309
0.0460961
0.0155082
0.0453995
0.0353071
-0.0371582
0.0125115
-0.0310122
-0.0482264
0.0284516
-0.052321
-0.0321011
-0.0469341
0.0292377
-0.0547695
-0.0320278
-0.0452734
0.0292041
-0.0567818
-0.0309886
-0.0427198
0.0272764
-0.0590692
-0.0258001
0.0288038
-0.0591155
-0.0288808
-0.0380589
-0.026212
-0.0350473
-0.0239333
-0.0362905
-0.0232463
0.0594223
-0.0490601
-0.0261851
-0.0615054
0.0286213
0.0604059
-0.0625088
-0.0240821
-0.0576323
0.0554831
-0.022849
-0.0230266
-0.053443
0.0511707
-0.0203121
-0.0212072
-0.0502216
0.0483687
-0.0181474
-0.01907
-0.047006
0.0455773
-0.0162985
-0.0173584
-0.0439823
0.0422474
-0.0146347
-0.0155036
-0.0405064
0.0390101
-0.0126431
-0.0139003
-0.037956
0.0374672
-0.00807067
-0.010836
-0.0375447
0.0381233
-0.000695009
-0.00464768
-0.0391125
0.0403994
0.00730873
0.00339204
-0.0418915
0.0434796
0.0139172
0.0109098
-0.0450958
0.0466683
0.018299
0.016456
-0.0481722
0.0495774
0.0205673
0.0197332
-0.0508877
0.0520972
0.0213792
0.0211629
-0.0532284
0.0542997
0.0217126
0.0216028
-0.0553528
0.0564151
0.022273
0.0220096
-0.0575174
0.058659
0.0226575
0.0226108
-0.0598281
0.0609795
0.0213636
0.0223673
-0.0620571
0.0629942
0.0169182
0.0196165
-0.0637332
0.0642562
0.00885369
0.0133396
-0.0645331
0.0645915
-0.002057
0.00365223
-0.0636785
0.06257
-0.013768
-0.00848948
-0.0617936
0.0607934
-0.0222461
-0.0194592
0.0254574
-0.0249604
0.0589252
-0.0258008
0.0258485
0.0570882
0.0586785
-0.0262551
0.0258686
0.0548726
0.0560513
-0.0258194
0.0255563
0.0520866
0.0536489
-0.0251018
0.0244843
0.0497558
0.0510232
-0.0237176
0.0228299
0.0481229
0.0490289
-0.0218364
0.0207566
0.0471858
0.047757
0.0460682
-0.0440124
0.0141752
0.0453454
0.0434045
-0.043391
0.00946183
0.0124003
0.042869
-0.0423393
0.00295294
0.00626942
0.0420827
-0.0421363
-0.00507047
-0.00109112
0.04251
-0.043208
-0.0118457
-0.00863545
0.0441878
-0.0454052
-0.015942
-0.0141194
0.0467381
-0.0481073
-0.0175951
-0.0168051
0.0494069
-0.0506385
-0.0185398
-0.0178776
0.0518027
-0.0529699
-0.0197339
-0.0189273
0.0541552
-0.0554012
-0.0210029
-0.0201769
0.0566952
-0.0580744
-0.02239
-0.0214738
0.0595243
-0.0610652
-0.023885
-0.0229409
0.0626326
-0.0641763
-0.0248684
-0.0243005
0.0655463
-0.0666035
-0.023671
-0.0244933
0.0671577
-0.0670866
-0.0175869
-0.0212236
0.0663539
-0.0650264
-0.00540342
-0.012064
0.0632845
-0.0612835
0.00940043
0.00205839
0.0592164
-0.0571696
0.0210123
0.0157587
0.0552782
-0.0535865
0.0266568
0.0244075
0.0521391
-0.0508574
0.027181
0.0271974
0.049666
-0.0478482
0.0253273
0.0261833
0.0458172
-0.0446603
0.023707
0.0240432
0.0422545
-0.038804
0.0197022
0.0223723
0.0174243
-0.0237044
0.0595374
-0.0301118
-0.0492882
0.0294044
-0.050265
0.0260951
-0.0643111
-0.0242928
-0.0641995
0.0287892
-0.0314516
-0.0488759
0.0295097
-0.052593
-0.0320881
-0.0468738
0.0301285
-0.055694
-0.0323865
-0.0438755
0.0301561
-0.0581341
-0.0304754
-0.0411252
0.0302397
-0.0607338
-0.026964
-0.0373069
-0.0232036
-0.035777
-0.0139122
-0.0335991
0.0103531
-0.0163731
-0.0338295
0.00686087
-0.00695393
-0.0335061
0.0614871
-0.0630684
-0.0206649
0.0452605
-0.0440504
0.0129651
-0.0165636
0.0465479
0.0152761
0.0602321
-0.0224494
-0.0180368
0.0468186
-0.0497675
-0.0253869
0.0274386
-0.0663628
0.0643412
-0.0662625
-0.0234656
-0.0617957
0.0599598
-0.0222463
-0.0217473
-0.0576667
0.0556499
-0.0208321
-0.0207334
-0.0535167
0.0514697
-0.0182651
-0.019074
-0.0500706
0.0487195
-0.0167963
-0.0176708
-0.0473984
0.0460714
-0.0149715
-0.0160372
-0.0446314
0.0430489
-0.0130523
-0.0140635
-0.0413847
0.0398541
-0.0111125
-0.0122361
-0.0386726
0.0380162
-0.00741429
-0.00965457
-0.0379301
0.0383718
-0.00113677
-0.00456152
-0.0392513
0.0404514
0.00610866
0.00251257
-0.0418768
0.0434214
0.0123726
0.00948432
-0.04502
0.046601
0.0167179
0.0148574
-0.0481362
0.0495892
0.0191143
0.018198
-0.050958
0.0522327
0.0201045
0.019794
-0.0534344
0.0545805
0.0205664
0.0204012
-0.055712
0.056856
0.021129
0.0208782
-0.0580428
0.0592717
0.0214286
0.021424
-0.0605309
0.0617723
0.0201222
0.0211081
-0.0629374
0.0639561
0.0158995
0.0184514
-0.0647807
0.0653756
0.00825877
0.012515
-0.0657474
0.0658603
-0.00216995
0.00328044
-0.0652526
0.0641703
-0.0126856
-0.00788175
-0.0183573
-0.0661077
0.0293467
-0.0253386
0.0279749
-0.068999
-0.0687659
-0.0228352
-0.0251121
0.0259937
0.0580437
0.0244694
-0.0232679
0.0590307
0.0588946
-0.0268316
0.0273821
0.0565376
0.0578407
-0.0273688
0.0276298
0.0546115
0.0560647
-0.0276688
0.0274826
0.0522729
0.0536099
-0.0270901
0.0265201
0.0503258
0.0514157
-0.0257917
0.0249309
0.0489837
0.0497573
-0.0239519
0.0228883
0.0482493
0.0487361
-0.0212436
0.0195213
0.0478183
0.047713
0.0468841
0.0436729
-0.0432529
0.00904179
0.0120227
0.0429967
-0.0424496
0.00240588
0.00601327
0.0421931
-0.0422499
-0.00501361
-0.00134771
0.0426391
-0.0433657
-0.0111192
-0.00824623
0.0443782
-0.045619
-0.0147013
-0.0131069
0.0469547
-0.0483073
-0.0162425
-0.0154694
0.0495843
-0.0508038
-0.0173203
-0.0166006
0.051976
-0.0531691
-0.0185408
-0.017755
0.0543897
-0.055676
-0.0197166
-0.0189563
0.0570163
-0.058454
-0.0209523
-0.0201335
0.0599795
-0.0616224
-0.022242
-0.0214154
0.0633278
-0.0650613
-0.0231349
-0.0225951
0.0666783
-0.0680381
-0.0223112
-0.0228763
0.0689167
-0.0691432
-0.0173604
-0.020345
0.0686102
-0.0673385
-0.00667514
-0.012597
0.0654852
-0.0632677
0.0071829
0.000205094
0.0609075
-0.0585338
0.0186387
0.0133985
0.0562993
-0.0542629
0.0246204
0.022173
0.0524907
-0.0509329
0.0256232
0.0254252
0.0495201
-0.0481178
0.0239251
0.0247706
0.0466299
-0.0443171
0.0213942
0.0225553
0.0416543
-0.0398562
0.0179041
0.0197095
0.0370951
-0.0362761
0.0116925
0.0146632
0.0346214
-0.036187
0.00842655
0.00869836
-0.0226587
-0.0227918
0.00926345
-0.00254182
0.00683141
-0.0269483
-0.0300185
0.00468488
-0.0311032
-0.0496366
0.0304448
-0.0512001
0.0176811
-0.0198494
0.0489868
0.0167017
0.0475274
-0.0322524
-0.0487117
0.0306155
-0.05308
-0.0324244
-0.0468358
0.0306686
-0.0562065
-0.0311371
-0.0432137
0.0313213
-0.0592158
-0.0288569
-0.0392323
0.031099
-0.0630436
-0.0238387
-0.0366718
-0.0172549
-0.0348952
-0.00885386
-0.0319296
0.000104024
-0.0267787
-0.0678487
0.0297159
0.0254266
-0.0713288
-0.0228638
0.0276217
-0.0711941
-0.0226762
0.0248209
-0.0734734
0.060154
-0.0606316
-0.0227903
-0.00108607
0.00352551
-0.0293877
-0.0238115
0.0245034
0.0583388
-0.0301459
-0.000958631
-0.0220088
0.0583513
-0.0504259
-0.0705022
0.0680273
-0.0203889
-0.0200798
-0.0657995
0.0629557
-0.0206217
-0.0206074
-0.0614711
0.0593043
-0.0200796
-0.0202627
-0.0572991
0.0545517
-0.0180848
-0.0187282
-0.0531066
0.051725
-0.0168835
-0.0176289
-0.0503748
0.0490699
-0.0154914
-0.0163206
-0.0478017
0.0465672
-0.013737
-0.0147691
-0.0452839
0.043892
-0.0116604
-0.0127802
-0.0423799
0.0408933
-0.00962583
-0.0107241
-0.0396309
0.0388075
-0.00659095
-0.00839216
-0.0385259
0.0387893
-0.00140021
-0.00427984
-0.0395237
0.0406133
0.00501904
0.00177823
-0.0419572
0.0434469
0.010883
0.00814041
-0.0450157
0.0465907
0.0151429
0.0132886
-0.0481401
0.0496221
0.0176323
0.0166487
-0.0510298
0.0523494
0.018785
0.0183863
-0.0535996
0.0547965
0.0193695
0.019151
-0.05598
0.0571765
0.0199325
0.0196946
-0.0584163
0.0596995
0.0201453
0.0201843
-0.0610144
0.0623113
0.0188252
0.0197932
-0.0635361
0.0646155
0.0148201
0.0172267
-0.0655154
0.0662015
0.00757266
0.011615
-0.0666621
0.0668491
-0.00235698
0.0028199
-0.0664626
0.0661865
-0.0124096
-0.00749521
-0.0641284
0.0628749
-0.0194114
-0.0162992
-0.0202061
-0.025731
0.0264402
0.0573345
0.057667
-0.0272783
0.0275545
0.0562615
0.0570026
-0.0281342
0.0284923
0.0542534
0.0554849
-0.0286267
0.0285384
0.0523612
0.0534755
-0.0282391
0.0277524
0.0508124
0.051715
-0.0270984
0.0263032
0.0497789
0.0504113
-0.0253815
0.0243648
0.049266
0.0496578
-0.0226943
0.0213402
0.0491725
0.0493835
0.0483749
-0.0461922
0.0148561
0.0480378
0.0459621
-0.0457975
0.0128005
0.015046
0.0444904
-0.0439606
0.00851203
0.0107156
0.0431872
-0.0426444
0.00186307
0.00523988
0.0423972
-0.0424731
-0.00493772
-0.00159493
0.0428928
-0.0436561
-0.0103559
-0.00782652
0.0446971
-0.0459436
-0.0134548
-0.0120659
0.0472561
-0.0485655
-0.0149331
-0.0141569
0.0497994
-0.0509919
-0.0161278
-0.0153667
0.0521585
-0.0533598
-0.0173395
-0.0165885
0.0545933
-0.0558934
-0.0184164
-0.0177228
0.0572502
-0.0587105
-0.019492
-0.0187767
0.0602675
-0.0619576
-0.020552
-0.0198584
0.0637372
-0.0655907
-0.0212813
-0.0208155
0.0673892
-0.0690048
-0.0206956
-0.0210779
0.0701992
-0.0707672
-0.0167925
-0.0191505
0.0705274
-0.0694294
-0.0077732
-0.0128367
0.0675919
-0.0652271
0.00481812
-0.00163238
0.0626141
-0.0599306
0.0159552
0.0107855
0.0573625
-0.0549745
0.0222324
0.0196049
0.0528591
-0.0509791
0.0237431
0.0233098
0.0492996
-0.0476863
0.0223117
0.0230911
0.0460436
-0.0442567
0.0196073
0.0209126
0.0423217
-0.0403227
0.015905
0.0177746
0.0386198
-0.0373583
0.010431
0.0129603
0.0375836
-0.0358377
0.00668063
0.0089237
0.0329489
-0.0323357
0.00407167
0.00637467
0.00531474
0.000573559
-0.0360342
0.0347284
-0.0274578
-0.00195593
0.00143409
-0.0320492
-0.0498397
0.0314938
-0.0520785
-0.032859
-0.0482771
0.0317682
-0.0541795
-0.0323267
-0.0456462
0.0318196
-0.0567047
-0.0299438
-0.0421269
0.0314623
-0.0595791
-0.0254555
-0.0376154
0.0305363
-0.0642332
-0.0196441
-0.0342827
-0.0117428
-0.0320063
-0.00289701
-0.0289286
0.00390927
-0.0271624
0.00377507
-0.0325892
-0.00592633
0.0291174
-0.0506488
0.000859645
-0.0428202
0.0749726
-0.0158069
-0.0763473
0.0171815
-0.0698294
0.0296024
0.0265718
-0.0729449
0.0234394
-0.0761357
-0.0235054
0.0248253
0.0570189
0.0600406
-0.062392
-0.0204389
0.0479734
-0.0472865
0.0141692
-0.016394
0.0485012
0.0158662
-0.017967
0.0496107
0.0592839
-0.0212521
-0.0227828
0.0576286
-0.0509813
-0.0731815
0.0713647
-0.0178517
-0.0172233
-0.0693986
0.0671168
-0.0181071
-0.0181136
-0.0648811
0.0627288
-0.0184693
-0.0183717
-0.0602832
0.0576283
-0.0174246
-0.0178172
-0.0560899
0.0546435
-0.0166384
-0.0171898
-0.0532626
0.0519492
-0.0155701
-0.016248
-0.0506677
0.0494265
-0.0142502
-0.0150391
-0.0482194
0.0470657
-0.0125832
-0.013562
-0.0459185
0.044722
-0.0104638
-0.011633
-0.0434155
0.0420604
-0.00827073
-0.0094176
-0.0407985
0.0398463
-0.00563882
-0.00713022
-0.0393573
0.0394
-0.00144294
-0.00379083
-0.0399408
0.0408818
0.00407801
0.00123749
-0.0421194
0.0435387
0.00946369
0.00690283
-0.0450654
0.0466213
0.013587
0.0117619
-0.0481689
0.0496619
0.0161393
0.0151011
-0.051089
0.0524329
0.017441
0.0169593
-0.0537103
0.0549349
0.0181448
0.0178737
-0.0561454
0.0573674
0.0187105
0.0184842
-0.0586323
0.0599413
0.0188363
0.0189193
-0.0612831
0.0626095
0.0174988
0.0184514
-0.0638667
0.0649971
0.0136897
0.0159694
-0.0659675
0.0667503
0.00678983
0.0106447
-0.0673187
0.0675918
-0.00263007
0.0022515
-0.0675098
0.0666647
-0.0115644
-0.00741325
-0.0652128
0.0633904
-0.0175889
-0.0148473
-0.0192077
-0.0254071
0.0261271
0.0566146
0.0570852
-0.0267284
0.0275915
0.0553983
0.0564012
-0.0282551
0.0286996
0.0538088
0.0548214
-0.0289287
0.0289415
0.0523484
0.0532464
-0.028746
0.0283596
0.0511987
0.0519106
-0.0278004
0.0270937
0.0504857
0.0509705
-0.0262533
0.025307
0.0502123
0.0504981
-0.0242627
0.0231464
0.0502887
0.0504278
-0.0208865
0.0201792
0.0496941
0.0506348
0.0497396
0.0463465
-0.0456917
0.0121457
0.0141061
0.0451527
-0.0441876
0.00754688
0.0101767
0.0434231
-0.0429024
0.00134239
0.00447542