/*--------------------------------*- C++ -*----------------------------------*\
  =========                 |
  \\      /  F ield         | OpenFOAM: The Open Source CFD Toolbox
   \\    /   O peration     | Website:  https://openfoam.org
    \\  /    A nd           | Version:  10
     \\/     M anipulation  |
\*---------------------------------------------------------------------------*/
FoamFile
{
    format      ascii;
    class       surfaceScalarField;
    location    "24";
    object      phi;
}
// * * * * * * * * * * * * * * * * * * * * * * * * * * * * * * * * * * * * * //

dimensions      [0 3 -1 0 0 0 0];

internalField   nonuniform List<scalar> 
17221
(
0.093945
-0.0269068
-0.0775945
0.0105562
0.00433463
0.0853383
0.00427216
0.0773704
-0.0214273
-0.0828499
0.0865984
-0.00968159
-0.0782361
0.0013192
0.0157076
0.0773632
-0.00647237
0.0736785
0.018597
-0.0765678
0.00125457
-0.0049461
0.068998
-0.0653065
-0.00658984
-0.0673288
0.0751732
-0.00192797
-0.0431151
0.0119266
0.0331164
-0.0425603
0.00505124
0.0355811
0.000235713
0.0473998
-0.0550431
0.00740759
-0.05487
0.0551058
0.0418041
0.059137
-0.0655606
-0.0353805
0.056002
0.0366569
-0.0508548
0.0239427
0.0327236
-0.0112202
-0.0454461
0.021737
-0.0240525
0.0262581
0.0149326
0.0574083
-0.0682301
-0.00411075
0.0067392
0.0493424
-0.041149
-0.0426318
-0.00898991
0.058361
-0.0315572
-0.0758135
0.0849961
0.0223746
-0.0789207
0.00510177
0.0422618
0.0522243
0.0534517
-0.0604456
-0.0452304
0.120438
-0.0784085
0.0101947
-0.0336277
0.0145892
0.0964089
-0.119606
-0.0564961
0.0937686
0.0823339
-0.0430508
0.0234389
-0.0999945
0.111529
-0.10419
-0.0503899
0.102257
-0.0472241
-0.0261017
-0.0464222
0.0118273
0.0606966
-0.0124747
-0.0516304
0.0380034
-0.0586148
0.00277185
0.0433683
-0.0933272
0.0020591
0.0659902
0.0252779
0.0223253
-0.0930573
-0.0225952
0.1117
0.0230591
-0.112434
0.0145439
0.0992151
0.0664503
1.59414e-05
-0.0191319
-0.0473343
0.0117212
0.0672041
-0.012475
-0.0417895
0.0410782
0.0639092
-0.0631979
0.102465
-0.0793007
-0.0249118
0.00174802
0.0713316
-0.0106566
0.0348926
0.0938407
-0.0376967
0.0238454
0.0286284
-0.0113615
-0.0172669
0.0142783
-0.00646955
0.0208196
0.0851418
-0.0411909
-0.0439509
-0.0567928
0.0446531
0.0972816
0.00121753
-0.000695545
-0.00644525
0.00592327
0.00143843
-0.00308752
0.00286662
-0.00446914
0.00521202
0.0494896
0.0623511
-0.0725947
-0.039246
0.05046
-0.0705116
0.0695412
-0.0420758
0.0458979
0.0466378
-0.0380712
0.0583465
-0.0838073
0.0153908
0.0689872
-0.000570628
-0.0741374
-0.00827133
-0.00139863
-0.00864293
-0.0659418
0.000447328
-0.0700962
-0.0315862
0.0714943
0.0301881
-0.0253771
-0.0778728
0.0331537
-0.0578462
0.0626013
0.0251774
-0.0299325
-0.012987
-0.0764454
-0.0653866
0.00926318
0.0597258
-0.00360241
0.0102
-0.0654935
-0.0100931
0.0687686
0.00613584
-0.0610575
-0.0138469
0.0108187
0.06815
0.00770326
-0.0577204
0.00220732
0.0478099
0.0626709
0.00109394
-0.0560616
0.0691848
-0.01146
-0.115798
0.0017266
0.0426334
0.0714377
-0.0026681
-0.123081
0.00995173
-0.000965008
0.118735
-0.0460869
-0.0519921
0.0439421
0.0541369
-0.0576062
0.0517412
-0.0402219
0.0515288
-0.0611705
-0.0423504
-0.061461
0.0461113
0.0668785
0.0140509
0.059335
-0.0134832
-0.0599027
0.0581766
-0.0615612
0.0174354
-0.0144805
0.0606209
0.0131946
-0.0126697
0.0588675
-0.0606783
0.0285871
-0.0982168
-0.0638143
0.0152829
-0.017977
0.0665085
-0.0696789
-0.00156631
0.00743084
-0.00439314
-0.0455656
0.00235017
0.0476086
-0.0456204
0.0479948
-0.00676759
0.102289
-0.0851124
0.0114109
0.106627
0.00561305
0.0869266
0.0304236
0.0623346
-0.0622768
-0.0304815
0.0639073
0.0295677
-0.0630514
0.0377119
0.0665723
-0.0689424
-0.0353418
0.065912
0.0369239
-0.0651239
0.0832356
-0.051879
-0.0399996
0.071633
0.00333123
-0.00099826
-0.00158148
-0.063362
0.0222115
0.0763546
-0.0268943
-0.0716719
0.0177756
0.0744301
-0.0699943
-0.0477756
-0.0177934
0.0540536
0.0115154
-0.00685383
0.039626
-0.0805478
0.0583265
0.0040133
-0.0691936
0.0434346
-0.00290154
-0.0100413
-0.0614977
0.0701636
0.00137546
-0.036527
0.0805392
0.0683696
0.00593564
-0.00843655
-0.0658686
0.00799696
0.0705123
-0.0101397
0.0579502
0.036946
-0.0388943
0.055788
0.0406907
-0.0385285
0.0557428
0.0387083
-0.0386631
0.0540353
0.034426
-0.0327185
0.0554596
0.0216755
-0.0230998
0.0556136
0.0116884
-0.0118424
0.0579158
-0.00372039
0.00141821
0.0594498
-0.0153345
0.0138005
0.0614176
-0.0260472
0.0240794
0.0619376
-0.0322822
0.0317623
0.0632829
-0.037673
0.0363277
0.0646533
-0.0394018
0.0380314
0.0640518
-0.0400498
0.0406513
0.0640229
-0.0401123
0.0401413
-0.0400856
0.0640025
0.040106
0.0632209
-0.0633586
-0.0399479
-0.0415529
0.0440944
-0.0395026
0.065188
-0.0658095
-0.0394283
-0.0382829
0.0654041
-0.0654893
-0.0375878
-0.0398072
0.0633986
-0.0622845
-0.0271612
-0.0343729
0.0608736
-0.0604352
-0.0041588
-0.0167454
0.0585709
-0.0594023
0.0225068
0.00982412
0.0581855
-0.058148
0.0386708
0.0332093
0.0600034
-0.062448
0.0393906
0.0425462
0.0368101
-0.0576792
0.0560246
-0.0368739
-0.0374365
-0.0543696
0.0530657
-0.0314145
-0.0370081
-0.0529513
0.0527411
-0.0116323
-0.0229854
-0.0549206
0.0560168
0.0127042
-0.000761231
-0.0583266
0.0583083
0.0317805
0.0217696
-0.061891
0.0634024
0.03652
0.032745
-0.0635922
0.0647659
0.0389676
0.0404615
-0.0648268
0.0662124
0.0427088
0.0400451
0.063532
0.0487917
-0.0269085
-0.0668657
0.0807873
0.0484363
0.0623843
-0.0616832
-0.0382734
0.0683923
0.0435761
-0.025934
-0.0758885
-0.0285617
0.0637502
-0.0650403
-0.0386577
-0.0374356
0.0671549
-0.0657758
-0.0408075
-0.0361683
0.0683133
-0.0660669
-0.0398343
-0.0372697
0.0674624
-0.0664046
-0.028219
-0.0329774
0.0651522
-0.0639258
-0.00538518
-0.0179978
0.0622092
-0.0636792
0.0239768
0.00810753
0.0618136
-0.0624858
0.039343
0.0313436
0.0625421
-0.0638409
0.0406895
0.0426025
0.0642842
0.0323875
0.0372533
0.0434706
-0.0440613
0.062975
0.0443242
0.0675387
-0.0647882
0.0605408
-0.0311331
-0.0310153
-0.0574987
0.0564253
-0.0358005
-0.0343945
-0.0527801
0.052615
-0.0312494
-0.0333629
-0.0517815
0.0525977
-0.0124484
-0.0221519
-0.0530559
0.054643
0.0111172
-0.00121949
-0.0581635
0.0596409
0.0303031
0.0182491
-0.0597743
0.0591685
0.0371258
0.0326116
-0.0652013
0.0639911
0.0401778
0.0344288
-0.0661831
0.067899
0.0409928
0.0378531
-0.0719234
0.0707932
0.0447062
0.0447673
0.057085
0.0245988
-0.0299425
0.0671605
-0.063232
0.0456823
0.0694351
-0.0260568
0.0202633
-0.0720793
-0.0343334
-0.0676119
-0.0722904
0.0727103
0.0327338
-0.0864716
0.0344444
0.0811491
-0.0504145
0.0285409
0.0634268
-0.0543898
-0.0259672
-0.0330255
0.0304506
-0.0604766
-0.0629562
-0.032346
0.0581261
-0.0625846
-0.033815
-0.0364855
0.0668099
-0.0675396
-0.037928
-0.0332103
0.0699767
-0.0698626
-0.0409215
-0.0337312
0.0718532
-0.071104
-0.0405834
-0.0352791
0.0721675
-0.0693418
-0.0310447
-0.031914
0.0696546
-0.0680036
-0.00703614
-0.0176851
0.0670491
-0.0660282
0.0229559
0.00715302
0.0641844
-0.0666057
0.0417643
0.0294998
0.0619857
-0.065343
0.0440467
0.0379825
0.0655408
-0.0682888
0.0351355
0.0374511
0.0346096
0.0697437
-0.0689403
0.0439028
0.0714371
0.0439889
-0.0611106
0.0622904
-0.0316612
-0.033996
0.0347849
-0.0637451
0.0634899
-0.0328415
-0.0646444
-0.0299668
-0.0604661
0.0643
-0.034967
-0.029191
-0.0590293
0.05672
-0.0334911
-0.0291238
-0.0543289
0.0527259
-0.0296464
-0.0309718
-0.0505362
0.0515628
-0.0134751
-0.0199622
-0.0524698
0.0541923
0.00939464
-0.00212641
-0.0559722
0.0582931
0.0279822
0.0164692
-0.0624842
0.0620342
0.0375758
0.0284205
-0.0634666
0.0633999
0.0402445
0.0329963
-0.0671672
0.0662657
0.0418944
0.0340858
0.0420927
-0.034899
0.0360022
0.0618718
0.0608025
-0.0379091
0.0410262
0.0663179
0.0656318
-0.0671148
0.0183799
-0.0292599
-0.0611993
-0.0508319
-0.0172597
0.0334405
-0.0319232
-0.0523492
-0.0413973
0.0575781
-0.0559115
-0.0311133
0.0412189
0.0712445
0.0386605
-0.0643522
-0.0333695
-0.0635024
-0.0621529
0.0639337
-0.0346223
-0.0337846
0.0325315
-0.0633913
-0.0644732
-0.0314642
0.0351446
-0.0663582
-0.0345838
-0.0585387
-0.028392
-0.0438781
0.0308728
-0.0317929
-0.0489483
0.0196317
-0.0235194
-0.0399904
-0.0393978
0.0449164
0.0141131
-0.0185074
0.000846715
0.0630366
-0.064814
-0.0320377
-0.0293603
0.0657958
-0.0683751
-0.0353487
-0.0322284
0.0698849
-0.0715523
-0.0392541
-0.0322214
0.0728144
-0.0738494
-0.0395484
-0.034017
0.0742679
-0.0740349
-0.0312777
-0.0314955
0.0733262
-0.0719462
-0.00841616
-0.0183937
0.070556
-0.06911
0.02151
0.0057628
0.0680181
-0.066997
0.0407432
0.0284078
0.0662753
-0.0655784
0.0433498
0.0372608
0.0635327
-0.0680866
0.0396894
0.0354054
0.0668973
-0.0678873
0.0337238
0.0334204
0.067362
-0.0449163
0.0351323
0.0339192
0.0308729
-0.0653619
0.0646613
-0.0309607
-0.031395
-0.0656998
0.0622336
-0.0315008
-0.0302295
-0.0598543
0.0580879
-0.0317248
-0.0267444
-0.0532615
0.0519013
-0.0282861
-0.0261454
-0.0507277
0.0508659
-0.0136133
-0.0187886
-0.0514193
0.0531024
0.00771158
-0.00267985
-0.0548917
0.057247
0.0256269
0.0146799
-0.0592465
0.0614812
0.035341
0.0264211
-0.0631726
0.0648807
0.0385364
0.0313049
-0.0659479
0.0674635
0.0403788
0.0330187
-0.0695026
0.0715968
0.0418086
0.0400536
-0.0725627
0.0725984
0.0411832
0.043023
-0.0177276
0.02385
0.0573044
0.0596856
-0.0264286
0.0290016
0.0592988
0.058224
-0.03204
0.0333108
0.0650471
0.0625934
-0.0362316
0.0361956
0.0726344
0.0683236
-0.0618237
-0.0349094
0.0374301
-0.0328104
0.0762768
-0.0733954
0.0383018
0.0765353
0.0359371
0.035467
-0.0646746
-0.037734
-0.0603522
-0.0479519
0.0450773
0.0169877
0.0118766
-0.0271049
0.0343597
-0.0632879
-0.0354863
-0.0548453
-0.0278651
-0.0446025
-0.022775
-0.0357228
0.0583137
-0.0610555
-0.0283715
-0.0210267
0.0617279
-0.0651698
-0.0285958
-0.028688
0.0669652
-0.0691846
-0.0331293
-0.030433
0.0709817
-0.0731075
-0.0371284
-0.0304243
0.0747828
-0.076394
-0.0379372
-0.0323417
0.0772724
-0.0775366
-0.0310135
-0.0306171
0.0770155
-0.0755746
-0.00985706
-0.0189149
0.0740234
-0.0720262
0.0195128
0.0042116
0.0704226
-0.0687478
0.0390684
0.0268043
0.0675291
-0.066336
0.0421567
0.0360421
0.0652757
-0.0637442
0.0381579
0.0343451
0.0625664
-0.0616726
0.03283
0.0322426
0.0584216
-0.0523651
0.0290759
0.0306682
0.0235851
-0.0684901
0.0685463
-0.0328666
-0.0143433
0.0260675
-0.0806666
0.0706
-0.0478985
-0.0370448
-0.0332319
-0.0698053
0.0670501
-0.031867
-0.0327233
-0.0670827
0.0655211
-0.0293991
-0.0314276
-0.0645703
0.0623783
-0.0293087
-0.0292787
-0.0600547
0.0569087
-0.0285788
-0.0244209
-0.0542039
0.051674
-0.0257562
-0.0234406
-0.0504208
0.0501047
-0.0132972
-0.0175355
-0.0507095
0.0523302
0.00609088
-0.00328463
-0.0541497
0.0566001
0.0231765
0.0128605
-0.0587468
0.0612043
0.0328835
0.0242744
-0.0630868
0.0650369
0.0365863
0.0294224
-0.0649818
0.0686199
0.0367407
0.0330737
-0.0698274
0.0723359
0.0393002
0.038846
0.0419635
0.0125207
-0.00816939
0.0553745
-0.0174199
0.0189334
0.0557909
0.0547863
-0.0217303
0.022197
0.0588321
0.0554271
-0.0243883
0.0262582
0.0631772
0.0604021
-0.027301
0.0285254
0.07141
0.0672808
0.030213
0.0748477
-0.0640907
0.0507011
-0.0740616
0.019758
-0.0212255
0.0637572
0.0492194
-0.0725333
-0.0245847
-0.0605012
-0.0236535
0.036201
-0.0665159
-0.0361097
-0.0597288
0.038002
-0.064366
-0.0302638
-0.0524466
-0.0802168
-0.0190187
0.0818234
0.0174121
0.0311394
-0.0701957
-0.0203257
-0.0470519
0.0261293
-0.0575765
-0.00911008
-0.0506652
0.0305337
-0.0320011
-0.0837714
0.0337677
0.0573541
-0.0606334
-0.0250922
-0.0241739
0.0636615
-0.0649308
-0.0273265
-0.0256599
0.0675446
-0.0698867
-0.0307872
-0.0278192
0.0719251
-0.0744146
-0.0346389
-0.0283859
0.0764667
-0.0786158
-0.0357881
-0.0302896
0.079989
-0.0807699
-0.0302326
-0.0292439
0.0804997
-0.0791106
-0.0112461
-0.0191851
0.0772925
-0.0747787
0.0169989
0.00239352
0.0726557
-0.0703559
0.0367686
0.0246813
0.0686442
-0.0669342
0.0404467
0.0343304
0.0655757
-0.0638043
0.0363864
0.0329867
0.060744
-0.0602775
0.0323636
0.0291823
0.0551748
-0.0523549
0.026256
0.0255654
0.0479995
-0.0449379
0.0139261
0.0192296
0.0379285
-0.0435047
-0.00564403
0.00486719
-0.068675
0.0741379
-0.0425077
-0.10125
-0.0399581
-0.0733587
0.0716995
-0.0312074
-0.0324528
-0.0706259
0.0696432
-0.0308843
-0.0316496
-0.0674766
0.068267
-0.0301894
-0.0292611
-0.0639467
0.0625943
-0.0279563
-0.0249584
-0.0603621
0.0572888
-0.0255054
-0.0221888
-0.0546118
0.0518771
-0.0230215
-0.0207636
-0.0503968
0.0498497
-0.0127501
-0.0160552
-0.0503523
0.0518824
0.00456076
-0.00378716
-0.0537037
0.0562392
0.0206409
0.0110392
-0.0584885
0.0611198
0.0302522
0.0220251
-0.0631625
0.0653667
0.0343822
0.0273797
-0.0683749
0.06748
0.0376355
0.0300655
-0.0731458
0.0724798
0.0399662
0.0331803
-0.0748821
0.07747
0.0357139
0.0395612
0.0296356
-0.0124463
0.00983078
-0.0428306
-0.0438904
-0.0120606
-0.00842072
0.00979928
0.053996
-0.00744285
-0.00954204
0.0475186
0.0478936
-0.0111468
0.0127862
0.0541515
0.0534388
-0.0127183
0.0134542
0.0580961
0.055495
-0.0156517
0.0161057
0.0627232
0.0582046
-0.0172135
0.0189799
0.0696436
0.066173
0.074809
-0.0639994
0.0347984
-0.0633124
-0.0325925
-0.0574002
0.0116269
-0.00814954
0.078346
-0.0726601
0.0388972
0.0675305
0.0139832
0.0825863
-0.0849426
0.0314741
-0.0647007
-0.0228791
-0.0498931
0.0233612
-0.0674276
-0.010874
-0.045288
0.00975907
-0.0919203
0.00178756
-0.042622
-0.0272613
0.0156806
-0.0896695
0.0179681
-0.0147138
-0.0471447
0.0183276
-0.0431901
-0.0422506
-0.0128571
0.00264069
0.0472281
0.0195858
-0.0169035
-0.0493804
0.0466981
0.0542814
-0.0570585
-0.0208764
-0.0199703
0.0597204
-0.0618133
-0.0229993
-0.0215119
0.0642906
-0.0650388
-0.0265783
-0.0231826
0.0690843
-0.0704727
-0.0293988
-0.0237737
0.0726914
-0.0754278
-0.0319025
-0.0261671
0.0777721
-0.0803772
-0.0331829
-0.0279454
0.0822185
-0.0835419
-0.0289092
-0.0274026
0.0836153
-0.0823614
-0.0125
-0.0191117
0.080313
-0.0773174
0.0140033
0.000345121
0.0746673
-0.071775
0.0338764
0.0220312
0.0696081
-0.0674134
0.0382521
0.0321634
0.065736
-0.0637331
0.0343835
0.0313093
0.0617138
-0.0587296
0.0293794
0.027163
0.0556801
-0.0517817
0.0223576
0.0225159
0.0485387
-0.0441344
0.0095218
0.0159865
0.0417961
-0.0436741
-0.00376599
0.0025289
0.0475554
-0.0513395
-0.0109298
-0.00817927
-0.0180899
0.021115
-0.0501698
0.0626319
0.0242563
-0.0413746
-0.0455136
-0.00679743
-0.0880594
0.0793063
-0.0337546
0.0953776
-0.0964965
-0.0261424
-0.0326399
-0.0797328
0.0774054
-0.02888
-0.0328792
-0.0745377
0.0723583
-0.028705
-0.0287819
-0.068934
0.0671793
-0.0284347
-0.0258368
-0.0650922
0.0628223
-0.0256863
-0.0228713
-0.0607789
0.0579258
-0.0226523
-0.0201454
-0.0553209
0.0524744
-0.020175
-0.0181587
-0.0507965
0.0499915
-0.0119451
-0.0143774
-0.0503214
0.051726
0.00315611
-0.00411701
-0.0535143
0.0560913
0.0180639
0.00925088
-0.0584144
0.0611725
0.0274941
0.019702
-0.0633422
0.0657102
0.0320142
0.0252101
-0.0674876
0.0695085
0.0356147
0.028288
-0.0710861
0.071976
0.0390763
0.0316028
-0.0766256
0.0777878
0.0345517
0.0349116
0.0347633
-0.00014065
0.00372181
0.0504148
0.0503936
-0.00421453
0.003061
0.055305
0.0529461
-0.00414131
0.00454256
0.0576948
0.0544147
-0.00496568
0.00544882
0.0622401
0.0577815
-0.00688575
0.00833337
0.068196
0.0647361
0.0749928
-0.0617934
-0.049084
-0.00939348
0.086216
-0.078127
0.0308083
0.0839318
0.0162673
0.0292825
-0.0611208
-0.0263213
-0.053958
0.0224358
-0.0637753
-0.0135157
-0.0472514
0.0138901
-0.0715586
0.00211493
-0.0456153
0.00536657
-0.0816062
0.0140777
-0.0925846
-0.0179896
0.00945903
-0.0850508
0.0164195
-0.0407139
0.0230144
-0.0450896
0.0238735
-0.049787
0.024452
-0.0462408
-0.0478951
0.0560092
-0.00692968
-0.00118448
-0.0510876
-0.013711
0.0209016
-0.0196125
-0.0506696
0.0541566
-0.0573114
-0.0177216
-0.0148977
0.0590883
-0.0614329
-0.0206547
-0.019735
0.064102
-0.0664612
-0.0242191
-0.0205136
0.0684778
-0.0709561
-0.0269204
-0.0217571
0.0732476
-0.0761123
-0.0290378
-0.0238757
0.078639
-0.0815837
-0.0302383
-0.0254186
0.0838237
-0.0856895
-0.0270435
-0.0251626
0.0861878
-0.0852102
-0.0134776
-0.0186133
0.0830815
-0.0796168
0.0105386
-0.00178365
0.0764221
-0.0728865
0.0303408
0.0188365
0.0702314
-0.0675264
0.0355471
0.0295082
0.065463
-0.0630949
0.0320154
0.0292459
0.0608731
-0.0577966
0.0263028
0.0249412
0.0547826
-0.0511242
0.0186991
0.019502
0.0468279
-0.0455497
0.00824368
0.0116902
0.0455841
-0.0475984
-0.00175176
0.0025633
0.0507891
-0.0557354
-0.00598346
-0.00498851
-0.00652364
-0.0985313
0.0962107
-0.0238218
-0.00906256
0.00331102
-0.086833
0.0991004
-0.0951727
-0.0129902
-0.0174206
-0.090863
0.0848
-0.0276916
-0.0272923
-0.079033
0.0783224
-0.0281694
-0.0271122
-0.0743471
0.0733763
-0.0277341
-0.0248066
-0.0700813
0.0674989
-0.0258523
-0.0225418
-0.065449
0.0631934
-0.0234308
-0.0208214
-0.0613011
0.0587374
-0.0200885
-0.0182531
-0.0563054
0.0534561
-0.0173257
-0.0157267
-0.0516138
0.0505247
-0.0108559
-0.0125351
-0.0506378
0.0518597
0.00193417
-0.00423013
-0.053565
0.0561247
0.0155043
0.00754558
-0.0584749
0.0613086
0.0246604
0.0173518
-0.0635624
0.0660488
0.0295278
0.0229562
-0.0680005
0.0702097
0.0334055
0.0263363
-0.072049
0.0742249
0.0369003
0.0297635
-0.0751474
0.0761066
0.0335926
0.0339891
0.0327428
7.20504e-05
-0.00202509
0.0491811
0.00203777
-0.00177478
0.0477318
0.0497184
0.00330856
-0.00420262
0.0513089
0.0516771
0.00444838
-0.00456762
0.0554243
0.0531919
0.00462181
-0.0045872
0.0576602
0.0544689
0.00444641
-0.00420512
0.0619988
0.0576407
0.00348537
-0.00251446
0.0672251
0.0640163
0.000929768
0.000795975
0.0766203
0.0734081
-0.00354185
0.0831534
0.0043203
0.0798404
-0.0588323
0.0209067
-0.0595917
-0.0172919
-0.0501819
0.0124558
-0.062341
-0.00209942
-0.043037
-0.0054614
0.00765026
0.0809645
0.0855541
-0.0878993
0.00666549
0.0836081
-0.00351539
0.00482228
-0.0710143
3.96834e-05
-0.0721868
-0.00572975
-0.07601
-0.00049235
-0.0887683
-0.00591204
-0.00891124
-0.0784142
-0.0405492
0.0113534
0.0244955
-0.042195
0.0254032
-0.0466192
0.0234135
-0.0487485
0.0227994
-0.0481385
0.0471354
-0.0502008
0.00129064
-0.0530845
-0.0176155
-0.0203848
0.0207305
-0.0510153
-0.0171302
-0.0563391
0.000859839
-0.00393844
0.0508104
0.0473946
0.000600577
0.0521918
-0.0524661
-0.00911928
-0.00477653
0.0544116
-0.0573922
-0.014741
-0.0129522
0.0604875
-0.0616503
-0.0194919
-0.0166396
0.064588
-0.0668494
-0.0219578
-0.0175759
0.0688128
-0.0713043
-0.024429
-0.0197936
0.0735999
-0.0764856
-0.0261521
-0.02158
0.0790739
-0.0822058
-0.0271064
-0.0228303
0.0847264
-0.0870782
-0.0246917
-0.0226419
0.0880649
-0.0875643
-0.0139782
-0.0176266
0.0855748
-0.0818199
0.0067837
-0.00377314
0.0780673
-0.0737575
0.026031
0.0150839
0.0704901
-0.0671528
0.0322098
0.0262408
0.0646144
-0.0618013
0.0292023
0.0267075
0.0593666
-0.0563298
0.023266
0.0225066
0.0536498
-0.0507605
0.0158098
0.016822
0.0489235
-0.0480216
0.00734178
0.00985318
0.0485065
-0.050841
0.000582754
0.00304829
0.053833
-0.0551524
-0.0046641
-0.00199653
0.0547738
-0.0533128
-0.00839073
-0.00690219
0.0545184
-0.055693
-0.0164408
-0.0125054
-0.0997073
0.0991501
-0.012433
0.00434901
-0.00966866
-0.0834487
0.0969336
-0.0920692
-0.000515458
-0.00868571
-0.0967944
0.0940304
-0.0210578
-0.0150649
-0.0899592
0.085775
-0.0235074
-0.0232211
-0.0808975
0.0784488
-0.0257207
-0.0222347
-0.0750615
0.0722908
-0.0249634
-0.0214193
-0.070093
0.0676089
-0.0233682
-0.020344
-0.0656258
0.0634479
-0.0212529
-0.0188383
-0.0617225
0.0595227
-0.0178888
-0.0165277
-0.0574017
0.0547231
-0.0146471
-0.0136057
-0.0528002
0.051437
-0.00949264
-0.0106122
-0.0512939
0.0522735
0.000954644
-0.0040871
-0.0538428
0.0563206
0.0130265
0.00597619
-0.0586406
0.0614871
0.0218139
0.0150318
-0.0637714
0.0663415
0.0269577
0.020672
-0.0683698
0.0707005
0.0310748
0.024308
-0.0714998
0.0767084
0.0316918
0.0289641
-0.077348
0.0793937
0.0315469
0.0333494
-0.082362
0.0873788
0.0257916
0.0297745
0.0157468
0.00550696
-0.00701634
0.0506905
0.051287
0.00947723
-0.0114264
0.0532581
0.054138
0.0120057
-0.0125141
0.0559326
0.0537711
0.0129175
-0.0132132
0.0579559
0.0548723
0.0133645
-0.0133704
0.0620047
0.057792
0.01298
-0.0119738
0.0662188
0.063626
0.0105616
-0.00825297
0.0743117
0.0719959
0.0792377
-0.0552174
-0.0535421
-0.0192812
-0.0201651
0.0127222
-0.0488962
-0.028023
-0.0456842
0.00983918
-0.0569751
-0.00580315
-0.0464781
-0.0145594
0.016721
0.0788029
-0.0112652
0.0803138
0.00141836
-0.0589371
-0.00756351
-0.0634111
-0.013181
-0.0647356
-0.0169087
-0.0680126
-0.0175838
-0.070499
-0.00958739
-0.0874575
0.00497575
-0.0172937
-0.0757423
-0.0396937
0.0236399
0.0272411
-0.0440329
0.0255115
-0.0487172
0.0249771
-0.0509262
0.0244368
-0.0518448
0.0188272
-0.0571203
0.000988897
-0.00687597
0.0566975
-0.0118956
0.0602791
0.0525179
-0.0528264
0.00159907
-0.0877196
0.0862145
-0.00201028
-0.0891715
0.00811732
0.0411181
0.0120004
0.0101563
-0.0418399
0.0536523
-0.0550234
-0.00774811
-0.00395063
0.0567258
-0.0582634
-0.0132033
-0.0112499
0.0609148
-0.0631581
-0.0172485
-0.0139883
0.0650175
-0.0671684
-0.0198068
-0.0157165
0.0690775
-0.0715177
-0.0219888
-0.0178845
0.0737499
-0.0765604
-0.0233416
-0.0193478
0.0791116
-0.0822728
-0.0239451
-0.0202791
0.0849281
-0.087636
-0.0219839
-0.0199866
0.0891124
-0.0892888
-0.0138018
-0.0161502
0.0877553
-0.0841203
0.00314866
-0.00530664
0.0800349
-0.0749885
0.0209845
0.0109986
0.071022
-0.0669615
0.0281493
0.0222743
0.0639427
-0.0607814
0.0260411
0.0236887
0.0583122
-0.0556526
0.0206063
0.0200374
0.0536841
-0.0520002
0.0141259
0.0148535
0.0513578
-0.0516965
0.00768049
0.00921074
0.052761
-0.0543451
0.00216689
0.00411278
0.0556992
-0.0565186
-0.0038447
-0.000642448
0.0572422
-0.0569857
-0.00864729
-0.0061786
0.0580739
-0.0597706
-0.0147441
-0.0114172
0.00575689
-0.0826761
0.0567183
-0.0775947
-0.0248079
-0.0223335
-0.0974058
0.0988176
-0.00192722
0.00934948
-0.0139029
-0.0829041
0.0942063
-0.0907066
0.00584979
0.00177626
-0.0971708
0.0947603
-0.0100225
-0.00703896
-0.0943124
0.0905797
-0.0173252
-0.014617
-0.0860295
0.082652
-0.0201299
-0.0186709
-0.0799587
0.0769672
-0.0227293
-0.0195414
-0.0746102
0.072031
-0.0223842
-0.0190623
-0.0700189
0.0677294
-0.0210787
-0.0183319
-0.0658672
0.0637788
-0.0191645
-0.0169761
-0.0621701
0.0602838
-0.0160025
-0.014919
-0.0585276
0.0561895
-0.0123091
-0.0118495
-0.0543134
0.0527212
-0.00790044
-0.00873611
-0.0522796
0.052924
0.000310228
-0.00364548
-0.0542881
0.0566111
0.0107035
0.0046121
-0.0588585
0.0616561
0.0190162
0.0127844
-0.0639329
0.0665204
0.0243702
0.0183951
-0.0685978
0.0710669
0.0286057
0.0222307
-0.0744465
0.0741839
0.0319545
0.0255845
-0.0782537
0.0821474
0.0276532
0.0292796
-0.0844264
0.0883062
0.0219118
0.0274955
0.0148816
0.0104
-0.0138938
0.0541843
0.054811
0.0156889
-0.017089
0.0546582
0.0559331
0.0186677
-0.0194676
0.0567326
0.0553498
0.020138
-0.0206874
0.0585054
0.0555426
0.0210606
-0.0212519
0.062196
0.0581652
0.0202988
-0.0218279
0.0677479
0.0626729
0.0199572
-0.0187575
0.0731119
0.0701252
0.0772013
-0.0511814
-0.00614585
0.0810952
-0.00304529
-0.0525114
-0.0122015
-0.0542991
-0.019874
-0.0567181
-0.0241806
-0.0574637
-0.0266445
-0.0589519
-0.0250341
-0.0627587
-0.0420812
0.0296287
0.029519
-0.0480405
0.0265749
-0.050315
0.0258131
-0.0523025
-0.0211347
-0.0685105
-0.0116623
-0.0875225
0.00847815
-0.0148615
-0.0797049
0.0231596
-0.0561772
0.0168859
-0.0682493
0.0208292
-0.0757056
-0.0227183
-0.0404563
0.00699166
-0.0433135
0.0148977
-0.0767446
0.0217202
-0.0399202
0.00800793
0.0686957
-0.00970325
-0.0670004
0.0533908
-0.0542606
0.00246892
0.0249348
0.0551424
-0.0561776
-0.00671293
-0.00306882
0.058379
-0.0593951
-0.0121872
-0.00904849
0.0616984
-0.0637506
-0.0151963
-0.011685
0.0654299
-0.0674378
-0.0177989
-0.0140373
0.0692656
-0.071596
-0.0196585
-0.0160567
0.0737065
-0.076359
-0.0206891
-0.0172373
0.0787839
-0.0818243
-0.0209047
-0.0178542
0.0844574
-0.0873322
-0.019109
-0.0173535
0.0892022
-0.0901338
-0.0128702
-0.0142802
0.0893637
-0.0864526
0.000237484
-0.00607675
0.0825906
-0.077311
0.0157049
0.00713664
0.0728972
-0.0682952
0.0235473
0.0178605
0.0649635
-0.0617009
0.0227785
0.020357
0.0594307
-0.0573585
0.0185341
0.0177672
0.0561409
-0.0554225
0.0134076
0.0136359
0.0554145
-0.0559582
0.00822424
0.0092027
0.0566322
-0.0573559
0.0028905
0.00478678
0.0578791
-0.0585164
-0.00320739
-0.000119254
0.059354
-0.0593198
-0.0086815
-0.00534094
0.0602314
-0.0616371
-0.0133383
-0.0105056
0.0675327
-0.0738067
-0.0185339
-0.0164379
-0.0220935
0.0258611
-0.0794732
0.0760468
-0.0777988
-0.0203416
-0.0204782
-0.0939009
0.0945969
0.00515382
0.0089758
-0.0108063
-0.0856919
0.0911462
-0.0880801
0.00590971
0.00572338
-0.0955402
0.0963419
-0.00272893
0.00083294
-0.0939976
0.0932136
-0.00923854
-0.00469459
-0.0893268
0.0873459
-0.0153443
-0.0107301
-0.083311
0.0819128
-0.0187316
-0.0146359
-0.0788916
0.076253
-0.0200907
-0.0165202
-0.0741497
0.0717875
-0.0200221
-0.016959
-0.0699281
0.0678236
-0.0189742
-0.0164724
-0.0661079
0.0641448
-0.0172015
-0.0152603
-0.062628
0.0609667
-0.0143413
-0.0134022
-0.0595524
0.057675
-0.0104316
-0.0104352
-0.0560254
0.0543628
-0.00623789
-0.00708653
-0.0536244
0.0538154
0.000119161
-0.00290702
-0.0548453
0.0568797
0.00866915
0.00358223
-0.0589849
0.0616789
0.0163222
0.0106792
-0.0639301
0.0665
0.0218002
0.016144
-0.0686025
0.0710741
0.0261341
0.0201282
-0.0732395
0.0759201
0.0292738
0.0234191
-0.0803321
0.0791439
0.0288414
0.0248676
-0.083981
0.0856313
0.0202615
0.0226583
-0.0886692
0.0894583
0.00732823
0.0118437
-0.0875723
0.0789831
0.00244341
-0.00012432
0.00880155
-0.0130361
0.0609321
0.0675144
0.0168393
-0.020094
0.057439
0.0586142
0.0205424
-0.0236869
0.0578027
0.0563815
0.0240848
-0.0250797
0.0577274
0.0557478
0.0259102
-0.0265997
0.0591948
0.0563732
0.0270834
-0.0273632
0.0624758
0.0586488
0.0273869
-0.0270925
0.0674535
0.0626967
0.0250692
-0.0253757
0.0734184
0.0681019
0.0235586
-0.0218262
0.0770705
0.0753842
0.0197457
-0.0134756
0.0748251
0.0782333
0.0735154
-0.047235
-0.0165329
-0.0481801
-0.0251762
-0.0489969
-0.0312747
-0.049624
-0.0342635
-0.0498447
-0.0333428
-0.0506431
-0.0456964
0.0331342
0.0301699
-0.0516355
0.0285531
-0.053055
-0.0295435
-0.0543499
-0.0232519
-0.0601202
-0.0178851
-0.0726261
0.0272538
-0.0563967
0.0242935
-0.0635848
0.022586
-0.0759376
-0.00904774
-0.0857364
0.00670411
-0.0155501
-0.0791896
0.0270212
-0.0779047
0.0235191
-0.0817036
-0.0196142
0.0242573
-0.0802113
0.042232
-0.063294
0.0884069
-0.0673449
-0.0649778
0.0145648
0.0656959
-0.06833
0.010783
0.0283727
0.0825551
0.0197356
-0.041329
-0.0621201
-0.0108772
0.0307169
-0.0410083
0.055471
-0.0556158
0.00261372
0.0120758
0.0560228
-0.0578902
-0.00484553
-0.00266177
0.0591145
-0.0608715
-0.0104302
-0.00782418
0.0624627
-0.0642739
-0.0133851
-0.0100938
0.0658006
-0.0676726
-0.0159269
-0.0125106
0.0694041
-0.0715808
-0.0174817
-0.0143252
0.0735393
-0.0759857
-0.0182427
-0.0152788
0.0782229
-0.081022
-0.0181057
-0.015617
0.0834815
-0.0862854
-0.0163051
-0.014894
0.088329
-0.0898485
-0.0113506
-0.0122366
0.0899137
-0.0881752
-0.001501
-0.00601154
0.0851861
-0.0805158
0.0110346
0.0041475
0.0762563
-0.0716216
0.0189127
0.013601
0.0682713
-0.0651077
0.0196149
0.0170066
0.0630434
-0.0613043
0.016795
0.015703
0.0603507
-0.0597458
0.0128026
0.0126824
0.0595419
-0.0594907
0.00817299
0.00899887
0.059478
-0.0594606
0.00287305
0.00477412
0.0595521
-0.0599104
-0.00284914
-2.77132e-05
0.0605265
-0.0613021
-0.00790582
-0.00472484
0.0628908
-0.0647994
-0.0114298
-0.00891691
0.0687315
-0.0730125
-0.0142529
-0.0125058
0.0755796
-0.0783061
-0.0176151
-0.0179111
-0.0184891
0.0201841
-0.0833986
0.0805875
-0.0821911
-0.0168855
-0.0173328
-0.086409
0.0879914
0.00432727
0.00550981
-0.0105435
-0.0807027
0.0864715
-0.0846624
0.00370066
0.00676666
-0.0888668
0.0899259
0.00409468
0.004848
-0.0896558
0.0891012
-0.00217436
0.00110312
-0.0888344
0.087788
-0.00819212
-0.00442782
-0.0862771
0.0841911
-0.0132582
-0.00921928
-0.0822019
0.0798274
-0.0163571
-0.0126467
-0.0777949
0.0754674
-0.0177632
-0.0144878
-0.073597
0.0714679
-0.017893
-0.0150886
-0.0697699
0.0678506
-0.0170549
-0.0147744
-0.0662977
0.0645066
-0.0154103
-0.0137075
-0.0630964
0.061588
-0.0128328
-0.011992
-0.0604248
0.0590047
-0.0090114
-0.00927211
-0.0577222
0.0562398
-0.00475546
-0.00580407
-0.0553476
0.0550712
0.000395649
-0.0020149
-0.0556288
0.0571582
0.00713974
0.00302455
-0.0589515
0.0614156
0.0138581
0.00888593
-0.0635689
0.0661105
0.0192586
0.0139907
-0.0682186
0.0707418
0.0236109
0.0180202
-0.0729399
0.0755906
0.0266231
0.0212209
-0.0777961
0.0803319
0.0263056
0.0226621
-0.0824889
0.085475
0.0172755
0.0205013
-0.0855096
0.0886036
0.00423424
0.0118091
-0.0883031
0.103564
-0.0128171
0.000176125
-0.0255568
0.016483
-0.0205655
0.0650146
0.0660203
0.0212295
-0.0242177
0.0604272
0.0592782
0.0256204
-0.0269668
0.059149
0.0577842
0.0281396
-0.0292133
0.0588011
0.0569206
0.0300934
-0.0308068
0.0599082
0.0572534
0.0312855
-0.0315242
0.0627145
0.0591275
0.0314748
-0.0310995
0.0670783
0.0626472
0.0303975
-0.029324
0.0723449
0.0673999
0.027525
-0.0256554
0.0752009
0.0735852
0.0259148
-0.0250336
0.0739438
0.0784927
0.0768545
-0.0440323
-0.0285522
-0.0448041
-0.0351892
-0.0450824
-0.0391159
-0.0447716
-0.0392254
-0.0439621
-0.0495009
0.0339744
0.03141
-0.0544924
-0.0363002
-0.0438864
-0.0306295
-0.0469723
-0.0235729
-0.0544324
0.0315241
-0.0573253
0.0294151
-0.0615184
0.0274617
-0.0684605
-0.0194947
-0.0686815
0.0273946
-0.0763109
-0.0134635
-0.0762696
0.0274066
-0.081054
-0.00824555
-0.0798321
0.00341527
-0.00972455
-0.0792237
0.0240084
-0.0840357
0.0170406
-0.0835602
-0.0156715
0.0207518
-0.0871098
0.0295354
0.082095
-0.0232236
-0.0664336
0.0647254
0.016273
-0.0636534
0.00800283
0.0289615
0.083129
0.0303873
-0.0409994
-0.0222439
0.0206695
0.0672703
-0.0229359
0.0672005
-0.0802037
0.00198157
0.0358716
-0.0437457
0.0585813
-0.0572066
0.001239
0.00700373
0.0582993
-0.0586269
-0.00451801
-0.00156899
0.0602495
-0.061837
-0.00884265
-0.00620159
0.063182
-0.0647464
-0.0118208
-0.00874881
0.0661297
-0.0678742
-0.0141824
-0.0111272
0.069487
-0.0714812
-0.0154876
-0.0127124
0.0732684
-0.0754856
-0.0160255
-0.0134916
0.0775009
-0.0799944
-0.0156122
-0.0136016
0.0821859
-0.08473
-0.013761
-0.0127025
0.0867024
-0.0884618
-0.00959124
-0.0102643
0.0891173
-0.0885073
-0.00211092
-0.0053561
0.0866603
-0.0832131
0.0075873
0.00230049
0.0796932
-0.0755683
0.0147878
0.0100811
0.0724478
-0.0694219
0.016589
0.0138861
0.0673844
-0.0655436
0.0149541
0.0136654
0.0643564
-0.0632895
0.0117357
0.0114952