/*--------------------------------*- C++ -*----------------------------------*\
  =========                 |
  \\      /  F ield         | OpenFOAM: The Open Source CFD Toolbox
   \\    /   O peration     | Website:  https://openfoam.org
    \\  /    A nd           | Version:  10
     \\/     M anipulation  |
\*---------------------------------------------------------------------------*/
FoamFile
{
    format      ascii;
    class       surfaceScalarField;
    location    "29.5";
    object      phi;
}
// * * * * * * * * * * * * * * * * * * * * * * * * * * * * * * * * * * * * * //

dimensions      [0 3 -1 0 0 0 0];

internalField   nonuniform List<scalar> 
17221
(
0.087957
-0.0280652
-0.0724612
0.0125694
0.000708843
0.0805514
0.00669674
0.0690732
-0.0214975
-0.0756409
0.0855817
-0.010802
-0.077252
0.00247231
0.0137466
0.0768508
-0.00501572
0.0731127
0.0169481
-0.0763142
0.00162894
-0.00530775
0.0690776
-0.0653988
-0.00635187
-0.0674591
0.0754399
-0.00248096
-0.043213
0.0125677
0.0331263
-0.042579
0.00454219
0.0355559
-0.000397002
0.0477762
-0.0554072
0.00802801
-0.0555225
0.0551255
0.0447111
0.0631304
-0.0682355
-0.0396059
0.0581791
0.0374354
-0.0509034
0.0518156
0.0365543
-0.0342232
-0.0541467
0.0310717
0.00262388
0.01812
0.0185588
0.0566224
-0.0681464
-0.00703477
0.00918763
0.0486199
-0.0392487
-0.0429562
-0.00545533
0.0575992
-0.0277954
-0.0646588
0.0732319
0.0192223
-0.0687265
0.00412259
0.0368086
0.0439023
0.0491545
-0.0538194
-0.0392375
0.106016
-0.0687008
0.00658738
-0.0321633
0.0112969
0.0899396
-0.120278
-0.0592337
0.0938823
0.0856295
-0.0457385
0.0259508
-0.10049
0.110958
-0.104137
-0.0525602
0.100419
-0.0486944
-0.0267344
-0.0462388
0.0125116
0.0604615
-0.0127806
-0.0506909
0.0367372
-0.0569815
0.00195354
0.0422474
-0.101207
-0.00173293
0.0708892
0.0320511
0.0198862
-0.0974369
-0.0236566
0.113276
0.0201333
-0.113523
0.0112266
0.100316
0.0664563
1.34831e-05
-0.0191325
-0.0473372
0.0117235
0.0672112
-0.0124784
-0.0417742
0.0410829
0.0638937
-0.0632023
0.102465
-0.0792998
-0.024927
0.00176176
0.0713307
-0.0106399
0.0349004
0.0938375
-0.0377013
0.0238541
0.0414832
-0.00594689
-0.0355363
0.0227611
-0.00477468
0.0234967
0.084937
-0.0414696
-0.0434674
-0.0569426
0.0442199
0.0976597
0.00338666
0.00206595
-0.0106923
0.00523968
0.00337325
-0.00684921
0.00686261
-0.00330034
0.00873955
0.0423493
0.0638362
-0.0629938
-0.0431917
0.051173
-0.0696829
0.0608592
-0.0322123
0.0441524
0.0392329
-0.0228039
0.0544278
-0.0833169
0.015045
0.0685646
-0.000292799
-0.0737063
-0.00806874
-0.00154187
-0.00850339
-0.065562
0.000359068
-0.062404
-0.0278859
0.0661808
0.0241091
-0.0181149
-0.0657946
0.0215054
-0.0554973
0.0617242
0.024088
-0.030315
-0.0123507
-0.0710325
-0.0792821
0.0135037
0.0732927
-0.00751428
0.0122492
-0.0783437
-0.0131876
0.0806372
0.00556841
-0.0709424
-0.0152633
0.0119741
0.0809124
0.00797892
-0.0576982
0.00202164
0.0476976
0.0626768
0.0013817
-0.0560796
0.0692345
-0.0118655
-0.103083
0.00362626
0.0356311
0.0638256
-0.00492493
-0.109088
0.0109302
-0.00375007
0.104841
-0.0458454
-0.0545403
0.0417553
0.0586304
-0.0615451
0.0573098
-0.0416101
0.0491692
-0.0619033
-0.0418062
-0.0604371
0.041636
0.0679703
0.0140547
0.0592033
-0.0134701
-0.0597879
0.0580606
-0.0614542
0.0174483
-0.0144983
0.0604667
0.0132348
-0.0126683
0.0586992
-0.0605293
0.0275492
-0.0874831
-0.0590699
-0.00995168
0.00916672
0.0598548
-0.0627517
0.0214088
-0.0177269
-0.0228785
-0.0532416
0.0212414
0.0548787
-0.054393
0.0549141
-0.0233996
0.0921755
-0.0770406
0.0124144
0.0955524
0.00755338
0.0776811
0.0301059
0.0659469
-0.0640772
-0.0319756
0.0651028
0.0270421
-0.062039
-0.0101428
0.061438
-0.0613223
0.0100271
0.0584749
-0.0125453
-0.0560725
0.082897
-0.0516375
-0.0397629
0.0712918
0.00353652
-0.000995452
-0.00153583
-0.0630307
0.0224137
0.077235
-0.02733
-0.0723187
0.0177948
0.075174
-0.0705551
-0.0475544
-0.0182515
0.053744
0.012062
-0.00727583
0.0400289
-0.0803075
0.0581316
0.00362929
-0.0690367
0.0430783
-0.00319824
-0.0105039
-0.0611875
0.0696956
0.00199577
-0.0367666
0.0800067
0.0682294
0.00595611
-0.00845308
-0.0657325
0.00826197
0.0703471
-0.0103796
0.0620018
0.0364144
-0.0402371
0.0612082
0.0386168
-0.0378232
0.0620232
0.0376243
-0.0384393
0.060102
0.0387448
-0.0368236
0.0603282
0.0360464
-0.0362726
0.0587521
0.0392418
-0.0376657
0.0579094
0.0371813
-0.0363386
0.0559948
0.0353841
-0.0334695
0.0562263
0.0295183
-0.0297498
0.0547299
0.0213783
-0.019882
0.055884
0.00980146
-0.0109555
0.0570074
-0.00143117
0.000307724
0.0577285
-0.0133055
0.0125845
0.0590981
-0.0228336
0.021464
-0.0306648
0.060993
0.0287699
0.062034
-0.0604621
-0.0322367
-0.0364538
0.0370096
-0.036323
0.0604762
-0.0594056
-0.0143761
-0.0228196
0.0586922
-0.0586141
0.00972344
-0.00214457
0.0585941
-0.0586291
0.0295533
0.0213583
0.0596184
-0.0605058
0.0380687
0.0363734
0.0616106
-0.0634328
0.0378685
0.0403466
0.062332
-0.0616134
0.0369057
0.037644
0.0620782
-0.0630496
0.0373858
0.0390816
0.03611
-0.0632667
0.0631248
-0.0376813
-0.0403734
-0.0624171
0.0610007
-0.0354072
-0.0377315
-0.0600556
0.0569567
-0.0345668
-0.0353275
-0.0566004
0.0554292
-0.0322983
-0.0359823
-0.0530502
0.0540255
-0.0208572
-0.0273708
-0.0544105
0.0545123
0.000205929
-0.0113406
-0.0557217
0.0580126
0.0191731
0.0113751
-0.0598758
0.0630785
0.0338069
0.0269068
0.0627702
0.0419444
-0.0284541
-0.065115
0.0812184
0.0444667
0.0652589
-0.0641422
-0.0392092
0.0694304
0.0378065
-0.021238
-0.0679093
-0.0315869
0.0643881
-0.0642156
-0.0324092
-0.0360771
0.0641329
-0.0628945
-0.0156145
-0.0229023
0.0621848
-0.0622084
0.0097471
-0.00285432
0.0625135
-0.0628244
0.0298642
0.0216634
0.0620258
-0.0645532
0.0405962
0.0355748
0.0622241
-0.0659894
0.0416338
0.0380174
0.0639032
-0.0639305
0.036933
0.0355578
0.0629012
-0.0626187
0.0371032
0.0380523
0.0612187
0.02905
0.0347101
0.0407997
-0.0434963
0.0679555
0.0396757
0.0705543
-0.0698382
0.0664837
-0.0362514
-0.0354782
-0.0647183
0.0651447
-0.0381077
-0.038608
-0.0622685
0.0624427
-0.0355814
-0.0348554
-0.060064
0.0578772
-0.0323799
-0.0329488
-0.0555713
0.0561649
-0.0328919
-0.0336765
-0.0533323
0.0536496
-0.0211746
-0.0245381
-0.0526498
0.0526379
0.00021775
-0.0103407
-0.0557423
0.0564708
0.0184446
0.00827079
-0.0593624
0.0628224
0.0303469
0.0240151
-0.0687295
0.0695907
0.0369453
0.0360373
0.0596452
0.0293765
-0.031712
0.0747793
-0.0593109
0.0392312
0.0700352
-0.0126995
0.00521288
-0.0583079
-0.0225184
-0.0580904
-0.0579844
0.0617642
0.0177256
-0.0626006
0.00982909
0.091751
-0.0568061
0.0301811
0.0735441
-0.0613462
-0.0271719
-0.0263767
0.021075
-0.0567373
-0.0619202
-0.0285337
0.0636169
-0.0669164
-0.0359097
-0.0393394
0.0695483
-0.0686248
-0.0333327
-0.0334452
0.0687275
-0.0674345
-0.0169076
-0.0227996
0.0666724
-0.0664987
0.00957339
-0.00361643
0.0640656
-0.0671689
0.0329675
0.0192303
0.0653682
-0.0659291
0.0411571
0.0337741
0.0659794
-0.065709
0.0413634
0.0380678
0.0639439
-0.0657796
0.0387686
0.0337927
0.0606025
-0.0619636
0.0384642
0.0328753
0.0602448
-0.0606213
0.0294266
0.0329913
0.0252521
0.0663567
-0.0639169
0.0345056
0.0696914
0.0358965
-0.0653287
0.0680774
-0.0347243
-0.0219937
0.0193784
-0.0593049
0.0655081
-0.024073
-0.0634287
-0.0283544
-0.0668553
0.0723889
-0.041785
-0.034256
-0.0676706
0.0666877
-0.0371248
-0.0338897
-0.0653456
0.0638959
-0.0341316
-0.0335133
-0.0598154
0.0601951
-0.0327596
-0.0288683
-0.0561505
0.0550894
-0.0318307
-0.0296319
-0.0535886
0.0528116
-0.0203975
-0.0230373
-0.0519244
0.053191
-0.00104883
-0.00945356
-0.0542689
0.055355
0.0173585
0.00719296
-0.0589963
0.0599203
0.0294229
0.0203738
0.0320407
-0.0358733
0.0355337
0.068295
0.0690872
-0.0359448
0.037528
0.0684519
0.0701433
-0.0607543
-0.00285421
-0.00803581
-0.0474179
-0.0365859
-0.0288689
0.00654588
0.000725273
-0.0438571
-0.0397173
0.0173943
-0.0639341
-0.0341801
0.0362332
0.0709863
0.0201875
-0.0575464
-0.0131144
-0.0530118
-0.0641462
0.0689494
-0.0288762
-0.0135541
0.00913205
-0.0590066
-0.0631427
-0.0145576
0.00879054
-0.0589634
-0.00135344
-0.0453392
0.00962227
-0.0400981
-0.00924151
0.00843052
-0.0426653
-0.0191171
0.0193313
-0.0403123
-0.0324539
0.0393608
-0.026024
0.0187981
-0.0201803
0.0707767
-0.071293
-0.0353934
-0.0324968
0.0709234
-0.0718739
-0.0323822
-0.0338148
0.0717076
-0.0712095
-0.0174057
-0.0229659
0.0707053
-0.0700839
0.00895195
-0.0041206
0.0696208
-0.069078
0.0324246
0.0187672
0.0686052
-0.0695526
0.0421045
0.0333013
0.0673388
-0.0665155
0.0405402
0.035854
0.0656334
-0.0642911
0.0374264
0.0329106
0.0627758
-0.0604922
0.0361807
0.0313599
0.0569745
-0.0588181
0.0312701
0.0294736
0.0559563
-0.0546386
0.0164079
0.0223903
0.0536905
-0.0391097
0.00281348
0.00888095
-0.00899035
-0.0724017
0.0727228
-0.0350454
-0.0318067
-0.07466
0.071326
-0.0384509
-0.0361932
-0.0695689
0.0690418
-0.0365977
-0.0321327
-0.0648534
0.0639622
-0.0332405
-0.0293249
-0.0619962
0.0607091
-0.0314724
-0.0269023
-0.0570902
0.0546534
-0.029394
-0.026013
-0.0530809
0.0520006
-0.0193172
-0.0214648
-0.0518581
0.052567
-0.00175779
-0.00931105
-0.0536521
0.0554744
0.0155361
0.00610789
-0.057229
0.0596555
0.0269965
0.0186192
-0.0628705
0.066283
0.0310931
0.0288257
-0.0685648
0.0698407
0.0349572
0.0336147
-0.0226684
0.0289861
0.0672264
0.0717476
-0.0309336
0.0327694
0.0664593
0.0671397
-0.0348424
0.0348876
0.0684067
0.0680702
-0.0365153
0.0352923
0.0710637
0.0693587
-0.0536812
-0.00104832
0.000516635
-0.00275305
0.0711093
-0.0674068
0.0312547
0.0722396
0.0341619
0.00630886
-0.0550647
-0.00601889
-0.0483464
-0.0513397
0.0405416
-0.015226
-0.0168457
0.00206035
-0.00431961
-0.0541272
0.00723175
-0.0441404
0.017647
-0.040981
0.0205352
-0.0420494
0.0690778
-0.0709664
-0.0322915
-0.0245292
0.0705985
-0.0733975
-0.0325944
-0.0328647
0.0741833
-0.0750275
-0.031538
-0.033029
0.0752004
-0.0749276
-0.0176784
-0.022793
0.0744076
-0.0736152
0.00815961
-0.00464067
0.0728464
-0.0718492
0.0314274
0.0179984
0.0709161
-0.0697273
0.0409157
0.0323682
0.0686749
-0.067349
0.0392143
0.0348016
0.0661069
-0.0643706
0.0356901
0.0316685
0.0625437
-0.0599899
0.0336269
0.0295329
0.0575069
-0.0543767
0.0281399
0.0269906
0.0520275
-0.0499642
0.0143446
0.0200411
0.0470638
-0.0428092
-0.00144111
0.00598048
-0.0112579
-0.0656369
0.0701632
-0.00727939
0.0433122
-0.0273962
-0.0772383
0.0626048
-0.0386751
0.0193826
0.00699504
-0.0755563
0.0749565
-0.0282764
-0.0199506
-0.0765524
0.075588
-0.0340811
-0.0334026
-0.0748274
0.0725693
-0.0361928
-0.0354326
-0.0705248
0.0681918
-0.0342647
-0.0300882
-0.0663134
0.0641788
-0.0311059
-0.0274465
-0.0622329
0.0596226
-0.028862
-0.0249564
-0.0572304
0.0546071
-0.0267707
-0.0236209
-0.052925
0.0517777
-0.0181699
-0.0197827
-0.0515901
0.0522457
-0.00241339
-0.00912349
-0.0533248
0.0551009
0.01376
0.00502881
-0.0560388
0.059684
0.0233514
0.0176813
-0.0618426
0.0650395
0.0278961
0.0266671
0.0312474
0.0224269
-0.0169944
0.0678602
-0.0281811
0.0293804
0.0660271
0.0659934
-0.032407
0.0324715
0.0663947
0.0641131
-0.0341626
0.0352556
0.0673137
0.0663791
-0.0351755
0.035008
0.0712312
0.0694387
0.0352927
0.071955
-0.0533912
0.0633268
-0.0908947
0.0200537
-0.0306914
0.0770239
0.00344292
0.0178276
-0.0599457
-0.0732701
-0.0308123
-0.0046633
-0.0547211
0.00631484
-0.0474294
-0.0133649
-0.0533076
0.0182941
-0.0447875
-0.0752783
-0.0327952
0.0805341
0.0275394
-0.0266257
-0.056843
0.0263327
-0.0467785
-0.0327208
-0.0410746
0.0246031
-0.0640286
0.0367926
-0.0474304
-0.0771115
0.0371259
0.068754
-0.0714507
-0.0295948
-0.0290453
0.0740363
-0.0746353
-0.0319954
-0.0302791
0.0767484
-0.0779952
-0.0302912
-0.030916
0.0784922
-0.0784363
-0.0177343
-0.022296
0.077895
-0.076878
0.00714256
-0.005182
0.0758057
-0.0743647
0.0299864
0.0169262
0.0730109
-0.071319
0.0392239
0.0310144
0.0698553
-0.0681247
0.0374837
0.0333379
0.0665811
-0.0645303
0.0336393
0.0301249
0.062479
-0.0596867
0.0308345
0.0274817
0.0570241
-0.0537224
0.0248382
0.0243281
0.050194
-0.0481732
0.0123238
0.0165127
0.0456461
-0.0428204
-0.0042668
0.00345333
0.0445852
-0.0462917
-0.0135195
-0.00949311
0.0445706
-0.055314
-0.0234799
-0.0185668
-0.0591016
0.0680912
0.010393
-0.0637188
0.0224448
-0.0726129
0.076628
-0.0112945
0.00247335
-0.0793993
0.0806033
-0.0294804
-0.0227219
-0.0792191
0.0805163
-0.0353783
-0.0320183
-0.0752542
0.0735989
-0.0345376
-0.0301704
-0.0712859
0.0687151
-0.031694
-0.0277752
-0.0667283
0.0644984
-0.028876
-0.0254596
-0.0625611
0.0599801
-0.026281
-0.0230191
-0.0576312
0.0549337
-0.0240732
-0.0212721
-0.0531387
0.0518683
-0.0168996
-0.0179876
-0.0515945
0.0521912
-0.00301011
-0.00884968
-0.0532585
0.0550983
0.0119202
0.00396154
-0.0577019
0.0583716
0.0226817
0.0150777
-0.0633285
0.0638211
0.0274036
0.0217101
-0.066849
0.0700209
0.0280827
0.0282196
0.0270714
-0.0301542
0.0337064
-0.0576989
-0.058781
-0.0266872
-0.0222481
0.0259009
0.0642073
0.00414108
-0.0245958
0.0572474
0.0589169
-0.0282493
0.0308147
0.0634616
0.0636451
-0.0309191
0.0317504
0.0655635
0.0640088
-0.0339855
0.0340287
0.0672705
0.064144
-0.0343034
0.0348695
0.0706651
0.0691639
0.0740292
-0.0517397
-0.0167691
-0.0513168
0.018444
-0.0475794
0.0339116
-0.0319886
0.0786112
-0.0645356
0.0458859
0.0557756
0.0356153
0.0816113
-0.083315
-0.0271138
-0.0528195
0.0284162
-0.046871
-0.036273
-0.0532908
0.030496
-0.0526715
-0.0448605
-0.0561598
0.0264299
-0.056752
0.0343423
-0.0406133
-0.0574478
0.0301469
-0.026136
-0.0627918
0.0334719
-0.0610239
-0.050171
-0.0276665
0.0227078
0.055781
0.0292353
-0.0253695
-0.058439
0.0545731
0.0669691
-0.0695469
-0.0282345
-0.0306322
0.0718791
-0.0734944
-0.0279795
-0.0267131
0.0756892
-0.0759702
-0.0317144
-0.0280843
0.0800056
-0.0805828
-0.029714
-0.0268806
0.0814147
-0.0815723
-0.0175766
-0.0214641
0.0810076
-0.0797355
0.00587048
-0.00574668
0.0783366
-0.0764454
0.0280952
0.0155272
0.0747111
-0.0725908
0.0371035
0.0292801
0.0707943
-0.0687445
0.0354339
0.0315414
0.0669806
-0.0647182
0.031377
0.0283609
0.0625182
-0.0595582
0.0278746
0.0252816
0.0567723
-0.0533868
0.0214527
0.0215421
0.0506094
-0.0478216
0.00953606
0.0137353
0.0462825
-0.0459628
-0.00458657
0.00191429
0.0470283
-0.0483372
-0.0122106
-0.00842752
0.0506661
-0.055545
-0.018601
-0.0162379
0.0607423
-0.0639901
-0.0228882
-0.02149
-0.0289247
0.0315472
-0.0654143
0.0749897
0.0360193
-0.0490136
-0.0619954
-0.0179251
-0.0722362
0.0756555
0.00697372
0.0684696
-0.0626575
0.0285301
0.0186782
-0.0835999
0.0870729
-0.0147675
-0.00547105
-0.0869808
0.0858799
-0.0283795
-0.0226298
-0.0823545
0.0800065
-0.0330304
-0.028493
-0.0771643
0.0741225
-0.0314957
-0.0273283
-0.0717584
0.0691344
-0.02907
-0.025411
-0.0670945
0.0648269
-0.0266084
-0.0234198
-0.0629365
0.0604896
-0.023834
-0.0211288
-0.0582433
0.0555623
-0.0213922
-0.0190259
-0.0536808
0.0522555
-0.0154742
-0.0161061
-0.0518671
0.0523589
-0.0035019
-0.00846128
-0.0533867
0.0551955
0.0101114
0.00293366
-0.0569656
0.0593461
0.0203012
0.0133076
-0.0612302
0.062873
0.0257607
0.0198261
-0.0670242
0.0685304
0.0265765
0.0240683
0.0310662
-0.0216825
0.0263717
0.0595181
0.0599422
-0.0288162
0.0287345
0.0635432
0.0612006
-0.0308434
0.0318092
0.0645977
0.0619
-0.0324713
0.0328208
0.066921
0.0634819
-0.0339013
0.0345335
0.0700329
0.0680834
0.0765741
-0.0500648
-0.0599368
-0.0221227
0.0783146
-0.0683409
0.0359122
0.0805275
0.0334023
-0.028104
-0.0503266
0.0286047
-0.0477679
-0.036706
-0.0523865
0.0339094
-0.0502843
-0.0421941
-0.0559572
0.0345845
-0.0608261
-0.0417889
-0.0549841
-0.0385827
-0.0574116
0.0333368
-0.0408475
-0.055183
0.0352349
-0.058515
0.0332542
-0.0627309
0.0341753
-0.0635703
0.0359255
-0.0557038
-0.0566525
0.0656554
-0.0164252
0.00742229
-0.0598659
-0.022156
0.029471
-0.0273258
-0.0605841
0.0661783
-0.0697549
-0.0246579
-0.0243908
0.0711144
-0.0732578
-0.0258361
-0.0253536
0.075996
-0.0785156
-0.0291948
-0.0253461
0.0806045
-0.0826697
-0.0276489
-0.0247916
0.0838203
-0.0841996
-0.0171973
-0.0203134
0.0836313
-0.0821173
0.00435646
-0.00631497
0.0803617
-0.0780526
0.025786
0.0137716
0.0759852
-0.0735235
0.0346418
0.0272128
0.0714856
-0.0692027
0.033151
0.0295035
0.0672847
-0.0648904
0.0289827
0.026443
0.0625951
-0.0595367
0.0248162
0.0229863
0.0566939
-0.0533122
0.0180711
0.0186993
0.0506755
-0.0483194
0.00717994
0.0110986
0.047369
-0.0478309
-0.00412464
0.00096386
0.0492798
-0.0505245
-0.0109659
-0.00697865
0.0548515
-0.0580856
-0.0153669
-0.0119108
0.0612123
-0.0653989
-0.0187016
-0.0183633
-0.0176686
-0.0690986
0.0753329
0.0222959
0.0324453
-0.036178
-0.0536788
0.0641388
-0.0578251
0.0261315
0.028377
-0.0814007
0.0858824
0.00249197
0.0126104
-0.0885897
0.0906388
-0.0168166
-0.00817834
-0.0885771
0.087696
-0.0274984
-0.0205681
-0.0837809
0.0803215
-0.029571
-0.0245779
-0.0775026
0.0744311
-0.0284243
-0.0245093
-0.0720799
0.0694713
-0.0264613
-0.0230598
-0.0674219
0.0651534
-0.0243398
-0.0213704
-0.0633318
0.0610681
-0.0215703
-0.0193072
-0.0589936
0.0564288
-0.0188274
-0.0169513
-0.0545169
0.0529374
-0.0138948
-0.0141942
-0.0524015
0.0527342
-0.00383461
-0.00792536
-0.0536851
0.0554428
0.00835377
0.00198278
-0.0572143
0.0596015
0.017914
0.0115361
-0.0615637
0.063881
0.0234435
0.0178639
-0.0650765
0.06623
0.025423
0.0228727
0.0289554
-0.0242564
0.0239342
0.0561033
0.0245479
-0.022348
0.0527142
0.0551701
-0.0250845
0.0258832
0.0587193
0.0587918
-0.0274341
0.0289025
0.0620748
0.0596498
-0.0301267
0.0311394
0.063585
0.0606757
-0.0318571
0.0322964
0.0664817
0.0627643
-0.0327411
0.0331988
0.0695752
0.0676387
-0.0338282
0.0340793
0.0783601
0.0759447
-0.0351148
0.0821575
0.0334848
0.0805757
-0.049564
-0.0359057
-0.051127
0.0353303
-0.0491888
-0.0411091
-0.0534715
0.0361482
-0.0518481
0.0342
-0.0344009
0.0823584
0.0821499
-0.0814006
0.0327355
0.0836192
0.0327308
-0.0422021
-0.0555441
-0.0415654
-0.0542662
-0.0383694
-0.0529916
-0.0304509
-0.0523247
0.0249505
-0.0343078
-0.049822
-0.0575535
0.0319623
0.0356456
-0.0609064
0.0338171
-0.0623727
0.033345
-0.0609898
0.0323537
-0.0585865
0.0520585
-0.0583378
-0.0160687
-0.062529
-0.0246628
-0.026598
0.0275592
-0.0615452
-0.0225248
-0.0666022
-0.0233548
0.0226384
0.0534306
0.0505376
-0.0218338
0.0623464
-0.0635459
-0.0209231
-0.019391
0.0660986
-0.0694538
-0.0213027
-0.0218381
0.0726227
-0.0733869
-0.0250719
-0.0221847
0.076727
-0.0794395
-0.0264824
-0.022006
0.0817432
-0.0841375
-0.0252545
-0.022488
0.0855899
-0.0862321
-0.0165551
-0.0188611
0.0857109
-0.0839624
0.00260798
-0.00683619
0.0818762
-0.0791434
0.0230532
0.0116854
0.076795
-0.0740877
0.0319345
0.0248644
0.0718718
-0.0693945
0.0306737
0.0272877
0.0673215
-0.0647757
0.0264369
0.02437
0.0623832
-0.0592713
0.0217042
0.0205938
0.0564686
-0.053294
0.0148965
0.0158966
0.0510421
-0.0494065
0.00554433
0.00884676
0.0492014
-0.0503564
-0.00296965
0.000758719
0.0521707
-0.0544687
-0.00866789
-0.00516439
0.0566994
-0.058516
-0.0135503
-0.00968007
0.0616618
-0.0627927
-0.0175707
-0.0152175
0.0622355
-0.0612681
-0.0173926
-0.0182258
0.0630443
-0.0646109
-0.0230961
-0.0203799
-0.0649682
0.0691584
0.0219413
0.0238654
-0.0265317
-0.0496584
0.0605891
-0.0567566
0.020033
0.0205714
-0.0759491
0.0829238
0.0153212
0.0215864
-0.0882003
0.0921621
-0.00146983
0.0073339
-0.0925
0.0925133
-0.0168299
-0.00851626
-0.0900555
0.086831
-0.0242739
-0.0181103
-0.0837562
0.0802042
-0.026019
-0.0215031
-0.0774308
0.074428
-0.0254215
-0.0217359
-0.0721469
0.0696354
-0.0239498
-0.0207787
-0.0676516
0.065441
-0.0221293
-0.0193866
-0.0637025
0.0616435
-0.0195112
-0.0175687
-0.059798
0.057458
-0.0164875
-0.0151059
-0.0555993
0.0539113
-0.0122067
-0.0123355
-0.0532058
0.0533244
-0.00395328
-0.00721988
-0.0541455
0.0557984
0.00670091
0.00116167
-0.0575362
0.0598487
0.0156014
0.00979826
-0.0611438
0.0652249
0.0193624
0.0165688
-0.0661499
0.0682919
0.023281
0.0219478
-0.0714909
0.0777709
0.0296323
0.0257564
0.0297726
-0.0225731
0.0234511
0.0552254
0.0552353
-0.0236737
0.0242077
0.0581853
0.0585692
-0.025687
0.0270841
0.0606777
0.0581704
-0.0282656
0.0292664
0.0625841
0.0594942
-0.029999
0.0304836
0.065997
0.0620317
-0.0310337
0.0316486
0.0689604
0.0670886
-0.0328503
0.0352916
0.0759188
0.074743
0.0814664
-0.0501394
-0.0623441
-0.0247916
-0.0244205
0.0161081
-0.0582897
-0.0329243
-0.0538404
-0.0399356
-0.0523005
0.0384458
-0.0514864
0.0302192
-0.0294508
0.08159
0.0319538
0.0818846
-0.0419005
-0.053773
-0.0419047
-0.0552047
-0.0394012
-0.0532344
-0.0359541
-0.0513453
-0.0292126
-0.047141
-0.0192644
-0.054968
0.0174757
-0.0223987
-0.0465241
-0.0578675
0.0359597
0.0341412
-0.0612305
0.0337534
-0.0627811
0.0347194
-0.0633555
0.0326526
-0.0636799
0.0237813
-0.0692184
-0.0253736
0.0216994
0.0571049
-0.033661
0.0588249
0.0596549
-0.061616
-0.0141076
-0.0817202
0.0833175
0.0311335
-0.0803952
0.0314105
0.0394406
-0.00161952
0.0364324
-0.0563183
0.0636178
-0.0659512
-0.0185897
-0.0173892
0.0681411
-0.0696018
-0.019842
-0.0196482
0.0724668
-0.0748699
-0.0226688
-0.0193197
0.0770984
-0.0798965
-0.0236843
-0.0197775
0.0823219
-0.0849524
-0.0226239
-0.0200626
0.0866673
-0.0876142
-0.0156082
-0.0171463
0.0872215
-0.0853567
0.000743204
-0.00722884
0.0829337
-0.0797062
0.0198257
0.00926231
0.0770052
-0.0740306
0.0289599
0.0221634
0.0716479
-0.0689682
0.0279939
0.0249049
0.0667182
-0.0640084
0.0237271
0.02212
0.0615706
-0.0585837
0.0187173
0.018156
0.056087
-0.0535375
0.012347
0.0133999
0.0520322
-0.0513764
0.00488852
0.00734147
0.0518404
-0.0532599
-0.0015501
0.00122272
0.0547669
-0.0564517
-0.00698312
-0.00365739
0.0577846
-0.0589204
-0.0124145
-0.0083471
0.0615116
-0.0624117
-0.0166706
-0.0126263
0.0645236
-0.0645454
-0.0173709
-0.0161139
0.0661969
-0.0683675
-0.0209255
-0.0187283
0.00643664
-0.0976506
0.0651304
-0.0898904
-0.0290804
-0.0280288
-0.0679703
0.0702868
0.0177165
0.0147783
-0.0151107
-0.0546355
0.0660039
-0.0648856
0.0136599
0.0155094
-0.0724173
0.0769794
0.0173792
0.0184408
-0.083175
0.0884589
0.0100372
0.0153909
-0.091549
0.0935411
-0.00346196
0.00424382
-0.0934639
0.0917103
-0.0150763
-0.00843905
-0.0892475
0.0858389
-0.0208653
-0.0156475
-0.0829156
0.0796005
-0.0227039
-0.0185798
-0.077036
0.0742511
-0.0226365
-0.0191714
-0.0721183
0.0697627
-0.0215943
-0.0186459
-0.0678886
0.0657699
-0.0200105
-0.0175125
-0.0641077
0.0622204
-0.0176239
-0.0159066
-0.0606084
0.0585669
-0.014446
-0.0134939
-0.0568585
0.0551463
-0.0104945
-0.0106271
-0.0542829
0.0541448
-0.00381517
-0.0063564
-0.054773
0.0562437
0.00523029
0.000533395
-0.0579114
0.060178
0.0133348
0.00813048
-0.0629211
0.0635024
0.0187811
0.0138258
-0.0667883
0.0701922
0.019877
0.0186618
-0.0727586
0.0776571
0.0247337
0.02319
0.0270345
-0.0206264
0.0199177
0.0559341
0.0563084
-0.0208017
0.0222246
0.0567624
0.0576852
-0.0226717
0.0239062
0.0594432
0.0577234
-0.0249682
0.0258944
0.061658
0.0584322
-0.0266019
0.0271067
0.0654923
0.0613242
-0.028401
0.0266717
0.0706897
0.0657943
-0.0282486
0.0288188
0.0753486
0.0731661
0.0808344
-0.0516292
0.0347411
0.0805302
-0.0407697
-0.0534312
-0.0412144
-0.0544634
-0.0399459
-0.0546601
-0.0369168
-0.0522717
-0.0324627
-0.0480952
-0.0255424
-0.0439974
-0.0599211
0.0361949
0.0361964
-0.0636735
0.0356679
-0.0637297
0.0345885
-0.0652914
-0.0172874
-0.0443474
-0.011285
-0.0648445
0.0112439
-0.00983416
-0.0560864
0.0292532
-0.0691518
0.0199098
-0.0826916
0.0230304
-0.0877502
-0.0251705
-0.056972
0.0388854
-0.0539394
0.0160561
-0.0906763
0.0365294
-0.056888
-0.0342909
0.0615605
0.0173319
-0.0446014
0.0621016
-0.063013
-0.0131962
0.00351005
0.0645119
-0.0665274
-0.0165743
-0.0158903
0.0693647
-0.0700921
-0.0191147
-0.0168108
0.072656
-0.0750117
-0.0203131
-0.0167557
0.0771814
-0.0799322
-0.0209335
-0.0176078
0.0823629
-0.0851074
-0.0198794
-0.0176319
0.0870291
-0.0883208
-0.0143164
-0.0152246
0.0881995
-0.0864385
-0.00101777
-0.00735021
0.0838122
-0.0800601
0.0160736
0.00663599
0.0768601
-0.073429
0.0255288
0.0189634
0.0707936
-0.0679176
0.025118
0.0222695
0.0655683
-0.0628693
0.0210281
0.0197707
0.060619
-0.0581225
0.0162208
0.0159057
0.0562812
-0.0547039
0.0107697
0.0115585
0.0540497
-0.0541508
0.00498963
0.00668728
0.0548253
-0.0559312
-0.000444181
0.00189721
0.0568868
-0.0579621
-0.00590784
-0.00270173
0.058956
-0.0603396
-0.0110309
-0.00735326
0.0617607
-0.06357
-0.0148613
-0.0112052
0.0656746
-0.0659002
-0.0171452
-0.0140092
0.0674194
-0.0693553
-0.0189896
-0.0172092
0.076408
-0.0837141
-0.0217744
-0.020976
-0.0226495
0.0268547
-0.0919554
0.0863965
-0.0882446
-0.0208015
-0.0224881
-0.0726394
0.0731116
0.0131878
0.00792523
-0.00683083
-0.0659389
0.071173
-0.0697811
0.00653327
0.00977756
-0.0743729
0.0772189
0.0148705
0.014248
-0.0806648
0.0825664
0.0154775
0.0149949
-0.0877049
0.0901371
0.00760503
0.0102524
-0.0928186
0.0931006
-0.00374394
0.00156228
-0.0921075
0.0899164
-0.0128852
-0.00744596
-0.0875076
0.0843881
-0.0177458
-0.0132386
-0.0817861
0.0788375
-0.0197552
-0.0159778
-0.0765278
0.0739804
-0.0200891
-0.0168618
-0.0720026
0.0698089
-0.0194007
-0.016668
-0.0680641
0.0660765
-0.0180229
-0.0157677
-0.0645056
0.062762
-0.0158802
-0.0143357
-0.0613565
0.0596424
-0.0127319
-0.0120884
-0.0581761
0.0565722
-0.00889059
-0.00916086
-0.0556186
0.0552112
-0.00340783
-0.00540276
-0.0555863
0.05678
0.00403654
0.000158308
-0.0582966
0.0604053
0.0112261
0.00661392
-0.0623603
0.0647146
0.0164268
0.0118708
-0.0680288
0.0678502
0.0200556
0.0153476
-0.0721212
0.0745257
0.0223293
0.018919
-0.0787542
0.0818527
0.0283121
0.022806
-0.0825656
0.0719978
0.0453089
0.0304206
-0.0183822
0.0167439
0.0587432
0.0618514
-0.0156671
0.0152497
0.0563516
0.0573851
-0.0173693
0.0166423
0.0574894
0.0555656
-0.0183996
0.0193577
0.0584851
0.0559661
-0.0202129
0.0209925
0.0608784
0.057577
-0.0216149
0.0220949
0.0650122
0.0607018
-0.0223717
0.0224073
0.0706541
0.0655175
-0.0241752
0.0226811
0.0768426
0.0713981
-0.0241708
0.0248281
0.0809328
0.0793447
-0.0255279
0.0307322
0.0753258
0.0811847
0.0684391
-0.0535135
-0.0401304
-0.0545152
-0.0402832
-0.0541261
-0.0391351
-0.0524417
-0.0357801
-0.0489544
-0.0298867
-0.0437508
-0.0619892
0.0382644
0.0383166
-0.0663222
0.0378242
-0.0669653
-0.021406
-0.0398788
-0.0122516
-0.04193
-0.00771201
-0.0552052
0.0344109
-0.0704491
0.0291817
-0.0784237
0.0251494
-0.0917849
-0.00478553
-0.0691367
0.00414115
-0.00747838
-0.063246
0.028367
-0.0921886
0.0225484
-0.0923207
-0.0184722
0.0230697
-0.0924767
0.0188714
-0.0686385
0.102376
-0.0526091
-0.06283
-0.00793745
0.0608157
-0.070851
-0.00970585
-0.00335712
0.0837891
0.0385269
-0.0559368
-0.0629139
0.0116072
0.0378082
-0.0585014
0.062266
-0.0635561
-0.011906
-0.00507499
0.0646094
-0.0675818
-0.0136018
-0.0148371
0.0690383
-0.0709788
-0.0171742
-0.0153544
0.0727212
-0.0749599
-0.0180744
-0.0150133
0.0770099
-0.0796183
-0.0183251
-0.0155578
0.0819458
-0.0846592
-0.017166
-0.0153045
0.0866883
-0.0883053
-0.0126994
-0.0131955
0.0885839
-0.0872743
-0.00232733
-0.00707162
0.0847971
-0.0808302
0.0121067
0.0041588
0.0772028
-0.0732339
0.0215599
0.015336
0.0702806
-0.067251
0.0220884
0.0193163
0.0649534
-0.0625315
0.0186062
0.0174731
0.0607146
-0.0589401
0.0144462
0.0140889
0.0578192
-0.0570448
0.0099952
0.0104377
0.0568543
-0.0570728
0.00520815
0.0064968
0.0574659
-0.0580074
9.73278e-05
0.00229035
0.0585004
-0.0592145
-0.00519375
-0.00220877
0.060035
-0.0612663
-0.00979963
-0.00653273
0.0625026
-0.0640969
-0.0132671
-0.00996892
0.0655899
-0.0669752
-0.01576
-0.0125162
0.0694208
-0.0718701
-0.0165403
-0.0147635
0.0765725
-0.0814264
-0.0169204
-0.0162737
0.0843489
-0.0872453
-0.017905
-0.0195657
-0.0155887
0.0168982
-0.0936302
0.0895014
-0.0906449
-0.0144451
-0.0162162
-0.0708385
0.071907
0.00546473
0.00066297
-0.00339283
-0.0664068
0.0715759
-0.071074
0.00016102
0.00487859
-0.0725329
0.0737598
0.0119609
0.0091517
-0.0757197
0.077787
0.0128032
0.0122881
-0.0809091
0.0845818
0.0118048
0.0118728
-0.0873418
0.0898437
0.00510311
0.00749239
-0.090828
0.090714
-0.00362994
0.000578054
-0.0895875
0.0874752
-0.0107729
-0.00631947
-0.0853765
0.0827198
-0.0150891
-0.0111399
-0.0804899
0.0779273
-0.0171926
-0.013748
-0.0758857
0.0735973
-0.0178008
-0.0148202
-0.0717951
0.0697813
-0.0173868
-0.0148659
-0.0681805
0.066354
-0.0161963
-0.0141669
-0.0648968
0.0632831
-0.0142665
-0.0128785
-0.0620349
0.0606094
-0.0113064
-0.0108403
-0.0594221
0.0580622
-0.00753068
-0.00797355
-0.057138
0.0565423
-0.00281212
-0.00447854
-0.0566372
0.0574614
0.00321234
6.34214e-05
-0.0587047
0.0605757
0.00935521
0.00537056
-0.0623944
0.0646219
0.0141992
0.0100521
-0.0664553
0.0687871
0.0177238
0.0135142
-0.0707554
0.0740703
0.0190143
0.0169507
-0.0749936
0.0799413
0.0233643
0.0218827
-0.081605
0.112018
0.0148964
0.0287568
0.0045023
-0.0109997
0.0100667
0.0596762
0.0600185
-0.0118688
0.0112503
0.0569701
0.055583
-0.0118287
0.0124241
0.056894
0.0549871
-0.0130144
0.0136257
0.0578738
0.0553757
-0.014204
0.0147534
0.060329
0.0569986
-0.0152198
0.0156103
0.0646216
0.0602355
-0.0158724
0.0159817
0.0705447
0.0652555
-0.0159277
0.0156704
0.0770999
0.0714522
-0.016032
0.0164102
0.0805546
0.0789831
-0.0147327
0.0128044
0.0772541
0.0828623
0.0778864
-0.055117
-0.0399012
-0.0548972
-0.0402097
-0.0530515
-0.0385248
-0.0496969
-0.0338877
-0.0449534
-0.0641421
0.0404696
0.0404368
-0.0689348
-0.026018
-0.0391388
-0.0159456
-0.0361848
-0.00754108
-0.042101
0.039651
-0.0722054
0.0355057
-0.0767732
0.0311931
-0.0844674
-0.006506
-0.0561776
0.0287443
-0.0921621
-0.00367619
-0.0629627
0.0263756
-0.0954946
-0.000827839
-0.068404
-0.00184213
-0.000461877
-0.0667728
0.0203937
-0.0959722
0.0124672
-0.0912576
-0.0118545
0.0154656
-0.0966287
0.0104527
0.0930626
-0.00113904
-0.0657161
0.0617935
-0.00401486
-0.0664387
-0.00898326
0.00430662
0.0899351
0.0390334
-0.057162
0.00375255
-0.00330544
0.0603686
0.00404112
0.0595662
-0.0737893
0.0327874
0.0397599
-0.0599969
0.0636425
-0.0642125
-0.011336
-0.00787115
0.0669935
-0.0671324
-0.0134629
-0.0120561
0.0692614
-0.0710745
-0.0153611
-0.0132254
0.0726932
-0.0747615
-0.016006
-0.0133946
0.0766469
-0.079039
-0.0159329
-0.0136724
0.081177
-0.0837196
-0.0146234
-0.0131665
0.0857198
-0.0875374
-0.0108818
-0.0111953
0.0882282
-0.0876154
-0.00294012
-0.00638079
0.0857129
-0.0821561
0.00854984
0.00225628
0.078553
-0.0743661
0.0173731
0.0117329
0.071223
-0.0681329
0.0189983
0.0161731
0.065966
-0.0638797
0.0165198
0.0153062
0.0624557
-0.0611775
0.013168
0.0126649
0.0604096
-0.0598423
0.00942789
0.0096698
0.0595842
-0.0594568
0.00508077
0.00623864
0.0594416
-0.0595402
0.000195923
0.00227518
0.0597805
-0.0603221