/*--------------------------------*- C++ -*----------------------------------*\
  =========                 |
  \\      /  F ield         | OpenFOAM: The Open Source CFD Toolbox
   \\    /   O peration     | Website:  https://openfoam.org
    \\  /    A nd           | Version:  10
     \\/     M anipulation  |
\*---------------------------------------------------------------------------*/
FoamFile
{
    format      ascii;
    class       volVectorField;
    location    "29.5";
    object      U;
}
// * * * * * * * * * * * * * * * * * * * * * * * * * * * * * * * * * * * * * //

dimensions      [0 1 -1 0 0 0 0];

internalField   nonuniform List<vector> 
8711
(
(1.10399 0.0204524 0)
(1.10904 0.0195616 5.21638e-22)
(1.12333 0.0238716 5.24876e-21)
(1.16545 0.00807901 -4.09552e-21)
(1.16961 -0.000440998 -5.14132e-22)
(1.183 0.00433992 -4.86474e-21)
(1.07314 0.0136073 2.08035e-22)
(1.07565 0.0100157 3.52144e-21)
(0.619685 -0.0982365 -1.17948e-21)
(0.610424 -0.00343157 9.40777e-21)
(0.836538 -0.549429 0)
(0.470824 -0.786806 -1.7822e-20)
(1.05533 0.582447 2.12402e-21)
(1.02739 0.578919 -5.25893e-23)
(0.819572 -0.351436 -1.4208e-21)
(0.781227 -0.382477 0)
(1.12394 0.0723204 -5.4096e-22)
(1.12776 0.0828565 7.66967e-22)
(1.13247 0.0873381 5.24511e-22)
(1.09362 0.064342 2.30574e-21)
(1.09239 0.0553685 -3.37132e-21)
(1.12323 0.0466694 -2.01582e-21)
(1.1243 0.0534744 0)
(1.13263 0.026281 -2.15587e-21)
(1.5335 -0.238481 9.751e-20)
(1.51134 -0.264593 -2.40431e-20)
(1.61662 -0.364675 4.33824e-20)
(1.41153 -0.232881 -7.94458e-20)
(0.834711 -0.0255401 -2.61674e-22)
(0.911626 -0.0257813 3.49856e-22)
(0.987494 -0.0283569 -1.55661e-23)
(1.08553 0.152758 1.12293e-19)
(0.972183 0.190295 2.75364e-20)
(1.36792 0.239437 3.5451e-21)
(1.37127 0.179318 -3.27484e-20)
(1.03857 0.0588362 -4.20737e-20)
(1.04678 0.071012 1.21791e-20)
(1.03891 -0.0769322 0)
(1.02325 -0.0456093 -6.90985e-20)
(1.02822 -0.0487048 9.71107e-20)
(1.01552 -0.0337374 0)
(1.00838 -0.0183046 0)
(-0.0921621 -0.356367 1.16895e-20)
(-0.10242 -0.306482 1.46038e-19)
(0.485256 0.632958 4.73682e-20)
(0.781663 0.650609 3.00835e-20)
(0.0331871 -0.033631 -1.13596e-19)
(0.13551 -0.0681917 4.08583e-20)
(-0.0296783 -0.134781 -5.68924e-20)
(1.01489 0.0212773 4.91215e-21)
(1.02956 0.0284444 1.08128e-20)
(1.02281 0.0372538 3.62173e-21)
(1.01077 0.0352053 0)
(1.1087 0.0189883 0)
(1.10391 0.0223828 2.80708e-21)
(1.09764 0.0243928 -3.26792e-21)
(0.92086 0.480335 -3.53268e-21)
(0.881047 0.40668 7.54371e-21)
(0.98264 0.55107 0)
(0.960526 0.518472 -8.94478e-21)
(1.04617 -0.432274 3.25775e-21)
(1.06535 -0.439362 2.11907e-21)
(1.06992 -0.475478 -5.58645e-21)
(1.05591 -0.465008 -2.15206e-21)
(1.06008 0.0165783 -6.57148e-21)
(1.06336 0.0151353 0)
(1.0708 0.0180514 3.43095e-21)
(1.13523 0.0387476 0)
(1.13351 0.043084 5.06077e-21)
(1.13243 0.052342 -2.72511e-22)
(1.0425 -0.52146 -1.26112e-20)
(1.06244 -0.520924 6.34682e-21)
(1.03165 -0.514037 -2.59431e-21)
(1.00907 -0.505274 0)
(1.05931 -0.00381367 -8.79561e-21)
(1.06027 -0.00930768 0)
(1.06616 -0.00291119 8.0585e-21)
(1.06603 0.00300297 -6.22072e-21)
(1.12522 0.0394224 -4.77331e-21)
(0.921283 -0.13786 -6.47288e-23)
(0.939562 -0.172253 8.60269e-22)
(0.993978 -0.328721 -2.24223e-22)
(1.0007 -0.303123 0)
(1.12209 0.03089 -1.30921e-21)
(1.12808 0.0320038 -5.1041e-21)
(1.13209 0.0307345 7.00714e-21)
(1.09804 0.55866 -7.68841e-21)
(1.04932 0.539856 2.60664e-20)
(1.08055 -0.140108 -4.01551e-21)
(1.00004 -0.16903 -3.45825e-23)
(1.09092 0.0173722 -4.08257e-21)
(1.09501 0.0156814 2.45339e-21)
(1.09148 0.0277634 1.76407e-21)
(1.21396 -0.0561281 2.25025e-21)
(1.18875 -0.0425548 -2.21664e-21)
(1.09477 0.0859717 1.82589e-20)
(1.08165 0.0854316 -3.87015e-22)
(1.07365 0.0752572 -7.28789e-21)
(1.08526 0.0779685 -2.84148e-21)
(1.11582 0.0970257 3.5441e-23)
(1.10544 0.0767194 0)
(0.99661 -0.183944 -5.85272e-21)
(1.00455 -0.254543 1.42609e-20)
(1.03274 0.573156 -1.96113e-21)
(1.03195 0.557031 -8.16965e-22)
(1.02823 0.538733 -7.23654e-23)
(1.01891 0.531026 0)
(1.00324 0.538038 -1.30168e-21)
(0.981741 0.548925 1.36641e-21)
(0.958464 0.54645 1.00768e-22)
(0.936547 0.509936 1.31404e-22)
(0.919318 0.427764 -1.15948e-21)
(0.908004 0.304183 1.6042e-21)
(0.905522 0.14821 7.06376e-22)
(0.910958 -0.0217036 1.4152e-21)
(0.92545 -0.179937 -1.72963e-21)
(0.947479 -0.313993 -6.14217e-22)
(0.969462 -0.41069 -1.11133e-21)
(1.00482 -0.428213 2.40557e-21)
(0.992363 -0.474872 -1.92072e-21)
(1.02194 -0.487832 3.58062e-21)
(0.96876 -0.19808 -4.13365e-22)
(0.986426 -0.331988 -1.30363e-21)
(0.948378 0.142787 9.97067e-23)
(0.9545 -0.0343931 -7.34416e-22)
(0.955681 0.437096 -6.62262e-22)
(0.948312 0.306227 -3.42866e-22)
(0.981599 0.560865 0)
(0.966428 0.522425 -1.3047e-22)
(1.01229 0.551182 -1.64135e-22)
(0.997486 0.565378 0)
(1.0246 0.541063 3.7731e-23)
(1.0212 0.539294 0)
(1.01354 0.565905 6.02838e-22)
(1.02111 0.553514 7.78135e-23)
(1.00108 0.566733 3.23377e-21)
(1.04432 0.553562 -1.24066e-21)
(1.05225 0.572778 -4.89999e-22)
(1.01897 0.518247 -1.08706e-21)
(1.03397 0.53134 5.45306e-22)
(0.970688 0.526905 1.43207e-21)
(0.997507 0.519148 1.07835e-21)
(0.912962 0.49021 1.64735e-21)
(0.940811 0.523618 -2.36385e-21)
(0.874791 0.296327 -2.87516e-21)
(0.890802 0.415601 1.70219e-22)
(0.877753 -0.00817332 7.93307e-23)
(0.87218 0.148708 2.30126e-21)
(0.914981 -0.289491 -9.84701e-22)
(0.891322 -0.157968 1.78468e-21)
(0.96634 -0.45488 0)
(0.939304 -0.386662 0)
(0.988052 -0.49134 6.70539e-22)
(1.01431 0.552954 -8.36782e-21)
(1.02262 -0.515174 -2.54465e-21)
(1.05862 -0.516884 3.37431e-21)
(1.00745 -0.505494 2.16212e-21)
(0.938516 0.464431 4.12524e-21)
(1.053 0.576335 6.64791e-21)
(1.04557 -0.440173 -2.45001e-21)
(1.05457 -0.494939 -1.82569e-21)
(1.01941 -0.212446 1.47853e-21)
(1.03187 -0.346138 7.60644e-22)
(0.999125 0.140014 -1.70839e-21)
(1.00522 -0.0434936 1.44155e-21)
(0.998644 0.444829 6.55728e-22)
(0.99433 0.310992 0)
(1.01114 0.573332 2.92904e-21)
(1.00277 0.531862 -2.09481e-21)
(1.0257 0.559499 -1.03168e-21)
(1.0185 0.575859 -8.59991e-22)
(1.02439 0.53771 -1.61856e-22)
(1.02702 0.542541 1.2507e-21)
(0.998782 0.551489 -1.1847e-21)
(1.01373 0.545019 1.97103e-22)
(0.951939 0.522474 0)
(0.978274 0.547186 1.15803e-21)
(1.03144 -0.510256 7.66651e-21)
(1.02113 -0.505771 -2.39173e-21)
(1.0865 0.579082 -7.8778e-22)
(1.09517 0.581609 6.04865e-21)
(1.05688 0.541692 -5.43097e-22)
(1.07314 0.563413 -3.13526e-22)
(1.01936 0.500194 -1.2453e-22)
(1.03942 0.517692 -2.69102e-23)
(0.963033 0.49952 5.5985e-22)
(0.994372 0.495936 -5.4762e-22)
(0.894977 0.464505 -2.34216e-21)
(0.92829 0.496303 0)
(0.851398 0.285131 4.81649e-22)
(0.870104 0.397663 1.43542e-21)
(0.85102 -0.00185263 1.03438e-21)
(0.845064 0.145204 -1.02548e-21)
(0.890902 -0.265704 1.99394e-21)
(0.86747 -0.141863 -2.02091e-21)
(0.945953 -0.43087 8.12112e-23)
(0.917601 -0.362747 4.77851e-23)
(0.995142 -0.490039 2.36991e-21)
(0.972275 -0.472366 1.10112e-21)
(1.05509 -0.507768 1.24568e-20)
(1.04457 -0.509758 -1.08735e-21)
(0.9935 0.510027 0)
(1.01304 -0.495258 0)
(0.843163 0.310285 -8.34034e-21)
(0.903555 0.375363 2.83069e-21)
(0.82979 0.332853 6.11006e-21)
(0.787589 0.213554 -5.689e-21)
(1.05705 -0.49582 -4.167e-20)
(1.04913 -0.48635 1.76825e-20)
(1.07857 -0.496949 -6.62568e-21)
(1.02661 0.464417 6.87966e-21)
(1.09063 0.495427 7.10342e-21)
(1.08989 -0.513874 5.05491e-22)
(1.08083 -0.516837 -3.12763e-21)
(1.08999 -0.445387 0)
(1.09001 -0.497233 -4.78964e-22)
(1.07394 -0.220061 -2.8116e-21)
(1.08201 -0.353912 3.36759e-21)
(1.05571 0.133193 -3.12209e-21)
(1.0626 -0.0506057 3.76398e-21)
(1.04741 0.445979 -8.05785e-21)
(1.04864 0.307044 6.12322e-21)
(1.04417 0.576171 9.026e-22)
(1.04328 0.534985 1.52454e-21)
(1.04083 0.560633 0)
(1.04189 0.580027 1.09278e-22)
(1.02523 0.529662 1.9325e-21)
(1.03502 0.538812 -1.08738e-21)
(0.986171 0.531448 -7.546e-24)
(1.00886 0.530899 -9.68325e-22)
(0.919429 0.482689 -1.23812e-21)
(0.955504 0.519419 -4.90153e-22)
(0.875378 0.422851 1.13976e-21)
(0.987153 -0.468896 1.05711e-21)
(1.00877 -0.478744 0)
(1.14554 0.562274 -5.17901e-21)
(1.06839 0.380313 5.14951e-22)
(1.14097 0.415293 -1.12506e-20)
(1.14864 0.514262 3.50505e-21)
(1.11528 0.564806 1.61117e-21)
(1.1324 0.575499 -5.8033e-21)
(1.0704 0.524102 -1.07895e-21)
(1.09392 0.5466 1.46943e-21)
(1.02356 0.479359 5.56025e-23)
(1.0474 0.499564 3.08854e-23)
(0.96064 0.468388 0)
(0.994476 0.470048 0)
(0.884472 0.43675 0)
(0.923164 0.465622 0)
(0.836815 0.275918 0)
(0.855517 0.375536 0)
(0.832477 0.00829906 3.16864e-21)
(0.829775 0.147028 -3.48795e-21)
(0.872134 -0.241285 1.22639e-23)
(0.847147 -0.121828 0)
(0.93116 -0.403884 -8.31587e-23)
(0.901306 -0.337086 -5.0202e-23)
(0.960805 -0.448462 -2.20408e-21)
(1.03283 -0.501977 0)
(1.03858 -0.497923 -1.19611e-21)
(1.02495 -0.495444 0)
(1.02814 -0.501421 0)
(0.964885 0.423328 -1.56629e-20)
(0.807193 0.189668 0)
(0.764683 0.103716 1.66679e-20)
(0.738767 -0.0117242 4.64063e-21)
(0.745547 0.0080874 -1.75375e-20)
(1.08858 -0.48587 9.39299e-21)
(1.02512 -0.484622 1.81295e-21)
(0.99587 0.335443 -2.17908e-21)
(0.862915 0.245361 0)
(1.20697 0.434956 -1.94675e-21)
(1.10806 0.259684 0)
(1.18465 0.291305 1.69387e-21)
(1.02891 0.210592 1.12832e-21)
(0.770097 0.0360538 -1.57201e-21)
(0.69578 -0.17404 2.27483e-21)
(0.719702 -0.175324 -1.43539e-21)
(0.701257 -0.295912 -6.30003e-21)
(0.705465 -0.282866 3.19709e-21)
(0.730733 -0.364251 0)
(1.11997 -0.507421 -2.99086e-22)
(1.10746 -0.503272 1.12922e-21)
(1.13623 -0.449871 0)
(1.13072 -0.495505 -4.53504e-22)
(1.13216 -0.232009 0)
(1.1369 -0.363745 0)
(1.11392 0.124887 -5.93777e-24)
(1.12347 -0.0613675 0)
(1.09512 0.442018 9.21669e-24)
(1.10369 0.30169 0)
(1.07719 0.574351 6.21176e-24)
(1.08578 0.532774 0)
(1.05754 0.553302 0)
(1.06693 0.5748 0)
(1.02776 0.514956 -6.21886e-25)
(1.04397 0.528833 0)
(0.976172 0.50482 0)
(1.00526 0.509636 0)
(0.89724 0.441282 0)
(0.93907 0.48547 0)
(0.80652 0.272656 -3.74568e-22)
(0.852285 0.372504 -1.83562e-21)
(0.719808 0.00245842 1.68341e-21)
(0.760262 0.147166 1.83499e-21)
(0.695634 -0.165883 -1.78079e-21)
(1.18993 0.555628 3.91562e-23)
(1.20371 0.519669 -3.99276e-23)
(1.14231 0.54285 2.51012e-24)
(1.16831 0.558912 0)
(1.08336 0.499568 0)
(1.11288 0.522281 0)
(1.02635 0.454082 0)
(1.05501 0.476604 0)
(0.960767 0.434642 0)
(0.99592 0.440197 0)
(0.880477 0.406278 -1.40609e-24)
(0.921337 0.429362 0)
(0.826686 0.26293 0)
(0.848075 0.351729 0)
(0.822803 0.019211 0)
(0.818207 0.149189 0)
(0.861185 -0.218432 0)
(0.837757 -0.10552 0)
(0.921202 -0.375624 -9.69144e-23)
(0.890123 -0.308266 0)
(0.982447 -0.444746 -1.50853e-22)
(0.953302 -0.419754 -2.13644e-22)
(1.02824 -0.468024 -1.84116e-21)
(1.00845 -0.457092 1.4512e-21)
(1.03844 -0.475485 -8.65685e-22)
(1.0415 -0.456211 5.82538e-22)
(1.02938 -0.495897 -1.15228e-24)
(1.03148 -0.488101 6.00705e-22)
(1.03162 -0.49806 0)
(1.02957 -0.499321 2.92234e-22)
(1.04348 -0.481044 1.93401e-21)
(1.03645 -0.491797 -1.68601e-21)
(0.927475 0.294877 1.13323e-22)
(1.0636 0.0538857 -4.59456e-21)
(1.14736 0.091376 4.81358e-21)
(1.03551 -0.446458 0)
(1.05345 -0.463245 0)
(0.94962 0.161519 2.04545e-21)
(0.81935 0.0781774 2.96682e-21)
(0.709285 -0.268725 -2.78234e-21)
(0.738328 -0.325715 4.50217e-21)
(0.983461 0.00599532 -3.37546e-21)
(0.739532 -0.148676 -2.86708e-21)
(0.705353 -0.313617 9.80051e-22)
(0.71402 -0.390092 2.93134e-21)
(1.10334 -0.467239 -3.36425e-24)
(1.08305 -0.454386 2.49697e-21)
(1.1511 -0.489943 0)
(1.12854 -0.486319 0)
(1.18267 -0.441692 -1.17773e-22)
(1.16916 -0.481934 -3.01662e-22)
(1.19011 -0.23553 0)
(1.1898 -0.361587 0)
(1.17182 0.116055 5.30166e-24)
(1.18272 -0.0683319 0)
(1.14262 0.431224 -1.76233e-23)
(1.15742 0.291954 0)
(1.10967 0.561134 -6.09592e-24)
(1.12636 0.521145 0)
(1.07414 0.539148 0)
(1.09198 0.560874 0)
(1.03206 0.494205 -4.41533e-24)
(1.05434 0.512274 0)
(0.96956 0.472067 0)
(1.00399 0.482787 0)
(0.88544 0.402282 0)
(0.928778 0.447939 0)
(0.789362 0.228506 6.61603e-23)
(0.837783 0.328164 1.44206e-22)
(0.705584 -0.0317969 -1.30888e-21)
(0.74172 0.105523 -1.51784e-22)
(0.694291 -0.168178 1.34364e-21)
(1.21692 0.138962 -2.8699e-21)
(1.00403 -0.366412 2.48309e-20)
(1.064 -0.305949 0)
(1.15384 -0.0821329 5.87049e-21)
(1.26413 0.443309 -1.39659e-21)
(1.25001 0.321109 -2.35138e-21)
(1.23194 0.535794 0)
(1.25557 0.510873 0)
(1.16499 0.513817 1.84112e-24)
(1.20118 0.532111 0)
(1.09471 0.470492 -1.10357e-24)
(1.12985 0.492244 0)
(1.03104 0.426708 0)
(1.0619 0.448467 0)
(0.963099 0.399778 0)
(0.999476 0.409652 0)
(0.881344 0.371989 1.40578e-24)
(0.922683 0.391564 0)
(0.823436 0.248583 0)
(0.846607 0.326003 0)
(0.81777 0.0275186 0)
(0.814024 0.145736 0)
(0.855607 -0.19447 0)
(0.832739 -0.0884156 0)
(0.917386 -0.346103 6.69844e-23)
(0.884827 -0.281793 -1.78748e-25)
(0.981915 -0.415751 3.68609e-22)
(0.950032 -0.391751 1.7774e-23)
(1.00964 -0.434091 -1.45092e-21)
(1.02825 -0.422018 1.65994e-21)
(1.02416 -0.467972 -4.0365e-22)
(1.0252 -0.447782 -8.25674e-22)
(1.02118 -0.493896 -6.07248e-22)
(1.02074 -0.483076 1.2063e-21)
(1.03324 -0.504983 -5.6132e-22)
(1.02576 -0.501539 -3.01397e-22)
(1.05524 -0.495411 0)
(1.04334 -0.503022 8.70123e-22)
(1.06729 -0.483522 0)
(0.878492 0.115553 0)
(1.05066 -0.40715 2.6228e-21)
(1.03346 -0.389839 2.94548e-21)
(0.974573 -0.502373 0)
(1.07283 -0.40287 -5.11623e-21)
(0.905879 -0.0415999 4.36753e-21)
(0.780497 -0.11622 0)
(0.928187 -0.215584 -2.28868e-21)
(0.722873 -0.315145 1.45521e-21)
(1.09546 -0.483488 3.61461e-21)
(0.942646 -0.37701 3.79187e-21)
(0.713481 -0.425012 -9.18713e-22)
(0.981261 -0.491411 -3.40035e-20)
(0.764649 -0.433654 0)
(1.03727 -0.373726 -3.55731e-21)
(1.08243 -0.460983 1.46882e-21)
(1.11953 -0.443325 -1.05917e-21)
(1.09536 -0.431469 3.29745e-21)
(1.17774 -0.469848 4.61011e-22)
(1.15006 -0.462612 -5.62207e-22)
(1.22571 -0.43032 1.10228e-22)
(1.20458 -0.464015 1.52377e-22)
(1.24459 -0.237884 0)
(1.23974 -0.356757 0)
(1.22569 0.104275 -5.30168e-24)
(1.23874 -0.0764816 0)
(1.18613 0.415221 1.57011e-23)
(1.20696 0.278011 0)
(1.13881 0.541456 -4.46188e-24)
(1.16299 0.503145 0)
(1.08933 0.518303 0)
(1.11388 0.540542 0)
(1.03694 0.468389 2.92157e-24)
(1.06422 0.489974 0)
(0.966329 0.435437 0)
(1.00462 0.451742 0)
(0.876239 0.358426 0)
(0.922498 0.406652 0)
(0.778088 0.186351 -1.19776e-23)
(0.826774 0.284267 -7.5827e-25)
(0.708151 -0.0531144 -2.20624e-22)
(0.736128 0.0700967 2.34163e-22)
(0.730807 -0.236587 0)
(0.705897 -0.164826 9.59371e-23)
(0.838398 -0.304349 0)
(0.779506 -0.281004 0)
(1.15296 -0.252193 -2.74787e-21)
(1.04297 -0.46128 1.00308e-20)
(1.29291 0.169438 -1.51481e-21)
(1.23644 -0.0338267 2.95242e-21)
(1.32718 0.43288 6.41463e-21)
(1.32322 0.328761 3.65292e-22)
(1.2703 0.501918 1.8162e-21)
(1.30651 0.486974 -1.35125e-21)
(1.18384 0.4778 -1.80913e-24)
(1.22859 0.495796 -2.80006e-21)
(1.10479 0.43747 1.10354e-24)
(1.1435 0.457174 0)
(1.0363 0.397722 -8.74849e-29)
(1.06916 0.418075 1.04163e-28)
(0.968908 0.364876 0)
(1.0044 0.378591 0)
(0.887358 0.33696 0)
(0.9291 0.354279 0)
(0.825692 0.232767 0)
(0.851054 0.298723 0)
(0.817236 0.0360836 0)
(0.814499 0.142211 0)
(0.854921 -0.170281 0)
(0.831447 -0.0712022 0)
(0.915984 -0.315554 -1.40917e-24)
(0.883514 -0.253454 5.68755e-22)
(0.982187 -0.38845 0)
(0.950419 -0.359458 -5.23173e-22)
(1.03996 -0.425081 5.67264e-22)
(1.01376 -0.4041 0)
(1.06927 -0.4392 -1.90939e-21)
(0.82931 -0.383971 1.41247e-21)
(0.875253 -0.337139 7.35108e-22)
(1.00727 -0.413743 -1.7663e-21)
(1.00877 -0.365536 0)
(1.01016 -0.385488 1.17967e-21)
(1.00576 -0.463201 2.821e-22)
(1.00457 -0.440187 5.12428e-22)
(1.00918 -0.495499 0)
(1.00565 -0.48136 -2.80334e-22)
(1.03064 -0.513156 1.27363e-21)
(1.01789 -0.506469 -6.54527e-22)
(1.06363 -0.509195 0)
(1.04606 -0.514909 -6.26935e-22)
(1.08127 -0.499821 0)
(0.837601 -0.0814111 0)
(0.862793 -0.247378 9.56069e-22)
(0.754106 -0.301082 -1.39821e-21)
(1.1118 -0.497801 -3.16901e-21)
(1.10678 -0.437407 0)
(1.1318 -0.468206 -8.87467e-21)
(0.882641 -0.415684 1.70621e-21)
(0.725201 -0.44442 0)
(0.906644 -0.532102 -5.45816e-21)
(0.754609 -0.482239 7.84641e-22)
(0.885902 -0.635557 1.61303e-21)
(0.823375 -0.437196 -2.08091e-21)
(0.946431 -0.573979 -6.7164e-21)
(0.909058 -0.370746 3.91352e-22)
(0.897823 -0.410909 -3.99934e-22)
(1.02551 -0.343738 0)
(0.982291 -0.355234 8.95556e-23)
(1.05869 -0.400013 -4.63136e-22)
(1.07605 -0.382166 -1.39664e-21)
(1.05532 -0.362126 0)
(1.13553 -0.417907 -3.93731e-22)
(1.10819 -0.398129 -3.05774e-22)
(1.2017 -0.442476 3.34248e-27)
(1.16814 -0.431555 2.52046e-22)
(1.26343 -0.410594 -1.05699e-22)
(1.23423 -0.438771 9.53212e-23)
(1.29328 -0.236967 0)
(1.28337 -0.346172 0)
(1.27354 0.088889 3.94063e-24)
(1.28875 -0.0851928 0)
(1.22271 0.39303 -1.32608e-23)
(1.24975 0.258513 0)
(1.16231 0.515802 4.46192e-24)
(1.19303 0.478856 0)
(1.10149 0.492483 1.51872e-24)
(1.13129 0.514567 0)
(1.04142 0.438974 -7.82798e-25)
(1.07217 0.46347 0)
(0.965643 0.396337 0)
(1.00637 0.417866 0)
(0.870793 0.312497 0)
(0.919514 0.363096 0)
(0.775227 0.146949 0)
(0.820862 0.239298 0)
(0.721857 -0.0627278 -1.10032e-24)
(0.739806 0.0406794 0)
(0.763735 -0.205407 2.57403e-23)
(0.72944 -0.151447 7.01788e-24)
(0.861963 -0.264532 2.82894e-22)
(0.814836 -0.238845 -2.5371e-23)
(0.929797 -0.33751 -1.95269e-22)
(0.898446 -0.298938 0)
(0.94848 -0.405478 0)
(1.00664 -0.391564 -5.11543e-22)
(0.966609 -0.368876 7.79184e-23)
(1.2416 -0.171225 8.54641e-21)
(1.01899 -0.486956 -1.25761e-21)
(1.12671 -0.362912 -8.68079e-21)
(1.37481 0.211257 1.36132e-21)
(1.32626 0.0338853 -3.78034e-21)
(1.37688 0.420088 0)
(1.39095 0.341587 -1.69011e-22)
(1.29014 0.462835 1.80844e-24)
(1.34024 0.455878 0)
(1.19366 0.438452 0)
(1.24044 0.454719 0)
(1.11202 0.402915 0)
(1.15147 0.420111 0)
(1.04152 0.36779 0)
(1.0754 0.38614 0)
(0.975898 0.331604 0)
(1.00967 0.348368 0)
(0.897738 0.301015 0)
(0.938376 0.317771 0)
(0.833001 0.214942 0)
(0.860679 0.26946 0)
(0.820403 0.0435568 -8.9242e-25)
(0.819518 0.137205 0)
(0.856457 -0.145976 0)
(0.833553 -0.054457 0)
(0.918293 -0.284928 0)
(0.88546 -0.224421 0)
(0.986255 -0.356533 6.9398e-25)
(0.953126 -0.328692 0)
(1.04765 -0.394207 -4.11251e-22)
(1.02043 -0.379801 0)
(1.07588 -0.418116 5.9672e-22)
(0.980739 -0.408695 -1.19162e-22)
(0.982373 -0.380234 -2.52507e-21)
(0.983089 -0.458217 2.85794e-22)
(0.979729 -0.434124 4.75107e-22)
(0.994714 -0.495031 -1.03437e-26)
(0.987142 -0.478744 -2.87906e-22)
(1.02576 -0.516677 2.3234e-27)
(1.00786 -0.508257 0)
(1.0697 -0.517598 -1.90442e-23)
(1.04704 -0.520341 -3.43985e-22)
(1.09415 -0.508175 2.60414e-21)
(0.800741 -0.279628 0)
(1.03075 -0.320241 0)
(1.11765 -0.418759 -3.01019e-22)
(1.14834 -0.439434 2.29245e-21)
(0.829216 -0.435465 -8.3304e-24)
(0.747024 -0.451965 0)
(0.855279 -0.561247 -1.69745e-21)
(0.751007 -0.51997 -7.75681e-22)
(0.878079 -0.626615 0)
(0.808199 -0.500493 2.35166e-21)
(0.91725 -0.609845 -2.57132e-21)
(0.92973 -0.54211 9.72869e-22)
(0.879827 -0.61559 -9.58819e-22)
(0.873933 -0.457334 -1.24812e-21)
(0.92686 -0.440838 0)
(0.983422 -0.435803 7.58455e-22)
(1.0335 -0.437401 -4.61776e-22)
(1.02456 -0.348508 0)
(1.06834 -0.358873 1.10954e-22)
(1.09539 -0.421863 3.00704e-21)
(1.08601 -0.353974 5.60469e-22)
(1.05758 -0.334158 0)
(1.14828 -0.386284 -1.34205e-22)
(1.11477 -0.369144 0)
(1.22047 -0.410078 -5.81375e-27)
(1.18245 -0.399762 1.36752e-22)
(1.29229 -0.386254 0)
(1.25767 -0.408959 2.40418e-28)
(1.3334 -0.233604 0)
(1.31911 -0.330445 0)
(1.31375 0.0698965 -3.94109e-24)
(1.33102 -0.0942406 5.11131e-28)
(1.2514 0.364663 1.45227e-24)
(1.28481 0.233546 0)
(1.17979 0.484691 2.29943e-24)
(1.21574 0.448557 2.50389e-28)
(1.11046 0.463149 -1.51873e-24)
(1.14415 0.484072 0)
(1.04503 0.407474 -2.91418e-25)
(1.07808 0.434245 -1.37654e-29)
(0.966138 0.355596 1.22802e-24)
(1.00827 0.382218 4.99333e-29)
(0.868905 0.266057 0)
(0.918695 0.318242 0)
(0.778433 0.110536 0)
(0.819911 0.195106 0)
(0.745471 -0.0614259 -8.85806e-25)
(0.751458 0.0198456 0)
(0.803314 -0.166076 -4.22277e-22)
(0.764937 -0.125272 4.49546e-22)
(0.885116 -0.229281 -4.14604e-22)
(0.847105 -0.198419 9.89703e-23)
(0.947291 -0.301569 6.71357e-22)
(0.915503 -0.266362 4.24971e-23)
(0.98257 -0.329728 -4.80844e-22)
(1.11332 -0.383958 -7.98287e-23)
(0.860289 -0.538303 -7.66014e-23)
(0.914046 -0.463569 4.09375e-22)
(1.00504 -0.452197 2.56279e-22)
(1.33614 -0.0883231 -1.94584e-21)
(1.23142 -0.25556 0)
(1.4344 0.226927 9.74197e-23)
(1.40517 0.084254 7.01394e-22)
(1.39625 0.383131 -1.18439e-21)
(1.4292 0.32582 2.53719e-22)
(1.29648 0.414117 -1.78219e-24)
(1.34989 0.408687 1.32881e-21)
(1.19868 0.396847 0)
(1.24559 0.408515 0)
(1.11738 0.368046 0)
(1.15653 0.38249 0)
(1.04651 0.337781 0)
(1.08078 0.3537 0)
(0.98336 0.300405 0)
(1.01501 0.319194 0)
(0.911167 0.266042 1.34107e-25)
(0.949159 0.283446 0)
(0.845169 0.195064 0)
(0.874726 0.23935 0)
(0.827164 0.0492539 9.90034e-25)
(0.829105 0.130083 0)
(0.860343 -0.122064 0)
(0.838723 -0.0385798 0)
(0.921809 -0.252934 0)
(0.889463 -0.196441 0)
(0.990504 -0.325087 -6.8418e-25)
(0.95804 -0.298225 0)
(1.05542 -0.367136 -3.28561e-23)
(1.02669 -0.351364 1.77608e-22)
(1.08801 -0.391216 3.85122e-23)
(0.957042 -0.340299 -5.44864e-22)
(0.975171 -0.286937 -3.61738e-22)
(0.967251 -0.312265 4.89412e-22)
(0.954077 -0.396491 7.82171e-22)
(0.955698 -0.368003 1.09502e-21)
(0.959572 -0.445639 0)
(0.953965 -0.42155 0)
(0.979247 -0.484031 1.03433e-26)
(0.967456 -0.466739 0)
(1.01936 -0.507543 2.96789e-27)
(0.996701 -0.498255 0)
(1.07437 -0.511874 -2.27707e-22)
(1.04625 -0.512213 0)
(1.132 -0.497099 2.56706e-21)
(1.106 -0.503343 -1.54974e-21)
(1.17627 -0.44881 -3.25504e-21)
(1.15503 -0.474748 5.78623e-21)
(0.782141 -0.449333 7.92782e-28)
(0.81519 -0.567383 -2.40854e-21)
(0.759332 -0.548233 0)
(0.841845 -0.644176 1.58288e-21)
(0.794628 -0.548903 6.62813e-22)
(1.20173 -0.437766 2.10886e-21)
(1.19168 -0.421152 -3.73132e-22)
(1.22152 -0.414772 -1.02346e-21)
(0.853513 -0.67559 3.61007e-21)
(0.844864 -0.659561 0)
(0.851924 -0.585592 9.80884e-22)
(0.834598 -0.44672 0)
(0.796295 -0.511551 0)
(0.856767 -0.505598 -4.43766e-22)
(0.912491 -0.480604 1.01006e-22)
(0.966257 -0.479763 -1.35949e-21)
(1.0197 -0.47161 -2.55559e-22)
(1.08528 -0.45923 -4.33193e-22)
(0.986435 -0.264424 2.12789e-23)
(1.10528 -0.3828 1.16425e-22)
(1.1432 -0.440573 -1.95603e-21)
(1.15081 -0.393828 0)
(0.946553 -0.267125 -3.4695e-22)
(0.955502 -0.244925 -2.18355e-23)
(1.03718 -0.296575 2.37247e-23)
(1.00959 -0.278606 -5.28927e-23)
(1.09206 -0.326287 -1.78349e-22)
(1.06358 -0.308803 5.30957e-23)
(1.1568 -0.353684 2.22607e-22)
(1.12278 -0.338624 -3.05869e-22)
(1.23311 -0.374334 3.954e-27)
(1.19349 -0.36553 0)
(1.31253 -0.356082 7.2185e-28)
(1.27375 -0.373817 0)
(1.36372 -0.227006 0)
(1.34464 -0.309906 0)
(1.3456 0.0477294 0)
(1.36417 -0.103273 0)
(1.27181 0.33076 4.51276e-24)
(1.31168 0.203228 0)
(1.19062 0.449562 -2.29965e-24)
(1.23055 0.413515 0)
(1.11513 0.430957 3.57819e-29)
(1.15181 0.450148 -4.19526e-29)
(1.0443 0.374194 0)
(1.07986 0.402721 0)
(0.962142 0.313552 6.32235e-25)
(1.00551 0.344997 0)
(0.866096 0.220656 0)
(0.914492 0.272813 0)
(0.788739 0.0823103 2.42491e-24)
(0.821679 0.154979 0)
(0.781071 -0.0497746 1.81771e-24)
(0.774201 0.0103434 0)
(0.842981 -0.130822 -5.23049e-25)
(0.807824 -0.0954065 0)
(0.904485 -0.200569 1.2022e-22)
(0.877109 -0.165635 0)
(0.962106 -0.268657 1.12154e-23)
(0.931601 -0.237784 -1.21431e-22)
(1.03152 -0.314395 -3.10162e-22)
(0.996046 -0.293839 2.82009e-22)
(1.10713 -0.347611 0)
(1.0689 -0.331201 -4.00593e-23)
(1.027 -0.374431 1.2977e-21)
(0.770543 -0.399659 -9.50511e-22)
(0.87343 -0.34372 -2.06063e-21)
(0.93889 -0.374292 -2.84448e-22)
(1.22865 -0.277855 3.79275e-22)
(1.1205 -0.350615 0)
(1.42038 -0.012859 -1.13574e-22)
(1.33746 -0.156044 -4.01869e-22)
(1.46869 0.2298 -9.14111e-23)
(1.4638 0.122027 4.27828e-22)
(1.40013 0.344862 2.05245e-24)
(1.44438 0.302738 2.57809e-28)
(1.2946 0.369065 0)
(1.348 0.364503 0)
(1.19817 0.3569 -1.61078e-25)
(1.24424 0.365226 6.70549e-29)
(1.11929 0.333922 0)
(1.15702 0.345889 0)
(1.05063 0.307943 0)
(1.08406 0.321602 0)
(0.990432 0.271822 0)
(1.01993 0.291069 0)
(0.926243 0.233296 2.56399e-25)
(0.960102 0.252398 0)
(0.861883 0.173304 0)
(0.892139 0.209285 0)
(0.837745 0.052419 -9.76171e-26)
(0.84336 0.120375 0)
(0.866153 -0.099255 0)
(0.846967 -0.0242392 0)
(0.926092 -0.221772 0)
(0.894956 -0.168447 0)
(0.996109 -0.294636 -6.68755e-23)
(0.963215 -0.266678 6.73739e-23)
(1.06209 -0.340847 -2.3078e-23)
(1.0318 -0.320104 -5.2997e-25)
(1.12694 -0.389722 1.39451e-22)
(1.09518 -0.361195 2.18433e-23)
(1.1593 -0.410108 0)
(0.931478 -0.318434 0)
(0.939947 -0.292238 3.3741e-22)
(0.92824 -0.370883 0)
(0.929273 -0.344308 0)
(0.9372 -0.417153 0)
(0.929566 -0.394217 0)
(0.963806 -0.454531 0)
(0.948292 -0.43751 0)
(1.01211 -0.478425 -2.60075e-26)
(0.985154 -0.468664 0)
(1.07797 -0.485643 2.15027e-22)
(1.04455 -0.48374 -6.28993e-23)
(1.14711 -0.474192 -1.85962e-21)
(1.11433 -0.478619 0)
(1.1761 -0.458602 -2.09526e-21)
(0.780885 -0.564767 0)
(1.14731 -0.361529 5.98282e-23)
(1.19163 -0.402937 -1.35422e-21)
(1.19013 -0.370863 -3.93973e-21)
(0.81573 -0.63867 -1.24778e-21)
(0.791498 -0.589904 -4.0493e-28)
(1.22591 -0.398941 -2.23579e-21)
(1.24883 -0.381665 1.64585e-21)
(0.844624 -0.664364 1.14712e-21)
(0.861854 -0.652763 0)
(0.860498 -0.612545 5.12367e-22)
(0.801275 -0.556027 -1.88431e-22)
(0.74783 -0.45641 1.52232e-21)
(0.82888 -0.299162 5.41045e-23)
(0.716717 -0.339819 -1.20239e-21)
(0.898246 -0.521306 1.39309e-26)
(0.948407 -0.520495 5.1436e-22)
(1.00328 -0.51173 7.81845e-23)
(1.06972 -0.498264 -3.8091e-22)
(1.12977 -0.485853 0)
(1.18812 -0.456011 -2.09155e-21)
(0.925661 -0.236191 -3.89785e-22)
(0.940166 -0.214897 1.11627e-21)
(0.997677 -0.239522 7.5224e-25)
(1.23367 -0.38649 -1.58187e-21)
(1.20057 -0.388001 7.22198e-22)
(0.965519 -0.226219 -4.84069e-22)
(0.841494 -0.55394 -3.47397e-28)
(1.04355 -0.270891 -2.28656e-23)
(1.01562 -0.253035 5.1433e-23)
(1.09683 -0.298678 0)
(1.06823 -0.282559 5.44301e-23)
(1.16278 -0.320831 -1.36899e-27)
(1.12804 -0.308401 -3.70264e-24)
(1.23941 -0.337184 -7.63773e-28)
(1.19994 -0.329956 0)
(1.32302 -0.322153 -7.21847e-28)
(1.28177 -0.336163 0)
(1.38305 -0.216741 0)
(1.35927 -0.284956 0)
(1.36964 0.0229654 0)
(1.38756 -0.111185 0)
(1.28464 0.290788 0)
(1.33182 0.16727 0)
(1.19155 0.411553 8.90465e-26)
(1.23625 0.373965 7.52568e-29)
(1.11023 0.396159 0)
(1.1497 0.413823 0)
(1.0332 0.338611 7.86645e-29)
(1.07176 0.368489 -9.21932e-29)
(0.949498 0.271568 -1.86042e-24)
(0.992536 0.306339 1.42666e-28)
(0.863821 0.180868 1.49774e-28)
(0.905225 0.229744 -1.75404e-28)
(0.811977 0.067117 -2.4247e-24)
(0.83069 0.124563 -1.92173e-28)
(0.827404 -0.0304907 0)
(0.811716 0.0137818 0)
(0.879658 -0.103668 -3.67783e-25)
(0.853331 -0.0680367 -1.89916e-28)
(0.924274 -0.17815 0)
(0.902806 -0.141247 0)
(0.979019 -0.238787 0)
(0.949897 -0.212001 0)
(1.04419 -0.281333 3.0332e-22)
(1.01125 -0.262619 -1.98375e-22)
(1.11744 -0.310083 -9.31941e-23)
(1.07904 -0.29748 1.68777e-22)
(1.2328 -0.404374 1.01705e-21)
(1.20641 -0.328589 -1.83906e-22)
(1.15827 -0.319947 4.72201e-22)
(1.02162 -0.300197 6.87178e-22)
(0.798949 -0.250243 -5.38413e-23)
(0.952271 -0.242947 -1.79166e-21)
(0.981559 -0.274004 0)
(1.16092 -0.298861 6.55821e-22)
(1.08396 -0.310476 -1.021e-21)
(1.33627 -0.187416 -6.15624e-23)
(1.24518 -0.262351 0)
(1.46926 0.0333705 1.1635e-22)
(1.41744 -0.0819109 -1.53512e-22)
(1.46986 0.21504 0)
(1.48566 0.135023 0)
(1.38413 0.299466 -5.136e-25)
(1.43246 0.267845 0)
(1.28296 0.322096 -5.91229e-29)
(1.3329 0.315762 7.0347e-29)
(1.19398 0.318029 3.17609e-25)
(1.23658 0.322053 0)
(1.12017 0.301661 2.35613e-29)
(1.15554 0.310871 -2.80462e-29)
(1.05527 0.279242 0)
(1.0871 0.291136 0)
(0.99775 0.2459 5.64068e-25)
(1.02561 0.264308 -6.63459e-29)
(0.941732 0.204165 -3.90509e-25)
(0.970813 0.22524 0)
(0.882412 0.150495 6.01823e-29)
(0.911526 0.180766 -7.17123e-29)
(0.852637 0.0525267 -1.10341e-24)
(0.862008 0.107904 0)
(0.874322 -0.0781209 0)
(0.858209 -0.0124145 0)
(0.931615 -0.19105 -1.03886e-24)
(0.901076 -0.141255 0)
(1.00001 -0.263324 4.18977e-23)
(0.967033 -0.234989 -2.17385e-22)
(1.06765 -0.311015 -3.93329e-23)
(1.03649 -0.28931 1.66121e-22)
(1.13208 -0.355015 -3.56571e-22)
(1.10018 -0.331577 0)
(1.16544 -0.376532 2.10925e-22)
(0.907978 -0.283345 0)
(0.916585 -0.260227 4.17948e-22)
(0.904922 -0.328264 -2.44924e-22)
(0.904966 -0.30567 0)
(0.917238 -0.368066 0)
(0.90814 -0.347813 2.41542e-22)
(0.949092 -0.40177 0)
(0.930639 -0.386201 0)
(1.00468 -0.424649 -3.29259e-26)
(0.973785 -0.41498 0)
(1.08005 -0.433469 -5.23399e-22)
(1.04099 -0.430818 6.35451e-23)
(1.16193 -0.4244 -8.46808e-22)
(1.12234 -0.428637 1.05082e-21)
(1.19633 -0.414337 0)
(0.798507 -0.621289 0)
(1.26429 -0.359744 0)
(0.832027 -0.655486 0)
(0.850298 -0.660259 2.69855e-26)
(0.849397 -0.63346 0)
(0.822145 -0.583946 -6.26669e-22)
(0.772569 -0.503071 -5.91422e-22)
(0.690396 -0.393631 6.65844e-22)
(0.930168 -0.556109 -2.26015e-26)
(0.984489 -0.552596 -3.53191e-25)
(1.05053 -0.541023 5.63282e-22)
(1.11346 -0.530463 -1.16841e-21)
(0.675005 -0.270016 0)
(0.941353 -0.204673 -4.86015e-23)
(0.79184 -0.198346 0)
(1.18136 -0.505162 1.96403e-21)
(1.23991 -0.459248 6.35546e-21)
(1.24536 -0.342425 3.18971e-22)
(0.95788 -0.197551 7.18895e-22)
(0.831916 -0.595264 7.03434e-28)
(1.26944 -0.379227 -6.13509e-22)
(0.884191 -0.559175 6.09582e-28)
(1.31567 -0.228545 4.62824e-21)
(1.0032 -0.217486 4.63162e-22)
(0.974156 -0.194993 -6.43457e-21)
(1.04863 -0.246312 0)
(1.02338 -0.228296 3.1604e-22)
(1.10146 -0.270744 5.36682e-27)
(1.07393 -0.256846 -3.57854e-25)
(1.16547 -0.288469 -6.9716e-28)
(1.13252 -0.279156 9.72849e-29)
(1.24023 -0.299538 -6.78522e-28)
(1.2017 -0.29493 0)
(1.32404 -0.285704 -1.28005e-28)
(1.28214 -0.297497 1.50319e-28)
(1.39092 -0.20207 0)
(1.36273 -0.256178 0)
(1.38699 -0.00256817 0)
(1.40097 -0.116188 0)
(1.29531 0.243145 -8.63723e-29)
(1.34861 0.126163 1.01352e-28)
(1.18505 0.368823 -8.91115e-26)
(1.23779 0.327391 0)
(1.09501 0.358626 7.24067e-29)
(1.13786 0.374421 -8.4892e-29)
(1.01447 0.301433 2.42405e-24)
(1.05413 0.331675 0)
(0.937192 0.233552 -2.89712e-24)
(0.975215 0.268335 0)
(0.873877 0.15274 0)
(0.902255 0.19457 0)
(0.85131 0.0651476 3.32483e-24)
(0.856134 0.108234 0)
(0.874287 -0.011717 -1.93059e-28)
(0.859216 0.0249731 2.25981e-28)
(0.9075 -0.0856656 5.74687e-24)
(0.891773 -0.0481981 0)
(0.941223 -0.157992 1.61837e-28)
(0.923089 -0.123394 -1.8932e-28)