/*--------------------------------*- C++ -*----------------------------------*\
  =========                 |
  \\      /  F ield         | OpenFOAM: The Open Source CFD Toolbox
   \\    /   O peration     | Website:  https://openfoam.org
    \\  /    A nd           | Version:  10
     \\/     M anipulation  |
\*---------------------------------------------------------------------------*/
FoamFile
{
    format      ascii;
    class       volVectorField;
    location    "28.5";
    object      U;
}
// * * * * * * * * * * * * * * * * * * * * * * * * * * * * * * * * * * * * * //

dimensions      [0 1 -1 0 0 0 0];

internalField   nonuniform List<vector> 
25879
(
(1.0815 0.0166159 7.68158e-21)
(1.07808 0.0173154 -1.15509e-20)
(1.07831 0.0141636 2.15336e-20)
(1.08144 0.0137959 -2.12042e-20)
(0.709366 -0.335472 3.41248e-22)
(0.695021 -0.269071 -3.14847e-21)
(1.28887 0.115069 0)
(1.27529 0.118978 -5.13811e-21)
(1.25436 0.113149 0)
(1.25839 0.103726 0)
(1.37295 0.147714 -3.14282e-21)
(1.33722 0.134277 8.01699e-21)
(1.41693 0.161255 -7.72379e-20)
(0.14539 -0.278536 3.87317e-20)
(0.296034 -0.261781 -5.69791e-20)
(0.999124 0.473074 -2.15628e-20)
(1.05312 0.602894 -2.63366e-20)
(1.32106 -0.701478 5.71825e-20)
(1.46779 -0.636238 -5.95545e-20)
(0.472452 -0.169063 6.52515e-20)
(0.464759 -0.330766 2.9047e-19)
(0.374414 0.684843 -1.29329e-19)
(0.639196 0.60531 1.06362e-19)
(1.03647 0.0440748 4.46524e-21)
(1.04185 0.0487037 5.63842e-21)
(1.036 0.047536 3.48239e-22)
(1.02962 0.0404683 -5.31814e-23)
(1.03345 0.0376031 -5.78142e-21)
(1.0297 0.037281 -8.03751e-21)
(1.03891 0.0418398 -3.24382e-21)
(1.04466 0.0467467 3.76002e-20)
(-0.0694913 -0.134161 5.8613e-20)
(-0.0677894 -0.0898365 -2.44877e-20)
(-0.139856 -0.23712 3.68248e-20)
(0.695348 -0.278622 -1.33839e-20)
(0.931184 -0.121111 -2.59551e-21)
(0.918226 -0.0937645 2.43093e-21)
(1.3327 -0.215259 8.31327e-23)
(1.32302 -0.233301 6.65147e-22)
(1.56518 0.242707 -6.41016e-20)
(1.49466 0.216089 -7.86677e-21)
(1.42584 0.230556 -9.36518e-21)
(1.00718 -0.260769 -1.55704e-20)
(0.995907 -0.238434 0)
(0.991952 -0.218936 -1.40015e-21)
(1.47775 -0.235813 0)
(1.49735 -0.218451 4.70097e-20)
(0.252793 -0.0346888 9.78664e-20)
(0.590383 -0.014975 4.72765e-21)
(0.733194 0.0398239 0)
(1.22303 -0.448566 1.57675e-22)
(1.22312 -0.396146 -7.08846e-21)
(0.821571 0.262515 -1.35387e-19)
(1.06026 0.425719 0)
(0.613872 0.00703385 -2.68193e-22)
(0.602759 0.00567159 0)
(0.641241 0.00742771 4.84049e-22)
(0.842567 0.19997 -9.22088e-20)
(0.841908 0.175666 8.90508e-20)
(0.886485 0.159402 -1.71914e-19)
(0.890422 0.197508 1.61223e-19)
(0.892157 0.308836 8.25929e-22)
(0.907106 0.248211 -4.18811e-21)
(0.76912 -0.0132463 -5.37956e-23)
(0.829447 -0.0156605 1.78479e-21)
(0.787996 -0.0130119 -1.27092e-21)
(-0.125848 -0.0519515 2.65963e-21)
(-0.0963818 -0.0668287 0)
(-0.0651191 -0.0608322 0)
(0.0034235 -0.472216 1.24431e-19)
(-0.0806425 -0.35527 -3.31217e-19)
(1.00638 0.0295079 1.42169e-20)
(1.01023 0.0413596 0)
(1.01344 0.0452256 -7.77507e-21)
(1.06508 -0.109633 4.81622e-20)
(1.01921 -0.123756 0)
(1.00433 -0.084345 1.8369e-20)
(1.07165 0.0120522 0)
(1.07047 0.00718957 1.25913e-20)
(1.0739 0.00902774 1.36381e-20)
(0.981391 -0.25374 0)
(0.991794 -0.284963 3.91573e-20)
(0.329888 0.186403 6.34347e-20)
(0.503881 0.143211 3.33641e-19)
(0.422318 0.314261 0)
(0.998674 -0.0140979 1.74631e-20)
(1.00024 -0.0187815 -1.63659e-20)
(1.00491 -0.0217687 0)
(1.11373 0.0479349 3.31459e-21)
(1.10743 0.0431129 -9.45456e-23)
(-0.0285603 -0.276171 -1.07276e-19)
(0.109658 -0.250616 1.11165e-19)
(-0.0600104 -0.264665 3.34369e-20)
(1.04115 0.0414659 1.5141e-20)
(1.03672 0.0372519 -4.5145e-22)
(0.754272 -0.341081 6.97391e-21)
(0.74295 -0.358456 -3.54478e-21)
(0.717278 -0.312416 1.6461e-21)
(0.786411 -0.162189 -2.89709e-20)
(0.758863 -0.187646 -1.08292e-21)
(0.680663 -0.180595 2.26284e-21)
(0.668309 -0.228476 1.0042e-20)
(1.11343 0.0541681 3.41552e-21)
(1.11772 0.0561447 -5.89403e-23)
(1.12034 0.0519688 -1.82804e-22)
(1.07224 -0.0794499 8.82131e-21)
(1.05443 -0.0643409 -2.62318e-21)
(1.226 -0.518275 -1.22148e-22)
(1.13322 -0.689365 1.41821e-20)
(0.922609 -0.0610743 -1.19394e-21)
(0.920699 -0.0298171 1.12027e-21)
(1.23914 -0.0222492 -2.29994e-21)
(1.22842 -0.0267905 0)
(1.10197 0.0495546 3.38348e-21)
(1.10209 0.0547516 -4.353e-21)
(1.05735 0.154422 -2.36712e-21)
(1.06792 0.164793 2.51633e-21)
(1.35283 0.120864 1.15135e-20)
(1.2338 0.249532 1.17825e-21)
(1.20703 0.222241 -3.70086e-21)
(1.1998 0.197079 1.68586e-20)
(1.5385 -0.154556 -6.12608e-21)
(1.54144 -0.134332 0)
(1.42236 0.296697 -2.98865e-20)
(1.4119 0.27911 6.30794e-20)
(0.287632 -0.207411 -5.56715e-20)
(0.570743 -0.152793 0)
(-0.054672 -0.459654 -2.11139e-20)
(0.0855298 -0.390479 0)
(0.062259 -0.420051 0)
(-0.0776849 -0.507131 -1.19026e-19)
(-0.124883 -0.40177 2.30124e-19)
(0.909866 -0.0836898 0)
(0.924233 -0.0986067 9.77425e-20)
(0.938446 -0.0777772 3.06477e-20)
(0.928551 -0.0671207 -2.53253e-20)
(1.07654 0.012157 -3.06422e-20)
(1.07445 0.0147107 1.924e-20)
(1.2759 0.104121 -5.42842e-21)
(0.632922 -0.0111613 -1.68945e-22)
(1.013 -0.564345 -3.62391e-20)
(0.99402 -0.554532 0)
(0.986772 -0.528935 -4.72645e-21)
(0.993968 -0.507209 0)
(0.977115 -0.449528 0)
(0.972167 -0.382055 1.72928e-20)
(0.965221 -0.300448 1.16894e-21)
(0.962051 -0.208792 -3.97946e-20)
(0.960336 -0.110853 2.00193e-20)
(0.960723 -0.00965855 -2.06068e-20)
(0.962669 0.0908057 3.5649e-22)
(0.966459 0.186735 2.02451e-20)
(0.970721 0.275786 0)
(0.975745 0.354908 -1.72824e-20)
(0.980581 0.42229 1.70899e-20)
(0.985884 0.475742 0)
(0.991095 0.514643 1.29927e-20)
(0.996642 0.539186 -1.31382e-20)
(1.00216 0.551431 1.06593e-20)
(1.0077 0.55443 -2.06302e-20)
(1.01298 0.552106 1.87289e-20)
(1.01781 0.548126 -1.7579e-20)
(1.02202 0.545382 8.39812e-21)
(1.02542 0.545496 0)
(1.02809 0.548858 0)
(1.03001 0.555119 7.47662e-21)
(1.03138 0.563605 6.7908e-23)
(1.03207 0.573742 -7.54504e-21)
(1.0321 0.585053 -8.00851e-21)
(1.03109 0.596878 8.09375e-21)
(1.0289 0.608321 -9.2057e-21)
(1.02488 0.617711 9.61243e-21)
(1.01855 0.623123 -6.73304e-22)
(1.00814 0.621053 0)
(0.99386 0.60869 0)
(0.975057 0.58073 -3.48265e-21)
(0.958169 0.539536 -2.39508e-20)
(0.969143 0.592451 0)
(0.945842 0.560771 5.74678e-21)
(1.01168 0.597752 -3.56808e-21)
(0.974781 -0.546456 3.88789e-21)
(0.985214 -0.564135 -1.65318e-21)
(1.00281 -0.572436 0)
(0.998228 0.560821 0)
(1.03229 0.629587 0)
(1.023 0.619861 7.13263e-21)
(1.04195 0.623167 9.49251e-21)
(1.03864 0.629842 6.60283e-22)
(1.04269 0.599855 5.82102e-22)
(1.04319 0.612509 -1.81979e-20)
(1.03852 0.574671 0)
(1.0411 0.586936 8.16753e-21)
(1.03151 0.554306 -1.52172e-20)
(1.03532 0.563665 7.35624e-21)
(1.0221 0.542391 7.98852e-21)
(1.02714 0.547005 7.35545e-21)
(1.00936 0.542407 8.89997e-21)
(1.01617 0.540912 -7.72305e-21)
(0.993129 0.548002 0)
(1.00154 0.545707 -8.60419e-21)
(0.97508 0.535536 0)
(0.984086 0.54606 0)
(0.957378 0.477627 1.51792e-20)
(0.965907 0.513646 0)
(0.941743 0.363007 1.76534e-20)
(0.949009 0.427379 -1.46748e-20)
(0.929502 0.200257 -1.93668e-20)
(0.934863 0.28671 -1.70667e-20)
(0.922393 0.00865142 -1.98598e-20)
(0.924874 0.106677 1.87227e-20)
(0.924526 -0.186733 -1.88378e-20)
(0.921785 -0.0902571 1.91922e-20)
(0.937025 -0.358828 -1.65575e-20)
(0.928652 -0.277249 1.79759e-20)
(0.956589 -0.481231 0)
(0.94502 -0.426628 1.63164e-20)
(0.965517 -0.519228 -3.42731e-22)
(1.01501 -0.470481 0)
(1.027 -0.556752 1.99352e-20)
(1.0194 -0.525941 0)
(1.0056 -0.323355 1.8187e-20)
(1.00867 -0.403614 -1.86226e-20)
(1.00235 -0.133822 6.61747e-22)
(1.00253 -0.23103 1.23455e-24)
(1.00481 0.0695295 4.23017e-20)
(1.00349 -0.0326938 -2.06649e-20)
(1.01054 0.257866 0)
(1.00854 0.166247 -2.03436e-20)
(1.01593 0.409155 0)
(1.01434 0.33844 0)
(1.01997 0.508252 1.36887e-20)
(1.01894 0.465141 0)
(1.02342 0.551558 1.11446e-20)
(1.02237 0.535761 -1.32682e-20)
(1.02688 0.555345 9.27063e-21)
(1.02564 0.556313 -1.0802e-20)
(1.02972 0.547594 0)
(1.02878 0.551097 -8.98567e-21)
(1.03068 0.548167 -7.41638e-21)
(1.03069 0.546212 0)
(1.02926 0.560376 2.21445e-22)
(1.03037 0.552981 7.40645e-21)
(1.02519 0.579595 7.16623e-21)
(1.02763 0.569302 -6.95063e-21)
(1.01688 0.600251 -1.6598e-20)
(1.02167 0.590023 7.57281e-21)
(1.00049 0.611848 2.94939e-22)
(1.00989 0.607955 8.32519e-21)
(0.987084 0.607788 0)
(1.02095 -0.58049 -3.78499e-21)
(1.00978 -0.580809 -2.06953e-23)
(0.994564 -0.572901 -7.65652e-22)
(0.982467 0.502634 9.87797e-21)
(0.950518 0.481823 -1.54725e-20)
(1.02189 0.51098 -8.42046e-21)
(0.964002 0.419878 0)
(1.00489 0.433509 1.19218e-20)
(0.918996 0.51123 -7.04803e-22)
(0.948337 0.57532 5.78518e-21)
(0.923176 0.543951 -1.78741e-20)
(1.05508 -0.56408 1.07927e-20)
(1.03585 -0.579724 1.05897e-20)
(1.0574 -0.582167 -3.49082e-21)
(1.04086 -0.588177 -6.35362e-21)
(1.02547 -0.586737 2.44081e-21)
(1.0455 0.604752 -8.37036e-21)
(1.03543 0.567339 4.48337e-21)
(1.05855 0.633802 -8.21857e-22)
(1.05308 0.625898 4.2626e-21)
(1.06097 0.62399 0)
(1.06093 0.632167 0)
(1.05567 0.598447 2.15495e-21)
(1.059 0.612049 -8.99635e-24)
(1.04606 0.571838 -1.95089e-21)
(1.05123 0.58473 -2.06907e-21)
(1.03403 0.550429 0)
(1.04028 0.560325 1.87335e-21)
(1.01996 0.536973 0)
(1.02732 0.542505 0)
(1.0025 0.534873 0)
(1.01178 0.534442 0)
(0.980784 0.539745 2.32611e-21)
(0.992161 0.53747 -2.23365e-21)
(0.956482 0.529459 2.74857e-21)
(0.968816 0.538471 -2.6393e-21)
(0.932605 0.475728 3.3019e-21)
(0.944358 0.509444 -3.17058e-21)
(0.911966 0.365459 0)
(0.92179 0.427649 0)
(0.896853 0.206534 0)
(0.903661 0.291021 0)
(0.889409 0.0188981 4.66065e-21)
(0.892086 0.114837 -4.47519e-21)
(0.892654 -0.172781 0)
(0.889503 -0.0783002 0)
(0.907522 -0.342197 2.04535e-21)
(0.898407 -0.261763 0)
(0.931747 -0.465728 0)
(0.918636 -0.410823 0)
(0.956868 -0.534143 -3.46642e-21)
(0.94496 -0.506335 3.62179e-21)
(0.980886 -0.562735 0)
(0.969162 -0.552761 1.59519e-21)
(1.04936 -0.484157 3.80365e-21)
(1.05148 -0.53199 -3.98069e-21)
(1.04717 -0.341367 -9.3484e-21)
(1.0483 -0.420209 9.38264e-21)
(1.04719 -0.153659 -6.7931e-22)
(1.04727 -0.251419 -3.12272e-25)
(1.04876 0.0543801 1.10272e-20)
(1.04797 -0.0496023 -1.04955e-20)
(1.05158 0.247908 1.05247e-20)
(1.05021 0.154705 -1.00172e-20)
(1.05298 0.403146 9.38309e-21)
(1.05289 0.331361 -8.93075e-21)
(1.05106 0.505758 7.91552e-21)
(1.05263 0.46157 -7.53405e-21)
(1.04725 0.552188 6.46143e-21)
(1.04948 0.535472 -6.15014e-21)
(1.04339 0.557378 5.26633e-21)
(1.04546 0.558227 -5.01267e-21)
(1.03974 0.548652 4.41316e-21)
(1.04174 0.553002 -4.20061e-21)
(1.03526 0.546809 3.8718e-21)
(1.0378 0.546143 -3.68531e-21)
(1.02892 0.556448 1.54778e-21)
(1.03246 0.550352 -2.19815e-22)
(1.01979 0.572879 2.05703e-21)
(1.02486 0.564161 -1.90643e-21)
(1.0059 0.589871 -1.15974e-22)
(1.01368 0.58178 -1.50441e-21)
(0.98376 0.597353 -2.94868e-22)
(0.996152 0.595787 0)
(0.968178 0.591709 0)
(0.91418 0.459824 5.35555e-21)
(1.05951 -0.589002 1.50572e-21)
(0.925043 0.40264 -5.32848e-21)
(0.991711 -0.566001 -1.30238e-21)
(0.969743 -0.550628 1.08722e-21)
(0.982339 -0.554989 -1.58568e-22)
(0.941735 0.32108 0)
(0.985218 0.334234 3.04824e-22)
(0.895014 0.495123 -3.80283e-21)
(0.863594 0.425764 -4.35141e-21)
(0.886014 0.441647 1.80029e-20)
(1.01571 -0.581838 -2.64474e-22)
(1.00303 -0.575083 -1.67663e-22)
(1.04359 -0.587534 1.51806e-21)
(1.02917 -0.586187 1.33759e-22)
(1.06219 0.521413 1.34381e-21)
(1.03012 0.346832 -6.47026e-21)
(1.0472 0.444369 3.05411e-21)
(1.08113 0.612032 2.66585e-22)
(1.07342 0.576974 0)
(1.08622 0.63468 8.45479e-22)
(1.08525 0.6298 -4.67646e-22)
(1.0805 0.620517 0)
(1.08435 0.630524 0)
(1.06857 0.592712 0)
(1.0751 0.607247 0)
(1.05337 0.564915 0)
(1.06124 0.57829 0)
(1.03646 0.542783 0)
(1.04508 0.553007 0)
(1.0179 0.528246 0)
(1.02745 0.534411 0)
(0.996103 0.524173 0)
(1.00754 0.524807 0)
(0.969723 0.527215 0)
(0.983448 0.525734 0)
(0.940409 0.516715 0)
(0.955194 0.525609 0)
(0.911804 0.464653 0)
(0.925762 0.497347 0)
(0.887336 0.357453 0)
(0.898839 0.417987 0)
(0.870004 0.202369 0)
(0.877591 0.284874 0)
(0.862548 0.0192043 0)
(0.864866 0.112801 0)
(0.867362 -0.16721 0)
(0.863272 -0.0753339 0)
(0.885122 -0.331554 -1.95512e-21)
(0.874492 -0.253398 0)
(0.912405 -0.451786 0)
(0.897666 -0.397679 9.30536e-22)
(0.942097 -0.520742 0)
(0.927511 -0.492162 2.40357e-23)
(0.956125 -0.539614 3.43036e-22)
(1.0814 -0.565047 -3.68947e-21)
(1.07823 -0.586681 7.95767e-22)
(1.07959 -0.581625 -2.46318e-21)
(1.08378 -0.488265 6.57955e-22)
(1.08264 -0.534629 -5.18296e-22)
(1.08649 -0.347223 0)
(1.08514 -0.425539 -1.12737e-24)
(1.08969 -0.1565 0)
(1.08814 -0.256258 3.17526e-25)
(1.09171 0.0518796 0)
(1.091 -0.0525116 0)
(1.09142 0.245466 0)
(1.0919 0.152179 0)
(1.08808 0.40069 0)
(1.09032 0.328984 0)
(1.08056 0.503314 0)
(1.08492 0.45915 0)
(1.07033 0.550275 0)
(1.07574 0.533366 0)
(1.05994 0.555956 0)
(1.06518 0.556752 0)
(1.05037 0.546918 0)
(1.0552 0.551663 0)
(1.04074 0.543821 0)
(1.04575 0.543945 0)
(1.02962 0.551614 0)
(1.03553 0.546527 0)
(1.01552 0.565427 0)
(1.02312 0.558144 0)
(0.996099 0.578369 1.17863e-22)
(1.00671 0.57247 0)
(0.968217 0.580417 -1.06776e-21)
(0.983418 0.581619 0)
(0.928563 0.554093 -3.20047e-22)
(0.950265 0.572258 1.03218e-21)
(0.874948 0.475451 9.49965e-21)
(0.903812 0.523864 3.21011e-22)
(0.964003 0.221035 1.77639e-21)
(1.00994 0.231214 5.40882e-21)
(1.05968 -0.587094 0)
(0.889445 0.380519 -3.5581e-21)
(1.00144 -0.564918 6.38124e-22)
(0.993826 -0.55487 -1.12638e-21)
(0.902472 0.304631 0)
(0.91951 0.207243 -6.65367e-21)
(0.844709 0.408601 -6.78153e-21)
(0.833469 0.338784 -4.22473e-21)
(1.09846 -0.581769 2.18734e-21)
(0.942468 0.0949435 0)
(0.987578 0.10389 -1.71972e-21)
(1.0754 -0.583703 5.33766e-21)
(1.09192 -0.578266 -5.39171e-21)
(0.813972 0.324726 7.41869e-21)
(0.858878 0.357923 0)
(1.0206 -0.577942 3.24817e-22)
(1.01019 -0.572574 7.78315e-22)
(1.04429 -0.581379 0)
(1.0319 -0.580945 -4.22731e-23)
(1.07132 -0.575 0)
(1.05797 -0.579379 0)
(1.07652 0.360051 0)
(1.03519 0.116487 5.443e-21)
(1.05779 0.245484 -3.44098e-21)
(1.10444 0.529286 4.25914e-21)
(1.09184 0.455547 -6.02144e-21)
(1.11672 0.613372 -1.40495e-21)
(1.11303 0.581497 1.12973e-21)
(1.11308 0.631591 0)
(1.11663 0.628919 0)
(1.09929 0.613766 0)
(1.10704 0.625412 0)
(1.08071 0.583976 0)
(1.09037 0.599314 0)
(1.06017 0.555285 0)
(1.07059 0.569027 0)
(1.03872 0.532587 0)
(1.04954 0.543097 0)
(1.01606 0.51702 0)
(1.02762 0.523811 0)
(0.990317 0.51089 0)
(1.00373 0.512656 0)
(0.959772 0.51173 0)
(0.975632 0.511245 0)
(0.926103 0.50042 0)
(0.943058 0.509465 0)
(0.893734 0.449413 0)
(0.909449 0.481333 0)
(0.866702 0.345044 0)
(0.879327 0.403911 0)
(0.848088 0.194657 0)
(0.856145 0.274555 0)
(0.840708 0.0178088 0)
(0.842816 0.108071 0)
(0.846886 -0.161474 0)
(0.841976 -0.0731413 0)
(0.866592 -0.31892 0)
(0.855067 -0.244217 0)
(0.896371 -0.435556 0)
(0.880571 -0.383111 0)
(0.929541 -0.505116 0)
(0.91294 -0.47586 -2.3613e-23)
(0.960621 -0.536521 -6.76403e-22)
(0.945473 -0.524747 -3.0356e-22)
(0.987792 -0.543189 2.14605e-21)
(0.974804 -0.542161 0)
(1.10851 -0.561406 9.3465e-22)
(1.10352 -0.577336 -7.60597e-22)
(1.11741 -0.485466 0)
(1.11334 -0.531486 -9.1661e-22)
(1.1245 -0.344682 0)
(1.12115 -0.422862 0)
(1.13012 -0.154678 0)
(1.12755 -0.254103 0)
(1.13253 0.0523457 0)
(1.13192 -0.0511948 0)
(1.1298 0.244032 0)
(1.13186 0.151792 0)
(1.12169 0.396815 0)
(1.12643 0.326364 0)
(1.10853 0.497379 0)
(1.1157 0.454112 0)
(1.09228 0.543739 0)
(1.10062 0.526946 0)
(1.07597 0.549941 0)
(1.08403 0.550433 0)
(1.06103 0.541395 0)
(1.06839 0.545997 0)
(1.04662 0.537981 0)
(1.05391 0.538415 0)
(1.03096 0.544547 0)
(1.0391 0.54021 0)
(1.01216 0.556083 0)
(1.02212 0.550119 0)
(0.987743 0.565181 0)
(1.00088 0.561445 0)
(0.954782 0.56174 0)
(0.9725 0.565854 0)
(0.911701 0.530936 -1.12301e-21)
(0.93461 0.55083 0)
(0.858904 0.454882 -6.15951e-22)
(0.886056 0.499458 1.40243e-21)
(0.79962 0.314968 0)
(0.829894 0.39269 -3.14762e-21)
(0.967094 -0.0283753 -1.09547e-20)
(1.01477 -0.0161991 9.05673e-21)
(0.782956 0.225046 -1.12359e-20)
(0.768853 0.219398 -1.24633e-20)
(0.865685 0.282797 -1.46012e-21)
(0.804877 0.240115 4.20243e-21)
(1.08504 -0.568579 -4.72793e-21)
(0.879408 0.191095 0)
(0.999683 -0.541326 5.08472e-22)
(0.983478 -0.53002 -1.02155e-21)
(0.996789 -0.529546 4.54688e-22)
(0.899466 0.0827535 6.36213e-21)
(0.922437 -0.0373452 -6.93635e-21)
(0.757191 0.115345 2.21578e-22)
(0.948583 -0.160049 6.23332e-21)
(0.992203 -0.150264 -2.51254e-22)
(0.742456 0.110663 1.02478e-20)
(0.833095 0.260669 1.24138e-21)
(1.00961 -0.560535 -1.11682e-21)
(1.00399 -0.551867 1.05513e-21)
(1.02433 -0.571154 -2.93444e-22)
(1.01639 -0.566997 0)
(1.04339 -0.572322 -1.16999e-21)
(1.03327 -0.572944 0)
(1.06525 -0.563995 -5.8491e-22)
(1.05433 -0.569405 1.76987e-21)
(1.08476 0.13505 -5.28514e-21)
(1.03617 -0.137868 7.19886e-21)
(1.06251 -0.000482494 1.79211e-21)
(1.12498 0.374733 0)
(1.10718 0.261998 4.13678e-21)
(1.14813 0.536101 0)
(1.13857 0.466659 0)
(1.15157 0.612625 0)
(1.15233 0.58435 0)
(1.13898 0.624722 0)
(1.14685 0.624749 0)
(1.11742 0.603522 0)
(1.12889 0.616529 0)
(1.09259 0.572473 0)
(1.10519 0.588248 0)
(1.06711 0.543433 0)
(1.07986 0.557303 0)
(1.04151 0.520452 0)
(1.05434 0.531131 0)
(1.01516 0.503989 0)
(1.02852 0.511358 0)
(0.986041 0.495765 0)
(1.00112 0.498716 0)
(0.952026 0.494289 0)
(0.969661 0.494851 0)
(0.914599 0.48249 0)
(0.933447 0.491453 0)
(0.878824 0.433503 0)
(0.896132 0.464128 0)
(0.849609 0.332965 0)
(0.863138 0.389729 0)
(0.830214 0.187822 0)
(0.838492 0.264914 0)
(0.823271 0.0176346 0)
(0.825021 0.104404 0)
(0.830664 -0.154342 0)
(0.825092 -0.0696798 0)
(0.852001 -0.305197 0)
(0.839701 -0.233675 0)
(0.883687 -0.418117 0)
(0.866915 -0.36711 0)
(0.919457 -0.487836 -4.85883e-24)
(0.901423 -0.458005 4.86418e-24)
(0.953341 -0.520914 -4.8809e-23)
(0.936943 -0.50812 3.09175e-23)
(0.969046 -0.527692 -2.64579e-22)
(1.1188 -0.57402 -1.38426e-21)
(1.09919 -0.560163 5.79173e-21)
(1.10881 -0.570025 -2.34613e-21)
(1.13591 -0.555116 -2.07176e-22)
(1.12733 -0.570301 -1.96802e-22)
(1.15018 -0.480255 0)
(1.14334 -0.525939 0)
(1.16127 -0.340351 0)
(1.1561 -0.418129 0)
(1.16891 -0.151842 0)
(1.16562 -0.250351 0)
(1.17125 0.052392 0)
(1.17093 -0.0496032 0)
(1.16624 0.240739 0)
(1.16973 0.150172 0)
(1.15382 0.390263 0)
(1.16091 0.32142 0)
(1.13528 0.488137 0)
(1.1452 0.446069 0)
(1.11329 0.533481 0)
(1.12449 0.516943 0)
(1.09146 0.540266 0)
(1.10219 0.540337 0)
(1.07153 0.532597 0)
(1.08128 0.536817 0)
(1.05264 0.529268 0)
(1.0621 0.529802 0)
(1.03271 0.53485 0)
(1.04297 0.531149 0)
(1.00957 0.544263 0)
(1.0217 0.539533 0)
(0.980726 0.549778 0)
(0.996066 0.548047 0)
(0.943415 0.541255 0)
(0.96329 0.548081 0)
(0.896212 0.504654 0)
(0.921088 0.527463 0)
(0.840916 0.424784 0)
(0.869197 0.471047 0)
(0.784593 0.29418 1.31655e-21)
(0.812437 0.36546 0)
(0.732113 0.106521 0)
(0.75713 0.208063 5.76831e-21)
(0.973315 -0.276013 -3.77505e-21)
(1.01656 -0.263287 3.42959e-21)
(0.721942 -0.00241157 0)
(0.71244 -0.00114505 0)
(1.07664 -0.556718 0)
(0.842695 0.171318 -1.20752e-21)
(0.779754 0.130727 0)
(1.01038 -0.538041 2.06185e-22)
(1.00912 -0.527144 8.13365e-22)
(0.859306 0.0666568 1.44491e-21)
(0.737511 0.00141141 2.13858e-21)
(0.880623 -0.0489924 1.7003e-21)
(0.905759 -0.169161 -2.40399e-21)
(0.931559 -0.285487 0)
(1.11345 -0.548737 -1.00372e-21)
(0.707675 -0.114854 -6.41977e-21)
(0.954878 -0.391075 -8.95238e-21)
(0.993577 -0.37953 -6.76151e-21)
(0.698241 -0.107086 -1.34851e-21)
(1.08818 -0.547627 0)
(1.0999 -0.536649 2.87243e-21)
(0.808637 0.149744 -1.83469e-21)
(1.01647 -0.554715 0)
(1.01279 -0.547316 6.60615e-23)
(1.02676 -0.562945 1.43073e-22)
(1.0211 -0.559961 -1.35156e-22)
(1.04129 -0.562219 6.832e-23)
(1.03351 -0.563675 0)
(1.05859 -0.552151 0)
(1.04977 -0.558287 -6.9523e-23)
(1.07721 -0.533833 3.74183e-21)
(1.06774 -0.543751 -1.93772e-21)
(1.08412 -0.116179 -3.48722e-21)
(1.03362 -0.361443 -3.18944e-21)
(1.05982 -0.245162 -2.01493e-22)
(1.13574 0.153592 -4.66908e-23)
(1.11065 0.0181977 0)
(1.17427 0.388207 0)
(1.15723 0.279032 -2.47195e-21)
(1.19095 0.540446 1.3293e-21)
(1.18571 0.47557 -1.66648e-21)
(1.1851 0.607788 0)
(1.19054 0.584003 0)
(1.16349 0.613503 0)
(1.17572 0.61621 0)
(1.13445 0.58971 0)
(1.14945 0.603628 0)
(1.10381 0.558202 0)
(1.11912 0.574048 0)
(1.07382 0.529334 0)
(1.0887 0.543106 0)
(1.04449 0.506363 0)
(1.05911 0.517085 0)
(1.01489 0.489218 0)
(1.02982 0.497062 0)
(0.982889 0.479021 0)
(0.999373 0.483119 0)
(0.946062 0.475121 0)
(0.965124 0.476811 0)
(0.90561 0.462711 0)
(0.925988 0.471627 0)
(0.867054 0.416026 0)
(0.885668 0.445152 0)
(0.836093 0.320053 0)
(0.850329 0.374314 0)
(0.81629 0.180937 0)
(0.824614 0.254865 0)
(0.809963 0.0178962 0)
(0.811291 0.100981 0)
(0.818524 -0.146466 0)
(0.812351 -0.0655752 0)
(0.841217 -0.29084 0)
(0.828261 -0.22235 0)
(0.874305 -0.400039 0)
(0.856833 -0.350464 0)
(0.911982 -0.469384 5.54341e-22)
(0.892949 -0.439374 -5.46769e-22)
(0.948102 -0.504051 -2.24292e-22)
(0.930313 -0.490044 2.97779e-22)
(0.980603 -0.515522 0)
(0.964968 -0.511936 -1.06969e-22)
(1.0087 -0.514954 -1.81661e-21)
(0.995218 -0.516225 -3.93353e-22)
(1.13875 -0.56324 -6.85104e-22)
(1.12599 -0.558819 1.20784e-21)
(1.1621 -0.545669 2.07759e-22)
(1.15073 -0.560036 8.56779e-22)
(1.18171 -0.472772 0)
(1.17254 -0.51731 0)
(1.19638 -0.334853 0)
(1.18971 -0.411603 0)
(1.20556 -0.148817 0)
(1.20176 -0.245952 0)
(1.20746 0.0516266 0)
(1.2076 -0.0483186 0)
(1.20012 0.235563 0)
(1.20502 0.147195 0)
(1.18374 0.38119 0)
(1.19298 0.314188 0)
(1.16032 0.476264 0)
(1.17275 0.435416 0)
(1.13315 0.520615 0)
(1.14695 0.504313 0)
(1.10626 0.528095 0)
(1.11947 0.527677 0)
(1.08172 0.521455 0)
(1.0937 0.525213 0)
(1.05864 0.518299 0)
(1.07014 0.518896 0)
(1.0347 0.522881 0)
(1.04694 0.519828 0)
(1.00754 0.530115 0)
(1.02168 0.526638 0)
(0.974701 0.532092 0)
(0.992018 0.532312 0)
(0.933693 0.518909 0)
(0.955352 0.52816 0)
(0.883544 0.477669 0)
(0.909739 0.502699 0)
(0.826835 0.395325 0)
(0.855658 0.442363 0)
(0.770117 0.2664 0)
(0.798069 0.336534 0)
(0.721892 0.0947663 2.33842e-21)
(0.744134 0.185699 -1.20086e-21)
(0.690875 -0.0990077 -9.37312e-21)
(0.704088 -0.00219791 2.3757e-21)
(0.68995 -0.204857 0)
(0.684723 -0.187795 4.9105e-21)
(0.974028 -0.478495 3.16981e-21)
(1.01017 -0.461198 1.03572e-22)
(0.821968 0.0490107 1.31361e-21)
(0.75979 0.0132844 -2.04548e-21)
(1.0866 -0.522563 1.40044e-21)
(0.840966 -0.0637093 -1.44922e-21)
(0.722199 -0.115209 9.25186e-22)
(1.02148 -0.512902 8.00369e-22)
(1.00952 -0.501431 1.89443e-22)
(1.02338 -0.500409 -3.44724e-22)
(0.865534 -0.179637 1.57573e-21)
(0.699148 -0.222268 6.42858e-21)
(0.890524 -0.295753 3.28194e-21)
(0.693039 -0.295141 0)
(0.916845 -0.400303 3.13712e-21)
(0.93917 -0.489578 0)
(0.95766 -0.555888 4.86858e-21)
(0.988749 -0.540944 -4.61108e-21)
(0.788543 0.0311359 6.07871e-22)
(1.02016 -0.534074 2.42505e-22)
(1.02041 -0.5242 0)
(1.02226 -0.548524 -5.27848e-22)
(1.02068 -0.542286 0)
(1.02819 -0.554752 0)
(1.02474 -0.552719 6.54136e-22)
(1.03811 -0.552161 0)
(1.03269 -0.554554 0)
(1.0509 -0.540697 3.78651e-24)
(1.04427 -0.547504 0)
(1.06528 -0.521037 0)
(1.05795 -0.531748 0)
(1.07486 -0.338163 2.74328e-21)
(1.01949 -0.52157 0)
(1.04631 -0.439684 -7.89351e-23)
(1.13372 -0.0911365 0)
(1.1037 -0.221324 1.49986e-21)
(1.18694 0.174956 0)
(1.16157 0.0437899 0)
(1.22291 0.400326 -1.38008e-21)
(1.20806 0.296626 0)
(1.23201 0.541749 0)
(1.23091 0.482881 1.69041e-21)
(1.21648 0.598079 0)
(1.22682 0.579149 0)
(1.18595 0.59808 0)
(1.20242 0.603002 0)
(1.14998 0.572689 0)
(1.16819 0.587031 0)
(1.11416 0.541512 0)
(1.13187 0.557071 0)
(1.08021 0.513327 0)
(1.09695 0.526779 0)
(1.04765 0.490662 0)
(1.06382 0.501298 0)
(1.01528 0.473054 0)
(1.03154 0.481265 0)
(0.980947 0.461036 0)
(0.998545 0.466224 0)
(0.941988 0.454663 0)
(0.962124 0.457527 0)
(0.899186 0.441619 0)
(0.92077 0.450467 0)
(0.858373 0.397576 0)
(0.878051 0.424982 0)
(0.826057 0.306755 0)
(0.840819 0.358208 0)
(0.806116 0.17422 0)
(0.814366 0.244717 0)
(0.800534 0.0186335 0)
(0.80142 0.0979156 0)
(0.810183 -0.138056 0)
(0.80345 -0.0609452 0)
(0.83396 -0.276005 0)
(0.820482 -0.210485 0)
(0.868045 -0.381394 0)
(0.85006 -0.333327 0)
(0.906698 -0.449762 0)
(0.887187 -0.420043 0)
(0.94475 -0.486134 -5.5418e-23)
(0.926047 -0.471198 0)
(0.979162 -0.499844 -3.9384e-22)
(0.962431 -0.495034 4.91793e-22)
(0.994715 -0.501618 -1.88387e-22)
(1.12735 -0.534804 0)
(1.09624 -0.509621 -4.07856e-21)
(1.11151 -0.522811 1.64394e-21)
(1.1579 -0.549325 0)
(1.1425 -0.544553 0)
(1.18697 -0.53322 0)
(1.17289 -0.546573 0)
(1.21139 -0.462989 0)
(1.19994 -0.506151 0)
(1.22913 -0.32811 0)
(1.22118 -0.403307 0)
(1.23929 -0.145652 0)
(1.23524 -0.240886 0)
(1.2404 0.0500876 0)
(1.24113 -0.0473618 0)
(1.23074 0.22876 0)
(1.23699 0.143004 0)
(1.2107 0.36987 0)
(1.2219 0.304972 0)
(1.18295 0.461962 0)
(1.19759 0.422372 0)
(1.1513 0.505428 0)
(1.16734 0.489287 0)
(1.12001 0.513812 0)
(1.13539 0.512795 0)
(1.09134 0.508383 0)
(1.10534 0.511598 0)
(1.06443 0.505477 0)
(1.07781 0.506111 0)
(1.03681 0.509031 0)
(1.05087 0.50665 0)
(1.006 0.51402 0)
(1.02196 0.511823 0)
(0.969624 0.512499 0)
(0.988669 0.514624 0)
(0.925571 0.494985 0)
(0.94866 0.506446 0)
(0.873352 0.449857 0)
(0.900422 0.476678 0)
(0.815805 0.365892 0)
(0.844927 0.413319 0)
(0.758911 0.238603 0)
(0.786855 0.307592 0)
(0.712332 0.0750256 0)
(0.733447 0.16028 0)
(0.686977 -0.0993614 9.84878e-22)
(0.696688 -0.0123021 0)
(0.68564 -0.183174 3.43015e-21)
(0.969503 -0.598477 2.51708e-21)
(0.996756 -0.579932 2.09277e-21)
(1.07272 -0.509058 -1.69065e-21)
(0.804793 -0.0774107 5.51908e-23)
(0.745017 -0.103932 0)
(1.03346 -0.511124 6.58296e-22)
(1.03672 -0.499165 -9.46461e-23)
(0.826727 -0.191517 -2.15e-23)
(0.715384 -0.224108 -9.29876e-22)
(0.852321 -0.304106 0)
(0.701855 -0.312653 0)
(0.879607 -0.407483 0)
(0.71345 -0.360005 0)
(0.904941 -0.496159 -5.47213e-21)
(0.926555 -0.565186 0)
(0.943176 -0.611676 -7.06207e-21)
(0.736359 -0.384582 1.78187e-21)
(1.10525 -0.494406 1.50439e-21)
(0.95513 -0.633108 -3.7694e-21)
(0.976693 -0.618065 0)
(1.08072 -0.496036 -2.12376e-21)
(1.08823 -0.481263 6.57946e-22)
(0.772702 -0.0907385 0)
(1.02857 -0.530866 0)
(1.03066 -0.521761 -1.0938e-21)
(1.02689 -0.543277 0)
(1.02738 -0.538047 0)
(1.02864 -0.54743 0)
(1.02733 -0.546409 0)
(1.03411 -0.543069 0)
(1.03092 -0.546332 0)
(1.04251 -0.530276 -3.72871e-24)
(1.038 -0.53773 0)
(1.05311 -0.509474 9.94083e-22)
(1.04761 -0.520761 -1.0322e-22)
(1.06506 -0.483138 1.41233e-21)
(1.05881 -0.496717 -2.23038e-21)
(1.05183 -0.494959 -5.64732e-22)
(0.99884 -0.596824 1.69398e-21)
(1.02385 -0.556574 -1.69156e-21)
(1.11638 -0.308957 -1.26069e-21)
(1.08337 -0.411494 1.80693e-21)
(1.18252 -0.0622371 1.48276e-21)
(1.14991 -0.190935 -1.4414e-21)
(1.23815 0.1975 0)
(1.21253 0.070422 -1.46685e-21)
(1.26959 0.409929 0)
(1.25772 0.313021 0)
(1.26992 0.536941 0)
(1.27359 0.484795 0)
(1.24458 0.583216 0)
(1.25976 0.568591 0)
(1.20576 0.578746 0)
(1.2261 0.585266 0)
(1.16368 0.552802 0)
(1.18469 0.567082 0)
(1.12344 0.522697 0)
(1.14319 0.537637 0)
(1.08615 0.495656 0)
(1.10445 0.508587 0)
(1.05089 0.473563 0)
(1.06835 0.483998 0)
(1.01623 0.455709 0)
(1.03359 0.464175 0)
(0.98009 0.442091 0)
(0.998529 0.448271 0)
(0.939665 0.433251 0)
(0.960523 0.437324 0)
(0.89523 0.419449 0)
(0.917673 0.428279 0)
(0.852673 0.378243 0)
(0.873192 0.403773 0)
(0.819285 0.29314 0)
(0.834451 0.341477 0)
(0.799364 0.167734 0)
(0.807471 0.234553 0)
(0.794589 0.0199048 0)
(0.795016 0.095262 0)
(0.805231 -0.129138 0)
(0.798008 -0.0557751 0)
(0.829817 -0.260751 0)
(0.815966 -0.198148 0)
(0.864488 -0.362298 0)
(0.846218 -0.315794 0)
(0.903829 -0.429693 0)
(0.883921 -0.400167 0)
(0.94297 -0.467064 0)
(0.923636 -0.451657 0)
(0.978887 -0.482999 -3.71693e-22)
(0.961306 -0.477215 3.29966e-22)
(1.01112 -0.486748 -1.08977e-22)
(0.995468 -0.485891 3.74493e-23)
(1.04037 -0.485911 -1.03193e-23)
(1.02602 -0.486478 -6.87597e-22)
(1.14004 -0.518419 0)
(1.1228 -0.506556 -9.94129e-22)
(1.1758 -0.532646 0)
(1.15809 -0.527549 0)
(1.20989 -0.518285 0)
(1.19329 -0.530576 0)
(1.23863 -0.451338 0)
(1.22518 -0.492693 0)
(1.25891 -0.320519 0)
(1.24996 -0.393631 0)
(1.2695 -0.142597 0)
(1.26548 -0.235472 0)
(1.2695 0.047647 0)
(1.27094 -0.0469248 0)
(1.25752 0.220444 0)
(1.26507 0.137596 0)
(1.23419 0.356592 0)
(1.24713 0.293989 0)
(1.20269 0.445523 0)
(1.21923 0.407249 0)
(1.16726 0.488117 0)
(1.18518 0.472114 0)
(1.1323 0.497532 0)
(1.1495 0.495841 0)
(1.1001 0.493473 0)
(1.11584 0.496066 0)
(1.06981 0.490928 0)
(1.08486 0.491551 0)
(1.03892 0.493486 0)
(1.05461 0.491768 0)
(1.00488 0.496249 0)
(1.02244 0.495316 0)
(0.965485 0.49137 0)
(0.985993 0.495305 0)
(0.918987 0.469856 0)
(0.943198 0.483338 0)
(0.86531 0.421346 0)
(0.892958 0.449679 0)
(0.807509 0.336431 0)
(0.836608 0.383904 0)
(0.751892 0.212164 0)
(0.778928 0.279086 0)
(0.708356 0.0570478 0)
(0.727876 0.137352 0)
(0.686094 -0.106987 0)
(0.694115 -0.0248358 0)
(0.698604 -0.254864 0)
(0.687 -0.185843 -4.60564e-22)
(0.960048 -0.636513 0)
(0.977343 -0.618393 -1.15032e-21)
(0.771077 -0.392304 -4.42726e-21)
(0.786547 -0.369357 -2.60727e-21)
(0.791862 -0.201667 -1.36718e-21)
(0.735651 -0.217998 0)
(1.07126 -0.468563 1.22964e-21)
(0.816112 -0.31169 1.39678e-21)
(0.715703 -0.319842 0)
(1.05448 -0.485887 4.42492e-23)
(1.04463 -0.471587 7.48422e-23)
(1.05978 -0.47183 -7.50597e-23)
(0.843388 -0.41361 0)
(0.716199 -0.384541 6.81879e-22)
(0.870531 -0.501876 3.28297e-21)
(0.732318 -0.414695 -3.81551e-21)
(0.895788 -0.570911 2.61984e-21)
(0.762196 -0.418632 1.78495e-21)
(0.917125 -0.61804 2.19968e-21)
(0.932558 -0.643893 3.75141e-21)
(0.942552 -0.649715 1.65476e-22)
(0.959026 -0.624984 2.54239e-21)
(0.946336 -0.640642 -6.28667e-22)
(0.809737 -0.405249 0)
(0.821956 -0.378115 -1.38011e-22)
(0.761275 -0.210741 0)
(1.04469 -0.510359 -1.16673e-22)
(1.04946 -0.498742 9.81099e-23)
(1.03655 -0.528581 -4.6025e-22)
(1.04032 -0.520348 9.0471e-22)
(1.03068 -0.539408 0)
(1.03327 -0.535042 0)
(1.02818 -0.54175 0)
(1.029 -0.541635 0)
(1.02925 -0.535675 0)
(1.02828 -0.53977 0)
(1.03358 -0.521304 0)
(1.03104 -0.529393 0)
(1.04043 -0.499597 0)
(1.0367 -0.511268 -1.07553e-22)
(1.04916 -0.47217 0)
(1.04456 -0.486301 0)
(1.02151 -0.570691 0)
(0.97152 -0.604956 -4.71639e-22)
(0.994299 -0.595985 -1.00357e-21)
(1.08554 -0.461989 5.03537e-22)
(1.05098 -0.527682 1.53232e-21)
(1.15912 -0.273788 0)