/*--------------------------------*- C++ -*----------------------------------*\
  =========                 |
  \\      /  F ield         | OpenFOAM: The Open Source CFD Toolbox
   \\    /   O peration     | Website:  https://openfoam.org
    \\  /    A nd           | Version:  10
     \\/     M anipulation  |
\*---------------------------------------------------------------------------*/
FoamFile
{
    format      ascii;
    class       surfaceScalarField;
    location    "21";
    object      phi;
}
// * * * * * * * * * * * * * * * * * * * * * * * * * * * * * * * * * * * * * //

dimensions      [0 3 -1 0 0 0 0];

internalField   nonuniform List<scalar> 
12623
(
0.0955004
0.0218685
-0.034809
-0.0825599
0.0743124
-0.0366992
0.0578872
0.0805183
0.00618959
-0.0756005
-0.0111074
0.00567162
0.0779736
-0.00312692
-0.076699
-0.0047674
0.00883495
0.0726315
-0.0782745
0.00724703
-9.65639e-05
0.0423223
-0.0484662
0.00624048
-0.047556
0.0474595
-0.0155309
-0.00716564
0.0226965
-0.00865602
-0.00840953
0.00153467
0.0972944
-0.0417817
-0.0555126
-0.0630972
0.0534262
0.106965
-0.0265556
-0.0172792
0.0197042
0.0241306
0.00309661
0.0051677
-0.0348199
-0.0227126
0.00853004
0.00732172
-0.00410834
-0.00778903
0.00457565
-0.00444861
-0.00497405
0.0167444
-0.00686863
-0.00168832
-0.00255035
-0.0138398
0.00350177
0.0128883
-0.025788
0.00429684
0.0189409
-0.0210784
-0.0185494
0.00250527
0.00975818
-0.0117707
-0.0004927
-0.000830926
-0.000776055
0.00411225
-0.0175542
0.0264814
-0.0418116
0.00486555
0.0421138
0.00679207
-0.0473504
-0.00125329
-0.0539888
0.00501789
0.0538365
-0.0844754
-0.0331018
0.0332841
0.0842931
-0.0840742
0.0360946
-0.0364958
-0.0895917
0.0867584
0.0317816
-0.0289484
-0.08704
-0.0356535
-0.0781026
0.00361641
0.00118677
0.0732994
0.00156997
-0.0778847
-0.00178786
0.0747762
-0.078919
0.00734211
-0.0048745
0.0764514
-0.00480529
-0.0783711
0.00425738
-0.0802791
-0.000882834
0.0763567
-0.0782277
0.00156501
0.0789989
-0.011935
-0.0840911
0.0170272
-0.00913907
0.0187525
0.0693854
-0.0795557
-0.00916308
0.0767839
-0.0799166
0.00770297
-0.0289106
0.0308515
0.0848175
-0.0817172
-0.0105075
0.0143724
0.0778523
0.0131424
-0.0826934
-0.0121662
0.00813339
-0.0802182
-0.0778789
0.0121114
0.0730146
-0.0802531
0.000221548
-0.0685373
-0.00397864
0.0722944
0.0566417
0.0154916
-0.0719118
-0.0519639
0.00925406
0.0993516
-0.0326805
0.0913339
-0.0729127
0.0142592
-0.0691528
0.074187
0.0167703
-0.0152106
-0.0757467
0.0194571
0.072409
-0.0176791
-0.0107243
0.00720859
0.0807928
-0.077277
-0.0830542
0.0827742
-0.0104444
0.0814844
-0.00755917
0.00848812
-0.0824133
0.0710472
-0.068992
-0.00356396
0.00150879
0.0128557
0.0741345
-0.015943
-0.0672757
-0.0197872
0.0180709
-0.0672374
-0.0325228
0.0324845
-0.0673132
-0.0415161
0.0415919
-0.0697846
-0.0453675
0.0478389
-0.0710837
-0.0456147
0.0469139
-0.0736558
-0.0438363
0.0464084
-0.0739503
-0.0434148
0.0437093
-0.0448423
-0.0735846
0.0444767
0.0703927
-0.0672847
0.00974774
0.0267312
0.0777009
-0.0302976
0.0742899
0.022834
-0.0655466
-0.00530208
-0.0652354
-0.0200985
-0.0649706
-0.0327876
-0.0670579
-0.0394288
-0.0689711
-0.0434543
-0.0723521
-0.0422338
-0.0739951
-0.0421933
-0.0757132
-0.0416966
-0.0758227
-0.0447328
-0.0345824
0.076869
0.0320033
0.0803775
-0.037259
-0.0470345
-0.0734744
0.0469242
-0.0777986
-0.0450586
-0.0387741
0.0787943
0.0368488
0.0837978
-0.0421945
-0.0471007
-0.0733835
0.0470098
-0.0776572
-0.0472421
-0.0391044
0.0804953
0.0374035
-0.0393808
-0.0452079
-0.0719385
0.0437629
-0.0779494
-0.0449158
0.0814089
0.035181
0.0338918
0.0808012
-0.0412278
0.0380856
-0.0687963
-0.042057
-0.0771201
0.0744501
-0.0752039
0.0381573
-0.0702661
0.0718163
0.0323416
0.0393649
0.073634
-0.0704543
0.0288235
0.0352789
0.0671271
-0.0645599
0.00718057
0.0195069
0.0635491
-0.0631498
-0.0204978
-0.00631289
0.0651577
-0.0669135
-0.037673
-0.0307797
0.0708891
-0.0734835
-0.0396394
-0.0394786
0.0772042
-0.078497
-0.0404038
-0.0384727
0.0808089
-0.0818661
-0.0440014
-0.0424209
0.0841661
-0.083886
-0.0451959
-0.0449421
-0.0833833
-0.0425597
-0.0695219
0.0723865
0.0441453
0.0677716
0.0349943
-0.0646803
0.0420126
-0.073255
0.0744524
0.0432793
0.0460557
-0.0734578
0.0732055
0.0466606
0.0447039
-0.0711272
0.0714955
0.0474706
0.0489922
-0.0706031
0.0719634
0.0311242
0.0424843
-0.0744807
0.0761232
-0.000133677
0.0155536
-0.0803579
0.0797242
-0.0296639
-0.0201778
-0.0833669
0.0832238
-0.0420514
-0.0409017
-0.0870504
-0.0364854
-0.0432074
-0.0325952
0.0330062
0.0803902
0.0834795
0.0373994
0.0674231
0.0345214
-0.0809894
-0.0369154
0.0305976
-0.0731964
-0.0617722
0.065948
0.0308185
0.0246649
-0.027957
-0.0613883
-0.0582205
0.0211132
-0.0268916
0.0222857
-0.0763834
-0.0879626
0.0889461
-0.0378989
-0.0299237
-0.0849305
0.0887665
-0.0871683
-0.0305465
0.0694754
-0.0729935
0.0358597
0.0692372
0.0376376
0.0857124
-0.0258565
-0.0661557
0.0708256
-0.0696237
0.0369553
0.0371971
0.0678799
-0.0657486
0.0266922
0.0335352
0.0641667
-0.0620394
0.00505328
0.017925
0.0614072
-0.0624606
-0.0194444
-0.00694511
0.0645591
-0.067844
-0.0343881
-0.0286812
0.0713745
-0.0750693
-0.0359445
-0.0359482
0.0777559
-0.0804356
-0.037724
-0.0357862
0.0826959
-0.0850285
-0.0416688
-0.0401606
0.0873343
-0.0890963
-0.0434339
-0.0426363
-0.0427099
-0.0703599
0.0732086
0.0412966
0.0376008
-0.0764116
0.0771085
0.0425825
0.0428527
-0.0775375
0.076468
0.0477302
0.0442749
-0.0779158
0.0761039
0.0492825
0.0475443
-0.0777945
0.0774465
0.0314721
0.0407937
-0.0788081
0.0819489
-0.00327451
0.0141921
-0.0807937
0.0840291
-0.0328994
-0.0190225
-0.0824375
0.0825678
-0.0421816
-0.0393101
-0.082348
0.0881021
-0.0422395
-0.0429876
-0.0347197
-0.0329849
0.0427046
0.0706705
0.0813461
-0.0409955
0.0683366
0.0418962
0.0691322
-0.0110724
0.0072464
-0.0543944
-0.0144023
-0.0580584
0.0179189
-0.0688296
-0.0952232
0.0943242
-0.0369999
-0.093129
-0.032018
0.0119659
-0.0167702
-0.0801261
0.00703675
-0.0714543
-0.0526093
0.0556817
0.00417399
-0.00692183
0.00515082
-0.0526234
-0.0516701
-0.00786104
-0.0252703
0.0331854
0.0769024
0.0818995
-0.0214573
0.0391458
-0.0397705
0.0689613
0.0696421
-0.0691478
0.0414019
0.0707034
0.0380845
-0.0878943
-0.0235666
0.0856043
-0.0843034
-0.0341374
-0.0626391
0.0687902
-0.0691634
0.0362329
0.03728
0.0690546
-0.0677451
0.0356458
0.0370882
0.066221
-0.0644079
0.0248791
0.032011
0.0615697
-0.0608117
0.00429531
0.0150868
0.060357
-0.0611542
-0.0186471
-0.00739983
0.0639344
-0.0668432
-0.0314793
-0.025901
0.0711883
-0.0743558
-0.032777
-0.0316031
0.0779495
-0.0804003
-0.0352732
-0.0321925
0.0843912
-0.086802
-0.039258
-0.0361697
0.0902296
-0.0918444
-0.0418191
-0.0392087
-0.0402301
-0.060498
0.0647256
0.0265908
0.0162969
-0.0689837
0.0729004
0.0373798
0.0333427
-0.0768324
0.0772336
0.0421813
0.0389207
-0.0794632
0.0796167
0.0475767
0.0420452
-0.0802416
0.0809146
0.0486095
0.0469195
-0.0817205
0.0828316
0.0303611
0.0399877
-0.0840233
0.0852377
-0.00448895
0.0130004
-0.0859348
0.0860848
-0.0330494
-0.0197196
-0.084629
0.0854334
-0.042986
-0.0378543
-0.0833279
0.0814869
-0.0403985
-0.0408821
-0.0375362
-0.0382068
0.0398274
0.0690499
0.0763247
0.0691891
-0.0890625
-0.0208367
0.00211472
-0.0550223
0.00221992
-0.0640128
0.0194924
-0.0185257
-0.0526368
0.0194597
-0.0525907
-0.00537828
-0.000830553
-0.0739173
-0.010576
-0.0662566
0.0407561
-0.0408748
0.0690799
0.0388412
0.0726182
-0.0276817
0.0363446
0.0682394
-0.0218469
0.0760647
0.0787782
-0.08155
-0.0313656
-0.0265897
0.0818014
0.07203
-0.0701206
0.0394925
0.0734488
0.0366658
-0.0837371
-0.00615591
-0.0172664
0.00960533
-0.0760761
-0.0233236
-0.0678601
0.0828934
-0.0187464
-0.0583044
0.069941
-0.0713477
0.0376396
0.0371003
0.0699294
-0.0684194
0.0341358
0.0356699
0.0648158
-0.0627206
0.022784
0.0284074
0.0608114
-0.0596971
0.00318103
0.0131776
0.0597212
-0.0611172
-0.0172512
-0.00737577
0.0637716
-0.0675154
-0.0277355
-0.0232466
0.0714432
-0.0751358
-0.0290844
-0.0276753
0.0781709
-0.0811461
-0.032298
-0.0291574
0.0843449
-0.0879801
-0.0356228
-0.032971
0.0915465
-0.0950997
-0.0382659
-0.0356423
0.097809
-0.0993945
-0.0354144
-0.0375208
0.0992572
-0.0978547
-0.0222393
-0.0321553
0.0918766
-0.0858601
0.00358889
-0.012134
-0.0527075
0.0551068
0.00177473
0.0517256
-0.0539696
-0.0162818
-0.00884294
-0.0589973
0.0638174
0.0217708
0.0124064
-0.0686906
0.0717011
0.0343693
0.0284695
-0.0754432
0.0778956
0.039729
0.0351786
-0.0795419
0.080982
0.0461365
0.040399
-0.0823547
0.0839407
0.0470234
0.0455469
-0.085559
0.0874151
0.028505
0.0383695
-0.0890974
0.0904922
-0.00588378
0.0113181
-0.0910205
0.0905732
-0.0326022
-0.0202478
-0.0898016
0.0868177
-0.0400021
-0.0370827
-0.0851417
0.0826414
-0.0378983
-0.039206
-0.0364447
-0.0423658
0.0421491
0.0692666
0.0703036
0.0704635
-0.0249438
0.0283212
-0.0560142
-0.0585356
-0.0203778
0.026202
-0.0323481
-0.0699299
-0.0772812
0.017623
0.0179331
-0.0534957
-0.0151418
-0.059447
0.0395648
0.0727252
-0.0157429
0.0767894
0.0813553
-0.0816721
-0.0310489
0.0803708
-0.0256052
0.0307608
-0.0550303
-0.0281783
-0.0614018
0.0266121
-0.0216891
-0.0634586
0.0319631
-0.0613652
-0.0382374
-0.0619708
0.0353598
-0.0437327
-0.0615571
0.0282947
-0.070216
0.0828351
-0.0197801
-0.0555132
0.0765368
-0.0747299
0.0376857
-0.0746656
0.0761845
0.0380459
0.0385369
0.0753649
-0.0733142
0.035589
0.0377353
0.0710976
-0.0681279
0.0311661
0.0334533
0.0652715
-0.0625805
0.020093
0.025551
0.0606231
-0.0595714
0.00212936
0.0112201
0.0597712
-0.06141
-0.0156124
-0.00717594
0.0642865
-0.0681608
-0.0238612
-0.0203701
0.0719833
-0.0754607
-0.025607
-0.0238528
0.0783647
-0.0814283
-0.0292344
-0.0262534
0.0847575
-0.0885156
-0.0318647
-0.0296417
0.0923026
-0.0964067
-0.0341618
-0.0318554
0.100596
-0.102436
-0.0335744
-0.0333318
0.105125
-0.103049
-0.0243143
-0.0294664
0.100764
-0.0951882
-0.00198679
-0.0144197
0.0877384
-0.0790646
0.0196209
0.0101733
-0.0568236
0.0538961
-0.0133543
0.0614655
-0.065799
-0.0173556
-0.0157359
-0.0531218
0.0552743
-0.000377699
-0.00806867
-0.0589574
0.0627774
0.0179508
0.00872329
-0.0676551
0.0719881
0.0300363
0.0235917
-0.0753203
0.0780112
0.037038
0.0318464
-0.0800672
0.0821393
0.0440644
0.038343
-0.0842389
0.0866635
0.0445988
0.0434472
-0.0890927
0.0917144
0.0258832
0.0359404
-0.0939209
0.0954794
-0.00744227
0.00911163
-0.0957584
0.0946934
-0.0315371
-0.0205269
-0.0922162
0.0903894
-0.0381753
-0.0346055
-0.0873294
0.0844133
-0.0349821
-0.0361461
-0.0337035
-0.0235496
0.0276807
-0.0675897
-0.0687894
-0.0205592
0.0345671
-0.0432707
-0.0615124
-0.0701879
0.0256904
0.0802345
-0.0221026
-0.0222437
0.0271573
0.0718758
0.0723632
-0.036986
0.0377202
0.0675052
0.066236
-0.0408953
0.0421738
0.067988
0.0671285
-0.0421411
0.0410067
0.0702143
0.0704963
-0.0398839
0.0389266
0.0736825
0.073741
0.0381938
0.0769173
0.0313856
-0.0541205
-0.0307304
-0.0568949
0.0359056
-0.0589728
-0.0412448
-0.0583944
0.0319166
-0.0656011
-0.047149
-0.0585544
0.0269981
-0.023848
-0.0719395
0.0296886
-0.0702803
-0.0484611
-0.0563667
-0.0365439
0.0286447
-0.0622888
-0.0440344
-0.0540219
0.0778231
-0.0778963
0.0381191
0.0797193
0.0362976
-0.054858
0.0771034
-0.0771152
0.0376974
0.0377441
0.0757631
-0.0748532
0.034679
0.0363832
0.0717487
-0.0686449
0.0280622
0.0303489
0.0656865
-0.0629527
0.0173592
0.0225927
0.0610211
-0.060068
0.00117627
0.0092885
0.0604335
-0.0623054
-0.0137405
-0.00681049
0.0653521
-0.0691814
-0.0200319
-0.0173233
0.0727139
-0.0758314
-0.0224896
-0.0203203
0.0785616
-0.0816224
-0.0261736
-0.0235232
0.084922
-0.0885614
-0.0282253
-0.0263421
0.0922829
-0.0965075
-0.0299372
-0.0281339
0.100815
-0.104982
-0.0294078
-0.0290239
0.108034
-0.109154
-0.0231936
-0.0264146
0.107879
-0.103293
-0.00657217
-0.0156955
0.0965661
-0.0897756
0.0128305
0.0034461
0.0823495
-0.0755852
0.0218804
0.0182643
-0.0679279
0.0651219
-0.0145496
0.0703681
-0.0731945
-0.0210216
-0.018119
-0.0609725
0.0570372
-0.00941894
-0.0115865
-0.0549679
0.0554634
-0.000873162
-0.00599939
-0.0583405
0.0626221
0.0136693
0.00584615
-0.0670399
0.071381
0.0256953
0.0191739
-0.074809
0.0777556
0.0340914
0.0284184
-0.0802256
0.0828944
0.0413956
0.035873
-0.0856583
0.0888777
0.0413794
0.0406833
-0.0921309
0.0955869
0.0224272
0.0326872
-0.0982999
0.0999105
-0.00905293
0.00639862
-0.0998182
0.0981008
-0.0298198
-0.0204345
-0.0954561
0.0921403
-0.0348596
-0.0319607
-0.08816
0.0854665
-0.0322887
-0.0321657
-0.0823268
0.0792388
-0.0279609
-0.0305637
-0.0790018
0.078153
-0.0212539
-0.0253682
-0.0142662
-0.0243553
0.0311035
0.0651276
0.0167491
0.0732146
0.0647571
-0.0334668
0.0356324
0.0653396
0.0638727
-0.0375318
0.0374638
0.068056
0.0652291
-0.0386132
0.0364503
0.0723773
0.0693469
-0.036723
0.0348173
0.0755883
0.0734683
-0.0269412
0.0303685
-0.0753668
-0.0764689
-0.0236668
0.0288943
-0.0362489
-0.0549341
-0.0693695
0.0226786
-0.0347081
0.033907
0.0805204
0.0770264
0.0394329
-0.0576477
-0.0414119
-0.0567278
0.0370101
-0.0640663
-0.0481507
-0.0573927
0.0332075
-0.06912
-0.0510493
-0.0559663
0.0336905
-0.0736023
-0.0488489
-0.0515522
0.0291051
-0.0258519
-0.0797221
0.0330491
-0.0793108
-0.0424242
-0.0478466
-0.0256638
-0.0641777
0.0204719
-0.0327801
-0.0478179
-0.080664
0.077163
-0.0223509
-0.027616
0.0312046
-0.0833107
-0.0837425
-0.0245375
0.0188162
-0.0224579
-0.060536
-0.0808486
0.0847476
0.016573
-0.0778259
0.0157935
0.0845612
-0.0825919
0.0319378
0.0260403
-0.0286588
0.0831389
0.0833115
0.02729
-0.056837
0.0811882
-0.0818005
0.0387313
0.0348939
0.0811829
-0.0803729
0.0368874
0.0371266
0.0780123
-0.0753162
0.0319829
0.0340226
0.0725117
-0.0694205
0.024971
0.0275444
0.06648
-0.0637841
0.0146633
0.0196522
0.0619125
-0.0610809
0.000344676
0.00741684
0.0616549
-0.0637682
-0.0116271
-0.00623648
0.0668765
-0.0704267
-0.0164817
-0.014215
0.0734671
-0.0761614
-0.0197953
-0.01728
0.0787375
-0.0817339
-0.0231772
-0.020947
0.0848584
-0.0882237
-0.02486
-0.0232176
0.0917005
-0.0956854
-0.0259523
-0.0246571
0.0998082
-0.104131
-0.0250853
-0.0249011
0.107938
-0.110771
-0.0203611
-0.0226071
0.111548
-0.109397
-0.00872312
-0.0149183
0.105167
-0.0994169
0.00707989
-0.000783416
0.0938643
-0.0890512
0.0170674
0.0127117
0.018375
-0.0742053
0.0720806
-0.0188969
-0.0207091
-0.069737
0.0679413
-0.0127539
-0.0157755
-0.0649584
0.0615733
-0.00603382
-0.00860359
-0.0586662
0.0575159
0.000277138
-0.00309232
-0.0586263
0.0616515
0.010644
0.00473577
-0.0653947
0.0694799
0.0216101
0.0154307
-0.0730154
0.0763718
0.0307349
0.0248829
-0.0794106
0.0827778
0.0380283
0.0328342
-0.0862669
0.0903903
0.037256
0.0371942
-0.094624
0.098965
0.0180862
0.0284535
-0.102109
0.103557
-0.0105012
0.00325487
-0.102956
0.100585
-0.0274483
-0.0198337
-0.0973598
0.0935779
-0.0310776
-0.0287358
-0.0900338
0.0867703
-0.0290252
-0.0286217
-0.0825625
0.0800745
-0.025473
-0.0263559
-0.0776744
0.0766273
-0.0202068
-0.022968
-0.0178572
-0.0136445
0.021798
0.0650611
0.068205
-0.0238475
0.0257079
0.0632672
0.0627076
-0.0274183
0.029079
0.0636789
0.0621622
-0.0306009
0.0320018
0.0666551
0.0637072
-0.0331737
0.0343352
0.0712158
0.0681749
-0.0338047
0.031334
0.0780589
0.0739988
0.0797016
0.0418367
-0.0624743
-0.04581
-0.0590685
0.0373271
-0.0681859
-0.0493225
-0.0591194
0.036887
-0.0723165
-0.0499242
-0.054891
0.0372879
-0.0778411
-0.0467299
-0.0472465
0.0353237
-0.0834299
-0.0386532
-0.0419735
0.0293563
-0.0250645
-0.0880343
0.0333031
-0.0872574
-0.0265333
-0.0437424
-0.0152731
-0.0765845
0.0140317
-0.0165061
-0.0593029
-0.087072
0.0840408
-0.0220333
-0.026268
0.0299443
-0.0917106
-0.0904762
-0.0228638
0.0116786
-0.0126036
-0.0756595
-0.0854026
0.0881854
0.0112488
-0.0830701
0.0093461
0.0150934
-0.0183198
0.0863653
0.0119103
0.0864946
0.0867465
-0.0861792
0.0313705
0.0873638
0.0266726
-0.0608103
0.0854866
-0.0843732
0.0376179
0.0342013
0.0834072
-0.0815195
0.0349997
0.0361605
0.0789427
-0.0761729
0.0292131
0.0314459
0.0733713
-0.0703327
0.0219323
0.0247428
0.0674297
-0.0647915
0.0120251
0.0167493
0.0630365
-0.0624492
-0.000242674
0.00566189
0.0633725
-0.0657172
-0.0092823
-0.0053132
0.0686777
-0.0716815
-0.0134779
-0.0112546
0.0741391
-0.0764879
-0.0174465
-0.0148224
0.078949
-0.0817883
-0.0203379
-0.018486
0.0846369
-0.0876871
-0.0218097
-0.020369
0.0908541
-0.0944274
-0.022379
-0.0214902
0.0980754
-0.101969
-0.021192
-0.0212531
0.105632
-0.108891
-0.0171025
-0.0189436
0.110856
-0.111017
-0.00856201
-0.0129532
0.109141
-0.105324
0.00326227
-0.00265903
0.101047
-0.0960398
0.01206
0.00843515
0.0919991
-0.0904532
0.015027
0.0143343
0.0135256
-0.0808568
0.0783655
-0.0198595
-0.0213535
-0.0757355
0.0734964
-0.0166578
-0.0180791
-0.0712746
0.069658
-0.0111373
-0.0135536
-0.0681559
0.0660394
-0.00391728
-0.00710148
-0.0636497
0.0615841
0.00234274
-0.000702693
-0.0609438
0.0619501
0.0096377
0.00537614
-0.064169
0.0672951
0.018484
0.0132118
-0.0705601
0.0741741
0.027121
0.0216179
-0.0777801
0.0819473
0.0338611
0.0292282
-0.0863689
0.0916677
0.0319572
0.0327727
-0.096995
0.102069
0.0130123
0.0231262
-0.105257
0.106194
-0.0114385
6.68165e-05
-0.104918
0.101935
-0.0244647
-0.0185579
-0.0983314
0.0943438
-0.0270901
-0.0251323
-0.090754
0.0872041
-0.0254754
-0.0250318
-0.0842101
0.0810277
-0.0222906
-0.0233618
-0.0789679
0.0772106
-0.0184494
-0.0209083
-0.0162472
-0.00471698
0.00986639
0.0674821
0.071246
-0.0138428
0.0159478
0.0629561
0.0642286
-0.0170766
0.018135
0.0622089
0.0615787
-0.019164
0.0202419
0.062601
0.0611332
-0.0213091
0.0223487
0.0656154
0.06264
-0.0232369
0.0231173
0.0713354
0.0672867
-0.021882
0.0205158
0.0794252
0.0752341
0.0818976
0.0416848
-0.066832
-0.0458258
-0.0625653
0.0400813
-0.0713802
-0.0480242
-0.0610194
0.0413225
-0.0763511
-0.047569
-0.0540518
0.04008
-0.0825974
-0.0424634
-0.0434363
0.0379821
-0.0881088
-0.0319919
-0.0365149
0.0349322
-0.0922454
-0.0189235
-0.0413251
0.0265281
-0.0229378
-0.0940664
0.0301512
-0.0953337
-0.0111721
-0.0607345
-0.00873954
0.00708201
-0.0814125
-0.00915794
-0.0752411
0.0267648
0.0725094
-0.0649513
0.0881451
-0.0884467
0.0316721
-0.0815403
0.0537072
0.0545979
0.0332775
0.0891603
-0.0862937
0.0347513
0.0349149
0.0848285
-0.081927
0.0320982
0.0346953
0.0801156
-0.076837
0.0259345
0.0296344
0.0739811
-0.070916
0.0188673
0.0218869
0.0680833
-0.0656476
0.00958932
0.0139166
0.0642781
-0.0642519
-0.000268808
0.00429236
0.0656018
-0.0679669
-0.00691729
-0.00396331
0.0704615
-0.0727616
-0.0111778
-0.00875996
0.0747273
-0.0768633
-0.0153105
-0.0128567
0.0791892
-0.0817708
-0.0177564
-0.0161601
0.0843038
-0.0870383
-0.0190752
-0.017836
0.0898611
-0.092966
-0.0192741
-0.0186674
0.0960761
-0.09937
-0.017898
-0.0181431
0.102484
-0.105371
-0.0142153
-0.0158301
0.107451
-0.108461
-0.00755217
-0.0108731
0.107988
-0.105934
0.00120761
-0.00313126
0.102911
-0.0991583
0.00830766
0.00541203
0.0951321
-0.0917591
0.0116541
0.010308
0.0895967
-0.087966
0.00961812
0.0113632
0.0858058
-0.0838778
0.00515402
0.00718586
-0.0866002
0.0836748
-0.0191079
0.0886364
-0.0931983
-0.018376
-0.0208275
-0.0811112
0.0788804
-0.0176288
-0.01879
-0.0766135
0.0745863
-0.0146305
-0.0158122
-0.0727482
0.0712829
-0.00967205
-0.0117155
-0.0703035
0.0693534
-0.00296721
-0.00612203
-0.0681873
0.0667786
0.00375146
0.00046335
-0.0656978
0.0653542
0.00998127
0.00645696
-0.066027
0.0677696
0.0167415
0.012539
-0.0702437
0.0736102
0.0237545
0.0191437
-0.0774531
0.0822666
0.0290477
0.0253852
-0.087599
0.0939487
0.0256075
0.0274403
-0.0999197
0.104977
0.00795528
0.0171552
-0.10753
0.107548
-0.011457
-0.00248606
-0.105541
0.102119
-0.0210431
-0.0165504
-0.0983933
0.094443
-0.0231397
-0.0214065
-0.0909755
0.087617
-0.0221168
-0.0215644
-0.0844744
0.0817042
-0.0195203
-0.0202192
-0.079275
0.0775828
-0.0167571
-0.0184791
-0.0753732
0.0750401
-0.0107743
-0.0140377
-0.00597145
-0.00479474
0.00756325
0.0647136
0.00180085
0.0706157
0.0682521
-0.00879935
0.00868141
0.0630741
0.0629925
-0.00895748
0.00924877
0.0619176
0.0613027
-0.00960504
0.010045
0.0621611
0.060777
-0.010525
0.0110292
0.0651112
0.06216
-0.01149
0.0111182
0.0717071
0.066826
-0.011352
0.0107458
0.0800313
0.0750003
-0.00685293
0.00335572
0.0898625
0.0857905
0.00863965
0.117577
0.09849
-0.0216561
0.0258141
-0.0982245
-0.0957899
-0.0190644
0.00478622
-0.00575518
-0.0804436
-0.0826652
0.00357366
0.0430606
-0.0698113
-0.0456109
-0.0649786
-0.0778364
-0.00217921
0.0447353
-0.0747931
-0.0476285
-0.0609599
0.116317
-0.0902889
0.0285694
0.00236108
0.00906985
0.106146
0.00849887
0.11018
0.0448065
-0.0810776
-0.0454437
-0.0510715
0.0431279
-0.0877433
-0.0370714
-0.0383568
0.0404808
-0.0936575
-0.0234817
-0.0319567
0.0360113
-0.0981055
-0.0104062
-0.0420909
0.0307374
-0.100257
-0.00618719
-0.0637052
0.0211432
-0.0183553
-0.0985778
0.0247743
-0.101856
-0.0055239
-0.0754724
0.00178771
-0.00220635
-0.080025
0.00127655
-0.082154
-0.0675016
0.0922993
-0.0927977
0.0321705
0.0352879
0.0903765
-0.0889363
0.0333111
0.0324936
0.0853903
-0.0831075
0.0298153
0.0311493
0.0792615
-0.0766786
0.0233516
0.0257885
0.0737852
-0.0708452
0.0159273
0.0189935
0.0683784
-0.066588
0.00779899
0.0114498
0.0659807
-0.0666132
0.000363667
0.00368501
0.0681559
-0.0701451
-0.00492807
-0.00242058
0.0719588
-0.0736511
-0.00948554
-0.00694623
0.0753218
-0.0773081
-0.0133241
-0.011186
0.0794256
-0.081699
-0.015483
-0.0140426
0.083936
-0.0863693
-0.0166419
-0.0155989
0.0888396
-0.0914923
-0.0166214
-0.0161972
0.0941002
-0.0968086
-0.0151897
-0.0155351
0.0993167
-0.101628
-0.011904
-0.013322
0.103357
-0.104365
-0.00654368
-0.00914433
0.104342
-0.103199
6.46067e-05
-0.00315445
0.100877
-0.0983155
0.00574635
0.00308974
0.0951954
-0.0917804
0.00823916
0.00718793
0.0885714
-0.0860933
0.00714
0.00815417
0.0849857
-0.0842659
0.00443422
0.00607831
0.0832562
-0.0830746
0.00109487
0.00256396
-0.0906036
0.0894184
-0.0171908
0.0936101
-0.0965743
-0.0153912
-0.0160579
-0.0859914
0.0840475
-0.017164
-0.0174005
-0.0813243
0.0794567
-0.0157611
-0.0160668
-0.0774976
0.0756288
-0.0127617
-0.0138532
-0.074077
0.0727865
-0.00838156
-0.0101637
-0.0719988
0.0715691
-0.00253743
-0.00533435
-0.071328
0.0710526
0.00402683
0.000704413
-0.0707642
0.0706373
0.0101082
0.00674545
-0.0709606
0.0720251
0.0156769
0.0122157
-0.0738635
0.0767779
0.0208401
0.0173053
-0.080493
0.0854987
0.024042
0.0216702
-0.0911558
0.0976225
0.0191408
0.0217831
-0.103128
0.107081
0.0040023
0.0116494
-0.10838
0.107344
-0.0104214
-0.00378491
-0.1048
0.101261
-0.0175049
-0.0140056
-0.0976971
0.0940238
-0.0194664
-0.0178422
-0.0908223
0.0877373
-0.0190318
-0.018363
-0.0848055
0.0827232
-0.0174381
-0.0172874
-0.0796693
0.0778225
-0.0149104
-0.0154252
-0.0763072
0.0763105
-0.0107775
-0.0125224
-0.00749736
0.00124224
0.000465194
0.0689083
0.0727244
-0.00251947
0.00159772
0.0656353
0.0661978
-0.00121192
0.000795659
0.0634903
0.0633783
-0.000410462
6.20427e-05
0.062266
0.0616879
0.000211913
-0.00043254
0.0623817
0.0610509
0.000592454
-0.000702389
0.0652211
0.0623199
0.000752514
-0.000739806
0.0716944
0.0668761
0.000681803
-0.00111445
0.080464
0.0749423
0.00159871
-0.00390393
0.0921678
0.0862748
0.103656
-0.0157099
0.0185915
-0.101459
-0.0987311
-0.013553
-0.000745462
0.000698755
-0.0821073
-0.0833462
-0.000473847
0.0470215
-0.0720974
-0.0477476
-0.0648595
0.113252
-0.104365
0.019683
0.11159
0.0101605
0.0486479
-0.0786345
-0.0484435
-0.0579601
0.0478235
-0.0857731
-0.0425121
-0.0456307
0.0460593
-0.0933217
-0.0294719
-0.0323666
0.0421075
-0.0997537
-0.0130474
-0.0293155
0.0363508
-0.103719
-0.00197157
-0.0463065
0.0296076
-0.10509
-0.00169999
-0.0675291
0.0224446
-0.105709
-0.00160654
-0.0760722
0.0137488
-0.0124259
-0.100054
0.0166609
-0.104372
0.00104175
-0.080368
-0.0968943
0.0948946
-0.0104262
0.00878119
-0.0967034
-0.00897207
0.0110342
-0.102307
-0.00548969
0.072778
-0.00166582
0.00289122
-0.0833327
-0.00202749
-0.0829845
-0.0682277
0.0977925
-0.094793
0.029171
0.0287153
0.0923589
-0.0888765
0.0298286
0.0300596
0.0853669
-0.0819324
0.0263808
0.0276398
0.0787905
-0.0757537
0.0203148
0.0226466
0.0730771
-0.070713
0.0135632
0.0163169
0.0690616
-0.0682377
0.00697513
0.00979841
0.0683759
-0.0693047
0.00129243
0.00382323
0.0705634
-0.0719081
-0.00358339
-0.00116188
0.0731261
-0.0744589
-0.00815269
-0.00572822
0.0759631
-0.0777626
-0.0115246
-0.00968185
0.0796176
-0.081598
-0.0135026
-0.0121876
0.0835721
-0.0857129
-0.0145011
-0.0136248
0.0878456
-0.0900945
-0.0143725
-0.0140644
0.0922658
-0.0944677
-0.0129877
-0.0133638
0.0964541
-0.0982451
-0.010113
-0.0113356
0.0995666
-0.100346
-0.00576477
-0.00782281
0.100384
-0.0996506
-0.000668409
-0.00311637
0.09819
-0.0960996
0.00365595
0.0016292
0.0937448
-0.091201
0.00569531
0.00483314
0.0885423
-0.0864976
0.00509521
0.00549553
0.084313
-0.0827852
0.00290649
0.00389373
0.0818887
-0.0820344
0.00124057
0.00166747
0.0826118
-0.0830108
-0.00162855
0.000103552
-0.0933641
0.0914605
-0.0134875
-0.0120225
-0.09017
0.0879441
-0.0149649
-0.0147674
-0.0855084
0.083524
-0.0151796
-0.0149648
-0.0817419
0.0799109
-0.0139301
-0.0142846
-0.0780811
0.0764984
-0.011179
-0.0120234
-0.0752152
0.0741411
-0.00730745
-0.00888057
-0.0734858
0.0732376
-0.0022893
-0.00467905
-0.0733849
0.0738241
0.00358771
0.000557123
-0.0743958
0.0751468
0.00935721
0.00617367
-0.0760823
0.0774842
0.014275
0.0112802
-0.0793802
0.0821775
0.0180428
0.0154093
-0.0857103
0.0904458
0.0193066
0.0181373
-0.0956047
0.10103
0.0137155
0.0166242
-0.105066
0.107324
0.00174423
0.00761382
-0.107358
0.105622
-0.00868526
-0.00381964
-0.102965
0.0996789
-0.0142192
-0.011348
-0.096506
0.0932688
-0.0162292
-0.0146693
-0.0904202
0.0876543
-0.0162659
-0.0155144
-0.0852565
0.0828836
-0.0150652
-0.0148895
-0.0808065
0.0788626
-0.0129664
-0.0133482
-0.0772875
0.076206
-0.00969601
-0.0109472
-0.0753979
0.0770976
-0.00387889
-0.00668927
0.000291494
0.00369905
-0.00337981
0.068589
0.0709338
0.00398839
-0.00496208
0.066609
0.0668064
0.00591423
-0.00684441
0.0644205
0.0643305
0.00772272
-0.00857228
0.0631155
0.0625662
0.00938371
-0.0101983
0.0631963
0.0618623
0.0109547
-0.0116288
0.0658952
0.0630763
0.0121582
-0.01254
0.0720762
0.0674055
0.0127392
-0.01361
0.0813348
0.0751415
0.0124683
-0.012807
0.0925065
0.085133
0.00603191
-0.00666992
0.106784
0.0968808
0.0123418
-0.0229593
0.122207
0.115851
0.0509381
-0.0743876
-0.0507909
-0.0625122
0.00306546
-0.00297688
-0.0830994
0.00319887
-0.0831179
0.113141
-0.122469
-0.0136311
-0.0348666
0.0876378
0.0694363
0.0996713
-0.0213972
-0.0814011
0.0804792
-0.000706656
-0.0810821
-0.00329588
0.0509829
-0.0817939
-0.0478157
-0.0526566
0.0503233
-0.0900372
-0.0366064
-0.0384962
0.0473492
-0.0985634
-0.01892
-0.026494
0.0422301
-0.105633
-0.00158943
-0.0296976
0.0351542
-0.109265
0.00466473
-0.0526712
0.0271566
-0.109802
0.00163655
-0.0707722
0.0193212
-0.108369
0.00276848
-0.0777989
-0.00734743
-0.097614
0.00825805
-0.0953711
0.0944113
-0.00638765
0.00499818
-0.0957155
-0.00465371
-0.098546
0.00593017
0.0130583
-0.106396
0.00421497
-0.0816917
-0.103205
0.00915635
0.002484
-0.00954861
0.0947024
-0.0781318
0.00247258
-0.0291441
0.101064
-0.0680805
0.113459
-0.107731
0.0139549
0.00115085
0.100938
-0.0951209
0.0233542
0.0219218
0.0912228
-0.0875796
0.0261854
0.0261616
0.0840804
-0.0807255
0.0230259
0.0241406
0.0777708
-0.0751579
0.0177019
0.019692
0.0731243
-0.0716331
0.0120719
0.0142833
0.070846
-0.0706969
0.00682603
0.00901136
0.0710566
-0.0717265
0.0019624
0.00418287
0.0724538
-0.073246
-0.00279121
-0.000434615
0.0741251
-0.0752717
-0.00700602
-0.00484914
0.0766164
-0.0781864
-0.00995467
-0.00833714
0.0797862
-0.0815128
-0.011776
-0.0105878
0.0832453
-0.0851061
-0.0126403
-0.0118923
0.0869327
-0.0888314
-0.0124738
-0.0122378
0.0906327
-0.0924186
-0.0112018
-0.0115625
0.0939896
-0.095369
-0.00873349
-0.00976467
0.0963575
-0.0969198
-0.00520253
-0.00683434
0.0969341
-0.0963746
-0.00122783
-0.00310206
0.0952938
-0.0937264
0.00208851
0.000548388
0.0919374
-0.0899736
0.0037315
0.00304419
0.0881352
-0.0864407
0.00340074
0.00365711
0.0850762
-0.083746
0.0015763
0.00252916
0.0824386
-0.0811857
-1.22989e-05
0.000360096
-0.000602999
-0.0939614
0.0930667
-0.00953148
-0.00852219
-0.0922946
0.0908731
-0.0120661
-0.0112504
-0.0889213
0.0872543
-0.0132979
-0.0128156
-0.0854096
0.0834561
-0.0132261
-0.0131201
-0.081732
0.0800403
-0.0122385
-0.0125605
-0.0785881
0.0772473
-0.00983824
-0.0105711
-0.0761829
0.0753149
-0.00643943
-0.00781613
-0.0747951
0.0746314
-0.00212556
-0.00415931
-0.0748849
0.0755663
0.00290628
0.000303654
-0.0765486
0.0778936
0.00801229
0.0051913
-0.0794383
0.0814001
0.0123131
0.0097355
-0.0836457
0.0865645
0.015124
0.0131638
-0.0899339
0.0941052
0.0151354
0.0147679
-0.0982484
0.10211
0.00985391
0.012481
-0.104546
0.105435
0.000854681
0.00517806
-0.104776
0.102927
-0.00683677
-0.00316011
-0.100557
0.0977656
-0.0114274
-0.00897814
-0.0950919
0.0923416
-0.0134789
-0.0119956
-0.0898811
0.087451
-0.0138359
-0.0130539
-0.0853277
0.0832277
-0.0129651
-0.0127662
-0.0813793
0.079586
-0.0111731
-0.0114998
-0.0779701
0.0764928
-0.00821877
-0.00933127
-0.0758892
0.076337
-0.00432665
-0.00608564
-0.00150334
0.00799334
-0.00739598
0.0721806
0.0756381
0.00713874
-0.00818442
0.0696347
0.0706765
0.00960821
-0.0110239
0.0680247
0.0682302
0.0123639
-0.0136501
0.0657068
0.0656704
0.0148601
-0.0160545
0.0643099
0.0637762
0.0172385
-0.0184637
0.0644216
0.0630463
0.01964
-0.0207264
0.0669816
0.0642526
0.0216084
-0.0222588
0.0727266
0.0682876
0.0226099
-0.0226473
0.0813721
0.0754927
0.0223661
-0.0210962
0.0912366
0.0848518
0.0185486
-0.0117978
0.100033
0.0943332
0.094505
0.00373526
-0.0838691
0.0922099
-0.0216828
-0.00255023
0.0029584
-0.0835075
-0.0829175
-0.000714778
0.0523304
-0.0757352
-0.0514261
-0.0589017
0.052016
-0.0834866
-0.043341
-0.045922
0.0502763
-0.0929643
-0.0267673
-0.0306489
0.003941
-0.0841005
0.0458984
-0.102232
-0.00585703
-0.0222264
0.0396575
-0.110136
0.00952874
-0.0345617
0.0317139
-0.113823
0.00881607
-0.0598508
-0.0030157
-0.0957302
0.00303035
-0.0934473
0.0929605
-0.00252887
0.00143211
-0.0935893
-0.00129017
-0.095778
0.00147997
0.0231856
-0.113667
0.00584156
-0.0738453
-0.0991453
0.00362965
0.0158214
-0.111132
0.00751896
-0.0811029
-0.103558
0.00628235
0.0101988
-0.107438
0.00699387
-0.0849503
0.0210838
-0.0257212
0.0968473
0.0536182
-0.0863672
0.0515015
0.0151781
-0.0145838
0.0687911
-0.00227401
0.00273386
-0.0839674
-0.0843484
-0.000843145
-0.00402334
0.0728196
-0.0671761
0.108921
-0.116062
-0.00648951
-0.10145
-0.0190857
0.098853
-0.0139266
0.113286
-0.107358
0.00802685