/*--------------------------------*- C++ -*----------------------------------*\
  =========                 |
  \\      /  F ield         | OpenFOAM: The Open Source CFD Toolbox
   \\    /   O peration     | Website:  https://openfoam.org
    \\  /    A nd           | Version:  10
     \\/     M anipulation  |
\*---------------------------------------------------------------------------*/
FoamFile
{
    format      ascii;
    class       surfaceScalarField;
    location    "23.5";
    object      phi;
}
// * * * * * * * * * * * * * * * * * * * * * * * * * * * * * * * * * * * * * //

dimensions      [0 3 -1 0 0 0 0];

internalField   nonuniform List<scalar> 
66213
(
0.00883235
-0.0107798
-0.00575289
0.00770037
0.0279884
-0.0043818
-0.0147742
0.00807115
-0.0130565
0.0329738
-0.0149388
0.02301
0.0222548
-0.0153239
-0.0181329
0.011202
0.0215019
-0.0210284
0.0217814
0.0390697
-0.0306243
-0.0413621
0.0304567
-0.0317939
-0.00133189
-0.0119729
-0.0173196
-0.00855509
-0.0138052
-0.000127331
0.000292771
0.00160986
-0.0017753
9.62478e-05
-0.000223578
0.000389019
-0.00240714
0.00126166
0.0108362
-0.00969071
0.00162899
-0.00403613
0.00289065
0.08008
0.0994272
-0.0918106
-0.0876966
0.0564759
0.055163
-0.0315588
-0.0524793
0.026365
0.0825903
-0.0156313
0.0625791
0.0394488
0.0375619
-0.0442989
-0.0327117
-0.00434688
0.00422057
0.0395751
-0.0165385
0.0126883
-0.000496735
0.00956842
0.011455
0.0535401
0.0176501
-0.00993501
-0.0612552
-0.00610751
0.0522317
0.00741596
-0.0746227
0.00654995
0.0619652
-0.0217498
0.0291619
0.0238653
-0.0312774
-0.0618541
0.00670167
0.0334027
-0.0246556
-0.0695403
0.0323417
0.030169
-0.0308265
0.0635655
-0.0882211
-0.000170665
-0.00299436
0.000516158
0.00264887
-0.00268268
0.00251202
-0.00142424
-0.00125845
-0.000513151
-0.00390545
0.0442537
-0.0101381
0.00705328
-0.0411689
0.0333258
-0.0129394
0.0238673
0.0227812
-0.0240745
0.0481759
-0.0468826
0.00953702
0.0470353
-0.0337912
-0.000964183
0.0211921
-0.0293355
0.00910761
0.0289834
0.00181713
-0.0317647
-0.00117015
-0.00012006
0.000777054
0.00257762
-0.000805874
-0.00716293
0.00539118
0.00420828
-0.00232943
0.000698768
-0.0145876
0.0154614
0.00106882
-0.00194263
0.00249492
-0.00439414
-0.00896356
0.0217039
-0.0177849
0.0050446
-0.0158068
-0.00436856
0.0112118
-0.0374626
0.0608276
0.0124215
-0.0357864
-0.0287407
-0.0782622
-0.0643938
-0.00271017
0.038281
0.028823
0.0779855
-0.135829
-0.0251082
-0.00499047
0.0300987
-0.0101595
-0.0149487
-0.0312401
0.0427012
-0.0216207
0.00465068
-0.0114998
-0.0243909
-0.0015322
-0.00518333
0.00671552
-0.00596891
-0.00767176
0.0121085
-0.010298
0.00790137
-0.0139775
0.0156445
0.00316899
-8.52628e-05
0.00481764
-0.000529133
0.00201545
0.00168267
0.00497373
-0.00300257
-0.00197116
0.00859002
-0.0036163
0.04066
-0.051673
-0.0113848
0.0223978
0.0717967
-0.0164259
-0.0710021
0.0597905
0.0267553
-0.014749
-0.00752002
0.00808785
-0.000810607
0.000242775
0.000953922
-0.00634204
-0.0021319
0.00145419
-0.00368492
0.00318466
0.000388913
0.0172275
-0.0124147
-0.00520163
0.0304051
0.0442391
-0.0987187
-0.00388687
-0.0116018
-0.00592775
0.0214165
-0.00969957
-0.00930878
0.0151215
0.00476262
-0.00396343
0.00381073
-0.00460992
0.00281303
-0.00445388
0.00640347
0.0759319
0.0301252
-0.0158465
-0.0902106
0.0839578
0.0131891
-0.021215
-0.0407483
0.0294969
-0.00609052
0.017342
0.0142674
-0.0263843
-0.0286315
-0.0259652
0.0350101
0.0204521
-0.0549243
0.0293204
0.056009
-0.0239558
0.0565291
-0.0874976
-0.00396163
0.0309366
-0.0509308
-0.00434794
-0.0115338
0.0160049
-0.000123193
-0.00496293
0.000373247
0.000241745
0.000249857
-0.00100451
0.000970798
0.000536441
-0.00010567
-0.00140157
-0.0200479
0.00292409
0.00783227
0.0092915
0.00458434
-0.01306
-0.0115722
0.00744431
0.00213426
-0.00499423
0.00958437
0.000784035
0.0121115
0.00530515
-0.0107748
0.0352443
0.0363582
0.0297648
-0.000960316
-0.0395794
0.0161801
-0.0279221
0.0334459
-0.0232306
0.00154897
0.0378617
-0.0369452
-0.00833388
-0.0014695
0.0467486
0.0359541
-0.0103202
0.0539852
-0.0321658
-0.017258
0.014596
0.0348278
0.00147225
-0.00844734
-0.0251907
0.0417381
-0.0575239
-0.00798807
-0.00118247
0.0112199
-0.00204939
-0.000652748
-0.00460738
-0.00272794
9.82089e-06
9.60051e-05
-0.000758574
-0.000656488
-0.0521765
-0.0396784
0.0276538
0.0642011
-0.0176489
0.0253709
-0.0598985
0.0268345
-0.00404357
-0.0404398
-0.0139307
0.00108683
0.00444277
0.0104634
-0.00574934
-0.00915685
0.00248593
0.00195684
0.000311255
0.0126381
0.0066245
0.00271397
0.00211655
0.000423717
0.00570405
0.0309915
0.00343587
-0.0428747
0.00702724
0.0385603
0.000241983
-0.00061657
-0.00182904
0.00220363
-0.000452218
0.000659188
3.50134e-05
-0.00104462
-2.4172e-05
0.00499506
0.00924582
-0.00938548
-0.00485539
-0.00107924
-0.0117106
0.0228804
0.048492
-0.0107812
0.0429369
-0.0446899
-0.00284022
0.00459327
0.045801
0.00358498
-0.00644913
0.0142527
0.016472
-0.00412427
-0.0266004
0.00798043
0.0129136
-0.0066414
-0.00239392
0.00452818
-0.00124909
-0.00114483
0.0207072
0.0264197
-0.00556271
-0.0415642
0.0194351
0.0593247
-0.0580527
-0.0294627
0.0217801
0.0271177
-0.00705951
0.00401651
-0.0124732
-0.0027827
0.00132516
-0.0171801
0.000663336
0.0400398
-0.0369573
0.00190007
-0.00498261
0.00735916
-0.00775914
-0.0165586
-0.0280433
0.0076446
-0.0444393
-0.00206727
0.0449303
0.0015763
-0.02931
-0.0196646
0.00453535
0.00363498
-0.0503922
0.0385534
0.00676164
-0.0269974
-0.0183176
-0.0152176
0.0487775
0.00499343
0.0392277
-0.00564691
-0.0487983
0.028083
0.0192681
-0.00812342
0.0200346
-0.0153527
-0.0228766
0.0181946
0.0132058
-0.0179157
0.0247446
0.0263919
0.0199241
-0.0121667
-0.0341493
-0.0114839
0.0225231
0.0401086
0.0053846
-0.026051
-0.0194422
-0.00168589
0.000632889
0.0411616
0.0389487
0.00230027
-0.0429349
0.0261192
-0.00608803
0.0189175
-0.00634948
-0.00786209
0.00451199
-0.00306358
-0.00950089
0.00096263
-0.0042845
-0.000908251
-0.000340836
-0.0223354
0.0167726
-0.0282173
0.00588193
-0.00188142
0.0507609
-0.000387443
0.00932353
0.000816047
-0.00937507
-0.000764513
0.00266017
-0.000393786
0.00705715
0.00832051
0.00756592
-0.0132263
0.00640426
-0.0136512
-0.00428687
-0.00262199
-0.0231669
0.0218704
0.00391846
-0.0255956
-0.00184599
0.0248196
0.00530708
-0.0151004
0.041375
-0.0315816
0.0391423
0.00315236
-0.0369876
0.00108174
0.033787
-0.000328348
-0.0345404
0.0333781
0.00171977
-0.0340161
0.0140639
0.0366492
-0.0534233
0.0114643
0.0396112
-0.0370116
0.0185075
0.0109606
-0.011179
-0.0182892
0.024552
0.00728888
-0.0133334
-0.044552
0.011187
0.0427163
-0.00935131
0.0120432
-0.0449092
-0.011686
-0.00040889
0.033104
-0.0330443
0.000349155
0.032433
0.000952103
-0.033794
-0.0112418
-0.0306688
0.0408317
0.00107899
0.025118
-0.00547759
-0.0308822
0.0134532
0.00132551
-0.0143227
-0.000455955
0.0132139
0.00237734
-0.00213806
0.0253942
-0.00466828
0.00382608
0.0266116
-0.00035244
-0.000864982
0.0185089
-0.0151968
-0.0101616
-0.0082141
0.0124479
-0.0332383
-0.010066
0.036216
0.00708824
-0.00767156
-0.0309511
0.00538437
0.0146793
0.0011628
-0.010332
-0.00551007
0.00137148
0.0159121
-0.00260427
0.0352218
-0.0334857
0.0325961
-0.0343323
0.0567924
0.0276115
-0.0491822
0.0284721
-0.0282633
0.0565836
0.0356794
-0.0426225
0.0412274
-0.0342842
0.0655185
0.0291583
-0.0589974
0.0188521
0.0621875
-0.0155211
-0.0341197
0.0117898
0.0365973
-0.0320448
-0.0121408
-0.0369478
0.00668707
0.0386063
-0.00834563
-0.00765944
0.00717923
-0.0364676
0.0107959
-0.000230589
-0.00104264
-0.0095227
0.00508112
0.00731247
-0.00159766
0.0786314
-0.0561104
0.00672976
-0.0292507
0.0289177
0.069389
-0.0196754
0.0371415
0.00478886
-0.0133694
-0.028561
0.0409464
-0.000308162
-0.0235708
-0.0215376
0.00309653
-0.000777192
-0.0200933
-0.000667138
-0.0175015
-0.00684657
0.00101529
0.000417667
-0.000811453
0.000137053
0.000280615
-0.0319364
0.00492921
0.0300936
-0.00308642
0.00400268
-0.00367437
-0.0322648
0.0318095
0.00402585
-0.0318327
0.0304718
0.00626691
0.0323202
0.0152783
-0.0405713
-0.0162614
0.0526233
-0.00404168
0.0273465
-0.0283296
-0.0256669
-0.00406732
0.0251027
0.00463152
0.0224219
-0.0435243
-0.00456455
-0.00527677
0.0236314
-0.000362878
0.000504059
-0.00247061
0.000271264
-0.000634142
0.000775323
0.00178657
-0.00456927
0.00311173
0.0218469
-0.00528203
-0.0316653
-6.46438e-05
0.033496
-0.0328741
-0.000557246
0.0342246
-0.000355652
-0.0339336
0.0463382
-0.0080865
-0.0379404
0.00372824
0.0316059
-0.00341835
-0.0319157
0.0380125
-0.030869
0.0235648
-0.0307083
0.0377642
-0.0189321
0.0191804
0.0450174
-0.0228428
0.0155896
0.0444989
-0.0185184
0.0190369
0.0483347
-0.0224914
0.0186557
0.0481103
-0.0183925
0.0186168
0.0481323
-0.0184167
0.0183947
0.047841
-0.0182384
0.0185297
0.0478151
-0.0184426
0.0184684
0.0474844
-0.0183759
0.0187066
0.0474601
-0.0185847
0.0186091
0.0471527
-0.0183309
0.0186384
0.047186
-0.0181538
0.0181205
0.04696
-0.0173094
0.0175354
0.0470714
-0.0163716
0.0162601
0.0469574
-0.0146894
0.0148034
0.0471311
-0.01284
0.0126662
0.0471344
-0.0103388
0.0103355
0.0473333
-0.00768307
0.0074842
0.0474482
-0.00460775
0.00449286
0.047641
-0.00143021
0.00123742
0.0478962
0.0018469
-0.00210215
0.0481163
0.00517166
-0.00539176
0.0485078
0.00826384
-0.00865528
0.048728
0.0113268
-0.011547
0.0492151
0.0138392
-0.0143264
0.0452963
0.0162382
-0.0123193
0.045787
0.0179011
-0.0183918
0.0389854
0.0225058
-0.0157042
0.0376264
0.022643
-0.0212839
0.0372158
0.0224818
-0.0220711
0.0374127
0.0225839
-0.0227808
-0.0316344
0.0392757
-0.0164672
0.00882594
-0.0182716
0.0256501
-0.0292609
0.0218824
-0.0301347
-0.0197713
-0.0292536
0.0240348
-0.0384656
0.0283268
-0.0264618
0.0366007
0.0231226
-0.0241755
0.0373365
-0.0372371
0.0223824
-0.0373198
0.0406575
0.0197849
0.0226006
0.0347235
-0.0321469
0.0199292
0.0201294
0.0325149
-0.0322939
0.0160172
0.0182691
0.0320678
-0.0318826
0.0111415
0.0136131
0.031743
-0.0316493
0.00507802
0.00812419
0.0316027
-0.0315911
-0.00144182
0.00180029
0.0316196
-0.0316826
-0.00762002
-0.0045793
0.0317767
-0.0319017
-0.012715
-0.0102448
0.0320534
-0.0322307
-0.0161943
-0.0145377
0.0324268
-0.0326406
-0.01794
-0.0171133
0.0328625
-0.0330886
-0.0183586
-0.018109
0.0333059
-0.0335102
-0.0182383
-0.0181586
0.0336923
-0.0338544
-0.0182545
-0.0180563
0.0339975
-0.0373711
-0.0191178
-0.0182494
0.0357359
-0.0384447
-0.020134
-0.0201536
-0.0181011
-0.0204746
0.0220909
-0.0308773
-0.0317325
-0.0188768
0.0318902
0.0174235
-0.00865624
-0.0300083
0.0228456
-0.0226446
0.0187367
0.0318523
-0.0279444
-0.0262186
0.0319008
-0.0211203
0.0211239
-0.0308808
-0.0300839
-0.0227688
0.0185747
0.0320522
0.033611
-0.0364001
-0.0236727
-0.0309604
0.0220759
0.0306466
-0.0232542
0.0212971
-0.0198298
-0.0315512
-0.0205926
0.0208018
-0.0311695
-0.0301764
-0.0314836
0.0336374
0.021881
0.030375
-0.0295529
0.0212538
0.0217371
-0.0365601
0.0362629
0.0194776
0.0206421
-0.0337046
0.0341395
0.0186019
0.018148
-0.0341497
0.0341478
0.0186187
0.0186455
-0.0341308
0.034101
0.0185595
0.0184117
-0.0340636
0.0340231
0.018747
0.0185059
-0.0339871
0.0339578
0.0186676
0.0186451
-0.0339393
0.0339288
0.017546
0.018139
-0.0339262
0.0339268
0.0148028
0.0162627
-0.0339293
0.0339311
0.0103338
0.0126637
-0.0339346
0.0339448
0.0044827
0.00748067
-0.033972
0.0340049
-0.00213513
0.00121024
-0.0340568
0.034127
-0.00872555
-0.00544357
-0.034213
0.0342966
-0.0144099
-0.0116329
-0.0382048
0.0381533
-0.0183403
-0.0162276
-0.0406186
0.0398591
-0.0205243
-0.0181696
-0.0389448
0.0378276
-0.0216636
-0.0211569
-0.022748
-0.0206085
0.0200466
0.0324141
0.0210257
0.0322913
-0.0226704
0.032318
0.0352974
-0.0365624
0.0210499
-0.0329979
0.0194928
0.0320797
0.0197231
0.0344013
-0.0330528
0.0210339
0.0204395
0.0336875
-0.0327671
0.0190088
0.0207641
0.0318554
-0.0315684
0.0157302
0.0173575
0.0313036
-0.0310812
0.0109191
0.0133483
0.0309101
-0.0307935
0.00496144
0.00795312
0.0307334
-0.0307255
-0.00144977
0.00174014
0.0307677
-0.0308571
-0.00753059
-0.0045371
0.0309899
-0.0311642
-0.0125406
-0.0101119
0.0313719
-0.0316114
-0.0159548
-0.01433
0.0318734
-0.0321567
-0.0176567
-0.0168513
0.0324486
-0.0327444
-0.0180628
-0.0178172
0.0330287
-0.0332978
-0.0179692
-0.0178743
0.0335425
-0.0337668
-0.0180302
-0.0178116
0.0339705
-0.0346664
-0.018422
-0.0180456
0.0362483
-0.0373279
-0.0190544
-0.0185717
0.03613
-0.0332884
-0.0193087
-0.019299
0.0332091
-0.0320278
-0.0200581
-0.0198506
0.0339602
-0.0333602
-0.0204298
-0.0208365
0.0198606
0.0322382
-0.0298147
0.0210636
-0.0208655
0.0214103
-0.032096
-0.0335803
-0.0206454
-0.0216045
0.0208577
0.0330381
0.0323227
-0.0328442
-0.022149
0.0324801
-0.0217618
0.0213462
-0.0219534
-0.0305624
0.0323029
-0.0327903
0.0199802
0.019631
0.0323094
0.0321607
0.0197732
0.0214379
-0.0299065
-0.0307195
-0.0308732
0.0310159
0.0211111
0.030359
-0.0297051
0.0207841
0.0205494
-0.0325479
0.0342274
0.0202015
0.0202051
-0.0348094
0.0351174
0.0191696
0.0200601
-0.0344784
0.0341728
0.0189075
0.018787
-0.0342464
0.0343038
0.0185613
0.0185719
-0.0343474
0.0343812
0.0185256
0.0183682
-0.0344106
0.0344414
0.0187162
0.0184765
-0.0344788
0.0345255
0.0186209
0.0186077
-0.0345813
0.0346437
0.0174835
0.0180833
-0.0347086
0.0347719
0.0147395
0.0161979
-0.0348293
0.0348793
0.0102837
0.0126063
-0.0349215
0.034958
0.00444613
0.00743852
-0.0349905
0.0350224
-0.002167
0.00117779
-0.0350565
0.0350971
-0.00876612
-0.00547771
-0.0351401
0.0351898
-0.0144596
-0.011676
-0.0355328
0.0357114
-0.0185189
-0.0165706
-0.0371978
0.0373972
-0.0207237
-0.0196559
-0.0372532
0.0364723
-0.0208827
-0.0210129
-0.0356256
0.0338427
-0.0218898
-0.0219013
-0.0222557
-0.0203658
0.0199065
0.0328734
0.0328099
-0.0198114
0.0196215
0.0324993
0.0323334
0.0335218
-0.0336175
0.0211457
0.0204545
0.0338243
-0.0328373
0.0200469
0.0206462
0.0319599
-0.0315994
0.0186483
0.0198866
0.0312489
-0.0309123
0.0153936
0.017007
0.0306081
-0.0303496
0.0106606
0.0130441
0.0301497
-0.0300119
0.00482363
0.00775328
0.02994
-0.0299319
-0.00145793
0.00166828
0.0299843
-0.0300964
-0.00741857
-0.00448463
0.0302614
-0.0304774
-0.0123246
-0.00994693
0.0307347
-0.0310323
-0.0156572
-0.0140727
0.031358
-0.0317095
-0.0173052
-0.0165256
0.0320698
-0.032433
-0.0176996
-0.0174568
0.0327808
-0.0331103
-0.0176397
-0.0175265
0.0334121
-0.0336927
-0.0177497
-0.0175098
0.0339519
-0.0341992
-0.0181747
-0.0177864
0.0344339
-0.0346609
-0.0188274
-0.018337
0.0348785
-0.0345338
-0.0196535
-0.0190814
0.0344079
-0.0345657
-0.0199003
-0.0199765
0.0345753
-0.0345407
-0.0204645
-0.0208269
-0.0208367
0.0205191
-0.0332626
0.0342601
-0.0341448
-0.020952
-0.020926
0.0217476
-0.0216294
-0.0300247
-0.0286227
0.0206652
-0.0212201
-0.0309716
0.0209871
-0.032564
0.0191192
0.032663
0.0208026
-0.0342839
-0.0206636
0.0206587
-0.0331188
-0.0206985
0.0208431
0.0328934
-0.0211787
0.0329603
0.0328198
-0.0329145
-0.0220542
0.0201038
-0.020466
-0.0296625
0.0193847
-0.0279036
0.0325871
-0.0215292
-0.0309525
-0.0295804
0.030484
0.0198805
0.0284394
-0.0276772
0.0186225
0.0195242
-0.0310404
0.0322536
0.0198978
0.019993
-0.0328255
0.0334002
0.0196268
0.0196332
-0.0341553
0.034118
0.0192069
0.019305
-0.0340624
0.0342199
0.01875
0.0188426
-0.0343543
0.0344721
0.0184435
0.0184376
-0.0345761
0.034673
0.0184288
0.0182641
-0.0347679
0.0348682
0.0186159
0.0183816
-0.0349773
0.035098
0.0185002
0.0184986
-0.0352272
0.0353623
0.0173484
0.0179541
-0.0354957
0.0356228
0.0146124
0.0160645
-0.0357361
0.0358334
0.0101864
0.012493
-0.035911
0.0359708
0.0043863
0.00736093
-0.0360139
0.0360445
-0.00219756
0.0011347
-0.036066
0.0360822
-0.00878231
-0.00549923
-0.0360927
0.0360952
-0.014462
-0.0116865
-0.0360797
0.0360406
-0.0184798
-0.0165552
-0.035968
0.0358548
-0.0206105
-0.0195833
-0.0357035
0.0360335
-0.0212127
-0.0208617
-0.0350658
0.0343881
-0.0212121
-0.0209336
-0.0207821
-0.0205395
0.0201118
0.0333011
0.0331135
-0.0196566
0.0190373
0.0331186
0.0327886
0.0323974
-0.0326367
0.0202195
-0.0324739
0.0195932
0.0319998
0.0196968
0.0328857
-0.0325991
0.0208591
0.0207035
0.0322746
-0.0323159
0.0200882
0.0203217
0.0315204
-0.0311137
0.0182416
0.0190911
0.0307153
-0.030332
0.0150103
0.0166086
0.0299894
-0.0296963
0.0103675
0.0127015
0.029469
-0.0293102
0.00466489
0.00752596
0.0292262
-0.0292146
-0.00146946
0.00158422
0.0292749
-0.0294051
-0.00728836
-0.00442439
0.0295983
-0.0298525
-0.0120704
-0.0097537
0.0301565
-0.0305086
-0.0153051
-0.0137688
0.0308937
-0.0313083
-0.0168906
-0.0161404
0.0317314
-0.0321561
-0.0172748
-0.0170337
0.0325619
-0.032947
-0.0172547
-0.0171207
0.0333018
-0.033635
-0.0174164
-0.017155
0.0339471
-0.0342496
-0.0178721
-0.0174744
0.0345421
-0.034832
-0.0185375
-0.0180445
0.0351153
-0.0353933
-0.0193755
-0.0187981
0.0356598
-0.0352202
-0.0203399
-0.01971
0.0353627
-0.0350632
-0.0207639
-0.0206844
0.034936
-0.0350108
-0.0208772
-0.0210533
-0.0205487
0.0201245
-0.0338597
0.0348365
-0.0351044
-0.0202808
-0.0208379
0.018917
0.0327832
0.0181524
-0.0186086
-0.0274474
-0.0269274
0.0174026
-0.0215368
-0.0299008
0.020556
-0.0324612
-0.0213145
0.0327229
-0.0199967
0.0195309
-0.0346387
-0.0360215
0.0365582
-0.0208175
-0.0360648
-0.0199535
-0.0194995
-0.0287716
0.0202168
-0.033211
0.019375
-0.0337038
0.0162651
-0.0173108
-0.0264017
0.0325771
-0.0325097
0.0195259
0.0189548
0.031962
0.0326878
0.0188441
0.0149601
-0.0256223
-0.0319333
-0.0274588
0.0286271
0.0174541
0.026231
-0.0258912
0.0146203
0.0161748
-0.0297164
0.0307431
0.0188539
0.0184349
-0.0317566
0.0323702
0.0192842
0.0189794
-0.0328102
0.0331931
0.0192439
0.0191932
-0.033521
0.0338074
0.0189204
0.0189771
-0.0340549
0.0342741
0.0185307
0.0185951
-0.0344686
0.034646
0.0182661
0.0182431
-0.0348097
0.0349685
0.01827
0.0181005
-0.0351276
0.0352957
0.0184479
0.0182225
-0.0354745
0.0356672
0.0183075
0.0183197
-0.0358679
0.0360735
0.0171428
0.0177534
-0.0362731
0.0364614
0.014424
0.0158649
-0.0366285
0.0367714
0.0100434
0.0123259
-0.0368856
0.0369714
0.00430048
0.00724676
-0.0370295
0.0370636
-0.00223169
0.00107669
-0.0370771
0.0370728
-0.008778
-0.00551274
-0.0370508
0.0370067
-0.014418
-0.0116645
-0.0369358
0.0368299
-0.018374
-0.0164842
-0.0366855
0.0364976
-0.0204226
-0.0194389
-0.0362707
0.0360043
-0.0209463
-0.0206348
-0.0357046
0.0350811
-0.0205886
-0.0206338
-0.0343611
0.033244
-0.0209372
-0.0200621
-0.0325625
0.0324604
-0.0212124
-0.0208476
-0.0206346
0.0204301
0.0330979
0.0208735
-0.0207126
0.032562
0.0331993
-0.0201804
0.019877
0.0336045
0.0333632
-0.019773
0.0197344
0.0331572
0.0328925
-0.0198689
0.0189258
0.0329051
0.0326487
0.0325005
-0.033004
0.0207229
0.0196876
0.0327101
-0.0323697
0.0205187
0.0204096
0.0319947
-0.0315799
0.0196735
0.0199467
0.0311427
-0.0306923
0.0177911
0.0186539
0.0302519
-0.0298287
0.0145871
0.0161683
0.0294509
-0.0291258
0.0100424
0.0123237
0.0288723
-0.028693
0.00448561
0.00727246
0.028596
-0.0285802
-0.00148522
0.00148717
0.0286456
-0.028791
-0.00714297
-0.00435903
0.0290083
-0.0292962
-0.0117825
-0.00953638
0.0296418
-0.0300433
-0.0149036
-0.0134231
0.0304829
-0.0309552
-0.0164183
-0.0157009
0.0314358
-0.0319166
-0.0167941
-0.0165531
0.0323748
-0.0328099
-0.0168196
-0.0166625
0.0332126
-0.033594
-0.017035
-0.0167522
0.0339551
-0.0343088
-0.0175183
-0.0171133
0.0346551
-0.0350024
-0.0181901
-0.0176983
0.0353467
-0.0356924
-0.0190298
-0.0184538
0.0360329
-0.036368
-0.0200048
-0.0193695
0.0366869
-0.0364828
-0.0209681
-0.0203656
0.0368943
-0.0366097
-0.0211618
-0.0206417
-0.0208893
-0.0186454
0.0182752
-0.0342685
-0.0355338
-0.0191763
-0.020823
0.0325708
0.0143978
-0.0149565
-0.0250636
-0.0245252
0.0130319
-0.0199585
-0.0294418
0.0202397
-0.0324842
0.0327847
0.0188289
-0.0182805
-0.0278019
0.0190412
-0.0328771
-0.0156986
-0.0256597
0.0180427
-0.0334713
0.0170562
-0.0351032
-0.0174868
0.0166441
-0.0338564
0.0112201
-0.0124916
-0.0237922
0.0323927
-0.0327623
-0.0208428
0.0313032
-0.0197336
0.00922515
-0.0225303
-0.0316521
-0.0255732
0.0266657
0.0135278
0.0239801
-0.0242832
0.00952824
0.0114388
-0.0276846
0.0287069
0.0164318
0.0151559
-0.0299651
0.0308289
0.01799
0.0171767
-0.0314761
0.0320552
0.0187051
0.0183322
-0.0325598
0.0330058
0.0187979
0.0186886
-0.0333965
0.033745
0.0185719
0.0185864
-0.0340536
0.0343329
0.0182514
0.0182866
-0.0345855
0.0348208
0.0180307
0.0179905
-0.0350426
0.0352615
0.018051
0.0178787
-0.0354826
0.0357156
0.0182149
0.0180014
-0.0359609
0.0362216
0.0180468
0.0180745
-0.0364896
0.0367614
0.016871
0.0174853
-0.0370236
0.0372708
0.0141769
0.0156027
-0.0374906
0.0376801
0.00985394
0.0121061
-0.037832
0.0379467
0.00418579
0.00709484
-0.0380226
0.0380638
-0.00227284
0.00100083
-0.0380725
0.0380511
-0.00875654
-0.0055215
-0.0379994
0.0379132
-0.0143317
-0.0116129
-0.0377889
0.0376192
-0.0182043
-0.0163599
-0.0374046
0.0371416
-0.0201596
-0.0192244
-0.0368388
0.0364973
-0.0206048
-0.020332
-0.0361288
0.0357336
-0.0201934
-0.0202653
-0.0353202
0.0341424
-0.0197594
-0.0196486
-0.0194675
-0.0193058
0.0194465
0.0324213
0.0190229
0.0316702
-0.0193899
0.0322879
-0.0199402
0.01978
0.0332582
0.0327056
-0.0200321
0.0202294
0.0334071
0.0331111
-0.0197876
0.0198051
0.0331397
0.0333344
-0.0193597
0.0190649
0.0331999
0.0330941
0.019145
0.0327046
0.0327313
-0.0327583
0.0195529
-0.0325986
0.0326474
0.0187801
0.0189769
0.0332267
-0.0329184
0.0204146
0.020156
0.0325743
-0.0321855
0.02013
0.0200655
0.031764
-0.0313045
0.0192139
0.0195251
0.0308276
-0.0303371
0.0173007
0.018177
0.0298597
-0.0294022
0.0141296
0.0156908
0.0289931
-0.0286394
0.00968866
0.0119146
0.0283617
-0.0281628
0.00428675
0.00699471
0.0280527
-0.0280316
-0.00150636
0.00137706
0.0281
-0.0282567
-0.00698628
-0.00429056
0.0284948
-0.0288122
-0.0114652
-0.00929827
0.0291951
-0.0296413
-0.0144573
-0.0130402
0.0301302
-0.0306546
-0.0158939
-0.0152121
0.0311864
-0.0317165
-0.016264
-0.0160213
0.0322206
-0.0326995
-0.0163406
-0.0161584
0.0331448
-0.0335696
-0.0166102
-0.0163069
0.0339752
-0.034376
-0.0171176
-0.0167078
0.0347713
-0.0351709
-0.0177904
-0.017303
0.0355708
-0.0359779
-0.0186227
-0.018054
0.0363857
-0.0367973
-0.0195931
-0.0189616
0.0372007
-0.0375902
-0.0205786
-0.0199621
0.037375
-0.0372555
-0.0212813
-0.0208569
0.0373755
-0.0374132
-0.0207798
-0.0207693
0.0369811
-0.0364778
-0.0196797
-0.0203855
-0.0146497
-0.0347067
0.0142531
0.0373523
-0.0360304
-0.0159715
-0.0166123
0.00911498
-0.0092144
-0.0224308
-0.0228574
0.00768919
-0.0186144
-0.0291079
0.0190833
-0.0325263
0.0124147
-0.0359207
-0.0125244
-0.0341003
0.0118082
-0.0161047
-0.0273958
0.0178497
-0.0326841
-0.013038
-0.0251133
0.0159825
-0.0328096
-0.0184142
0.0185342
0.0315503
0.0312994
-0.0317054
-0.0189838
0.0313059
-0.0184208
-0.0100285
-0.022978
0.0141456
-0.0337489
0.00660698
-0.00712995
-0.0219079
0.0186318
0.0331605
0.00547631
-0.0217267
-0.0311832
-0.0234535
0.0247522
0.00822957
0.0225469
-0.0213022
0.00423153
0.00678259
-0.025474
0.0266283
0.0123735
0.0107169
-0.0278162
0.0288452
0.0154028
0.0139681
-0.0296733
0.0304457
0.0172177
0.0163486
-0.0311423
0.0317736
0.0180738
0.0176356
-0.0323346
0.0328384
0.0182941
0.0181277
-0.0332864
0.0336922
0.0181661
0.0181384
-0.0340574
0.0343932
0.0179156
0.0179213
-0.0347012
0.0349921
0.0177399
0.0176825
-0.0352694
0.0355454
0.017775
0.0176015
-0.0358248
0.0361184
0.0179213
0.017722
-0.0364252
0.0367488
0.0177231
0.0177676
-0.0370793
0.0374129
0.0165373
0.0171549
-0.0377345
0.0380383
0.0138731
0.0152811
-0.03831
0.038546
0.00961797
0.0118344
-0.0387366
0.0388817
0.0040407
0.00690425
-0.0389786
0.0390302
-0.00232451
0.000903937
-0.0390384
0.0390042
-0.00872234
-0.00552967
-0.0389271
0.0388019
-0.0142065
-0.0115358
-0.0386267
0.038395
-0.0179726
-0.0161847
-0.0381117
0.0377752
-0.0198231
-0.018941
-0.037399
0.0369845
-0.0201903
-0.0199558
-0.0365478
0.036089
-0.0197345
-0.0198286
-0.035619
0.0348041
-0.0189445
-0.0191787
-0.0340774
0.0325357
-0.0193011
-0.0187408
-0.0189033
-0.0189958
0.0192437
0.0321735
0.0318263
-0.0193179
0.0196598
0.0329162
0.0326314
-0.0199435
0.0201707
0.03318
0.0328274
-0.0203359
0.0198954
0.0335802
0.0331691
-0.0193548
0.0196447
0.03291
0.0336347
0.0328471
-0.0329293
0.0188623
0.0331979
0.0182811
-0.0188844
0.0186331
0.0334118
0.033465
0.0329734
-0.033539
0.0201185
0.0190209
0.0332226
-0.0328661
0.0200582
0.0198396
0.0324771
-0.0320449
0.0196978
0.0196764
0.0315825
-0.0310841
0.0187156
0.0190628
0.0305719
-0.0300472
0.016776
0.0176648
0.0295381
-0.029051
0.0136424
0.0151817
0.0286147
-0.0282358
0.00930971
0.0114784
0.0279361
-0.027719
0.00406974
0.006695
0.0275964
-0.0275689
-0.00153382
0.00125441
0.0276386
-0.0278047
-0.00682023
-0.00422088
0.0280598
-0.0284026
-0.0111223
-0.00904318
0.0288187
-0.0293049
-0.0139711
-0.0126242
0.0298376
-0.0304079
-0.0153235
-0.0146794
0.0309842
-0.0315565
-0.0156917
-0.015445
0.0320995
-0.0326159
-0.0158242
-0.0156153
0.033098
-0.0335611
-0.0161471
-0.0158248
0.0340065
-0.0344496
-0.0166745
-0.0162624
0.0348891
-0.0353361
-0.0173435
-0.0168634
0.0357865
-0.0362493
-0.0181599
-0.0176036
0.0367187
-0.0372001
-0.0191117
-0.0184923
0.0376819
-0.0381617
-0.0200988
-0.0194803
0.0386173
-0.0390355
-0.0208631
-0.0204013
0.0389214
-0.0388019
-0.0208992
-0.0208835
0.0388828
-0.0395171
-0.0190454
-0.0203046
0.0383005
-0.0378272
-0.0164448
-0.0178289
-0.00909731
0.0090718
-0.0358951
0.0377555
-0.0373322
-0.00952063
-0.0125961
0.00225808
-0.00305175
-0.020933
-0.0205504
0.00150633
-0.0334723
0.00844387
-0.0056887
0.00506396
-0.0352704
-0.0369883
-0.00603266
-0.0166813
-0.0285313
0.0171779
-0.0318545
-0.0138337
-0.0266001
0.015718
-0.0324196
-0.0183529
0.0185506
0.0313526
-0.0182815
0.0312345
-0.010638
-0.0245038
0.0138149
-0.032479
-0.00693736
-0.0231706
0.0111441
-0.0330848
-0.00323288
-0.0217267
0.0329946
0.0188364
0.00137298
-0.0202212
-0.00170223
0.00115549
-0.0207155
-0.0332233
0.00481496
-0.00217509
0.00141908
-0.0345144
-0.00273748
-0.0364259
-0.00454761
0.00411783
-0.0197914
-0.0196316
0.0203611
-0.00243166
0.0315399
-0.0318051
-0.0187187
0.0311809
-0.0180618
-0.0199443
-0.00423493
-0.0306866
-0.0210769
0.0225471
0.00276127
0.000790542
-0.0237257
0.0245707
0.0073846
0.00560396
-0.0257142
0.0266352
0.0114526
0.00957341
-0.0275548
0.0284565
0.0145011
0.0130484
-0.02931
0.0301144
0.0164133
0.0154951
-0.0308514
0.0315279
0.0173972
0.0168986
-0.0321374
0.0326921
0.0177394
0.0175182
-0.0331915
0.0336492
0.0177084
0.017639
-0.034066
0.0344537
0.0175279
0.0175045
-0.034813
0.0351556
0.0173973
0.0173231
-0.0354847
0.0358137
0.017446
0.0172724
-0.0361468
0.0364957
0.0175724
0.0173889
-0.0368585
0.0372395
0.0173422
0.0174048
-0.0376272
0.0380183
0.0161462
0.0167672
-0.0383956
0.0387536
0.0135151
0.0149038
-0.0390756
0.0393574
0.00933619
0.0115123
-0.0395874
0.0397647
0.00386337
0.00667425
-0.0398849
0.0399509
-0.00239045
0.000783711
-0.0399626
0.0399199
-0.00867967
-0.00554137
-0.0398213
0.0396605
-0.0140458
-0.0114372
-0.0394372
0.0391462
-0.0176816
-0.0159614
-0.0387966
0.0383893
-0.0194157
-0.0185915
-0.0379425
0.0374589
-0.0197067
-0.0195091
-0.0369581
0.036439
-0.0192155
-0.0193278
-0.0359154
0.0354214
-0.0184505
-0.0186551
-0.0345567
0.0332816
-0.018026
-0.0178761
-0.0174268
-0.0185497
0.0187984
0.0319248
0.0318271
-0.0192183
0.0195903
0.0325443
0.0322114
-0.0199036
0.0201598
0.0329238
0.0325141
-0.0203516
0.0204775
0.0334543
0.0329773
-0.0205364
0.0198166
0.0336297
0.0335759
-0.0197253
0.0193753
0.0337617
0.0335564
-0.0376188
0.0383837
-0.0035024
0.000590677
-0.00160008
-0.0354165
-0.0369669
-6.1213e-05
0.018658
0.0337119
0.0333797
-0.0334268
0.0189094
-0.0332311
0.0335959
0.0184716
0.0184296
0.0339447
-0.0336079
0.0197817
0.0195389
0.0332461
-0.0328464
0.0196585
0.0194778
0.0324168
-0.031946
0.019227
0.0192468
0.0314481
-0.0309164
0.0181839
0.0185648
0.0303737
-0.0298201
0.0162224
0.0171221
0.0292845
-0.0287722
0.01313
0.0146461
0.0283126
-0.0279117
0.00890881
0.0110188
0.0275925
-0.0273591
0.00383635
0.00637586
0.0272247
-0.0271909
-0.0015676
0.00111994
0.0272606
-0.0274336
-0.00664717
-0.0041512
0.0277031
-0.0280683
-0.0107571
-0.00877368
0.0285136
-0.0290352
-0.0134495
-0.0121789
0.0296064
-0.0302162
-0.0147138
-0.0141082
0.0308297
-0.0314365
-0.0150849
-0.0148315
0.0320112
-0.0325583
-0.0152772
-0.0150406
0.0330713
-0.0335673
-0.0156512
-0.0153118
0.0340473
-0.0345275
-0.0161944
-0.0157823
0.0350058
-0.0354942
-0.0168551
-0.0163851
0.0359888
-0.0365004
-0.0176483
-0.017109
0.0370237
-0.0375663
-0.0185691
-0.017969
0.0381177
-0.0386782
-0.0195384
-0.018929
0.0392272
-0.0397528
-0.0203374
-0.0198522
0.0402204
-0.0406032
-0.0205164
-0.020416
0.0408647
-0.0405321
-0.019378
-0.020043
0.0403801
-0.0406075
-0.0162173
-0.0179809
0.0399911
-0.0392148
-0.0102969
-0.0132125
-0.00686377
-0.014183
-0.028182
0.0149803
-0.0311168
-0.0180231
0.0309226
-0.0110078
-0.0262304
0.0130801
-0.0316849
-0.0073725
-0.0240686
0.0107446
-0.0320794
-0.00332983
-0.0230737
0.00776118
-0.0324021
0.000736689
-0.0213079
0.00392688
-0.0205246
0.00681429
-0.0200946
-0.00666403
0.00705404
-0.0200311
-0.0327389
0.000934616
-0.00237828
-0.0337362
-0.00433911
0.00362567
-0.0362535
-0.00523983
-0.0345157
0.0185236
0.0337303
-0.00846571
0.00853965
-0.0201685
-0.0201588
0.019098
-0.00560319
0.0337351
-0.0338624
0.018599
0.0342942
0.0179645
-0.0206572
-0.00796734
-0.0298892
-0.0200373
0.0202108
-0.00260523
-0.00517423
-0.0217201
0.0223703
0.00211103
-0.000718681
-0.0236158
0.0244006
0.00659983
0.00435843
-0.0253983
0.0263082
0.0105427
0.00857576
-0.0272254
0.0281347
0.0135917
0.0121312
-0.0290056
0.029835
0.0155839
0.0146243
-0.0306039
0.0313179
0.0166832
0.0161297
-0.0319685
0.0325673
0.0171406
0.0168676
-0.0331121
0.0336161
0.0172044
0.0170943
-0.0340791
0.0345133
0.0170938
0.0170414
-0.0349189
0.0353083
0.0170078
0.0169175
-0.0356843
0.0360613
0.017069
0.0168964
-0.0364429
0.0368415
0.0171738
0.0170073
-0.0372547
0.0376873
0.0169096
0.0169915
-0.0381268
0.0385705
0.0157025
0.0163277
-0.0389998
0.0394089
0.013106
0.0144745
-0.0397792
0.040106
0.00900938
0.011142
-0.0403754
0.040586
0.00365273
0.0064049
-0.0407321
0.0408156
-0.0024739
0.000637628
-0.0408348
0.0407878
-0.00863268
-0.00556057
-0.0406714
0.0404783
-0.0138527
-0.0113208
-0.0402097
0.0398619
-0.0173338
-0.0156927
-0.039449
0.0389741
-0.0189409
-0.0181785
-0.0384607
0.0379123
-0.0191583
-0.0189956
-0.0373519
0.0367776
-0.0186412
-0.0187673
-0.0362063
0.0356305
-0.0178748
-0.0180837
-0.0350562
0.0341296
-0.0170994
-0.0173018
-0.0332729
0.0318569
-0.0173027
-0.0165701
-0.0311542
0.0308453
-0.0177141
-0.0173591
-0.0179515
0.0182557