/*--------------------------------*- C++ -*----------------------------------*\
  =========                 |
  \\      /  F ield         | OpenFOAM: The Open Source CFD Toolbox
   \\    /   O peration     | Website:  https://openfoam.org
    \\  /    A nd           | Version:  10
     \\/     M anipulation  |
\*---------------------------------------------------------------------------*/
FoamFile
{
    format      ascii;
    class       volScalarField;
    location    "17";
    object      p;
}
// * * * * * * * * * * * * * * * * * * * * * * * * * * * * * * * * * * * * * //

dimensions      [0 2 -2 0 0 0 0];

internalField   nonuniform List<scalar> 
28942
(
-5.05074
-5.13187
-1.63843
1.18659
1.23415
-0.075673
-0.0633035
-0.0746103
0.166076
0.207922
-3.97976
-3.99215
-4.1179
-4.18519
-0.00404396
-0.00062461
2.42598
2.57428
-0.0305254
0.928225
1.66891
1.68064
-3.99165
-3.91262
-4.25799
-4.09811
4.13466
4.41071
-0.530131
-0.528815
-0.0987401
-0.0988378
0.0456126
-0.00938986
0.670623
1.04408
2.66447
3.39017
-0.0918589
2.43471
1.44508
1.40386
0.0100918
0.0394828
0.127382
-0.0593798
-0.0525115
-0.0462067
-0.0458743
-0.0409411
-0.0264465
0.345115
0.34656
0.20044
0.249463
-2.99414
-2.37847
-4.10591
-4.06517
-4.02026
-4.05605
-4.09087
-4.13442
-1.17941
-1.67681
-0.768037
-0.433863
2.37008
2.21852
-5.03295
-5.06698
-5.07812
2.28188
2.22036
2.25752
-2.48691
-2.49671
-1.87136
-1.5717
-1.96962
-1.33378
-2.09077
-5.23179
-5.49319
-0.934804
-0.320144
0.228998
0.0824
-0.418122
-0.217262
0.0516369
0.366061
-4.25543
-3.90134
-4.69971
-4.75089
-4.70331
0.262345
0.485692
-5.53265
1.27938
1.29371
1.34658
1.27988
-0.222712
-0.159409
-0.226242
0.726367
0.764654
0.78967
-4.16739
-4.23778
-5.34437
-5.59231
-5.19858
4.90952
4.54483
4.32298
4.65888
-0.685668
0.335403
-0.0644387
-0.114932
-0.326101
5.24574
5.39168
5.16652
-0.247983
0.0574151
-0.0482229
-0.0430215
-0.0531382
2.22487
2.93666
1.12497
1.08982
1.29205
0.734796
1.70618
1.96329
-5.14206
-5.00274
-0.00929665
0.267847
0.237259
-1.97123
-2.08985
-1.87927
-4.94733
0.826853
0.634406
-0.787108
-0.0429046
-0.0606543
-0.0659003
-0.0531119
1.35438
0.586426
-4.11746
-3.96294
-4.10106
-4.88518
-4.23021
-0.0309937
-3.54775
-3.26562
1.80521
1.88196
2.23761
2.11047
1.63678
0.369145
0.369446
0.340817
0.300781
0.602947
0.522254
0.633412
0.705447
0.672087
0.682151
0.751355
0.95992
0.846034
0.707921
0.836981
1.08724
1.43843
1.56532
-3.45537
-2.76836
-4.96947
-0.0592348
-0.0423494
-3.86126
-3.86621
-0.0361188
-0.0296055
-0.0328715
-0.0419569
-2.43892
-2.44996
-2.22341
-4.38259
-4.41028
-4.6999
-3.98852
-3.97089
-4.01141
-3.98462
-4.22147
-4.04967
4.80145
4.59347
4.85306
-0.109543
-0.0348744
-0.0411632
2.57289
2.49104
2.53027
-3.80205
-3.94668
-3.59628
-4.01462
-3.99993
-3.90841
-3.97303
-3.74548
-3.80906
-4.06329
-4.0761
-4.00823
-3.86177
-3.6529
-3.52782
-3.57948
-3.34172
-3.39343
-3.05837
-3.27507
-3.30631
-3.10376
-3.00135
-2.72435
-3.02005
-2.73344
-2.78111
-2.81681
-2.45833
-2.45858
-2.50671
-2.53968
-2.21388
-2.20647
-2.25418
-2.28074
-1.99877
-1.9841
-2.03104
-2.05136
-1.81655
-1.79551
-1.84261
-1.85499
-1.66788
-1.64063
-1.69032
-1.69434
-1.55105
-1.51845
-1.57342
-1.56875
-1.46382
-1.42524
-1.48725
-1.47502
-1.40367
-1.35852
-1.43009
-1.41113
-1.37023
-1.31746
-1.39806
-1.37245
-1.36382
-1.3021
-1.39093
-1.35843
-1.38771
-1.31441
-1.39332
-1.39459
-1.41104
-1.36968
-1.46721
-1.41755
-1.64902
-1.54217
-1.9646
-1.78903
-2.41363
-2.17427
-2.95073
-2.67713
-3.45667
-3.21359
-3.79766
-3.65884
-3.85134
-3.87045
-3.60687
-3.76311
-3.16156
-3.40142
-2.63947
-2.90201
-2.15852
-2.3882
-1.78809
-1.95748
-1.54537
-1.65128
-1.42057
-1.4692
-1.4044
-1.399
-1.43929
-1.44007
-1.35535
-1.25018
-1.22747
-1.22648
-1.36594
-1.29603
-1.58609
-1.46157
-1.93316
-1.743
-2.40941
-2.15648
-2.97564
-2.68587
-3.53831
-3.2654
-3.94225
-3.77279
-4.04988
-4.03638
-3.83707
-3.98139
-3.36728
-3.62467
-2.78559
-3.08246
-2.24195
-2.5026
-1.81576
-2.01244
-1.52456
-1.6536
-1.35968
-1.42784
-1.29757
-1.31723
-1.30221
-1.42427
-1.50212
-1.25574
-1.40842
-1.3308
-1.48432
-1.46104
-1.36098
-1.40945
-1.37098
-1.42083
-1.37821
-1.58327
-1.48803
-1.87103
-1.71018
-2.28612
-2.0644
-2.78116
-2.52883
-3.25358
-3.02714
-3.56706
-3.4384
-3.6211
-3.61976
-3.40614
-3.54761
-2.99541
-3.21731
-2.51133
-2.75477
-2.0677
-2.27901
-1.73022
-1.88388
-1.51484
-1.60764
-1.41416
-1.45087
-1.4206
-1.40392
-1.51846
-1.58835
-1.53314
-1.46367
-1.13
-1.14588
-1.30736
-1.42237
-1.16555
-1.1373
-1.28491
-1.21388
-1.50583
-1.38128
-1.84951
-1.6616
-2.31814
-2.06941
-2.87623
-2.59029
-3.42841
-3.16185
-3.82525
-3.65574
-3.93576
-3.92135
-3.73233
-3.87153
-3.27412
-3.52558
-2.70535
-2.99542
-2.16483
-2.42335
-1.74392
-1.93739
-1.45607
-1.58411
-1.28664
-1.3578
-1.21611
-1.23991
-1.23296
-1.21344
-1.47646
-1.38475
-1.27584
-1.47487
-1.62533
-1.18432
-1.57182
-1.56568
-1.46785
-1.34399
-1.54149
-1.53122
-1.62769
-1.38225
-1.24579
-1.5316
-1.67201
-1.78726
-1.6478
-1.36727
-1.43818
-1.3051
-1.32236
-1.35006
-1.31481
-1.49271
-1.40895
-1.74844
-1.60511
-2.1221
-1.9221
-2.57168
-2.34189
-3.00227
-2.79684
-3.29162
-3.1721
-3.34478
-3.34772
-3.1526
-3.27794
-2.78272
-2.9828
-2.34652
-2.56588
-1.94775
-2.1374
-1.64743
-1.78357
-1.46115
-1.54023
-1.38362
-1.40928
-1.40833
-1.38328
-1.45765
-1.61737
-1.73935
-1.6952
-1.50859
-1.023
-1.05619
-1.02952
-1.06542
-1.03576
-1.18579
-1.11498
-1.4025
-1.28078
-1.73487
-1.55356
-2.18552
-1.94641
-2.72255
-2.44729
-3.25426
-2.99764
-3.63547
-3.4724
-3.74728
-3.72982
-3.55483
-3.68678
-3.12066
-3.36043
-2.57943
-2.85554
-2.05982
-2.30937
-1.65092
-1.8389
-1.3698
-1.49513
-1.19949
-1.2721
-1.12025
-1.14932
-1.12183
-1.11142
-1.20687
-1.15337
-1.43731
-1.28137
-1.68025
-1.5725
-1.74733
-1.10212
-1.81218
-1.57816
-2.07592
-1.377
-1.55222
-2.13408
-2.3875
-1.64793
-1.74538
-1.9214
-1.47025
-1.59606
-1.29893
-1.37174
-1.22787
-1.25075
-1.25777
-1.23062
-1.38066
-1.30791
-1.60292
-1.47821
-1.93078
-1.75487
-2.32844
-2.12483
-2.71385
-2.5295
-2.97521
-2.86662
-3.02733
-3.02928
-2.86056
-2.96937
-2.53539
-2.71157
-2.15171
-2.34458
-1.80173
-1.96799
-1.5405
-1.65838
-1.38331
-1.44896
-1.32679
-1.34282
-1.36559
-1.33471
-1.49736
-1.41987
-1.72232
-1.59878
-1.87043
-1.86449
-1.88629
-1.73197
-1.81891
-1.47664
-1.61457
-1.16387
-1.32342
-0.9243
-1.00345
-0.957494
-0.907688
-0.90778
-0.954338
-0.923565
-1.07264
-1.00333
-1.28141
-1.16465
-1.59649
-1.42508
-2.02034
-1.79567
-2.52426
-2.26608
-3.02351
-2.78223
-3.38378
-3.22956
-3.4917
-3.47334
-3.31485
-3.43688
-2.91297
-3.13522
-2.4084
-2.66534
-1.92403
-2.15739
-1.53779
-1.71617
-1.26802
-1.38883
-1.10019
-1.17265
-1.0152
-1.0482
-1.00214
-1.00005
-1.06119
-1.02255
-1.19573
-1.11964
-1.49201
-1.28848
-1.81648
-1.69877
-2.02874
-1.715
-1.66604
-1.80854
-1.2413
-1.06857
-2.40538
-1.68963
-2.60091
-2.05042
-1.6204
-1.39366
-2.31151
-1.78152
-1.65099
-1.831
-1.37677
-1.50022
-1.20818
-1.28003
-1.13407
-1.16007
-1.14936
-1.13042
-1.25155
-1.19009
-1.44069
-1.33449
-1.72168
-1.57057
-2.06531
-1.88903
-2.4012
-2.24017
-2.63195
-2.53553
-2.68228
-2.68184
-2.54178
-2.634
-2.26271
-2.41424
-1.93267
-2.09851
-1.63246
-1.77488
-1.41073
-1.51028
-1.28206
-1.33478
-1.24484
-1.25232
-1.2965
-1.25977
-1.43664
-1.35589
-1.54119
-2.01192
-2.01631
-2.03396
-1.85777
-1.95247
-1.5819
-1.73123
-1.41613
-0.791061
-0.850766
-0.813062
-0.786777
-0.782204
-0.834957
-0.803559
-0.949864
-0.88316
-1.14687
-1.03718
-1.4395
-1.28076
-1.82973
-1.62315
-2.29216
-2.05532
-2.74989
-2.52867
-3.08218
-2.93938
-3.18441
-3.16597
-3.02524
-3.13555
-2.66063
-2.86242
-2.19993
-2.43456
-1.75739
-1.9708
-1.40191
-1.56673
-1.14969
-1.26326
-0.988777
-1.05897
-0.902056
-0.936989
-0.877739
-0.882622
-0.912428
-0.887426
-1.01335
-0.954243
-1.16742
-1.0861
-1.504
-1.2562
-1.9961
-1.8523
-1.96137
-0.896942
-2.31248
-2.68645
-2.68561
-1.87776
-1.84864
-2.59038
-2.83853
-2.96609
-1.76052
-1.6194
-1.34496
-1.94579
-1.90558
-2.46197
-2.17806
-1.51817
-1.68852
-1.2626
-1.3791
-1.10159
-1.17031
-1.02647
-1.05432
-1.02937
-1.01793
-1.11099
-1.06079
-1.26798
-1.17976
-1.50259
-1.37616
-1.79209
-1.6433
-2.07784
-1.94043
-2.27704
-2.19325
-2.32432
-2.3218
-2.20875
-2.28522
-1.97477
-2.10208
-1.69729
-1.83666
-1.44586
-1.56491
-1.26279
-1.34445
-1.1618
-1.20199
-1.14324
-1.14239
-1.20698
-1.16476
-1.35483
-1.27027
-1.58455
-1.46011
-1.87694
-1.72481
-2.16791
-2.02729
-2.11513
-2.15169
-2.18035
-1.98389
-2.08555
-1.6931
-1.85127
-1.32661
-1.51412
-0.953849
-1.1389
-0.700398
-0.777547
-0.734516
-0.660093
-0.674994
-0.662523
-0.656297
-0.71232
-0.680729
-0.822071
-0.758946
-1.00473
-0.903537
-1.27129
-1.12716
-1.62289
-1.43711
-2.03758
-1.82527
-2.44827
-2.24971
-2.74712
-2.61843
-2.84151
-2.82352
-2.70183
-2.79922
-2.37802
-2.55742
-1.96701
-2.17662
-1.56976
-1.76162
-1.24809
-1.3977
-1.0169
-1.12148
-0.866388
-0.932566
-0.781295
-0.81648
-0.749622
-0.759394
-0.765337
-0.751474
-0.83274
-0.79217
-0.947128
-0.885278
-1.08675
-1.0158
-1.42911
-1.15202
-2.22648
-2.70817
-2.60289
-1.76202
-1.90304
-1.01351
-0.82807
-2.03462
-2.06759
-2.97338
-2.02313
-1.90486
-1.72603
-1.49843
-1.20768
-2.14583
-2.2421
-2.9287
-2.7056
-2.48907
-1.73352
-1.98367
-1.37036
-1.53028
-1.13284
-1.24087
-0.981677
-1.04657
-0.908047
-0.936254
-0.901601
-0.896315
-0.963904
-0.924404
-1.09112
-1.01943
-1.28253
-1.17925
-1.52022
-1.39786
-1.75689
-1.64273
-1.92447
-1.8535
-1.96741
-1.96353
-1.87442
-1.93649
-1.68273
-1.78719
-1.45501
-1.56933
-1.2499
-1.34677
-1.10361
-1.16823
-1.02902
-1.05721
-1.02799
-1.01932
-1.10194
-1.0554
-1.25402
-1.16811
-1.48102
-1.35954
-1.61769
-2.30676
-2.1614
-2.25499
-2.28126
-2.31525
-2.10032
-2.20837
-1.79671
-1.96167
-1.41155
-1.60955
-1.21114
-0.558447
-0.615332
-0.582639
-0.532555
-0.541953
-0.539588
-0.531313
-0.589737
-0.55866
-0.692943
-0.634111
-0.859592
-0.767727
-1.09817
-0.969653
-1.40871
-1.24503
-1.77246
-1.58639
-2.13266
-1.95838
-2.39584
-2.28233
-2.48047
-2.46369
-2.3607
-2.4447
-2.07955
-2.23554
-1.72122
-1.90417
-1.3721
-1.54113
-1.08578
-1.21952
-0.876518
-0.97167
-0.737555
-0.799065
-0.655756
-0.690299
-0.619238
-0.632445
-0.621434
-0.615575
-0.662365
-0.636984
-0.739368
-0.696856
-0.842676
-0.789318
-0.939383
-0.895169
-3.27849
-3.11992
-1.24638
-0.971653
-2.50344
-2.03085
-0.653927
-2.87052
-2.25336
-3.13215
-2.90437
-2.27656
-3.26807
-2.20317
-2.04402
-1.81647
-1.54795
-1.26698
-0.981
-2.3943
-2.37195
-2.97863
-2.63043
-2.52722
-1.9864
-2.19088
-1.55417
-1.76726
-1.2142
-1.36727
-0.993122
-1.0923
-0.854105
-0.914156
-0.78348
-0.811261
-0.770134
-0.769697
-0.815258
-0.785457
-0.915485
-0.858739
-1.06768
-0.98546
-1.25784
-1.15979
-1.44872
-1.35638
-1.58598
-1.52748
-1.62361
-1.61906
-1.5505
-1.59974
-1.39717
-1.48083
-1.21499
-1.30635
-1.0524
-1.12886
-0.93989
-0.988852
-0.889229
-0.906614
-0.903262
-0.888054
-0.984701
-0.935293
-1.13752
-1.05208
-1.35805
-1.24028
-1.6198
-1.48645
-1.87444
-1.75161
-2.27332
-1.97593
-2.13975
-2.42071
-2.36903
-2.39012
-2.42749
-2.19875
-2.31262
-1.88322
-2.05378
-1.48703
-1.69198
-1.07299
-1.27845
-0.691808
-0.876026
-0.465688
-0.521998
-0.49341
-0.427194
-0.443586
-0.409141
-0.414852
-0.421037
-0.410907
-0.470676
-0.440657
-0.566192
-0.512209
-0.715927
-0.63382
-0.926023
-0.813324
-1.1952
-1.05376
-1.5077
-1.34803
-1.81668
-1.66713
-2.04344
-1.94539
-2.11776
-2.10251
-2.01728
-2.0882
-1.77843
-1.91114
-1.47239
-1.62884
-1.17185
-1.31776
-0.921964
-1.03921
-0.735607
-0.820929
-0.608478
-0.665225
-0.530308
-0.563973
-0.490297
-0.506087
-0.482231
-0.482432
-0.504024
-0.48952
-0.55269
-0.52525
-0.623695
-0.585948
-0.698119
-0.662856
-0.737449
-0.725369
-3.52247
-3.41076
-0.98223
-0.741852
-2.80511
-2.49699
-2.67205
-3.02885
-3.29083
-3.19619
-2.49048
-1.69783
-1.78721
-0.724789
-0.549465
-3.55123
-2.37206
-2.15876
-1.88058
-1.57362
-1.25752
-2.65209
-2.25097
-2.16595
-0.966149
-0.731485
-2.56909
-2.67228
-2.26414
-2.27819
-2.05432
-2.18234
-1.73226
-1.90628
-1.35221
-1.53957
-1.0485
-1.18623
-0.848653
-0.937747
-0.723031
-0.777702
-0.656388
-0.683168
-0.638491
-0.641558
-0.669062
-0.647692
-0.745648
-0.701941
-0.863654
-0.799835
-1.0118
-0.935326
-1.16147
-1.08891
-1.27067
-1.22384
-1.30228
-1.29771
-1.24622
-1.28431
-1.12658
-1.19193
-0.984588
-1.05568
-0.859535
-0.917996
-0.776587
-0.811901
-0.746275
-0.75458
-0.772328
-0.75206
-0.858528
-0.807632
-1.00871
-0.92557
-1.2187
-1.10721
-1.46233
-1.33941
-1.58515
-2.35322
-2.04494
-2.21753
-2.50086
-2.44865
-2.46869
-2.50685
-2.27176
-2.38919
-1.94629
-2.12188
-1.54517
-1.75212
-1.12065
-1.33146
-0.916955
-0.330659
-0.370621
-0.348998
-0.304229
-0.316562
-0.293874
-0.296287
-0.309344
-0.297983
-0.357347
-0.328876
-0.444543
-0.395656
-0.577398
-0.504935
-0.759793
-0.662415
-0.989147
-0.869106
-1.25228
-1.11806
-1.51185
-1.38617
-1.7031
-1.62023
-1.76712
-1.75347
-1.68479
-1.74337
-1.48594
-1.5966
-1.22945
-1.36079
-0.975196
-1.09902
-0.760902
-0.861842
-0.598211
-0.67317
-0.48371
-0.535385
-0.409406
-0.442088
-0.366696
-0.384553
-0.350347
-0.355409
-0.35784
-0.351261
-0.386495
-0.369707
-0.432674
-0.407765
-0.485808
-0.459482
-0.521816
-0.507635
-0.524098
-0.530445
-3.01596
-0.70368
-0.928669
-0.668551
-0.482503
-0.506268
-3.64978
-3.58702
-3.09774
-2.74474
-1.84975
-0.392759
-3.36855
-3.47405
-2.69061
-3.78548
-2.51105
-2.23622
-1.91117
-1.56623
-1.22988
-2.04259
-1.65884
-1.53269
-0.319082
-0.30179
-0.4563
-1.89477
-2.42791
-2.94119
-0.882126
-0.628219
-2.94944
-1.85526
-1.76732
-1.90793
-1.91256
-1.74085
-1.84698
-1.45729
-1.6083
-1.14145
-1.29715
-0.882136
-1.00136
-0.705017
-0.784186
-0.592885
-0.641952
-0.530856
-0.556329
-0.509763
-0.515455
-0.528489
-0.514098
-0.585077
-0.552415
-0.674102
-0.625897
-0.786379
-0.728355
-0.90046
-0.845041
-0.984553
-0.948328
-1.00983
-1.00566
-0.967917
-0.996656
-0.876811
-0.926616
-0.768979
-0.822853
-0.675679
-0.718941
-0.61742
-0.641395
-0.603712
-0.604681
-0.639031
-0.615004
-0.72753
-0.676382
-0.872489
-0.792945
-1.06986
-0.965534
-1.2966
-1.18214
-1.50698
-1.40727
-1.64472
-1.58731
-2.07902
-1.67391
-1.88042
-2.3911
-2.25366
-2.5386
-2.48659
-2.50897
-2.54584
-2.31211
-2.42992
-1.98149
-2.16079
-1.57911
-1.78585
-1.15201
-1.3653
-0.750935
-0.945681
-0.40989
-0.572669
-0.237386
-0.267787
-0.253929
-0.210714
-0.222411
-0.1919
-0.199971
-0.188043
-0.187655
-0.20595
-0.193912
-0.251533
-0.224952
-0.330179
-0.286424
-0.446747
-0.383505
-0.603243
-0.520128
-0.795819
-0.695518
-1.01328
-0.902644
-1.22685
-1.12341
-1.38493
-1.31627
-1.43906
-1.42703
-1.37308
-1.42048
-1.21071
-1.30123
-0.999435
-1.10786
-0.787667
-0.891174
-0.606383
-0.692151
-0.466435
-0.53122
-0.365187
-0.411384
-0.295597
-0.326889
-0.251123
-0.270539
-0.228052
-0.23705
-0.224522
-0.22394
-0.238786
-0.229561
-0.26795
-0.251819
-0.304349
-0.285999
-0.332679
-0.320509
-0.33866
-0.3399
-0.332155
-3.69227
-3.66121
-0.429089
-0.284379
-3.37148
-2.97623
-3.35801
-3.70948
-2.85511
-1.43428
-1.45973
-0.424069
-0.277606
-3.95393
-2.60344
-2.26304
-1.90524
-1.53415
-1.18968
-1.3921
-1.08518
-0.969518
-1.24708
-1.72188
-2.25032
-2.78322
-0.834386
-0.595099
-0.271355
-0.409614
-3.20695
-1.30552
-1.18947
-1.50804
-1.41945
-1.557
-1.55746
-1.4399
-1.51611
-1.20729
-1.33346
-0.941672
-1.07304
-0.718736
-0.821923
-0.564169
-0.633343
-0.465481
-0.508889
-0.409027
-0.432595
-0.386538
-0.393848
-0.395881
-0.387188
-0.435816
-0.412326
-0.501082
-0.46566
-0.583819
-0.54102
-0.66826
-0.627181
-0.730822
-0.703831
-0.750012
-0.746593
-0.71921
-0.740477
-0.651357
-0.688463
-0.571471
-0.611258
-0.504063
-0.534952
-0.465799
-0.480614
-0.465312
-0.460502
-0.507327
-0.480767
-0.595843
-0.545557
-0.733659
-0.658636
-0.916738
-0.820441
-1.12427
-1.01984
-1.31224
-1.22473
-1.38391
-2.07366
-1.66925
-1.87947
-2.38281
-2.24563
-2.53125
-2.47806
-2.50666
-2.54093
-2.31513
-2.43009
-1.98465
-2.16777
-1.58781
-1.79172
-1.16753
-1.37786
-0.767048
-0.961815
-0.587677
-0.120935
-0.143033
-0.131707
-0.103376
-0.111878
-0.0914793
-0.0961812
-0.0925544
-0.0900713
-0.111809
-0.0995936
-0.154362
-0.129904
-0.224537
-0.18577
-0.325902
-0.271192
-0.458937
-0.388671
-0.618718
-0.535982
-0.795508
-0.7059
-0.967758
-0.884353
-1.09574
-1.04002
-1.14061
-1.13021
-1.08874
-1.12634
-0.958473
-1.03125
-0.787131
-0.875305
-0.613208
-0.698546
-0.461745
-0.533782
-0.342327
-0.397906
-0.253753
-0.294536
-0.189779
-0.219109
-0.144907
-0.165179
-0.116756
-0.128801
-0.104701
-0.108735
-0.108241
-0.104583
-0.12552
-0.115411
-0.15055
-0.137657
-0.172475
-0.162637
-0.178712
-0.178174
-0.170812
-0.176245
-0.153969
-0.162572
-0.2675
-0.150801
-0.149039
-3.65699
-3.58497
-3.60375
-3.16666
-1.45513
-0.150375
-3.26101
-3.84763
-2.96732
-4.14355
-2.6316
-2.2605
-1.86219
-1.47779
-1.13126
-0.838465
-0.605299
-0.500951
-0.0463833
-0.0559229
-0.156426
-0.711189
-1.09404
-1.53893
-2.0443
-2.56647
-0.786533
-0.568716
-0.400142
-0.270025
-3.41976
-0.814248
-0.710178
-1.01035
-0.912739
-1.19
-1.11064
-1.24653
-1.23564
-1.16252
-1.22195
-0.964738
-1.0728
-0.742122
-0.851261
-0.558669
-0.64358
-0.429532
-0.487776
-0.34457
-0.38228
-0.293795
-0.315385
-0.270664
-0.279055
-0.272895
-0.268593
-0.299527
-0.2834
-0.345793
-0.320582
-0.404846
-0.37428
-0.465333
-0.435879
-0.510181
-0.490862
-0.523897
-0.52117
-0.501395
-0.516956
-0.451805
-0.478899
-0.394048
-0.422673
-0.347152
-0.368244
-0.324644
-0.332268
-0.334204
-0.325096
-0.380406
-0.352493
-0.466996
-0.418463
-0.59626
-0.526358
-0.763862
-0.67606
-0.950756
-0.856837
-1.11942
-1.0401
-1.22486
-1.18367
-1.24251
-1.24502
-1.63382
-1.21083
-1.42088
-2.02975
-1.83988
-2.32898
-2.1959
-2.47966
-2.42439
-2.46134
-2.49226
-2.27762
-2.38851
-1.96203
-2.13378
-1.57331
-1.77323
-1.16388
-1.36848
-0.772762
-0.963912
-0.429444
-0.593168
-0.155461
-0.283555
-0.0345839
-0.0444399
-0.0406471
-0.0204649
-0.0272341
-0.00928749
-0.0149781
-0.00298597
-0.0050458
-0.00755344
-0.00367659
-0.0272648
-0.0152408
-0.0664586
-0.0442134
-0.128508
-0.0944548
-0.215998
-0.169007
-0.328343
-0.269334
-0.459806
-0.392195
-0.601576
-0.530096
-0.737949
-0.67199
-0.839474
-0.79517
-0.875734
-0.867102
-0.835483
-0.864798
-0.732451
-0.790174
-0.5954
-0.666157
-0.454271
-0.523797
-0.329132
-0.388974
-0.227887
-0.275382
-0.150463
-0.186435
-0.0921924
-0.119294
-0.0482794
-0.0686301
-0.0169602
-0.0310484
0.00129071
-0.00613946
0.00567415
0.00523047
-0.00309179
0.00275748
-0.0203613
-0.0111517
-0.0372588
-0.0294706
-0.0439946
-0.0422217
-0.0410596
-0.0433394
-0.0371584
-0.0383693
-0.0404917
-3.639
-3.45971
-0.166286
-0.0673262
-3.76753
-3.3005
-3.06537
-3.8076
-3.0139
-1.03287
-1.00622
-0.158189
-0.0485597
-3.9516
-2.62599
-2.20546
-1.78646
-1.40043
-1.06444
-0.406117
-0.232262
-0.166318
-0.320879
-0.596357
-0.945
-1.35782
-1.8171
-2.30446
-0.745646
-0.550259
-0.397891
-0.278608
-0.0810645
-0.180778
-3.56723
-0.395792
-0.307936
-0.586877
-0.490868
-0.75924
-0.675448
-0.907356
-0.839903
-0.967654
-0.951644
-0.903439
-0.951408
-0.742205
-0.83012
-0.561947
-0.650238
-0.41214
-0.481914
-0.303944
-0.35304
-0.23145
-0.263803
-0.186583
-0.205973
-0.163767
-0.172666
-0.160745
-0.159783
-0.176866
-0.166579
-0.208261
-0.191003
-0.248915
-0.227869
-0.290624
-0.270292
-0.321639
-0.308266
-0.330654
-0.329376
-0.313944
-0.325322
-0.278251
-0.297685
-0.237539
-0.257557
-0.206433
-0.219996
-0.195844
-0.19808
-0.212484
-0.200465
-0.260664
-0.232413
-0.343796
-0.297701
-0.463462
-0.39914
-0.614973
-0.535936
-0.781224
-0.697836
-0.931121
-0.860374
-1.0221
-0.987358
-1.03792
-1.56869
-1.15469
-1.36406
-1.94998
-1.76683
-2.23643
-2.10789
-2.38799
-2.33119
-2.37687
-2.40351
-2.2058
-2.3097
-1.90849
-2.07007
-1.5364
-1.72836
-1.14155
-1.33896
-0.764261
-0.948866
-0.429192
-0.589751
-0.285321
0.0572262
0.0480562
0.0529944
0.0653067
0.0616179
0.0721563
0.0690704
0.0740047
0.0739311
0.0671389
0.0718665
0.047675
0.0592144
0.0120224
0.0320294
-0.0424036
-0.0127152
-0.11748
-0.0773381
-0.211955
-0.162593
-0.31964
-0.264668
-0.432232
-0.375869
-0.538424
-0.487192
-0.617385
-0.582854
-0.645815
-0.639035
-0.614614
-0.637286
-0.534037
-0.579337
-0.425578
-0.481756
-0.312127
-0.368264
-0.209501
-0.258855
-0.124211
-0.164592
-0.0564012
-0.0882594
-0.00316004
-0.0282072
0.0390584
0.0191669
0.0716976
0.0565918
0.0937762
0.0841712
0.103564
0.100283
0.100824
0.103643
0.0891842
0.0956898
0.0763851
0.0824976
0.0696953
0.0721013
0.0686707
0.0688569
0.06372
0.0674884
0.0475065
0.0566711
0.0231734
0.0355467
-0.100255
-0.0100418
0.00811199
-3.52274
-3.25325
-3.85511
-3.37284
-0.959293
0.0459826
-2.79252
-3.84377
-2.98684
-3.76581
-2.55521
-2.10782
-1.68613
-1.3113
-0.997237
-0.101015
0.0336485
0.0856654
0.0706639
0.0504039
-0.0321298
-0.0408025
-0.246577
-0.498372
-0.808967
-1.17826
-1.58451
-2.01809
-0.714397
-0.541259
-0.403855
-0.292817
-0.2021
-0.124248
-3.63292
-0.0812335
-0.020562
-0.222176
-0.146423
-0.390174
-0.306824
-0.537736
-0.466468
-0.662726
-0.604344
-0.723695
-0.705374
-0.672424
-0.712258
-0.538952
-0.611369
-0.393437
-0.46423
-0.274212
-0.329746
-0.187078
-0.226865
-0.126897
-0.154032
-0.0879858
-0.105063
-0.0663207
-0.0752068
-0.0597672
-0.0611736
-0.0679013
-0.0620982
-0.087902
-0.0767118
-0.114663
-0.1008
-0.142027
-0.128688
-0.162403
-0.153633
-0.167581
-0.167438
-0.154981
-0.163329
-0.129612
-0.143331
-0.101675
-0.115239
-0.0823249
-0.0903089
-0.0803289
-0.0787426
-0.101527
-0.0877614
-0.149902
-0.122126
-0.228388
-0.185267
-0.337821
-0.279357
-0.47334
-0.402981
-0.619738
-0.546561
-0.750125
-0.688924
-0.830528
-0.798666
-0.837471
-0.842701
-0.778073
-0.815749
-1.08707
-0.726731
-0.901047
-1.47896
-1.28291
-1.83939
-1.66703
-2.11336
-1.9894
-2.26356
-2.20631
-2.26025
-2.28178
-2.10561
-2.20039
-1.83027
-1.98038
-1.48032
-1.66147
-1.10448
-1.2928
-0.74341
-0.920099
-0.423111
-0.577096
-0.157907
-0.282486
0.0443104
-0.0494809
0.127989
0.12344
0.125553
0.133494
0.130679
0.138455
0.135981
0.141527
0.140368
0.140266
0.141553
0.132036
0.137221
0.11331
0.124183
0.0812218
0.0990517
0.0338272
0.0595398
-0.0302714
0.00386581
-0.109534
-0.0683088
-0.197703
-0.15303
-0.286726
-0.242572
-0.368295
-0.329131
-0.428354
-0.402123
-0.450138
-0.444852
-0.425823
-0.443548
-0.363188
-0.39844
-0.277887
-0.322226
-0.187127
-0.232264
-0.103171
-0.143806
-0.0314304
-0.0656897
0.0279713
-0.00028869
0.0768944
0.0536054
0.117312
0.0980735
0.149994
0.134648
0.173811
0.163138
0.186719
0.181732
0.187993
0.188731
0.180654
0.185
0.171284
0.176387
0.164975
0.167607
0.160165
0.162848
0.149144
0.155802
0.129874
0.140359
0.104415
0.117801
0.0883742
-3.3436
-3.01225
-0.0580143
0.028168
-3.78514
-3.32016
-2.49038
-3.70867
-2.89219
-0.608382
-0.563686
0.0434729
0.121271
-3.50871
-2.43322
-1.97977
-1.57192
-1.22107
-0.937514
0.136223
0.243525
0.284823
0.181858
0.0145918
-0.179427
-0.413173
-0.691911
-1.01205
-1.36116
-1.7426
-0.695382
-0.542213
-0.417587
-0.315193
-0.229059
-0.154135
0.00321577
-0.0873218
-3.58315
0.154048
0.202034
0.042249
0.100266
-0.0806742
-0.0174223
-0.218883
-0.150189
-0.346929
-0.284173
-0.45795
-0.406175
-0.508915
-0.494744
-0.463429
-0.497378
-0.357513
-0.414145
-0.245388
-0.299933
-0.152268
-0.195907
-0.0824511
-0.114578
-0.0326959
-0.0553499
0.000935266
-0.0140602
0.0212806
0.0126103
0.0301546
0.0271162
0.0279052
0.0303717
0.0164286
0.0230901
-0.000119918
0.00849413
-0.0169355
-0.00878695
-0.029177
-0.0239591
-0.0313974
-0.0318903
-0.0217913
-0.027943
-0.00396318
-0.0135036
0.0146383
0.00578372
0.0255135
0.021526
0.0215964
0.0257537
-0.00216782
0.0124325
-0.0493439
-0.0226678
-0.122326
-0.0825379
-0.221316
-0.168729
-0.341417
-0.279355
-0.469051
-0.405538
-0.581204
-0.528787
-0.651272
-0.623053
-0.658592
-0.66308
-0.640071
-1.00888
-0.664328
-0.834607
-1.371
-1.18896
-1.70766
-1.54614
-1.96875
-1.84995
-2.11585
-2.05887
-2.12086
-2.13673
-1.98492
-2.06931
-1.73416
-1.87153
-1.40979
-1.57831
-1.05686
-1.23421
-0.71453
-0.882321
-0.410205
-0.556647
-0.154911
-0.275637
-0.0486345
0.193983
0.189669
0.192099
0.197283
0.19537
0.199639
0.198631
0.199893
0.200096
0.19671
0.198835
0.187819
0.19317
0.170165
0.18025
0.141567
0.157318
0.100565
0.1227
0.0460907
0.0750017
-0.0203147
0.0141014
-0.0927145
-0.0562767
-0.163235
-0.128639
-0.225341
-0.195768
-0.270082
-0.250631
-0.286001
-0.282174
-0.267149
-0.280921
-0.218433
-0.245834
-0.151354
-0.186346
-0.0787817
-0.115073
-0.00992574
-0.0435021
0.050778
0.0215424
0.102948
0.0778484
0.147929
0.12626
0.186548
0.168021
0.218576
0.203443
0.24266
0.23173
0.256902
0.251107
0.2606
0.260002
0.256198
0.259121
0.249624
0.252219
0.244063
0.246851
0.235929
0.240681
0.221005
0.22934
0.200584
0.211347
0.175443
0.1887
0.143835
0.160431
0.105048
0.124834
-0.0271688
0.0580226
0.0831152
-3.10873
-2.77015
-3.64052
-3.2027
-0.512151
0.186366
-2.19819
-3.48579
-2.74135
-3.19693
-2.27547
-1.83578
-1.45572
-1.13929
-0.890412
0.323768
0.408781
0.444057
0.357977
0.225263
0.0678924
-0.119644
-0.338551
-0.591136
-0.867711
-1.16353
-1.50228
-0.68904
-0.552911
-0.440143
-0.345648
-0.263592
-0.190204
-0.122981
0.133847
0.0304841
0.112588
-3.4487
0.336595
0.375124
0.249341
0.294158
0.145517
0.198927
0.0392589
0.0926838
-0.0738577
-0.0165224
-0.188733
-0.131857
-0.283725
-0.241027
-0.320274
-0.311432
-0.281914
-0.309442
-0.199256
-0.243175
-0.113177
-0.15493
-0.0420051
-0.0754191
0.0124421
-0.012821
0.0524878
0.0340955
0.0806193
0.0679046
0.0989244
0.0908735
0.108974
0.104938
0.111012
0.110991
0.105938
0.109207
0.096855
0.101659
0.087516
0.0919859
0.0812885
0.0838206
0.0812639
0.0802782
0.0886967
0.0841296
0.101078
0.0945572
0.112971
0.107491
0.117886
0.116683
0.11011
0.115879
0.0853081
0.100045
0.0403729
0.0654931
-0.0265866
0.00968395
-0.115261
-0.0683851
-0.220796
-0.166491
-0.331158
-0.276439
-0.427132
-0.382298
-0.487484
-0.462899
-0.495106
-0.498582
-0.45414
-0.480284
-0.37777
-0.418057
-0.601216
-0.332557
-0.459626
-0.921613
-0.757741
-1.25362
-1.0877
-1.56545
-1.41485
-1.81223
-1.69948
-1.95524
-1.89882
-1.96889
-1.97885
-1.85239
-1.92597
-1.62736
-1.75138
-1.33037
-1.48526
-1.00271
-1.16788
-0.681154
-0.839224
-0.392762
-0.531683
-0.149809
-0.265308
0.0425709
-0.0471198
0.183538
0.118366
0.243548
0.237105
0.240678
0.247313
0.245788
0.249587
0.248691
0.250082
0.250055
0.248567
0.249594
0.244337
0.246893
0.235279
0.24058
0.218904
0.228127
0.193649
0.207447
0.158397
0.177341
0.112314
0.136698
0.0567511
0.0854797
-0.00299353
0.0269241
-0.0593208
-0.0320093
-0.10651
-0.0843288
-0.13926
-0.125132
-0.150127
-0.147802
-0.135275
-0.145898
-0.0970057
-0.118588
-0.0440954
-0.0717773
0.0142783
-0.0150736
0.0711349
0.043188
0.123021
0.0977973
0.169212
0.14679
0.210463
0.190407
0.247034
0.229371
0.277915
0.263283
0.301395
0.290694
0.315823
0.309809
0.320906
0.319448
0.319123
0.320612
0.314785
0.316922
0.308893
0.312239
0.298044
0.304259
0.281363
0.290306
0.260887
0.271528
0.236692
0.249336
0.207815
0.222886
0.173816
0.191318
0.154469
-2.82418
-2.52124
-0.060658
-3.42281
-3.02542
-1.94167
-3.20679
-2.5512
-0.255014
-0.218025
0.179348
0.232559
-2.86857
-2.09919
-1.69013
-1.349
-1.07317
-0.858608
0.476505
0.543626
0.573268
0.00436983
0.0911573
0.509534
0.396505
0.264749
0.114172
-0.065026
-0.272621
-0.503698
-0.745585
-1.00393
-1.30932
-0.695093
-0.57392
-0.47236
-0.3846
-0.306188
-0.233717
-0.164459
-3.24691
0.479528
0.511661
0.406981
0.4446
0.323802
0.366391
0.233429
0.279348
0.141695
0.187644
0.0438354
0.0940686
-0.0572961
-0.00774325
-0.13337
-0.100542
-0.156495
-0.152498
-0.123341
-0.145759
-0.0614625
-0.0937841
0.000786095
-0.0294056
0.0534255
0.0284562
0.0952425
0.0756554
0.127212
0.112351
0.150888
0.140008
0.167417
0.159972
0.177904
0.173366
0.182734
0.18103
0.182234
0.183065
0.17845
0.180568
0.174293
0.176248
0.172183
0.172877
0.173705
0.172367
0.179586
0.176159
0.188044
0.183698
0.195143
0.192064
0.195941
0.196631
0.185823
0.192493
0.1611
0.175467
0.119103
0.142373
0.0583878
0.0910936
-0.0203381
0.0210903
-0.112371
-0.0652059
-0.2072
-0.160335
-0.288931
-0.250779
-0.340364
-0.319329
-0.349606
-0.350484
-0.317187
-0.338401
-0.288631
-0.537372
-0.284444
-0.406731
-0.829696
-0.679275
-1.1341
-0.982241
-1.42181
-1.28225
-1.6532
-1.54702
-1.79175
-1.73596
-1.8138
-1.81802
-1.71633
-1.77931
-1.5169
-1.62757
-1.24766
-1.38867
-0.946017
-1.0986
-0.646128
-0.794029
-0.373898
-0.505339
-0.143735
-0.253255
0.0408323
-0.0453344
0.115944
0.287581
0.281106
0.284999
0.290722
0.289227
0.292008
0.291648
0.291258
0.291854
0.288819
0.290249
0.284119
0.286844
0.27525
0.280347
0.260271
0.268601
0.238154
0.250151
0.208029
0.224146
0.16925
0.189711
0.122885
0.146827
0.0733432
0.0980908
0.0276919
0.0496019
-0.00848947
0.00820839
-0.0319675
-0.0220348
-0.0388765
-0.0377145
-0.0263629
-0.0350463
0.00393782
-0.0131582
0.0462219
0.0240429
0.0937166
0.0696899
0.141239
0.117703
0.186078
0.164076
0.227381
0.207179
0.265193
0.246712
0.299356
0.282783
0.328574
0.314702
0.350899
0.340711
0.364908
0.358977
0.370857
0.36878
0.371146
0.371514
0.368187
0.369995
0.361231
0.365378
0.348602
0.355599
0.331617
0.340518
0.311773
0.322037
0.289022
0.300781
0.262871
0.276424
0.233131
0.248397
0.200739
0.21711
0.167529
0.184289
0.123501
0.0708473
0.147882
-2.52647
-2.27317
-0.0935009
-3.14954
-2.80481
-0.17857
0.276154
-1.72174
-0.0184752
-2.89976
-2.34132
0.0538554
-2.55472
-1.92117
-1.55613
-1.26044
-1.02616
-0.842548
0.598335
0.538909
0.432795
0.303564
0.156256
-0.016047
-0.21375
-0.426686
-0.646714
-0.879605
-1.15788
-0.713848
-0.606519
-0.515031
-0.432926
-0.357025
-0.283371
-0.207383
-2.99894
0.643416
0.620273
0.679813
0.662593
0.593403
0.621107
0.529882
0.562733
0.460333
0.496194
0.385021
0.423165
0.307172
0.346343
0.226222
0.267346
0.138922
0.183252
0.0551732
0.095198
-0.000998723
0.0222274
-0.0137089
-0.0129736
0.0117139
-0.00460306
0.0546945
0.0323155
0.0986258
0.0771344
0.136944
0.118634
0.168363
0.153503
0.193316
0.1816
0.212582
0.203611
0.226929
0.220317
0.23721
0.232531
0.243793
0.240973
0.246606
0.245651
0.24664
0.246844
0.246052
0.246294
0.246595
0.246113
0.24909
0.247535
0.253806
0.251216
0.259426
0.25665
0.263097
0.261727
0.261083
0.263037
0.249679
0.25676
0.225767
0.23944
0.187092
0.208365
0.132593
0.161806
0.0632437
0.0995825
-0.0165081
0.0242021
-0.0975895
-0.0576516
-0.166944
-0.134624
-0.210969
-0.192821
-0.221202
-0.220541
-0.1976
-0.213137
-0.148262
-0.175499
-0.0863518
-0.118323
-0.238356
-0.052634
-0.139588
-0.472593
-0.350656
-0.73865
-0.602388
-1.01768
-0.878126