/*--------------------------------*- C++ -*----------------------------------*\
  =========                 |
  \\      /  F ield         | OpenFOAM: The Open Source CFD Toolbox
   \\    /   O peration     | Website:  https://openfoam.org
    \\  /    A nd           | Version:  10
     \\/     M anipulation  |
\*---------------------------------------------------------------------------*/
FoamFile
{
    format      ascii;
    class       surfaceScalarField;
    location    "4";
    object      phi;
}
// * * * * * * * * * * * * * * * * * * * * * * * * * * * * * * * * * * * * * //

dimensions      [0 3 -1 0 0 0 0];

internalField   nonuniform List<scalar> 
57492
(
-0.0127111
0.000769812
0.00240579
0.00953551
0.00935342
-0.012765
-0.00929948
-0.00263778
0.00834125
0.0265039
-0.0322073
0.0991776
0.0722314
-0.0164688
-0.15494
-0.209799
0.0848543
0.224122
0.0597036
-0.0586427
-0.0304155
0.0293547
-0.108844
0.0252861
-0.0149085
0.0984659
0.0193713
-0.0685112
0.0396985
-0.103262
0.0979539
-0.0343904
0.0334371
0.0940714
-0.0878099
0.0194494
0.00448843
-0.0124792
-0.0114587
-0.00602774
0.00734735
0.0181298
-0.0151508
0.0122518
-0.00312877
0.00174717
-0.0124095
0.0992078
-0.0859161
-0.035923
0.0226313
0.00331825
0.0749652
0.0209244
-0.00480195
0.0159481
0.0862788
-0.0974249
-0.0143132
0.085314
-0.0758027
0.0147507
-0.0302943
0.0155436
-0.0848426
0.058032
0.0415613
-0.115536
0.0119973
0.0838481
0.0196904
0.0227202
-0.117137
-0.0211186
0.0055863
0.00210697
0.00157928
-0.00927255
0.00934463
-0.0053394
0.00158106
-0.0810895
0.0937382
0.00214919
-0.0147979
-0.136434
0.0831808
-0.0278361
-0.0635643
0.0217119
0.03315
0.00870232
-0.0447026
-0.0217193
0.00285769
-0.0243788
-0.065754
0.0808088
0.00932394
-0.0296913
0.00997135
-0.0046588
0.0657992
-0.0416931
-0.0396901
0.015584
-0.052351
0.044126
0.0740242
-0.0754373
-0.135313
0.0772976
0.133453
-0.131516
-0.0395804
0.0956586
-0.0594239
-0.00858689
0.0680108
-0.0160774
-0.0433464
-0.0769892
0.0940497
-0.033138
0.015389
-0.0512373
-0.0411409
-0.0557708
0.0810569
-0.0279574
-0.113828
0.0552604
0.0585679
-0.205492
0.0916638
0.120152
-0.0324309
0.0212108
-0.108932
0.0891119
0.00898723
0.0220529
-0.0291832
0.115314
-0.118561
0.105085
0.0167539
-0.102468
0.102477
-0.0123005
0.109233
-0.0390352
-0.0792941
0.00909659
0.123757
0.00222999
0.0860887
-0.0458636
0.0622519
0.0305391
0.154015
-0.110952
-0.00849011
0.00535011
0.114092
-0.114566
-0.000128987
0.00374324
0.0294437
0.0999213
-0.0984782
-0.0308869
0.0222499
-0.0960682
-0.0371766
0.105909
0.0754954
-0.144228
0.0392759
0.119002
-0.195455
0.00429929
0.00644115
-0.00120906
-0.00953137
0.00630078
0.0102503
-0.00412543
0.00332996
0.00709625
0.00338301
-0.00106729
-0.00355572
0.00234665
3.51196e-05
-0.00359084
0.228932
0.0974948
-0.15539
-0.171036
0.090192
-0.0626237
0.201363
-0.201021
0.0872403
0.203972
0.0504137
-0.15394
0.0285222
-0.0773111
0.0614865
-0.0126977
0.0658905
-0.0778643
0.040496
0.0014041
-0.000883754
0.000249461
0.00339677
0.000413124
0.0113769
0.0015554
-0.0832989
0.150705
0.0687651
-0.136171
0.0933014
-0.11071
0.0525931
0.138324
-0.040212
0.343574
-0.00966502
-0.12404
-0.209869
0.122685
0.189021
0.0318684
0.070577
-0.12481
0.176918
0.00514397
-0.00778176
0.0134852
0.0457548
0.0820189
-0.037361
-0.0904127
0.0645729
0.00768579
0.00565359
-0.00164483
-0.00400876
0.0136663
-0.00801274
-0.187252
0.0994284
-0.0747686
0.162592
-0.162669
-0.0824153
0.0578322
-0.0905892
0.0829417
-0.155021
0.103576
-0.00273762
-0.0520792
-0.0487588
-0.0456077
0.117514
0.0316692
-0.055764
-0.00659824
0.0167546
-0.0496724
-0.00882926
-0.019525
-0.0822265
-0.0103522
0.0198931
0.0161878
-0.0257287
0.0236644
0.0122986
-0.0463152
-0.0147713
-3.61657e-06
0.0384394
-0.0039335
0.00905526
0.0023431
0.00991119
-0.0511852
0.0316602
0.00680239
-0.0579876
0.00480361
0.00886272
0.117937
0.0764206
-0.00869009
0.0421143
-0.133976
-0.0155732
0.0958992
-0.0673081
-0.0130179
-0.0232186
0.10101
-0.0933645
0.0933072
0.0426922
-0.00439432
-0.131605
-0.0369644
0.0217458
0.108526
0.110349
-0.104622
-0.0360432
-0.0718777
0.0258794
0.0820414
-0.0311083
0.0822558
-0.0871907
0.00699815
-0.109984
-0.012625
-0.0107766
-0.00010127
-0.0205322
0.0164745
0.0134111
-0.0322739
0.0242097
-0.012468
-0.0377226
-0.00731639
-0.0130348
0.0248546
0.00573348
-0.0175533
0.0458091
-0.0448244
-0.0140195
-0.0258799
0.0548865
0.0168025
-0.013404
0.0123787
-0.154692
0.10033
0.153791
0.177966
-0.0586821
-0.201699
-0.0728847
0.0961581
-0.00672373
-0.0505716
-0.00845863
-0.0368692
0.000454136
-0.00061201
-0.0146056
0.00890345
0.00631413
-0.0114358
0.00436528
0.0064585
-0.0161711
-0.00987026
-0.0155081
-0.0251861
0.003825
-0.0413539
-0.0247257
-0.0516637
-0.0558261
0.0671432
0.0403466
0.00323985
0.0235303
-0.0784338
-0.0747867
0.0222004
-0.118756
0.0432359
-0.00932283
-0.114917
0.00962886
-0.0134677
-0.00555194
-0.0849574
0.0789195
0.0115899
-0.000728493
-0.0893132
0.0844898
-0.00809236
-0.282357
-0.0693573
0.0860354
0.0822174
-0.108339
0.10138
-0.0159169
0.00819325
-0.00819687
0.0102055
-0.00201227
0.0218482
-0.00501269
0.133381
-0.0798542
-0.050983
-0.00254356
0.112552
-0.00835469
0.132184
0.0438415
-0.13675
0.0815407
0.102927
-0.0522834
0.0381323
-0.0624704
0.105879
-0.000957313
0.0111628
0.0343403
-0.109764
-0.105008
0.0671581
0.133298
0.0658812
-0.00322117
-0.0690078
0.00634775
0.021277
-0.00774677
-0.0828276
0.0155625
0.111391
0.0116054
-0.073156
-0.0100231
0.00163835
0.0351634
-0.00623797
-0.0268951
-0.00203032
0.00426304
-0.00204528
0.0329456
0.0260885
0.064869
-0.0866944
-0.0147598
0.0355967
-0.0160333
0.16948
-0.127462
-0.0567776
-0.00226762
-0.100378
0.118208
-0.186206
-0.0128524
-0.141023
-0.066812
0.0216293
0.0773971
0.0649954
-0.130395
0.0508497
0.118487
-0.0919398
0.0475949
-0.0812739
0.0470712
-0.0133923
0.0519695
-0.0781997
0.0738251
0.111221
0.0376224
0.115494
-0.000907817
-0.114719
0.000132762
0.127891
-0.0107921
-0.00160396
0.123921
-0.0233778
0.00601546
-0.106558
0.088055
-0.0338106
0.0696762
0.100836
-0.0301043
0.0244948
-0.095226
0.0275953
0.102413
-0.0291724
-0.0915407
-0.0360325
0.0974689
0.0222442
-0.0879054
-0.0391078
0.0851167
-0.0491926
-0.0766994
0.0437234
0.0821687
-0.0504221
-0.0782544
0.0794839
0.046251
0.0739124
-0.0280175
-0.0921458
0.0729026
-0.0770738
-0.0533915
0.0543078
0.0719864
-0.0420227
0.0625435
-0.0980657
0.0864614
-0.0164132
-0.126106
0.0141756
0.128645
-0.0167148
0.0359652
0.0595257
0.00606799
0.0021188
-0.0677125
0.0469382
0.0238782
-0.0112907
-0.0049375
0.00405395
-0.036839
-0.0743597
-0.099425
0.0604775
0.00319421
-0.00523949
0.0010227
0.00217151
-0.0130087
-0.119494
0.0866394
-0.0955286
-0.0107717
0.0932916
0.00803805
-0.100095
-0.00347196
-0.000729335
0.0456968
0.00181649
-0.0467839
0.042936
0.0215092
-0.0651745
0.0499695
0.0386633
0.000702932
-0.00216353
-0.00931598
-0.00298917
0.00369211
-0.00515271
0.000840376
-0.00067376
0.0032164
-0.000605598
0.00144597
-0.00127936
0.00462344
-0.000298393
0.00501959
-0.0039356
0.00855904
-0.004234
0.00841038
-0.00118769
-0.0206267
-0.00351914
0.0119295
-0.00470683
0.0443949
0.0899924
-0.112642
0.0292911
-0.1141
0.129204
0.133293
-0.014009
-0.0343025
-0.0627016
0.0341685
0.0628357
-0.014668
0.0660689
-0.0857034
0.00818238
-0.085552
0.099506
-0.0996144
-0.00652962
0.00663801
0.100226
-0.00564044
0.00492087
-0.00647699
-0.0985279
0.00539053
0.101622
-0.00678771
0.00539104
0.103922
-0.00540862
0.00310914
-0.00623419
0.106961
0.00319471
0.108522
-0.107559
-0.00719727
-0.01199
0.112376
0.00657556
0.105937
-0.00940486
-0.1039
-0.00906705
-0.103066
-0.00762186
-0.10235
-0.00635713
-0.103789
-0.00508999
-0.101224
-0.0090418
-0.0119213
0.117695
0.00660192
0.101274
-0.00725806
-0.00589502
-0.0967565
0.00412361
-0.10116
-0.00595947
-0.00554213
-0.10116
0.00994548
-0.00698006
0.118001
0.00667396
0.101382
-0.00708851
-0.103817
-0.00288523
0.118297
-0.00689419
0.00659828
-0.00674519
0.118457
0.00658544
0.101468
-0.0069805
0.101475
-0.00675181
-0.00476825
-0.0995085
0.00311684
-0.103134
-0.00545139
-0.00659728
0.118621
0.00643299
0.10147
-0.00659267
-0.0035449
-0.0984484
0.00248481
-0.101866
-0.00481239
-0.00639192
0.11866
0.00635309
0.101402
-0.00632393
-0.00276956
-0.0973835
0.0017047
-0.100509
-0.0041273
-0.006192
0.118711
0.00614085
0.101338
-0.00612785
-0.00195111
-0.0964014
0.000968944
-0.0991435
-0.00331614
-0.00593639
0.118641
0.0060064
0.101234
-0.00583242
-0.00106456
-0.0954908
0.00015399
-0.0977619
-0.00244622
-0.00568021
0.118574
0.00574711
0.101163
-0.00560864
7.28456e-05
-0.0949198
-0.000643836
-0.0961964
-0.0014926
-0.00535196
0.118359
0.00556704
0.101105
-0.00529473
0.00141549
-0.0915906
-0.00474471
-0.0933024
-0.00147853
-0.00498153
0.118071
0.00526965
0.100763
-0.00463859
0.00238012
-0.0915517
-0.00241901
-0.0914674
0.000545063
-0.00445537
0.117478
0.00504884
0.0998773
-0.00357018
0.00405046
-0.0878964
-0.00770576
-0.0878023
0.000385442
0.000323597
0.112434
0.00472007
0.102669
-0.00246765
0.00523224
-0.0872654
-0.00586323
-0.085998
0.00342788
8.83443e-06
0.103922
0.00850307
0.104134
-0.00145633
0.00712837
-0.00824722
-0.0861465
-0.0849178
0.00604815
-0.00382762
0.00531633
0.102433
0.103224
-0.00291801
-0.0897298
0.0910403
-0.00717374
-0.0904353
-0.00754172
0.009768
-0.00930017
-0.0866144
0.00722473
-0.0823745
-0.0890477
0.0898957
-0.00326694
-0.0057132
-0.0867763
0.087051
-0.000918504
-0.00162537
-0.0874353
0.0879317
0.000472539
-0.000230277
-0.088515
0.0891824
0.00181744
0.00112137
-0.0898989
0.0967943
0.00305015
0.00240025
-0.0973411
0.0967774
0.00595426
0.00357679
-0.100695
0.100631
0.00498546
0.00272016
-0.0981757
0.097358
0.00392683
0.00784595
-0.09554
0.0960562
0.00605931
0.00501275
-0.0965133
0.0969127
0.0062745
0.0061449
-0.0972511
0.097537
0.00629954
0.00625986
-0.0977707
0.0979604
0.00616345
0.00619929
-0.0981082
0.0982216
0.00589307
0.00599301
-0.0983043
0.0983621
0.00550916
0.00566442
-0.0983997
0.09842
0.00502846
0.00523214
-0.0977701
0.100184
0.00608957
0.00537002
0.0999678
0.0055321
-0.00444011
0.005904
0.100969
-0.00368497
0.102469
0.103049
-0.101644
-0.00387268
-0.103796
0.103333
-0.00245505
-0.00220403
0.10187
-0.10168
-0.00482844
-0.00334387
0.101888
-0.10209
-0.00540622
-0.00508724
0.102277
-0.10245
-0.0059543
-0.00564569
0.102602
-0.10273
-0.00646406
-0.00617274
0.102828
-0.102892
-0.00691647
-0.00665409
0.102914
-0.102885
-0.00728622
-0.00706677
0.104908
-0.104564
-0.00754146
-0.00738213
0.106063
-0.104568
-0.00911588
-0.00756858
0.103502
-0.102383
-0.00620889
-0.00742387
0.102996
-0.102892
-0.00606373
-0.00842839
0.0989601
-0.0979603
-0.00645116
-0.00681718
0.0968419
-0.0955993
-0.00536984
-0.0059308
0.0942568
-0.0928179
-0.00388517
-0.00465862
0.0913221
-0.0907822
-0.00201848
-0.00298836
0.0892739
-0.0890437
0.000155245
-0.000963195
0.0869321
-0.084349
0.00346513
0.0013162
-0.0821397
0.00501541
-0.0913703
-0.00836512
0.100203
0.0056685
-0.0032943
0.102943
0.00947172
-0.0095655
-0.0822807
0.00770996
-0.080378
0.00957331
-0.00910931
-0.0918343
-0.0866066
-0.0914333
0.0898317
-0.00557221
0.092645
-0.0935567
-0.00745341
-0.00633
-0.0885718
0.0884906
-0.00318583
-0.00445323
-0.0884419
0.0884467
-0.000923343
-0.00157664
-0.0885199
0.0886739
0.000318554
-0.00030347
-0.0888983
0.0892212
0.00149451
0.000897001
-0.0895921
0.090051
0.00259121
0.00202938
-0.0905558
0.0929328
0.00357728
0.00307203
-0.0916616
0.0922362
0.00441089
0.00399134
-0.095342
0.0941856
0.00508333
0.00474006
-0.0938963
0.0944009
0.00555467
0.00530205
-0.0948696
0.0953044
0.00583968
0.00567623
-0.0956973
0.0960531
0.00594384
0.0058669
-0.0963684
0.0966497
0.00588217
0.00588397
-0.0968964
0.0971152
0.00567432
0.00574623
-0.0973069
0.0974773
0.0053387
0.00547274
-0.0976274
0.0977614
0.00489449
0.00508201
-0.0978894
0.0988653
0.00511362
0.00524207
0.00380025
-0.00389738
0.101066
0.00360875
0.100395
-0.0986954
0.0997927
0.00457126
0.00570199
0.102284
-0.102559
-0.00218002
0.101214
-0.00222482
0.00308942
-0.00176091
0.101614
0.101661
0.102843
-0.102389
-0.00432603
-0.00192018
0.1018
-0.102038
-0.00459082
-0.00393317
0.102274
-0.102512
-0.00516859
-0.00485079
0.102744
-0.102972
-0.00572604
-0.00541348
0.10319
-0.103397
-0.00625639
-0.0059551
0.103588
-0.10376
-0.00674406
-0.00646351
0.103906
-0.104023
-0.00716995
-0.0069208
0.104099
-0.104132
-0.00750856
-0.00730591
0.10411
-0.105498
-0.00772854
-0.00759002
0.105185
-0.103609
-0.00778562
-0.00773619
0.104344
-0.102787
-0.00762121
-0.00769265
0.102202
-0.101474
-0.0071791
-0.00740194
0.100608
-0.0995894
-0.0063884
-0.00679699
0.0984275
-0.0971131
-0.00519957
-0.00582052
0.0956703
-0.0940991
-0.00358967
-0.00443114
0.0924357
-0.0906967
-0.00158374
-0.00262658
0.0889192
-0.0861926
0.000738569
-0.000461343
0.0839553
-0.0811004
0.00485506
0.00277807
-0.0943525
-0.00831355
0.00863818
-0.0108194
-0.0781967
-0.0789694
0.00650718
-0.0122726
-0.0808276
0.00420673
0.0991947
0.101151
-0.001698
-0.0084989
0.00915003
-0.0924855
-0.00833736
-0.094514
0.00921161
-0.0118269
-0.0755814
0.00724288
-0.0770006
-0.0897291
0.100235
-0.0997327
0.00406842
0.0993194
0.00512283
-0.000775633
0.00201122
0.100379
-0.00113017
0.101506
-0.094473
0.0955143
-0.00937861
-0.0106867
0.0101997
-0.094027
0.0968258
0.00745701
-0.000320675
-0.103962
-0.00833391
-0.0954395
0.0946946
-0.00670856
-0.00823873
-0.0934737
0.0919426
-0.00404113
-0.00510907
-0.0912374
0.0902803
-0.00222873
-0.003748
-0.090255
0.0902363
-0.000904645
-0.00155132
-0.0902314
0.0902546
0.00029535
-0.000298601
-0.0903115
0.0904209
0.00138506
0.00084014
-0.0905747
0.0907901
0.00237587
0.00187556
-0.0910514
0.0913653
0.0032634
0.0028107
-0.0917207
0.0921019
0.00402964
0.00363596
-0.0925125
0.0929386
0.00465722
0.00432944
-0.0933662
0.0937945
0.00512633
0.00487451
-0.094213
0.0946218
0.00543089
0.00525771
-0.0950119
0.0953852
0.0055706
0.0054768
-0.0957356
0.0960673
0.00555053
0.00553349
-0.0963766
0.0966682
0.00538269
0.00543691
-0.0969399
0.097196
0.00508265
0.00520106
-0.0974343
0.097658
0.00467073
0.00484369
-0.0981535
0.0985595
0.00470761
0.00474661
0.00452885
0.00379912
-0.00316606
0.100433
-0.00429816
0.00353013
0.0999627
0.0998958
0.100506
0.102065
-0.102214
-0.00203197
-0.101681
0.100877
-0.000894163
-0.00184003
0.101332
-0.101897
-0.00376072
-0.00280165
0.1018
-0.102043
-0.00434728
-0.00403092
0.102293
-0.102549
-0.00491289
-0.0046006
0.102807
-0.103069
-0.00546463
-0.00515524
0.103329
-0.103588
-0.0059967
-0.00569518
0.103842
-0.10409
-0.00649585
-0.0062099
0.104326
-0.104549
-0.00694728
-0.00668508
0.10475
-0.104926
-0.00733236
-0.0071048
0.105068
-0.10517
-0.00762721
-0.00744768
0.10522
-0.105209
-0.00779722
-0.0076854
0.105122
-0.104946
-0.00779734
-0.00777938
0.10467
-0.104276
-0.00757345
-0.00767762
0.103752
-0.103081
-0.0070594
-0.00732094
0.102258
-0.101266
-0.0061916
-0.00664347
0.100111
-0.0987807
-0.00491966
-0.00558627
0.0972947
-0.0956518
-0.00322669
-0.00411259
0.0938848
-0.0920008
-0.00114542
-0.00222831
0.0892292
-0.0856083
0.00123412
6.50164e-06
0.0826836
-0.0808257
0.00538501
0.00358245
0.008747
-0.0101564
-0.0755912
-0.0785205
0.00644175
0.0108413
-0.0931271
-0.0104963
-0.0821582
0.00413482
0.0987147
0.101018
-0.00127175
0.0122936
-0.0988636
-0.00902493
-0.0767129
0.029842
-0.0786203
0.0987478
-0.009851
0.00752008
-0.0761895
-0.0118488
-0.0735933
-0.0622833
0.09605
0.00489659
-0.0453077
-0.0151591
-0.089384
-0.0918842
0.0961694
-0.00460586
-0.00104849
0.00521434
-0.0952753
0.0944687
-0.00857201
-0.00743989
-0.0938246
0.0926319
-0.00551585
-0.00759455
-0.0921816
0.0920035
-0.00386301
-0.00465879
-0.0913384
0.0914643
-0.00235462
-0.00308295
-0.0915684
0.0916582
-0.000994407
-0.00165545
-0.0917344
0.0918076
0.000222083
-0.0003748
-0.0918815
0.0919671
0.00129944
0.000766262
-0.0920697
0.0921975
0.0022481
0.00177297
-0.092353
0.0925412
0.00307525
0.00265516
-0.0927608
0.0930106
0.00377983
0.00341632
-0.093288
0.0935909
0.00435432
0.00405206
-0.0939111
0.0942472
0.0047902
0.00455434
-0.0945909
0.094942
0.00507981
0.00491402
-0.0952924
0.0956427
0.00522024
0.00512645
-0.095986
0.0963243
0.00521221
0.00519023
-0.0966519
0.0969717
0.00506291
0.00510932
-0.0972785
0.0975752
0.00478597
0.00489422
-0.0978568
0.0981251
0.00440243
0.00456209
-0.0987345
0.0995025
0.00393967
0.00413715
-0.0994899
0.0996426
0.00391567
0.00454144
-0.100188
0.100253
0.00407051
0.00457718
0.00424544
-0.00361412
0.0993314
-0.00374395
0.00302241
0.100974
0.0992162
0.00371747
-0.00218569
0.0989016
0.0999991
0.00169671
-0.00166209
0.100344
0.100017
0.00134706
-0.00165489
0.101326
0.101191
0.101692
-0.101541
-0.00104535
-0.103038
0.100156
0.00122697
-0.0026175
0.101513
-0.101518
-0.00202687
-0.00186838
0.1011
-0.101324
-0.00353762
-0.00321883
0.101558
-0.101802
-0.00410281
-0.00379697
0.102055
-0.102319
-0.0046492
-0.0043472
0.102589
-0.102868
-0.00518578
-0.0048852
0.103151
-0.10344
-0.00570733
-0.00541253
0.10373
-0.104024
-0.00620188
-0.0059196
0.104315
-0.104606
-0.00665703
-0.00639398
0.104887
-0.105161
-0.0070591
-0.00682309
0.105417
-0.105654
-0.00739012
-0.00719154
0.105861
-0.106033
-0.00762495
-0.00747808
0.106159
-0.106226
-0.00773001
-0.00765411
0.106223
-0.106135
-0.00766122
-0.00768039
0.105948
-0.105643
-0.00736417
-0.00750818
0.105208
-0.104623
-0.00677708
-0.00707855
0.103879
-0.102959
-0.00584031
-0.00632972
0.101863
-0.100578
-0.00451173
-0.00520834
0.0991188
-0.0974802
-0.002784
-0.00368755
0.0956911
-0.0937548
-0.000702131
-0.00178259
0.0906066
-0.0868591
0.0016375
0.00043418
0.0847863
-0.0823009
0.00503468
0.00436896
0.00891409
-0.0106598
-0.0744438
-0.0796061
0.0062193
0.0116897
-0.0925231
-0.00982518
-0.081358
0.0168683
-0.0858899
-0.00994297
-0.0786188
0.100919
-0.101014
0.00416536
0.100677
0.00326375
-8.73235e-05
0.000686697
0.100727
-0.000807092
0.100876
0.0181252
-0.0752364
-0.0104041
-0.0738491
-0.0337041
-0.0583876
-0.073586
0.0859446
-0.00746201
0.0108071
-0.0117927
-0.0734583
0.00803439
-0.0768334
-0.0671626
-0.0215825
-0.0875196
-0.0903955
0.0919168
-0.00612718
-0.00549941
-0.0929529
0.0919167
-0.00753584
-0.00847594
-0.0909194
0.0911486
-0.00574498
-0.00659727
-0.0913812
0.0916155
-0.00409726
-0.00489144
-0.0918463
0.0920709
-0.00257925
-0.00331374
-0.092285
0.0924895
-0.00119892
-0.00186952
-0.0926824
0.0928649
3.95241e-05
-0.000567719
-0.0930373
0.0932047
0.00113213
0.000593862
-0.0933693
0.0935366
0.00208074
0.00160836
-0.09371
0.0938946
0.00289067
0.00248175
-0.094092
0.0943061
0.00356569
0.00321898
-0.0945359
0.0947842
0.00410605
0.00382222
-0.0950474
0.0953269
0.00451072
0.00429115
-0.0956174
0.0959201
0.0047771
0.00462354
-0.0962288
0.0965446
0.00490435
0.00481776
-0.096861
0.0971794
0.00489375
0.0048739
-0.0974933
0.0978046
0.00475163
0.00479547
-0.0981065
0.098401
0.00449144
0.00459227
-0.0986814
0.0989488
0.00413502
0.00428177
-0.0991957
0.0994214
0.00371394
0.00389024
-0.100511
0.100314
0.00411274
0.00345216
0.00387727
0.0035943
-0.00416712
0.0999042
-0.00294056
0.00331962
0.100595
0.0998699
0.00233715
-0.00218456
0.098749
0.0981691
0.00102141
-0.000331479
0.0996541
0.0988541
0.101546
0.101447
-0.101343
-0.00114928
-0.100036
0.100829
0.000433931
-0.00120602
0.101233
-0.100521
-0.00273888
-0.00197838
0.100724
-0.100941
-0.00332018
-0.0030165
0.101168
-0.10141
-0.00386086
-0.00356993
0.101661
-0.101926
-0.00438441
-0.00409615
0.102199
-0.102484
-0.00490056
-0.00461245
0.102775
-0.103078
-0.00540459
-0.00512079
0.103386
-0.103703
-0.00588505
-0.00561197
0.104022
-0.104349
-0.00633064
-0.0060743
0.104675
-0.105003
-0.00673049
-0.00649699
0.105327
-0.105646
-0.00707088
-0.00686829
0.105952
-0.106244
-0.00733317
-0.00717213
0.106511
-0.106748
-0.00749263
-0.00738719
0.106943
-0.107088
-0.00751652
-0.00748504
0.107168
-0.107168
-0.00736325
-0.0074287
0.107075
-0.10687
-0.00698203
-0.00717188
0.106539
-0.106062
-0.00631775
-0.00666092
0.105428
-0.104619
-0.00532077
-0.00584191
0.103633
-0.102456
-0.00396166
-0.00467323
0.101096
-0.0995506
-0.00224797
-0.00314177
0.0978391
-0.0959623
-0.000239348
-0.00127728
0.0924218
-0.0893353
0.00194816
0.00082851
0.0861619
-0.0833075
0.00517995
0.00304592
0.0101703
-0.0112798
-0.0757238
-0.0806029
0.00746563
0.0118297
-0.0874845
-0.00997066
-0.0813303
0.00378689
0.10021
0.100303
-0.000281204
0.0149925
-0.0827572
0.00116047
-0.100039
0.0106749
-0.0847509
-0.0108313
-0.0781916
-0.0113678
-0.074274
-0.0962434
-0.0293068
0.0176931
-0.0236226
-0.0903139
0.00581265
-0.0881586
-0.0127193
-0.0720188
0.0101817
-0.0134681
-0.0724374
0.00903915
-0.0794603
-0.0856606
-0.0818778
0.0858544
-0.0114386
0.0863369
-0.0942463
-0.0213974
-0.0171234
-0.0888634
0.0904629
-0.00772666
-0.00850847
-0.0906454
0.0908528
-0.00774323
-0.00865844
-0.0910728
0.0913007
-0.00597285
-0.00681728
-0.0915382
0.0917881
-0.00434719
-0.00512896
-0.0920466
0.092313
-0.00284565
-0.0035722
-0.0925824
0.0928537
-0.00147028
-0.00213888
-0.0931231
0.0933912
-0.000228584
-0.000837117
-0.0936536
0.0939121
0.000873623
0.000331489
-0.0941643
0.0944134
0.00183168
0.00135618
-0.0946584
0.0949037
0.00264538
0.00223667
-0.0951488
0.0953983
0.00331624
0.00297389
-0.0956509
0.0959109
0.00384605
0.0035696
-0.0961761
0.0964499
0.00423693
0.00402592
-0.0967286
0.0970151
0.00449066
0.00434479
-0.0973044
0.0975989
0.00460984
0.00452841
-0.0978928
0.098188
0.00459856
0.00458002
-0.0984781
0.0987649
0.00446482
0.00450536
-0.0990417
0.0993099
0.00422329
0.00431549
-0.0995625
0.0998002
0.00389728
0.00402914
-0.100016
0.100211
0.00351951
0.00367429
-0.100376
0.10136
0.00312832
0.0032869
-0.101563
0.101873
0.00385505
0.00367455
-0.100521
0.100947
0.00336009
0.0046165
0.00395946
-0.00346849
0.100104
-0.00274792
0.00218426
0.101511
0.101422
0.00342656
-0.00210248
0.0985801
0.099828
0.00201024
-0.00185045
0.0985893
0.0980769
0.00163507
-0.00139199
0.0994111
0.0986387
0.000424302
-0.000361248
0.100664
0.100578
0.000337667
-4.16365e-05
0.100007
0.100852
0.100791
-0.0998097
-0.00054737
-0.100173
0.0994459
0.000685725
0.000336541
0.100189
-0.100144
-0.00119382
-0.000826768
0.0998854
-0.100073
-0.00255171
-0.00223741
0.100268
-0.100479
-0.00310948
-0.00282121
0.100699
-0.100935
-0.00362489
-0.00334958
0.101181
-0.101441
-0.00412365
-0.00385041
0.101711
-0.101995
-0.00461659
-0.0043426
0.102287
-0.102593
-0.00509937
-0.00482868
0.102905
-0.103229
-0.00556069
-0.00529967
0.103559
-0.103901
-0.00598955
-0.00574398
0.104246
-0.1046
-0.00637641
-0.00615157
0.104956
-0.105316
-0.00671018
-0.0065126
0.105674
-0.106031
-0.00697622
-0.00681434
0.106378
-0.106715
-0.00715568
-0.00704017
0.107031
-0.107323
-0.00722446
-0.00716891
0.107579
-0.10779
-0.00715181
-0.00717334
0.107943
-0.108026
-0.00689942
-0.00701904
0.108022
-0.107917
-0.00642304
-0.0066644
0.107695
-0.107338
-0.0056779
-0.00606408
0.106834
-0.106168
-0.00462839
-0.00517632
0.105334
-0.10432
-0.00326249
-0.00397538
0.103131
-0.101763
-0.00160715
-0.00246623
0.100235
-0.098553
0.000266281
-0.000699409
0.0967304
-0.0937701
0.00221964
0.00122328
0.090837
-0.0871731
0.00537517
0.00453258
0.00860528
-0.0114413
-0.0766243
-0.085201
0.00663323
0.0121802
-0.0846721
-0.0948202
-0.0230487
0.012715
-0.0847973
0.102596
-0.102876
0.0036402
0.102411
0.00236906
0.000872998
-0.000548659
0.0996824
0.00129201
0.0990269
-0.0108714
-0.0812902
-0.0117407
-0.0778187
0.0105084
-0.0894466
-0.0122323
-0.074761
-0.0121685
-0.0733184
-0.011365
-0.0725136
0.00983555
-0.0111283
-0.0753315
0.00681509
-0.0821806
-0.0843518
-0.0933481
0.0894285
-0.0174778
-0.0223171
0.0261962
-0.0986993
0.0969634
-0.100505
-0.0187755
-0.0194334
-0.0859943
0.0875124
-0.0129568
-0.0136892
-0.0894187
0.0906307
-0.00893868
-0.0104148
-0.0907849
0.0909605
-0.0079188
-0.00881262
-0.0911537
0.0913637
-0.00618278
-0.00701051
-0.0915885
0.0918304
-0.00458909
-0.00535381
-0.0920868
0.0923583
-0.00311722
-0.00382854
-0.092641
0.0929356
-0.00176481
-0.00242158
-0.0932361
0.0935451
-0.000537631
-0.00113763
-0.0938564
0.0941709
0.000559126
2.01817e-05
-0.0944838
0.0947969
0.00151856
0.00104329
-0.0951062
0.0954146
0.00233699
0.00192736
-0.0957188
0.0960223
0.00301269
0.00266972
-0.0963222
0.0966224
0.00354587
0.00326969
-0.0969198
0.0972181
0.00393867
0.00372856
-0.0975135
0.0978095
0.00419466
0.00404933
-0.0981017
0.0983927
0.00431877
0.00423628
-0.0986776
0.0989586
0.0043176
0.00429513
-0.09923
0.0994936
0.0042012
0.00423396
-0.0997436
0.0999813
0.00398563
0.00406545
-0.100201
0.100403
0.00369544
0.00380959
-0.100582
0.100737
0.00336421
0.00349544
-0.100864
0.10096
0.00303166
0.00315991
-0.101793
0.102184
0.00346397
0.00284219
0.00392433
0.00250878
-0.00304959
0.100645
-0.00284837
0.00233064
0.102029
0.101082
0.00185885
-0.00180005
0.0985213
0.0986373
0.00169447
-0.00152901
0.0984238
0.0979713
0.00131097
-0.00106373
0.0991638
0.0984206
-0.000349345
0.000283381
0.10073
0.0991652
0.100587
0.100198
-0.10041
-0.000335287
-0.0998399
0.0992638
0.00126178
0.000694327
0.0998076
-0.0992368
-0.00176466
-0.00142889
0.0994048
-0.099585
-0.00237146
-0.0020694
0.0997739
-0.0999769
-0.00290648
-0.00263234
0.10019
-0.100418
-0.00339707
-0.00313682
0.100656
-0.100909
-0.00387043
-0.00361238
0.101172
-0.10145
-0.00433881
-0.00407954
0.101736
-0.102037
-0.00479852
-0.00454183
0.102346
-0.102669
-0.00523826
-0.00499058
0.102999
-0.103341
-0.00564697
-0.00541404
0.103691
-0.104051
-0.00601557
-0.00580234
0.104417
-0.104793
-0.00633452
-0.00614658
0.105171
-0.105556
-0.00659158
-0.00643602
0.105939
-0.106323
-0.0067715
-0.00665697
0.1067
-0.107068
-0.00685569
-0.00679265
0.107419
-0.10775
-0.00682104
-0.00682241
0.108049
-0.108309
-0.0066391
-0.00672058
0.108517
-0.108664
-0.00627653
-0.00645613
0.108734
-0.108713
-0.00569799
-0.00599426
0.108589
-0.108346
-0.00487169
-0.00530047
0.107973
-0.107456
-0.00377947
-0.0043482
0.106791
-0.105968
-0.00243014
-0.00313098
0.104993
-0.103858
-0.000868606
-0.00167454
0.102589
-0.101188
0.000819508
-4.66104e-05
0.0983036
-0.0954233
0.00249489
0.00164774
0.0932182
-0.0917174
0.00531425
0.00442816
-0.0212491
0.0139784
-0.0808878
-0.0853667
0.00865101
-0.00972251
-0.0811091
-0.0885672
0.00550078
0.0119481
-0.0839052
0.00364069
0.101101
0.099959
0.000596791
0.0189962
-0.0998196
-0.0196816
-0.0118221
-0.0812087
0.0220372
-0.10174
0.0123626
-0.0866515
-0.0126189
-0.077432
0.0133599
-0.0888282
-0.013103
-0.0738265
-0.0129725
-0.0717109
-0.012141
-0.0715009
-0.0115195
-0.0735345
0.00837985
-0.0102546
-0.0792344
0.00691246
-0.0870998
-0.0842259
-0.0999054
0.096086
-0.0149561
-0.0232212
-0.0983343
0.0217359
0.102392
-0.0999542
-0.0256588
-0.0171951
-0.0934244
0.0914577
-0.0155111
-0.0167718
-0.0905629
0.0894099
-0.0118038
-0.0127943
-0.0897867
0.0907294
-0.00988131
-0.0107916
-0.0908472
0.0909912
-0.00806287
-0.00893043
-0.0911585
0.0913479
-0.00637219
-0.00717778
-0.0915556
0.0917825
-0.00481595
-0.0055615
-0.0920262
0.092288
-0.00337904
-0.00407222
-0.0925647
0.0928574
-0.0020575
-0.00269829
-0.0931612
0.0934783
-0.000854766
-0.00144143
-0.0938036
0.094138
0.000224737
-0.000305125
-0.0944762
0.0948197
0.00117507
0.000705117
-0.0951631
0.0955085
0.00199153
0.00158396
-0.0958509
0.096193
0.00267059
0.0023273
-0.09653
0.096865
0.00321085
0.00293272
-0.0971935
0.0975187
0.00361347
0.00340012
-0.0978359
0.0981485
0.0038821
0.00373205
-0.0984515
0.0987478
0.00402248
0.0039333
-0.0990322
0.0993074
0.00404248
0.00401066
-0.0995679
0.099816
0.00395316
0.00397339
-0.100046
0.100261
0.0037713
0.00383503
-0.100454
0.100628
0.00352196
0.00361614
-0.100777
0.100902
0.00323931
0.00334628
-0.100999
0.101067
0.0029634
0.00306303
-0.101103
0.101835
0.00273142
0.00280617
-0.102581
0.102619
0.00360174
0.00317895
-0.101198
0.101223
0.00361575
0.00379027
0.00374142
-0.00284088
0.101128
-0.00293159
0.00287703
0.101278
0.101911
0.00273847
-0.00166918
0.0995756
0.10098
0.00159663
-0.00151337
0.0984381
0.0985647
0.00139384
-0.00122254
0.0982525
0.0978518
0.00100254
-0.000752008
0.0989133
0.0982006
0.000497674
0.000805672
0.0994265
0.0989109
-0.00085625
0.000817356
0.0997213
0.100536
0.000422446
0.00104065
0.0984959
0.100267
0.0995823
-0.0990721
0.000751595
-0.0988946
0.0989682
0.000967049
0.00128449
0.0990344
-0.0984384
-0.00093135
0.000656659
0.0985879
-0.0987454
-0.00160717
-0.00127933
0.0989085
-0.0990822
-0.00219774
-0.00190637
0.0992639
-0.0994582
-0.00271209
-0.00245066
0.0996621
-0.0998802
-0.00317899
-0.00293296
0.100109
-0.100352
-0.00362713
-0.00338402
0.100605
-0.100874
-0.00407045
-0.00382599
0.101152
-0.101444
-0.00450628
-0.00426386
0.101745
-0.10206
-0.00492345
-0.00468951
0.102383
-0.102719
-0.00531063
-0.00509102
0.103063
-0.10342
-0.00565884
-0.00545836
0.103783
-0.104159
-0.0059594
-0.00578308
0.104539
-0.104929
-0.00620164
-0.00605569
0.105321
-0.10572
-0.00637258
-0.00626437
0.106118
-0.106517
-0.00645702
-0.00639508
0.106908
-0.107292
-0.00643678
-0.00643128
0.107659
-0.108008
-0.00629009
-0.00635307
0.108328
-0.108612
-0.00599188
-0.00613695
0.10885
-0.109032
-0.00551555
-0.00575677
0.109146
-0.109182
-0.00483639
-0.00518631
0.109126
-0.108967
-0.00393801
-0.00440394
0.108698
-0.108306
-0.00282194
-0.00340077
0.107789
-0.10714
-0.00151796
-0.00219113
0.106366
-0.105462
-8.46113e-05
-0.000820105
0.104453
-0.103333
0.00137537
0.000638366
0.100968
-0.0984016
0.00274744
0.00206317
0.0962411
-0.0932142
0.00388549
0.00334033
-0.0266643
0.0162565
-0.07048
-0.0899939
0.00811405
-0.00908873
-0.0861251
-0.0927809
0.00768082
0.0130249
-0.0845675
-0.0127966
-0.081031
0.024595
-0.0993598
-0.0251894
-0.0971997
0.0234604
0.0151571
-0.0951616
0.0130305
-0.0863221
-0.0135263
-0.0770087
0.102686
-0.101991
0.0029204
0.101572
0.00399158
0.00152021
-0.00190776
0.0988835
0.00204466
0.0984437
0.0152124
-0.087784
-0.0139236
-0.0728754
-0.013744
-0.0701079
-0.0127601
-0.0702604
-0.0111346
-0.0726544
-0.010716
-0.0776071
-0.0249807
-0.098398
0.024019
-0.0991015
0.100933
-0.0268121
0.0264491
-0.1002
-0.0253505
0.00806678
-0.0832735
-0.0109184
0.00590135
-0.0906155
-0.0993844
0.0274354
-0.0839976
-0.0958987
0.0915276
-0.0212877
-0.0201551
-0.0931511
0.0942487
-0.0160537
-0.0188186
-0.0923643
0.0906987
-0.0138455
-0.0148874
-0.0906745
0.0906847
-0.011814
-0.0127701
-0.090717
0.0907716
-0.00993592
-0.0108239
-0.090857
0.0909731
-0.00817893
-0.00901586
-0.0911153
0.0912817
-0.00653856
-0.00732005
-0.0914685
0.0916757
-0.00502317
-0.00574824
-0.0919012
0.0921462
-0.00362403
-0.0042977
-0.0924076
0.0926868