/*--------------------------------*- C++ -*----------------------------------*\
  =========                 |
  \\      /  F ield         | OpenFOAM: The Open Source CFD Toolbox
   \\    /   O peration     | Website:  https://openfoam.org
    \\  /    A nd           | Version:  10
     \\/     M anipulation  |
\*---------------------------------------------------------------------------*/
FoamFile
{
    format      ascii;
    class       volVectorField;
    location    "4";
    object      U;
}
// * * * * * * * * * * * * * * * * * * * * * * * * * * * * * * * * * * * * * //

dimensions      [0 1 -1 0 0 0 0];

internalField   nonuniform List<vector> 
28942
(
(-0.264332 0.166618 -2.30778e-19)
(-0.246868 0.230488 -4.88676e-20)
(1.53311 -1.09827 1.15789e-19)
(2.53103 0.0458989 -3.0146e-19)
(2.49379 0.0760986 1.01016e-19)
(1.32623 0.0683555 0)
(1.53626 0.087285 -8.98782e-21)
(1.71392 0.0638993 1.00939e-20)
(3.00238 -0.509634 2.82195e-20)
(2.98372 -0.477056 -6.93332e-20)
(-0.167527 -0.33321 -6.32732e-19)
(-0.060145 -0.394021 2.94316e-19)
(-0.155438 -0.355857 0)
(-0.207903 -0.343218 0)
(2.4851 -0.089006 4.86896e-21)
(2.51095 -0.0858045 5.82314e-22)
(2.32986 0.301286 1.67674e-19)
(2.29249 0.254154 2.66428e-19)
(1.00829 -1.61534 5.75628e-19)
(1.59139 -1.78251 -1.68275e-19)
(2.47657 0.660153 2.14019e-19)
(2.5037 0.628076 0)
(-0.127761 0.247697 5.49127e-19)
(-0.237995 -0.0190567 2.95791e-19)
(1.8841 -0.791621 6.03811e-19)
(2.58784 -1.00138 -5.46193e-19)
(0.753511 -1.23512 2.7345e-18)
(0.75064 -0.976042 -1.09302e-18)
(1.95931 -1.45167 6.681e-20)
(1.42767 -0.977737 1.89279e-20)
(1.23805 -0.0451018 0)
(1.70561 -0.0751951 1.76833e-20)
(2.07791 -0.128114 8.45055e-21)
(2.33433 -0.0920338 2.68133e-20)
(1.36242 1.81947 2.05773e-20)
(1.01636 1.95765 1.71026e-21)
(1.58469 1.83139 -7.148e-19)
(1.20708 1.8286 -2.71916e-19)
(0.578004 0.0452616 1.08659e-20)
(0.561184 1.80486 -3.19336e-19)
(2.05385 -0.0376769 0)
(2.37611 -0.086995 0)
(2.74297 -0.624469 4.74808e-21)
(2.71293 -0.609387 -5.5755e-21)
(2.75903 -0.602792 -1.28065e-20)
(2.12275 0.0697725 -5.95001e-21)
(2.10654 0.0874898 9.82228e-21)
(2.40015 0.0716464 4.01283e-20)
(2.36156 0.0756606 -1.09855e-20)
(2.16979 0.0784157 3.24259e-20)
(2.0884 0.108774 -1.86876e-20)
(2.9385 -0.165816 8.42133e-20)
(2.92749 -0.180764 6.7024e-20)
(2.98008 -0.534104 -3.7186e-22)
(2.95901 -0.5021 -7.93004e-21)
(3.08282 -0.809862 5.00215e-19)
(3.53645 -0.967746 2.82192e-19)
(-0.136479 -0.213054 -3.61953e-19)
(-0.116587 -0.287173 0)
(-0.119594 -0.1472 1.29189e-19)
(-0.114766 -0.131721 3.17858e-19)
(-0.0648888 -0.0723007 -2.54004e-19)
(-0.0812528 -0.0957774 -2.64316e-19)
(3.03735 -1.35021 0)
(3.43963 -1.34614 7.73459e-20)
(3.10496 -1.14934 -3.2697e-20)
(3.00959 -1.0814 0)
(2.28424 -0.517775 -1.59635e-19)
(2.33367 -0.570806 -1.03923e-19)
(-0.107907 0.0417377 7.68779e-19)
(-0.136013 0.0896861 -2.365e-19)
(-0.219208 0.167665 5.85113e-19)
(2.29875 -0.673492 0)
(2.2981 -0.615669 5.55874e-19)
(2.12928 -0.943719 1.51455e-19)
(3.48801 1.1393 2.86726e-19)
(3.60397 1.16326 -2.93846e-19)
(3.59157 1.03454 -2.43533e-19)
(0.491442 -0.269511 4.8064e-21)
(0.742875 -0.451037 -1.40241e-19)
(2.47383 -1.62194 -1.38685e-20)
(2.14766 -1.4781 6.11295e-20)
(-0.17467 0.033752 1.07174e-18)
(-0.342637 0.0310515 -4.12258e-19)
(3.03189 1.52015 -2.19415e-20)
(2.78072 1.33414 -8.97323e-20)
(2.65004 1.6763 6.16712e-20)
(2.52036 1.77731 -2.08164e-19)
(2.50521 1.79727 1.30871e-19)
(2.08548 1.53676 1.17834e-21)
(2.17769 1.726 -4.377e-20)
(2.20809 1.82412 8.93382e-20)
(-0.851288 0.254606 -8.34411e-20)
(-0.655387 -0.0212123 -2.15436e-20)
(-0.498397 -0.0548887 4.31061e-20)
(-0.626082 0.18179 -5.51565e-19)
(-0.709044 0.335093 7.08249e-19)
(1.10017 1.21778 -1.91514e-19)
(1.30643 1.43805 2.95106e-20)
(-0.342046 0.00614872 0)
(2.51626 -0.00141858 0)
(2.42959 0.0764685 -2.40079e-19)
(2.40484 0.175582 1.95296e-19)
(2.6111 0.147113 0)
(3.82314 0.381121 0)
(3.85 0.379148 0)
(3.8894 0.432814 9.40832e-19)
(2.70246 0.510089 -2.4989e-20)
(2.67392 0.536282 2.88236e-19)
(2.70117 0.490955 1.48768e-19)
(-0.168535 -0.262228 7.32557e-19)
(-0.192678 -0.264833 -8.21442e-19)
(-0.396496 0.213254 -3.86207e-19)
(-0.13056 0.666239 3.80687e-19)
(-0.387165 0.638892 8.26129e-19)
(0.50493 0.789308 4.6454e-19)
(0.998865 0.622741 1.1421e-18)
(0.819851 1.31683 9.0873e-20)
(0.387988 1.24601 -2.66196e-18)
(3.23357 1.30245 3.40641e-21)
(2.826 1.21795 1.488e-19)
(2.81177 1.16776 -2.55442e-19)
(2.27686 -1.75745 9.68048e-20)
(1.66532 -1.23381 -5.3811e-20)
(0.593701 0.14868 -1.44575e-18)
(0.614318 -0.0270789 0)
(0.968909 -0.026576 8.00526e-19)
(1.54356 -1.20085 1.02634e-19)
(1.93049 -1.62407 -2.57884e-19)
(2.36668 0.0663309 -3.69264e-20)
(2.40882 0.0622392 1.83837e-20)
(2.26458 0.063304 1.18376e-21)
(1.2356 -1.74066 0)
(1.33875 -1.24246 0)
(2.57908 -0.165214 -3.18466e-20)
(2.53652 -0.148247 1.66776e-19)
(2.54241 -0.0623655 0)
(1.99212 -1.70919 0)
(2.00531 -1.44451 -2.02656e-19)
(2.18424 1.92354 4.24235e-19)
(-0.228462 -0.0482604 4.69449e-19)
(-0.194528 -0.114184 -3.40611e-19)
(1.77507 -1.60796 -1.22114e-19)
(2.81132 -0.613999 -1.21902e-19)
(2.77566 -0.578494 1.44666e-20)
(3.4251 -0.769026 -8.6122e-20)
(3.47262 -0.785515 1.1581e-19)
(3.48698 -0.748576 4.2434e-19)
(-0.190969 -0.160862 1.65165e-19)
(2.45796 1.90944 5.51459e-19)
(2.53701 1.71532 -1.48757e-19)
(2.83454 1.9968 2.42246e-22)
(1.86691 -0.0509034 -4.42069e-21)
(1.86177 -0.0517563 -3.86886e-20)
(2.08489 -0.0631816 -3.42521e-21)
(2.06928 -0.0733507 1.20252e-20)
(2.13383 1.80707 9.10484e-20)
(1.29827 1.57026 0)
(-0.553334 1.16083 5.53894e-19)
(-0.584903 1.07508 -6.17758e-19)
(-0.907477 1.46519 5.17833e-19)
(1.09488 0.385338 -8.09218e-19)
(2.37905 0.966 -3.83331e-19)
(2.26402 -0.0793757 3.53641e-21)
(3.11685 -1.50649 9.18298e-20)
(3.02258 -1.52385 2.26067e-19)
(2.44472 0.717008 5.07228e-19)
(2.3248 0.820059 4.74837e-20)
(2.33928 0.513195 2.91987e-19)
(2.38662 0.523763 -2.09788e-19)
(2.49851 0.728999 0)
(2.89543 0.116647 -2.83541e-20)
(2.9123 0.109199 -6.46069e-20)
(2.90074 -0.366002 2.24351e-20)
(2.93086 -0.385765 -4.5088e-20)
(2.74258 0.489911 2.36439e-20)
(2.77683 0.518674 -6.3865e-20)
(2.74147 0.514984 0)
(2.70798 0.483605 1.83241e-20)
(2.73881 0.547811 0)
(2.6894 0.675484 -7.57877e-20)
(2.70622 0.732869 -4.71166e-20)
(2.66521 0.774759 -9.80792e-20)
(2.70164 0.765179 0)
(2.73571 0.790464 2.86715e-19)
(2.68965 0.834668 1.67257e-20)
(2.62439 0.815687 -6.21931e-20)
(2.49381 0.937126 -2.85123e-19)
(2.48455 0.777507 -4.94847e-20)
(0.248339 1.26176 5.86804e-19)
(0.771143 1.06072 -2.19759e-19)
(-0.364131 0.965279 -5.96684e-19)
(2.21938 0.0690824 3.39411e-20)
(2.45839 0.0668622 0)
(-0.214682 0.265149 6.81201e-19)
(-0.119162 0.138855 3.16618e-19)
(2.38299 0.0832363 -5.18753e-21)
(2.48181 0.0797305 -1.50205e-21)
(2.48913 0.0783501 0)
(2.36165 0.0804995 -3.05341e-21)
(2.50267 0.337136 -2.59378e-20)
(2.49917 0.319619 1.2332e-19)
(2.50776 0.30772 5.25272e-20)
(-0.224584 -0.235352 3.15813e-19)
(-0.10294 -0.108529 -3.99168e-19)
(-0.127459 -0.12388 3.78915e-19)
(-0.116271 -0.0590549 0)
(-0.0615688 -0.0269782 5.33728e-19)
(-0.0461438 -0.0273412 -4.65131e-19)
(-0.322452 -0.0567018 -4.73033e-19)
(-0.316993 -0.140474 -4.60432e-19)
(-0.197568 -0.0924792 0)
(0.164553 0.973509 0)
(0.0835879 0.642079 0)
(0.00858867 0.393658 0)
(3.79402 0.342844 -1.40218e-19)
(3.7401 0.26779 0)
(3.80756 0.307074 1.51679e-19)
(2.30819 -0.190776 1.1082e-18)
(2.34204 -0.204095 -4.06012e-19)
(2.33888 -0.156729 0)
(2.67123 -0.161989 -5.66281e-22)
(2.69234 -0.171316 1.13297e-21)
(2.64519 -0.149704 -4.02962e-22)
(2.71239 -0.179013 0)
(2.72957 -0.184556 -6.7081e-22)
(2.74186 -0.187899 0)
(2.81831 -0.201718 0)
(2.75587 -0.190541 2.32175e-21)
(2.8289 -0.201995 0)
(2.80938 -0.200607 -6.78583e-22)
(2.79433 -0.197405 0)
(2.77894 -0.192544 3.80918e-22)
(2.76036 -0.185852 -5.71529e-22)
(2.73912 -0.176842 4.02292e-22)
(2.76959 -0.191793 -2.22061e-21)
(2.83783 -0.200854 -7.58133e-23)
(2.61953 -0.135858 -1.64654e-24)
(2.71127 -0.164675 -6.41222e-22)
(2.59149 -0.119761 3.58352e-21)
(2.77842 -0.191271 1.97714e-24)
(2.84226 -0.198179 -7.0879e-23)
(2.68572 -0.151176 1.29995e-21)
(2.78554 -0.189546 1.90544e-21)
(2.79086 -0.186751 -1.90385e-21)
(2.84503 -0.194516 1.47761e-22)
(2.84623 -0.190015 2.73009e-22)
(2.55982 -0.100339 -3.48779e-21)
(2.65592 -0.135138 -8.64947e-22)
(2.79465 -0.183061 0)
(2.84615 -0.184793 -2.69254e-22)
(2.53397 -0.0814945 4.5366e-25)
(2.62272 -0.116013 -4.54695e-25)
(2.79704 -0.17855 0)
(2.84492 -0.178965 0)
(2.50375 -0.0593288 0)
(2.589 -0.0951166 0)
(2.79815 -0.173377 0)
(2.8427 -0.172621 1.16029e-22)
(2.47818 -0.037002 -2.1494e-21)
(2.55308 -0.0716268 -5.05874e-25)
(2.79835 -0.167548 5.96727e-24)
(2.83974 -0.165832 -1.23776e-22)
(2.45162 -0.012883 2.15951e-21)
(2.51739 -0.0465431 0)
(2.7974 -0.16123 0)
(2.83599 -0.158669 0)
(2.42966 0.0114587 -1.45361e-22)
(2.48152 -0.0196991 2.52482e-21)
(2.79613 -0.154342 6.66562e-22)
(2.83189 -0.151138 0)
(2.40943 0.0363313 -6.54586e-23)
(2.44742 0.00803619 -2.39181e-21)
(2.79361 -0.147089 -9.83124e-22)
(2.82703 -0.143276 -2.78398e-22)
(2.39314 0.0607414 2.64628e-21)
(2.41408 0.0371869 0)
(2.79157 -0.139258 3.14653e-22)
(2.82218 -0.135015 1.84702e-22)
(2.38032 0.0858818 -1.43677e-21)
(2.38533 0.0659325 2.87158e-21)
(2.78774 -0.13118 -1.17308e-21)
(2.8163 -0.126419 1.32038e-21)
(2.3703 0.109803 1.59555e-21)
(2.35773 0.0957093 5.07401e-23)
(2.78438 -0.12255 0)
(2.80982 -0.11758 5.95331e-22)
(2.36457 0.134837 -3.35979e-21)
(2.33731 0.123955 6.63611e-21)
(2.78077 -0.11317 0)
(2.80405 -0.108209 0)
(2.42463 0.109372 -1.57883e-21)
(2.42616 0.131874 -6.87197e-21)
(2.36122 0.158226 0)
(2.31891 0.152032 -3.55219e-21)
(2.4266 0.066532 -8.98609e-22)
(2.42494 0.0885153 1.80398e-22)
(2.43683 0.0246345 0)
(2.42952 0.0460923 -2.71681e-21)
(2.4589 -0.017284 -4.50256e-24)
(2.44493 0.00401292 0)
(2.49227 -0.0575499 0)
(2.47213 -0.0369234 0)
(2.53311 -0.094294 0)
(2.50872 -0.0749874 0)
(2.57583 -0.124759 7.89104e-22)
(2.55446 -0.110042 2.08551e-22)
(2.61809 -0.148704 -7.35725e-22)
(2.59904 -0.138114 -8.01795e-22)
(2.65672 -0.16606 1.20322e-21)
(2.63908 -0.158666 1.58758e-21)
(2.68662 -0.17602 0)
(2.67132 -0.171537 0)
(2.71227 -0.180548 -4.67458e-24)
(2.70033 -0.179006 0)
(2.73132 -0.179787 0)
(2.72257 -0.180775 0)
(2.7445 -0.174699 0)
(2.73856 -0.177739 0)
(2.75284 -0.16611 0)
(2.74914 -0.170819 0)
(2.75754 -0.15463 0)
(2.75544 -0.160728 0)
(2.75975 -0.140706 0)
(2.75861 -0.147991 0)
(2.76049 -0.124429 -4.41651e-22)
(2.75962 -0.132969 0)
(2.7602 -0.115411 -1.30706e-22)
(2.77746 -0.103387 1.29764e-22)
(2.79847 -0.0983612 -1.28672e-22)
(2.83541 -0.120571 0)
(2.82199 -0.10217 -5.36739e-22)
(2.8286 -0.111621 -3.04156e-22)
(2.84816 -0.137713 9.42828e-23)
(2.84171 -0.129373 -3.47491e-22)
(2.8599 -0.153731 3.28559e-24)
(2.85406 -0.145916 0)
(2.87044 -0.168755 0)
(2.86532 -0.161409 0)
(2.87899 -0.182533 0)
(2.87499 -0.175851 0)
(2.8845 -0.194488 0)
(2.88218 -0.188794 5.24476e-28)
(2.88565 -0.203862 4.90575e-24)
(2.8857 -0.199558 0)
(2.88002 -0.209495 0)
(2.88411 -0.2073 0)
(2.86661 -0.210075 0)
(2.87546 -0.210589 0)
(2.8442 -0.204409 0)
(2.85663 -0.208051 -3.79151e-22)
(2.80717 -0.19021 1.14013e-22)
(2.82988 -0.198938 -5.20183e-22)
(2.76178 -0.167729 0)
(2.78807 -0.18045 -4.41193e-22)
(2.6989 -0.133551 0)
(2.73205 -0.151872 0)
(2.62342 -0.0884917 0)
(2.66255 -0.112281 0)
(2.53921 -0.0338013 0)
(2.5821 -0.0622025 0)
(2.45254 0.0280584 -7.20454e-22)
(2.49493 -0.00323198 0)
(2.37154 0.0930329 -3.3505e-21)
(2.4095 0.0609733 -7.46732e-22)
(2.33484 0.12558 3.63157e-21)
(2.42843 0.153643 7.00198e-21)
(2.75983 -0.105915 2.48932e-22)
(2.81539 -0.0923643 -4.64111e-22)
(2.30462 0.179731 0)
(2.30276 0.157551 0)
(2.43006 0.176905 0)
(2.35911 0.18261 0)
(2.48557 0.104811 0)
(2.48701 0.149206 1.62199e-21)
(2.48636 0.126485 1.58915e-21)
(2.48242 0.0641511 1.838e-21)
(2.48393 0.0840757 -3.75845e-22)
(2.47983 0.026545 5.11052e-24)
(2.48015 0.0451486 0)
(2.48402 -0.00944182 0)
(2.48036 0.00866804 0)
(2.49699 -0.0441529 0)
(2.48874 -0.0267282 0)
(2.51845 -0.0765582 0)
(2.50628 -0.0604406 0)
(2.54675 -0.105697 0)
(2.53166 -0.0913298 0)
(2.5776 -0.129486 -3.03547e-24)
(2.5626 -0.118413 8.1052e-22)
(2.61057 -0.148547 -2.7168e-24)
(2.59518 -0.140165 -1.47807e-21)
(2.6402 -0.161285 0)
(2.62555 -0.155566 0)
(2.66655 -0.168534 2.32321e-24)
(2.65387 -0.16559 0)
(2.68864 -0.170558 0)
(2.67813 -0.17017 0)
(2.70639 -0.167958 0)
(2.69802 -0.1698 0)
(2.72028 -0.161381 0)
(2.71375 -0.165139 0)
(2.73107 -0.151392 0)
(2.72596 -0.156796 0)
(2.73953 -0.138503 0)
(2.73548 -0.145305 0)
(2.74642 -0.123099 3.03164e-22)
(2.74302 -0.131127 0)
(2.77367 -0.0933571 0)
(2.75885 -0.0961987 2.1678e-22)
(2.75166 -0.105596 0)
(2.74918 -0.114622 2.80412e-22)
(2.83128 -0.0960084 5.70661e-22)
(2.82469 -0.0863036 1.27945e-22)
(2.80897 -0.0821677 1.00945e-21)
(2.79271 -0.0882463 0)
(2.84455 -0.114269 0)
(2.83788 -0.105413 -8.70409e-22)
(2.85788 -0.131258 2.86533e-24)
(2.85106 -0.123004 3.49712e-22)
(2.87118 -0.14745 -3.28558e-24)
(2.86442 -0.13954 0)
(2.88424 -0.162976 0)
(2.8777 -0.155357 0)
(2.8965 -0.177628 0)
(2.89046 -0.170468 0)
(2.90722 -0.190931 0)
(2.90207 -0.1845 -5.24476e-28)
(2.91542 -0.202304 -9.77065e-24)
(2.91169 -0.196908 0)
(2.91977 -0.210975 0)
(2.91816 -0.207045 0)
(2.91853 -0.215784 1.88932e-22)
(2.92 -0.213927 0)
(2.9092 -0.215326 0)
(2.91448 -0.216237 -1.88092e-22)
(2.88887 -0.208064 4.35429e-22)
(2.9011 -0.212761 4.20353e-22)
(2.85618 -0.192338 0)
(2.87544 -0.201528 0)
(2.8077 -0.16624 0)
(2.83453 -0.180715 0)
(2.74246 -0.128579 0)
(2.77743 -0.148892 0)
(2.66139 -0.0792845 0)
(2.70389 -0.105332 0)
(2.56798 -0.0198362 1.10884e-23)
(2.61595 -0.0506621 0)
(2.46807 0.0468845 -1.25944e-23)
(2.51845 0.0128991 0)
(2.37017 0.116443 -3.68158e-21)
(2.41845 0.0815759 3.67852e-21)
(2.48604 0.173073 3.7316e-21)
(2.27464 0.188106 0)
(2.32525 0.150319 -8.56785e-21)
(2.29451 0.20606 0)
(2.75344 -0.0963592 0)
(2.81826 -0.0760686 -1.17891e-22)
(2.43253 0.199875 1.05021e-20)
(2.48478 0.197953 4.24553e-21)
(2.24901 0.218541 2.38412e-21)
(2.28077 0.184724 1.09288e-20)
(2.36049 0.205943 0)
(2.75673 -0.102551 9.9602e-22)
(2.76038 -0.0939891 -4.7873e-22)
(2.80206 -0.0720971 -2.2752e-22)
(2.81142 -0.0658792 1.09918e-21)
(2.51552 0.199248 1.38313e-20)
(2.4834 0.224474 -8.15896e-21)
(2.50784 0.254016 -3.75842e-20)
(2.51132 0.226146 -8.02735e-21)
(2.52447 0.149114 3.3217e-21)
(2.52023 0.173694 -1.13745e-20)
(2.52994 0.103354 -3.27419e-21)
(2.52783 0.125664 -2.70917e-21)
(2.53172 0.0621698 -7.27898e-22)
(2.53123 0.0821885 -7.49089e-22)
(2.53055 0.0254011 -5.11052e-24)
(2.53114 0.04334 0)
(2.53026 -0.00813618 0)
(2.53001 0.00835009 0)
(2.53357 -0.0391908 0)
(2.53123 -0.0238767 0)
(2.54239 -0.0678654 0)
(2.53722 -0.0537982 0)
(2.55715 -0.0938215 0)
(2.54914 -0.0812573 0)
(2.57697 -0.116297 0)
(2.5667 -0.105612 0)
(2.59999 -0.134525 2.37707e-26)
(2.58823 -0.12598 0)
(2.62406 -0.147924 0)
(2.61199 -0.141834 0)
(2.64761 -0.156402 2.2624e-24)
(2.63598 -0.152774 0)
(2.66954 -0.16003 0)
(2.65881 -0.158808 0)
(2.68927 -0.159077 0)
(2.67967 -0.160099 0)
(2.70668 -0.153965 0)
(2.6982 -0.157011 0)
(2.72197 -0.145171 0)
(2.71449 -0.149999 0)
(2.7354 -0.133249 0)
(2.7288 -0.139574 0)
(2.74709 -0.118835 1.48708e-22)
(2.74134 -0.126312 -7.64644e-23)
(2.752 -0.110913 -5.21433e-22)
(2.76974 -0.083366 -1.08437e-22)
(2.75484 -0.0869434 4.25338e-22)
(2.75751 -0.086433 -3.54985e-22)
(2.78689 -0.0781724 0)
(2.83196 -0.0901004 -3.91265e-22)
(2.81988 -0.0705176 -1.03796e-21)
(2.82581 -0.0805388 8.87102e-22)
(2.84456 -0.107908 0)
(2.83812 -0.0992239 0)
(2.85786 -0.124513 -7.12973e-26)
(2.85107 -0.116372 0)
(2.8719 -0.140501 0)
(2.86477 -0.13261 0)
(2.88641 -0.156037 -3.53756e-24)
(2.87909 -0.14835 0)
(2.90104 -0.170954 0)
(2.89371 -0.163606 0)
(2.9153 -0.184854 0)
(2.90823 -0.178065 0)
(2.92857 -0.19728 4.86647e-24)
(2.9221 -0.191284 0)
(2.93988 -0.207679 5.28898e-24)
(2.93453 -0.202776 0)
(2.9479 -0.215219 0)
(2.9444 -0.211868 0)
(2.95073 -0.218769 0)
(2.9501 -0.217577 0)
(2.94585 -0.216967 0)
(2.94943 -0.218635 0)
(2.93032 -0.208083 0)
(2.93964 -0.213512 0)
(2.9009 -0.190245 -8.09929e-24)
(2.91757 -0.200379 0)
(2.85464 -0.161687 0)
(2.88005 -0.177378 0)
(2.7897 -0.121268 0)
(2.82458 -0.142981 0)
(2.7062 -0.0690676 -1.76281e-25)
(2.75019 -0.0965642 0)
(2.60687 -0.00670394 3.0802e-25)
(2.65826 -0.0389738 0)
(2.49782 0.0620964 1.43299e-23)
(2.55277 0.0273276 0)
(2.38604 0.133045 -9.07639e-21)
(2.44144 0.0977056 1.97849e-21)
(2.23981 0.2179 2.40363e-21)
(2.33046 0.168221 4.37402e-21)
(2.4342 0.224884 -3.90852e-21)
(2.28558 0.231598 -4.51062e-21)
(2.7636 -0.0852831 1.06356e-22)
(2.81383 -0.060239 8.06649e-22)
(2.47984 0.253227 3.86743e-22)
(2.22777 0.247586 0)
(2.49947 0.291188 6.42773e-20)
(2.27661 0.202284 8.18111e-21)
(2.20286 0.249298 1.10439e-20)
(2.5165 0.302668 -1.01239e-19)
(2.5101 0.333869 1.90391e-20)
(2.36082 0.229504 0)
(2.52276 0.252648 9.00207e-21)
(2.52128 0.278155 4.99019e-21)
(2.53093 0.200811 7.86003e-21)
(2.52583 0.226812 -1.22583e-20)
(2.54363 0.150942 -3.45887e-21)
(2.53729 0.175509 -1.79288e-21)
(2.55469 0.104772 1.57815e-21)
(2.54964 0.127343 1.75223e-21)
(2.56311 0.0630222 0)
(2.55928 0.0833894 -1.15365e-23)
(2.56898 0.0256686 0)
(2.56629 0.0438592 0)
(2.57331 -0.00777073 4.43329e-24)
(2.57127 0.00848997 0)
(2.57748 -0.0376264 0)
(2.57531 -0.0231033 0)
(2.58326 -0.064253 0)
(2.58009 -0.0513203 0)
(2.59201 -0.0877948 0)
(2.58724 -0.0764235 0)
(2.60434 -0.108077 2.96943e-24)
(2.59775 -0.0983762 0)
(2.61992 -0.124731 4.24283e-26)
(2.61176 -0.116872 0)
(2.63793 -0.137371 0)
(2.62869 -0.131567 0)
(2.65727 -0.145751 -4.48032e-24)
(2.64749 -0.142095 0)
(2.67697 -0.149775 0)
(2.66711 -0.1483 0)
(2.69629 -0.149502 0)
(2.68668 -0.150156 0)
(2.71474 -0.145168 0)
(2.70559 -0.147812 0)
(2.73202 -0.137171 0)
(2.72344 -0.14159 0)
(2.7479 -0.126086 0)
(2.74 -0.131974 0)
(2.76197 -0.112696 -7.26914e-23)
(2.75498 -0.119631 0)
(2.77352 -0.0978104 0)
(2.76785 -0.105401 -1.29478e-22)
(2.78158 -0.082415 -3.16789e-24)
(2.77795 -0.0900922 0)
(2.75548 -0.0776428 -4.31538e-22)
(2.78418 -0.0747029 2.35816e-23)
(2.76576 -0.0765999 1.94617e-22)
(2.7657 -0.0734967 1.56813e-22)
(2.75593 -0.0766838 -1.07982e-22)
(2.79536 -0.0618684 -5.57368e-23)
(2.78096 -0.0681966 5.49122e-23)
(2.80778 -0.0496826 0)
(2.80489 -0.0554407 -5.20714e-22)
(2.81511 -0.0654333 -2.31066e-22)
(2.80434 -0.0446843 -4.19689e-22)
(2.80957 -0.0551772 9.25021e-22)
(2.82609 -0.0844456 -1.34753e-22)
(2.8203 -0.0750741 0)
(2.83799 -0.101662 0)
(2.83173 -0.0931696 0)
(2.85108 -0.117699 -7.63714e-26)
(2.8443 -0.109735 0)
(2.86531 -0.133213 0)
(2.85802 -0.125474 0)
(2.8805 -0.148421 3.53756e-24)
(2.87277 -0.140842 0)
(2.89641 -0.163173 0)
(2.88836 -0.155863 0)
(2.91275 -0.177121 0)
(2.90453 -0.170264 0)
(2.92914 -0.189887 0)
(2.92096 -0.18367 0)
(2.94499 -0.201061 -4.89908e-26)
(2.93717 -0.195699 0)
(2.95941 -0.21007 0)
(2.95244 -0.205879 0)
(2.97109 -0.216077 0)
(2.96569 -0.213507 0)
(2.97811 -0.21799 0)
(2.97532 -0.21762 0)
(2.97796 -0.214414 0)
(2.97912 -0.21699 0)
(2.96744 -0.203643 8.09928e-24)
(2.97421 -0.210039 0)
(2.94298 -0.183825 0)
(2.95718 -0.194973 0)
(2.90119 -0.153298 0)
(2.92445 -0.16998 0)
(2.8396 -0.111109 -1.0911e-23)
(2.87297 -0.133673 0)
(2.7576 -0.0575743 1.23429e-23)
(2.80112 -0.0856765 0)
(2.65708 0.00535042 -1.41676e-23)
(2.70945 -0.0270844 0)
(2.54361 0.0735588 2.02568e-21)
(2.60098 0.0393001 -3.9584e-21)
(2.42375 0.142064 -2.22156e-21)
(2.48303 0.108339 4.84201e-21)
(2.22347 0.235552 8.75392e-22)
(2.35976 0.176473 5.57003e-21)
(2.4337 0.25105 -4.66833e-21)
(2.28201 0.256139 0)
(2.4756 0.284635 -4.51161e-20)
(2.21122 0.275895 0)
(2.80331 -0.0793489 -9.47635e-23)
(2.80553 -0.0728439 6.91518e-23)
(2.80156 -0.0392516 -3.69378e-22)
(2.79888 -0.033954 -4.03258e-22)
(2.48643 0.319769 -4.49282e-20)
(2.16858 0.279176 -1.11546e-20)
(2.50439 0.358521 0)
(2.52338 0.317593 -1.17834e-20)
(2.17328 0.267039 -5.28864e-21)
(2.29849 0.208584 9.332e-21)
(2.51831 0.352161 2.28461e-20)
(2.36349 0.25356 0)
(2.52982 0.263089 0)
(2.5267 0.290141 -9.63025e-21)
(2.53869 0.20918 0)
(2.53358 0.235995 0)
(2.55222 0.1581 0)
(2.5452 0.18319 1.85748e-21)
(2.56586 0.111442 0)
(2.55917 0.134245 0)
(2.57863 0.0688993 0)
(2.57234 0.0896675 0)
(2.59064 0.0303911 0)
(2.58476 0.049154 0)
(2.60148 -0.00398337 -4.43329e-24)
(2.59623 0.0126879 0)
(2.61117 -0.0342517 0)
(2.60645 -0.0196157 0)
(2.62042 -0.0605916 0)
(2.61581 -0.0478968 0)
(2.63016 -0.0832085 0)
(2.62518 -0.0723533 0)
(2.64125 -0.102209 -6.93478e-26)
(2.63551 -0.0931582 0)
(2.65418 -0.117563 6.3104e-26)
(2.64748 -0.110341 0)
(2.66898 -0.129149 0)
(2.66136 -0.12383 0)
(2.68532 -0.136836 5.62744e-26)
(2.67699 -0.133479 0)
(2.70269 -0.140547 0)
(2.69391 -0.139183 0)
(2.72049 -0.140287 0)
(2.71155 -0.140898 0)
(2.73816 -0.136227 0)
(2.72935 -0.138705 0)
(2.75517 -0.128731 0)
(2.74673 -0.132872 0)
(2.77096 -0.118397 0)
(2.76318 -0.123873 0)
(2.78488 -0.106061 0)
(2.77809 -0.112436 0)
(2.79593 -0.092756 1.18044e-22)
(2.79077 -0.0994701 1.31462e-22)
(2.80021 -0.0859855 -2.12678e-22)
(2.75552 -0.0685243 -1.98089e-22)
(2.786 -0.0673095 0)
(2.76715 -0.0682022 -1.9694e-22)
(2.76147 -0.0638489 0)
(2.75387 -0.0672254 2.02239e-22)
(2.78837 -0.0520709 3.10009e-22)
(2.7749 -0.0585272 -1.05744e-22)
(2.79799 -0.0453409 -6.1229e-22)
(2.80575 -0.0606369 1.07403e-22)
(2.79608 -0.0401969 3.36593e-22)
(2.80058 -0.0505692 0)
(2.81594 -0.0790157 -2.47361e-22)
(2.81043 -0.0699713 2.48253e-22)
(2.82734 -0.0955255 0)
(2.82129 -0.0873777 0)
(2.84012 -0.110908 -7.88655e-26)
(2.83346 -0.103257 0)
(2.85425 -0.125815 0)
(2.84697 -0.118362 0)
(2.86962 -0.140504 0)
(2.86176 -0.133167 0)
(2.88605 -0.154835 0)
(2.87769 -0.147719 0)
(2.90337 -0.168487 0)
(2.8946 -0.161757 0)
(2.92137 -0.181127 4.69203e-24)
(2.91229 -0.174945 0)
(2.93973 -0.192429 -5.23999e-24)
(2.93053 -0.186961 0)
(2.95793 -0.201977 0)
(2.94889 -0.197449 0)
(2.97515 -0.209171 0)
(2.96672 -0.205908 0)
(2.99017 -0.213203 0)
(2.98303 -0.211636 0)
(3.00117 -0.213027 0)
(2.99631 -0.213716 0)
(3.00564 -0.207292 0)
(3.0044 -0.210946 0)
(3.00041 -0.194395 0)
(3.00446 -0.201841 0)
(2.98179 -0.172646 -9.80293e-24)
(2.99301 -0.184723 0)
(2.94618 -0.140629 1.08455e-23)
(2.96632 -0.157982 0)
(2.89079 -0.0977116 -1.21086e-23)
(2.92109 -0.120521 0)
(2.81446 -0.0446277 0)
(2.85525 -0.072334 0)
(2.71829 0.0162746 0)
(2.76869 -0.0149184 0)
(2.60794 0.0799733 1.83409e-23)
(2.66376 0.0483549 2.23062e-21)
(2.48472 0.143107 -1.46584e-20)
(2.54625 0.112191 0)
(2.23799 0.238527 -8.8518e-21)
(2.42215 0.172543 -9.77041e-22)
(2.43201 0.278548 1.48592e-20)
(2.28071 0.280674 0)
(2.80648 -0.0666446 -3.42494e-22)
(2.79128 -0.0294715 -6.85447e-22)
(2.46381 0.31154 -8.28845e-21)
(2.49952 0.353413 3.14973e-22)
(2.48651 0.352425 2.40421e-20)
(2.19847 0.301038 0)
(2.13743 0.308253 3.20161e-21)
(2.51251 0.388563 -2.20359e-20)
(2.50753 0.407831 2.18619e-20)
(2.49464 0.380914 -2.08834e-20)
(2.12533 0.295738 -9.46086e-21)
(2.178 0.266175 6.86523e-21)
(2.36178 0.199348 5.40746e-21)
(2.36521 0.278302 0)
(2.52964 0.321513 5.76663e-22)
(2.52331 0.380187 1.45235e-22)
(2.52613 0.350855 4.65837e-21)
(2.53595 0.266582 4.27886e-21)
(2.53287 0.293664 -4.30727e-21)
(2.54418 0.213522 6.99892e-24)
(2.53942 0.240033 0)
(2.55658 0.163581 0)
(2.55007 0.187966 0)
(2.57032 0.117923 0)
(2.56337 0.140288 0)
(2.58474 0.0757759 0)
(2.57743 0.0964287 0)
(2.59984 0.0371799 4.59107e-24)
(2.59225 0.0560131 0)
(2.61499 0.00246362 0)
(2.60744 0.0193232 0)
(2.62974 -0.0282221 0)
(2.62244 -0.0133801 0)
(2.64392 -0.0548378 0)
(2.63691 -0.0420362 0)
(2.65769 -0.0774216 0)
(2.65084 -0.0666241 0)
(2.67147 -0.0960625 -2.90009e-24)
(2.66456 -0.0872254 0)
(2.68568 -0.110831 8.14203e-26)
(2.67851 -0.103922 0)
(2.70059 -0.121765 0)
(2.69304 -0.116771 0)
(2.71627 -0.128882 4.25592e-24)
(2.70835 -0.125794 0)
(2.73255 -0.132205 0)
(2.72436 -0.13101 0)
(2.74909 -0.131808 0)
(2.74082 -0.132458 0)
(2.76542 -0.127889 0)
(2.75731 -0.130267 0)
(2.78099 -0.120833 0)
(2.77334 -0.124719 0)
(2.7952 -0.111275 0)
(2.78833 -0.116319 0)
(2.80734 -0.100106 2.07193e-24)
(2.80162 -0.105829 0)
(2.81665 -0.0883908 -1.18549e-22)
(2.8125 -0.0942443 0)
(2.82214 -0.0770683 1.04594e-22)
(2.82 -0.0826149 0)
(2.82318 -0.066886 8.5547e-23)
(2.82332 -0.0717931 -9.43743e-23)
(2.78611 -0.0603304 1.70528e-22)
(2.82183 -0.0623425 0)
(2.80598 -0.0608134 2.55088e-22)
(2.75478 -0.0598054 0)
(2.76734 -0.0602291 0)
(2.75711 -0.0545537 0)
(2.7515 -0.0580887 0)
(2.78156 -0.0425068 0)
(2.7689 -0.0491353 0)
(2.79522 -0.029052 3.76553e-22)
(2.79117 -0.0354913 9.2635e-23)
(2.78639 -0.0188687 8.01225e-23)
(2.79332 -0.0235294 6.92616e-22)
(2.78463 -0.036036 4.62069e-22)
(2.77595 -0.0147594 7.11618e-23)
(2.78046 -0.0255419 -1.62366e-22)
(2.79358 -0.0559832 9.64334e-23)
(2.78907 -0.0462887 -5.8736e-22)
(2.80338 -0.0737239 -7.62237e-26)
(2.79827 -0.0651239 0)
(2.81442 -0.0895481 0)
(2.80869 -0.0818159 0)
(2.82685 -0.10424 -8.0033e-26)
(2.82043 -0.0969758 0)
(2.84071 -0.118475 0)
(2.83359 -0.111374 0)
(2.85592 -0.132543 0)
(2.84814 -0.12552 0)
(2.87238 -0.146316 0)
(2.86399 -0.139476 0)
(2.88997 -0.159479 0)
(2.88103 -0.152987 0)
(2.90857 -0.171722 -9.30885e-24)
(2.89914 -0.165727 0)
(2.92802 -0.182765 0)
(2.91819 -0.177406 0)
(2.94804 -0.192277 0)
(2.93797 -0.187731 0)
(2.96818 -0.199807 0)
(2.95813 -0.196318 0)
(2.98771 -0.20476 0)
(2.97808 -0.202643 0)
(3.00551 -0.206365 -7.45377e-24)
(2.99691 -0.206032 0)
(3.01988 -0.20363 0)
(3.01324 -0.205606 0)
(3.02848 -0.195319 0)
(3.02507 -0.200251 0)
(3.0283 -0.180017 9.80292e-24)
(3.0297 -0.188627 0)
(3.01581 -0.15633 3.63695e-26)
(3.02382 -0.169296 0)
(2.98755 -0.12321 2.42249e-23)
(3.00386 -0.140984 0)
(2.94072 -0.080486 0)
(2.9666 -0.103006 0)
(2.87393 -0.029395 0)
(2.90985 -0.0558427 0)
(2.78813 0.0273003 -3.51664e-25)
(2.83322 -0.00150435 0)
(2.68602 0.0851362 0)
(2.73885 0.0564233 0)
(2.578 0.137777 -9.49889e-21)
(2.63161 0.112618 0)
(2.29829 0.224375 -1.09725e-21)
(2.52204 0.161271 1.76573e-20)
(2.42699 0.306332 0)
(2.52146 0.409872 3.0564e-20)
(2.4628 0.3459 5.77555e-21)
(2.83259 -0.0680875 -8.54232e-23)
(2.83048 -0.0648673 0)
(2.7814 -0.00844751 6.99854e-23)
(2.77171 -0.0041908 -1.47034e-22)
(2.28029 0.305419 0)
(2.18673 0.326818 0)
(2.4787 0.383825 0)
(2.11002 0.333793 -3.15261e-21)
(2.07781 0.322452 -6.7971e-21)
(2.11934 0.290052 0)
(2.23585 0.245914 1.88152e-20)
(2.46422 0.182757 -1.43914e-20)
(2.36593 0.304522 0)
(2.53039 0.392704 -2.21824e-24)
(2.51977 0.439868 9.51851e-21)
(2.53043 0.455944 -3.31929e-20)
(2.53014 0.423906 9.5395e-21)
(2.53485 0.330937 -2.64978e-21)
(2.53206 0.361739 -4.617e-21)
(2.5405 0.273535 0)
(2.53767 0.301626 0)
(2.54784 0.219906 -6.99875e-24)
(2.54369 0.246387 0)
(2.55862 0.170459 0)
(2.55288 0.194591 0)
(2.5715 0.125304 0)
(2.56486 0.147412 0)
(2.58589 0.083646 0)
(2.5785 0.10406 0)
(2.60174 0.0454461 -4.59107e-24)
(2.59365 0.0641043 0)
(2.61867 0.010859 0)
(2.61011 0.0276961 0)
(2.63617 -0.0199218 0)
(2.62739 -0.00501229 0)
(2.65376 -0.0467537 0)
(2.64498 -0.0338347 0)
(2.67115 -0.0695536 0)
(2.6625 -0.0586553 0)
(2.68825 -0.0883117 2.70193e-24)
(2.67974 -0.079432 0)
(2.70512 -0.103066 9.57537e-26)
(2.69672 -0.096181 0)
(2.72184 -0.113892 0)
(2.7135 -0.10896 0)
(2.73847 -0.120882 -7.68645e-26)
(2.73017 -0.117855 0)
(2.7549 -0.124151 0)
(2.74672 -0.122969 0)
(2.77093 -0.123863 0)
(2.76299 -0.124435 0)
(2.7862 -0.120275 0)
(2.77869 -0.122457 0)
(2.80028 -0.11382 0)
(2.79342 -0.117369 0)
(2.81263 -0.10517 0)
(2.8067 -0.109717 0)
(2.8227 -0.0952513 -4.07537e-24)
(2.81798 -0.100303 0)
(2.82986 -0.0851576 -1.75089e-24)
(2.82665 -0.0901588 0)
(2.83338 -0.0759009 2.05524e-22)
(2.83207 -0.0803707 -2.05726e-22)
(2.8335 -0.0717879 1.76669e-22)
(2.78519 -0.0538402 4.0694e-23)
(2.81928 -0.0584507 9.65359e-24)
(2.8043 -0.0555693 -1.23949e-22)
(2.75349 -0.0515335 0)
(2.76661 -0.0527268 0)
(2.75256 -0.0455838 -1.37721e-27)
(2.74874 -0.0493552 0)
(2.77469 -0.0333909 0)
(2.76282 -0.0400934 0)
(2.78869 -0.0194129 1.72443e-22)
(2.78418 -0.0262351 -1.83238e-22)
(2.78758 -0.013451 -2.48168e-23)
(2.77168 -0.0321263 -4.46335e-24)
(2.76365 -0.0110263 -1.5064e-22)
(2.7677 -0.0216994 8.98733e-24)
(2.7803 -0.0515127 -9.87743e-23)
(2.77598 -0.0421132 9.89134e-23)
(2.7898 -0.0686317 -1.92702e-24)
(2.7849 -0.0603561 0)
(2.80046 -0.0837987 -2.15148e-24)
(2.79495 -0.0764143 0)
(2.81246 -0.0977841 -8.06531e-26)
(2.80626 -0.0908837 0)
(2.82587 -0.111315 0)
(2.81897 -0.10457 0)
(2.8407 -0.124709 0)
(2.8331 -0.118022 0)
(2.85686 -0.137853 0)
(2.84861 -0.131325 0)
(2.87427 -0.150433 0)
(2.86541 -0.144229 0)
(2.89285 -0.162144 4.61682e-24)
(2.88341 -0.156409 0)
(2.91252 -0.172725 5.03443e-24)
(2.90255 -0.167586 0)
(2.93312 -0.181896 0)
(2.92271 -0.177502 0)
(2.95442 -0.18929 0)
(2.9437 -0.185836 0)
(2.97598 -0.194442 0)
(2.96519 -0.192174 0)
(2.99716 -0.196772 7.45377e-24)
(2.98667 -0.195996 0)
(3.01691 -0.195548 -8.14771e-24)
(3.00728 -0.196651 0)
(3.0337 -0.189858 0)
(3.02578 -0.193319 0)
(3.04542 -0.178634 0)
(3.04035 -0.185003 0)
(3.04936 -0.160742 2.4691e-26)
(3.04855 -0.170584 0)
(3.04239 -0.135177 -2.42479e-23)
(3.04744 -0.148963 0)
(3.02145 -0.101382 0)
(3.03384 -0.119309 0)
(2.98411 -0.0597674 0)
(3.00494 -0.0814684 0)
(2.92923 -0.0121592 -2.20435e-25)
(2.95887 -0.0365428 0)
(2.858 0.0385951 0)
(2.89547 0.0130892 0)
(2.77504 0.0875826 6.27931e-21)
(2.81699 0.0638778 0)
(2.68432 0.130107 6.9061e-21)
(2.72884 0.110276 -1.34302e-20)
(2.49022 0.413084 -3.89208e-20)
(2.50331 0.458904 -3.0591e-20)
(2.40765 0.200932 -7.87517e-21)
(2.63617 0.148292 7.87183e-21)
(2.42356 0.337407 0)
(2.82723 -0.0621543 1.36919e-22)
(2.7597 -0.000370019 -5.50178e-22)
(2.53096 0.489369 6.43008e-21)
(2.2786 0.330546 0)
(2.51775 0.477593 2.40993e-21)
(2.45236 0.378344 0)
(2.17702 0.350615 0)
(2.47366 0.41649 0)
(2.08272 0.358324 0)
(2.03426 0.345372 0)
(2.05864 0.312455 -1.8403e-21)
(2.17289 0.264216 -6.51141e-21)
(2.35165 0.215788 0)
(2.59194 0.162921 -1.7303e-20)
(2.36384 0.332215 0)
(2.54109 0.452685 1.529e-20)
(2.53173 0.525963 2.93374e-20)
(2.54673 0.52014 1.67843e-20)
(2.54357 0.485806 -1.7037e-20)
(2.53776 0.388911 1.06559e-21)
(2.53896 0.420405 -5.24845e-21)
(2.53929 0.329188 2.04064e-21)
(2.53806 0.35825 -2.03624e-24)
(2.54326 0.274429 6.79623e-24)
(2.54107 0.301318 0)
(2.54921 0.223161 6.18831e-24)