/*--------------------------------*- C++ -*----------------------------------*\
  =========                 |
  \\      /  F ield         | OpenFOAM: The Open Source CFD Toolbox
   \\    /   O peration     | Website:  https://openfoam.org
    \\  /    A nd           | Version:  10
     \\/     M anipulation  |
\*---------------------------------------------------------------------------*/
FoamFile
{
    format      ascii;
    class       volScalarField;
    location    "68";
    object      p;
}
// * * * * * * * * * * * * * * * * * * * * * * * * * * * * * * * * * * * * * //

dimensions      [0 2 -2 0 0 0 0];

internalField   nonuniform List<scalar> 
28942
(
-0.00378478
-0.00315877
0.00201424
0.00947579
0.00977575
8.98489e-05
0.000288714
2.48927e-05
0.00269771
0.00278562
-0.0023276
-0.00259646
-0.00297927
-0.00289675
0.000192618
0.000500659
0.00986509
0.0101351
0.00556603
0.00712642
0.00813709
0.00812875
-0.00523392
-0.00505919
-0.00358797
-0.00381179
0.0138633
0.0138123
0.00351954
0.00346225
1.87401e-05
5.35911e-05
0.000767749
0.000313798
0.00712871
0.00833442
0.0108718
0.0128303
-6.40337e-06
0.0150251
0.00907723
0.0115752
0.00172881
0.0016415
0.00170328
0.000290776
0.00015537
0.000231822
0.000267876
0.000374178
0.000715398
0.00277051
0.00284157
0.00283031
0.00298538
-0.00235843
-0.00105629
-0.00338611
-0.0032318
-0.00350259
-0.00357574
-0.00357649
-0.00347457
-0.000122821
-0.00182271
-0.000369172
0.00096148
0.00940853
0.00891212
-0.00337631
-0.00358613
-0.0033213
0.00897406
0.0088257
0.00911789
-0.00148868
-0.00110114
-0.000762563
0.00234796
0.0027473
0.00183873
0.000744176
-0.00632504
-0.00755307
0.001069
0.00379436
0.00483586
0.00562333
0.00400785
0.00413086
0.00609767
0.00547673
-0.00140979
-0.0016998
-0.00197758
-0.00181668
-0.00164308
0.00531936
0.00661026
-0.00786436
0.0112731
0.010474
0.00576794
0.00936485
0.000885991
0.000792537
0.000703295
0.00545723
0.00564995
0.00564405
-0.00322971
-0.00315044
-0.00314163
-0.00262502
-0.00274794
0.0158172
0.0138121
0.0132537
0.0148848
0.00162908
0.00470861
0.00340694
0.00505846
0.00473533
0.0154897
0.015785
0.0144442
0.00589994
0.0069789
0.000191892
0.000292511
0.000110049
0.0104846
0.0109876
0.00765456
0.00730668
0.0127638
0.00668463
0.00797502
0.00903672
-0.0019164
-0.00242454
0.00734422
0.00164622
0.00173469
-0.00118253
-0.00144514
-0.000987563
-0.00252389
0.00657908
0.00570639
0.00369988
0.000266929
0.000211454
8.39278e-05
0.000213377
0.00751556
0.00677943
-0.00187458
-0.00199174
-0.00188698
-0.00415021
-0.00369528
6.49774e-05
-0.0028618
-0.000509213
0.00837927
0.00848823
0.00958233
0.00911765
0.0076954
0.00306568
0.00298308
0.00323762
0.0031134
0.00502701
0.00480485
0.00513993
0.00536043
0.00529839
0.0053694
0.00558055
0.00613458
0.00582861
0.00542655
0.00575669
0.00646238
0.0072162
0.00750819
-0.000590574
-0.000571368
-0.00248348
0.000216322
6.19232e-05
-0.00200435
-0.0020928
0.000292406
0.00035508
0.000318329
0.000250047
0.00180003
0.00175297
0.0017331
-0.002928
-0.00311485
-0.00277968
-0.00434663
-0.00482847
-0.00414042
-0.00472743
-0.00649245
-0.00519122
0.016011
0.0167211
0.0164886
0.00092011
0.00106498
0.000953529
0.0103365
0.00990862
0.00998891
0.00146218
0.00144601
0.00147833
0.00142937
0.00141329
0.00139662
0.00139728
0.00137982
0.00138037
0.00141381
0.00142985
0.00144591
0.00146222
0.00147882
0.00136338
0.00136295
0.00149382
0.00149397
0.00150883
0.00134646
0.0013459
0.00150919
0.001329
0.00131155
0.001329
0.00131186
0.00152562
0.00152571
0.00129414
0.00129449
0.00154064
0.00154096
0.00127663
0.00127706
0.0015557
0.00155601
0.00125908
0.00125948
0.00157062
0.00157099
0.00124141
0.00124187
0.00158541
0.00158576
0.0012237
0.00122414
0.00160013
0.00160049
0.00120586
0.0012064
0.00161496
0.0016152
0.00118806
0.00118833
0.00162896
0.00162928
0.00117012
0.00117002
0.00164408
0.00164408
0.0011519
0.00115147
0.00165771
0.00165758
0.00113273
0.00113298
0.0016719
0.00167158
0.00111383
0.0011145
0.00165696
0.00167118
0.00168609
0.00168558
0.00162715
0.00164275
0.00159803
0.00161309
0.00156923
0.00158381
0.00153921
0.00155437
0.00150798
0.00152379
0.00147693
0.00149378
0.00144552
0.0014616
0.00141238
0.00142818
0.00137835
0.00139551
0.00134464
0.00136166
0.00131034
0.00132759
0.00127557
0.00129304
0.00124043
0.00125807
0.00120498
0.00122277
0.00116932
0.0011872
0.00113245
0.0011513
0.00111379
0.00109511
0.00109545
0.00115148
0.0011142
0.00113277
0.00118804
0.00116962
0.00122372
0.00120604
0.00125901
0.00124143
0.00129398
0.00127657
0.00132855
0.00131135
0.00136242
0.00134566
0.00139629
0.00137957
0.00142966
0.00141316
0.00146123
0.00144539
0.00149356
0.00147839
0.00152469
0.0015088
0.00155506
0.00154002
0.00158463
0.00156999
0.00161361
0.00159912
0.00164232
0.0016277
0.00166969
0.00165626
0.00168372
0.00168596
0.00109482
0.00109546
0.0016989
0.00169668
0.0017004
0.00169982
0.00165489
0.00168429
0.00166937
0.00162511
0.00164038
0.00159642
0.00161051
0.00156739
0.00158206
0.00153739
0.00155251
0.00150664
0.00152211
0.00147491
0.0014911
0.00144305
0.00145982
0.00141112
0.00142643
0.00137696
0.00139408
0.00134316
0.00136014
0.00130893
0.00132612
0.00127424
0.00129165
0.00123919
0.00125677
0.00120384
0.00122156
0.00116833
0.00118611
0.00113182
0.00115016
0.0010761
0.0010762
0.0010942
0.00111304
0.00111367
0.00109527
0.00107659
0.00107643
0.00115123
0.00113229
0.00118727
0.001169
0.00122269
0.00120501
0.0012579
0.00124034
0.00129278
0.0012754
0.00132728
0.00131009
0.00136129
0.00134439
0.00139479
0.0013781
0.00142796
0.00141133
0.00145991
0.00144399
0.0014916
0.0014764
0.0015228
0.00150736
0.00155313
0.00153808
0.00158269
0.00156803
0.00161151
0.00159722
0.00163957
0.00162566
0.0016669
0.00165328
0.00169302
0.00168042
0.00169882
0.00171003
0.00170648
0.00171159
0.0010757
0.00107622
0.0017131
0.00171164
0.00172308
0.00172003
0.001713
0.00109383
0.00107491
0.00105765
0.00105728
0.0017095
0.00172644
0.00174772
0.00173031
0.00168108
0.00169568
0.00165159
0.0016661
0.00162233
0.00163745
0.00159371
0.00160764
0.00156473
0.00157939
0.00153481
0.00154987
0.00150412
0.00151957
0.00147273
0.0014885
0.00144076
0.00145688
0.00140822
0.00142451
0.00137498
0.00139174
0.00134121
0.00135815
0.00130703
0.00132418
0.00127244
0.00128979
0.00123749
0.00125501
0.00120226
0.00121991
0.00116687
0.00118458
0.0011307
0.00114877
0.00111218
0.00105762
0.00105699
0.00105732
0.00105777
0.00111317
0.00107567
0.00109471
0.00115027
0.00113173
0.00118583
0.00116791
0.00122115
0.00120352
0.00125624
0.00123874
0.00129099
0.00127367
0.00132535
0.00130823
0.00135926
0.00134238
0.00139265
0.00137601
0.00142542
0.00140915
0.00145767
0.00144163
0.00148915
0.00147355
0.0015201
0.00150475
0.00155031
0.00153531
0.00157977
0.00156514
0.00160846
0.00159423
0.00163625
0.00162251
0.00166312
0.00164974
0.00168922
0.00167624
0.00171539
0.0017017
0.00173192
0.00172778
0.00172617
0.00172436
0.00105631
0.00105735
0.00173728
0.00173525
0.00173598
0.00173987
0.00174328
0.00167027
0.00174656
0.00172632
0.00173066
0.0017268
0.00170787
0.00172398
0.00167595
0.00169177
0.0016473
0.00166115
0.00161869
0.00163358
0.00159029
0.00160447
0.00156123
0.00157588
0.00153138
0.00154641
0.0015008
0.00151619
0.00146957
0.00148527
0.0014377
0.0014537
0.00140519
0.00142153
0.00137216
0.00138878
0.00133856
0.00135542
0.00130452
0.0013216
0.00127007
0.00128735
0.00123527
0.00125272
0.00120019
0.00121777
0.00116493
0.00118258
0.00112917
0.00114701
0.00109279
0.00111095
0.00105554
0.00107399
0.00103854
0.00103687
0.00103783
0.00103922
0.0010389
0.00103937
0.00103934
0.00103883
0.00103912
0.00107528
0.00103803
0.00105713
0.00111197
0.00109375
0.00114857
0.00113057
0.00118393
0.00116629
0.00121913
0.00120157
0.00125406
0.00123664
0.00128866
0.00127141
0.00132285
0.00130581
0.00135657
0.00133978
0.0013898
0.00137326
0.00142242
0.00140622
0.00145449
0.00143854
0.00148586
0.00147027
0.00151662
0.00150134
0.00154667
0.00153175
0.00157598
0.00156143
0.0016045
0.00159036
0.00163214
0.00161847
0.00165871
0.00164557
0.00168431
0.00167168
0.00170969
0.00169682
0.0017345
0.00172124
0.00175124
0.00174593
0.00173786
0.00173727
0.00175138
0.0017449
0.0010546
0.00103637
0.00102023
0.00101977
0.00174363
0.00175482
0.00177939
0.00169826
0.00176033
0.00175618
0.00173915
0.00173804
0.00171778
0.00171369
0.00170177
0.00171443
0.00167
0.00168575
0.0016426
0.00165628
0.00161448
0.00162875
0.00158596
0.00160026
0.00155692
0.00157154
0.00152717
0.00154214
0.00149673
0.00151205
0.00146564
0.00148128
0.00143392
0.00144987
0.0014016
0.00141784
0.00136872
0.00138525
0.0013353
0.00135208
0.00130144
0.00131844
0.00126718
0.00128437
0.00123256
0.00124991
0.00119765
0.00121514
0.00116252
0.00118011
0.00112727
0.00114492
0.00109102
0.00110917
0.00107269
0.00102018
0.00101862
0.00101972
0.00102122
0.00102087
0.00102112
0.00102133
0.0010207
0.00107406
0.00103676
0.00105641
0.00111061
0.00109239
0.00114638
0.0011288
0.00118161
0.00116403
0.00121664
0.00119916
0.00125138
0.00123406
0.00128578
0.00126864
0.00131977
0.00130284
0.0013533
0.00133661
0.00138632
0.00136989
0.00141877
0.00140264
0.00145062
0.00143478
0.00148183
0.00146632
0.00151239
0.00149721
0.00154226
0.00152743
0.00157139
0.00155694
0.00159973
0.00158568
0.00162721
0.00161361
0.00165368
0.00164059
0.00167903
0.00166652
0.00170364
0.00169159
0.001727
0.00171401
0.00175042
0.00174017
0.00176544
0.00175923
0.00175036
0.00174742
0.00101731
0.00101863
0.00175272
0.00171203
0.00173646
0.00175639
0.00176337
0.00178276
0.0017671
0.0017738
0.00176976
0.0017746
0.00177062
0.00174861
0.00171258
0.00177245
0.00174606
0.00170744
0.00170667
0.00169249
0.0017055
0.00166422
0.00167815
0.001637
0.00165068
0.00160915
0.00162318
0.00158077
0.00159502
0.00155184
0.0015664
0.00152224
0.00153714
0.00149196
0.00150719
0.00146104
0.00147659
0.0014295
0.00144536
0.00139738
0.00141352
0.0013647
0.00138112
0.0013315
0.00134817
0.00129785
0.00131474
0.00126379
0.00128088
0.00122938
0.00124663
0.00119468
0.00121207
0.00115975
0.00117725
0.00112467
0.00114223
0.0010892
0.00110712
0.0010526
0.00107098
0.00101595
0.00103443
0.00100048
0.000997456
0.000999144
0.0010025
0.00100143
0.00100354
0.00100319
0.00100344
0.0010036
0.00100223
0.00100295
0.00100056
0.00100146
0.00103586
0.00099947
0.00101753
0.0010724
0.00105435
0.00110872
0.00109072
0.00114383
0.0011263
0.00117888
0.00116139
0.00121369
0.00119633
0.00124822
0.00123101
0.0012824
0.00126537
0.00131616
0.00129935
0.00134947
0.00133289
0.00138226
0.00136594
0.00141448
0.00139846
0.00144612
0.00143039
0.00147712
0.00146172
0.00150747
0.0014924
0.00153714
0.00152241
0.00156607
0.00155171
0.00159421
0.00158026
0.0016215
0.00160799
0.00164783
0.00163481
0.0016731
0.00166063
0.00169725
0.00168542
0.00172039
0.00170865
0.00174204
0.00173204
0.00176298
0.00175066
0.00178132
0.00177479
0.00175639
0.00176461
0.00175452
0.00101412
0.000996258
0.000982348
0.000981093
0.00175716
0.00176582
0.00176143
0.00177247
0.00177817
0.00178614
0.00179024
0.00178453
0.0017572
0.00175935
0.00177111
0.00176323
0.0017628
0.00171624
0.00173916
0.00169951
0.00170403
0.00168355
0.00169557
0.0016572
0.00167034
0.00163047
0.00164396
0.00160296
0.00161683
0.00157482
0.00158898
0.00154606
0.00156054
0.00151663
0.00153144
0.00148654
0.00150168
0.00145582
0.00147127
0.00142449
0.00144025
0.00139259
0.00140862
0.00136013
0.00137644
0.00132717
0.00134372
0.00129376
0.00131053
0.00125994
0.00127691
0.00122577
0.0012429
0.0011913
0.00120858
0.00115659
0.00117398
0.00112171
0.00113918
0.00108683
0.00110429
0.00105059
0.00106886
0.00103221
0.000982685
0.000979372
0.000981424
0.000984952
0.000983888
0.000985898
0.000985561
0.000985767
0.000985961
0.000984418
0.000985232
0.000983409
0.00103446
0.000997929
0.00101612
0.00107052
0.0010526
0.00110598
0.00108848
0.00114093
0.00112347
0.00117574
0.00115837
0.00121032
0.00119308
0.00124461
0.00122752
0.00127854
0.00126164
0.00131206
0.00129537
0.00134511
0.00132866
0.00137765
0.00136146
0.00140963
0.00139372
0.00144102
0.00142542
0.00147179
0.0014565
0.00150191
0.00148695
0.00153135
0.00151674
0.00156007
0.00154583
0.00158801
0.00157416
0.0016151
0.00160169
0.00164126
0.00162832
0.0016664
0.00165399
0.00169043
0.00167861
0.00171331
0.001702
0.00173431
0.00172424
0.00175556
0.00174377
0.00177579
0.0017648
0.0017896
0.00177814
0.00179327
0.001786
0.00176185
0.000977975
0.000979708
0.00176586
0.00176643
0.00177813
0.00176746
0.00177536
0.00178404
0.00178291
0.00178979
0.0017946
0.00179868
0.00180227
0.00179584
0.00176534
0.00175198
0.0017833
0.00178131
0.00175838
0.00174677
0.00175521
0.00171439
0.00172863
0.00169275
0.00170144
0.00167458
0.00168581
0.00164945
0.00166216
0.00162324
0.0016365
0.00159608
0.00160978
0.0015682
0.00158224
0.00153964
0.00155402
0.00151042
0.00152513
0.00148054
0.00149557
0.00145004
0.00146538
0.00141894
0.00143458
0.00138728
0.00140319
0.00135507
0.00137125
0.00132237
0.00133879
0.00128922
0.00130586
0.00125566
0.0012725
0.00122175
0.00123876
0.00118753
0.00120468
0.00115308
0.00117034
0.00111844
0.00113579
0.00108372
0.00110109
0.00104855
0.00106637
0.00101229
0.00103029
0.000976305
0.000994649
0.000961855
0.00095825
0.000960231
0.000965202
0.000963471
0.000967352
0.000966468
0.00096829
0.000967949
0.000968152
0.000968357
0.000966903
0.000967669
0.000964832
0.000965722
0.00096187
0.000963511
0.000996212
0.000960303
0.000978312
0.00103275
0.00101407
0.00106809
0.00105073
0.00110292
0.00108553
0.00113767
0.00112032
0.00117223
0.00115499
0.00120656
0.00118944
0.00124058
0.00122363
0.00127424
0.00125748
0.00130749
0.00129094
0.00134027
0.00132395
0.00137253
0.00135648
0.00140425
0.00138848
0.00143538
0.00141991
0.0014659
0.00145074
0.00149578
0.00148095
0.00152498
0.00151049
0.00155347
0.00153934
0.00158119
0.00156746
0.00160808
0.00159477
0.00163405
0.00162121
0.00165904
0.0016467
0.00168293
0.00167116
0.00170566
0.00169446
0.00172673
0.00171649
0.00174698
0.00173691
0.00176615
0.00175581
0.00178631
0.00177721
0.00179155
0.00178998
0.0018002
0.00178994
0.00177233
0.00177629
0.00178596
0.00179355
0.0017865
0.00178177
0.00178532
0.000974545
0.000956465
0.000943899
0.000942517
0.00179383
0.00179276
0.00179882
0.00180248
0.00180634
0.00180709
0.00178891
0.00178613
0.00178857
0.00180698
0.00180339
0.00180214
0.00177544
0.00177619
0.0017738
0.00174347
0.00175463
0.00173447
0.00174356
0.00170748
0.0017196
0.00168632
0.00169641
0.00166559
0.00167667
0.00164121
0.00165364
0.00161542
0.00162849
0.0015886
0.00160214
0.00156098
0.0015749
0.00153266
0.00154692
0.00150366
0.00151825
0.00147401
0.00148893
0.00144375
0.00145897
0.0014129
0.00142841
0.0013815
0.00139728
0.00134956
0.00136561
0.00131714
0.00133342
0.00128426
0.00130076
0.00125098
0.00126768
0.00121735
0.00123422
0.00118341
0.00120042
0.00114923
0.00116635
0.00111485
0.00113207
0.00108035
0.00109762
0.00104587
0.00106312
0.00101007
0.00102812
0.000992385
0.00094465
0.000940733
0.000942971
0.000947831
0.000946253
0.000949798
0.000948956
0.000950731
0.000950395
0.000950603
0.0009508
0.000949466
0.000950152
0.000947191
0.000948426
0.000945748
0.00099436
0.000958648
0.000976528
0.00103049
0.00101235
0.00106501
0.00104776
0.0010996
0.00108232
0.00113408
0.00111687
0.00116838
0.00115127
0.00120243
0.00118545
0.00123617
0.00121935
0.00126954
0.00125292
0.0013025
0.00128609
0.00133499
0.00131882
0.00136697
0.00135106
0.00139841
0.00138278
0.00142927
0.00141393
0.00145952
0.00144449
0.00148914
0.00147443
0.0015181
0.00150373
0.00154634
0.00153234
0.00157384
0.00156021
0.00160051
0.00158731
0.00162629
0.00161355
0.00165111
0.00163886
0.00167486
0.00166316
0.00169746
0.00168633
0.00171864
0.00170828
0.00173861
0.00172882
0.00175755
0.00174812
0.0017744
0.00176681
0.00179427
0.00177989
0.00179557
0.00180569
0.00181629
0.00181152
0.00180502
0.00179222
0.00179665
0.00179549
0.00178412
0.00178637
0.000938928
0.000940863
0.0018061
0.00179347
0.00179504
0.00180061
0.00180203
0.00180724
0.00181118
0.00181146
0.00181067
0.00179436
0.00178524
0.00178755
0.00179428
0.00180326
0.00181256
0.00179812
0.00180754
0.00181372
0.00181555
0.00181732
0.00178605
0.00178089
0.00177679
0.00176156
0.0017652
0.00173763
0.00174969
0.00172267
0.00173132
0.00169987
0.00171133
0.00167837
0.00168896
0.00165664
0.00166784
0.00163258
0.00164485
0.00160712
0.00162002
0.00158061
0.001594
0.00155325
0.00156704
0.00152517
0.00153932
0.00149641
0.00151089
0.00146702
0.00148181
0.00143701
0.0014521
0.00140643
0.0014218
0.00137529
0.00139094
0.00134364
0.00135954
0.0013115
0.00132764
0.00127892
0.00129528
0.00124594
0.00126249
0.0012126
0.00122932
0.00117896
0.00119582
0.00114506
0.00116204
0.00111096
0.00112804
0.00107673
0.00109387
0.00104246
0.00105959
0.00100773
0.00102533
0.000972673
0.000990017
0.000937164
0.000954608
0.000923336
0.000919763
0.000921441
0.000927466
0.000925368
0.000930429
0.000929128
0.000932322
0.000931493
0.000933228
0.000932903
0.000933109
0.000933297
0.00093199
0.000932668
0.000929629
0.000930998
0.00092654
0.00092812
0.000923298
0.000924932
0.000956487
0.000920989
0.000939313
0.00099249
0.000974244
0.00102734
0.00101019
0.00106166
0.00104449
0.00109599
0.00107885
0.00113019
0.00111312
0.0011642
0.00114724
0.00119796
0.00118113
0.0012314
0.00121474
0.00126447
0.001248
0.00129713
0.00128087
0.00132931
0.0013133
0.001361
0.00134524
0.00139214
0.00137666
0.00142272
0.00140753
0.0014527
0.00143781
0.00148205
0.00146748
0.00151075
0.00149651
0.00153875
0.00152487
0.00156601
0.00155251
0.00159247
0.00157937
0.00161806
0.00160541
0.0016427
0.00163054
0.0016663
0.00165467
0.00168877
0.00167772
0.00170995
0.00169956
0.00172988
0.0017201
0.00174856
0.00173942
0.0017649
0.00175722
0.00178039
0.00177273
0.00178136
0.00180785
0.00181338
0.0018148
0.00180754
0.00179528
0.00179623
0.00180203
0.00180219
0.00180431
0.000934934
0.000917896
0.000905856
0.00090357
0.00181054
0.00181072
0.00181544
0.00181808
0.00181917
0.00182066
0.00179581
0.00178739
0.00180211
0.00180486
0.0018127
0.00180786
0.00181752
0.00182325
0.00181755
0.00180937
0.00181858
0.00179629
0.00177949
0.0017674
0.0017663
0.00177396
0.00174796
0.00175686
0.00173018
0.00173955
0.00171256
0.00172175
0.00169121
0.00170214
0.00166962
0.0016804
0.00164747
0.00165878
0.0016236
0.00163575
0.00159841
0.00161117
0.00157217
0.00158542
0.00154508
0.00155874
0.00151726
0.00153128
0.00148875
0.0015031
0.00145961
0.00147427
0.00142987
0.00144483
0.00139956
0.0014148
0.00136871
0.00138422
0.00133735
0.00135311
0.00130552
0.00132151
0.00127324
0.00128945
0.00124057
0.00125697
0.00120754
0.00122411
0.0011742
0.00119091
0.0011406
0.00115744
0.0011068
0.00112373
0.00107286
0.00108985
0.00103882
0.00105585
0.00100483
0.00102184
0.00097005
0.000987305
0.000952279
0.000906123
0.000902326
0.000904468
0.00091035
0.000908346
0.00091308
0.000911839
0.000914917
0.000914116
0.000915787
0.000915474
0.00091568
0.000915856
0.000914608
0.000915261
0.000912636
0.000913731
0.000909313
0.000911107
0.00090735
0.000954284
0.000919041
0.000937317
0.000989989
0.000972032
0.00102397
0.00100699
0.00105807
0.00104103
0.00109211
0.00107511
0.00112602
0.0011091
0.00115973
0.00114291
0.00119318
0.0011765
0.00122631
0.0012098
0.00125907
0.00124275
0.00129141
0.00127531
0.00132329
0.00130743
0.00135467
0.00133906
0.00138551
0.00137018
0.0014158
0.00140075
0.0014455
0.00143075
0.00147458
0.00146014
0.00150301
0.0014889
0.00153077
0.00151701
0.00155779
0.0015444
0.00158403
0.00157104
0.00160942
0.00159687
0.00163389
0.00162181
0.00165734
0.00164578
0.00167968
0.00166869
0.00170079
0.00169043
0.00172063
0.0017109
0.00173911
0.00173008
0.00175558
0.00174769
0.0017699
0.00176323
0.00178138
0.00177525
0.00179791
0.00179109
0.00181251
0.00180502
0.00179433
0.001815
0.0018116
0.00180448
0.00180553
0.000900167
0.000901686
0.00181825
0.00181106
0.00181306
0.00181937
0.00181888
0.00182287
0.00182512
0.00182605
0.00182499
0.00180467
0.00179258
0.0017909
0.0017946
0.0017931
0.00180829
0.00180268
0.00181803
0.00181188
0.00182228
0.00181584
0.00182702
0.00182506
0.00182023
0.00181419
0.00180562
0.0017835
0.00179238
0.00176674
0.00176134
0.00175292
0.00176377
0.00173819
0.00174581
0.0017209
0.00172983
0.00170259
0.00171201
0.00168188
0.00169246
0.00166036
0.00167119
0.00163803
0.00164939
0.0016143
0.00162635
0.00158934
0.00160198
0.00156337
0.00157649
0.00153654
0.00155007
0.00150897
0.00152286
0.00148072
0.00149495
0.00145185
0.00146638
0.00142238
0.0014372
0.00139235
0.00140745
0.0013618
0.00137715
0.00133074
0.00134634
0.00129922
0.00131505
0.00126726
0.0012833
0.0012349
0.00125114
0.00120218
0.00121859
0.00116916
0.00118572
0.00113587
0.00115256
0.00110238
0.00111916
0.00106874
0.00108559
0.001035
0.00105189
0.00100124
0.00101812
0.000967568
0.000984369
0.000932322
0.000949801
0.000897933
0.000915288
0.000885101
0.000880113
0.000882918
0.000889502
0.000887154
0.000893207
0.000891601
0.000895817
0.000894605
0.000897579
0.000896813
0.000898414
0.000898113
0.000898319
0.000898483
0.000897301
0.000897924
0.000895426
0.000896463
0.000892685
0.000894161
0.000888545
0.000890634
0.000884515
0.000886499
0.000917005
0.000882703
0.00090007
0.000951741
0.000934683
0.000986708
0.0009694
0.00102042
0.00100354
0.00105424
0.00103734
0.00108798
0.00107113
0.00112158
0.00110481
0.00115498
0.00113832
0.00118811
0.00117159
0.00122092
0.00120458
0.00125336
0.00123721
0.00128539
0.00126945
0.00131695
0.00130125
0.00134802
0.00133257
0.00137856
0.00136338
0.00140855
0.00139365
0.00143796
0.00142335
0.00146677
0.00145247
0.00149494
0.00148096
0.00152245
0.00150881
0.00154924
0.00153596
0.00157526
0.00156238
0.00160045
0.00158799
0.00162474
0.00161274
0.00164803
0.00163655
0.00167025
0.00165932
0.00169126
0.00168094
0.001711
0.00170133
0.00172932
0.00172039
0.00174582
0.00173786
0.00176026
0.0017534
0.00177279
0.00176653
0.00178421
0.0017797
0.00178335
0.00182367
0.00182401
0.00181128
0.00180468
0.00181329
0.00181433
0.00182341
0.00181949
0.00182128
0.000895509
0.000878186
0.000867534
0.000865802
0.00182767
0.00182643
0.00182982
0.0018316
0.00183174
0.00183025
0.00178929
0.00178076
0.00177951
0.00179091
0.00180286
0.00181536
0.00182545
0.00181956
0.00182693
0.00183163
0.00182749
0.00181991
0.00181552
0.0017949
0.00180098
0.00181447
0.00178363
0.00177683
0.00176871
0.00178128
0.0017543
0.00175936
0.00174302
0.0017501
0.00172811
0.00173579
0.00171093
0.00171977
0.00169244
0.00170192
0.00167211
0.00168248
0.0016507
0.00166153
0.00162833
0.00163969
0.00160472
0.0016167
0.00157998
0.0015925
0.00155425
0.00156725
0.00152768
0.00154108
0.00150037
0.00151413
0.00147238
0.00148647
0.00144378
0.00145817
0.00141459
0.00142927
0.00138485
0.0013998
0.00135459
0.0013698
0.00132384
0.00133929
0.00129263
0.00130831
0.00126099
0.00127688
0.00122896
0.00124503
0.00119657
0.00121282
0.00116387
0.00118027
0.0011309
0.00114743
0.00109773
0.00111435
0.0010644
0.00108109
0.00103096
0.0010477
0.000997485
0.00101423
0.000964158
0.000980797
0.000929632
0.000947031
0.000912234
0.000868404
0.000863212
0.000866274
0.000872888
0.000870641
0.00087611
0.000874599
0.000878631
0.000877468
0.000880312
0.000879581
0.000881114
0.000880824
0.000881028
0.000881182
0.000880058
0.000880653
0.000878228
0.000879247
0.000875615
0.000877017
0.000871725
0.000873821
0.000869503
0.000914936
0.000880458
0.000898206
0.00094922
0.000931968
0.000983142
0.000966415
0.00101665
0.000999892
0.00105017
0.00103343
0.00108361
0.00106692
0.0011169
0.00110029
0.00114997
0.00113348
0.00118279
0.00116643
0.00121527
0.00119909
0.00124739
0.0012314
0.00127909
0.00126331
0.00131033
0.00129479
0.00134109
0.00132579
0.00137133
0.0013563
0.00140102
0.00138627
0.00143015
0.00141568
0.00145868
0.00144451
0.00148659
0.00147274
0.00151385
0.00150033
0.0015404
0.00152724
0.00156621
0.00155343
0.0015912
0.00157884
0.00161531
0.0016034
0.00163845
0.00162704
0.00166054
0.00164967
0.00168145
0.00167118
0.00170109
0.00169147
0.0017193
0.00171042
0.00173578
0.00172781
0.00175032
0.00174335
0.00176308
0.00175683
0.00177332
0.00176893
0.0017808
0.0017768
0.00179206
0.001782
0.0017976
0.00178887
0.0017839
0.00183073
0.00183064
0.00182162
0.00182261
0.000861257
0.000863383
0.00182642
0.00182748
0.00182892
0.00183495
0.00183345
0.00183627
0.00183735
0.00183684
0.00183476
0.00178191
0.00177162
0.00176529
0.00178009
0.00177352
0.00178477
0.00177954
0.0017944
0.00180143
0.0018161
0.00182297
0.00183147
0.00183062
0.00183456
0.00182857
0.00182021
0.00181232
0.00180167
0.00179353
0.0018228
0.00177974
0.00177905
0.00177106
0.00175953
0.00175535
0.00176938
0.00174475
0.00174952
0.00173271
0.00173935
0.00171764
0.00172543
0.00170063
0.00170938
0.00168212
0.00169159
0.00166201
0.00167227
0.00164073
0.00165152
0.00161839
0.00162972
0.00159492
0.00160682
0.00157037
0.00158279
0.00154488
0.00155776
0.00151856
0.00153183
0.0014915
0.00150513
0.00146378
0.00147774
0.00143544
0.0014497
0.00140654
0.00142108
0.00137709
0.00139189
0.00134713
0.00136219
0.00131669
0.00133199
0.0012858
0.00130132
0.00125448
0.00127021
0.00122278
0.00123869
0.00119072
0.0012068
0.00115835
0.00117458
0.00112571
0.00114207
0.00109286
0.00110932
0.00105984
0.00107638
0.00102672
0.0010433
0.00099355
0.00101015
0.00096042
0.000976972
0.000926988
0.000943902
0.000893172
0.000909711
0.000859048
0.000876134
0.000846899
0.000841966
0.000844811
0.0008519
0.000849256
0.000855975
0.000854134
0.000859096
0.000857608
0.000861515
0.000860405
0.000863121
0.000862421
0.00086389
0.000863611
0.000863812
0.000863957
0.000862889
0.000863455
0.000861135
0.000862115
0.000858593
0.000859956
0.00085537
0.000857075
0.000850949
0.000853156
0.000846743
0.000848801
0.000878245
0.000844688
0.000861411
0.000912346
0.000895147
0.000946254
0.000929208
0.000979438
0.000962861
0.00101269
0.00099607
0.0010459
0.00102931
0.00107902
0.00106249
0.00111199
0.00109554
0.00114475
0.00112841
0.00117723
0.00116104
0.00120939
0.00119337
0.00124118
0.00122535
0.00127255
0.00125694
0.00130347
0.00128809
0.00133392
0.00131878
0.00136385
0.00134897
0.00139325
0.00137864
0.00142209
0.00140776
0.00145035
0.00143632
0.001478
0.00146428
0.00150501
0.00149162
0.00153134
0.00151829
0.00155693
0.00154426
0.00158173
0.00156946
0.00160566
0.00159384
0.00162866
0.00161732
0.00165061
0.0016398
0.00167142
0.0016612
0.00169097
0.00168139
0.00170909
0.00170025
0.00172555
0.00171758
0.00174015
0.00173314
0.00175289
0.00174674
0.00176321
0.00175853
0.00177058
0.00176728
0.00177618
0.00177361
0.00177339
0.00183685
0.00183638
0.00178757
0.00178102
0.00182945
0.00183031
0.00183265
0.00183472
0.00183598
0.000856734
0.000839788
0.00083007
0.000827848
0.00184137
0.00183989
0.00184202
0.00184246
0.00184126
0.00183862
0.00176934
0.00176275
0.00175006
0.00175651
0.00178503
0.00179034
0.0018067
0.00180728
0.00182345
0.00183051
0.00183563
0.00183626
0.00182901
0.00182063
0.00180776
0.00180161
0.00179084
0.00177224
0.001779
0.00183056
0.00176548
0.00174829
0.00176808
0.0017722
0.00175661
0.00175271
0.00174538
0.00175482
0.00173469
0.00173978
0.00172209
0.00172883
0.00170702
0.00171481
0.00169011
0.0016988
0.00167164
0.00168109
0.00165168
0.00166185
0.00163051
0.00164125
0.00160825
0.00161954
0.00158492
0.00159674
0.00156056
0.00157288
0.00153529
0.00154805
0.00150921
0.00152236
0.00148241
0.00149591
0.00145495
0.00146877
0.00142688
0.001441
0.00139826
0.00141266
0.00136911
0.00138376
0.00133945
0.00135435
0.00130932
0.00132446
0.00127875
0.0012941
0.00124776
0.00126332
0.00121638
0.00123213
0.00118466
0.00120057
0.00115262
0.00116868
0.00112031
0.00113651
0.00108779
0.00110408
0.0010551
0.00107147
0.00102229
0.00103872
0.000989434
0.00100588
0.000956575
0.000973004
0.000923829
0.000940207
0.00089031
0.000906928
0.000873557
0.000830703
0.000825366
0.000828477
0.000835395
0.000832998
0.000839117
0.000837363
0.000842162
0.000840724
0.000844473
0.000843413
0.000846008
0.000845339
0.000846746
0.000846478
0.000846675
0.000846812
0.000845799
0.000846337
0.000844132
0.000845063
0.000841697
0.000843007
0.000838599
0.00084023
0.000834374
0.00083662
0.000832098
0.000876043
0.000842904
0.000859358
0.000909795
0.000892759
0.000942649
0.000926203
0.000975578
0.000959112
0.00100853
0.000992066
0.00104143
0.001025
0.00107424
0.00105786
0.00110688
0.0010906
0.00113931
0.00112314
0.00117146
0.00115544
0.00120329
0.00118743
0.00123475
0.00121908
0.0012658
0.00125034
0.0012964
0.00128118
0.00132653
0.00131155
0.00135616
0.00134143
0.00138527
0.0013708
0.00141383
0.00139964
0.00144182
0.00142792
0.00146922
0.00145562
0.00149599
0.00148271
0.00152209
0.00150915
0.00154747
0.0015349
0.00157208
0.0015599
0.00159585
0.0015841
0.00161869
0.00160742
0.00164052
0.00162977
0.00166123
0.00165105
0.0016807
0.00167116
0.00169876
0.00168995
0.00171521
0.00170723
0.00172986
0.00172281
0.0017426
0.0017365
0.00175301
0.0017482
0.00176075
0.00175721
0.00176551
0.00176373
0.00176668
0.00176615
0.00177098
0.00176326
0.00176352
0.00175814
0.00176368
0.00184216
0.00184064
0.00183663
0.00183741
0.000823337
0.000825835
0.00183813
0.00184121
0.00184243
0.00184711
0.00184565
0.0018471
0.00184682
0.00184494
0.00184143
0.00173997
0.00174299
0.0017408
0.00175683
0.00176343
0.00177346
0.00179552
0.00179887
0.00181399
0.00181896
0.00182905
0.00183587
0.00183693
0.00182879
0.00181886
0.00180934
0.0017974
0.00178364
0.0017698
0.00175098
0.0017615
0.00175038
0.00183769
0.00175987
0.00173517
0.0017523
0.0017476
0.00175406
0.00175626
0.00174387
0.00174781
0.0017357
0.00174117
0.00172437
0.00173006
0.0017114
0.00171821
0.00169632
0.00170411
0.00167945
0.00168811
0.00166102
0.00167044
0.00164117
0.00165128
0.0016201
0.0016308
0.00159795
0.00160918
0.00157475
0.00158649
0.00155058
0.0015628
0.00152552
0.00153817
0.00149967
0.00151271
0.00147312
0.0014865
0.00144592
0.00145961
0.00141813
0.00143211
0.00138979
0.00140404
0.00136093
0.00137544
0.00133157
0.00134633
0.00130176
0.00131674
0.0012715
0.0012867
0.00124084
0.00125623
0.00120979
0.00122537
0.0011784
0.00119415
0.0011467
0.0011626
0.00111473
0.00113075
0.00108254
0.00109867
0.00105017
0.00106638
0.00101769
0.00103395
0.000985147
0.00100143
0.000952591
0.000968874
0.000920124
0.000936345
0.000887171
0.000903597
0.000854388
0.00087085
0.000821166
0.000837675
0.000809343
0.000804333
0.000807237
0.000814512
0.000811798
0.000818814
0.000816815
0.00082238
0.000820669
0.000825302
0.000823928