/*--------------------------------*- C++ -*----------------------------------*\
  =========                 |
  \\      /  F ield         | OpenFOAM: The Open Source CFD Toolbox
   \\    /   O peration     | Website:  https://openfoam.org
    \\  /    A nd           | Version:  10
     \\/     M anipulation  |
\*---------------------------------------------------------------------------*/
FoamFile
{
    format      ascii;
    class       volVectorField;
    location    "68";
    object      U;
}
// * * * * * * * * * * * * * * * * * * * * * * * * * * * * * * * * * * * * * //

dimensions      [0 1 -1 0 0 0 0];

internalField   nonuniform List<vector> 
28942
(
(0.00443574 -0.00226045 -3.43769e-22)
(0.00600346 -0.00234478 -6.39221e-23)
(0.0179402 -0.0123891 -8.2038e-22)
(0.103306 0.0182362 -5.24709e-21)
(0.102343 0.0222786 1.71809e-21)
(0.014805 0.000461682 0)
(0.0175995 3.90808e-05 1.14403e-23)
(0.0203994 0.00059631 -1.01404e-23)
(0.135246 -0.0183956 -2.53284e-22)
(0.133901 -0.0167606 7.21096e-22)
(0.00980497 0.00401582 -6.77757e-22)
(0.0160841 0.00563281 2.57292e-22)
(0.0071442 0.00315462 0)
(0.00471177 0.00207003 0)
(0.0460911 0.00203356 -1.57045e-23)
(0.0442447 0.00262506 -6.18655e-24)
(0.0893166 0.0158817 6.66234e-22)
(0.0870046 0.0138502 1.07229e-21)
(0.0121663 -0.0151147 2.90488e-21)
(0.0293349 -0.0304719 -7.64473e-22)
(0.0981203 0.0373876 9.49642e-22)
(0.0972985 0.034424 0)
(0.0187518 0.00463164 1.16966e-21)
(0.00786926 0.00236569 5.51867e-22)
(0.0378167 0.00721799 9.47058e-22)
(0.057556 0.00291853 -8.63372e-22)
(0.00764819 -0.0184954 8.49259e-21)
(0.00669389 -0.0165595 -3.12827e-21)
(0.0355155 -0.0253262 5.6864e-22)
(0.0193034 -0.0136839 1.96216e-22)
(0.0151888 -0.00139868 0)
(0.0189901 -0.00121999 -1.42192e-23)
(0.02411 0.00434033 2.93349e-22)
(0.0347003 0.00192763 -4.65169e-23)
(0.0188259 0.0180093 1.30996e-21)
(0.0157201 0.0191188 -1.29934e-21)
(0.0321701 0.0376149 -3.04566e-21)
(0.0186695 0.0305329 -1.06677e-21)
(0.00812719 2.14808e-06 -9.58361e-24)
(0.0086489 0.0161961 -2.60948e-21)
(0.030649 -0.00620321 0)
(0.0513422 -0.0109695 0)
(0.112058 -0.0120324 -2.68716e-23)
(0.111567 -0.0120449 7.92996e-23)
(0.116064 -0.0119375 6.90474e-23)
(0.0287461 0.000206768 1.20299e-23)
(0.0267682 -0.000595774 -1.9389e-23)
(0.0382072 -0.000495304 -8.79496e-23)
(0.0366167 -0.000564501 2.50402e-23)
(0.0297788 -0.00275053 -2.16088e-22)
(0.0221777 -0.0033104 1.40159e-22)
(0.128634 0.00137045 -3.9754e-22)
(0.127951 0.000895305 -3.71464e-22)
(0.134566 -0.0211668 -3.77505e-24)
(0.133016 -0.0194399 1.37735e-22)
(0.0825396 0.00637261 7.19254e-22)
(0.101796 -0.000744446 2.51769e-22)
(0.00306119 0.00162173 -5.67591e-22)
(0.00895053 0.00368189 0)
(0.00826402 0.00329136 2.38118e-22)
(0.00288515 0.00148912 4.89829e-22)
(0.000362566 0.000226407 -4.07164e-22)
(0.000192998 0.000122678 -3.9143e-22)
(0.109798 -0.0426096 0)
(0.104934 -0.0256103 1.27933e-22)
(0.121806 -0.0331095 -4.42254e-23)
(0.123447 -0.0437659 0)
(0.0901122 -0.0328062 -6.37008e-22)
(0.0936167 -0.0352723 -4.18608e-22)
(0.00188832 -0.00113153 1.13665e-21)
(0.00249296 -0.00202025 -3.58146e-22)
(0.00487974 -0.00316045 8.88612e-22)
(0.0848849 -0.0457654 0)
(0.0912099 -0.0396271 2.16189e-21)
(0.080555 -0.0530325 5.83976e-22)
(0.114172 0.0123829 2.4091e-22)
(0.112775 0.00687566 -2.67082e-22)
(0.12514 0.0109749 -1.15764e-22)
(0.00468484 -0.00286272 -5.31938e-23)
(0.00634049 -0.0044272 4.43407e-22)
(0.0510234 -0.031154 1.24349e-22)
(0.033165 -0.0205426 -2.56504e-22)
(0.00211363 -0.000597624 3.2137e-21)
(0.00516169 -0.00207531 -1.25219e-21)
(0.101002 0.0482462 1.23262e-23)
(0.0970452 0.0552133 -7.60766e-22)
(0.0807324 0.054012 6.93831e-22)
(0.0472112 0.0345126 -2.66859e-21)
(0.0444399 0.0316093 1.88982e-21)
(0.029496 0.0205976 -1.12824e-22)
(0.0327166 0.0232503 -6.38766e-22)
(0.037958 0.0283598 8.65739e-22)
(0.00441251 0.00271809 -5.96799e-23)
(0.00777047 0.00397238 -1.71904e-23)
(0.00319059 0.00201804 3.44476e-23)
(0.00192269 0.00163975 -4.60837e-22)
(0.00144886 0.00156148 5.65323e-22)
(0.015744 0.0115446 -3.24092e-21)
(0.0174967 0.0136363 7.42065e-22)
(0.00881085 -0.0038505 0)
(0.101389 0.00515957 0)
(0.0984003 0.0156835 -3.95097e-21)
(0.0604406 0.0104756 1.93509e-21)
(0.0886802 0.0178814 0)
(0.13549 -0.00117256 0)
(0.134929 -0.00188946 0)
(0.133244 -0.00238107 -2.43287e-22)
(0.114975 0.0265916 -2.1109e-22)
(0.114067 0.0279953 2.08737e-21)
(0.113269 0.0254557 1.12013e-21)
(0.0022959 0.00129983 1.05897e-21)
(0.0015124 0.000777127 -1.18859e-21)
(0.0190674 -0.00554485 -5.53325e-22)
(0.0201514 -0.00507613 4.72903e-22)
(0.00911228 -0.00293504 9.34725e-22)
(0.00647662 0.0111455 1.47627e-21)
(0.0189682 0.0181545 3.4505e-21)
(0.0134653 0.0227959 2.72184e-22)
(0.00492085 0.0143034 -8.60691e-21)
(0.117008 0.0477434 5.50187e-23)
(0.107875 0.0582327 1.06218e-21)
(0.118337 0.0548678 -1.83181e-21)
(0.0390948 -0.0294202 7.2779e-22)
(0.0240115 -0.0172664 -4.6461e-22)
(0.0053216 -0.000745631 -4.09547e-21)
(0.00453861 -0.00359564 0)
(0.0124966 -0.00167752 1.99875e-21)
(0.0219661 -0.0161317 7.75184e-22)
(0.0342581 -0.0277866 -1.94614e-21)
(0.0361426 -1.92349e-05 6.1147e-23)
(0.0384203 0.0001423 -4.4363e-23)
(0.0339469 0.00016574 -1.89039e-24)
(0.0280573 -0.0419529 0)
(0.0296065 -0.0428449 0)
(0.0896221 -0.0186534 -4.61366e-22)
(0.0995899 -0.0220912 3.13542e-21)
(0.0870341 -0.0252787 0)
(0.0471212 -0.0401914 0)
(0.0581824 -0.0513884 -7.79533e-22)
(0.0413131 0.0393362 2.07982e-21)
(-3.41162e-06 0.000213034 5.18055e-22)
(-0.000195342 0.000130125 -3.41804e-22)
(0.0223285 -0.0192422 -7.87742e-22)
(0.120417 -0.0118037 3.89289e-22)
(0.119795 -0.0117612 -7.53398e-23)
(0.115491 -0.0056951 -6.76507e-23)
(0.108424 0.00100877 9.01542e-23)
(0.117689 -0.000283634 1.86311e-22)
(8.15889e-05 0.000258776 1.99766e-22)
(0.0437476 0.0344193 3.19249e-21)
(0.0618791 0.046308 -7.84965e-22)
(0.0593159 0.0393667 -2.99948e-24)
(0.0236255 -0.000867936 5.90718e-24)
(0.0232792 -0.000856467 3.11231e-23)
(0.025255 -0.000640253 1.28107e-24)
(0.0281917 -0.000633341 -1.53081e-23)
(0.0454213 0.0380892 1.33785e-22)
(0.0189623 0.016059 0)
(0.000141902 -3.43199e-05 3.72646e-22)
(0.000425582 -0.000260421 -4.13423e-22)
(0.00186584 -0.00102001 2.88762e-22)
(0.0365727 -0.00772978 -1.85034e-21)
(0.0648917 -0.00211165 -7.55557e-22)
(0.0327611 -0.000236952 -2.2384e-24)
(0.0745012 -0.00764162 2.72207e-22)
(0.0707093 -0.0157293 6.53046e-23)
(0.094307 0.0399104 2.13709e-21)
(0.0914082 0.045446 9.92828e-23)
(0.0887502 0.0290794 1.2124e-21)
(0.0914756 0.0307959 -8.78609e-22)
(0.0986994 0.0410707 0)
(0.126098 -0.000374619 1.48219e-22)
(0.126867 -0.000810403 2.79841e-22)
(0.128094 -0.0123034 -2.92921e-22)
(0.129558 -0.012106 5.01272e-22)
(0.117055 0.0241331 2.58749e-22)
(0.119113 0.0250323 -7.32655e-22)
(0.117102 0.026146 0)
(0.115136 0.0248849 1.526e-22)
(0.116674 0.028069 0)
(0.117177 0.0360908 -5.48769e-22)
(0.115715 0.0381434 -2.99704e-22)
(0.111342 0.0419579 -5.38512e-22)
(0.113736 0.0400893 0)
(0.116426 0.0430639 1.78043e-21)
(0.113703 0.0449876 4.73884e-23)
(0.108336 0.0441696 -3.02618e-22)
(0.0996339 0.0502743 -1.28261e-21)
(0.0984232 0.0454862 -2.26009e-22)
(0.024993 -0.00851026 6.15295e-23)
(0.0328584 -0.00937039 -2.45496e-23)
(0.00629418 -0.002495 -6.98347e-22)
(0.0321447 -7.99654e-05 -3.92247e-23)
(0.0411418 -0.000280268 0)
(-2.17128e-06 -4.11109e-05 4.37929e-22)
(1.38488e-05 -4.78769e-05 2.22978e-22)
(0.0372415 -0.00186946 1.82954e-23)
(0.0439703 -0.00181711 7.44416e-24)
(0.0435026 -0.00124573 0)
(0.0360258 -0.000849854 8.06319e-24)
(0.0876234 0.00379002 -1.11382e-22)
(0.0868945 0.00342422 5.26458e-22)
(0.0877909 0.00353642 2.43462e-22)
(0.000670542 0.000271179 3.96145e-22)
(-0.000159778 -0.000129553 -5.73398e-22)
(-0.000201493 -0.000169283 4.89249e-22)
(0.00150153 0.000617992 0)
(8.01176e-05 8.79309e-05 1.14461e-21)
(0.000172187 -3.89426e-05 -8.26157e-22)
(0.0074527 0.00367566 -9.9636e-22)
(0.00145288 0.000781969 -1.18845e-21)
(0.00172181 0.00086126 0)
(0.00157198 0.00754189 0)
(0.00057695 0.00328039 0)
(0.000313297 0.00197627 0)
(0.136657 -0.0011891 5.48083e-23)
(0.137663 -0.00102711 0)
(0.136032 -0.00197658 -6.39525e-23)
(0.0881132 -0.0148566 4.41472e-21)
(0.0901198 -0.0152653 -1.60252e-21)
(0.089035 -0.0128811 0)
(0.101159 0.0002194 -6.66222e-24)
(0.101851 0.000212426 1.33337e-23)
(0.100462 0.000227353 -4.50378e-24)
(0.102535 0.00020871 0)
(0.103213 0.000214266 -8.50662e-24)
(0.10388 0.000213978 0)
(0.103878 -0.00049362 0)
(0.104535 0.000200987 3.15833e-23)
(0.104523 -0.000506924 0)
(0.103219 -0.000493172 -8.56771e-24)
(0.102541 -0.000497903 0)
(0.101857 -0.000501385 4.45755e-24)
(0.101161 -0.000508152 -6.65853e-24)
(0.100468 -0.000512114 4.49815e-24)
(0.105171 0.000186155 -3.02226e-23)
(0.10516 -0.000512149 -1.05685e-24)
(0.0997532 0.000241165 1.44203e-28)
(0.0997537 -0.000508138 -6.86952e-24)
(0.0990303 0.000253886 3.65151e-23)
(0.105793 0.000179547 2.82341e-26)
(0.105799 -0.000506645 -1.05716e-24)
(0.0990355 -0.00051202 1.35316e-23)
(0.106411 0.000172366 2.84236e-23)
(0.107019 0.000168253 -2.84002e-23)
(0.106421 -0.00050117 2.12926e-24)
(0.10703 -0.000492979 4.20536e-24)
(0.0983265 0.000280255 -3.55273e-23)
(0.0983241 -0.000513623 -8.90492e-24)
(0.107616 0.000162631 0)
(0.107628 -0.000485285 -4.14789e-24)
(0.0975971 0.000295307 4.38962e-27)
(0.0975968 -0.000507504 -4.40063e-27)
(0.108202 0.000159544 0)
(0.108213 -0.000475269 0)
(0.0968606 0.000306721 0)
(0.0968606 -0.000504445 0)
(0.108775 0.000154616 0)
(0.108786 -0.000466004 1.98905e-24)
(0.0961178 0.000318786 -1.83758e-23)
(0.0961175 -0.000499132 -4.48626e-27)
(0.109336 0.000151999 1.04227e-25)
(0.109347 -0.00045452 -2.12426e-24)
(0.0953687 0.000329213 1.84636e-23)
(0.0953683 -0.000494786 0)
(0.109883 0.000147397 0)
(0.109895 -0.000443711 0)
(0.0946143 0.000340831 -1.16645e-24)
(0.0946137 -0.000487023 2.00078e-23)
(0.110418 0.00014495 1.28589e-23)
(0.110429 -0.000430433 0)
(0.0938561 0.00035062 -9.38047e-26)
(0.0938539 -0.000478659 -1.89363e-23)
(0.11094 0.0001406 -1.92278e-23)
(0.110951 -0.000417827 -5.57744e-24)
(0.0930775 0.000353114 1.92903e-23)
(0.0930786 -0.000469611 0)
(0.111448 0.000139169 6.32921e-24)
(0.111461 -0.000399743 3.71914e-24)
(0.0922975 0.000363796 -9.74739e-24)
(0.0922987 -0.000463205 1.97619e-23)
(0.11194 0.000139901 -2.5238e-23)
(0.111963 -0.000374501 2.84455e-23)
(0.091485 0.000358012 1.00379e-23)
(0.0914958 -0.000461967 3.17445e-25)
(0.112426 0.000142751 0)
(0.112447 -0.0003506 1.35411e-23)
(0.090666 0.000353497 -2.01664e-23)
(0.090684 -0.000468201 4.03349e-23)
(0.112915 0.000137497 0)
(0.112921 -0.000332994 0)
(0.0917362 0.00117243 -9.93244e-24)
(0.0909137 0.00117368 -4.01388e-23)
(0.0898232 0.000342514 0)
(0.089859 -0.00048666 -2.05223e-23)
(0.093331 0.00116047 -6.2494e-24)
(0.0925362 0.00116753 1.22689e-24)
(0.0948589 0.00113062 0)
(0.0940922 0.00114532 -2.02085e-23)
(0.0963533 0.00109608 -3.91287e-26)
(0.0956096 0.00111382 0)
(0.0978198 0.00105835 0)
(0.0970899 0.00107757 0)
(0.0992613 0.00101198 0)
(0.0985431 0.00103737 0)
(0.100647 0.00096583 8.8944e-24)
(0.0999518 0.000987586 2.24081e-24)
(0.102021 0.000932788 -8.58128e-24)
(0.101343 0.000948727 -8.87867e-24)
(0.103358 0.00090561 1.5246e-23)
(0.102688 0.000912418 1.94735e-23)
(0.104676 0.000882517 0)
(0.10402 0.00089773 0)
(0.105937 0.000854285 -6.6957e-26)
(0.105314 0.00086839 0)
(0.107153 0.000822284 0)
(0.106551 0.000838544 0)
(0.108324 0.000788517 0)
(0.107744 0.000805457 0)
(0.109447 0.000753792 0)
(0.108891 0.000771187 0)
(0.110519 0.000718075 0)
(0.109989 0.000735996 0)
(0.111538 0.000680816 0)
(0.111035 0.0006996 0)
(0.112511 0.000627031 -1.02971e-23)
(0.112027 0.000660692 0)
(0.112984 0.000599364 -3.32038e-24)
(0.113383 0.000128106 3.24042e-24)
(0.113388 -0.0003195 -3.21346e-24)
(0.112044 -0.000859206 0)
(0.112994 -0.000794604 -1.31936e-23)
(0.112525 -0.000825609 -6.80938e-24)
(0.111041 -0.000925526 1.86982e-24)
(0.111548 -0.000894001 -7.30944e-24)
(0.109994 -0.000981054 6.06664e-26)
(0.110523 -0.000955077 0)
(0.108895 -0.00102885 0)
(0.109451 -0.0010054 0)
(0.107747 -0.00107284 0)
(0.108327 -0.00105123 0)
(0.10655 -0.00111331 0)
(0.107155 -0.00109341 8.0106e-30)
(0.105308 -0.00115131 6.76422e-26)
(0.105935 -0.00113239 0)
(0.104031 -0.00117778 0)
(0.104671 -0.00116694 0)
(0.102709 -0.00119762 0)
(0.103372 -0.00118775 0)
(0.101348 -0.00121943 0)
(0.102032 -0.00120604 -4.50623e-24)
(0.0999544 -0.00124326 1.18329e-24)
(0.100653 -0.00123576 -5.80594e-24)
(0.0985409 -0.00126537 0)
(0.0992563 -0.00125275 -4.72107e-24)
(0.0970892 -0.00127589 0)
(0.097819 -0.00127152 0)
(0.095608 -0.0012806 0)
(0.0963522 -0.00127884 0)
(0.0940948 -0.00127868 0)
(0.0948564 -0.0012805 0)
(0.0925459 -0.00127221 -5.10902e-24)
(0.0933264 -0.00127438 0)
(0.0909661 -0.00128254 -2.06338e-23)
(0.0917606 -0.00127186 -5.12752e-24)
(0.0901533 -0.00129766 2.09801e-23)
(0.0900781 0.0011771 3.97757e-23)
(0.113448 0.000574969 6.49274e-24)
(0.113453 -0.000763765 -1.26684e-23)
(0.0890119 -0.000516446 0)
(0.0893326 -0.00132815 0)
(0.0892307 0.00118095 0)
(0.0889677 0.000323966 0)
(0.0922432 0.00196984 0)
(0.0906327 0.00200694 9.96452e-24)
(0.0914428 0.00198615 1.00759e-23)
(0.0938122 0.00193035 1.28312e-23)
(0.0930333 0.00195155 -2.56365e-24)
(0.095313 0.00188044 3.97464e-26)
(0.0945679 0.00190566 0)
(0.0967817 0.00182985 0)
(0.0960509 0.00185529 0)
(0.0982219 0.00177822 0)
(0.0975053 0.00180417 0)
(0.0996357 0.00172762 0)
(0.0989317 0.00175209 0)
(0.101014 0.00167511 0)
(0.100328 0.00170246 0)
(0.102359 0.00162706 -3.59651e-26)
(0.101687 0.00165234 9.27384e-24)
(0.103664 0.00157532 -3.45144e-26)
(0.10302 0.00159973 -1.81101e-23)
(0.10495 0.0015203 0)
(0.10431 0.00154712 0)
(0.10619 0.0014677 3.34313e-26)
(0.105575 0.00149394 0)
(0.107385 0.00141324 0)
(0.106793 0.00144078 0)
(0.108536 0.00135629 0)
(0.107967 0.00138504 0)
(0.10964 0.00129708 0)
(0.109094 0.00132694 0)
(0.110694 0.00123564 0)
(0.110173 0.00126663 0)
(0.111696 0.00117071 0)
(0.111201 0.00120383 0)
(0.112652 0.00109077 7.03409e-24)
(0.112178 0.00113342 0)
(0.113838 0.000122659 0)
(0.113894 0.000551079 6.33147e-24)
(0.113568 0.00100995 0)
(0.113114 0.00105007 6.84576e-24)
(0.113128 -0.00124862 1.36312e-23)
(0.113576 -0.00120333 3.34156e-24)
(0.113898 -0.000737274 2.60698e-23)
(0.113839 -0.000304187 0)
(0.112193 -0.00134174 0)
(0.112665 -0.00129492 -2.05841e-23)
(0.11121 -0.00143166 5.88318e-26)
(0.111708 -0.00138621 7.35389e-24)
(0.11018 -0.00151116 -6.06661e-26)
(0.110701 -0.00147244 0)
(0.109101 -0.00158425 0)
(0.109647 -0.00154832 0)
(0.107973 -0.00165252 0)
(0.108543 -0.00161896 0)
(0.106798 -0.0017161 0)
(0.107391 -0.00168487 -8.01058e-30)
(0.10558 -0.00177512 -1.35187e-25)
(0.106194 -0.00174618 0)
(0.104324 -0.00182665 0)
(0.104956 -0.00180213 0)
(0.103025 -0.00187198 2.27302e-24)
(0.103679 -0.00184974 0)
(0.101694 -0.00190997 0)
(0.102363 -0.00188917 -2.26354e-24)
(0.100329 -0.00194828 4.73173e-24)
(0.101011 -0.00193046 4.70469e-24)
(0.0989314 -0.0019776 0)
(0.0996348 -0.00196383 0)
(0.0975039 -0.00200242 0)
(0.0982213 -0.00199066 0)
(0.096047 -0.00202228 0)
(0.0967791 -0.00201291 0)
(0.0945597 -0.00203819 0)
(0.0953073 -0.00203056 0)
(0.0930409 -0.00205258 8.15708e-26)
(0.0938045 -0.00204538 0)
(0.0914893 -0.00206869 -8.25214e-26)
(0.0922704 -0.00206057 0)
(0.0899047 -0.00211602 -2.15511e-23)
(0.0906998 -0.00208913 2.15412e-23)
(0.0898092 0.00202795 2.02325e-23)
(0.0885076 -0.00137016 0)
(0.0891017 -0.00215582 -4.37198e-23)
(0.088166 -0.000552789 0)
(0.114005 0.000976143 0)
(0.114014 -0.00115807 -3.23741e-24)
(0.0883781 0.00118594 5.11747e-23)
(0.0889806 0.00205022 2.04568e-23)
(0.0876679 -0.00141395 1.10594e-23)
(0.0882899 -0.00220279 5.52462e-23)
(0.0881008 0.000302008 0)
(0.113745 0.0014413 2.67217e-23)
(0.11417 0.00139035 -1.31902e-23)
(0.114326 -0.000708076 -6.40454e-24)
(0.114436 -0.0011111 3.18238e-23)
(0.0898943 0.00288395 7.18086e-23)
(0.0881319 0.00207236 -4.03123e-23)
(0.0882382 0.00294942 -1.79542e-22)
(0.0890633 0.00291169 -4.09947e-23)
(0.0914735 0.00281212 2.00376e-23)
(0.0906895 0.00284946 -6.11375e-23)
(0.093007 0.00274148 -2.05185e-23)
(0.0922466 0.00277683 -1.54475e-23)
(0.0945163 0.00267656 -5.13045e-24)
(0.0937681 0.0027104 -5.1262e-24)
(0.0959791 0.00261258 -3.97464e-26)
(0.0952541 0.00264504 0)
(0.0974078 0.00254713 0)
(0.096697 0.00257989 0)
(0.0988083 0.00248143 0)
(0.0981115 0.00251434 0)
(0.100182 0.00241583 0)
(0.0994983 0.00244848 0)
(0.101524 0.0023508 0)
(0.100857 0.00238309 0)
(0.102834 0.00228381 0)
(0.102183 0.00231756 0)
(0.10411 0.00221572 7.34304e-29)
(0.103477 0.00225059 0)
(0.105354 0.00214235 0)
(0.104736 0.00217911 0)
(0.106561 0.00206836 3.33313e-26)
(0.105962 0.00210552 0)
(0.107726 0.00199192 0)
(0.107149 0.00203054 0)
(0.108847 0.00191218 0)
(0.108292 0.00195248 0)
(0.109923 0.00182904 0)
(0.109391 0.00187104 0)
(0.11095 0.00174246 0)
(0.110443 0.00178619 0)
(0.111927 0.00165118 0)
(0.111445 0.00169765 0)
(0.112858 0.00154785 3.58087e-24)
(0.112399 0.0016009 -1.80281e-24)
(0.113307 0.00149492 -1.36401e-23)
(0.11427 0.000120883 -3.03486e-24)
(0.114428 0.0009408 1.26749e-23)
(0.114322 0.000532612 -9.71021e-24)
(0.11427 -0.000296284 0)
(0.113321 -0.00169244 -1.01313e-23)
(0.114181 -0.00156949 -2.9178e-23)
(0.113757 -0.00163167 2.35309e-23)
(0.112412 -0.00181614 0)
(0.112872 -0.00175337 0)
(0.111456 -0.00192588 -8.28e-29)
(0.11194 -0.00186996 0)
(0.110453 -0.00203014 0)
(0.11096 -0.00197897 0)
(0.109401 -0.00212778 -6.22717e-26)
(0.109933 -0.0020797 0)
(0.108302 -0.00221955 0)
(0.108857 -0.00217442 0)
(0.107158 -0.00230521 0)
(0.107735 -0.00226317 0)
(0.105973 -0.00238439 6.7554e-26)
(0.10657 -0.00234565 0)
(0.104748 -0.0024558 6.91134e-26)
(0.105365 -0.00242114 0)
(0.103486 -0.00252047 0)
(0.104122 -0.00248883 0)
(0.10219 -0.00257792 0)
(0.102842 -0.0025501 0)
(0.10086 -0.00262982 0)
(0.101528 -0.00260452 0)
(0.0994998 -0.002674 0)
(0.100184 -0.00265249 0)
(0.0981096 -0.00271346 -7.70438e-26)
(0.0988083 -0.00269437 0)
(0.0966904 -0.00274819 0)
(0.0974036 -0.00273136 0)
(0.0952416 -0.00277949 0)
(0.0959697 -0.00276415 0)
(0.0937627 -0.00280948 -1.85027e-28)
(0.0945059 -0.00279451 0)
(0.0922535 -0.0028404 2.03929e-28)
(0.0930122 -0.00282479 0)
(0.0907164 -0.00288373 8.5e-26)
(0.0914855 -0.00285766 0)
(0.0891554 -0.0029604 -4.45909e-23)
(0.0899376 -0.00291692 1.09781e-23)
(0.0874696 -0.00224886 1.12169e-23)
(0.0883785 -0.00301124 2.23042e-23)
(0.0875165 0.00118429 -2.00579e-23)
(0.0873037 -0.000592039 -2.1418e-23)
(0.114583 0.00133972 3.2224e-24)
(0.114594 -0.00151161 2.29253e-23)
(0.0872453 0.00207329 2.51037e-24)
(0.0868204 -0.00146511 0)
(0.0871663 0.00284868 2.75069e-22)
(0.0875976 -0.00306355 3.41884e-23)
(0.0866574 -0.00229926 4.56633e-23)
(0.0887008 0.00395092 -4.53005e-22)
(0.0883591 0.00410059 8.30559e-23)
(0.0872437 0.000283452 0)
(0.0896423 0.00378249 4.60193e-23)
(0.0890625 0.00389159 2.34557e-23)
(0.0910709 0.00366959 4.15925e-23)
(0.0903169 0.0037142 -6.33547e-23)
(0.092565 0.00357491 -2.07393e-23)
(0.0918276 0.00362444 -1.03324e-23)
(0.0940168 0.00348614 1.0412e-23)
(0.0932945 0.00352935 1.05293e-23)
(0.0954471 0.00340098 0)
(0.0947324 0.00344213 -1.56724e-26)
(0.0968475 0.00332058 0)
(0.0961508 0.00336078 0)
(0.0982218 0.00324096 3.8842e-26)
(0.0975379 0.00328066 0)
(0.0995702 0.00316169 0)
(0.0988993 0.00320137 0)
(0.100892 0.00308205 0)
(0.100235 0.00312192 0)
(0.102186 0.00300168 0)
(0.101543 0.003042 0)
(0.10345 0.00291909 3.57416e-26)
(0.102822 0.00296069 0)
(0.104682 0.00283367 8.23651e-29)
(0.10407 0.00287699 0)
(0.105881 0.00274367 0)
(0.105285 0.00278909 0)
(0.107045 0.00265036 -6.65891e-26)
(0.106467 0.00269746 0)
(0.108169 0.00255314 0)
(0.107612 0.00260229 0)
(0.109253 0.00245148 0)
(0.108716 0.00250289 0)
(0.110292 0.00234526 0)
(0.109778 0.00239895 0)
(0.111285 0.00223447 0)
(0.110794 0.00229045 0)
(0.11223 0.00211823 0)
(0.111763 0.00217721 0)
(0.113129 0.00199443 -1.78783e-24)
(0.112685 0.00205614 0)
(0.113982 0.00186264 0)
(0.11356 0.00192887 -3.45978e-24)
(0.114788 0.00172764 -2.64661e-27)
(0.114392 0.00179564 0)
(0.114833 0.000906283 -1.28509e-23)
(0.115176 0.00166569 7.73533e-25)
(0.114983 0.00129247 6.28133e-24)
(0.114681 0.000115515 4.62286e-24)
(0.114733 0.000512799 -3.19087e-24)
(0.114738 -0.000679411 -1.60716e-24)
(0.114683 -0.000284016 1.60359e-24)
(0.114991 -0.00145583 0)
(0.114841 -0.00107135 -1.45977e-23)
(0.114404 -0.00197576 -6.5598e-24)
(0.115185 -0.00183395 -1.25388e-23)
(0.114802 -0.00190324 2.87959e-23)
(0.113575 -0.00212541 -3.45033e-24)
(0.113996 -0.0020508 0)
(0.112699 -0.00227067 0)
(0.113142 -0.00219783 0)
(0.111776 -0.00240559 -1.04593e-28)
(0.112244 -0.00233902 0)
(0.110807 -0.00253375 0)
(0.111298 -0.00247056 0)
(0.109791 -0.00265502 6.22717e-26)
(0.110305 -0.00259524 0)
(0.10873 -0.00276934 0)
(0.109266 -0.00271309 0)
(0.107626 -0.00287622 0)
(0.108183 -0.00282376 0)
(0.106482 -0.00297513 0)
(0.107059 -0.00292672 0)
(0.105301 -0.00306549 -1.57275e-28)
(0.105896 -0.0030214 0)
(0.104083 -0.00314784 0)
(0.104696 -0.00310763 0)
(0.102833 -0.0032221 0)
(0.103462 -0.00318595 0)
(0.10155 -0.00328917 0)
(0.102195 -0.00325653 0)
(0.100238 -0.00334876 0)
(0.100898 -0.00331974 0)
(0.0988976 -0.00340269 7.70438e-26)
(0.0995715 -0.00337641 0)
(0.0975287 -0.00345184 0)
(0.0982166 -0.0034278 0)
(0.0961317 -0.00349776 0)
(0.0968337 -0.00347509 0)
(0.0947065 -0.00354264 -8.1378e-26)
(0.0954226 -0.00352019 0)
(0.0932532 -0.00358845 8.27314e-26)
(0.0939834 -0.00356537 0)
(0.0917716 -0.00363844 -8.40396e-26)
(0.0925155 -0.00361258 0)
(0.090272 -0.00370282 1.10214e-23)
(0.0910198 -0.00366586 -2.17517e-23)
(0.0887806 -0.00379904 -1.10763e-23)
(0.0895224 -0.00374591 2.2523e-23)
(0.0868065 -0.00311202 2.66925e-25)
(0.0880272 -0.00385155 2.26729e-23)
(0.0866387 0.00116316 -2.05052e-23)
(0.0864429 -0.000619184 0)
(0.0863519 0.00201993 -1.97876e-22)
(0.0859698 -0.00149749 0)
(0.115045 0.00211008 -3.21048e-24)
(0.115413 0.00202914 2.35153e-24)
(0.115372 -0.0014007 -1.22872e-23)
(0.115557 -0.00175869 -1.39101e-23)
(0.0861368 0.00277356 -1.92545e-22)
(0.0858378 -0.00234517 -4.611e-23)
(0.0874234 0.00406273 0)
(0.0900452 0.00468895 -5.24143e-23)
(0.0860174 -0.00316096 -2.26206e-23)
(0.0872668 -0.00390116 3.42434e-23)
(0.0893898 0.00467241 1.05323e-22)
(0.0863757 0.000263203 0)
(0.0911209 0.00452213 0)
(0.0905513 0.00461053 -4.6773e-23)
(0.0924645 0.00439631 0)
(0.0917733 0.00445645 0)
(0.0938569 0.00428681 0)
(0.093162 0.00433906 1.07045e-23)
(0.095221 0.0041864 0)
(0.0945406 0.00423624 0)
(0.0965713 0.00408969 0)
(0.0958979 0.00413702 0)
(0.0979018 0.00399703 0)
(0.0972393 0.00404327 0)
(0.0992103 0.00390525 -3.8842e-26)
(0.0985589 0.00395107 0)
(0.100496 0.0038135 0)
(0.0998559 0.00385946 0)
(0.101757 0.00372077 0)
(0.101129 0.00376731 0)
(0.102992 0.00362622 0)
(0.102378 0.00367379 0)
(0.104199 0.00352871 -1.02069e-28)
(0.103599 0.00357791 0)
(0.105376 0.00342734 9.72468e-29)
(0.104791 0.00347863 0)
(0.106522 0.00332083 0)
(0.105953 0.0033747 0)
(0.107634 0.00320937 8.78158e-29)
(0.107083 0.00326575 0)
(0.10871 0.00309255 0)
(0.108177 0.00315166 0)
(0.109747 0.00297007 0)
(0.109233 0.00303204 0)
(0.110742 0.00284185 0)
(0.110249 0.00290668 0)
(0.111693 0.00270802 0)
(0.111223 0.00277564 0)
(0.112598 0.00256833 0)
(0.112151 0.00263896 0)
(0.113459 0.00242248 0)
(0.113034 0.00249618 0)
(0.114274 0.00226848 3.42409e-24)
(0.113872 0.00234456 3.51232e-24)
(0.114666 0.00218843 -6.56262e-24)
(0.115221 0.000872233 -6.29441e-24)
(0.11555 0.00160509 0)
(0.115364 0.00124174 -6.35464e-24)
(0.115074 0.000111527 0)
(0.115122 0.000494906 6.42385e-24)
(0.115128 -0.000653497 9.59078e-24)
(0.115076 -0.000272558 -3.24248e-24)
(0.115228 -0.00102962 -1.88518e-23)
(0.11468 -0.00236937 3.29926e-24)
(0.115426 -0.00219202 1.22251e-23)
(0.11506 -0.00228562 0)
(0.113888 -0.00254157 -6.85413e-24)
(0.11429 -0.00245657 6.87676e-24)
(0.11305 -0.00270849 0)
(0.113474 -0.00262655 0)
(0.112167 -0.00286682 -1.2525e-28)
(0.112614 -0.00278853 0)
(0.111239 -0.00301808 0)
(0.111709 -0.00294337 0)
(0.110267 -0.00316186 0)
(0.110759 -0.00309094 0)
(0.109252 -0.00329763 0)
(0.109765 -0.0032308 0)
(0.108196 -0.00342473 0)
(0.108729 -0.00336231 0)
(0.107102 -0.00354261 6.71125e-26)
(0.107654 -0.00348486 0)
(0.105973 -0.00365098 -6.89562e-26)
(0.106542 -0.00359799 0)
(0.10481 -0.00375017 0)
(0.105395 -0.00370171 0)
(0.103615 -0.00384034 0)
(0.104216 -0.00379636 0)
(0.10239 -0.00392223 0)
(0.103006 -0.00388232 0)
(0.101137 -0.00399634 0)
(0.101767 -0.00396017 0)
(0.0998562 -0.00406415 0)
(0.1005 -0.00403097 0)
(0.0985492 -0.00412698 0)
(0.0992059 -0.00409611 0)
(0.097216 -0.00418656 -7.95021e-26)
(0.0978859 -0.00415707 0)
(0.095857 -0.00424501 8.08879e-26)
(0.0965397 -0.0042158 0)
(0.0944727 -0.00430437 -8.22251e-26)
(0.095168 -0.0042745 0)
(0.093064 -0.00436661 0)
(0.0937712 -0.004335 0)
(0.0916325 -0.0044334 0)
(0.0923505 -0.00439917 0)
(0.0901948 -0.00451076 8.69974e-26)
(0.0909158 -0.0044701 1.10665e-23)
(0.0887526 -0.00461026 -5.73994e-23)
(0.0894686 -0.00455705 0)
(0.0865213 -0.00395988 -3.40408e-23)
(0.0880379 -0.0046672 -2.62647e-25)
(0.085763 0.00113929 6.40346e-23)
(0.0855759 -0.000640568 0)
(0.115774 0.00195162 -1.22034e-23)
(0.115783 -0.00210914 -2.358e-23)
(0.0853738 0.00195278 -3.37672e-23)
(0.0862975 0.00356389 9.60337e-25)
(0.0852429 0.0027076 9.60334e-23)
(0.085123 -0.00151914 0)
(0.0850057 -0.00237148 1.15096e-23)
(0.0882979 0.00463225 -9.83907e-23)
(0.0873033 0.00452377 8.40405e-23)
(0.0858019 0.00367189 -8.28085e-23)
(0.0852182 -0.00319914 -3.45298e-23)
(0.0857578 -0.00401181 2.29912e-23)
(0.0873352 -0.00473748 2.25806e-23)
(0.0855011 0.000243125 0)
(0.0915571 0.00534057 2.93502e-24)
(0.0899515 0.00534661 4.84003e-25)
(0.0908152 0.00533134 2.2898e-23)
(0.0927365 0.00520684 2.26955e-23)
(0.0921502 0.00528102 -2.28133e-23)
(0.094014 0.00506773 4.20971e-26)
(0.0933571 0.00513414 0)
(0.0953145 0.00495244 0)
(0.0946667 0.00500781 0)
(0.096599 0.00484461 0)
(0.0959584 0.00489823 0)
(0.0978697 0.0047398 0)
(0.0972363 0.00479165 0)
(0.099123 0.00463731 3.93161e-26)
(0.0984987 0.0046885 0)
(0.100357 0.00453499 0)
(0.0997425 0.00458619 0)
(0.10157 0.00443196 0)
(0.100966 0.00448365 0)
(0.102761 0.00432718 0)
(0.102169 0.00437986 0)
(0.103929 0.00421964 0)
(0.103348 0.00427383 0)
(0.10507 0.00410823 -3.56395e-26)
(0.104503 0.0041645 0)
(0.106184 0.00399196 1.12132e-28)
(0.105631 0.00405079 0)
(0.107269 0.00386977 0)
(0.10673 0.00393163 0)
(0.108322 0.00374129 6.6239e-26)
(0.107799 0.00380635 0)
(0.109341 0.00360615 0)
(0.108836 0.00367458 0)
(0.110323 0.00346411 0)
(0.109837 0.003536 0)
(0.111267 0.00331519 0)
(0.1108 0.00339051 0)
(0.112169 0.00315964 0)
(0.111723 0.00323824 0)
(0.113029 0.00299765 0)
(0.112605 0.00307945 0)
(0.113845 0.00282937 5.57999e-26)
(0.113443 0.00291428 0)
(0.114618 0.00265406 -3.43904e-24)
(0.114238 0.00274299 0)
(0.115348 0.00247012 3.26797e-24)
(0.114989 0.00256255 0)
(0.116037 0.00228335 3.09995e-24)
(0.115696 0.00237739 -3.17961e-24)
(0.115903 0.00154121 6.13882e-24)
(0.116366 0.00219181 0)
(0.11612 0.00187543 9.13261e-24)
(0.115588 0.000839037 0)
(0.115725 0.00119414 0)
(0.115449 0.00010783 0)
(0.115495 0.000475366 0)
(0.115501 -0.000627144 0)
(0.115451 -0.000260994 0)
(0.115734 -0.00134606 1.25227e-23)
(0.115596 -0.000990698 3.11111e-24)
(0.116123 -0.00202655 3.0676e-24)
(0.115911 -0.00169096 2.45023e-23)
(0.115713 -0.0025445 1.59687e-23)
(0.116374 -0.00235016 3.04401e-24)
(0.116049 -0.00244577 -6.20218e-24)
(0.115005 -0.0027442 3.2835e-24)
(0.115363 -0.00264416 -1.96922e-23)
(0.114255 -0.00293877 -1.14435e-28)
(0.114635 -0.00284166 0)
(0.11346 -0.00312575 0)
(0.113863 -0.00303287 0)
(0.112623 -0.00330635 -1.45499e-28)
(0.113047 -0.00321694 0)
(0.111743 -0.00347955 0)
(0.112189 -0.00339394 0)
(0.110822 -0.00364455 0)
(0.111288 -0.00356314 0)
(0.10986 -0.00380051 0)
(0.110345 -0.00372372 0)
(0.10886 -0.00394666 0)
(0.109364 -0.00387486 0)
(0.107824 -0.00408249 -1.34021e-25)
(0.108346 -0.0040159 0)
(0.106755 -0.00420779 0)
(0.107294 -0.00414646 0)
(0.105655 -0.00432284 0)
(0.106209 -0.00426659 0)
(0.104524 -0.00442797 0)
(0.105093 -0.00437662 0)
(0.103366 -0.00452393 0)
(0.103949 -0.00447706 0)
(0.102181 -0.00461163 -7.48425e-26)
(0.102777 -0.00456874 0)
(0.100971 -0.0046925 0)
(0.101579 -0.00465284 0)
(0.0997362 -0.00476806 0)
(0.100357 -0.00473085 0)
(0.0984772 -0.00484015 7.95021e-26)
(0.0991097 -0.00480443 0)
(0.097195 -0.0049108 -3.01489e-28)
(0.097839 -0.00487554 0)
(0.0958902 -0.00498196 1.64141e-25)
(0.0965453 -0.00494623 0)
(0.0945641 -0.00505524 0)
(0.0952297 -0.00501827 0)
(0.0932179 -0.00513185 0)
(0.0938932 -0.00509291 0)
(0.0918543 -0.00521148 -3.42689e-28)
(0.0925386 -0.00517213 0)
(0.0904751 -0.00529926 0)
(0.0911654 -0.00525345 0)
(0.0891227 -0.00541486 -3.40449e-23)
(0.0897944 -0.00535307 0)
(0.0866172 -0.00480171 -2.55483e-25)
(0.0884562 -0.00548526 5.77101e-23)
(0.0848477 0.00109717 0)
(0.0890799 0.0053386 1.32741e-22)
(0.0844625 0.00189108 2.30658e-23)
(0.116339 0.00260342 -3.09412e-24)
(0.116649 0.00250295 0)
(0.116452 -0.00194681 2.9804e-24)
(0.116687 -0.00225236 -5.91769e-24)
(0.0847089 -0.00065903 0)
(0.0842694 -0.00153199 0)
(0.0844932 0.00278214 0)
(0.0841697 -0.00239003 -1.13359e-23)
(0.0844137 -0.00323932 -2.27511e-23)
(0.0849908 -0.00406852 0)
(0.0858889 -0.00486821 5.84145e-23)
(0.0877729 -0.00555645 -4.6547e-23)
(0.0846167 0.000219159 0)
(0.0918937 0.006023 -1.10106e-26)
(0.0881647 0.00528868 4.15848e-23)
(0.0903351 0.00607971 -1.48144e-22)
(0.0911126 0.00606804 4.34641e-23)
(0.0933069 0.00595881 -1.41746e-23)
(0.092615 0.00597258 -2.27029e-23)
(0.094503 0.00584388 0)
(0.0939182 0.0059125 0)
(0.0957142 0.00569937 -4.20933e-26)
(0.0950976 0.00576813 0)
(0.0969334 0.00557718 0)
(0.0963265 0.00563659 0)
(0.098135 0.0054619 0)
(0.0975361 0.00551915 0)
(0.0993215 0.00534929 0)
(0.0987302 0.00540529 0)
(0.100491 0.00523796 -3.93161e-26)
(0.0999086 0.00529362 0)
(0.101644 0.00512618 0)
(0.10107 0.0051822 0)
(0.102778 0.00501294 0)
(0.102213 0.00506982 0)
(0.103891 0.00489717 0)
(0.103337 0.00495545 0)
(0.104983 0.00477776 0)
(0.10444 0.004838 0)
(0.106051 0.00465358 3.53908e-26)
(0.10552 0.00471634 0)
(0.107094 0.00452357 1.25688e-28)
(0.106576 0.00458938 0)
(0.10811 0.00438673 0)
(0.107606 0.00445605 0)
(0.109097 0.00424246 -1.13498e-28)
(0.108608 0.00431557 0)