/*--------------------------------*- C++ -*----------------------------------*\
  =========                 |
  \\      /  F ield         | OpenFOAM: The Open Source CFD Toolbox
   \\    /   O peration     | Website:  https://openfoam.org
    \\  /    A nd           | Version:  10
     \\/     M anipulation  |
\*---------------------------------------------------------------------------*/
FoamFile
{
    format      ascii;
    class       surfaceScalarField;
    location    "3";
    object      phi;
}
// * * * * * * * * * * * * * * * * * * * * * * * * * * * * * * * * * * * * * //

dimensions      [0 3 -1 0 0 0 0];

internalField   nonuniform List<scalar> 
66213
(
0.0170031
-0.0218939
-0.0118969
0.0167876
0.0537209
-0.00884726
-0.0278705
0.0162786
-0.0219148
0.059357
-0.031853
0.0481316
0.0313778
-0.0217847
-0.024577
0.0149838
0.0323589
-0.0314862
0.0305051
0.0606962
-0.050252
-0.0613731
0.0505534
-0.0428562
-0.00194074
-0.0190704
-0.0292409
-0.0124504
-0.0209765
-0.000537893
0.000429189
0.0026251
-0.00251639
0.000364626
-0.00090252
0.000793815
-0.00253617
0.00130692
0.0114657
-0.0102364
0.00167779
-0.00421397
0.00298471
0.0845488
0.103611
-0.0958562
-0.0923037
0.0597003
0.0589532
-0.0341046
-0.0557757
0.0270237
0.0884523
-0.017027
0.0648624
0.0356601
0.0385513
-0.0449488
-0.0292626
-0.00141468
0.00172598
0.0353488
-0.0136445
0.0113785
0.000851262
0.0135907
0.0113161
0.0535538
0.0176371
-0.00994347
-0.0612475
-0.00607511
0.0522329
0.00739597
-0.0746195
0.0065753
0.0619691
-0.0217597
0.0291677
0.0238729
-0.031281
-0.0618592
0.00669278
0.0334068
-0.0246503
-0.0695441
0.0323352
0.0301542
-0.0308085
0.0635809
-0.0882312
-0.000147487
-0.00469519
0.00156249
0.00328018
-0.0031884
0.00304092
-0.00176386
-0.00142454
-0.000784185
-0.00567487
0.0439746
-0.00905314
0.00598653
-0.040908
0.0331467
-0.0116719
0.0224998
0.0228297
-0.0247984
0.0459978
-0.0440291
0.00992075
0.044952
-0.0320431
-0.000354037
0.0214789
-0.0298767
0.00875179
0.0293898
0.00240384
-0.0321477
-0.00153385
-0.000153551
0.000903214
0.00227276
-0.000726379
-0.00661915
0.00507278
0.0036052
-0.00193882
0.000606375
-0.0125079
0.0136716
0.000422946
-0.00158664
0.00223584
-0.00336523
-0.0180003
0.0448918
-0.0384571
0.0115656
-0.0301781
-0.00833092
0.0205087
-0.0374536
0.0608322
0.0124139
-0.0357925
-0.0287457
-0.0782521
-0.0643929
-0.00275965
0.0382918
0.0288607
0.0780297
-0.135847
-0.0228655
-0.00491493
0.0277804
-0.00945788
-0.0134076
-0.0278674
0.0388807
-0.0204712
0.00431801
-0.0100272
-0.0221582
-0.00152286
-0.00588193
0.0074048
-0.00668672
-0.00820203
0.0133659
-0.00908959
0.00670519
-0.0112725
0.0181581
0.00300398
-0.00200006
0.00570127
-0.00148301
0.00258238
0.00190461
0.0118924
-0.00721484
-0.00467757
0.0201795
-0.00828712
0.0399678
-0.0508572
-0.0126043
0.0234936
0.0743812
-0.0173254
-0.0740828
0.0627929
0.027436
-0.0158478
0.00890856
-0.00451284
-0.0155546
0.0111589
-0.0139916
0.0108396
0.0120605
-0.00907019
0.0192141
-0.0241354
-0.00171481
0.0175493
-0.0120083
-0.0038262
0.0275986
0.0423154
-0.0947124
-0.000406756
-0.00526936
-0.0075582
0.0132343
-0.00612397
0.000919579
0.00479764
0.0246829
0.00486979
-0.00978553
-0.0197672
0.0279298
0.00254349
-0.00579041
0.0724818
0.0293264
-0.0149272
-0.086881
0.0809107
0.0133024
-0.0217313
-0.0423182
0.0313032
-0.00489121
0.0159063
0.0130006
-0.025738
-0.0295808
-0.0256721
0.0337919
0.0231834
-0.0535809
0.0290679
0.0521115
-0.023325
0.0515767
-0.0818326
-0.00383216
0.0264392
-0.0459321
-0.00383236
-0.0107848
0.0147779
-0.000160653
-0.00420925
0.000161041
0.000215845
0.000233132
-0.000837173
0.00131381
0.000659529
-0.000200674
-0.00177266
0.0160345
0.00778398
-0.00121744
-0.022601
0.0073812
0.0189089
-0.0102557
-0.0186969
-0.00278452
0.0288626
-0.0134535
0.00254065
-0.0139379
-0.000733067
-0.0107874
0.0352458
0.0363738
0.0297667
-0.000970849
-0.0395833
0.0276547
-0.0507757
0.0680127
-0.0374937
0.00143189
0.0637165
-0.0384932
-0.008054
-0.00257205
0.0491193
0.0383181
-0.0119489
0.0572878
-0.03483
-0.0183258
0.0144986
0.0386571
0.00223832
-0.0103317
-0.0267366
0.0461804
-0.0622678
-0.00800839
-0.00174852
0.0110192
-0.00126225
-0.00118931
-0.00449487
-0.0023242
-0.000629584
0.000350058
-0.000909789
-0.000815613
-0.0551791
-0.0419212
0.0294141
0.0676861
-0.0194018
0.0282078
-0.0639851
0.0285046
-0.00440402
-0.0435024
-0.0145582
0.0011416
0.00445927
0.0108726
-0.00581109
-0.00952075
0.00266337
0.0017959
0.000623989
0.0129119
0.0044525
0.005217
0.00164661
0.000651287
0.00465248
0.0333334
0.00226572
-0.0459308
0.00595105
0.041881
-0.000267178
-0.00443873
-0.00554216
0.0102481
-0.00124193
0.00128815
-0.000313396
-0.00470984
-0.000970824
0.0107951
0.0215236
-0.0209743
-0.0113445
-0.00298967
-0.0246723
0.0532687
0.0448095
-0.0108438
0.0435443
-0.0451474
-0.00186915
0.00347229
0.0465861
0.00257669
-0.00561857
-0.0102652
0.00887671
0.00809207
-0.00670363
0.00302593
-0.0026844
-0.0106067
0.00764565
-0.0104302
0.00698553
0.00066012
0.019186
0.024788
-0.00514267
-0.0388314
0.0183287
0.0556401
-0.0547828
-0.027637
0.0204741
0.0254916
-0.00663658
0.00378758
-0.0130761
-0.00287196
0.00138986
-0.0181638
0.000683692
0.0427856
-0.0400828
0.00303149
-0.00573431
0.00774177
-0.00845855
-0.0168821
-0.0310732
0.00787256
-0.0447842
-0.0031394
0.0454219
0.00250172
-0.0296108
-0.020751
0.0055775
0.00239128
-0.0506781
0.0383977
0.00642899
-0.0268344
-0.0179924
-0.0148423
0.0486033
0.00463669
0.0390398
-0.00522309
-0.048659
0.0278721
0.0188077
-0.00764008
0.0212642
-0.0151414
-0.0243237
0.0182009
0.0142319
-0.0178766
0.0249089
0.0276339
0.0199268
-0.0131741
-0.0343866
-0.0109801
0.0234726
0.0396808
0.00606098
-0.0258024
-0.0199394
-0.00241312
0.00146488
0.040629
0.038382
0.00159809
-0.0423932
0.0257224
-0.00668717
0.0193467
0.0114275
-0.0062721
-0.0112793
-0.0089487
-0.00145149
0.00513082
-0.012542
0.00237034
0.00461519
-0.0210138
0.0158711
-0.0263214
0.00530766
-0.00145899
0.0471934
-0.000924972
0.00637793
-0.00592965
-0.00096577
0.000517493
-0.000892074
-0.000132337
0.00740234
-0.000193292
0.00856212
-0.00926091
0.00595068
-0.0127225
-0.00401303
-0.00337735
-0.0318098
0.0297354
0.00545178
-0.0328096
-0.00219045
0.0316227
0.00548095
-0.0152286
0.0411965
-0.0314488
0.038994
0.00337072
-0.0368838
0.000695014
0.0336718
4.88362e-05
-0.0344157
0.0332603
0.00132503
-0.0338903
0.0140326
0.0366817
-0.0534739
0.0114317
0.0396568
-0.037056
0.015667
0.0102282
-0.00930591
-0.0165893
0.0193766
0.0060588
-0.00976833
-0.0382521
0.00323113
0.0370177
-0.00199676
0.00398715
-0.0377945
-0.0044447
-0.000757443
0.0330387
-0.0329735
0.000692296
0.0324047
0.000549532
-0.0337117
-0.0112173
-0.0301228
0.0400842
0.00125592
0.0246192
-0.0054855
-0.030351
0.0394603
-0.00947645
-0.0400042
0.0100204
0.0396704
-0.0101041
0.00989396
0.0188772
-0.0020715
0.00257089
0.0190515
-0.00112129
0.000946984
0.00882986
-0.00787543
-0.00852893
-0.00792059
0.00889133
-0.0331594
-0.00858418
0.0363001
0.00544346
-0.00649681
-0.0308031
0.00414054
0.000585005
-0.00215313
5.97131e-05
0.00150841
-0.00283113
0.000145771
0.00327036
0.0351163
-0.0332112
0.0305762
-0.0324812
0.0560051
0.0255771
-0.0464659
0.0256152
-0.0251595
0.0555495
0.035914
-0.0432128
0.0434945
-0.0361957
0.0668414
0.0311874
-0.0621148
0.0212258
0.0643496
-0.018734
-0.0345784
0.0100308
0.0375482
-0.032223
-0.0109395
-0.0369713
0.00662486
0.0386369
-0.00829044
-0.00761485
0.0071254
-0.0364818
0.0117131
-0.00171674
0.00133058
-0.0113269
0.00387762
0.0105777
-0.0027422
0.082513
-0.0586133
0.00699523
-0.0308949
0.0304563
0.0727526
-0.0206959
0.0371678
0.00474853
-0.013348
-0.0285683
0.0409847
-0.000318207
-0.0339169
-0.0289098
0.00401461
-0.00121449
-0.0269338
-0.000761557
-0.0249111
-0.0102203
0.00104362
0.00157128
-0.00170361
0.000243594
0.00132768
-0.0315462
0.00422002
0.029688
-0.00236183
0.00333524
-0.00294971
-0.0319317
0.0314376
0.00340069
-0.0315031
0.0300961
0.00556149
0.0345599
0.0150313
-0.0436402
-0.0188777
0.0559799
-0.00254219
0.0265876
-0.0304341
-0.0249915
-0.00422225
0.0244206
0.00479314
0.021545
-0.0425739
-0.00396261
-0.00563769
0.0229604
-0.000293909
0.000419415
-0.00206433
0.000219463
-0.000513371
0.000638878
0.00184007
-0.00471203
0.00322993
0.0216519
-0.00536446
-0.031516
-0.000446593
0.0335365
-0.0329336
-0.000156246
0.0342431
-0.000735283
-0.0339544
0.0485091
-0.0080366
-0.0398485
0.00434196
0.0320181
-0.00408443
-0.0322757
0.039531
-0.0323366
0.0039919
-0.0111864
0.0385322
0.00117189
-0.000173001
0.0461585
-0.00396352
-0.00366284
0.0458469
0.000284693
2.69603e-05
0.0499143
-0.00409164
2.41837e-05
0.0499296
-4.28144e-05
2.75378e-05
0.0499427
-3.7483e-05
2.43456e-05
0.0499557
-4.02986e-05
2.73538e-05
0.049967
-3.5306e-05
2.39626e-05
0.0499783
-3.83265e-05
2.70241e-05
0.0499881
-3.33011e-05
2.355e-05
0.0499979
-3.64468e-05
2.66521e-05
0.0500062
-3.14072e-05
2.30821e-05
0.0500147
-3.46909e-05
2.62254e-05
0.0500217
-2.96379e-05
2.25686e-05
0.050029
-3.30522e-05
2.57607e-05
0.050035
-2.7985e-05
2.20253e-05
0.0500412
-3.1531e-05
2.52729e-05
0.0500462
-2.64537e-05
2.14704e-05
0.0500516
-3.01261e-05
2.47789e-05
0.0500557
-2.5026e-05
2.0919e-05
0.0500602
-2.87959e-05
2.42932e-05
0.0500634
-2.36404e-05
2.04054e-05
0.050067
-2.74629e-05
2.38678e-05
0.0500691
-2.22111e-05
2.01059e-05
0.0500713
-2.59728e-05
2.37708e-05
0.046073
-2.02424e-05
0.00401853
0.0461027
-2.42962e-05
-5.32067e-06
0.0396023
0.00294219
0.00355812
0.0381128
0.00207555
-0.000585983
0.037777
0.00131513
-0.000979317
0.0379143
0.000971166
-0.00110849
-0.0303874
0.0386958
0.00309931
-0.0114077
0.00156743
0.00558841
-0.0297499
0.0225941
-0.0297205
0.000900537
-0.0304839
0.00373576
-0.0398039
0.0297592
-0.00493868
0.0149834
0.00104182
-0.00293144
0.0383528
-0.0386472
0.00160952
-0.0378923
0.0400217
-0.00108752
0.00143164
0.0362613
-0.0340679
0.000748799
-0.000310294
0.0344531
-0.0344487
-2.46456e-05
0.000360868
0.0344443
-0.0344396
-2.69305e-05
-3.03881e-05
0.0344346
-0.0344293
-2.89747e-05
-3.24343e-05
0.0344237
-0.0344178
-3.09223e-05
-3.43333e-05
0.0344117
-0.0344053
-3.2918e-05
-3.62143e-05
0.0343986
-0.0343915
-3.50801e-05
-3.82095e-05
0.0343842
-0.0343763
-3.74478e-05
-4.03975e-05
0.0343682
-0.0343596
-4.00303e-05
-4.27942e-05
0.0343507
-0.0343411
-4.28384e-05
-4.54102e-05
0.0343312
-0.0343206
-4.58778e-05
-4.82538e-05
0.0343096
-0.0342979
-4.91934e-05
-5.13395e-05
0.0342861
-0.0378836
-0.000494082
-5.46278e-05
0.0362906
-0.0389644
-0.00128976
-0.00130832
0.000903297
-0.0006449
0.00200862
-0.0311136
-0.0315504
0.00118501
0.0320853
-0.00405597
0.0119923
-0.030783
0.00230772
-0.00184772
-0.00312665
0.0319501
-0.0269757
-0.00435164
0.0322631
-0.000971175
0.000948048
-0.0310905
-0.0301062
-0.00241534
-0.00319455
0.0321532
0.0338057
-0.036143
-0.00260142
-0.0311674
0.00133247
0.0315028
-0.00204874
0.00104755
0.000483206
-0.031637
-0.000242146
0.000539251
-0.0314645
-0.0302851
-0.0321482
0.0339657
0.00191826
0.0311445
-0.0305606
0.0007486
0.00130392
-0.0366846
0.0363946
0.000117013
0.00127306
-0.0337513
0.0342723
-0.000493973
-0.00101959
-0.034285
0.0342974
1.51543e-05
1.14059e-05
-0.034309
0.0343201
1.62556e-05
1.27126e-05
-0.0343306
0.0343406
1.70345e-05
1.3539e-05
-0.03435
0.034359
1.76288e-05
1.41507e-05
-0.0343675
0.0343757
1.80537e-05
1.45852e-05
-0.0343834
0.0343908
1.8343e-05
1.48675e-05
-0.0343978
0.0344045
1.85299e-05
1.50325e-05
-0.0344109
0.034417
1.86467e-05
1.5113e-05
-0.0344228
0.0344283
1.87448e-05
1.5148e-05
-0.0344335
0.0344385
1.89064e-05
1.52127e-05
-0.0344432
0.0344478
1.91186e-05
1.54064e-05
-0.0379654
0.0379495
1.05676e-05
0.000500943
-0.0400549
0.0393355
0.000133419
0.00145269
-0.0382807
0.0377711
-0.000598861
7.55026e-05
-0.0013033
-3.46072e-05
-0.000860135
0.0328448
0.000566284
0.0325983
-0.00166181
0.0327948
0.0365459
-0.0376891
5.56599e-05
-0.0339773
-0.0019711
0.0327539
-0.00148738
0.035818
-0.0345932
0.000384707
-0.000439453
0.035622
-0.0348468
-2.64348e-05
0.000718528
0.0344536
-0.0344494
-2.8888e-05
-3.2248e-05
0.0344451
-0.0344404
-3.15825e-05
-3.47236e-05
0.0344355
-0.0344303
-3.41947e-05
-3.73032e-05
0.0344249
-0.0344191
-3.6733e-05
-3.97876e-05
0.034413
-0.0344066
-3.93336e-05
-4.22588e-05
0.0343999
-0.0343929
-4.21412e-05
-4.48712e-05
0.0343855
-0.0343778
-4.52238e-05
-4.77327e-05
0.0343697
-0.0343611
-4.86078e-05
-5.08811e-05
0.0343522
-0.0343427
-5.23156e-05
-5.43414e-05
0.0343328
-0.0343223
-5.63693e-05
-5.81324e-05
0.0343114
-0.0342998
-6.07731e-05
-6.22849e-05
0.0342877
-0.0347165
-6.53634e-05
-6.66781e-05
0.0359535
-0.037173
-7.02867e-05
-7.12766e-05
0.0361928
-0.0331677
7.41702e-05
-7.68678e-05
0.0326068
-0.0316644
0.000242625
0.000339659
0.0338269
-0.0334548
0.000111074
-0.000252815
-0.00144539
0.0327384
-0.0307432
0.000721902
-0.000602636
0.00111687
-0.0321512
-0.0342195
0.000162038
-0.00152373
0.00079222
0.0333299
0.0326757
-0.0326742
-0.00166337
0.0328038
-0.00165182
0.000971299
-0.00161175
-0.0308241
0.0333142
-0.0341833
-0.00110198
-0.00166309
0.0329716
0.0329265
-0.00127541
0.00144329
-0.0312152
-0.03078
-0.032054
0.0317312
0.00107139
0.0318413
-0.0313759
0.000977826
0.000509211
-0.0329939
0.0343835
0.000528607
4.12835e-05
-0.03521
0.0354365
-0.00010941
0.000446533
-0.0347675
0.0342733
2.88699e-07
-0.000350665
-0.034286
0.0342982
2.90173e-06
-1.27845e-06
-0.0343098
0.0343208
5.21816e-06
1.16581e-06
-0.0343312
0.0343412
7.08342e-06
3.14594e-06
-0.0343505
0.0343595
8.62666e-06
4.75761e-06
-0.0343681
0.0343762
9.896e-06
6.08112e-06
-0.0343839
0.0343913
1.09442e-05
7.15785e-06
-0.0343983
0.034405
1.18272e-05
8.04313e-06
-0.0344113
0.0344174
1.25977e-05
8.79173e-06
-0.0344231
0.0344285
1.33354e-05
9.46452e-06
-0.0344335
0.0344383
1.41282e-05
1.01548e-05
-0.0344428
0.0344469
1.4976e-05
1.09097e-05
-0.0349363
0.034931
1.589e-05
1.15968e-05
-0.036371
0.036487
1.73574e-05
1.26783e-05
-0.0365484
0.0356883
0.000261257
1.41621e-05
-0.0349909
0.0333935
-0.00100397
-0.000605986
-0.00132944
-0.000154313
-0.000558115
0.0335572
0.0334327
0.00108374
-0.00148028
0.0333681
0.0332641
0.0352934
-0.0352136
-2.41523e-05
-0.000377276
0.035623
-0.0349676
-0.000270636
-3.00431e-05
0.0344601
-0.034457
-2.95718e-05
0.000211001
0.0344536
-0.0344497
-3.27438e-05
-3.56285e-05
0.0344457
-0.0344413
-3.59829e-05
-3.87905e-05
0.0344366
-0.0344316
-3.92051e-05
-4.19461e-05
0.0344263
-0.0344207
-4.23943e-05
-4.50631e-05
0.0344148
-0.0344084
-4.56598e-05
-4.81891e-05
0.0344018
-0.0343948
-4.91512e-05
-5.14691e-05
0.0343875
-0.0343798
-5.29593e-05
-5.50272e-05
0.0343717
-0.0343632
-5.71382e-05
-5.8928e-05
0.0343543
-0.0343449
-6.17349e-05
-6.32224e-05
0.0343351
-0.0343247
-6.67857e-05
-6.79498e-05
0.0343138
-0.0343023
-7.22905e-05
-7.31447e-05
0.0342902
-0.0342774
-7.82432e-05
-7.87468e-05
0.0342637
-0.0342492
-8.48181e-05
-8.48987e-05
0.0342343
-0.0340678
-9.22829e-05
-9.18008e-05
0.0336285
-0.0336353
0.000249348
-9.96203e-05
0.0338312
-0.0339178
0.000197661
-5.69043e-05
-0.000187786
-0.000402575
-0.0336291
0.0338599
-0.0338941
-0.000153614
0.000104222
0.00192608
-0.00179622
-0.0313451
-0.0312046
0.00175479
-0.00133976
-0.0312806
0.000687594
-0.0332414
-0.00180814
0.0332544
0.000312338
-0.0340566
-0.000149813
0.000365362
-0.0336822
-0.00083636
0.000641178
0.033525
-0.00161368
0.0335812
0.0327628
-0.0325451
-0.00188107
0.00115728
-0.00121285
-0.0312895
0.00123548
-0.0312828
0.0328061
-0.00169514
-0.0314322
-0.0324804
0.032722
0.000736228
0.0317237
-0.0316378
0.00114963
0.000998031
-0.032795
0.0335929
0.00027356
0.000436189
-0.0336632
0.0342155
-2.37175e-05
-2.90108e-05
-0.0346854
0.0345939
-1.78841e-05
-2.33924e-05
-0.0342612
0.0342746
-1.31609e-05
-1.79722e-05
-0.0342873
0.0342995
-9.2444e-06
-1.39641e-05
-0.034311
0.0343219
-5.75402e-06
-1.0318e-05
-0.0343323
0.0343422
-2.83273e-06
-7.21139e-06
-0.0343516
0.0343606
-3.57758e-07
-4.6109e-06
-0.034369
0.0343772
1.75093e-06
-2.40783e-06
-0.0343849
0.0343922
3.57448e-06
-5.32622e-07
-0.0343992
0.0344058
5.19062e-06
1.09638e-06
-0.0344121
0.034418
6.67269e-06
2.56179e-06
-0.0344235
0.0344287
8.11579e-06
3.93763e-06
-0.0344336
0.0344381
9.60848e-06
5.32269e-06
-0.0344422
0.034446
1.11666e-05
6.76213e-06
-0.0344494
0.0344526
1.27439e-05
8.23466e-06
-0.0344554
0.0344582
1.44885e-05
9.85636e-06
-0.0344609
0.0347063
1.59396e-05
1.14709e-05
-0.0340877
0.0336409
-0.000557081
1.25201e-05
-0.000233672
-0.000328765
-0.000413817
0.0342998
0.0337451
0.000955292
-0.00158495
0.0339978
0.0338055
0.0335752
-0.0341217
-0.000555438
-0.0333649
-0.001122
0.0326787
-0.00106508
0.034469
-0.0344668
-2.64081e-05
-2.99982e-05
0.0344645
-0.0347059
-2.9176e-05
-3.23116e-05
0.0344595
-0.0344565
-3.25661e-05
-3.5468e-05
0.0344533
-0.0344498
-3.62305e-05
-3.88302e-05
0.0344461
-0.034442
-4.00437e-05
-4.25142e-05
0.0344377
-0.034433
-4.39145e-05
-4.6272e-05
0.034428
-0.0344225
-4.78223e-05
-5.0072e-05
0.0344168
-0.0344106
-5.1829e-05
-5.3927e-05
0.0344042
-0.0343972
-5.60633e-05
-5.79443e-05
0.03439
-0.0343824
-6.06292e-05
-6.22444e-05
0.0343744
-0.0343659
-6.56126e-05
-6.69173e-05
0.0343571
-0.0343477
-7.10918e-05
-7.20466e-05
0.034338
-0.0343276
-7.71291e-05
-7.77015e-05
0.0343168
-0.0343054
-8.37408e-05
-8.39298e-05
0.0342934
-0.0342807
-9.09784e-05
-9.07305e-05
0.0342673
-0.0342531
-9.90432e-05
-9.82581e-05
0.0342382
-0.0342225
-0.000107961
-0.000106664
0.0342063
-0.0338391
-0.000117853
-0.000115855
0.0337698
-0.0337255
0.000153358
-0.000126195
0.0337063
-0.0339638
0.000103873
8.50551e-05
-0.000179656
2.1142e-05
-0.0338981
0.0340972
-0.0341893
-8.75832e-05
-1.64073e-05
-0.00190425
0.0335736
0.00142086
-0.00168332
-0.0310203
-0.0311862
0.000969214
-0.00164024
-0.0308532
0.000265312
-0.0331413
-0.00209126
0.0332837
-0.000313481
8.51631e-05
-0.033961
-0.0339172
0.0339002
-7.06478e-05
-0.0340562
-0.00017446
-0.00162173
-0.0313511
0.000157273
-0.0338183
6.73551e-06
-0.0338197
0.000764934
-0.00120961
-0.0305756
0.0333702
-0.0335477
-0.000944487
-0.00181294
0.0325874
0.0331934
-0.00163611
-4.206e-05
-0.0303792
-0.0328071
-0.0318051
0.0324456
0.000509146
0.0313302
-0.0321812
0.000808936
0.000494296
-0.0329681
0.0333706
0.000333716
0.000475495
-0.0338622
0.0341842
-4.84834e-05
-5.53436e-05
-0.0342017
0.0342183
-4.02347e-05
-4.65582e-05
-0.0342339
0.034249
-3.29658e-05
-3.90359e-05
-0.0342632
0.0342767
-2.65913e-05
-3.22304e-05
-0.0342893
0.0343013
-2.12974e-05
-2.65755e-05
-0.0343127
0.0343236
-1.66539e-05
-2.17035e-05
-0.0343339
0.0343438
-1.26946e-05
-1.75024e-05
-0.0343531
0.034362
-9.29689e-06
-1.393e-05
-0.0343705
0.0343786
-6.34299e-06
-1.08531e-05
-0.0343862
0.0343935
-3.71891e-06
-8.16215e-06
-0.0344003
0.0344069
-1.32241e-06
-5.74636e-06
-0.0344129
0.0344187
9.34444e-07
-3.51014e-06
-0.034424
0.034429
3.13635e-06
-1.37269e-06
-0.0344335
0.0344378
5.35372e-06
7.51934e-07
-0.0344417
0.0344453
7.56736e-06
2.88923e-06
-0.0344485
0.0344516
9.67924e-06
4.97487e-06
-0.0344545
0.0344573
1.16612e-05
6.97027e-06
-0.03446
0.0344628
1.31842e-05
8.72757e-06
-0.0344656
0.0338946
1.39133e-05
9.75945e-06
-0.033651
0.0330904
-0.00132046
9.91063e-06
-0.0327793
0.0329481
-0.00226003
-0.00138409
-0.00115625
0.000715353
0.0339659
0.0017684
-0.00185906
0.0333744
0.0341933
1.89973e-05
-0.000406962
0.0346878
0.0344795
0.000612402
-0.000765567
0.0341509
0.034011
0.000682094
-0.00163568
0.033541
0.0334902
0.0339427
-0.0344715
-2.66339e-05
-0.000670095
0.0344691
-0.0344667
-2.88483e-05
-3.2394e-05
0.0344641
-0.0344615
-3.18067e-05
-3.483e-05
0.0344589
-0.034456
-3.54454e-05
-3.80991e-05
0.034453
-0.0344497
-3.94748e-05
-4.18624e-05
0.0344463
-0.0344426
-4.37731e-05
-4.59429e-05
0.0344386
-0.0344342
-4.82797e-05
-5.02575e-05
0.0344295
-0.0344244
-5.29408e-05
-5.47527e-05
0.0344189
-0.034413
-5.77567e-05
-5.93909e-05
0.0344067
-0.0344
-6.28043e-05
-6.42167e-05
0.0343929
-0.0343854
-6.81822e-05
-6.93218e-05
0.0343775
-0.0343691
-7.40011e-05
-7.4809e-05
0.0343603
-0.0343511
-8.03706e-05
-8.07919e-05
0.0343414
-0.0343311
-8.7383e-05
-8.73717e-05
0.0343205
-0.0343091
-9.50886e-05
-9.46217e-05
0.0342972
-0.0342847
-0.000103565
-0.000102588
0.0342715
-0.0342576
-0.000112992
-0.000111405
0.034243
-0.0342275
-0.000123426
-0.000121233
0.0342113
-0.0341942
-0.000134981
-0.000132055
0.0341762
-0.0338747
-0.000148119
-0.000144224
0.0339663
-0.0338701
7.65616e-06
0.000176671
1.37172e-05
-0.000209625
8.34656e-05
-0.0338348
-0.0339455
-0.000320326
-0.00207043
0.0331595
0.00211825
-0.00153697
-0.0309605
-0.0311832
0.00112026
-0.0010441
-0.0314308
0.000530366
-0.0335144
0.0332862
-0.00172857
-0.00125323
-0.0313075
-0.000109452
-0.0337021
-0.00146901
-0.0306436
5.11245e-05
-0.0337874
0.000291334
-0.0338197
-0.000417155
0.000188965
-0.0337325
0.000757446
-0.00146471
-0.0302532
0.0328964
-0.0328664
-0.00229004
0.0323776
-0.00155161
-0.000681752
-0.029744
-0.0333208
-0.0321289
0.0327337
0.00020417
0.0313821
-0.0329346
0.000870673
0.000373494
-0.0328894
0.0331756
0.000222905
0.000338573
-0.0337382
0.0341506
-7.86223e-05
-8.71234e-05
-0.0341699
0.0341882
-6.68324e-05
-7.46305e-05
-0.0342055
0.034222
-5.6673e-05
-6.38686e-05
-0.0342374
0.0342522
-4.77469e-05
-5.44984e-05
-0.0342662
0.0342795
-3.98906e-05
-4.61848e-05
-0.034292
0.0343039
-3.32292e-05
-3.90699e-05
-0.0343152
0.0343259
-2.7446e-05
-3.29686e-05
-0.0343361
0.0343459
-2.24666e-05
-2.76962e-05
-0.0343551
0.034364
-1.81483e-05
-2.31624e-05
-0.0343723
0.0343803
-1.43282e-05
-1.92028e-05
-0.0343878
0.034395
-1.08637e-05
-1.56663e-05
-0.0344016
0.034408
-7.63378e-06
-1.24181e-05
-0.0344138
0.0344193
-4.56143e-06
-9.36076e-06
-0.0344244
0.0344291
-1.58693e-06
-6.43003e-06
-0.0344334
0.0344375
1.31641e-06
-3.57577e-06
-0.0344412
0.0344446
4.07882e-06
-8.14974e-07
-0.0344479
0.034451
6.57359e-06
1.74328e-06
-0.034454
0.0344569
8.70922e-06
3.99468e-06
-0.0344598
0.0344628
1.02588e-05
5.80619e-06
-0.0344656
0.0344685
1.09905e-05
6.89057e-06
-0.0344713
0.0337132
-0.000562378
7.20156e-06
-0.000537297
-0.000709473
0.000457703
0.0336261
0.00127282
0.0325594
-0.00145468
0.0337228
-0.00071194
-1.7129e-05
0.034695
0.0339391
1.85846e-05
-1.99702e-05
0.0346892
0.034481
0.000489485
-0.000597873
0.0342593
0.0344805
0.00105731
-0.0013947
0.0338784
0.0339496
-0.00128035
0.0331719
0.0334962
-0.0338377
-0.000602908
-0.0331075
0.0328432
-0.00146423
-0.00124745
0.034475
-0.0344724
-2.91858e-05
-3.28744e-05
0.0344699
-0.0344672
-3.15423e-05
-3.49542e-05
0.0344644
-0.0344616
-3.46242e-05
-3.75714e-05
0.0344588
-0.0344559
-3.83669e-05
-4.09221e-05
0.0344529
-0.0344497
-4.2605e-05
-4.48412e-05
0.0344465
-0.034443
-4.72624e-05
-4.91921e-05
0.0344393
-0.0344353
-5.23247e-05
-5.39592e-05
0.0344309
-0.0344261
-5.7714e-05
-5.90969e-05
0.034421
-0.0344154
-6.33647e-05
-6.45202e-05
0.0344094
-0.0344029
-6.92837e-05
-7.01989e-05
0.0343961
-0.0343887
-7.55391e-05
-7.61731e-05
0.034381
-0.0343728
-8.22452e-05
-8.25352e-05
0.0343641
-0.034355
-8.95344e-05
-8.94124e-05
0.0343454
-0.0343353
-9.75228e-05
-9.6931e-05
0.0343247
-0.0343135
-0.000106302
-0.000105195
0.0343018
-0.0342894
-0.000115973
-0.00011429
0.0342764
-0.0342627
-0.000126689
-0.000124345
0.0342485
-0.0342333
-0.00013857
-0.000135514
0.0342175
-0.0342007
-0.000151781
-0.000147896
0.0341831
-0.0341645
-0.000166739
-0.000161802
0.0338101
-0.0336188
-0.00018373
-0.000177672
0.0336997
-0.0337437
-2.66779e-05
9.46789e-05
0.0337177
-0.033615
-0.000423056
-0.000200435
4.15083e-05
-0.0338799
1.8763e-05
0.0343766
-0.0337106
-0.000624449
0.000344455
0.00286339
-0.00186019
-0.0307472
-0.0319909
0.00191976
-0.000648059
-0.032036
0.000403404
-0.0340273
0.000390348
-0.0338311
-0.000269856
-0.0336895
0.00019991
-0.000923838
-0.0318527
9.24391e-05
-0.0337434
-0.000965077
-0.0311432
-0.000134403
-0.033464
-0.00108054
0.000467054
0.0331729
0.0326182
-0.0324327
-0.00164023
0.0329394
-0.00140175
-0.00165517
-0.0304582
8.30163e-05
-0.0337967
0.00324181
-0.00299445
-0.0309945
-0.00167452
0.0332373
0.00271853
-0.0314677
-0.0335655
-0.0324918
0.0332013
0.000161159
0.0322584
-0.0313789
0.0018391
0.00168635
-0.032979
0.0333151
-0.000131961
0.000595795
-0.0337784
0.0341156
-0.000114261
-0.00012469
-0.0341365
0.0341565
-9.85808e-05
-0.000108056
-0.0341754
0.0341934
-8.48453e-05
-9.35379e-05
-0.0342103
0.0342265
-7.28334e-05
-8.08317e-05
-0.0342417
0.0342562
-6.22668e-05
-6.97018e-05
-0.0342699
0.034283
-5.299e-05
-5.98958e-05
-0.0342954
0.0343071
-4.50054e-05
-5.13983e-05
-0.0343182
0.0343289
-3.80915e-05
-4.40818e-05
-0.0343389
0.0343486
-3.21e-05
-3.77506e-05
-0.0343577
0.0343664
-2.68468e-05
-3.22535e-05
-0.0343746
0.0343824
-2.21296e-05
-2.73874e-05
-0.0343897
0.0343966
-1.77809e-05
-2.29662e-05
-0.034403
0.0344091
-1.36845e-05
-1.8846e-05
-0.0344146
0.0344199
-9.79121e-06
-1.49458e-05
-0.0344247
0.0344292
-6.08745e-06
-1.12386e-05
-0.0344333
0.0344372
-2.59583e-06
-7.72455e-06
-0.0344409
0.0344444
5.85567e-07
-4.46084e-06
-0.0344477
0.0344509
3.32967e-06
-1.57047e-06
-0.0344541
0.0344572
5.55633e-06
8.4206e-07
-0.0344603
0.0344634
7.15932e-06
2.69772e-06
-0.0344665
0.0344694
8.07397e-06
3.88254e-06
-0.0344721
0.0340699
-0.000160141
4.47252e-06
-0.0338129
0.0328521
-0.00132925
-0.000280366
-0.00113216
-0.000758053
0.000528252
0.0338559
0.0334318
1.55831e-05
-1.69693e-05
0.0346964
0.0344829
1.82132e-05
-1.93565e-05
0.0346903
0.0344822
2.04017e-05
-0.000441645
0.0346806
0.0344815
0.00097423
-0.000766427
0.0336706
0.0344822
0.0329736
-0.033381
-0.00105686
0.0330355
-0.00173638
0.00149278
-0.00172653
0.0334711
0.0338983
0.0339056
-0.0344792
-2.92604e-05
-0.000722906
0.0344768
-0.0344742
-3.18055e-05
-3.52997e-05
0.0344714
-0.0344685
-3.4449e-05
-3.77003e-05
0.0344656
-0.0344625
-3.76546e-05
-4.05222e-05
0.0344595
-0.0344564
-4.14453e-05
-4.39428e-05
0.0344534
-0.0344502
-4.57712e-05
-4.79134e-05
0.034447
-0.0344436
-5.0657e-05
-5.24138e-05
0.03444
-0.0344362
-5.61445e-05
-5.7501e-05
0.0344321
-0.0344277
-6.21672e-05
-6.31658e-05
0.0344229
-0.0344177
-6.86114e-05
-6.93046e-05
0.034412
-0.0344059
-7.5418e-05
-7.58252e-05
0.0343994
-0.0343923
-8.26053e-05
-8.27067e-05
0.0343848
-0.0343768
-9.02631e-05
-9.00057e-05
0.0343684
-0.0343594
-9.85207e-05
-9.78359e-05
0.03435
-0.03434
-0.000107509
-0.00010633
0.0343296
-0.0343185
-0.000117353
-0.000115615
0.034307
-0.0342948
-0.000128177
-0.000125813
0.0342821
-0.0342687
-0.00014013
-0.000137059
0.0342547
-0.0342399
-0.000153368
-0.000149506
0.0342244
-0.0342081
-0.000168135
-0.000163335
0.034191
-0.0341729
-0.000184834
-0.000178877
0.0341541
-0.034134
-0.000203801
-0.000196527
0.0338226
-0.0336237
-0.000225561
-0.000216689
0.0335845
-0.033961
-4.65327e-05
-0.000239709
0.0335398
-0.0334927
-0.000671561
-7.67307e-05
-0.000173324
0.000446125
-0.0341039
0.0337482
-0.0339667
4.50952e-05
-1.42911e-05
0.00230535
-0.00259786
-0.0311751
-0.0310902
0.00201658
-0.0333977
0.000154325
-0.000118767
3.29407e-05
-0.0340181
-0.0340989
1.34207e-05
-0.000495665
-0.0324641
6.44893e-05
-0.0339993
-0.000663862
-0.0321539
9.64704e-05
-0.0339743
-0.00127178
0.000951684
0.033493
-0.00170636
0.033374
-0.00121787
-0.0315805
0.000131751
-0.0335127
-0.00159225
-0.0318604
-6.49307e-05
-0.0335319
-0.00191776
-0.0316746
0.0326596
-0.00135061
-0.00128728
-0.0312759
0.00147297
-0.000836553
-0.0316259
-0.033469
0.000104297
-0.000268919
3.7922e-05
-0.0337871
-0.000252959
-0.0341148
0.000935903
-0.0012025
-0.0310093
-0.0304686
0.0311369
0.000804641
0.0326541
-0.0323591
-0.00193518
0.0329129
-0.00166058
-0.0312555
0.00172279
-0.0339967
-0.0315232
0.0327863
0.000576016
0.00163029
-0.0334641
0.0335651
6.00992e-05
0.00100854
-0.0340556
0.0340797
-0.000155992
0.000105309
-0.0341022
0.0341238
-0.000135805
-0.000147236
-0.0341441
0.0341636
-0.000118031
-0.000128428
-0.034182
0.0341995
-0.000102399
-0.000111912
-0.0342161
0.0342319
-8.86492e-05
-9.73914e-05
-0.0342468
0.034261
-7.65221e-05
-8.46158e-05
-0.0342745
0.0342874
-6.58541e-05
-7.33544e-05
-0.0342995
0.0343111
-5.65838e-05
-6.35182e-05
-0.034322
0.0343324
-4.85408e-05
-5.50012e-05
-0.0343423
0.0343517
-4.15276e-05
-4.76076e-05
-0.0343606
0.0343691
-3.53133e-05
-4.11289e-05
-0.034377
0.0343845
-2.96646e-05
-3.53243e-05
-0.0343916
0.0343982
-2.44056e-05
-2.99865e-05
-0.0344043
0.0344101
-1.94478e-05
-2.49818e-05
-0.0344154
0.0344204
-1.47822e-05
-2.02639e-05
-0.034425
0.0344294
-1.04449e-05
-1.58525e-05
-0.0344334
0.0344373
-6.49493e-06
-1.17935e-05
-0.034441
0.0344446
-3.02339e-06
-8.16113e-06
-0.0344481
0.0344516
-1.19891e-07
-5.05363e-06
-0.0344549
0.0344583
2.19751e-06
-2.5266e-06
-0.0344616
0.0344648
3.93708e-06
-5.77125e-07
-0.0344679
0.0344708
5.16505e-06
8.17046e-07
-0.0344734
0.034307
6.24103e-06
1.81891e-06
-0.0340238
0.0333081
-0.000613602
2.90332e-06
-0.00018318
-0.000267745
-1.44826e-05
0.0341382
0.0341157
1.57682e-05
-1.69078e-05
0.0346975
0.0344842
1.78617e-05
-1.87382e-05
0.0346912
0.0344831
1.96079e-05
-2.06063e-05
0.0346816
0.0344824
2.16572e-05
-0.000626246
0.0342752
0.0344832
0.000621603
-0.000884542
0.033734
0.0338936
-0.0337755
0.03377
-0.000247464
-0.000541954
0.000183079
-0.0337559
-0.0338026
-0.000514827
-0.00150836
0.0332834
0.033401
-0.0337953
-0.000662569
-0.0329192
0.0329151
-0.00134656
-0.00125458
0.0344836
-0.0344814
-3.1445e-05
-3.45573e-05
0.0344791
-0.0344765
-3.44224e-05
-3.76254e-05
0.0344737
-0.0344707
-3.74526e-05
-4.04998e-05
0.0344676
-0.0344644
-4.08537e-05
-4.36073e-05
0.0344612
-0.0344579
-4.4719e-05
-4.71495e-05
0.0344547
-0.0344513
-4.90972e-05
-5.11698e-05
0.034448
-0.0344445
-5.4116e-05
-5.57535e-05
0.034441
-0.0344373
-5.98878e-05
-6.10405e-05
0.0344333
-0.0344291
-6.63926e-05
-6.70827e-05
0.0344246
-0.0344197
-7.35177e-05
-7.38014e-05
0.0344145
-0.0344087
-8.11631e-05
-8.10816e-05
0.0344026
-0.0343959
-8.92945e-05
-8.88543e-05
0.0343888
-0.0343811
-9.7957e-05
-9.71261e-05
0.0343729
-0.0343642
-0.000107242
-0.000105968
0.0343551
-0.0343453
-0.000117278
-0.000115493
0.0343351
-0.0343242
-0.000128198
-0.000125831
0.0343129
-0.0343009
-0.000140151
-0.000137124
0.0342885
-0.0342753
-0.000153293
-0.000149523
0.0342616
-0.0342472
-0.000167808
-0.000163191
0.0342322
-0.0342163
-0.000183995
-0.000178357
0.0341998
-0.0341823
-0.000202299
-0.000195399
0.0341641
-0.0341447
-0.000223162
-0.000214772
0.0341244
-0.0341029
-0.000247099
-0.000236951
0.0340803
-0.0338523
-0.000274481
-0.000262348
0.0336377
-0.034004
-0.000305296
-0.000291349
0.0339571
-0.0338589
-5.31154e-05
-6.1182e-05
-7.54309e-05
-3.67977e-05
-0.0330912
6.67294e-05