/*--------------------------------*- C++ -*----------------------------------*\
  =========                 |
  \\      /  F ield         | OpenFOAM: The Open Source CFD Toolbox
   \\    /   O peration     | Website:  https://openfoam.org
    \\  /    A nd           | Version:  10
     \\/     M anipulation  |
\*---------------------------------------------------------------------------*/
FoamFile
{
    format      ascii;
    class       volScalarField;
    location    "32";
    object      p;
}
// * * * * * * * * * * * * * * * * * * * * * * * * * * * * * * * * * * * * * //

dimensions      [0 2 -2 0 0 0 0];

internalField   nonuniform List<scalar> 
8711
(
0.0109875
0.00971619
0.0126045
-0.0024831
-0.00186181
-0.010464
0.106534
0.106595
0.701483
0.694422
0.509214
0.291109
-0.102916
-0.113993
-0.126979
-0.147497
0.0316586
0.0292083
0.0255863
0.0267357
0.0265084
0.0207585
0.0220313
0.0123667
-0.216855
-0.165922
-0.277951
-0.329142
0.00429427
0.00501046
0.00683726
-0.555249
-0.579688
-0.361483
-0.397079
0.231047
0.222259
0.192782
0.198835
0.191264
0.236309
0.209737
-0.416052
-0.415193
0.271064
0.156172
-0.493401
-0.500437
-0.49557
0.0290656
0.0310323
0.0299377
0.0276741
0.0357773
0.0403408
0.0449869
-0.171228
-0.201958
-0.137505
-0.164857
-0.0476632
-0.0435446
-0.0510343
-0.0532173
0.120093
0.11628
0.108088
0.0170274
0.0175914
0.0209374
-0.0837798
-0.0752418
-0.0963775
-0.105245
0.0840806
0.0850547
0.0771833
0.0760837
0.0182819
-0.0382067
-0.0364854
-0.0416998
-0.0314319
0.0157189
0.0150024
0.0147129
-0.120069
-0.144403
-0.0428298
-0.07164
0.0508773
0.0472696
0.0517298
0.0413122
0.0527355
0.0725885
0.0880047
0.090974
0.0773774
0.0503955
0.0547963
0.362594
0.354698
-0.0944237
-0.0827317
-0.0766445
-0.074769
-0.0767501
-0.0831794
-0.0942735
-0.109582
-0.127808
-0.14553
-0.159616
-0.166632
-0.165562
-0.155681
-0.140254
-0.123867
-0.122679
-0.109745
-0.144207
-0.136624
-0.139273
-0.145262
-0.112429
-0.127232
-0.0845639
-0.0972111
-0.0714478
-0.0758403
-0.0745574
-0.0711551
-0.0969572
-0.0826151
-0.115844
-0.079575
-0.0883737
-0.0748694
-0.0752992
-0.0871941
-0.0787421
-0.118828
-0.100759
-0.161673
-0.139791
-0.184543
-0.177176
-0.171527
-0.182697
-0.133087
-0.153808
-0.113717
-0.143628
-0.0916663
-0.0844806
-0.0971903
-0.188778
-0.124924
-0.105826
-0.094615
-0.121428
-0.115752
-0.116886
-0.122981
-0.0947586
-0.107341
-0.0722212
-0.0825212
-0.0633925
-0.066144
-0.0696142
-0.0649597
-0.0944798
-0.0793541
-0.141788
-0.115284
-0.0811544
-0.0850752
-0.0893656
-0.10414
-0.0723638
-0.0789378
-0.0712271
-0.0698157
-0.0878443
-0.0774844
-0.12424
-0.103427
-0.172305
-0.147708
-0.20057
-0.19113
-0.183715
-0.19676
-0.139809
-0.163241
-0.0997037
-0.117718
-0.0676406
-0.0746737
-0.166091
-0.0859579
-0.227618
-0.210959
-0.200192
-0.226101
-0.0612059
-0.0630208
-0.0593221
-0.159626
-0.131971
-0.0707344
-0.0643588
-0.0866186
-0.0784189
-0.0978304
-0.0939032
-0.093969
-0.0986447
-0.0754112
-0.0865191
-0.0586734
-0.0663418
-0.0537371
-0.0546384
-0.0616593
-0.0562635
-0.0876333
-0.072414
-0.13859
-0.110436
-0.170531
-0.0978614
-0.0830332
-0.0942019
-0.136252
-0.105506
-0.103058
-0.0719911
-0.0830825
-0.0610284
-0.0655916
-0.0643814
-0.0607038
-0.0843869
-0.0726861
-0.12467
-0.101938
-0.176743
-0.150612
-0.207214
-0.196727
-0.190442
-0.204412
-0.141973
-0.167403
-0.117601
-0.074904
-0.0705481
-0.0761684
-0.0769315
-0.186272
-0.245648
-0.247912
-0.249711
-0.258534
-0.0505023
-0.0723948
-0.167192
-0.225934
-0.0763525
-0.100016
-0.0707551
-0.131307
-0.248022
-0.257025
-0.246832
-0.229369
-0.219534
-0.181898
-0.0560024
-0.0524476
-0.0678084
-0.0614278
-0.0759908
-0.0728639
-0.0721353
-0.0757559
-0.0572416
-0.0655357
-0.0444329
-0.0498789
-0.0427173
-0.0424936
-0.0517369
-0.0458662
-0.0771473
-0.0620738
-0.126441
-0.0994333
-0.192703
-0.159626
-0.248647
-0.224579
-0.242845
-0.0680111
-0.074609
-0.0533357
-0.0598945
-0.0468438
-0.0487751
-0.0544823
-0.0492917
-0.0771862
-0.064114
-0.119933
-0.0960032
-0.175541
-0.147746
-0.207902
-0.197092
-0.188789
-0.203908
-0.138726
-0.164833
-0.0922464
-0.112913
-0.0655975
-0.0767593
-0.0647335
-0.0568811
-0.0721335
-0.0694649
-0.0699794
-0.0724325
-0.0579646
-0.0651185
-0.198196
-0.0881445
-0.0593233
-0.0563817
-0.0490706
-0.165126
-0.228182
-0.201451
-0.164684
-0.119662
-0.23582
-0.223524
-0.18999
-0.0393839
-0.0402508
-0.0415151
-0.0396685
-0.0490301
-0.0448387
-0.0549082
-0.0527192
-0.0513
-0.0543424
-0.03972
-0.045894
-0.0308969
-0.0343511
-0.0310641
-0.0300241
-0.0403193
-0.0345095
-0.0635892
-0.0498868
-0.108386
-0.0832987
-0.173737
-0.140384
-0.223516
-0.205399
-0.221734
-0.0325945
-0.0274018
-0.0132392
-0.0194828
-0.0472617
-0.0427671
-0.0422201
-0.0460069
-0.0330919
-0.0373851
-0.0315109
-0.0309096
-0.0426382
-0.0357094
-0.0670563
-0.0530012
-0.110909
-0.0865033
-0.167287
-0.139295
-0.199915
-0.188893
-0.180351
-0.195681
-0.13023
-0.156157
-0.0835377
-0.10455
-0.0675137
-0.0531237
-0.0672324
-0.0614555
-0.0723605
-0.0710325
-0.0668746
-0.0709616
-0.0525747
-0.0605926
-0.043279
-0.199149
-0.0403665
-0.0449771
-0.0160399
-0.0336356
-0.153013
-0.216222
-0.101897
-0.210782
-0.0291617
-0.0552835
-0.188122
-0.0266434
-0.145871
-0.0353168
-0.0331117
-0.0274249
-0.0289222
-0.0271469
-0.0266711
-0.0318376
-0.0294346
-0.0357472
-0.0343537
-0.0324208
-0.0349966
-0.0236326
-0.0281724
-0.0180212
-0.0200221
-0.0195344
-0.0179974
-0.0283693
-0.0229631
-0.048794
-0.0368882
-0.0869317
-0.0654557
-0.144761
-0.114815
-0.191912
-0.175822
-0.169243
-0.190901
-0.102033
-0.136575
-0.000843687
-0.00316514
-0.00825261
-0.000950115
-0.0185476
-0.0150864
-0.0166605
-0.0190505
-0.0129838
-0.0154779
-0.0154852
-0.0129136
-0.0290989
-0.0211239
-0.0544007
-0.0399986
-0.0973917
-0.0736953
-0.151733
-0.124764
-0.183692
-0.1727
-0.164926
-0.179852
-0.115759
-0.141299
-0.072315
-0.0927832
-0.0455025
-0.0568239
-0.0380762
-0.0940758
-0.0620888
-0.0603663
-0.0425401
-0.0506816
-0.0725778
-0.0678457
-0.0751591
-0.0752381
-0.0666399
-0.0722161
-0.0495425
-0.0588092
-0.0395315
-0.187216
-0.13362
-0.190858
-0.0262072
-0.0212699
-0.0160521
-0.0823764
-0.177322
-0.0466306
-0.14667
-0.0259309
-0.112092
-0.00444217
-0.031926
-0.0590738
-0.0329324
-0.052364
0.0683778
-0.0222537
-0.0274574
-0.0152019
-0.0176561
-0.0135234
-0.0139302
-0.0161599
-0.0151993
-0.0183663
-0.017849
-0.0157232
-0.0178071
-0.00934153
-0.0125122
-0.00625342
-0.0071444
-0.00852653
-0.00682057
-0.0165044
-0.0117168
-0.0336804
-0.0237793
-0.0645817
-0.0472616
-0.112064
-0.0867238
-0.154838
-0.137481
-0.137485
-0.154691
-0.0728317
-0.108232
-0.00134789
-0.0308797
-0.0128845
0.0292645
0.0184258
0.0129385
0.00878574
0.0108405
0.012598
0.0148564
0.00547959
0.00868792
0.00465476
0.00367033
0.00591513
0.00558263
0.000348284
0.00422737
-0.0146285
-0.00615526
-0.0395419
-0.0255951
-0.0797345
-0.0577236
-0.13033
-0.105121
-0.160904
-0.150205
-0.143634
-0.157519
-0.0987747
-0.122075
-0.0592939
-0.0774556
-0.0344581
-0.045244
-0.0260758
-0.0698335
-0.0616629
-0.0808945
-0.0769106
-0.0806263
-0.0822398
-0.0690496
-0.0761453
-0.0488723
-0.0596081
-0.0375855
-0.164545
-0.0236401
-0.0109636
-0.00619295
-0.110239
-0.159877
-0.0675764
-0.141495
-0.0392351
-0.112886
-0.0226662
0.00524183
-0.00831421
-0.0792614
-0.0380064
0.003001
0.0420711
0.070036
0.0896701
0.0787296
-0.0117589
-0.0174383
-0.00399017
-0.00699545
-0.00168172
-0.00229953
-0.00283877
-0.00209343
-0.00385731
-0.00366846
-0.00140242
-0.0030815
0.00292103
0.000905042
0.0041919
0.0040519
0.00164636
0.00331091
-0.00511738
-0.00111638
-0.0188042
-0.0109969
-0.0426053
-0.0293187
-0.0787664
-0.0594344
-0.113495
-0.0982938
-0.103333
-0.116703
-0.0449771
-0.0796657
0.0245756
-0.00580066
0.0464656
0.0204851
-0.000844986
0.0103996
0.0164453
0.0261518
0.0233905
0.0298502
0.0286527
0.0254394
0.0274175
0.0232816
0.0234197
0.022378
0.0232415
0.0151146
0.0196639
-4.96606e-05
0.00835982
-0.0233992
-0.0105197
-0.059497
-0.0398259
-0.104982
-0.0822155
-0.133354
-0.123229
-0.118436
-0.130582
-0.079135
-0.0994919
-0.045118
-0.0606513
-0.0233119
-0.0323645
-0.0160425
-0.0661757
-0.0413587
-0.05401
-0.083421
-0.075642
-0.0922104
-0.0894019
-0.0887782
-0.0921886
-0.0737839
-0.0825256
-0.0504516
-0.0627986
-0.0247749
-0.037424
-0.00343941
-0.0133968
-0.13706
-0.0894484
-0.129213
-0.0561395
-0.112703
-0.00291871
0.00547484
0.00653706
-0.0385797
-0.0241967
-0.0139953
0.00260619
-0.00932826
-0.0880651
-0.0553764
-0.0194028
0.0183733
0.0550588
-0.0294405
0.100028
0.0889777
0.111161
-0.054856
-0.0407505
-0.0142839
-0.0216676
-0.00202402
-0.00783794
0.00604166
0.00254994
0.00872549
0.00775698
0.00866323
0.00896596
0.00843925
0.00837393
0.0105504
0.00926541
0.0131665
0.0120744
0.0132171
0.0135344
0.0107265
0.012238
0.00514874
0.00840075
-0.00536181
0.000551844
-0.0226627
-0.0131001
-0.0480227
-0.0345374
-0.0726356
-0.0616771
-0.0689266
-0.0753228
-0.0202521
-0.0502388
0.0440376
0.0145513
0.0851581
0.0665666
0.110996
0.100428
0.0198045
-0.00741296
0.00408395
0.0127444
0.0299457
0.0254907
0.0366967
0.033539
0.0419299
0.0396636
0.0404848
0.0414453
0.0384783
0.0392127
0.0359524
0.0375555
0.0281558
0.0328019
0.0138439
0.0216866
-0.00703203
0.00434933
-0.0381842
-0.0212733
-0.0776253
-0.0577658
-0.103351
-0.0939016
-0.091267
-0.10133
-0.0586728
-0.0754482
-0.0308494
-0.0431897
-0.0123354
-0.019929
-0.00107956
-0.00598863
0.00285771
-0.0815375
-0.0685985
-0.0995065
-0.0915058
-0.106675
-0.104975
-0.0994363
-0.104891
-0.0804212
-0.0910832
-0.0541976
-0.0678583
-0.0259933
-0.0398012
-0.0137564
-0.11109
0.118203
0.115814
0.118961
-0.0740088
-0.104404
-0.00377533
0.00646845
-0.0521646
-0.0391232
-0.0283156
-0.0227845
-0.0209097
-0.00658858
-0.0202471
-0.0679573
-0.0383359
-0.00347518
0.0326846
0.0651811
0.0990584
-0.0675097
-0.0518365
-0.0197725
0.0147601
0.0133778
-0.0276823
-0.0901993
-0.00490797
-0.0118253
0.00687297
0.00162476
0.0142346
0.0110107
0.0175838
0.0164369
0.0182336
0.018171
0.0185917
0.0183286
0.0202519
0.019357
0.0215269
0.0211138
0.0208914
0.0214182
0.0186865
0.0199689
0.0142998
0.0168182
0.00664558
0.0108899
-0.00517898
0.00127358
-0.0214211
-0.0129112
-0.0363815
-0.0297718
-0.0335001
-0.0380868
0.00352886
-0.0191276
0.0573426
0.0309036
0.0951202
0.0786734
0.115893
0.106923
0.118052
0.123769
0.121111
0.0133249
-0.0196781
-0.0058753
0.00456975
0.0272968
0.0208481
0.0372488
0.0328261
0.0445476
0.0410522
0.0503367
0.0476496
0.0519107
0.0516174
0.0503614
0.0513114
0.0469354
0.0489376
0.0393467
0.0437095
0.0266246
0.0335343
0.00880855
0.0184252
-0.0169797
-0.00300637
-0.0503315
-0.0333662
-0.0727351
-0.0645588
-0.0640436
-0.0718123
-0.0385884
-0.0516703
-0.016093
-0.0264989
-0.00188309
-0.00815758
0.00757259
0.00346259
0.0110685
-0.0972097
-0.083149
-0.117159
-0.108484
-0.12317
-0.122404
-0.111965
-0.119554
-0.0884595
-0.101296
-0.0593765
-0.0741844
-0.0292362
-0.0439853
-0.0157998
-0.0909362
0.0150121
-0.0654157
-0.0515292
-0.0423587
-0.037037
-0.0358943
-0.0363365
-0.0531083
-0.0243675
0.0087243
0.0427281
-0.0363045
-0.0174751
-0.0349337
0.076482
0.107322
0.121079
-0.0340212
-0.0865022
0.121032
-0.0744552
0.0246781
-0.010174
-0.0174099
0.00402568
-0.00161386
0.014815
0.010271
0.0213254
0.0185032
0.0248504
0.0235338
0.0259991
0.025628
0.0267522
0.0263527
0.0278922
0.0273677
0.0282135
0.0282349
0.0273049
0.0278697
0.0254706
0.0265127
0.0221493
0.0240222
0.0168217
0.0197284
0.00924967
0.0132963
6.65239e-05
0.00470929
-0.00665998
-0.00398916
-0.00163035
-0.00621475
0.0258196
0.00958505
0.0664006
0.0458268
0.0983857
0.0847555
0.114608
0.107795
0.118583
0.118376
0.115514
0.109819
0.115983
0.0053544
-0.0297001
-0.0128035
-0.0035626
0.0209414
0.0135825
0.0336975
0.0274955
0.0429962
0.0383486
0.0504704
0.0466731
0.0562645
0.0533711
0.0597239
0.05842
0.059272
0.0598585
0.055892
0.0579075
0.0490276
0.0528775
0.0383072
0.0440832
0.0237531
0.0315468
0.00299411
0.0142939
-0.0250632
-0.0106558
-0.0444858
-0.0373217
-0.0385351
-0.0441499
-0.0198097
-0.0294768
-0.00338902
-0.0109618
0.00822663
0.00277267
0.0151477
0.0117475
0.0201208
0.0181465
0.0223387
0.0218603
-0.0787341
-0.0595792
-0.112576
-0.0964643
-0.13566
-0.125871
-0.140118
-0.140307
-0.125019
-0.134697
-0.0969756
-0.112045
-0.0644597
-0.0808
-0.032803
-0.0481995
-0.00585346
-0.0184836
0.0131893
0.00479573
0.0194686
-0.0776263
-0.0617103
-0.054084
-0.0505601
-0.0509647
-0.0533739
-0.0435371
-0.0154077
0.0174822
-0.0555147
-0.0552971
-0.0508924
0.0510061
0.0847549
0.111902
-0.0218065
-0.0417578
0.117518
0.10103
0.106823
0.0281102
-0.0190057
-0.0151459
0.0242852
-0.0745366
0.0261397
-0.0634286
-7.36084e-05
-0.00823866
0.0125508
0.0066889
0.0217523
0.017483
0.0274138
0.0248283
0.0306999
0.0292938
0.0321798
0.0315608
0.0331121
0.0326703
0.033731
0.0335191
0.0334911
0.0337283
0.0325809
0.0330869
0.0311383
0.0319439
0.0287707
0.0300766
0.0253281
0.0271702
0.0209367
0.0232151
0.0166071
0.0186373
0.0154752
0.0154057
0.0231941
0.0179156
0.0447307
0.0327938
0.0741549
0.0592213
0.0983565
0.0877454
0.110463
0.105734
0.112144
0.11277
0.102519
0.10871
0.0886055
0.0822971
0.093754
0.000401974
-0.0293271
-0.0115935
-0.00608492
0.0143759
0.00748014
0.0274898
0.0208625
0.0385413
0.0332401
0.0472521
0.043027
0.054416
0.0509738
0.0603327
0.0574384
0.064533
0.0627485
0.065448
0.0654126
0.0630135
0.0645955
0.057407
0.0605421
0.0488923
0.0534588
0.0374086
0.0435603
0.0205468
0.0298363
-0.00314174
0.00901251
-0.0194106
-0.0133537
-0.0159535
-0.0195738
-0.00334739
-0.0098911
0.0080876
0.00270062
0.0163129
0.0125279
0.0217162
0.0192623
0.0256889
0.0240589
0.0277428
0.0277626
0.0290563
-0.0871463
-0.0625342
-0.12692
-0.108238
-0.152749
-0.142324
-0.155659
-0.157033
-0.136827
-0.148482
-0.104633
-0.121746
-0.0687499
-0.0866236
-0.0355286
-0.0515759
-0.00811662
-0.0208996
0.0111677
0.00267721
0.0179899
-0.0699212
-0.0625195
-0.0616871
-0.0647501
-0.0706501
-0.0393118
-0.0113845
-0.0765269
-0.0791459
-0.0766614
0.0218912
0.0569045
0.0914509
-0.0672621
0.11278
-0.0527794
0.110082
-0.0150599
-0.034377
0.0944657
0.0687125
0.0735677
0.0297007
-0.00358599
0.00078999
0.0253262
-0.0680741
-0.0235584
-0.0426391
0.0297323
-0.058178
0.00936718
0.00503662
0.0199289
0.0146135
0.0274036
0.0236129
0.0323686
0.0299582
0.0353693
0.0339576
0.0370033
0.0362519
0.0378902
0.0375097
0.0380898
0.038088
0.0376278
0.0379189
0.036853
0.0372631
0.0357816
0.036368
0.0342199
0.0350582
0.0322258
0.0332608
0.0301354
0.0311519
0.0290266
0.0293622
0.0312253
0.0295703
0.040061
0.0347012
0.0577558
0.0477942
0.0798489
0.0688584
0.097239
0.089486
0.105299
0.102507
0.105101
0.106289
0.0946472
0.101072
0.0761293
0.0860388
0.0530792
0.0503558
0.0641448
0.00170338
-0.0167487
-0.00188164
-0.000763626
0.0106288
0.00568272
0.0217635
0.0157962
0.0329612
0.0272796
0.0424244
0.0377453
0.0504747
0.0466021
0.0572804
0.0540085
0.0630801
0.0602861
0.0674491
0.0654969
0.0693401
0.0687527
0.0681579
0.0690952
0.0641695
0.0664454
0.0578612
0.0612649
0.0489199
0.0537849
0.0347905
0.0426464
0.0151145
0.0250612
0.00201497
0.00703968
0.00301949
0.00123572
0.0104456
0.00651247
0.0177299
0.014242
0.0233177
0.0206892
0.0272815
0.0255068
0.0304137
0.028898
0.0321336
0.0317351
0.0318187
-0.0933249
-0.06679
-0.13867
-0.117942
-0.166195
-0.155443
-0.167519
-0.169968
-0.145597
-0.158894
-0.110128
-0.128836
-0.0715962
-0.0906853
-0.0369562
-0.0535685
-0.00914464
-0.0220495
0.0110389
0.00184186
0.01873
-0.0674222
-0.00808284
-0.068673
-0.0756985
-0.0864642
-0.0414429
-0.0980161
-0.10623
-0.107345
-0.0123302
0.0235502
0.0617698
-0.0999802
0.0950598
-0.0833189
0.107714
-0.0612455
0.0979286
-0.0373067
0.078247
-0.0016855
-0.0163409
0.0561792
0.0353571
0.0359431
0.03084
0.0262105
-0.0674654
0.0345081
0.0346244
-0.0595518
0.012969
0.00577171
0.00893711
0.0186326
0.0159723
0.0257958
0.0219972
0.0319321
0.0288863
0.036302
0.0341845
0.0390541
0.0377248
0.0406436
0.0399064
0.0413479
0.0410784
0.0413116
0.0414041
0.0408465
0.0411044
0.0402537
0.0405608
0.0395225
0.0399106
0.0386198
0.0390851
0.0377035
0.0381471
0.0371915
0.0373594
0.0380694
0.0373865
0.0420451
0.0395869
0.051005
0.045886
0.0655876
0.05763
0.0823724
0.0741262
0.0949551
0.0893899
0.100276
0.0985107
0.0979699
0.10018
0.0884631
0.0941271
0.0711903
0.0807007
0.0481993
0.0602695
0.0195576
0.021444
0.0352012
0.00828002
0.00876646
8.4711e-05
0.0104824
0.00905984
0.0119267
0.00981965
0.0186825
0.0145634
0.0279294
0.022871
0.0371434
0.0325872
0.0454863
0.0413912
0.0528613
0.0492978
0.0592804
0.0561726
0.0648208
0.0621601
0.0691395
0.0671614
0.0715545
0.0706205
0.0714496
0.0717931
0.0689832
0.0704563
0.0645473
0.0669903
0.0575249
0.0614396
0.0456527
0.0522322
0.0300438
0.0377761
0.0195015
0.0240063
0.0181398
0.0179445
0.0215297
0.0196014
0.0255977
0.023593
0.029064
0.0274187
0.0319189
0.0305759
0.0339442
0.0329801
0.035027
0.0348291
0.034954
-0.0123261
-0.0503641
-0.0296833
-0.0995193
-0.0737674
-0.14588
-0.124554
-0.173577
-0.162898
-0.173671
-0.176892
-0.149836
-0.164143
-0.112488
-0.13208
-0.0725199
-0.0922788
-0.0370359
-0.0539845
-0.00884541
-0.0219515
0.011866
0.00234018
0.0198161
-0.0708328
0.00256736
0.0346705
-0.0817162
-0.098173
-0.0679959
-0.117165
-0.133758
-0.142622
-0.0490923
-0.0163206
0.0248187
-0.139497
0.0670128
-0.12301
0.0956942
-0.0961022
0.097558
-0.065208
0.0814519
-0.0370484
0.0591401
-0.0139331
0.0366744
0.0121428
0.00248179
0.0177173
0.00358967
-0.00613025
-0.00144354
0.00438288
0.013484
0.0163632
-0.0738923
0.0177977
0.0191039
0.021977
0.0191787
0.0262321
0.0242607
0.031095
0.0287362
0.0357952
0.0335393
0.039445
0.0376874
0.041877
0.0407132
0.0432708
0.042641
0.0437897
0.0436077
0.043686
0.0437871
0.0433204
0.0435128
0.042911
0.0431195
0.0424829
0.0426986
0.0421004
0.0422777
0.0419685
0.0419877
0.042513
0.0421261
0.044543
0.0432954
0.0492543
0.0465193
0.0577039
0.0530298
0.0697969
0.0633645
0.0824949
0.0763243
0.091642
0.0876515
0.0950248
0.0940397
0.0919144
0.0942293
0.0824961
0.0880021
0.0670665
0.0754249
0.0470193
0.0575911
0.0243752
0.0357819
0.0138301
0.0169491
0.0170124
0.0196804
0.0178304
0.0250922
0.0218064
0.0327595
0.0288023
0.0405176
0.036666
0.0479053
0.0442704
0.054627
0.0513566
0.0606071
0.0577007
0.0658182
0.0633089
0.0700041
0.0680606
0.0726424
0.0715315
0.0732798
0.0731962
0.0719527
0.0728219
0.0688738
0.0706247
0.0633299
0.0664783
0.0536862
0.0589804
0.0417418
0.047568
0.0328604
0.0378918
0.0295569
0.0305439
0.0301046
0.0295838
0.0318606
0.0309207
0.0337571
0.0328091
0.0355941
0.0346639
0.0368935
0.0361575
0.0374533
0.0371802
0.0375861
0.0376123
0.0372745
0.0374374
0.0111645
-0.0154242
-0.000196534
-0.0562028
-0.0341139
-0.103461
-0.0792142
-0.147278
-0.126995
-0.173567
-0.163381
-0.172979
-0.176515
-0.148748
-0.163228
-0.11124
-0.130875
-0.0713042
-0.091047
-0.0359087
-0.0527955
-0.00777922
-0.0208896
0.0127789
0.0033946
0.0267817
0.020565
0.0347215
0.0313238
0.0370443
-0.0813671
0.0136079
0.0198412
-0.103368
-0.0881788
-0.130547
-0.157734
-0.177758
-0.0602537
-0.0206085
-0.183981
0.0276318
-0.171611
0.0710879
-0.142078
0.0901299
-0.103578
0.0819399
-0.0653741
0.0613406
-0.0333715
0.0373546
-0.0102351
0.0157638
0.00478259
-0.0115254
-0.000799903
0.0198775
0.00988984
0.0187595
0.0384323
0.0138438
-0.017774
-0.00632036
0.020222
0.0240226
0.0217642
0.0287568
0.0264689
0.0321834
0.0304754
0.03564
0.0339736
0.0390564
0.0373966
0.0419229
0.0405403
0.0439445
0.0429913
0.0450939
0.0445874
0.0454937
0.0453561
0.0454219
0.0454889
0.0451848
0.0453085
0.0449477
0.0450634
0.0447783
0.0448511
0.0447885
0.044753
0.0451997
0.0449302
0.0464082
0.0456814
0.0490518
0.0475211
0.0539239
0.0511923
0.0615582
0.0574228
0.0716655
0.0663768
0.0812101
0.0766044
0.0878484
0.0850031
0.0897707
0.0893895
0.0863562
0.0886819
0.0773444
0.0825523
0.0636064
0.0712128
0.0460535
0.0553096
0.0265027
0.036181
0.0080716
0.0169515
0.000765225
0.0259688
0.0291069
0.0276883
0.0236801
0.0246316
0.0234097
0.0232315
0.0257007
0.0241434
0.030394
0.027779
0.0366549
0.0334345
0.043303
0.0399705
0.0498334
0.0466062
0.0559171
0.052939
0.0614274
0.0587418
0.066284
0.0639386
0.0702676
0.0684006
0.0729661
0.0717792
0.0740655
0.0737062
0.0735122
0.0739679
0.0713662
0.0726351
0.0670054
0.0695061
0.0593394
0.0635322
0.0495828
0.0544922
0.0417681
0.0448236
0.0377537
0.0393794
0.0365212
0.0369052
0.0367026
0.0365066
0.0374549
0.0370332
0.038359
0.0378971
0.0390397
0.0387134
0.0393507
0.0392458
0.0394757
0.0395039
0.0389936
0.0392993
0.0387091
-0.0166596
-0.0015869
-0.0566559
-0.03515
-0.10151
-0.0788804
-0.141809
-0.122988
-0.165968
-0.156562
-0.165389
-0.168763
-0.142411
-0.156162
-0.106576
-0.125378
-0.0681383
-0.0871746
-0.0338265
-0.0502176
-0.00642551
-0.0192158
0.0136097
0.00448093
0.0269115
0.0210252
0.0345859
0.0313592
0.0369073
-0.100237
-0.134899
-0.173298
0.0388951
0.020853
-0.0829784
-0.206922
-0.0718078
-0.226535
-0.0221676
-0.224657
0.0324953
-0.198341
0.0711444
-0.153917
0.0771961
0.0251965
-0.10415
0.061366
0.0214265
-0.0599951
0.0374516
0.0146933
-0.0142698
-0.0289898
-0.0272513
0.0134456
0.00670938
-0.0255354
-0.00599174
-0.00606711
-0.0230102
0.0391735
-0.0102474
-0.00360156
0.0263422
0.0381956
-0.110226
0.0327405
-0.102714
0.0254795
0.0101141
0.0184426
0.0296639
0.0278648
0.0336216
0.0315609
0.0365293
0.0350857
0.0391253
0.0378592
0.0416158
0.0404015
0.0437854
0.0427423
0.0453859
0.0446396
0.046317
0.0459102
0.0466634
0.0465387
0.0466615
0.0466816
0.0465523
0.0466102
0.046471
0.0465039
0.0465139
0.0464724
0.0468124
0.0466239
0.0475843
0.0471278
0.0491734
0.0482604
0.0520644
0.0504391
0.0567632
0.0541867
0.0634799
0.0598985
0.0722718
0.0675601
0.0791027
0.0756633
0.0839364
0.0819106
0.0848222
0.0848695
0.0812495
0.0835607
0.0729872
0.077632
0.0607146
0.0672814
0.0451825
0.0533181
0.0281221
0.03648
0.0115299
0.0197337
0.00332858
0.0311812
0.0325731
0.0287946
0.0296489
0.0289243
0.0283881
0.0307156
0.0294123
0.0346816
0.0325363
0.0398477
0.0371644
0.0455834
0.0426874
0.0513462
0.048485
0.0568299
0.0541321
0.0618749
0.0594098
0.0663616
0.0641909
0.0700723
0.0683293
0.0727593
0.0715554
0.0741133
0.0735939
0.0740557
0.0742418
0.0725454
0.0734798
0.0690737
0.0710776
0.0628885
0.0662775
0.0549102
0.0589447
0.0479083
0.0514661
0.0434309
0.0453712
0.0411872
0.0421043
0.0403471
0.0406478
0.0402625
0.0402445
0.0404925
0.0403576
0.0406965
0.040611
0.0408002
0.0407499
0.0406599
0.0407186
0.0402106
0.0404732
0.0399706
-0.0152379
-0.0011109
-0.0513806
-0.0321087
-0.0925713
-0.0718407
-0.129893
-0.112468
-0.152072
-0.143379
-0.152167
-0.154912
-0.131821
-0.144095
-0.0991936
-0.116409
-0.0635017
-0.0812516
-0.0311284
-0.046647
-0.0050058
-0.0172248
0.014194
0.00543365
0.0267757
0.0212353
0.0342535
0.0310615
0.0365672
-0.128172
-0.176335
-0.0192123
0.038607
0.0377779
-0.224043
-0.123813
-0.259691
-0.079868
-0.27252
-0.0190109
-0.256216
0.0372504
-0.213183
0.063496
0.0314665
0.0258849
-0.154684
0.0571099
0.0207722
-0.0165044
-0.0309229
-0.0966268
0.0356793
0.0154733
-0.0382046
-0.0503883
0.0100742
0.00844051
-0.0398184
-0.0195884
-0.0124031
-0.13896
-0.00185161
0.0329659
0.036841
0.0385183
0.0245555
0.0300018
0.0296271
0.0332942
0.0316632
0.036882
0.0351746
0.0395582
0.0383169
0.0415966
0.0406119
0.043453
0.0425475
0.0450886
0.0443037
0.0463348
0.0457557
0.0470975
0.0467618
0.047432
0.0473023
0.0475078
0.0474843
0.0475149
0.0475125
0.0475702
0.0475317
0.0477804
0.0476513
0.0482824
0.0479885
0.0492786
0.0487097
0.0510564
0.050059
0.0539702
0.0523633
0.0583157
0.0559724
0.0640532
0.0610506
0.0699408
0.0671907
0.0765254
0.0736803
0.0801048
0.0786605
0.0803014
0.0806218
0.0766941
0.078945
0.0691832
0.0733637
0.0583526
0.0641033
0.0448179
0.0518705
0.030188
0.0373635
0.0159421
0.0230565
0.00351433
0.00913528
-0.00561778
-0.0010424
-0.0226916
0.0363314
0.0361797
0.0353402
0.0361543
0.0332912
0.0342309
0.0332626
0.033097
0.0348751
0.0338484
0.0381411
0.0363661
0.0424778
0.040209
0.0474362
0.0449192
0.0525212
0.0499852
0.0574501
0.0550158
0.0620443
0.0597946
0.0661612
0.0641667
0.0696002
0.0679763
0.0721839
0.0710121
0.0736385
0.0730447
0.0738644
0.0738917
0.0727527
0.0734739
0.0698806
0.0715473
0.0647143
0.0675521
0.0577548
0.0613659
0.0515043
0.0538698
0.047223
0.0492089
0.0444839
0.0456849
0.0430109
0.0436302
0.0423394
0.0426077
0.0420759
0.0421778
0.0419252
0.0419976
0.0417319
0.0418385
0.0413442
0.0415496
0.0409151
0.0410955
0.0399054
0.0411977
0.0238085
0.0113214
0.0188611
-0.0110857
0.00132933
-0.0426154
-0.0257852
-0.0793056
-0.0607552
-0.113285
-0.0973272
-0.133923
-0.125707
-0.135349
-0.137088
-0.118583
-0.128881
-0.0901923
-0.105309
-0.0581011
-0.0741715
-0.028237
-0.0426368
-0.00369847
-0.0152208
0.0145438
0.00620018
0.0264935
0.0212502
0.0337408
0.0305777
0.036084
-0.164655
-0.0371353
0.0263916
0.0382969
-0.224368
-0.170697
-0.02818
-0.27644
-0.141043
-0.306682
-0.0809233
-0.305024
-0.0119776
0.0406856
0.0348263
-0.0143698
-0.270378
0.0367975
0.0267393
-0.0251549
-0.211135
0.0461961
0.0201306
-0.03737
-0.14263
0.0303446
0.0151814
-0.0473279
-0.0819377
0.00504978
0.00920471
-0.0529002
-0.0379698
-0.0204327
0.00133005
-0.0545165
-0.0123506
0.0435466
0.0457146
0.028309
0.0307371
0.048875
0.0326355
0.0307515
0.0358495
0.0339921
0.039061
0.0374422
0.0414942
0.0403384
0.0432104
0.0423883
0.0446514
0.0439486
0.0459127
0.0453066
0.0468993
0.0464396
0.0475448
0.0472558
0.0478874
0.0477462
0.0480378
0.0479745
0.0481466
0.0480912
0.048318
0.04822
0.0486566
0.0484619
0.049296
0.0489331
0.0504176
0.0497896
0.0522553
0.0512402
0.0550608
0.0535352
0.0589858
0.0568966
0.0638744
0.0613475
0.069022
0.066478
0.0738735
0.0718847
0.0764736
0.0754554
0.0762183
0.0767043
0.0726997
0.0748418
0.0659147
0.0696592
0.0563974
0.0614315
0.0447321
0.0507686
0.0322268
0.0384505
0.0202217
0.0260031
0.0103556
0.0148926
0.0016814
0.00593906
0.0417688
0.043402
0.0400487
0.0405773
0.0388698
0.0395597
0.037328
0.0380361
0.0369024
0.0368103
0.0382954
0.0374435
0.0409768
0.0395055
0.0446515
0.0427201
0.0489389
0.0467524
0.053424
0.0511777
0.0578413
0.0556528
0.0620051
0.0599618
0.0657621
0.0639395
0.0689409
0.0674297
0.071354
0.0702483
0.0728011
0.0721936
0.0731548
0.0731058
0.072265
0.0728633
0.0697831
0.0712256
0.065352
0.0677849
0.0593303
0.062473
0.0537689
0.0559917
0.0496794
0.0516229
0.0467363
0.0480716
0.0448891
0.0457052
0.0438178
0.044285
0.0431929
0.0434702
0.04275
0.0429614
0.0422911
0.0425299
0.0416672
0.0419969
0.0406426
0.0412206
0.0397694
0.0395044
0.038278
0.0384497
0.0392025
0.0283719
0.0235272
0.0261302
0.0132232
0.0194549
-0.00559982
0.00478064
-0.032489
-0.0180742
-0.0644988
-0.0482455
-0.0947116
-0.0803899
-0.114051
-0.106142
-0.117206
-0.117729
-0.104454
-0.112556
-0.0807576
-0.0935455
-0.0526735
-0.0668752
-0.0255904
-0.0387565
-0.00273577
-0.0135297
0.0145631
0.00662092
0.026087
0.0210142
0.0331306
0.0300385
0.0370066
0.0353913
0.0379457
-0.205994
-0.0389986
0.0307948
-0.271874
-0.199066
-0.0502943
0.0317982
0.0315792
0.0377423
0.0376947
-0.320329
-0.148707
0.0530006
0.0472892
-0.336262
-0.0745734
0.0373986
-0.000832452
-0.0112877
-0.314521
-0.0059209
0.0277709
-0.0259776
-0.26134
0.0257484
0.0194494
-0.0405189
-0.191634
0.0194064
0.0137754
-0.0544948
-0.119873
-0.0031848
0.00874663
-0.064905
-0.0617585
-0.0304113
0.00279785
-0.0706083
-0.0252973
-0.0527721
-0.00661407
0.0284917
0.05813
0.0580942
0.0630292
0.0296943
0.0339926
0.032535
0.0372635
0.0355329
0.0402629
0.0387861
0.0425439
0.0414749
0.0441146
0.0433786
0.0453254
0.0447436
0.0463467
0.0458568
0.0471598
0.0467787
0.0477306
0.0474696
0.0480888
0.0479375
0.0483086
0.0482073
0.0485063
0.0484052
0.0487734
0.0486272
0.0492084
0.0489659
0.0499354
0.0495307
0.0511135
0.050463
0.0529294
0.0519381
0.0555564
0.0541435
0.0590526
0.0572108
0.0632114
0.0610827
0.0674225
0.0653635
0.0711274
0.0691856
0.0731063
0.072387
0.0725571
0.0731398
0.0692107
0.0712106
0.0631263
0.0664594
0.0547561
0.0591748
0.0447097
0.0498702
0.034098
0.03941
0.0240793
0.0288324
0.0160847
0.0196364
0.00867903
0.0121915
0.00665516
0.00679434
0.00327263
0.0106718
0.00788786
0.0092671
0.0167348
0.0503712
0.0537526
0.0460081
0.0479833
0.043741
0.0446417
0.0419956
0.0427928
0.0405748
0.0411568
0.0400848
0.0401441
0.0411533
0.0404755
0.0433484
0.0421337
0.0464575
0.0448159
0.0501583
0.0482623
0.0541071
0.0521216
0.0580526
0.0560924
0.0618097
0.0599626
0.06522
0.0635636
0.0681276
0.066741
0.0703511
0.069328
0.0717226
0.07114
0.072103
0.0720311
0.0713252
0.0718562
0.0691108
0.0703951
0.0652465
0.0673593
0.0600519
0.0627609
0.0550918
0.0571952
0.0511976
0.0530673
0.0482061
0.0495907
0.0461502
0.0470827
0.0448115
0.0454152
0.0439199
0.0443292
0.0432333
0.0435642
0.0425522
0.0428974
0.0417324
0.0421576
0.0406644
0.0412076
0.0395801
0.0399759
0.0382965
0.0390225
0.0243812
0.0268469
0.0155699
0.0207228
8.49135e-05
0.00869084
-0.0225447
-0.0103824
-0.0499842
-0.0359827
-0.0764941
-0.0637927
-0.0946834
-0.0869944
-0.0996613
-0.0989324
-0.0909154
-0.096832
-0.0719004
-0.0823605
-0.0478413
-0.0601648
-0.0235465
-0.0354794
-0.00231739
-0.0124207
0.0141661
0.00655428
0.0254388
0.0204445
0.0323171
0.0293124
0.0361274
0.0345275
0.037228
-0.245007
0.0678722
0.06403
-0.0718538
0.0311043
0.0304047
0.0374591
-0.308935
-0.216861
0.0523178
-0.0661228
0.0289784
0.0297427
0.0269776
0.0170379
0.0720933
0.0728688
0.0777275
-0.344698
-0.145969
0.0785177
0.0659524
0.0729644
0.0403741
-0.00696904
-0.33949
-0.0646827
0.0291632
-0.0240586
-0.297321
-0.0087366
0.019536
-0.0409054
-0.230782
0.00156278
0.0120113
-0.0586816
-0.15656
-0.01621
0.00689919
-0.0735188
-0.0895251
-0.0437852
0.00241616
-0.0850995
-0.0412521
-0.06943
-0.00334843
-0.0917955
-0.0151219
0.0298977
0.0322465
0.0328074
0.0303295
0.0317503
0.0351648
0.0341781
0.0379298
0.0364745
0.0407614
0.0393919
0.042958
0.0419398
0.0444747
0.0437735
0.0455816
0.0450581
0.0464679
0.0460447
0.0471751
0.0468412
0.0476989
0.0474563
0.0480762
0.0478876
0.0483644
0.0482275
0.0486392
0.0484989
0.0489843
0.0487995
0.0494905
0.0492137
0.0502694
0.0498419
0.0514581
0.0508089
0.0532039
0.0522599
0.055622
0.0543331
0.0587117
0.0570979
0.0622537
0.0604546
0.0657476
0.0640445
0.0686315
0.0672587
0.0700384
0.0695599
0.0692987
0.0699327
0.0661724
0.0680114
0.0607551
0.0637096
0.0534038
0.0572747
0.0447332
0.0491666
0.0356868
0.0402079
0.0272892
0.0313065
0.0206052
0.0237452
0.0152818
0.017591
0.0145407
0.0141337
0.0192225
0.0158718
0.0242599
0.0623676
0.0671029