/*--------------------------------*- C++ -*----------------------------------*\
  =========                 |
  \\      /  F ield         | OpenFOAM: The Open Source CFD Toolbox
   \\    /   O peration     | Website:  https://openfoam.org
    \\  /    A nd           | Version:  10
     \\/     M anipulation  |
\*---------------------------------------------------------------------------*/
FoamFile
{
    format      ascii;
    class       volScalarField;
    location    "8";
    object      p;
}
// * * * * * * * * * * * * * * * * * * * * * * * * * * * * * * * * * * * * * //

dimensions      [0 2 -2 0 0 0 0];

internalField   nonuniform List<scalar> 
33313
(
-0.0130146
-0.0138282
-0.00891159
-0.0152632
-0.00142418
-0.000542947
-0.00162057
0.00942317
0.00819556
-0.0110877
-0.00681284
-0.372604
-0.375534
-0.374305
0.038614
0.0222644
0.0423981
-0.23889
-0.327462
-0.281113
-0.200897
0.783297
0.702406
0.8456
0.851029
0.176906
0.181956
0.184091
0.194246
0.185495
0.197257
0.199778
0.228988
-0.403013
-0.414372
-0.404028
-0.386468
-0.0186754
-0.0252077
-0.243918
-0.233609
0.289243
0.274469
-0.387613
-0.385976
-0.405275
0.736843
0.816083
-0.0156669
-0.0152104
0.194319
0.222729
0.202624
0.249556
0.141868
0.166599
0.413669
0.535914
0.471747
0.379489
0.429198
0.845453
0.909235
0.93758
-0.022046
-0.0419632
-0.258418
-0.106654
-0.108566
-0.414071
-0.42624
-0.41791
-0.350184
-0.268416
-0.39032
-0.378158
-0.363694
-0.367641
-0.151626
-0.202806
0.559791
0.548266
0.572055
-0.315983
-0.333349
-0.356641
-0.450404
-0.430168
-0.428466
0.926768
-0.354006
-0.359009
-0.352067
-0.344883
-0.348345
0.182298
0.171704
-0.00136471
-0.00321309
-0.190874
-0.172628
-0.233145
-0.268847
-0.264807
-0.29027
-0.419326
-0.458798
-0.449789
-0.420169
-0.0396849
0.137318
0.0826076
-0.0496444
-0.606285
-0.714834
-0.554239
0.912709
0.869608
-0.257314
-0.254535
-0.367087
-0.367922
-0.366707
-0.0214698
-0.018844
-0.0358352
0.332993
-0.130819
-0.128431
-0.411037
-0.42759
-0.341834
-0.345398
0.105037
0.088139
-0.0327571
0.0358518
-0.074613
0.0100232
0.219899
0.114268
0.333124
-0.120213
-0.119372
-0.133293
0.0195422
0.0148753
0.0148607
0.0106959
0.317188
0.298164
0.325949
0.310558
0.431715
0.436468
0.405215
0.409587
-0.372372
-0.407766
-0.398524
-0.350252
0.0941904
0.133345
0.258906
0.149386
-0.34886
-0.359746
-0.360746
-0.441843
-0.0105053
-0.00915647
0.0366134
0.0357665
0.0253723
0.0244505
0.17636
0.159954
-0.412165
-0.427984
-0.0608901
-0.0697247
-0.0160367
-0.0193832
0.134732
0.134684
-0.398687
-0.406505
-0.442391
-0.460779
-0.438228
-0.404298
0.544049
0.518682
-0.469196
-0.481559
0.417911
0.437986
0.440678
0.365734
0.388669
0.379601
0.56794
0.543859
0.131611
0.137531
-0.372488
-0.371893
-0.137512
-0.246535
0.150874
0.145897
-0.00533445
-0.00156389
-0.00500635
-0.00765535
0.0343965
-0.351358
-0.361633
0.343589
0.346828
0.325866
0.320918
-0.238058
-0.240415
-0.221469
0.173077
0.193291
0.163738
-0.399696
-0.397392
-0.399687
-0.089629
-0.0449921
0.0387285
0.0230812
0.0216331
-0.435985
0.248657
0.0602877
0.058315
0.0565574
0.0547577
0.0528936
0.051119
0.0493836
0.0477224
0.0461327
0.0446026
0.0431323
0.0417171
0.0403586
0.0390516
0.0377971
0.0365904
0.0354326
0.0343192
0.0332511
0.0322241
0.0312384
0.0302911
0.0293805
0.0285072
0.0276647
0.0268651
0.0260795
0.0253218
0.0245985
0.0238675
0.0231839
0.0225217
0.0603141
0.0628233
0.0627056
0.0626222
0.0212523
0.02187
0.0232404
0.0219171
0.0225768
0.0246223
0.0239181
0.0261531
0.0253873
0.0277639
0.0269512
0.0294959
0.028615
0.0313681
0.0304144
0.0333929
0.032361
0.0355826
0.0344666
0.0379492
0.0367433
0.0405038
0.0392026
0.0432581
0.0418554
0.0462199
0.0447138
0.049379
0.0477737
0.0529242
0.0510736
0.0565738
0.0547298
0.0583144
0.0649997
0.0648303
0.0213509
0.064913
0.0207597
0.0206839
0.0672071
0.0670166
0.0207724
0.0212484
0.0672078
0.0206501
0.0690194
0.069513
0.0693609
0.0622865
0.066984
0.0646199
0.058279
0.0601922
0.0544543
0.056475
0.0507954
0.052587
0.0474336
0.049081
0.04433
0.0458514
0.0414624
0.0428681
0.0388148
0.0401123
0.0363727
0.0375692
0.0341216
0.0352244
0.032047
0.0330634
0.0301339
0.0310712
0.0283668
0.0292325
0.0267258
0.0275296
0.0252166
0.025924
0.0238093
0.0244862
0.0224791
0.0231372
0.0218558
0.0201805
0.0200613
0.0201244
0.021985
0.020783
0.0213929
0.0232411
0.02259
0.0246419
0.0239409
0.026159
0.0253842
0.0277754
0.0269543
0.0295126
0.0286284
0.0313876
0.0304325
0.0334129
0.0323811
0.0355996
0.0344857
0.0379585
0.0367573
0.0404991
0.0392058
0.0432322
0.0418411
0.0461672
0.044675
0.0492977
0.0477072
0.052742
0.0509654
0.0564264
0.0546114
0.0601332
0.0582463
0.0644655
0.0622704
0.0690103
0.0667742
0.0201894
0.0693607
0.0715413
0.0712405
0.0195205
0.0199987
0.019454
0.071838
0.0207588
0.0201852
0.0201658
0.0717191
0.0717499
0.0665091
0.071204
0.0689016
0.061936
0.0641867
0.0579875
0.0599228
0.0540999
0.056066
0.0504432
0.0522154
0.047122
0.0487519
0.0440431
0.0455527
0.0411983
0.0425927
0.038572
0.039859
0.0361507
0.0373369
0.0339204
0.0350128
0.0318664
0.0328725
0.0299729
0.0309007
0.0282229
0.0290811
0.0265971
0.0273955
0.0251
0.0258274
0.0237145
0.0243861
0.0224055
0.0230499
0.0211812
0.0217847
0.020577
0.0196157
0.0195727
0.0196194
0.0196264
0.0219703
0.0213645
0.0232351
0.0225964
0.0246326
0.0239142
0.0261307
0.0253639
0.027745
0.0269235
0.0294808
0.0285971
0.0313518
0.0303989
0.0333698
0.0323421
0.035545
0.0344375
0.0378864
0.0366948
0.040402
0.0391223
0.043101
0.0417283
0.0459934
0.0445232
0.0490853
0.0475133
0.0524345
0.0507226
0.0560531
0.0542257
0.0598438
0.0579374
0.0640005
0.0618455
0.0684005
0.0661969
0.0736097
0.0729883
0.0706364
0.0741688
0.0736895
0.0742905
0.0739966
0.0195984
0.075409
0.0761406
0.0189934
0.0189242
0.0199235
0.076746
0.0763135
0.0193767
0.0742215
0.0704536
0.0753141
0.0728154
0.0657801
0.0681354
0.0614105
0.0635755
0.0573874
0.0593628
0.0535346
0.0554514
0.0499729
0.0517097
0.0467024
0.0483078
0.0436675
0.0451562
0.0408609
0.0422368
0.0382685
0.039539
0.035878
0.0370491
0.0336762
0.0347546
0.0316487
0.0326418
0.0297798
0.0306957
0.0280527
0.0288998
0.0264516
0.0272376
0.0249704
0.0256976
0.0235954
0.024272
0.022298
0.0229366
0.0210856
0.0216843
0.0204929
0.0190771
0.0190415
0.0190818
0.0190885
0.020713
0.0195694
0.0201311
0.0219217
0.0213078
0.0232021
0.0225534
0.0245844
0.0238738
0.0260748
0.0253146
0.0276801
0.0268627
0.0294075
0.0285281
0.0312677
0.0303207
0.0332709
0.0322512
0.0354259
0.0343293
0.0377403
0.0365632
0.0402206
0.0389597
0.0428746
0.0415258
0.0457112
0.04427
0.0487452
0.0472022
0.052009
0.0503473
0.0555212
0.0537337
0.0592996
0.0573813
0.0633374
0.0612858
0.0676356
0.0654836
0.0721528
0.0698654
0.0779346
0.0769692
0.0744955
0.0190602
0.078768
0.0778164
0.0768706
0.0766286
0.0188465
0.0795247
0.0757725
0.0782613
0.0793037
0.078729
0.0805953
0.0814548
0.0195195
0.0190264
0.0189792
0.0804233
0.0768749
0.0739983
0.0790423
0.0764906
0.0692952
0.0716171
0.0648036
0.0670314
0.0605506
0.0626554
0.0565542
0.0585175
0.0528211
0.0546563
0.0493618
0.0510568
0.0461616
0.0477322
0.0431918
0.044649
0.0404412
0.0417902
0.0378974
0.0391444
0.0355495
0.0366999
0.0333855
0.0344455
0.0313918
0.0323685
0.0295532
0.0304544
0.0278538
0.0286873
0.0262792
0.027052
0.0248177
0.0255354
0.0234555
0.0241259
0.0221768
0.0228055
0.0209755
0.0215636
0.0198392
0.0203903
0.0187602
0.0192902
0.0184788
0.0183385
0.0184152
0.0185601
0.0185266
0.0185577
0.0185677
0.0184931
0.0185322
0.020652
0.0200807
0.0218529
0.0212418
0.0231327
0.0224828
0.0245058
0.0238057
0.0259862
0.0252325
0.0275781
0.0267678
0.0292902
0.0284188
0.0311317
0.0301945
0.0331112
0.032104
0.0352364
0.0341555
0.0375136
0.036356
0.0399483
0.0387112
0.0425472
0.0412271
0.0453189
0.0439112
0.0482806
0.0467747
0.0514565
0.0498416
0.0548585
0.0531276
0.0585314
0.0566593
0.0624953
0.0604791
0.0666871
0.0645749
0.0711093
0.0688792
0.0733972
0.0821642
0.080819
0.0182474
0.0830012
0.0814877
0.0795885
0.0793156
0.0184519
0.0820836
0.0814957
0.0841527
0.08337
0.0834646
0.0849345
0.0857258
0.0186665
0.0181511
0.0841446
0.0796221
0.0771465
0.0820623
0.0796317
0.0724035
0.0747719
0.0678551
0.0701025
0.0635453
0.0656913
0.0594103
0.0614468
0.0555489
0.0574446
0.0519582
0.0537221
0.048612
0.050255
0.0455049
0.0470299
0.0426187
0.0440354
0.0399405
0.0412546
0.0374593
0.0386761
0.0351657
0.0362899
0.0330491
0.0340863
0.0310968
0.0320535
0.0292943
0.030178
0.0276267
0.0284448
0.0260798
0.0268392
0.0246406
0.0253476
0.0232966
0.0239576
0.0220351
0.022656
0.0208473
0.021431
0.0197329
0.0202735
0.0191899
0.0178344
0.0176443
0.0177437
0.0179765
0.0179148
0.0180538
0.018025
0.0180472
0.0180578
0.017987
0.0180212
0.0179401
0.0194542
0.0183941
0.0189187
0.0205745
0.0200081
0.0217666
0.021162
0.0230379
0.0223919
0.0244005
0.0237074
0.0258651
0.0251198
0.0274384
0.0266379
0.0291283
0.0282685
0.0309427
0.0300197
0.0328892
0.0318993
0.0349743
0.0339144
0.0372036
0.0360709
0.0395822
0.0383742
0.0421165
0.0408298
0.0448151
0.0434449
0.0476944
0.0462311
0.0507756
0.0492094
0.0540712
0.0523957
0.0576135
0.0558092
0.0614394
0.059491
0.0655293
0.0634561
0.0698239
0.0676399
0.0743882
0.0720571
0.0792338
0.0767692
0.0861564
0.0843867
0.0817809
0.0862836
0.0839775
0.0824415
0.0821526
0.0870504
0.089012
0.0848542
0.0843777
0.0869258
0.0862565
0.0171623
0.0175405
0.0170601
0.0881302
0.087799
0.0887078
0.0178776
0.0862508
0.0824865
0.0794512
0.0834593
0.0814136
0.0749979
0.0772943
0.0704771
0.0727115
0.0661624
0.068308
0.0620116
0.0640645
0.0580739
0.0600119
0.054391
0.0562009
0.050951
0.0526427
0.0477346
0.0493152
0.0447395
0.0462104
0.0419521
0.043321
0.0393606
0.0406327
0.0369542
0.0381348
0.0347264
0.0358189
0.032667
0.0336766
0.0307639
0.0316969
0.0290036
0.029867
0.0273721
0.0281728
0.0258556
0.0266004
0.0244417
0.0251367
0.0231191
0.0237698
0.0218763
0.0224882
0.0207046
0.0212812
0.0196039
0.0201411
0.0185599
0.0190694
0.0180435
0.017349
0.0172607
0.0174847
0.0174231
0.0175542
0.017528
0.0175519
0.0175612
0.0174961
0.0175302
0.0183192
0.0178098
0.0173858
0.0174439
0.0193708
0.0188418
0.0204809
0.0199164
0.0216618
0.0210625
0.0229206
0.022281
0.0242681
0.0235829
0.0257128
0.0249779
0.0272619
0.0264741
0.0289226
0.0280781
0.0307016
0.0297971
0.0326055
0.0316378
0.0346404
0.0336065
0.0368116
0.035709
0.0391246
0.0379504
0.0415858
0.0403366
0.0442041
0.0428749
0.0469941
0.0455768
0.0499741
0.0484598
0.053159
0.0515403
0.0565698
0.0548349
0.0602328
0.0583691
0.0641594
0.062164
0.0683177
0.0662135
0.0727042
0.070464
0.0774028
0.0750242
0.0823368
0.0797695
0.0897982
0.0873224
0.0847974
0.0885953
0.0856031
0.0919237
0.092516
0.08991
0.0853517
0.0850955
0.0878352
0.0873666
0.0167011
0.0166002
0.089638
0.0892725
0.0908294
0.0908071
0.0912411
0.017317
0.087699
0.090959
0.0949428
0.0954285
0.0925888
0.089636
0.084253
0.0174279
0.0169514
0.0859049
0.085448
0.0804172
0.0823373
0.0766005
0.0784679
0.0725146
0.0745861
0.0682803
0.070388
0.0641996
0.0662198
0.0602928
0.0622227
0.0565865
0.0584134
0.0530963
0.0548145
0.0498186
0.0514318
0.0467461
0.048257
0.0438757
0.0452863
0.0411979
0.0425136
0.0387054
0.0399288
0.0363835
0.0375224
0.0342318
0.0352874
0.0322387
0.0332163
0.0303927
0.0312983
0.0286808
0.029521
0.02709
0.0278713
0.0256075
0.0263361
0.0242219
0.0249034
0.0229228
0.0235623
0.0217003
0.0223025
0.0205467
0.0211148
0.0194589
0.0199926
0.018431
0.0189349
0.0179231
0.016876
0.0167921
0.0170024
0.016947
0.017066
0.0170414
0.0170696
0.0170752
0.0170123
0.0170488
0.0169041
0.0169656
0.0894413
0.0952303
0.091932
0.0168328
0.0182303
0.0172345
0.0177297
0.0192692
0.0187452
0.0203694
0.0198117
0.0215375
0.0209448
0.0227811
0.0221495
0.0241094
0.0234343
0.02553
0.0248079
0.0270496
0.0262773
0.0286743
0.0278487
0.0304099
0.0295281
0.0322625
0.0313215
0.034238
0.0332348
0.0363424
0.035274
0.0385818
0.0374451
0.0409633
0.0397546
0.0434956
0.0422102
0.0461913
0.0448224
0.0490653
0.0476055
0.0521323
0.0505741
0.0554079
0.0537434
0.0589064
0.057129
0.0626391
0.0607432
0.0666036
0.0645947
0.0707962
0.0686692
0.0752123
0.0729828
0.0799752
0.0775641
0.084638
0.0822698
0.0870239
0.0884055
0.0881456
0.0164907
0.0908082
0.0904705
0.0926232
0.0923932
0.0937185
0.0938906
0.093982
0.0931992
0.0875015
0.0915344
0.0980759
0.0983661
0.0943697
0.0979539
0.0167555
0.0889495
0.0833151
0.0171433
0.0166671
0.0845152
0.0885221
0.0805864
0.0820227
0.0771036
0.0788434
0.0735289
0.0752872
0.0697714
0.0716795
0.0658643
0.0678135
0.0620807
0.0639531
0.0584484
0.0602455
0.0549791
0.0566924
0.0516894
0.0533114
0.0485849
0.0501142
0.0456645
0.0471019
0.0429265
0.0442732
0.0403655
0.0416245
0.0379753
0.0391496
0.0357506
0.0368429
0.0336837
0.0346982
0.0317652
0.0327068
0.0299834
0.0308581
0.028326
0.0291401
0.0267805
0.0275401
0.0253356
0.0260463
0.0239811
0.0246478
0.0227078
0.023335
0.0215074
0.022099
0.0203731
0.0209321
0.0193008
0.0198287
0.0182845
0.0187832
0.0173089
0.0177858
0.0163741
0.0168348
0.0162552
0.0160458
0.0161542
0.0164189
0.0163437
0.0165327
0.016483
0.0165916
0.0165684
0.0165969
0.0166011
0.0165447
0.0165784
0.0164385
0.0164986
0.0162901
0.0163695
0.0181265
0.0176326
0.0191532
0.0186315
0.0202411
0.0196897
0.0213941
0.0208092
0.0226197
0.0219975
0.0239254
0.0232622
0.0253179
0.0246106
0.0268029
0.0260487
0.0283854
0.0275818
0.0300707
0.0292151
0.0318644
0.0309538
0.0337729
0.0328041
0.0358034
0.0347726
0.0379634
0.036867
0.0402604
0.0390945
0.0427027
0.041463
0.0453005
0.0439817
0.0480652
0.0466615
0.0510085
0.049514
0.0541427
0.0525514
0.057476
0.0557845
0.0610128
0.059219
0.0647558
0.0628588
0.0687072
0.0667065
0.072866
0.0707578
0.0772818
0.0750573
0.0816823
0.0794698
0.0861545
0.0838903
0.090632
0.0883828
0.0968157
0.0928078
0.0159305
0.0915291
0.0912968
0.0162053
0.0940002
0.0936688
0.0957706
0.0956169
0.0966869
0.0970997
0.0965749
0.095495
0.0933515
0.0855089
0.090275
0.101234
0.101361
0.100752
0.0993737
0.0949241
0.0862673
0.0807007
0.0162515
0.0158078
0.0811807
0.0916787
0.0790364
0.0800039
0.0766852
0.0779886
0.0735814
0.0752075
0.0703157
0.0719714
0.0668853
0.068634
0.0633355
0.0651073
0.0598689
0.0615886
0.0565119
0.0581763
0.0532811
0.0548793
0.050198
0.0517204
0.0472728
0.0487155
0.0445088
0.0458706
0.0419073
0.0431878
0.0394674
0.0406674
0.0371851
0.0383071
0.0350624
0.0361053
0.0330864
0.0340566
0.0312486
0.0321511
0.0295372
0.030378
0.0279395
0.028725
0.026444
0.0271798
0.0250402
0.0257313
0.0237196
0.0243701
0.0224744
0.0230881
0.0212978
0.0218779
0.020184
0.0207333
0.0191281
0.0196488
0.0181249
0.0186193
0.0171717
0.0176379
0.0167074
0.0156085
0.0153689
0.0154927
0.0158141
0.0157181
0.0159718
0.0159001
0.0160753
0.0160297
0.0161307
0.0161089
0.0161361
0.0161397
0.0160896
0.0161199
0.0159892
0.0160444
0.015845
0.0159212
0.0903543
0.097041
0.0921386
0.0157572
0.0170373
0.0161105
0.0165687
0.0180061
0.0175187
0.0190219
0.0185065
0.0200958
0.0195516
0.0212319
0.0206558
0.0224368
0.0218255
0.0237169
0.0230672
0.0250777
0.024387
0.0265236
0.0257899
0.0280588
0.0272799
0.029688
0.0288615
0.0314168
0.0305397
0.0332527
0.032321
0.0352045
0.0342137
0.0372812
0.0362269
0.0394908
0.0383691
0.0418405
0.0406479
0.0443378
0.0430704
0.0469903
0.0456443
0.049806
0.0483774
0.0527932
0.051278
0.0559571
0.0543532
0.059298
0.0576058
0.0628152
0.0610347
0.0665081
0.0646407
0.0703773
0.0684184
0.0744324
0.072389
0.0785157
0.076482
0.0826356
0.0805916
0.0866019
0.0846656
0.0884977
0.0947936
0.0945469
0.0972821
0.0969689
0.0989275
0.0989245
0.0149515
0.0152436
0.0148278
0.0995491
0.100379
0.0991815
0.0976594
0.0950921
0.0914373
0.0814144
0.0868268
0.104508
0.104457
0.103585
0.101844
0.0938381
0.0991047
0.0156597
0.0813256
0.0760872
0.0159998
0.0155576
0.0757098
0.0949479
0.0759182
0.0761717
0.0746527
0.0753854
0.0726239
0.0737382
0.0699744
0.0713502
0.0670266
0.0685256
0.063929
0.0654951
0.0607491
0.062341
0.057597
0.059166
0.0545124
0.0560448
0.0515214
0.0530036
0.0486472
0.0500687
0.0459032
0.0472585
0.0432969
0.0445826
0.0408337
0.0420473
0.0385172
0.0396571
0.0363483
0.0374144
0.0343274
0.0353201
0.0324458
0.0333699
0.0306931
0.0315542
0.0290564
0.0298612
0.0275228
0.0282776
0.0260809
0.0267911
0.0247216
0.0253915
0.0234376
0.0240707
0.0222227
0.0228219
0.0210717
0.0216396
0.0199797
0.0205186
0.0189423
0.0194543
0.0179551
0.0184425
0.0170175
0.0174779
0.0161188
0.0165621
0.0156787
0.0151848
0.0150672
0.015382
0.0152905
0.0155305
0.0154629
0.0156293
0.0155856
0.0156822
0.0156615
0.0156871
0.0156906
0.0156447
0.015672
0.0155496
0.0156036
0.0154104
0.0154857
0.0152266
0.0153218
0.0169176
0.0164569
0.0178725
0.0173885
0.0188758
0.0183676
0.0199338
0.0193978
0.0210512
0.0204849
0.0222331
0.0216338
0.0234849
0.0228501
0.0248107
0.0241385
0.026214
0.0255026
0.0276978
0.0269457
0.0292666
0.0284714
0.0309265
0.0300848
0.0326863
0.0317934
0.0345567
0.0336071
0.036548
0.0355368
0.0386686
0.0375919
0.0409242
0.0397794
0.043319
0.042104
0.0458569
0.0445699
0.048542
0.0471809
0.0513786
0.0499413
0.0543687
0.0528546
0.0575106
0.0559211
0.0608001
0.0591374
0.0642304
0.0624985
0.0677969
0.0659965
0.0714825
0.069629
0.0752193
0.0733491
0.0789297
0.0770917
0.0824226
0.0807527
0.0856716
0.0840823
0.0885002
0.0871774
0.095409
0.0896596
0.0981043
0.0978796
0.100532
0.10035
0.0145482
0.0144274
0.102025
0.102299
0.102452
0.10372
0.101661
0.0997595
0.0966327
0.0924247
0.0871486
0.0151249
0.0750318
0.0809433
0.107753
0.107513
0.106381
0.104263
0.10107
0.0968311
0.0907094
0.0739215
0.0693166
0.0151094
0.0146974
0.0679568
0.0982792
0.0709038
0.0703108
0.0710835
0.0711371
0.0701981
0.0707638
0.0685164
0.0694407
0.0662539
0.0674386
0.0636921
0.0649987
0.0609672
0.0623462
0.0581417
0.0595621
0.0552947
0.0567167
0.0524786
0.0538807
0.0497249
0.0510923
0.0470582
0.0483795
0.0444946
0.0457628
0.0420457
0.0432553
0.0397208
0.0408673
0.037528
0.0386076
0.0354727
0.0364831
0.0335552
0.0344971
0.0317693
0.0326465
0.0301039
0.0309225
0.0285447
0.029312
0.0270781
0.0278007
0.0256928
0.0263759
0.0243806
0.025028
0.0231355
0.02375
0.0219531
0.0225368
0.0208294
0.0213842
0.0197608
0.0202885
0.0187436
0.0192459
0.0177745
0.0182531
0.0168518
0.0173064
0.0159706
0.0164068
0.0155344
0.0147727
0.0146648
0.0149602
0.0148717
0.0150992
0.0150357
0.0151942
0.0151521
0.0152448
0.0152252
0.0152494
0.0152528
0.015209
0.0152348
0.0151209
0.0151713
0.014984
0.0150576
0.0148058
0.0148992
0.0845492
0.0915362
0.0850229
0.0147071
0.0158804
0.0150161
0.0154435
0.0167831
0.0163296
0.0177251
0.0172478
0.0187147
0.0182139
0.0197556
0.0192285
0.0208524
0.0202968
0.0220094
0.0214232
0.0232305
0.0226118
0.0245189
0.0238663
0.0258767
0.0251891
0.0273063
0.0265824
0.0288121
0.0280495
0.0304008
0.0295956
0.0320829
0.0312295
0.0338708
0.0329629
0.0357761
0.0348082
0.037807
0.0367756
0.0399673
0.0388709
0.0422583
0.0410966
0.0446799
0.0434529
0.0472323
0.0459398
0.0499161
0.0485579
0.0527302
0.0513071
0.0556707
0.0541851
0.0587303
0.0571863
0.0618976
0.0603015
0.0651596
0.063518
0.0684838
0.0668174
0.0718219
0.0701538
0.0751145
0.0734798
0.0781957
0.0767049
0.0809409
0.0795812
0.0830996
0.0821631
0.0839377
0.10143
0.10128
0.0143002
0.103772
0.103781
0.105117
0.105743
0.105242
0.107125
0.10412
0.101657
0.0980097
0.0931228
0.0871751
0.0802175
0.0661449
0.0724012
0.110965
0.110563
0.109196
0.106632
0.102906
0.0981023
0.0851781
0.092102
0.0145953
0.0638862
0.0602603
0.0148963
0.0144779
0.0577652
0.101663
0.0638406
0.0622828
0.0657319
0.0649878
0.0662598
0.066165
0.0657225
0.0661051
0.0643947
0.0651371
0.0625574
0.0635276
0.0603971
0.0615078
0.058035
0.0592366
0.0555407
0.0567998
0.052988
0.0542673
0.0504333
0.0517085
0.0479113
0.0491665
0.045448
0.0466711
0.0430624
0.0442445
0.0407691
0.0419034
0.0385817
0.0396614
0.0365121
0.0375316
0.0345691
0.0355244
0.032755
0.0336461
0.031065
0.0318952
0.0294872
0.0302631
0.0280065
0.0287358
0.0266084
0.027298
0.0252815
0.0259366
0.0240184
0.0246424
0.0228143
0.0234092
0.0216662
0.0222335
0.0205715
0.0211124
0.0195276
0.0200434
0.018532
0.0190239
0.017582
0.0180514
0.0166762
0.0171234
0.0158095
0.0162374
0.0149665
0.0153829
0.0141645
0.01456
0.0141584
0.0139102
0.0140376
0.0143725
0.0142713
0.0145476
0.0144656
0.014679
0.0146185
0.0147699
0.0147297
0.0148182
0.0147995
0.0148224
0.0148258
0.0147832
0.0148081
0.0147001
0.0147473
0.0145692
0.0146405
0.0143971
0.0144908
0.0141875
0.0142955
0.0157494
0.0153199
0.0166367
0.0161873
0.0175652
0.0170955
0.0185391
0.0180464
0.0195615
0.0190441
0.0206361
0.0200921
0.0217664
0.0211942
0.0229551
0.0223534
0.024204
0.023572
0.0255145
0.0248516
0.0268886
0.0261935
0.0283299
0.0276005
0.0298469
0.0290784
0.0314512
0.0306374
0.0331568
0.0322906
0.0349763
0.0340518
0.0369173
0.0359314
0.0389819
0.0379343
0.0411681
0.0400601
0.043472
0.0423056
0.0458904
0.0446671
0.0484203
0.0471417
0.0510579
0.049726
0.0537967
0.0524152
0.0566264
0.0552011
0.0595319
0.0580709
0.0624926
0.0610072
0.0654693
0.0639824
0.0684092
0.0669471
0.0712498
0.0698472
0.0738715
0.0725989
0.0761054
0.0750475
0.0777468
0.0770231
0.0785727
0.078254
0.0784553
0.0786665
0.0850543
0.0779412
0.0137762
0.104786
0.104731
0.0140724
0.107015
0.107266
0.108112
0.109221
0.107954
0.110499
0.106381
0.103432
0.0990858
0.0935405
0.0867951
0.079072
0.070435
0.0547504
0.0610725
0.114193
0.113572
0.111802
0.108769
0.104549
0.0990761
0.0923922
0.0846059
0.0769991
0.0511862
0.0488951
0.0140259
0.013639
0.0451543
0.105088
0.0547
0.052035
0.0584496
0.0567749
0.0606526
0.0597368
0.0614902
0.0612184
0.061288
0.0614961
0.0603738
0.0609052
0.0589511
0.0597161
0.0571704
0.058097
0.0551485
0.056184
0.0529663
0.0540727
0.0506959
0.051838
0.0483933
0.049546
0.0460955
0.0472419
0.0438303
0.0449574
0.0416188
0.0427167
0.0394789
0.0405389
0.0374273
0.0384411
0.0354796
0.0364397
0.0336471
0.0345485
0.0319358
0.0327766
0.0303404
0.0311243
0.0288493
0.0295828
0.0274465
0.0281379
0.0261171
0.0267735
0.0248495
0.0254761
0.0236367
0.0242365
0.0224751
0.0230496
0.0213628
0.0219129
0.0202985
0.0208247
0.0192807
0.0197839
0.0183078
0.0187888
0.0173778
0.0178376
0.0164885
0.0169281
0.0156369
0.0160578
0.014815
0.0152224
0.0144163
0.013531
0.013264
0.0134037
0.0137765
0.0136568
0.0139803
0.0138825
0.0141441
0.0140672
0.0142694
0.0142114
0.0143561
0.0143177
0.0144019
0.0143842
0.0144057
0.0144091
0.0143675
0.0143918
0.0142881
0.0143328
0.0141653
0.0142326
0.0139986
0.0140864
0.013793
0.0138992
0.0697608
0.0757331
0.0680985
0.013678
0.0147659
0.0139514
0.0143553
0.0156043
0.0151824
0.0164782
0.0160357
0.0173926
0.0169304
0.0183495
0.0178656
0.0193521
0.018845
0.0204031
0.0198714
0.0215052
0.0209477
0.02266
0.022076
0.0238682
0.0232574
0.0251305
0.0244926
0.0264483
0.0257824
0.0278256
0.0271291
0.0292714
0.0285392
0.030799
0.0300241
0.0324235
0.0315983
0.0341578
0.0332763
0.0360092
0.0350688
0.0379776
0.036979
0.0400581
0.0390043
0.0422437
0.0411383
0.0445275
0.0433737
0.0469036
0.0457044
0.0493654
0.0481242
0.0519039
0.0506258
0.0545062
0.0531982
0.0571532
0.0558255
0.0598189
0.0584859
0.0624608
0.0611462
0.0650215
0.0637553
0.0674268
0.0662494
0.0695744
0.0685396
0.0713287
0.0705136
0.0724391
0.0719815
0.0727724
0.0727229
0.0719678
0.0725004
0.0709866
0.108147
0.108217
0.110205
0.110772
0.111049
0.112689
0.0129015
0.013124
0.0127624
0.110486
0.113869
0.108463
0.104905
0.0999117
0.0935356
0.0860094
0.077385
0.0679209
0.0577116
0.0408054
0.0469401
0.117355
0.116409
0.114216
0.110743
0.105976
0.0997704
0.0922523
0.0836202
0.0660419
0.0739732
0.0135585
0.0358529
0.0352044
0.0138248
0.0134343
0.0301569
0.108532
0.0434356
0.039625
0.0492874
0.0466114
0.0532139
0.0514439
0.0556888
0.0546147
0.05683
0.0564063
0.0570127
0.0570207
0.0564986
0.0568313
0.0554546
0.0560334
0.0540233
0.0547792
0.0523209
0.0531999
0.0504338
0.0513957
0.0484321
0.0494433
0.0463708
0.0474061
0.0442889
0.0453304
0.0422154
0.0432495
0.0401738
0.0411893
0.0381842
0.0391712
0.0362664
0.0372151
0.034439
0.0353404
0.032716
0.0335639
0.0311052
0.0318967
0.0296023
0.0303409
0.0281958
0.028888
0.0268695
0.0275237
0.0256078
0.0262314
0.0243993
0.0249975
0.0232374
0.0238128
0.0221192
0.0226729
0.0210438
0.0215762
0.0200112
0.0205222
0.0190208
0.0195108
0.0180716
0.0185411
0.0171623
0.0176121
0.016291
0.016722
0.0154552
0.0158688
0.014652
0.0150494
0.0138796
0.014263
0.0134996
0.013164
0.0130337
0.013398
0.013285
0.0135936
0.0135008
0.0137495
0.013676
0.0138695
0.013814
0.0139522
0.0139157
0.0139956
0.0139788
0.0139989
0.0140023
0.0139619
0.0139854
0.013885
0.0139283
0.0137684
0.013832
0.0136083
0.0136937
0.0134106
0.0135143
0.0131777
0.0132982
0.0146229
0.0142217
0.0154486
0.0150324
0.0163089
0.0158742
0.0172077
0.0167535
0.0181466
0.017672
0.0191281
0.0186319
0.0201544
0.0196356
0.0212271
0.0206849
0.0223469
0.0217811
0.0235137
0.0229245
0.0247275
0.0241148
0.0259893
0.0253523
0.0273037
0.0266395
0.02868
0.0279833
0.0301327
0.0293958
0.0316776
0.0308927
0.0333279
0.032489
0.0350899
0.0341949
0.036962
0.0360126
0.0389365
0.037937
0.0410033
0.039959
0.0431527
0.0420683
0.0453758
0.0442556
0.0476637
0.0465123
0.050005
0.0488285
0.0523839
0.0511909
0.0547784
0.0535808
0.0571577
0.0559723
0.0594769
0.0583281
0.0616764
0.060596
0.0636753
0.062707
0.065371
0.0645675
0.0666339
0.0660684
0.0672671
0.0670379
0.0671166
0.0673096
0.0657112
0.0666008
0.0629311
0.0644954
0.0586414
0.0610217
0.0634205
0.0557884
0.111483
0.111709
0.113333
0.114268
0.0125529
0.0124159
0.113843
0.11614
0.112858
0.117212
0.110258
0.106072
0.100308
0.0931304
0.0846617
0.075161
0.0647303
0.0536631
0.0420775
0.013055
0.0245671
0.0302592
0.120386
0.119102
0.116475
0.112468
0.10697
0.0999689
0.0916587
0.0822236
0.0716578
0.0129799
0.0126223
0.0183381
0.0194847
0.0603505
0.0523901
0.0132993
0.111967
0.0300116
0.0250665
0.0381922
0.0344143
0.044111
0.0413997
0.0482194
0.0463696
0.0509114
0.0497315
0.0523812
0.0517807
0.0529308
0.0527545
0.0527757
0.0529309
0.0520741
0.0524838
0.0509655
0.0515628
0.0495633
0.0502951
0.0479539
0.0487798
0.0462064
0.0470936
0.044375
0.0452983
0.0424998
0.0434408
0.0406114
0.0415556
0.0387346
0.0396701
0.036892
0.0378076
0.0351058
0.0359905
0.0333969
0.0342405
0.0317819
0.032577
0.0302692
0.0310128
0.0288563
0.0295508
0.0275318
0.028184
0.0262796
0.0268977
0.0250841
0.0256756
0.0239339
0.0245039
0.0228226
0.0233736
0.0217482
0.0222809
0.0207106
0.0212248
0.0197106
0.0202059
0.0187485
0.0192248
0.017824
0.0182816
0.0169364
0.0173757
0.0160842
0.016506
0.0152656
0.0156708
0.0144795
0.0148684
0.0137253
0.0140993
0.0133497
0.012804
0.0126809
0.0130268
0.0129206
0.0132137
0.013125
0.0133637
0.0132929
0.0134789
0.0134258
0.0135578
0.013523
0.013599
0.0135831
0.0136018
0.0136052
0.0135658
0.0135886
0.0134913
0.0135332
0.0133792
0.0134399
0.0132283
0.0133087
0.0130352
0.0131366
0.0128112
0.0129271
0.0450264
0.0484706
0.0408573
0.0126889
0.0136866
0.0129295
0.0133056
0.0144702
0.0140768
0.0152828
0.0148726
0.016129
0.0157017
0.0170111
0.0165655
0.017931
0.0174662
0.0188904
0.0184057
0.0198909
0.0193855
0.0209333
0.0204069
0.0220175
0.0214703
0.0231428
0.0225751
0.0243084
0.0237205
0.0255153
0.0249065
0.0267683
0.0261356
0.0280774
0.0274151
0.0294574
0.0287576
0.0309247
0.0301792
0.0324922
0.0316954
0.0341653
0.0333155
0.0359409
0.0350408
0.0378092
0.0368642
0.0397575
0.0387742
0.0417733
0.0407577
0.0438452
0.0428029
0.0459619
0.0448987
0.04811
0.047033
0.0502713
0.0491903
0.0524209
0.0513494
0.0545247
0.0534811
0.0565355
0.0555451
0.0583918
0.0574874
0.0600115
0.0592372
0.0612908
0.0607007
0.0620971
0.0617635
0.0622624
0.0622687
0.0616144
0.0620571
0.059771
0.0608676
0.0566018
0.0583697
0.0517627
0.0544419
0.048655
0.114767
0.115179
0.0122749
0.116346
0.11773
0.116475
0.119538
0.11497
0.120475
0.11176
0.106816
0.100248
0.0921477
0.0827464
0.072228
0.0608669
0.0488201
0.0365091
0.0239934
0.00662824
0.0114298
0.123262
0.121596
0.118472
0.1138
0.107517
0.0997364
0.0906392
0.0802186
0.0687048
0.0565673
0.0361326
0.0438712
0.0125582
-0.000832978
0.00245134
0.0127949
0.0124294
-0.00479994
0.115366
0.0150162
0.00909758
0.0252335
0.0204366
0.0332339
0.0294873
0.0392054
0.0364583
0.0434902
0.0415427
0.0463922
0.0450934
0.0481684
0.0474074
0.0490416
0.0487041
0.0492054
0.0492017
0.0488155
0.0490706
0.0480053
0.0484554
0.0468829
0.0474772
0.0455337
0.046232
0.0440256
0.0447958
0.0424124
0.0432293
0.0407348
0.0415795
0.0390242
0.0398818
0.0373071
0.0381649
0.0356078
0.0364536
0.0339506
0.0347724
0.0323583
0.0331451
0.0308491
0.0315925
0.0294323
0.030129
0.0281067
0.0287586
0.0268613
0.0274749
0.0256805
0.0262639
0.0245491
0.0251095
0.0234557
0.0239981
0.0223946
0.0229213
0.0213639
0.0218754
0.0203646
0.0208603
0.0193978
0.019877
0.0184647
0.018927
0.0175658
0.018011
0.0167006
0.0171291
0.0158683
0.0162805
0.0150676
0.0154641
0.0142973
0.0146788
0.0135538
0.0139229
0.0128328
0.0131916
0.0121331
0.0124787
0.0122107
0.0119402
0.0120764
0.0124535
0.0123368
0.012666
0.0125648
0.0128425
0.0127582
0.0129867
0.0129187
0.0130973
0.0130463
0.0131726
0.0131394
0.0132117
0.0131967
0.0132139
0.0132174
0.0131789
0.013201
0.0131066
0.0131474
0.0129981
0.0130568
0.0128543
0.0129306
0.0126702
0.0127676
0.0124513
0.012566
0.0122036
0.0123287
0.0135393
0.0131663
0.0143089
0.0139215
0.0151078
0.0147047
0.0159389
0.0155194
0.0168036
0.016367
0.0177035
0.0172491
0.01864
0.0181671
0.0196139
0.0191223
0.0206254
0.020115
0.0216737
0.021145
0.0227574
0.0222112
0.0238756
0.0233123
0.0250292
0.0244478
0.026223
0.0256205
0.0274673
0.026838
0.0287771
0.028113
0.0301687
0.0294617
0.0316546
0.0308994
0.0332395
0.0324348
0.0349188
0.034068
0.0366811
0.0357905
0.0385114
0.0375886
0.0403949
0.0394474
0.042318
0.0413523
0.0442673
0.0432902
0.0462272
0.045247
0.0481776
0.0472051
0.0500914
0.0491411
0.0519319
0.0510235
0.0536502
0.0528098
0.0551833
0.0544444
0.0564494
0.0558555
0.0573461
0.0569511
0.0577418
0.057616
0.0574811
0.057703
0.056381
0.0570512
0.054172
0.0554301
0.0506223
0.0525825
0.0453959
0.0482606
0.0382369
0.0421002
0.029068
0.0339688
0.0307469
0.0236415
0.0117952
0.117956
0.118595
0.0120712
0.119207
0.121117
0.118872
0.122838
0.116786
0.123612
0.112856
0.107105
0.0996024
0.0905418
0.0800945
0.0685551
0.0561635
0.0432603
0.0301139
0.0168588
0.00371041
-0.0127197
-0.00899868
0.125918
0.123817
0.120118
0.11473
0.107637
0.0989778
0.0888628
0.0774003
0.0650316
0.0520126
0.0384409
0.0176016
0.0245847
-0.0211838
-0.0157489
0.0119896
0.0116498
-0.0239082
0.118689