/*--------------------------------*- C++ -*----------------------------------*\
  =========                 |
  \\      /  F ield         | OpenFOAM: The Open Source CFD Toolbox
   \\    /   O peration     | Website:  https://openfoam.org
    \\  /    A nd           | Version:  10
     \\/     M anipulation  |
\*---------------------------------------------------------------------------*/
FoamFile
{
    format      ascii;
    class       volVectorField;
    location    "78.5";
    object      U;
}
// * * * * * * * * * * * * * * * * * * * * * * * * * * * * * * * * * * * * * //

dimensions      [0 1 -1 0 0 0 0];

internalField   nonuniform List<vector> 
28942
(
(0.00443081 -0.00225751 -3.42242e-22)
(0.00599715 -0.00234097 -6.3594e-23)
(0.0179354 -0.012386 -8.2381e-22)
(0.103306 0.0182356 -5.25336e-21)
(0.102343 0.0222781 1.72008e-21)
(0.0140817 0.000432842 0)
(0.0167361 1.54705e-05 1.0583e-23)
(0.0194114 0.000559363 -9.34656e-24)
(0.135239 -0.0184302 -2.54497e-22)
(0.133895 -0.0167959 7.24416e-22)
(0.00979636 0.00401529 -6.7322e-22)
(0.0160703 0.0056296 2.55263e-22)
(0.0071384 0.00315324 0)
(0.0047081 0.00207011 0)
(0.0440678 0.00196348 -1.47294e-23)
(0.0422836 0.0025247 -5.90325e-24)
(0.0893159 0.0158871 6.6709e-22)
(0.0870038 0.0138557 1.07363e-21)
(0.012164 -0.0151118 2.91225e-21)
(0.0293295 -0.0304659 -7.66445e-22)
(0.0981182 0.0373966 9.51081e-22)
(0.0972968 0.0344326 0)
(0.0187404 0.00462742 1.16529e-21)
(0.00786417 0.00236374 5.49508e-22)
(0.0377985 0.00721177 9.42418e-22)
(0.0575316 0.00291301 -8.59142e-22)
(0.00764746 -0.01849 8.50092e-21)
(0.00669344 -0.0165546 -3.13112e-21)
(0.0355081 -0.0253215 5.71026e-22)
(0.0192994 -0.0136813 1.97078e-22)
(0.0144536 -0.00132688 0)
(0.0180703 -0.00114785 -1.33306e-23)
(0.0229687 0.00416631 2.77997e-22)
(0.0331132 0.00186828 -4.30183e-23)
(0.0188253 0.0180095 1.31202e-21)
(0.0157199 0.0191195 -1.30224e-21)
(0.0321693 0.0376171 -3.04932e-21)
(0.0186691 0.0305355 -1.06767e-21)
(0.00771691 -1.00509e-05 -8.84086e-24)
(0.00864881 0.0161971 -2.61207e-21)
(0.0306492 -0.00620318 0)
(0.0513425 -0.0109694 0)
(0.111867 -0.0117853 -2.69376e-23)
(0.111364 -0.0117859 7.94374e-23)
(0.115912 -0.0116834 6.92166e-23)
(0.0273824 0.000184455 1.12334e-23)
(0.0254957 -0.000592048 -1.80631e-23)
(0.0364499 -0.000482371 -8.24497e-23)
(0.0349259 -0.000552278 2.3501e-23)
(0.0283752 -0.00265187 -2.04477e-22)
(0.0210969 -0.0031774 1.32867e-22)
(0.128652 0.00131628 -3.99155e-22)
(0.127967 0.000843711 -3.72967e-22)
(0.134557 -0.0211978 -3.77135e-24)
(0.13301 -0.0194715 1.38336e-22)
(0.0824918 0.00635645 7.15373e-22)
(0.101745 -0.000762535 2.49343e-22)
(0.00305882 0.00162087 -5.64765e-22)
(0.00894352 0.00367969 0)
(0.00825787 0.00328915 2.37083e-22)
(0.00288285 0.00148816 4.87353e-22)
(0.00036226 0.00022627 -4.05174e-22)
(0.000192895 0.000122681 -3.89356e-22)
(0.109769 -0.0426068 0)
(0.1049 -0.0256114 1.26605e-22)
(0.121771 -0.033115 -4.35428e-23)
(0.123418 -0.043769 0)
(0.0901066 -0.0328037 -6.37883e-22)
(0.0936105 -0.0352705 -4.19216e-22)
(0.00188586 -0.00113006 1.13155e-21)
(0.00248978 -0.0020181 -3.56547e-22)
(0.00487458 -0.00315701 8.84622e-22)
(0.0848764 -0.0457607 0)
(0.0912024 -0.0396243 2.1651e-21)
(0.0805453 -0.0530265 5.84922e-22)
(0.114138 0.0123997 2.38347e-22)
(0.112737 0.00689607 -2.64291e-22)
(0.125106 0.0109998 -1.13528e-22)
(0.0046836 -0.00286198 -5.33956e-23)
(0.0063388 -0.00442607 4.46264e-22)
(0.0510102 -0.0311477 1.25439e-22)
(0.0331558 -0.0205374 -2.56994e-22)
(0.00211161 -0.000596402 3.20567e-21)
(0.00515807 -0.00207318 -1.24912e-21)
(0.100987 0.0482485 1.30008e-23)
(0.0970341 0.0552159 -7.63026e-22)
(0.0807244 0.054013 6.9612e-22)
(0.0472066 0.0345112 -2.67559e-21)
(0.0444349 0.0316073 1.89481e-21)
(0.029493 0.0205961 -1.13193e-22)
(0.0327136 0.0232489 -6.40121e-22)
(0.0379548 0.0283587 8.67715e-22)
(0.00440896 0.00272605 -5.9131e-23)
(0.00776249 0.00397819 -1.7046e-23)
(0.00318886 0.00202108 3.41582e-23)
(0.00192316 0.0016447 -4.56859e-22)
(0.00144983 0.00156823 5.60324e-22)
(0.0157427 0.0115439 -3.24781e-21)
(0.0174955 0.0136358 7.43763e-22)
(0.00880592 -0.00384772 0)
(0.101389 0.00515945 0)
(0.0984003 0.0156833 -3.95467e-21)
(0.0604411 0.0104756 1.93815e-21)
(0.0886809 0.0178812 0)
(0.135462 -0.00111081 0)
(0.1349 -0.00182548 0)
(0.133209 -0.00231922 -2.47766e-22)
(0.114974 0.0266063 -2.11561e-22)
(0.114066 0.0280093 2.09185e-21)
(0.113268 0.0254693 1.12252e-21)
(0.00229426 0.00129946 1.05329e-21)
(0.00151157 0.000777375 -1.18221e-21)
(0.0190524 -0.00553715 -5.50523e-22)
(0.0201333 -0.0050664 4.70174e-22)
(0.00910214 -0.00292915 9.29379e-22)
(0.00647663 0.0111492 1.47746e-21)
(0.0189679 0.0181603 3.45357e-21)
(0.0134651 0.0228 2.72185e-22)
(0.00492084 0.0143062 -8.6142e-21)
(0.116992 0.0477508 5.52697e-23)
(0.107866 0.0582401 1.06561e-21)
(0.118326 0.0548775 -1.83774e-21)
(0.0390871 -0.0294149 7.29573e-22)
(0.0240068 -0.0172632 -4.66142e-22)
(0.00532102 -0.000741778 -4.09888e-21)
(0.00453808 -0.00359179 0)
(0.0124958 -0.00167192 2.0006e-21)
(0.021962 -0.0161288 7.7677e-22)
(0.0342517 -0.0277814 -1.95077e-21)
(0.0344661 -2.2152e-05 5.69921e-23)
(0.0366499 0.000137105 -4.17252e-23)
(0.0323612 0.000156772 -1.76247e-24)
(0.0280524 -0.0419442 0)
(0.0296018 -0.0428356 0)
(0.0896231 -0.018653 -4.62071e-22)
(0.0995909 -0.0220907 3.13984e-21)
(0.0870344 -0.0252786 0)
(0.0471125 -0.0401842 0)
(0.0581724 -0.0513794 -7.81268e-22)
(0.0413117 0.0393376 2.08236e-21)
(-2.47722e-06 0.000214268 5.14249e-22)
(-0.000194374 0.000130888 -3.39014e-22)
(0.0223243 -0.0192385 -7.89427e-22)
(0.120316 -0.0115555 3.90273e-22)
(0.119684 -0.0115027 -7.55326e-23)
(0.115437 -0.00571756 -6.67798e-23)
(0.108365 0.000985548 8.89935e-23)
(0.11763 -0.000313531 1.82084e-22)
(8.21417e-05 0.000259091 1.98441e-22)
(0.0437444 0.0344188 3.1982e-21)
(0.0618737 0.046308 -7.86495e-22)
(0.0593087 0.0393649 -3.01076e-24)
(0.0224957 -0.00083001 5.58013e-24)
(0.0221657 -0.000812458 2.91781e-23)
(0.0240548 -0.000589187 1.13108e-24)
(0.0268592 -0.000597731 -1.43745e-23)
(0.0454187 0.0380896 1.33772e-22)
(0.0189614 0.0160588 0)
(0.000139227 -2.91945e-05 3.69861e-22)
(0.000422421 -0.000256502 -4.10341e-22)
(0.00186082 -0.00101132 2.86427e-22)
(0.0365552 -0.00772182 -1.84425e-21)
(0.0648667 -0.00210304 -7.52535e-22)
(0.03124 -0.000209458 -2.17872e-24)
(0.0744755 -0.00764334 2.71378e-22)
(0.0706866 -0.0157273 6.25021e-23)
(0.0943048 0.0399191 2.14024e-21)
(0.0914056 0.0454546 9.92838e-23)
(0.088749 0.0290867 1.21402e-21)
(0.0914744 0.0308034 -8.79787e-22)
(0.0986969 0.0410801 0)
(0.126113 -0.000335062 1.4872e-22)
(0.126883 -0.000768859 2.80833e-22)
(0.128094 -0.0123373 -2.9409e-22)
(0.129558 -0.012142 5.03322e-22)
(0.117055 0.0241498 2.5938e-22)
(0.119113 0.0250505 -7.34484e-22)
(0.117101 0.0261624 0)
(0.115135 0.0248999 1.52941e-22)
(0.116672 0.0280847 0)
(0.117174 0.036106 -5.50046e-22)
(0.115712 0.0381578 -3.00349e-22)
(0.111338 0.0419705 -5.39618e-22)
(0.113732 0.0401027 0)
(0.116421 0.043078 1.78458e-21)
(0.113699 0.0450006 4.73876e-23)
(0.108332 0.0441814 -3.03179e-22)
(0.0996298 0.0502842 -1.28496e-21)
(0.0984201 0.0454958 -2.26399e-22)
(0.0249626 -0.00848361 6.02026e-23)
(0.03282 -0.00934146 -2.4013e-23)
(0.00628536 -0.0024887 -6.9441e-22)
(0.0306338 -8.37939e-05 -3.62361e-23)
(0.0392694 -0.00027044 0)
(-2.87596e-06 -4.01791e-05 4.34926e-22)
(1.32816e-05 -4.73749e-05 2.21469e-22)
(0.0355325 -0.00180765 1.71835e-23)
(0.0420039 -0.00175615 7.06019e-24)
(0.0415518 -0.00120645 0)
(0.0343636 -0.000829286 7.56475e-24)
(0.0860381 0.00352934 -1.08859e-22)
(0.0852761 0.00319716 5.14297e-22)
(0.0861473 0.00328728 2.37904e-22)
(0.000670613 0.000271828 3.93751e-22)
(-0.00015948 -0.000129306 -5.70249e-22)
(-0.000201135 -0.000169028 4.8626e-22)
(0.00150027 0.00061744 0)
(7.99316e-05 8.77949e-05 1.14029e-21)
(0.000171941 -3.89921e-05 -8.22473e-22)
(0.00744809 0.00367342 -9.92637e-22)
(0.00145166 0.000781322 -1.18501e-21)
(0.00172057 0.000860635 0)
(0.00157199 0.00754369 0)
(0.000576949 0.00328111 0)
(0.000313305 0.00197678 0)
(0.136634 -0.00112364 5.54968e-23)
(0.137645 -0.000959035 0)
(0.136007 -0.00190889 -6.47269e-23)
(0.0881109 -0.0148535 4.42041e-21)
(0.0901177 -0.0152627 -1.60459e-21)
(0.0890331 -0.0128782 0)
(0.0975551 0.000290439 -6.44683e-24)
(0.0981764 0.000278871 1.29023e-23)
(0.0969324 0.000301986 -4.3578e-24)
(0.0987929 0.000269733 0)
(0.0994082 0.000269342 -8.23648e-24)
(0.100017 0.000263518 0)
(0.100016 -0.000383644 0)
(0.100618 0.000245956 3.06038e-23)
(0.10061 -0.0004059 0)
(0.0994146 -0.000373696 -8.29437e-24)
(0.0987993 -0.00036898 0)
(0.0981817 -0.000363284 4.31269e-24)
(0.0975575 -0.000361376 -6.44261e-24)
(0.0969368 -0.000357947 4.35235e-24)
(0.101206 0.000226777 -2.92853e-23)
(0.101201 -0.000421252 -1.02428e-24)
(0.0963009 0.000319098 -8.26515e-29)
(0.0963 -0.000347636 -6.64705e-24)
(0.0956592 0.000334548 3.53374e-23)
(0.101785 0.000215022 2.73769e-26)
(0.101797 -0.000427447 -1.02574e-24)
(0.095662 -0.000345345 1.30947e-23)
(0.102366 0.00020264 2.75842e-23)
(0.102944 0.000193223 -2.75615e-23)
(0.102382 -0.000433881 2.0648e-24)
(0.102962 -0.000437913 4.08335e-24)
(0.0950368 0.000361348 -3.43815e-23)
(0.0950318 -0.000341434 -8.6179e-24)
(0.103517 0.000182503 0)
(0.103536 -0.000442534 -4.02756e-24)
(0.0943918 0.000377813 4.24979e-27)
(0.0943881 -0.000331529 -4.26044e-27)
(0.104085 0.000174416 0)
(0.104104 -0.00044497 0)
(0.0937416 0.000390683 0)
(0.0937376 -0.000325119 0)
(0.104647 0.000164755 0)
(0.104667 -0.00044814 1.93597e-24)
(0.0930865 0.00040365 -1.78052e-23)
(0.0930817 -0.000317532 -4.3462e-27)
(0.105205 0.000157652 1.01495e-25)
(0.105224 -0.000449049 -2.06763e-24)
(0.0924263 0.000414657 1.78903e-23)
(0.0924209 -0.000311577 0)
(0.105757 0.000148873 0)
(0.105776 -0.000450508 0)
(0.0917616 0.00042621 -1.131e-24)
(0.0917554 -0.000303349 1.94052e-23)
(0.106303 0.000142659 1.2552e-23)
(0.106322 -0.000449263 0)
(0.091093 0.000435742 -9.56971e-26)
(0.0910852 -0.000295327 -1.83663e-23)
(0.106844 0.000134906 -1.87749e-23)
(0.106863 -0.000448423 -5.44851e-24)
(0.0904056 0.00043845 1.87189e-23)
(0.0904007 -0.000287655 0)
(0.10738 0.000130735 6.18414e-24)
(0.1074 -0.000441365 3.63379e-24)
(0.0897164 0.000447922 -9.46747e-24)
(0.0897114 -0.000283067 1.91951e-23)
(0.107906 0.000129265 -2.46953e-23)
(0.107936 -0.000426481 2.78339e-23)
(0.0889965 0.000442057 9.75545e-24)
(0.0890005 -0.000284268 3.08628e-25)
(0.108435 0.000130688 0)
(0.108462 -0.000411948 1.32624e-23)
(0.0882698 0.000436486 -1.96124e-23)
(0.0882807 -0.000293011 3.92288e-23)
(0.108977 0.000123392 0)
(0.108988 -0.000403327 0)
(0.0892809 0.00116297 -9.65295e-24)
(0.0885492 0.00116415 -3.90454e-23)
(0.0875197 0.000424287 0)
(0.0875478 -0.000313781 -1.9975e-23)
(0.0906959 0.00115084 -6.06656e-24)
(0.0899914 0.00115793 1.19124e-24)
(0.0920454 0.00112216 0)
(0.0913684 0.00113618 -1.96049e-23)
(0.0933631 0.00108884 -3.79077e-26)
(0.0927074 0.00110606 0)
(0.0946572 0.00105167 0)
(0.0940129 0.00107067 0)
(0.0959313 0.00100671 0)
(0.0952968 0.00103102 0)
(0.0971615 0.000960696 8.60706e-24)
(0.0965426 0.000982563 2.16846e-24)
(0.0983913 0.000926631 -8.30469e-24)
(0.0977832 0.000943292 -8.59238e-24)
(0.0996007 0.00089787 1.47612e-23)
(0.0989921 0.000906019 1.88473e-23)
(0.100811 0.000873682 0)
(0.100207 0.000888902 0)
(0.101983 0.000846586 -6.49248e-26)
(0.101401 0.000859921 0)
(0.103132 0.000817435 0)
(0.102559 0.00083208 0)
(0.104261 0.000788172 0)
(0.103699 0.000802644 0)
(0.105371 0.0007598 0)
(0.104819 0.000773779 0)
(0.106458 0.00073244 0)
(0.105917 0.00074592 0)
(0.107522 0.00070571 0)
(0.106993 0.000718967 0)
(0.10857 0.00066273 -1.0088e-23)
(0.108046 0.000691349 0)
(0.109094 0.000640312 -3.2571e-24)
(0.109506 0.000111943 3.18061e-24)
(0.109514 -0.000398734 -3.15414e-24)
(0.108071 -0.000949516 0)
(0.109113 -0.000919623 -1.29425e-23)
(0.108594 -0.000933501 -6.67026e-24)
(0.107008 -0.000978689 1.82596e-24)
(0.107541 -0.000965972 -7.14411e-24)
(0.10593 -0.000995616 5.91176e-26)
(0.106471 -0.000989062 0)
(0.10483 -0.0010044 0)
(0.105383 -0.00100044 0)
(0.103708 -0.00100988 0)
(0.104272 -0.00100741 0)
(0.102564 -0.00101316 0)
(0.103139 -0.00101165 7.77442e-30)
(0.101399 -0.00101593 6.55397e-26)
(0.101984 -0.00101438 0)
(0.100219 -0.00101055 0)
(0.100808 -0.00101498 0)
(0.0990132 -0.00100231 0)
(0.0996164 -0.00100586 0)
(0.0977865 -0.000999438 0)
(0.098401 -0.000998141 -4.36021e-24)
(0.0965401 -0.00100234 1.14512e-24)
(0.0971646 -0.00100421 -5.61827e-24)
(0.0952857 -0.00100751 0)
(0.0959198 -0.00100329 -4.56841e-24)
(0.0940004 -0.00100666 0)
(0.0946461 -0.0010073 0)
(0.0926914 -0.00100517 0)
(0.0933489 -0.0010059 0)
(0.0913539 -0.00100203 0)
(0.0920273 -0.00100384 0)
(0.0899822 -0.000999358 -4.96078e-24)
(0.0906738 -0.000999217 0)
(0.0885803 -0.0010167 -2.00689e-23)
(0.0892853 -0.00100251 -4.98255e-24)
(0.0878576 -0.00103613 2.04206e-23)
(0.0878042 0.00116683 3.87064e-23)
(0.109616 0.000621781 6.37622e-24)
(0.10963 -0.00090521 -1.24533e-23)
(0.0867933 -0.000345949 0)
(0.0871272 -0.00107073 0)
(0.0870467 0.00116916 0)
(0.0867562 0.000404321 0)
(0.0898467 0.00186876 0)
(0.0884107 0.00190465 9.69497e-24)
(0.0891336 0.00188474 9.79324e-24)
(0.0912403 0.00183076 1.24573e-23)
(0.0905495 0.00185096 -2.48959e-24)
(0.0925659 0.00178366 3.85497e-26)
(0.0919083 0.00180725 0)
(0.0938619 0.00173613 0)
(0.0932171 0.00176004 0)
(0.0951339 0.00168778 0)
(0.0945007 0.00171204 0)
(0.0963861 0.00164127 0)
(0.095762 0.00166355 0)
(0.0976118 0.00159361 0)
(0.0970014 0.00161811 0)
(0.0988184 0.00155115 -3.48087e-26)
(0.0982137 0.0015732 8.97549e-24)
(0.0999972 0.00150702 -3.34225e-26)
(0.0994138 0.00152789 -1.75274e-23)
(0.101176 0.00146191 0)
(0.100587 0.00148342 0)
(0.102328 0.00142142 3.24169e-26)
(0.101755 0.00144131 0)
(0.103459 0.00138174 0)
(0.102896 0.00140155 0)
(0.10457 0.00134234 0)
(0.104017 0.00136197 0)
(0.105661 0.00130343 0)
(0.105118 0.0013228 0)
(0.10673 0.00126492 0)
(0.106198 0.00128413 0)
(0.107776 0.00122527 0)
(0.107256 0.00124551 0)
(0.108805 0.00117146 6.89017e-24)
(0.108292 0.001201 0)
(0.11003 0.000105578 0)
(0.110129 0.000603832 6.23128e-24)
(0.109827 0.0011175 0)
(0.109316 0.00114404 6.71208e-24)
(0.109345 -0.00142667 1.33546e-23)
(0.109851 -0.00140527 3.27883e-24)
(0.110143 -0.000894843 2.55999e-23)
(0.110034 -0.000391238 0)
(0.108321 -0.00146972 0)
(0.108834 -0.0014483 -2.01633e-23)
(0.107279 -0.00150728 5.74354e-26)
(0.107802 -0.00148819 7.18755e-24)
(0.106219 -0.0015337 -5.91173e-26)
(0.106751 -0.00152158 0)
(0.105137 -0.00155375 0)
(0.10568 -0.00154426 0)
(0.104033 -0.0015702 0)
(0.104588 -0.00156233 0)
(0.102909 -0.0015842 0)
(0.103474 -0.00157742 -7.7744e-30)
(0.101764 -0.00159676 -1.30982e-25)
(0.102339 -0.00159062 0)
(0.100603 -0.00160605 0)
(0.101185 -0.001602 0)
(0.0994166 -0.00161372 2.19957e-24)
(0.100013 -0.00160966 0)
(0.0982145 -0.00161989 0)
(0.0988165 -0.00161469 -2.19039e-24)
(0.0969912 -0.00163123 4.5786e-24)
(0.0976015 -0.00162574 4.55267e-24)
(0.0957472 -0.00163964 0)
(0.096373 -0.00163566 0)
(0.0944804 -0.00164981 0)
(0.0951166 -0.00164459 0)
(0.0931899 -0.00166113 0)
(0.0938383 -0.00165528 0)
(0.0918726 -0.00167437 0)
(0.0925349 -0.00166737 0)
(0.0905253 -0.00169171 7.92711e-26)
(0.0912031 -0.0016824 0)
(0.0891447 -0.00171636 -8.03018e-26)
(0.0898404 -0.00170325 0)
(0.0877328 -0.00177481 -2.09907e-23)
(0.0884418 -0.00174191 2.09812e-23)
(0.0876737 0.00192454 1.97117e-23)
(0.0863918 -0.00111721 0)
(0.0870166 -0.00182075 -4.26509e-23)
(0.0860381 -0.000385363 0)
(0.11033 0.00109764 0)
(0.110354 -0.00138315 -3.17975e-24)
(0.0862833 0.00117146 4.98909e-23)
(0.0869309 0.00194515 1.99532e-23)
(0.0856408 -0.00116654 1.07861e-23)
(0.0862905 -0.00187463 5.38984e-23)
(0.0859804 0.000379982 0)
(0.110139 0.00160804 2.62201e-23)
(0.110627 0.00157825 -1.29481e-23)
(0.110646 -0.000880294 -6.29832e-24)
(0.110849 -0.00135769 3.13081e-23)
(0.0879094 0.00269047 7.00184e-23)
(0.0861682 0.00196501 -3.93087e-23)
(0.0864192 0.00275013 -1.75462e-22)
(0.0871609 0.00271679 -3.9992e-23)
(0.0893247 0.00262039 1.95052e-23)
(0.0886231 0.0026568 -5.95848e-23)
(0.0906911 0.00255225 -1.99562e-23)
(0.0900146 0.00258619 -1.50429e-23)
(0.0920317 0.0024904 -4.98118e-24)
(0.0913681 0.00252239 -4.98182e-24)
(0.0933258 0.00243025 -3.85497e-26)
(0.0926849 0.00246066 0)
(0.0945883 0.00236957 0)
(0.0939601 0.00239982 0)
(0.0958271 0.00230995 0)
(0.0952104 0.00233962 0)
(0.0970451 0.00225232 0)
(0.0964385 0.00228072 0)
(0.0982416 0.00219724 0)
(0.0976457 0.00222419 0)
(0.0994171 0.00214265 0)
(0.0988313 0.00216967 0)
(0.100573 0.00208996 6.79197e-29)
(0.0999984 0.002117 0)
(0.101713 0.00203587 0)
(0.101145 0.00206245 0)
(0.102836 0.00198462 3.23242e-26)
(0.102277 0.00200999 0)
(0.103939 0.00193464 0)
(0.10339 0.00195955 0)
(0.105022 0.00188515 0)
(0.104483 0.00190986 0)
(0.106086 0.00183584 0)
(0.105557 0.00186049 0)
(0.107128 0.00178633 0)
(0.10661 0.00181116 0)
(0.108148 0.00173468 0)
(0.107641 0.00176108 0)
(0.10915 0.0016725 3.5063e-24)
(0.108652 0.00170482 -1.76492e-24)
(0.109647 0.00164064 -1.33784e-23)
(0.110537 0.000103838 -2.98505e-24)
(0.110826 0.00107651 1.2472e-23)
(0.110633 0.000592617 -9.54438e-24)
(0.110541 -0.000391713 0)
(0.109682 -0.00192185 -9.93617e-24)
(0.110659 -0.00185942 -2.86592e-23)
(0.110173 -0.00189197 2.30837e-23)
(0.108687 -0.00198095 0)
(0.109187 -0.00195095 0)
(0.107672 -0.00202376 -9.71113e-29)
(0.108182 -0.00200147 0)
(0.106638 -0.00206088 0)
(0.107158 -0.00204329 0)
(0.105583 -0.00209191 -6.05525e-26)
(0.106114 -0.00207698 0)
(0.104507 -0.00211898 0)
(0.105048 -0.00210587 0)
(0.10341 -0.00214311 0)
(0.103961 -0.00213137 0)
(0.102294 -0.00216501 6.54517e-26)
(0.102855 -0.00215432 0)
(0.101159 -0.0021845 6.69154e-26)
(0.101729 -0.00217505 0)
(0.100004 -0.00220313 0)
(0.100584 -0.00219373 0)
(0.0988301 -0.00222126 0)
(0.0994201 -0.00221237 0)
(0.0976357 -0.00224063 0)
(0.0982345 -0.0022305 0)
(0.0964203 -0.00225946 0)
(0.0970309 -0.00224978 0)
(0.0951829 -0.00228092 -7.46583e-26)
(0.0958044 -0.00226991 0)
(0.093922 -0.00230484 0)
(0.0945555 -0.00229253 0)
(0.0926349 -0.00233224 0)
(0.0932819 -0.002318 0)
(0.0913192 -0.00236494 -1.50456e-28)
(0.0919808 -0.00234782 0)
(0.089973 -0.00240483 1.66637e-28)
(0.0906503 -0.00238398 0)
(0.0885983 -0.00246207 8.28685e-26)
(0.0892861 -0.0024287 0)
(0.0872005 -0.00255538 -4.35525e-23)
(0.0879013 -0.0025033 1.07112e-23)
(0.0855541 -0.00192888 1.09578e-23)
(0.0865034 -0.00261549 2.17759e-23)
(0.0855094 0.00116697 -1.95418e-23)
(0.085266 -0.000428491 -2.08943e-23)
(0.11111 0.00154868 3.16758e-24)
(0.111142 -0.00183121 2.25214e-23)
(0.0853693 0.00196432 2.45919e-24)
(0.0848804 -0.00122332 0)
(0.0854322 0.00265887 2.68943e-22)
(0.0858007 -0.00267836 3.34495e-23)
(0.0848237 -0.00198837 4.46543e-23)
(0.0870792 0.00366195 -4.42625e-22)
(0.0868098 0.00380716 8.12019e-23)
(0.0852113 0.00035788 0)
(0.0878865 0.00349932 4.49414e-23)
(0.0873748 0.00360381 2.29278e-23)
(0.0891677 0.00339213 4.0581e-23)
(0.0884888 0.00343508 -6.18584e-23)
(0.0905087 0.00329906 -2.01938e-23)
(0.0898488 0.00334752 -1.00738e-23)
(0.0918026 0.00321302 1.01266e-23)
(0.0911595 0.0032548 1.02521e-23)
(0.0930732 0.00313189 0)
(0.0924385 0.00317087 -1.75837e-26)
(0.0943138 0.00305655 0)
(0.0936968 0.00309412 0)
(0.0955309 0.00298341 3.76646e-26)
(0.0949252 0.00301963 0)
(0.0967262 0.00291293 0)
(0.0961311 0.00294788 0)
(0.0979016 0.00284501 0)
(0.0973164 0.00287862 0)
(0.0990573 0.00277965 0)
(0.0984819 0.002812 0)
(0.100194 0.00271582 3.46097e-26)
(0.0996278 0.00274747 0)
(0.101312 0.00265347 7.51113e-29)
(0.100755 0.00268481 0)
(0.102413 0.0025914 0)
(0.101864 0.00262219 0)
(0.103498 0.00253093 -6.45789e-26)
(0.102958 0.00256102 0)
(0.104564 0.00247139 0)
(0.104033 0.0025011 0)
(0.105612 0.00241218 0)
(0.10509 0.00244179 0)
(0.10664 0.00235279 0)
(0.106128 0.00238255 0)
(0.107648 0.00229265 0)
(0.107146 0.00232288 0)
(0.108635 0.00222989 0)
(0.108144 0.00226184 0)
(0.109604 0.00216193 -1.75095e-24)
(0.109121 0.00219542 0)
(0.110554 0.00208644 0)
(0.11008 0.00212453 -3.39077e-24)
(0.111485 0.00200696 -3.70871e-27)
(0.111023 0.00204764 0)
(0.111311 0.00105619 -1.26453e-23)
(0.11195 0.00197342 7.60886e-25)
(0.11159 0.00152306 6.18582e-24)
(0.11103 9.81459e-05 4.55236e-24)
(0.111124 0.000579803 -3.14208e-24)
(0.111139 -0.000865077 -1.58284e-24)
(0.111036 -0.000386143 1.57894e-24)
(0.111617 -0.00180322 0)
(0.111334 -0.00133923 -1.43505e-23)
(0.111062 -0.0023298 -6.43982e-24)
(0.111986 -0.00225857 -1.23251e-23)
(0.111528 -0.00229374 2.83064e-23)
(0.110123 -0.00240487 -3.38062e-24)
(0.110595 -0.00236806 0)
(0.109163 -0.00247104 0)
(0.109645 -0.00243809 0)
(0.108183 -0.00252552 -1.20832e-28)
(0.108675 -0.00249938 0)
(0.107183 -0.002573 0)
(0.107686 -0.0025501 0)
(0.106163 -0.00261466 6.05525e-26)
(0.106676 -0.00259445 0)
(0.105122 -0.00265202 0)
(0.105645 -0.00263382 0)
(0.104061 -0.00268601 0)
(0.104594 -0.0026694 0)
(0.102981 -0.00271735 0)
(0.103524 -0.00270198 0)
(0.101883 -0.00274659 -1.50574e-28)
(0.102435 -0.00273219 0)
(0.100765 -0.00277499 0)
(0.101326 -0.00276081 0)
(0.0996285 -0.0028031 0)
(0.100199 -0.00278908 0)
(0.0984723 -0.00283216 0)
(0.0990527 -0.00281741 0)
(0.0972958 -0.00286209 0)
(0.0978867 -0.00284687 0)
(0.0960977 -0.00289478 7.46583e-26)
(0.0966995 -0.00287807 0)
(0.0948768 -0.00293093 0)
(0.0954902 -0.00291238 0)
(0.0936311 -0.00297175 0)
(0.0942572 -0.00295067 0)
(0.0923587 -0.00301901 -7.91131e-26)
(0.0929983 -0.00299447 0)
(0.0910582 -0.00307416 8.05379e-26)
(0.0917121 -0.00304559 0)
(0.0897281 -0.00313951 -8.19322e-26)
(0.0903965 -0.00310528 0)
(0.0883789 -0.00322376 1.07603e-23)
(0.0890514 -0.00317666 -2.12296e-23)
(0.0870356 -0.00334302 -1.08298e-23)
(0.0877039 -0.003278 2.20217e-23)
(0.0850863 -0.00273842 2.97214e-25)
(0.0863543 -0.00340868 2.22105e-23)
(0.084718 0.00114388 -2.00154e-23)
(0.0844922 -0.000461543 0)
(0.0845559 0.00191301 -1.93453e-22)
(0.0841136 -0.00126421 0)
(0.111955 0.00245797 -3.15649e-24)
(0.112392 0.00241049 2.31184e-24)
(0.112083 -0.0017747 -1.21111e-23)
(0.112438 -0.00221547 -1.37023e-23)
(0.0844667 0.00259748 -1.88158e-22)
(0.0840843 -0.00204403 -4.50911e-23)
(0.0859041 0.0037875 0)
(0.0884982 0.00434233 -5.12588e-23)
(0.0843724 -0.00279966 -2.21305e-23)
(0.0856647 -0.00347261 3.3589e-23)
(0.087908 0.00433255 1.0294e-22)
(0.0844303 0.000333304 0)
(0.089446 0.00417022 0)
(0.08894 0.00425994 -4.56878e-23)
(0.0906579 0.00404328 0)
(0.090034 0.00410366 0)
(0.0919091 0.00393452 0)
(0.0912856 0.00398626 1.04366e-23)
(0.0931271 0.00383621 0)
(0.0925201 0.00388486 0)
(0.0943294 0.00374333 0)
(0.0937302 0.00378844 0)
(0.0955117 0.00365638 0)
(0.0949232 0.00369953 0)
(0.0966741 0.00357268 -3.76646e-26)
(0.0960954 0.0036141 0)
(0.0978173 0.00349226 0)
(0.097248 0.0035321 0)
(0.098942 0.00341479 0)
(0.0983819 0.00345317 0)
(0.100049 0.00333999 0)
(0.0994975 0.00337709 0)
(0.101138 0.00326722 -9.12087e-29)
(0.100595 0.00330337 0)
(0.102209 0.00319609 8.87214e-29)
(0.101676 0.00323158 0)
(0.103265 0.00312578 0)
(0.102739 0.00316077 0)
(0.104304 0.00305663 8.36517e-29)
(0.103786 0.00309111 0)
(0.105325 0.00298809 0)
(0.104817 0.00302233 0)
(0.10633 0.00291959 0)
(0.10583 0.00295388 0)
(0.107315 0.00285055 0)
(0.106825 0.00288519 0)
(0.108282 0.00278027 0)
(0.107801 0.00281564 0)
(0.109228 0.00270736 0)
(0.108758 0.00274428 0)
(0.110156 0.00263079 0)
(0.109695 0.00266961 0)
(0.111064 0.00254707 3.35792e-24)
(0.110612 0.002588 3.44226e-24)
(0.111512 0.00250191 -6.44453e-24)
(0.111785 0.00103614 -6.20427e-24)
(0.112407 0.00194034 0)
(0.112054 0.00149244 -6.25802e-24)
(0.111512 9.46853e-05 0)
(0.1116 0.000569195 6.33186e-24)
(0.111617 -0.00085191 9.4531e-24)
(0.111516 -0.000380558 -3.19641e-24)
(0.111807 -0.00131701 -1.85717e-23)
(0.111559 -0.00278521 3.23644e-24)
(0.112437 -0.00268966 1.20268e-23)
(0.112004 -0.00274367 0)
(0.110661 -0.00286885 -6.71617e-24)
(0.111114 -0.00282874 6.73831e-24)
(0.109743 -0.00294345 0)
(0.110205 -0.00290787 0)
(0.108805 -0.00300842 -1.42656e-28)
(0.109276 -0.00297697 0)
(0.107846 -0.00306619 0)
(0.108328 -0.00303813 0)
(0.106868 -0.0031181 0)
(0.10736 -0.00309281 0)
(0.10587 -0.00316537 0)
(0.106371 -0.00314227 0)
(0.104852 -0.00320893 0)
(0.105363 -0.00318757 0)
(0.103817 -0.00324961 6.50168e-26)
(0.104337 -0.0032296 0)
(0.102763 -0.00328827 -6.67648e-26)
(0.103292 -0.00326915 0)
(0.10169 -0.00332609 0)
(0.102229 -0.00330723 0)
(0.1006 -0.0033638 0)
(0.101147 -0.00334492 0)
(0.0994899 -0.00340252 0)
(0.100047 -0.00338299 0)
(0.0983608 -0.00344293 0)
(0.0989279 -0.00342243 0)
(0.0972111 -0.00348647 0)
(0.0977886 -0.00346426 0)
(0.0960399 -0.00353423 0)
(0.0966283 -0.00350977 0)
(0.0948456 -0.00358753 -7.72603e-26)
(0.0954457 -0.00356011 0)
(0.0936269 -0.00364795 7.87111e-26)
(0.0942393 -0.00361676 0)
(0.0923832 -0.00371689 -8.01274e-26)
(0.0930083 -0.00368134 0)
(0.0911142 -0.00379538 0)
(0.0917517 -0.00375487 0)
(0.0898202 -0.00388405 0)
(0.0904697 -0.00383828 0)
(0.0885172 -0.00398818 8.51833e-26)
(0.089171 -0.00393361 1.08202e-23)
(0.0872068 -0.004118 -5.62988e-23)
(0.0878572 -0.00404937 0)
(0.0849897 -0.00354564 -3.33722e-23)
(0.0865574 -0.00419127 -2.95941e-25)
(0.0839255 0.00111875 6.25542e-23)
(0.08371 -0.00048998 0)
(0.112831 0.0023667 -1.20178e-23)
(0.112872 -0.0026459 -2.31881e-23)
(0.0836556 0.0018495 -3.30084e-23)
(0.084757 0.00333138 1.06203e-24)
(0.0836502 0.00254066 9.39134e-23)
(0.0833478 -0.00129571 0)
(0.0833296 -0.00208197 1.12724e-23)
(0.0868615 0.00430449 -9.65565e-23)
(0.0859031 0.00420852 8.23789e-23)
(0.0843312 0.00342821 -8.1084e-23)
(0.0836464 -0.00285147 -3.38427e-23)
(0.0842943 -0.0036134 2.25618e-23)
(0.0859195 -0.0042781 2.21461e-23)
(0.0836408 0.000308609 0)
(0.0901012 0.00494059 2.8713e-24)
(0.0886059 0.00495443 5.08683e-25)
(0.0894197 0.00493633 2.24348e-23)
(0.0911604 0.00479442 2.21815e-23)
(0.0906333 0.0048742 -2.22966e-23)
(0.0923179 0.0046487 4.11067e-26)
(0.0917217 0.00471777 0)
(0.0934909 0.00453154 0)
(0.0929077 0.0045874 0)
(0.0946433 0.00442428 0)
(0.0940691 0.00447735 0)
(0.0957799 0.00432265 0)
(0.0952137 0.00437254 0)
(0.0968985 0.00422626 3.81906e-26)
(0.0963415 0.00427403 0)
(0.0979995 0.00413341 0)
(0.0974512 0.0041794 0)
(0.0990832 0.00404402 0)
(0.0985435 0.00408832 0)
(0.10015 0.0039578 0)
(0.0996188 0.00400054 0)
(0.1012 0.00387436 0)
(0.100677 0.00391577 0)
(0.102235 0.0037932 -3.45185e-26)
(0.10172 0.00383353 0)
(0.103253 0.00371381 1.02823e-28)
(0.102746 0.00375336 0)
(0.104255 0.00363553 0)
(0.103756 0.00367454 0)
(0.105242 0.00355817 6.42453e-26)
(0.10475 0.00359678 0)
(0.106212 0.00348114 0)
(0.105729 0.00351966 0)
(0.107166 0.00340385 0)
(0.106691 0.00344258 0)
(0.108103 0.00332565 0)
(0.107637 0.00336492 0)
(0.109021 0.00324578 0)
(0.108564 0.00328599 0)
(0.109921 0.00316315 0)
(0.109473 0.0032049 0)
(0.110801 0.00307664 5.45981e-26)
(0.110363 0.00312045 0)
(0.111663 0.00298459 -3.37259e-24)
(0.111235 0.00303186 0)
(0.112504 0.00288253 3.21106e-24)
(0.112085 0.00293438 0)
(0.113328 0.00277401 3.04916e-24)
(0.112917 0.00282911 -3.12637e-24)
(0.112846 0.00190221 6.05073e-24)
(0.113737 0.00272049 0)
(0.113263 0.00232334 8.99209e-24)
(0.112243 0.00101623 0)
(0.112505 0.00146463 0)
(0.11198 9.20535e-05 0)
(0.112067 0.00055659 0)
(0.112082 -0.000836865 0)
(0.111986 -0.000374108 0)
(0.112535 -0.00174448 1.23432e-23)
(0.112266 -0.0012962 3.07137e-24)
(0.113295 -0.00259967 3.02094e-24)
(0.112879 -0.00217858 2.41518e-23)
(0.112973 -0.00311267 1.56851e-23)
(0.113783 -0.00300436 2.99375e-24)
(0.11338 -0.00305789 -6.09771e-24)
(0.112142 -0.00321793 3.22368e-24)
(0.112558 -0.00316552 -1.93364e-23)
(0.111292 -0.00331144 -1.35695e-28)
(0.111719 -0.0032654 0)
(0.11042 -0.00339411 0)
(0.110858 -0.00335355 0)
(0.109529 -0.00346916 -1.64233e-28)
(0.109977 -0.00343264 0)
(0.108618 -0.00353695 0)
(0.109076 -0.00350389 0)
(0.107689 -0.00359869 0)
(0.108156 -0.00356851 0)
(0.10674 -0.00365546 0)
(0.107216 -0.00362764 0)
(0.105773 -0.00370824 0)
(0.106259 -0.0036823 0)
(0.104788 -0.00375798 -1.29835e-25)
(0.105283 -0.00373345 0)
(0.103786 -0.0038057 0)
(0.104289 -0.00378204 0)
(0.102766 -0.00385253 0)
(0.103278 -0.00382917 0)
(0.101729 -0.00389943 0)
(0.10225 -0.00387593 0)
(0.100674 -0.00394749 0)
(0.101203 -0.00392326 0)
(0.0995997 -0.00399776 -7.25406e-26)
(0.100139 -0.00397229 0)
(0.0985065 -0.00405155 0)
(0.0990555 -0.00402415 0)
(0.0973933 -0.00411011 0)
(0.0979525 -0.00408017 0)
(0.0962591 -0.00417475 7.72603e-26)
(0.0968289 -0.0041416 0)
(0.0951031 -0.00424691 -2.50704e-28)
(0.0956839 -0.00420983 0)
(0.093925 -0.00432778 1.6e-25)
(0.0945169 -0.00428623 0)
(0.0927249 -0.00441804 0)
(0.0933277 -0.00437173 0)
(0.091503 -0.00451791 0)
(0.0921165 -0.00446661 0)
(0.090261 -0.00462626 -2.81728e-28)
(0.0908848 -0.00457202 0)
(0.0889998 -0.00474719 0)
(0.0896317 -0.00468423 0)
(0.087765 -0.004899 -3.34558e-23)
(0.0883781 -0.00481891 0)
(0.0852637 -0.00435955 -2.89489e-25)
(0.0871564 -0.00498776 5.67909e-23)
(0.0830932 0.00107415 0)
(0.0877755 0.00495774 1.30147e-22)
(0.082824 0.00179201 2.25488e-23)
(0.113899 0.0031655 -3.04342e-24)
(0.114284 0.00310862 0)
(0.113713 -0.00255473 2.93574e-24)
(0.114178 -0.00294591 -5.83324e-24)
(0.0829258 -0.00051657 0)
(0.0825734 -0.00131888 0)
(0.0829714 0.00261307 0)
(0.0825689 -0.00211309 -1.11023e-23)
(0.0829137 -0.00290566 -2.23262e-23)
(0.0835941 -0.00368586 0)
(0.0845959 -0.00444385 5.74507e-23)
(0.0865287 -0.0050783 -4.5807e-23)
(0.0828403 0.000278857 0)
(0.0906464 0.00557491 -1.07979e-26)
(0.0869068 0.00491776 4.0824e-23)
(0.0891736 0.0056494 -1.45491e-22)
(0.0899077 0.00562914 4.26491e-23)
(0.091956 0.00550433 -1.38775e-23)
(0.0913186 0.00552148 -2.22436e-23)
(0.0930417 0.0053763 0)
(0.0925116 0.0054517 0)
(0.0941442 0.00522176 -4.1103e-26)
(0.0935822 0.00529477 0)
(0.0952502 0.00509495 0)
(0.0947006 0.00515613 0)
(0.0963347 0.00497867 0)
(0.0957947 0.00503601 0)
(0.097402 0.00486859 0)
(0.0968704 0.00492286 0)
(0.0984524 0.00476361 -3.81906e-26)
(0.0979293 0.0048156 0)
(0.0994865 0.00466248 0)
(0.0989714 0.00471259 0)
(0.100505 0.00456494 0)
(0.0999977 0.00461329 0)
(0.101508 0.00447071 0)
(0.101008 0.00451745 0)
(0.102496 0.00437938 0)
(0.102004 0.00442472 0)
(0.103469 0.00429043 3.4294e-26)
(0.102984 0.00433465 0)
(0.104427 0.00420333 1.15896e-28)
(0.10395 0.00424671 0)
(0.105371 0.00411746 0)