/*--------------------------------*- C++ -*----------------------------------*\
  =========                 |
  \\      /  F ield         | OpenFOAM: The Open Source CFD Toolbox
   \\    /   O peration     | Website:  https://openfoam.org
    \\  /    A nd           | Version:  10
     \\/     M anipulation  |
\*---------------------------------------------------------------------------*/
FoamFile
{
    format      ascii;
    class       volScalarField;
    location    "77.5";
    object      p;
}
// * * * * * * * * * * * * * * * * * * * * * * * * * * * * * * * * * * * * * //

dimensions      [0 2 -2 0 0 0 0];

internalField   nonuniform List<scalar> 
28942
(
-0.00377111
-0.00314557
0.00202797
0.00948536
0.00978528
8.17835e-05
0.000272303
2.02341e-05
0.00270889
0.00279676
-0.00231332
-0.00258202
-0.00296449
-0.00288203
0.000182118
0.000480022
0.0098758
0.0101458
0.00557904
0.00713904
0.00814764
0.00813929
-0.00521778
-0.00504326
-0.0035721
-0.00379607
0.0138743
0.0138233
0.00353276
0.00347541
1.51475e-05
4.90055e-05
0.000731485
0.000296556
0.0071387
0.00834439
0.0108821
0.0128405
-1.03035e-05
0.0150352
0.00908581
0.0115838
0.00173157
0.00164281
0.00170598
0.000275054
0.000143759
0.000218636
0.000253092
0.000354343
0.000682516
0.00278002
0.0028512
0.00284159
0.00299653
-0.00234331
-0.0010415
-0.00337107
-0.00321683
-0.00348741
-0.00356057
-0.00356126
-0.0034594
-0.000108527
-0.00180761
-0.000355182
0.000974868
0.00941984
0.00892348
-0.00336308
-0.00357272
-0.003308
0.00898572
0.00883723
0.00912959
-0.00147602
-0.00108855
-0.000750459
0.00236145
0.00276074
0.00185249
0.000758363
-0.00631074
-0.00753843
0.0010805
0.00380551
0.00484684
0.00563405
0.0040188
0.00414149
0.00610814
0.0054874
-0.0013971
-0.00168638
-0.00196392
-0.00180335
-0.00163004
0.00532962
0.00662039
-0.00784976
0.0112826
0.0104835
0.00577749
0.00937432
0.000896479
0.000802418
0.000713659
0.00546743
0.00566016
0.00565428
-0.00321479
-0.00313558
-0.0031283
-0.00261185
-0.00273498
0.0158276
0.0138229
0.0132642
0.0148951
0.00164043
0.00471936
0.00341795
0.00507138
0.00474828
0.0155006
0.0157957
0.0144545
0.00591272
0.00699151
0.000179492
0.000276669
0.000100812
0.0104965
0.0109993
0.00766317
0.00731526
0.0127724
0.00669731
0.00798734
0.00904703
-0.00190238
-0.00240993
0.0073568
0.00164872
0.00173774
-0.00116785
-0.00143014
-0.000973336
-0.00250936
0.00658957
0.00571697
0.00371108
0.00025361
0.00020022
7.68835e-05
0.000201784
0.00752593
0.00678949
-0.0018622
-0.00197936
-0.00187449
-0.0041363
-0.00368188
5.84024e-05
-0.00284637
-0.000494231
0.00838983
0.00849879
0.00959296
0.00912825
0.00770596
0.00307435
0.0029917
0.00324836
0.00312409
0.0050371
0.00481495
0.00515009
0.00537059
0.00530862
0.00537979
0.00559099
0.00614507
0.00583908
0.00543707
0.00576722
0.0064729
0.00722679
0.00751876
-0.000579454
-0.000560232
-0.0024706
0.000203585
5.39832e-05
-0.00199266
-0.00208097
0.000276348
0.00033857
0.000302699
0.000235548
0.00176181
0.00171327
0.00169515
-0.00291341
-0.00309997
-0.00276492
-0.00433099
-0.00481254
-0.00412489
-0.00471156
-0.00647595
-0.00517522
0.0160214
0.0167315
0.016499
0.000929857
0.00107467
0.000963498
0.0103477
0.00991975
0.01
0.00141774
0.00140228
0.00143334
0.00138638
0.00137126
0.00135556
0.00135587
0.00133971
0.00133996
0.0013716
0.00138682
0.00140211
0.00141768
0.00143383
0.00132432
0.00132358
0.00144839
0.00144844
0.00146283
0.00130851
0.0013077
0.00146323
0.00129224
0.00127606
0.00129205
0.00127621
0.00147947
0.00147954
0.00125999
0.0012602
0.0014943
0.00149468
0.00124387
0.00124416
0.00150928
0.00150967
0.00122775
0.00122802
0.0015242
0.00152465
0.00121154
0.00121188
0.00153908
0.00153952
0.00119532
0.00119565
0.00155401
0.00155442
0.00117898
0.00117942
0.00156919
0.00156943
0.00116264
0.00116286
0.0015835
0.0015839
0.00114615
0.00114603
0.00159915
0.00159918
0.00112928
0.00112894
0.00161325
0.00161321
0.00111135
0.00111183
0.00162807
0.00162781
0.00109402
0.00109482
0.00161259
0.00162744
0.00164295
0.00164252
0.0015817
0.00159792
0.001552
0.00156738
0.00152299
0.00153763
0.00149311
0.00150814
0.00146224
0.00147794
0.00143205
0.00144855
0.00140191
0.00141742
0.00137041
0.00138511
0.00133814
0.00135445
0.00130672
0.00132255
0.00127492
0.00129089
0.00124286
0.00125895
0.00121059
0.00122678
0.00117811
0.00119442
0.00114545
0.00116183
0.00111134
0.00112891
0.00109409
0.00107676
0.00107716
0.00112892
0.0010944
0.00111149
0.00116252
0.00114553
0.00119512
0.00117898
0.00122743
0.00121133
0.00125957
0.00124356
0.00129152
0.0012756
0.00132304
0.00130741
0.00135479
0.00133916
0.00138656
0.00137081
0.00141665
0.00140143
0.00144804
0.00143349
0.0014787
0.00146297
0.00150881
0.00149384
0.00153854
0.00152378
0.00156805
0.00155325
0.00159763
0.00158251
0.00162618
0.00161211
0.00164093
0.00164291
0.00107645
0.00107711
0.00165661
0.00165467
0.00165807
0.0016574
0.00161084
0.00164151
0.00162588
0.00158001
0.00159582
0.00155068
0.00156501
0.00152143
0.00153617
0.00149154
0.00150655
0.0014612
0.00147643
0.00143023
0.00144609
0.00139969
0.00141587
0.00136937
0.00138362
0.00133691
0.00135317
0.00130534
0.00132116
0.00127358
0.00128951
0.00124156
0.00125761
0.00120935
0.00122549
0.00117696
0.00119319
0.00114448
0.00116073
0.00111076
0.00112775
0.00105916
0.00105928
0.00107573
0.00109325
0.00109371
0.00107677
0.00105949
0.00105948
0.00112859
0.00111082
0.00116161
0.00114478
0.00119393
0.00117779
0.00122618
0.00121009
0.00125827
0.00124226
0.00129019
0.00127426
0.0013219
0.00130611
0.00135336
0.00133768
0.00138491
0.00136903
0.00141547
0.00140013
0.00144625
0.0014316
0.00147697
0.00146171
0.00150713
0.00149212
0.00153692
0.00152209
0.00156631
0.00155169
0.00159529
0.00158087
0.00162382
0.00160955
0.00165144
0.00163807
0.00165678
0.00166886
0.00166581
0.00167011
0.00105858
0.00105903
0.00167148
0.0016703
0.00168284
0.0016803
0.00167135
0.00107527
0.00105737
0.00104185
0.00104141
0.0016688
0.0016858
0.0017087
0.0016904
0.00163878
0.00165419
0.00160797
0.00162308
0.00157767
0.00159332
0.0015484
0.00156258
0.00151918
0.00153393
0.00148932
0.00150431
0.00145904
0.00147424
0.00142842
0.00144378
0.00139764
0.00141316
0.00136663
0.00138205
0.00133515
0.00135101
0.00130351
0.00131935
0.00127173
0.00128766
0.00123976
0.00125578
0.00120761
0.00122372
0.0011753
0.00119148
0.00114293
0.00115912
0.00110953
0.00112624
0.00109229
0.00104203
0.0010412
0.00104164
0.00104214
0.00109286
0.00105818
0.00107592
0.00112742
0.00111013
0.00115992
0.00114345
0.0011922
0.00117608
0.00122437
0.00120831
0.00125637
0.0012404
0.00128819
0.00127231
0.00131984
0.00130406
0.00135129
0.00133559
0.00138246
0.00136694
0.00141342
0.00139796
0.00144407
0.00142888
0.00147456
0.00145938
0.00150469
0.00148969
0.00153444
0.00151963
0.00156377
0.00154918
0.00159253
0.00157827
0.00162063
0.00160661
0.00164828
0.00163449
0.00167633
0.00166165
0.00169306
0.0016897
0.00168532
0.00168372
0.00104018
0.00104091
0.00169711
0.00169606
0.00169939
0.00170282
0.00170549
0.00163301
0.00170847
0.00168546
0.00169207
0.00168884
0.00166796
0.00168487
0.00163426
0.00165096
0.00160425
0.00161871
0.00157461
0.00159005
0.00154557
0.00156001
0.0015162
0.00153097
0.00148637
0.00150135
0.00145616
0.00147133
0.00142566
0.00144096
0.0013949
0.00141032
0.00136383
0.00137939
0.00133254
0.00134826
0.00130099
0.00131679
0.00126928
0.00128517
0.00123738
0.00125336
0.00120532
0.00122138
0.00117309
0.00118923
0.0011408
0.00115696
0.00110784
0.00112429
0.00107408
0.00109089
0.00103913
0.00105643
0.00102403
0.00102167
0.001023
0.00102495
0.00102451
0.00102497
0.00102506
0.00102383
0.00102451
0.00105711
0.00102242
0.00104059
0.00109139
0.00107457
0.00112542
0.0011088
0.00115771
0.00114156
0.00118994
0.00117385
0.001222
0.001206
0.0012539
0.00123799
0.00128563
0.0012698
0.00131716
0.00130143
0.00134852
0.00133288
0.00137961
0.00136413
0.0014105
0.00139509
0.00144111
0.00142587
0.00147149
0.00145635
0.00150153
0.00148657
0.00153121
0.00151644
0.00156044
0.0015459
0.00158912
0.00157489
0.001617
0.00160317
0.00164415
0.00163071
0.00167141
0.00165753
0.00169831
0.00168395
0.00171528
0.00171082
0.00169782
0.00169751
0.00171338
0.00170649
0.00103779
0.00102088
0.0010065
0.00100559
0.00170535
0.00171809
0.00174346
0.00165994
0.00172541
0.00172217
0.00170263
0.00169807
0.00167979
0.00167584
0.0016626
0.00167604
0.001629
0.00164565
0.0016003
0.00161459
0.00157113
0.0015859
0.00154192
0.00155652
0.00151251
0.00152727
0.00148274
0.00149768
0.00145261
0.00146773
0.00142218
0.00143744
0.00139148
0.00140688
0.00136051
0.00137603
0.0013293
0.00134496
0.00129786
0.00131361
0.00126625
0.00128209
0.00123445
0.00125038
0.00120249
0.0012185
0.00117037
0.00118646
0.0011381
0.00115426
0.00110574
0.00112193
0.00107193
0.00108889
0.00105472
0.0010069
0.0010047
0.0010063
0.0010083
0.0010078
0.00100796
0.00100837
0.00100733
0.00105563
0.00102067
0.00103968
0.00108979
0.00107284
0.00112281
0.00110671
0.00115506
0.00113896
0.00118717
0.00117115
0.00121912
0.00120318
0.0012509
0.00123504
0.0012825
0.00126674
0.00131392
0.00129825
0.00134515
0.00132958
0.00137616
0.00136071
0.00140694
0.00139159
0.00143747
0.00142226
0.00146774
0.00145266
0.0014977
0.00148278
0.00152728
0.00151256
0.00155641
0.00154193
0.00158499
0.0015708
0.00161284
0.00159903
0.00163982
0.00162647
0.00166628
0.00165327
0.00169171
0.00167757
0.00171742
0.00170607
0.00173256
0.00172737
0.00171134
0.00170858
0.00100277
0.00100391
0.00171455
0.0016762
0.00169885
0.00171891
0.00172761
0.00175086
0.00173256
0.00173962
0.00173593
0.00174287
0.00173998
0.00170948
0.00167586
0.00174018
0.00171147
0.00167012
0.0016696
0.00165399
0.00166785
0.00162405
0.00163878
0.00159551
0.00160981
0.0015666
0.00158113
0.00153748
0.00155206
0.00150813
0.00152286
0.00147844
0.00149334
0.0014484
0.00146348
0.00141807
0.00143329
0.00138747
0.00140282
0.00135661
0.00137208
0.00132551
0.0013411
0.00129419
0.00130988
0.00126269
0.00127847
0.00123101
0.00124689
0.00119917
0.00121513
0.00116717
0.0011832
0.00113502
0.00115113
0.00110274
0.0011189
0.00106991
0.00108658
0.00103546
0.0010528
0.00100112
0.00101847
0.00098775
0.000983783
0.000985937
0.000990576
0.000989175
0.000991929
0.000991502
0.000991681
0.000991954
0.000989822
0.000990939
0.000987105
0.000988555
0.00101945
0.00098543
0.00100226
0.0010537
0.00103705
0.00108759
0.0010709
0.00111981
0.00110374
0.00115196
0.00113592
0.00118394
0.00116798
0.00121574
0.00119988
0.00124738
0.0012316
0.00127885
0.00126316
0.00131014
0.00129453
0.00134124
0.00132573
0.00137212
0.00135673
0.00140279
0.0013875
0.00143321
0.00141806
0.00146337
0.00144835
0.00149322
0.00147836
0.00152269
0.00150803
0.00155171
0.00153729
0.00158018
0.00156605
0.00160797
0.00159419
0.00163492
0.00162158
0.00166097
0.00164817
0.00168616
0.00167336
0.00171001
0.00169892
0.00173335
0.00171974
0.00175191
0.00174649
0.00171805
0.0017318
0.00171695
0.00099875
0.000982108
0.000970019
0.000968114
0.00171922
0.00172938
0.00172536
0.00173776
0.00174544
0.00175563
0.00176203
0.00175745
0.00171893
0.00172744
0.00173915
0.00173238
0.00173145
0.00168118
0.00170561
0.00166304
0.00166809
0.00164585
0.00165868
0.00161792
0.00163181
0.00158986
0.00160398
0.00156127
0.00157564
0.00153234
0.00154685
0.0015031
0.00151778
0.00147352
0.00148837
0.0014436
0.00145861
0.00141338
0.00142854
0.00138289
0.00139818
0.00135215
0.00136756
0.00132118
0.00133671
0.00129
0.00130562
0.00125863
0.00127435
0.0012271
0.0012429
0.00119539
0.00121128
0.00116354
0.0011795
0.00113153
0.00114757
0.00109937
0.00111548
0.00106725
0.00108332
0.00103318
0.00105043
0.00101575
0.000971285
0.000966732
0.000969519
0.000974344
0.000972957
0.000975482
0.000975095
0.000975205
0.000975517
0.000973221
0.000974403
0.000971707
0.00101771
0.00098329
0.00100035
0.00105149
0.00103483
0.00108432
0.00106823
0.00111645
0.0011004
0.00114844
0.00113248
0.00118026
0.00116439
0.00121191
0.00119612
0.00124339
0.00122769
0.00127471
0.00125909
0.00130585
0.00129032
0.0013368
0.00132137
0.00136755
0.00135222
0.00139809
0.00138287
0.00142839
0.00141329
0.00145842
0.00144346
0.00148814
0.00147335
0.00151749
0.00150289
0.00154639
0.00153203
0.00157474
0.00156067
0.00160242
0.0015887
0.00162932
0.001616
0.00165529
0.00164248
0.00168027
0.00166789
0.00170346
0.00169229
0.00172709
0.00171404
0.0017498
0.00173754
0.00175621
0.00174499
0.0017674
0.00176126
0.00172443
0.000964662
0.000966192
0.00173572
0.00172949
0.00174713
0.00173112
0.00174
0.00174948
0.00174933
0.00175821
0.00176522
0.00177163
0.0017776
0.00177237
0.00172807
0.00172222
0.00175455
0.00175397
0.0017295
0.00171562
0.00172497
0.00168066
0.001696
0.0016573
0.00166673
0.00163776
0.00164977
0.0016111
0.00162455
0.00158354
0.00159745
0.00155529
0.00156951
0.00152657
0.00154099
0.00149748
0.00151209
0.00146802
0.00148281
0.00143823
0.00145318
0.00140814
0.00142324
0.00137779
0.00139301
0.00134718
0.00136253
0.00131636
0.00133181
0.00128533
0.00130088
0.00125411
0.00126976
0.00122273
0.00123846
0.00119119
0.00120699
0.00115949
0.00117537
0.00112765
0.0011436
0.00109565
0.00111168
0.00106357
0.00107962
0.00103081
0.00104752
0.000996374
0.00101342
0.000962478
0.000979958
0.000950386
0.000945441
0.000948095
0.000954968
0.000952568
0.000957851
0.000956729
0.000958994
0.000958588
0.000958733
0.000959041
0.000956944
0.000958059
0.000953955
0.000955296
0.000949658
0.000952065
0.000980996
0.000947266
0.000964193
0.00101569
0.000997726
0.00104853
0.00103255
0.00108071
0.00106467
0.00111271
0.00109675
0.00114453
0.00112866
0.00117617
0.00116039
0.00120765
0.00119195
0.00123897
0.00122335
0.00127011
0.00125458
0.00130109
0.00128565
0.00133189
0.00131653
0.00136249
0.00134724
0.00139288
0.00137773
0.00142303
0.00140801
0.00145293
0.00143804
0.00148251
0.00146779
0.00151172
0.00149719
0.00154049
0.00152619
0.00156871
0.0015547
0.00159628
0.00158261
0.00162307
0.00160981
0.00164896
0.00163618
0.00167383
0.00166154
0.00169713
0.00168577
0.00171969
0.00170845
0.00174126
0.00172967
0.00176393
0.00175359
0.00175845
0.00175814
0.00177787
0.00176869
0.00173602
0.00174042
0.00175957
0.001766
0.00175663
0.00174676
0.00175106
0.000960244
0.00094289
0.000932602
0.000930526
0.00176025
0.00176033
0.00176842
0.00177425
0.00178045
0.00178358
0.00176341
0.00176197
0.00176538
0.00178584
0.00178347
0.00177788
0.00173926
0.0017503
0.00174853
0.00171484
0.00172717
0.00170417
0.00171425
0.00167488
0.00168803
0.00165199
0.00166288
0.00162972
0.00164158
0.00160382
0.00161699
0.00157667
0.00159039
0.00154872
0.0015628
0.00152022
0.00153455
0.0014913
0.00150583
0.00146199
0.00147671
0.00143235
0.00144723
0.00140241
0.00141743
0.0013722
0.00138736
0.00134175
0.00135702
0.00131108
0.00132646
0.00128021
0.00129569
0.00124917
0.00126473
0.00121795
0.0012336
0.00118658
0.0012023
0.00115506
0.00117086
0.0011234
0.00113926
0.00109158
0.00110752
0.00105963
0.00107563
0.00102766
0.00104366
0.000993693
0.0010109
0.000977092
0.000934511
0.000929153
0.000932181
0.000938763
0.000936629
0.00094132
0.000940244
0.000942487
0.000942075
0.000942244
0.000942541
0.000940667
0.000941616
0.000937373
0.000939213
0.000935223
0.000978613
0.000944831
0.000961722
0.00101297
0.00099566
0.00104486
0.00102894
0.00107683
0.00106088
0.00110864
0.00109277
0.00114026
0.00112449
0.00117172
0.00115603
0.00120301
0.0011874
0.00123414
0.00121862
0.00126511
0.00124967
0.00129591
0.00128055
0.00132654
0.00131127
0.00135697
0.0013418
0.0013872
0.00137214
0.0014172
0.00140226
0.00144694
0.00143214
0.00147638
0.00146173
0.00150544
0.00149099
0.00153406
0.00151984
0.00156215
0.00154821
0.00158959
0.00157599
0.00161627
0.00160306
0.00164205
0.00162931
0.00166682
0.0016546
0.00169027
0.00167877
0.00171256
0.0017016
0.00173384
0.00172323
0.00175304
0.0017443
0.00177544
0.00175965
0.00176894
0.00178691
0.00179641
0.00179389
0.00178854
0.00177442
0.00176409
0.0017645
0.00174896
0.00175161
0.00092648
0.000928149
0.0017778
0.00175961
0.00176192
0.00176799
0.00177076
0.00177801
0.00178414
0.00178669
0.00178826
0.00177221
0.00176423
0.00176756
0.00177877
0.00178895
0.00179729
0.00177699
0.00178434
0.00178852
0.00179666
0.00180083
0.00175099
0.00175809
0.00175468
0.00173651
0.00174108
0.00171017
0.00172341
0.00169327
0.00170293
0.00166837
0.00168085
0.00164509
0.00165653
0.00162174
0.00163375
0.00159616
0.00160917
0.00156932
0.00158288
0.00154164
0.00155558
0.00151336
0.00152758
0.00148462
0.00149906
0.00145548
0.00147011
0.001426
0.0014408
0.00139622
0.00141117
0.00136617
0.00138125
0.00133589
0.00135108
0.00130539
0.00132068
0.0012747
0.00129009
0.00124383
0.0012593
0.0012128
0.00122835
0.00118162
0.00119725
0.00115029
0.00116599
0.00111882
0.00113458
0.0010872
0.00110304
0.00105543
0.00107135
0.00102357
0.00103951
0.000990923
0.00100759
0.000957791
0.000974087
0.000923896
0.000940307
0.000912662
0.000907597
0.000909974
0.000918338
0.000915422
0.000922349
0.000920649
0.000924808
0.000923732
0.00092596
0.000925557
0.000925727
0.000926017
0.000924151
0.000925101
0.000920745
0.000922737
0.000916352
0.000918571
0.000911625
0.000914056
0.00094197
0.00090841
0.000926157
0.000976397
0.000958795
0.00100909
0.000993124
0.0010409
0.00102499
0.00107266
0.00105682
0.00110425
0.00108849
0.00113566
0.00111999
0.00116692
0.00115133
0.00119801
0.00118251
0.00122895
0.00121352
0.00125973
0.00124438
0.00129035
0.00127508
0.00132079
0.00130561
0.00135105
0.00133597
0.00138111
0.00136613
0.00141094
0.00139608
0.00144052
0.00142579
0.00146979
0.00145522
0.00149869
0.00148432
0.00152716
0.00151302
0.0015551
0.00154123
0.0015824
0.00156887
0.00160896
0.00159581
0.00163463
0.00162195
0.0016593
0.00164713
0.00168276
0.00167122
0.00170502
0.00169407
0.00172605
0.00171574
0.00174472
0.00173589
0.0017625
0.00175369
0.00176451
0.00177684
0.00178387
0.0018006
0.00179434
0.00176127
0.00176259
0.00177448
0.00176946
0.00177234
0.000920952
0.00090506
0.000895193
0.00089205
0.00177912
0.00178062
0.0017874
0.00179223
0.0017956
0.00179943
0.00177694
0.00176967
0.00178564
0.00178712
0.00179288
0.00178569
0.00179342
0.00180548
0.00180202
0.00179722
0.00180542
0.00176236
0.00175977
0.00174831
0.00174441
0.00175317
0.00172376
0.0017338
0.0017038
0.00171425
0.00168415
0.00169435
0.00166077
0.00167269
0.00163735
0.00164901
0.00161354
0.00162567
0.00158812
0.00160102
0.00156153
0.00157497
0.00153409
0.00154792
0.00150603
0.00152015
0.00147748
0.00149183
0.00144853
0.00146307
0.00141922
0.00143394
0.00138962
0.00140448
0.00135975
0.00137473
0.00132964
0.00134474
0.00129933
0.00131453
0.00126882
0.00128412
0.00123815
0.00125352
0.00120731
0.00122277
0.00117633
0.00119186
0.0011452
0.0011608
0.00111393
0.0011296
0.00108252
0.00109826
0.00105097
0.00106678
0.00101927
0.00103515
0.00098754
0.00100344
0.000954615
0.000970882
0.000937389
0.000896439
0.000891078
0.000894144
0.000902232
0.000899425
0.000905875
0.00090424
0.000908299
0.000907243
0.000909419
0.000909026
0.000909207
0.00090948
0.000907696
0.000908606
0.000904989
0.000906506
0.000900213
0.000902795
0.000897438
0.00093913
0.000905631
0.000923511
0.00097343
0.000956118
0.00100503
0.00098925
0.00103668
0.00102088
0.0010682
0.00105248
0.00109957
0.00108393
0.00113077
0.00111521
0.00116182
0.00114633
0.0011927
0.0011773
0.00122344
0.00120811
0.00125402
0.00123877
0.00128443
0.00126927
0.00131469
0.00129961
0.00134476
0.00132977
0.00137464
0.00135975
0.00140429
0.00138952
0.00143369
0.00141906
0.00146279
0.00144831
0.00149153
0.00147724
0.00151983
0.00150577
0.00154761
0.00153383
0.00157477
0.00156131
0.00160119
0.00158811
0.00162675
0.00161412
0.00165131
0.0016392
0.00167472
0.0016632
0.0016969
0.001686
0.00171773
0.00170753
0.00173653
0.00172748
0.00175311
0.00174532
0.00176676
0.00175954
0.00178561
0.00177766
0.00180137
0.00179481
0.00178296
0.0017853
0.00178305
0.0017716
0.00177304
0.000888008
0.000889373
0.00179208
0.00177948
0.00178226
0.00178916
0.00178997
0.00179602
0.00180045
0.00180366
0.00180492
0.00178919
0.00177808
0.0017773
0.00178516
0.00178458
0.0017991
0.00178811
0.00180154
0.00179309
0.00180146
0.00179272
0.00181037
0.00181064
0.00180803
0.00180401
0.00177283
0.00176704
0.00177701
0.00174794
0.00174337
0.00173186
0.00174394
0.00171494
0.00172365
0.0016955
0.0017055
0.00167514
0.00168558
0.00165242
0.00166399
0.00162907
0.0016408
0.00160504
0.00161722
0.00157973
0.00159256
0.00155335
0.00156668
0.00152614
0.00153985
0.00149829
0.00151231
0.00146995
0.0014842
0.00144118
0.00145563
0.00141206
0.00142668
0.00138264
0.00139741
0.00135296
0.00136785
0.00132305
0.00133805
0.00129293
0.00130803
0.00126262
0.00127781
0.00123215
0.00124742
0.00120152
0.00121687
0.00117074
0.00118616
0.00113983
0.00115532
0.00110878
0.00112433
0.00107759
0.00109321
0.00104626
0.00106196
0.00101479
0.00103056
0.00098321
0.000999023
0.000951664
0.00096736
0.000917681
0.000934435
0.000885232
0.000901654
0.000874692
0.000867932
0.000871634
0.00088095
0.000877633
0.000885969
0.000883846
0.000889432
0.000887819
0.000891782
0.000890763
0.000892869
0.000892486
0.000892677
0.000892933
0.000891229
0.000892105
0.000888656
0.000890075
0.000884886
0.000886944
0.000878789
0.000881924
0.000873071
0.000875924
0.000902936
0.000870364
0.000887076
0.000936049
0.000920084
0.000969478
0.000953056
0.0010008
0.000985105
0.00103222
0.00101654
0.0010635
0.00104789
0.00109463
0.00107911
0.00112561
0.00111016
0.00115644
0.00114107
0.00118711
0.00117181
0.00121763
0.00120241
0.001248
0.00123286
0.00127822
0.00126315
0.00130827
0.00129329
0.00133815
0.00132326
0.00136783
0.00135304
0.0013973
0.00138263
0.00142652
0.00141197
0.00145543
0.00144105
0.00148399
0.00146979
0.00151213
0.00149815
0.00153974
0.00152604
0.00156675
0.00155336
0.00159303
0.00158002
0.00161846
0.00160589
0.00164291
0.00163085
0.00166624
0.00165476
0.00168832
0.00167748
0.00170898
0.00169888
0.00172779
0.00171869
0.00174449
0.0017365
0.00175917
0.00175184
0.00177268
0.00176715
0.00177275
0.00179521
0.00179673
0.00180302
0.00179726
0.00178159
0.00178302
0.00179839
0.00178909
0.00179167
0.000882089
0.000865219
0.000857033
0.000854499
0.00179867
0.00179871
0.00180416
0.00180811
0.00181051
0.00181132
0.00177663
0.00176903
0.00176869
0.00177928
0.00178932
0.00179988
0.00180795
0.00179977
0.00180509
0.00181606
0.00181411
0.00180864
0.00180627
0.00178827
0.00179348
0.00178286
0.00177009
0.00176409
0.00175297
0.00176677
0.00173629
0.00174243
0.00172284
0.00173102
0.00170576
0.00171452
0.00168644
0.00169634
0.0016659
0.00167639
0.00164357
0.00165493
0.00162031
0.00163205
0.00159622
0.00160842
0.00157101
0.00158377
0.00154482
0.00155805
0.00151782
0.00153143
0.00149019
0.0015041
0.00146205
0.0014762
0.00143348
0.00144783
0.00140456
0.00141908
0.00137534
0.00139
0.00134585
0.00136064
0.00131614
0.00133104
0.00128622
0.00130122
0.00125612
0.00127121
0.00122586
0.00124103
0.00119545
0.00121069
0.00116489
0.0011802
0.0011342
0.00114958
0.00110337
0.00111882
0.00107242
0.00108793
0.00104133
0.0010569
0.00101011
0.00102575
0.000978765
0.00099446
0.000947597
0.00096313
0.000914486
0.000931253
0.000897737
0.000859129
0.00085193
0.000856114
0.000865392
0.000862266
0.000869626
0.000867643
0.000873001
0.000871439
0.000875262
0.00087428
0.000876314
0.000875942
0.000876136
0.00087638
0.000874738
0.000875587
0.000872176
0.000873597
0.000868558
0.000870508
0.000862958
0.000866015
0.000859855
0.000900321
0.000867298
0.000884596
0.000933038
0.000916558
0.000965102
0.000949436
0.000996348
0.00098073
0.00102752
0.00101197
0.00105857
0.00104308
0.00108946
0.00107405
0.00112021
0.00110488
0.00115081
0.00113555
0.00118126
0.00116607
0.00121156
0.00119645
0.00124172
0.00122668
0.00127172
0.00125676
0.00130157
0.00128669
0.00133124
0.00131645
0.00136073
0.00134604
0.00139
0.00137542
0.00141903
0.00140458
0.00144776
0.00143346
0.00147613
0.00146202
0.00150409
0.0014902
0.00153153
0.00151791
0.00155838
0.00154507
0.00158451
0.00157157
0.00160981
0.00159731
0.00163414
0.00162214
0.00165737
0.00164594
0.00167935
0.00166856
0.00169989
0.00168985
0.00171867
0.00170956
0.00173544
0.00172737
0.00175035
0.00174304
0.00176263
0.00175724
0.00177203
0.00176708
0.00178527
0.00177414
0.00179185
0.00178378
0.00177788
0.00180349
0.00180457
0.00179111
0.00179249
0.000849033
0.000851113
0.00180252
0.00179828
0.0018005
0.00180718
0.00180693
0.00181179
0.00181503
0.00181676
0.00181695
0.00177213
0.00176264
0.00175716
0.00177558
0.00176974
0.00178047
0.00177073
0.00178386
0.00178895
0.00180171
0.00180652
0.00181294
0.00180996
0.00182004
0.0018162
0.00180987
0.00180395
0.00179503
0.00178857
0.00179237
0.00176907
0.0017693
0.00175829
0.00174749
0.00174027
0.0017556
0.00172751
0.00173335
0.00171332
0.00172104
0.0016961
0.00170496
0.00167698
0.00168677
0.00165642
0.0016669
0.00163433
0.00164556
0.00161117
0.00162288
0.00158709
0.00159928
0.001562
0.00157469
0.00153598
0.00154912
0.00150919
0.00152269
0.00148176
0.00149557
0.00145383
0.00146787
0.00142547
0.00143972
0.00139675
0.00141117
0.00136773
0.00138229
0.00133845
0.00135314
0.00130894
0.00132374
0.00127924
0.00129413
0.00124936
0.00126434
0.00121932
0.00123437
0.00118913
0.00120426
0.0011588
0.001174
0.00112834
0.0011436
0.00109775
0.00111307
0.00106703
0.00108242
0.00103618
0.00105163
0.00100522
0.00102073
0.000974135
0.000989701
0.000943036
0.000958577
0.000911292
0.000927469
0.000878982
0.000894518
0.000846134
0.000862502
0.000836571
0.000829777
0.00083361
0.000843491
0.000839756
0.000849136
0.000846671
0.000853286
0.000851294
0.000856563
0.000855057
0.000858741
0.000857794
0.00085976
0.000859398
0.000859592
0.000859825
0.000858246
0.000859065
0.000855757
0.000857142
0.000852222
0.000854106
0.000847787
0.000850165
0.000841464
0.000844659
0.00083532
0.000838297
0.000864459
0.000832447
0.000848375
0.000897251
0.000880642
0.000929489
0.000913223
0.000960627
0.000945099
0.000991693
0.000976188
0.00102263
0.00100719
0.00105343
0.00103806
0.00108408
0.00106879
0.0011146
0.00109938
0.00114496
0.00112982
0.00117518
0.00116011
0.00120526
0.00119026
0.00123519
0.00122027
0.00126498
0.00125013
0.00129461
0.00127984
0.00132408
0.0013094
0.00135336
0.00133877
0.00138243
0.00136796
0.00141126
0.00139691
0.00143979
0.0014256
0.00146798
0.00145397
0.00149575
0.00148195
0.00152302
0.00150949
0.0015497
0.00153648
0.00157569
0.00156282
0.00160085
0.00158841
0.00162506
0.00161312
0.00164819
0.00163681
0.00167007
0.00165933
0.00169052
0.00168052
0.00170926
0.00170015
0.00172607
0.00171796
0.00174093
0.00173373
0.00175328
0.0017476
0.00176254
0.00175831
0.00176991
0.00176646
0.00176792
0.00181081
0.00181152
0.0017841
0.00177813
0.00180015
0.00180139
0.00180994
0.00180675
0.00180877
0.000843104
0.000826627
0.000819375
0.000816171
0.00181483
0.00181456
0.00181873
0.0018213
0.00182231
0.00182191
0.00176223
0.00175632
0.00174442
0.0017502
0.00177732
0.00178081
0.00179538
0.00179387
0.0018081
0.00181309
0.00181615
0.00182278
0.00181761
0.00181123
0.00180021
0.00179583
0.00178663
0.00177002
0.00177621
0.00180134
0.00175727
0.0017407
0.00175804
0.00176319
0.00174439
0.00174138
0.00173096
0.00174158
0.00171815
0.00172429
0.00170341
0.00171122
0.00168621
0.00169506
0.00166721
0.00167694
0.00164669
0.00165716
0.00162476
0.00163591
0.00160171
0.00161338
0.0015777
0.00158985
0.00155272
0.00156535
0.00152687
0.00153992
0.00150027
0.00151367
0.00147305
0.00148675
0.00144532
0.00145926
0.00141717
0.00143131
0.00138866
0.00140298
0.00135985
0.00137431
0.00133079
0.00134537
0.0013015
0.00131619
0.00127201
0.0012868
0.00124236
0.00125722
0.00121254
0.00122748
0.00118258
0.0011976
0.00115249
0.00116757
0.00112227
0.00113741
0.00109192
0.00110712
0.00106145
0.00107671
0.00103085
0.00104618
0.00100014
0.00101552
0.000969319
0.000984754
0.000938416
0.000953883
0.000907506
0.000922989
0.00087534
0.000891174
0.000859258
0.000821373
0.000813934
0.000818224
0.000827784
0.000824471
0.000832832
0.000830473
0.000836958
0.000835001
0.000840123
0.00083867
0.000842225
0.000841311
0.00084321
0.00084286
0.000843052
0.000843275
0.00084176
0.000842547
0.000839369
0.0008407
0.000835939
0.000837776
0.000831632
0.000833909
0.000825627
0.000828833
0.000822361
0.000861539
0.000829849
0.000845494
0.000894048
0.000877569
0.000925062
0.000909513
0.000956028
0.000940572
0.000986858
0.000971477
0.00101755
0.00100224
0.0010481
0.00103286
0.00107851
0.00106334
0.00110878
0.00109369
0.00113891
0.00112389
0.0011689
0.00115395
0.00119875
0.00118386
0.00122846
0.00121364
0.00125802
0.00124328
0.00128744
0.00127277
0.00131669
0.00130211
0.00134576
0.00133128
0.00137462
0.00136025
0.00140325
0.001389
0.00143158
0.00141748
0.00145958
0.00144566
0.00148716
0.00147346
0.00151426
0.00150081
0.00154077
0.00152763
0.0015666
0.00155381
0.00159163
0.00157925
0.00161572
0.00160383
0.00163874
0.00162741
0.00166053
0.00164983
0.0016809
0.00167094
0.00169962
0.00169051
0.00171646
0.00170832
0.00173129
0.00172416
0.0017437
0.00173791
0.00175331
0.00174885
0.00175981
0.00175717
0.00176257
0.00176126
0.00176851
0.00175988
0.00176195
0.00175701
0.00176188
0.00181733
0.00181697
0.00180854
0.0018097
0.000810934
0.000813206
0.00181665
0.00181445
0.00181642
0.00182179
0.00182152
0.00182498
0.00182682
0.00182711
0.00182578
0.00173513
0.00173882
0.00173749
0.00175315
0.00175824
0.00176665
0.0017871
0.00178854
0.00180175
0.00180469
0.00181274
0.00181754
0.00182445
0.00181835
0.00181036
0.00180265
0.00179239
0.00178013
0.00176764
0.00175013
0.00176109
0.00175021
0.00180968
0.00175416
0.00172997
0.00174458
0.00174074
0.00174445
0.00174765
0.00173212
0.00173712
0.00172188
0.00172841
0.00170844
0.00171518
0.00169336
0.00170123
0.00167617
0.00168501
0.00165722
0.00166692
0.00163675
0.00164718
0.00161493
0.00162602
0.00159199
0.00160361
0.00156806
0.00158016
0.0015432
0.00155576
0.00151751
0.00153048
0.0014911
0.00150441
0.00146408
0.00147768
0.00143656
0.0014504
0.00140862
0.00142266
0.00138033
0.00139453
0.00135173
0.00136608
0.00132289
0.00133736
0.00129382
0.0013084
0.00126456
0.00127923
0.00123514
0.00124989
0.00120556
0.00122038
0.00117584
0.00119073
0.00114599
0.00116095
0.00111601
0.00113103
0.00108591
0.00110099
0.00105569
0.00107083
0.00102535
0.00104055
0.000994895
0.00101015
0.000964337
0.00097964
0.000933689
0.000949034
0.000903053
0.000918366
0.000871502
0.000887205
0.000840056
0.000855876
0.000808068
0.000823756
0.000798713
0.000791767
0.000795714
0.000805888
0.000802052