/*--------------------------------*- C++ -*----------------------------------*\
  =========                 |
  \\      /  F ield         | OpenFOAM: The Open Source CFD Toolbox
   \\    /   O peration     | Website:  https://openfoam.org
    \\  /    A nd           | Version:  10
     \\/     M anipulation  |
\*---------------------------------------------------------------------------*/
FoamFile
{
    format      ascii;
    class       volVectorField;
    location    "20";
    object      U;
}
// * * * * * * * * * * * * * * * * * * * * * * * * * * * * * * * * * * * * * //

dimensions      [0 1 -1 0 0 0 0];

internalField   nonuniform List<vector> 
6397
(
(1.03626 -0.179958 1.14404e-20)
(1.04038 -0.192616 -5.40039e-20)
(0.879056 -0.124641 0)
(0.898525 -0.182685 1.55148e-22)
(0.899695 -0.256878 1.43783e-22)
(0.876928 -0.20328 5.1194e-22)
(0.769512 -0.487284 -4.97484e-20)
(0.462681 -0.694248 1.11477e-19)
(-0.0767855 -0.0981933 1.6458e-20)
(-0.0880986 -0.125955 -5.27518e-21)
(0.51046 0.720681 5.97637e-20)
(0.826515 0.732308 -5.9021e-21)
(0.450001 0.0274237 -3.67074e-22)
(0.517024 0.0153931 -1.23213e-22)
(0.329386 0.0267114 1.09654e-21)
(0.0563682 0.0107103 -1.46673e-19)
(0.260022 -0.0167616 -8.24142e-20)
(-0.0436915 0.012283 6.83628e-20)
(0.328244 0.0131321 5.46895e-20)
(0.441766 -0.166114 -1.66987e-19)
(0.543595 -0.0156544 -8.69091e-20)
(0.0802314 -0.0439026 -6.65147e-20)
(-0.0929615 -0.0511875 2.9213e-21)
(0.304049 -0.0482471 -4.43373e-20)
(0.655516 0.0143834 0)
(0.655145 0.0129854 1.18003e-22)
(0.785716 0.0161969 -3.12063e-24)
(0.833443 0.427753 1.27471e-20)
(0.856768 0.505073 -2.91092e-21)
(0.800778 0.287963 5.21301e-21)
(0.817271 0.388705 -8.21702e-21)
(0.959711 -0.251364 1.23385e-21)
(0.937109 -0.207396 7.82034e-22)
(0.920275 -0.233357 -2.05765e-21)
(1.01875 -0.281284 3.49399e-22)
(0.99603 -0.244359 0)
(0.993787 -0.267335 -2.85715e-22)
(0.969971 -0.227584 -8.83743e-22)
(1.05953 -0.263157 1.57287e-21)
(1.08233 -0.287117 -8.99989e-22)
(1.0447 -0.290225 0)
(1.02191 -0.256224 0)
(0.793906 0.167304 -2.57985e-21)
(0.821998 -0.163402 -6.95186e-22)
(0.808678 -0.0803783 5.91619e-22)
(0.858427 -0.139889 5.88806e-22)
(0.857196 -0.221561 -3.65145e-22)
(0.838066 -0.152567 9.99413e-22)
(1.24872 -0.215142 5.8683e-22)
(1.26872 -0.181838 -2.1259e-22)
(1.31314 -0.133016 3.33645e-21)
(1.29594 -0.10857 -8.80636e-22)
(1.2974 -0.122965 -5.70997e-21)
(0.988508 0.198168 -7.30321e-21)
(1.03789 0.226621 4.81812e-21)
(1.03246 0.0510097 4.69589e-21)
(1.03799 0.0639017 4.7367e-21)
(1.15391 -0.0332294 -2.98546e-21)
(1.0014 0.601367 -4.77745e-21)
(0.99526 0.578005 4.767e-21)
(1.00333 0.608778 6.024e-21)
(0.998416 0.589325 -5.92475e-21)
(0.983281 0.532159 -8.59234e-21)
(0.95666 0.428474 8.44525e-21)
(0.92438 0.26626 0)
(0.892073 0.0550244 1.05838e-20)
(0.867498 -0.178101 -1.11217e-20)
(0.854672 -0.391363 0)
(0.983816 0.58863 -4.49215e-21)
(0.980311 0.559207 2.83108e-23)
(0.976713 0.578409 4.27452e-21)
(0.980752 0.604042 0)
(0.971081 0.603386 0)
(0.95457 0.571233 0)
(0.929926 0.498552 -2.74715e-23)
(0.896421 0.380838 4.27835e-24)
(0.860599 0.213328 0)
(0.829422 0.00661014 -1.05627e-24)
(0.811998 -0.21258 0)
(0.809953 -0.406631 0)
(0.957686 0.582422 -5.14573e-21)
(0.95477 0.554876 3.08643e-22)
(0.858814 -0.547431 0)
(0.827946 -0.539108 0)
(0.931693 0.589285 -4.78536e-22)
(0.921463 0.557111 0)
(0.879406 -0.62351 0)
(0.863808 -0.59341 0)
(0.903169 0.579618 1.16942e-20)
(0.886682 0.54674 -1.12527e-21)
(0.91337 -0.628918 0)
(0.909902 -0.590115 0)
(0.87834 0.538191 -9.41708e-21)
(0.856683 0.460366 -7.86817e-21)
(0.948716 -0.605169 0)
(0.95179 -0.572739 4.61413e-22)
(0.924174 0.609469 0)
(0.889442 0.479082 1.62661e-20)
(0.904927 0.567115 1.0113e-21)
(0.964537 0.599796 -4.64382e-21)
(0.946205 0.614444 0)
(0.9742 0.588696 -2.18166e-21)
(0.975366 0.588165 4.66777e-21)
(0.942193 0.585237 2.75494e-21)
(0.962152 0.594562 1.73137e-21)
(0.886481 0.460095 2.75176e-23)
(0.91715 0.543224 -2.90101e-21)
(0.814932 0.167098 -1.58479e-22)
(0.850757 0.33479 -4.14961e-21)
(0.774737 -0.233316 -3.44709e-21)
(0.787424 -0.0304822 7.26977e-21)
(0.809119 -0.515722 0)
(0.780606 -0.406127 0)
(0.912149 -0.542933 0)
(0.857972 -0.551925 0)
(0.958839 -0.533764 -8.41463e-22)
(0.906892 -0.631879 -6.36278e-21)
(0.948293 -0.631292 -2.1332e-21)
(0.92518 -0.654126 6.28518e-21)
(0.914803 -0.358564 9.86269e-21)
(0.906003 -0.533771 -9.63812e-21)
(0.968428 0.108478 8.85627e-23)
(0.942148 -0.129517 3.43796e-22)
(1.02496 0.469128 0)
(1.00212 0.31859 0)
(1.04565 0.597864 5.80128e-21)
(1.04335 0.557728 9.62018e-22)
(1.02431 0.589048 8.06549e-22)
(1.03924 0.603605 -5.77168e-21)
(0.986897 0.532951 1.97689e-21)
(1.00905 0.558173 -2.50921e-22)
(0.917419 0.517518 -3.84519e-21)
(0.95593 0.520446 -1.79114e-21)
(0.843336 0.463275 0)
(0.877668 0.502938 4.48282e-21)
(0.844638 0.339966 -8.01018e-21)
(0.818108 0.317977 2.61466e-22)
(0.882319 0.352395 5.22703e-21)
(0.993344 -0.549754 -1.26529e-21)
(0.982444 -0.575471 3.12953e-22)
(0.950635 -0.645918 -3.34111e-23)
(0.964727 -0.606447 2.13707e-21)
(0.95648 -0.609843 0)
(1.01784 -0.584707 8.28222e-22)
(1.00491 -0.516777 -1.35052e-21)
(1.03782 -0.555025 1.34276e-21)
(0.794067 0.256545 2.47506e-21)
(0.926715 0.491957 -8.91472e-21)
(0.928654 0.353845 -5.00263e-21)
(0.78595 0.147066 2.53311e-21)
(0.973686 -0.595123 1.12845e-22)
(0.948477 0.622649 0)
(0.936708 0.578457 -1.95804e-21)
(0.973546 0.607943 1.4478e-22)
(0.96224 0.626192 0)
(0.969942 0.57854 -6.99157e-22)
(0.976669 0.588489 1.35954e-21)
(0.923597 0.560019 0)
(0.950714 0.576061 2.76722e-22)
(0.856606 0.427103 0)
(0.89151 0.513953 1.69639e-22)
(0.785643 0.135506 0)
(0.820093 0.300238 4.15907e-22)
(0.751107 -0.235949 -9.3223e-23)
(0.760188 -0.0507461 3.60359e-22)
(0.802783 -0.473911 1.42149e-22)
(0.764314 -0.384843 -2.9288e-22)
(0.917909 -0.489408 -2.5659e-23)
(0.859465 -0.49776 -4.86106e-23)
(0.967142 -0.49066 3.74863e-22)
(0.942318 -0.634276 1.15889e-22)
(0.94251 -0.667525 8.83656e-23)
(0.982887 -0.3272 -1.06762e-23)
(0.957029 -0.519247 0)
(1.05685 0.159898 0)
(1.02006 -0.084882 -1.84756e-22)
(1.10048 0.50115 0)
(1.08478 0.362044 0)
(1.09367 0.595147 -5.66712e-24)
(1.10324 0.571725 -9.75955e-22)
(1.0486 0.567795 -5.21768e-22)
(1.07377 0.590022 0)
(0.996091 0.501815 -1.40701e-21)
(1.02405 0.534122 0)
(0.9199 0.473969 1.01328e-22)
(0.961794 0.482352 1.40951e-21)
(0.83779 0.419535 2.67358e-24)
(0.875785 0.45997 4.25748e-22)
(0.811332 0.35047 -2.19194e-21)
(0.841796 0.197375 1.76825e-21)
(0.811735 0.18703 0)
(0.929839 0.188359 2.93077e-21)
(0.880617 0.195282 -2.36439e-21)
(0.947529 -0.586791 0)
(0.963275 -0.60313 0)
(0.99883 -0.60283 -4.80385e-22)
(1.01503 -0.480205 -1.34387e-22)
(1.05438 -0.515905 0)
(1.07472 -0.585551 -2.20501e-22)
(1.04225 -0.616393 9.96964e-23)
(0.940383 -0.564465 0)
(0.916728 -0.578302 0)
(0.905757 -0.537302 -8.29759e-22)
(0.79658 0.0376721 3.50118e-21)
(0.78614 0.0302261 0)
(0.936925 0.0113071 -5.95671e-21)
(0.98454 0.18368 -4.97988e-23)
(0.997754 -0.000935737 1.59537e-20)
(0.785386 0.130484 0)
(0.794136 0.231834 -1.19122e-21)
(0.98212 -0.608006 0)
(0.974005 0.493728 1.13338e-21)
(0.981756 0.355224 0)
(0.979768 0.629691 2.55014e-23)
(0.978296 0.584598 -1.21621e-22)
(0.986661 0.608842 -2.9776e-22)
(0.984891 0.632562 0)
(0.969624 0.561053 3.37273e-24)
(0.982825 0.580661 -2.72434e-22)
(0.911628 0.526089 -3.11777e-24)
(0.944691 0.548902 -2.5168e-22)
(0.834464 0.388319 5.41301e-22)
(0.873495 0.476658 0)
(0.763581 0.105829 0)
(0.796637 0.263219 -5.51677e-22)
(0.738409 -0.229932 -1.53867e-22)
(0.742046 -0.065981 8.53443e-23)
(0.804347 -0.423468 0)
(0.759005 -0.355709 -1.67127e-23)
(0.926917 -0.434819 -5.43801e-23)
(0.865737 -0.438226 1.29879e-22)
(0.976736 -0.446944 2.2959e-22)
(0.958436 -0.647644 -5.57992e-22)
(0.954972 -0.603443 1.31475e-24)
(0.983369 -0.619272 -2.96864e-22)
(0.964985 -0.664201 9.89073e-22)
(1.05582 -0.292287 -1.55454e-22)
(1.01313 -0.494163 -1.26391e-21)
(1.14197 0.190781 0)
(1.10171 -0.0476574 1.64649e-21)
(1.1706 0.502856 0)
(1.16549 0.379987 0)
(1.13899 0.573803 1.03552e-23)
(1.16001 0.561561 0)
(1.07477 0.539001 0)
(1.1087 0.562533 0)
(1.01115 0.470109 0)
(1.04205 0.506022 0)
(0.930888 0.430153 4.77691e-22)
(0.974277 0.444182 0)
(0.842821 0.38211 -2.64774e-24)
(0.884305 0.416747 -4.88021e-22)
(0.811472 0.318136 1.35096e-21)
(0.844899 0.0356378 2.10991e-21)
(0.814629 0.0408132 -3.27976e-21)
(0.885126 0.0252196 5.16726e-21)
(1.10033 -0.542772 1.51093e-21)
(0.94316 -0.6114 0)
(1.00789 -0.631477 6.08382e-22)
(0.852157 -0.501722 8.6865e-22)
(0.870643 -0.558211 0)
(1.11239 -0.605705 2.75491e-22)
(1.06514 -0.630742 1.03562e-21)
(0.953481 -0.156585 -2.01247e-22)
(1.01544 -0.172223 -6.61461e-23)
(0.806366 -0.0973685 3.14399e-21)
(0.795407 -0.0898465 2.24845e-21)
(0.801078 0.211402 6.57794e-22)
(0.790696 0.116501 0)
(1.04819 0.177131 1.44802e-21)
(1.06483 -0.0101397 3.11909e-21)
(1.14759 -0.566317 -1.51549e-21)
(1.18958 -0.588659 -3.13852e-22)
(1.13983 -0.618794 -2.8281e-21)
(0.784766 0.0231575 6.72499e-22)
(0.975755 -0.629422 0)
(1.02849 0.492693 1.3415e-21)
(1.04174 0.352198 -5.72379e-21)
(1.01759 0.630293 -9.06655e-22)
(1.02491 0.585167 2.44374e-21)
(1.00521 0.603 0)
(1.01258 0.631068 0)
(0.97468 0.539375 -6.48782e-25)
(0.993695 0.568306 -2.06686e-28)
(0.907134 0.487976 3.08991e-24)
(0.945036 0.517297 0)
(0.820972 0.348379 0)
(0.863845 0.435278 -1.3592e-28)
(0.750093 0.0799049 0)
(0.781358 0.227246 0)
(0.734624 -0.218412 0)
(0.732252 -0.0767746 0)
(0.814065 -0.367863 0)
(0.762323 -0.319712 0)
(0.937604 -0.381221 0)
(0.878116 -0.377034 0)
(1.0223 -0.440478 -1.48557e-22)
(0.983512 -0.404583 0)
(1.11898 -0.491679 0)
(1.06756 -0.46937 1.37617e-23)
(1.22465 -0.538381 0)
(1.17209 -0.51472 -2.66223e-22)
(0.930145 -0.541629 -1.5031e-22)
(0.840881 -0.443027 -6.5669e-23)
(0.89551 -0.494817 1.50961e-22)
(0.966869 -0.636748 2.09195e-22)
(0.950154 -0.592985 -1.3143e-24)
(1.02588 -0.590531 -2.13621e-22)
(0.989319 -0.646329 -2.72691e-22)
(1.13087 -0.246856 -9.85798e-25)
(1.07424 -0.4544 0)
(1.22605 0.219847 0)
(1.18525 -0.00557573 0)
(1.23717 0.49716 0)
(1.24352 0.391327 0)
(1.17994 0.545449 -8.97358e-25)
(1.21335 0.542431 0)
(1.09887 0.502611 0)
(1.14094 0.527557 0)
(1.02354 0.436166 0)
(1.05929 0.47172 0)
(0.944759 0.385849 1.44827e-22)
(0.987325 0.404859 -1.50627e-22)
(0.853004 0.342733 1.64427e-22)
(0.896949 0.370051 -1.09507e-23)
(0.820172 0.288956 -9.51894e-22)
(0.856704 -0.123775 -3.03594e-21)
(0.825183 -0.107978 -3.38753e-21)
(0.899436 -0.139173 0)
(0.786936 -0.434533 0)
(0.772513 -0.366369 2.84852e-23)
(1.22566 -0.588938 3.61036e-21)
(1.27744 -0.544881 0)
(0.911696 -0.601211 0)
(1.01261 -0.638863 0)
(1.08145 -0.183456 0)
(0.79227 -0.0834745 -3.29808e-21)
(0.81116 0.189615 1.73775e-22)
(0.800083 0.104073 0)
(0.816065 -0.498415 1.13107e-22)
(1.07578 -0.62841 -1.30423e-21)
(0.699256 -0.254545 1.28162e-23)
(0.717732 -0.324393 -7.73137e-23)
(1.15456 -0.605376 3.16745e-21)
(1.24774 -0.54962 9.57551e-22)
(1.32096 -0.526004 0)
(0.790516 0.0175109 2.59825e-21)
(0.96219 -0.628468 0)
(1.11743 0.164203 -5.77994e-21)
(1.15017 -0.194836 -4.01004e-21)
(1.13653 -0.0227957 -1.52346e-20)
(1.08714 0.483008 -1.74999e-21)
(1.1046 0.341878 5.46577e-21)
(1.05743 0.621103 0)
(1.07497 0.576545 1.03683e-21)
(1.02558 0.590133 2.46193e-28)
(1.04296 0.619931 -2.56004e-28)
(0.982616 0.513558 -7.02214e-25)
(1.00733 0.550126 0)
(0.908192 0.446343 0)
(0.949537 0.482446 0)
(0.816516 0.306543 -1.09364e-24)
(0.861907 0.390904 1.35917e-28)
(0.747121 0.0575936 9.961e-29)
(0.776368 0.192465 -1.0342e-28)
(0.741922 -0.199797 0)
(0.733371 -0.0810512 0)
(0.832906 -0.310064 6.49579e-26)
(0.776621 -0.277526 0)
(0.947783 -0.332963 5.77388e-26)
(0.895365 -0.318317 0)
(1.02761 -0.397285 -2.46617e-23)
(0.988117 -0.364225 0)
(1.12809 -0.438077 3.52751e-22)
(1.07591 -0.419996 6.57744e-23)
(1.23867 -0.478145 7.6586e-22)
(1.18178 -0.459427 -8.47629e-23)
(1.35826 -0.47633 2.74646e-21)
(1.29973 -0.48494 -7.64296e-22)
(0.81387 -0.386776 -1.0197e-22)
(0.680794 -0.191543 1.00751e-22)
(0.748176 -0.300516 1.03657e-22)
(0.907067 -0.515471 9.26888e-23)
(0.867578 -0.455171 -3.16796e-23)
(0.969244 -0.611427 -3.34504e-22)
(0.936467 -0.572511 -5.53952e-23)
(1.06889 -0.541536 0)
(1.01244 -0.608836 4.10296e-22)
(1.20736 -0.189941 -1.68002e-23)
(1.13607 -0.397889 -4.98863e-28)
(1.30594 0.246378 0)
(1.26828 0.0406779 0)
(1.29386 0.477154 -5.44014e-24)
(1.3132 0.393401 0)
(1.21238 0.504964 -3.92592e-24)
(1.25664 0.508573 0)
(1.11967 0.46013 0)
(1.16617 0.484396 0)
(1.03721 0.400556 0)
(1.07551 0.433046 0)
(0.960777 0.34257 0)
(1.00078 0.367545 0)
(0.869426 0.301718 0)
(0.914413 0.32507 1.0956e-23)
(0.833312 0.257202 -1.40918e-22)
(0.632325 -0.112825 8.34377e-24)
(0.629194 -0.0668378 0)
(1.34122 -0.470536 6.22343e-22)
(1.40367 -0.442408 -3.70284e-21)
(0.796415 -0.0808664 0)
(0.802262 0.0102071 -1.16232e-22)
(0.811103 -0.187142 -1.89601e-21)
(0.813532 -0.173498 1.12643e-21)
(0.825865 -0.222979 1.72933e-21)
(0.815309 -0.202292 -3.0737e-22)
(0.874315 -0.261367 -2.4155e-23)
(0.843815 -0.241658 -1.54009e-21)
(0.968611 -0.297087 -5.08356e-21)
(0.916373 -0.279452 5.36118e-22)
(1.09248 -0.320871 0)
(1.02847 -0.311505 5.24863e-21)
(1.15848 -0.326894 6.39258e-21)
(0.870961 -0.550467 -1.14032e-22)
(1.00529 -0.619302 -6.97724e-28)
(0.753278 -0.392403 7.76131e-23)
(1.06792 -0.595258 0)
(0.649557 -0.173289 0)
(1.15036 -0.544296 0)
(0.613087 0.049886 -7.66159e-23)
(0.586587 0.0407228 -2.21014e-24)
(1.24006 -0.462373 -4.30004e-21)
(1.42408 -0.371285 1.08583e-21)
(1.3314 -0.364764 4.04303e-21)
(1.21806 -0.20441 5.61041e-21)
(1.22324 -0.327126 -5.03946e-21)
(0.937576 -0.591793 -6.99783e-28)
(1.18659 0.148736 1.64747e-22)
(1.20693 -0.0370081 -2.82405e-21)
(1.14492 0.467735 -8.04919e-22)
(1.16749 0.325439 0)
(1.09688 0.601337 3.52104e-28)
(1.12232 0.559638 9.5048e-22)
(1.04646 0.568813 0)
(1.07194 0.599712 0)
(0.992544 0.48337 -1.99436e-24)
(1.02159 0.525696 0)
(0.915255 0.402591 0)
(0.957582 0.444733 0)
(0.822642 0.26369 1.24119e-24)
(0.868643 0.344912 0)
(0.754681 0.0369364 -1.20615e-26)
(0.782636 0.157838 0)
(0.759971 -0.175433 0)
(0.744803 -0.081574 0)
(0.859439 -0.252104 -7.2535e-25)
(0.801706 -0.230171 0)
(0.95739 -0.291783 5.61361e-25)
(0.91495 -0.26592 0)
(1.0338 -0.353752 -3.92184e-25)
(0.993039 -0.32621 1.36744e-29)
(1.12986 -0.387567 -6.06441e-25)
(1.08126 -0.37122 0)
(1.23612 -0.416513 6.72849e-23)
(1.18046 -0.404927 1.5266e-22)
(1.35942 -0.414035 -1.15022e-21)
(1.29703 -0.420121 -9.45832e-22)
(1.46212 -0.343528 2.28064e-21)
(1.41787 -0.390741 -2.44439e-22)
(0.678197 -0.146931 -4.73995e-23)
(0.684663 0.0204712 7.89003e-23)
(0.661243 -0.0519821 0)
(0.776283 -0.333147 3.90804e-23)
(0.721934 -0.244986 -9.78489e-23)
(0.873501 -0.478541 3.32032e-26)
(0.827153 -0.41123 7.06622e-24)
(0.972905 -0.564087 2.25644e-25)
(0.919837 -0.533593 -6.10647e-24)
(1.11513 -0.472215 0)
(1.03771 -0.549845 0)
(1.28415 -0.123171 7.70026e-24)
(1.20086 -0.324246 -8.05444e-28)
(1.37499 0.264518 8.82434e-28)
(1.34636 0.0873631 -9.34008e-28)
(1.33541 0.444948 1.48408e-24)
(1.36841 0.38297 0)
(1.23477 0.458052 0)
(1.28724 0.46485 0)
(1.13552 0.414657 6.54173e-25)
(1.18414 0.437668 0)
(1.04877 0.363985 0)
(1.08942 0.391589 0)
(0.977162 0.30248 -4.60504e-25)
(1.01324 0.331702 0)
(0.89015 0.259598 1.24889e-24)
(0.934698 0.280875 -1.22439e-25)
(0.82672 0.167281 -3.24596e-24)
(0.851769 0.223773 0)
(0.816521 0.00556525 1.40456e-23)
(0.814886 0.0909599 -2.51136e-23)
(0.825205 -0.0767332 -4.95441e-22)
(0.83589 -0.277567 0)
(0.843088 -0.238634 -9.21794e-22)
(0.835668 -0.255153 -2.2904e-22)
(0.848906 -0.321564 0)
(0.839306 -0.298279 0)
(0.895956 -0.365826 -1.88485e-21)
(0.866487 -0.34378 -4.00357e-28)
(0.985742 -0.398827 1.27896e-21)
(0.935925 -0.383826 3.46937e-21)
(1.09932 -0.413207 0)
(1.041 -0.408253 -3.51822e-21)
(0.646148 0.129474 7.21715e-25)
(0.744596 0.0618813 -1.05967e-22)
(1.40895 -0.26072 -3.96316e-21)
(1.48005 -0.267511 -5.18074e-21)
(1.2122 -0.404834 -4.26507e-21)
(1.15745 -0.412375 2.23902e-21)
(0.816618 -0.454813 -1.1761e-26)
(0.976989 -0.564532 0)
(0.685341 -0.240867 0)
(1.03818 -0.510706 -3.47631e-26)
(0.590203 0.00316824 -4.05606e-25)
(1.11617 -0.424853 -1.47009e-21)
(0.581246 0.171246 -6.71391e-25)
(1.2 -0.321166 0)
(0.812676 0.0911997 -6.89731e-22)
(0.720876 0.164813 3.46732e-24)
(1.28285 -0.216221 -6.05391e-21)
(1.46669 -0.167441 5.69077e-21)
(1.35752 -0.125511 2.20274e-21)
(0.881146 0.0526133 7.60093e-22)
(0.861369 0.13594 6.91449e-22)
(0.903161 0.112425 6.38375e-22)
(1.42055 -0.0573743 2.49392e-21)
(1.4939 -0.170698 -3.5635e-21)
(1.48248 -0.0883017 -4.72912e-22)
(1.26138 -0.390738 -1.59083e-21)
(1.19722 -0.437349 0)
(1.24085 -0.414135 1.82875e-21)
(0.893623 -0.514398 -9.65812e-28)
(1.2807 -0.2105 -1.20957e-21)
(1.28174 -0.323249 -3.93271e-21)
(1.24889 0.130144 2.51259e-21)
(1.27422 -0.0511473 1.19606e-21)
(1.19604 0.442997 0)
(1.2261 0.303896 0)
(1.13171 0.572509 0)
(1.16582 0.532432 0)
(1.06608 0.540511 0)
(1.09845 0.570513 0)
(1.00421 0.45059 0)
(1.03606 0.496488 0)
(0.926389 0.358589 3.66266e-29)
(0.968555 0.406156 -3.80552e-29)
(0.833678 0.219996 -1.47571e-25)
(0.880135 0.298508 2.51587e-29)
(0.767956 0.0187268 1.20615e-26)
(0.79374 0.123107 0)
(0.789485 -0.143352 0)
(0.764928 -0.075915 0)
(0.889319 -0.199524 -5.45047e-25)
(0.836558 -0.179617 0)
(0.965785 -0.257215 4.52145e-25)
(0.932753 -0.223489 0)
(1.03995 -0.310898 3.92163e-25)
(0.999471 -0.289377 0)
(1.12692 -0.341315 2.53523e-25)
(1.08351 -0.326144 4.03973e-29)
(1.22502 -0.360092 -9.86632e-23)
(1.17355 -0.353983 0)
(1.33719 -0.351668 2.65203e-22)
(1.28048 -0.35981 1.44226e-22)
(1.44431 -0.295412 -1.33968e-21)
(1.39357 -0.330779 8.65436e-22)
(1.47985 -0.241092 3.24714e-21)
(0.795289 -0.0310757 4.73952e-22)
(0.844686 0.00601902 -1.2152e-21)
(0.730886 -0.134499 1.85247e-24)
(0.750445 -0.0742527 6.17932e-23)
(0.769507 -0.28635 3.70092e-22)
(0.739379 -0.208894 -3.91264e-22)
(0.862661 -0.425877 1.12175e-24)
(0.812154 -0.360716 -7.17691e-24)
(0.994138 -0.493286 -2.25721e-25)
(0.922447 -0.473469 1.63783e-28)
(1.17427 -0.383529 0)
(1.07852 -0.46849 0)
(1.3598 -0.052344 -1.12828e-27)
(1.27329 -0.237164 1.19387e-27)
(1.42649 0.269804 0)
(1.4136 0.127864 0)
(1.35848 0.401139 1.43799e-24)
(1.40367 0.358546 0)
(1.24632 0.405746 0)
(1.303 0.4126 0)
(1.14604 0.368501 -6.54173e-25)
(1.19405 0.388604 0)
(1.05945 0.326661 0)
(1.10082 0.348946 0)
(0.99168 0.267051 -4.45014e-25)
(1.02419 0.298159 1.60797e-28)
(0.914927 0.21892 -1.21422e-24)
(0.955827 0.240702 0)
(0.846709 0.145334 0)
(0.875382 0.189929 -1.37686e-25)
(0.83232 0.00640863 -2.95579e-22)
(0.833051 0.0820982 -9.55881e-25)
(0.844288 -0.0696856 -2.33522e-22)
(0.868491 -0.301892 -1.26308e-21)
(0.881454 -0.279645 5.64593e-22)
(0.858898 -0.348255 0)
(0.859741 -0.323599 0)
(0.871371 -0.39131 -1.35498e-25)
(0.861635 -0.369521 -2.58478e-28)
(0.916055 -0.43236 -2.01831e-25)
(0.888767 -0.412255 -3.53325e-28)
(0.995309 -0.45977 -2.24364e-22)
(0.951753 -0.448547 -8.34276e-28)
(1.09656 -0.46266 -1.6324e-21)
(1.04394 -0.464705 1.24572e-21)
(1.14865 -0.45358 3.99593e-22)
(0.746992 -0.311937 2.07654e-26)
(0.925879 -0.457914 -6.6073e-27)
(0.616846 -0.0533343 0)
(0.983358 -0.363383 3.9055e-26)
(0.555361 0.176865 7.15353e-25)
(1.05074 -0.250362 1.47246e-21)
(0.631253 0.247184 3.85698e-24)
(1.12462 -0.137774 3.51802e-22)
(0.803356 0.185554 9.28392e-24)
(1.19707 -0.0447982 0)
(0.926587 0.173429 -7.06897e-22)
(0.889792 0.199991 0)
(1.27347 0.0120476 1.90057e-21)
(1.4473 -0.00690759 -1.05215e-21)
(1.35195 0.0449059 -2.29399e-21)
(0.956934 0.145304 -2.76705e-24)
(0.962344 0.223775 -5.45288e-22)
(0.987017 0.187781 -6.71468e-24)
(1.39711 0.0631585 1.11173e-21)
(1.44988 -0.0299419 -6.70167e-22)
(1.42143 0.0250717 7.79954e-22)
(1.17346 -0.441611 0)
(1.20646 -0.416171 3.93611e-21)
(1.29994 -0.369812 -2.5753e-21)
(1.27858 -0.381539 2.69195e-21)
(0.828281 -0.387303 5.46402e-27)
(1.33493 -0.213545 1.66336e-21)
(1.33153 -0.312343 1.93853e-21)
(1.30464 0.107519 -2.20659e-22)
(1.33302 -0.0651809 9.91242e-22)
(1.23802 0.411213 2.47809e-24)
(1.2763 0.275993 -3.15319e-27)
(1.16019 0.535605 0)
(1.20106 0.49795 0)
(1.08227 0.50671 0)
(1.12063 0.534446 0)
(1.01239 0.416296 7.9996e-26)
(1.04753 0.463852 0)
(0.931466 0.314578 0)
(0.974805 0.367273 0)
(0.83948 0.177071 0)
(0.884948 0.252078 0)
(0.787277 0.00864462 0)
(0.803975 0.0921167 0)
(0.830473 -0.10446 0)
(0.796917 -0.0596371 0)
(0.916127 -0.158358 1.20545e-24)
(0.875649 -0.132207 0)
(0.974351 -0.226571 3.54443e-25)
(0.946712 -0.191689 3.33618e-28)
(1.04523 -0.271281 0)
(1.00749 -0.253307 0)
(1.12211 -0.299545 4.1688e-25)
(1.08337 -0.286197 -4.03972e-29)
(1.2099 -0.311248 -3.05977e-25)
(1.16438 -0.308273 4.67806e-29)
(1.30623 -0.29873 -1.16469e-22)
(1.25765 -0.308687 -9.67347e-26)
(1.40035 -0.248013 8.08594e-23)
(1.35551 -0.278856 3.76882e-23)
(1.45886 -0.152194 6.90712e-22)
(1.43682 -0.205293 -4.41118e-22)
(1.46355 -0.0923543 9.01045e-22)
(0.922389 0.0362874 1.03681e-22)
(0.934607 0.093937 -1.39511e-23)
(0.891223 -0.0676027 -1.49719e-23)
(0.90971 -0.0192801 0)
(0.840555 -0.151971 -1.83144e-24)
(0.864577 -0.108919 -6.25744e-23)
(0.838915 -0.258291 0)
(0.830431 -0.201853 0)
(0.913544 -0.365542 3.87072e-25)
(0.867143 -0.315183 0)
(1.05761 -0.407017 0)
(0.977374 -0.399719 0)
(1.25498 -0.284053 0)
(1.15181 -0.372383 0)
(1.42705 0.00999932 2.53631e-24)
(1.35303 -0.147666 0)
(1.45288 0.257627 0)
(1.46062 0.152437 0)
(1.36205 0.349544 2.51802e-24)
(1.41512 0.320384 0)
(1.24828 0.352764 1.92766e-25)
(1.30445 0.357243 0)
(1.15157 0.324322 -5.27207e-25)
(1.19731 0.340538 1.31429e-29)
(1.06919 0.289552 -9.87755e-25)
(1.10923 0.307594 -3.51995e-28)
(1.00404 0.236403 -3.61988e-25)
(1.03425 0.265987 0)
(0.940377 0.181167 0)
(0.974669 0.206515 0)
(0.872115 0.121839 0)
(0.903277 0.155713 1.37923e-25)
(0.850443 0.00855153 5.23254e-22)
(0.853636 0.0727502 9.38916e-25)
(0.861782 -0.0592655 -4.75711e-22)
(0.924108 -0.299437 0)
(0.943595 -0.276287 6.71996e-22)
(0.892916 -0.350166 8.0256e-22)
(0.906553 -0.324579 1.66373e-22)
(0.879868 -0.396487 1.70763e-25)
(0.882749 -0.373655 3.04141e-28)
(0.890559 -0.435068 2.57459e-25)
(0.881441 -0.416274 4.69997e-28)
(0.931888 -0.467296 -6.03299e-28)
(0.907117 -0.45206 6.13427e-28)
(1.0011 -0.485428 -3.68715e-22)
(0.963328 -0.478869 6.95961e-28)
(1.08946 -0.477701 1.62508e-21)
(1.04377 -0.48529 3.75709e-22)
(1.13342 -0.463081 1.56031e-21)
(0.669264 -0.122837 0)
(0.854864 -0.289051 2.26208e-27)
(0.560241 0.150234 0)
(0.901313 -0.162567 -1.83206e-25)
(0.566819 0.308448 -6.38216e-25)
(0.95528 -0.0385128 -3.01081e-24)
(0.72416 0.2702 -2.21557e-24)
(1.01689 0.0631646 1.0809e-23)
(0.858487 0.230272 -1.37431e-23)
(1.0828 0.12043 1.73824e-23)
(0.922137 0.263254 0)
(1.16745 0.133616 9.9286e-22)
(1.02214 0.224036 -2.23632e-22)
(1.00618 0.26449 6.27097e-22)
(1.27204 0.126459 -1.99074e-23)
(1.3834 0.0689384 -8.22929e-22)
(1.34303 0.115783 -5.15528e-23)
(1.23178 -0.390329 -9.08283e-22)
(0.748309 -0.204796 -1.18583e-26)
(1.3301 -0.338233 2.56274e-21)
(1.24331 -0.345188 -1.01371e-20)
(1.2966 -0.35387 6.18472e-21)
(1.38068 -0.211082 -5.24094e-22)
(1.36695 -0.296995 -2.40803e-21)
(1.35285 0.0785606 2.20377e-22)
(1.37993 -0.0815012 -3.50685e-22)
(1.26771 0.373013 6.12184e-22)
(1.31483 0.240413 -5.49674e-22)
(1.17666 0.493373 1.60221e-24)
(1.22332 0.456789 -1.34726e-27)
(1.08775 0.467602 1.76065e-25)
(1.13188 0.493094 4.70303e-28)
(1.00659 0.378737 6.34757e-25)
(1.04688 0.426939 0)
(0.921789 0.270624 0)
(0.965527 0.326623 0)
(0.842237 0.141417 -1.74044e-24)
(0.878917 0.208631 0)
(0.820587 0.0133651 8.34241e-28)
(0.82082 0.0733983 -8.66166e-28)
(0.876235 -0.0660214 9.07273e-28)
(0.842313 -0.0326057 -9.4168e-28)
(0.9359 -0.130321 -8.80238e-28)
(0.90991 -0.0961644 9.13307e-28)
(0.98419 -0.197266 -3.12266e-24)
(0.958296 -0.166503 8.25525e-28)
(1.04847 -0.236416 1.45264e-24)
(1.01549 -0.219517 7.11217e-28)
(1.11657 -0.261875 3.26014e-25)
(1.08169 -0.250814 0)
(1.19323 -0.269279 7.2128e-25)
(1.15408 -0.268029 3.30034e-28)
(1.27473 -0.254798 -3.4782e-25)
(1.23362 -0.265276 0)
(1.35194 -0.210444 -2.38698e-23)
(1.31526 -0.236778 0)
(1.40374 -0.133308 -1.09006e-22)
(1.38259 -0.175762 1.055e-22)
(1.40692 -0.0403141 0)
(1.4117 -0.0867017 1.10849e-23)
(1.36396 0.0360986 1.24241e-21)
(1.38984 0.00198057 -1.21667e-21)
(0.982808 0.123151 7.36067e-23)
(1.03707 0.192037 3.58629e-22)
(1.00767 0.159974 -3.46758e-22)
(0.953598 0.0295618 2.62275e-23)
(0.963659 0.0798309 2.82312e-24)
(0.951454 -0.0757546 0)
(0.950775 -0.023594 0)
(0.947698 -0.164592 -2.06697e-24)
(0.950533 -0.122185 0)
(0.957784 -0.245729 0)
(0.948113 -0.205258 0)
(1.02441 -0.314151 -1.5088e-24)
(0.982344 -0.283474 0)
(1.16108 -0.322433 0)
(1.08446 -0.330337 0)
(1.34273 -0.191458 0)
(1.25019 -0.278186 0)
(1.46784 0.0499345 -1.62159e-24)
(1.42103 -0.0737304 0)
(1.44927 0.228715 0)
(1.47506 0.154484 0)
(1.3492 0.295537 8.74278e-28)
(1.40329 0.273272 -9.25683e-28)
(1.24281 0.302189 -1.92746e-25)
(1.29466 0.303217 -2.13505e-29)
(1.15314 0.283152 1.50905e-24)
(1.19555 0.294983 6.46722e-28)
(1.07767 0.253781 -3.4455e-25)
(1.11453 0.269079 0)
(1.01497 0.209304 1.26873e-24)
(1.0439 0.234775 -1.41959e-27)
(0.963579 0.150026 1.51509e-27)
(0.989881 0.179022 -1.60668e-27)
(0.902711 0.0952434 0)
(0.932911 0.123312 0)
(0.870841 0.00886368 -1.23334e-22)
(0.880091 0.0582882 1.96781e-22)
(0.893118 -0.104572 0)
(0.876434 -0.0476865 -1.92107e-23)
(0.913761 -0.158756 0)
(0.947543 -0.332969 0)
(0.982142 -0.288459 -1.80459e-22)
(0.966507 -0.31105 -7.75903e-23)
(0.915663 -0.381276 -9.81218e-23)
(0.930171 -0.357291 -1.22393e-22)
(0.899496 -0.423365 -4.17007e-27)
(0.904585 -0.403058 0)
(0.905867 -0.457072 -1.22169e-25)
(0.899055 -0.441281 0)
(0.941706 -0.479121 0)
(0.920088 -0.469657 0)
(1.00241 -0.485095 3.315e-26)
(0.969386 -0.48445 0)
(1.07735 -0.468673 0)
(1.03894 -0.480153 0)
(1.15024 -0.423927 0)
(1.11522 -0.44971 4.52817e-22)
(1.21392 -0.357577 0)
(1.1818 -0.391737 -6.42707e-22)
(1.06108 0.254692 -2.70332e-23)
(1.07072 0.217036 0)
(1.34194 0.0973192 1.25116e-22)
(1.3329 0.0593869 1.22001e-22)
(0.594693 0.0974447 1.72699e-25)
(0.766069 -0.0694603 0)
(0.9457 -0.182788 0)
(0.534886 0.333027 8.26155e-26)
(0.796242 0.0715827 1.40802e-25)
(1.24217 -0.321314 -1.02651e-21)
(1.17709 -0.340667 0)
(1.19894 -0.306824 0)
(0.638792 0.368208 2.57727e-25)
(0.834936 0.186669 2.55444e-24)
(0.816434 0.287538 0)
(0.88532 0.251381 -1.78185e-23)
(0.892207 0.300233 0)
(0.951269 0.25791 0)
(0.970243 0.30995 0)
(1.05324 0.220725 -8.14439e-22)
(1.05294 0.299405 -5.46175e-22)
(1.19166 0.180049 1.27771e-23)
(1.10809 0.236508 0)
(1.10498 0.278746 2.84705e-22)
(1.28868 0.147035 -1.36705e-21)
(1.30185 0.10947 2.77722e-21)
(1.30081 0.070542 -2.34537e-21)
(0.66207 0.0213511 8.05989e-27)
(1.34696 -0.307559 -8.56588e-22)
(1.30316 -0.311902 0)
(1.41196 -0.204463 2.49142e-22)
(1.38887 -0.271076 4.33205e-22)
(1.39132 0.0447583 0)
(1.41574 -0.0949283 -2.27113e-22)
(1.29 0.323101 0)
(1.3469 0.194617 -7.43685e-23)
(1.17876 0.445265 -1.60092e-24)
(1.23305 0.407855 0)
(1.07797 0.422578 4.23158e-25)
(1.12745 0.446144 0)
(0.987794 0.3371 6.2001e-25)
(1.03155 0.384065 0)
(0.909398 0.231353 -1.83369e-24)
(0.946957 0.285394 -1.48318e-27)
(0.85967 0.121897 1.73858e-24)
(0.878891 0.175961 1.91853e-27)
(0.869126 0.0303892 -2.29778e-24)
(0.856598 0.0723414 2.02059e-27)
(0.915397 -0.0384357 -2.1222e-27)
(0.891933 -0.00500827 2.05748e-27)
(0.951452 -0.110743 -2.0906e-24)
(0.934768 -0.0740249 2.07565e-27)
(0.995208 -0.170006 3.58872e-24)
(0.970894 -0.143882 0)
(1.05092 -0.206159 2.02578e-25)
(1.0227 -0.189951 1.65649e-27)
(1.11119 -0.228366 -2.50155e-24)
(1.0802 -0.219237 0)
(1.17724 -0.233414 -7.20617e-25)
(1.14379 -0.233068 -1.01896e-27)
(1.24538 -0.218783 0)
(1.21133 -0.228876 0)
(1.30768 -0.180095 4.82379e-23)
(1.27826 -0.202546 -4.8988e-23)
(1.34964 -0.118352 0)
(1.33256 -0.151819 -3.47341e-29)
(1.35578 -0.045979 3.40284e-23)
(1.35787 -0.0820789 -3.59614e-23)
(1.32618 0.0131619 7.29256e-22)
(1.34459 -0.0134299 -7.27397e-22)
(1.27897 0.041531 0)
(1.30326 0.0315478 -1.21434e-22)
(1.04785 0.163417 1.90146e-22)
(1.10778 0.201397 1.79183e-22)
(1.07628 0.184958 -4.84913e-23)
(1.00316 0.10354 6.58992e-22)
(1.02324 0.135871 -1.87323e-22)
(0.979947 0.0246242 3.71026e-22)
(0.987746 0.0665108 -1.04952e-21)
(0.987692 -0.0686035 -1.86104e-24)
(0.979932 -0.0210553 1.43067e-23)
(1.01578 -0.155813 2.06698e-24)
(1.00043 -0.11386 0)
(1.05797 -0.226063 8.0679e-27)
(1.03418 -0.193392 -8.53003e-27)
(1.13439 -0.267301 -7.28351e-27)
(1.09057 -0.251545 7.70206e-27)
(1.2574 -0.247916 -1.31633e-24)
(1.19027 -0.268411 0)
(1.39953 -0.120954 2.49221e-27)
(1.33075 -0.198711 -2.63651e-27)
(1.46638 0.0629668 -9.14765e-25)
(1.44816 -0.0277904 9.31321e-29)
(1.4204 0.190714 0)
(1.45415 0.137196 0)
(1.32615 0.245198 6.18483e-25)
(1.37515 0.225247 -2.7981e-29)
(1.23256 0.256782 -1.27782e-27)
(1.27807 0.254572 1.35331e-27)
(1.15202 0.245683 3.66345e-25)
(1.19044 0.253555 0)
(1.08429 0.220914 1.33264e-24)
(1.11714 0.234349 0)
(1.02553 0.183952 -1.78349e-24)
(1.05317 0.204883 0)
(0.982222 0.126597 3.48879e-27)
(1.00233 0.156628 -3.69942e-27)
(0.935602 0.0693256 0)
(0.959701 0.0968704 0)
(0.89676 0.00302238 1.56853e-22)
(0.91181 0.0392573 2.39344e-22)
(0.904313 -0.0895884 -8.572e-22)
(0.893826 -0.0415582 3.93898e-22)
(0.922664 -0.137933 0)
(1.00362 -0.321586 2.60767e-23)
(1.01639 -0.303269 3.1294e-22)
(0.968481 -0.361257 0)
(0.987735 -0.34136 -2.56087e-23)
(0.936022 -0.400899 4.13899e-25)
(0.9509 -0.38207 0)
(0.917068 -0.434422 -1.65704e-25)
(0.924176 -0.418306 -1.20815e-27)
(0.918024 -0.46127 0)
(0.914433 -0.44893 0)
(0.94588 -0.474901 0)
(0.928538 -0.470018 0)
(0.997541 -0.470231 -3.29557e-26)
(0.969223 -0.474931 0)
(1.06119 -0.445775 0)
(1.02878 -0.460609 0)
(1.12366 -0.398927 5.76345e-22)
(1.09326 -0.42515 -4.37416e-22)
(1.15241 -0.368704 3.49335e-23)
(1.14879 0.248698 0)
(1.14149 0.211439 -9.04434e-23)
(1.27092 0.0712081 1.68892e-21)
(1.25559 0.0436381 -1.90141e-21)
(0.537526 0.317003 -4.96664e-26)
(0.666674 0.176239 6.07925e-26)
(1.25179 -0.274883 1.60577e-21)
(1.21708 -0.265947 -2.62333e-22)
(0.56532 0.450369 -1.11114e-24)
(0.678294 0.309554 0)
(0.748199 0.377851 -7.68758e-25)
(0.700457 0.388994 -7.12204e-24)
(0.875946 0.343036 0)
(0.741368 0.401111 0)
(0.936893 0.362618 -2.83725e-23)
(0.813762 0.350314 -1.31812e-23)