/*--------------------------------*- C++ -*----------------------------------*\
  =========                 |
  \\      /  F ield         | OpenFOAM: The Open Source CFD Toolbox
   \\    /   O peration     | Website:  https://openfoam.org
    \\  /    A nd           | Version:  10
     \\/     M anipulation  |
\*---------------------------------------------------------------------------*/
FoamFile
{
    format      ascii;
    class       volScalarField;
    location    "26.5";
    object      p;
}
// * * * * * * * * * * * * * * * * * * * * * * * * * * * * * * * * * * * * * //

dimensions      [0 2 -2 0 0 0 0];

internalField   nonuniform List<scalar> 
28942
(
-0.42577
-0.421984
-0.263225
0.266026
0.276203
0.00501518
0.00659022
0.00242665
0.0315519
0.0395383
-0.557581
-0.573229
-0.558616
-0.547523
0.0118601
0.0136227
0.483639
0.505437
0.201936
0.265047
0.375898
0.378606
-0.59649
-0.597256
-0.598882
-0.606869
0.80737
0.822369
-0.0235044
-0.00277542
0.00862264
0.00797372
0.0282603
0.0176889
0.134213
0.180281
0.461349
0.593513
0.000797367
0.466869
0.339021
0.366887
0.118923
0.123521
0.119729
0.00731497
0.00716251
0.00750306
0.00855832
0.0124132
0.0199325
0.0733342
0.0740596
0.0369824
0.0464374
-0.454056
-0.366917
-0.559364
-0.566138
-0.5681
-0.566034
-0.55862
-0.55086
-0.201195
-0.311275
-0.165325
-0.0832873
0.439327
0.409355
-0.430805
-0.434086
-0.438317
0.432152
0.413015
0.428403
-0.245227
-0.239279
-0.176606
-0.2314
-0.302001
-0.204826
-0.360114
-0.486991
-0.529019
-0.0243772
0.0635056
0.128817
0.0870873
0.0238911
0.0201539
0.0573819
0.0789991
-0.476899
-0.501085
-0.496889
-0.473475
-0.461947
0.0640332
0.114302
-0.566215
0.29437
0.296486
0.273898
0.280709
-0.120619
-0.11854
-0.136056
0.214119
0.223247
0.224231
-0.549713
-0.541119
-0.417424
-0.373597
-0.396039
0.889867
0.821145
0.757002
0.834915
0.023151
0.168738
0.106476
0.0721989
0.0581289
0.933014
0.943347
0.910354
0.0940739
0.135071
0.00810747
0.0101046
0.0073479
0.466249
0.567008
0.265541
0.255803
0.335708
0.208447
0.351036
0.338575
-0.451899
-0.469558
0.163488
0.112669
0.11899
-0.303503
-0.308033
-0.266896
-0.48318
0.157082
0.173243
-0.03413
0.0182284
0.0149134
0.0117467
0.0158395
0.233287
0.133291
-0.48019
-0.465192
-0.447071
-0.437308
-0.432822
0.0140676
-0.573376
-0.538671
0.396491
0.407062
0.46356
0.441952
0.366902
0.078935
0.0754784
0.0675272
0.0607947
0.188168
0.175559
0.195793
0.207469
0.205411
0.214359
0.226571
0.261633
0.242634
0.220772
0.240761
0.282472
0.335667
0.355751
-0.491486
-0.490335
-0.403687
0.00609819
0.00702541
-0.51066
-0.484838
0.00962964
0.00914275
0.00881834
0.00866508
-0.0964676
-0.1106
-0.111722
-0.529849
-0.524954
-0.510117
-0.579158
-0.583893
-0.574631
-0.61431
-0.68122
-0.63789
0.87572
0.84401
0.888932
-0.101217
-0.0883481
-0.102884
0.488787
0.472077
0.481362
-0.0599082
-0.060837
-0.0602446
-0.0630095
-0.0664473
-0.0711529
-0.0694473
-0.0773158
-0.0748675
-0.0653393
-0.0623784
-0.0606396
-0.0601641
-0.060951
-0.0848596
-0.0817975
-0.0618276
-0.0631349
-0.0649094
-0.0937272
-0.090287
-0.066836
-0.104217
-0.116218
-0.100081
-0.111224
-0.0694645
-0.0719904
-0.129336
-0.123412
-0.0756413
-0.0788841
-0.143064
-0.136185
-0.0835809
-0.0876518
-0.156676
-0.148859
-0.0933846
-0.0984424
-0.1695
-0.160799
-0.105162
-0.111336
-0.180692
-0.171249
-0.118857
-0.126223
-0.18962
-0.179603
-0.134135
-0.14281
-0.195593
-0.185169
-0.150868
-0.160884
-0.1984
-0.187637
-0.167927
-0.179425
-0.197366
-0.187143
-0.185102
-0.19789
-0.193226
-0.183186
-0.200777
-0.214823
-0.185509
-0.176012
-0.169689
-0.183876
-0.213685
-0.228738
-0.138431
-0.15448
-0.109355
-0.12348
-0.086449
-0.0969835
-0.0706712
-0.0777079
-0.0613529
-0.0652872
-0.0581166
-0.0591328
-0.059689
-0.0583203
-0.0661089
-0.0622562
-0.0778871
-0.0712625
-0.0953997
-0.085894
-0.11918
-0.106541
-0.147238
-0.132929
-0.174769
-0.161425
-0.195891
-0.186486
-0.205426
-0.202335
-0.200238
-0.204741
-0.192163
-0.174758
-0.166058
-0.175287
-0.164594
-0.171338
-0.173765
-0.176067
-0.160845
-0.168519
-0.140161
-0.151201
-0.1165
-0.128376
-0.0947757
-0.105148
-0.0778255
-0.0856484
-0.0664864
-0.0714154
-0.0603853
-0.0628257
-0.0590502
-0.0591082
-0.0628775
-0.0602516
-0.0725481
-0.0668914
-0.0893611
-0.0799817
-0.114563
-0.100863
-0.148266
-0.130427
-0.187642
-0.167532
-0.225388
-0.207332
-0.240319
-0.195304
-0.181112
-0.155438
-0.238368
-0.250796
-0.202645
-0.222417
-0.152137
-0.174605
-0.164562
-0.124357
-0.138522
-0.0986174
-0.110943
-0.0785218
-0.0877785
-0.0647436
-0.0708557
-0.056997
-0.0601598
-0.0547172
-0.055244
-0.0572553
-0.0554097
-0.0645216
-0.060297
-0.0770557
-0.0700983
-0.0953738
-0.0854371
-0.119904
-0.106914
-0.148624
-0.133984
-0.176909
-0.163172
-0.19887
-0.189051
-0.208971
-0.205671
-0.203962
-0.208377
-0.161764
-0.167753
-0.184782
-0.195939
-0.151533
-0.143231
-0.144213
-0.154038
-0.161373
-0.157736
-0.160194
-0.16218
-0.148655
-0.155584
-0.129755
-0.139859
-0.108042
-0.118943
-0.0880913
-0.0976173
-0.072658
-0.0797332
-0.0624827
-0.0669106
-0.0572348
-0.0592751
-0.0567087
-0.0563877
-0.0612016
-0.0582862
-0.0716163
-0.0655842
-0.0892543
-0.0794428
-0.115508
-0.101242
-0.1507
-0.132061
-0.19202
-0.170948
-0.231726
-0.212726
-0.258564
-0.247567
-0.181179
-0.255559
-0.263661
-0.242229
-0.171384
-0.133203
-0.205249
-0.183372
-0.253377
-0.261829
-0.225852
-0.185992
-0.172453
-0.132211
-0.122483
-0.160285
-0.180957
-0.148536
-0.157657
-0.152102
-0.157953
-0.133006
-0.143488
-0.109175
-0.121271
-0.0869011
-0.0975068
-0.0695339
-0.077548
-0.057746
-0.0629306
-0.0515089
-0.0539655
-0.0502862
-0.0503102
-0.053706
-0.0514329
-0.061676
-0.0570987
-0.0747307
-0.0675364
-0.0935424
-0.0833659
-0.118446
-0.105284
-0.147559
-0.132705
-0.176393
-0.162368
-0.198921
-0.188831
-0.20945
-0.20596
-0.20488
-0.209088
-0.19705
-0.147995
-0.156495
-0.153289
-0.140946
-0.137143
-0.121144
-0.129847
-0.145905
-0.142652
-0.145293
-0.146888
-0.135105
-0.14126
-0.11808
-0.127205
-0.0983949
-0.108284
-0.0802977
-0.0889334
-0.0664259
-0.0727543
-0.0574694
-0.0613476
-0.0531114
-0.0547382
-0.0532698
-0.0526143
-0.058344
-0.0551518
-0.0692601
-0.0629939
-0.08741
-0.0773353
-0.114309
-0.0996926
-0.150495
-0.131304
-0.193279
-0.171433
-0.234519
-0.214807
-0.262389
-0.250871
-0.266525
-0.267878
-0.253272
-0.258357
-0.203135
-0.240097
-0.157337
-0.111558
-0.174202
-0.244814
-0.140197
-0.244
-0.23905
-0.102877
-0.0891896
-0.223403
-0.125497
-0.114762
-0.135854
-0.133122
-0.129209
-0.134031
-0.113226
-0.122063
-0.0931958
-0.103447
-0.0743023
-0.0833274
-0.059497
-0.0663166
-0.0496807
-0.0539444
-0.0449114
-0.046692
-0.0447841
-0.0442941
-0.0490033
-0.0463614
-0.0575608
-0.0527168
-0.0709692
-0.0636157
-0.0900273
-0.0797448
-0.115031
-0.101834
-0.144212
-0.129319
-0.173162
-0.159072
-0.195886
-0.185684
-0.206757
-0.203079
-0.202638
-0.206607
-0.184132
-0.195069
-0.155515
-0.170613
-0.14125
-0.139728
-0.141679
-0.134193
-0.138654
-0.120423
-0.127989
-0.101982
-0.111773
-0.10783
-0.0912055
-0.0996048
-0.121921
-0.115443
-0.129874
-0.126905
-0.129478
-0.130745
-0.120597
-0.126005
-0.105439
-0.113584
-0.0878026
-0.0966661
-0.0716117
-0.0793271
-0.0593228
-0.0649064
-0.0515567
-0.0548883
-0.0480654
-0.0492915
-0.0488355
-0.0479012
-0.0543435
-0.050952
-0.0655472
-0.0591564
-0.0838775
-0.073721
-0.110947
-0.096237
-0.147479
-0.128079
-0.19101
-0.16873
-0.233447
-0.213102
-0.262167
-0.250315
-0.266838
-0.267889
-0.244859
-0.258978
-0.224793
-0.225609
-0.19637
-0.231829
-0.164249
-0.230486
-0.151396
-0.135835
-0.0928303
-0.0831296
-0.129575
-0.220228
-0.0866155
-0.0822567
-0.202458
-0.202946
-0.0748109
-0.215605
-0.101661
-0.0918045
-0.111135
-0.108343
-0.106412
-0.110226
-0.0934554
-0.100646
-0.0768268
-0.0853416
-0.0609556
-0.0685603
-0.0485887
-0.0542496
-0.0407106
-0.0440693
-0.0373894
-0.0385009
-0.0383182
-0.0373432
-0.043265
-0.0402953
-0.0522866
-0.0472451
-0.0659185
-0.0584771
-0.0849996
-0.0747331
-0.109799
-0.0967311
-0.138627
-0.12392
-0.167249
-0.153307
-0.189868
-0.179682
-0.200974
-0.19713
-0.197309
-0.201058
-0.179226
-0.189855
-0.166124
-0.126587
-0.124303
-0.126493
-0.121074
-0.1248
-0.109368
-0.115915
-0.101627
-0.0938872
-0.0797677
-0.0868063
-0.106213
-0.100502
-0.11336
-0.110573
-0.113221
-0.114257
-0.10553
-0.110242
-0.0921719
-0.0993672
-0.0765494
-0.0844031
-0.0622499
-0.0690506
-0.0515229
-0.0563751
-0.0449087
-0.0477136
-0.0422211
-0.0430834
-0.0435164
-0.0423506
-0.0493156
-0.0458057
-0.0605912
-0.054192
-0.0787838
-0.0687205
-0.105564
-0.0910104
-0.141817
-0.12254
-0.185334
-0.16301
-0.228246
-0.207596
-0.257812
-0.245528
-0.262849
-0.263795
-0.241655
-0.25529
-0.200538
-0.222957
-0.178617
-0.175995
-0.185148
-0.218616
-0.120211
-0.07272
-0.149928
-0.0966235
-0.114391
-0.212156
-0.198585
-0.0683554
-0.0625121
-0.0831761
-0.178742
-0.15447
-0.151106
-0.203323
-0.0634295
-0.0498682
-0.0572284
-0.0787484
-0.0709621
-0.0874411
-0.0847287
-0.0841074
-0.0869562
-0.0738149
-0.0795928
-0.0602041
-0.0671879
-0.0471064
-0.0533828
-0.0370777
-0.0416237
-0.0310603
-0.0335512
-0.0291256
-0.0295976
-0.0310395
-0.0296173
-0.0366333
-0.0333787
-0.0460126
-0.0408281
-0.0597237
-0.0522768
-0.0785895
-0.0684702
-0.102857
-0.0900924
-0.130943
-0.116619
-0.158863
-0.14525
-0.181067
-0.171038
-0.192206
-0.188286
-0.188945
-0.192439
-0.171663
-0.181879
-0.144448
-0.158911
-0.114061
-0.129262
-0.110047
-0.0997105
-0.105653
-0.113235
-0.112547
-0.109271
-0.112057
-0.0994133
-0.105051
-0.0845818
-0.092514
-0.0664008
-0.075846
-0.0676728
-0.056456
-0.0618116
-0.0798576
-0.073908
-0.0904075
-0.0855248
-0.0968059
-0.0943009
-0.0968563
-0.0976842
-0.0902549
-0.0943259
-0.0785906
-0.0848864
-0.0649006
-0.071781
-0.0524348
-0.0583486
-0.0432091
-0.0473609
-0.0376853
-0.0399946
-0.0357257
-0.0362647
-0.0374485
-0.0361041
-0.0433985
-0.0398475
-0.0545374
-0.0482439
-0.0722829
-0.0624828
-0.0983198
-0.0841701
-0.133669
-0.114848
-0.176437
-0.154445
-0.219085
-0.198493
-0.249002
-0.23647
-0.254926
-0.255348
-0.234417
-0.247676
-0.194347
-0.216145
-0.145733
-0.17031
-0.127814
-0.122043
-0.169431
-0.0435452
-0.133078
-0.106176
-0.0923423
-0.0608299
-0.0518424
-0.201092
-0.191458
-0.101483
-0.175698
-0.155107
-0.131527
-0.106622
-0.100492
-0.186746
-0.0321459
-0.0381176
-0.0210036
-0.0261686
-0.0449965
-0.0389434
-0.0572411
-0.0511018
-0.0647554
-0.0622557
-0.0626356
-0.0646759
-0.0545384
-0.0591391
-0.0435829
-0.0492097
-0.033055
-0.0380854
-0.0252203
-0.0287232
-0.0209361
-0.0226191
-0.020287
-0.020168
-0.023097
-0.0212716
-0.0292485
-0.0257552
-0.0388758
-0.0336057
-0.0525128
-0.0451455
-0.0709374
-0.0610872
-0.0943852
-0.082074
-0.121401
-0.107629
-0.148274
-0.135163
-0.16976
-0.160031
-0.180764
-0.176828
-0.177928
-0.181132
-0.161509
-0.171256
-0.135352
-0.149261
-0.120734
-0.0973478
-0.0868735
-0.0928986
-0.101375
-0.100231
-0.098912
-0.100898
-0.0906442
-0.0954797
-0.0774168
-0.0845562
-0.0694676
-0.0555271
-0.0462813
-0.0506266
-0.0658146
-0.060745
-0.0749201
-0.070639
-0.0805226
-0.0783106
-0.0806991
-0.0813497
-0.0750702
-0.0785629
-0.0649696
-0.0704304
-0.053098
-0.0590591
-0.0423731
-0.0474447
-0.034563
-0.0380569
-0.0300477
-0.0319022
-0.0287311
-0.0289902
-0.0307806
-0.0293107
-0.0367467
-0.0332275
-0.0475587
-0.0414745
-0.0645791
-0.0551946
-0.0894617
-0.0759412
-0.123328
-0.105274
-0.164639
-0.14334
-0.206357
-0.18614
-0.236103
-0.223561
-0.242568
-0.242656
-0.223039
-0.235809
-0.18425
-0.205358
-0.137464
-0.16123
-0.0925538
-0.114218
-0.0702216
-0.0538093
-0.0812469
-0.0732715
-0.151137
-0.0798352
-0.042444
-0.0173735
-0.181112
-0.0326657
-0.118018
-0.169615
-0.0895181
-0.153154
-0.133219
-0.111156
-0.0880252
-0.0645862
-0.0560793
-0.167576
-0.00629249
-0.0147665
-0.00197106
-0.00353631
-0.015709
-0.0105739
-0.0267578
-0.0213273
-0.0369966
-0.0320705
-0.0433685
-0.0410871
-0.0422413
-0.043636
-0.0359575
-0.03957
-0.0273104
-0.0317482
-0.0190955
-0.0229979
-0.0132456
-0.0158059
-0.0105282
-0.0114806
-0.011039
-0.0103882
-0.0146428
-0.0124637
-0.0212542
-0.0175716
-0.0310165
-0.02572
-0.0444342
-0.0372242
-0.0622278
-0.0527475
-0.0846197
-0.0728856
-0.110285
-0.0972092
-0.135808
-0.123348
-0.156316
-0.147007
-0.167063
-0.163146
-0.164641
-0.167537
-0.14922
-0.158414
-0.124469
-0.137654
-0.0965971
-0.110471
-0.0714392
-0.0834756
-0.0759517
-0.0608325
-0.068885
-0.086511
-0.0818703
-0.0912584
-0.0896431
-0.0900066
-0.0913687
-0.0830925
-0.087222
-0.0714361
-0.0777718
-0.0563492
-0.0642179
-0.0393098
-0.0479841
-0.0358617
-0.0303119
-0.0328168
-0.0435216
-0.0394819
-0.0520449
-0.04773
-0.0598934
-0.0562159
-0.0647529
-0.0628179
-0.0650045
-0.0655129
-0.0602273
-0.063208
-0.0515446
-0.0562434
-0.0413568
-0.0464634
-0.0322546
-0.0365414
-0.0257538
-0.0286414
-0.0221514
-0.0235978
-0.0213869
-0.0214117
-0.023664
-0.0221203
-0.0295229
-0.0261015
-0.0398405
-0.0340565
-0.0558953
-0.0470581
-0.0792671
-0.0665715
-0.111134
-0.0941269
-0.150329
-0.130064
-0.19049
-0.170939
-0.219702
-0.207294
-0.226596
-0.226366
-0.208188
-0.220332
-0.170908
-0.191239
-0.125897
-0.148669
-0.0827297
-0.103684
-0.0466096
-0.0636664
-0.0601285
-0.0469398
-0.0410478
-0.031278
-0.133572
-0.16037
-0.00105921
-0.0127365
-0.0282139
-0.104392
-0.148112
-0.0618812
-0.0517963
-0.0368823
-0.0284929
-0.0769613
-0.132073
-0.113485
-0.0931591
-0.0718376
-0.0500288
-0.000737965
0.00987267
0.00911555
-0.0280508
-0.0179199
-0.000993693
-0.148139
0.00980985
0.0102019
0.00674559
0.00866488
-0.000317274
0.00370871
-0.00940393
-0.00480743
-0.0180546
-0.0139203
-0.0234791
-0.0214275
-0.0231017
-0.0239834
-0.0183534
-0.0211231
-0.0116853
-0.0151023
-0.00547657
-0.00839735
-0.00136225
-0.00309721
-2.13012e-05
-0.000331395
-0.0015489
-0.000433016
-0.00583282
-0.00335444
-0.0128012
-0.00898028
-0.0225901
-0.017323
-0.0356626
-0.0286756
-0.0526714
-0.0436421
-0.0738167
-0.06276
-0.0979046
-0.0856427
-0.121843
-0.110151
-0.141165
-0.132375
-0.151452
-0.147659
-0.149515
-0.152074
-0.135209
-0.143782
-0.111935
-0.12434
-0.0856171
-0.0987765
-0.073216
-0.066723
-0.0517366
-0.0597338
-0.0774219
-0.0726787
-0.0828255
-0.0808276
-0.0825417
-0.0833908
-0.0768509
-0.0803332
-0.0665987
-0.0722226
-0.052902
-0.0600947
-0.0451068
-0.0255345
-0.0212945
-0.0231232
-0.0317425
-0.0284761
-0.0389007
-0.0352904
-0.0455083
-0.0423967
-0.0496846
-0.0480085
-0.0499683
-0.050368
-0.0459245
-0.048459
-0.0385103
-0.0425229
-0.0298604
-0.0341841
-0.0222471
-0.0258146
-0.0169352
-0.0192748
-0.0141417
-0.01523
-0.0138367
-0.0136726
-0.016248
-0.0146781
-0.021892
-0.0186248
-0.0315771
-0.0261673
-0.0464742
-0.038289
-0.068051
-0.056337
-0.0974943
-0.081766
-0.133996
-0.115069
-0.171992
-0.1534
-0.200325
-0.188175
-0.207623
-0.207061
-0.19046
-0.201895
-0.154921
-0.174356
-0.11171
-0.133575
-0.0704003
-0.0904052
-0.0354618
-0.0520342
-0.00722132
-0.0207094
-0.0115046
-0.00601202
-0.0164511
0.00452814
0.0158264
0.00491516
-0.0525973
-0.0406132
-0.11732
-0.140148
-0.0431513
-0.0200224
-0.0245706
-0.0913611
-0.128123
-0.0662544
-0.113161
-0.0961372
-0.0776114
-0.0578711
-0.0373001
0.00765134
0.0168173
0.0142443
0.0271359
0.036875
0.0253698
0.00522072
-0.00202243
-0.0110171
-0.00650603
0.01386
-0.129555
0.0197295
0.0185698
0.0201557
0.0202074
0.0182141
0.01944
0.0134671
0.0162575
0.00651047
0.0101193
-0.000557949
0.00285557
-0.00519438
-0.00336621
-0.00536077
-0.00583955
-0.00190814
-0.00396334
0.00309181
0.000533727
0.00760736
0.00551677
0.0102453
0.00921361
0.0104116
0.0106497
0.00802175
0.00953039
0.00317969
0.00589947
-0.00404157
-0.000132998
-0.013758
-0.00857004
-0.0263802
-0.0196702
-0.0424837
-0.033968
-0.0622411
-0.051935
-0.0845946
-0.0732263
-0.106783
-0.0959424
-0.124771
-0.116571
-0.134352
-0.13085
-0.133024
-0.135227
-0.119887
-0.127807
-0.0981992
-0.109776
-0.073704
-0.0859395
-0.0514808
-0.0620628
-0.0338824
-0.0419884
-0.0443821
-0.0270725
-0.0359095
-0.0591856
-0.0521823
-0.0700339
-0.0651678
-0.0759528
-0.0736538
-0.0765089
-0.0768997
-0.0719168
-0.0748238
-0.0628705
-0.0678884
-0.0503198
-0.0569774
-0.0353582
-0.0430538
-0.0193079
-0.0274386
-0.0123447
-0.0112475
-0.0115459
-0.0155194
-0.0136494
-0.0204823
-0.0177871
-0.0263863
-0.0233946
-0.0319017
-0.029291
-0.0354539
-0.0340183
-0.0357338
-0.0360545
-0.0323117
-0.0344625
-0.0260211
-0.0294215
-0.0187607
-0.0223752
-0.0124937
-0.015412
-0.00824207
-0.0100956
-0.00614967
-0.00693123
-0.00621361
-0.00590452
-0.00867468
-0.00712076
-0.0140138
-0.0109471
-0.0229599
-0.0179805
-0.0365591
-0.0291018
-0.0561362
-0.0455168
-0.0828386
-0.0685651
-0.116182
-0.0988443
-0.151476
-0.134108
-0.178562
-0.166814
-0.186266
-0.185327
-0.170559
-0.181178
-0.136973
-0.155399
-0.0957098
-0.116635
-0.0561066
-0.075284
-0.0226048
-0.0385116
0.00462282
-0.00830939
0.0162878
-0.0466163
-0.0359375
0.0339375
0.0456077
-0.102603
-0.121515
-0.0222011
-0.0794634
-0.110325
-0.0242035
-0.0178195
-0.0193507
-0.011442
-0.0578236
-0.0967288
-0.0812615
-0.0642545
-0.0459416
-0.0266339
0.0107438
0.0193581
0.015025
0.00629438
0.0019011
-0.00387673
-0.0113106
0.00186429
0.0215297
0.0533402
0.0411204
-0.112696
0.0254663
0.0228781
0.0285254
0.027233
0.0295548
0.029252
0.0287237
0.0293621
0.0258527
0.0275889
0.0209091
0.0235684
0.0153614
0.0180867
0.0114389
0.0130469
0.0108943
0.0107223
0.0132787
0.0118168
0.0168957
0.0150488
0.0200095
0.0186066
0.0214229
0.0209745
0.0206177
0.0213082
0.0175249
0.0193515
0.0122502
0.0151522
0.00487809
0.00882558
-0.00467678
0.000388474
-0.0167638
-0.0103732
-0.0318758
-0.0239171
-0.0501576
-0.0406461
-0.0706857
-0.0602572
-0.0910346
-0.0810884
-0.107621
-0.100038
-0.1167
-0.113305
-0.115663
-0.117579
-0.103683
-0.110942
-0.0836602
-0.0943606
-0.0610255
-0.0723249
-0.0404791
-0.0503009
-0.0317578
-0.038439
-0.021377
-0.030149
-0.0531279
-0.0461551
-0.0641601
-0.0591793
-0.0705407
-0.0679676
-0.0718716
-0.0718419
-0.0682475
-0.0706545
-0.0602196
-0.0647311
-0.0487133
-0.0548418
-0.0346976
-0.0419353
-0.0271308
-0.0035688
-0.00320511
-0.00312964
-0.00587622
-0.00449584
-0.00978881
-0.00766606
-0.0145845
-0.0121353
-0.0191582
-0.0169828
-0.0221495
-0.0209348
-0.0223958
-0.0226632
-0.019495
-0.0213188
-0.0141935
-0.0170513
-0.00817742
-0.0111559
-0.00311137
-0.00545255
0.000211688
-0.00121894
0.00170994
0.00118488
0.00136255
0.00177601
-0.00107436
0.000427463
-0.00603836
-0.00320728
-0.0141719
-0.00966046
-0.0263862
-0.0197028
-0.0438416
-0.0343843
-0.067601
-0.0548971
-0.0974482
-0.0818873
-0.129589
-0.113676
-0.155066
-0.143872
-0.163144
-0.161794
-0.149139
-0.158787
-0.117757
-0.135059
-0.078638
-0.0985312
-0.0407263
-0.0591208
-0.00860358
-0.0238491
0.0174927
0.00510841
0.0389027
0.0287401
0.0570197
0.0483291
0.0600268
0.0718736
0.0649338
-0.0420293
-0.0320871
-0.089538
-0.105079
-0.012479
-0.00363458
-0.020864
-0.0693798
-0.0949811
-0.0512857
-0.0827545
-0.0686687
-0.0529395
-0.0357808
-0.0174236
0.00997675
0.0183775
0.0127812
0.0829793
0.089044
0.0779421
0.00381476
0.00104408
-0.00235377
-0.00683662
-0.0126036
0.00887718
0.0279698
0.0470764
0.065594
-0.0979261
0.0273574
0.0232077
0.0331748
0.0306684
0.0364271
0.0350076
0.0380541
0.0374265
0.0382488
0.0383301
0.036874
0.0377847
0.0337195
0.0354948
0.0296305
0.0316955
0.02641
0.0277849
0.02563
0.0256797
0.0271578
0.0261769
0.0296475
0.0283801
0.0316226
0.0307778
0.0320472
0.0320688
0.0304674
0.031517
0.0268293
0.0288996
0.0212462
0.0242721
0.013821
0.0177614
0.00450627
0.0094115
-0.00698045
-0.00094021
-0.0210492
-0.0136716
-0.0378175
-0.0291179
-0.0564926
-0.0470167
-0.074981
-0.065939
-0.090144
-0.0831907
-0.0986397
-0.0954148
-0.0978679
-0.0995307
-0.0869992
-0.0936125
-0.0686691
-0.07847
-0.0479532
-0.058291
-0.029246
-0.0381756
-0.0143549
-0.021306
-0.00357514
-0.00844566
-0.016942
0.000503536
-0.00812564
-0.0337951
-0.0255655
-0.0484495
-0.0414823
-0.059649
-0.0545476
-0.0665099
-0.0636588
-0.0685642
-0.0681502
-0.0657889
-0.0677617
-0.0586399
-0.0627139
-0.0479881
-0.0536915
-0.0348073
-0.041649
-0.0199254
-0.0274968
-0.00459862
-0.0122592
0.00471104
0.0029482
0.00402616
0.00487109
0.00498217
0.00326497
0.00425399
0.000284023
0.00192849
-0.00356392
-0.00158188
-0.0073272
-0.00552836
-0.00981888
-0.00880509
-0.0100089
-0.0102441
-0.00754323
-0.00908914
-0.00311056
-0.00548865
0.00179916
-0.000614017
0.00580855
0.00397268
0.00833349
0.00726347
0.00934051
0.00902406
0.00878775
0.00926906
0.00643692
0.00785728
0.00189889
0.00447016
-0.00538006
-0.00135666
-0.0161732
-0.0102816
-0.0314646
-0.0231928
-0.0521962
-0.0411136
-0.0783466
-0.0646822
-0.106982
-0.0927152
-0.1305
-0.120018
-0.138886
-0.13711
-0.126797
-0.135363
-0.0978775
-0.113923
-0.0611016
-0.0798722
-0.0249974
-0.042566
0.00580537
-0.00882386
0.0308118
0.018957
0.051275
0.0415464
0.0685659
0.0602581
0.0760849
-0.0390897
-0.0297477
0.0830414
0.0944873
-0.0783576
-0.0910378
-0.0205238
-0.061179
-0.0820626
0.00538053
0.00915296
-0.00610657
0.00130896
-0.0465821
-0.0710556
-0.0581385
-0.0434667
-0.0272291
-0.00966252
0.00617821
0.0152854
0.00854223
-0.00138018
-0.0033542
-0.00526664
-0.00776633
-0.0110398
-0.0152439
0.0146133
0.033229
0.0520083
0.0701525
0.0992569
0.0872219
-0.0853703
0.0263377
0.0212181
0.0344703
0.0306951
0.0401274
0.0375853
0.0436351
0.0420894
0.0457836
0.0448609
0.0467876
0.0464234
0.0466052
0.0468623
0.0449766
0.0459744
0.0422497
0.0436875
0.0397451
0.040865
0.0388583
0.0390549
0.0397167
0.0391178
0.0413035
0.0405002
0.0423731
0.0419706
0.0420243
0.0424114
0.0398541
0.0411749
0.0358215
0.0380642
0.0300493
0.033143
0.0226627
0.0265533
0.013656
0.0183699
0.00281545
0.0084852
-0.010189
-0.00339971
-0.0254504
-0.0175561
-0.0423023
-0.0337618
-0.0589672
-0.0508114
-0.0727285
-0.066398
-0.0805907
-0.0775729
-0.0800314
-0.0814785
-0.0702008
-0.0762002
-0.0535499
-0.0624488
-0.034798
-0.0441415
-0.0179091
-0.0259711
-0.00446387
-0.0107671
0.000882281
-0.0135776
0.00382274
-0.00492198
-0.0303343
-0.0221141
-0.0449706
-0.0379942
-0.056408
-0.0511468
-0.0637836
-0.0606481
-0.0665151
-0.0657482
-0.0644923
-0.0660839
-0.0580962
-0.061799
-0.0481166
-0.053495
-0.0355298
-0.0420871
-0.0211629
-0.0285048
-0.0136641
0.0123263
0.010187
0.0114832
0.0128859
0.0127856
0.0119224
0.0125863
0.00969502
0.0109499
0.0066412
0.00822933
0.00357109
0.00504556
0.0015232
0.00235487
0.00140478
0.00118577
0.00350565
0.00219727
0.00717374
0.00521978
0.0111062
0.00919117
0.0141993
0.0127987
0.0160518
0.0152828
0.0166637
0.0165116
0.0159748
0.0164921
0.0137596
0.0150759
0.00967966
0.0119773
0.00326832
0.00679974
-0.00611303
-0.00100547
-0.0192708
-0.0121673
-0.037
-0.02753
-0.0593971
-0.0476746
-0.0842935
-0.0718142
-0.105507
-0.0959064
-0.114038
-0.111877
-0.104058
-0.111412
-0.0778708
-0.0925383
-0.0436088
-0.0611846
-0.00941271
-0.0261098
0.0200667
0.00603946
0.0440537
0.0326914
0.0636409
0.0543149
0.0801213
0.0722166
0.0937933
0.0873376
0.104944
0.0995921
0.103288
0.1139
0.109727
-0.0374606
-0.0286616
-0.0691111
-0.0793395
0.0122786
0.00865038
-0.0213279
-0.054834
-0.0713823
-0.0434861
-0.0614193
-0.0494885
-0.0357087
-0.0202533
-0.00336199
0.00103205
0.011252
0.00372994
0.123166
0.126547
0.117457
-0.00779085
-0.0100664
-0.0116549
-0.0129692
-0.0145079
-0.0164946
-0.0192594
0.019027
0.0373338
0.0558137
0.0737731
0.0906805
0.106565
-0.0749814
0.0238022
0.0179222
0.0337454
0.0291715
0.041086
0.0376494
0.0464758
0.0440186
0.050193
0.0485109
0.0527376
0.0515901
0.0543673
0.0536583
0.0551149
0.0548619
0.0547399
0.0550832
0.0532535
0.0541041
0.0514897
0.0523267
0.0506214
0.0508938
0.0509753
0.0506724
0.0518511
0.0514131
0.0522172
0.0521563
0.0512855
0.0519454
0.0486924
0.0502039
0.0444054
0.046754
0.0385561
0.0416652
0.0312927
0.0350947
0.0226519
0.027149
0.0124866
0.0177752
0.000540745
0.00674943
-0.0132588
-0.00614239
-0.0283653
-0.0207185
-0.0432912
-0.0359807
-0.0557075
-0.0499773
-0.0629175
-0.0601288
-0.0624924
-0.0637703
-0.0536064
-0.059035
-0.0385903
-0.046603
-0.0217931
-0.0301489
-0.00671041
-0.0139066
0.00526257
-0.000325872
0.0141685
0.0100908
0.0203785
0.0175693
0.00618005
0.0226229
0.0146176
-0.0111232
-0.00246258
-0.0278288
-0.019646
-0.0425636
-0.0355034
-0.0543654
-0.0488921
-0.0622889
-0.0588629
-0.065667
-0.0645685
-0.0643227
-0.0655754
-0.0585656
-0.0619587
-0.0491104
-0.0542436
-0.0369224
-0.0432907
-0.0229994
-0.0301279
-0.0081065
-0.0155884
0.00668333
-0.00065573
0.0172985
0.013761
0.0156776
0.0195553
0.0185744
0.02047
0.0201573
0.0200265
0.0203995
0.0184181
0.0193513
0.0160221
0.0172818
0.0135412
0.0147374
0.0118869
0.0125539
0.0118482
0.0116345
0.013638
0.0125356
0.0166299
0.0150517
0.0197055
0.0182249
0.0220166
0.0209842
0.0233151
0.0227915
0.0236189
0.0235916
0.0228534
0.02338
0.0208114
0.0220075
0.0172048
0.0192242
0.0116493
0.0146984
0.00363235
0.00798455
-0.0074825
-0.00149652
-0.0223306
-0.0144112
-0.0410549
-0.0312469
-0.0621147
-0.0515023
-0.0807098
-0.0721654
-0.0891172
-0.0866765
-0.081315
-0.0873709
-0.0581677
-0.0712997
-0.0266224
-0.0429212
0.00559366
-0.0102091
0.0337525
0.0203193
0.0567746
0.0458711
0.0755405
0.0666093
0.0912165
0.0837169
0.104236
0.0980638
0.114752
0.109808
0.119196
-0.0372976
-0.0289413
0.120475
0.129426
-0.0617391
-0.0698059
-0.0236226
-0.0502025
-0.0627444
0.0282241
0.0303853
0.00432677
0.0114677
-0.0420264
-0.0536904
-0.0426283
-0.0296314
-0.0148458
0.00148676
-0.00453615
0.00739864
-5.5411e-05
-0.0135788
-0.0175735
-0.0199965
-0.0214485
-0.0222393
-0.0226419
-0.0234596
-0.0248401
0.0221186
0.0402389
0.0585825
0.0765265
0.0935448
0.109314
0.131359
0.122826
-0.0666131
0.0205778
0.0142895
0.0315951
0.0262649
0.0404083
0.0363416
0.0471116
0.0439532
0.0522729
0.0498801
0.0561004
0.0543313
0.058942
0.0576252
0.0610453
0.0600757
0.0624946
0.0618564
0.0631087
0.0629249
0.0627104
0.0630292
0.0617043
0.0622304
0.0609766
0.0612568
0.0609788
0.0608943
0.0613055
0.0611506
0.0611369
0.0613331
0.0597855
0.0606379
0.0569172
0.0585479
0.0525027
0.0548965
0.0466798
0.0497557
0.0396169
0.043295
0.0313905
0.0356503
0.021915
0.0268199
0.0109999
0.0166478
-0.00141431
0.00496852
-0.0148904
-0.00807646
-0.0282002
-0.0216754
-0.0393516
-0.0341896
-0.0459053
-0.0433615
-0.0455236
-0.0466852
-0.0374817
-0.0423861
-0.0240391
-0.0311916
-0.00915568
-0.0165446
0.00414553
-0.0021978
0.014711
0.0097786
0.022621
0.0189782
0.0256866
0.00779991
0.0244089
0.0162002
-0.00944265
-0.000780895
-0.0261632
-0.0179536
-0.041178
-0.033944
-0.0534612
-0.0477295
-0.0619721
-0.0582429
-0.0659883
-0.064568
-0.0652675
-0.0662147
-0.0600505
-0.0631877
-0.0509986
-0.0559491
-0.0390654
-0.0453226
-0.0253359
-0.0323689
-0.0105595
-0.0180212
-0.00305142
0.0240479
0.0205231
0.0224322
0.0263868
0.0253235
0.0275609
0.0271244
0.0275433
0.0276929
0.0264407
0.0271118
0.0245877
0.025575
0.0226064
0.0235644
0.0213007
0.0218195
0.0213419
0.0211284
0.0228584
0.0219388
0.025249
0.0240041
0.02758
0.0264738
0.0292365
0.0285092
0.0300897
0.0297608
0.0301624
0.0302253
0.0293701
0.0298841
0.0275276
0.0285933
0.0243949
0.0261392
0.0196629
0.0222506
0.0129331
0.0165751
0.0037238
0.00866916
-0.00844137
-0.0019675
-0.0236942
-0.0157071
-0.0409662
-0.0322278
-0.0566961
-0.0493681
-0.0646061
-0.0620621
-0.0588655
-0.0636353
-0.0390266
-0.0504706
-0.0104954
-0.025381
0.0195987
0.00473866
0.046436
0.0335863
0.0685512
0.0580726
0.0865432
0.0779926
0.101437
0.0943314
0.113751
0.107903
0.123665
0.11901
0.131154
0.12776
0.136169
0.133924
0.132429
0.137808
0.137428
-0.0387706
-0.030834
-0.0561237
-0.0622566
0.0320986
0.0182703
-0.0273522
-0.0472989
-0.0560232
-0.0422212
-0.0478038
-0.0375427
-0.0252536
-0.0110436
0.00486394
-0.00854896
0.0048883
-0.00201273
-0.0179013
-0.0239523
-0.028564
-0.0314692
-0.0328818
-0.0330613
-0.0327416
-0.0321938
-0.032103
0.0238883
0.0420192
0.0604696
0.0785513
0.0958161
0.111591
0.124483
0.140976
0.137119
0.139633
-0.0601109
0.0180291
0.0117343
0.029187
0.0238213
0.0386155
0.0340834
0.0464423
0.0427283
0.0526041
0.0497034
0.0575253
0.0552074
0.0613905
0.0595762
0.064439
0.0630011
0.0668882
0.0657283
0.0688477
0.0679294
0.0702071
0.0696193
0.0707187
0.0705777
0.0704577
0.0706573
0.0699896
0.0702086
0.0697889
0.0698494
0.0697053
0.0697649
0.069138
0.0695232
0.0675008
0.0684795
0.0644831
0.0661715
0.0600534
0.0624383
0.0543502
0.0573488
0.0475572
0.05108
0.0397853
0.0437919
0.0310024
0.0355275
0.0210727
0.026189
0.00994403
0.0156497
-0.00204411
0.0040119
-0.013886
-0.00807495
-0.023871
-0.0192397
-0.0297523
-0.0274749
-0.0293302
-0.0304228
-0.0220394
-0.026463
-0.0101026
-0.0164268
0.00293022
-0.00352367
0.014513
0.00899068
0.02373
0.019421
0.030696
0.0274592
0.0357152
0.0334104
0.0392002
0.0377062
0.02555
0.0404104
0.0332843
0.00888342
0.0173669
-0.00842917
0.000236871
-0.0253291
-0.0169911
-0.0407937
-0.0333107
-0.0536574
-0.0476247
-0.0628108
-0.0587555
-0.0674768
-0.065735
-0.0673405
-0.0680083
-0.0625787
-0.0655074
-0.0538165
-0.0586435
-0.0419993
-0.0482209
-0.0282429
-0.0352963
-0.013472
-0.0209542
0.00155897
-0.005909
0.0158203
0.00877292
0.0268963
0.0224507
0.0248066
0.0303365
0.0287564
0.032762
0.0316793
0.0341577
0.0335975
0.0344657
0.0344446
0.0337668
0.0342282
0.03236
0.0331219
0.0308035
0.031557
0.029806
0.0301919
0.0299185
0.0297051
0.0311852
0.0304324
0.0330387
0.0320893
0.0347316
0.0339426
0.0358521
0.0353714
0.0363576
0.0361784
0.0362657
0.0363891
0.0354868
0.035971
0.03386
0.0347903
0.0311896
0.0326685
0.0272334
0.0293889
0.0216922
0.0246809
0.0142194
0.0182188
0.00448518
0.00964946
-0.00759363
-0.00127922
-0.0212709
-0.0143374
-0.0340036
-0.0280082
-0.0409756
-0.0385665
-0.0370019
-0.0405791
-0.0205391
-0.0302064
0.00462539
-0.00866144
0.0323143
0.0185191
0.0577248
0.0454895
0.078956
0.0688808
0.0962186
0.08803
0.110346
0.103631
0.121868
0.116415
0.130954
0.126719
0.13743
0.134554
0.140893
0.139583
0.141332
-0.0420296
-0.0343531
0.132526
-0.0522669
-0.0565923
-0.032861
-0.0461389
-0.0511767
0.0459302
0.0471112
0.0130091
0.0198404
-0.0442098
-0.0437746
-0.0342753
-0.0226257
-0.00888542
0.00674153
-0.00952645
0.00512108
-0.0002418
0.13522
0.137291
-0.0169325
-0.0268296
-0.0349765
-0.040677
-0.0441835
-0.0458588
-0.0459022
-0.0448662
-0.0429734
-0.0413786
0.0244035
0.0428163
0.0616366
0.0801367
0.0977535
0.113413
0.12508
-0.0554217
0.016594
0.010849
0.0273559
0.0221636
0.0368226
0.0321531
0.0449514
0.0410658
0.0518489
0.0485439
0.0575566
0.0548466
0.0622495
0.0600171
0.0660955
0.0642683
0.0692739
0.0677557
0.0719649
0.0706711
0.0742816