/*--------------------------------*- C++ -*----------------------------------*\
  =========                 |
  \\      /  F ield         | OpenFOAM: The Open Source CFD Toolbox
   \\    /   O peration     | Website:  https://openfoam.org
    \\  /    A nd           | Version:  10
     \\/     M anipulation  |
\*---------------------------------------------------------------------------*/
FoamFile
{
    format      ascii;
    class       surfaceScalarField;
    location    "26.5";
    object      phi;
}
// * * * * * * * * * * * * * * * * * * * * * * * * * * * * * * * * * * * * * //

dimensions      [0 3 -1 0 0 0 0];

internalField   nonuniform List<scalar> 
17221
(
0.08611
-0.0279362
-0.0710933
0.0129195
-0.00014638
0.0788871
0.00736932
0.0670029
-0.0210509
-0.0738883
0.0827075
-0.00732972
-0.0753518
-2.60007e-05
0.0162942
0.0734159
-0.00700259
0.0692109
0.0187715
-0.0716881
2.95751e-05
-0.00394385
0.0695861
-0.0656719
-0.00759201
-0.0675979
0.0752195
0.00601909
-0.0423112
0.0042939
0.0319982
-0.0430336
0.0119488
0.0371039
0.00376215
0.041899
-0.0500147
0.00435359
-0.0450377
0.0487999
-0.0428398
0.0617142
-0.0595678
0.0406935
0.0644642
-0.0264483
-0.0808556
0.0726796
0.061472
-0.0473113
-0.0868403
0.0500228
-0.0101294
0.0327862
0.0172759
0.0615712
-0.0732252
-0.00562191
0.00813816
0.0536085
-0.0444708
-0.0465933
-0.00929108
0.0640225
-0.0304503
-0.0613183
0.0753621
0.0164065
-0.0680412
0.0019174
0.0356735
0.0447781
0.0470476
-0.0523826
-0.0394431
0.102665
-0.0669134
0.00902611
-0.0312861
0.0107379
0.0875511
-0.109769
-0.0570778
0.0828595
0.083987
-0.0455481
0.02854
-0.0927607
0.0985708
-0.0942429
-0.049876
0.0854214
-0.0439283
-0.0258281
-0.046321
0.0118555
0.0602936
-0.0121658
-0.0512907
0.0376283
-0.0582411
0.00326083
0.0428145
-0.117543
-0.0046508
0.0836828
0.038511
0.0209664
-0.109554
-0.028955
0.126018
0.0193088
-0.12436
0.00879252
0.112575
0.066491
-6.56286e-05
-0.01909
-0.0473354
0.0116345
0.0672657
-0.0124092
-0.0417152
0.0411397
0.063839
-0.0632635
0.102488
-0.0793021
-0.0249887
0.00180279
0.0713561
-0.0105834
0.0349191
0.0938306
-0.0377132
0.0238705
-0.0106074
-0.00793918
0.0185465
-0.00343241
-0.00825191
0.00107696
0.0976078
-0.0442812
-0.0533265
-0.0621044
0.0511407
0.108571
0.00816399
-0.00203336
-0.0107434
0.00461271
-0.00232436
-0.00323586
0.0137242
-0.00434435
-1.33606e-05
0.0445358
0.0779109
-0.0688583
-0.0535884
0.0610147
-0.0805512
0.0640723
-0.0305234
0.0513214
0.0402167
-0.0159
0.0632875
-0.0820528
0.0163565
0.0676374
-0.00194108
-0.0728937
-0.00927426
0.000115229
-0.0097045
-0.0651864
0.00199719
-0.0658881
0.0366352
0.0671572
-0.0379042
0.0404126
-0.0699553
-0.0363455
-0.0547562
0.0572185
-0.041693
0.0392308
0.0474165
-0.0655375
-0.0773247
-0.0326709
0.0714706
0.0385249
-0.0342627
-0.0760496
0.0329876
0.0735646
-0.0370124
-0.0674853
0.0309331
-0.0345038
0.0738057
0.00685775
-0.0581765
0.00277238
0.0485463
0.0631972
9.70023e-05
-0.0564364
0.0697697
-0.0105164
-0.100121
0.00329866
0.03501
0.0618124
-0.003547
-0.106751
0.0101772
-0.00146345
0.100582
0.0265588
-0.0614148
-0.0288744
0.0637304
-0.0654934
0.0652908
0.0267613
-0.0252186
-0.0653713
0.029175
-0.0640602
-0.0285129
0.0673546
0.0132174
0.0590257
-0.0126091
-0.059634
0.0578478
-0.0612686
0.0166382
-0.0135005
0.0602245
0.0123016
-0.0116296
0.0585102
-0.0603811
0.0264199
-0.0861235
-0.0847403
-0.0159943
0.0160818
0.0846529
-0.0923659
0.0262461
-0.0186205
0.0124773
-0.0703501
-0.0145354
0.0724083
-0.0688425
0.0737331
0.00758668
0.0902905
-0.0758368
0.0119662
0.0931865
0.00728114
0.0754343
-0.0478529
0.0555252
-0.0524407
0.0447684
0.0515331
-0.0472001
-0.0521859
-0.0176157
0.0424748
-0.0412866
0.0164274
0.0455388
-0.0205317
-0.0426227
0.081608
-0.05108
-0.0402325
0.070464
0.00186981
0.000565916
-0.00293083
-0.0628215
0.0255424
0.0760336
-0.0304879
-0.071088
0.0207224
0.0744062
-0.0695863
-0.048173
-0.0195929
0.054439
0.0133269
-0.00806466
0.0413666
-0.0814749
0.0588886
0.00294627
-0.0698995
0.0432298
-0.00393415
-0.0119378
-0.0624263
0.0710641
0.00329997
-0.0385428
0.081044
0.0664374
0.00377973
-0.00577156
-0.0644456
0.00544406
0.0678991
-0.0069057
0.0620698
-0.0368132
0.0392076
0.0594271
-0.0378608
0.0405036
0.0579321
-0.0368218
0.0383168
0.0548073
-0.0326128
0.0357375
0.0559524
-0.0298585
0.0287135
0.0548356
-0.0176699
0.0187866
0.0562863
-0.00813935
0.00668868
0.0568323
0.00443852
-0.00498452
0.0590484
0.0148969
-0.017113
0.0592404
0.0242035
-0.0243955
0.0620945
0.0297347
-0.0325888
0.0633031
0.0346597
-0.0358683
0.0639007
0.0351325
-0.0357301
0.0642959
0.0360596
-0.0364548
0.0347865
0.0658866
-0.0363771
0.0651036
-0.0641001
0.0337831
0.0335381
-0.0317118
0.0332704
0.0633884
-0.0615089
0.0332529
0.0353479
0.0605156
-0.0588885
0.0281077
0.0336664
0.0569543
-0.0550671
0.0130097
0.0222693
0.0541105
-0.0547232
-0.00752669
0.00348194
0.0535899
-0.056435
-0.0270134
-0.0188032
0.0562454
-0.058658
-0.0344091
-0.0328024
0.0606701
-0.0658563
-0.031627
-0.0358487
-0.0350862
-0.0608308
0.0598052
0.0415291
0.0400909
-0.0591082
0.0586004
0.0362453
0.0390138
-0.0568779
0.0571283
0.0185363
0.030436
-0.058679
0.0597388
-0.00604425
0.00513795
-0.0602518
0.0639336
-0.0280773
-0.0176261
-0.0650261
0.0636698
-0.034512
-0.0336814
-0.0641896
0.0647083
-0.0369735
-0.0362499
-0.0655831
0.0672487
-0.0333774
-0.0372519
0.066928
-0.0281922
0.0561289
-0.0503372
0.0416248
-0.027349
0.0658291
-0.0644357
0.0281174
0.0687904
-0.0292113
0.0436623
-0.0687872
0.0480941
0.0640066
-0.0654735
0.03525
0.0328412
0.0626939
-0.0635426
0.0341016
0.0325682
0.059206
-0.0584083
0.02731
0.0293298
0.0563946
-0.0545262
0.0111413
0.0202555
0.0529565
-0.0522477
-0.00823555
0.00191228
0.0537748
-0.0530825
-0.0277057
-0.0172761
0.0566536
-0.0580555
-0.0330072
-0.0292313
0.0613802
-0.060367
-0.0326402
-0.0325241
0.0607804
-0.0353163
-0.0346728
-0.0283093
0.0267046
0.0674337
-0.0283075
0.0687886
-0.0611296
0.0614639
0.0403592
0.0424898
-0.0610299
0.0622866
0.0402723
0.040525
-0.0613909
0.058914
0.0387222
0.0399095
-0.0610247
0.0623319
0.0172291
0.0283253
-0.0619763
0.0645698
-0.00863778
0.00549356
-0.0649761
0.067653
-0.0307543
-0.0180324
-0.0677069
0.0691177
-0.0359228
-0.0337352
-0.0664314
0.067652
-0.0381941
-0.0335636
-0.0651325
0.0676484
-0.0358933
-0.0347324
-0.0709913
0.0698852
-0.0281052
-0.0315351
-0.0161842
0.061467
0.020008
0.0742509
-0.053875
-0.0254778
0.0670555
0.042568
-0.0447791
-0.0677441
0.0386445
-0.0648637
-0.0661041
0.0678278
-0.0380693
-0.0671783
-0.0437049
0.0615932
-0.0371386
-0.0388199
0.0659093
-0.0625202
0.0453896
0.0463178
-0.0476452
-0.0508585
-0.0501018
0.0439788
0.0641157
-0.065953
0.0299547
0.0283568
0.0650519
-0.0648143
0.0350124
0.0319401
0.0621689
-0.0615959
0.0335286
0.0299229
0.058628
-0.0575109
0.0261929
0.026362
0.0538539
-0.053573
0.0108604
0.0165985
0.0523866
-0.0516032
-0.00901894
0.000725901
0.0521406
-0.053569
-0.0262773
-0.0167387
0.0566394
-0.0572114
-0.0324351
-0.0261609
0.061709
-0.0612184
-0.0331308
-0.0280265
0.065471
-0.0666299
-0.0341574
-0.0304202
-0.0367062
0.0664133
-0.0662666
-0.0282519
0.0675358
-0.0266003
-0.0516173
0.0575637
0.038822
0.0410318
-0.0418538
-0.0492798
0.0500708
0.0394223
-0.0484613
0.0424323
-0.0619467
0.0610689
0.041237
0.0381068
-0.0658217
0.0636057
0.0424883
0.0357722
-0.0635574
0.0638768
0.0384028
0.0399578
-0.065965
0.064919
0.0182751
0.0262371
-0.0665408
0.068465
-0.0105619
0.00387173
-0.0695867
0.0705059
-0.0316734
-0.0191541
-0.067577
0.0706162
-0.038962
-0.0308063
-0.0700586
0.0705465
-0.038682
-0.0330061
-0.0671884
0.0672334
-0.0359383
-0.0313743
-0.0305683
0.0317564
-0.0314378
0.0671151
0.0671874
0.0292051
-0.0269758
0.0648262
0.0665559
-0.0628757
-0.0497952
0.0412971
-0.059246
-0.0471237
-0.0698499
-0.0182884
0.0392829
-0.0681181
-0.0709844
-0.0171539
-0.0594051
0.0373094
-0.0248134
0.0653733
-0.0377822
-0.0549301
0.0412981
-0.0648646
-0.045958
0.0522753
0.0331051
0.0359367
-0.0384282
-0.0459698
-0.0445346
0.0345133
-0.0367358
-0.0509721
0.0419585
-0.0619216
0.0339128
-0.0692897
-0.0356075
0.033642
-0.0678473
-0.0373956
0.0353553
-0.0672494
-0.0565758
0.069011
-0.0498308
0.0239248
-0.0304778
0.0672039
-0.0681892
0.03094
0.0361556
0.0672988
-0.0646643
0.0323779
0.0310497
0.0630788
-0.0608823
0.0313321
0.0283374
0.0588996
-0.0564837
0.0237771
0.0243792
0.0545017
-0.0525564
0.00891504
0.0146165
0.0514474
-0.0506078
-0.00985853
-0.000383094
0.0517087
-0.0533901
-0.024596
-0.0156378
0.05555
-0.0583496
-0.0296355
-0.0240011
0.0607119
-0.0629963
-0.0308464
-0.0256642
0.0658795
-0.0660162
-0.0340207
-0.0275371
0.0693984
-0.0725573
-0.0349104
-0.033324
0.0806583
-0.0676908
-0.0301214
-0.0356038
-0.0342873
-0.0579627
0.0611923
0.0355924
0.0367449
-0.0625668
0.0645317
0.0392721
0.0367323
-0.0649748
0.0637179
0.0437453
0.0353291
-0.0673821
0.0668487
0.0389362
0.0362936
-0.0678729
0.0688368
0.0173112
0.0252129
-0.0706478
0.0722047
-0.0121189
0.00206075
-0.0730722
0.0734553
-0.0320565
-0.0200216
-0.0732663
0.0725127
-0.0382084
-0.0306173
-0.0715303
0.0701778
-0.0373295
-0.0320237
-0.0689858
0.0666405
-0.033593
-0.0301823
-0.0670846
0.0678794
-0.0290467
-0.0310123
-0.0666694
0.0649052
-0.0230492
-0.0253902
0.0294961
-0.0334971
0.0699103
0.0706309
0.0328427
-0.0308443
0.0651167
0.066533
0.0287672
-0.0268274
0.0628864
0.0644789
0.023773
-0.022005
0.0631373
0.0623189
-0.0593599
0.02853
-0.0289611
0.0264702
0.0663673
-0.0661423
-0.0232742
0.0631732
-0.018811
-0.0378864
-0.0537795
0.0373472
-0.0602534
-0.089942
0.0718987
-0.0317875
-0.0261616
-0.00230839
-0.0328368
-0.0470964
0.0345924
-0.062872
0.0305701
-0.0630621
0.0211396
-0.0644643
0.0721738
-0.0697716
0.0349072
0.0270573
0.067211
-0.0676284
0.0313575
0.033595
0.0663632
-0.0645881
0.0306028
0.0297844
0.0627421
-0.0603832
0.0289732
0.0264914
0.0582455
-0.0557719
0.0213035
0.0222415
0.0537995
-0.051953
0.00706853
0.0126442
0.0509633
-0.0507473
-0.0100745
-0.00137282
0.0515449
-0.0535382
-0.0226027
-0.0148402
0.05582
-0.058728
-0.0267275
-0.0217192
0.061013
-0.0633384
-0.0285209
-0.0233791
0.0651868
-0.0673933
-0.0318142
-0.0256887
0.0711727
-0.0735932
-0.0324899
-0.0295446
0.0757675
-0.073594
-0.0322948
-0.0334296
-0.0359826
-0.0416784
0.0458383
0.0223103
0.0176504
-0.011701
-0.0472359
0.0393492
-0.0241489
0.00245003
0.0140982
-0.0530181
0.0556082
0.0305149
0.0273335
-0.0596402
0.0623237
0.0329088
0.0327129
-0.063648
0.0651615
0.0377585
0.0354081
-0.0660338
0.0671313
0.0426478
0.0344568
-0.0682107
0.0697266
0.0374203
0.0352142
-0.0711615
0.0730908
0.0153819
0.0237781
-0.0746303
0.0760028
-0.0134914
0.000521251
-0.0765477
0.0763566
-0.0318654
-0.0205665
-0.0756271
0.0742617
-0.036843
-0.0298878
-0.0728692
0.0710548
-0.0355151
-0.0306312
-0.070766
0.0674234
-0.0302504
-0.0298935
-0.0658304
0.0650265
-0.0282428
-0.0294194
-0.0265061
-0.0296932
0.0287156
0.0724482
0.029026
-0.0277982
0.0686825
0.0699637
0.0271894
-0.0276926
0.0656199
0.0659242
0.0259488
-0.024321
0.0612586
0.0627351
0.0225501
-0.0195059
0.0600931
0.060548
-0.015648
0.0593153
-0.0598991
0.0594952
-0.0804034
0.0594331
-0.00300521
0.0912161
0.0186872
-0.027507
-0.0153292
-0.073921
0.0265053
-0.032943
-0.0536733
0.0346777
-0.0603387
-0.0223356
-0.0452925
0.0303848
-0.0626867
-0.0590348
0.0152349
0.0566854
-0.0128856
-0.0127741
-0.0415497
0.0257867
-0.0677092
0.000722602
-0.0292713
0.0157391
-0.0903328
0.0453383
0.0110895
-0.0686744
-0.00600836
0.0771795
-0.0712709
0.0289986
0.0303158
0.0699212
-0.0680137
0.02945
0.0322452
0.0664276
-0.0645747
0.02875
0.0281983
0.0625507
-0.0600628
0.0264853
0.0244674
0.0578241
-0.0553084
0.0187878
0.0200029
0.053372
-0.0516333
0.00532979
0.0107078
0.0508038
-0.0508551
-0.0100232
-0.00220234
0.0518662
-0.0540498
-0.0204191
-0.013829
0.0564191
-0.0592826
-0.023864
-0.01935
0.0614639
-0.0637241
-0.0262607
-0.0211978
0.0656136
-0.0680206
-0.0294072
-0.0237993
0.0713447
-0.0717878
-0.0320468
-0.0262205
0.0765569
-0.073983
-0.0348687
-0.0286605
0.079897
-0.0818548
-0.0298297
-0.0300687
0.0756037
-0.0888913
-0.0340237
-0.0324127
-0.034449
0.0396134
-0.00271439
-0.0489113
-0.0130447
-0.0424621
0.0470715
0.0177009
0.0112495
-0.0520906
0.0565271
0.0260784
0.0223144
-0.0594715
0.0595515
0.0328289
0.0297685
-0.0653319
0.0657653
0.0373251
0.0296276
-0.0670602
0.0687297
0.0409784
0.0331618
-0.0703262
0.072459
0.0352874
0.0336177
-0.0743838
0.0767252
0.0130405
0.0218533
-0.0783955
0.0795839
-0.0146798
-0.00114909
-0.0797438
0.0789648
-0.0310864
-0.0207264
-0.0777221
0.0758173
-0.0349382
-0.0286451
-0.0740604
0.0719321
-0.0333867
-0.0288743
-0.0690072
0.0695306
-0.0307738
-0.0269687
-0.064892
0.0639456
-0.0272964
-0.0247807
-0.0632056
0.0656621
-0.0257307
-0.0257661
-0.0218232
-0.029476
0.025136
-0.0825003
-0.0894316
-0.0289357
0.0196917
-0.0228171
0.0755736
-0.0440803
0.0198846
0.0695341
0.0668274
0.0235616
-0.0233216
0.0684426
0.0707082
0.0236971
-0.0229942
0.064917
0.0662997
0.020838
-0.0202719
0.0606925
0.0605788
0.018927
-0.0168096
0.0579757
0.0592031
0.0577406
-0.0581644
-0.0266965
-0.0493124
0.0296955
-0.0596494
-0.0124103
0.0125318
0.0565639
-0.0592133
-0.0124638
0.0656687
-0.0160109
0.0563837
-0.0527831
-0.0150969
-0.0429697
0.0249583
-0.0618583
-0.00283367
-0.0379934
0.0163994
-0.0683694
0.00454113
-0.0491416
0.00827039
-0.0734672
-0.0161279
0.0154236
-0.048207
0.0130311
-0.0138085
-0.0886542
0.00820561
-0.0776749
-0.0669373
0.0164717
-0.0150925
0.0700912
-0.0126567
0.00857671
-0.0681842
0.0722642
0.0733506
-0.0733982
0.0265529
0.0175028
0.0735019
-0.0730208
0.0285174
0.0304196
0.0690814
-0.0695421
0.0299107
0.0283059
0.0659868
-0.0645867
0.0273499
0.024643
0.0624517
-0.059876
0.0239095
0.0223324
0.0575852
-0.0550603
0.0162628
0.0177121
0.0531948
-0.0516028
0.00373777
0.00884233
0.0509748
-0.0513004
-0.00969764
-0.00283032
0.052538
-0.0548737
-0.0180834
-0.0125914
0.0572167
-0.0598903
-0.0211904
-0.017007
0.061897
-0.0640664
-0.0240913
-0.0191911
0.0659801
-0.0684267
-0.0269606
-0.0218855
0.070659
-0.0734053
-0.0293005
-0.0239882
0.0760372
-0.079435
-0.0314709
-0.0260286
0.0818794
-0.0831381
-0.0285711
-0.0276242
0.0847469
-0.0901899
-0.0285806
-0.0308039
0.0952474
-0.094151
-0.0149048
-0.0238782
-0.00530148
-0.000942167
-0.0824105
0.105786
0.0020823
-0.0673206
-0.0405474
0.00633315
-0.0422857
0.0413519
-0.00178054
0.0465921
-0.050785
-0.011935
-0.00873832
-0.0458472
0.0505036
0.0130446
0.00675423
-0.0534341
0.0558623
0.0236503
0.0193839
-0.0605369
0.0624288
0.030937
0.0250939
-0.0643249
0.0663129
0.0353372
0.0277315
-0.0679714
0.0701402
0.0388096
0.0315033
-0.0722038
0.0749471
0.0325441
0.0315541
-0.0773879
0.0801248
0.0103036
0.0194125
-0.0818618
0.0827875
-0.0156055
-0.00288602
-0.0825218
0.0811493
-0.0297139
-0.0204607
-0.0794291
0.0770629
-0.032572
-0.0269249
-0.0750025
0.072593
-0.0309773
-0.0268139
-0.0706731
0.0685632
-0.0286639
-0.0250487
-0.0667788
0.0657764
-0.026294
-0.0229964
-0.0623449
0.0596267
-0.0230125
-0.0223347
-0.0214098
0.0211122
-0.0160494
0.0705108
0.0728471
0.0163662
-0.0181123
0.0701886
0.071025
0.0167957
-0.0162033
0.0643246
0.0649832
0.0155303
-0.0147766
0.0599388
0.0599058
0.0134352
-0.0122318
0.0567723
0.0578617
0.0580406
-0.0551654
-0.0709856
0.0186149
0.0593848
-0.0586028
-0.0132458
0.0558053
-0.0124314
-0.0182986
-0.0461107
0.0217604
-0.0564515
-0.0052205
-0.0405829
0.0145679
-0.0600268
0.00718164
-0.0406339
0.00743163
-0.0675307
0.0136522
-0.0473702
0.0179619
-0.0545832
-0.0141638
0.0227622
-0.0530073
0.000758699
-0.0660203
-0.00970002
-0.068917
-0.0128376
-0.0674906
-0.0174396
-0.0625377
-0.0703443
0.0919473
0.0101139
-0.0317169
-0.0727811
0.0110135
-0.020391
0.0153072
-0.0631004
0.0759234
-0.0748159
0.0254454
0.0224406
0.0737133
-0.0730152
0.0278193
0.029317
0.070867
-0.0688351
0.0278788
0.0261577
0.066918
-0.0646281
0.0250599
0.0227258
0.0624142
-0.0597896
0.021285
0.0201185
0.0575024
-0.0550216
0.013782
0.0154249
0.0532677
-0.0518736
0.00234369
0.00708844
0.0514873
-0.0521242
-0.00906081
-0.0032166
0.0535649
-0.0559577
-0.0156906
-0.0111506
0.0581604
-0.0605481
-0.0188026
-0.0148044
0.0623613
-0.064445
-0.0220076
-0.017378
0.0663514
-0.0687601
-0.0245519
-0.0199792
0.0709256
-0.0736486
-0.0265776
-0.0218227
0.076218
-0.0795195
-0.0281694
-0.0234591
0.0827372
-0.0829648
-0.0283434
-0.0244065
0.0895136
-0.0938672
-0.0242271
-0.0242551
0.0968084
-0.0998894
-0.0118239
-0.020937
-0.00160894
-0.0532096
0.0493944
-0.00811982
-0.0166633
0.0200978
-0.0580177
0.0571974
-0.0594102
-0.0144505
-0.0101759
-0.0460421
0.045009
-0.000747434
-0.00538603
-0.0474334
0.0494249
0.011053
0.00432985
-0.0535886
0.0555055
0.0217334
0.0152202
-0.0594545
0.0623434
0.0280481
0.0211449
-0.0644111
0.0666692
0.0330792
0.0256638
-0.0686255
0.0712485
0.0361866
0.0295469
-0.0737748
0.0771696
0.0291493
0.0290279
-0.0801173
0.0832062
0.0072147
0.0164648
-0.0848972
0.0854359
-0.0161442
-0.00457703
-0.0847014
0.0827613
-0.0277739
-0.0197262
-0.080643
0.0779243
-0.0298533
-0.0248066
-0.0756674
0.0731061
-0.028416
-0.0245569
-0.0710816
0.0688697
-0.026452
-0.0230242
-0.0670907
0.0649527
-0.024156
-0.0212174
-0.0635573
0.0603815
-0.0198367
-0.0209393
-0.0196311
0.00268594
-0.00579744
0.0732027
-0.000231263
0.00157227
0.0723921
0.0748629
0.00801365
-0.00943114
0.0719283
0.0750633
0.00931847
-0.00899929
0.0698694
0.0709123
0.00860423
-0.00819027
0.0639107
0.0645881
0.00780247
-0.00741444
0.0595507
0.059518
0.00681587
-0.00624543
0.0562019
0.0572631
0.00595594
-0.0062018
0.0568097
0.0577511
0.00635555
0.0567533
-0.00730349
0.0565375
-0.0517036
-0.0074476
-0.0438836
0.0109579
-0.0528415
0.00646305
-0.0398643
0.00183861
-0.0544337
0.000129503
-0.000539437
0.0571632
0.0570241
-0.0579702
-0.00635738
0.057432
-0.000278379
0.0176291
-0.0446107
0.0233712
-0.0479792
0.0226444
-0.0555538
0.0199837
-0.0612351
-0.0181587
0.0220357
-0.0600698
-0.0576091
-0.00916288
-0.0160964
-0.059624
-0.023301
-0.0584537
-0.027982
-0.0569482
-0.0284559
-0.0544729
0.071581
-0.0765501
0.00654132
-0.0702264
0.0127525
0.017965
-0.0273354
-0.05373
0.0175779
-0.0698393
-0.010154
0.00686791
0.0756781
0.071196
-0.00976893
0.0781058
-0.0764911
0.0170001
0.00914243
0.0755814
-0.0753213
0.0251853
0.0215309
0.0729379
-0.0739263
0.0288077
0.0269336
0.0710971
-0.0689696
0.0257513
0.0233285
0.0669746
-0.0646336
0.0227189
0.0207308
0.0624171
-0.0597902
0.0186581
0.0179021
0.0575539
-0.055174
0.011402
0.0131887
0.0535772
-0.0524523
0.00121877
0.00549167
0.0523565
-0.0533116
-0.00810565
-0.00331241
0.0548806
-0.057166
-0.0134051
-0.00958165
0.0590981
-0.0611431
-0.0167577
-0.0128723
0.0627758
-0.0647734
-0.0200101
-0.0157452
0.0666203
-0.0689147
-0.0222575
-0.0181322
0.070972
-0.0735753
-0.0239743
-0.0197653
0.0760153
-0.0791486
-0.0250361
-0.0210192
0.082078
-0.0855742
-0.0248472
-0.0214772
0.089397
-0.0923915
-0.0212326
-0.0204323
0.0962994
-0.0953167
-0.0128065
-0.017029
0.0913095
-0.0837535
0.002558
-0.00561621
0.0797638
-0.0764617
0.00945036
0.00702379
-0.0608721
0.0582917
-0.0118701
-0.0197554
0.0231525
-0.0646322
0.0626687
-0.0647688
-0.0176554
-0.0163621
-0.0552913
0.0526366
-0.00546514
-0.00717552
-0.0497551
0.048238
0.00076973
-0.00250455
-0.0481237
0.0494359
0.00974083
0.00444415
-0.0526318
0.0559221
0.0184431
0.0120242
-0.0586282
0.0615891
0.0250872
0.0184388
-0.0638663
0.0664943
0.0304512
0.0233865
-0.0688299
0.0719995
0.0330169
0.0272114
-0.0750946
0.0792149
0.0250291
0.0259328
-0.0826353
0.0858949
0.00395509
0.0130444
-0.0873579
0.0873622
-0.0161485
-0.00604009
-0.0861389
0.0837163
-0.0253513
-0.0185029
-0.0813158
0.0783919
-0.0269294
-0.0224061
-0.0760462
0.0734308
-0.0258006
-0.0222112
-0.0713831
0.0691087
-0.0241776
-0.0209765
-0.0681595
0.0647018
-0.0206982
-0.0202682
-0.0628825
0.0607992
-0.0177534
-0.0191199
-0.0586238
0.0591878
-0.0138097
-0.0174557
-0.0112138
-0.00527125
0.00385939
0.0746145
0.0764596
-0.00147071
-0.000322626
0.0737217
0.077452
0.000143801
4.98029e-05
0.0696758
0.0707335
-0.000247836
0.000396044
0.0637624
0.0643901
-0.000467443
0.00046005
0.0595581
0.0594466
-0.000566878
0.000949891
0.0558188
0.0571563
-0.0012235
0.0018824
0.0561508
0.0574775
0.0578804
-0.0481933
-0.0710182
0.0121344
0.00462677
-0.0281754
-0.0462907
-0.0574133
-0.00897814
0.00487348
-0.042294
-0.00180199
-0.0492009
0.0061775
-0.00651744
0.0575031
0.0065914
0.0570181
0.0183296
-0.0405648
0.0248778
-0.0461173
0.0267055
-0.0520403
0.0249469
-0.058465
0.0252312
-0.0621485
0.0224284
-0.0674187
-0.0197784
0.0244299
-0.0666338
-0.052097
-0.0216085
-0.0300858
-0.0528391
-0.0346507
-0.051785
-0.0346542
-0.0507499
-0.0330378
-0.0487705
-0.0316545
-0.0502509
-0.0228464
0.0165164
0.0820082
-0.0365055
0.084855
0.079269
-0.0795033
0.00677562
-0.0578885
0.0580314
-0.000421195
-0.059118
-0.00512796
0.0590057
0.0104944
-0.0122856
-0.051311
0.0794493
-0.0796757
0.0172266
0.00908844
0.0784981
-0.0784921
0.0251793
0.0203533
0.0754432
-0.0730931
0.0264576
0.0238847
0.0711079
-0.0689315
0.0235748
0.0213433
0.0669407
-0.0645735
0.0203517
0.0187401
0.0623916
-0.0598046
0.0160712
0.0157202
0.0576616
-0.0554635
0.00920397
0.0110456
0.0541084
-0.0533607
0.000471021
0.00413656
0.0535953
-0.054805
-0.0068959
-0.0030778
0.0563584
-0.0583566
-0.011407
-0.0080283
0.0599522
-0.0616868
-0.0150231
-0.0112767
0.063184
-0.0650878
-0.0181063
-0.014248
0.0668308
-0.068969
-0.0201193
-0.0163892
0.0708919
-0.073324
-0.0215422
-0.0178424
0.0755847
-0.0784593
-0.0221615
-0.0187584
0.0810977
-0.0843721
-0.0215729
-0.0188387
0.0872813
-0.089798
-0.0187159
-0.017523
0.0930722
-0.0935816
-0.0122971
-0.0137548
0.0927317
-0.0893358
-0.000837843
-0.00646616
0.0861249
-0.0838994
0.00722491
0.00381281
-0.033078
-0.0706261
0.0763941
-0.0893488
0.00397655
0.00462905
-0.0657551
0.0635165
-0.0154167
-0.0216882
0.0246142
-0.0703447
0.0677147
-0.0703536
-0.0190493
-0.0178189
-0.0604677
0.0578725
-0.00927485
-0.0133133
-0.0574588
0.0555118
-0.00351812
-0.0067619
-0.0531224
0.0517167
0.00217548
-0.00011515
-0.0510221
0.0515952
0.00916768
0.00513873
-0.0530127
0.0554078
0.016048
0.0106068
-0.0577109
0.0605676
0.0222306
0.0161356
-0.063002
0.0660381
0.0274151
0.020952
-0.0688583
0.0727492
0.029126
0.0243912
-0.0765239
0.0813386
0.0202144
0.0221581
-0.0850167
0.0880719
0.000899918
0.00936625
-0.0890724
0.0884273
-0.0155034
-0.00704056
-0.0867575
0.0840039
-0.0225977
-0.0168331
-0.0814703
0.0784976
-0.0239568
-0.0198724
-0.0761613
0.0735857
-0.023225
-0.0198749
-0.0715782
0.0693631
-0.0219625
-0.0189691
-0.0668223
0.0662232
-0.0200991
-0.0177274
-0.0643125
0.0617616
-0.0152025
-0.0172092
-0.0601347
0.0595994
-0.0132744
-0.0158289
-0.0107324
-0.0132284
0.0102501
0.0775928
0.0797476
-0.00974479
0.00979658
0.0736699
0.0779573
-0.00902629
0.00909475
0.0696073
0.0715038
-0.00905967
0.0089093
0.0639128
0.0644252
-0.00864313
0.00824392
0.0599573
0.0597128
-0.00861173
0.00659761
0.057833
0.0567885
-0.00708783
0.00685471
0.056384
0.0569873
0.0582177
-0.0451218
0.00850419
0.0561186
0.0172406
-0.0412051
0.0271518
-0.0428388
0.0300127
-0.0494245
0.0278567
-0.0549501
0.0266798
-0.0599135
0.0275622
-0.0652809
-0.0485746
-0.0336082
-0.0386835
-0.0488062
-0.0401113
-0.0463279
-0.0387032
-0.0450844
0.026813
-0.0688325
0.0229046
-0.0729078
-0.0203504
0.0274501
-0.0748902
-0.0352259
-0.045199
-0.0302224
-0.0531064
-0.0205024
-0.0797297
0.0108834
-0.0698657
-0.0152326
-0.046254
-0.0237887
-0.0673397
-0.0253128
-0.0476067
-0.0174335
0.0439289
0.00952723
-0.0360227
0.0806623
-0.0804497
0.00656298
0.021291
0.0808661
-0.0797835
0.0161439
0.00950488
0.078577
-0.0781145
0.0247168
0.0191468
0.0752031
-0.0728622
0.0241167
0.0209733
0.0708837
-0.0686503
0.0213413
0.0193649
0.0666732
-0.0643001
0.0179786
0.016763
0.0621786
-0.0597094
0.013602
0.0135987
0.0577588
-0.0559024
0.0073476
0.00909492
0.0549232
-0.0546445
0.000192307
0.00315741
0.0551754
-0.0564608
-0.00561054
-0.00254692
0.0578203
-0.0594208
-0.0098065
-0.00666875
0.0607042
-0.0622148
-0.0135125
-0.00999327
0.063609
-0.0653925
-0.0163227
-0.0128538
0.0669987
-0.0689598
-0.0181582
-0.0147829
0.0707264
-0.0729429
-0.0193257
-0.0160758
0.0749711
-0.0775076
-0.0196249
-0.0167303
0.0798084
-0.0826411
-0.0187402
-0.016538
0.0850911
-0.0878061
-0.0160009
-0.0150731
0.0898634
-0.0914832
-0.0106773
-0.0116975
0.0919647
-0.0900803
-0.00272224
-0.00598461
0.0875703
-0.0844746
0.00412927
0.00130277
0.0854939
-0.0883164
0.00679908
0.00564827
0.0115727
-0.0145612
-0.0767412
0.084432
-0.0809955
0.00813616
0.00699898
-0.0712547
0.0680456
-0.0158401
-0.0218297
0.0256717
-0.0767497
0.0736493
-0.0756084
-0.0198707
-0.0179558
-0.0660522
0.0642772
-0.0136417
-0.0158255
-0.0607998
0.0601819
-0.00865701
-0.00983595
-0.0582642
0.0573268
-0.00258071
-0.00484419
-0.0567494
0.0552936
0.00363134
0.000462235
-0.0549933
0.0548713
0.00928967
0.00543899
-0.0553975
0.056749
0.0146964
0.0100806
-0.0583883
0.0608208
0.0197981
0.0144964
-0.0632077
0.0665107
0.0241122
0.0185651
-0.0697645
0.0743335
0.024557
0.0211374
-0.0786217
0.0837013
0.0151347
0.0178699
-0.087155
0.0895367
-0.00148178
0.00591263
-0.0898595
0.0885631
-0.014207
-0.00736341
-0.0865727
0.0836866
-0.0197117
-0.0148427
-0.0811714
0.0782928
-0.0210782
-0.0173572
-0.0760476
0.0735901
-0.0207675
-0.0176296
-0.0716607
0.0695121
-0.019814
-0.0170397
-0.0678303
0.0659724
-0.0182412
-0.0160455
-0.0632019
0.0639526
-0.0159532
-0.0144387
-0.0609847
0.0593621
-0.0116518
-0.012861
-0.0594037
0.0588292
-0.00455352
-0.0107739
-0.058703
0.0519177
0.0152896
-0.00029502
-0.0219317
0.0193101
0.0846297
0.0891694
-0.0170168
0.0156089
0.0790008
0.0820409
-0.0177753
0.0159482
0.075497
0.0757908
-0.0172411
0.0172749
0.0695736
0.0702109
-0.0170746
0.0166717
0.0643157
0.0646254
-0.0161133
0.0153773
0.0606934
0.0602711
-0.0145351
0.0135508
0.0588173
0.0576307
-0.0139343
0.0119158
0.0584024
0.0566039
-0.0118559
0.0112882
0.0580708
0.0582776
-0.0109198
0.014054
0.0529844
0.0573865
0.0485382
-0.0431137
0.0277454
-0.0417987
0.0324668
-0.0452928
0.0303434
-0.0519112
0.0286032
-0.0568735
0.028576
-0.0609273
-0.0463623
-0.0408959
-0.0430546
-0.0458629
-0.0419946
-0.0430365
0.0281537
-0.0666216
0.0276695
-0.0690519
0.0263841
-0.0756027
-0.0387527
-0.0415577
-0.0325171
-0.0429043
-0.0247264
-0.0521687
0.0226539
-0.0784597
-0.0198027
0.0228124
-0.0769082
-0.017424
-0.0644769
-0.00991996
-0.079424
0.00834843
-0.0137895
-0.0728716
0.0119722
-0.0485778
0.0753595
-0.0387539
-0.0885217
-0.0126096
0.085137
-0.0986292
-0.008513
-0.00389943
0.0598005
-0.0271625
-0.0444042
-0.0449412
0.00589069
-0.0354898
-0.0457251
0.08258
-0.0811887
0.00517165
0.00524183
0.080718
-0.0800464
0.0154724
0.00903412
0.0786194
-0.0763673
0.0224647
0.0177198
0.0744628
-0.0721826
0.0218364
0.0190689
0.0702412
-0.0679731
0.0190733
0.0174235
0.0660207
-0.0637099
0.0156679
0.0148106
0.0617436
-0.0595686
0.0114269
0.0116324
0.0579862
-0.0566616
0.00602299
0.00751257
0.0561421
-0.0562802
0.000330381
0.00263788
0.0569335
-0.0580601
-0.00448385
-0.00189364
0.0591088
-0.0603277
-0.0085876
-0.00562011
0.0613869
-0.06275
-0.0121494
-0.00893403
0.0640459
-0.0656872
-0.0146814
-0.011558
0.0671552
-0.0689555
-0.016358
-0.0133149
0.070578
-0.0725923
-0.0173114
-0.0144533
0.0744065
-0.0766385
-0.0173929
-0.0149161
0.0786275
-0.0810207
-0.016347
-0.0145489
0.0830515
-0.0853025
-0.0137499
-0.0130422
0.0869758
-0.0884434
-0.00920975
-0.0100243
0.0891198
-0.0888719
-0.00297016
-0.00530819
0.0878583
-0.0867089
0.00297982
0.000289239
0.0863757
-0.0874953
0.00791868
0.00531508
0.0852621
-0.0831175
0.00599156
0.00476572
0.00880157
-0.0113997
-0.0768259
0.0812354
-0.0781963
0.00576256
0.00646634
-0.0744266
0.0716667
-0.0171108
-0.0208736
0.0214591
-0.0790452
0.0782086
-0.0809657
-0.0181165
-0.0160207
-0.0696656
0.0678108
-0.0139853
-0.0159547
-0.0642753
0.0621268
-0.0114932
-0.0122899
-0.0610051
0.0599589
-0.0076108
-0.00871429
-0.0593717
0.0590123
-0.0022213
-0.004257
-0.0588616
0.0587728
0.0037202
0.000612928
-0.0587348
0.0588582
0.00916634
0.00547691
-0.0592343
0.0601366
0.0137942
0.00970444
-0.0613416
0.0633635
0.0177762
0.0132913
-0.065581
0.0689151
0.0207781
0.0163476
-0.072346
0.0771294
0.0197736
0.0177065
-0.0813785
0.0859366
0.0105765
0.0136208
-0.0886254
0.0899525
-0.00280885
0.00322382
-0.0895753
0.087803
-0.0124347
-0.00698615
-0.0856924
0.0828859
-0.0169052
-0.0127321
-0.080525
0.0778501
-0.0184033
-0.0149963
-0.075762
0.0734678
-0.0184733
-0.0155415
-0.071659
0.0696374
-0.0177923
-0.0152309
-0.0680257
0.0662367
-0.0164523
-0.0144338
-0.0647847
0.0630876
-0.0142562
-0.0129867
-0.0616828
0.0606835
-0.0106526
-0.0114561
-0.0582532
0.0589645
-0.00526478
-0.00834363
-0.0589696
0.074994
-0.000734915
-0.000300121
-0.00596988
-0.0196215
0.0191269
0.0851243
0.0856297
-0.0222204
0.0217426
0.0794785
0.0789474
-0.0227436
0.0234833
0.0747574
0.0747898
-0.02388
0.0239368
0.0695167
0.0698142
-0.0236808
0.0231396
0.0648569
0.0648814
-0.0223899
0.0214186
0.0616646
0.0610209
-0.0203134
0.0190353
0.0600954
0.058736
-0.017705
0.0162208
0.0598867
0.0579341
-0.0152112
0.0143526
0.0589294
0.0592872
-0.0122794
0.0103578
0.0549059
0.0594597
0.0549966
-0.0425308
0.0347415
-0.0440734
0.0342271
-0.0491766
0.0309468
-0.0542548
0.0299974
-0.058295
-0.0454893
-0.0439276
-0.0437294
-0.0441282
0.029804
-0.0625776
0.0287117
-0.0676639
0.0281616
-0.0708294
-0.0408542
-0.040935
-0.0357415
-0.0383334
-0.0281655
-0.0394653
0.0242948
-0.077085
-0.0203147
-0.0492781
0.0242257
-0.0796747
-0.0145915
-0.0636749
0.0177661
-0.0808442
-0.0178876
0.0209855
-0.0822647
-0.0125635
-0.0717078
-0.00768033
-0.0758071
0.00529109
-0.00869482
-0.0758114
0.0016552
0.0697676
0.00393671
-0.0907098
0.0850315
-0.00693138
-0.0909153
-0.00830746
-0.00424976
0.0657055
-0.0358083
-0.0440858
0.0141458
-0.012106
0.0830972
0.0161145
0.0826842
-0.0545235
0.0216602
-0.0413026
-0.0453183
0.0851729
-0.0821524
0.00215109
-0.000500528
0.0810183
-0.0795248
0.0139789
0.00790001
0.0775095
-0.0751169
0.0200721
0.0157045
0.0732347
-0.0710059
0.0196077
0.0171867
0.0691469
-0.0669607
0.0168871
0.0155644
0.0651369
-0.0630635
0.0135944
0.0129868
0.0614185
-0.0597411
0.00974956
0.00998735
0.058654
-0.0578982
0.00526715
0.0064255
0.0577413
-0.0580563
0.000645426
0.00248098
0.0586107
-0.059423
-0.00367148
-0.00133929
0.0601675
-0.0611124
-0.0076427
-0.00487561
0.0620291
-0.0632692
-0.0109093
-0.00801737
0.0644477
-0.0659281
-0.013201
-0.0103795
0.0672554
-0.0688921
-0.0147213
-0.0119876
0.0703635