/*--------------------------------*- C++ -*----------------------------------*\
  =========                 |
  \\      /  F ield         | OpenFOAM: The Open Source CFD Toolbox
   \\    /   O peration     | Website:  https://openfoam.org
    \\  /    A nd           | Version:  10
     \\/     M anipulation  |
\*---------------------------------------------------------------------------*/
FoamFile
{
    format      ascii;
    class       volVectorField;
    location    "9";
    object      U;
}
// * * * * * * * * * * * * * * * * * * * * * * * * * * * * * * * * * * * * * //

dimensions      [0 1 -1 0 0 0 0];

internalField   nonuniform List<vector> 
14667
(
(1.03756 0.0665568 -1.08588e-19)
(0.887863 0.0444456 -4.50896e-20)
(0.661145 0.0268766 -3.90891e-21)
(0.783683 0.0237048 5.51162e-22)
(0.764425 0.0256213 1.16254e-21)
(0.990948 -0.0892659 -2.45433e-20)
(1.03287 -0.0819941 5.37991e-20)
(0.528443 0.0395932 -1.7611e-21)
(0.619832 0.0308402 0)
(0.760747 0.0281459 -3.81013e-22)
(1.03701 -0.0667383 -2.36274e-20)
(1.02547 -0.0393202 1.26799e-20)
(0.986112 -0.0231198 -3.22774e-20)
(0.886321 -0.0752037 9.54109e-20)
(0.579236 0.0242904 -2.89052e-21)
(1.01841 -0.030653 0)
(1.01872 -0.0290384 0)
(0.702958 0.0156479 -8.18879e-22)
(0.425376 0.0159673 0)
(1.04001 -0.0581961 0)
(1.0561 0.0848165 -7.71757e-20)
(0.885545 -0.00307537 5.67849e-20)
(0.997376 0.0158419 0)
(1.00136 0.0403524 3.66373e-21)
(-0.0285079 -0.0977794 4.82479e-20)
(0.289151 -0.0998727 1.62519e-19)
(-0.0557439 -0.0509247 5.11523e-20)
(-0.124191 -0.111272 -1.97037e-19)
(-0.104882 -0.12789 3.57002e-21)
(0.806106 0.0828592 1.59353e-20)
(0.858187 0.0543432 -1.52012e-21)
(0.871259 0.0271139 -4.4876e-20)
(-0.0415578 0.0329961 1.47244e-20)
(-0.095146 0.0221331 7.53209e-20)
(-0.168238 0.0119733 8.62842e-20)
(0.0150068 0.0208974 -1.29911e-19)
(0.0440126 0.0686777 -1.84573e-21)
(0.560987 -0.065658 1.70946e-21)
(0.553888 -0.036449 1.58286e-21)
(0.694713 -0.0250977 -1.45637e-22)
(0.686221 -0.0196328 0)
(0.569429 0.0070435 -1.86729e-20)
(0.544054 -0.207762 5.25388e-19)
(0.602427 -0.0866869 -1.71871e-19)
(0.424632 -0.0525339 -1.19977e-19)
(0.348123 -0.263461 8.02635e-20)
(0.567328 -0.422687 -7.50279e-21)
(0.9831 0.045622 -7.62124e-20)
(1.00485 0.0419885 2.58179e-20)
(0.618829 0.0163519 0)
(0.625361 0.0210402 0)
(0.731411 0.0233194 0)
(0.791624 0.00368226 0)
(0.84762 0.0027024 -7.88636e-20)
(1.36666 -0.318127 1.84879e-20)
(1.40268 -0.299415 1.1592e-20)
(1.31285 0.23522 3.83575e-20)
(1.37999 0.226404 2.55815e-20)
(0.11998 0.0159317 -3.17545e-20)
(0.2955 0.00748344 2.62308e-20)
(-0.0877423 -0.0724582 1.47704e-19)
(-0.0809747 -0.0786183 0)
(0.969477 -0.483316 -1.23159e-20)
(0.987569 -0.406277 -6.01109e-20)
(0.90839 -0.356487 -4.86927e-21)
(0.851629 -0.6154 -9.29607e-21)
(0.924364 -0.553681 5.24847e-20)
(0.474886 0.68199 5.54896e-20)
(0.779907 0.710868 -2.30333e-20)
(0.901466 0.0329489 3.97593e-20)
(0.920187 0.0170182 -3.68865e-20)
(0.924477 0.0413817 -4.01257e-20)
(0.14252 -0.0184982 0)
(0.141695 -0.250814 4.10194e-20)
(0.606914 0.0207491 2.77984e-20)
(0.801875 0.0260899 3.84837e-20)
(0.995957 0.0338716 -1.2772e-19)
(0.923843 0.0351251 8.05479e-20)
(0.909515 -0.00124013 2.11358e-19)
(0.89466 -0.0327163 3.99537e-22)
(0.779088 -0.0180123 -7.88976e-22)
(0.851429 -0.0153286 0)
(0.788382 -0.0192867 1.26328e-21)
(0.953087 0.020725 -2.52264e-22)
(0.950738 0.0217633 0)
(-0.101233 -0.180738 0)
(-0.229827 -0.17411 -8.90654e-20)
(0.310365 0.0230051 1.58748e-20)
(0.561875 0.018863 -9.03083e-20)
(0.960975 -0.191459 -3.13553e-20)
(1.1497 -0.211837 4.33184e-20)
(1.25545 -0.299845 1.21099e-21)
(1.23241 -0.292912 -2.00813e-21)
(1.04847 0.0190188 -1.40968e-21)
(1.04485 0.0173989 6.86818e-22)
(0.825049 -0.0112553 -4.50904e-21)
(0.797655 -0.0339081 -3.54607e-21)
(0.904908 0.0248568 -1.30688e-21)
(0.803935 -0.00306734 2.88624e-21)
(0.970729 0.0440481 -3.51065e-21)
(0.865431 0.0220485 1.50391e-21)
(1.41485 -0.357824 4.93452e-21)
(1.42652 -0.304527 3.36037e-20)
(0.931712 0.127542 7.04948e-21)
(0.911135 0.102107 -2.46532e-20)
(0.937248 0.0850706 3.22439e-21)
(0.957304 0.106976 3.08507e-21)
(0.960407 0.169696 2.12432e-20)
(0.950134 0.141434 4.79168e-22)
(0.480249 -0.0180433 7.35906e-22)
(0.295717 -0.0105598 -9.89724e-23)
(0.322782 -0.00665682 -1.26786e-21)
(0.509215 -0.0114013 0)
(0.621438 -0.0290254 1.9275e-21)
(0.632457 -0.0193343 -7.67494e-22)
(1.24692 -0.146138 -1.1063e-20)
(1.26838 -0.16375 2.83786e-20)
(1.25744 -0.148039 0)
(0.438518 -0.0392477 -1.76595e-21)
(0.3354 -0.036861 -6.72275e-22)
(0.498234 -0.0290971 -3.31125e-22)
(1.04754 0.0226364 6.33188e-22)
(1.04349 0.0204339 -3.26461e-21)
(1.04179 0.0240054 1.70666e-21)
(1.03962 0.0272929 -2.18334e-21)
(1.0442 0.0310289 0)
(1.04648 0.0266699 -3.90333e-22)
(1.03557 0.0298307 6.21502e-21)
(1.03283 0.0332783 -3.16134e-21)
(1.03889 0.0381467 0)
(1.04097 0.0342031 0)
(1.02868 0.0359396 0)
(1.0242 0.0385511 3.68314e-21)
(1.03198 0.0445131 0)
(1.03563 0.0413497 0)
(1.01879 0.0405764 -3.70111e-21)
(1.01269 0.042161 0)
(1.02208 0.0492601 0)
(1.02742 0.0471082 0)
(1.0057 0.0430578 4.31615e-21)
(0.997858 0.0432745 -4.28511e-21)
(1.00859 0.0515209 0)
(1.01582 0.0507406 0)
(0.989083 0.0426474 0)
(0.979378 0.0411524 -4.98366e-21)
(0.990958 0.0505399 -1.15682e-24)
(1.00033 0.0514759 0)
(0.968668 0.038658 5.01608e-21)
(0.95692 0.0351527 0)
(0.968603 0.0456616 0)
(0.980405 0.0486263 0)
(0.943981 0.030638 -5.52884e-24)
(0.929806 0.0251755 0)
(0.941185 0.0365509 0)
(0.955522 0.0416192 0)
(0.91323 0.0175662 -9.08526e-21)
(0.898514 0.00776526 7.99249e-21)
(0.909322 0.022526 8.14948e-22)
(0.925703 0.0303772 0)
(0.883464 -0.000933904 0)
(0.869352 -0.00827536 0)
(0.877405 0.00726583 1.51684e-21)
(0.893499 0.0146975 -8.7786e-22)
(0.853852 -0.0190621 -2.08788e-21)
(0.838023 -0.0284248 -2.24828e-21)
(0.839801 -0.0120403 2.2003e-21)
(0.857809 -0.00341981 -2.04078e-21)
(0.819652 -0.0223173 -4.3118e-21)
(0.820216 -0.0396497 4.49711e-21)
(1.04921 0.0156749 1.06829e-22)
(1.04609 0.0144879 -6.01436e-22)
(0.803399 -0.0514252 -1.25831e-23)
(1.05693 0.0159643 -4.73886e-22)
(1.05674 0.012938 9.23009e-22)
(1.04989 0.0126875 1.51964e-23)
(1.04537 0.0159889 0)
(1.04749 0.0130612 6.28689e-22)
(0.850721 -0.0506496 1.07039e-21)
(0.87589 -0.029287 5.15759e-21)
(0.863623 -0.0396291 -2.06372e-21)
(0.898715 -0.00934714 -4.00725e-21)
(0.886477 -0.0186328 4.13146e-21)
(0.918833 0.0115154 0)
(0.907432 0.00017099 0)
(0.941459 0.0252147 5.37989e-24)
(0.93021 0.0190771 0)
(0.963071 0.0337505 -2.40869e-24)
(0.952481 0.0300515 0)
(0.982643 0.0381441 0)
(0.973152 0.0364284 0)
(0.999659 0.0390675 -3.97179e-24)
(0.991503 0.0390067 0)
(1.01384 0.0371956 -2.80182e-26)
(1.00714 0.0384567 0)
(1.02513 0.0332222 0)
(1.01991 0.0354708 0)
(1.03373 0.0278834 -2.43221e-26)
(1.02992 0.0307535 0)
(1.04031 0.022234 0)
(1.03739 0.0250266 0)
(1.0432 0.0189475 1.70423e-21)
(1.04921 0.0102902 5.92296e-22)
(1.04733 0.0116094 -6.10965e-22)
(1.05698 0.0231888 2.81096e-22)
(1.05672 0.0194186 0)
(1.05658 0.031112 3.46256e-23)
(1.05739 0.0270827 3.32082e-22)
(1.05468 0.0393262 0)
(1.05578 0.0352106 1.19821e-23)
(1.05107 0.0471746 0)
(1.05324 0.0433455 0)
(1.04461 0.053737 0)
(1.04825 0.0506623 0)
(1.03474 0.0581793 0)
(1.04015 0.0562659 0)
(1.02075 0.0597846 0)
(1.02832 0.0593748 0)
(1.00174 0.0578956 0)
(1.01194 0.0593177 0)
(0.976847 0.0518304 0)
(0.990073 0.0554266 0)
(0.945598 0.040916 8.21378e-22)
(0.961957 0.0469973 0)
(0.909941 0.0264113 -4.33122e-22)
(0.928066 0.0340172 3.88098e-23)
(0.871412 0.00899076 2.01106e-21)
(0.8901 0.0173824 0)
(0.849435 -0.000576421 5.51826e-21)
(1.05042 0.00999953 3.63723e-22)
(1.05665 0.0102722 -7.76552e-23)
(0.839292 -0.0629233 -1.11794e-21)
(0.774595 -0.0456389 2.40356e-21)
(1.05693 0.00861458 0)
(1.05828 0.00630299 -1.37856e-22)
(1.05086 0.00770137 -1.37576e-22)
(0.799355 -0.0223656 0)
(0.902142 -0.0568281 1.05598e-21)
(0.916412 -0.035157 8.11166e-22)
(0.909691 -0.0456831 0)
(0.930343 -0.015593 3.75555e-21)
(0.922452 -0.0247549 -4.09508e-21)
(0.941381 0.00188396 0)
(0.93391 -0.00584938 -1.48524e-21)
(0.958011 0.0145021 -5.32565e-24)
(0.949556 0.00862364 0)
(0.975131 0.0234617 1.79135e-26)
(0.966581 0.0194418 0)
(0.991817 0.0288809 2.16103e-24)
(0.983583 0.0265978 0)
(1.00731 0.0311087 2.51756e-26)
(0.999766 0.030368 0)
(1.02095 0.0306611 -2.65507e-26)
(1.01441 0.0311925 0)
(1.03231 0.0281195 0)
(1.02697 0.0296335 0)
(1.04124 0.0240868 -2.57717e-26)
(1.03715 0.0262776 0)
(1.04783 0.0192021 0)
(1.04493 0.0217121 0)
(1.05293 0.0138083 -3.92975e-24)
(1.05085 0.0164553 -8.8621e-23)
(1.05505 0.0111273 -9.90732e-22)
(1.04846 0.00896614 1.12054e-24)
(1.06574 0.00980454 -1.30011e-22)
(1.06771 0.0154896 -4.69762e-22)
(1.06651 0.0124192 -2.92036e-22)
(1.0701 0.0225236 -1.55671e-22)
(1.0686 0.0188872 1.56976e-22)
(1.07251 0.0307077 -7.08761e-25)
(1.07169 0.0264804 -1.07809e-23)
(1.07388 0.0397392 0)
(1.07354 0.0351544 0)
(1.07334 0.0487189 0)
(1.07393 0.044284 0)
(1.07044 0.0566935 0)
(1.07223 0.0528824 0)
(1.06476 0.0628517 0)
(1.06799 0.0600368 0)
(1.0556 0.0666235 0)
(1.06068 0.0650636 0)
(1.04185 0.0675174 0)
(1.04938 0.0674633 0)
(1.02225 0.0648644 0)
(1.03287 0.0666899 0)
(0.99562 0.0578006 0)
(1.00985 0.0619163 0)
(0.962011 0.0461101 -4.19413e-22)
(0.979513 0.0524745 4.10703e-22)
(0.924448 0.0314259 -3.02207e-21)
(0.944007 0.0391587 0)
(0.879491 0.013604 2.26648e-21)
(0.901003 0.0221088 -3.26178e-21)
(0.773689 -0.032983 2.48276e-21)
(0.83029 -0.00454936 -1.93825e-21)
(0.8526 0.00336578 6.10482e-22)
(0.895007 -0.068557 6.81773e-23)
(0.784815 -0.0632257 2.40549e-21)
(0.751321 -0.0578496 3.50974e-23)
(1.05222 0.00542129 1.33138e-22)
(0.747866 -0.0420569 0)
(0.803754 -0.0131798 2.5973e-21)
(1.05949 0.00417859 2.6679e-22)
(1.07574 0.00827538 0)
(1.06859 0.00760969 2.81583e-22)
(1.06933 0.00555406 1.49866e-25)
(1.0742 0.00625662 0)
(1.06493 0.00760202 1.37575e-22)
(0.888736 -0.0811799 -4.47866e-21)
(0.827092 -0.0749706 0)
(0.950963 -0.083828 1.0268e-21)
(0.957967 -0.0592065 -1.27432e-21)
(0.954893 -0.0711364 -5.41824e-22)
(0.964924 -0.0376006 1.08381e-22)
(0.962609 -0.0480906 -9.92233e-22)
(0.971675 -0.0192585 3.01e-23)
(0.968595 -0.0280958 -2.69176e-23)
(0.9796 -0.00457864 0)
(0.975153 -0.0115687 -1.97732e-22)
(0.990165 0.00724143 5.11329e-26)
(0.984666 0.00173307 0)
(1.00218 0.0158476 2.39514e-24)
(0.996036 0.0119445 0)
(1.01495 0.0213621 -2.16103e-24)
(1.00853 0.0189743 0)
(1.02759 0.0241194 3.63064e-26)
(1.02135 0.0230598 0)
(1.03923 0.0245683 -3.32638e-26)
(1.0336 0.0246068 0)
(1.04914 0.0231606 0)
(1.04447 0.0240761 0)
(1.05686 0.0203163 -1.42739e-24)
(1.05336 0.0218973 0)
(1.06224 0.0164598 0)
(1.05999 0.0184744 0)
(1.06594 0.0120581 5.90735e-23)
(1.06448 0.014294 -2.37018e-22)
(1.06738 0.00978698 4.72492e-24)
(1.05121 0.00768209 2.66678e-22)
(1.04954 0.00667542 0)
(1.05676 0.00802486 -1.35853e-22)
(1.07958 0.0135882 3.02403e-22)
(1.07748 0.0107309 0)
(1.08425 0.0205637 0)
(1.08179 0.0168729 0)
(1.08856 0.0292084 7.08828e-25)
(1.08647 0.0247057 0)
(1.09183 0.0389562 0)
(1.09037 0.0339814 0)
(1.09359 0.0488809 0)
(1.09293 0.043957 0)
(1.09368 0.0579436 0)
(1.09386 0.0535725 0)
(1.09188 0.065408 0)
(1.09305 0.061902 0)
(1.08763 0.0709225 1.09631e-24)
(1.09013 0.0684221 0)
(1.07983 0.0741958 1.19266e-24)
(1.08426 0.0728654 0)
(1.06707 0.0746381 0)
(1.07416 0.074823 0)
(1.04795 0.0713962 0)
(1.05838 0.0735245 0)
(1.02155 0.0637397 0)
(1.03569 0.0681515 0)
(0.987831 0.0520183 -4.43721e-22)
(1.00591 0.05838 0)
(0.948826 0.0376065 0)
(0.967734 0.0446257 1.96704e-21)
(0.906219 0.0225839 -2.91651e-21)
(0.924993 0.0291572 5.58879e-22)
(0.858271 0.00852743 1.32471e-21)
(0.88249 0.0153247 0)
(0.767525 -0.0759617 2.53568e-21)
(0.882882 -0.0943532 2.82917e-21)
(0.947534 -0.097606 -1.66164e-21)
(1.06448 0.00583128 0)
(1.07298 0.00468105 1.22631e-22)
(0.727799 -0.0675047 -4.03774e-21)
(0.777042 -0.0207596 -1.32389e-21)
(0.720658 -0.0505495 0)
(0.747349 -0.0281032 0)
(1.06991 0.00363888 -3.89915e-22)
(0.832105 0.00255356 -1.33224e-21)
(0.816273 -0.0878232 1.20556e-21)
(0.942183 -0.112244 1.69003e-21)
(0.995427 -0.11487 1.57646e-21)
(1.00187 -0.0856493 -5.29949e-22)
(0.999332 -0.0997884 1.00778e-21)
(1.00686 -0.0605958 -7.12626e-22)
(1.00506 -0.0726199 1.43781e-21)
(1.01118 -0.0394579 6.93457e-24)
(1.0094 -0.0495048 0)
(1.01531 -0.0221558 -3.16901e-24)
(1.0132 -0.0303364 0)
(1.02049 -0.00811986 0)
(1.0177 -0.0147707 0)
(1.02723 0.00281189 8.07228e-26)
(1.02368 -0.00225119 0)
(1.03539 0.0107144 0)
(1.03116 0.0071235 0)
(1.04457 0.0158786 2.06574e-24)
(1.03989 0.013616 0)
(1.05413 0.0187225 1.91283e-24)
(1.04936 0.0175609 0)
(1.0632 0.0197107 -1.72397e-24)
(1.05879 0.0194244 0)
(1.07091 0.019206 0)
(1.06729 0.0196314 0)
(1.07662 0.017454 -1.37139e-24)
(1.07409 0.0184776 0)
(1.08009 0.0146906 0)
(1.07874 0.0161839 7.94484e-29)
(1.08159 0.0112339 1.85058e-23)
(1.08123 0.0130311 0)
(1.08192 0.00751514 -1.37446e-22)
(1.08193 0.00937497 1.49109e-22)
(1.08154 0.00399208 5.14859e-22)
(1.08183 0.00570256 1.39123e-22)
(1.07061 0.0019205 2.48385e-22)
(1.05358 0.00337464 -1.33368e-22)
(1.06076 0.00227018 -1.21921e-22)
(1.05188 0.00567473 0)
(1.05064 0.00462851 0)
(1.0569 0.00611716 -1.29989e-22)
(1.08084 0.00289658 -2.41941e-22)
(1.08497 0.00601133 -6.36681e-23)
(1.08278 0.00424802 -1.21566e-22)
(1.0902 0.010913 0)
(1.08739 0.008243 -6.96502e-23)
(1.0959 0.0179067 0)
(1.09306 0.0141488 0)
(1.10115 0.0269249 0)
(1.09861 0.0221981 0)
(1.10547 0.0372818 0)
(1.10345 0.0319975 0)
(1.1087 0.047875 0)
(1.10722 0.0426234 0)
(1.11097 0.0575993 0)
(1.10995 0.0528975 0)
(1.1123 0.0658506 0)
(1.11177 0.0619209 0)
(1.11228 0.0725465 -1.09631e-24)
(1.11251 0.0693894 0)
(1.10996 0.0776127 -1.19266e-24)
(1.11149 0.0753028 0)
(1.10408 0.0805317 0)
(1.10755 0.0793894 0)
(1.09331 0.0804993 0)
(1.09939 0.080932 0)
(1.07638 0.0767474 0)
(1.0857 0.0791333 0)
(1.05213 0.0688823 4.33047e-22)
(1.06523 0.0732954 0)
(1.02112 0.0579239 0)
(1.0374 0.0636998 0)
(0.98567 0.0454977 0)
(1.00313 0.0516784 -5.00545e-22)
(0.946609 0.0338385 2.41484e-21)
(0.966999 0.039674 1.1553e-21)
(0.927696 0.0294185 -2.60833e-21)
(1.08122 0.00244325 -6.15554e-22)
(0.748351 -0.087114 -6.69304e-22)
(0.875155 -0.107976 -3.01126e-21)
(0.702637 -0.0772278 1.34397e-21)
(0.992591 -0.131092 -1.076e-21)
(0.937863 -0.127767 0)
(0.690773 -0.0591906 -1.47809e-21)
(1.08713 0.000688517 4.92244e-22)
(1.08498 3.5138e-06 -1.15304e-22)
(1.07912 0.00197671 2.97718e-22)
(0.714824 -0.0351897 -2.86701e-21)
(0.779269 -0.00541856 1.50982e-21)
(1.09237 0.00532582 0)
(1.09099 0.0038637 0)
(0.886259 0.0228791 -2.7253e-21)
(0.803683 -0.100286 1.4872e-23)
(0.988135 -0.148073 -1.67123e-23)
(1.02871 -0.14946 1.66904e-23)
(1.03234 -0.116301 -3.99538e-23)
(1.03049 -0.132407 0)
(1.0368 -0.0870027 -6.07469e-22)
(1.03469 -0.101105 0)
(1.04121 -0.0619513 0)
(1.03925 -0.0739392 1.17557e-22)
(1.04517 -0.0411611 0)
(1.0432 -0.0510406 0)
(1.04933 -0.0242074 0)
(1.04721 -0.0322453 0)
(1.05402 -0.010576 -2.66188e-24)
(1.0516 -0.0169797 0)
(1.05938 -0.00020692 4.94867e-24)
(1.05661 -0.00499627 0)
(1.06557 0.00712315 0)
(1.06238 0.0038077 0)
(1.07246 0.011899 -6.77177e-26)
(1.06895 0.00979694 0)
(1.07966 0.0146973 -1.80892e-24)
(1.07606 0.0135072 0)
(1.0865 0.0160787 1.63631e-24)
(1.08319 0.0155389 0)
(1.09213 0.0163786 0)
(1.08953 0.0163565 0)
(1.09585 0.0156886 1.37139e-24)
(1.09428 0.0161619 0)
(1.09736 0.0140209 0)
(1.09692 0.0149807 -7.94484e-29)
(1.09677 0.0114891 0)
(1.09736 0.0128585 0)
(1.09481 0.00843682 1.30977e-22)
(1.09594 0.010008 0)
(1.09364 0.00685814 -2.54051e-22)
(1.07058 0.00039498 0)
(1.08923 0.00242962 -1.15413e-22)
(1.08034 0.00098004 2.40573e-22)
(1.05475 0.00163703 -1.20202e-22)
(1.06146 0.000648453 1.1945e-22)
(1.05266 0.00398098 0)
(1.05177 0.00287254 0)
(1.06385 0.0044526 0)
(1.05704 0.00456056 0)
(1.07171 0.00353272 -3.63177e-22)
(1.09204 0.00334197 0)
(1.08946 0.00179247 0)
(1.09785 0.00795099 0)
(1.09486 0.00535688 0)
(1.10373 0.0150273 -6.14263e-25)
(1.10081 0.0111829 0)
(1.10913 0.0243925 0)
(1.10651 0.0194646 0)
(1.11378 0.0352048 0)
(1.11155 0.0296952 0)
(1.11778 0.0461695 0)
(1.11584 0.0407518 0)
(1.12145 0.0561402 0)
(1.11964 0.0513259 0)
(1.125 0.0646785 0)
(1.12325 0.0605841 0)
(1.12812 0.0719735 0)
(1.12665 0.068462 0)
(1.1301 0.0781535 0)
(1.12932 0.0752155 0)
(1.12994 0.082773 0)
(1.13036 0.0807054 0)
(1.12655 0.0850547 1.31026e-24)
(1.12872 0.0842513 1.55195e-28)
(1.11871 0.0843368 0)
(1.12327 0.085102 0)
(1.10516 0.0802507 -6.86291e-26)
(1.11273 0.0827223 0)
(1.08504 0.0728993 0)
(1.09593 0.0769271 0)
(1.05974 0.0635495 -1.23858e-22)
(1.07297 0.0683827 4.70235e-22)
(1.03094 0.0541619 -2.24505e-21)
(1.04606 0.05885 -9.31013e-22)
(1.00051 0.0468295 3.17183e-21)
(1.01725 0.0504918 1.74341e-21)
(0.986357 0.0447592 4.07781e-21)
(0.728634 -0.0983273 1.34048e-21)
(0.867203 -0.122096 1.82045e-21)
(1.07753 0.00139957 1.68308e-22)
(1.08304 -0.000362158 1.16473e-22)
(0.676585 -0.0871924 0)
(0.93085 -0.143737 1.20682e-21)
(0.658629 -0.0672359 -5.64502e-23)
(1.02723 -0.167387 -6.77003e-23)
(0.984232 -0.16569 6.75767e-23)
(0.685781 -0.0380079 -2.96027e-21)
(0.751827 -0.0066274 -1.55149e-21)
(1.09615 0.00456146 -3.49043e-22)
(0.839678 0.0218134 -3.10693e-21)
(0.950876 0.0438472 -9.13738e-23)
(1.0876 0.0011559 -1.08837e-22)
(1.09391 0.00327493 0)
(0.790662 -0.112899 0)
(1.02563 -0.185927 2.5331e-21)
(1.05634 -0.184241 -4.87225e-22)
(1.05449 -0.148658 -9.24293e-22)
(1.05509 -0.166049 9.33849e-22)
(1.05499 -0.116565 -2.59851e-22)
(1.0545 -0.132113 0)
(1.05759 -0.0882825 -1.08575e-22)
(1.05616 -0.101928 0)
(1.06139 -0.0639044 0)
(1.05944 -0.0756027 1.09231e-22)
(1.06576 -0.0434353 0)
(1.0635 -0.0532053 0)
(1.0707 -0.0265646 2.74538e-24)
(1.06818 -0.0345672 0)
(1.07596 -0.0130989 2.66188e-24)
(1.07331 -0.0194081 0)
(1.08141 -0.00293958 -4.73854e-24)
(1.07866 -0.00762362 0)
(1.0871 0.0041668 -2.1117e-24)
(1.08422 0.000973841 0)
(1.09299 0.0087582 -1.99802e-24)
(1.09003 0.00673113 0)
(1.09889 0.0115897 6.36159e-26)
(1.09597 0.0103456 0)
(1.10429 0.0133631 -5.277e-26)
(1.1017 0.0125761 0)
(1.10848 0.0144497 0)
(1.10659 0.0139878 0)
(1.11078 0.0148222 0)
(1.10991 0.0147406 0)
(1.11082 0.0142673 0)
(1.1111 0.0146768 0)
(1.10874 0.0126795 0)
(1.11005 0.0136042 0)
(1.10515 0.0102519 -1.31745e-22)
(1.1071 0.0115407 0)
(1.1009 0.00745932 -2.46476e-22)
(1.10304 0.00885107 3.79498e-22)
(1.0985 0.00595199 0)
(1.07063 -0.000928019 0)
(1.07951 -0.00030251 -1.09377e-22)
(1.05586 0.000188865 5.5414e-23)
(1.06219 -0.0007364 -5.59495e-23)
(1.05356 0.00258517 0)
(1.05294 0.00142345 0)
(1.06362 0.00339978 0)
(1.05742 0.00331582 0)
(1.07077 0.00270871 -1.98084e-22)
(1.08682 -0.00234902 -1.08899e-22)
(1.09124 -0.00171901 1.22919e-22)
(1.08892 -0.00219796 1.18757e-22)
(1.09635 0.000532271 0)
(1.09371 -0.000818325 0)
(1.10198 0.00502635 0)
(1.09917 0.00244682 0)
(1.10752 0.0122376 6.14263e-25)
(1.1048 0.00829139 0)
(1.11262 0.0219056 0)
(1.11014 0.0168134 0)
(1.11718 0.0330086 0)
(1.11496 0.0273673 0)
(1.12149 0.0440889 0)
(1.11934 0.0386409 0)
(1.12596 0.0539915 0)
(1.12368 0.0492272 0)
(1.13085 0.0624468 0)
(1.12836 0.058381 0)
(1.13601 0.0698765 9.97294e-25)
(1.13342 0.0662577 0)
(1.1409 0.0765731 1.07962e-24)
(1.13853 0.0733231 0)
(1.1448 0.0821636 0)
(1.14302 0.0795512 0)
(1.14689 0.0859014 -1.31026e-24)
(1.14613 0.0843073 -1.55195e-28)
(1.14617 0.087205 0)
(1.14695 0.0868787 0)
(1.14148 0.0858157 -7.14528e-26)
(1.14439 0.0868546 0)
(1.1319 0.0816906 0)
(1.13734 0.0840841 0)
(1.11728 0.0753343 0)
(1.12521 0.078708 0)
(1.09874 0.0682457 -5.25018e-22)
(1.10869 0.0718199 0)
(1.07701 0.062197 0)
(1.0884 0.0649866 -6.28392e-23)
(1.05498 0.0593811 -6.25291e-22)
(1.06488 0.059885 1.26311e-21)
(0.933831 0.0462449 4.43612e-21)
(1.03262 0.0619043 1.30906e-21)
(1.04258 0.0597245 -2.51955e-21)
(0.70865 -0.10961 -6.69626e-22)
(0.857323 -0.136226 -6.23596e-22)
(0.648798 -0.0965085 0)
(0.924058 -0.160211 -5.83833e-22)
(0.626946 -0.0724369 7.0342e-22)
(0.97904 -0.183783 1.13603e-21)
(0.652334 -0.0403716 7.2074e-22)
(1.05773 -0.20316 0)
(1.02346 -0.205081 -2.04797e-21)
(0.721857 -0.00653563 0)
(0.814653 0.024064 3.06891e-21)
(1.02305 0.0664308 2.1994e-21)
(0.920378 0.0513049 -2.29524e-21)
(1.10072 0.00721357 4.41663e-22)
(1.01253 0.0726297 -7.00722e-21)
(1.0888 -0.00435437 0)
(1.086 3.21938e-05 2.11658e-22)
(1.09174 0.00211451 1.01668e-22)
(1.08687 -0.00410602 4.17744e-22)
(1.08494 -0.00228659 -3.1423e-22)
(1.06925 0.0778419 -2.67919e-20)
(1.09806 0.00587181 -1.0445e-22)
(0.776269 -0.125318 0)
(1.05991 -0.222739 -1.28459e-21)
(1.08362 -0.216855 3.19519e-22)
(1.07457 -0.180137 -7.96927e-22)
(1.0785 -0.198222 8.04599e-22)
(1.06928 -0.146607 -8.33043e-22)
(1.07149 -0.163 3.23194e-22)
(1.06726 -0.116264 -2.22289e-22)
(1.0679 -0.13102 4.21062e-22)
(1.06824 -0.0892697 0)
(1.06745 -0.102338 0)
(1.07126 -0.0658582 0)
(1.06954 -0.0771169 0)
(1.07571 -0.0459117 0)
(1.07333 -0.0554657 0)
(1.08111 -0.0292891 -2.74538e-24)
(1.07832 -0.0371882 0)
(1.08693 -0.0159366 0)
(1.08399 -0.0222072 0)
(1.09285 -0.00579659 1.2071e-25)
(1.0899 -0.0104725 0)
(1.09867 0.00132629 1.00662e-25)
(1.09577 -0.00187666 0)
(1.10437 0.00594398 0)
(1.10155 0.00389526 0)
(1.10977 0.00894223 6.92444e-26)
(1.10712 0.00758781 0)
(1.1145 0.0111635 -5.77397e-26)
(1.11225 0.0101097 0)
(1.11796 0.0130487 0)
(1.11643 0.0121441 0)
(1.11953 0.0144904 0)
(1.11901 0.0138499 0)
(1.11886 0.0150691 0)
(1.11948 0.0149155 0)
(1.11605 0.0144538 -1.05465e-24)
(1.11769 0.014917 0)
(1.1116 0.012664 6.18706e-23)
(1.11394 0.0136712 0)
(1.10631 0.0100974 2.37142e-22)
(1.10893 0.0114171 -6.24003e-23)
(1.10334 0.00857467 -1.16444e-22)
(1.07041 -0.00205219 -5.24002e-23)
(1.07859 -0.00141771 1.60371e-22)
(1.05693 -0.000981432 0)
(1.06272 -0.00186963 0)
(1.05456 0.00147878 0)
(1.05415 0.000255097 0)
(1.06342 0.00261693 0)
(1.05791 0.00234408 0)
(1.07632 0.00105507 -1.07005e-22)
(1.06997 0.00215332 7.96522e-23)
(1.08145 -0.0005075 -1.05597e-22)
(1.09314 -0.00407493 -2.38267e-22)
(1.09092 -0.00436975 -1.14819e-22)
(1.09796 -0.00211536 0)
(1.09549 -0.00334989 0)
(1.103 0.00234972 0)
(1.10048 -0.000231492 0)
(1.10792 0.0097065 0)
(1.10549 0.00566992 0)
(1.1125 0.0195951 0)
(1.11025 0.0143924 0)
(1.11681 0.0308306 0)
(1.11467 0.0251437 0)
(1.12117 0.0418362 0)
(1.11896 0.0364541 0)
(1.12601 0.0514732 0)
(1.12351 0.0468585 0)
(1.13158 0.0596182 0)
(1.1287 0.0557013 0)
(1.13782 0.0668734 -3.80083e-26)
(1.13463 0.0633152 0)
(1.14441 0.0736588 -4.29856e-26)
(1.1411 0.0703261 0)
(1.15083 0.0796743 0)
(1.14768 0.0768039 0)
(1.15647 0.0842281 0)
(1.15379 0.0821735 0)
(1.16055 0.0868089 0)
(1.15876 0.0857813 0)
(1.16213 0.0872327 -2.84356e-24)
(1.16171 0.0872931 0)
(1.16029 0.0854652 0)
(1.16169 0.0866227 0)
(1.15428 0.0816645 -2.16383e-22)
(1.15784 0.0837713 0)
(1.14399 0.076774 1.76172e-24)
(1.14975 0.0792921 2.19003e-22)
(1.12956 0.0721654 1.02419e-21)
(1.13721 0.0743178 -1.01219e-21)
(1.11318 0.0698105 -1.14631e-21)
(1.12083 0.0703953 -1.03205e-21)
(1.0961 0.0721781 -2.39122e-21)
(1.10404 0.0703142 2.41089e-21)
(1.08548 0.0747151 6.60178e-21)
(0.688402 -0.120511 1.75653e-22)
(0.848135 -0.150854 -6.39362e-22)
(1.08322 -0.00202556 -1.49655e-22)
(1.0851 -0.0037063 9.74374e-23)
(1.1262 0.0899023 -4.27441e-21)
(0.619802 -0.104658 1.46421e-21)
(0.914903 -0.176763 0)
(0.592073 -0.0765036 1.50439e-21)
(0.972825 -0.202132 -1.13657e-21)
(0.617658 -0.0410389 -4.09733e-24)
(1.02161 -0.224494 0)
(0.68921 -0.00446421 -1.5986e-21)
(1.08968 -0.236156 -7.23577e-22)
(1.06204 -0.242639 1.69074e-21)
(0.795718 0.029604 0)
(0.906268 0.0580782 -2.41525e-21)
(1.01655 0.0813768 1.80839e-21)
(1.09553 0.00462708 1.04716e-22)
(0.763425 -0.138167 0)
(1.09693 -0.255414 0)
(1.11502 -0.244503 1.15917e-22)
(1.0968 -0.208859 -9.13404e-22)
(1.10518 -0.226689 4.82545e-22)
(1.08441 -0.174891 -3.56204e-22)
(1.08992 -0.191567 3.56886e-22)
(1.07673 -0.143767 0)
(1.08008 -0.158921 1.00971e-22)
(1.0729 -0.1154 1.59501e-25)
(1.07435 -0.129224 0)
(1.07249 -0.0899586 0)
(1.07231 -0.102295 0)
(1.07465 -0.0676341 0)
(1.0733 -0.0784077 0)
(1.07868 -0.0483868 0)
(1.07647 -0.0576294 0)
(1.08396 -0.0321766 2.39664e-24)
(1.08121 -0.0399035 0)
(1.08989 -0.0189849 -2.23283e-24)
(1.08688 -0.0252031 0)
(1.09601 -0.00882931 4.26053e-24)
(1.09295 -0.0135276 0)
(1.10201 -0.00160246 1.04945e-25)
(1.09903 -0.00487152 0)
(1.10774 0.00318202 1.75085e-24)
(1.10491 0.00104609 0)
(1.11302 0.00644862 1.67606e-24)
(1.11045 0.00493829 0)
(1.11752 0.00916797 -6.16095e-26)
(1.11539 0.00782971 0)
(1.12073 0.0118522 0)
(1.11932 0.0105097 0)
(1.12212 0.0143427 0)
(1.12168 0.0131549 0)
(1.12135 0.0160422 0)
(1.12201 0.0153332 0)
(1.11849 0.0163996 1.05465e-24)
(1.12016 0.0164104 0)
(1.11397 0.0152659 0)
(1.11639 0.0160135 0)
(1.10847 0.0129389 -8.89093e-25)
(1.11129 0.0142424 0)
(1.10274 0.0100869 1.05577e-22)
(1.1056 0.0115794 0)
(1.09724 0.00730168 -9.80531e-23)
(1.09994 0.0086792 -2.06906e-22)
(1.09306 0.00345437 -1.95045e-22)
(1.08434 -0.000962414 -2.96863e-24)
(1.0896 0.00105011 -1.99362e-22)
(1.07023 -0.0029633 0)
(1.07764 -0.00235397 -4.85419e-23)
(1.05799 -0.00189595 0)
(1.06325 -0.00277395 0)
(1.05566 0.000628905 0)
(1.0554 -0.000648626 0)
(1.06342 0.00204882 0)
(1.05855 0.00160742 0)
(1.07509 0.000940501 0)
(1.0693 0.0018079 0)
(1.07987 -0.000420431 1.94565e-22)
(1.0857 -0.0053496 -3.891e-22)
(1.08923 -0.00626952 1.08358e-22)
(1.08741 -0.00586317 0)
(1.09314 -0.00624625 0)
(1.09114 -0.0064083 1.08161e-22)
(1.09734 -0.00442934 0)
(1.09521 -0.00562358 0)
(1.10164 3.4267e-05 0)
(1.09949 -0.00256406 0)
(1.10584 0.00749642 -5.64528e-25)
(1.10376 0.00339853 0)
(1.10988 0.0174991 0)
(1.10787 0.0122465 0)
(1.11388 0.0287307 0)
(1.11187 0.0230673 0)
(1.11817 0.0395395 0)
(1.11597 0.0342807 0)
(1.12308 0.0488121 0)
(1.12053 0.0443953 0)
(1.12885 0.05653 0)
(1.12585 0.0528263 0)
(1.13549 0.0634224 -9.59285e-25)
(1.13206 0.0600302 0)
(1.14284 0.0700137 -1.03663e-24)
(1.13909 0.066752 0)
(1.15054 0.0760755 0)
(1.14667 0.0731484 0)
(1.15811 0.0809748 0)
(1.15437 0.078706 0)
(1.16498 0.0842668 0)
(1.16167 0.0828339 0)
(1.17045 0.0858218 2.69514e-24)
(1.16794 0.0852612 0)
(1.17375 0.0856476 0)
(1.17242 0.0859462 0)
(1.17416 0.083915 0)
(1.17435 0.0849492 0)
(1.17106 0.0812405 -1.24374e-25)
(1.17308 0.0826217 0)
(1.16437 0.0787783 0)
(1.16813 0.0798862 0)
(1.15552 0.0784065 -2.76281e-23)
(1.16024 0.0782249 4.9539e-22)
(1.14571 0.0823735 -1.00297e-21)
(1.15064 0.0797457 1.01451e-21)
(1.13814 0.0858359 1.02591e-21)
(1.09467 0.00599994 2.9379e-22)
(0.666094 -0.130561 -1.7554e-22)
(0.835141 -0.165309 0)
(1.12634 -0.262288 -5.08096e-23)
(1.10483 -0.274363 3.7558e-24)
(0.588422 -0.110613 -1.45927e-21)
(0.904907 -0.19344 0)
(0.555466 -0.078744 -1.14345e-21)
(0.965256 -0.220434 0)
(0.581085 -0.0393122 1.563e-21)
(1.01815 -0.243945 0)
(0.660908 0.00129082 1.57841e-21)
(1.06485 -0.262345 0)
(0.774445 0.0370438 3.85257e-21)
(0.902673 0.0677438 -1.57108e-21)
(1.10518 0.0924551 -8.42077e-22)
(1.04026 0.0876432 1.9211e-20)
(1.10242 0.105486 -2.28016e-21)
(1.0972 0.00991062 -9.5701e-23)
(1.08531 -0.00684755 7.74295e-22)
(1.08384 -0.00613247 1.77036e-22)
(1.09471 0.00845439 2.83161e-22)
(1.08411 -0.00472226 0)
(0.746767 -0.150175 0)
(1.13902 -0.279352 1.55108e-22)
(1.15101 -0.263528 4.80609e-22)
(1.12384 -0.231911 -5.69913e-22)
(1.13663 -0.248111 -5.01695e-22)
(1.10344 -0.199791 -2.35884e-22)
(1.11285 -0.215921 5.39096e-22)
(1.08928 -0.169014 -3.12912e-22)
(1.09566 -0.184171 5.99714e-22)
(1.0801 -0.140402 0)
(1.08416 -0.154415 0)
(1.07498 -0.114051 1.50473e-25)
(1.07705 -0.126935 0)
(1.07339 -0.0901772 0)
(1.07379 -0.101785 0)
(1.07457 -0.0690112 0)
(1.07368 -0.0792502 0)
(1.07782 -0.0506014 0)
(1.07597 -0.0594624 0)
(1.0825 -0.0349277 -2.39664e-24)
(1.08001 -0.0424245 0)
(1.08804 -0.0219931 2.23283e-24)
(1.08519 -0.0281142 0)
(1.09395 -0.0118825 -4.01066e-24)
(1.09097 -0.0165803 0)
(1.09987 -0.00456702 1.05726e-25)
(1.09692 -0.00789158 0)
(1.10555 0.000414317 -8.94497e-26)
(1.10275 -0.00183318 0)
(1.11076 0.00399456 -1.52717e-24)
(1.10823 0.00230864 0)
(1.11517 0.00722741 -6.4278e-26)
(1.11309 0.00560207 0)
(1.11834 0.0106797 0)
(1.11694 0.00892091 0)
(1.11981 0.0141543 0)
(1.11931 0.0124543 0)
(1.11932 0.0169102 0)
(1.11981 0.0156762 0)
(1.11689 0.0182061 0)
(1.11833 0.0177753 0)
(1.11288 0.0177439 0)
(1.11504 0.0181995 0)
(1.10788 0.0157571 8.46262e-25)
(1.11046 0.016936 0)
(1.10249 0.0128897 -1.57202e-22)
(1.10518 0.0144327 5.25022e-23)
(1.0998 0.011402 4.63579e-24)
(1.11346 -0.292265 -8.97303e-23)
(1.15286 -0.295986 0)
(1.16731 -0.279018 3.02386e-24)
(1.09069 0.00238188 9.19118e-23)
(1.09232 0.00708788 -7.93577e-24)
(1.0922 0.00478481 8.95026e-23)
(1.08276 -0.00178856 0)
(1.08752 0.000111606 0)
(1.07002 -0.00365665 0)
(1.07669 -0.0030975 4.80035e-23)
(1.05906 -0.00257052 0)
(1.06378 -0.00344616 0)
(1.05682 3.62169e-07 0)
(1.05667 -0.00131577 0)
(1.06362 0.00164638 0)
(1.05933 0.00106677 0)
(1.07407 0.000932171 0)
(1.06885 0.00159287 0)
(1.08162 -0.00165176 4.90684e-23)
(1.07846 -0.000217459 1.24254e-23)
(1.08346 -0.00320461 -9.79264e-23)
(1.08841 -0.00797679 -8.14301e-23)
(1.08685 -0.00745921 -5.19324e-23)
(1.09172 -0.00811322 0)
(1.09005 -0.00820375 2.66306e-23)
(1.09518 -0.00636623 0)
(1.09344 -0.00753219 0)
(1.0987 -0.0018989 0)
(1.09694 -0.00450707 0)
(1.10221 0.005605 5.64528e-25)
(1.10046 0.00148504 0)
(1.10573 0.0156132 -5.91678e-25)
(1.10396 0.0103679 0)
(1.10944 0.0267347 0)
(1.10755 0.0211443 0)
(1.11357 0.0372829 0)
(1.11143 0.0321731 0)
(1.11836 0.0461653 0)
(1.11587 0.0419568 0)
(1.12401 0.0534221 -8.16025e-25)
(1.12107 0.0499532 0)
(1.13059 0.059863 0)
(1.12718 0.0566897 0)
(1.13804 0.0661036 0)
(1.13422 0.062999 0)
(1.14612 0.0719939 0)
(1.14203 0.0691265 0)
(1.15442 0.0769509 1.0874e-24)
(1.15027 0.0746222 0)
(1.16248 0.080571 0)
(1.15851 0.0789378 0)
(1.16978 0.0827596 -7.58961e-26)
(1.16626 0.0818428 0)
(1.17569 0.0835413 -1.30922e-24)
(1.17295 0.0833203 0)
(1.17957 0.0830851 0)
(1.17792 0.0834454 0)
(1.18084 0.0819088 -1.24365e-25)
(1.18056 0.0825326 0)
(1.17925 0.0809523 0)
(1.18039 0.0813324 0)
(1.17547 0.0815672 -4.5078e-22)
(1.17756 0.0809417 0)
(1.16962 0.0852632 1.09664e-22)
(1.17305 0.0829914 4.60966e-22)
(1.15675 0.0928756 2.7453e-21)
(1.16406 0.0884012 1.61365e-21)
(1.14711 0.109705 -8.53676e-21)
(1.14956 0.0996125 -2.28716e-21)
(1.14984 0.12294 1.45964e-20)