/*--------------------------------*- C++ -*----------------------------------*\
  =========                 |
  \\      /  F ield         | OpenFOAM: The Open Source CFD Toolbox
   \\    /   O peration     | Website:  https://openfoam.org
    \\  /    A nd           | Version:  10
     \\/     M anipulation  |
\*---------------------------------------------------------------------------*/
FoamFile
{
    format      ascii;
    class       volScalarField;
    location    "63";
    object      p;
}
// * * * * * * * * * * * * * * * * * * * * * * * * * * * * * * * * * * * * * //

dimensions      [0 2 -2 0 0 0 0];

internalField   nonuniform List<scalar> 
28942
(
-0.00378544
-0.00315905
0.00201334
0.00947848
0.00977847
9.45787e-05
0.000298657
2.7535e-05
0.00269904
0.00278698
-0.00232916
-0.00259814
-0.00298124
-0.00289868
0.000198933
0.000513057
0.00986668
0.0101366
0.00556588
0.00712654
0.00813883
0.0081305
-0.00523717
-0.00506222
-0.00359097
-0.00381461
0.0138647
0.0138137
0.00351912
0.0034619
2.07105e-05
5.61775e-05
0.000789968
0.000324299
0.00713077
0.00833652
0.0108737
0.0128322
-4.12915e-06
0.0150271
0.00908064
0.0115786
0.00173849
0.00165279
0.00171314
0.000300152
0.000162378
0.00023962
0.000276685
0.000386262
0.000735491
0.00277342
0.00284438
0.00283153
0.00298673
-0.00236076
-0.0010583
-0.00338833
-0.00323395
-0.00350494
-0.00357808
-0.00357888
-0.00347691
-0.000124312
-0.00182496
-0.000370388
0.000960809
0.00940964
0.00891319
-0.00337665
-0.00358661
-0.00332168
0.00897488
0.00882662
0.00911869
-0.00148862
-0.00110099
-0.000762018
0.00234727
0.00274664
0.00183778
0.000742842
-0.00632631
-0.00755465
0.00106993
0.00379558
0.0048372
0.00562486
0.00400919
0.00413245
0.00609941
0.0054783
-0.0014098
-0.00170046
-0.0019785
-0.00181726
-0.00164332
0.00532123
0.00661224
-0.00786592
0.0112758
0.0104767
0.00577065
0.00936762
0.000887869
0.000794944
0.000705276
0.0054593
0.005652
0.00564609
-0.00323183
-0.00315249
-0.00314202
-0.00262523
-0.00274801
0.015819
0.0138137
0.0132555
0.0148867
0.00163017
0.00471018
0.0034083
0.00505829
0.00473516
0.0154912
0.0157867
0.0144461
0.00589991
0.006979
0.000199226
0.000301877
0.000115455
0.0104853
0.0109884
0.00765796
0.00731009
0.0127671
0.00668467
0.00797535
0.00903858
-0.00191742
-0.00242621
0.00734438
0.00165646
0.00174436
-0.00118444
-0.00144737
-0.000989035
-0.00252552
0.0065808
0.00570803
0.00370104
0.000274744
0.000218044
8.80732e-05
0.000220197
0.00751738
0.00678146
-0.00187424
-0.00199139
-0.00188668
-0.00415114
-0.00369583
6.88399e-05
-0.00286432
-0.000511324
0.008381
0.00848995
0.009584
0.00911935
0.00769713
0.00306909
0.00298655
0.00323933
0.00311518
0.00502919
0.00480701
0.00514204
0.00536254
0.00530044
0.0053713
0.00558242
0.00613638
0.00583045
0.00542834
0.00575846
0.00646416
0.0072179
0.00750992
-0.000588925
-0.000569747
-0.00248347
0.000223851
6.66004e-05
-0.00200353
-0.00209209
0.000302126
0.000364956
0.000327641
0.000258758
0.00184172
0.00179629
0.00177463
-0.0029298
-0.00311692
-0.00278156
-0.0043494
-0.00483152
-0.00414307
-0.00473039
-0.00649596
-0.00519428
0.0160129
0.016723
0.0164905
0.000922632
0.00106756
0.000955835
0.0103378
0.00990987
0.00999018
0.00149344
0.00147602
0.00151074
0.00145813
0.00144069
0.00142271
0.00142355
0.00140464
0.00140537
0.00144129
0.00145865
0.00147603
0.00149358
0.00151126
0.0013869
0.00138672
0.00152737
0.00152763
0.00154361
0.00136873
0.00136835
0.001544
0.00135004
0.00133135
0.00135014
0.00133174
0.00156129
0.00156148
0.00131273
0.00131314
0.00157726
0.00157768
0.00129402
0.00129451
0.00159324
0.00159363
0.00127532
0.00127577
0.001609
0.00160944
0.00125655
0.00125704
0.00162456
0.00162497
0.00123778
0.00123825
0.00163995
0.00164038
0.00121896
0.00121948
0.00165532
0.00165567
0.00120021
0.00120048
0.0016699
0.00167027
0.00118141
0.00118134
0.00168537
0.00168548
0.00116244
0.00116199
0.00169941
0.00169934
0.00114269
0.00114279
0.00171388
0.00171364
0.00112304
0.00112359
0.00169854
0.00171301
0.00172825
0.00172781
0.00166805
0.00168394
0.00163778
0.00165342
0.00160751
0.00162286
0.00157572
0.0015918
0.00154256
0.0015593
0.00150932
0.00152719
0.00147547
0.00149269
0.0014398
0.00145705
0.0014033
0.00142167
0.00136699
0.0013853
0.00133017
0.00134866
0.00129299
0.00131165
0.00125561
0.00127435
0.00121811
0.00123689
0.00118063
0.00119939
0.0011423
0.00116181
0.00112297
0.00110364
0.00110394
0.00116202
0.00112339
0.00114266
0.00120027
0.00118102
0.00123792
0.0012192
0.0012754
0.0012567
0.00131273
0.00129412
0.00134979
0.00133133
0.00138624
0.00136819
0.00142273
0.00140467
0.00145855
0.00144083
0.00149268
0.00147558
0.0015273
0.00151086
0.00156047
0.00154362
0.00159274
0.0015768
0.00162389
0.0016085
0.00165414
0.00163906
0.00168377
0.00166874
0.00171175
0.00169806
0.00172593
0.00172795
0.00110341
0.00110401
0.00174124
0.001739
0.00174251
0.00174212
0.00169623
0.00172603
0.00171098
0.00166577
0.00168138
0.001636
0.00165069
0.00160552
0.00162095
0.00157381
0.00158981
0.00154113
0.00155758
0.00150725
0.00152448
0.00147298
0.00149089
0.00143851
0.00145523
0.00140194
0.00142025
0.00136558
0.00138384
0.00132886
0.00134728
0.00129178
0.00131036
0.00125448
0.00127316
0.00121709
0.0012358
0.00117974
0.00119841
0.00114172
0.00116078
0.00108404
0.00108421
0.00110289
0.00112234
0.00112304
0.00110395
0.00108464
0.00108439
0.00116185
0.00114234
0.00119962
0.00118051
0.00123704
0.00121834
0.00127444
0.00125577
0.00131168
0.0012931
0.00134867
0.00133022
0.00138523
0.00136705
0.00142132
0.00140332
0.001457
0.00143914
0.00149146
0.00147432
0.00152542
0.00150899
0.00155865
0.00154223
0.00159081
0.00157488
0.00162191
0.00160651
0.00165194
0.00163709
0.0016809
0.00166659
0.0017088
0.00169495
0.00173517
0.00172248
0.00174064
0.00175234
0.00174859
0.00175397
0.00108383
0.00108443
0.00175531
0.00175355
0.00176529
0.00176202
0.00175538
0.0011027
0.00108335
0.00106525
0.00106514
0.00175084
0.00176841
0.00178882
0.00177158
0.00172244
0.00173704
0.00169265
0.00170738
0.00166273
0.00167816
0.00163305
0.00164759
0.00160268
0.00161807
0.0015711
0.00158703
0.00153852
0.00155494
0.001505
0.00152184
0.00147071
0.00148798
0.00143571
0.00145327
0.00140002
0.001418
0.00136375
0.00138194
0.00132711
0.00134548
0.00129015
0.00130867
0.00125298
0.00127159
0.00121571
0.00123436
0.00117846
0.00119708
0.00114078
0.00115958
0.00112165
0.00106507
0.00106465
0.00106487
0.00106524
0.00112271
0.00108429
0.00110366
0.00116109
0.00114191
0.00119841
0.00117962
0.00123573
0.00121708
0.00127301
0.00125439
0.00131011
0.00129159
0.00134694
0.00132857
0.00138338
0.00136523
0.00141934
0.00140142
0.00145461
0.00143709
0.00148928
0.00147206
0.00152301
0.00150628
0.00155598
0.00153965
0.00158796
0.00157211
0.0016189
0.00160357
0.00164876
0.00163399
0.00167739
0.00166327
0.0017048
0.00169119
0.00173106
0.00171805
0.00175704
0.00174351
0.00177372
0.00176921
0.00176841
0.00176671
0.00106419
0.00106514
0.00177949
0.00177731
0.00177591
0.00178103
0.00178486
0.00171164
0.00178865
0.00176869
0.00177145
0.00176771
0.00174856
0.00176458
0.0017169
0.0017326
0.00168797
0.00170203
0.00165875
0.00167394
0.00162935
0.00164408
0.00159897
0.00161431
0.00156752
0.00158338
0.0015351
0.00155144
0.0015018
0.00151856
0.00146768
0.00148482
0.00143279
0.00145034
0.00139733
0.00141517
0.00136127
0.00137936
0.0013248
0.00134309
0.00128801
0.00130645
0.00125101
0.00126954
0.00121389
0.00123246
0.00117678
0.00119534
0.00113948
0.00115807
0.00110188
0.00112065
0.00106372
0.00108261
0.00104576
0.00104462
0.00104526
0.00104623
0.00104599
0.00104641
0.00104635
0.00104629
0.00104635
0.00108379
0.00104587
0.00106517
0.00112177
0.00110289
0.00115968
0.00114093
0.00119681
0.00117826
0.001234
0.00121541
0.00127111
0.00125257
0.00130804
0.00128961
0.00134469
0.00132641
0.00138093
0.00136287
0.00141668
0.00139888
0.00145177
0.00143434
0.0014862
0.00146909
0.00151977
0.0015031
0.0015525
0.00153626
0.00158426
0.00156852
0.00161499
0.00159977
0.00164461
0.00162996
0.00167303
0.001659
0.00170006
0.00168672
0.00172579
0.00171313
0.00175089
0.00173823
0.00177514
0.00176224
0.00179204
0.00178619
0.00178006
0.00177952
0.00179236
0.00178684
0.00106308
0.00104434
0.00102737
0.00102707
0.0017857
0.00179607
0.00181972
0.00174039
0.00180077
0.00179604
0.00177998
0.00178031
0.00175819
0.00175466
0.00174195
0.00175452
0.00171049
0.00172611
0.00168283
0.00169669
0.00165414
0.00166871
0.0016247
0.0016395
0.00159442
0.00160969
0.00156315
0.00157891
0.00153094
0.00154717
0.00149785
0.00151451
0.00146395
0.001481
0.00142932
0.00144673
0.00139405
0.00141178
0.00135823
0.00137621
0.00132198
0.00134016
0.0012854
0.00130373
0.0012486
0.00126703
0.00121168
0.00123015
0.00117473
0.0011932
0.00113787
0.0011563
0.00110045
0.00111914
0.00108165
0.00102703
0.0010259
0.00102669
0.0010278
0.00102755
0.0010278
0.00102793
0.00102748
0.00108302
0.00104494
0.00106471
0.00112065
0.00110184
0.00115785
0.00113946
0.00119484
0.00117636
0.00123184
0.00121335
0.00126876
0.00125032
0.00130548
0.00128716
0.0013419
0.00132374
0.00137792
0.00135998
0.00141342
0.00139575
0.00144829
0.00143096
0.00148245
0.00146548
0.00151579
0.00149924
0.00154825
0.00153215
0.00157976
0.00156415
0.00161024
0.00159515
0.00163961
0.00162508
0.00166778
0.00165387
0.00169462
0.00168139
0.00172002
0.00170753
0.00174435
0.00173249
0.0017671
0.00175453
0.00178963
0.0017798
0.00180483
0.00179797
0.00179231
0.00178953
0.001025
0.00102631
0.00179458
0.00175288
0.00177866
0.00179807
0.00180433
0.0018197
0.00180706
0.00181326
0.00180977
0.00181345
0.00180872
0.00179078
0.00175335
0.00180997
0.0017853
0.00174747
0.00174715
0.00173225
0.00174512
0.00170418
0.00171807
0.00167676
0.00169058
0.00164838
0.00166271
0.00161916
0.00163388
0.00158908
0.00160425
0.00155804
0.00157369
0.00152607
0.00154218
0.00149324
0.00150977
0.0014596
0.00147652
0.00142523
0.00144251
0.00139023
0.00140782
0.00135467
0.00137252
0.00131868
0.00133673
0.00128235
0.00130055
0.00124578
0.00126409
0.00120908
0.00122745
0.00117234
0.00119071
0.00113567
0.001154
0.0010989
0.00111741
0.0010614
0.0010802
0.00102395
0.00104279
0.00100738
0.00100509
0.00100639
0.00100894
0.00100814
0.00100975
0.00100945
0.00100971
0.00100982
0.00100892
0.00100932
0.00100784
0.00100841
0.00104429
0.00100713
0.00102558
0.00108167
0.00106309
0.00111907
0.00110046
0.00115571
0.00113738
0.0011925
0.00117411
0.00122929
0.00121091
0.00126597
0.00124766
0.00130245
0.00128425
0.00133862
0.00132059
0.00137437
0.00135657
0.0014096
0.00139207
0.00144419
0.00142699
0.00147806
0.00146123
0.00151112
0.00149471
0.0015433
0.00152734
0.00157452
0.00155905
0.00160471
0.00158977
0.0016338
0.00161942
0.00166171
0.00164793
0.00168832
0.0016752
0.00171356
0.00170114
0.00173736
0.00172575
0.00175986
0.0017485
0.00178062
0.00177106
0.00180036
0.00178876
0.00181873
0.00181142
0.00179841
0.00180321
0.00179651
0.00102251
0.00100424
0.000989331
0.000988462
0.00179909
0.00180717
0.00180268
0.00181303
0.00181769
0.00182429
0.00182697
0.00182044
0.00179925
0.00179673
0.00180942
0.00180066
0.00180018
0.00175562
0.00177761
0.00173897
0.00174365
0.00172285
0.00173475
0.00169664
0.00170974
0.00166974
0.00168335
0.00164177
0.0016559
0.00161285
0.00162743
0.00158303
0.00159807
0.00155225
0.00156777
0.00152056
0.00153653
0.00148801
0.0015044
0.00145467
0.00147145
0.0014206
0.00143773
0.00138589
0.00140333
0.00135063
0.00136833
0.00131492
0.00133283
0.00127887
0.00129694
0.00124256
0.00126075
0.00120612
0.00122436
0.00116962
0.00118787
0.00113315
0.00115138
0.00109687
0.001115
0.00105972
0.00107838
0.001041
0.000989204
0.000986709
0.000988279
0.00099101
0.000990194
0.000991805
0.000991511
0.000991737
0.000991875
0.000990714
0.000991338
0.000990028
0.00104318
0.001006
0.00102455
0.00108011
0.00106169
0.00111678
0.0010986
0.00115324
0.00113499
0.00118981
0.00117153
0.00122635
0.0012081
0.00126278
0.00124459
0.00129898
0.00128092
0.00133487
0.00131698
0.00137032
0.00135267
0.00140524
0.00138787
0.00143952
0.00142248
0.00147308
0.00145641
0.00150583
0.00148958
0.00153769
0.00152189
0.0015686
0.00155329
0.00159849
0.0015837
0.00162728
0.00161305
0.0016549
0.00164126
0.00168126
0.00166826
0.00170629
0.00169397
0.00172989
0.00171832
0.00175207
0.00174115
0.00177214
0.00176254
0.00179215
0.00178108
0.00181092
0.0018007
0.00182882
0.00181732
0.00182842
0.00182032
0.00180367
0.000985742
0.000987479
0.00180311
0.00180805
0.00181602
0.00180888
0.0018163
0.00182429
0.00182296
0.00182868
0.00183214
0.00183469
0.00183662
0.0018293
0.00180711
0.00178859
0.00181963
0.00181644
0.00179462
0.00178365
0.00179173
0.00175268
0.00176642
0.00173148
0.0017401
0.00171333
0.00172446
0.00168833
0.001701
0.00166199
0.00167534
0.00163444
0.00164837
0.00160586
0.00162028
0.00157633
0.00159123
0.00154585
0.00156122
0.00151446
0.00153028
0.00148223
0.00149846
0.0014492
0.00146582
0.00141546
0.00143242
0.00138107
0.00139835
0.00134613
0.00136367
0.00131074
0.00132849
0.00127499
0.00129291
0.00123897
0.00125701
0.0012028
0.00122091
0.00116657
0.00118469
0.00113035
0.00114846
0.00109426
0.00111228
0.00105801
0.0010763
0.00102111
0.00103944
0.000984476
0.00100304
0.00096886
0.000966137
0.000967653
0.00097144
0.000970112
0.000973155
0.000972436
0.00097395
0.000973656
0.000973866
0.000974019
0.000972906
0.000973488
0.000971379
0.000971999
0.000969257
0.000970403
0.00100471
0.000968166
0.000986467
0.00104178
0.00102293
0.0010781
0.00106015
0.00111421
0.00109614
0.00115047
0.00113233
0.00118678
0.00116863
0.00122305
0.00120493
0.00125919
0.00124115
0.0012951
0.00127719
0.00133067
0.00131295
0.0013658
0.00134831
0.00140039
0.00138318
0.00143434
0.00141747
0.00146756
0.00145106
0.00149997
0.00148389
0.0015315
0.00151587
0.00156208
0.00154693
0.00159164
0.00157701
0.00162012
0.00160604
0.00164744
0.00163395
0.00167353
0.00166067
0.00169832
0.00168612
0.00172171
0.00171023
0.00174368
0.00173289
0.00176375
0.00175403
0.00178277
0.00177335
0.00180048
0.00179094
0.00181895
0.0018107
0.00183109
0.00182846
0.00183289
0.00182182
0.00181373
0.00181751
0.00182061
0.00182916
0.00182379
0.00182246
0.00182577
0.000983088
0.000964833
0.000951094
0.000950118
0.00183368
0.00183222
0.00183708
0.00183936
0.0018416
0.00184068
0.00182313
0.00181921
0.0018211
0.00183881
0.00183425
0.00183551
0.0018168
0.00181013
0.00180758
0.0017792
0.00178968
0.00177075
0.0017794
0.00174493
0.00175659
0.00172427
0.00173418
0.00170375
0.00171471
0.00167952
0.0016919
0.00165365
0.00166678
0.0016265
0.00164024
0.00159827
0.00161253
0.00156905
0.0015838
0.0015389
0.0015541
0.00150784
0.00152349
0.00147594
0.001492
0.00144325
0.0014597
0.00140985
0.00142665
0.00137581
0.00139292
0.00134121
0.00135859
0.00130616
0.00132375
0.00127073
0.00128849
0.00123503
0.00125292
0.00119916
0.00121712
0.00116321
0.0011812
0.00112726
0.00114524
0.0010914
0.00110932
0.00105575
0.00107356
0.00101928
0.00103761
0.00100123
0.000951286
0.00094826
0.000949981
0.000953806
0.00095254
0.00095541
0.000954719
0.00095619
0.000955905
0.00095611
0.000956258
0.000955214
0.000955753
0.000953497
0.000954414
0.000952426
0.00100323
0.000966938
0.000985113
0.0010399
0.00102149
0.00107552
0.00105769
0.00111139
0.00109344
0.00114739
0.00112939
0.00118343
0.00116542
0.00121941
0.00120144
0.00125524
0.00123736
0.00129083
0.00127309
0.00132607
0.00130851
0.00136086
0.00134354
0.00139509
0.00137806
0.00142869
0.00141199
0.00146155
0.00144523
0.00149361
0.0014777
0.00152478
0.00150933
0.00155502
0.00154004
0.00158424
0.00156978
0.0016124
0.00159848
0.00163942
0.00162608
0.00166524
0.00165251
0.00168977
0.00167769
0.00171296
0.00170157
0.00173472
0.00172404
0.00175485
0.00174504
0.00177355
0.00176442
0.00179102
0.00178235
0.00180629
0.00179949
0.00182426
0.00181099
0.00183074
0.00183569
0.00184714
0.00184061
0.00183318
0.00182149
0.00183621
0.00183373
0.001825
0.00182711
0.000946986
0.000948899
0.00184228
0.0018336
0.00183494
0.00184008
0.00184087
0.00184481
0.00184731
0.001846
0.00184349
0.00182623
0.00181614
0.00181781
0.00182166
0.00182962
0.00183971
0.00182934
0.00184026
0.00184786
0.00184566
0.00184545
0.00182693
0.00181282
0.00180844
0.00179488
0.00179805
0.00177239
0.00178376
0.0017583
0.00176649
0.00173648
0.0017475
0.00171558
0.00172591
0.00169418
0.00170523
0.00167032
0.0016825
0.00164483
0.00165777
0.00161805
0.00163161
0.00159017
0.00160426
0.00156129
0.00157587
0.00153146
0.00154651
0.00150075
0.00151623
0.0014692
0.00148509
0.00143687
0.00145314
0.00140383
0.00142045
0.00137015
0.00138708
0.00133592
0.00135311
0.00130121
0.00131863
0.00126613
0.00128372
0.00123077
0.00124849
0.00119522
0.00121302
0.00115957
0.0011774
0.00112391
0.00114174
0.00108831
0.0011061
0.00105288
0.00107057
0.00101731
0.00103526
0.000981622
0.000999316
0.000945698
0.000963441
0.000930635
0.000927992
0.000929252
0.00093385
0.000932212
0.000936227
0.000935159
0.000937777
0.000937098
0.000938529
0.000938255
0.000938456
0.000938596
0.00093758
0.000938112
0.00093576
0.000936814
0.000933443
0.000934616
0.000931057
0.000932248
0.00096533
0.000929317
0.000947699
0.00100167
0.000983304
0.00103728
0.00101968
0.00107269
0.00105495
0.00110832
0.00109049
0.00114404
0.00112618
0.00117978
0.00116192
0.00121545
0.00119764
0.00125095
0.00123324
0.0012862
0.00126863
0.00132109
0.00130371
0.00135552
0.00133838
0.00138939
0.00137254
0.00142261
0.0014061
0.0014551
0.00143897
0.00148679
0.00147107
0.00151761
0.00150233
0.00154749
0.00153269
0.00157638
0.00156208
0.00160421
0.00159045
0.00163093
0.00161774
0.00165646
0.00164387
0.00168075
0.00166879
0.00170372
0.00169244
0.0017253
0.00171472
0.00174536
0.00173556
0.00176398
0.00175488
0.00178117
0.00177279
0.00179591
0.00178903
0.00180966
0.0018029
0.00180988
0.0018464
0.00185062
0.00184104
0.00183296
0.00183561
0.00183643
0.001838
0.00184177
0.00184362
0.000943939
0.000926551
0.000913363
0.000911633
0.00184936
0.0018489
0.00185229
0.00185343
0.00185288
0.00185258
0.00182526
0.00181588
0.00182963
0.00183349
0.00184294
0.00183997
0.001851
0.00185243
0.00184489
0.00183386
0.00184391
0.00183665
0.00180929
0.00179695
0.00179751
0.00180447
0.00178061
0.00178882
0.00176409
0.00177284
0.00174747
0.00175616
0.00172706
0.00173754
0.00170612
0.00171661
0.00168439
0.00169551
0.00166077
0.00167281
0.00163561
0.00164838
0.00160918
0.00162256
0.00158164
0.00159556
0.0015531
0.0015675
0.00152362
0.00153848
0.00149325
0.00150856
0.00146206
0.00147777
0.0014301
0.00144619
0.00139743
0.00141386
0.00136413
0.00138087
0.00133027
0.00134727
0.00129593
0.00131316
0.00126121
0.00127862
0.00122619
0.00124374
0.00119098
0.00120861
0.00115565
0.00117333
0.00112029
0.00113798
0.00108499
0.00110264
0.0010498
0.00106738
0.00101485
0.00103231
0.000979443
0.000997025
0.000961551
0.000913204
0.000910322
0.000911944
0.00091653
0.000914966
0.000918751
0.000917734
0.000920249
0.000919595
0.000920969
0.000920707
0.000920907
0.000921037
0.000920065
0.000920581
0.000918499
0.000919367
0.000915944
0.000917319
0.000914457
0.000963523
0.000927862
0.00094613
0.00099956
0.000981452
0.00103446
0.001017
0.00106964
0.00105203
0.00110499
0.00108731
0.00114041
0.0011227
0.00117584
0.00115814
0.00121118
0.00119354
0.00124635
0.00122881
0.00128124
0.00126385
0.00131577
0.00129857
0.00134982
0.00133287
0.00138331
0.00136666
0.00141615
0.00139984
0.00144827
0.00143233
0.00147958
0.00146405
0.00151004
0.00149494
0.00153956
0.00152494
0.00156811
0.00155398
0.00159562
0.00158202
0.00162203
0.00160899
0.00164729
0.00163484
0.00167134
0.0016595
0.00169409
0.00168291
0.0017155
0.001705
0.00173544
0.00172569
0.00175394
0.00174491
0.0017709
0.00176265
0.00178575
0.00177868
0.00179835
0.00179255
0.00180808
0.00180286
0.0018226
0.00181677
0.00183609
0.00182782
0.00181821
0.00185276
0.00184841
0.00184425
0.00184515
0.000908699
0.000910249
0.00185325
0.00185003
0.00185172
0.0018575
0.00185635
0.00185897
0.00185966
0.00185889
0.00185604
0.00183148
0.00181857
0.00181625
0.00181676
0.0018144
0.00183011
0.00182887
0.00184569
0.00184145
0.00185337
0.00184876
0.00185529
0.00185142
0.00184469
0.00183687
0.0018454
0.00181089
0.00181897
0.00179581
0.00178994
0.00178347
0.00179349
0.00177009
0.00177705
0.00175404
0.00176237
0.00173678
0.00174569
0.00171701
0.00172714
0.0016962
0.0017067
0.00167435
0.00168548
0.00165092
0.00166285
0.00162606
0.00163867
0.00159995
0.00161317
0.00157275
0.0015865
0.00154454
0.00155878
0.00151541
0.0015301
0.0014854
0.00150053
0.00145458
0.0014701
0.00142299
0.00143889
0.00139071
0.00140695
0.00135778
0.00137433
0.0013243
0.00134112
0.00129035
0.00130739
0.001256
0.00127322
0.00122134
0.00123871
0.00118647
0.00120394
0.00115148
0.00116899
0.00111644
0.00113397
0.00108144
0.00109894
0.00104654
0.00106398
0.00101182
0.00102916
0.000977351
0.000994551
0.000941811
0.00095947
0.000906897
0.000924485
0.00089289
0.000889032
0.000891234
0.000896289
0.000894483
0.000899255
0.000897946
0.000901388
0.0009004
0.000902823
0.000902199
0.000903514
0.000903262
0.000903461
0.000903581
0.000902665
0.000903155
0.000901171
0.000902
0.000898987
0.000900155
0.000895881
0.000897429
0.00089288
0.000894341
0.000926293
0.000891568
0.000909057
0.000961412
0.000944039
0.000996806
0.000979215
0.00103146
0.00101409
0.00106637
0.0010489
0.00110142
0.00108389
0.00113654
0.00111899
0.00117164
0.00115411
0.00120664
0.00118917
0.00124146
0.00122409
0.00127598
0.00125877
0.00131013
0.00129313
0.0013438
0.00132705
0.00137691
0.00136045
0.00140937
0.00139324
0.0014411
0.00142535
0.00147204
0.00145669
0.00150212
0.00148721
0.0015313
0.00151685
0.0015595
0.00154555
0.00158669
0.00157325
0.00161281
0.00159992
0.0016378
0.00162548
0.00166161
0.00164989
0.00168416
0.00167307
0.00170539
0.00169497
0.00172521
0.00171551
0.00174357
0.00173461
0.00176036
0.0017522
0.00177522
0.00176809
0.00178794
0.00178194
0.00179869
0.00179333
0.00180828
0.00180468
0.00180661
0.00186066
0.00186
0.00183219
0.0018249
0.00185243
0.00185332
0.0018577
0.00185779
0.00185925
0.000904969
0.000887578
0.000875673
0.000874396
0.00186506
0.00186316
0.00186512
0.0018653
0.0018637
0.00186039
0.00181394
0.00180458
0.00180264
0.00181475
0.00182827
0.00184232
0.00185401
0.00185
0.00185894
0.00185897
0.00185293
0.0018435
0.00183729
0.00181435
0.00182117
0.00185363
0.00180877
0.00180143
0.0017955
0.00180714
0.00178273
0.00178704
0.00177287
0.00177922
0.00175931
0.00176633
0.00174337
0.00175161
0.00172597
0.00173491
0.00170657
0.0017165
0.00168591
0.00169639
0.00166409
0.00167519
0.00164083
0.00165265
0.00161624
0.00162871
0.00159044
0.0016035
0.00156356
0.00157714
0.00153569
0.00154976
0.0015069
0.00152142
0.00147725
0.0014922
0.0014468
0.00146214
0.00141559
0.0014313
0.00138368
0.00139973
0.00135115
0.0013675
0.00131806
0.00133468
0.00128448
0.00130134
0.00125051
0.00126755
0.00121623
0.00123341
0.00118172
0.001199
0.00114707
0.00116441
0.00111236
0.00112972
0.00107768
0.00109502
0.00104308
0.00106037
0.00100863
0.00102583
0.000974462
0.000991514
0.000939553
0.000957093
0.000922018
0.000875916
0.000871899
0.000874269
0.000879441
0.000877677
0.000882081
0.000880839
0.000884133
0.000883188
0.000885501
0.000884905
0.000886164
0.000885921
0.000886118
0.00088623
0.000885365
0.000885829
0.000883919
0.000884726
0.000881838
0.000882953
0.000878839
0.000880445
0.000877144
0.00092461
0.000889853
0.000907603
0.000959293
0.000941852
0.000993832
0.000976717
0.00102826
0.00101102
0.00106289
0.00104557
0.00109763
0.00108026
0.00113243
0.00111504
0.00116719
0.00114983
0.00120185
0.00118455
0.00123629
0.00121911
0.00127045
0.00125343
0.00130421
0.0012874
0.0013375
0.00132094
0.00137022
0.00135395
0.00140229
0.00138635
0.00143364
0.00141807
0.0014642
0.00144904
0.00149392
0.00147919
0.00152275
0.00150847
0.00155062
0.00153683
0.0015775
0.00156422
0.00160333
0.00159058
0.00162806
0.00161587
0.00165164
0.00164003
0.00167399
0.001663
0.00169505
0.00168472
0.00171474
0.0017051
0.00173298
0.00172408
0.00174964
0.00174155
0.00176448
0.00175734
0.00177729
0.0017712
0.00178828
0.00178292
0.00179672
0.00179322
0.00180242
0.00179933
0.00181176
0.00180275
0.00181613
0.00180687
0.00180285
0.00186695
0.00186587
0.00186009
0.00186091
0.000870469
0.000872584
0.00186001
0.00186506
0.00186615
0.00187158
0.0018694
0.00187074
0.00187018
0.00186791
0.00186398
0.0018042
0.00179321
0.0017862
0.00179762
0.00179027
0.00180194
0.00180104
0.00181737
0.00182604
0.00184224
0.00185081
0.00186095
0.00186181
0.00186097
0.0018531
0.00184292
0.00183324
0.00182098
0.00181125
0.00186127
0.00180262
0.00180121
0.00179556
0.00178356
0.0017816
0.00179462
0.00177252
0.00177657
0.00176192
0.00176784
0.0017482
0.00175532
0.00173244
0.00174057
0.00171503
0.00172397
0.00169588
0.00170568
0.00167537
0.00168579
0.00165362
0.00166468
0.00163055
0.00164227
0.0016062
0.00161855
0.00158069
0.0015936
0.00155412
0.00156755
0.00152658
0.00154049
0.00149814
0.00151249
0.00146885
0.00148361
0.00143876
0.00145391
0.00140792
0.00142344
0.0013764
0.00139226
0.00134426
0.00136042
0.00131156
0.00132798
0.00127837
0.00129503
0.00124478
0.00126163
0.00121088
0.00122787
0.00117673
0.00119384
0.00114244
0.00115961
0.00110807
0.00112527
0.00107371
0.00109089
0.00103942
0.00105656
0.00100527
0.00102233
0.000971319
0.000988263
0.000937325
0.000954454
0.000903113
0.000919953
0.000868736
0.000885969
0.000855301
0.000851509
0.00085372
0.000859225
0.000857168
0.000862467
0.000860974
0.000865017
0.000863805
0.000866978
0.000866079
0.000868282
0.000867713
0.000868918
0.000868685
0.000868879
0.000868983
0.000868167
0.000868606
0.000866789
0.00086756
0.00086477
0.000865855
0.000862201
0.000863551
0.000858834
0.0008605
0.000855735
0.000857251
0.000888097
0.000854195
0.000871098
0.000922449
0.000905164
0.000956794
0.000939541
0.000990719
0.000973745
0.00102488
0.00100778
0.00105921
0.00104204
0.00109363
0.00107642
0.0011281
0.00111087
0.00116251
0.00114533
0.00119681
0.00117969
0.00123089
0.00121389
0.00126466
0.00124783
0.00129804
0.00128142
0.00133094
0.00131457
0.00136327
0.00134719
0.00139495
0.00137921
0.00142592
0.00141055
0.00145612
0.00144114
0.00148548
0.00147093
0.00151397
0.00149986
0.00154152
0.00152788
0.0015681
0.00155496
0.00159365
0.00158103
0.00161813
0.00160606
0.00164148
0.00162998
0.00166365
0.00165275
0.00168455
0.00167429
0.00170411
0.00169453
0.00172225
0.0017134
0.00173882
0.00173077
0.00175363
0.00174649
0.0017665
0.00176036
0.00177747
0.00177222
0.00178602
0.00178223
0.00179163
0.0017892
0.00179549
0.00179379
0.0017919
0.00187228
0.00187081
0.00180386
0.00179682
0.0018672
0.00186788
0.00186543
0.00187155
0.00187244
0.000866892
0.000849874
0.000838894
0.000837225
0.00187722
0.00187502
0.00187564
0.00187441
0.00187143
0.00186693
0.00178938
0.00178216
0.00176883
0.00177589
0.00180562
0.00181251
0.00183036
0.00183273
0.00185046
0.0018592
0.00186597
0.00186175
0.00185263
0.00184244
0.00182786
0.00182004
0.00180775
0.00178732
0.00179455
0.00186831
0.00178637
0.00176871
0.00179041
0.00179371
0.00178065
0.0017761
0.00177107
0.00177961
0.00176189
0.00176625
0.00175072
0.00175675
0.00173701
0.00174413
0.00172135
0.00172943
0.00170399
0.0017129
0.001685
0.00169471
0.00166463
0.001675
0.00164301
0.001654
0.00162011
0.00163173
0.001596
0.00160822
0.00157076
0.00158353
0.0015445
0.00155777
0.00151728
0.00153102
0.00148917
0.00150334
0.00146022
0.00147481
0.00143049
0.00144547
0.00140003
0.00141536
0.0013689
0.00138456
0.00133714
0.0013531
0.00130483
0.00132106
0.00127203
0.0012885
0.00123883
0.00125549
0.00120531
0.00122211
0.00117153
0.00118845
0.0011376
0.00115459
0.00110358
0.0011206
0.00106956
0.00108657
0.00103559
0.00105257
0.00100174
0.00101865
0.000968062
0.000984878
0.000934648
0.000951338
0.000900772
0.000917601
0.000883861
0.000838847
0.000834723
0.000837118
0.000842578
0.000840687
0.000845586
0.000844161
0.000848054
0.00084689
0.000849922
0.000849065
0.000851167
0.000850624
0.000851777
0.000851552
0.000851744
0.000851841
0.000851071
0.000851487
0.000849767
0.000850497
0.000847844
0.000848881
0.000845381
0.000846676
0.000842113
0.000843842
0.000840395
0.000886348
0.000852873
0.000869524
0.000920338
0.000903212
0.000953784
0.000937036
0.00098745
0.000970591
0.00102132
0.00100437
0.00105534
0.00103832
0.00108944
0.00107239
0.00112356
0.00110651
0.00115762
0.00114061
0.00119155
0.00117462
0.00122526
0.00120845
0.00125865
0.00124201
0.00129164
0.00127521
0.00132415
0.00130797
0.00135609
0.00134021
0.00138739
0.00137184
0.00141799
0.0014028
0.00144782
0.00143303
0.00147684
0.00146246
0.00150499
0.00149105
0.00153223
0.00151875
0.00155852
0.00154552
0.00158381
0.00157132
0.00160806
0.00159609
0.0016312
0.0016198
0.00165318
0.00164237
0.00167394
0.00166375
0.00169339
0.00168386
0.00171143
0.00170262
0.00172794
0.00171992
0.00174275
0.0017356
0.00175568
0.00174949
0.00176667
0.00176145
0.00177531
0.00177138
0.0017813
0.00177864
0.00178437
0.00178342
0.00178389
0.00178418
0.00178647
0.0017797
0.00177789
0.00177216
0.00177844
0.00187678
0.00187428
0.00187362
0.00187422
0.000833221
0.000835792
0.00187005
0.00187725
0.00187807
0.00188213
0.00187993
0.00187984
0.00187787
0.00187419
0.00186881
0.00175806
0.00176046
0.00175749
0.00177388
0.00178184
0.00179331
0.00181674
0.00182177
0.00183847
0.00184516
0.00185691
0.00186538
0.0018615
0.00185151
0.00183978
0.00182855
0.00181502
0.00179981
0.00178464
0.00176479
0.00177469
0.00176341
0.00187468
0.00177863
0.00175354
0.00177276
0.00176736
0.00177602
0.00177742
0.0017675
0.00177064
0.00176089
0.00176556
0.00175107
0.00175602
0.00173953
0.00174564
0.0017258
0.00173293
0.00171018
0.00171823
0.00169287
0.00170175
0.00167401
0.00168364
0.00165377
0.00166407
0.00163227
0.00164319
0.00160955
0.00162108
0.00158566
0.00159776
0.00156069
0.00157332
0.00153471
0.00154784
0.0015078
0.00152138
0.00148002
0.00149403
0.00145141
0.00146583
0.00142204
0.00143683
0.00139195
0.0014071
0.00136119
0.00137666
0.00132982
0.00134559
0.0012979
0.00131393
0.00126549
0.00128176
0.00123268
0.00124914
0.00119954
0.00121615
0.00116614
0.00118287
0.00113257
0.00114938
0.00109891
0.00111576
0.00106522
0.00108207
0.00103158
0.0010484
0.000998046
0.0010148
0.000964664
0.000981338
0.00093151
0.000948058
0.000898143
0.000914775
0.000865003
0.000881626
0.000831512
0.000848218
0.000818452
0.000814606
0.00081685
0.000822503
0.000820391
0.000825943
0.000824322
0.000828829
0.000827446
0.000831187
0.000830079
0.000832967