/*--------------------------------*- C++ -*----------------------------------*\
  =========                 |
  \\      /  F ield         | OpenFOAM: The Open Source CFD Toolbox
   \\    /   O peration     | Website:  https://openfoam.org
    \\  /    A nd           | Version:  10
     \\/     M anipulation  |
\*---------------------------------------------------------------------------*/
FoamFile
{
    format      ascii;
    class       surfaceScalarField;
    location    "63";
    object      phi;
}
// * * * * * * * * * * * * * * * * * * * * * * * * * * * * * * * * * * * * * //

dimensions      [0 3 -1 0 0 0 0];

internalField   nonuniform List<scalar> 
57492
(
0.000235711
-1.05936e-05
-4.37178e-05
-0.000181399
-0.000162533
0.000267444
0.0001308
-2.87581e-05
8.08456e-05
0.000323331
-0.000375419
0.00315982
0.00338641
-0.000272102
-0.00627413
-0.00862824
0.00404527
0.00774279
0.000727837
-0.000669931
-0.000351342
0.000293436
-0.00129743
0.000224798
-7.82641e-05
0.00115089
0.000278039
-0.000847628
0.00158969
-0.00463334
0.00442571
-0.00138207
0.00134176
0.00424917
-0.00400124
-0.000611366
-0.000206454
0.000684016
0.000133804
-0.000122417
-0.000831976
0.000343027
0.000231695
-0.000325118
-2.89944e-05
-5.32416e-05
7.84834e-05
0.00172516
-0.00166461
-0.000624034
0.000563481
0.000247824
0.00139208
8.52603e-05
-0.000324521
0.000788379
0.00333524
-0.00379909
-0.000660685
0.00326111
-0.00292495
0.000135445
-0.000288529
0.000153085
-0.00166321
0.00121988
0.000578775
-0.00465984
0.000189603
0.0033356
0.00113463
0.00122809
-0.00472999
-0.00115794
-0.000132986
-0.000196326
-0.000701891
0.0010312
-0.000286929
0.000175964
-2.20217e-05
-0.00254508
0.00216025
0.000734339
-0.000349503
-0.00304847
0.000925626
-0.000422241
-0.00112739
0.000596238
0.000456642
7.45087e-05
-0.000778754
-0.000362166
1.35309e-05
-0.000367114
-0.00113336
0.00129022
0.000210249
-0.000415867
0.000116329
-6.75755e-05
0.000757862
-0.000504398
-0.000469948
0.000216484
-0.000653926
0.000525566
0.000886222
-0.000895898
-0.00171709
0.00166262
0.000950373
-0.0020402
-0.000487787
0.00163209
-0.000707294
-0.000152021
0.000859315
-0.000271227
-0.000436067
-0.00137442
0.00189184
-0.000788653
0.000203047
-0.000767184
-0.00081028
-0.000574749
0.000799547
-0.00023302
-0.00190186
0.00115084
0.000751018
-0.00432171
0.00241985
0.00488359
-0.000824955
0.000352056
-0.00441069
0.0035924
-7.80252e-05
0.00136921
-0.0007326
0.00489429
-0.00498665
0.00142491
0.000307277
-0.00145414
0.00143666
-9.00204e-05
0.00174046
-0.000652433
-0.00129613
0.000208097
0.00194854
9.91947e-05
0.0008887
-0.000552925
0.00110089
0.000862556
0.00117704
-0.00475476
-0.000635609
0.000547285
0.00484308
-0.0048879
-0.000299469
0.000432608
0.00121777
0.00451304
-0.00443771
-0.0012931
0.000889382
-0.00430495
-0.0027782
0.002529
0.0025344
-0.0022852
-0.000273527
0.00320303
-0.00570771
1.48488e-05
-0.000116581
-8.04551e-07
0.000102537
-0.000320919
1.06494e-05
6.69556e-05
-0.000135864
-0.00025201
-5.6283e-05
6.65717e-06
1.11163e-05
-1.19208e-05
8.8468e-06
2.26947e-06
0.00730281
0.00378557
-0.00587903
-0.00520934
0.00233711
-0.000701763
0.00566746
-0.00785263
0.00309869
0.00709105
0.00229267
-0.00635973
0.00162401
-0.0028656
0.00213346
-0.000891868
0.00235606
-0.0029142
0.00218216
-2.98515e-05
2.18199e-05
-2.56196e-06
-7.01583e-05
-3.41094e-06
-0.000222578
-2.89798e-05
-0.00293809
0.00534736
0.00339277
-0.00580205
0.00436294
-0.00494497
0.00298436
0.00474724
-0.00238424
0.0100848
-0.00148138
-0.00179012
-0.00681329
0.0022425
0.00541945
0.00242284
0.00160576
-0.00500566
0.0056424
4.67841e-05
-7.55422e-05
0.00012763
0.000815955
0.00175718
-0.00062619
-0.00194694
0.00103968
9.96031e-05
-9.56754e-05
2.62927e-05
6.93827e-05
-0.000297848
0.000202173
-0.00660401
0.00342306
-0.00201302
0.00519397
-0.0057409
-0.00249619
0.00163307
-0.00262467
0.00208797
-0.0052042
0.00195138
-2.65981e-05
-0.000944033
-0.000980745
-0.000711428
0.002227
0.000435803
-0.000834413
-8.52271e-05
0.000208212
-0.000771359
-8.96523e-05
-0.000271407
-0.00144398
-0.000236936
-6.25197e-05
1.86038e-05
0.000280852
-0.000215306
-0.000521378
0.000499748
0.000137463
1.68657e-05
-0.000369635
7.91766e-05
-4.23373e-06
0.000100429
-2.64834e-06
-0.000640958
0.000369551
8.34417e-05
-0.0007244
0.000172284
-0.000470132
0.00427362
0.00333162
-0.000178523
0.00212864
-0.00648325
-1.03805e-05
0.00226398
-0.00179748
-0.000456113
0.000291724
0.00316415
-0.00346626
0.00326932
0.0018417
-0.000500539
-0.00461048
-0.00103269
0.000500505
0.0038015
0.00398975
-0.00318074
-0.00164247
-0.00303454
0.00125108
0.00342593
-0.00118502
0.0035049
-0.00396235
0.000423192
-0.00464275
8.23896e-05
3.3728e-05
-4.57993e-06
0.00104483
-0.000616143
-0.000591222
7.67973e-05
-0.000324162
0.0012922
0.00036334
-1.90988e-05
-0.000187196
0.000331779
6.8322e-05
-0.000212904
0.000991647
-0.00121508
3.62326e-05
-0.000357597
0.000830822
0.000518422
-0.000125096
9.92783e-05
-0.00611291
0.0036511
0.00588487
0.0077217
-0.00200637
-0.00821152
-0.00285551
0.0044643
-9.7098e-05
-0.000874145
-0.000162114
-0.00052209
9.12465e-06
4.78749e-05
-0.000129962
3.72587e-05
4.48287e-05
-0.000129995
0.00014449
3.33796e-05
-0.000299354
3.93969e-05
-0.000265229
-0.000312682
5.5821e-05
-0.000803508
-0.000335866
-0.000818632
-0.000878361
0.00100374
0.000693255
3.35189e-05
0.000433328
-0.00128548
-0.00114551
0.000300672
-0.00293387
0.00133066
-5.99952e-05
-0.00350258
0.000809569
-0.000240857
0.000875974
-0.00334736
0.00256417
-9.27857e-05
0.000679006
-0.00272847
0.00292543
0.00252819
-0.0101973
-0.00176549
0.00218186
0.00302149
-0.00345632
0.00206069
-0.000320869
3.78789e-07
1.6487e-05
-3.42031e-06
3.79912e-06
0.000284203
-4.12936e-05
0.00559262
-0.00341441
-0.00248694
0.00030873
0.00483992
2.01004e-05
0.00464295
0.000165902
-0.00508238
0.00137866
0.00329736
-3.30734e-05
0.000549919
-0.00291356
0.0037423
5.34821e-06
-8.76852e-06
0.000759146
-0.00211969
-0.00284627
0.00123174
0.00308324
0.000854421
-4.86729e-05
-0.00089828
9.25321e-05
0.000283711
-8.32148e-05
-0.00109977
0.000242624
0.00138272
0.000199808
-0.00101587
-0.000134915
7.59168e-05
-7.29562e-06
1.03209e-05
-2.70408e-06
-3.2119e-07
1.0923e-05
-2.43145e-07
-1.79755e-05
4.65319e-05
-0.000104009
6.84004e-05
-0.00171657
0.00265012
-0.000761261
0.00291667
-0.00378357
-0.000849669
6.46262e-06
-0.00151077
0.00174693
-0.00399146
0.000241226
-0.00273627
-0.00183111
0.000575925
0.00269137
0.00291129
-0.00541306
0.0026051
0.00429302
-0.00420675
0.00224026
-0.00308409
0.00160611
-0.000762288
0.00245548
-0.00302324
0.00280802
0.00437048
0.00187641
0.00500093
-0.000231754
-0.00496661
0.000197436
0.00554146
-0.000660156
0.000119627
0.00552909
-0.000904357
8.35273e-05
-0.00470826
0.00396855
-0.00137648
0.00293702
0.00430765
-0.00140494
0.00114186
-0.00404458
0.00127052
0.00438765
-0.00135052
-0.00387595
-0.00166648
0.00413748
0.00106754
-0.00369241
-0.00186062
0.00362007
-0.00237924
-0.003239
0.0021551
0.00346314
-0.00239522
-0.00326707
0.00328305
0.00223512
0.00304585
-0.0014747
-0.00380627
0.00301964
-0.00317975
-0.00258941
0.00261393
0.00299512
-0.0020409
0.00249735
-0.00406874
0.0036148
-0.00102076
-0.00506521
0.00105353
0.00537447
-0.00136278
0.00191036
-0.000265289
0.000991414
-0.00105737
0.000331247
-0.00010848
0.00127098
-0.00142779
-5.3003e-05
0.000305429
0.000110914
-0.00110284
-0.00172606
0.00112319
-1.73069e-07
-7.00755e-08
3.10355e-07
-4.83426e-07
-0.000102193
-0.00190552
0.00145479
-0.00169819
-6.87808e-05
0.00166478
4.70015e-05
-0.0017799
3.47107e-05
-0.000244763
0.00159053
0.000269874
-0.00161564
0.00163438
0.000460858
-0.00234
0.00162566
0.00159925
-2.4515e-06
4.96799e-07
3.56827e-05
-4.76197e-06
2.31047e-06
-4.26516e-06
-5.54678e-06
4.23586e-06
-5.49721e-05
1.02779e-06
-6.57457e-06
5.26365e-06
-4.39373e-05
2.12892e-05
-0.000264281
2.21786e-05
-6.61159e-05
4.34678e-05
5.31973e-05
-5.33883e-06
-0.000172955
-1.69067e-05
7.0104e-05
-2.22455e-05
0.001426
0.00327968
-0.00420517
0.00132626
-0.00446479
0.00456453
0.00471462
-0.000108686
-0.00118218
-0.00244427
0.00115803
0.00246842
-0.000710467
0.0027217
-0.00319341
0.000157266
-0.003312
0.00386398
-0.00387571
-1.7199e-05
2.89255e-05
0.00388651
3.01031e-05
-5.26327e-05
-2.91018e-05
-0.00384468
-1.92343e-06
0.00393955
-6.01843e-06
-4.7019e-05
0.0040336
5.29791e-05
-0.000147032
2.40545e-05
0.00415797
-0.000148426
0.00410714
-0.00405961
-2.34736e-05
-0.000198754
0.00437645
-1.97215e-05
0.00401518
-0.0001068
-0.00391218
-9.44462e-05
-0.00387515
-4.30526e-05
-0.00384559
5.41669e-07
-0.00390301
4.02192e-05
-0.00381407
-0.000118038
-0.000194567
0.00459061
-1.95969e-05
0.00384853
-2.79099e-05
-2.40465e-05
-0.00378663
-3.40093e-05
-0.00381949
-1.86252e-05
-3.18362e-05
-0.00397845
0.000223662
-5.76902e-06
0.0046154
-1.90185e-05
0.00387005
-2.72935e-05
-0.00393273
8.14009e-05
0.00463964
-5.48971e-06
-1.87501e-05
-5.41647e-06
0.00466309
-1.80315e-05
0.00389083
-2.62686e-05
0.00391116
-2.57435e-05
-2.72588e-05
-0.00392697
-2.42224e-05
-0.00392603
-3.39586e-05
-5.00941e-06
0.00468585
-1.77519e-05
0.00393083
-2.46797e-05
-4.89791e-06
-0.00389737
-2.47011e-05
-0.0038964
-3.45308e-05
-4.78485e-06
0.00470764
-1.70025e-05
0.00395019
-2.41506e-05
-4.69587e-06
-0.00386729
-2.53851e-05
-0.0038664
-3.46946e-05
-4.11058e-06
0.00472847
-1.67231e-05
0.00396913
-2.30485e-05
-4.67994e-06
-0.00383686
-2.57497e-05
-0.00383592
-3.51555e-05
-3.38935e-06
0.00474781
-1.59483e-05
0.00398826
-2.25208e-05
-4.44547e-06
-0.00380606
-2.63549e-05
-0.00380515
-3.52208e-05
-1.71328e-06
0.00476519
-1.56709e-05
0.00400793
-2.13823e-05
4.43923e-06
-0.00378383
-2.66739e-05
-0.00376518
-3.55286e-05
9.92551e-07
0.00477907
-1.48692e-05
0.00402977
-2.08499e-05
2.04054e-05
-0.00364678
-0.000157455
-0.00367057
-7.42012e-05
6.64465e-06
0.00478701
-1.45884e-05
0.00403757
-1.1561e-06
2.00277e-05
-0.00363394
-3.28614e-05
-0.00361307
-3.74763e-05
1.72682e-05
0.00478351
-1.37622e-05
0.00402425
3.05897e-05
4.74803e-05
-0.00347551
-0.000205913
-0.003479
-8.65911e-05
0.000202296
0.00459468
-1.34668e-05
0.00416154
6.50107e-05
5.46139e-05
-0.00342955
-0.000100575
-0.00341118
-1.32067e-05
0.000179545
0.0042709
0.000144234
0.00424473
9.63514e-05
8.84464e-05
-0.000157362
-0.00336063
-0.00336778
4.50512e-05
1.06108e-05
2.91385e-05
0.00423115
0.00423104
2.42994e-05
-0.00345065
0.00353556
-0.000185486
-0.00343965
-0.000168364
0.00015214
-0.000163042
-0.00334973
4.38309e-05
-0.00325947
-0.00348899
0.00354915
-9.30184e-05
-0.00015934
-0.00344774
0.00347624
-5.51716e-05
-5.60468e-05
-0.00350424
0.00353198
-5.3498e-05
-5.43538e-05
-0.00355923
0.00358625
-5.17147e-05
-5.26336e-05
-0.00361281
0.0038864
-4.99228e-05
-5.07889e-05
-0.00390149
0.00387364
2.59199e-05
-4.90997e-05
-0.00402405
0.00401768
-4.62626e-05
-0.000121481
-0.00391234
0.00387824
-0.000112931
5.83222e-05
-0.00380846
0.00383087
-4.21329e-05
-7.86513e-05
-0.00385251
0.00387365
-4.01577e-05
-4.12288e-05
-0.0038941
0.00391411
-3.80444e-05
-3.92067e-05
-0.00393342
0.00395227
-3.58477e-05
-3.70621e-05
-0.0039704
0.00398805
-3.35966e-05
-3.48523e-05
-0.00400498
0.00402141
-3.13064e-05
-3.25984e-05
-0.00403713
0.00405234
-2.89669e-05
-3.03074e-05
-0.00404316
0.00415219
3.52022e-05
-4.29321e-06
0.00415524
2.60951e-05
-2.75109e-05
7.06647e-05
0.00418799
-1.89918e-05
0.00422252
0.0041538
-0.00407116
-1.76324e-05
-0.00420857
0.00421332
1.95442e-05
4.15843e-05
0.00405569
-0.00402136
-3.54876e-05
1.51215e-05
0.00400505
-0.00398797
-3.84565e-05
-3.71582e-05
0.00397045
-0.00395216
-4.13352e-05
-4.0043e-05
0.00393344
-0.00391395
-4.4169e-05
-4.28762e-05
0.00389403
-0.00387335
-4.69457e-05
-4.56615e-05
0.00385226
-0.0038305
-4.96748e-05
-4.83878e-05
0.00388623
-0.00385749
-5.22087e-05
-5.10675e-05
0.00389852
-0.00383228
-0.000109291
-5.34218e-05
0.00378295
-0.00373375
-8.98986e-06
-4.87819e-05
0.0037552
-0.00375367
-2.01536e-05
-9.65829e-05
0.00361259
-0.00358602
-6.05221e-05
-5.96846e-05
0.00355921
-0.00353183
-6.20756e-05
-6.13458e-05
0.00350423
-0.0034761
-6.33538e-05
-6.27533e-05
0.00344773
-0.00345756
-6.43774e-05
-6.38908e-05
0.00343023
-0.00345159
-6.52244e-05
-6.48078e-05
0.00339914
-0.00332059
-3.34987e-05
-6.56563e-05
-0.00325619
-2.05757e-05
-0.00343495
-0.000167743
0.00418141
4.44896e-05
-2.79046e-05
0.00422223
8.65548e-05
-0.000104769
-0.00324126
3.27098e-05
-0.00320234
0.000139588
-0.000163614
-0.00341092
-0.00331491
-0.00344825
0.00342099
-0.000158226
0.00345853
-0.00345737
-0.0001689
-0.00015809
-0.00340546
0.00343413
-0.000121689
-0.000143803
-0.0034623
0.00349029
-8.31647e-05
-8.42172e-05
-0.00351779
0.00354504
-8.07519e-05
-8.18489e-05
-0.00357179
0.0035983
-7.82248e-05
-7.93856e-05
-0.00362432
0.00365001
-7.56147e-05
-7.68068e-05
-0.00367511
0.00377401
-7.29799e-05
-7.4202e-05
-0.00372406
0.00374797
-7.01714e-05
-7.15274e-05
-0.00387499
0.00382938
-6.73207e-05
-6.86951e-05
-0.00381636
0.00383835
-6.41199e-05
-6.56396e-05
-0.00385962
0.00388044
-6.09751e-05
-6.25023e-05
-0.00390057
0.00392025
-5.77277e-05
-5.93298e-05
-0.00393923
0.00395776
-5.43778e-05
-5.60462e-05
-0.00397559
0.00399294
-5.0952e-05
-5.26749e-05
-0.00400958
0.00402575
-4.7474e-05
-4.92425e-05
-0.00404121
0.00405617
-4.39301e-05
-4.57636e-05
-0.00407019
0.00411641
-1.10202e-05
-1.83084e-05
-1.00464e-06
-2.0498e-05
0.0042095
-2.05991e-05
0.00420101
-0.00411704
0.00417034
-8.81141e-06
2.54635e-05
0.00416026
-0.00414799
7.27888e-06
0.00413926
-6.90514e-06
1.20178e-05
2.20644e-05
0.00418815
0.00421404
0.0041349
-0.004091
-6.15247e-05
2.84852e-05
0.00404135
-0.00402571
-5.11203e-05
-3.45343e-05
0.00400966
-0.00399286
-5.52536e-05
-5.32134e-05
0.00397563
-0.00395765
-5.93161e-05
-5.72714e-05
0.00393925
-0.00392009
-6.33233e-05
-6.12808e-05
0.00390053
-0.00388023
-6.72456e-05
-6.52243e-05
0.00385955
-0.00383817
-7.10497e-05
-6.90699e-05
0.00381647
-0.00379404
-7.46393e-05
-7.27696e-05
0.00377124
-0.00380249
-7.80458e-05
-7.62218e-05
0.00377178
-0.00369963
-8.11425e-05
-7.9487e-05
0.0037137
-0.00364975
-8.40997e-05
-8.2513e-05
0.0036242
-0.00359807
-8.66568e-05
-8.52342e-05
0.00357172
-0.00354481
-8.89809e-05
-8.76971e-05
0.00351769
-0.00349004
-9.10107e-05
-8.9873e-05
0.00346216
-0.00343377
-9.27734e-05
-9.17632e-05
0.00340516
-0.00337605
-9.4336e-05
-9.34176e-05
0.00334678
-0.00328453
-9.57493e-05
-9.49239e-05
0.00323691
-0.00316488
-3.93197e-05
-6.81964e-05
-0.00345119
-0.000169796
1.85623e-05
-9.72119e-05
-0.00312369
-0.0031169
-2.94112e-05
-0.000175503
-0.00316297
-8.2003e-06
0.00415794
0.00415802
3.30749e-06
-0.000108482
9.64719e-05
-0.00339891
-0.000136895
-0.00342278
-4.17754e-06
-9.29449e-05
-0.00302657
-5.31694e-05
-0.00306791
-0.00339395
0.00418466
-0.00416061
-3.28647e-05
0.00415364
2.28236e-05
4.8578e-05
-1.82828e-05
0.00415786
1.17623e-05
0.00419483
-0.00341565
0.00348257
-0.000203822
-0.000184505
0.000134929
-0.0033732
0.00346518
2.24648e-05
0.000167905
-0.00365555
-0.000134973
-0.003508
0.00350895
-0.000169851
-0.000195221
-0.00349167
0.00346282
-0.000129375
-0.000140808
-0.00346444
0.0034562
-0.000113452
-0.000145423
-0.00348366
0.00351089
-0.000110391
-0.000111679
-0.00353762
0.00356411
-0.000107246
-0.00010858
-0.00359012
0.00361588
-0.000103988
-0.000105389
-0.00364115
0.00366613
-0.000100604
-0.00010207
-0.00369057
0.00371469
-9.70984e-05
-9.86372e-05
-0.00373823
0.00376148
-9.34185e-05
-9.50694e-05
-0.00378409
0.00380635
-8.95801e-05
-9.13126e-05
-0.00382806
0.00384942
-8.54754e-05
-8.73462e-05
-0.00387012
0.0038904
-8.1262e-05
-8.3203e-05
-0.00391002
0.00392921
-7.69162e-05
-7.89436e-05
-0.00394771
0.00396578
-7.24453e-05
-7.45532e-05
-0.00398316
0.00400009
-6.78785e-05
-7.00534e-05
-0.00401632
0.00403209
-6.32482e-05
-6.54769e-05
-0.00404718
0.0040618
-5.85537e-05
-6.08483e-05
-0.00408694
0.00410677
-3.08497e-05
-4.34438e-05
-2.83791e-05
1.71888e-05
-1.15915e-05
0.0042039
-2.21905e-05
-2.15582e-05
0.00420169
0.00419601
0.00418417
0.00415305
-0.0041361
-9.66748e-06
-0.00415915
0.00414778
1.46837e-05
-1.3009e-05
0.004076
-0.00407641
-6.11131e-05
-3.16139e-05
0.00404732
-0.00403206
-6.63787e-05
-6.36329e-05
0.0040164
-0.00400001
-7.16368e-05
-6.88736e-05
0.00398321
-0.00396568
-7.6846e-05
-7.40705e-05
0.00394775
-0.00392909
-8.1986e-05
-7.92177e-05
0.00391003
-0.00389027
-8.70102e-05
-8.42772e-05
0.00387014
-0.00384932
-9.18657e-05
-8.91995e-05
0.00382817
-0.00380633
-9.64806e-05
-9.39236e-05
0.00378416
-0.00376135
-0.000100848
-9.8393e-05
0.00373824
-0.00371448
-0.000104902
-0.0001026
0.00369048
-0.00366591
-0.000108673
-0.000106514
0.00364105
-0.00361564
-0.000112074
-0.000110087
0.00359
-0.00356382
-0.00011516
-0.000113335
0.00353743
-0.00351052
-0.000117923
-0.000116261
0.0034834
-0.00345578
-0.000120396
-0.000118879
0.00342796
-0.00339965
-0.000122644
-0.000121238
0.00337116
-0.00334219
-0.000124725
-0.000123411
0.00328493
-0.00319747
-0.000126784
-0.00012545
0.00313622
-0.00311684
-7.25531e-05
-9.06574e-05
-4.14494e-05
1.49513e-05
-0.00304141
-0.00307471
-8.35808e-05
0.000123729
-0.00338771
-7.129e-05
-0.00318462
-3.93612e-06
0.00413602
0.0041734
-1.38593e-05
0.000174239
-0.00352498
4.26666e-05
-0.00305429
0.00077809
-0.00281385
0.00366142
4.66655e-05
-9.27865e-05
-0.00302859
-1.02943e-05
-0.00298445
-0.00226078
0.00346369
0.000396349
-0.00171669
-0.00027422
-0.00334151
-0.00331384
0.00348015
1.5921e-06
0.00015572
-5.87446e-06
-0.00347145
0.00346606
-0.000198426
-0.000126272
-0.00346468
0.00344271
-0.000147886
-0.000193844
-0.00344749
0.00346216
-0.000144046
-0.000145582
-0.00345847
0.00348526
-0.000140242
-0.000141737
-0.00351161
0.00353775
-0.000136531
-0.000138026
-0.00356344
0.00358892
-0.000132725
-0.000134274
-0.00361394
0.00363873
-0.000128781
-0.000130407
-0.00366304
0.0036871
-0.000124662
-0.000126381
-0.00371064
0.0037339
-0.000120354
-0.000122177
-0.0037566
0.00377901
-0.000115827
-0.000117773
-0.00380084
0.00382233
-0.000111073
-0.000113144
-0.00384326
0.00386384
-0.000106058
-0.000108271
-0.00388381
0.00390339
-0.000100846
-0.00010317
-0.00392233
0.00394087
-9.54546e-05
-9.78867e-05
-0.00395876
0.00397622
-8.99093e-05
-9.24378e-05
-0.00399302
0.00400939
-8.42473e-05
-8.68553e-05
-0.0040251
0.00404036
-7.85105e-05
-8.11801e-05
-0.00405496
0.00406913
-7.2721e-05
-7.54496e-05
-0.00409535
0.0041314
-6.68991e-05
-6.96632e-05
-0.00413369
0.00414264
-4.18115e-05
-3.06755e-05
-0.00417027
0.00417532
-8.99237e-06
-4.8041e-06
2.64991e-05
-1.18167e-05
0.00418701
7.48723e-06
-4.63678e-05
0.0042142
0.00417
3.13465e-05
1.50671e-05
0.00415749
0.00421554
-1.56823e-05
-4.27289e-06
0.00417781
0.00418356
1.10031e-05
-4.30457e-05
0.00420544
0.00420156
0.00419135
-0.00416543
-1.12344e-05
-0.00426639
0.00416469
5.86559e-05
-8.89023e-05
0.00414366
-0.00412263
-3.06989e-05
-3.47837e-05
0.00408284
-0.00406916
-7.4787e-05
-7.14043e-05
0.00405508
-0.00404033
-8.1134e-05
-7.7712e-05
0.00402518
-0.00400934
-8.74797e-05
-8.40205e-05
0.0039931
-0.00397616
-9.37883e-05
-9.03113e-05
0.00395883
-0.0039408
-0.000100012
-9.6548e-05
0.0039224
-0.00390332
-0.00010609
-0.000102674
0.00388389
-0.0038638
-0.000111958
-0.000108628
0.00384338
-0.00382231
-0.000117554
-0.000114345
0.00380093
-0.00377893
-0.000122846
-0.000119775
0.00375664
-0.00373375
-0.00012779
-0.000124886
0.00371062
-0.00368692
-0.000132372
-0.000129648
0.00366298
-0.00363849
-0.000136561
-0.000134029
0.00361379
-0.00358858
-0.000140379
-0.000138035
0.00356316
-0.00353724
-0.000143839
-0.000141677
0.00351114
-0.00348455
-0.000146982
-0.000144982
0.00345779
-0.00343057
-0.000149868
-0.000148001
0.00340318
-0.00337533
-0.000152567
-0.000150801
0.00334733
-0.00331895
-0.00015517
-0.000153449
0.00325357
-0.00316836
-0.000157767
-0.000156036
0.00314693
-0.00310937
-0.000130345
-0.000105011
-8.6709e-05
6.24568e-05
-0.00300434
-0.00306144
-0.000134634
0.000118651
-0.00333212
-1.48045e-05
-0.00312715
0.000299762
-0.00304665
4.34146e-05
-0.00310799
0.00418487
-0.00417985
-1.40138e-05
0.0041791
-4.06041e-05
8.07564e-06
-2.18035e-06
0.00419954
-3.98043e-05
0.00421257
0.000319407
-0.0026724
7.65142e-05
-0.00299851
-0.00150295
-0.00182938
-0.00270511
0.00314349
-4.2028e-05
-6.64795e-05
5.7828e-05
-0.00299568
-0.00011085
-0.00301707
-0.00248046
-0.000498866
-0.00323766
-0.00330773
0.00337614
-6.68182e-05
-8.52551e-06
-0.00343023
0.00341019
-0.000178386
-0.000180358
-0.00339199
0.0034181
-0.000174003
-0.000175641
-0.00344395
0.00346971
-0.000169807
-0.000171429
-0.0034952
0.00352056
-0.000165602
-0.000167221
-0.00354555
0.00357038
-0.000161361
-0.000163017
-0.00359481
0.00361906
-0.000156974
-0.000158706
-0.00364288
0.0036665
-0.000152399
-0.000154231
-0.00368967
0.0037126
-0.000147598
-0.000149549
-0.00373506
0.00375725
-0.000142548
-0.000144631
-0.00377893
0.00380033
-0.000137226
-0.000139455
-0.00382119
0.00384174
-0.000131622
-0.000134004
-0.00386174
0.00388141
-0.000125727
-0.000128268
-0.0039005
0.00391923
-0.000119576
-0.000122259
-0.00393735
0.0039551
-0.000113201
-0.000116013
-0.00397223
0.00398895
-0.000106639
-0.000109565
-0.00400506
0.00402075
-9.99374e-05
-0.000102956
-0.0040358
0.00405044
-9.31499e-05
-9.62372e-05
-0.00406445
0.00407805
-8.63216e-05
-8.94608e-05
-0.00409105
0.00410363
-7.94812e-05
-8.26594e-05
-0.00414883
0.0041462
-3.91882e-05
-7.58688e-05
-3.84489e-05
1.46779e-05
-5.21024e-05
0.00422443
2.14568e-05
-1.92983e-05
0.00421204
0.00420614
-8.79613e-06
-1.79047e-06
0.00416807
0.00415464
-2.819e-05
3.71968e-05
0.00416881
0.00415357
0.00423658
0.00420036
-0.0041774
-3.4195e-05
-0.00415928
0.00420933
8.60849e-06
-4.78266e-05
0.00415361
-0.0041037
-8.06045e-05
-5.85749e-05
0.00409119
-0.00407807
-8.79105e-05
-8.39114e-05
0.00406457
-0.00405043
-9.52776e-05
-9.12079e-05
0.00403591
-0.00402072
-0.000102665
-9.85416e-05
0.00400516
-0.00398893
-0.000110017
-0.000105873
0.00397234
-0.00395508
-0.000117266
-0.000113142
0.00393748
-0.00391923
-0.000124341
-0.000120279
0.00390065
-0.00388143
-0.000131171
-0.000127211
0.00386191
-0.00384177
-0.000137692
-0.000133869
0.00382134
-0.00380033
-0.00014386
-0.000140201
0.00377905
-0.00375721
-0.000149633
-0.000146165
0.00373513
-0.00371251
-0.00015499
-0.000151729
0.00368967
-0.00366632
-0.000159914
-0.000156869
0.00364276
-0.00361872
-0.00016442
-0.000161587
0.0035945
-0.00356981
-0.000168532
-0.000165902
0.00354494
-0.00351964
-0.000172291
-0.000169844
0.00349417
-0.00346828
-0.000175759
-0.000173466
0.00344225
-0.00341581
-0.000179003
-0.000176834
0.00338925
-0.00336233
-0.000182092
-0.000180012
0.00333531
-0.00330799
-0.000185084
-0.000183056
0.00322692
-0.00316929
-0.000187977
-0.000186076
0.00311496
-0.00306706
-0.000158752
-0.000188966
-8.07308e-05
8.13013e-05
-0.00301764
-0.00302776
-0.000120026
9.20466e-05
-0.00312441
1.04521e-05
-0.00309419
-9.83012e-06
0.00416964
0.00420382
-3.42959e-05
0.00019115
-0.00291839
-0.000289299
-0.00355365
1.95245e-05
-0.00298123
4.40947e-05
-0.00307558
7.70553e-05
-0.00301774
-0.00352982
-0.000780031
0.000265959
-0.000528218
-0.00326756
-0.000149741
-0.00313795
5.83237e-05
-0.00297271
-0.000112483
3.99744e-05
-0.00294513
-0.000103841
-0.00303641
-0.00313516
-0.00301154
0.00317155
-0.000202042
0.00314288
-0.00342044
-0.00050247
-0.000367526
-0.00329459
0.00336679
-0.000139018
-0.000131564
-0.00339144
0.00341614
-0.000203088
-0.000205006
-0.00344068
0.00346517
-0.000198495
-0.000200184
-0.00348943
0.00351362
-0.000193998
-0.000195682
-0.00353754
0.00356135
-0.00018942
-0.000191139
-0.00358484
0.0036082
-0.000184717
-0.000186506
-0.0036312
0.00365404
-0.000179814
-0.000181705
-0.00367649
0.00369876
-0.000174669
-0.000176684
-0.00372062
0.00374226
-0.000169244
-0.000171403
-0.00376346
0.00378443
-0.000163513
-0.000165832
-0.00380492
0.00382515
-0.000157457
-0.000159948
-0.00384488
0.00386433
-0.000151067
-0.000153736
-0.00388325
0.00390187
-0.000144346
-0.000147193
-0.00391995
0.00393769
-0.00013732
-0.000140334
-0.00395487
0.0039717
-0.000130027
-0.000133193
-0.00398794
0.00400382
-0.000122514
-0.000125811
-0.0040191
0.004034
-0.000114838
-0.00011824
-0.00404831
0.00406222
-0.000107063
-0.000110542
-0.00407554
0.00408847
-9.92508e-05
-0.000102781
-0.00410083
0.0041128
-9.14553e-05
-9.50131e-05
-0.00412422
0.00416875
-8.37254e-05
-8.72849e-05
-0.00418165
0.00420094
-3.33028e-05
-5.13498e-05
-0.0041545
0.00418068
-3.60052e-05
5.83809e-06
2.26659e-05
-1.40299e-05
0.00420341
4.30919e-05
-7.44162e-05
0.004212
0.00423539
2.42322e-05
1.82878e-05
0.00418191
0.00421634
-8.34062e-06
-1.72771e-06
0.00417814
0.00416458
1.17462e-05
-2.16887e-05
0.00417875
0.00416359
8.07086e-07
-1.70297e-05
0.00421577
0.0042157
3.37069e-05
-3.72139e-05
0.00420733
0.00422925
0.00423054
-0.00417342
-4.85181e-05
-0.00421957
0.00420441
-2.20535e-05
-2.33174e-05
0.00417284
-0.0041535
-5.35387e-05
-4.84022e-05
0.00412439
-0.00411285
-9.21356e-05
-8.76874e-05
0.00410097
-0.0040885
-0.00010038
-9.57921e-05
0.00407568
-0.00406224
-0.000108715
-0.00010403
0.00404845
-0.00403403
-0.000117085
-0.000112336
0.00401926
-0.00400386
-0.000125415
-0.000120646
0.00398812
-0.00397176
-0.000133626
-0.000128883
0.00395507
-0.00393778
-0.000141634
-0.000136965
0.00392018
-0.00390199
-0.000149363
-0.000144811
0.00388351
-0.00386446
-0.000156744
-0.000152349
0.00384514
-0.00382527
-0.000163728
-0.000159521
0.00380516
-0.00378452
-0.000170271
-0.000166277
0.00376366
-0.0037423
-0.000176348
-0.000172586
0.00372074
-0.0036987
-0.000181951
-0.000178429
0.00367649
-0.00365381
-0.000187093
-0.000183806
0.00363097
-0.00360771
-0.000191801
-0.00018874
0.00358429
-0.00356046
-0.000196119
-0.000193263
0.00353649
-0.00351215
-0.000200108
-0.00019743
0.00348768
-0.00346285
-0.000203831
-0.000201302
0.00343792
-0.00341266
-0.00020735
-0.000204942
0.00338731
-0.00336167
-0.000210723
-0.000208404
0.003336
-0.00331004
-0.000213943
-0.000211746
0.00328405
-0.00322564
-0.000217164
-0.000214954
0.00316941
-0.0030934
-0.000179851
-0.000176254
-0.000148358
9.57565e-05
-0.0029838
-0.00306957
-0.000172186
6.66186e-05
-0.00299988
-0.00342905
-0.000519608
6.72483e-05
-0.00296611
0.00424043
-0.00424317
-3.32566e-05
0.00424488
-7.88668e-05
-1.2917e-05
9.35037e-06
0.00421089
-9.72612e-06
0.00420121
1.10363e-05
-0.00306113
4.45188e-05
-0.00304304
-1.25015e-05
-0.00311846
7.72963e-05
-0.00303671
0.000109745
-0.00304248
0.000141836
-0.00299121
-0.000134445
0.000135203
-0.00298456
-0.000192002
-0.00301201
-0.00305751
-0.00342559
0.00329599
-0.00037287
-0.000454338
0.000532772
-0.00350748
0.00353816
-0.00364761
-0.000344885
-0.00040704
-0.00319821
0.00327608
-0.000279919
-0.000269746
-0.00336432
0.00342537
-0.000200066
-0.000219799
-0.00344852
0.00347165
-0.000226221
-0.000228159
-0.00349458
0.00351744
-0.000221352
-0.00022311
-0.00354004
0.00356256
-0.000216525
-0.000218284
-0.00358483
0.00360699
-0.000211586
-0.0002134
-0.00362886
0.00365061
-0.000206468
-0.000208374
-0.00367204
0.00369332
-0.000201102
-0.000203132
-0.00371426
0.00373503
-0.000195443
-0.00019762
-0.00375543
0.00377564
-0.000189454
-0.0001918
-0.00379545
0.00381504
-0.000183106
-0.000185637
-0.0038342
0.00385312
-0.000176382
-0.000179108
-0.00387159
0.0038898
-0.000169274
-0.000172202
-0.00390752
0.00392497
-0.000161791
-0.00016492
-0.00394191
0.00395855
-0.000153959
-0.000157277
-0.00397467
0.00399046
-0.00014582
-0.00014931
-0.00400572
0.00402063
-0.000137428
-0.000141067
-0.004035
0.00404901
-0.00012885
-0.000132607
-0.00406247
0.00407556
-0.000120157
-0.000124
-0.0040881
0.00410028
-0.000111427
-0.000115322
-0.00411191
0.00412319
-0.00010273
-0.000106647
-0.00413394
0.00414434
-9.41217e-05
-9.80377e-05
-0.00418253
0.00420699
-5.77573e-05
-8.95486e-05
-3.03465e-05
-2.43032e-05
-1.09142e-05
0.00423863
1.98619e-05
-5.93041e-05
0.00425144
0.00423095
-2.6632e-05
1.73195e-05
0.00419123
0.00417879
-7.87859e-06
-1.66773e-06
0.00418769
0.00417403
1.1172e-05
-2.06222e-05
0.0041882
0.0041731
-1.90382e-05
-2.78613e-06
0.00423759
0.00417604
0.00423581
0.00423233
-0.00422588
-5.49654e-05
-0.00423162
0.00422045
-1.08794e-05
-2.26103e-05
0.00418498
-0.00414444
-9.40776e-05
-8.93079e-05
0.00413412
-0.00412326
-0.000102997
-9.8004e-05
0.00411208
-0.00410034
-0.000112118
-0.000106971
0.00408828
-0.00407563
-0.00012136
-0.000116098
0.00406266
-0.0040491
-0.000130644
-0.000125312
0.00403521
-0.00402075
-0.000139881
-0.00013453
0.00400597
-0.00399061
-0.00014898
-0.000143663
0.00397496
-0.00395874
-0.00015785
-0.000152618
0.00394225
-0.0039252
-0.000166407
-0.000161309
0.0039079
-0.00389006
-0.000174579
-0.000169657
0.00387198
-0.0038534
-0.000182311
-0.000177598
0.0038346
-0.00381531
-0.000189557
-0.000185081
0.00379582
-0.00377588
-0.000196295
-0.000192073
0.00375575
-0.00373519
-0.000202515
-0.000198555
0.00371446
-0.00369332
-0.000208233
-0.000204533
0.00367204
-0.00365036
-0.000213478
-0.000210025
0.00362855
-0.00360637
-0.000218297
-0.000215072
0.00358408
-0.00356144
-0.000222747
-0.000219723
0.0035387
-0.00351564
-0.000226892
-0.000224042
0.00349249
-0.00346905
-0.000230792
-0.000228088
0.00344554
-0.00342175
-0.000234507
-0.000231919
0.00339791
-0.00337379
-0.000238065
-0.000235591
0.0033496
-0.00332517
-0.00024159
-0.000239142
0.00325876
-0.00319365
-0.000244965
-0.000242668
0.00315413
-0.00313739
-0.000208742
-0.000211697
-0.000322985
0.000128737
-0.0029437
-0.00305777
-0.000158601
0.00016228
-0.00301569
-0.00306915
-0.000226842
2.16594e-05
-0.00295429
-2.14508e-05
0.00420702
0.00426357
-5.28504e-05
0.000279162
-0.00359221
-0.000334559
1.15259e-05
-0.00302814
0.000348003
-0.00357632
2.24538e-05
-0.00300107
4.45799e-05
-0.00301032
4.69446e-05
-0.00303667
7.74981e-05
-0.00300447
0.000110327
-0.00301097
0.000142732
-0.00299874
0.000142988
-0.00296527
-0.000185264
0.000160153
-0.00299058
-0.000204345
-0.00305007
-0.00302432
-0.00368453
0.00356222
-0.000222573
-0.00041923
-0.00351009
0.000337103
0.0037578
-0.0036377
-0.000539333
-0.000261296
-0.00348689
0.00343515
-0.000321129
-0.000331708
-0.00342391
0.00340128
-0.00025729
-0.000258504
-0.00343615
0.00348913
-0.000253049
-0.000254672
-0.00351057
0.00353197
-0.000247626
-0.000249591
-0.00355315
0.00357425
-0.000242452
-0.000244292
-0.00359511
0.00361587
-0.000237291
-0.000239135
-0.00363638
0.0036568
-0.000232004
-0.00023391
-0.00367694
0.00369698
-0.000226504
-0.000228517
-0.00371672
0.00373634
-0.000220721
-0.000222874
-0.00375564
0.0037748
-0.000214602
-0.000216923
-0.00379362
0.00381227
-0.000208108