/*--------------------------------*- C++ -*----------------------------------*\
  =========                 |
  \\      /  F ield         | OpenFOAM: The Open Source CFD Toolbox
   \\    /   O peration     | Website:  https://openfoam.org
    \\  /    A nd           | Version:  10
     \\/     M anipulation  |
\*---------------------------------------------------------------------------*/
FoamFile
{
    format      ascii;
    class       volVectorField;
    location    "63";
    object      U;
}
// * * * * * * * * * * * * * * * * * * * * * * * * * * * * * * * * * * * * * //

dimensions      [0 1 -1 0 0 0 0];

internalField   nonuniform List<vector> 
28942
(
(0.00443913 -0.0022624 -3.43812e-22)
(0.00600784 -0.00234726 -6.39261e-23)
(0.0179441 -0.0123917 -8.20274e-22)
(0.103305 0.0182366 -5.24857e-21)
(0.102343 0.022279 1.71856e-21)
(0.0152097 0.000477952 0)
(0.0180828 5.30668e-05 1.19091e-23)
(0.020952 0.000617136 -1.05712e-23)
(0.135251 -0.018366 -2.53408e-22)
(0.133904 -0.0167304 7.21455e-22)
(0.00981352 0.00401758 -6.78211e-22)
(0.0160972 0.00563682 2.57457e-22)
(0.00714997 0.00315649 0)
(0.00471568 0.00207062 0)
(0.0472126 0.00207147 -1.62399e-23)
(0.045333 0.00267986 -6.34166e-24)
(0.0893173 0.015878 6.66343e-22)
(0.0870052 0.0138466 1.07246e-21)
(0.012168 -0.0151169 2.90484e-21)
(0.029339 -0.0304763 -7.6446e-22)
(0.0981223 0.0373812 9.49842e-22)
(0.0973002 0.034418 0)
(0.0187622 0.0046358 1.1704e-21)
(0.00787402 0.00236764 5.52223e-22)
(0.0378326 0.00722384 9.47804e-22)
(0.0575771 0.00292377 -8.64052e-22)
(0.00764874 -0.0184989 8.49342e-21)
(0.00669425 -0.0165628 -3.12858e-21)
(0.0355215 -0.0253298 5.68573e-22)
(0.0193065 -0.0136859 1.96194e-22)
(0.0156 -0.00143892 0)
(0.0195047 -0.00126071 -1.46916e-23)
(0.0247478 0.00443612 3.01936e-22)
(0.0355841 0.00195944 -4.84511e-23)
(0.0188266 0.0180094 1.31033e-21)
(0.0157205 0.0191186 -1.29986e-21)
(0.032171 0.0376139 -3.04622e-21)
(0.0186701 0.0305315 -1.06691e-21)
(0.00835706 9.28532e-06 -9.98404e-24)
(0.00864905 0.0161956 -2.60993e-21)
(0.0306488 -0.00620322 0)
(0.051342 -0.0109695 0)
(0.112209 -0.0122813 -2.70242e-23)
(0.111725 -0.0123051 7.981e-23)
(0.116176 -0.0121887 6.94398e-23)
(0.0295076 0.000219521 1.24654e-23)
(0.0274787 -0.000597028 -2.01176e-23)
(0.0391855 -0.000502281 -9.0923e-23)
(0.0375585 -0.000570902 2.5871e-23)
(0.030562 -0.00280447 -2.22556e-22)
(0.0227826 -0.00338377 1.44219e-22)
(0.128616 0.00141221 -3.9801e-22)
(0.127935 0.000935204 -3.71825e-22)
(0.134572 -0.02114 -3.77817e-24)
(0.133021 -0.0194128 1.37795e-22)
(0.0825808 0.00638791 7.19868e-22)
(0.101839 -0.000727378 2.52081e-22)
(0.00306367 0.00162279 -5.67963e-22)
(0.00895728 0.00368438 0)
(0.00826987 0.0032937 2.38273e-22)
(0.00288748 0.00149021 4.90149e-22)
(0.000362965 0.000226617 -4.07436e-22)
(0.000193213 0.000122758 -3.91695e-22)
(0.109822 -0.0426111 0)
(0.104962 -0.0256086 1.28095e-22)
(0.121834 -0.0331037 -4.42956e-23)
(0.12347 -0.043762 0)
(0.0901165 -0.0328072 -6.37083e-22)
(0.0936214 -0.0352727 -4.18657e-22)
(0.00188998 -0.00113252 1.13678e-21)
(0.00249512 -0.00202172 -3.58191e-22)
(0.00488333 -0.00316279 8.88727e-22)
(0.0848914 -0.0457678 0)
(0.0912156 -0.0396282 2.16213e-21)
(0.0805624 -0.053036 5.84023e-22)
(0.114199 0.0123705 2.409e-22)
(0.112806 0.00686048 -2.6708e-22)
(0.125169 0.010956 -1.15683e-22)
(0.00468586 -0.00286333 -5.31897e-23)
(0.00634188 -0.00442814 4.43269e-22)
(0.0510342 -0.031159 1.24284e-22)
(0.0331727 -0.0205467 -2.56529e-22)
(0.00211507 -0.000598452 3.21436e-21)
(0.00516433 -0.00207683 -1.25244e-21)
(0.101014 0.048245 1.23561e-23)
(0.0970545 0.0552119 -7.6099e-22)
(0.0807392 0.0540118 6.94046e-22)
(0.0472151 0.0345139 -2.66938e-21)
(0.0444439 0.031611 1.89038e-21)
(0.0294985 0.0205989 -1.12872e-22)
(0.0327191 0.0232515 -6.38945e-22)
(0.0379607 0.028361 8.65982e-22)
(0.00441633 0.00271472 -5.96926e-23)
(0.00777852 0.00397091 -1.71979e-23)
(0.00319287 0.00201675 3.44627e-23)
(0.001923 0.00163721 -4.60981e-22)
(0.00144862 0.00155792 5.65474e-22)
(0.015745 0.0115452 -3.242e-21)
(0.0174977 0.0136368 7.42335e-22)
(0.00881451 -0.00385254 0)
(0.101389 0.00515965 0)
(0.0984003 0.0156837 -3.95186e-21)
(0.0604402 0.0104757 1.93582e-21)
(0.0886797 0.0178815 0)
(0.135516 -0.00122279 0)
(0.134955 -0.00194163 0)
(0.133275 -0.00243124 -2.4402e-22)
(0.114976 0.0265805 -2.11171e-22)
(0.114069 0.0279847 2.08813e-21)
(0.11327 0.0254454 1.12053e-21)
(0.00229776 0.00130048 1.05967e-21)
(0.00151354 0.000777216 -1.18937e-21)
(0.0190784 -0.00555005 -5.53389e-22)
(0.0201646 -0.00508251 4.72936e-22)
(0.00911938 -0.00293881 9.34739e-22)
(0.00647668 0.0111433 1.47645e-21)
(0.0189687 0.0181511 3.45088e-21)
(0.0134656 0.0227935 2.72185e-22)
(0.0049209 0.0143018 -8.608e-21)
(0.117021 0.0477384 5.50479e-23)
(0.107883 0.0582279 1.06257e-21)
(0.118347 0.0548612 -1.83249e-21)
(0.0391008 -0.0294243 7.27787e-22)
(0.0240151 -0.0172689 -4.64591e-22)
(0.00532201 -0.00074806 -4.09592e-21)
(0.00453898 -0.0035981 0)
(0.0124972 -0.00168102 1.99902e-21)
(0.0219693 -0.016134 7.75196e-22)
(0.0342631 -0.0277904 -1.94614e-21)
(0.0370768 -1.76802e-05 6.33898e-23)
(0.039406 0.000144848 -4.57844e-23)
(0.034831 0.000170558 -1.95918e-24)
(0.028061 -0.0419589 0)
(0.02961 -0.0428512 0)
(0.0896215 -0.0186536 -4.61599e-22)
(0.0995893 -0.0220915 3.13688e-21)
(0.0870338 -0.0252788 0)
(0.0471279 -0.0401967 0)
(0.0581901 -0.0513947 -7.79545e-22)
(0.0413147 0.0393358 2.08023e-21)
(-4.07863e-06 0.000212149 5.18389e-22)
(-0.000196075 0.000129532 -3.42004e-22)
(0.0223317 -0.0192449 -7.87752e-22)
(0.120482 -0.0120446 3.91573e-22)
(0.119866 -0.0120118 -7.57589e-23)
(0.115536 -0.00567416 -6.77573e-23)
(0.108474 0.00103033 9.02962e-23)
(0.117738 -0.000255991 1.8667e-22)
(8.12679e-05 0.000258552 1.99895e-22)
(0.0437504 0.0344201 3.19331e-21)
(0.0618837 0.0463085 -7.85174e-22)
(0.0593219 0.0393685 -3.00052e-24)
(0.0242572 -0.000888778 6.08137e-24)
(0.0239017 -0.000880978 3.2157e-23)
(0.0259256 -0.000669451 1.35943e-24)
(0.0289359 -0.000653216 -1.58092e-23)
(0.0454236 0.0380895 1.33796e-22)
(0.0189632 0.0160594 0)
(0.000143388 -3.73682e-05 3.72581e-22)
(0.000427392 -0.000262691 -4.13349e-22)
(0.00186872 -0.00102498 2.88685e-22)
(0.036586 -0.00773559 -1.85076e-21)
(0.064911 -0.00211788 -7.55705e-22)
(0.0336093 -0.00025279 -2.26421e-24)
(0.074523 -0.00763971 2.72361e-22)
(0.0707284 -0.0157306 6.56023e-23)
(0.0943091 0.0399044 2.13752e-21)
(0.0914107 0.0454402 9.92803e-23)
(0.0887515 0.0290745 1.21261e-21)
(0.0914769 0.0307908 -8.78767e-22)
(0.0987017 0.0410641 0)
(0.126086 -0.000405061 1.48381e-22)
(0.126853 -0.000842389 2.80177e-22)
(0.128092 -0.0122751 -2.93082e-22)
(0.129556 -0.0120758 5.01554e-22)
(0.117056 0.0241203 2.58863e-22)
(0.119114 0.0250184 -7.32982e-22)
(0.117103 0.0261336 0)
(0.115137 0.0248734 1.52659e-22)
(0.116675 0.0280571 0)
(0.11718 0.0360793 -5.48969e-22)
(0.115718 0.0381327 -2.99802e-22)
(0.111345 0.0419487 -5.38672e-22)
(0.113739 0.0400793 0)
(0.11643 0.0430536 1.78102e-21)
(0.113707 0.0449782 4.73882e-23)
(0.108339 0.0441611 -3.02698e-22)
(0.0996376 0.0502676 -1.28292e-21)
(0.098426 0.0454795 -2.26063e-22)
(0.0250164 -0.00852474 6.13642e-23)
(0.0328887 -0.00938694 -2.44872e-23)
(0.00630012 -0.00249886 -6.98363e-22)
(0.0329877 -7.77232e-05 -4.08299e-23)
(0.0421831 -0.000285843 0)
(-1.78367e-06 -4.16458e-05 4.37748e-22)
(1.41568e-05 -4.81597e-05 2.22918e-22)
(0.0381928 -0.00190303 1.89095e-23)
(0.045062 -0.00185018 7.6533e-24)
(0.0445859 -0.00126695 0)
(0.0369516 -0.000860698 8.33528e-24)
(0.0890309 0.00396769 -1.14041e-22)
(0.0883363 0.00357668 5.39245e-22)
(0.0892455 0.00370596 2.49444e-22)
(0.000670815 0.000270828 3.96382e-22)
(-0.000159975 -0.000129745 -5.7378e-22)
(-0.000201765 -0.000169531 4.89579e-22)
(0.00150284 0.000618633 0)
(8.03455e-05 8.81015e-05 1.14533e-21)
(0.000172481 -3.88435e-05 -8.26693e-22)
(0.00745697 0.00367778 -9.96972e-22)
(0.00145407 0.000782604 -1.1891e-21)
(0.001723 0.000861868 0)
(0.00157199 0.00754082 0)
(0.000576957 0.00327996 0)
(0.000313296 0.00197596 0)
(0.136678 -0.00124265 5.49507e-23)
(0.13768 -0.00108303 0)
(0.136055 -0.00203215 -6.41146e-23)
(0.0881149 -0.0148584 4.41526e-21)
(0.0901215 -0.0152669 -1.60272e-21)
(0.0890366 -0.0128829 0)
(0.103648 0.000219199 -6.80178e-24)
(0.104345 0.000214644 1.36133e-23)
(0.102941 0.000224897 -4.60255e-24)
(0.105029 0.000213241 0)
(0.105702 0.000220503 -8.67154e-24)
(0.106359 0.000221611 0)
(0.106355 -0.000472882 0)
(0.106999 0.000209909 3.21398e-23)
(0.106985 -0.00047918 0)
(0.105706 -0.00047939 -8.73404e-24)
(0.105033 -0.000491152 0)
(0.104349 -0.000501991 4.55211e-24)
(0.103648 -0.000516237 -6.7999e-24)
(0.102944 -0.000527493 4.59679e-24)
(0.107616 0.000196191 -3.07552e-23)
(0.107602 -0.00047764 -1.07488e-24)
(0.102217 0.000235966 3.33675e-28)
(0.102216 -0.000530963 -7.02543e-24)
(0.101475 0.000245933 3.73629e-23)
(0.108213 0.000190338 2.87023e-26)
(0.108215 -0.000465676 -1.07357e-24)
(0.101479 -0.000542273 1.38442e-23)
(0.108801 0.0001837 2.88633e-23)
(0.109374 0.000179694 -2.88395e-23)
(0.108806 -0.000454082 2.16397e-24)
(0.109381 -0.000440285 4.26754e-24)
(0.100748 0.000270226 -3.63523e-23)
(0.100745 -0.000551372 -9.11201e-24)
(0.109931 0.000174018 0)
(0.109938 -0.000427328 -4.20921e-24)
(0.0999914 0.000282591 4.4941e-27)
(0.0999904 -0.00055235 -4.50536e-27)
(0.110471 0.000170433 0)
(0.110478 -0.000412614 0)
(0.0992238 0.000291085 0)
(0.0992232 -0.000556342 0)
(0.110994 0.000164922 0)
(0.111002 -0.000398993 2.01407e-24)
(0.0984463 0.000300231 -1.88272e-23)
(0.0984456 -0.000557754 -4.59597e-27)
(0.111501 0.000161272 1.055e-25)
(0.111508 -0.000383786 -2.15093e-24)
(0.097659 0.000307661 1.89172e-23)
(0.0976585 -0.000559937 0)
(0.11199 0.000155634 0)
(0.111997 -0.000369608 0)
(0.0968635 0.000316358 -1.1955e-24)
(0.0968629 -0.000558277 2.05077e-23)
(0.112463 0.000151715 1.29945e-23)
(0.11247 -0.000353675 0)
(0.0960615 0.000323104 -9.74123e-26)
(0.0960595 -0.000555694 -1.94095e-23)
(0.112918 0.000145915 -1.94267e-23)
(0.112925 -0.000338815 -5.63352e-24)
(0.0952359 0.000321972 1.97737e-23)
(0.0952375 -0.000551963 0)
(0.113357 0.000142416 6.39212e-24)
(0.113365 -0.000319733 3.75615e-24)
(0.0944068 0.000329633 -9.99252e-24)
(0.0944086 -0.000550647 2.02594e-23)
(0.113776 0.000140657 -2.54688e-23)
(0.113793 -0.000294944 2.87057e-23)
(0.093542 0.000319868 1.02901e-23)
(0.0935538 -0.000554178 3.25438e-25)
(0.114185 0.00014042 0)
(0.114201 -0.000272058 1.36588e-23)
(0.0926689 0.000311829 -2.06732e-23)
(0.0926879 -0.000565146 4.13495e-23)
(0.114591 0.000133377 0)
(0.114596 -0.00025515 0)
(0.0937676 0.00118837 -1.0182e-23)
(0.092892 0.00118761 -4.11412e-23)
(0.0917695 0.00029722 0)
(0.0918066 -0.000588466 -2.10366e-23)
(0.0954613 0.00117954 -6.40616e-24)
(0.094618 0.00118528 1.25769e-24)
(0.0970783 0.00115061 0)
(0.0962681 0.00116512 -2.07136e-23)
(0.0986512 0.00111551 -4.00839e-26)
(0.0978698 0.00113364 0)
(0.100183 0.00107616 0)
(0.0994223 0.00109633 0)
(0.101676 0.00102633 0)
(0.100933 0.00105382 0)
(0.103096 0.000976274 9.08654e-24)
(0.102386 0.00100015 2.29103e-24)
(0.104485 0.00093799 -8.76148e-24)
(0.103802 0.000956609 -9.0729e-24)
(0.105817 0.000904309 1.55409e-23)
(0.105152 0.000914589 1.98661e-23)
(0.107109 0.000873051 0)
(0.106469 0.000892553 0)
(0.108326 0.00083509 -6.80699e-26)
(0.107727 0.000854224 0)
(0.109476 0.00079255 0)
(0.108909 0.00081416 0)
(0.110563 0.000747724 0)
(0.110028 0.000770251 0)
(0.111583 0.000701697 0)
(0.111081 0.000724761 0)
(0.112535 0.000654768 0)
(0.112067 0.000678274 0)
(0.11342 0.000606814 0)
(0.112986 0.000630861 0)
(0.114245 0.00054558 -1.0386e-23)
(0.113837 0.000581859 0)
(0.114639 0.000514873 -3.34733e-24)
(0.114976 0.000122894 3.26561e-24)
(0.114979 -0.000242045 -3.23844e-24)
(0.113848 -0.000705719 0)
(0.114645 -0.000636561 -1.32996e-23)
(0.114254 -0.000669616 -6.86782e-24)
(0.112988 -0.000779689 1.889e-24)
(0.113425 -0.000743719 -7.38103e-24)
(0.112067 -0.000847127 6.13745e-26)
(0.112536 -0.00081465 0)
(0.11108 -0.000910396 0)
(0.111582 -0.000878844 0)
(0.110026 -0.000972585 0)
(0.110561 -0.000941563 0)
(0.108904 -0.00103356 0)
(0.109473 -0.00100315 8.13318e-30)
(0.107717 -0.00109389 6.88285e-26)
(0.108318 -0.00106362 0)
(0.106474 -0.00114425 0)
(0.1071 -0.00112137 0)
(0.105168 -0.00118858 0)
(0.105826 -0.00116658 0)
(0.103801 -0.00123506 0)
(0.104491 -0.00120928 -4.60024e-24)
(0.102384 -0.00128323 1.21061e-24)
(0.103097 -0.00126384 -5.9341e-24)
(0.100928 -0.00132917 0)
(0.101667 -0.00130446 -4.82888e-24)
(0.0994199 -0.0013619 0)
(0.10018 -0.00134666 0)
(0.0978677 -0.00138678 0)
(0.098649 -0.00137521 0)
(0.0962715 -0.00140261 0)
(0.097076 -0.00139587 0)
(0.0946295 -0.00141089 -5.23768e-24)
(0.0954579 -0.00140594 0)
(0.0929475 -0.0014335 -2.11532e-23)
(0.0937945 -0.00141673 -5.2569e-24)
(0.0920798 -0.00145417 2.15059e-23)
(0.0920014 0.00118913 4.07664e-23)
(0.11502 0.000487245 6.54234e-24)
(0.115022 -0.000604412 -1.276e-23)
(0.0909008 -0.000623127 0)
(0.0912021 -0.00149017 0)
(0.0910973 0.00119137 0)
(0.090856 0.000275061 0)
(0.0942248 0.00203878 0)
(0.0925105 0.00207633 1.02107e-23)
(0.0933735 0.00205534 1.03288e-23)
(0.0958902 0.00199696 1.31522e-23)
(0.095064 0.0020197 -2.62776e-24)
(0.0974788 0.00194225 4.07297e-26)
(0.096691 0.00197021 0)
(0.0990243 0.00188495 0)
(0.0982566 0.00191395 0)
(0.100528 0.00182473 0)
(0.0997815 0.00185522 0)
(0.101991 0.00176326 0)
(0.101264 0.00179348 0)
(0.103402 0.00169788 0)
(0.102702 0.00173205 0)
(0.104762 0.0016351 -3.67105e-26)
(0.104085 0.00166813 9.47117e-24)
(0.106063 0.00156675 -3.51864e-26)
(0.105424 0.00159941 -1.84759e-23)
(0.107324 0.00149351 0)
(0.106699 0.00152971 0)
(0.108521 0.00142132 3.39881e-26)
(0.107931 0.00145749 0)
(0.109653 0.00134655 0)
(0.109095 0.0013843 0)
(0.110721 0.00126914 0)
(0.110195 0.0013081 0)
(0.111724 0.0011899 0)
(0.111231 0.00122969 0)
(0.112661 0.00110942 0)
(0.112201 0.00114978 0)
(0.113531 0.0010272 0)
(0.113104 0.00106867 0)
(0.114342 0.000933936 7.09544e-24)
(0.113943 0.000982601 0)
(0.115345 0.000115589 0)
(0.115382 0.000460571 6.37532e-24)
(0.1151 0.000842328 0)
(0.114727 0.000887576 6.90253e-24)
(0.114734 -0.00101224 1.37491e-23)
(0.115102 -0.00096366 3.36847e-24)
(0.115382 -0.000576671 2.62689e-23)
(0.115345 -0.000227901 0)
(0.11395 -0.00111514 0)
(0.114348 -0.00106292 -2.07632e-23)
(0.113106 -0.00121945 5.945e-26)
(0.113536 -0.00116633 7.42592e-24)
(0.112201 -0.00131838 -6.13743e-26)
(0.112661 -0.00126936 0)
(0.11123 -0.00141517 0)
(0.111723 -0.00136692 0)
(0.110193 -0.00151064 0)
(0.11072 -0.00146308 0)
(0.109091 -0.00160428 0)
(0.10965 -0.00155771 -8.13315e-30)
(0.107927 -0.00169553 -1.37566e-25)
(0.108516 -0.00165025 0)
(0.106705 -0.00178081 0)
(0.107323 -0.0017393 0)
(0.10542 -0.00186069 2.32001e-24)
(0.10607 -0.00182117 0)
(0.104085 -0.00193278 0)
(0.104759 -0.00189492 -2.31033e-24)
(0.102697 -0.00200444 4.83883e-24)
(0.103393 -0.00197037 4.8083e-24)
(0.10126 -0.00206569 0)
(0.101985 -0.00203614 0)
(0.0997774 -0.00211999 0)
(0.100524 -0.00209382 0)
(0.0982519 -0.00216644 0)
(0.0990198 -0.00214416 0)
(0.0966843 -0.00220562 0)
(0.0974734 -0.00218678 0)
(0.0950755 -0.00223956 8.36243e-26)
(0.0958853 -0.00222304 0)
(0.0934262 -0.00227095 -8.45926e-26)
(0.0942571 -0.00225574 0)
(0.0917346 -0.00233101 -2.20891e-23)
(0.092584 -0.0022982 2.20789e-23)
(0.0916326 0.00209734 2.07282e-23)
(0.0903184 -0.00153726 0)
(0.0908751 -0.00237643 -4.47929e-23)
(0.0899956 -0.000663713 0)
(0.115455 0.000803156 0)
(0.115458 -0.000916165 -3.26272e-24)
(0.0901867 0.00119538 5.24315e-23)
(0.0907483 0.00211974 2.09548e-23)
(0.089419 -0.00158524 1.13315e-23)
(0.0900058 -0.00242818 5.66012e-23)
(0.0899298 0.000250132 0)
(0.115218 0.00119524 2.69394e-23)
(0.115563 0.00113771 -1.32954e-23)
(0.115726 -0.000547558 -6.45138e-24)
(0.115797 -0.000868142 3.20536e-23)
(0.0916007 0.00301211 7.35478e-23)
(0.0898419 0.00214228 -4.12958e-23)
(0.0898318 0.00308288 -1.83756e-22)
(0.0907147 0.0030415 -4.19792e-23)
(0.0932844 0.0029372 2.05306e-23)
(0.0924487 0.00297629 -6.26268e-23)
(0.0949178 0.00286137 -2.10276e-23)
(0.0941081 0.00289964 -1.5828e-23)
(0.0965198 0.00278893 -5.25851e-24)
(0.095726 0.00282697 -5.25324e-24)
(0.0980672 0.00271491 -4.07297e-26)
(0.0973011 0.00275271 0)
(0.0995698 0.00263684 0)
(0.0988235 0.00267625 0)
(0.101032 0.00255571 0)
(0.100306 0.0025967 0)
(0.102452 0.00247166 0)
(0.101747 0.00251392 0)
(0.103826 0.00238534 0)
(0.103145 0.00242867 0)
(0.10515 0.00229453 0)
(0.104494 0.00234059 0)
(0.106422 0.00220026 7.08704e-29)
(0.105794 0.00224831 0)
(0.107643 0.00209885 0)
(0.107038 0.00214989 0)
(0.108807 0.00199553 3.38941e-26)
(0.108233 0.00204747 0)
(0.109911 0.00188923 0)
(0.109367 0.0019428 0)
(0.110952 0.00177987 0)
(0.110439 0.0018349 0)
(0.11193 0.00166817 0)
(0.111449 0.00172426 0)
(0.112844 0.00155489 0)
(0.112395 0.00161169 0)
(0.113693 0.00143977 0)
(0.113276 0.00149772 0)
(0.114483 0.00131714 3.61343e-24)
(0.114095 0.00137922 -1.81933e-24)
(0.114858 0.00125598 -1.37534e-23)
(0.11569 0.000111319 -3.05642e-24)
(0.115794 0.000763367 1.27648e-23)
(0.115724 0.000438549 -9.78162e-24)
(0.11569 -0.000220031 0)
(0.114863 -0.00138015 -1.0215e-23)
(0.115567 -0.00124843 -2.94055e-23)
(0.115222 -0.00131425 2.37253e-23)
(0.114099 -0.00151815 0)
(0.114488 -0.00144766 0)
(0.113278 -0.00164913 -6.9634e-29)
(0.113697 -0.00158206 0)
(0.112395 -0.00178004 0)
(0.112844 -0.00171486 0)
(0.111449 -0.00190944 -6.31104e-26)
(0.11193 -0.0018449 0)
(0.110438 -0.00203719 0)
(0.110951 -0.00197359 0)
(0.109365 -0.00216222 0)
(0.109909 -0.00210013 0)
(0.108231 -0.00228328 6.87475e-26)
(0.108805 -0.00222335 0)
(0.10704 -0.00239807 7.04439e-26)
(0.107643 -0.0023416 0)
(0.105792 -0.00250669 0)
(0.106423 -0.00245309 0)
(0.104491 -0.0026075 0)
(0.105149 -0.00255807 0)
(0.103141 -0.00270135 0)
(0.103821 -0.00265545 0)
(0.101742 -0.00278525 0)
(0.102447 -0.00274419 0)
(0.1003 -0.00286125 -7.89155e-26)
(0.101027 -0.00282433 0)
(0.0988156 -0.00292875 0)
(0.0995629 -0.00289604 0)
(0.0972906 -0.00298855 0)
(0.0980581 -0.00295952 0)
(0.0957263 -0.00304233 -1.95975e-28)
(0.0965133 -0.00301606 0)
(0.0941241 -0.00309196 2.17846e-28)
(0.0949301 -0.00306762 0)
(0.0924874 -0.00314938 8.70995e-26)
(0.0933074 -0.0031167 0)
(0.0908194 -0.00323693 -4.56667e-23)
(0.0916559 -0.0031884 1.1247e-23)
(0.089128 -0.00247773 1.14867e-23)
(0.0899878 -0.00329187 2.28456e-23)
(0.0892663 0.00119282 -2.05541e-23)
(0.0890727 -0.000706669 -2.19434e-23)
(0.115894 0.0010815 3.24692e-24)
(0.115899 -0.00118757 2.31023e-23)
(0.088895 0.00214305 2.56265e-24)
(0.0885113 -0.00164023 0)
(0.0887018 0.00297553 2.81485e-22)
(0.0891522 -0.00334676 3.49902e-23)
(0.0882582 -0.00253058 4.67445e-23)
(0.0901285 0.00414888 -4.64012e-22)
(0.0897296 0.00430253 8.50142e-23)
(0.0890135 0.000229457 0)
(0.0911697 0.00397417 4.71033e-23)
(0.0905409 0.00408778 2.40072e-23)
(0.0926985 0.00385338 4.25842e-23)
(0.0918947 0.00390133 -6.48498e-23)
(0.0942901 0.00375227 -2.12478e-23)
(0.0935041 0.00380539 -1.05808e-23)
(0.0958361 0.00365438 1.06689e-23)
(0.0950674 0.00370244 1.07878e-23)
(0.0973545 0.00355711 0)
(0.0965967 0.00360473 -1.5616e-26)
(0.0988352 0.00346164 0)
(0.0980995 0.00350972 0)
(0.100279 0.00336372 3.97792e-26)
(0.0995619 0.00341301 0)
(0.101686 0.00326249 0)
(0.100987 0.00331361 0)
(0.103053 0.00315711 0)
(0.102374 0.00321032 0)
(0.104376 0.00304742 0)
(0.10372 0.00310285 0)
(0.105653 0.00293231 3.64885e-26)
(0.105021 0.00299059 0)
(0.106881 0.00281159 7.95665e-29)
(0.106274 0.0028728 0)
(0.108058 0.00268417 0)
(0.107476 0.00274856 0)
(0.109181 0.00255209 -6.77195e-26)
(0.108626 0.00261868 0)
(0.110247 0.00241575 0)
(0.109721 0.00248445 0)
(0.111253 0.0022756 0)
(0.110758 0.00234611 0)
(0.112199 0.00213257 0)
(0.111734 0.00220439 0)
(0.113083 0.00198766 0)
(0.112648 0.0020603 0)
(0.113905 0.00184114 0)
(0.113501 0.0019147 0)
(0.114668 0.00169185 -1.80396e-24)
(0.114293 0.00176581 0)
(0.115376 0.0015404 0)
(0.115028 0.0016158 -3.49044e-24)
(0.116028 0.00139142 -1.72247e-27)
(0.11571 0.00146558 0)
(0.116114 0.000725097 -1.29422e-23)
(0.116336 0.00132323 7.794e-25)
(0.116211 0.00102901 6.3253e-24)
(0.116014 0.000104372 4.65416e-24)
(0.116049 0.000416015 -3.21254e-24)
(0.116051 -0.000519537 -1.61786e-24)
(0.116016 -0.000209053 1.61446e-24)
(0.116213 -0.00113025 0)
(0.116117 -0.000827454 -1.47072e-23)
(0.115713 -0.00157743 -6.61203e-24)
(0.116337 -0.0014289 -1.26321e-23)
(0.116033 -0.00150098 2.90138e-23)
(0.115033 -0.00173955 -3.48031e-24)
(0.11538 -0.00165786 0)
(0.114296 -0.00190457 0)
(0.114672 -0.00182108 0)
(0.113502 -0.00206659 -8.85485e-29)
(0.113907 -0.00198558 0)
(0.112649 -0.00222842 0)
(0.113083 -0.00214761 0)
(0.111734 -0.00238924 6.31104e-26)
(0.112199 -0.00230901 0)
(0.110758 -0.00254802 0)
(0.111253 -0.00246899 0)
(0.109721 -0.00270323 0)
(0.110247 -0.00262619 0)
(0.108627 -0.00285324 0)
(0.109181 -0.00277901 0)
(0.107477 -0.00299624 -1.46929e-28)
(0.108059 -0.00292572 0)
(0.106274 -0.00313155 0)
(0.106882 -0.00306491 0)
(0.105019 -0.00325789 0)
(0.105653 -0.00319586 0)
(0.103717 -0.00337507 0)
(0.104374 -0.00331775 0)
(0.10237 -0.00348181 0)
(0.103049 -0.00342963 0)
(0.100981 -0.00357896 7.89155e-26)
(0.101681 -0.00353161 0)
(0.0995509 -0.0036667 0)
(0.100271 -0.00362398 0)
(0.0980828 -0.00374604 0)
(0.0988215 -0.00370733 0)
(0.0965778 -0.00381872 -8.34204e-26)
(0.0973348 -0.00378309 0)
(0.0950377 -0.00388648 8.4799e-26)
(0.0958121 -0.00385316 0)
(0.0934638 -0.00395266 -8.61154e-26)
(0.0942545 -0.0039194 0)
(0.091867 -0.00402823 1.12887e-23)
(0.0926643 -0.00398606 -2.22818e-23)
(0.0902741 -0.00413126 -1.13389e-23)
(0.091067 -0.00407532 2.30571e-23)
(0.0883063 -0.00339669 2.57605e-25)
(0.0894696 -0.00418513 2.31917e-23)
(0.088329 0.00117014 -2.10016e-23)
(0.088152 -0.000735934 0)
(0.0879456 0.00208703 -2.02484e-22)
(0.0876017 -0.00167408 0)
(0.116196 0.00169742 -3.23583e-24)
(0.116489 0.00161063 2.37031e-24)
(0.116511 -0.00107469 -1.23712e-23)
(0.116629 -0.00135352 -1.40087e-23)
(0.087629 0.00288926 -1.97167e-22)
(0.0873807 -0.00257812 -4.72018e-23)
(0.0887772 0.00425077 0)
(0.0913978 0.0049277 -5.36694e-23)
(0.0874622 -0.00344609 -2.31518e-23)
(0.0886581 -0.00423471 3.5006e-23)
(0.0906942 0.00490841 1.07867e-22)
(0.0880856 0.000207634 0)
(0.0925665 0.00476092 0)
(0.0919514 0.0048505 -4.79126e-23)
(0.0939987 0.00462982 0)
(0.0932631 0.00469313 0)
(0.0954806 0.0045114 0)
(0.0947411 0.00456851 1.09618e-23)
(0.0969317 0.00439892 0)
(0.0962084 0.00445517 0)
(0.0983634 0.00428654 0)
(0.0976501 0.00434224 0)
(0.0997681 0.00417438 0)
(0.0990696 0.00423084 0)
(0.101141 0.00405899 -3.97792e-26)
(0.100459 0.00411716 0)
(0.102481 0.00393918 0)
(0.101816 0.00399974 0)
(0.103783 0.00381385 0)
(0.103137 0.00387725 0)
(0.105046 0.00368242 0)
(0.10442 0.00374895 0)
(0.106265 0.00354419 -1.00633e-28)
(0.105661 0.00361421 0)
(0.107438 0.00339888 9.40717e-29)
(0.106858 0.00347247 0)
(0.108563 0.00324606 0)
(0.108007 0.00332335 0)
(0.109637 0.00308685 8.20422e-29)
(0.109107 0.00316721 0)
(0.110657 0.00292208 0)
(0.110154 0.00300512 0)
(0.11162 0.00275263 0)
(0.111146 0.00283788 0)
(0.112526 0.00257969 0)
(0.112081 0.00266652 0)
(0.113374 0.00240459 0)
(0.112957 0.00249234 0)
(0.114163 0.00222832 0)
(0.113775 0.00231658 0)
(0.114894 0.00205153 0)
(0.114535 0.00213994 0)
(0.115571 0.00187322 3.45411e-24)
(0.11524 0.00196081 3.54344e-24)
(0.115891 0.00178375 -6.61643e-24)
(0.116417 0.000688049 -6.33615e-24)
(0.116628 0.00125775 0)
(0.116509 0.000975045 -6.39912e-24)
(0.116322 9.85226e-05 0)
(0.116352 0.000395575 6.46646e-24)
(0.116356 -0.000494422 9.6537e-24)
(0.116322 -0.000199114 -3.26355e-24)
(0.11642 -0.000786268 -1.89787e-23)
(0.115894 -0.00189707 3.3273e-24)
(0.116493 -0.00171211 1.23193e-23)
(0.1162 -0.00180775 0)
(0.115243 -0.00208555 -6.91476e-24)
(0.115576 -0.00199122 6.93761e-24)
(0.114538 -0.00227723 0)
(0.114897 -0.00218184 0)
(0.113777 -0.00246845 -1.06818e-28)
(0.114164 -0.00237273 0)
(0.112959 -0.00266009 0)
(0.113375 -0.00256431 0)
(0.112082 -0.00285089 0)
(0.112528 -0.00275571 0)
(0.111147 -0.00303921 0)
(0.111622 -0.00294549 0)
(0.110155 -0.00322316 0)
(0.110658 -0.00313187 0)
(0.109109 -0.00340088 6.83421e-26)
(0.109639 -0.00331293 0)
(0.10801 -0.00357062 -7.0297e-26)
(0.108566 -0.00348685 0)
(0.10686 -0.00373131 0)
(0.107441 -0.00365218 0)
(0.105662 -0.00388173 0)
(0.106267 -0.00380784 0)
(0.104419 -0.00402133 0)
(0.105046 -0.00395297 0)
(0.103134 -0.00414952 0)
(0.103782 -0.00408683 0)
(0.101809 -0.00426675 0)
(0.102477 -0.0042095 0)
(0.100447 -0.00437356 0)
(0.101133 -0.00432142 0)
(0.0990484 -0.00447109 -8.148e-26)
(0.0997519 -0.0044234 0)
(0.0976164 -0.00456107 8.28991e-26)
(0.0983365 -0.00451692 0)
(0.0961527 -0.00464536 -8.42534e-26)
(0.0968883 -0.00460385 0)
(0.0946597 -0.00472601 0)
(0.0954095 -0.00468599 0)
(0.0931403 -0.00480504 0)
(0.0939026 -0.00476542 0)
(0.0916119 -0.00488859 8.90057e-26)
(0.0923788 -0.00484549 1.13292e-23)
(0.090077 -0.00498909 -5.86783e-23)
(0.0908398 -0.00493592 0)
(0.0878603 -0.00429285 -3.48074e-23)
(0.0893148 -0.00504473 -2.48249e-25)
(0.0873946 0.00114416 6.55606e-23)
(0.0872251 -0.00075835 0)
(0.116772 0.00152809 -1.22937e-23)
(0.116773 -0.0016273 -2.37624e-23)
(0.0869122 0.00201538 -3.45715e-23)
(0.0876793 0.00371992 8.84571e-25)
(0.0866777 0.00281535 9.83462e-23)
(0.0866967 -0.00169591 0)
(0.0864921 -0.00260424 1.17749e-23)
(0.0895738 0.00486078 -1.00452e-22)
(0.0885563 0.00474385 8.59252e-23)
(0.0871279 0.0038371 -8.47194e-23)
(0.0866086 -0.00348319 -3.53129e-23)
(0.0870459 -0.0043423 2.34983e-23)
(0.0885638 -0.00511282 2.30864e-23)
(0.0871508 0.000186236 0)
(0.0928192 0.00561759 3.00366e-24)
(0.0911359 0.00562427 4.40039e-25)
(0.0920339 0.00560824 2.34085e-23)
(0.0940842 0.00548677 2.32306e-23)
(0.0934563 0.00556008 -2.33512e-23)
(0.0954416 0.00534415 4.3083e-26)
(0.094745 0.00541315 0)
(0.0968222 0.00521913 0)
(0.0961344 0.00528002 0)
(0.0981847 0.00509722 0)
(0.0975055 0.0051584 0)
(0.0995288 0.00497382 0)
(0.0988593 0.00503558 0)
(0.100849 0.00484791 4.02683e-26)
(0.100192 0.00491141 0)
(0.102142 0.00471718 0)
(0.101499 0.00478323 0)
(0.103404 0.00458049 0)
(0.102777 0.00464967 0)
(0.104633 0.00443679 0)
(0.104023 0.00450958 0)
(0.105825 0.00428536 0)
(0.105234 0.00436209 0)
(0.106977 0.00412564 -3.63879e-26)
(0.106406 0.00420657 0)
(0.108087 0.00395738 1.0851e-28)
(0.107538 0.0040426 0)
(0.109151 0.00378054 0)
(0.108625 0.00387 0)
(0.110168 0.00359591 6.73923e-26)
(0.109666 0.00368915 0)
(0.111135 0.00340447 0)
(0.110658 0.00350098 0)
(0.112049 0.00320745 0)
(0.111598 0.00330659 0)
(0.112909 0.00300631 0)
(0.112486 0.00310731 0)
(0.113714 0.00280267 0)
(0.113318 0.00290471 0)
(0.114464 0.00259808 0)
(0.114096 0.00270043 0)
(0.115159 0.00239378 5.63573e-26)
(0.114818 0.00249582 0)
(0.115803 0.00218987 -3.4692e-24)
(0.115487 0.00229208 0)
(0.116395 0.00198578 3.29372e-24)
(0.116105 0.00208724 0)
(0.116941 0.00178733 3.12499e-24)
(0.116673 0.00188623 -3.20468e-24)
(0.116901 0.00119132 6.18222e-24)
(0.117196 0.00169247 0)
(0.11704 0.00144845 9.20141e-24)
(0.116699 0.00065275 0)
(0.116788 0.000924809 0)
(0.11661 9.29494e-05 0)
(0.11664 0.00037431 0)
(0.116643 -0.000469741 0)
(0.116611 -0.000189383 0)
(0.116791 -0.001021 1.26083e-23)
(0.116703 -0.000748352 3.13064e-24)
(0.117037 -0.00154496 3.09052e-24)
(0.116903 -0.00128609 2.46725e-23)
(0.116678 -0.00199179 1.61e-23)
(0.117196 -0.00179547 3.06923e-24)
(0.116943 -0.00189125 -6.25243e-24)
(0.116109 -0.0022018 3.31122e-24)
(0.116398 -0.00209563 -1.98557e-23)
(0.115491 -0.00241644 -9.56705e-29)
(0.115806 -0.00230819 0)
(0.114821 -0.00263297 0)
(0.115162 -0.00252422 0)
(0.114098 -0.00285198 -1.24763e-28)
(0.114466 -0.00274227 0)
(0.113321 -0.00307194 0)
(0.113716 -0.00296197 0)
(0.112489 -0.00329103 0)
(0.112911 -0.00318174 0)
(0.111602 -0.00350717 0)
(0.112052 -0.00339962 0)
(0.110662 -0.00371818 0)
(0.111138 -0.00361346 0)
(0.109671 -0.003922 -1.36496e-25)
(0.110173 -0.00382112 0)
(0.10863 -0.00411681 0)
(0.109157 -0.00402064 0)
(0.107543 -0.00430126 0)
(0.108092 -0.00421042 0)
(0.106411 -0.00447417 0)
(0.106982 -0.00438922 0)
(0.105237 -0.00463486 0)
(0.105829 -0.0045561 0)
(0.104024 -0.00478298 -7.66234e-26)
(0.104635 -0.00471048 0)
(0.102774 -0.0049189 0)
(0.103403 -0.00485244 0)
(0.101489 -0.00504333 0)
(0.102136 -0.0049825 0)
(0.100172 -0.00515749 8.148e-26)
(0.100835 -0.00510161 0)
(0.0988246 -0.00526304 -3.20746e-28)
(0.099502 -0.00521124 0)
(0.0974488 -0.0053618 1.68174e-25)
(0.0981401 -0.00531318 0)
(0.0960474 -0.00545547 0)
(0.0967511 -0.00540919 0)
(0.0946229 -0.0055455 0)
(0.0953377 -0.00550071 0)
(0.0931791 -0.00563184 -3.76462e-28)
(0.0939037 -0.00558987 0)
(0.0917187 -0.00572001 0)
(0.0924497 -0.00567484 0)
(0.0902818 -0.00583088 -3.47684e-23)
(0.0909961 -0.00577196 0)
(0.087799 -0.00517354 -2.37485e-25)
(0.0895724 -0.00589761 5.88874e-23)
(0.0864195 0.00110077 0)
(0.0902362 0.00560924 1.35659e-22)
(0.085942 0.0019484 2.36172e-23)
(0.117135 0.00203836 -3.11911e-24)
(0.117376 0.00193377 0)
(0.117289 -0.00146678 3.00336e-24)
(0.117436 -0.00170012 -5.96094e-24)
(0.0862983 -0.000776815 0)
(0.085785 -0.0017083 0)
(0.0858734 0.00289028 0)
(0.0855999 -0.00262143 -1.15973e-23)
(0.0857498 -0.00352146 -2.32528e-23)
(0.0862279 -0.00439598 0)
(0.0870246 -0.00523532 5.96266e-23)
(0.0888477 -0.00596345 -4.74956e-23)
(0.0862057 0.000161961 0)
(0.0929781 0.00634247 -1.12492e-26)
(0.0892877 0.00555358 4.2476e-23)
(0.0913581 0.00639069 -1.51288e-22)
(0.0921672 0.00638307 4.44003e-23)
(0.094465 0.00627502 -1.44977e-23)
(0.0937343 0.00629075 -2.3209e-23)
(0.0957384 0.00616107 0)
(0.0951157 0.00622909 0)
(0.0970211 0.0060134 -4.30791e-26)
(0.0963692 0.0060847 0)
(0.0983106 0.00588108 0)
(0.0976686 0.00594632 0)
(0.0995805 0.00575014 0)
(0.0989478 0.00581588 0)
(0.100832 0.00561642 0)
(0.100209 0.00568369 0)
(0.102061 0.00547829 -4.02683e-26)
(0.101449 0.00554807 0)
(0.103265 0.00533385 0)
(0.102666 0.00540695 0)
(0.104442 0.00518194 0)
(0.103857 0.00525891 0)
(0.105589 0.00502154 0)
(0.105019 0.00510287 0)
(0.106702 0.00485188 0)
(0.10615 0.00493792 0)
(0.10778 0.00467246 3.61429e-26)
(0.107246 0.00476342 0)
(0.108818 0.00448309 1.21683e-28)
(0.108304 0.00457903 0)
(0.109815 0.00428393 0)
(0.109322 0.0043847 0)
(0.110768 0.00407572 -1.06227e-28)
(0.110297 0.0041809 0)
(0.111675 0.00385957 0)