/*--------------------------------*- C++ -*----------------------------------*\
  =========                 |
  \\      /  F ield         | OpenFOAM: The Open Source CFD Toolbox
   \\    /   O peration     | Website:  https://openfoam.org
    \\  /    A nd           | Version:  10
     \\/     M anipulation  |
\*---------------------------------------------------------------------------*/
FoamFile
{
    format      ascii;
    class       volVectorField;
    location    "5";
    object      U;
}
// * * * * * * * * * * * * * * * * * * * * * * * * * * * * * * * * * * * * * //

dimensions      [0 1 -1 0 0 0 0];

internalField   nonuniform List<vector> 
28942
(
(-0.255207 0.0068053 -1.83552e-19)
(-0.25879 -0.128466 -3.93646e-20)
(1.77437 -1.26482 4.19306e-19)
(2.53061 0.0480626 -1.82341e-19)
(2.49288 0.0777638 6.14383e-20)
(1.2062 0.0613855 0)
(1.40834 0.0829414 -8.54344e-21)
(1.5816 0.0552554 9.56017e-21)
(3.12197 -0.417836 7.77203e-20)
(3.0901 -0.379938 -1.98785e-19)
(-0.241975 -0.927902 -1.09349e-18)
(-0.0756907 -0.792475 5.22685e-19)
(-0.344079 -0.465166 0)
(-0.36121 -0.548888 0)
(2.40631 -0.088201 4.6277e-21)
(2.43526 -0.0848039 5.44959e-22)
(2.31463 0.146204 1.78491e-19)
(2.27502 0.0989031 2.77681e-19)
(1.19806 -2.02305 -1.87514e-19)
(1.86484 -2.17466 4.68511e-20)
(2.4102 0.476019 2.5413e-19)
(2.43743 0.445721 0)
(-0.231048 0.308191 9.75905e-19)
(-0.300542 -0.0371069 5.31224e-19)
(2.2301 -0.918952 1.0729e-18)
(3.04983 -1.12293 -9.70176e-19)
(0.895534 -1.6571 2.34351e-18)
(0.843504 -1.31694 -1.00075e-18)
(2.23399 -1.68205 -1.35442e-19)
(1.65029 -1.13274 -5.90407e-20)
(1.13057 -0.0422975 0)
(1.56029 -0.071373 1.60794e-20)
(1.93542 -0.119581 7.85544e-21)
(2.22228 -0.0883773 2.5132e-20)
(1.2394 1.45164 2.91367e-19)
(0.934846 1.52315 -3.56074e-19)
(1.47826 1.40728 -9.2502e-19)
(1.1129 1.32641 -3.19329e-19)
(0.522794 0.0436503 1.01426e-20)
(0.524062 1.36484 -5.83469e-19)
(2.05501 -0.0378861 0)
(2.37708 -0.0869461 0)
(3.93355 -1.31218 3.70109e-20)
(3.80663 -1.39742 -1.07903e-19)
(3.84716 -1.24384 -9.34676e-20)
(1.99777 0.0639001 -5.64365e-21)
(1.97182 0.0826331 9.36937e-21)
(2.29982 0.0697035 3.83929e-20)
(2.25692 0.0724677 -1.05271e-20)
(2.0522 0.0739814 3.04772e-20)
(1.94246 0.101746 -1.75261e-20)
(2.88479 -0.0219154 1.12606e-19)
(2.8834 -0.0421893 9.6223e-20)
(3.10995 -0.463255 -1.07342e-21)
(3.07349 -0.425637 -3.2737e-20)
(3.50476 -0.798692 8.53255e-19)
(4.00814 -0.942578 5.0466e-19)
(-0.222592 -0.123231 -6.67293e-19)
(-0.255845 -0.311434 0)
(-0.215473 -0.151595 2.32221e-19)
(-0.167719 -0.044387 5.86234e-19)
(-0.0130942 0.0629025 -4.75802e-19)
(0.00464144 0.0878533 -5.23011e-19)
(3.36292 -1.50625 0)
(3.80516 -1.44778 1.67944e-19)
(3.39356 -1.23565 -7.74007e-20)
(3.29472 -1.16922 0)
(2.35911 -0.675196 -1.36864e-19)
(2.41215 -0.720925 -8.58442e-20)
(-0.132271 0.0695525 6.05309e-19)
(-0.178443 0.114852 -1.97762e-19)
(-0.251316 0.1715 5.04109e-19)
(2.45456 -0.861007 0)
(2.40425 -0.796422 4.51612e-19)
(2.2698 -1.21625 1.02489e-19)
(3.24687 0.848071 1.33559e-19)
(3.31527 0.810284 -1.47039e-19)
(3.23388 0.74003 -6.90342e-20)
(0.55645 -0.302847 2.40704e-20)
(0.855726 -0.519323 -4.07675e-19)
(2.76377 -1.85749 -1.01328e-19)
(2.47481 -1.68278 1.18995e-19)
(-0.24424 0.0892594 9.91862e-19)
(-0.34542 0.0748671 -3.83112e-19)
(2.88565 1.28165 5.07123e-21)
(2.61214 1.06726 -1.98148e-19)
(2.47773 1.39678 1.71755e-19)
(2.31843 1.50343 -6.34e-19)
(2.32371 1.5976 4.13467e-19)
(1.93953 1.3865 -2.68927e-20)
(1.99779 1.50485 -1.39202e-19)
(2.02776 1.57164 2.24306e-19)
(-0.361044 -1.83492 -1.77647e-19)
(-0.249911 -1.72015 -4.50765e-20)
(-0.430655 -1.61781 9.00057e-20)
(-0.650439 -2.01123 -1.26449e-18)
(-0.52114 -2.09553 1.65207e-18)
(1.09768 1.07175 -8.19878e-19)
(1.24288 1.21714 1.94778e-19)
(-0.296813 -0.00739808 0)
(2.51615 -0.0012403 0)
(2.42999 0.077492 -1.67915e-19)
(2.4021 0.176814 1.3679e-19)
(2.60893 0.148755 0)
(3.30343 0.722095 0)
(3.32642 0.740148 0)
(3.32147 0.767174 7.35495e-20)
(2.62769 0.407925 -4.5795e-20)
(2.60113 0.423929 4.78427e-19)
(2.62922 0.39216 2.53473e-19)
(-0.280017 -0.165469 1.40417e-18)
(-0.307952 -0.144835 -1.57516e-18)
(-0.0958966 -0.211243 -3.54438e-19)
(-0.340234 -0.468483 3.26283e-19)
(-0.290818 -0.444162 6.39313e-19)
(0.418127 0.360844 4.80522e-19)
(0.951428 0.295234 1.15302e-18)
(0.779076 0.809003 7.40632e-20)
(0.361208 0.739359 -2.82655e-18)
(3.04439 1.07614 1.50482e-20)
(2.67357 0.990107 2.97441e-19)
(2.65599 0.938732 -5.09925e-19)
(2.63904 -2.10431 -7.05087e-20)
(1.92874 -1.45475 9.45823e-20)
(0.384065 -0.183728 -1.39474e-18)
(0.453228 -0.344934 0)
(0.742132 -0.45276 7.84523e-19)
(1.81566 -1.43954 -4.86346e-20)
(2.22668 -1.95251 2.03799e-19)
(2.255 0.0641825 -3.5064e-20)
(2.30602 0.0605422 1.74292e-20)
(2.14179 0.0604572 1.1195e-21)
(1.47283 -2.19283 0)
(1.55668 -1.62584 0)
(2.57973 -0.164229 -7.4771e-20)
(2.53729 -0.1462 4.31717e-19)
(2.54263 -0.0626748 0)
(2.22381 -2.08769 0)
(2.24346 -1.82502 -8.25732e-20)
(1.96223 1.5273 6.0465e-19)
(0.250724 -0.388072 1.22842e-18)
(0.154973 -0.0147764 -9.47367e-19)
(2.16963 -1.98894 6.54207e-20)
(3.84902 -1.02416 -5.02449e-19)
(3.7932 -1.06161 8.8506e-20)
(3.86066 -0.663642 -1.57012e-19)
(3.94707 -0.641244 2.11423e-19)
(3.93918 -0.569324 7.65511e-19)
(0.0277659 0.160534 4.11115e-19)
(2.21236 1.58492 9.53918e-19)
(2.3171 1.43198 -2.3492e-19)
(2.65705 1.76316 -3.48872e-22)
(1.72636 -0.0483483 -4.05077e-21)
(1.72197 -0.0483286 -3.51764e-20)
(1.93625 -0.0590581 -3.19502e-21)
(1.93895 -0.0696776 1.10668e-20)
(1.95197 1.4844 6.82222e-20)
(1.22164 1.29971 0)
(0.469571 -1.68848 6.33889e-19)
(0.624707 -1.21311 -6.81878e-19)
(0.101144 -1.2937 4.18588e-19)
(1.44139 0.373211 -7.47088e-19)
(2.56439 0.760361 -3.37336e-19)
(2.14079 -0.0757748 3.16322e-21)
(3.48944 -1.72685 1.60086e-19)
(3.42745 -1.71222 4.6438e-19)
(2.37399 0.514972 5.94261e-19)
(2.24893 0.587786 4.5405e-20)
(2.29636 0.33566 3.24413e-19)
(2.34008 0.336459 -2.33241e-19)
(2.41604 0.532746 0)
(2.85606 0.233905 1.09417e-20)
(2.87868 0.242738 1.57126e-20)
(2.96595 -0.269289 6.40064e-20)
(2.99864 -0.283787 -1.18964e-19)
(2.65969 0.402943 5.46499e-20)
(2.68335 0.428455 -1.54215e-19)
(2.65617 0.418842 0)
(2.63371 0.391482 3.35719e-20)
(2.65071 0.43964 0)
(2.59688 0.531271 -1.3035e-19)
(2.60368 0.573538 -7.29283e-20)
(2.56667 0.602582 -1.39762e-19)
(2.59927 0.599333 0)
(2.62683 0.620452 4.52756e-19)
(2.57952 0.648934 1.4629e-20)
(2.52419 0.628042 -8.20569e-20)
(2.38619 0.710108 -3.66756e-19)
(2.40339 0.571056 -6.18194e-20)
(-1.04006 -0.250416 1.77298e-19)
(-0.804058 -0.112514 -6.90865e-20)
(-0.178674 -0.468472 -4.63305e-19)
(2.09176 0.0655688 3.21038e-20)
(2.36668 0.0652358 0)
(0.642703 -0.398264 6.81941e-19)
(0.485691 -0.346096 2.84111e-19)
(2.28288 0.0802181 -4.96973e-21)
(2.40628 0.0784057 -1.43764e-21)
(2.4121 0.0769012 0)
(2.2602 0.0774829 -2.90687e-21)
(2.12721 0.118289 4.32354e-20)
(1.99719 0.0249317 -1.96007e-19)
(2.18435 0.210995 -1.01818e-19)
(-0.304354 -0.0977741 6.43294e-19)
(0.120885 0.237972 -8.38109e-19)
(0.229218 0.381023 8.61545e-19)
(-0.145056 -0.0145243 0)
(-0.0547984 -0.00823917 9.60761e-19)
(-0.0267556 0.0301497 -8.53696e-19)
(-0.418921 -0.0679557 -8.36195e-19)
(-0.375815 -0.162433 -7.89394e-19)
(-0.2351 -0.102545 0)
(0.15572 0.521039 0)
(0.0767816 0.36833 0)
(0.0213038 0.202633 0)
(3.32336 0.716413 -1.42005e-20)
(3.32838 0.67372 0)
(3.34826 0.720606 1.67844e-20)
(2.33432 -0.328315 1.01357e-18)
(2.37211 -0.332737 -3.70485e-19)
(2.3693 -0.29244 0)
(2.72178 0.592845 -2.77251e-22)
(2.71966 0.565448 5.87868e-22)
(2.72346 0.620494 -2.15869e-22)
(2.71685 0.538735 0)
(2.71395 0.51264 -2.50566e-22)
(2.71058 0.487195 0)
(2.70469 0.491046 0)
(2.70729 0.462649 9.81968e-22)
(2.70238 0.466961 0)
(2.70651 0.515875 -3.57197e-22)
(2.70779 0.541427 0)
(2.7082 0.567484 2.56964e-22)
(2.70749 0.594106 -3.29187e-22)
(2.7055 0.620463 2.15583e-22)
(2.7036 0.439049 -9.3956e-22)
(2.69966 0.443513 -3.47435e-23)
(2.72392 0.648769 1.9554e-23)
(2.70224 0.64724 -3.46883e-22)
(2.72291 0.677296 1.4843e-21)
(2.70002 0.415964 6.66906e-25)
(2.69673 0.420206 -2.61896e-23)
(2.69589 0.673344 6.90492e-22)
(2.69614 0.393445 5.86841e-22)
(2.69257 0.371316 -5.86369e-22)
(2.69325 0.397717 6.14614e-23)
(2.68956 0.375776 8.50392e-23)
(2.72079 0.704694 -1.44379e-21)
(2.68672 0.697751 -4.50597e-22)
(2.68865 0.349844 0)
(2.68523 0.354582 -8.38533e-23)
(2.71461 0.731711 1.79934e-25)
(2.67444 0.720661 -1.80769e-25)
(2.68474 0.328735 0)
(2.68021 0.334033 0)
(2.70574 0.756498 0)
(2.65714 0.740173 0)
(2.68024 0.308351 0)
(2.67417 0.314413 1.20372e-23)
(2.69169 0.778405 -3.3826e-22)
(2.63437 0.755576 -1.31364e-25)
(2.67514 0.288497 2.75488e-25)
(2.66672 0.29575 -1.24319e-23)
(2.67221 0.795374 3.39858e-22)
(2.60468 0.764628 0)
(2.66932 0.269478 0)
(2.65812 0.278098 0)
(2.64535 0.805852 -1.13937e-23)
(2.56709 0.765771 2.13793e-22)
(2.66192 0.251365 -1.25484e-22)
(2.64756 0.261638 0)
(2.60992 0.807111 2.04848e-23)
(2.52014 0.756271 -2.03375e-22)
(2.65395 0.233942 2.16847e-22)
(2.63636 0.245694 7.51694e-23)
(2.56115 0.795223 -3.72298e-22)
(2.46282 0.734055 0)
(2.64346 0.217803 -9.09331e-23)
(2.62349 0.230595 -5.29995e-23)
(2.50496 0.770291 3.52715e-22)
(2.39374 0.695684 -5.22774e-22)
(2.63335 0.201612 5.55682e-22)
(2.61158 0.214737 -6.25991e-22)
(2.42611 0.721807 -7.58665e-22)
(2.31142 0.63826 -1.74178e-23)
(2.62146 0.18608 0)
(2.60074 0.198273 -3.97277e-22)
(2.34172 0.655746 1.54188e-21)
(2.21721 0.559602 -2.57797e-21)
(2.60945 0.170063 0)
(2.59104 0.18097 0)
(2.54206 0.795759 7.50489e-22)
(2.46618 0.741888 4.84899e-21)
(2.23401 0.560237 0)
(2.10699 0.455047 1.40747e-21)
(2.65162 0.842904 3.08009e-22)
(2.60609 0.82956 -6.39691e-23)
(2.71045 0.832052 0)
(2.68656 0.843078 3.69965e-22)
(2.73693 0.79017 -6.69892e-25)
(2.72673 0.813625 0)
(2.74482 0.734623 0)
(2.74275 0.763296 0)
(2.74263 0.674959 0)
(2.74513 0.704838 0)
(2.73581 0.616749 3.21693e-22)
(2.73973 0.645666 8.75766e-23)
(2.72709 0.56073 -3.09187e-22)
(2.73155 0.588357 -2.92739e-22)
(2.71804 0.50801 5.46965e-22)
(2.72256 0.534218 6.16576e-22)
(2.70911 0.457815 0)
(2.71345 0.482512 0)
(2.70048 0.410838 -1.4421e-24)
(2.7047 0.434049 0)
(2.69235 0.366063 0)
(2.69623 0.388215 0)
(2.68471 0.323348 0)
(2.6884 0.344502 0)
(2.67685 0.282506 0)
(2.6808 0.30273 0)
(2.66766 0.243773 0)
(2.67259 0.262847 0)
(2.65538 0.207801 0)
(2.66232 0.225322 0)
(2.63844 0.174526 2.71402e-22)
(2.64825 0.190681 0)
(2.62833 0.158372 1.05413e-22)
(2.59794 0.15383 -1.22255e-22)
(2.58399 0.161887 1.21235e-22)
(2.5921 0.226627 0)
(2.58167 0.18698 5.2327e-22)
(2.58464 0.20806 1.79718e-22)
(2.61468 0.258696 -2.23083e-23)
(2.60225 0.243341 1.41717e-22)
(2.6402 0.288872 -4.01175e-26)
(2.62735 0.273822 0)
(2.66158 0.321915 0)
(2.65136 0.304996 0)
(2.67654 0.359428 0)
(2.66966 0.340177 0)
(2.686 0.400923 0)
(2.68173 0.379766 2.18951e-28)
(2.69158 0.445536 2.838e-24)
(2.68918 0.422883 0)
(2.69429 0.49243 0)
(2.69323 0.468786 0)
(2.6936 0.541077 0)
(2.69432 0.516681 0)
(2.68764 0.590932 0)
(2.69149 0.566033 -2.40448e-22)
(2.67426 0.639842 5.14526e-23)
(2.68156 0.615585 -3.69743e-22)
(2.64724 0.683142 0)
(2.66225 0.662338 -2.8881e-22)
(2.60298 0.715055 0)
(2.62789 0.70128 0)
(2.53282 0.724498 0)
(2.57165 0.723515 0)
(2.42881 0.696661 0)
(2.48549 0.716347 0)
(2.28561 0.614693 9.58193e-23)
(2.36315 0.664089 0)
(2.10121 0.461686 1.05709e-21)
(2.2002 0.549265 7.53394e-23)
(1.99368 0.352721 -1.43886e-21)
(2.3723 0.662316 -5.36233e-21)
(2.61704 0.142714 -2.36938e-22)
(2.5828 0.163387 6.5474e-22)
(1.98882 0.326924 0)
(1.88127 0.224706 0)
(2.26403 0.556468 0)
(2.1174 0.440061 0)
(2.64992 0.855828 0)
(2.51318 0.756825 -1.54893e-21)
(2.5889 0.817775 -8.77311e-22)
(2.72829 0.875337 -7.24464e-22)
(2.6956 0.873603 1.67381e-22)
(2.7624 0.84642 -1.03308e-24)
(2.74939 0.865032 0)
(2.77159 0.794225 0)
(2.76925 0.822109 0)
(2.76754 0.733247 0)
(2.77065 0.764186 0)
(2.7574 0.671167 0)
(2.76291 0.701969 0)
(2.74487 0.611448 0)
(2.75135 0.640938 0)
(2.73222 0.555115 -1.16595e-24)
(2.73852 0.582945 3.04111e-22)
(2.72026 0.502578 -8.45456e-25)
(2.72612 0.528352 -5.68488e-22)
(2.70929 0.453004 0)
(2.7146 0.477408 0)
(2.69938 0.40647 6.51725e-25)
(2.70419 0.429436 0)
(2.69047 0.362182 0)
(2.69474 0.384074 0)
(2.68259 0.319831 0)
(2.68636 0.340798 0)
(2.67543 0.279028 0)
(2.67888 0.299259 0)
(2.66837 0.239697 0)
(2.67188 0.259166 0)
(2.66017 0.202237 0)
(2.66447 0.220704 0)
(2.64904 0.166866 -1.80745e-22)
(2.65512 0.184291 0)
(2.58912 0.135959 0)
(2.60669 0.126762 -2.84364e-22)
(2.63333 0.133746 0)
(2.64185 0.150064 -2.03545e-22)
(2.5894 0.183918 -5.05444e-22)
(2.60169 0.154629 -1.60162e-22)
(2.59146 0.136229 -1.18859e-21)
(2.58183 0.140198 0)
(2.5811 0.233203 0)
(2.58193 0.210372 7.29361e-22)
(2.59261 0.270731 -8.84872e-25)
(2.58438 0.253221 -1.42631e-22)
(2.6155 0.301688 4.01172e-26)
(2.6028 0.286836 0)
(2.64 0.332209 0)
(2.62757 0.316922 0)
(2.65956 0.366197 0)
(2.65024 0.348793 0)
(2.67201 0.404741 0)
(2.66641 0.385007 -2.18949e-28)
(2.67795 0.447132 -5.95851e-24)
(2.67556 0.425576 0)
(2.67848 0.49202 0)
(2.67876 0.469366 0)
(2.67349 0.538274 1.41772e-22)
(2.67668 0.515091 0)
(2.66143 0.584231 0)
(2.66867 0.561438 -1.41139e-22)
(2.63922 0.62745 3.10217e-22)
(2.65157 0.606441 3.02933e-22)
(2.60178 0.662824 0)
(2.6221 0.64632 0)
(2.54343 0.683038 0)
(2.57534 0.675435 0)
(2.45733 0.676984 0)
(2.5041 0.68416 0)
(2.33748 0.630567 0)
(2.40178 0.659791 0)
(2.18154 0.529237 1.92789e-24)
(2.26396 0.587649 0)
(1.99477 0.363067 -8.98323e-26)
(2.0917 0.454869 0)
(1.79141 0.129425 6.27135e-22)
(1.89272 0.253163 -6.2669e-22)
(2.41945 0.668512 -3.95869e-21)
(1.76726 0.0786211 0)
(1.69535 -0.00674654 1.96274e-21)
(1.86655 0.180563 0)
(2.62434 0.11788 0)
(2.62238 0.121426 1.7285e-22)
(2.14364 0.425629 -1.01815e-20)
(2.3099 0.552495 -4.94231e-21)
(1.66427 -0.075574 -1.61539e-21)
(1.61797 -0.14262 -2.72394e-21)
(1.99195 0.297858 0)
(2.64391 0.127638 -8.75247e-22)
(2.63766 0.111092 4.53407e-22)
(2.6039 0.107309 3.54567e-22)
(2.64532 0.0871887 -1.85211e-21)
(2.47368 0.670082 -1.6656e-20)
(2.18721 0.409737 9.18797e-21)
(2.24692 0.398624 5.63129e-20)
(2.3642 0.545582 1.03217e-20)
(2.64346 0.835113 -3.2873e-21)
(2.56791 0.766682 1.29774e-20)
(2.74421 0.899313 2.60879e-21)
(2.70179 0.878008 2.74689e-21)
(2.79312 0.894632 3.07495e-22)
(2.77447 0.903661 4.7083e-22)
(2.8063 0.851562 1.03308e-24)
(2.80295 0.876266 0)
(2.80043 0.791633 0)
(2.80496 0.822763 0)
(2.78607 0.727029 0)
(2.79387 0.759427 0)
(2.76893 0.663702 0)
(2.77763 0.694988 0)
(2.75172 0.603897 0)
(2.76023 0.633304 0)
(2.73564 0.548021 0)
(2.74349 0.575494 0)
(2.72118 0.496012 1.73406e-25)
(2.72821 0.521571 0)
(2.70841 0.447297 0)
(2.71457 0.471254 0)
(2.69723 0.401461 3.95265e-25)
(2.70262 0.424067 0)
(2.68752 0.357856 0)
(2.69218 0.37941 0)
(2.67924 0.316061 0)
(2.68318 0.336756 0)
(2.67221 0.275696 0)
(2.67554 0.295717 0)
(2.6661 0.236529 0)
(2.669 0.255962 0)
(2.66028 0.198635 0)
(2.66313 0.217406 0)
(2.65349 0.162208 -9.13968e-23)
(2.65698 0.180193 4.41671e-23)
(2.64898 0.144713 4.24997e-22)
(2.58381 0.116749 1.33723e-22)
(2.61525 0.102096 -5.32532e-22)
(2.59743 0.110368 3.83017e-22)
(2.58441 0.116696 0)
(2.61953 0.168844 4.77519e-22)
(2.67434 0.0963714 1.61548e-21)
(2.64427 0.133706 -1.1651e-21)
(2.58717 0.229819 0)
(2.60045 0.200866 0)
(2.57861 0.277026 -1.52992e-25)
(2.57973 0.255079 0)
(2.58942 0.313361 0)
(2.58163 0.296459 0)
(2.61049 0.344236 -7.42346e-25)
(2.59885 0.329299 0)
(2.63224 0.375288 0)
(2.62141 0.359601 0)
(2.64825 0.409899 0)
(2.64093 0.392139 0)
(2.656 0.448626 3.12208e-24)
(2.65301 0.428845 0)
(2.65545 0.490212 4.17524e-24)
(2.65663 0.469186 0)
(2.64652 0.532806 0)
(2.65201 0.511537 0)
(2.62789 0.573964 0)
(2.63855 0.553742 0)
(2.59653 0.610258 0)
(2.61401 0.593027 0)
(2.54794 0.636216 0)
(2.57457 0.624916 0)
(2.47646 0.643826 -6.16937e-24)
(2.51524 0.642908 0)
(2.37655 0.622181 0)
(2.4302 0.637437 0)
(2.24457 0.558552 0)
(2.3145 0.596419 0)
(2.08193 0.441494 1.62419e-24)
(2.16656 0.507227 0)
(1.90008 0.26699 -2.14704e-24)
(1.9921 0.361203 0)
(1.7263 0.0465179 1.16535e-24)
(1.80989 0.161163 0)
(1.61163 -0.183603 5.19218e-22)
(1.65719 -0.0712799 9.74554e-23)
(1.56562 -0.268657 -3.51019e-22)
(1.59632 -0.280307 -2.09674e-22)
(2.01536 0.271962 3.611e-21)
(1.7447 0.0158322 2.28215e-21)
(2.63091 0.0948859 -1.24943e-22)
(2.70675 0.0581604 -1.2952e-21)
(2.04483 0.233641 -1.43285e-21)
(1.58021 -0.227 0)
(2.09237 0.184328 -8.93963e-20)
(1.61283 -0.358072 -6.4063e-22)
(1.54566 -0.377105 -2.23614e-21)
(2.26029 0.290278 1.75689e-19)
(2.20793 0.174582 -3.26271e-20)
(1.86502 0.137477 0)
(2.44083 0.554541 -1.42608e-20)
(2.35284 0.428191 -8.17231e-21)
(2.63025 0.773418 -1.0829e-20)
(2.53783 0.672754 1.88861e-20)
(2.76415 0.896692 3.59824e-21)
(2.70713 0.84833 2.32051e-21)
(2.83071 0.928826 -1.28512e-21)
(2.8046 0.92218 -1.82083e-21)
(2.8509 0.902847 0)
(2.84554 0.921067 9.3579e-23)
(2.84389 0.848225 0)
(2.84969 0.877715 0)
(2.82448 0.783109 -6.68933e-25)
(2.83508 0.816234 0)
(2.80119 0.716888 0)
(2.81299 0.749788 0)
(2.77809 0.653647 0)
(2.78948 0.684776 0)
(2.75679 0.594602 0)
(2.76717 0.623582 0)
(2.73778 0.539749 5.65245e-25)
(2.74699 0.566673 0)
(2.72113 0.488737 1.59686e-25)
(2.72916 0.513796 0)
(2.7067 0.441004 0)
(2.71364 0.464491 0)
(2.69432 0.396029 -6.73745e-25)
(2.70026 0.418208 0)
(2.68379 0.353237 0)
(2.68882 0.374392 0)
(2.67502 0.312179 0)
(2.67918 0.332514 0)
(2.66784 0.272489 0)
(2.67121 0.292187 0)
(2.66209 0.233856 0)
(2.66476 0.253057 0)
(2.65746 0.196172 0)
(2.65961 0.214898 0)
(2.65324 0.159542 4.75042e-23)
(2.6553 0.177697 0)
(2.6482 0.12417 0)
(2.65082 0.141694 1.04806e-22)
(2.64096 0.0903331 1.08865e-24)
(2.64483 0.107019 0)
(2.60661 0.0863241 5.40283e-22)
(2.63618 0.0739245 -3.16729e-23)
(2.62348 0.0790142 -2.72843e-22)
(2.58258 0.0960499 -2.29777e-22)
(2.59053 0.0930046 1.54316e-22)
(2.62347 0.0756052 8.48886e-23)
(2.59255 0.090876 -9.64231e-23)
(2.74347 0.0192035 0)
(2.67509 0.0508824 8.17625e-22)
(2.74451 0.0629231 3.63476e-22)
(2.82175 -0.0158765 7.57832e-22)
(2.78401 0.0225884 -1.73779e-21)
(2.67338 0.141743 1.55762e-22)
(2.70923 0.102099 0)
(2.61701 0.213468 0)
(2.6441 0.178367 0)
(2.58274 0.27286 -1.59099e-25)
(2.59746 0.244658 0)
(2.57195 0.318851 0)
(2.57476 0.297396 0)
(2.57952 0.354533 7.42347e-25)
(2.57392 0.337712 0)
(2.59616 0.385426 0)
(2.58721 0.370282 0)
(2.6125 0.416615 0)
(2.60474 0.400796 0)
(2.62199 0.45066 0)
(2.61827 0.433264 0)
(2.62153 0.487372 2.68349e-25)
(2.62303 0.468783 0)
(2.60978 0.524787 0)
(2.61708 0.50617 0)
(2.58526 0.559796 0)
(2.59922 0.542824 0)
(2.5453 0.588082 0)
(2.5674 0.575113 0)
(2.48595 0.603615 0)
(2.51829 0.597892 0)
(2.40257 0.598154 6.16937e-24)
(2.44747 0.604095 0)
(2.2913 0.561402 0)
(2.35048 0.584365 0)
(2.15153 0.482636 0)
(2.22469 0.527858 0)
(1.98994 0.354675 -3.55151e-24)
(2.0725 0.42493 0)
(1.82636 0.180994 2.23687e-24)
(1.9064 0.272651 0)
(1.69887 -0.0153168 -1.15215e-24)
(1.75498 0.0832875 0)
(1.6559 -0.192558 2.63541e-22)
(1.66435 -0.109172 -3.56769e-22)
(1.71625 -0.316806 -3.91565e-22)
(1.67466 -0.261296 8.97165e-23)
(1.65473 -0.417591 -3.81822e-23)
(1.7658 -0.365933 2.55587e-22)
(1.87694 0.0926852 4.16569e-21)
(1.64102 -0.14784 0)
(1.90803 0.0458388 5.90948e-20)
(1.52535 -0.360967 0)
(2.64489 0.088222 1.32583e-22)
(2.64298 0.0714752 -9.5863e-23)
(2.7791 -0.0179699 8.00369e-22)
(2.85799 -0.0523526 8.81429e-22)
(1.84639 -0.0746674 6.72103e-20)
(1.56006 -0.461554 2.25797e-21)
(2.01516 -0.0343623 0)
(2.4219 0.390754 2.32625e-20)
(1.70919 -0.46687 2.81963e-22)
(1.81246 -0.418433 2.3811e-22)
(2.30444 0.217969 -4.48243e-20)
(1.74145 -0.0364653 0)
(2.61833 0.660921 0)
(2.52435 0.53623 1.88103e-20)
(2.78307 0.84939 0)
(2.70889 0.76779 0)
(2.87411 0.935456 0)
(2.8378 0.904557 -2.40437e-21)
(2.90508 0.940518 0)
(2.89563 0.945898 0)
(2.89824 0.898863 0)
(2.90501 0.923596 0)
(2.87345 0.836961 0)
(2.88713 0.869265 0)
(2.84296 0.7696 6.68933e-25)
(2.85845 0.803405 0)
(2.81262 0.70356 0)
(2.82757 0.736183 0)
(2.78479 0.641425 0)
(2.79833 0.671941 0)
(2.76016 0.583746 0)
(2.77207 0.612032 0)
(2.73867 0.530282 -1.65032e-25)
(2.74903 0.556514 0)
(2.72013 0.480545 1.4588e-25)
(2.72905 0.50498 0)
(2.70424 0.433985 0)
(2.71187 0.456902 0)
(2.69075 0.390063 1.08632e-25)
(2.69721 0.411727 0)
(2.67942 0.348253 0)
(2.68482 0.368925 0)
(2.6701 0.308105 0)
(2.67451 0.327995 0)
(2.66266 0.269252 0)
(2.66615 0.288541 0)
(2.65696 0.23138 0)
(2.65959 0.250212 0)
(2.65286 0.194315 0)
(2.65472 0.212754 0)
(2.64998 0.158088 0)
(2.6513 0.176086 0)
(2.64769 0.122679 -1.15124e-22)
(2.64884 0.140238 -1.06411e-22)
(2.64645 0.105248 2.43962e-22)
(2.59932 0.0700622 3.05717e-22)
(2.63135 0.0578911 0)
(2.61638 0.0634131 2.76093e-22)
(2.58591 0.073685 0)
(2.58664 0.0746484 -3.12122e-22)
(2.64553 0.0438776 -5.91986e-22)
(2.60512 0.0637572 1.93781e-22)
(2.70545 0.0154348 1.17785e-21)
(2.8269 0.0245884 -1.78545e-22)
(2.90121 -0.0502804 -7.18523e-22)
(2.86789 -0.014893 0)
(2.74814 0.104975 3.41589e-22)
(2.79007 0.0636395 -3.42642e-22)
(2.67339 0.184182 0)
(2.71111 0.144752 0)
(2.61363 0.254918 -1.26004e-25)
(2.642 0.220729 0)
(2.57546 0.312782 0)
(2.59208 0.285508 0)
(2.55944 0.357512 0)
(2.56507 0.336643 0)
(2.56003 0.392609 0)
(2.55823 0.375979 0)
(2.56815 0.423144 0)
(2.56375 0.408166 0)
(2.57471 0.453162 3.68938e-24)
(2.57209 0.438075 0)
(2.57298 0.484113 -4.44359e-24)
(2.57516 0.468544 0)
(2.55884 0.514823 0)
(2.56761 0.499658 0)
(2.52949 0.542112 0)
(2.5462 0.529157 0)
(2.48215 0.561133 0)
(2.50823 0.553014 0)
(2.41358 0.565425 0)
(2.4507 0.565584 0)
(2.32068 0.546865 0)
(2.37028 0.559548 0)
(2.20236 0.4964 0)
(2.26456 0.526149 0)
(2.06281 0.406461 -7.11429e-24)
(2.13458 0.456644 0)
(1.9163 0.275825 6.64187e-24)
(1.98892 0.345854 0)
(1.7916 0.116447 -6.16993e-24)
(1.84878 0.198275 0)
(1.72852 -0.0432529 0)
(1.74987 0.0343854 0)
(1.75163 -0.171451 0)
(1.72963 -0.112453 0)
(1.83203 -0.271693 4.21248e-24)
(1.7884 -0.222694 3.61558e-22)
(1.8955 -0.388062 -1.27803e-21)
(1.86926 -0.325215 0)
(1.84796 -0.480008 -3.68448e-22)
(1.91171 -0.460326 3.60432e-22)
(1.74723 -0.0963923 -1.5943e-20)
(1.55555 -0.305675 0)
(2.64067 0.0549675 5.37267e-22)
(2.93329 -0.0833979 1.40802e-21)
(1.72944 -0.189821 9.98051e-21)
(1.87327 -0.172134 -2.18899e-21)
(1.75822 -0.26329 -3.54402e-20)
(1.50213 -0.476094 0)
(1.60046 -0.521704 -5.32933e-22)
(2.11049 -0.0111387 4.37967e-20)
(1.92804 -0.230428 -3.31405e-20)
(1.80577 -0.317391 3.21558e-20)
(1.76248 -0.516299 4.56857e-22)
(1.86795 -0.553542 -2.89859e-22)
(1.92217 -0.539511 7.71067e-22)
(1.63068 -0.215199 0)
(2.60113 0.500449 -1.26685e-21)
(2.29642 0.120494 1.62298e-21)
(2.46552 0.323822 -1.04078e-20)
(2.79597 0.756341 -8.58108e-21)
(2.70979 0.643034 8.64052e-21)
(2.91809 0.906707 -1.14869e-23)
(2.86786 0.845087 0)
(2.96397 0.956071 0)
(2.94866 0.942243 0)
(2.96192 0.937966 0)
(2.96749 0.953131 0)
(2.9335 0.885334 0)
(2.94982 0.914351 0)
(2.89534 0.819692 -2.00796e-24)
(2.91489 0.853226 0)
(2.85662 0.752276 0)
(2.87574 0.78581 0)
(2.82094 0.687695 0)
(2.83829 0.719491 0)
(2.78942 0.627419 0)
(2.80464 0.65699 0)
(2.76207 0.57158 0)
(2.77524 0.598961 0)
(2.73852 0.519806 -4.00214e-25)
(2.74984 0.545215 0)
(2.71836 0.471575 1.31702e-25)
(2.72804 0.495279 0)
(2.70119 0.426359 0)
(2.70942 0.448623 0)
(2.68668 0.383643 2.39849e-25)
(2.69362 0.40472 0)
(2.67458 0.342938 0)
(2.68034 0.363068 0)
(2.6647 0.303818 0)
(2.66937 0.323204 0)
(2.65691 0.265923 0)
(2.66055 0.284738 0)
(2.65109 0.228963 0)
(2.65376 0.247343 0)
(2.64715 0.192739 0)
(2.6489 0.210769 0)
(2.64493 0.157173 -1.62739e-24)
(2.64585 0.174876 0)
(2.6441 0.122308 1.15617e-22)
(2.64438 0.139665 0)
(2.64411 0.0879088 -1.24711e-22)
(2.64406 0.105027 0)
(2.64409 0.0543589 -1.336e-22)
(2.64414 0.071044 1.29785e-22)
(2.62597 0.0425216 -2.79347e-22)
(2.64372 0.038066 0)
(2.63784 0.0389212 -3.99879e-22)
(2.59419 0.0532476 0)
(2.60979 0.0479243 0)
(2.59365 0.049976 0)
(2.58642 0.0550454 0)
(2.67191 0.0115066 0)
(2.62243 0.0353762 0)
(2.81467 -0.0531662 -8.15926e-22)
(2.73856 -0.0194284 -2.06564e-22)
(2.96073 -0.112376 -1.75595e-22)
(2.89126 -0.0853416 -1.55732e-21)
(2.9742 -0.0798494 -8.65151e-22)
(3.0168 -0.131731 -1.39011e-22)
(2.99776 -0.107794 3.22833e-22)
(2.9123 -0.013368 -1.73797e-22)
(2.9459 -0.0484202 1.06936e-21)
(2.83573 0.0636125 1.14997e-25)
(2.87623 0.0238422 0)
(2.75256 0.145123 0)
(2.79471 0.104173 0)
(2.67376 0.22354 -5.31535e-26)
(2.71223 0.185134 0)
(2.60919 0.292239 0)
(2.63941 0.259388 0)
(2.56448 0.347854 0)
(2.58435 0.321737 0)
(2.53935 0.39092 0)
(2.54978 0.370797 0)
(2.52812 0.424801 0)
(2.53253 0.408752 0)
(2.52222 0.453513 -7.44477e-24)
(2.52508 0.439592 0)
(2.513 0.479632 0)
(2.51851 0.466828 0)
(2.49355 0.503193 0)
(2.5049 0.491829 0)
(2.45891 0.521681 0)
(2.47836 0.513311 0)
(2.40548 0.530434 0)
(2.4347 0.527624 0)
(2.33068 0.523142 -7.83401e-24)
(2.37083 0.529226 0)
(2.23372 0.492499 0)
(2.28487 0.511187 0)
(2.11777 0.431712 0)
(2.17764 0.466179 0)
(1.99356 0.337678 7.11428e-24)
(2.05558 0.388745 0)
(1.88283 0.215852 1.38141e-24)
(1.93465 0.279404 0)
(1.8166 0.0838263 1.39184e-23)
(1.84212 0.149575 0)
(1.81862 -0.035281 0)
(1.80877 0.0215363 0)
(1.87508 -0.135338 0)
(1.84287 -0.0866673 0)
(1.93335 -0.241574 1.17918e-24)
(1.90748 -0.185644 0)
(1.95849 -0.375481 0)
(1.94983 -0.305102 0)
(1.97124 -0.528322 -6.6237e-22)
(1.96437 -0.450818 0)
(1.93072 -0.619585 4.38372e-22)
(1.9802 -0.605752 4.46173e-22)
(1.62259 -0.296937 0)
(2.11714 -0.097582 -5.9404e-20)
(1.64175 -0.371647 -6.8834e-21)
(2.64267 0.0557317 1.33403e-22)
(2.64403 0.0396446 0)
(2.98311 -0.13717 -1.54172e-22)
(3.03012 -0.151825 3.34532e-22)
(1.49549 -0.450242 0)
(1.51201 -0.56247 0)
(1.61708 -0.451229 0)
(1.65648 -0.569455 5.24805e-22)
(1.80185 -0.575413 2.8692e-22)
(1.88148 -0.633133 0)
(1.9426 -0.698532 -2.93341e-22)
(1.99111 -0.68265 -2.76837e-22)
(1.5393 -0.388149 0)
(2.52397 0.25848 5.17575e-24)
(1.95192 -0.31396 -1.95734e-20)
(2.18242 -0.155025 7.0884e-20)
(2.35285 0.0546166 -2.07217e-20)
(2.78582 0.595934 6.09106e-21)
(2.6657 0.438286 1.03164e-20)
(2.94711 0.820136 0)
(2.87872 0.722888 0)
(3.02514 0.933171 1.14891e-23)
(2.99649 0.889923 0)
(3.03506 0.954755 0)
(3.03659 0.953127 0)
(3.00681 0.921822 0)
(3.02419 0.942936 0)
(2.96143 0.863724 0)
(2.98525 0.894596 0)
(2.91261 0.797645 2.00796e-24)
(2.93687 0.830984 0)
(2.86718 0.732 0)
(2.88928 0.76449 0)
(2.82712 0.66987 0)
(2.84645 0.700414 0)
(2.79255 0.612023 0)
(2.80918 0.640403 0)
(2.76293 0.558372 0)
(2.77716 0.584693 0)
(2.73763 0.508513 1.23529e-25)
(2.74978 0.532998 0)
(2.71606 0.461957 1.17687e-25)
(2.72641 0.484852 0)
(2.69774 0.418215 0)
(2.70652 0.439764 0)
(2.68231 0.37681 -9.09273e-26)
(2.68969 0.397248 0)
(2.66947 0.337304 0)
(2.67558 0.356846 0)
(2.65902 0.299299 0)
(2.66395 0.318136 0)
(2.65081 0.26246 0)
(2.65464 0.280751 0)
(2.64474 0.226514 0)
(2.64751 0.244389 0)
(2.64074 0.191258 0)
(2.64248 0.208807 0)
(2.63874 0.156585 3.30225e-24)
(2.63949 0.173847 0)
(2.63858 0.122512 1.88465e-24)
(2.63844 0.139459 0)
(2.64004 0.0889099 -2.49762e-22)
(2.63912 0.105646 2.55419e-22)
(2.64123 0.0722102 -2.6186e-22)
(2.62097 0.0273896 -7.2464e-23)
(2.64328 0.0225267 -1.77054e-23)
(2.63495 0.0236936 2.14875e-22)
(2.59174 0.0356933 0)
(2.60454 0.0322622 0)
(2.60568 0.024976 2.89895e-27)
(2.58992 0.0342603 0)
(2.70037 -0.0202305 0)
(2.64351 0.00637653 0)
(2.8472 -0.0848302 -4.03302e-22)
(2.77072 -0.051951 4.17022e-22)
(2.92059 -0.114316 3.08603e-23)
(3.03193 -0.10107 2.08295e-23)
(3.0553 -0.142436 3.13199e-22)
(3.04607 -0.123671 -4.20767e-23)
(2.98774 -0.0451205 1.61379e-22)
(3.0124 -0.0749114 -1.61595e-22)
(2.92341 0.0240132 2.48462e-24)
(2.9582 -0.0121729 0)
(2.84388 0.102197 1.89365e-24)
(2.88531 0.062254 0)
(2.7577 0.182678 5.34744e-26)
(2.80113 0.142573 0)
(2.67506 0.258209 0)
(2.71542 0.221447 0)
(2.60459 0.32328 0)
(2.63797 0.29227 0)
(2.5507 0.375532 0)
(2.57556 0.351014 0)
(2.51247 0.415766 0)
(2.52993 0.397001 0)
(2.48448 0.446584 3.75539e-24)
(2.49768 0.432162 0)
(2.45898 0.470493 4.86513e-24)
(2.47195 0.459288 0)
(2.42819 0.488324 0)
(2.4447 0.480194 0)
(2.38575 0.498559 0)
(2.40874 0.494565 0)
(2.32744 0.497477 0)
(2.35874 0.499719 0)
(2.25167 0.479872 7.83401e-24)
(2.2917 0.491077 0)
(2.1606 0.44033 -8.72542e-24)
(2.20769 0.463118 0)
(2.06228 0.375421 0)
(2.11153 0.411072 0)
(1.97272 0.286955 0)
(2.01507 0.33369 0)
(1.91454 0.184736 1.11169e-24)
(1.93822 0.236623 0)
(1.90641 0.0836996 -1.66315e-23)
(1.90375 0.133227 0)
(1.94282 -0.00950995 0)
(1.92085 0.0364853 0)
(1.98725 -0.108642 0)
(1.96674 -0.0569493 0)
(2.00818 -0.231136 7.44292e-25)
(2.00124 -0.166692 0)
(2.01114 -0.37309 0)
(2.01043 -0.30068 0)
(2.01879 -0.520524 5.63618e-22)
(2.01321 -0.44672 0)
(2.03786 -0.668541 2.80693e-22)
(2.02662 -0.594392 -7.24495e-22)
(1.6105 -0.569825 4.9288e-20)
(1.78237 -0.447526 5.3661e-20)
(2.00384 -0.760302 2.28001e-22)
(2.05009 -0.743234 -2.2794e-22)
(1.53607 -0.46598 0)
(2.6456 0.0239571 -2.6017e-22)
(3.06004 -0.158004 1.15926e-21)
(2.00918 -0.363885 -1.59579e-20)
(1.46606 -0.570509 0)
(1.776 -0.534379 -4.56386e-21)
(1.51601 -0.558978 0)
(1.54967 -0.625927 0)
(1.52915 -0.614868 0)
(1.71265 -0.61447 0)
(1.82588 -0.646131 0)
(1.89082 -0.71285 1.68549e-23)
(1.95483 -0.776948 4.57001e-22)
(2.01816 -0.838348 0)
(2.06572 -0.81915 1.49382e-21)
(1.47403 -0.538568 0)
(2.4444 0.0129538 -3.67398e-20)
(1.8437 -0.562007 -5.55681e-20)
(2.10144 -0.387449 -3.88563e-20)
(2.28037 -0.186111 3.97295e-20)
(2.75593 0.398225 -2.7051e-21)
(2.60599 0.211895 1.34387e-20)
(2.97002 0.693475 -4.74624e-21)
(2.87381 0.558867 5.11733e-24)
(3.08869 0.87489 -1.42542e-23)
(3.04105 0.798781 0)
(3.1228 0.948988 -1.06032e-23)
(3.11545 0.923929 0)
(3.09621 0.944802 0)
(3.11484 0.954282 0)
(3.04207 0.898998 0)
(3.07095 0.925128 0)
(2.98136 0.83724 0)
(3.01173 0.869075 0)
(2.92413 0.772312 0)
(2.95197 0.804714 0)
(2.87393 0.709517 0)
(2.8981 0.740491 0)
(2.83088 0.650481 0)
(2.85156 0.679495 0)
(2.79414 0.595451 0)
(2.81178 0.622469 0)
(2.7628 0.544236 0)
(2.77785 0.569385 0)
(2.73608 0.496468 -1.13034e-25)
(2.74891 0.519946 0)
(2.71332 0.451721 1.31413e-25)
(2.72424 0.473744 0)
(2.69402 0.409559 0)
(2.70327 0.430344 0)
(2.67775 0.369561 1.23991e-25)
(2.68552 0.389315 0)
(2.66421 0.331332 0)
(2.67066 0.350248 0)
(2.65319 0.294515 0)
(2.6584 0.312768 0)
(2.64452 0.258802 0)
(2.64857 0.276538 0)