/*--------------------------------*- C++ -*----------------------------------*\
  =========                 |
  \\      /  F ield         | OpenFOAM: The Open Source CFD Toolbox
   \\    /   O peration     | Website:  https://openfoam.org
    \\  /    A nd           | Version:  10
     \\/     M anipulation  |
\*---------------------------------------------------------------------------*/
FoamFile
{
    format      ascii;
    class       volScalarField;
    location    "29";
    object      p;
}
// * * * * * * * * * * * * * * * * * * * * * * * * * * * * * * * * * * * * * //

dimensions      [0 2 -2 0 0 0 0];

internalField   nonuniform List<scalar> 
28942
(
-0.00356935
-0.0029229
0.00230308
0.00986409
0.0101645
0.00014967
0.000423569
5.49324e-05
0.00307121
0.00315945
-0.00207338
-0.00234518
-0.00273908
-0.00265577
0.000276608
0.000655708
0.0102062
0.0104761
0.00589842
0.00745562
0.00847466
0.00846825
-0.0050554
-0.00486729
-0.00339828
-0.00361138
0.0142134
0.014162
0.00382839
0.00377647
3.88677e-05
8.18035e-05
0.00107669
0.000458764
0.00745009
0.00865912
0.0112048
0.0131705
2.38359e-05
0.0153729
0.0094648
0.0119625
0.00255217
0.00251005
0.00252925
0.000410265
0.000251281
0.000328788
0.000379337
0.00054
0.000990166
0.00321126
0.00327718
0.00319713
0.00335658
-0.00213456
-0.000837327
-0.0031573
-0.00300116
-0.00328214
-0.00335292
-0.00335318
-0.00324858
0.000133707
-0.00159901
-0.000100614
0.00125225
0.00975023
0.00925359
-0.00314931
-0.00336512
-0.00309377
0.00931079
0.00916431
0.00945577
-0.0012498
-0.000855054
-0.000494249
0.00264696
0.00304724
0.00212407
0.00101432
-0.00615651
-0.00740378
0.00134525
0.00408724
0.00513504
0.00592743
0.00430102
0.00443312
0.00641061
0.00578142
-0.00107572
-0.00139063
-0.00168885
-0.00151315
-0.00132108
0.00563193
0.0069299
-0.00771602
0.0116616
0.0108627
0.00615664
0.00975441
0.00126417
0.0012046
0.0010847
0.00580798
0.00600039
0.00599336
-0.00299629
-0.00291486
-0.00291491
-0.00238348
-0.00249511
0.0161681
0.014161
0.0135981
0.015233
0.00191576
0.00502193
0.00371142
0.00537684
0.00505592
0.0158429
0.0161368
0.0147909
0.00622556
0.00730621
0.000285047
0.000408157
0.000178488
0.0108251
0.0113304
0.00804192
0.00769427
0.0131509
0.00700716
0.00830429
0.00936275
-0.00160831
-0.00214843
0.00767551
0.00248391
0.00253678
-0.000936877
-0.00118975
-0.000717521
-0.00225449
0.00689278
0.00601693
0.00398523
0.000360246
0.000291084
0.00013729
0.000296746
0.00783534
0.0071002
-0.0015708
-0.0016971
-0.00158521
-0.00396132
-0.00349154
0.000115048
-0.00264631
-0.000277546
0.00871585
0.00882312
0.00992246
0.00945692
0.00803099
0.00348751
0.00340972
0.00362144
0.00350311
0.00538244
0.00515982
0.00549245
0.005713
0.00564802
0.00571101
0.00592022
0.00647131
0.00616673
0.00576165
0.00609095
0.00679763
0.00754764
0.00784241
-0.000214945
-0.000208185
-0.00222324
0.00031052
0.000124174
-0.00171593
-0.00181018
0.000422791
0.000479244
0.000435153
0.00036436
0.00227319
0.00225783
0.00223559
-0.00268298
-0.00287794
-0.00252354
-0.00414405
-0.00463937
-0.00393042
-0.00453349
-0.00631973
-0.00499872
0.0163623
0.0170746
0.0168408
0.00133791
0.00148622
0.00136123
0.0106779
0.0102506
0.010331
0.00176114
0.00173966
0.00178261
0.00171824
0.00169694
0.00167578
0.00167652
0.00165474
0.00165583
0.0016974
0.00171867
0.00174004
0.00176166
0.00178304
0.00163405
0.00163505
0.00180422
0.00180478
0.0018263
0.00161353
0.00161411
0.00182677
0.00159284
0.00157223
0.00159344
0.00157285
0.00184794
0.00184863
0.00155171
0.00155235
0.00186981
0.00187072
0.00153128
0.00153191
0.00189198
0.00189298
0.00151092
0.00151155
0.00191435
0.00191538
0.00149068
0.00149121
0.0019369
0.00193794
0.0014705
0.00147095
0.00195976
0.00196054
0.00145036
0.00145076
0.00198261
0.00198334
0.00143024
0.00143059
0.00200595
0.00200651
0.00141015
0.00141031
0.00202938
0.00202989
0.00139017
0.00138979
0.00205342
0.00205368
0.00136978
0.00136936
0.00207768
0.0020779
0.00134867
0.00134877
0.00205273
0.00207705
0.00210247
0.00210242
0.00200507
0.00202889
0.00195886
0.00198207
0.00191368
0.00193617
0.00186912
0.00189134
0.00182493
0.001847
0.00178202
0.00180368
0.0017392
0.00176037
0.00169673
0.00171798
0.00165443
0.00167559
0.00161287
0.00163362
0.00157162
0.00159221
0.00153072
0.00155114
0.00149013
0.0015104
0.00144981
0.00146995
0.00140975
0.00142976
0.00136924
0.00138974
0.00134864
0.00132784
0.00132795
0.00139003
0.00134912
0.00136966
0.0014307
0.00141042
0.00147103
0.00145088
0.00151155
0.00149126
0.00155235
0.00153192
0.00159346
0.00157287
0.00163495
0.00161415
0.00167679
0.00165595
0.00171889
0.00169788
0.00176162
0.00174014
0.00180495
0.00178334
0.00184862
0.00182652
0.00189299
0.00187075
0.00193793
0.00191538
0.00198356
0.00196063
0.00203006
0.00200661
0.00207742
0.00205357
0.0021019
0.00210179
0.00132786
0.00132839
0.00212744
0.00212664
0.00212674
0.00212747
0.00205176
0.00210028
0.00207587
0.00200422
0.0020279
0.00195823
0.00198108
0.00191312
0.0019356
0.00186862
0.0018908
0.0018247
0.00184659
0.00178128
0.001803
0.00173849
0.00176
0.0016963
0.00171714
0.00165409
0.00167516
0.00161253
0.00163327
0.00157132
0.00159189
0.00153045
0.00155085
0.00148988
0.00151013
0.00144958
0.0014697
0.00140955
0.00142954
0.00136918
0.00138947
0.00130696
0.00130714
0.0013282
0.00134882
0.00134969
0.00132927
0.00130788
0.00130713
0.0013904
0.00137016
0.00143071
0.00141048
0.00147095
0.00145081
0.00151144
0.00149116
0.00155222
0.00153179
0.00159332
0.00157273
0.00163477
0.001614
0.00167661
0.00165566
0.00171891
0.00169769
0.00176146
0.00174012
0.00180467
0.00178313
0.0018484
0.00182647
0.00189269
0.00187047
0.00193758
0.00191506
0.00198312
0.00196027
0.00202938
0.00200616
0.00207653
0.00205282
0.0021251
0.00210072
0.00212496
0.00215171
0.00215011
0.00215237
0.0013078
0.00130853
0.00215159
0.00214962
0.00217701
0.00217543
0.0021527
0.0013287
0.0013084
0.00128725
0.00128785
0.00214695
0.00217519
0.00219987
0.00217384
0.00209829
0.00212252
0.00205035
0.00207418
0.00200332
0.00202671
0.00195746
0.0019802
0.00191243
0.00193488
0.001868
0.00189014
0.00182416
0.00184601
0.00178082
0.00180242
0.00173799
0.00175936
0.00169566
0.00171675
0.0016537
0.00167463
0.00161217
0.00163289
0.001571
0.00159154
0.00153015
0.00155053
0.0014896
0.00150984
0.00144932
0.00146943
0.00140929
0.00142928
0.00136917
0.00138923
0.00134897
0.00128654
0.00128718
0.00128673
0.00128673
0.00135013
0.0013093
0.0013298
0.00139056
0.00137038
0.00143059
0.0014105
0.00147079
0.00145066
0.00151127
0.001491
0.00155202
0.00153161
0.0015931
0.00157252
0.00163452
0.00161377
0.00167631
0.00165537
0.00171853
0.00169737
0.00176117
0.0017398
0.00180431
0.00178268
0.00184796
0.00182607
0.00189218
0.00187
0.001937
0.00191451
0.00198246
0.00195966
0.0020286
0.00200545
0.00207552
0.00205194
0.00212347
0.00209933
0.00217323
0.00214805
0.00220065
0.00219842
0.00217671
0.00217773
0.00128792
0.00128872
0.00220104
0.00220236
0.00222245
0.00222383
0.00222598
0.00221284
0.0022587
0.00217774
0.00219134
0.00220832
0.00214451
0.00216927
0.00209593
0.00212006
0.00204851
0.00207202
0.00200205
0.00202525
0.00195647
0.00197916
0.00191153
0.00193393
0.00186718
0.00188928
0.0018234
0.00184522
0.00178015
0.00180171
0.00173739
0.00175871
0.00169507
0.00171618
0.00165319
0.00167408
0.0016117
0.0016324
0.00157056
0.00159108
0.00152974
0.00155011
0.00148922
0.00150945
0.00144897
0.00146907
0.00140897
0.00142894
0.00136905
0.00138897
0.00132901
0.00134908
0.00128847
0.00130875
0.00126686
0.00126795
0.00126736
0.00126639
0.00126647
0.00126685
0.0012665
0.00126819
0.00126747
0.00130991
0.00126954
0.00128965
0.00135036
0.00133019
0.00139044
0.00137043
0.00143039
0.00141039
0.00147057
0.00145045
0.00151102
0.00149076
0.00155175
0.00153135
0.00159279
0.00157223
0.00163417
0.00161344
0.00167592
0.001655
0.00171808
0.00169695
0.00176068
0.00173933
0.00180376
0.00178216
0.00184735
0.00182549
0.00189149
0.00186935
0.00193623
0.00191379
0.0019816
0.00195884
0.00202763
0.00200453
0.00207435
0.0020509
0.00212185
0.002098
0.0021705
0.00214598
0.00222058
0.00219535
0.00224919
0.00224591
0.00220195
0.002203
0.00222586
0.00222729
0.00128885
0.00126859
0.00124793
0.00124865
0.00225192
0.00225144
0.002278
0.00222705
0.0022744
0.00227153
0.00225705
0.00220268
0.0021876
0.00220805
0.00214186
0.00216553
0.00209359
0.00211762
0.0020468
0.0020701
0.0020007
0.00202368
0.00195526
0.0019779
0.00191043
0.00193277
0.00186619
0.00188824
0.0018225
0.00184428
0.00177933
0.00180085
0.00173664
0.00175792
0.00169439
0.00171546
0.00165256
0.00167343
0.00161112
0.00163179
0.00157002
0.00159053
0.00152925
0.0015496
0.00148877
0.00150898
0.00144856
0.00146863
0.00140859
0.00142854
0.00136882
0.00138868
0.00132904
0.0013489
0.00130894
0.0012467
0.00124755
0.00124703
0.00124646
0.00124664
0.00124686
0.00124665
0.00124725
0.00131034
0.00126986
0.00129032
0.00135036
0.0013304
0.00139022
0.00137032
0.00143013
0.00141015
0.00147029
0.00145018
0.00151069
0.00149046
0.00155138
0.001531
0.00159238
0.00157184
0.00163372
0.00161301
0.00167542
0.00165452
0.00171752
0.00169642
0.00176005
0.00173873
0.00180306
0.0017815
0.00184657
0.00182475
0.00189062
0.00186853
0.00193526
0.00191287
0.0019805
0.0019578
0.0020264
0.00200337
0.00207297
0.00204961
0.00212022
0.00209651
0.00216821
0.00214415
0.00221723
0.00219231
0.0022682
0.00224276
0.00229709
0.00229386
0.00222729
0.00222794
0.00124802
0.00124946
0.00225229
0.00225965
0.00227331
0.00225249
0.00227641
0.00228051
0.00230434
0.00229762
0.00229982
0.00232254
0.00231988
0.0022278
0.00223253
0.0022851
0.00226063
0.00218552
0.0022078
0.00213915
0.00216311
0.00209166
0.00211526
0.00204509
0.0020683
0.00199915
0.00202204
0.00195385
0.00197642
0.00190915
0.00193142
0.00186502
0.00188702
0.00182144
0.00184317
0.00177836
0.00179984
0.00173576
0.001757
0.00169359
0.00171462
0.00165183
0.00167266
0.00161044
0.00163109
0.00156941
0.00158988
0.00152868
0.00154901
0.00148825
0.00150843
0.00144808
0.00146813
0.00140815
0.00142809
0.00136844
0.00138827
0.00132882
0.00134864
0.00128892
0.00130892
0.00124834
0.00126883
0.00122728
0.00122781
0.00122743
0.00122696
0.00122705
0.00122696
0.0012269
0.00122713
0.00122705
0.0012278
0.0012274
0.00122923
0.00122842
0.00127033
0.00123001
0.00125019
0.00131048
0.00129053
0.00135025
0.00133039
0.00138993
0.00137008
0.00142982
0.00140985
0.00146993
0.00144984
0.00151029
0.00149008
0.00155094
0.00153058
0.00159188
0.00157137
0.00163316
0.00161248
0.0016748
0.00165394
0.00171684
0.00169577
0.00175929
0.00173801
0.00180221
0.0017807
0.00184563
0.00182386
0.00188957
0.00186753
0.00193408
0.00191176
0.00197919
0.00195656
0.00202492
0.00200198
0.00207131
0.00204804
0.00211836
0.00209476
0.00216605
0.00214215
0.00221439
0.00219012
0.00226346
0.00223891
0.0023143
0.00228827
0.00234546
0.00234054
0.00225257
0.0023075
0.00227694
0.00124874
0.00122863
0.00120896
0.00120957
0.00225297
0.00227753
0.0023004
0.00230165
0.00232514
0.00234857
0.00237086
0.00236631
0.00225286
0.00228273
0.00233111
0.00232883
0.00230613
0.0022318
0.0022582
0.00218337
0.00220671
0.00213658
0.00216038
0.00208949
0.00211292
0.00204311
0.00206622
0.00199736
0.00202016
0.00195223
0.00197472
0.00190768
0.00192988
0.00186369
0.00188562
0.00182023
0.0018419
0.00177726
0.00179869
0.00173475
0.00175595
0.00169267
0.00171366
0.00165099
0.00167179
0.00160968
0.00163029
0.0015687
0.00158915
0.00152804
0.00154833
0.00148766
0.00150782
0.00144754
0.00146757
0.00140765
0.00142757
0.00136798
0.00138779
0.0013285
0.00134822
0.00128885
0.00130869
0.00126883
0.00120727
0.00120745
0.00120737
0.00120733
0.00120732
0.00120753
0.00120742
0.00120765
0.0012076
0.00120794
0.00120778
0.00120837
0.00127075
0.00123055
0.0012507
0.0013104
0.00129061
0.00134997
0.00133021
0.0013896
0.00136976
0.00142944
0.00140949
0.0014695
0.00144944
0.00150982
0.00148963
0.00155041
0.00153008
0.00159129
0.00157081
0.00163251
0.00161186
0.00167408
0.00165325
0.00171603
0.00169501
0.0017584
0.00173716
0.00180122
0.00177976
0.00184453
0.00182281
0.00188834
0.00186637
0.00193271
0.00191046
0.00197766
0.00195511
0.00202321
0.00200036
0.00206938
0.00204622
0.00211619
0.00209271
0.00216362
0.00213984
0.00221162
0.00218757
0.00226009
0.0022358
0.0023097
0.00228457
0.00236046
0.00233474
0.00232398
0.00232815
0.00239185
0.00238614
0.00227736
0.00120873
0.00121016
0.00235144
0.00227803
0.00235639
0.00230224
0.00230284
0.0023273
0.00232723
0.00235093
0.00237378
0.00239606
0.0024172
0.00241187
0.00227791
0.00232439
0.00237635
0.00237371
0.00234795
0.00227803
0.00230213
0.00222908
0.00225347
0.00218056
0.00220443
0.00213374
0.00215729
0.00208699
0.00211028
0.00204087
0.00206386
0.00199535
0.00201804
0.00195041
0.00197281
0.00190604
0.00192816
0.0018622
0.00188406
0.00181888
0.00184048
0.00177603
0.0017974
0.00173363
0.00175478
0.00169165
0.00171259
0.00165005
0.0016708
0.00160882
0.00162939
0.00156792
0.00158833
0.00152732
0.00154758
0.001487
0.00150713
0.00144693
0.00146694
0.0014071
0.00142699
0.00136748
0.00138726
0.00132805
0.00134774
0.00128867
0.00130838
0.00124899
0.00126883
0.00120892
0.00122912
0.00118784
0.00118858
0.00118816
0.00118771
0.00118769
0.00118789
0.00118776
0.00118813
0.00118802
0.00118822
0.0011882
0.00118836
0.00118824
0.00118882
0.00118851
0.00118995
0.00118923
0.00123093
0.00119064
0.00121086
0.00127081
0.00125091
0.00131021
0.00129056
0.00134962
0.0013299
0.00138921
0.00136939
0.001429
0.00140908
0.00146901
0.00144898
0.00150927
0.00148911
0.0015498
0.0015295
0.00159062
0.00157017
0.00163176
0.00161115
0.00167324
0.00165246
0.00171511
0.00169413
0.00175738
0.00173619
0.00180009
0.00177868
0.00184327
0.00182162
0.00188695
0.00186504
0.00193115
0.00190898
0.00197592
0.00195347
0.00202126
0.00199852
0.0020672
0.00204416
0.00211373
0.00209039
0.00216084
0.00213722
0.0022085
0.00218462
0.00225659
0.0022325
0.00230505
0.00228082
0.00235412
0.0023293
0.00240455
0.00237947
0.0023482
0.00235641
0.0024363
0.00242885
0.00230281
0.0023034
0.00239698
0.00240069
0.00238093
0.0023273
0.00232839
0.00120918
0.00118925
0.00116984
0.00117049
0.00235414
0.00235278
0.00237639
0.002399
0.00242101
0.00244147
0.00241992
0.0024163
0.00243818
0.00246088
0.002455
0.00244473
0.00230334
0.00237084
0.00239261
0.00231997
0.00234459
0.00227317
0.00229727
0.00222491
0.00224878
0.00217745
0.00220113
0.00213062
0.00215399
0.00208423
0.00210736
0.0020384
0.00206125
0.00199313
0.0020157
0.00194841
0.0019707
0.00190422
0.00192625
0.00186056
0.00188233
0.00181738
0.00183891
0.00177466
0.00179597
0.00173238
0.00175347
0.00169051
0.0017114
0.00164901
0.00166972
0.00160787
0.0016284
0.00156705
0.00158742
0.00152652
0.00154675
0.00148627
0.00150636
0.00144627
0.00146624
0.00140649
0.00142635
0.00136692
0.00138668
0.00132754
0.00134721
0.00128833
0.00130792
0.00124896
0.00126866
0.00122915
0.00116802
0.00116852
0.00116816
0.00116821
0.00116813
0.00116852
0.00116836
0.00116874
0.00116865
0.00116884
0.00116881
0.00116886
0.00116884
0.00116913
0.00116897
0.00116941
0.00123118
0.00119129
0.00121128
0.00127066
0.00125091
0.00130987
0.00129026
0.00134923
0.00132953
0.00138876
0.00136897
0.0014285
0.00140861
0.00146845
0.00144845
0.00150865
0.00148852
0.00154911
0.00152884
0.00158985
0.00156944
0.00163091
0.00161034
0.0016723
0.00165156
0.00171407
0.00169314
0.00175623
0.0017351
0.00179882
0.00177747
0.00184186
0.00182028
0.00188538
0.00186356
0.00192941
0.00190733
0.00197398
0.00195163
0.00201909
0.00199647
0.00206477
0.00204186
0.002111
0.00208782
0.00215776
0.00213432
0.00220502
0.00218134
0.00225266
0.0022288
0.00230055
0.00227661
0.00234849
0.00232454
0.00239622
0.00237247
0.00244609
0.00242003
0.00242464
0.002478
0.00248571
0.00250148
0.00249407
0.00246839
0.00237237
0.00238616
0.00232847
0.002329
0.00116922
0.001171
0.00240813
0.00235349
0.00235408
0.00238021
0.00237847
0.00240196
0.00242451
0.00244555
0.00246512
0.00246074
0.00245326
0.00247495
0.00248336
0.00250747
0.00251815
0.00248333
0.00246821
0.00245121
0.0025072
0.00252379
0.00232902
0.0024107
0.0024306
0.00236351
0.00238615
0.00231495
0.00233951
0.00226783
0.00229136
0.00222067
0.00224427
0.00217374
0.00219717
0.00212727
0.00215045
0.00208124
0.0021042
0.00203571
0.00205842
0.00199071
0.00201315
0.00194622
0.0019684
0.00190224
0.00192417
0.00185876
0.00188044
0.00181574
0.00183719
0.00177317
0.00179441
0.00173102
0.00175205
0.00168927
0.0017101
0.00164788
0.00166853
0.00160683
0.00162731
0.0015661
0.00158643
0.00152565
0.00154584
0.00148548
0.00150553
0.00144554
0.00146548
0.00140583
0.00142566
0.00136632
0.00138605
0.00132699
0.00134664
0.00128784
0.0013074
0.00124872
0.00126831
0.00120943
0.00122908
0.00116962
0.00118954
0.00114876
0.00114956
0.00114911
0.00114854
0.00114849
0.00114884
0.00114865
0.00114917
0.00114902
0.00114939
0.00114929
0.00114949
0.00114945
0.00114949
0.0011495
0.00114954
0.00114953
0.00114995
0.00114967
0.00115079
0.00115033
0.00119147
0.00115135
0.00117155
0.00123119
0.0012114
0.00127034
0.0012508
0.00130948
0.00128989
0.00134879
0.00132911
0.00138827
0.00136851
0.00142794
0.00140808
0.00146783
0.00144786
0.00150796
0.00148787
0.00154834
0.00152811
0.001589
0.00156863
0.00162997
0.00160944
0.00167126
0.00165057
0.00171292
0.00169205
0.00175496
0.00173389
0.00179741
0.00177613
0.0018403
0.0018188
0.00188365
0.00186192
0.00192749
0.00190551
0.00197184
0.00194961
0.00201671
0.00199421
0.0020621
0.00203934
0.00210801
0.002085
0.0021544
0.00213115
0.00220122
0.00217777
0.00224838
0.00222477
0.00229574
0.00227206
0.00234306
0.00231944
0.0023899
0.00236657
0.0024362
0.00241332
0.00245805
0.00239507
0.00241317
0.00253981
0.00252959
0.00235434
0.00235479
0.00243119
0.00237933
0.00237988
0.00116978
0.00114992
0.0011307
0.00113112
0.00240608
0.00240422
0.00242761
0.00244982
0.00247071
0.00249028
0.00249658
0.00248846
0.0025118
0.00251909
0.00250807
0.00249064
0.00247514
0.00253088
0.00254438
0.00255019
0.00256026
0.0023549
0.00244736
0.0024643
0.00240269
0.00242575
0.00235559
0.00237928
0.00230932
0.00233259
0.00226275
0.00228601
0.00221618
0.00223948
0.00216974
0.00219292
0.00212368
0.00214667
0.00207802
0.0021008
0.00203282
0.00205537
0.0019881
0.0020104
0.00194386
0.00196592
0.0019001
0.00192192
0.00185681
0.0018784
0.00181397
0.00183534
0.00177156
0.00179271
0.00172955
0.00175051
0.00168792
0.00170869
0.00164665
0.00166724
0.0016057
0.00162614
0.00156507
0.00158535
0.00152471
0.00154486
0.00148461
0.00150463
0.00144476
0.00146466
0.00140511
0.00142491
0.00136567
0.00138537
0.0013264
0.00134602
0.0012873
0.00130683
0.00124834
0.00126781
0.00120931
0.00122879
0.00118963
0.00112903
0.00112953
0.00112925
0.00112914
0.00112907
0.00112953
0.00112933
0.00112985
0.0011297
0.00113006
0.00112996
0.00113016
0.00113012
0.00113016
0.00113018
0.00113009
0.00113013
0.00113017
0.00113013
0.00113034
0.0011916
0.00115183
0.00117186
0.001231
0.00121131
0.00126996
0.00125047
0.00130905
0.00128949
0.0013483
0.00132866
0.00138772
0.00136799
0.00142733
0.0014075
0.00146715
0.00144721
0.00150719
0.00148714
0.00154749
0.00152731
0.00158806
0.00156774
0.00162893
0.00160846
0.00167012
0.00164949
0.00171166
0.00169085
0.00175357
0.00173257
0.00179587
0.00177467
0.0018386
0.00181718
0.00188177
0.00186013
0.0019254
0.00190353
0.00196952
0.0019474
0.00201413
0.00199177
0.00205922
0.00203661
0.00210478
0.00208195
0.00215078
0.00212773
0.00219715
0.00217393
0.00224379
0.00222045
0.00229055
0.00226717
0.00233722
0.00231392
0.00238343
0.00236041
0.00242865
0.0024063
0.00247243
0.00245073
0.00251756
0.00249541
0.00256953
0.00255842
0.00253612
0.00241914
0.0024374
0.00238011
0.00238067
0.00112985
0.00113175
0.00245772
0.00240523
0.00240575
0.00243196
0.00243001
0.00245321
0.00247514
0.00249552
0.00251412
0.00253138
0.00252155
0.00253879
0.00254447
0.00256163
0.00257761
0.00254998
0.00254309
0.00252862
0.00251579
0.00249775
0.00255334
0.00256689
0.00257922
0.00258749
0.00238078
0.002483
0.0025035
0.00243877
0.00245783
0.00239384
0.00241749
0.00234889
0.00237145
0.00230335
0.00232621
0.00225742
0.0022804
0.0022114
0.00223442
0.00216549
0.00218842
0.00211987
0.00214264
0.00207459
0.00209718
0.00202973
0.00205211
0.0019853
0.00200746
0.00194133
0.00196326
0.00189781
0.00191951
0.00185473
0.00187621
0.00181207
0.00183335
0.00176983
0.0017909
0.00172797
0.00174885
0.00168647
0.00170718
0.00164532
0.00166586
0.00160449
0.00162487
0.00156396
0.00158419
0.0015237
0.0015438
0.00148369
0.00150367
0.00144391
0.00146378
0.00140435
0.00142411
0.00136497
0.00138464
0.00132577
0.00134535
0.00128673
0.00130623
0.00124783
0.00126726
0.00120903
0.00122841
0.00116979
0.00118942
0.00112997
0.00115008
0.00110963
0.00110993
0.00110966
0.00110957
0.00110954
0.00110983
0.00110963
0.00111025
0.00111006
0.00111054
0.00111041
0.00111075
0.00111066
0.00111086
0.00111082
0.00111087
0.00111088
0.00111079
0.00111084
0.00111069
0.00111073
0.00111098
0.00111078
0.00111189
0.00111134
0.00115214
0.00111254
0.00113244
0.00119158
0.00117196
0.00123065
0.00121114
0.00126955
0.00125008
0.00130858
0.00128905
0.00134777
0.00132816
0.00138712
0.00136743
0.00142666
0.00140687
0.0014664
0.00144651
0.00150636
0.00148636
0.00154657
0.00152644
0.00158705
0.00156678
0.00162781
0.00160739
0.00166888
0.00164831
0.00171029
0.00168954
0.00175206
0.00173113
0.00179421
0.00177308
0.00183676
0.00181543
0.00187974
0.0018582
0.00192315
0.00190139
0.00196702
0.00194503
0.00201135
0.00198913
0.00205613
0.00203369
0.00210133
0.00207868
0.00214692
0.00212408
0.00219282
0.00216984
0.00223892
0.00221585
0.00228506
0.002262
0.00233101
0.00230808
0.00237645
0.00235382
0.00242093
0.00239887
0.00246382
0.00244264
0.00250452
0.00248467
0.00252282
0.00244378
0.00246363
0.00259441
0.00258262
0.00240595
0.0024066
0.00248231
0.00243113
0.00243166
0.00113028
0.00111052
0.00109201
0.00109245
0.00245781
0.00245578
0.00247873
0.00250025
0.00252007
0.00253793
0.00255496
0.00254193
0.00255657
0.0025718
0.00256857
0.00256234
0.00255267
0.00253697
0.00252259
0.00257561
0.00258752
0.00259683
0.00260446
0.00259444
0.00260516
0.00240671
0.00251101
0.00252579
0.00247112
0.00249264
0.00242863
0.00245011
0.00238593
0.00240759
0.00234196
0.00236407
0.0022971
0.00231961
0.00225182
0.00227449
0.00220639
0.00222912
0.00216101
0.00218368
0.00211584
0.00213839
0.00207097
0.00209336
0.00202646
0.00204867
0.00198234
0.00200435
0.00193864
0.00196044
0.00189537
0.00191695
0.0018525
0.00187388
0.00181005
0.00183123
0.00176798
0.00178897
0.00172628
0.00174708
0.00168493
0.00170556
0.00164391
0.00166438
0.0016032
0.00162352
0.00156278
0.00158296
0.00152262
0.00154267
0.0014827
0.00150263
0.00144301
0.00146283
0.00140353
0.00142325
0.00136423
0.00138385
0.00132509
0.00134464
0.00128612
0.00130559
0.00124727
0.00126668
0.00120856
0.00122791
0.00116964
0.00118912
0.00114998
0.00108991
0.00109007
0.00108993
0.00109018
0.00109006
0.0010906
0.00109037
0.00109098
0.0010908
0.00109127
0.00109113
0.00109147
0.00109138
0.00109158
0.00109153
0.0010916
0.0010916
0.00109154
0.00109159
0.00109141
0.00109148
0.00109141
0.00109141
0.00109157
0.00115235
0.00111293
0.00113285
0.00119142
0.00117193
0.00123026
0.00121087
0.0012691
0.00124966
0.00130808
0.00128857
0.00134719
0.00132762
0.00138648
0.00136682
0.00142594
0.00140618
0.00146559
0.00144574
0.00150547
0.0014855
0.00154558
0.0015255
0.00158595
0.00156573
0.0016266
0.00160624
0.00166755
0.00164704
0.00170882
0.00168814
0.00175044
0.00172959
0.00179242
0.00177138
0.00183479
0.00181356
0.00187756
0.00185613
0.00192075
0.0018991
0.00196436
0.0019425
0.00200839
0.00198633
0.00205284
0.00203057
0.00209767
0.00207521
0.00214283
0.00212021
0.00218824
0.00216551
0.00223379
0.00221101
0.0022793
0.00225656
0.00232453
0.00230197
0.00236916
0.00234695
0.00241276
0.00239113
0.00245481
0.00243402
0.00249434
0.00247499
0.00253064
0.00251301
0.00256662
0.00254748
0.00260842
0.00259324
0.00257842
0.0024684
0.00248889
0.00243186
0.00243258
0.00109072
0.00109304
0.00250659
0.00245702
0.00245757
0.00248357
0.00248151
0.00250412
0.00252512
0.00254425
0.00256122
0.0025721
0.00255956
0.00256965
0.00257886
0.00258785
0.00260332
0.00258573
0.00258837
0.00258554
0.00258154
0.00257251
0.00256127
0.00254579
0.00259697
0.00260713
0.00261407
0.00261889
0.00261877
0.00261776
0.00243269
0.00253509
0.00254921
0.00249932
0.00251245
0.00245948
0.00248145
0.0024196
0.00243973
0.00237791
0.00239899
0.0023347
0.00235645
0.0022906
0.00231274
0.00224599
0.00226834
0.00220116
0.0022236
0.00215632
0.00217873
0.00211161
0.00213394
0.00206715
0.00208935
0.00202301
0.00204504
0.00197922
0.00200107
0.00193581
0.00195747
0.00189278
0.00191425
0.00185015
0.00187142
0.0018079
0.00182898
0.00176602
0.00178692
0.00172449
0.00174521
0.00168329
0.00170385
0.00164242
0.00166282
0.00160183
0.00162209
0.00156153
0.00158165
0.00152147
0.00154147
0.00148166
0.00150154
0.00144206
0.00146183
0.00140266
0.00142233
0.00136344
0.00138303
0.00132438
0.00134389
0.00128547
0.00130491
0.00124669
0.00126607
0.00120803
0.00122735
0.00116937
0.00118873
0.00113044
0.00114988
0.00109096
0.00111085
0.00107056
0.00107092
0.00107068
0.00107059
0.00107048
0.00107095
0.00107074
0.00107138
0.00107117
0.00107174
0.00107157
0.00107201
0.00107188
0.0010722
0.00107212
0.00107232
0.00107227
0.00107235
0.00107235
0.00107231
0.00107234
0.00107218
0.00107226
0.00107203
0.00107209
0.00107231
0.00107211
0.00107333
0.00107272
0.00111325
0.0010739
0.00109362
0.00115237
0.00113293
0.00119116
0.00117174
0.00122984
0.00121049
0.00126862
0.00124921
0.00130753
0.00128806
0.00134658
0.00132703
0.00138578
0.00136616
0.00142516
0.00140545
0.00146473
0.00144492
0.00150451
0.00148459
0.00154452
0.00152449
0.00158478
0.00156462
0.00162531
0.00160501
0.00166612
0.00164568
0.00170725
0.00168665
0.00174871
0.00172794
0.00179052
0.00176957
0.00183269
0.00181156
0.00187525
0.00185392
0.00191819
0.00189667
0.00196153
0.00193982
0.00200526
0.00198335
0.00204937
0.00202727
0.00209381
0.00207155
0.00213853
0.00211614
0.00218345
0.00216098
0.00222843
0.00220594
0.0022733
0.0022509
0.00231782
0.00229563
0.00236164
0.00233984
0.00240434
0.00238317
0.00244542
0.00242512
0.00248408
0.00246512
0.00251931
0.00250227
0.00255038
0.00253558
0.00256332
0.00249299
0.00251386
0.00261418
0.00260059
0.00245779
0.00245857
0.00253097
0.00248285
0.00248344
0.00109115
0.00107154
0.00105356
0.00105414
0.00250922
0.00250711
0.00252929
0.00254967
0.00256797
0.00258387
0.00258134
0.00256763
0.00257223
0.00258638
0.00260045
0.00260151
0.00260325
0.00259636
0.00259198
0.00258161
0.00256861
0.00261736
0.00262564
0.00263077
0.00263109
0.00263092
0.00262598
0.00260452
0.00261809
0.00245868
0.00254812
0.00255207
0.00252223
0.00253809
0.00248661
0.00250183
0.0024493
0.00246921
0.00241052
0.0024301
0.00236964
0.00239033
0.00232725
0.00234859
0.0022839
0.00230567
0.00223997
0.00226199
0.00219575
0.00221788
0.00215144
0.00217359
0.00210721
0.00212931
0.00206317
0.00208516
0.0020194
0.00204125
0.00197594
0.00199763
0.00193283
0.00195434
0.00189007
0.00191141
0.00184768
0.00186883
0.00180564
0.00182662
0.00176395
0.00178476
0.0017226
0.00174324
0.00168157
0.00170205
0.00164083
0.00166117
0.00160039
0.00162058
0.0015602
0.00158026
0.00152026
0.0015402
0.00148055
0.00150038
0.00144105
0.00146078
0.00140174
0.00142137
0.0013626
0.00138215
0.00132362
0.00134309
0.00128479
0.00130419
0.00124608
0.00126542
0.00120748
0.00122677
0.00116899
0.00118823
0.0011303
0.0011496
0.0011108
0.00105102
0.00105121
0.00105106
0.00105133
0.00105118
0.00105178
0.00105155
0.00105218
0.00105199
0.00105251
0.00105236
0.00105277
0.00105265
0.00105296
0.00105288
0.00105308
0.00105303
0.00105312
0.00105311
0.00105309
0.00105312
0.00105299
0.00105305
0.00105283
0.00105291
0.00105285
0.00105283
0.0010531
0.00111349
0.00107443
0.00109398
0.00115224
0.00113285
0.00119078
0.0011715
0.00122939
0.00121007
0.00126811
0.00124873
0.00130694
0.00128751
0.00134591
0.00132641
0.00138504
0.00136546
0.00142433
0.00140466
0.00146381
0.00144405
0.00150349
0.00148362
0.00154339
0.00152341
0.00158353
0.00156343
0.00162393
0.0016037
0.00166461
0.00164424
0.00170559
0.00168506
0.00174688
0.00172619
0.0017885
0.00176765
0.00183047
0.00180945
0.0018728
0.0018516
0.0019155
0.00189411
0.00195856
0.00193699
0.00200198
0.00198023
0.00204573
0.00202382
0.00208977
0.00206772
0.00213405
0.00211189
0.00217846
0.00215625
0.00222287
0.00220068
0.00226711
0.00224503
0.00231091
0.00228908
0.00235394
0.00233255
0.00239577
0.00237504
0.00243586
0.00241608
0.00247351
0.00245505
0.00250789
0.00249118
0.00253781
0.00252357
0.00256219
0.00255081
0.00258443
0.00257161
0.00260628
0.00259249
0.00258931
0.00251739
0.00253831
0.00248367
0.00248452
0.00105179
0.00105451
0.00255486
0.00250856
0.0025092
0.00253469
0.00253252
0.00255416
0.00257379
0.0025911
0.00260574
0.00257482
0.0025654
0.00256893
0.00259035
0.00259862
0.00260733
0.00261656
0.00261526
0.00261502
0.00260891
0.00260109
0.00258984
0.00263659
0.0026429
0.00264551
0.00264476
0.00263987
0.00263093
0.0026191
0.00257663
0.00259747
0.00258002
0.00248463
0.00255735
0.00255501
0.00253323
0.00254311
0.00250762
0.00252201
0.00247402
0.0024912
0.00243917
0.00245711
0.00240126
0.0024205
0.00236122
0.00238147
0.00231964
0.00234059
0.00227704
0.00229845
0.00223378
0.00225547
0.00219016
0.002212
0.00214639
0.00216828
0.00210264
0.0021245
0.00205903
0.00208081
0.00201564
0.0020373
0.00197252
0.00199405
0.00192971
0.00195108
0.00188723
0.00190843
0.00184509
0.00186612
0.00180327
0.00182414
0.00176179
0.00178249
0.00172062
0.00174117
0.00167975
0.00170015
0.00163917
0.00165943
0.00159887
0.00161899
0.00155881
0.00157881
0.00151899
0.00153887
0.00147939
0.00149917
0.00143999
0.00145967
0.00140077
0.00142036
0.00136173
0.00138123
0.00132283
0.00134226
0.00128407
0.00130343
0.00124543
0.00126474
0.00120691
0.00122616
0.00116848
0.00118768
0.00112999
0.00114921
0.00109134
0.00111073
0.00105197
0.00107177
0.00103178
0.00103205
0.00103188
0.0010318
0.00103171
0.00103217
0.00103195
0.00103262
0.0010324
0.00103299
0.00103281
0.00103331
0.00103316
0.00103355
0.00103344
0.00103374
0.00103365
0.00103385
0.0010338
0.00103391
0.00103389
0.00103389
0.00103391
0.00103382
0.00103386
0.00103367
0.00103375
0.00103359
0.00103359
0.00103389
0.00103364
0.0010348
0.00103423
0.00107455
0.00103529
0.00105495
0.00111344
0.00109406
0.00115193
0.00113271