/*--------------------------------*- C++ -*----------------------------------*\
  =========                 |
  \\      /  F ield         | OpenFOAM: The Open Source CFD Toolbox
   \\    /   O peration     | Website:  https://openfoam.org
    \\  /    A nd           | Version:  10
     \\/     M anipulation  |
\*---------------------------------------------------------------------------*/
FoamFile
{
    format      ascii;
    class       surfaceScalarField;
    location    "29";
    object      phi;
}
// * * * * * * * * * * * * * * * * * * * * * * * * * * * * * * * * * * * * * //

dimensions      [0 3 -1 0 0 0 0];

internalField   nonuniform List<scalar> 
57492
(
0.000242626
-1.0981e-05
-4.50434e-05
-0.000186601
-0.000168054
0.000275966
0.000134715
-2.89714e-05
8.15141e-05
0.000325772
-0.000378315
0.00315946
0.00338652
-0.00027193
-0.00627406
-0.00862818
0.00404533
0.00774231
0.000969629
-0.000897942
-0.000470153
0.000398467
-0.00173827
0.000321541
-0.000122369
0.0015391
0.000362895
-0.00113154
0.00153321
-0.00463053
0.00442521
-0.00132789
0.00129759
0.00425031
-0.00401469
-0.000644895
-0.000217205
0.000719656
0.000142443
-0.000126133
-0.000866591
0.000347829
0.000244494
-0.000340583
-3.00438e-05
-5.62124e-05
8.35019e-05
0.00222849
-0.00213872
-0.000803596
0.000713818
0.000309501
0.00179531
0.000123682
-0.000324064
0.000787655
0.00333749
-0.00380108
-0.000660914
0.00326331
-0.00292646
0.000135647
-0.000289221
0.000153574
-0.0016682
0.00122313
0.000580724
-0.00466639
0.000194327
0.00334216
0.0011299
0.00122415
-0.00473559
-0.00115495
-0.000134532
-0.000208433
-0.000719224
0.00106219
-0.000295439
0.000183437
-2.25293e-05
-0.00259599
0.00219786
0.000753059
-0.000354932
-0.00308962
0.000919409
-0.000425778
-0.00112707
0.000595569
0.00045696
7.45448e-05
-0.000778744
-0.000361886
1.35554e-05
-0.000368638
-0.00113849
0.0012973
0.000209833
-0.00041778
0.000116988
-6.78453e-05
0.00101068
-0.00067417
-0.000627602
0.000291088
-0.000873239
0.000689293
0.00119463
-0.00118796
-0.0022776
0.00216263
0.00130292
-0.00266088
-0.000647617
0.00212054
-0.000709901
-0.00015288
0.000862781
-0.000272296
-0.000437606
-0.00137903
0.00189841
-0.000791677
0.000203762
-0.00076992
-0.000812868
-0.000778277
0.00109982
-0.000233844
-0.00190169
0.00115075
0.000750945
-0.00432134
0.00241965
0.00480619
-0.00103654
0.000562965
-0.00433261
0.00356048
0.000124767
0.00112094
-0.000934275
0.00470301
-0.00480528
0.00188961
0.000398037
-0.00192475
0.00189635
-0.000129107
0.002279
-0.00085292
-0.00169283
0.000266749
0.00255302
0.000124019
0.00119645
-0.000737153
0.00143705
0.00112041
0.00161514
-0.00470121
-0.000659979
0.000584397
0.00477679
-0.00483407
-0.000330976
0.000463839
0.00116766
0.00451309
-0.00443667
-0.00124408
0.000836943
-0.00429982
-0.00288345
0.00257436
0.00260811
-0.00229903
-0.000343147
0.00325823
-0.00579853
1.49066e-05
-0.0001224
-7.8177e-07
0.000108276
-0.000334035
8.35893e-06
7.03214e-05
-0.000140894
-0.000263463
-5.91796e-05
7.10055e-06
1.22223e-05
-1.3004e-05
9.40679e-06
2.81549e-06
0.00736617
0.00378481
-0.00591945
-0.00523153
0.00232601
-0.00069357
0.00573373
-0.00790469
0.00307799
0.0071527
0.00227232
-0.00639219
0.00161924
-0.00287013
0.00213912
-0.000888234
0.00236294
-0.00291949
0.0021758
-3.07062e-05
2.2405e-05
-2.67987e-06
-7.21075e-05
-3.64213e-06
-0.000228695
-3.00139e-05
-0.00294756
0.00536347
0.00338932
-0.00580523
0.0043601
-0.00494472
0.00297913
0.00476335
-0.00237901
0.0102003
-0.00154649
-0.0017686
-0.00688522
0.00219679
0.00550054
0.00250298
0.00157381
-0.00508455
0.00570753
4.71624e-05
-7.61337e-05
0.000128676
0.000823245
0.00176677
-0.000629682
-0.00196034
0.00104842
0.0001006
-9.84838e-05
2.72086e-05
7.12752e-05
-0.000304678
0.000206194
-0.0066403
0.00342245
-0.00201843
0.00523628
-0.00576348
-0.00252471
0.00164789
-0.00263413
0.00210154
-0.00523088
0.00196215
-2.6398e-05
-0.000948588
-0.000987166
-0.00071521
0.00223878
0.000438577
-0.00083908
-8.5629e-05
0.000209498
-0.000775469
-9.00082e-05
-0.000272618
-0.00145144
-0.000263497
-6.62427e-05
2.24435e-05
0.000307297
-0.000229213
-0.000565389
0.000531105
0.000148568
1.82966e-05
-0.000396078
8.66501e-05
-4.32464e-06
0.000111673
-2.57909e-06
-0.00064408
0.000371461
8.35914e-05
-0.000727671
0.000174742
-0.00047942
0.00427351
0.00333168
-0.00017848
0.00212875
-0.00648341
-1.0224e-05
0.00226373
-0.00179739
-0.000456117
0.000292011
0.00316386
-0.00346609
0.00328255
0.00191198
-0.000569682
-0.00462485
-0.00099211
0.000443991
0.00383067
0.00406792
-0.00314805
-0.00163559
-0.00303727
0.00123685
0.00343601
-0.0011967
0.00351013
-0.00394902
0.000410064
-0.00464404
8.76386e-05
3.63563e-05
-4.93016e-06
0.00107753
-0.000632982
-0.000612599
8.10925e-05
-0.000342989
0.00133942
0.000376675
-1.96166e-05
-0.000187393
0.000333055
6.84981e-05
-0.00021416
0.00099518
-0.00122015
3.75748e-05
-0.000359064
0.000833761
0.000520483
-0.000125637
9.96284e-05
-0.00615591
0.00364467
0.0059337
0.00773888
-0.00202812
-0.00823547
-0.00288096
0.00446392
-9.71692e-05
-0.00087734
-0.000163983
-0.000524181
9.2309e-06
4.7408e-05
-0.000130605
3.82142e-05
4.49826e-05
-0.00012999
0.000143929
3.34692e-05
-0.00029837
3.77752e-05
-0.000266455
-0.000313808
5.60817e-05
-0.000806939
-0.000336856
-0.00107246
-0.001153
0.00132177
0.000903688
4.4793e-05
0.000563535
-0.00168079
-0.00150697
0.000398757
-0.00294111
0.00133261
-5.97084e-05
-0.00350845
0.000808141
-0.000240797
0.00087632
-0.00334717
0.00256383
-9.29707e-05
0.000679284
-0.00272791
0.00292494
0.00252853
-0.010197
-0.00177286
0.00218904
0.00302771
-0.00346796
0.00206864
-0.000323114
-9.39599e-09
1.8306e-05
-4.08148e-06
4.07209e-06
0.000285255
-4.13878e-05
0.00538408
-0.00325165
-0.00222754
9.51018e-05
0.00461864
-0.000168837
0.0047363
8.81223e-05
-0.00516757
0.00133513
0.00337004
3.11291e-05
0.000511871
-0.00299824
0.0038215
5.72115e-06
-9.80263e-06
0.000761564
-0.00212941
-0.00285973
0.00124006
0.00310026
0.00113696
-6.38316e-05
-0.00119569
0.00012256
0.000373968
-0.000110243
-0.00145872
0.000309406
0.00183861
0.000259981
-0.00134473
-0.00013511
7.43399e-05
-6.25932e-06
1.08912e-05
-4.22662e-06
-4.05224e-07
1.14889e-05
-2.82833e-07
-1.74653e-05
4.97579e-05
-0.00010627
6.80008e-05
-0.00175601
0.00270527
-0.000774521
0.00294429
-0.00384223
-0.000858068
2.25449e-06
-0.00198452
0.00229167
-0.00403121
0.000248019
-0.00276074
-0.00185431
0.000583845
0.00270187
0.00291155
-0.00541909
0.00260298
0.00430694
-0.00420805
0.00223965
-0.00308759
0.00160939
-0.000761453
0.0024541
-0.00302694
0.00281249
0.00438122
0.00187248
0.0049595
-0.000262064
-0.00492955
0.000232115
0.0054878
-0.000685795
0.000157489
0.00552735
-0.000867071
4.13954e-05
-0.00470167
0.00397043
-0.00133885
0.00289577
0.0043124
-0.00138826
0.00112382
-0.00404796
0.00125039
0.00439406
-0.00133205
-0.00388169
-0.00165217
0.00414559
0.00105171
-0.00369654
-0.00184254
0.00362639
-0.00236519
-0.00324758
0.0021386
0.00347417
-0.00238421
-0.00327651
0.00329553
0.00222595
0.00305636
-0.0014667
-0.0038156
0.00303065
-0.00318891
-0.0025803
0.00260161
0.00300934
-0.00203497
0.00251102
-0.00407767
0.003624
-0.00101303
-0.00507842
0.00104528
0.00538816
-0.00135502
0.00190578
-0.00030595
0.00106577
-0.00112909
0.000369276
-0.000142176
0.00136098
-0.00152476
-5.50368e-05
0.000317305
0.000114407
-0.0014559
-0.00224278
0.00145364
-1.02888e-08
-2.72545e-07
2.89859e-07
-3.00147e-07
-0.00014134
-0.00249231
0.00189649
-0.00219959
-9.71935e-05
0.00215545
6.83991e-05
-0.00230571
3.77192e-05
-0.00038079
0.0019137
0.000409081
-0.00194199
0.00202893
0.000467754
-0.00287748
0.00191839
0.00202424
-2.71713e-06
6.22294e-07
3.84512e-05
-4.8318e-06
2.11467e-06
-4.20951e-06
-5.85582e-06
4.67657e-06
-5.80003e-05
1.22692e-06
-7.08274e-06
5.9035e-06
-4.53996e-05
2.19492e-05
-0.000271989
2.31202e-05
-6.85198e-05
4.50694e-05
5.33998e-05
-5.36879e-06
-0.000173668
-1.69745e-05
7.03743e-05
-2.23433e-05
0.00138346
0.00330188
-0.00424135
0.00139417
-0.00452378
0.00451307
0.00472131
-2.52577e-05
-0.00118387
-0.00244481
0.00115971
0.00246897
-0.000709399
0.00272138
-0.00319585
0.000158886
-0.0033131
0.00415873
-0.00419625
-1.3425e-05
5.09383e-05
0.00415859
3.72962e-05
-3.71576e-05
-2.62784e-05
-0.00418802
1.80509e-05
0.00419127
-1.63769e-06
-3.10422e-05
0.00426725
6.05912e-05
-0.000136564
2.95788e-05
0.0043749
-0.000137231
0.00432226
-0.00429536
2.68309e-06
-0.00020395
0.00458052
-1.66921e-06
0.0042032
-8.48948e-05
-0.00416243
-7.23387e-05
-0.0041466
-1.74681e-05
-0.00413918
2.9878e-05
-0.00422619
7.35759e-05
-0.00415516
-9.73001e-05
-0.000197903
0.00478027
-1.85036e-06
0.00400791
-2.60929e-06
-2.09968e-05
-0.00415069
-1.63298e-05
-0.0041869
1.07404e-05
-2.96808e-05
-0.00438796
0.000266944
-6.3223e-07
0.00478226
-1.35562e-06
0.00401023
-2.951e-06
-0.0043382
0.000121617
0.00478426
-4.46094e-07
-1.55536e-06
-5.74884e-07
0.0047859
-1.065e-06
0.00401213
-2.34579e-06
0.00401427
-2.71716e-06
-2.505e-05
-0.00435883
-4.07286e-06
-0.0043587
-4.54364e-06
-3.22463e-07
0.00478752
-1.29073e-06
0.00401607
-2.11736e-06
-4.39521e-07
-0.00435425
-4.14115e-06
-0.0043539
-5.23927e-06
-3.27559e-07
0.00478865
-8.07593e-07
0.00401825
-2.51083e-06
-2.8385e-07
-0.00434918
-4.7864e-06
-0.00434908
-5.10643e-06
1.76058e-07
0.00478953
-1.05656e-06
0.00402034
-1.91513e-06
-3.64798e-07
-0.00434393
-4.88637e-06
-0.00434362
-5.82389e-06
6.5844e-07
0.00478945
-5.78298e-07
0.00402333
-2.32971e-06
-1.797e-07
-0.00433819
-5.56113e-06
-0.00433806
-5.74207e-06
2.14679e-06
0.00478815
-8.47443e-07
0.00402721
-1.73697e-06
9.82328e-06
-0.00434229
-5.71898e-06
-0.00432175
-6.49207e-06
4.60203e-06
0.00478392
-3.73489e-07
0.00403398
-2.16547e-06
2.81255e-05
-0.00421422
-0.000156202
-0.00424241
-5.12101e-05
1.00323e-05
0.00477455
-6.61103e-07
0.00402692
1.70922e-05
2.78749e-05
-0.00422866
-1.34348e-05
-0.00420507
-9.46885e-06
2.02807e-05
0.00475446
-1.88396e-07
0.00399952
4.76776e-05
6.00407e-05
-0.00407381
-0.000214889
-0.00407791
-6.71105e-05
0.000203255
0.00455169
-4.87106e-07
0.00412201
8.07642e-05
6.90844e-05
-0.00404936
-9.35344e-05
-0.00402725
1.84183e-05
0.000179441
0.00421688
0.000155368
0.00419075
0.000110704
0.00011005
-0.000161753
-0.00399766
-0.00400499
8.77957e-05
1.19803e-05
4.05716e-05
0.00416433
0.00416421
3.85207e-05
-0.00406452
0.00413456
-0.000163575
-0.004081
-0.00014527
0.000187658
-0.000170258
-0.00401506
8.7749e-05
-0.00390509
-0.00405155
0.00409234
-5.4233e-05
-0.000131877
-0.00394866
0.00395437
-1.14291e-05
-1.25217e-05
-0.0039597
0.00396471
-9.89968e-06
-1.08852e-05
-0.00396939
0.00397381
-8.56205e-06
-9.46812e-06
-0.00397797
0.00425232
-7.40843e-06
-8.2279e-06
-0.00424316
0.0041876
7.36079e-05
-7.16849e-06
-0.00432481
0.00429317
-5.51879e-06
-8.62721e-05
-0.00415772
0.00409885
-7.76919e-05
0.000104409
-0.00400326
0.00400565
-4.06673e-06
-4.16367e-05
-0.00400789
0.00401002
-3.47878e-06
-4.09142e-06
-0.00401201
0.0040139
-2.95568e-06
-3.54724e-06
-0.00401567
0.00401736
-2.49222e-06
-3.06478e-06
-0.00401894
0.00402044
-2.08089e-06
-2.63777e-06
-0.00402185
0.0040232
-1.71504e-06
-2.25927e-06
-0.00402446
0.00402565
-1.38601e-06
-1.92226e-06
-0.00400297
0.00409796
6.03743e-05
2.22016e-05
0.00408843
5.00955e-05
-2.56093e-05
8.04974e-05
0.00410944
-4.68192e-06
0.00414328
0.00411301
-0.00404442
1.21686e-05
-0.00415382
0.00414567
4.6669e-05
6.98988e-05
0.00404313
-0.0040232
-2.83872e-06
4.63889e-05
0.00402187
-0.00402044
-3.16003e-06
-3.49726e-06
0.00401895
-0.00401735
-3.51198e-06
-3.82319e-06
0.00401568
-0.00401389
-3.90925e-06
-4.18707e-06
0.004012
-0.00400999
-4.36001e-06
-4.6003e-06
0.00400787
-0.0040056
-4.87413e-06
-5.07069e-06
0.00408489
-0.00407675
-5.45979e-06
-5.60979e-06
0.00414287
-0.00409561
-6.47253e-05
-6.21659e-06
0.00406629
-0.00403698
4.42662e-05
5.58086e-07
0.00408467
-0.0041081
3.41768e-05
-4.96128e-05
0.00397789
-0.00397373
-8.70022e-06
-8.602e-06
0.00396933
-0.00396462
-9.82284e-06
-9.63681e-06
0.00395962
-0.00395425
-1.11067e-05
-1.08222e-05
0.00394856
-0.00398719
-1.25845e-05
-1.2184e-05
0.0039829
-0.00403572
-1.42934e-05
-1.37546e-05
0.00400171
-0.00393742
2.35073e-05
-1.55911e-05
-0.00388809
3.8423e-05
-0.00410547
-0.000145783
0.00410174
6.71919e-05
-1.42228e-06
0.00414241
0.000140473
-0.000133096
-0.00391246
0.000103397
-0.00385102
0.000144333
-0.000142673
-0.00410713
-0.00400382
-0.00404193
0.00398221
-0.00010385
0.00408192
-0.0041094
-0.000118304
-0.000105284
-0.00393717
0.00394346
-6.05262e-05
-8.68389e-05
-0.00394948
0.00395514
-1.70908e-05
-1.85392e-05
-0.00396042
0.00396539
-1.48677e-05
-1.61614e-05
-0.00397002
0.0039744
-1.29376e-05
-1.41057e-05
-0.00397849
0.00398235
-1.12618e-05
-1.232e-05
-0.00398595
0.00406937
-9.81328e-06
-1.07762e-05
-0.00399254
0.00399556
-8.53981e-06
-9.4339e-06
-0.00410823
0.00403797
-7.43087e-06
-8.2635e-06
-0.00400355
0.00400593
-6.44615e-06
-7.22128e-06
-0.00400816
0.00401027
-5.5884e-06
-6.31791e-06
-0.00401225
0.00401412
-4.8327e-06
-5.52423e-06
-0.00401588
0.00401756
-4.16484e-06
-4.82486e-06
-0.00401913
0.00402062
-3.57342e-06
-4.20694e-06
-0.00402202
0.00402335
-3.04859e-06
-3.66008e-06
-0.0040246
0.0040258
-2.57768e-06
-3.17431e-06
-0.00402661
0.00406002
2.69598e-05
2.13873e-05
9.49731e-06
-1.87773e-05
0.00411872
1.56855e-06
0.00410967
-0.00404863
0.00408942
2.63992e-05
6.14945e-05
0.00409115
-0.00409139
4.69098e-05
0.00405888
3.08511e-05
-1.15358e-06
4.64916e-05
0.00409707
0.00412335
0.00409126
-0.00406057
-1.85247e-05
6.97659e-05
0.00402462
-0.00402336
-4.10452e-06
1.04447e-05
0.00402203
-0.00402062
-4.57404e-06
-4.82242e-06
0.00401914
-0.00401755
-5.09648e-06
-5.30574e-06
0.00401589
-0.00401411
-5.68737e-06
-5.85038e-06
0.00401224
-0.00401024
-6.35767e-06
-6.4686e-06
0.00400814
-0.0040059
-7.119e-06
-7.17146e-06
0.00400354
-0.00400101
-7.98492e-06
-7.97212e-06
0.00399835
-0.0040541
-8.96854e-06
-8.88032e-06
0.00404363
-0.00398928
-1.00843e-05
-9.91674e-06
0.00402779
-0.00398225
-1.13689e-05
-1.10986e-05
0.0039784
-0.00397428
-1.2825e-05
-1.24487e-05
0.00396991
-0.00396523
-1.45009e-05
-1.39993e-05
0.00396028
-0.00395496
-1.64272e-05
-1.57794e-05
0.00394931
-0.00394324
-1.86504e-05
-1.78311e-05
0.0039368
-0.00392987
-2.12236e-05
-2.02032e-05
0.0039225
-0.00387479
-2.42041e-05
-2.29583e-05
0.0038448
-0.00378419
4.27807e-05
8.43992e-06
-0.00413097
-0.0001211
8.80131e-05
-0.000155242
-0.00378379
-0.00375206
5.58842e-05
-0.000220931
-0.00384677
2.53026e-05
0.00406568
0.00406567
3.97032e-05
-7.80015e-05
9.46013e-05
-0.00412373
-8.2776e-05
-0.0041262
6.07105e-05
-0.000152282
-0.00369222
2.76871e-05
-0.00371904
-0.00413015
0.00409993
-0.00408719
1.36616e-05
0.00405858
6.66546e-05
7.08879e-05
-3.0135e-05
0.00405632
4.52915e-05
0.00409126
-0.00408103
0.00413312
-0.000134861
-0.000140048
0.000111112
-0.00409726
0.00416425
-5.77827e-05
0.000296206
-0.00440267
-5.68294e-05
-0.00413546
0.00410941
-9.22535e-05
-0.000123449
-0.00406246
0.00400352
-4.49152e-05
-5.83275e-05
-0.00397927
0.00394479
-2.60453e-05
-6.25829e-05
-0.00395072
0.00395629
-2.26673e-05
-2.44695e-05
-0.00396149
0.00396638
-1.97609e-05
-2.13578e-05
-0.00397095
0.00397526
-1.72467e-05
-1.86733e-05
-0.00397929
0.00398309
-1.50653e-05
-1.63477e-05
-0.00398664
0.00399
-1.31696e-05
-1.43306e-05
-0.00399314
0.00399612
-1.15151e-05
-1.25766e-05
-0.0039989
0.00400154
-1.00686e-05
-1.10428e-05
-0.00400401
0.00400636
-8.79299e-06
-9.69688e-06
-0.00400856
0.00401064
-7.67398e-06
-8.51633e-06
-0.0040126
0.00401445
-6.68864e-06
-7.4786e-06
-0.00401619
0.00401785
-5.81904e-06
-6.56503e-06
-0.0040194
0.00402088
-5.05002e-06
-5.75872e-06
-0.00402226
0.00402358
-4.36874e-06
-5.04599e-06
-0.00402482
0.004026
-3.76067e-06
-4.41426e-06
-0.00403822
0.00404599
1.91954e-05
9.16951e-06
2.02916e-05
2.66405e-05
-1.01497e-05
0.00410223
-4.26079e-05
1.08068e-05
0.00409749
0.0040937
0.00408307
0.00407986
-0.00407477
4.18164e-05
-0.0040747
0.00405315
6.12553e-05
3.60111e-05
0.00402713
-0.00404085
-4.80905e-06
2.21272e-05
0.00402484
-0.00402358
-5.35814e-06
-5.56428e-06
0.00402227
-0.00402087
-5.97264e-06
-6.13241e-06
0.00401941
-0.00401784
-6.66331e-06
-6.77187e-06
0.0040162
-0.00401444
-7.44511e-06
-7.49474e-06
0.00401259
-0.00401062
-8.3317e-06
-8.31498e-06
0.00400854
-0.00400633
-9.33805e-06
-9.24674e-06
0.00400399
-0.00400149
-1.04819e-05
-1.03062e-05
0.00399886
-0.00399605
-1.17833e-05
-1.15115e-05
0.00399308
-0.0039899
-1.32639e-05
-1.2885e-05
0.00398654
-0.00398296
-1.49584e-05
-1.44541e-05
0.00397916
-0.00397509
-1.68943e-05
-1.62471e-05
0.00397078
-0.00396617
-1.9117e-05
-1.83044e-05
0.00396128
-0.00395603
-2.16748e-05
-2.06697e-05
0.00395046
-0.00394448
-2.46277e-05
-2.33979e-05
0.00393813
-0.00393131
-2.80462e-05
-2.65535e-05
0.00392406
-0.00391625
-3.20119e-05
-3.02138e-05
0.00387334
-0.00379391
-3.66477e-05
-3.44692e-05
0.00374433
-0.00374383
2.71844e-05
6.3036e-06
4.0837e-05
-4.84606e-05
-0.00371141
-0.00371675
1.37591e-05
0.000129362
-0.00414198
-9.63613e-05
-0.00390269
3.83995e-05
0.00403098
0.00406771
3.07286e-05
0.000162679
-0.00431772
1.4003e-05
-0.00375468
0.000875013
-0.00345574
0.00449911
-3.43437e-05
2.06681e-06
-0.00368447
-7.95771e-05
-0.00366618
-0.00273089
0.00416629
0.000588842
-0.00211483
-0.000206975
-0.00409715
-0.00395996
0.00413499
0.000121175
0.000302763
-9.64355e-05
-0.00410166
0.0040709
-0.0001041
-2.34933e-05
-0.00404385
0.0039944
-4.28039e-05
-9.64065e-05
-0.00397603
0.00396823
-3.7119e-05
-3.99509e-05
-0.00394037
0.00394658
-3.22599e-05
-3.4722e-05
-0.00395238
0.00395782
-2.81151e-05
-3.02604e-05
-0.00396291
0.00396769
-2.455e-05
-2.64398e-05
-0.00397217
0.00397639
-2.14682e-05
-2.31462e-05
-0.00398034
0.00398406
-1.87942e-05
-2.02946e-05
-0.00398755
0.00399085
-1.64677e-05
-1.78182e-05
-0.00399394
0.00399686
-1.44374e-05
-1.56621e-05
-0.00399959
0.00400219
-1.26604e-05
-1.37786e-05
-0.00400462
0.00400692
-1.1099e-05
-1.21275e-05
-0.00400908
0.00401114
-9.72572e-06
-1.06777e-05
-0.00401306
0.00401489
-8.51602e-06
-9.40218e-06
-0.0040166
0.00401823
-7.44853e-06
-8.27878e-06
-0.00401976
0.00402121
-6.50521e-06
-7.28765e-06
-0.00402258
0.00402388
-5.67042e-06
-6.41212e-06
-0.0040251
0.00402627
-4.92918e-06
-5.63746e-06
-0.00404039
0.00406386
-4.27231e-06
-4.95027e-06
-0.00405493
0.00405328
1.53172e-05
2.92176e-05
-0.00406994
0.004066
4.23377e-05
4.99947e-05
5.56172e-05
-3.10653e-05
0.00407293
-3.3397e-05
5.63228e-06
0.00409377
0.0040532
3.97479e-05
1.57806e-05
0.0040467
0.00410238
-2.67486e-05
1.74702e-05
0.0040656
0.0040721
-2.15559e-05
6.16269e-07
0.00408865
0.00408718
0.00409075
-0.00407567
4.61825e-05
-0.00415454
0.00404437
0.000110788
-3.30672e-05
0.00406487
-0.0040556
3.25417e-05
2.52099e-05
0.00402738
-0.00402627
-5.91651e-06
-6.09179e-06
0.00402512
-0.00402388
-6.59221e-06
-6.71973e-06
0.00402259
-0.00402121
-7.35064e-06
-7.42301e-06
0.00401977
-0.00401822
-8.20677e-06
-8.21628e-06
0.00401661
-0.00401487
-9.17603e-06
-9.11428e-06
0.00401306
-0.00401111
-1.02751e-05
-1.0133e-05
0.00400907
-0.00400689
-1.15225e-05
-1.12897e-05
0.00400459
-0.00400213
-1.294e-05
-1.26044e-05
0.00399954
-0.00399677
-1.45527e-05
-1.41006e-05
0.00399385
-0.00399072
-1.63903e-05
-1.58055e-05
0.00398743
-0.00398389
-1.84896e-05
-1.7752e-05
0.00398016
-0.00397617
-2.08915e-05
-1.99785e-05
0.00397194
-0.00396741
-2.36482e-05
-2.25319e-05
0.00396261
-0.00395746
-2.68208e-05
-2.54679e-05
0.00395201
-0.00394615
-3.04828e-05
-2.88538e-05
0.00393994
-0.00393326
-3.47211e-05
-3.27691e-05
0.00392617
-0.00391854
-3.96394e-05
-3.73091e-05
0.00391042
-0.0039017
-4.53706e-05
-4.25881e-05
0.00384665
-0.00376738
-5.208e-05
-4.87485e-05
0.00376219
-0.00373906
-2.10652e-05
8.56699e-06
7.65508e-06
-1.44841e-05
-0.00367764
-0.00370346
-2.79371e-05
0.000125518
-0.00410482
-2.81911e-05
-0.0038605
0.000320886
-0.0037636
1.51361e-05
-0.0038494
0.0040677
-0.00407303
4.76607e-05
0.00405404
1.92916e-05
4.80658e-05
-3.23802e-05
0.00407297
9.9626e-06
0.00408247
0.000320681
-0.00330866
2.96028e-05
-0.00371027
-0.00194449
-0.00211233
-0.00323809
0.00373391
9.30153e-05
3.25232e-05
-1.82525e-05
-0.00369191
-2.37182e-06
-0.00366857
-0.00299988
-0.000445182
-0.00399982
-0.00390457
0.00396368
6.20646e-05
0.000132109
-0.00400274
0.00395688
-5.82321e-05
-6.25591e-05
-0.00391474
0.00392245
-5.05138e-05
-5.4266e-05
-0.00392966
0.00393646
-4.39208e-05
-4.71666e-05
-0.00394283
0.00394883
-3.82604e-05
-4.10858e-05
-0.00395443
0.00395972
-3.33991e-05
-3.58659e-05
-0.00396465
0.00396931
-2.92081e-05
-3.13767e-05
-0.00397367
0.00397778
-2.55814e-05
-2.7501e-05
-0.00398163
0.00398527
-2.24324e-05
-2.41426e-05
-0.00398867
0.00399189
-1.96899e-05
-2.12234e-05
-0.00399491
0.00399777
-1.72951e-05
-1.86791e-05
-0.00400044
0.00400298
-1.51979e-05
-1.64555e-05
-0.00400536
0.00400762
-1.33564e-05
-1.45064e-05
-0.00400974
0.00401175
-1.17359e-05
-1.27944e-05
-0.00401363
0.00401542
-1.03077e-05
-1.12875e-05
-0.0040171
0.0040187
-9.04737e-06
-9.95972e-06
-0.0040202
0.00402163
-7.93367e-06
-8.78818e-06
-0.00402297
0.00402425
-6.94891e-06
-7.75351e-06
-0.00402545
0.0040266
-6.07693e-06
-6.83898e-06
-0.00402768
0.00402871
-5.30319e-06
-6.02947e-06
-0.00406324
0.00404998
2.85773e-05
-5.31308e-06
2.69508e-05
4.24527e-05
-6.89632e-05
0.00409944
-1.64747e-05
2.90075e-05
0.00408123
0.00407918
-2.00581e-08
-7.54869e-07
0.00404748
0.0040334
-3.79892e-05
5.65612e-05
0.00404703
0.00403335
0.00411136
0.00409325
-0.00408049
3.34158e-05
-0.00404304
0.00408457
6.92606e-05
1.71445e-05
0.00406754
-0.0040287
-6.29329e-06
1.22599e-05
0.00402768
-0.00402659
-7.00366e-06
-7.11191e-06
0.00402546
-0.00402425
-7.80254e-06
-7.85441e-06
0.00402298
-0.00402163
-8.70312e-06
-8.68963e-06
0.00402021
-0.0040187
-9.72118e-06
-9.63381e-06
0.00401711
-0.00401541
-1.08741e-05
-1.07032e-05
0.00401363
-0.00401172
-1.2181e-05
-1.19161e-05
0.00400972
-0.00400758
-1.36641e-05
-1.32929e-05
0.00400532
-0.00400291
-1.53491e-05
-1.48574e-05
0.00400038
-0.00399766
-1.7266e-05
-1.66374e-05
0.0039948
-0.00399174
-1.94503e-05
-1.86653e-05
0.00398852
-0.00398506
-2.19445e-05
-2.09799e-05
0.00398141
-0.00397751
-2.47983e-05
-2.36271e-05
0.00397338
-0.00396895
-2.80724e-05
-2.66618e-05
0.00396427
-0.00395925
-3.18388e-05
-3.01498e-05
0.00395394
-0.00394824
-3.61836e-05
-3.417e-05
0.00394219
-0.0039357
-4.12084e-05
-3.88156e-05
0.00392881
-0.00392142
-4.70345e-05
-4.41977e-05
0.00391356
-0.00390512
-5.38069e-05
-5.04484e-05
0.00389615
-0.00388653
-6.16939e-05
-5.77216e-05
0.00381178
-0.003762
-7.08478e-05
-6.61902e-05
0.00371388
-0.00367478
-4.1478e-05
-7.60477e-05
3.38473e-05
-1.00014e-05
-0.00369242
-0.00364356
2.63336e-06
9.50975e-05
-0.00387904
2.50936e-06
-0.00384787
4.7047e-05
0.004036
0.00406985
2.46847e-05
0.000191568
-0.00363448
-0.000447159
-0.00437481
-4.37616e-05
-0.00371206
1.63292e-05
-0.00383612
3.18332e-05
-0.00376035
-0.00430486
-0.000807343
0.000208421
-0.000512542
-0.00400074
-0.000274271
-0.00389212
-1.55377e-05
-0.00368638
-9.89862e-06
-6.01009e-05
-0.00362242
1.98412e-05
-0.0036733
-0.00390221
-0.0035413
0.00370888
-7.45607e-05
0.00371525
-0.00407784
-0.00044476
-0.000271231
-0.00383204
0.00389424
-1.43523e-07
8.95226e-06
-0.00390289
0.0039111
-6.64488e-05
-7.12001e-05
-0.00391885
0.00392619
-5.78551e-05
-6.20155e-05
-0.00393308
0.00393959
-5.04308e-05
-5.40547e-05
-0.00394569
0.00395145
-4.40234e-05
-4.71856e-05
-0.00395685
0.00396194
-3.84938e-05
-4.12604e-05
-0.00396671
0.00397122
-3.37128e-05
-3.61446e-05
-0.00397543
0.00397942
-2.95681e-05
-3.17174e-05
-0.00398315
0.00398668
-2.59645e-05
-2.78755e-05
-0.00398999
0.00399313
-2.28228e-05
-2.45319e-05
-0.00399606
0.00399884
-2.00769e-05
-2.16145e-05
-0.00400145
0.00400392
-1.76709e-05
-1.90628e-05
-0.00400624
0.00400844
-1.55575e-05
-1.68253e-05
-0.00401051
0.00401247
-1.36974e-05
-1.48591e-05
-0.00401431
0.00401606
-1.20573e-05
-1.31279e-05
-0.0040177
0.00401926
-1.06096e-05
-1.16018e-05
-0.00402073
0.00402213
-9.33049e-06
-1.02549e-05
-0.00402344
0.00402469
-8.19946e-06
-9.06542e-06
-0.00402586
0.00402699
-7.19888e-06
-8.01434e-06
-0.00402804
0.00402905
-6.31342e-06
-7.08521e-06
-0.00403
0.00406411
-5.52753e-06
-6.26262e-06
-0.00406785
0.00407798
3.75379e-05
2.32035e-05
-0.00402414
0.0040419
2.92885e-05
7.31305e-05
6.63397e-05
-4.89952e-05
0.00406389
-1.2434e-05
-1.13203e-05
0.00406565
0.00408991
4.97479e-05
7.15339e-07
0.00404898
0.00407993
1.56092e-08
-7.53455e-07
0.00404822
0.00403413
1.48604e-06
-2.21974e-06
0.00404776
0.00403409
-2.7348e-05
2.08902e-05
0.00407943
0.00408179
-1.36345e-05
1.84558e-05
0.00406503
0.00408973
0.00409839
-0.00405154
2.24186e-05
-0.00407997
0.00405661
4.18241e-05
4.3096e-05
0.00405909
-0.0040496
2.39256e-05
2.46921e-05
0.00402999
-0.00402904
-7.24724e-06
-7.35037e-06
0.00402804
-0.00402698
-8.06513e-06
-8.10901e-06
0.00402587
-0.00402469
-8.98566e-06
-8.96335e-06
0.00402345
-0.00402213
-1.00254e-05
-9.92798e-06
0.00402074
-0.00401926
-1.12014e-05
-1.10195e-05
0.00401771
-0.00401605
-1.25332e-05
-1.2256e-05
0.00401431
-0.00401244
-1.40426e-05
-1.36581e-05
0.00401049
-0.0040084
-1.57549e-05
-1.52491e-05
0.0040062
-0.00400385
-1.77e-05
-1.70564e-05
0.00400137
-0.00399873
-1.9912e-05
-1.9112e-05
0.00399594
-0.00399296
-2.24318e-05
-2.1453e-05
0.00398981
-0.00398645
-2.53077e-05
-2.41238e-05
0.0039829
-0.0039791
-2.85973e-05
-2.7177e-05
0.00397509
-0.00397079
-3.23688e-05
-3.06752e-05
0.00396625
-0.00396138
-3.67043e-05
-3.46932e-05
0.00395623
-0.00395072
-4.17008e-05
-3.932e-05
0.00394487
-0.0039386
-4.74732e-05
-4.46612e-05
0.00393196
-0.00392484
-5.41565e-05
-5.08414e-05
0.00391728
-0.00390918
-6.19083e-05
-5.80066e-05
0.00390058
-0.00389137
-7.09061e-05
-6.63237e-05
0.00388158
-0.00387109
-8.13341e-05
-7.59753e-05
0.00385997
-0.00380804
-9.34116e-05
-8.71696e-05
0.00375684
-0.00367897
-5.80318e-05
-4.85613e-05
-3.98417e-05
-6.10172e-06
-0.00362736
-0.003666
-5.28074e-05
6.56192e-05
-0.00375309
-0.00411925
-0.000471125
4.13304e-05
-0.00371957
0.00409416
-0.00410379
3.89204e-05
0.00409109
-8.25091e-06
4.03408e-05
-3.44906e-05
0.00405917
5.06866e-05
0.00404626
2.83215e-06
-0.00383438
1.76196e-05
-0.00382191
-8.08406e-05
-0.00390549
3.41572e-05
-0.00381005
5.26224e-05
-0.0037991
7.31025e-05
-0.00370162
-2.77128e-05
4.76437e-05
-0.00364729
-8.30333e-05
-0.00361068
-0.00383376
-0.00399858
0.00382096
-0.000267139
-0.000404328
0.000515124
-0.00423005
0.00415609
-0.0043097
-0.000250726
-0.00031361
-0.00369257
0.00376577
-0.000147767
-0.000142842
-0.00384913
0.00389984
-5.08468e-05
-7.4407e-05
-0.0039081
0.00391594
-7.42848e-05
-7.94653e-05
-0.00392331
0.0039303
-6.48432e-05
-6.93895e-05
-0.00393686
0.00394307
-5.66417e-05
-6.06174e-05
-0.0039489
0.00395441
-4.95359e-05
-5.30125e-05
-0.00395958
0.00396447
-4.33822e-05
-4.64285e-05
-0.00396905
0.00397338
-3.80469e-05
-4.07258e-05
-0.00397745
0.00398129
-3.34124e-05
-3.57791e-05
-0.00398489
0.00398831
-2.93769e-05
-3.14786e-05
-0.00399151
0.00399454
-2.58543e-05
-2.77308e-05
-0.00399738
0.00400007
-2.27724e-05
-2.4457e-05
-0.0040026
0.004005
-2.00697e-05
-2.15907e-05
-0.00400725
0.00400939
-1.76946e-05
-1.90757e-05
-0.00401139
0.0040133
-1.56033e-05
-1.68645e-05
-0.00401509
0.00401679
-1.37587e-05
-1.49169e-05
-0.00401839
0.00401991
-1.213e-05
-1.31992e-05
-0.00402134
0.0040227
-1.06907e-05
-1.16828e-05
-0.00402397
0.00402519
-9.41786e-06
-1.03433e-05
-0.00402634
0.00402743
-8.29214e-06
-9.15963e-06
-0.00402846
0.00402944
-7.29644e-06
-8.11371e-06
-0.00403037
0.00403126
-6.41363e-06
-7.18903e-06
-0.00406083
0.00407611
2.22574e-05
-6.37023e-06
4.54467e-05
1.78847e-05
-4.35795e-05
0.00408958
-2.89971e-05
4.83222e-08
0.0040946
0.0040788
-1.33613e-06
6.42634e-07
0.00404967
0.00403502
5.30428e-08
-7.54595e-07
0.00404892
0.00403483
1.4531e-06
-2.15114e-06
0.00404846
0.00403479
-4.47477e-05
3.22657e-05
0.00409191
0.00403489
0.0040875
0.00409272
-0.00409468
2.4374e-05
-0.0040844
0.00406703
5.91911e-05
5.14173e-05
0.00406252
-0.00403123
-7.36238e-06
-7.46901e-06
0.00403035
-0.00402942
-8.17785e-06
-8.22393e-06
0.00402845
-0.00402742
-9.09841e-06
-9.07858e-06
0.00402634
-0.00402519
-1.01378e-05
-1.00432e-05
0.00402398
-0.0040227
-1.13128e-05
-1.11339e-05
0.00402135
-0.00401991
-1.26422e-05
-1.23685e-05
0.0040184
-0.00401678
-1.41474e-05
-1.37671e-05
0.00401509
-0.00401328
-1.5853e-05
-1.53526e-05
0.00401137
-0.00400934
-1.77873e-05
-1.71511e-05
0.0040072
-0.00400492
-1.99834e-05
-1.91932e-05
0.00400252
-0.00399995
-2.24802e-05
-2.15148e-05
0.00399725
-0.00399436
-2.53229e-05
-2.41575e-05
0.00399131
-0.00398805
-2.85655e-05
-2.71708e-05
0.00398461
-0.00398094
-3.22719e-05
-3.06133e-05
0.00397706
-0.00397291
-3.65182e-05
-3.45546e-05
0.00396853
-0.00396384
-4.13948e-05
-3.90774e-05
0.00395888
-0.00395357
-4.70084e-05
-4.42799e-05
0.00394795
-0.00394194
-5.34851e-05
-5.02782e-05
0.00393557
-0.00392876
-6.09717e-05
-5.72083e-05
0.00392154
-0.00391381
-6.96374e-05
-6.52281e-05
0.00390561
-0.00389685
-7.96716e-05
-7.4517e-05
0.00388755
-0.00387761
-9.1278e-05
-8.52724e-05
0.00386707
-0.00385581
-0.000104674
-9.77078e-05
0.00379235
-0.00373029
-0.00012009
-0.000112021
0.00369624
-0.00368927
-9.00049e-05
-8.68567e-05
-0.000281056
7.96243e-05
-0.00369069
-0.00376668
-4.78149e-05
6.77985e-05
-0.00363067
-0.00361879
-0.00011829
1.12036e-05
-0.00372296
4.44975e-05
0.00404664
0.00410167
1.60498e-05
0.000198851
-0.0042631
-0.000245452
3.24845e-06
-0.00382
0.000300924
-0.00433212
-1.31922e-05
-0.00378722
1.89532e-05
-0.0038067
-6.50501e-06
-0.00381936
3.6649e-05
-0.00379407
5.64766e-05
-0.00378248
7.84822e-05
-0.00373246
6.27945e-05
-0.00364229
-8.7876e-05
7.21348e-05
-0.00361493
-9.84606e-05
-0.00360821
-0.00381931
-0.00424965
0.0040897
-9.07728e-05
-0.000351828
-0.00418658
0.000275312
0.00435509
-0.00423748
-0.000469433
-0.000140015
-0.00398465
0.00390667
-0.000189154
-0.000208568
-0.00387826
0.0038375
-0.000107005
-0.000114436
-0.00386299
0.00390568
-9.35328e-05
-9.98962e-05
-0.00391359
0.00392106
-8.17587e-05
-8.73763e-05
-0.00392808
0.00393472
-7.14859e-05
-7.64061e-05
-0.00394096
0.00394687
-6.25493e-05
-6.68562e-05
-0.00395242
0.00395767
-5.47889e-05
-5.85596e-05
-0.0039626
0.00396727
-4.80512e-05
-5.13588e-05
-0.00397165
0.0039758
-4.21967e-05
-4.5107e-05
-0.00397969
0.00398338
-3.71012e-05
-3.96723e-05
-0.00398684
0.00399012
-3.26574e-05
-3.49394e-05
-0.0039932
0.00399612
-2.87736e-05
-3.08088e-05
-0.00399886
0.00400146
-2.53718e-05
-2.71963e-05