/*--------------------------------*- C++ -*----------------------------------*\
  =========                 |
  \\      /  F ield         | OpenFOAM: The Open Source CFD Toolbox
   \\    /   O peration     | Website:  https://openfoam.org
    \\  /    A nd           | Version:  10
     \\/     M anipulation  |
\*---------------------------------------------------------------------------*/
FoamFile
{
    format      ascii;
    class       volVectorField;
    location    "29";
    object      U;
}
// * * * * * * * * * * * * * * * * * * * * * * * * * * * * * * * * * * * * * //

dimensions      [0 1 -1 0 0 0 0];

internalField   nonuniform List<vector> 
28942
(
(0.00456893 -0.00232593 -3.21791e-22)
(0.00618392 -0.00241847 -5.86727e-23)
(0.0180896 -0.0124852 -8.8873e-22)
(0.103304 0.0182422 -5.46046e-21)
(0.102341 0.0222836 1.786e-21)
(0.0203965 0.000708892 0)
(0.0242876 0.00029572 1.76433e-23)
(0.0279997 0.000912666 -1.57182e-23)
(0.135177 -0.0170589 -2.87793e-22)
(0.133757 -0.0154275 8.16629e-22)
(0.0103124 0.00430781 -6.09172e-22)
(0.016794 0.0060043 2.2387e-22)
(0.00748918 0.00334799 0)
(0.00497533 0.00221151 0)
(0.0606821 0.00242554 -2.28883e-23)
(0.0585104 0.00325524 -8.1349e-24)
(0.0893734 0.0158627 6.89292e-22)
(0.0870594 0.0138442 1.10822e-21)
(0.0122044 -0.0151551 3.06752e-21)
(0.0294337 -0.0305509 -8.07936e-22)
(0.0982976 0.0372537 9.88458e-22)
(0.0974508 0.0343011 0)
(0.0192644 0.00487448 1.12465e-21)
(0.00811487 0.00248045 5.24483e-22)
(0.0385426 0.0075263 8.97123e-22)
(0.0584818 0.0031985 -8.17848e-22)
(0.00766464 -0.018498 8.71471e-21)
(0.00670714 -0.0165603 -3.20532e-21)
(0.0357131 -0.0254331 6.16504e-22)
(0.0194053 -0.0137449 2.13835e-22)
(0.0208733 -0.00197107 0)
(0.0261006 -0.00182605 -1.98291e-23)
(0.0328416 0.00553726 4.1288e-22)
(0.0465243 0.00224179 -7.32395e-23)
(0.0189037 0.0180735 1.3665e-21)
(0.0157806 0.0191847 -1.37643e-21)
(0.0322908 0.0377367 -3.14474e-21)
(0.0187337 0.0306365 -1.09212e-21)
(0.0113429 0.000130738 -1.46633e-23)
(0.00868038 0.0162521 -2.68236e-21)
(0.0306462 -0.00620345 0)
(0.0513387 -0.0109702 0)
(0.110083 -0.0182085 -3.97673e-23)
(0.109666 -0.0178559 1.18658e-22)
(0.11223 -0.0179165 1.01976e-22)
(0.039091 0.000431038 1.77375e-23)
(0.0364448 -0.00053786 -2.91259e-23)
(0.05123 -0.000519894 -1.25174e-22)
(0.0491994 -0.000580351 3.53422e-23)
(0.0403984 -0.003391 -3.04694e-22)
(0.0305268 -0.00423854 1.95445e-22)
(0.127381 0.00247398 -4.63952e-22)
(0.126817 0.00199536 -4.27977e-22)
(0.134575 -0.0199341 -3.88426e-24)
(0.132953 -0.0182138 1.54637e-22)
(0.0843482 0.00723701 6.74478e-22)
(0.103717 0.000186915 2.20724e-22)
(0.00321837 0.00171397 -5.3082e-22)
(0.00932675 0.00387862 0)
(0.00857935 0.00345201 2.26125e-22)
(0.00302553 0.00157003 4.57296e-22)
(0.000395436 0.000247311 -3.81742e-22)
(0.000218243 0.00013822 -3.63404e-22)
(0.110731 -0.042556 0)
(0.106083 -0.0254365 1.10142e-22)
(0.122913 -0.0327139 -3.41759e-23)
(0.124328 -0.0434502 0)
(0.0902279 -0.0326782 -6.5959e-22)
(0.0937431 -0.0351225 -4.34194e-22)
(0.00194737 -0.00116228 1.06254e-21)
(0.00257423 -0.00207536 -3.35126e-22)
(0.00502802 -0.00324723 8.31578e-22)
(0.0850633 -0.0456558 0)
(0.0913662 -0.0394865 2.24252e-21)
(0.0807643 -0.052959 6.06945e-22)
(0.115705 0.0117581 1.99277e-22)
(0.114499 0.00607438 -2.2257e-22)
(0.12674 0.00997687 -7.37979e-23)
(0.00472343 -0.00288558 -5.73633e-23)
(0.00639321 -0.00446221 4.97117e-22)
(0.0514321 -0.0313193 1.43836e-22)
(0.0334631 -0.0206967 -2.69164e-22)
(0.00217734 -0.000629245 3.13487e-21)
(0.00528707 -0.0021436 -1.22269e-21)
(0.101764 0.0482952 2.48932e-23)
(0.0976625 0.0552893 -8.12153e-22)
(0.0812062 0.0541569 7.44903e-22)
(0.047491 0.0346624 -2.83201e-21)
(0.0447181 0.031762 2.00622e-21)
(0.0296716 0.0207022 -1.21733e-22)
(0.0329024 0.0233618 -6.72234e-22)
(0.0381667 0.0284842 9.13277e-22)
(0.00471836 0.00303409 -4.82498e-23)
(0.00828111 0.00438967 -1.44641e-23)
(0.00340642 0.00218852 2.89843e-23)
(0.00205986 0.001799 -3.81439e-22)
(0.00155921 0.00173939 4.63544e-22)
(0.0158262 0.0115989 -3.41931e-21)
(0.0175831 0.013695 7.86092e-22)
(0.0089918 -0.00394816 0)
(0.101389 0.00516082 0)
(0.0983999 0.0156859 -4.07747e-21)
(0.0604349 0.0104758 2.03991e-21)
(0.0886732 0.0178828 0)
(0.136343 -0.00405117 0)
(0.135771 -0.00489334 0)
(0.134381 -0.00533409 -3.81542e-22)
(0.115075 0.026144 -2.24798e-22)
(0.114183 0.0275815 2.21631e-21)
(0.113358 0.0250507 1.1892e-21)
(0.00243176 0.00138204 9.81055e-22)
(0.00161721 0.000834275 -1.10114e-21)
(0.0196154 -0.00575414 -5.11862e-22)
(0.0208291 -0.00532737 4.29646e-22)
(0.00942958 -0.00304716 8.43952e-22)
(0.0064928 0.0111946 1.50992e-21)
(0.019012 0.0182293 3.53488e-21)
(0.0135046 0.0228796 2.73049e-22)
(0.00493505 0.0143567 -8.81262e-21)
(0.117832 0.0476066 6.1122e-23)
(0.108431 0.0581569 1.14439e-21)
(0.118975 0.0546852 -1.97436e-21)
(0.039281 -0.0295249 7.66567e-22)
(0.0241229 -0.0173347 -4.97292e-22)
(0.00532802 -0.00071982 -4.19067e-21)
(0.00454398 -0.00357594 0)
(0.0125156 -0.00164092 2.05033e-21)
(0.0220583 -0.0161903 8.10505e-22)
(0.0344009 -0.0278751 -2.04756e-21)
(0.048634 5.25256e-05 8.94509e-23)
(0.0515271 0.000220237 -6.17952e-23)
(0.0458179 0.000272044 -2.74728e-24)
(0.0281488 -0.0420349 0)
(0.0296959 -0.0428995 0)
(0.0896124 -0.0186571 -4.87748e-22)
(0.0995797 -0.0220964 3.3009e-21)
(0.0870303 -0.02528 0)
(0.0473141 -0.0402919 0)
(0.058407 -0.0514685 -8.17629e-22)
(0.0414847 0.0394639 2.14908e-21)
(6.51088e-06 0.000229165 4.52566e-22)
(-0.000196605 0.000138216 -2.90146e-22)
(0.0224103 -0.0193023 -8.2544e-22)
(0.114813 -0.0177057 5.81482e-22)
(0.11422 -0.0174687 -1.10263e-22)
(0.117361 -0.00454146 -5.48459e-23)
(0.110505 0.00234316 7.30904e-23)
(0.11968 0.00122356 1.16265e-22)
(9.79936e-05 0.000273322 1.78444e-22)
(0.0439769 0.0345537 3.33862e-21)
(0.0622223 0.0464633 -8.23607e-22)
(0.0597104 0.0395398 -3.24624e-24)
(0.0322736 -0.00116072 7.94471e-24)
(0.0318138 -0.0012143 4.34018e-23)
(0.0344253 -0.00111336 2.21336e-24)
(0.038318 -0.000940987 -2.14456e-23)
(0.045637 0.0382213 1.34883e-22)
(0.0190483 0.0161211 0)
(0.000124419 1.04283e-05 3.15173e-22)
(0.000416839 -0.000239358 -3.49817e-22)
(0.00192625 -0.00101966 2.38341e-22)
(0.0372647 -0.00800909 -1.78371e-21)
(0.0659339 -0.00240708 -7.1866e-22)
(0.0441871 -0.000526415 -2.24105e-24)
(0.075419 -0.00751025 2.64552e-22)
(0.0714978 -0.0157409 2.43596e-23)
(0.0944947 0.0398112 2.22156e-21)
(0.0916281 0.0453705 9.90569e-23)
(0.0888617 0.029033 1.25635e-21)
(0.0915943 0.0307335 -9.10464e-22)
(0.0989038 0.0409353 0)
(0.125187 -0.00138739 1.68229e-22)
(0.125858 -0.00184043 3.20963e-22)
(0.127778 -0.0111286 -3.28659e-22)
(0.129216 -0.0108544 5.64036e-22)
(0.117121 0.0235958 2.77441e-22)
(0.119192 0.0244377 -7.86555e-22)
(0.117196 0.0256285 0)
(0.115214 0.0244166 1.62511e-22)
(0.116794 0.0275825 0)
(0.117401 0.0356485 -5.84339e-22)
(0.115957 0.0377459 -3.17519e-22)
(0.111605 0.0416561 -5.68393e-22)
(0.11399 0.0397401 0)
(0.116739 0.042692 1.89174e-21)
(0.114022 0.0446695 4.73523e-23)
(0.10861 0.0439176 -3.17772e-22)
(0.0999272 0.0501417 -1.34439e-21)
(0.0986625 0.0453535 -2.36496e-22)
(0.0267532 -0.00948094 2.39521e-23)
(0.035035 -0.0105971 -9.76551e-24)
(0.00653573 -0.00258773 -6.32251e-22)
(0.0435214 9.42775e-07 -5.94729e-23)
(0.0548954 -0.000294664 0)
(-1.29151e-05 -3.41881e-05 3.74911e-22)
(6.20978e-06 -4.48612e-05 1.92539e-22)
(0.0499337 -0.00223803 2.65507e-23)
(0.0582871 -0.00216582 1.00632e-23)
(0.0577154 -0.00144104 0)
(0.0484046 -0.000922575 1.15643e-23)
(0.10795 0.00169489 -1.41972e-22)
(0.107859 0.00151406 6.77632e-22)
(0.108129 0.00153667 3.25623e-22)
(0.00073063 0.000299136 3.59603e-22)
(-0.000157416 -0.000130643 -5.29788e-22)
(-0.000203803 -0.00017638 4.44165e-22)
(0.00158068 0.000663638 0)
(9.63915e-05 0.000100684 1.09978e-21)
(0.000192885 -2.92684e-05 -7.81654e-22)
(0.00766856 0.00378625 -9.56848e-22)
(0.00151733 0.000816948 -1.15684e-21)
(0.00178487 0.000894217 0)
(0.00157632 0.00757118 0)
(0.000578715 0.00329278 0)
(0.0003142 0.00198404 0)
(0.137192 -0.00417876 7.90497e-23)
(0.137902 -0.00407316 0)
(0.136575 -0.00509775 -9.14496e-23)
(0.0881586 -0.0147965 4.56277e-21)
(0.0901631 -0.0152022 -1.65653e-21)
(0.0890758 -0.0128268 0)
(0.111889 3.1707e-05 -8.0179e-24)
(0.111977 2.87514e-05 1.60484e-23)
(0.111795 3.55445e-05 -5.43053e-24)
(0.112061 2.63436e-05 0)
(0.11214 2.5051e-05 -1.02198e-23)
(0.112214 2.29445e-05 0)
(0.112213 -5.45288e-05 0)
(0.112283 1.936e-05 3.78648e-23)
(0.112281 -5.50545e-05 0)
(0.11214 -5.59795e-05 -1.02868e-23)
(0.112061 -5.81559e-05 0)
(0.111978 -6.05664e-05 5.36927e-24)
(0.111888 -6.36001e-05 -8.01873e-24)
(0.111795 -6.65426e-05 5.42374e-24)
(0.112348 1.60177e-05 -3.62335e-23)
(0.112346 -5.46479e-05 -1.26765e-24)
(0.111695 3.98587e-05 8.34192e-28)
(0.111695 -6.86909e-05 -8.30388e-24)
(0.111588 4.44054e-05 4.4214e-23)
(0.112409 1.39042e-05 3.38517e-26)
(0.112408 -5.29252e-05 -1.26733e-24)
(0.111588 -7.1908e-05 1.63793e-23)
(0.112467 1.16649e-05 3.40696e-23)
(0.112521 9.7268e-06 -3.40416e-23)
(0.112467 -5.13822e-05 2.55327e-24)
(0.112521 -4.97868e-05 5.04252e-24)
(0.111477 5.20193e-05 -4.3018e-23)
(0.111476 -7.57568e-05 -1.07843e-23)
(0.112573 7.72582e-06 0)
(0.112573 -4.84006e-05 -4.97362e-24)
(0.111357 5.77173e-05 5.32825e-27)
(0.111356 -7.85744e-05 -5.34161e-27)
(0.112622 6.02666e-06 0)
(0.112622 -4.69491e-05 0)
(0.111229 6.31466e-05 0)
(0.111228 -8.22055e-05 0)
(0.112667 4.27438e-06 0)
(0.112668 -4.5667e-05 2.38777e-24)
(0.111093 6.90922e-05 -2.24238e-23)
(0.111092 -8.5726e-05 -5.4689e-27)
(0.112711 2.81649e-06 1.25155e-25)
(0.112711 -4.42703e-05 -2.55013e-24)
(0.110947 7.51849e-05 2.25309e-23)
(0.110946 -8.97515e-05 0)
(0.112752 1.28494e-06 0)
(0.112752 -4.29929e-05 0)
(0.110793 8.20494e-05 -1.42873e-24)
(0.110791 -9.34759e-05 2.45367e-23)
(0.112791 -9.09963e-08 1.54731e-23)
(0.112791 -4.1601e-05 0)
(0.110628 8.87768e-05 -1.40788e-25)
(0.110626 -9.77922e-05 -2.32244e-23)
(0.112827 -1.63239e-06 -2.31443e-23)
(0.112827 -4.04093e-05 -6.71763e-24)
(0.110449 9.36775e-05 2.37185e-23)
(0.110448 -0.000102287 0)
(0.112862 -3.03289e-06 7.62343e-24)
(0.112862 -3.89984e-05 4.48013e-24)
(0.110259 0.000100923 -1.20332e-23)
(0.110259 -0.000108189 2.44049e-23)
(0.112894 -4.24965e-06 -3.04602e-23)
(0.112896 -3.6907e-05 3.43314e-23)
(0.11005 0.000103791 1.24348e-23)
(0.110052 -0.000115311 3.93955e-25)
(0.112926 -5.35038e-06 0)
(0.112927 -3.5299e-05 1.63696e-23)
(0.109826 0.000107747 -2.50647e-23)
(0.109829 -0.000125281 5.01478e-23)
(0.112957 -6.23057e-06 0)
(0.112957 -3.46227e-05 0)
(0.110064 0.000321149 -1.23041e-23)
(0.10984 0.000340522 -4.99318e-23)
(0.109582 0.000110116 0)
(0.109588 -0.000139603 -2.56084e-23)
(0.110462 0.00028381 -7.70528e-24)
(0.11027 0.000302513 1.51356e-24)
(0.110804 0.000247479 0)
(0.110638 0.000265458 -2.48204e-23)
(0.111103 0.000214855 -4.77053e-26)
(0.110959 0.000230662 0)
(0.111367 0.000185962 0)
(0.111239 0.000199987 0)
(0.1116 0.000158996 0)
(0.111487 0.000172468 0)
(0.111802 0.000136901 1.07222e-23)
(0.111703 0.000147634 2.70606e-24)
(0.111983 0.000118647 -1.03301e-23)
(0.111896 0.000127361 -1.07141e-23)
(0.112143 0.000103124 1.83083e-23)
(0.112065 0.000109791 2.34312e-23)
(0.112287 8.97621e-05 0)
(0.112217 9.66681e-05 0)
(0.112413 7.72222e-05 -8.03144e-26)
(0.112352 8.33238e-05 0)
(0.112525 6.60799e-05 0)
(0.112471 7.14719e-05 0)
(0.112625 5.62289e-05 0)
(0.112576 6.1002e-05 0)
(0.112714 4.74676e-05 0)
(0.112671 5.17248e-05 0)
(0.112793 3.96732e-05 0)
(0.112755 4.34484e-05 0)
(0.112864 3.27576e-05 0)
(0.11283 3.61126e-05 0)
(0.112928 2.54122e-05 -1.24553e-23)
(0.112897 2.95657e-05 0)
(0.112958 2.20243e-05 -4.02678e-24)
(0.112986 -7.49489e-06 3.92863e-24)
(0.112986 -3.39787e-05 -3.89594e-24)
(0.112898 -6.863e-05 0)
(0.112959 -6.27257e-05 -1.59871e-23)
(0.112929 -6.53478e-05 -8.22681e-24)
(0.11283 -7.58151e-05 2.25137e-24)
(0.112865 -7.21429e-05 -8.81681e-24)
(0.112755 -8.28864e-05 7.29556e-26)
(0.112793 -7.94693e-05 0)
(0.112671 -9.00929e-05 0)
(0.112714 -8.63884e-05 0)
(0.112576 -9.82655e-05 0)
(0.112625 -9.40469e-05 0)
(0.11247 -0.000107554 0)
(0.112525 -0.000102758 9.61233e-30)
(0.112351 -0.000118171 8.12021e-26)
(0.112412 -0.000112671 0)
(0.112217 -0.000129945 0)
(0.112285 -0.000124116 0)
(0.112066 -0.000142325 0)
(0.112144 -0.000136037 0)
(0.111895 -0.000157314 0)
(0.111983 -0.0001491 -5.42405e-24)
(0.111702 -0.000175564 1.43034e-24)
(0.111801 -0.000167019 -7.00832e-24)
(0.111484 -0.000197356 0)
(0.111597 -0.000185382 -5.71032e-24)
(0.111237 -0.000220814 0)
(0.111365 -0.000208786 0)
(0.110956 -0.000247399 0)
(0.111101 -0.000233651 0)
(0.110635 -0.000277727 0)
(0.110801 -0.000262107 0)
(0.110269 -0.00031208 -6.29823e-24)
(0.110459 -0.000293822 0)
(0.109848 -0.000355698 -2.5661e-23)
(0.110066 -0.000331583 -6.34785e-24)
(0.10961 -0.00038347 2.61798e-23)
(0.109599 0.000361799 4.95522e-23)
(0.112987 1.92136e-05 7.88033e-24)
(0.112987 -6.03228e-05 -1.54021e-23)
(0.109326 -0.000158391 0)
(0.109354 -0.00041788 0)
(0.109338 0.000384808 0)
(0.109319 0.000110264 0)
(0.110093 0.000535138 0)
(0.109638 0.00061182 1.24001e-23)
(0.109874 0.000571529 1.24948e-23)
(0.110487 0.000467165 1.58297e-23)
(0.110297 0.000500403 -3.16551e-24)
(0.110826 0.000406576 4.87864e-26)
(0.110663 0.000435722 0)
(0.111123 0.000354336 0)
(0.11098 0.000379548 0)
(0.111384 0.000308879 0)
(0.111258 0.000330824 0)
(0.111614 0.000269574 0)
(0.111502 0.000288408 0)
(0.111816 0.000234768 0)
(0.111718 0.000251768 0)
(0.111995 0.000205422 -4.33012e-26)
(0.111908 0.00021999 1.11753e-23)
(0.112153 0.000179553 -4.15248e-26)
(0.112077 0.000191583 -2.17931e-23)
(0.112295 0.000156408 0)
(0.112226 0.000167541 0)
(0.11242 0.000136321 4.0118e-26)
(0.11236 0.000146039 0)
(0.112531 0.00011868 0)
(0.112477 0.000127219 0)
(0.11263 0.000103099 0)
(0.112582 0.000110648 0)
(0.112719 8.93062e-05 0)
(0.112676 9.59922e-05 0)
(0.112798 7.70799e-05 0)
(0.112759 8.30055e-05 0)
(0.112868 6.61196e-05 0)
(0.112834 7.14698e-05 0)
(0.112932 5.51929e-05 8.50709e-24)
(0.112901 6.06982e-05 0)
(0.113013 -8.6975e-06 0)
(0.113014 1.67848e-05 7.71106e-24)
(0.11299 4.53532e-05 0)
(0.112962 5.00141e-05 8.29257e-24)
(0.112962 -9.11424e-05 1.65072e-23)
(0.11299 -8.71307e-05 4.05734e-24)
(0.113014 -5.83401e-05 3.16416e-23)
(0.113013 -3.30531e-05 0)
(0.112901 -0.000100869 0)
(0.112932 -9.57189e-05 -2.49176e-23)
(0.112834 -0.00011144 7.09347e-26)
(0.112869 -0.000105969 8.87043e-24)
(0.11276 -0.000122275 -7.29553e-26)
(0.112798 -0.000116753 0)
(0.112676 -0.000134253 0)
(0.112719 -0.000128087 0)
(0.112582 -0.000147836 0)
(0.11263 -0.000140829 0)
(0.112477 -0.000163283 0)
(0.112531 -0.000155311 -9.61231e-30)
(0.112359 -0.000180848 -1.6237e-25)
(0.11242 -0.000171786 0)
(0.112226 -0.000200949 0)
(0.112294 -0.000190553 0)
(0.112076 -0.000223622 2.73766e-24)
(0.112153 -0.000211901 0)
(0.111907 -0.000249046 0)
(0.111994 -0.000235561 -2.72624e-24)
(0.111716 -0.000279002 5.7216e-24)
(0.111814 -0.000263756 5.67866e-24)
(0.111499 -0.000312977 0)
(0.111611 -0.000295482 0)
(0.111254 -0.000351829 0)
(0.11138 -0.000331742 0)
(0.110975 -0.000396484 0)
(0.111119 -0.000373368 0)
(0.110657 -0.000448023 0)
(0.110821 -0.000421332 0)
(0.110295 -0.000507677 1.01047e-25)
(0.110482 -0.000476715 0)
(0.10988 -0.000577385 -1.02893e-25)
(0.110095 -0.000541135 0)
(0.109398 -0.00066813 -2.69964e-23)
(0.109647 -0.000620276 2.6984e-23)
(0.109384 0.000655248 2.53165e-23)
(0.109078 -0.000458502 0)
(0.109128 -0.000724741 -5.51911e-23)
(0.109046 -0.000179821 0)
(0.113017 4.18059e-05 0)
(0.113017 -8.32949e-05 -3.93839e-24)
(0.109059 0.000410069 6.43766e-23)
(0.109112 0.000702688 2.57732e-23)
(0.108779 -0.000502984 1.39599e-23)
(0.108836 -0.000787892 6.97607e-23)
(0.109035 0.000110496 0)
(0.112994 7.26558e-05 3.24634e-23)
(0.11302 6.69554e-05 -1.60387e-23)
(0.11304 -5.64938e-05 -7.79802e-24)
(0.113042 -7.95471e-05 3.87818e-23)
(0.109193 0.000987613 9.01107e-23)
(0.108816 0.000755258 -5.07096e-23)
(0.108587 0.00114769 -2.29778e-22)
(0.108901 0.00106178 -5.14939e-23)
(0.1097 0.000856638 2.49963e-23)
(0.109456 0.000919881 -7.66036e-23)
(0.110141 0.000743697 -2.55084e-23)
(0.109929 0.000798203 -1.92986e-23)
(0.110526 0.000646872 -6.33128e-24)
(0.11034 0.000693877 -6.35008e-24)
(0.11086 0.000563794 -4.87864e-26)
(0.110699 0.000603717 0)
(0.111152 0.000492228 0)
(0.111011 0.000526717 0)
(0.111409 0.000430277 0)
(0.111284 0.00046015 0)
(0.111635 0.000376575 0)
(0.111525 0.00040246 0)
(0.111835 0.000329919 0)
(0.111738 0.000352382 0)
(0.112012 0.000289191 0)
(0.111926 0.000308865 0)
(0.112168 0.000253645 1.51888e-29)
(0.112092 0.000270923 0)
(0.112307 0.000222355 0)
(0.11224 0.00023744 0)
(0.112431 0.000194938 4.00989e-26)
(0.112371 0.000208208 0)
(0.112541 0.000170825 0)
(0.112488 0.0001825 0)
(0.112639 0.000149557 0)
(0.112591 0.000159861 0)
(0.112726 0.000130763 0)
(0.112684 0.000139871 0)
(0.112804 0.000114126 0)
(0.112766 0.000122194 0)
(0.112874 9.92521e-05 0)
(0.11284 0.000106506 0)
(0.112937 8.52611e-05 4.33602e-24)
(0.112906 9.21267e-05 -2.18159e-24)
(0.112966 7.87681e-05 -1.65564e-23)
(0.113039 -9.25214e-06 -3.69238e-24)
(0.113042 3.84005e-05 1.54483e-23)
(0.11304 1.44254e-05 -1.18023e-23)
(0.113039 -3.24491e-05 0)
(0.112966 -0.000119882 -1.2298e-23)
(0.11302 -0.000108245 -3.55187e-23)
(0.112994 -0.000113885 2.85892e-23)
(0.112907 -0.000133089 0)
(0.112937 -0.000126314 0)
(0.11284 -0.000146456 -7.83141e-30)
(0.112874 -0.000139442 0)
(0.112766 -0.000161352 0)
(0.112804 -0.000153705 0)
(0.112684 -0.000178073 -7.49721e-26)
(0.112726 -0.000169459 0)
(0.112591 -0.000197019 0)
(0.112639 -0.000187249 0)
(0.112487 -0.00021854 0)
(0.112541 -0.000207438 0)
(0.11237 -0.000242997 8.11797e-26)
(0.112431 -0.000230381 0)
(0.112239 -0.000270829 8.32662e-26)
(0.112307 -0.000256454 0)
(0.112091 -0.000302515 0)
(0.112167 -0.000286143 0)
(0.111924 -0.000338648 0)
(0.11201 -0.000320002 0)
(0.111735 -0.000379987 0)
(0.111832 -0.000358583 0)
(0.111521 -0.000427185 0)
(0.111631 -0.000402775 0)
(0.111279 -0.000481444 -9.41267e-26)
(0.111404 -0.000453373 0)
(0.111004 -0.000543922 0)
(0.111146 -0.000511575 0)
(0.110691 -0.000616089 0)
(0.110853 -0.000578701 0)
(0.110334 -0.000699654 -4.35385e-29)
(0.110518 -0.00065633 0)
(0.109926 -0.000796708 5.43713e-29)
(0.110137 -0.000746356 0)
(0.109457 -0.000913296 1.06965e-25)
(0.109699 -0.000851479 0)
(0.108912 -0.00106202 -5.66152e-23)
(0.109195 -0.000982951 1.38708e-23)
(0.108524 -0.000855361 1.42624e-23)
(0.108612 -0.00114932 2.82502e-23)
(0.10876 0.00043594 -2.51295e-23)
(0.108743 -0.000204576 -2.70548e-23)
(0.113046 6.20312e-05 3.93122e-24)
(0.113046 -0.000103392 2.79185e-23)
(0.108487 0.00080665 3.10334e-24)
(0.108458 -0.00055367 0)
(0.108189 0.00120472 3.51856e-22)
(0.108291 -0.00124327 4.38277e-23)
(0.108193 -0.00092935 5.84476e-23)
(0.108289 0.00168946 -5.91001e-22)
(0.108038 0.00184056 1.06004e-22)
(0.108737 0.000111705 0)
(0.108759 0.00146067 5.80927e-23)
(0.108504 0.00158301 3.02289e-23)
(0.109296 0.00126021 5.22562e-23)
(0.109027 0.00135459 -7.9863e-23)
(0.109783 0.00109107 -2.59073e-23)
(0.109548 0.00117315 -1.29641e-23)
(0.110207 0.000946539 1.2948e-23)
(0.110002 0.00101563 1.31543e-23)
(0.110579 0.000823099 0)
(0.110399 0.000882387 -3.46328e-26)
(0.110904 0.000717936 0)
(0.110747 0.000768503 0)
(0.11119 0.000627524 4.76092e-26)
(0.111052 0.000671058 0)
(0.111442 0.000549421 0)
(0.11132 0.000587072 0)
(0.111664 0.000481703 0)
(0.111556 0.000514367 0)
(0.11186 0.000422868 0)
(0.111765 0.00045126 0)
(0.112033 0.000371548 4.32393e-26)
(0.111949 0.000396332 0)
(0.112187 0.000326646 1.57599e-29)
(0.112112 0.000348394 0)
(0.112324 0.000287256 0)
(0.112257 0.000306297 0)
(0.112445 0.000252635 -8.01847e-26)
(0.112386 0.000269395 0)
(0.112554 0.000222171 0)
(0.112501 0.000236921 0)
(0.11265 0.000195318 0)
(0.112603 0.000208326 0)
(0.112736 0.000171607 0)
(0.112694 0.000183097 0)
(0.112813 0.00015064 0)
(0.112776 0.000160806 0)
(0.112882 0.000131993 0)
(0.112848 0.000141065 0)
(0.112944 0.000115098 -2.16626e-24)
(0.112914 0.000123219 0)
(0.113 9.98671e-05 0)
(0.112972 0.000107303 -4.20447e-24)
(0.11305 8.5724e-05 1.43679e-27)
(0.113026 9.25936e-05 0)
(0.113066 3.51595e-05 -1.56629e-23)
(0.113074 7.98171e-05 9.46395e-25)
(0.11307 5.78453e-05 7.67602e-24)
(0.113063 -9.66632e-06 5.63432e-24)
(0.113064 1.25469e-05 -3.88911e-24)
(0.113064 -5.47955e-05 -1.9577e-24)
(0.113063 -3.20469e-05 1.95453e-24)
(0.113069 -9.94586e-05 0)
(0.113066 -7.66475e-05 -1.77695e-23)
(0.113025 -0.000133903 -7.98784e-24)
(0.113073 -0.000122359 -1.52851e-23)
(0.11305 -0.000127702 3.51662e-23)
(0.112972 -0.000148162 -4.18741e-24)
(0.112999 -0.000140788 0)
(0.112914 -0.000164149 0)
(0.112944 -0.000155973 0)
(0.112848 -0.000181013 -1.11998e-29)
(0.112882 -0.000172387 0)
(0.112776 -0.000199947 0)
(0.112813 -0.000190201 0)
(0.112694 -0.000221322 7.49721e-26)
(0.112736 -0.000210307 0)
(0.112603 -0.000245548 0)
(0.11265 -0.000233056 0)
(0.112501 -0.00027305 0)
(0.112553 -0.000258865 0)
(0.112386 -0.000304296 0)
(0.112445 -0.000288177 0)
(0.112256 -0.000339837 -2.22278e-29)
(0.112323 -0.000321496 0)
(0.11211 -0.000380302 0)
(0.112185 -0.000359411 0)
(0.111946 -0.000426468 0)
(0.112031 -0.000402626 0)
(0.11176 -0.000479241 0)
(0.111856 -0.000451963 0)
(0.11155 -0.000539651 0)
(0.111659 -0.000508411 0)
(0.111313 -0.000609045 9.41267e-26)
(0.111435 -0.000573144 0)
(0.111043 -0.000688964 0)
(0.111182 -0.000647587 0)
(0.110736 -0.000781286 0)
(0.110894 -0.000733454 0)
(0.110386 -0.000888218 -1.00994e-25)
(0.110567 -0.000832779 0)
(0.109987 -0.00101234 1.03354e-25)
(0.110193 -0.000947964 0)
(0.109531 -0.00115729 -1.05756e-25)
(0.109767 -0.00108193 0)
(0.109008 -0.00133134 1.39655e-23)
(0.109278 -0.00123913 -2.75226e-23)
(0.108409 -0.00154634 -1.41386e-23)
(0.108717 -0.00143326 2.87437e-23)
(0.107945 -0.00134473 6.59735e-25)
(0.108077 -0.00166859 2.92462e-23)
(0.108437 0.000458478 -2.59771e-23)
(0.108422 -0.000226887 0)
(0.108143 0.000847003 -2.52196e-22)
(0.108118 -0.00059941 0)
(0.113056 0.00011059 -3.93527e-24)
(0.113079 0.000103354 2.88288e-24)
(0.113092 -9.5424e-05 -1.50411e-23)
(0.113096 -0.000116842 -1.70472e-23)
(0.107815 0.00122605 -2.47911e-22)
(0.107837 -0.00100904 -5.90194e-23)
(0.107737 0.00187241 0)
(0.10842 0.0020034 -6.86222e-23)
(0.107575 -0.00145513 -2.89653e-23)
(0.10772 -0.00180037 4.45612e-23)
(0.108112 0.00211873 1.37415e-22)
(0.108415 0.000112805 0)
(0.10892 0.00174529 0)
(0.108671 0.00187518 -6.08092e-23)
(0.109421 0.0015149 0)
(0.109172 0.0016268 0)
(0.109882 0.00131267 0)
(0.109658 0.00140977 1.3431e-23)
(0.110287 0.0011409 0)
(0.110091 0.00122339 0)
(0.110645 0.000993863 0)
(0.110471 0.00106452 0)
(0.11096 0.000867911 0)
(0.110807 0.00092851 0)
(0.111237 0.000759504 -4.76092e-26)
(0.111103 0.000811709 0)
(0.111482 0.000665821 0)
(0.111363 0.000710985 0)
(0.111698 0.000584559 0)
(0.111594 0.000623767 0)
(0.11189 0.00051387 0)
(0.111797 0.000548001 0)
(0.11206 0.000452201 -2.02895e-29)
(0.111977 0.000482001 0)
(0.11221 0.000398246 1.84488e-29)
(0.112137 0.000424341 0)
(0.112344 0.000350899 0)
(0.112279 0.000373806 0)
(0.112463 0.000309268 1.55692e-29)
(0.112405 0.000329423 0)
(0.112569 0.000272616 0)
(0.112518 0.000290365 0)
(0.112664 0.000240305 0)
(0.112618 0.000255958 0)
(0.112748 0.000211781 0)
(0.112707 0.000225603 0)
(0.112824 0.000186578 0)
(0.112787 0.000198794 0)
(0.112891 0.000164269 0)
(0.112858 0.000175089 0)
(0.112952 0.000144505 0)
(0.112922 0.00015411 0)
(0.113007 0.00012629 4.17425e-24)
(0.11298 0.000135012 4.26832e-24)
(0.113032 0.000118037 -8.01413e-24)
(0.113089 3.22785e-05 -7.68923e-24)
(0.113096 7.49012e-05 0)
(0.113092 5.38413e-05 -7.76561e-24)
(0.113086 -1.01479e-05 0)
(0.113087 1.12012e-05 7.84736e-24)
(0.113087 -5.33691e-05 1.17131e-23)
(0.113086 -3.18391e-05 -3.95853e-24)
(0.113089 -7.4103e-05 -2.30193e-23)
(0.113032 -0.000159339 4.02841e-24)
(0.113079 -0.00014389 1.50069e-23)
(0.113056 -0.000152071 0)
(0.11298 -0.000176129 -8.34062e-24)
(0.113006 -0.000167474 8.36816e-24)
(0.112922 -0.000194624 0)
(0.112952 -0.000185295 0)
(0.112858 -0.000214965 -1.42423e-29)
(0.112891 -0.00020451 0)
(0.112787 -0.000237898 0)
(0.112824 -0.000226085 0)
(0.112707 -0.000263837 0)
(0.112748 -0.000250467 0)
(0.112618 -0.00029324 0)
(0.112664 -0.000278079 0)
(0.112517 -0.000326607 0)
(0.112569 -0.000309399 0)
(0.112404 -0.000364507 8.11199e-26)
(0.112462 -0.000344956 0)
(0.112278 -0.00040761 -8.3244e-26)
(0.112343 -0.000385368 0)
(0.112135 -0.000456686 0)
(0.112208 -0.000431353 0)
(0.111974 -0.000512654 0)
(0.112057 -0.000483749 0)
(0.111792 -0.000576617 0)
(0.111886 -0.000543569 0)
(0.111587 -0.000649861 0)
(0.111693 -0.000611992 0)
(0.111354 -0.000733963 0)
(0.111474 -0.000690456 0)
(0.111091 -0.000830794 0)
(0.111227 -0.000780666 0)
(0.110792 -0.000942596 -9.85626e-26)
(0.110946 -0.00088468 0)
(0.110452 -0.00107203 1.00872e-25)
(0.110627 -0.00100493 0)
(0.110065 -0.00122225 -1.03215e-25)
(0.110265 -0.00114434 0)
(0.109623 -0.00139709 0)
(0.109851 -0.00130634 0)
(0.109118 -0.00160115 0)
(0.109379 -0.00149509 0)
(0.108544 -0.00184205 1.11834e-25)
(0.108842 -0.0017157 1.41345e-23)
(0.107887 -0.00213247 -7.45503e-23)
(0.108226 -0.00198047 0)
(0.107338 -0.00194825 -4.41269e-23)
(0.107521 -0.00229929 -6.72257e-25)
(0.108094 0.000480588 8.13916e-23)
(0.108078 -0.000248392 0)
(0.113102 9.63326e-05 -1.49812e-23)
(0.113101 -0.000137416 -2.8903e-23)
(0.107755 0.000871161 -4.34581e-23)
(0.107531 0.0016535 6.28965e-25)
(0.10742 0.00126439 1.26225e-22)
(0.107759 -0.000645737 0)
(0.107457 -0.00108689 1.49021e-23)
(0.107727 0.00222764 -1.2636e-22)
(0.107369 0.00228971 1.09878e-22)
(0.107212 0.00182807 -1.08311e-22)
(0.107179 -0.00157016 -4.47959e-23)
(0.106929 -0.00210235 3.00767e-23)
(0.107131 -0.00248592 2.93199e-23)
(0.10807 0.000113278 0)
(0.108554 0.00229805 3.8215e-24)
(0.107872 0.00261728 -7.13876e-25)
(0.108226 0.00245055 2.9688e-23)
(0.109077 0.00201129 2.9204e-23)
(0.108828 0.0021511 -2.93557e-23)
(0.109556 0.00175095 5.33158e-26)
(0.109319 0.00187784 0)
(0.109992 0.0015231 0)
(0.10978 0.00163278 0)
(0.110379 0.00132701 0)
(0.110191 0.00142139 0)
(0.110721 0.00115822 0)
(0.110555 0.00123945 0)
(0.111025 0.0010129 4.86665e-26)
(0.110878 0.00108287 0)
(0.111293 0.000887488 0)
(0.111163 0.000947914 0)
(0.11153 0.000778934 0)
(0.111415 0.000831284 0)
(0.11174 0.000684668 0)
(0.111638 0.000730164 0)
(0.111926 0.000602574 0)
(0.111835 0.000642222 0)
(0.112091 0.000530895 -4.3219e-26)
(0.112011 0.000565537 0)
(0.112237 0.000468148 2.13815e-29)
(0.112166 0.000498494 0)
(0.112368 0.000413079 0)
(0.112304 0.000439727 0)
(0.112484 0.000364647 8.01225e-26)
(0.112428 0.000388096 0)
(0.112587 0.000321985 0)
(0.112537 0.000342646 0)
(0.11268 0.000284362 0)
(0.112635 0.000302588 0)
(0.112762 0.000251148 0)
(0.112722 0.000267242 0)
(0.112836 0.000221807 0)
(0.1128 0.000236026 0)
(0.112902 0.000195872 0)
(0.11287 0.000208443 0)
(0.112962 0.000172949 6.79724e-26)
(0.112933 0.000184066 0)
(0.113015 0.000152348 -4.19249e-24)
(0.112989 0.00016248 0)
(0.113064 0.000133377 3.99016e-24)
(0.11304 0.0001426 0)
(0.113108 0.000116814 3.81306e-24)
(0.113086 0.000124874 -3.8961e-24)
(0.113118 7.01499e-05 7.53592e-24)
(0.113129 0.000109193 0)
(0.113123 9.03696e-05 1.12168e-23)
(0.11311 3.00531e-05 0)
(0.113113 4.99995e-05 0)
(0.113107 -1.07378e-05 0)
(0.113108 9.86769e-06 0)
(0.113108 -5.20662e-05 0)
(0.113107 -3.14623e-05 0)
(0.113113 -9.19507e-05 1.53293e-23)
(0.11311 -7.19528e-05 3.81059e-24)
(0.113121 -0.000131548 3.77191e-24)
(0.113117 -0.000111852 3.00544e-23)
(0.113085 -0.000166177 1.95712e-23)
(0.113127 -0.00015137 3.75683e-24)
(0.113106 -0.000158375 -7.62716e-24)
(0.113039 -0.000183847 4.0224e-24)
(0.113063 -0.000174708 -2.41118e-23)
(0.112989 -0.000203383 -9.84531e-30)
(0.113015 -0.000193368 0)
(0.112933 -0.000224449 0)
(0.112962 -0.000213607 0)
(0.11287 -0.000248217 -1.72712e-29)
(0.112902 -0.000235978 0)
(0.1128 -0.000275072 0)
(0.112836 -0.000261235 0)
(0.112722 -0.000305473 0)
(0.112763 -0.000289803 0)
(0.112635 -0.000339932 0)
(0.11268 -0.000322165 0)
(0.112537 -0.000379025 0)
(0.112587 -0.000358865 0)
(0.112427 -0.000423417 -1.6221e-25)
(0.112483 -0.000400518 0)
(0.112303 -0.000473886 0)
(0.112367 -0.000447844 0)
(0.112163 -0.000531335 0)
(0.112235 -0.000501681 0)
(0.112007 -0.000596833 0)
(0.112087 -0.00056301 0)
(0.11183 -0.000671653 0)
(0.111921 -0.000632998 0)
(0.11163 -0.000757304 -9.1773e-26)
(0.111733 -0.000713028 0)
(0.111404 -0.000855598 0)
(0.11152 -0.000804755 0)
(0.111149 -0.000968696 0)
(0.11128 -0.000910157 0)
(0.110859 -0.00109917 9.85626e-26)
(0.111008 -0.0010316 0)
(0.11053 -0.00125007 -7.95456e-29)
(0.1107 -0.00117187 0)
(0.110157 -0.00142501 2.0634e-25)
(0.110349 -0.0013343 0)
(0.109732 -0.00162821 0)
(0.109951 -0.00152281 0)
(0.109248 -0.00186439 0)
(0.109498 -0.00174185 0)
(0.108698 -0.00213839 -1.40433e-28)
(0.108982 -0.00199634 0)
(0.108073 -0.00245702 0)
(0.108395 -0.00229168 0)
(0.107359 -0.00284255 -4.46791e-23)
(0.107728 -0.00264001 0)
(0.106714 -0.00268256 -6.63845e-25)
(0.106964 -0.00306607 7.62979e-23)
(0.107715 0.000497523 0)
(0.107521 0.00274668 1.72584e-22)
(0.107353 0.000896384 2.97884e-23)
(0.113115 0.000137109 -3.80589e-24)
(0.113135 0.000129022 0)
(0.113141 -0.000126312 3.67736e-24)
(0.113146 -0.000144642 -7.28928e-24)
(0.107712 -0.000269996 0)
(0.107373 -0.000694694 0)
(0.107042 0.00137396 0)
(0.107051 -0.00116857 -1.46773e-23)
(0.106754 -0.0016956 -2.97627e-23)
(0.10649 -0.00227251 0)
(0.106269 -0.00289367 7.71732e-23)
(0.106544 -0.0033019 -6.1554e-23)
(0.107698 0.000113378 0)
(0.108067 0.00296483 -1.42913e-26)
(0.107124 0.00288463 5.48297e-23)
(0.107355 0.00333612 -1.96086e-22)
(0.107723 0.0031494 5.68486e-23)
(0.108709 0.00258541 -1.84362e-23)
(0.108395 0.0027666 -2.94352e-23)
(0.109236 0.00226283 0)
(0.108985 0.00241892 0)
(0.109697 0.00197517 -5.33109e-26)
(0.109471 0.00211487 0)
(0.110111 0.00172322 0)
(0.10991 0.0018448 0)
(0.11048 0.00150467 0)
(0.110301 0.00161001 0)
(0.110808 0.00131568 0)
(0.110649 0.00140674 0)
(0.111098 0.00115232 -4.86665e-26)
(0.110957 0.00123104 0)
(0.111356 0.00101092 0)
(0.111231 0.0010791 0)
(0.111584 0.000888277 0)
(0.111473 0.000947449 0)
(0.111787 0.000781614 0)
(0.111688 0.00083311 0)
(0.111967 0.000688612 0)
(0.111879 0.000733542 0)
(0.112126 0.000607326 4.31691e-26)