/*--------------------------------*- C++ -*----------------------------------*\
  =========                 |
  \\      /  F ield         | OpenFOAM: The Open Source CFD Toolbox
   \\    /   O peration     | Website:  https://openfoam.org
    \\  /    A nd           | Version:  10
     \\/     M anipulation  |
\*---------------------------------------------------------------------------*/
FoamFile
{
    format      ascii;
    class       volScalarField;
    location    "17";
    object      p;
}
// * * * * * * * * * * * * * * * * * * * * * * * * * * * * * * * * * * * * * //

dimensions      [0 2 -2 0 0 0 0];

internalField   nonuniform List<scalar> 
14667
(
0.276772
0.286309
-0.00898108
-0.00771788
-0.00449542
0.20966
0.196904
-0.00813504
0.0016851
-8.75838e-07
0.213065
0.226772
0.308236
0.240215
-0.0103948
0.193983
0.201127
0.0207685
0.011667
0.202857
0.230701
0.310994
0.247158
0.238723
-0.422161
-0.443338
-0.479076
-0.438899
-0.418338
0.556004
0.520104
0.511907
-0.43147
-0.457671
-0.469965
-0.415573
-0.435912
0.00529588
-0.00539252
0.00525242
0.0148877
0.0243949
0.700081
0.716728
0.810107
0.786301
0.691159
-0.525099
-0.509824
-0.598038
-0.588931
0.632553
0.579829
0.538741
-0.111678
-0.145118
-0.356978
-0.327651
-0.547349
-0.537196
-0.419658
-0.41182
0.283802
0.341268
0.441631
0.378327
0.250005
0.307341
0.186808
0.483662
0.468518
0.460946
0.881573
0.827781
-0.591219
-0.53463
-0.490898
-0.504746
0.480511
0.492258
0.00960309
0.00561539
0.00490325
-0.00515502
-0.00414027
-0.358368
-0.391568
-0.579802
-0.559079
-0.365966
-0.350454
0.124736
0.107087
-0.0964972
-0.0827332
-0.211647
-0.241649
-0.0486746
-0.0767463
-0.0208947
-0.0397981
-0.270589
-0.199361
0.416363
0.452818
0.436369
0.408078
0.394609
0.385525
-0.0121273
-0.0148142
-0.0114541
-0.0107382
-0.00490141
-0.00869108
-0.00302534
-0.0131875
-0.00890954
-0.00805849
-0.0118894
-0.00797215
-0.100292
-0.0866157
-0.0866928
-0.0829386
-0.0976997
-0.100415
-0.0775572
-0.0737662
-0.0886576
-0.0943974
-0.0696093
-0.065575
-0.0763624
-0.0822295
-0.062028
-0.0594645
-0.0683294
-0.0715845
-0.0581208
-0.0582813
-0.066371
-0.0666383
-0.0600349
-0.0635397
-0.0702964
-0.0675316
-0.0688241
-0.0760132
-0.0817053
-0.074963
-0.0856844
-0.099395
-0.102611
-0.0907358
-0.118396
-0.138483
-0.135674
-0.118054
-0.161461
-0.184835
-0.174794
-0.154248
-0.209
-0.232546
-0.214478
-0.19518
-0.230327
-0.253515
-0.0896256
-0.0770013
-0.268291
-0.101778
-0.0925481
-0.0816186
-0.0684437
-0.0636504
-0.271286
-0.218926
-0.246794
-0.163598
-0.190652
-0.11654
-0.139055
-0.085295
-0.0994204
-0.0664681
-0.0745254
-0.0558601
-0.0603744
-0.0509655
-0.0527449
-0.0519675
-0.0506509
-0.0592577
-0.0549636
-0.0684074
-0.0641171
-0.0726701
-0.0713423
-0.0715874
-0.0586315
-0.0702267
-0.114716
-0.109583
-0.115229
-0.116438
-0.106904
-0.112379
-0.0914269
-0.0994115
-0.0787529
-0.0842329
-0.0737907
-0.0753066
-0.0757788
-0.0739838
-0.084833
-0.0793262
-0.102376
-0.0924891
-0.128856
-0.114608
-0.161558
-0.144697
-0.191838
-0.177271
-0.204101
-0.0730141
-0.0823057
-0.291032
-0.246217
-0.0467331
-0.0423206
-0.0526781
-0.212538
-0.285612
-0.225317
-0.2567
-0.164272
-0.193513
-0.116094
-0.137831
-0.0829401
-0.0980549
-0.0610732
-0.0706705
-0.0480644
-0.0536703
-0.0412232
-0.0439789
-0.0393978
-0.0396911
-0.0426688
-0.0404181
-0.049117
-0.0458011
-0.0539813
-0.0520695
-0.0535504
-0.0550139
-0.0505516
-0.0629775
-0.0906023
-0.113789
-0.102447
-0.130718
-0.1236
-0.133512
-0.133651
-0.124384
-0.13039
-0.106849
-0.116147
-0.0899934
-0.0977681
-0.080271
-0.0841204
-0.0781174
-0.0783205
-0.0830937
-0.0796732
-0.0961508
-0.088559
-0.117376
-0.105855
-0.14339
-0.13019
-0.166897
-0.155797
-0.1795
-0.175605
-0.205782
-0.168605
-0.177535
-0.308841
-0.276053
-0.24193
-0.0465219
-0.193472
-0.156116
-0.0375207
-0.0974746
-0.0354707
-0.0321834
-0.0842479
-0.0787321
-0.324467
-0.302834
-0.339347
-0.293181
-0.320169
-0.226879
-0.260855
-0.163056
-0.193687
-0.113446
-0.136221
-0.0785276
-0.0943286
-0.0554921
-0.0656934
-0.0411818
-0.0474643
-0.03262
-0.0363075
-0.0285383
-0.030016
-0.0292816
-0.0282903
-0.0339315
-0.0313115
-0.0387614
-0.0366005
-0.0395698
-0.0399487
-0.0380215
-0.0640856
-0.0555204
-0.0720367
-0.124445
-0.111185
-0.144838
-0.136
-0.151414
-0.149367
-0.142294
-0.148816
-0.122023
-0.132922
-0.10104
-0.111001
-0.0866692
-0.0928615
-0.0797831
-0.0823657
-0.0797442
-0.0788868
-0.0873279
-0.082527
-0.102572
-0.0941146
-0.121745
-0.11208
-0.139109
-0.131051
-0.145531
-0.144188
-0.132616
-0.141601
-0.105269
-0.119949
-0.274746
-0.330585
-0.348648
-0.0675323
-0.0719798
-0.230463
-0.140579
-0.177303
-0.123818
-0.0286397
-0.0902688
-0.304982
-0.347519
-0.361262
-0.3465
-0.35942
-0.294011
-0.323844
-0.224378
-0.259803
-0.159174
-0.190288
-0.108544
-0.131828
-0.0730604
-0.0890918
-0.0493752
-0.0599608
-0.0341203
-0.0408877
-0.0244772
-0.0287372
-0.0187604
-0.0211642
-0.0170638
-0.017354
-0.0196052
-0.0178931
-0.0238257
-0.0217707
-0.0259897
-0.0253333
-0.0243439
-0.0256259
-0.0198203
-0.0222324
-0.0250995
-0.0407862
-0.03292
-0.0556873
-0.0484599
-0.0620915
-0.0752559
-0.103179
-0.088584
-0.133168
-0.11834
-0.157716
-0.146652
-0.167643
-0.165632
-0.158952
-0.165483
-0.136475
-0.148831
-0.111144
-0.123441
-0.0919961
-0.100544
-0.0806106
-0.085434
-0.0756801
-0.0773675
-0.0774711
-0.0756824
-0.0860641
-0.0810224
-0.0984339
-0.092106
-0.10894
-0.104327
-0.110954
-0.111441
-0.097539
-0.105971
-0.0724469
-0.0857891
-0.0592906
-0.0173101
-0.265229
-0.326292
-0.21404
-0.351214
-0.335709
-0.15918
-0.0772585
-0.0650024
-0.0635315
-0.107499
-0.0663706
-0.0113274
-0.00977583
-0.041788
-0.297916
-0.331442
-0.340499
-0.364781
-0.35818
-0.344355
-0.36009
-0.287473
-0.319123
-0.216737
-0.252465
-0.151674
-0.182614
-0.101731
-0.124665
-0.0667659
-0.0825794
-0.04319
-0.0537853
-0.0275662
-0.0345673
-0.0172351
-0.0218737
-0.0104481
-0.0134555
-0.006963
-0.00824554
-0.00737863
-0.00669153
-0.0105196
-0.00878747
-0.0133771
-0.0121806
-0.013605
-0.0139134
-0.0126881
-0.0215993
-0.0082636
-0.0148212
-0.0353394
-0.028496
-0.0479361
-0.0418935
-0.0576141
-0.0532137
-0.0610404
-0.106915
-0.0913059
-0.139333
-0.12307
-0.167407
-0.15454
-0.180653
-0.176587
-0.173233
-0.179486
-0.149148
-0.162659
-0.119795
-0.13433
-0.0957359
-0.106737
-0.0798211
-0.0868508
-0.0703545
-0.0743748
-0.0667317
-0.0677889
-0.0688723
-0.0671635
-0.0744811
-0.0714952
-0.0789303
-0.0771931
-0.0763242
-0.0788838
-0.0626566
-0.0708339
-0.0412379
-0.0522734
-0.02365
-0.0308775
-0.0201645
-0.249722
-0.312684
-0.0534535
-0.054499
-0.194948
-0.315142
-0.140014
-0.313206
-0.303844
-0.0936796
-0.0613337
-0.00196239
-0.0418358
-0.0248807
-0.00700265
-0.00148127
-0.283396
-0.279532
-0.281831
-0.340678
-0.315273
-0.360136
-0.356038
-0.334281
-0.352556
-0.274771
-0.307362
-0.204474
-0.23966
-0.141437
-0.171274
-0.0935725
-0.115535
-0.0599724
-0.0752031
-0.037017
-0.0473877
-0.0214271
-0.0284704
-0.0107726
-0.0156058
-0.00335269
-0.00672989
0.0014049
-0.000614695
0.00286062
0.00258609
0.00112253
0.00229629
-0.00166346
-0.000322704
-0.00326068
-0.00260517
-0.00308049
-0.00338303
-0.0026145
-0.0185118
-0.0126804
-0.0302951
-0.0244368
-0.040886
-0.0358428
-0.0488304
-0.0452352
-0.0515851
-0.0547659
-0.0778508
-0.0653043
-0.108151
-0.0923375
-0.142472
-0.1251
-0.173616
-0.159113
-0.190186
-0.184414
-0.184513
-0.190212
-0.159351
-0.17376
-0.126418
-0.142989
-0.0976435
-0.111037
-0.0772466
-0.0864526
-0.0635286
-0.0696939
-0.0550931
-0.0586665
-0.0515502
-0.0527765
-0.051134
-0.051141
-0.0502451
-0.0510317
-0.043977
-0.0480836
-0.0298974
-0.0379024
-0.0122134
-0.0207849
-0.00194426
-0.00541811
-0.00464098
-0.00190544
-0.0316507
-0.0172895
-0.0098315
-0.229986
-0.292007
-0.173777
-0.287854
-0.12342
-0.271379
-0.0853517
-0.243683
-0.242992
-0.0607209
-0.0472667
-0.0283325
-0.0413713
0.00421172
-0.0416298
-0.0540538
-0.00598546
-0.00112872
-0.0452191
-0.0457445
-0.0361834
0.00398822
-0.262893
-0.204056
-0.19826
-0.277881
-0.239665
-0.332325
-0.309502
-0.346112
-0.344847
-0.31601
-0.336075
-0.256087
-0.288435
-0.188225
-0.22187
-0.129042
-0.156934
-0.0844226
-0.104903
-0.0528902
-0.06723
-0.0310179
-0.0409508
-0.0158183
-0.0227367
-0.00512445
-0.010015
0.00258795
-0.000968432
0.00809311
0.00561587
0.011009
0.00992785
0.0108428
0.0112911
0.00860445
0.00985802
0.00621354
0.00732852
0.00472143
0.00534298
0.00435942
-0.0159309
-0.0109227
-0.025865
-0.020944
-0.034708
-0.0305037
-0.0413043
-0.0383478
-0.0448896
-0.0434598
-0.0456621
-0.0770571
-0.0646233
-0.107049
-0.0911968
-0.142379
-0.124347
-0.175899
-0.160051
-0.19562
-0.188246
-0.192087
-0.196963
-0.166554
-0.181505
-0.130612
-0.148962
-0.0974581
-0.113101
-0.0728351
-0.0840823
-0.0552972
-0.063359
-0.042757
-0.0484583
-0.0344828
-0.0381423
-0.0290747
-0.0315687
-0.0236873
-0.0266069
-0.0144955
-0.0197853
-0.000219405
-0.00780834
0.0130472
0.00710696
0.0166063
0.0163281
0.0094163
0.0140286
-0.00593463
0.00274161
-0.0184745
-0.207195
-0.266045
-0.0382936
-0.0378083
-0.0257648
-0.154213
-0.257615
-0.111578
-0.237743
-0.0817887
-0.207152
-0.0640858
-0.157325
-0.167252
-0.0558927
-0.0540911
-0.0531202
0.00372572
-0.238531
-0.119597
-0.105016
-0.189318
-0.146317
-0.267162
-0.230576
-0.315953
-0.296141
-0.324022
-0.325417
-0.291283
-0.312173
-0.232645
-0.263847
-0.169281
-0.200401
-0.115356
-0.140692
-0.0747764
-0.0934362
-0.0457775
-0.0590204
-0.0253011
-0.0346515
-0.0107554
-0.0174193
-0.000260877
-0.0050937
0.00750155
0.00389595
0.0133522
0.0106457
0.0172278
0.0155784
0.0184901
0.0182111
0.0172475
0.0181234
0.014716
0.0160551
0.0122373
0.0134202
0.0103902
0.0113338
0.00859763
0.00949006
0.00334685
-0.00522667
-0.000957522
-0.0138022
-0.00951893
-0.0221271
-0.0180287
-0.0294334
-0.0259658
-0.034891
-0.0324408
-0.0378576
-0.0367076
-0.0383309
-0.0368524
-0.0526695
-0.0440776
-0.0745989
-0.0627669
-0.103747
-0.0882523
-0.139033
-0.120874
-0.17398
-0.157212
-0.196441
-0.187602
-0.195385
-0.199189
-0.170265
-0.185337
-0.132093
-0.151861
-0.0950251
-0.112728
-0.066472
-0.0796069
-0.0456285
-0.055288
-0.0298086
-0.0371931
-0.0178109
-0.0233864
-0.00843756
-0.0129161
0.000621942
-0.00405293
0.0120871
0.00594494
0.0254589
0.0188303
0.0340464
0.0308594
0.0321174
0.0344249
0.0214543
0.02753
0.00451678
0.01398
-0.00817004
0.00765529
-0.184669
-0.237966
-0.0678401
-0.0873589
-0.138706
-0.227466
-0.104617
-0.206321
-0.0825206
-0.17523
-0.0713854
-0.135132
-0.0682323
-0.0698556
-0.0468238
-0.0668998
-0.0704273
0.0135591
-0.035544
-0.0298038
0.0121161
-0.0309181
-0.213261
-0.035391
-0.0162295
-0.0927967
-0.0526511
-0.177866
-0.13537
-0.250834
-0.217252
-0.292727
-0.2763
-0.295396
-0.299204
-0.261088
-0.282121
-0.205804
-0.234772
-0.148766
-0.176558
-0.101058
-0.123448
-0.0649946
-0.0816328
-0.038811
-0.0508298
-0.0199451
-0.02861
-0.00624887
-0.0125615
0.00386114
-0.000823628
0.0114984
0.00793332
0.017417
0.0146438
0.0217865
0.0198174
0.0241115
0.0232432
0.0240401
0.0243667
0.0220664
0.0232277
0.0192881
0.0207194
0.0163933
0.0178688
0.0149563
-0.0604356
-0.00789267
0.0155462
0.00272509
0.0104951
0.00656041
-0.0047732
-0.00106821
-0.0121127
-0.00846321
-0.0190548
-0.0156681
-0.0250271
-0.0221996
-0.0294751
-0.0274741
-0.0319328
-0.030978
-0.0322382
-0.0323135
-0.0317389
-0.0503878
-0.0423609
-0.0709067
-0.0598683
-0.0984873
-0.0837667
-0.13264
-0.114938
-0.167859
-0.150724
-0.192409
-0.182335
-0.194039
-0.196553
-0.170175
-0.184905
-0.130728
-0.151453
-0.0903738
-0.109879
-0.0581684
-0.0730726
-0.0343988
-0.0454256
-0.0160452
-0.0246974
-0.00127705
-0.0082832
0.0111259
0.00512114
0.0229414
0.0169807
0.0355266
0.0291463
0.0465934
0.0416073
0.0501757
0.049634
0.0439282
0.0481338
0.0315056
0.0382372
0.0139124
0.0235617
-0.0152734
0.00117992
-0.0511653
-0.0337275
-0.0637562
-0.0962398
-0.0827604
-0.165411
-0.211193
-0.0260393
-0.0250924
-0.128117
-0.20024
-0.102576
-0.179405
-0.087936
-0.148769
-0.0825821
-0.108727
-0.0853933
-0.0906362
-0.0904631
-0.103333
-0.0382915
0.0433291
0.0156312
0.0670536
0.0143166
-0.122292
0.00869694
-0.103838
0.012157
-0.190123
0.0598421
0.0855063
-0.00414591
0.0297911
-0.0823306
-0.0420322
-0.163519
-0.123636
-0.228996
-0.19946
-0.263601
-0.250735
-0.261302
-0.267109
-0.227224
-0.247387
-0.177433
-0.203152
-0.127967
-0.151947
-0.0868768
-0.106186
-0.0554436
-0.0700165
-0.0321556
-0.0429084
-0.015004
-0.0229283
-0.0022815
-0.00817857
0.00730538
0.0028389
0.0146824
0.0112244
0.0204924
0.0177545
0.0250112
0.0229184
0.0279617
0.0267163
0.0288887
0.0286929
0.0277783
0.0285574
0.0252357
0.0266377
0.0219131
0.0236469
0.0182727
0.0201156
0.0163401
0.00178322
0.00519739
-0.00466972
-0.00148329
-0.0108555
-0.00779068
-0.0165737
-0.0138002
-0.02141
-0.0191278
-0.0249763
-0.0233742
-0.0269705
-0.0261857
-0.0272271
-0.0272958
-0.0267823
-0.0239961
-0.0338105
-0.0285044
-0.0474067
-0.0400375
-0.0662206
-0.0560818
-0.0916381
-0.0780507
-0.123632
-0.106949
-0.157854
-0.140988
-0.183588
-0.17264
-0.18794
-0.189014
-0.166188
-0.180064
-0.126595
-0.14772
-0.0837818
-0.104739
-0.0482392
-0.0648083
-0.0217078
-0.0340028
-0.001284
-0.0109235
0.0154771
0.00745549
0.0299783
0.0229302
0.0433403
0.0367563
0.0553074
0.0496435
0.0628245
0.0599934
0.0617289
0.0634256
0.0527809
0.0580145
0.0394209
0.0465044
0.0218128
0.0313715
-0.00483734
0.0098878
-0.0353337
-0.0209364
-0.0659719
-0.0497842
-0.124462
-0.104609
-0.086259
-0.150908
-0.188193
-0.122809
-0.177708
-0.105373
-0.157803
-0.0978916
-0.127663
-0.099641
-0.0874213
-0.108141
-0.113859
-0.120223
-0.139839
-0.150311
-0.118768
-0.149512
0.14296
-0.0195219
0.0359826
0.0874422
0.00671793
0.0177472
-0.0227264
-0.0192279
-0.0202549
0.0152141
0.00979312
-0.171352
0.113398
0.130378
0.0659609
0.0917938
0.0023843
0.0360193
-0.0723479
-0.0341082
-0.146188
-0.110445
-0.202472
-0.177446
-0.229624
-0.220281
-0.223556
-0.23054
-0.191939
-0.210098
-0.149261
-0.17107
-0.107846
-0.127891
-0.073291
-0.0895902
-0.0463509
-0.0589177
-0.0259119
-0.0354103
-0.0105031
-0.0176653
0.00117433
-0.00426774
0.0101431
0.00594462
0.017158
0.0138574
0.0227466
0.0201058
0.0271938
0.0251088
0.0303998
0.0289746
0.0319672
0.0314265
0.031667
0.0320498
0.0296696
0.0308481
0.0264387
0.0281573
0.0223454
0.0244596
0.0200776
0.000578666
0.00357029
-0.00491035
-0.00223612
-0.0100164
-0.00751067
-0.0146286
-0.0123991
-0.0184842
-0.0166702
-0.0212913
-0.0200353
-0.0228495
-0.0222339
-0.0230592
-0.0231225
-0.0220454
-0.0226608
-0.0211879
-0.0316526
-0.0268214
-0.043964
-0.0373478
-0.0608504
-0.0517506
-0.0836472
-0.0714549
-0.112622
-0.0974466
-0.144595
-0.128655
-0.170389
-0.159056
-0.17724
-0.176857
-0.15838
-0.17089
-0.119943
-0.140809
-0.0757775
-0.0976922
-0.0373983
-0.0554616
-0.00818388
-0.021727
0.0141157
0.00362791
0.0322737
0.023588
0.0478382
0.0403226
0.0612131
0.0548321
0.0710361
0.0667318
0.0741366
0.0735319
0.0694634
0.0727347
0.0590198
0.0647693
0.0451733
0.0524578
0.0276126
0.0370283
0.00335271
0.0163091
-0.0247041
-0.0105488
-0.0543468
-0.0390254
-0.0928915
-0.0721549
-0.141701
-0.17025
-0.0171532
-0.0162612
-0.122597
-0.160685
-0.113196
-0.141181
-0.113436
-0.111106
-0.122936
-0.0701181
-0.135225
-0.144377
-0.1581
-0.176019
-0.182255
-0.134612
-0.175732
-0.158638
-0.130324
0.144569
0.13779
0.151127
-0.00306186
0.0539508
0.105008
0.138681
0.0125301
-0.157884
0.110403
0.126376
0.065549
0.08997
0.00635403
0.0375796
-0.0614089
-0.027109
-0.125284
-0.0946961
-0.172034
-0.151525
-0.19224
-0.185758
-0.184603
-0.191567
-0.157494
-0.172743
-0.122717
-0.14039
-0.0891504
-0.105433
-0.060673
-0.074188
-0.0378982
-0.0485988
-0.0201551
-0.0284574
-0.00645114
-0.0128597
0.00415642
-0.00081285
0.01245
0.00855098
0.0190303
0.0159243
0.0243212
0.021817
0.0285719
0.0265698
0.0317801
0.0303188
0.0336594
0.0329236
0.0338972
0.0339897
0.0324611
0.0333785
0.0295292
0.0311589
0.0253997
0.0275765
0.0204011
0.022995
0.0146279
0.0175833
0.00955995
0.00452465
0.00721806
-0.000846229
0.0017649
-0.00548112
-0.0032483
-0.00956685
-0.00758336
-0.0131709
-0.011434
-0.0161551
-0.0147546
-0.0182995
-0.0173452
-0.0194539
-0.0190045
-0.0195702
-0.0196411
-0.0186985
-0.0192477
-0.0179767
-0.015299
-0.021187
-0.0180076
-0.0292443
-0.024903
-0.0402084
-0.0343202
-0.055082
-0.0470871
-0.0749885
-0.0643535
-0.100345
-0.0870318
-0.128977
-0.114567
-0.15354
-0.142449
-0.162244
-0.160597
-0.146984
-0.157709
-0.111087
-0.130939
-0.0669957
-0.089196
-0.0266575
-0.0458637
0.00496669
-0.00974026
0.0289817
0.0177491
0.0479884
0.0389811
0.0634604
0.0561346
0.0752054
0.0698785
0.0815513
0.0791738
0.0810324
0.0821541
0.0741812
0.0784738
0.0630931
0.0690297
0.0491486
0.0564593
0.0319219
0.0410519
0.00981427
0.0214739
-0.0156127
-0.00266699
-0.0435076
-0.0290379
-0.0826197
-0.0606685
-0.104467
0.0113502
-0.137785
-0.157761
-0.127412
-0.148629
-0.126694
-0.129019
-0.135594
-0.0981584
-0.151589
-0.0557114
-0.168058
-0.182554
-0.201624
-0.215269
-0.215864
-0.201268
-0.149987
-0.186099
-0.121244
-0.168218
-0.134485
0.14658
0.154367
0.144172
0.13539
0.132826
0.011605
0.070097
0.119585
0.148531
0.0160533
-0.0142132
-0.0120997
0.0125707
-0.0129717
-0.149825
0.12793
0.133748
0.103189
0.117732
0.0631558
0.0849826
0.0108013
0.0383135
-0.047581
-0.0182504
-0.101106
-0.0756752
-0.139133
-0.122564
-0.154049
-0.149559
-0.147128
-0.152947
-0.125807
-0.137703
-0.0988012
-0.112542
-0.0723258
-0.0852507
-0.0492247
-0.0602766
-0.0301807
-0.0391991
-0.0149203
-0.0221112
-0.00284047
-0.00852363
0.00670692
0.0022118
0.0142989
0.0107157
0.0203993
0.0175118
0.0253422
0.0229999
0.029329
0.0274486
0.032395
0.0309825
0.0343296
0.0335258
0.0348505
0.034777
0.033818
0.034532
0.0312363
0.0327139
0.0272581
0.0294105
0.0221391
0.0248287
0.0191759
0.00632198
0.00894668
0.0078119
0.00209839
0.00438239
-0.0025118
-0.000271132
-0.00633977
-0.0045366
-0.00946866
-0.00796898
-0.0121468
-0.0108614
-0.0143381
-0.0133126
-0.0158868
-0.0152028
-0.0166721
-0.0163784
-0.0166681
-0.0167659
-0.015904
-0.016382
-0.014582
-0.0152944
-0.0138115
-0.0195558
-0.0166683
-0.0267167
-0.0228826
-0.0363163
-0.0311642
-0.0491671
-0.0422839
-0.0661125
-0.0570851
-0.0875533
-0.0762959
-0.112059
-0.0996466
-0.134133
-0.123942
-0.143831
-0.141207
-0.13232
-0.141046
-0.10027
-0.118348
-0.0579519
-0.0795921
-0.0170102
-0.0367558
0.0162946
0.000717759
0.0416092
0.0298355
0.0608389
0.0518734
0.0751844
0.0686058
0.0843663
0.0804805
0.0874536
0.0867069
0.0843899
0.0866447
0.0764903
0.0807473
0.0653931
0.0713001
0.0516691
0.0588437
0.035092
0.0437958
0.0149113
0.0254404
-0.00775019
0.00374957
-0.0330158
-0.0197686
-0.0655754
-0.0486282
-0.0949552
-0.0803298
-0.10847
-0.138931
-0.150274
-0.0110255
-0.0102792
-0.13782
-0.141021
-0.146538
-0.120553
-0.164174
-0.0880532
-0.18688
-0.0434399
-0.208222
-0.228444
-0.248144
-0.256327
-0.249948
-0.22982
-0.208067
-0.145222
-0.181389
-0.116697
-0.153268
-0.122988
0.152713
0.126157
0.137289
0.11459
0.105548
0.115708
0.0252994
0.0849865
0.131509
0.153991
0.00996878
0.00526624
0.00649807
-0.146795
0.123117
0.120712
0.116807
0.121784
0.0958803
0.108101
0.0617808
0.0802936
0.0174957
0.0406992
-0.0312773
-0.00687049
-0.0752176
-0.0544614
-0.105651
-0.0925827
-0.117953
-0.114212
-0.113468
-0.117474
-0.0980936
-0.10674
-0.0779743
-0.0882979
-0.0575274
-0.0676058
-0.0390182
-0.0479558
-0.0232388
-0.0307733
-0.0102192
-0.0163981
0.000345574
-0.00465462
0.00886877
0.00483634
0.0157566
0.0124939
0.0213548
0.0186988
0.0259202
0.0237546
0.0296071
0.0278684
0.0324543
0.0311381
0.0343039
0.0335379
0.0349308
0.0347821
0.0341437
0.034723
0.0318559
0.0331844
0.0281257
0.0301552
0.0231037
0.0257339
0.0170267
0.0201453
0.0135001
0.00279354
0.00409869
-0.000680692
0.00120283
-0.00450696
-0.00266151
-0.00747146
-0.00611159
-0.00968716
-0.00864354
-0.0115005
-0.0106358
-0.0129575
-0.0122787
-0.0139573
-0.0135222
-0.0144009
-0.0142521
-0.0142608
-0.0144013
-0.0135744
-0.0139854
-0.0124216
-0.013033
-0.011741
-0.00952591
-0.0130951
-0.0111897
-0.0178447
-0.015302
-0.0241223
-0.0207603
-0.0324192
-0.0279824
-0.0433176
-0.037507
-0.0573992
-0.0499318
-0.0749312
-0.0657514
-0.0949344
-0.0847782
-0.113496
-0.104796
-0.122865
-0.119909
-0.114844
-0.121256
-0.0875426
-0.10323
-0.048767
-0.0689123
-0.00899797
-0.0284401
0.0247262
0.00883536
0.05056
0.0385953
0.0693918
0.0607735
0.0821188
0.0764953
0.0888707
0.0862443
0.0897558
0.0900165
0.0854724
0.0881925
0.0772822
0.0817339
0.066331
0.0721135
0.053057
0.0599763
0.0373234
0.045529
0.0187973
0.0283917
-0.00174345
0.00870226
-0.0246378
-0.0126943
-0.0510791
-0.0378567
-0.0767425
-0.0638451
-0.0991298
-0.0884404
-0.108609
-0.145441
-0.147447
-0.154403
-0.137475
-0.173167
-0.115363
-0.199924
-0.0803799
-0.229096
-0.0327295
-0.255997
-0.280011
-0.295927
-0.296988
-0.281716
-0.255634
-0.225081
-0.191147
-0.126216
-0.157852
-0.101856
-0.127846
-0.10319
0.093532
0.0852948
0.0730501
0.0783975
0.146242
0.126408
0.102427
0.0383857
0.0984827
0.140097
0.154472
0.00147585
0.01124
-0.00874398
-0.00744768
-0.00809804
0.00798215
0.00294293
-0.148788
0.103613
0.0957975
0.110941
0.108715
0.106248
0.110099
0.0896496
0.0994351
0.0618418
0.077039
0.0253177
0.0444338
-0.0146336
0.00530774
-0.0503763
-0.0334955
-0.07542
-0.0645655
-0.0864562
-0.0827115
-0.0849081
-0.0870407
-0.074738
-0.0806208
-0.0602599
-0.067802
-0.0447316
-0.0524793
-0.0300503
-0.0372122
-0.017076
-0.0233242
-0.00604536
-0.0113179
0.0031305
-0.00123801
0.010684
0.00709351
0.0168834
0.0139368
0.0219751
0.0195545
0.0261493
0.024168
0.0295183
0.0279311
0.032094
0.0309104
0.0337965
0.0330289
0.0344421
0.0342699
0.0338028
0.0342923
0.0317616
0.0329578
0.0283174
0.0302022
0.0235926
0.0260818
0.017751
0.0207743
0.0144094
-0.000944801
0.000266924
-0.00387335
-0.00231968
-0.00682002
-0.0054269
-0.00887895
-0.00797088
-0.0102005
-0.00960075
-0.0111827
-0.0107205
-0.0119459
-0.0115935
-0.0124303
-0.0122292
-0.0125499
-0.0125393
-0.0122664
-0.0124577
-0.0116037
-0.0119812
-0.0105906
-0.0111362
-0.00938247
-0.0100024
-0.00874224
-0.0119355
-0.0102303
-0.0160965
-0.0138739
-0.0215436
-0.0186397
-0.0286164
-0.0248547
-0.0376968
-0.0328833
-0.0491331
-0.0431063
-0.0630115
-0.0557861
-0.0785617
-0.0706878
-0.0930334
-0.0862139
-0.100824
-0.0982005
-0.0956083
-0.100022
-0.0728333
-0.0859106
-0.0390167
-0.0568484
-0.00228709
-0.0204854
0.0302429
0.0147825
0.0555505
0.0438439
0.0735009
0.0654025
0.0847575
0.0799243
0.0899258
0.088064
0.0896737
0.0904248
0.0849307
0.0877929
0.0768273
0.0812206
0.0662268
0.0717984
0.0535567
0.0601426
0.0387862
0.046448
0.021828
0.0305595
0.00318829
0.0126886
-0.0174064
-0.00678715
-0.0397407
-0.0285614
-0.061508
-0.0507385
-0.0808821
-0.071668
-0.0940895
-0.0882235
-0.0983822
-0.157826
-0.149308
-0.00687346
-0.00633615
-0.177664
-0.137958
-0.207131
-0.113242
-0.242701
-0.0747221
-0.27824
-0.0228873
-0.309053
-0.33243
-0.34152
-0.333692
-0.309011
-0.275024
-0.236352
-0.196377
-0.159129
-0.103079
-0.0842025
-0.100868
-0.0825655
0.0240979
0.0581762
-0.126894
0.0420744
0.0626687
0.135396
0.111893
0.0865207
0.0513288
0.109934
0.144179
0.149916
0.0048032
-0.156145
0.0538349
0.039603
0.0773961
0.066692
0.0931533
0.0863057
0.0997942
0.097606
0.0971032
0.0996731
0.0843931
0.0920222
0.0620413
0.074335
0.0323981
0.0478964
0.000106235
0.0162173
-0.028983
-0.0151826
-0.050041
-0.0407134
-0.0606633
-0.0566784
-0.0616131
-0.062213
-0.05552
-0.0592531
-0.045428
-0.0508015
-0.033804
-0.0396873
-0.0222601
-0.0279531
-0.0116645
-0.016812
-0.00237745
-0.00684843
0.00554214
0.00174974
0.012192
0.00901663
0.0177318
0.0150902
0.0223262
0.0201379
0.0261083
0.0243125
0.0291563
0.0277219
0.0314759
0.0304107
0.033004
0.0323378
0.0335905
0.0334286
0.0330424
0.0334682
0.0312267
0.0322969
0.0281104
0.0298264
0.0237838
0.0260892
0.0184114
0.0212212
0.0125799
0.0155521
0.00679573
0.00963166
0.00185518
-0.00220116
-0.000342993
-0.00491279
-0.00366763
-0.00736415
-0.00614931
-0.0094176
-0.00848254
-0.0105713
-0.0101136
-0.011
-0.0108438
-0.0111576
-0.0110929
-0.0112459
-0.0112091
-0.0112368
-0.0112594
-0.0110434
-0.0111674
-0.0106121
-0.0108586
-0.00994124
-0.0103058
-0.00905086
-0.00952126
-0.00798747
-0.0085325
-0.00742771
-0.00578882
-0.00795145
-0.00679968
-0.0107568
-0.00926306
-0.0143793
-0.0124527
-0.0190463
-0.0165695
-0.0249851
-0.0218434
-0.0324187
-0.0285039
-0.0414994
-0.0367512
-0.0521404
-0.0466491
-0.0636365
-0.0578668
-0.0739816
-0.0691494
-0.0792333
-0.0775575
-0.0737514
-0.0782383
-0.0564341
-0.0668677
-0.028121
-0.043235
0.00419173
-0.0120093
0.0340275
0.0197187
0.0577712
0.0467614
0.0745133
0.0670055
0.084638
0.0803582
0.0888757
0.0874409
0.0880812
0.0890461
0.0832644
0.0861069
0.0754454
0.0796717
0.0653474
0.0706452
0.0533833
0.0595879
0.0396132
0.0467265
0.0241021
0.0320538
0.00719566
0.015813
-0.0111819
-0.00180302
-0.0303797
-0.0207821
-0.0489669
-0.0398312
-0.0653308
-0.0575844
-0.0768822
-0.0718502
-0.0829809
-0.0806512
-0.0841168
0.00414866
-0.176524
-0.156098
-0.207928
-0.142401
-0.248062
-0.113794
-0.291637
-0.070349
-0.331588
-0.0132828
-0.363088
-0.381043
-0.38112
-0.362649
-0.329566
-0.28746
-0.241635
-0.196917
-0.157096
-0.123503
-0.0799143
-0.0969732
0.0235899
0.00925023
0.00765283
-0.0661851
-0.0762309
-0.0634608
0.0245888
0.0447584
0.120101
0.0944781
0.0684545
0.0638837
0.117987
0.143654
0.140517
0.00869983
-0.00527041
-0.00450089
0.00631589
-0.00493437
-0.169232
0.0492198
0.0370534
0.0694613
0.0600822
0.0835818
0.0773666
0.0901196
0.0877832
0.0889645
0.0905694
0.0792787
0.0852102
0.0614529
0.0712923
0.0377007
0.0501152
0.0117241
0.0247217
-0.0121218
-0.000735962
-0.0300942
-0.0219078
-0.0403447
-0.0362318
-0.0430482
-0.0425553
-0.0399307
-0.0420851
-0.0331372
-0.0368655
-0.0245601
-0.0289737
-0.015559
-0.0200498
-0.00696081
-0.0111754
0.000813624
-0.00295609
0.00760991
0.00433669
0.0134289
0.010638
0.0183467
0.0159944
0.0224623
0.0204989
0.0258617
0.0242475
0.0285957
0.0273107
0.0306621
0.0297149
0.0320082
0.0314297
0.0325083
0.0323732
0.0320156
0.0323951
0.0304057
0.0313554
0.0276356
0.0291648
0.0237767
0.0258375
0.0190417
0.0215102
0.0138516
0.0164956
0.0112256
-0.000875999
0.00419639
0.00179361
-0.00576544
-0.00349243
-0.00898084
-0.00756475
-0.0110562
-0.0101302
-0.0122913
-0.0117847
-0.0125586
-0.012547
-0.012087
-0.0123802
-0.0114053
-0.0117453
-0.0108134
-0.0110929
-0.0103181
-0.0105599
-0.00981839
-0.0100745
-0.00923605
-0.00954044
-0.00853893
-0.00890264
-0.00772528
-0.00814586
-0.00680418
-0.00727737
-0.00584441
-0.00631409
-0.00538755
-0.00717143
-0.00615373
-0.00961528
-0.00831708
-0.0127255
-0.0110741
-0.0166697
-0.0145852
-0.0215793
-0.018997
-0.0275535
-0.0244306
-0.0345961
-0.0309486
-0.0424855
-0.0384638
-0.0505312
-0.0465601
-0.0571839
-0.0541724
-0.059693
-0.0591683
-0.0544664
-0.0582637
-0.0396852
-0.0483563
-0.0162349
-0.0287957
0.0112301
-0.00265377
0.03743
0.0247641
0.0588053
0.0488471
0.0740011
0.0671917
0.0830568
0.0792626
0.0866068
0.0854671
0.0855342
0.0865852
0.0808351
0.0835748
0.0734169
0.0774175
0.0639123
0.0688939
0.0527126
0.0585111
0.0399492
0.0465217
0.025771
0.0330173
0.0104455
0.0182441
-0.0059162
0.00237273
-0.0226189
-0.0142923
-0.0385978
-0.0307721
-0.0524856
-0.0459118
-0.0626324
-0.0581047
-0.0682867
-0.0661454
-0.0692736
-0.0695124
-0.0681361
-0.201625
-0.167775
-0.00419004
-0.00382603
-0.244716
-0.150307
-0.294544
-0.116172
-0.343756
-0.0663035
-0.385016
-0.0033125
-0.412427
-0.421471
-0.410647
-0.382348
-0.340873
-0.291621
-0.240415
-0.192651
-0.151084
-0.117627
-0.00564647
-0.00230914
-0.0154199
-0.0206302
-0.0917564
-0.00936845
-0.0602336
-0.0718601
0.00604606
0.0253829
-0.0504664
-0.05685
-0.0478962
0.102062
0.0744131
0.0484188
0.0751233
0.122052
0.137175
0.12662
0.00616343
0.00231958
0.00446073
-0.188018
0.0229774
0.010586
0.0449798
0.0345245
0.0625224
0.0543499
0.0751283
0.0695303
0.0816125
0.0791667
0.0814585
0.0824186
0.0740701
0.0786739
0.0599858
0.0677784
0.041067
0.0509763
0.0200998
0.0306376
0.000384455
0.00988095
-0.0150415
-0.00808417
-0.0246652
-0.0206091
-0.0284377
-0.0272404
-0.0273887
-0.028427
-0.0230262
-0.0255264
-0.0168014
-0.0200677
-0.00984451
-0.0133592
-0.00291051
-0.00634095
0.0035625
0.000401111
0.00936366
0.00655382
0.0144268
0.011988
0.0187658
0.0166843
0.0224277
0.0206782
0.0254608
0.0240205
0.0278924
0.0267515
0.0297135
0.0288813
0.0308795
0.0303828
0.0312833
0.0311819
0.0308201
0.0311677
0.0293858
0.0302289
0.0269421
0.0282896
0.0235547
0.0253593
0.0194256
0.0215683
0.01485
0.0171752
0.0102433
0.0125176
0.00810503
-0.00317515
-0.000239399
-0.00896258
-0.00618562
-0.0129131
-0.0112205
-0.0148518
-0.0140909
-0.0154226
-0.0152868
-0.0148434
-0.0152664
-0.0134687
-0.0142163
-0.0119214
-0.0126813
-0.0106206
-0.0112292
-0.00962741
-0.0100919
-0.00882135
-0.00920933
-0.00808525
-0.00844974
-0.00735131
-0.00772079
-0.00658904
-0.00697419
-0.00579124
-0.00619532
-0.00497094
-0.00537342
-0.00457043
-0.00348785
-0.00475756
-0.00408038
-0.00641015
-0.00552889
-0.00851182
-0.00739903
-0.0111561
-0.00975898
-0.0144426
-0.0127148
-0.0184336
-0.0163484
-0.0231378
-0.0207
-0.028455
-0.0257331
-0.0340774
-0.0312594
-0.0393321
-0.0368122
-0.0429713
-0.041458
-0.0430426
-0.0435947
-0.0372595
-0.0410082
-0.0241653
-0.0316541
-0.00451277
-0.0149961
0.0185088
0.00683336
0.0408678
0.0300007
0.0594579
0.0507606
0.0728032
0.0668189
0.0806966
0.0774095
0.0836254
0.0827336
0.0823995
0.0834735
0.0779186
0.0805108
0.0709664
0.0747102
0.0621023
0.0667451
0.0516903
0.0570749
0.0399148
0.0459634
0.0269682
0.0335704
0.0130912
0.0201352
-0.00148404
0.00586254
-0.0161339
-0.00885095
-0.0299848
-0.0232222
-0.0418951
-0.0362626
-0.0508091
-0.0467594
-0.0561697
-0.0539892
-0.0572927
-0.0572524
-0.054953
-0.056496
-0.0529171
-0.232526
-0.183689
-0.286441
-0.160546
-0.343436
-0.119056
-0.39488
-0.0614813
-0.43286
0.00742948
-0.452031
-0.449988
-0.428187
-0.390361
-0.34182
-0.287344
-0.232692
-0.183581
-0.0278905
-0.0216042
-0.0320592
-0.0395628
-0.142367
-0.0349275
-0.110083
-0.0262834
-0.0857666
-0.0132091
-0.0672965
0.00484762
-0.0453066
-0.0535201
0.0805361
0.0522149
0.0266821
0.0837539
0.1206
0.125172
0.107408
0.000771334
0.00771669
-0.00316294
-0.0428644
-0.0381542
-0.036063
-0.00270423
-0.00295987
0.00607507
0.00296554
-0.211812
0.000469565
-0.010729
0.0219902
0.0114811
0.040902
0.0318529
0.0564066
0.0491259
0.0677994
0.0626931
0.0740365
0.0716077
0.0745167
0.0750305
0.0689581
0.0724839
0.0579137
0.064053
0.0428116