/*--------------------------------*- C++ -*----------------------------------*\
  =========                 |
  \\      /  F ield         | OpenFOAM: The Open Source CFD Toolbox
   \\    /   O peration     | Website:  https://openfoam.org
    \\  /    A nd           | Version:  10
     \\/     M anipulation  |
\*---------------------------------------------------------------------------*/
FoamFile
{
    format      ascii;
    class       volScalarField;
    location    "48.5";
    object      p;
}
// * * * * * * * * * * * * * * * * * * * * * * * * * * * * * * * * * * * * * //

dimensions      [0 2 -2 0 0 0 0];

internalField   nonuniform List<scalar> 
28942
(
-0.00375275
-0.00312399
0.00204945
0.00953357
0.00983372
0.000111203
0.000335283
3.63143e-05
0.00274805
0.00283613
-0.00229869
-0.00256823
-0.00295304
-0.00287033
0.000222026
0.00055782
0.00991467
0.0101845
0.00560807
0.00716911
0.00818702
0.00817888
-0.00521728
-0.00504067
-0.00356931
-0.00379144
0.0139126
0.0138616
0.00355832
0.00350177
2.69257e-05
6.4725e-05
0.000873124
0.000363331
0.00717844
0.0083845
0.0109219
0.012881
3.95427e-06
0.0150768
0.00913788
0.0116357
0.00185844
0.00178388
0.00183472
0.000333815
0.000188189
0.000267219
0.000308228
0.000431178
0.000810332
0.0028327
0.00290299
0.0028797
0.00303565
-0.00233524
-0.00103017
-0.00336171
-0.00320697
-0.00347929
-0.00355223
-0.00355323
-0.00345091
-9.26401e-05
-0.0017982
-0.00033701
0.000997572
0.00945598
0.00895937
-0.00334246
-0.00355311
-0.0032874
0.00902
0.00887219
0.00916381
-0.0014524
-0.00106395
-0.000722414
0.00238483
0.00278435
0.00187347
0.000776177
-0.00629869
-0.00752928
0.00111128
0.00383895
0.00488137
0.00566988
0.00405286
0.00417744
0.00614562
0.00552344
-0.0013693
-0.00166351
-0.00194353
-0.00178017
-0.00160396
0.00536772
0.00665956
-0.0078406
0.0113309
0.0105319
0.00582584
0.00942312
0.000937044
0.000848078
0.00075505
0.00550945
0.00570209
0.00569607
-0.00320459
-0.00312493
-0.00310762
-0.00258918
-0.0027112
0.0158683
0.0138622
0.0133042
0.0149359
0.00167274
0.00475616
0.00345303
0.00509905
0.00477609
0.0155398
0.0158355
0.0144952
0.0059417
0.00702128
0.000225184
0.000334851
0.000134322
0.0105303
0.0110341
0.00771513
0.00736734
0.0128243
0.00672638
0.00801844
0.0090861
-0.00188095
-0.00239437
0.00738718
0.00178061
0.00186197
-0.00115631
-0.00142195
-0.000957698
-0.00249407
0.00662701
0.00575383
0.00374365
0.000301884
0.000241035
0.000102792
0.000244109
0.00756429
0.00682899
-0.00183369
-0.00195136
-0.00184616
-0.00412092
-0.00366368
8.25357e-05
-0.00283898
-0.000483455
0.00842907
0.00853787
0.00963216
0.00916751
0.00774511
0.00312815
0.00304607
0.00329053
0.00316681
0.00507997
0.00485773
0.00519243
0.00541295
0.00535045
0.00542028
0.00563114
0.00618469
0.00587895
0.00547647
0.00580649
0.00651229
0.00726546
0.00755777
-0.000539118
-0.000520736
-0.00244602
0.000250465
8.31797e-05
-0.00196262
-0.00205215
0.000337874
0.000400497
0.000361014
0.000290437
0.00203949
0.00200241
0.00197255
-0.00290076
-0.00308936
-0.00275194
-0.00432633
-0.00481039
-0.00411915
-0.00470843
-0.00647719
-0.00517269
0.0160623
0.0167726
0.0165401
0.000976622
0.00112195
0.00100814
0.0103846
0.00995674
0.0100371
0.00157124
0.00154964
0.00159286
0.00152799
0.00150669
0.00148539
0.00148627
0.00146429
0.00146527
0.00150724
0.00152845
0.00154989
0.00157164
0.00159333
0.00144366
0.00144419
0.0016143
0.00161478
0.001636
0.00142311
0.00142325
0.00163644
0.00140235
0.00138176
0.0014027
0.00138226
0.00165812
0.0016586
0.00136141
0.00136193
0.00167952
0.00168024
0.00134121
0.00134176
0.00170114
0.00170185
0.00132118
0.00132175
0.00172273
0.00172346
0.00130127
0.00130193
0.00174428
0.00174498
0.00128166
0.00128212
0.00176576
0.00176641
0.00126212
0.00126254
0.00178706
0.00178775
0.00124273
0.00124304
0.00180814
0.00180871
0.00122344
0.00122353
0.0018295
0.00183001
0.00120429
0.00120391
0.00185021
0.00185042
0.00118475
0.00118451
0.00187099
0.00187117
0.00116484
0.00116506
0.00184921
0.00186994
0.00189168
0.0018916
0.00180655
0.00182822
0.00176387
0.00178556
0.00172135
0.00174273
0.00167814
0.00169983
0.00163456
0.00165631
0.00159181
0.00161385
0.0015491
0.00157036
0.00150613
0.0015274
0.00146353
0.00148479
0.00142192
0.0014427
0.00138086
0.00140133
0.00134043
0.00136058
0.00130062
0.00132046
0.00126146
0.00128098
0.00122289
0.00124211
0.0011842
0.00120375
0.00116473
0.00114528
0.00114544
0.00120401
0.0011652
0.00118461
0.001243
0.00122346
0.00128202
0.00126249
0.00132159
0.00130175
0.00136177
0.00134161
0.00140259
0.00138212
0.00144393
0.00142323
0.00148608
0.00146503
0.00152856
0.00150737
0.00157121
0.00154976
0.0016148
0.00159329
0.00165803
0.00163612
0.00170146
0.00167983
0.00174446
0.00172306
0.00178704
0.00176577
0.00182916
0.00180798
0.0018699
0.00184978
0.00189035
0.00189096
0.00114516
0.00114573
0.00191146
0.00190987
0.00191159
0.00191191
0.00184692
0.00188865
0.0018678
0.00180438
0.00182586
0.00176228
0.00178322
0.00171975
0.00174112
0.00167672
0.00169828
0.00163358
0.00165513
0.00159026
0.00161196
0.00154736
0.00156915
0.00150522
0.00152595
0.00146268
0.00148385
0.00142107
0.00144182
0.0013801
0.00140052
0.00133973
0.00135984
0.00129999
0.00131979
0.00126088
0.00128036
0.00122237
0.00124155
0.00118388
0.00120315
0.00112572
0.00112583
0.00114513
0.00116456
0.00116538
0.00114615
0.00112646
0.00112593
0.00120413
0.00118476
0.00124272
0.00122326
0.00128161
0.0012621
0.00132112
0.00130129
0.00136125
0.00134111
0.00140202
0.00138156
0.00144336
0.00142264
0.00148532
0.00146426
0.00152786
0.00150648
0.00157054
0.00154917
0.00161369
0.00159227
0.00165699
0.00163539
0.00170022
0.00167865
0.00174311
0.00172174
0.00178542
0.00176438
0.00182689
0.00180631
0.00186742
0.00184727
0.00190649
0.00188737
0.00190907
0.00192937
0.00192591
0.00193048
0.00112604
0.00112677
0.00193074
0.00192818
0.00194823
0.00194503
0.0019315
0.00114524
0.00112623
0.00110721
0.00110752
0.00192406
0.00194885
0.00197174
0.00194941
0.00188475
0.00190473
0.00184352
0.00186416
0.0018017
0.00182286
0.00175985
0.0017806
0.00171757
0.00173882
0.00167476
0.00169621
0.00163178
0.00165329
0.00158876
0.00161022
0.00154594
0.00156731
0.0015035
0.00152469
0.00146152
0.00148247
0.00142003
0.00144071
0.00137914
0.00139951
0.00133886
0.00135893
0.00129919
0.00131895
0.00126015
0.0012796
0.00122169
0.00124085
0.00118347
0.00120252
0.00116432
0.00110672
0.00110685
0.00110674
0.0011069
0.00116546
0.00112711
0.00114633
0.00120389
0.00118466
0.00124216
0.0012229
0.00128098
0.0012615
0.00132041
0.00130062
0.00136046
0.00134036
0.00140113
0.00138072
0.00144239
0.0014217
0.00148422
0.00146323
0.00152651
0.00150533
0.00156928
0.00154787
0.0016122
0.00159069
0.0016553
0.00163378
0.00169829
0.00167683
0.00174096
0.00171969
0.00178301
0.0017621
0.0018241
0.00180373
0.00186403
0.00184418
0.00190259
0.00188346
0.0019402
0.00192113
0.00196245
0.00195792
0.00194988
0.00194936
0.00110721
0.00110799
0.00196691
0.00196595
0.00196533
0.00197497
0.00197921
0.0019145
0.00199331
0.00195073
0.0019539
0.00195598
0.00192003
0.00194071
0.0018791
0.00189953
0.00183894
0.00185884
0.00179808
0.00181888
0.00175676
0.00177748
0.00171471
0.00173582
0.00167217
0.00169349
0.00162942
0.00165081
0.00158666
0.00160803
0.00154407
0.00156531
0.00150177
0.0015229
0.00145996
0.00148082
0.00141863
0.00143923
0.00137787
0.00139818
0.0013377
0.00135771
0.00129814
0.00131785
0.00125919
0.00127859
0.00122081
0.00123993
0.00118286
0.00120175
0.0011451
0.00116398
0.00110723
0.0011261
0.00108807
0.00108822
0.00108817
0.00108801
0.00108795
0.00108833
0.00108811
0.00108912
0.00108867
0.00112724
0.00108958
0.00110843
0.00116519
0.00114623
0.00120324
0.00118425
0.00124139
0.00122226
0.00128013
0.00126069
0.00131946
0.00129972
0.00135941
0.00133936
0.00139995
0.00137961
0.00144108
0.00142045
0.00148276
0.00146186
0.00152488
0.00150378
0.00156743
0.00154613
0.00161018
0.00158877
0.00165303
0.00163161
0.00169576
0.00167443
0.00173812
0.00171701
0.00177985
0.00175909
0.00182058
0.00180038
0.00185993
0.00184045
0.00189766
0.00187905
0.00193393
0.0019159
0.00196855
0.00195093
0.00199088
0.00198437
0.0019676
0.00196792
0.00198215
0.00198151
0.00110715
0.00108843
0.00107029
0.00107049
0.00198887
0.0019954
0.00201858
0.00194566
0.00200468
0.00199901
0.0019822
0.00196823
0.00194182
0.00194735
0.0019131
0.00193065
0.00187279
0.00189296
0.00183403
0.00185355
0.00179396
0.00181418
0.00175294
0.00177354
0.00171122
0.00173216
0.00166901
0.00169016
0.00162656
0.0016478
0.00158408
0.00160531
0.00154174
0.00156288
0.00149969
0.00152068
0.00145806
0.00147882
0.00141691
0.00143742
0.00137631
0.00139654
0.00133629
0.00135623
0.00129686
0.0013165
0.00125802
0.00127737
0.00121975
0.00123882
0.00118205
0.00120084
0.00114462
0.00116325
0.00112578
0.00106947
0.0010695
0.00106948
0.00106965
0.00106962
0.00106987
0.00106979
0.00106999
0.00112714
0.00108949
0.00110856
0.0011647
0.00114591
0.00120237
0.00118357
0.00124043
0.00122134
0.00127906
0.00125967
0.00131827
0.00129859
0.00135808
0.00133811
0.00139848
0.00137821
0.00143944
0.0014189
0.00148093
0.00146013
0.00152286
0.00150185
0.00156515
0.00154398
0.00160765
0.00158639
0.00165021
0.00162894
0.00169262
0.00167145
0.00173463
0.0017137
0.00177595
0.0017554
0.00181626
0.00179626
0.00185517
0.00183592
0.00189226
0.00187398
0.00192742
0.00191025
0.00196023
0.00194318
0.0019918
0.00197722
0.00201225
0.00200465
0.00198518
0.00198391
0.00106941
0.0010708
0.0019952
0.0019599
0.00198994
0.00199787
0.00200893
0.0020081
0.0020148
0.00201567
0.00201814
0.00202467
0.00201867
0.00198479
0.00195461
0.00200438
0.00198348
0.00193246
0.00194085
0.00190431
0.001922
0.00186675
0.00188555
0.00182854
0.00184784
0.00178899
0.00180892
0.00174842
0.00176881
0.00170712
0.00172786
0.0016653
0.00168626
0.0016232
0.00164428
0.00158104
0.00160212
0.001539
0.00156
0.00149722
0.00151807
0.00145583
0.00147647
0.00141489
0.0014353
0.00137448
0.00139462
0.00133463
0.00135448
0.00129535
0.00131492
0.00125665
0.00127593
0.00121851
0.00123751
0.00118093
0.00119966
0.00114376
0.00116234
0.0011065
0.00112513
0.00106913
0.00108796
0.00105094
0.00105046
0.00105055
0.00105138
0.00105114
0.0010517
0.00105154
0.00105177
0.00105177
0.00105183
0.0010518
0.00105227
0.00105195
0.00108938
0.0010524
0.00107087
0.00112664
0.0011081
0.00116394
0.00114529
0.00120133
0.00118258
0.00123927
0.00122023
0.00127777
0.00125845
0.00131684
0.00129723
0.00135649
0.0013366
0.00139671
0.00137654
0.00143748
0.00141704
0.00147875
0.00145806
0.00152044
0.00149955
0.00156245
0.00154142
0.00160465
0.00158354
0.00164687
0.00162578
0.00168891
0.00166794
0.0017305
0.00170978
0.00177137
0.00175105
0.00181118
0.00179144
0.00184958
0.00183059
0.00188617
0.00186814
0.00192056
0.00190374
0.00195254
0.00193672
0.00198166
0.00196786
0.0020085
0.00199408
0.00203129
0.00202202
0.00199852
0.00200875
0.00200463
0.00106874
0.00105036
0.00103376
0.00103372
0.00199917
0.00201205
0.00201412
0.00202228
0.00203016
0.00203821
0.00204205
0.00203343
0.0019994
0.0019932
0.00201892
0.00200856
0.00200226
0.00195247
0.00197465
0.00192428
0.00193592
0.00189575
0.00191262
0.00185972
0.00187786
0.00182223
0.00184119
0.0017833
0.00180293
0.00174327
0.00176341
0.00170245
0.00172295
0.00166107
0.00168182
0.00161938
0.00164026
0.00157759
0.00159849
0.00153587
0.00155671
0.00149439
0.0015151
0.00145327
0.00147378
0.00141257
0.00143286
0.00137238
0.00139241
0.00133272
0.00135248
0.00129362
0.0013131
0.00125507
0.00127428
0.00121708
0.00123601
0.00117962
0.00119829
0.00114268
0.0011611
0.00110571
0.0011242
0.00108718
0.00103273
0.00103203
0.00103241
0.00103346
0.00103315
0.0010339
0.00103372
0.00103394
0.00103397
0.00103373
0.00103387
0.00103369
0.00108916
0.00105218
0.00107068
0.00112591
0.00110753
0.00116284
0.00114439
0.00120011
0.00118141
0.00123791
0.00121895
0.00127626
0.00125702
0.00131517
0.00129565
0.00135464
0.00133484
0.00139467
0.00137459
0.00143521
0.00141488
0.00147623
0.00145567
0.00151764
0.00149689
0.00155934
0.00153847
0.0016012
0.00158027
0.00164304
0.00162214
0.00168465
0.0016639
0.00172578
0.0017053
0.00176615
0.00174609
0.00180542
0.00178595
0.00184325
0.00182455
0.00187926
0.00186151
0.00191307
0.00189649
0.00194436
0.00192905
0.00197243
0.0019589
0.00199866
0.00198509
0.00202201
0.00200992
0.00203494
0.00202692
0.00204335
0.00203291
0.00200988
0.00103201
0.00103338
0.00201537
0.00201332
0.00202926
0.00202019
0.00202582
0.00203586
0.00203602
0.00204405
0.00204893
0.00205185
0.00205279
0.00204285
0.00201272
0.00199496
0.00203138
0.00202396
0.00200416
0.00198011
0.00199174
0.00194646
0.00196263
0.00191621
0.00193023
0.0018868
0.00190294
0.00185194
0.00186961
0.00181524
0.00183382
0.00177698
0.00179628
0.00173755
0.0017574
0.00169726
0.0017175
0.00165636
0.00167688
0.00161511
0.00163577
0.00157372
0.00159443
0.00153237
0.00155304
0.00149122
0.00151177
0.00145039
0.00147077
0.00140997
0.00143013
0.00137002
0.00138993
0.00133057
0.00135023
0.00129167
0.00131106
0.0012533
0.00127242
0.00121547
0.00123432
0.00117815
0.00119675
0.00114135
0.00115969
0.00110486
0.00112312
0.00106825
0.00108649
0.00103171
0.00105012
0.00101406
0.00101338
0.00101367
0.00101497
0.00101446
0.00101575
0.00101538
0.00101621
0.00101603
0.00101622
0.00101627
0.00101593
0.00101608
0.00101556
0.00101567
0.00101529
0.0010154
0.00105195
0.00101543
0.00103396
0.00108854
0.00107014
0.00112494
0.00110679
0.00116158
0.0011432
0.00119872
0.00118009
0.00123637
0.00121748
0.00127455
0.0012554
0.00131328
0.00129385
0.00135255
0.00133285
0.00139234
0.00137238
0.00143264
0.00141243
0.00147337
0.00145296
0.00151448
0.00149389
0.00155584
0.00153514
0.00159732
0.00157658
0.00163874
0.00161805
0.00167989
0.00165937
0.00172052
0.00170029
0.00176034
0.00174056
0.00179903
0.00177985
0.00183624
0.00181785
0.00187162
0.00185419
0.00190479
0.00188852
0.00193543
0.00192046
0.00196299
0.00194965
0.0019878
0.00197578
0.00200958
0.00199845
0.00203002
0.00202085
0.00204459
0.00204106
0.00204792
0.00203445
0.00202424
0.00202735
0.00203059
0.00204193
0.00203931
0.00203593
0.00203933
0.00103128
0.00101322
0.000997214
0.0009972
0.00204948
0.00204865
0.00205532
0.0020586
0.00206038
0.00205826
0.00203562
0.00202727
0.00203059
0.00205413
0.00204579
0.00204741
0.00202689
0.00201398
0.00201564
0.00198349
0.00199541
0.00196685
0.00197854
0.00193685
0.00195131
0.00190792
0.0019224
0.00187751
0.00189329
0.00184363
0.00186087
0.00180768
0.00182589
0.00177011
0.00178908
0.00173131
0.00175085
0.00169158
0.00171155
0.0016512
0.00167146
0.00161042
0.00163085
0.00156947
0.00158996
0.00152852
0.00154899
0.00148773
0.0015081
0.00144722
0.00146744
0.00140709
0.00142711
0.0013674
0.00138719
0.0013282
0.00134774
0.00128951
0.00130879
0.00125134
0.00127036
0.00121368
0.00123245
0.00117653
0.00119505
0.00113987
0.00115814
0.00110368
0.00112172
0.0010674
0.00108556
0.00104938
0.000996206
0.000995348
0.000995766
0.000997331
0.000996798
0.000998161
0.000997787
0.000998609
0.000998438
0.00099863
0.000998674
0.000998265
0.00099848
0.000997757
0.000998015
0.000997512
0.0010514
0.00101524
0.00103338
0.00108762
0.00106947
0.00112367
0.0011056
0.00116017
0.00114186
0.00119716
0.0011786
0.00123464
0.00121584
0.00127264
0.00125358
0.00131116
0.00129184
0.00135021
0.00133062
0.00138975
0.00136992
0.00142977
0.00140971
0.0014702
0.00144995
0.00151097
0.00149056
0.00155196
0.00153145
0.00159303
0.0015725
0.001634
0.00161354
0.00167465
0.00165439
0.00171475
0.0016948
0.00175399
0.0017345
0.00179207
0.00177321
0.00182864
0.00181058
0.00186336
0.00184627
0.00189586
0.00187993
0.00192584
0.0019112
0.0019529
0.00193978
0.00197693
0.00196535
0.00199792
0.00198777
0.0020151
0.00200741
0.00203248
0.00202077
0.0020466
0.00204744
0.00206152
0.00205146
0.00204035
0.00203089
0.00205541
0.00205197
0.00203901
0.002041
0.000995188
0.000996935
0.00205663
0.00205022
0.00205208
0.00206011
0.00206034
0.0020656
0.00206827
0.00206645
0.00206205
0.00203613
0.0020222
0.00202427
0.00202558
0.00203145
0.00204504
0.00203973
0.00205299
0.00206215
0.00206047
0.00205464
0.00204093
0.00201634
0.00201489
0.00199745
0.00200282
0.00197356
0.00198598
0.00195358
0.00196451
0.00192675
0.00194054
0.00189833
0.00191271
0.00186798
0.00188353
0.00183485
0.00185172
0.00179963
0.00181749
0.00176276
0.00178139
0.00172459
0.00174382
0.00168545
0.00170513
0.00164562
0.00166561
0.00160535
0.00162553
0.00156485
0.00158512
0.00152433
0.00154459
0.00148392
0.0015041
0.00144376
0.00146381
0.00140395
0.00142381
0.00136454
0.00138419
0.0013256
0.00134502
0.00128715
0.00130631
0.00124919
0.00126811
0.00121173
0.0012304
0.00117475
0.00119318
0.00113825
0.00115645
0.0011022
0.00112017
0.00106647
0.00108435
0.00103072
0.00104852
0.000994871
0.00101273
0.00097763
0.00097698
0.000977218
0.000978726
0.000978078
0.000979845
0.000979303
0.000980672
0.000980307
0.000981101
0.000980936
0.000981131
0.000981166
0.00098077
0.000980994
0.000980104
0.000980493
0.000979408
0.000979737
0.000978619
0.000979092
0.00101464
0.000978924
0.000996827
0.00105069
0.00103264
0.00108636
0.00106857
0.00112226
0.00110425
0.00115861
0.00114038
0.00119543
0.00117697
0.00123273
0.00121402
0.00127053
0.00125157
0.00130883
0.00128962
0.00134763
0.00132817
0.00138691
0.00136722
0.00142663
0.00140672
0.00146673
0.00144664
0.00150714
0.00148691
0.00154773
0.00152742
0.00158835
0.00156805
0.00162885
0.00160864
0.00166898
0.00164898
0.00170851
0.00168885
0.00174716
0.00172798
0.0017846
0.00176606
0.00182052
0.00180279
0.00185456
0.00183781
0.0018864
0.00187079
0.00191571
0.00190141
0.00194218
0.00192933
0.00196564
0.00195432
0.00198594
0.00197623
0.00200222
0.00199472
0.0020156
0.00200937
0.00201624
0.00206591
0.00206849
0.00204489
0.00203294
0.00205291
0.00205397
0.00205714
0.00206166
0.00206391
0.000994185
0.000976495
0.000960989
0.000960667
0.00207165
0.002071
0.0020751
0.00207592
0.00207389
0.00207059
0.00203041
0.00201673
0.00202772
0.00203711
0.00205101
0.00205389
0.00206654
0.00206578
0.00205317
0.00203178
0.00204545
0.00205426
0.00201075
0.00200134
0.00199901
0.00200611
0.00198144
0.00199034
0.00196254
0.00197265
0.0019414
0.00195243
0.00191592
0.0019291
0.00188808
0.00190224
0.00185813
0.00187344
0.00182568
0.0018422
0.00179116
0.00180866
0.00175497
0.00177326
0.00171745
0.00173637
0.00167892
0.0016983
0.00163966
0.00165937
0.00159991
0.00161984
0.0015599
0.00157993
0.00151982
0.00153986
0.00147982
0.0014998
0.00144003
0.00145989
0.00140055
0.00142025
0.00136145
0.00138096
0.00132279
0.00134207
0.00128459
0.00130363
0.00124686
0.00126566
0.00120961
0.00122817
0.00117282
0.00119116
0.00113649
0.00115461
0.0011006
0.0011185
0.00106513
0.00108282
0.00102971
0.00104735
0.00101196
0.000960018
0.0009591
0.000959592
0.000961349
0.000960715
0.000962481
0.000961948
0.000963272
0.000962924
0.000963684
0.000963525
0.00096372
0.000963749
0.000963375
0.000963595
0.00096269
0.000963068
0.000961767
0.00096226
0.000961285
0.00101394
0.000978353
0.000996272
0.00104962
0.00103174
0.00108496
0.00106725
0.00112072
0.00110279
0.00115691
0.00113876
0.00119355
0.00117517
0.00123065
0.00121204
0.00126823
0.00124938
0.00130629
0.00128721
0.00134483
0.00132551
0.00138382
0.00136428
0.00142322
0.00140348
0.00146298
0.00144307
0.00150299
0.00148296
0.00154316
0.00152307
0.00158333
0.00156326
0.00162332
0.00160337
0.00166291
0.00164319
0.00170187
0.0016825
0.00173989
0.00172103
0.00177669
0.00175848
0.00181195
0.00179455
0.00184532
0.0018289
0.00187648
0.00186121
0.00190514
0.00189116
0.00193099
0.00191845
0.00195385
0.00194283
0.00197353
0.00196413
0.00198949
0.00198204
0.00200158
0.00199622
0.00200933
0.00200548
0.00201906
0.00201558
0.00203125
0.00201915
0.00201343
0.00207414
0.00207029
0.00206476
0.00206591
0.000958613
0.000960469
0.00207141
0.00207263
0.00207475
0.00208177
0.00208062
0.00208339
0.00208306
0.00208002
0.00207383
0.00202857
0.002012
0.00200885
0.00200475
0.00199989
0.00201819
0.00202542
0.00204659
0.00204963
0.00206503
0.00206615
0.00206717
0.00205709
0.00204385
0.00202907
0.00206626
0.00200675
0.00201294
0.00199454
0.00199014
0.00198276
0.00199196
0.00196847
0.00197607
0.00195028
0.00195986
0.00192921
0.00194016
0.00190459
0.00191731
0.00187741
0.00189129
0.00184796
0.001863
0.00181616
0.00183235
0.00178233
0.00179948
0.00174681
0.00176477
0.00170995
0.00172854
0.00167203
0.00169111
0.00163335
0.00165278
0.00159414
0.0016138
0.00155463
0.00157442
0.00151501
0.00153483
0.00147544
0.00149521
0.00143604
0.00145571
0.00139691
0.00141644
0.00135814
0.00137748
0.00131977
0.00133891
0.00128184
0.00130075
0.00124435
0.00126304
0.00120732
0.00122578
0.00117075
0.00118898
0.00113461
0.00115263
0.00109888
0.0011167
0.00106356
0.00108117
0.00102859
0.00104603
0.000993276
0.00101089
0.000957936
0.000975731
0.000941459
0.000940164
0.000940712
0.00094277
0.000942061
0.000944091
0.000943439
0.000945203
0.00094469
0.000945956
0.000945624
0.000946354
0.0009462
0.000946395
0.000946419
0.000946079
0.000946282
0.000945419
0.00094579
0.000944469
0.000944965
0.000943489
0.000943952
0.000942748
0.000943082
0.000977751
0.000942719
0.000960269
0.001013
0.000995482
0.00104826
0.00103065
0.00108346
0.00106581
0.00111906
0.00110121
0.00115507
0.00113701
0.00119151
0.00117324
0.0012284
0.0012099
0.00126575
0.00124702
0.00130355
0.0012846
0.00134181
0.00132263
0.00138049
0.00136111
0.00141956
0.00139999
0.00145895
0.00143922
0.00149856
0.00147874
0.00153829
0.00151842
0.00157798
0.00155815
0.00161745
0.00159776
0.00165649
0.00163705
0.00169485
0.00167578
0.00173225
0.0017137
0.0017684
0.00175052
0.00180299
0.00178592
0.00183569
0.00181961
0.0018662
0.00185125
0.00189421
0.00188055
0.00191947
0.00190722
0.00194175
0.00193102
0.00196085
0.00195174
0.00197643
0.00196913
0.00198829
0.00198291
0.00199661
0.00199272
0.00200199
0.0020005
0.00199867
0.00208345
0.00208215
0.0020167
0.00200567
0.00207569
0.00207687
0.00207689
0.00208261
0.00208455
0.000957246
0.00093975
0.00092528
0.000925001
0.0020909
0.00208916
0.00209066
0.00208914
0.00208464
0.00207731
0.00200514
0.00199132
0.00198762
0.00200361
0.00202323
0.00204262
0.00205934
0.0020623
0.00207499
0.00206886
0.00205626
0.00204007
0.00202618
0.00199269
0.00200334
0.00207727
0.00199807
0.00199048
0.00198884
0.0019977
0.00197879
0.00198244
0.00196943
0.00197544
0.00195536
0.00196281
0.0019376
0.00194692
0.00191688
0.00192764
0.00189297
0.00190531
0.00186642
0.00188
0.00183752
0.00185227
0.00180635
0.00182221
0.00177318
0.00179
0.00173833
0.00175596
0.00170212
0.00172039
0.00166482
0.00168359
0.00162672
0.00164586
0.00158807
0.00160746
0.00154907
0.00156861
0.00150993
0.00152951
0.00147079
0.00149036
0.0014318
0.00145128
0.00139305
0.00141239
0.00135462
0.00137379
0.00131656
0.00133554
0.0012789
0.00129768
0.00124168
0.00126024
0.00120489
0.00122323
0.00116853
0.00118666
0.00113259
0.00115051
0.00109705
0.00111477
0.00106189
0.00107942
0.0010271
0.00104445
0.000992183
0.00100966
0.000974661
0.000924073
0.000922669
0.000923423
0.000925615
0.000924874
0.000926947
0.000926302
0.000928005
0.000927519
0.000928723
0.000928406
0.000929106
0.000928957
0.000929153
0.000929172
0.000928864
0.00092905
0.000928244
0.000928594
0.000927322
0.000927813
0.000926182
0.000926782
0.000925627
0.00097709
0.000942144
0.000959792
0.00101195
0.00099451
0.00104679
0.0010294
0.00108184
0.00106427
0.00111726
0.00109951
0.00115308
0.00113513
0.00118932
0.00117115
0.00122598
0.0012076
0.00126309
0.00124448
0.00130062
0.0012818
0.00133859
0.00131956
0.00137695
0.00135772
0.00141566
0.00139627
0.00145466
0.00143513
0.00149385
0.00147425
0.00153312
0.00151349
0.00157232
0.00155275
0.00161126
0.00159184
0.00164973
0.00163058
0.00168749
0.00166873
0.00172427
0.00170604
0.00175978
0.00174222
0.00179371
0.00177698
0.00182576
0.00181
0.00185562
0.001841
0.00188303
0.00186967
0.00190771
0.00189575
0.00192946
0.00191899
0.00194807
0.0019392
0.00196328
0.00195613
0.00197492
0.00196959
0.00198319
0.0019794
0.0019875
0.00198616
0.00198785
0.00198772
0.0019898
0.00198535
0.00199019
0.00197785
0.00197838
0.00209103
0.00208892
0.00208565
0.00208679
0.000922315
0.00092458
0.0020802
0.00209162
0.00209328
0.00209864
0.00209665
0.00209691
0.00209402
0.00208821
0.0020796
0.00198631
0.00197165
0.0019626
0.00196589
0.00195514
0.0019691
0.00198063
0.00200322
0.00201902
0.00204079
0.00205554
0.00207089
0.00207737
0.00206862
0.00205385
0.00203642
0.00201895
0.00199912
0.00198144
0.00208725
0.00198432
0.00198094
0.00198181
0.00197007
0.00197247
0.00198231
0.0019657
0.00196891
0.00195599
0.00196155
0.00194207
0.00194946
0.00192478
0.00193384
0.00190446
0.00191501
0.00188115
0.00189317
0.00185519
0.00186848
0.00182685
0.00184132
0.00179629
0.00181184
0.00176377
0.00178027
0.00172958
0.00174687
0.001694
0.00171195
0.00165732
0.00167579
0.00161982
0.00163866
0.00158172
0.00160083
0.00154325
0.00156252
0.00150459
0.00152394
0.00146591
0.00148525
0.00142733
0.0014466
0.00138897
0.00140812
0.00135089
0.00136989
0.00131315
0.00133198
0.0012758
0.00129443
0.00123885
0.00125727
0.00120231
0.00122053
0.00116617
0.00118419
0.00113044
0.00114826
0.0010951
0.00111273
0.00106011
0.00107756
0.00102548
0.00104275
0.00099105
0.00100829
0.000956497
0.000973676
0.000921759
0.000939259
0.000905545
0.000904282
0.000904873
0.000907081
0.000906247
0.000908585
0.000907854
0.000909883
0.000909266
0.000910883
0.000910423
0.000911569
0.000911265
0.000911938
0.000911793
0.000911989
0.000912003
0.000911723
0.000911895
0.000911145
0.000911473
0.000910257
0.00091074
0.000909129
0.000909709
0.000907982
0.000908528
0.000907262
0.00090764
0.000941528
0.000907136
0.000924312
0.000976146
0.000958876
0.00101069
0.000993375
0.00104523
0.00102793
0.00108011
0.00106263
0.00111535
0.00109769
0.00115097
0.00113312
0.00118699
0.00116893
0.00122341
0.00120515
0.00126025
0.00124179
0.00129751
0.00127883
0.00133516
0.00131629
0.00137319
0.00135414
0.00141153
0.00139233
0.00145013
0.00143081
0.00148889
0.00146951
0.00152769
0.0015083
0.00156639
0.00154707
0.00160479
0.00158564
0.00164269
0.00162383
0.00167985
0.00166139
0.00171601
0.00169808
0.00175088
0.00173363
0.00178417
0.00176775
0.00181558
0.00180014
0.00184483
0.00183051
0.00187166
0.00185858
0.00189581
0.0018841
0.00191707
0.00190684
0.00193525
0.00192659
0.00195014
0.00194314
0.00196159
0.00195633
0.00196966
0.00196604
0.00197397
0.00197242
0.00197421
0.00197462
0.00197149
0.00197325
0.00196486
0.00209734
0.00209435
0.00196624
0.00195642
0.00209461
0.00209565
0.00208539
0.00209945
0.00210092
0.000921048
0.000903816
0.00089006
0.000889809
0.00210513
0.00210305
0.00210198
0.00209779
0.00209063
0.00208083
0.00196207
0.00195121
0.0019358
0.0019465
0.00198135
0.00199585
0.00201993
0.00203034
0.00205356
0.00206825
0.00208037
0.00206686
0.00205042
0.00203246
0.00201019
0.00199387
0.00197374
0.00194315
0.00195305
0.00209618
0.00196091
0.00194249
0.00196925
0.00196983
0.00196472
0.00195918
0.00195921
0.00196524
0.0019525
0.00195587
0.00194252
0.00194807
0.00192884
0.0019361
0.00191193
0.00192079
0.00189201
0.00190235
0.00186921
0.00188097
0.00184379
0.00185682
0.00181601
0.0018302
0.00178605
0.0018013
0.00175415
0.00177033
0.00172058
0.00173757
0.00168563
0.00170327
0.00164957
0.00166773
0.00161265
0.00163121
0.00157511
0.00159395
0.00153717
0.00155619
0.00149901
0.00151811
0.00146079
0.00147991
0.00142265
0.00144171
0.00138468
0.00140364
0.00134696
0.00136579
0.00130957
0.00132823
0.00127252
0.001291
0.00123586
0.00125414
0.00119958
0.00121767
0.00116369
0.00118159
0.00112818
0.00114589
0.00109304
0.00111057
0.00105824
0.0010756
0.00102378
0.00104097
0.000989635
0.00100668
0.000955402
0.000972457
0.000938272
0.000888502
0.000887051
0.000887819
0.000890169
0.000889347
0.00089165
0.000890936
0.000892887
0.000892303
0.000893835
0.000893397
0.000894489
0.000894199
0.000894844
0.000894704
0.000894899
0.000894909
0.000894655
0.000894814
0.000894117
0.000894422
0.000893289
0.00089374
0.000892202
0.000892771
0.000890949
0.000891604
0.000890437
0.000940885
0.000906705
0.000923774
0.000975096
0.000957931
0.0010092
0.000992123
0.00104358
0.00102635
0.00107828
0.00106089
0.00111332
0.00109576
0.00114873
0.00113098
0.00118452
0.00116658
0.00122069
0.00120256
0.00125726
0.00123893
0.00129422
0.0012757
0.00133155
0.00131284
0.00136922
0.00135035
0.00140719
0.00138818
0.00144538
0.00142627
0.00148369
0.00146453
0.00152202
0.00150287
0.0015602
0.00154114
0.00159806
0.00157919
0.00163539
0.00161681
0.00167195
0.00165379
0.00170749
0.00168988
0.00174174
0.00172481
0.00177441
0.0017583
0.00180522
0.00179008
0.00183389
0.00181985
0.00186017
0.00184736
0.00188383
0.00187236
0.00190467
0.00189463
0.00192248
0.00191398
0.00193711
0.00193023
0.00194842
0.00194321
0.00195637
0.00195283
0.00196071
0.00195906
0.00196128
0.00196146
0.00195795
0.00196029
0.00195028
0.00195433
0.00194416
0.00194257
0.0019297
0.00192185
0.00193235
0.00210241
0.00209806
0.00210245
0.00210341
0.000886646
0.000889308
0.00208923
0.00210607
0.00210745
0.00211048
0.00210829
0.00210589
0.00210035
0.00209189
0.00208065
0.00192232
0.0019208
0.00191424
0.0019328
0.00194784
0.00196659
0.00199616
0.00200926
0.0020326
0.00204666
0.00206461
0.00207875
0.00206374
0.00204599
0.00202617
0.00200657
0.00198482
0.00196177
0.00193911
0.00191303
0.00191921
0.00190693
0.002104
0.00194389
0.00191821
0.0019449
0.00193725
0.00195288
0.00195167
0.0019495
0.00195041
0.00194652
0.00194931
0.00193937
0.00194317
0.00192924
0.00193477
0.00191575
0.00192291
0.00189914
0.00190784
0.00187957
0.00188972
0.00185722
0.00186874
0.0018323
0.00184508
0.00180505
0.00181897
0.00177565
0.00179061
0.00174435
0.00176023
0.0017114
0.00172807
0.00167706
0.00169439
0.0016416
0.00165946
0.00160526
0.00162353
0.00156828
0.00158684
0.00153087
0.00154963
0.00149322
0.00151207
0.00145547
0.00147435
0.00141776
0.00143661
0.0013802
0.00139896
0.00134286
0.0013615
0.00130581
0.0013243
0.00126909
0.00128741
0.00123272
0.00125086
0.00119671
0.00121467
0.00116108
0.00117885
0.0011258
0.0011434
0.00109087
0.0011083
0.00105628
0.00107354
0.001022
0.0010391
0.000988013
0.00100497
0.000954118
0.000971019
0.000920267
0.000937231
0.000886025
0.00090321
0.000870161
0.000868848
0.000869502
0.000871752
0.000870895
0.000873353
0.000872562
0.000874785
0.0008741
0.000875956
0.000875404
0.000876856
0.00087644
0.000877479
0.000877203