/*--------------------------------*- C++ -*----------------------------------*\
  =========                 |
  \\      /  F ield         | OpenFOAM: The Open Source CFD Toolbox
   \\    /   O peration     | Website:  https://openfoam.org
    \\  /    A nd           | Version:  10
     \\/     M anipulation  |
\*---------------------------------------------------------------------------*/
FoamFile
{
    format      ascii;
    class       volVectorField;
    location    "48.5";
    object      U;
}
// * * * * * * * * * * * * * * * * * * * * * * * * * * * * * * * * * * * * * //

dimensions      [0 1 -1 0 0 0 0];

internalField   nonuniform List<vector> 
28942
(
(0.00445686 -0.00227163 -3.40494e-22)
(0.00603136 -0.00235786 -6.31535e-23)
(0.0179674 -0.0124068 -8.28922e-22)
(0.103305 0.0182387 -5.27886e-21)
(0.102343 0.0222807 1.7282e-21)
(0.0167191 0.000540917 0)
(0.0198872 0.000111892 1.36082e-23)
(0.0230108 0.000698035 -1.21146e-23)
(0.135259 -0.0181729 -2.57941e-22)
(0.1339 -0.0165363 7.3403e-22)
(0.00987853 0.00404374 -6.70027e-22)
(0.0161912 0.00567597 2.53434e-22)
(0.00719434 0.00317642 0)
(0.00474806 0.00208255 0)
(0.0513205 0.00219926 -1.82035e-23)
(0.0493295 0.00287139 -6.90235e-24)
(0.0893237 0.0158664 6.69588e-22)
(0.0870116 0.0138363 1.0775e-21)
(0.0121758 -0.0151262 2.92557e-21)
(0.0293584 -0.0304947 -7.69995e-22)
(0.0981419 0.0373545 9.55384e-22)
(0.097317 0.0343927 0)
(0.0188339 0.00466768 1.16533e-21)
(0.0079081 0.00238292 5.49093e-22)
(0.0379372 0.00726613 9.42069e-22)
(0.0577121 0.00296208 -8.58824e-22)
(0.00765161 -0.0185084 8.52371e-21)
(0.00669632 -0.0165714 -3.13912e-21)
(0.0355541 -0.0253487 5.74658e-22)
(0.0193235 -0.0136965 1.9843e-22)
(0.0171338 -0.00159068 0)
(0.0214243 -0.00141684 -1.63242e-23)
(0.0271217 0.00478142 3.34072e-22)
(0.0388497 0.00206551 -5.5601e-23)
(0.0188344 0.0180147 1.31874e-21)
(0.0157262 0.0191234 -1.31142e-21)
(0.032183 0.0376212 -3.0606e-21)
(0.0186765 0.0305364 -1.0705e-21)
(0.00921776 3.85849e-05 -1.14065e-23)
(0.00865195 0.0161989 -2.62049e-21)
(0.030648 -0.0062033 0)
(0.0513409 -0.0109697 0)
(0.112737 -0.0140368 -2.89155e-23)
(0.11226 -0.0141088 8.58282e-23)
(0.116414 -0.0139052 7.42693e-23)
(0.0323349 0.000272406 1.40446e-23)
(0.0301194 -0.000593615 -2.27803e-23)
(0.042795 -0.000520483 -1.0148e-22)
(0.0410374 -0.000586843 2.8811e-23)
(0.0334695 -0.00299511 -2.46628e-22)
(0.0250412 -0.00364915 1.59308e-22)
(0.128466 0.00164243 -4.06962e-22)
(0.1278 0.00115576 -3.79425e-22)
(0.134589 -0.0209642 -3.79663e-24)
(0.133027 -0.0192366 1.40022e-22)
(0.0828476 0.00649986 7.15086e-22)
(0.102107 -0.000602348 2.48368e-22)
(0.00308373 0.00163319 -5.63692e-22)
(0.00900716 0.00370676 0)
(0.00831262 0.00331325 2.36898e-22)
(0.00290593 0.00149997 4.8636e-22)
(0.000366936 0.000228998 -4.04517e-22)
(0.000195995 0.000124281 -3.88468e-22)
(0.109965 -0.0426102 0)
(0.105135 -0.0255888 1.25953e-22)
(0.122002 -0.0330544 -4.30676e-23)
(0.123607 -0.043725 0)
(0.090138 -0.0327991 -6.40154e-22)
(0.0936449 -0.0352611 -4.20768e-22)
(0.00189819 -0.00113709 1.12562e-21)
(0.00250615 -0.00202925 -3.54711e-22)
(0.00490274 -0.00317466 8.80074e-22)
(0.0849239 -0.0457645 0)
(0.0912443 -0.0396191 2.173e-21)
(0.0805998 -0.0530386 5.87071e-22)
(0.114388 0.0122943 2.34608e-22)
(0.113018 0.00676532 -2.60318e-22)
(0.125368 0.010836 -1.09485e-22)
(0.00469189 -0.00286691 -5.37192e-23)
(0.00635011 -0.00443363 4.50006e-22)
(0.0510979 -0.0311865 1.26728e-22)
(0.0332185 -0.0205711 -2.5816e-22)
(0.00212332 -0.00060272 3.20132e-21)
(0.00518022 -0.00208558 -1.24754e-21)
(0.101106 0.0482467 1.42569e-23)
(0.0971268 0.0552153 -7.68586e-22)
(0.080794 0.0540235 7.01611e-22)
(0.0472471 0.0345293 -2.69364e-21)
(0.0444762 0.0316275 1.90766e-21)
(0.0295186 0.0206104 -1.14201e-22)
(0.0327401 0.0232635 -6.43893e-22)
(0.0379841 0.0283737 8.73022e-22)
(0.00444783 0.00273062 -5.83005e-23)
(0.0078396 0.0039983 -1.68694e-23)
(0.00321567 0.00202511 3.38044e-23)
(0.00193356 0.00164216 -4.51329e-22)
(0.00145463 0.00156243 5.53075e-22)
(0.0157542 0.0115511 -3.26849e-21)
(0.0175072 0.0136428 7.48891e-22)
(0.0088372 -0.00386488 0)
(0.101389 0.00516006 0)
(0.0984002 0.0156845 -3.96983e-21)
(0.0604382 0.0104757 1.95072e-21)
(0.0886773 0.017882 0)
(0.135691 -0.00158389 0)
(0.135136 -0.00231854 0)
(0.133489 -0.00279374 -2.62191e-22)
(0.114988 0.0265162 -2.13131e-22)
(0.114082 0.0279246 2.10655e-21)
(0.11328 0.0253865 1.13041e-21)
(0.00231419 0.0013087 1.05056e-21)
(0.00152528 0.000781695 -1.17915e-21)
(0.0191452 -0.00557601 -5.47116e-22)
(0.0202455 -0.00511167 4.66495e-22)
(0.00915853 -0.0029536 9.21589e-22)
(0.00647817 0.0111415 1.48119e-21)
(0.0189733 0.0181485 3.46261e-21)
(0.0134695 0.0227942 2.72251e-22)
(0.00492219 0.0143018 -8.63706e-21)
(0.117119 0.0477163 5.59388e-23)
(0.107946 0.0582112 1.07464e-21)
(0.118421 0.0548314 -1.85337e-21)
(0.0391327 -0.029444 7.32774e-22)
(0.0240344 -0.0172813 -4.68759e-22)
(0.00532361 -0.000752293 -4.10916e-21)
(0.0045404 -0.00360291 0)
(0.0125003 -0.00168711 2.00631e-21)
(0.0219857 -0.0161451 7.79765e-22)
(0.0342886 -0.0278081 -1.95919e-21)
(0.0405278 -6.28153e-06 7.13237e-23)
(0.043041 0.000159337 -5.07752e-23)
(0.0381012 0.000193022 -2.20067e-24)
(0.0280787 -0.041982 0)
(0.0296271 -0.0428725 0)
(0.0896184 -0.0186548 -4.65496e-22)
(0.099586 -0.0220933 3.16133e-21)
(0.0870327 -0.0252792 0)
(0.0471622 -0.0402193 0)
(0.0582297 -0.051418 -7.84494e-22)
(0.0413322 0.039345 2.09031e-21)
(-5.86645e-06 0.00021012 5.1077e-22)
(-0.000198736 0.00012776 -3.35941e-22)
(0.0223472 -0.0192574 -7.92612e-22)
(0.120422 -0.0136639 4.19572e-22)
(0.119811 -0.0136766 -8.09183e-23)
(0.115815 -0.00552327 -6.63976e-23)
(0.108782 0.00118267 8.84843e-23)
(0.118037 -5.84134e-05 1.78355e-22)
(8.1426e-05 0.000258531 1.97406e-22)
(0.0437758 0.0344329 3.21481e-21)
(0.0619226 0.0463224 -7.90852e-22)
(0.059368 0.0393868 -3.03738e-24)
(0.026607 -0.000967177 6.67938e-24)
(0.0262186 -0.000974385 3.57304e-23)
(0.0284198 -0.000785214 1.62547e-24)
(0.0316996 -0.000730684 -1.75655e-23)
(0.0454468 0.0381007 1.33911e-22)
(0.0189723 0.0160652 0)
(0.000143548 -3.92744e-05 3.64843e-22)
(0.000429109 -0.000264054 -4.04775e-22)
(0.00187579 -0.00103035 2.81959e-22)
(0.0366715 -0.00777042 -1.84002e-21)
(0.0650391 -0.00215473 -7.49834e-22)
(0.0367496 -0.000318979 -2.31351e-24)
(0.0746593 -0.00762309 2.71518e-22)
(0.0708467 -0.0157348 6.06156e-23)
(0.0943298 0.0398815 2.1496e-21)
(0.0914349 0.0454199 9.92521e-23)
(0.0887637 0.0290581 1.21884e-21)
(0.0914898 0.0307726 -8.83283e-22)
(0.0987245 0.041037 0)
(0.125986 -0.00058346 1.51186e-22)
(0.126743 -0.0010301 2.85896e-22)
(0.128063 -0.0120987 -2.97833e-22)
(0.129524 -0.0118881 5.09881e-22)
(0.117064 0.0240448 2.61533e-22)
(0.119124 0.0249358 -7.40684e-22)
(0.117114 0.0260606 0)
(0.115146 0.0248066 1.54076e-22)
(0.116689 0.027988 0)
(0.117206 0.0360156 -5.54067e-22)
(0.115746 0.0380744 -3.02355e-22)
(0.111375 0.0419018 -5.4296e-22)
(0.113768 0.0400268 0)
(0.116466 0.0429988 1.79702e-21)
(0.113743 0.04493 4.73892e-23)
(0.10837 0.0441197 -3.0487e-22)
(0.0996714 0.0502406 -1.29178e-21)
(0.098453 0.0454525 -2.27566e-22)
(0.0251887 -0.00858151 5.6362e-23)
(0.0331155 -0.00946433 -2.25017e-23)
(0.00632993 -0.002511 -6.88747e-22)
(0.036111 -6.39638e-05 -4.6474e-23)
(0.046015 -0.000299594 0)
(-2.15051e-06 -4.17923e-05 4.2881e-22)
(1.39067e-05 -4.82035e-05 2.18664e-22)
(0.0417062 -0.00201798 2.1171e-23)
(0.0490717 -0.00196173 8.40459e-24)
(0.0485648 -0.00133534 0)
(0.0403727 -0.000892607 9.31655e-24)
(0.0969663 0.00440238 -1.2679e-22)
(0.0964965 0.0039501 6.00223e-22)
(0.0973451 0.00410104 2.78987e-22)
(0.000676434 0.000271667 3.92029e-22)
(-0.000160338 -0.000130452 -5.68707e-22)
(-0.000202773 -0.000170968 4.84366e-22)
(0.00151339 0.000624425 0)
(8.24845e-05 8.97404e-05 1.14032e-21)
(0.000175201 -3.76264e-05 -8.21613e-22)
(0.00748724 0.0036931 -9.92514e-22)
(0.001463 0.000787442 -1.18566e-21)
(0.00173177 0.000866448 0)
(0.00157237 0.00754041 0)
(0.000577115 0.00327982 0)
(0.000313366 0.00197577 0)
(0.136821 -0.00162804 5.80736e-23)
(0.137788 -0.00148529 0)
(0.136205 -0.00243448 -6.76484e-23)
(0.0881234 -0.0148584 4.43556e-21)
(0.0901297 -0.0152658 -1.61012e-21)
(0.0890442 -0.0128833 0)
(0.110978 0.000199785 -7.14596e-24)
(0.111414 0.0001898 1.43029e-23)
(0.110521 0.00021104 -4.85262e-24)
(0.111827 0.000181657 0)
(0.112219 0.000178149 -9.07132e-24)
(0.112587 0.000170867 0)
(0.112583 -0.000212681 0)
(0.112934 0.000156437 3.34802e-23)
(0.112924 -0.000210992 0)
(0.112218 -0.000222454 -9.13391e-24)
(0.111826 -0.000236069 0)
(0.111413 -0.000250493 4.78586e-24)
(0.110975 -0.000268243 -7.1501e-24)
(0.110519 -0.000285151 4.84655e-24)
(0.113257 0.000141533 -3.20377e-23)
(0.113247 -0.00020552 -1.11872e-24)
(0.110035 0.000225037 7.05308e-28)
(0.110031 -0.000298443 -7.4327e-24)
(0.10952 0.000238445 3.96397e-23)
(0.113559 0.000131379 2.98497e-26)
(0.113556 -0.000194987 -1.11463e-24)
(0.109519 -0.000318019 1.46774e-23)
(0.113846 0.000120983 2.9969e-23)
(0.114115 0.000112095 -2.99443e-23)
(0.113845 -0.000185474 2.24951e-24)
(0.114115 -0.000175729 4.4278e-24)
(0.108996 0.000262584 -3.85675e-23)
(0.10899 -0.000338015 -9.66819e-24)
(0.114369 0.000102773 0)
(0.114369 -0.000167087 -4.36727e-24)
(0.108434 0.00027766 4.78585e-27)
(0.10843 -0.000353316 -4.79785e-27)
(0.114606 9.47223e-05 0)
(0.114607 -0.000158338 0)
(0.107845 0.00028951 0)
(0.107841 -0.000372139 0)
(0.114829 8.62013e-05 0)
(0.11483 -0.000150663 2.08633e-24)
(0.107229 0.000301452 -2.01865e-23)
(0.107224 -0.000390176 -4.9212e-27)
(0.115038 7.88225e-05 1.09262e-25)
(0.115039 -0.000142871 -2.22808e-24)
(0.106585 0.000311523 2.0283e-23)
(0.10658 -0.000410056 0)
(0.115233 7.11576e-05 0)
(0.115234 -0.000135859 0)
(0.105913 0.000321999 -1.28728e-24)
(0.105909 -0.000428033 2.21118e-23)
(0.115416 6.44939e-05 1.34548e-23)
(0.115417 -0.00012861 0)
(0.105216 0.000329838 -1.33268e-25)
(0.10521 -0.000446557 -2.09295e-23)
(0.115587 5.73872e-05 -2.01153e-23)
(0.115588 -0.000122246 -5.83387e-24)
(0.104478 0.000329024 2.13794e-23)
(0.104475 -0.000465063 0)
(0.115747 5.14054e-05 6.61905e-24)
(0.115749 -0.000114804 3.8898e-24)
(0.103715 0.000335153 -1.08482e-23)
(0.103712 -0.000486929 2.19986e-23)
(0.115896 4.64197e-05 -2.63867e-23)
(0.115901 -0.000105514 2.97402e-23)
(0.102899 0.00032326 1.12031e-23)
(0.102905 -0.000513832 3.54862e-25)
(0.116037 4.21382e-05 0)
(0.116042 -9.75342e-05 1.41588e-23)
(0.102054 0.000312101 -2.2571e-23)
(0.102065 -0.000549019 4.51534e-23)
(0.116174 3.62532e-05 0)
(0.116175 -9.22457e-05 0)
(0.103013 0.00115569 -1.10854e-23)
(0.102168 0.00117296 -4.49389e-23)
(0.101162 0.000292956 0)
(0.101188 -0.000597437 -2.30358e-23)
(0.104586 0.0011071 -6.94025e-24)
(0.103813 0.00113385 1.36378e-24)
(0.106011 0.00103608 0)
(0.105307 0.00107269 -2.23657e-23)
(0.107318 0.000957671 -4.292e-26)
(0.106679 0.000997352 0)
(0.108514 0.000876465 0)
(0.10793 0.000917301 0)
(0.109607 0.000788437 0)
(0.109072 0.00083434 0)
(0.110579 0.000705881 9.57134e-24)
(0.110101 0.000746242 2.42122e-24)
(0.111463 0.000633977 -9.20817e-24)
(0.111037 0.000668833 -9.56842e-24)
(0.112254 0.000568963 1.62521e-23)
(0.111867 0.000597121 2.08257e-23)
(0.112966 0.000509274 0)
(0.112619 0.000540869 0)
(0.113592 0.000450443 -7.08058e-26)
(0.113289 0.000479318 0)
(0.114144 0.000394836 0)
(0.113876 0.000422107 0)
(0.114631 0.000343676 0)
(0.114395 0.000368631 0)
(0.115058 0.000297346 0)
(0.114851 0.000319884 0)
(0.115433 0.00025557 0)
(0.115252 0.000275863 0)
(0.115761 0.000218143 0)
(0.115603 0.00023632 0)
(0.116051 0.000180168 -1.07688e-23)
(0.11591 0.000200756 0)
(0.116184 0.000162707 -3.47413e-24)
(0.1163 2.95305e-05 3.38859e-24)
(0.116301 -8.82686e-05 -3.3604e-24)
(0.115913 -0.000249511 0)
(0.116185 -0.000218667 -1.37984e-23)
(0.116053 -0.000233049 -7.11706e-24)
(0.115602 -0.000285935 1.9561e-24)
(0.115762 -0.000267534 -7.64729e-24)
(0.11525 -0.000324011 6.35734e-26)
(0.115432 -0.000304968 0)
(0.114848 -0.000365171 0)
(0.115056 -0.000343936 0)
(0.11439 -0.000411516 0)
(0.114627 -0.000387643 0)
(0.113869 -0.000463663 0)
(0.114138 -0.000436787 8.44524e-30)
(0.113279 -0.000522611 7.17048e-26)
(0.113583 -0.000492161 0)
(0.112615 -0.000584359 0)
(0.112955 -0.000553846 0)
(0.111867 -0.000650341 0)
(0.11225 -0.000616703 0)
(0.111026 -0.00072628 0)
(0.111458 -0.000685525 -4.83097e-24)
(0.11009 -0.000812407 1.28332e-24)
(0.110569 -0.00077168 -6.26099e-24)
(0.109058 -0.000907304 0)
(0.109591 -0.000856808 -5.11193e-24)
(0.107917 -0.00100163 0)
(0.108501 -0.00095427 0)
(0.106665 -0.00109802 0)
(0.107305 -0.00104956 0)
(0.105298 -0.00119432 0)
(0.105997 -0.00114631 0)
(0.10381 -0.00128914 -5.67889e-24)
(0.104571 -0.00124025 0)
(0.102201 -0.0013998 -2.31028e-23)
(0.103023 -0.00133873 -5.71878e-24)
(0.101339 -0.00146615 2.35497e-23)
(0.101287 0.00119068 4.45833e-23)
(0.116309 0.000147331 6.79171e-24)
(0.11631 -0.000205331 -1.3256e-23)
(0.100265 -0.000658548 0)
(0.100442 -0.00154826 0)
(0.100371 0.00120788 0)
(0.100235 0.000264848 0)
(0.103243 0.00197174 0)
(0.101568 0.00208389 1.11452e-23)
(0.102422 0.00202642 1.12492e-23)
(0.10479 0.00184966 1.42507e-23)
(0.104032 0.00191313 -2.85e-24)
(0.106192 0.00171448 4.38829e-26)
(0.105506 0.00178275 0)
(0.107479 0.0015781 0)
(0.10685 0.0016463 0)
(0.108655 0.00144249 0)
(0.10808 0.0015101 0)
(0.109725 0.00131021 0)
(0.109202 0.00137546 0)
(0.110691 0.00118138 0)
(0.11022 0.00124616 0)
(0.111558 0.00106232 -3.8554e-26)
(0.111134 0.00112231 9.96623e-24)
(0.112333 0.000948229 -3.6833e-26)
(0.111959 0.00100266 -1.93709e-23)
(0.113031 0.000840049 0)
(0.112691 0.000892865 0)
(0.113647 0.000741835 3.53615e-26)
(0.113349 0.000789814 0)
(0.114192 0.000651822 0)
(0.113928 0.000695832 0)
(0.114671 0.000569811 0)
(0.114439 0.000609806 0)
(0.115093 0.000495803 0)
(0.114889 0.000531818 0)
(0.115463 0.000429424 0)
(0.115284 0.000461679 0)
(0.115787 0.000369924 0)
(0.11563 0.000398918 0)
(0.116073 0.000312972 7.35661e-24)
(0.115934 0.000341398 0)
(0.116418 2.40657e-05 0)
(0.116426 0.00013333 6.62784e-24)
(0.116326 0.000262537 0)
(0.116203 0.000286826 7.16072e-24)
(0.116204 -0.000344105 1.42635e-23)
(0.116326 -0.000322346 3.49798e-24)
(0.116426 -0.000194158 2.72718e-23)
(0.116418 -8.395e-05 0)
(0.115935 -0.000393874 0)
(0.116073 -0.000367977 -2.15366e-23)
(0.115629 -0.000449801 6.16031e-26)
(0.115787 -0.000420681 7.69381e-24)
(0.115281 -0.00051018 -6.35731e-26)
(0.11546 -0.000479266 0)
(0.114884 -0.00057756 0)
(0.115089 -0.000542865 0)
(0.114432 -0.000653342 0)
(0.114666 -0.000614356 0)
(0.113919 -0.00073829 0)
(0.114184 -0.000694622 -8.44522e-30)
(0.113337 -0.000833097 -1.43351e-25)
(0.113637 -0.000784436 0)
(0.112683 -0.000936929 0)
(0.113019 -0.000884057 0)
(0.111944 -0.00105042 2.43533e-24)
(0.112324 -0.00099235 0)
(0.11112 -0.00117172 0)
(0.111544 -0.00110822 -2.42517e-24)
(0.110201 -0.00130605 5.11745e-24)
(0.11067 -0.00123888 5.07215e-24)
(0.109182 -0.00144683 0)
(0.109705 -0.00137557 0)
(0.108059 -0.00159428 0)
(0.108634 -0.00151985 0)
(0.106827 -0.00174661 0)
(0.107457 -0.00166993 0)
(0.105483 -0.00190225 0)
(0.106169 -0.00182404 0)
(0.104024 -0.00206009 9.09127e-26)
(0.104768 -0.00198084 0)
(0.102448 -0.00221896 -9.24696e-26)
(0.103252 -0.00213963 0)
(0.100745 -0.00240866 -2.42369e-23)
(0.101611 -0.00231111 2.42258e-23)
(0.10068 0.00213998 2.27317e-23)
(0.0995176 -0.00164191 0)
(0.0998452 -0.00252015 -4.93906e-23)
(0.0993217 -0.000725585 0)
(0.11644 0.000242041 0)
(0.116441 -0.000302053 -3.39084e-24)
(0.0994278 0.00122645 5.77259e-23)
(0.099765 0.00219652 2.30943e-23)
(0.098557 -0.00173713 1.25017e-23)
(0.0989156 -0.00263786 6.24234e-23)
(0.0992739 0.000233876 0)
(0.11635 0.00037853 2.79817e-23)
(0.116462 0.000349157 -1.38149e-23)
(0.116534 -0.000183227 -6.70676e-24)
(0.116548 -0.000282621 3.3336e-23)
(0.100275 0.00313485 8.08175e-23)
(0.0988068 0.0022535 -4.54592e-23)
(0.0983837 0.0033216 -2.03348e-22)
(0.0993421 0.00322049 -4.61629e-23)
(0.101999 0.00295142 2.24418e-23)
(0.101152 0.00304523 -6.87252e-23)
(0.1036 0.00276118 -2.29303e-23)
(0.102815 0.00285728 -1.73344e-23)
(0.105092 0.00257002 -5.69705e-24)
(0.104362 0.00266759 -5.70718e-24)
(0.10646 0.00237765 -4.38829e-26)
(0.105792 0.00247413 0)
(0.107713 0.00218539 0)
(0.1071 0.00228128 0)
(0.108858 0.00199619 0)
(0.108299 0.00209029 0)
(0.1099 0.00181228 0)
(0.109392 0.00190338 0)
(0.110843 0.00163638 0)
(0.110383 0.00172321 0)
(0.111689 0.00146899 0)
(0.111277 0.00155172 0)
(0.112448 0.00131182 4.2748e-29)
(0.11208 0.00138917 0)
(0.113126 0.00116383 0)
(0.112796 0.00123638 0)
(0.113729 0.00102819 3.53077e-26)
(0.113437 0.00109447 0)
(0.114261 0.000904413 0)
(0.114003 0.000964858 0)
(0.114731 0.000792112 0)
(0.114503 0.00084685 0)
(0.115144 0.000690976 0)
(0.114944 0.000740182 0)
(0.115506 0.000600468 0)
(0.115331 0.000644443 0)
(0.115824 0.000519534 0)
(0.11567 0.000558932 0)
(0.116103 0.000444903 3.74888e-24)
(0.115968 0.000481397 -1.88705e-24)
(0.116231 0.000410683 -1.42803e-23)
(0.116526 2.01914e-05 -3.1762e-24)
(0.116547 0.000222542 1.3276e-23)
(0.116533 0.000121375 -1.01605e-23)
(0.116526 -8.1638e-05 0)
(0.116231 -0.000468144 -1.06069e-23)
(0.116463 -0.000408565 -3.05694e-23)
(0.116351 -0.000437552 2.46448e-23)
(0.115967 -0.00053683 0)
(0.116103 -0.000501077 0)
(0.115667 -0.000610544 -3.29554e-29)
(0.115822 -0.00057199 0)
(0.115326 -0.000693446 0)
(0.115502 -0.00065085 0)
(0.114937 -0.000786524 -6.5486e-26)
(0.115138 -0.000738622 0)
(0.114495 -0.000891079 0)
(0.114723 -0.000837321 0)
(0.113992 -0.00100794 0)
(0.114251 -0.000947939 0)
(0.113423 -0.00113769 7.16563e-26)
(0.113716 -0.0010712 0)
(0.112782 -0.00128013 7.36969e-26)
(0.113112 -0.00120737 0)
(0.112062 -0.00143582 0)
(0.112432 -0.00135629 0)
(0.111256 -0.00160384 0)
(0.11167 -0.00151825 0)
(0.110359 -0.0017844 0)
(0.110818 -0.00169286 0)
(0.109364 -0.00197493 0)
(0.109874 -0.00187828 0)
(0.108269 -0.0021748 -8.44341e-26)
(0.108829 -0.00207388 0)
(0.107068 -0.00238161 0)
(0.107682 -0.00227749 0)
(0.105759 -0.00259325 0)
(0.106427 -0.00248696 0)
(0.104339 -0.00280758 -1.57045e-28)
(0.105063 -0.0027002 0)
(0.102808 -0.00302215 1.86491e-28)
(0.103588 -0.00291501 0)
(0.101166 -0.00324541 9.5752e-26)
(0.102 -0.00312991 0)
(0.0994062 -0.00350039 -5.04827e-23)
(0.100299 -0.0033681 1.23947e-23)
(0.0979604 -0.00275258 1.27104e-23)
(0.0984984 -0.00363768 2.52264e-23)
(0.0984546 0.00123797 -2.25793e-23)
(0.0983394 -0.000796688 -2.42146e-23)
(0.116567 0.000322047 3.37893e-24)
(0.116568 -0.000382713 2.40212e-23)
(0.0977865 0.00228906 2.80213e-24)
(0.0975682 -0.00184056 0)
(0.0971874 0.00326864 3.11775e-22)
(0.0975697 -0.00377252 3.88483e-23)
(0.0969938 -0.00286906 5.18836e-23)
(0.0980077 0.00458333 -5.17118e-22)
(0.0974279 0.00479384 9.44092e-23)
(0.0983031 0.000206395 0)
(0.0992811 0.00428735 5.18819e-23)
(0.0985577 0.00446392 2.66112e-23)
(0.10093 0.00402234 4.67883e-23)
(0.100081 0.00414408 -7.13748e-23)
(0.102559 0.00377339 -2.32415e-23)
(0.101761 0.00390107 -1.16019e-23)
(0.104079 0.00352188 1.16228e-23)
(0.103333 0.00364707 1.18006e-23)
(0.105499 0.00326907 0)
(0.1048 0.00339494 -2.55606e-26)
(0.106811 0.00301974 0)
(0.106168 0.00314414 0)
(0.108018 0.00277369 4.2676e-26)
(0.107427 0.00289619 0)
(0.109122 0.00253283 0)
(0.108582 0.0026525 0)
(0.110128 0.00229933 0)
(0.109637 0.002415 0)
(0.111039 0.00207578 0)
(0.110595 0.00218622 0)
(0.111859 0.00186365 3.84074e-26)
(0.11146 0.00196826 0)
(0.112594 0.00166431 4.74134e-29)
(0.112237 0.00176232 0)
(0.113251 0.00147823 0)
(0.112932 0.00156952 0)
(0.113835 0.00130691 -7.05766e-26)
(0.113551 0.0013907 0)
(0.114352 0.00115055 0)
(0.114101 0.00122688 0)
(0.114808 0.00100889 0)
(0.114587 0.00107792 0)
(0.11521 0.000881433 0)
(0.115015 0.000943432 0)
(0.115562 0.000767488 0)
(0.115392 0.000822837 0)
(0.115872 0.000665882 0)
(0.115722 0.000715269 0)
(0.116144 0.00057463 -1.87205e-24)
(0.116012 0.000618632 0)
(0.116383 0.000492792 0)
(0.116267 0.000532444 -3.62669e-24)
(0.116594 0.000419822 -8.95153e-29)
(0.116492 0.000455149 0)
(0.116646 0.000204488 -1.34605e-23)
(0.11669 0.000388398 8.12116e-25)
(0.116665 0.000297668 6.58695e-24)
(0.116626 1.60397e-05 4.84039e-24)
(0.116633 0.000110295 -3.34112e-24)
(0.116634 -0.000173154 -1.68212e-24)
(0.116627 -7.87309e-05 1.67912e-24)
(0.116666 -0.000359598 0)
(0.116647 -0.00026659 -1.52874e-23)
(0.116493 -0.000515277 -6.87511e-24)
(0.116691 -0.000452469 -1.31397e-23)
(0.116595 -0.000482226 3.02064e-23)
(0.116267 -0.000590071 -3.61393e-24)
(0.116384 -0.000551466 0)
(0.11601 -0.000674611 0)
(0.116143 -0.000630879 0)
(0.115718 -0.000767733 -4.29846e-29)
(0.115869 -0.000719819 0)
(0.115386 -0.000872595 0)
(0.115558 -0.000818626 0)
(0.115007 -0.000990633 6.5486e-26)
(0.115203 -0.000929893 0)
(0.114577 -0.0011231 0)
(0.114799 -0.00105501 0)
(0.114088 -0.00127089 0)
(0.11434 -0.00119505 0)
(0.113536 -0.00143462 0)
(0.11382 -0.00135076 0)
(0.112914 -0.0016144 -8.1827e-29)
(0.113234 -0.00152253 0)
(0.112215 -0.00181043 0)
(0.112574 -0.00171042 0)
(0.111434 -0.00202201 0)
(0.111835 -0.00191428 0)
(0.110565 -0.00224844 0)
(0.11101 -0.00213358 0)
(0.109603 -0.00248776 0)
(0.110096 -0.00236653 0)
(0.108545 -0.00273829 8.44341e-26)
(0.109086 -0.0026118 0)
(0.107385 -0.00299748 0)
(0.107978 -0.00286699 0)
(0.106123 -0.0032627 0)
(0.106767 -0.00312952 0)
(0.104755 -0.00353117 -9.0747e-26)
(0.105452 -0.00339671 0)
(0.103283 -0.00379978 9.27467e-26)
(0.104032 -0.00366567 0)
(0.101706 -0.0040673 -9.46701e-26)
(0.102507 -0.00393363 0)
(0.100033 -0.00434203 1.24557e-23)
(0.10088 -0.00420037 -2.45704e-23)
(0.0982837 -0.00463887 -1.25532e-23)
(0.0991645 -0.00448732 2.55426e-23)
(0.0966151 -0.00390196 3.87578e-25)
(0.0973777 -0.00478611 2.57887e-23)
(0.0974461 0.00122826 -2.32101e-23)
(0.0973424 -0.000853373 0)
(0.096759 0.00226528 -2.23992e-22)
(0.0965642 -0.00191936 0)
(0.116629 0.000517962 -3.37468e-24)
(0.116721 0.000479042 2.47231e-24)
(0.116757 -0.000337974 -1.28928e-23)
(0.116781 -0.000423185 -1.46072e-23)
(0.0960815 0.00318858 -2.19289e-22)
(0.0960019 -0.00298103 -5.23912e-23)
(0.0965184 0.00473481 0)
(0.0988089 0.00543309 -5.99842e-23)
(0.0956449 -0.00402933 -2.5698e-23)
(0.0964498 -0.00492661 3.90303e-23)
(0.0979978 0.00548138 1.20361e-22)
(0.0973007 0.00017729 0)
(0.100175 0.00513518 0)
(0.099475 0.00529559 -5.33718e-23)
(0.101704 0.00483928 0)
(0.100929 0.00498819 0)
(0.103223 0.00453794 0)
(0.102472 0.00468805 1.20197e-23)
(0.104651 0.00423673 0)
(0.103947 0.00438763 0)
(0.105991 0.00393406 0)
(0.105332 0.00408516 0)
(0.107238 0.00363396 0)
(0.106627 0.00378369 0)
(0.108388 0.00333786 -4.2676e-26)
(0.107825 0.00348527 0)
(0.109443 0.00304823 0)
(0.108927 0.0031921 0)
(0.110405 0.00276767 0)
(0.109936 0.00290666 0)
(0.111278 0.00249887 0)
(0.110853 0.00263167 0)
(0.112065 0.00224398 -6.30753e-29)
(0.111682 0.00236962 0)
(0.112771 0.00200459 5.65899e-29)
(0.112428 0.00212226 0)
(0.113402 0.00178167 0)
(0.113096 0.00189102 0)
(0.113964 0.00157626 4.65597e-29)
(0.113691 0.00167675 0)
(0.114462 0.00138873 0)
(0.114221 0.00148028 0)
(0.114902 0.00121885 0)
(0.114689 0.00130162 0)
(0.11529 0.00106608 0)
(0.115103 0.00114039 0)
(0.115631 0.000929556 0)
(0.115466 0.00099586 0)
(0.11593 0.000808109 0)
(0.115786 0.000867053 0)
(0.116193 0.000700222 0)
(0.116066 0.000752577 0)
(0.116425 0.000603414 3.59395e-24)
(0.116313 0.000649835 3.68176e-24)
(0.11653 0.000558871 -6.88852e-24)
(0.116738 0.000187937 -6.59678e-24)
(0.11678 0.000359907 0)
(0.116756 0.000274401 -6.66383e-24)
(0.116719 1.23689e-05 0)
(0.116725 0.00010071 6.73245e-24)
(0.116726 -0.000164388 1.00499e-23)
(0.116719 -7.62797e-05 -3.39678e-24)
(0.116739 -0.000251246 -1.97566e-23)
(0.116531 -0.000619969 3.46423e-24)
(0.116723 -0.000541114 1.28587e-23)
(0.116629 -0.000580853 0)
(0.116312 -0.000708617 -7.18891e-24)
(0.116425 -0.000663046 7.21267e-24)
(0.116064 -0.000808569 0)
(0.116192 -0.000757457 0)
(0.115781 -0.000920344 -5.27253e-29)
(0.115927 -0.000862772 0)
(0.11546 -0.0010465 0)
(0.115626 -0.000981543 0)
(0.115094 -0.00118859 0)
(0.115283 -0.00111548 0)
(0.114678 -0.0013479 0)
(0.114892 -0.00126604 0)
(0.114206 -0.00152543 0)
(0.114449 -0.00143436 0)
(0.113674 -0.00172185 7.1437e-26)
(0.113948 -0.00162127 0)
(0.113074 -0.00193741 -7.36151e-26)
(0.113383 -0.00182725 0)
(0.112402 -0.00217211 0)
(0.112748 -0.00205242 0)
(0.111652 -0.00242522 0)
(0.112037 -0.00229642 0)
(0.110818 -0.0026956 0)
(0.111246 -0.00255842 0)
(0.109897 -0.00298128 0)
(0.110369 -0.00283666 0)
(0.108883 -0.00327999 0)
(0.109401 -0.00312921 0)
(0.107775 -0.00358881 0)
(0.108341 -0.00343336 0)
(0.106569 -0.00390453 -8.8298e-26)
(0.107184 -0.00374604 0)
(0.105266 -0.00422375 9.03177e-26)
(0.10593 -0.00406394 0)
(0.103866 -0.00454285 -9.22681e-26)
(0.104578 -0.00438357 0)
(0.102371 -0.00485864 0)
(0.10313 -0.00470135 0)
(0.100785 -0.00516823 0)
(0.101588 -0.00501417 0)
(0.0991258 -0.0054725 9.87419e-26)
(0.0999666 -0.00531986 1.25447e-23)
(0.097395 -0.00578187 -6.53537e-23)
(0.0982652 -0.00562591 0)
(0.0955133 -0.00507457 -3.8762e-23)
(0.0965082 -0.00593716 -3.4953e-25)
(0.0964231 0.00121129 7.25537e-23)
(0.0963215 -0.000902531 0)
(0.116809 0.000443104 -1.28297e-23)
(0.11681 -0.000507109 -2.47844e-23)
(0.0956418 0.00221059 -3.845e-23)
(0.095671 0.00413873 6.39346e-25)
(0.0950117 0.00312938 1.09995e-22)
(0.0955493 -0.00198515 0)
(0.0949885 -0.00306858 1.31221e-23)
(0.0968873 0.00548246 -1.11049e-22)
(0.0958825 0.00539875 9.58782e-23)
(0.0949408 0.00433471 -9.44598e-23)
(0.0946529 -0.0041412 -3.93553e-23)
(0.0945536 -0.00520704 2.624e-23)
(0.095614 -0.00610136 2.57157e-23)
(0.0962723 0.000146921 0)
(0.0996822 0.00619934 3.34451e-24)
(0.0978694 0.00638637 -1.49852e-26)
(0.0988133 0.006284 2.60051e-23)
(0.101113 0.00591197 2.57477e-23)
(0.100412 0.00606496 -2.58814e-23)
(0.102553 0.00558484 4.73844e-26)
(0.101825 0.00575067 0)
(0.103964 0.00524898 0)
(0.103267 0.00541745 0)
(0.105302 0.00490709 0)
(0.104642 0.00507881 0)
(0.10656 0.00456118 0)
(0.105941 0.00473431 0)
(0.107733 0.00421554 4.35037e-26)
(0.107157 0.00438815 0)
(0.108819 0.00387351 0)
(0.108287 0.00404387 0)
(0.109817 0.00353853 0)
(0.109329 0.00370494 0)
(0.110728 0.00321388 0)
(0.110283 0.00337473 0)
(0.111557 0.00290267 0)
(0.111153 0.00305644 0)
(0.112305 0.00260747 -3.83443e-26)
(0.11194 0.00275296 0)
(0.112977 0.00233025 6.5896e-29)
(0.11265 0.00246653 0)
(0.113579 0.0020723 0)
(0.113287 0.00219881 0)
(0.114116 0.00183457 7.03907e-26)
(0.113855 0.00195088 0)
(0.114592 0.00161745 0)
(0.114361 0.00172345 0)
(0.115013 0.00142074 0)
(0.114809 0.00151659 0)
(0.115385 0.00124382 0)
(0.115205 0.00132987 0)
(0.115712 0.00108573 0)
(0.115554 0.00116251 0)
(0.115999 0.000945208 0)
(0.11586 0.00101338 0)
(0.116252 0.000820681 5.86358e-26)
(0.11613 0.000881059 0)
(0.116474 0.000709857 -3.60965e-24)
(0.116367 0.00076385 0)
(0.11667 0.000610511 3.42878e-24)
(0.116575 0.000658646 0)
(0.116843 0.000523272 3.26455e-24)
(0.116759 0.000565674 -3.34174e-24)
(0.116862 0.000332673 6.45154e-24)
(0.116922 0.0004842 0)
(0.11689 0.000410436 9.60483e-24)
(0.116822 0.000173176 0)
(0.11684 0.000253339 0)
(0.116804 8.96697e-06 0)
(0.11681 9.14948e-05 0)
(0.116811 -0.000156186 0)
(0.116805 -7.38491e-05 0)
(0.116841 -0.00031822 1.31399e-23)
(0.116823 -0.000237726 3.26366e-24)
(0.11689 -0.000475579 3.2281e-24)
(0.116863 -0.000397517 2.57377e-23)
(0.116761 -0.000629829 1.67911e-23)
(0.116923 -0.000552029 3.21145e-24)
(0.116844 -0.000589182 -6.53124e-24)
(0.116576 -0.000720701 3.45281e-24)
(0.116671 -0.000673785 -2.06991e-23)
(0.116366 -0.000823151 -4.59079e-29)
(0.116474 -0.000770264 0)
(0.116127 -0.000937814 0)
(0.11625 -0.000878703 0)
(0.115855 -0.00106755 -6.2383e-29)
(0.115996 -0.00100069 0)
(0.115546 -0.00121414 0)
(0.115706 -0.00113865 0)
(0.115195 -0.00137919 0)
(0.115376 -0.00129428 0)
(0.114796 -0.00156411 0)
(0.115002 -0.00146911 0)
(0.114345 -0.00176996 0)
(0.114577 -0.00166438 0)
(0.113836 -0.00199748 -1.42769e-25)
(0.114098 -0.001881 0)
(0.113263 -0.00224697 0)
(0.113558 -0.0021195 0)
(0.112622 -0.0025183 0)
(0.112952 -0.00237997 0)
(0.111908 -0.00281062 0)
(0.112275 -0.00266193 0)
(0.111115 -0.00312249 0)
(0.111521 -0.00296427 0)
(0.11024 -0.00345174 -8.18192e-26)
(0.110688 -0.00328512 0)
(0.109279 -0.00379561 0)
(0.109771 -0.00362207 0)
(0.108231 -0.00415075 0)
(0.108766 -0.00397202 0)
(0.107092 -0.00451338 8.8298e-26)
(0.107673 -0.0043314 0)
(0.105864 -0.0048794 -2.69914e-28)
(0.106489 -0.00469625 0)
(0.104547 -0.00524454 1.84239e-25)
(0.105216 -0.00506237 0)
(0.103144 -0.00560444 0)
(0.103856 -0.00542544 0)
(0.101661 -0.00595451 0)
(0.102412 -0.00578089 0)
(0.100103 -0.00628872 -3.97469e-28)
(0.100891 -0.00612424 0)
(0.0984783 -0.00660649 0)
(0.0992975 -0.00644949 0)
(0.096811 -0.00692978 -3.87912e-23)
(0.0976487 -0.00676658 0)
(0.0947018 -0.00625217 -3.04379e-25)
(0.0959645 -0.00709685 6.57507e-23)
(0.0953412 0.00117678 0)
(0.0969418 0.00641569 1.50904e-22)
(0.0945491 0.00215287 2.63058e-23)
(0.116883 0.000601926 -3.25841e-24)
(0.116958 0.000558615 0)
(0.116966 -0.000446674 3.14206e-24)
(0.116996 -0.00051658 -6.23123e-24)
(0.0952829 -0.000946813 0)
(0.0945114 -0.00204241 0)
(0.0940645 0.00323484 0)
(0.0939572 -0.00314497 -1.29241e-23)
(0.0936409 -0.00425163 -2.5966e-23)
(0.0935763 -0.00534154 0)
(0.0937723 -0.00639752 6.66295e-23)
(0.0951006 -0.00725327 -5.3035e-23)
(0.0952145 0.000114558 0)
(0.0990636 0.00721359 -1.24876e-26)
(0.0959388 0.00641259 4.73874e-23)
(0.0973266 0.00739214 -1.68859e-22)
(0.098203 0.00731936 4.94229e-23)
(0.100696 0.00693999 -1.61183e-23)
(0.0998887 0.0070657 -2.57835e-23)
(0.102112 0.00663379 0)
(0.101425 0.00679632 0)
(0.103468 0.0062791 -4.73801e-26)
(0.102789 0.0064587 0)
(0.10478 0.0059115 0)
(0.104133 0.00609678 0)
(0.106024 0.00553294 0)
(0.105411 0.00572337 0)
(0.107195 0.00514775 0)
(0.106619 0.00534085 0)
(0.108288 0.00476094 -4.35037e-26)
(0.107751 0.00495428 0)
(0.109303 0.00437703 0)
(0.108805 0.00456836 0)
(0.110237 0.00400039 0)
(0.10978 0.00418756 0)
(0.111093 0.00363501 0)
(0.110675 0.00381607 0)
(0.111871 0.00328447 0)
(0.111491 0.0034577 0)
(0.112576 0.00295177 3.81889e-26)
(0.112233 0.00311575 0)
(0.113211 0.00263921 7.46323e-29)
(0.112902 0.00279287 0)
(0.113779 0.00234839 0)
(0.113503 0.00249102 0)
(0.114287 0.00208031 -6.12088e-29)
(0.114041 0.00221148 0)
(0.114739 0.00183536 0)
(0.11452 0.00195496 0)