/*--------------------------------*- C++ -*----------------------------------*\
  =========                 |
  \\      /  F ield         | OpenFOAM: The Open Source CFD Toolbox
   \\    /   O peration     | Website:  https://openfoam.org
    \\  /    A nd           | Version:  10
     \\/     M anipulation  |
\*---------------------------------------------------------------------------*/
FoamFile
{
    format      ascii;
    class       volScalarField;
    location    "10.5";
    object      p;
}
// * * * * * * * * * * * * * * * * * * * * * * * * * * * * * * * * * * * * * //

dimensions      [0 2 -2 0 0 0 0];

internalField   nonuniform List<scalar> 
8711
(
-0.00228642
-0.00237604
-0.00175129
-0.067663
-0.0740855
-0.0828709
0.0347796
0.0362387
0.705897
0.703166
0.501797
0.262147
0.075643
0.078595
0.023128
0.0336692
-0.111904
-0.119971
-0.13139
0.00129215
0.00121272
-8.49201e-05
0.000164015
-0.0016214
-0.196736
-0.14564
-0.219654
-0.267023
-0.00480275
-0.00435823
-0.0034366
-0.391852
-0.434454
-0.279607
-0.305073
0.165835
0.156643
0.151313
0.158627
0.150819
0.195472
0.169609
-0.316803
-0.314159
0.338188
0.221417
-0.373428
-0.376994
-0.377187
0.00437827
0.00382932
0.00390034
0.00438032
-0.01096
-0.00376952
0.00346031
0.079363
0.0811315
0.0801506
0.0824133
0.0175034
0.0182791
0.0196962
0.0188985
0.0507149
0.0467829
0.0354573
-0.000788492
-0.000796451
-5.01141e-07
0.0239989
0.0237805
0.025785
0.0259047
0.0431045
0.0429556
0.0347323
0.034842
-0.000719726
0.0089683
0.00952432
0.0135892
0.0131198
-0.00125731
-0.00130699
-0.00125048
0.0828166
0.0849706
0.0984706
0.103938
0.00842052
0.00257032
0.0121097
-0.0226238
-0.013757
0.0548028
0.0723305
0.0727284
0.0579191
0.0341801
0.0345971
0.359768
0.353158
0.0735128
0.0682659
0.0636531
0.0593185
0.0553652
0.0515665
0.0482125
0.0451277
0.0423255
0.0397507
0.037449
0.0353156
0.0332657
0.0313114
0.0294948
0.0294467
0.0276967
0.0276098
0.03352
0.0314264
0.0381271
0.0357483
0.0434348
0.0406618
0.049762
0.0464221
0.0571036
0.0532562
0.0650937
0.0609417
0.0738839
0.0694546
0.0771674
0.0657483
0.0706836
0.0567893
0.0611128
0.0492861
0.0528609
0.0433391
0.0461324
0.0385497
0.0409154
0.0346785
0.0365727
0.0310056
0.0327817
0.0276684
0.0293501
0.0259971
0.081779
0.0242315
0.0254783
0.0244759
0.0849176
0.0804653
0.0292126
0.0272772
0.0334513
0.0312861
0.0383156
0.0358238
0.0439032
0.0410203
0.0502161
0.046937
0.0573647
0.0537527
0.0649022
0.0611119
0.0723577
0.0688263
0.0780258
0.0755161
0.0227692
0.0231307
0.0722335
0.0774031
0.0624805
0.0673494
0.0536294
0.0578636
0.0469114
0.0501069
0.0415491
0.0440484
0.0374529
0.0395287
0.033825
0.0355875
0.0305328
0.0321702
0.0274298
0.0289838
0.024451
0.0258139
0.0221555
0.0222913
0.0854641
0.0231277
0.0829938
0.0871016
0.073893
0.0748522
0.0203325
0.0198001
0.0220034
0.0891966
0.0881306
0.0249656
0.0231569
0.0286965
0.0266527
0.0329937
0.0307845
0.0379134
0.0353939
0.0433485
0.0406706
0.0493914
0.0463072
0.0559937
0.0526181
0.0625651
0.0593661
0.06907
0.0660968
0.0735016
0.0719006
0.0739034
0.024002
0.0227162
0.0791368
0.0929426
0.0904761
0.0848048
0.0681363
0.0734444
0.0587407
0.0637661
0.0505933
0.0543658
0.044478
0.0473748
0.0399848
0.0422212
0.0363178
0.0380951
0.032861
0.0345992
0.029888
0.031362
0.0269225
0.0284165
0.0254207
0.0214064
0.0207954
0.0218681
0.0218314
0.0888028
0.0833274
0.0772093
0.0748419
0.0721598
0.0210242
0.0215633
0.0929395
0.0883505
0.0857739
0.095361
0.0907665
0.0974328
0.0816589
0.0657515
0.0733909
0.0582127
0.05066
0.0435067
0.0241417
0.0226223
0.0278265
0.0258299
0.0320115
0.0298557
0.0367167
0.0343096
0.0418742
0.0392278
0.0472749
0.0445666
0.0531865
0.0502482
0.0588291
0.0560309
0.0642016
0.0615881
0.0673784
0.066405
0.067241
0.0678486
0.0638412
0.0660207
0.0582949
0.0743362
0.0799006
0.0641184
0.0689842
0.0549686
0.0592521
0.0477238
0.0512943
0.0424929
0.044902
0.0384888
0.0405104
0.0350188
0.0366969
0.0318584
0.0334026
0.0290016
0.0304247
0.0261624
0.0275638
0.0233477
0.0246948
0.0209867
0.022107
0.0190304
0.0182754
0.0201184
0.0195787
0.0206555
0.0205011
0.0199494
0.020455
0.0913345
0.100381
0.0956549
0.0201778
0.0191994
0.0961822
0.0877521
0.040873
0.0303704
0.101629
0.0796441
0.0659529
0.047212
0.0201831
0.0190423
0.0233322
0.0217471
0.0267724
0.0249476
0.0306863
0.0286628
0.0350401
0.032818
0.0397125
0.0373398
0.0445597
0.0421254
0.0495504
0.0470641
0.0542622
0.051953
0.0583217
0.056404
0.0607149
0.0597938
0.0597943
0.0608841
0.054094
0.0575662
0.0492795
0.0872613
0.0999402
0.0908214
0.0887298
0.0789662
0.0836858
0.0691992
0.074095
0.0597265
0.0644398
0.0516723
0.0554936
0.0453562
0.0483514
0.0407377
0.0428942
0.0369705
0.0388142
0.0336805
0.0352759
0.0307111
0.0321698
0.0279078
0.0293038
0.0252043
0.0265214
0.0224997
0.0238102
0.021267
0.0168371
0.0179692
0.0174581
0.0189099
0.0184268
0.0194441
0.0192704
0.0189394
0.019329
0.0182527
0.0925706
0.0167605
0.0162143
0.094202
0.0175243
0.0988401
0.0863927
0.104796
0.074561
0.0165001
0.107103
0.0562712
0.104542
0.0354509
0.0159141
0.0173326
0.0195462
0.018324
0.0223723
0.0209188
0.0255924
0.0239357
0.0291402
0.0273052
0.0330494
0.0310629
0.037159
0.0350866
0.0413917
0.0392686
0.0455742
0.0435042
0.0494072
0.0475536
0.052352
0.0510241
0.0537527
0.053253
0.0520461
0.0535351
0.045471
0.0497446
0.032476
0.0401582
0.0133238
0.0242756
0.0842223
0.0888465
0.0785095
0.0807279
0.0724067
0.0758019
0.0637005
0.0680779
0.0555486
0.0599686
0.0486314
0.0519042
0.0431774
0.0457555
0.0389422
0.0409516
0.0354069
0.03712
0.0322857
0.0338075
0.0294296
0.0308384
0.0267159
0.0280589
0.0240775
0.0253913
0.0215649
0.0228437
0.0192824
0.0203965
0.0182968
0.00910246
-0.00133979
0.0160554
0.0147355
0.0154538
0.0168866
0.0164712
0.0177675
0.0173332
0.0182829
0.0180813
0.0179014
0.0181983
0.0173175
0.0931856
0.100599
0.0835988
0.015726
0.0164775
0.0149907
0.107122
0.0678101
0.108845
0.0465364
0.0984361
0.0229672
0.0844357
-0.0171091
-0.00749767
0.0144336
0.0139635
-0.0837789
0.0166556
0.0155724
0.0188066
0.017705
0.021361
0.0200722
0.0242915
0.022817
0.0274679
0.025832
0.0309001
0.0291624
0.0344585
0.032668
0.0380583
0.0362609
0.0415073
0.0398144
0.0445176
0.0430864
0.046544
0.0456835
0.0469476
0.0469674
0.0446186
0.0461989
0.0377187
0.0418494
0.0253185
0.0319802
0.00569797
0.0170929
-0.0232553
-0.00839677
-0.0345213
-0.0596549
-0.0402526
0.0733505
0.0694223
0.0736544
0.0681654
0.0702542
0.0644621
0.0664647
0.0581577
0.0617708
0.0514509
0.0548225
0.0456696
0.0484245
0.0409471
0.0432017
0.0370678
0.0389273
0.0337647
0.0353668
0.030804
0.0322546
0.0280602
0.0294135
0.0254625
0.0267456
0.0229819
0.0242038
0.0206345
0.0217923
0.0184407
0.0195212
0.0174213
0.015067
0.0145541
0.0158508
0.0154763
0.0166774
0.0162659
0.0171701
0.0169935
0.0168437
0.0171193
0.0163742
0.0925664
0.0139557
0.0156189
0.0144427
0.10103
0.0793306
0.10775
0.0590517
0.107787
0.0345735
0.0992985
0.0620736
0.0782774
0.00420543
-0.0271161
-0.0547072
-0.083513
-0.061569
-0.079676
-0.10084
0.0159202
0.0149391
0.0179573
0.0169035
0.0203017
0.0190314
0.0229158
0.0215848
0.0257233
0.0242931
0.0286887
0.0271881
0.0317371
0.0302089
0.0347445
0.0332533
0.0375249
0.0361741
0.0397904
0.0387395
0.0410459
0.0405689
0.0406486
0.0410807
0.0376602
0.0395212
0.030646
0.0346938
0.0185785
0.0252689
-6.75742e-05
0.0106221
-0.0275067
-0.0130983
-0.0430437
0.054233
0.0519512
0.0368285
0.0466517
0.0611332
0.0593056
0.0584997
0.0601937
0.0568082
0.0580825
0.0525988
0.0552043
0.04734
0.0499296
0.0426287
0.0449088
0.0385671
0.0405294
0.035074
0.0367622
0.0320221
0.033509
0.0292414
0.0306082
0.0266441
0.0279246
0.0241946
0.0254029
0.0218731
0.0230163
0.0196872
0.0207504
0.0176101
0.0185748
0.0165616
0.0133164
0.0124289
0.0129058
0.0141738
0.0137849
0.0148966
0.0145354
0.0156478
0.0152695
0.0161104
0.0159445
0.0158123
0.016064
0.0148545
0.0154017
0.0134917
0.0141253
0.0907892
0.100211
0.072937
0.107168
0.048545
0.012769
0.0129798
0.0122345
0.105937
0.0918177
0.0678507
0.0235996
0.0379672
0.018519
-0.0159749
-0.0482086
-0.0786199
-0.102767
0.0119347
-0.0958137
-0.117833
-0.11058
0.0117934
0.0113516
0.0133492
0.0126005
0.0151402
0.0142295
0.0170437
0.0160807
0.0191955
0.0180914
0.0214963
0.0203296
0.0239341
0.0227087
0.0264842
0.0252009
0.0290587
0.0277744
0.0315273
0.0303138
0.0337026
0.0326615
0.0353015
0.0345897
0.0358816
0.0357388
0.0348414
0.0355905
0.031331
0.0334292
0.0242659
0.02826
0.0129097
0.0191022
-0.00478502
0.00505881
-0.0297955
-0.016604
-0.0591691
-0.0442094
-0.0903826
-0.0747984
0.0236021
0.00596847
-0.00553365
0.0106899
0.0409032
0.033543
0.0493853
0.0462378
0.0501376
0.050276
0.0496844
0.0502789
0.0469682
0.0485749
0.0431572
0.0450828
0.0394323
0.0412664
0.0360179
0.0376871
0.0329501
0.0344459
0.0301835
0.0315391
0.0276181
0.0288824
0.0252032
0.0263945
0.0229241
0.0240481
0.0207639
0.021829
0.0187192
0.0197061
0.0167007
0.0176519
0.0147288
0.0156962
0.0138201
0.0126708
0.0122609
0.0134017
0.0130718
0.0140301
0.0137058
0.0146864
0.0143567
0.0150951
0.0149487
0.0148355
0.0150598
0.0139854
0.0144542
0.0133828
0.0873365
-0.104473
-0.122548
-0.117472
0.0978713
0.0647524
0.0121274
0.0115859
0.104348
0.100228
0.0822128
0.0533264
0.0192943
-0.0252166
-0.0155442
-0.000573331
-0.0376714
-0.0715185
-0.101743
-0.122584
-0.13244
0.0111452
0.0106656
0.0113429
0.0117284
0.0124503
0.010896
0.0350483
0.0127002
0.0120145
0.014313
0.0134983
0.0161303
0.0152129
0.0180415
0.0170682
0.0200591
0.0190427
0.0221587
0.0210933
0.0243226
0.0232379
0.0264605
0.0254005
0.02844
0.0274774
0.030073
0.0293091
0.0310847
0.0306702
0.0310759
0.0312244
0.0295063
0.0305088
0.0256214
0.0278805
0.0185886
0.0225041
0.00774581
0.0136623
-0.00846983
0.00031562
-0.0307867
-0.0189459
-0.0564766
-0.0436624
-0.0837052
-0.0699287
-0.131817
-0.113261
-0.0975475
-0.01549
-0.0486
-0.0542273
-0.0333626
0.0123337
-0.000294159
0.0296004
0.0220296
0.038836
0.0351553
0.0422176
0.0409944
0.0428071
0.0427628
0.041483
0.0423351
0.0389523
0.040292
0.0361242
0.0375449
0.0333451
0.0347213
0.030724
0.0320147
0.0282735
0.0294819
0.0259545
0.0271012
0.0237478
0.0248387
0.0216532
0.0226882
0.0196582
0.0206451
0.0177055
0.0186796
0.0158391
0.0167538
0.0140173
0.0148926
0.0132087
0.0119992
0.0116062
0.0127061
0.0123857
0.0132369
0.012972
0.0137911
0.0135126
0.0141371
0.0140145
0.0138988
0.0141003
0.0131884
0.0135889
0.0126815
0.0823112
0.0110476
0.0933608
0.0979281
0.0897603
0.066315
0.0334513
-0.00429
-0.0208103
-0.0595393
-0.0944987
-0.122909
-0.0412926
-0.0778711
-0.07563
-0.139525
-0.146933
-0.12828
0.0101932
0.054106
-0.143725
0.0194286
0.00977837
0.0107861
0.0102756
0.0120436
0.011373
0.0134979
0.0127536
0.0151534
0.0143152
0.0168669
0.0160073
0.0186222
0.0177413
0.0204147
0.0195132
0.0222224
0.0213204
0.0239617
0.0231061
0.0254988
0.0247624
0.0266489
0.0261308
0.02715
0.0269924
0.0266393
0.0270352
0.0246359
0.0258425
0.0204937
0.0228518
0.013551
0.017375
0.00320114
0.0088207
-0.0114839
-0.00361343
-0.0310936
-0.0207502
-0.0533516
-0.0423021
-0.0772498
-0.065036
-0.104193
-0.0907455
-0.140867
-0.127254
-0.116511
-0.0581157
-0.103572
-0.100378
-0.0784327
-0.0230345
-0.0395794
0.00262862
-0.00900327
0.0198063
0.0126669
0.0295633
0.0258256
0.0347944
0.0328573
0.0364122
0.0358395
0.036244
0.0365074
0.03479
0.0356209
0.0327746
0.0338158
0.0306037
0.0316959
0.0284328
0.0295142
0.0263178
0.0273685
0.0242659
0.0252849
0.0222844
0.0232667
0.0203843
0.0213255
0.0185529
0.0194622
0.0167639
0.0176479
0.0149829
0.0158738
0.0133725
0.0141812
0.0118623
0.0125934
0.0105469
0.0112316
0.0105467
0.0100616
0.0113607
0.0109787
0.0120141
0.0117345
0.0124904
0.0122608
0.0129546
0.0127235
0.0132398
0.0131405
0.0130527
0.013211
0.0124273
0.0127823
0.0115166
0.011997
0.0105211
0.0110255
0.0100656
0.0749624
0.0855518
0.0874571
0.0735295
0.0455266
0.00801554
-0.0409307
-0.081376
-0.116388
-0.0326062
-0.0712992
-0.105101
-0.141662
-0.155395
-0.159701
-0.12322
-0.130289
-0.156372
-0.136829
-0.150869
0.00895205
0.00853907
0.00904905
0.00937699
0.0417355
0.00936109
0.00142689
0.0101276
0.00968825
0.0113363
0.0107593
0.0126876
0.0119925
0.0141596
0.0134151
0.0156799
0.0149164
0.0171999
0.0164415
0.0187106
0.0179561
0.0201927
0.019458
0.0215689
0.0208992
0.0227071
0.0221741
0.0234281
0.0231275
0.0234867
0.0235503
0.0225534
0.0231559
0.0202014
0.0215694
0.0158889
0.0183035
0.00907538
0.0127975
-0.000767414
0.00453973
-0.0142327
-0.00705705
-0.0315593
-0.0224933
-0.0509443
-0.0412315
-0.0719475
-0.0612266
-0.0955843
-0.0838618
-0.116012
-0.106484
-0.14434
-0.131645
-0.124344
-0.0965087
-0.146025
-0.134867
-0.115825
-0.0598074
-0.0777022
-0.0283867
-0.0433485
-0.00458569
-0.0156206
0.0118391
0.00445239
0.0220535
0.017605
0.0279216
0.0254409
0.0305318
0.0294894
0.0312905
0.0310888
0.0307307
0.031128
0.0294442
0.030141
0.0278422
0.0286662
0.0261114
0.0269857
0.024339
0.0252275
0.022565
0.0234508
0.0208184
0.0216874
0.019119
0.0199634
0.017459
0.0182853
0.0158215
0.0166355
0.0142177
0.0150009
0.0127101
0.0134331
0.0113199
0.0119649
0.0101862
0.0106566
0.00978044
0.00997176
0.009476
0.0107637
0.010406
0.0113548
0.0110972
0.0117802
0.0115762
0.0121713
0.0119801
0.0124036
0.012324
0.0122508
0.0123807
0.0117105
0.0120142
0.0109313
0.0113411
0.0101042
0.0105144
0.00971522
0.065062
0.074211
0.0712992
0.0517842
0.0180032
-0.0617434
-0.102477
-0.0235572
-0.0662789
-0.105736
-0.135527
-0.15795
-0.169095
-0.137328
-0.171025
-0.158369
-0.165605
-0.152838
-0.168414
-0.158657
-0.137931
-0.151096
0.00839056
0.00812838
0.00855521
0.0088807
0.0268791
0.00814881
0.00855557
0.00891285
-0.0168048
0.00952468
0.00902782
0.010623
0.0101047
0.0118609
0.0112315
0.0131709
0.0125129
0.0145009
0.0138377
0.0157995
0.0151554
0.0170517
0.0164311
0.0182369
0.0176548
0.0192824
0.0187817
0.0200613
0.019711
0.0204018
0.0202932
0.0200768
0.020331
0.0187898
0.0195635
0.0161648
0.0176558
0.0117516
0.0141903
0.00510772
0.00871006
-0.00419438
0.00078854
-0.0165778
-0.0100118
-0.0320242
-0.0240016
-0.0491769
-0.040492
-0.0676273
-0.058308
-0.0880675
-0.0778599
-0.106219
-0.0978175
-0.120411
-0.113759
-0.143432
-0.131089
-0.126076
-0.1241
-0.169967
-0.152711
-0.138937
-0.0918489
-0.108217
-0.0597145
-0.0757348
-0.0319429
-0.0451665
-0.0103268
-0.0203473
0.00509988
-0.00198711
0.0154217
0.0107899
0.0217511
0.0189742
0.0251468
0.0237164
0.0266461
0.026074
0.026824
0.0268575
0.0261801
0.0265697
0.0251005
0.0256759
0.0237901
0.0244646
0.022357
0.0230837
0.0208637
0.0216146
0.0193558
0.0201097
0.0178604
0.0186065
0.0163763
0.0171176
0.0148934
0.015634
0.0134348
0.0141561
0.0120461
0.0127052
0.0107603
0.0113711
0.00976001
0.0101502
0.00932893
0.00943798
0.0089878
0.0101955
0.00984978
0.0107264
0.0104946
0.0111063
0.0109257
0.0114371
0.0112782
0.0116201
0.0115601
0.0114857
0.0115969
0.0110286
0.011289
0.0103645
0.0107149
0.00966752
0.0100259
0.00928851
0.0523381
0.00775383
0.0584574
0.0497151
0.0230378
-0.0820977
-0.0161344
-0.0614047
-0.105805
-0.121871
-0.15224
-0.171693
-0.144321
-0.180656
-0.171535
-0.179761
-0.18646
-0.1735
-0.190254
-0.16512
-0.164887
-0.185363
-0.156647
-0.135896
-0.148241
0.00786255
0.00832185
0.00989258
0.0078949
0.00841902
-0.0365299
0.00806678
0.00731882
0.0076824
0.00891048
0.00847701
0.00992165
0.00942966
0.0110333
0.0104808
0.0121884
0.0116118
0.013336
0.0127675
0.0144267
0.0138896
0.015441
0.0149432
0.0163549
0.0159122
0.0170995
0.0167524
0.0175547
0.0173685
0.0175584
0.017619
0.0169019
0.0173197
0.0153199
0.0162346
0.0124851
0.0140674
0.00802346
0.0104628
0.00157502
0.00504704
-0.00718953
-0.00252194
-0.018567
-0.0125672
-0.0323997
-0.0252489
-0.0477562
-0.0399383
-0.0642791
-0.0559124
-0.0814521
-0.0729997
-0.0980046
-0.0902526
-0.110721
-0.104799
-0.120207
-0.115662
-0.140185
-0.12979
-0.125095
-0.131962
-0.13802
-0.174452
-0.154449
-0.147363
-0.113928
-0.126651
-0.086614
-0.100922
-0.0587683
-0.072686
-0.0344896
-0.0461093
-0.0150233
-0.0241905
-0.000535686
-0.00724817
0.00963718
0.00500378
0.0162622
0.0132988
0.0202235
0.0184989
0.0223153
0.0214451
0.0231006
0.0228313
0.023015
0.0231345
0.0224085
0.0227569
0.0214927
0.021978
0.0203881
0.0209572
0.0191722
0.0197894
0.0179024
0.0185413
0.0166113
0.0172587
0.015304
0.0159598
0.0139784
0.0146426
0.0126589
0.0133158
0.0113739
0.0119984
0.0102303
0.0107804
0.00927823
0.00969779
0.00880935
0.00740786
0.00819402
0.00780508
0.00895642
0.00856603
0.00964792
0.00932671
0.0101302
0.00991985
0.010468
0.0103091
0.0107461
0.0106155
0.0108848
0.0108437
0.0107621
0.0108585
0.0103738
0.010596
0.0098083
0.0101073
0.00916926
0.00949614
0.00878193
0.0363305
0.00698674
0.00746931
0.0375055
0.0209033
-0.0576768
-0.0127501
-0.0575759
-0.105948
-0.10208
-0.139468
-0.166691
-0.150972
-0.183195
-0.185714
-0.189482
-0.206709
-0.187173
-0.213743
-0.179722
-0.210232
-0.170909
-0.198169
-0.161954
-0.159885
-0.181808
-0.152356
-0.142332
-0.12675
-0.118532
-0.119271
0.0065732
0.00689627
-0.00973406
-0.138468
-0.14215
0.00758945
0.0072283
0.00836672
0.00796423
0.00924603
0.00879758
0.0102161
0.0097264
0.0112184
0.010719
0.0121907
0.0117118
0.0130857
0.0126488
0.0138797
0.0134952
0.0145452
0.0142299
0.015016
0.0148084
0.0151796
0.0151407
0.0148852
0.0150948
0.0139426
0.0145008
0.012116
0.0131461
0.00912279
0.010771
0.00465291
0.00707517
-0.00158407
0.0017527
-0.00983754
-0.00546524
-0.0202954
-0.014811
-0.0327392
-0.0263257
-0.0465337
-0.0395041
-0.0613166
-0.053836
-0.07633
-0.06889
-0.0903788
-0.0837363
-0.102342
-0.0967572
-0.111038
-0.107162
-0.117003
-0.114626
-0.117923
-0.124873
-0.132546
-0.104728
-0.115633
-0.0814884
-0.0936844
-0.0575247
-0.0693304
-0.0363762
-0.0465812
-0.0188112
-0.0271512
-0.0052499
-0.0115823
0.00462789
7.91639e-05
0.0113943
0.00832515
0.0157385
0.013805
0.0182965
0.0171882
0.0195785
0.0190596
0.0199711
0.0198565
0.0197877
0.0199313
0.0192369
0.0195461
0.0184454
0.0188634
0.0174994
0.0179861
0.0164632
0.0169891
0.0153741
0.0159239
0.0142424
0.0148132
0.0130731
0.0136616
0.0118899
0.0124825
0.010728
0.0113032
0.00969753
0.0102168
0.00877094
0.00925325
0.00788296
0.00830805
0.0071471
0.00751182
0.00627025
0.00707086
0.00667056
0.00782626
0.00746097
0.0085082
0.00816357
0.00912466
0.00883577
0.00956129
0.0093694
0.00986237
0.00972264
0.010095
0.0099881
0.0101946
0.0101693
0.0100794
0.0101648
0.00974777
0.00993742
0.00925213
0.00951757
0.0086451
0.00895976
0.00781603
0.00826738
0.00710638
0.00744336
0.00679305
0.0162267
-0.164042
-0.1451
0.0100443
-0.0323945
-0.0152912
-0.0565972
-0.10651
-0.122053
-0.155364
-0.157087
-0.17919
-0.200087
-0.192339
-0.2288
-0.196382
-0.241299
-0.193348
-0.239496
-0.185772
-0.226984
-0.176666
-0.208195
-0.166597
-0.187592
-0.142028
-0.155424
0.00585482
0.00598263
0.00557838
0.00611239
-0.168108
-0.127757
-0.115768
-0.147662
0.00646128
0.00615287
0.00711321
0.00678271
0.00780898
0.00744673
0.00857991
0.0081854
0.00941501
0.00899295
0.0102653
0.00984273
0.011069
0.0106759
0.011779
0.0114365
0.0123683
0.0120887
0.0128055
0.012607
0.0130268
0.0129461
0.012928
0.0130213
0.0123703
0.0127108
0.011182
0.0118597
0.00915468
0.0102779
0.0060465
0.00773951
0.00160137
0.00399185
-0.00441212
-0.0012134
-0.0121806
-0.00808508
-0.0218044
-0.0167827
-0.0330521
-0.027269
-0.0454595
-0.0391427
-0.0586509
-0.0519932
-0.0719158
-0.0653305
-0.0839818
-0.0782815
-0.0945849
-0.0897765
-0.102997
-0.099445
-0.106186
-0.105307
-0.10774
-0.10681
-0.10975
-0.12846
-0.122459
-0.126285
-0.124703
-0.127757
-0.113279
-0.119814
-0.0965693
-0.10573
-0.0765441
-0.0868112
-0.0561528
-0.0662205
-0.0375895
-0.0466057
-0.0217548
-0.0293205
-0.00915588
-0.0150821
0.000319336
-0.00408327
0.00708679
0.00398243
0.011669
0.00959672
0.0145809
0.0132878
0.0162638
0.0155415
0.0170612
0.0167462
0.0172525
0.0172131
0.017036
0.0171826
0.0165391
0.016814
0.0158523
0.0162133
0.0150431
0.015459
0.0141515
0.0146056
0.0131931
0.0136796
0.0121787
0.0126915
0.0111342
0.0116584
0.0101133
0.0106164
0.00916914
0.00963332
0.00830343
0.00872022
0.00748148
0.007854
0.00677186
0.00712578
0.00644122
0.00673674
0.00636106
0.00744672
0.00710216
0.00807527
0.00776543
0.00862343
0.00836683
0.00901582
0.00884142
0.00928464
0.00916129
0.00947832
0.0093919
0.00954637
0.00953393
0.00943594
0.00951343
0.00914772
0.00931228
0.00870273
0.00894369
0.00812293
0.00842792
0.00738344
0.00777661
0.00675308
0.00706406
0.00643756
-0.00883032
-0.0243271
-0.059488
0.00547032
-0.147302
-0.0800961
-0.108177
-0.141652
-0.162555
-0.169539
-0.213619
-0.188975
-0.251952
-0.199508
-0.271956
-0.202214
-0.127976
-0.273834
-0.199049
-0.144237
-0.261313
-0.191623
-0.168178
-0.114793
-0.129406
-0.240224
-0.182139
-0.191214
-0.143041
-0.215647
-0.170565
-0.113663
0.00576447
-0.0990178
-0.101019
0.005468
0.00576575
-0.0585722
-0.111586
-0.104224
0.00513646
0.00568983
0.00530835
0.00602289
0.00573747
0.0066305
0.00634399
0.00724993
0.00693212
0.00792188
0.00758053
0.00862977
0.00827376
0.00933234
0.00898517
0.00997365
0.00966316
0.0105083
0.0102551
0.0109063
0.0107244
0.0111329
0.011042
0.0111265
0.0111612
0.0107909
0.011003
0.0100006
0.0104561
0.00860143
0.00938074
0.00641089
0.00760849
0.00322348
0.00494399
-0.00117068
0.00117652
-0.00695335
-0.00389349
-0.0142598
-0.0104255
-0.023126
-0.0185198
-0.0333306
-0.0280955
-0.0445011
-0.0388245
-0.0562538
-0.0503387
-0.0679525
-0.0621583
-0.0785927
-0.0734569
-0.0878658
-0.0834207
-0.0951852
-0.091926
-0.0978466
-0.0970787
-0.100913
-0.0990246
-0.102121
-0.114308
-0.112394
-0.112451
-0.114655
-0.102821
-0.108846
-0.0890299
-0.0967093
-0.0720303
-0.080677
-0.0546153
-0.0632749
-0.0382795
-0.0462562
-0.0240404
-0.030881
-0.0124085
-0.0179176
-0.00339851
-0.00761742
0.00326716
0.000180417
0.00797871
0.00582163
0.0111496
0.00971705
0.0131524
0.0122656
0.0142904
0.0138048
0.0148112
0.0146095
0.0148986
0.0148965
0.0146769
0.0148175
0.0142367
0.0144776
0.0136458
0.0139557
0.0129461
0.0133071
0.0121576
0.0125613
0.011296
0.0117341
0.0103913
0.0108467
0.00949069
0.00993854
0.00863093
0.0090554
0.00781731
0.00821443
0.00706686
0.00745147
0.00638206
0.00673212
0.00605497
0.00639467
0.00604753
0.00705535
0.00673364
0.00764353
0.00735568
0.00813818
0.00790853
0.00849044
0.0083325
0.00873089
0.00862141
0.00889266
0.0088229
0.00893606
0.00893346
0.0088288
0.00890077
0.00857274
0.00871852
0.00817037
0.00838933
0.00763541
0.00791764
0.0069871
0.00732237
0.00639073
0.00669235
0.00608042
-0.039433
-0.0661062
-0.157449
0.00513806
0.00540206
-0.111235
-0.130045
-0.166987
-0.161085
-0.224513
-0.183086
-0.273616
-0.197679
-0.304187
-0.205897
-0.107626
-0.121032
-0.312753
-0.20782
-0.140637
-0.097621
-0.112869
-0.302048
-0.204836
-0.164022
-0.129668
-0.278882
-0.197852
-0.190897
-0.144623
-0.249058
-0.187298
-0.0886964
-0.219561
-0.0986406
-0.0952056
-0.0874042
0.00487533
0.00508499
0.00481741
0.00560521
0.00534332
0.00614603
0.00587926
0.006698
0.00642065
0.00727387
0.00698379
0.00786042
0.00756776
0.00842104
0.00814668
0.0089065
0.00867521
0.00927437
0.00910583
0.00949265
0.00940239
0.00952405
0.00953256
0.00930871
0.0094491
0.00875911
0.00907816
0.00776254
0.00831939
0.00618243
0.00704814
0.00386006
0.00511627
0.000622287
0.00235647
-0.00370113
-0.00140563
-0.00925061
-0.00632832
-0.0161189
-0.0125301
-0.0242965
-0.0200644
-0.0335802
-0.0288284
-0.0436494
-0.0385438
-0.0541228
-0.048867
-0.0644184
-0.0593353
-0.0737551
-0.0692297
-0.0817261
-0.0779105
-0.0877149
-0.0850378
-0.0902429
-0.0894675
-0.0925276
-0.0913215
-0.0901434
-0.0921053
-0.085225
-0.087735
-0.0960882
-0.101128
-0.0997485
-0.102563
-0.101863
-0.101624
-0.102713
-0.0939758
-0.0983765
-0.0822451
-0.0885652
-0.067934
-0.075241
-0.0529643
-0.0604519
-0.0385944
-0.0456437
-0.0258158
-0.0319864
-0.0151226
-0.0202189
-0.00661297
-0.0106249
-0.000122896
-0.00315266
0.00463348
0.00243421
0.00798356
0.00645023
0.0102377
0.00921949
0.01166
0.0110303
0.0124686
0.0121237
0.0128305
0.012693
0.012864
0.0128794
0.0126569
0.0127839
0.0122751
0.0124832
0.0117608
0.0120315
0.0111378
0.0114608
0.0104264
0.0107909
0.00965716
0.0100464
0.00887047
0.00926403
0.00810197
0.00848284
0.00736888
0.00773255
0.00667435
0.00702128
0.00599957
0.0063319
0.00535842
0.00566146
0.0046856
0.00538458
0.00503443
0.00604916
0.00572145
0.00666783
0.00636579
0.00721482
0.00694892
0.0076638
0.00745612
0.00798241
0.00783879
0.00819853
0.00810078
0.00833452
0.00827794
0.00835952
0.00836406
0.00825479
0.00832269
0.00802333
0.00815447
0.00765964
0.00785764
0.00717653
0.00743098
0.0065994
0.00689841
0.00602276
0.00631942
0.0057158
-0.0760655
-0.159825
0.0043533
0.00484583
-0.114852
-0.122728
-0.174203
-0.169821
-0.157486
-0.231479
-0.180534
-0.290085
-0.195749
-0.0782982
-0.0886478
-0.077105
-0.334075
-0.205903
-0.111548
-0.0914073
-0.35394
-0.211914
-0.135103
-0.110569
-0.348754
-0.214023
-0.158908
-0.128802
-0.325063
-0.211528
-0.18761
-0.145846
-0.29071
-0.204357
-0.219601
-0.16193
-0.254248
-0.0680464
-0.069491
0.00397773
0.00372521
-0.0599872
0.0046906
0.00450027
0.005183
0.00493358
0.00566886
0.00542692
0.00615355
0.00591212
0.00663698
0.00639575
0.00710748
0.00687533
0.00753223
0.00732765
0.00786855
0.00771307
0.00807753
0.00798958
0.0081262
0.00812215
0.00797534
0.00807643
0.00756741
0.00780492
0.00682329
0.00723918
0.00564328
0.00628974
0.00390761
0.00484679
0.00147967
0.00278143
-0.00178494
-4.82564e-05
-0.00602243
-0.00378488
-0.0113388
-0.00855192
-0.0177917
-0.0144338
-0.0253415
-0.0214481
-0.0338013
-0.0294816
-0.042886
-0.0382903
-0.0522279
-0.0475537
-0.061298
-0.0568312
-0.0694897
-0.065522
-0.0763327
-0.0730973
-0.0811283
-0.0790157
-0.0835823
-0.0825676
-0.0843418
-0.0844084
-0.0810578
-0.0829876
-0.0771934
-0.0791485
-0.0839589
-0.0775373
-0.0909272
-0.0886029
-0.0926702
-0.0920544
-0.0915972
-0.0927173
-0.0861136
-0.0896813
-0.0762371
-0.0815014
-0.064184
-0.0703783
-0.0512724
-0.0577593
-0.0386442
-0.0448663
-0.0271917
-0.0327492
-0.0173923
-0.0220891
-0.00940011
-0.0131912
-0.0031378
-0.00608182
0.00159757
-0.000610306
0.00506125
0.00345932
0.00750867
0.00638714
0.0091665
0.00841601
0.0102252
0.00975484
0.0108344
0.0105742
0.0111038
0.0110028
0.0111161
0.0111355
0.0109336
0.0110444
0.010598
0.0107816
0.0101357
0.0103801
0.00957037
0.00986347
0.00893202
0.00925773
0.00825695
0.00859677
0.00757808
0.00791652
0.00691376
0.00724428
0.00626488
0.00658791
0.00561442
0.00593359
0.00495371
0.0052769
0.00444299
0.00416818
0.00455311
0.00385535
0.00448909
0.0042011
0.00509489
0.00478222
0.00570073
0.0054015
0.00628093
0.00599712
0.00678914
0.006544
0.0071986
0.00700916
0.00748984
0.00735814
0.00768553
0.00759768
0.00780092
0.00775458
0.00781275
0.00782213
0.00771089
0.00777531
0.00749942
0.0076185
0.0071707
0.00734942
0.00673513
0.0069645
0.00620644
0.00648304
0.00565124
0.00593501
0.00504294
0.00535139
0.00474631
-0.118459
-0.192492
0.00356293
-0.169739
-0.160201
-0.17802
0.0039408
0.00350515
0.00410496
0.00384544
-0.233465
-0.186107
-0.0493446
-0.0570192
-0.299196
-0.199901
-0.0775168
-0.0600602
-0.0685165
-0.356032
-0.208197
-0.101497
-0.0860057
-0.391194
-0.214201
-0.12762
-0.105869
-0.398184
-0.218861
-0.152964
-0.126677
-0.378279
-0.221702
-0.182305
-0.145711
-0.341063
-0.219798
-0.216469
-0.163709
-0.296343
-0.211225
-0.254686
0.00360551
-0.0375383
-0.042153
-0.0314416
0.00329177
0.00433379
0.00414598
0.00476384
0.00453725
0.0051985
0.00498072
0.00561636
0.0054094
0.00601159
0.00581681
0.0063714
0.00619693
0.00666656
0.00652857
0.0068604
0.00677733
0.00691773
0.00690662
0.00680544
0.00688307
0.00648329
0.00667117
0.00589652
0.00622394
0.00497451
0.00547858
0.00363038
0.00435649
0.0017605
0.0027623
-0.00075133
0.000585232
-0.00402385
-0.00229357
-0.00816403
-0.00598892
-0.0132491
-0.0105949
-0.019308
-0.0161675
-0.0262817
-0.0226973
-0.0339957
-0.0300668
-0.0421906
-0.0380552
-0.0505194
-0.0463642
-0.058509
-0.0545833
-0.0656697
-0.0622095
-0.071517
-0.0687814
-0.0754116
-0.0737131
-0.0774306
-0.0765963
-0.076945
-0.0777187
-0.0735577
-0.0757787
-0.0696102
-0.0718404
-0.0596475
-0.0653909
-0.0512599
-0.0450778
-0.0530278
-0.0408231
-0.0349505
-0.0611382
-0.0523055
-0.0742786
-0.068228
-0.0811126
-0.0785583
-0.0839535
-0.0830534
-0.0833835
-0.0843107
-0.0790137
-0.0817327
-0.0708893
-0.0752558
-0.0607202
-0.0659753
-0.049587
-0.0552031
-0.0385026
-0.0439877
-0.0282524
-0.0332499
-0.0192973
-0.0236116
-0.0118271
-0.0153905
-0.00582843
-0.00866621
-0.00116446
-0.0033549
0.00235993
0.000715616
0.00495212
0.00375084
0.00680377
0.0059524
0.00807931
0.00749906
0.00891073
0.00853946
0.00939789
0.00918895
0.00961655
0.00953433
0.00962386
0.00964178
0.00945996
0.00955972
0.00915327
0.00932156
0.00872937
0.00895329
0.00821753
0.0084818
0.00765057
0.00793855
0.00705786
0.00735573
0.00645693
0.00675769
0.00584964
0.00615344
0.00522122
0.00553415
0.00457322
0.00491978
0.0039002
0.00423223
0.00422916
0.00393973
0.00479964
0.00451381
0.00536151
0.00508175
0.00589867
0.00563605
0.00636812
0.00614255
0.00674349
0.00656948
0.00701194
0.00689024
0.00719041
0.00711088
0.00728947
0.007251
0.00729233
0.0073047
0.00719418
0.00725522
0.00699967
0.00710859
0.00670101
0.00686321
0.00630341
0.00651325
0.00581317
0.00607097
0.00528149
0.00555307
0.00468233
0.00498799
0.00437964
-0.165914
-0.0213262
-0.0254582
-0.18123
0.0033845
0.00304219
0.00357352
-0.228976
-0.200044
-0.0447817
-0.197719
0.00329768
0.00298821
-0.0191498
-0.0287692
-0.0162471
-0.011259
-0.00586831
-0.299575
-0.215143
-0.000919558
-0.0186468
-0.00615242
-0.0665574
-0.059261
-0.366789
-0.219072
-0.0907511
-0.0787938
-0.417636
-0.220705
-0.117202
-0.0990032
-0.441699
-0.224117
-0.145247
-0.121867
-0.433559
-0.227262
-0.175354
-0.143507
-0.39913
-0.232566
-0.210331
-0.164089
-0.349129
-0.228635
-0.250836
-0.183689
-0.297073
-0.0197255
-0.0105954
0.00347302
0.00308322
0.00324193
0.00394354
0.0037344
0.00435152
0.00415767
0.0047338
0.00454272
0.00508708
0.0049141
0.0053984
0.00524789
0.00565278
0.00553332
0.00582466
0.00575002
0.00588246
0.00586858
0.00579474
0.00585713
0.00552885
0.00568432
0.00504443
0.00531436
0.00429014
0.00470152
0.00320403
0.00378911
0.00171185
0.00250935
-0.000274655
0.000780866
-0.00285281
-0.0014901
-0.00611844
-0.00440145
-0.0101534
-0.00804362
-0.0150108
-0.0124858
-0.0206969
-0.0177606
-0.0271402
-0.023839
-0.0341765
-0.0306024
-0.0415656
-0.0378468
-0.0489844
-0.045294
-0.0560156
-0.0525697
-0.0622391
-0.0592439
-0.0671911
-0.0648946
-0.070377
-0.0689987