/*--------------------------------*- C++ -*----------------------------------*\
  =========                 |
  \\      /  F ield         | OpenFOAM: The Open Source CFD Toolbox
   \\    /   O peration     | Website:  https://openfoam.org
    \\  /    A nd           | Version:  10
     \\/     M anipulation  |
\*---------------------------------------------------------------------------*/
FoamFile
{
    format      ascii;
    class       volVectorField;
    location    "10.5";
    object      U;
}
// * * * * * * * * * * * * * * * * * * * * * * * * * * * * * * * * * * * * * //

dimensions      [0 1 -1 0 0 0 0];

internalField   nonuniform List<vector> 
8711
(
(1.06064 0.00941651 0)
(1.06124 0.00971895 -9.89373e-23)
(1.06701 0.00962121 -5.70869e-22)
(1.19601 0.0250686 7.73946e-21)
(1.20046 0.0158786 2.60202e-21)
(1.21573 0.020792 1.52156e-20)
(1.09205 -0.021518 1.21035e-22)
(1.09361 -0.0273027 2.29263e-21)
(0.607936 -0.037361 -1.2166e-21)
(0.610606 0.0580119 9.44514e-21)
(0.776016 -0.494237 0)
(0.446344 -0.694462 -3.87413e-20)
(0.725263 -0.0869075 -1.60695e-21)
(0.758217 -0.106692 5.58821e-23)
(1.10269 -0.278886 1.14563e-21)
(1.05304 -0.274974 0)
(1.26008 0.0146318 -1.04748e-20)
(1.27571 0.0197153 1.06308e-20)
(1.29575 0.0131153 6.88636e-21)
(1.07239 0.0116277 1.06915e-22)
(1.07189 0.011409 -1.58251e-22)
(1.07227 0.0100214 -2.94672e-24)
(1.07257 0.0100119 0)
(1.06883 0.00961504 2.28153e-22)
(1.40209 -0.345024 5.87099e-20)
(1.41345 -0.363343 -1.36248e-20)
(1.45559 -0.420076 2.36253e-20)
(1.2152 -0.30481 -4.78983e-20)
(0.915357 -0.0154908 9.07536e-22)
(0.971679 -0.0140052 -1.21347e-21)
(1.01897 -0.0127312 2.06992e-23)
(1.00278 0.217936 1.05766e-19)
(0.924723 0.248012 2.82616e-20)
(1.37228 0.309934 5.09396e-21)
(1.37191 0.261462 -3.46476e-20)
(1.03922 0.0567875 -3.6693e-20)
(1.04789 0.0684253 1.0507e-20)
(1.03938 -0.0759204 0)
(1.02313 -0.044854 -4.65948e-20)
(1.02837 -0.0476537 6.53628e-20)
(1.01544 -0.0336066 0)
(1.00829 -0.0180583 0)
(-0.107922 -0.0463158 7.21062e-21)
(-0.108426 -0.0956181 8.52356e-20)
(0.489839 0.691148 4.0633e-20)
(0.784137 0.700738 2.18845e-20)
(-0.032575 0.0496124 -1.04355e-19)
(0.0841649 0.044214 3.69045e-20)
(-0.0713769 0.0279991 -5.30537e-20)
(1.07208 0.0179858 6.73088e-22)
(1.07113 0.0166546 1.28082e-21)
(1.07257 0.0171625 4.29471e-22)
(1.07371 0.0182931 0)
(1.12896 0.0357528 0)
(1.12341 0.0395053 -2.12512e-23)
(1.116 0.0413162 -2.18288e-22)
(0.9039 -0.148828 2.59328e-21)
(0.893461 -0.162855 -5.22356e-21)
(0.828826 -0.129449 0)
(0.801532 -0.138259 6.01752e-21)
(1.11501 0.00600558 -1.31811e-21)
(1.11651 0.00658846 -7.06847e-22)
(1.08902 0.0116161 1.73443e-21)
(1.08786 0.01084 7.18237e-22)
(1.07534 -0.0121964 -4.48608e-21)
(1.07932 -0.0143338 0)
(1.08955 -0.0135672 1.8694e-21)
(1.07198 0.00974817 0)
(1.07236 0.00986414 -2.08838e-22)
(1.07259 0.0100399 1.25668e-24)
(1.00923 0.0343778 3.21799e-21)
(1.02445 0.0266418 -1.59404e-21)
(1.00132 0.0363831 6.05144e-22)
(1.00933 0.0434834 0)
(1.06745 0.00637168 -3.16194e-21)
(1.06785 8.04983e-05 0)
(1.07546 0.00788939 2.47086e-21)
(1.0761 0.0147421 -1.96596e-21)
(1.07182 0.0097111 1.87568e-22)
(1.10252 0.0187722 -3.29824e-23)
(1.10405 0.0168312 5.73409e-22)
(1.13408 0.00490259 1.93939e-22)
(1.12953 0.00580638 0)
(1.06976 0.00950816 1.07451e-22)
(1.07023 0.00954711 3.57508e-22)
(1.07029 0.00960849 -5.24837e-22)
(0.701473 -0.0647573 4.22954e-21)
(0.661215 -0.0953295 -1.42222e-20)
(0.858008 0.0246734 1.6272e-21)
(0.691539 0.00909811 1.42946e-23)
(1.10739 0.0327105 -7.79182e-22)
(1.11219 0.0312662 -6.38455e-23)
(1.10885 0.0450131 2.67782e-22)
(1.22289 -0.148126 2.48024e-21)
(1.20313 -0.126976 -2.43239e-21)
(1.11209 0.113171 8.40388e-21)
(1.09555 0.111685 -5.36547e-22)
(1.0866 0.0993289 -4.06396e-21)
(1.10076 0.103419 -1.4503e-21)
(1.13627 0.1278 1.79843e-23)
(1.12467 0.102737 0)
(0.975185 -0.17347 -6.37414e-21)
(0.981906 -0.234559 1.61188e-20)
(0.776525 -0.0941975 1.5724e-21)
(0.79337 -0.0802735 7.14631e-22)
(0.810506 -0.0650994 6.29615e-23)
(0.826703 -0.048675 0)
(0.845682 -0.0337564 7.97131e-22)
(0.863511 -0.0186387 -8.42746e-22)
(0.882538 -0.004899 -4.69139e-23)
(0.899835 0.00730167 -4.54816e-23)
(0.917813 0.0183531 2.99376e-22)
(0.933729 0.027509 -4.06894e-22)
(0.949089 0.0348204 -1.42678e-22)
(0.963471 0.0408971 -2.63535e-22)
(0.975665 0.0443825 3.36563e-22)
(0.98601 0.0467964 1.25385e-22)
(0.995858 0.047031 2.25754e-22)
(0.982562 0.0382923 -4.64229e-22)
(1.00351 0.0469194 4.24114e-22)
(0.991713 0.0391433 -7.55975e-22)
(0.961474 0.0337838 6.66484e-23)
(0.97173 0.0374086 2.42743e-22)
(0.937703 0.0225071 -1.8757e-23)
(0.949409 0.0294144 1.37328e-22)
(0.913121 0.00488152 1.73002e-22)
(0.925216 0.0147351 7.85669e-23)
(0.889849 -0.018214 0)
(0.900779 -0.00588167 4.51606e-23)
(0.870174 -0.0452184 1.10944e-22)
(0.879253 -0.0310418 0)
(0.856117 -0.0738065 -3.1468e-23)
(0.861775 -0.0589279 0)
(0.843151 -0.101731 -5.85463e-22)
(0.849594 -0.0877049 -6.58926e-23)
(0.837181 -0.114993 -2.6861e-21)
(0.78416 -0.060613 1.04859e-21)
(0.75655 -0.0742935 3.23273e-22)
(0.839583 -0.0287438 8.04085e-22)
(0.812819 -0.0444746 -4.62608e-22)
(0.890338 0.00084783 -7.63575e-22)
(0.866635 -0.0132484 -8.05902e-22)
(0.935726 0.0252357 -6.92638e-22)
(0.915073 0.0142264 1.1688e-21)
(0.972492 0.0425284 7.30238e-22)
(0.955251 0.0348808 -5.91585e-23)
(1.00177 0.0524089 -1.76804e-23)
(0.988103 0.0484582 -5.71962e-22)
(1.02071 0.0549622 2.18197e-22)
(1.0118 0.0542714 -3.77733e-22)
(1.03376 0.052558 0)
(1.02799 0.0542596 0)
(1.03511 0.0493694 -1.86134e-22)
(0.720022 -0.116818 5.13124e-21)
(1.01396 0.0405336 7.41128e-22)
(1.0132 0.0289892 -7.8134e-22)
(1.03675 0.0456788 -5.32971e-22)
(0.776938 -0.144259 -2.6685e-21)
(0.694041 -0.0947024 -4.81829e-21)
(0.994117 0.0296346 4.51719e-22)
(1.00325 0.0304274 3.80531e-22)
(0.976115 0.0244856 -2.52823e-22)
(0.984269 0.0282362 -1.43883e-22)
(0.959094 0.0133136 3.02928e-22)
(0.966218 0.0200968 -2.56709e-22)
(0.944816 -0.00318099 -1.71311e-22)
(0.950125 0.00596967 0)
(0.934945 -0.0237648 -1.16095e-21)
(0.937985 -0.012767 7.64629e-22)
(0.93103 -0.0480783 7.77716e-22)
(0.931074 -0.035414 4.05788e-22)
(0.930798 -0.074985 1.59323e-22)
(0.928941 -0.061324 -9.29631e-22)
(0.930496 -0.104306 1.16549e-21)
(0.92945 -0.0894088 -1.9165e-22)
(0.921284 -0.135006 0)
(0.927534 -0.120041 -1.18279e-21)
(1.01935 0.0361528 -2.10736e-21)
(1.03751 0.0414087 6.74124e-22)
(0.763361 -0.0568509 5.71944e-22)
(0.731706 -0.0636972 -3.6437e-21)
(0.832867 -0.0314344 4.62236e-22)
(0.798013 -0.0450179 2.5217e-22)
(0.897771 -0.00227302 1.03008e-22)
(0.865382 -0.0171623 2.21649e-23)
(0.951056 0.0234696 -3.87986e-22)
(0.92613 0.0115164 3.79557e-22)
(0.995985 0.0441481 9.32201e-22)
(0.975071 0.0346948 0)
(1.02762 0.0566078 -1.36046e-22)
(1.01264 0.0512425 -5.77278e-22)
(1.05165 0.0619729 -2.73745e-22)
(1.04064 0.0603076 2.7141e-22)
(1.06408 0.0609951 -4.9619e-22)
(1.05707 0.0619367 5.04995e-22)
(1.07141 0.0560517 -2.48394e-23)
(1.06697 0.0589064 -1.36988e-23)
(1.0699 0.0481911 -7.04627e-22)
(1.06984 0.0522232 -3.56914e-22)
(1.03306 0.0237368 -3.38563e-21)
(1.02163 0.0285487 3.25933e-22)
(0.68696 -0.122952 0)
(1.06751 0.0436946 0)
(0.86905 -0.174639 5.43316e-21)
(0.746052 -0.150155 -1.45707e-21)
(0.98305 -0.174694 -4.6108e-21)
(0.971479 -0.192795 4.29375e-21)
(1.05294 0.0182636 1.15765e-20)
(1.05354 0.0173549 -4.97696e-21)
(1.06638 0.0157174 1.86996e-21)
(0.626092 -0.0955624 -3.18523e-21)
(0.670436 -0.0633863 -3.10494e-21)
(1.04426 0.0212482 -1.07684e-22)
(1.04759 0.0208744 7.96659e-22)
(1.02766 0.0219221 0)
(1.03215 0.0229343 1.02036e-22)
(1.014 0.0175236 4.61359e-22)
(1.01868 0.0206867 -5.5379e-22)
(1.0034 0.00801993 5.28977e-22)
(1.00695 0.0135979 -6.37195e-22)
(0.997742 -0.00605375 1.93179e-21)
(0.998453 0.00163215 -1.36498e-21)
(0.995694 -0.0241815 -3.09359e-22)
(0.994227 -0.0144741 -3.41524e-22)
(0.997322 -0.0467263 0)
(0.9953 -0.034691 -5.12622e-23)
(1.00087 -0.0734934 -1.90737e-21)
(0.998586 -0.0596529 9.9825e-22)
(1.00268 -0.105466 8.26272e-24)
(1.00039 -0.0889806 1.02926e-21)
(0.997814 -0.140588 1.23743e-21)
(0.99942 -0.123154 5.09115e-22)
(0.991132 -0.158126 -1.13295e-21)
(1.10051 0.0481632 -3.71645e-22)
(1.09728 0.0434235 0)
(0.799293 -0.0331465 2.76408e-21)
(0.641051 -0.0565517 -4.04413e-23)
(0.752808 -0.0267995 4.72572e-21)
(0.770693 -0.0330723 -1.52133e-21)
(0.858958 -0.0226714 -1.0659e-21)
(0.822922 -0.0315437 3.67137e-21)
(0.922465 -0.000847968 9.08016e-22)
(0.888287 -0.0129368 -1.22477e-21)
(0.981614 0.0241724 -4.74455e-23)
(0.952447 0.0115893 -2.71337e-23)
(1.02758 0.0447177 0)
(1.00455 0.0347848 0)
(1.0612 0.0597965 0)
(1.04505 0.0529696 0)
(1.08373 0.0672602 0)
(1.07338 0.0643396 0)
(1.09713 0.0678603 -9.86889e-22)
(1.09085 0.0683388 1.08631e-21)
(1.10316 0.0638856 -3.36606e-24)
(1.10014 0.0662961 0)
(1.10419 0.0569438 2.56624e-23)
(1.10306 0.0607171 1.4392e-23)
(1.10236 0.0526855 7.42788e-22)
(1.02507 0.0321617 0)
(1.02883 0.0255935 3.17375e-22)
(1.06616 0.0389635 0)
(1.03955 0.0370167 0)
(0.650956 -0.124118 7.64478e-21)
(0.834377 -0.181161 0)
(0.942212 -0.206594 -1.13379e-20)
(0.884785 -0.205808 -2.57493e-21)
(0.993814 -0.214438 1.19357e-20)
(1.0917 0.0122665 -2.66257e-21)
(1.094 0.0385506 -6.35619e-22)
(0.590176 -0.0893495 9.00338e-22)
(0.714856 -0.152508 0)
(0.886999 -0.00503656 7.78649e-22)
(0.728281 -0.0197083 0)
(0.867296 -0.000130527 -6.81621e-22)
(0.609014 -0.0481451 -4.44967e-22)
(0.790707 -0.182004 7.60508e-22)
(0.979473 -0.237685 -1.69656e-21)
(0.893287 -0.219911 7.42877e-22)
(0.969033 -0.244656 4.43103e-21)
(1.04763 -0.253034 -3.38232e-21)
(1.04024 -0.263117 0)
(1.07832 0.01619 8.58547e-23)
(1.08233 0.0146391 -2.29119e-22)
(1.06695 0.0170248 0)
(1.07087 0.0171138 9.81549e-23)
(1.05784 0.0136233 0)
(1.06143 0.0158143 0)
(1.05118 0.00572092 1.03778e-24)
(1.05375 0.010198 0)
(1.04756 -0.00659653 -2.26962e-24)
(1.04873 0.000117815 0)
(1.04676 -0.0232647 -2.60494e-24)
(1.04665 -0.0143629 0)
(1.04722 -0.0453053 0)
(1.04638 -0.033589 0)
(1.0475 -0.0726529 2.31804e-25)
(1.04712 -0.0582897 0)
(1.04696 -0.105446 0)
(1.04717 -0.0883148 0)
(1.04689 -0.142521 0)
(1.0464 -0.123752 0)
(1.0452 -0.180087 2.11989e-22)
(1.0456 -0.161722 2.06093e-21)
(1.03891 -0.217115 -1.7694e-21)
(1.04243 -0.198383 -1.84487e-21)
(1.05529 -0.239076 1.81877e-21)
(0.922111 -0.00650578 -1.96267e-23)
(0.898572 -0.00855549 2.00135e-23)
(0.971287 0.00613557 -1.84281e-24)
(0.943837 -0.00222064 0)
(1.0229 0.0251098 0)
(0.996817 0.0148934 0)
(1.06533 0.0446811 0)
(1.04413 0.0349697 0)
(1.09642 0.0601898 0)
(1.08182 0.0529005 0)
(1.11615 0.0697261 1.03445e-24)
(1.10719 0.0656907 0)
(1.12696 0.0727985 0)
(1.1225 0.0720055 0)
(1.13095 0.070338 0)
(1.12961 0.072122 0)
(1.13016 0.0640149 0)
(1.13091 0.0675196 0)
(1.12664 0.0557988 4.39872e-23)
(1.12852 0.0599931 0)
(1.12138 0.0464738 8.02955e-23)
(1.12405 0.0511275 8.96084e-23)
(1.11509 0.0368422 6.45475e-22)
(1.11836 0.0417239 -6.42957e-22)
(1.05726 0.0153808 2.51667e-22)
(1.08828 0.00975163 -1.7452e-22)
(1.03015 0.0283866 3.19579e-24)
(1.0352 0.0223844 -1.76231e-22)
(1.06543 0.0341713 0)
(1.04191 0.0325847 -7.9196e-23)
(1.11185 0.0318098 -6.15318e-22)
(1.09134 0.0335942 5.44697e-22)
(0.620067 -0.122823 -4.93261e-23)
(0.715657 -0.00507465 1.76944e-21)
(0.867086 0.0113652 -1.85359e-21)
(1.12602 0.0344682 0)
(1.12343 0.0295539 0)
(0.552859 -0.0831165 -8.42171e-22)
(0.677973 -0.152066 -1.43012e-21)
(1.09098 -0.256503 2.953e-21)
(1.09012 -0.269818 -4.7433e-21)
(0.583133 -0.0327577 1.31961e-21)
(0.770249 -0.189636 1.44856e-21)
(0.852304 -0.220857 -5.69499e-22)
(0.945598 -0.255347 -2.03906e-21)
(1.1143 0.00910066 1.15471e-24)
(1.11641 0.00761694 -8.16076e-22)
(1.10752 0.012221 0)
(1.10991 0.0109136 0)
(1.09958 0.0134114 2.35417e-23)
(1.10278 0.0131841 7.0042e-23)
(1.09271 0.0106571 0)
(1.09579 0.0124443 0)
(1.0867 0.00359 -9.46793e-25)
(1.08942 0.00758565 0)
(1.08188 -0.00795001 4.40823e-24)
(1.08405 -0.00164576 0)
(1.07809 -0.0243177 2.55612e-24)
(1.07983 -0.0155404 0)
(1.07489 -0.0460514 0)
(1.07639 -0.034477 0)
(1.07245 -0.07327 6.03781e-24)
(1.0735 -0.0590406 0)
(1.07153 -0.105528 0)
(1.07171 -0.0888035 0)
(1.0732 -0.142426 0)
(1.07199 -0.123504 0)
(1.07771 -0.180998 -3.82868e-23)
(1.07518 -0.16203 -2.4098e-22)
(1.08398 -0.218628 1.23976e-21)
(1.08085 -0.200063 2.11993e-22)
(1.08898 -0.23833 -1.22021e-21)
(0.975826 0.0228911 1.11686e-21)
(0.852704 0.0437981 -1.30031e-20)
(0.95359 0.0484319 0)
(0.96352 0.0342034 -2.35088e-21)
(0.998991 0.011467 6.12919e-22)
(0.980544 0.0145258 9.53472e-22)
(1.03272 0.0141213 0)
(1.01426 0.0112594 0)
(1.07085 0.0267044 -1.63732e-24)
(1.05107 0.0195629 0)
(1.10486 0.0425146 1.3758e-24)
(1.08853 0.0342799 0)
(1.13045 0.0575076 0)
(1.11876 0.0502476 0)
(1.14614 0.0683739 0)
(1.13944 0.0635362 0)
(1.15328 0.0735942 -1.0342e-24)
(1.15062 0.0716187 0)
(1.154 0.0736775 0)
(1.15429 0.0742344 0)
(1.15057 0.0693099 0)
(1.15268 0.071968 0)
(1.14484 0.0617939 0)
(1.14795 0.0658202 0)
(1.13826 0.0531379 -2.44604e-23)
(1.14164 0.0574301 1.0376e-25)
(1.13183 0.0439751 -1.71937e-22)
(1.13494 0.0485717 -1.08798e-23)
(1.1289 0.0392838 6.42774e-22)
(1.1149 0.00515039 -5.98124e-22)
(1.06246 0.012843 1.15026e-22)
(1.09061 0.00818444 2.51434e-22)
(1.03497 0.0242442 1.56668e-22)
(1.041 0.018887 -3.20695e-22)
(1.065 0.0293976 1.53658e-22)
(1.04423 0.0280909 7.84775e-23)
(1.10884 0.0267649 0)
(1.08894 0.0286095 -2.2504e-22)
(1.12078 0.0245752 0)
(0.580486 -0.118569 0)
(1.13066 0.00395214 -1.33182e-21)
(1.13057 0.00356493 -1.46324e-21)
(0.957807 0.0676326 0)
(1.13275 0.00448067 2.20662e-21)
(0.515207 -0.0691988 -1.74551e-21)
(0.643773 -0.151224 0)
(0.547902 -0.0160089 9.38389e-22)
(0.729111 -0.186089 -6.99672e-22)
(1.12301 0.0179567 -9.64874e-22)
(0.669853 0.0293082 -1.97898e-21)
(0.829997 -0.225428 5.33932e-22)
(0.868808 0.064383 1.78803e-20)
(0.9375 -0.259425 0)
(1.13404 0.003717 1.76659e-21)
(1.12482 0.0227462 -5.86906e-22)
(1.12894 0.00708647 4.15448e-22)
(1.13069 0.00519953 -1.38304e-21)
(1.12426 0.0097898 -1.27791e-22)
(1.12678 0.0081333 1.80112e-22)
(1.11847 0.0105865 -2.34789e-23)
(1.12157 0.0102711 -2.66332e-23)
(1.11229 0.00777924 0)
(1.11556 0.0095115 0)
(1.10563 0.000829862 9.46794e-25)
(1.10901 0.00473148 0)
(1.09908 -0.0104892 -4.1309e-24)
(1.10232 -0.00432708 0)
(1.09302 -0.0265713 2.21122e-24)
(1.09595 -0.0179498 0)
(1.08806 -0.0478018 0)
(1.09035 -0.0365624 0)
(1.08521 -0.0739844 -5.50393e-24)
(1.0863 -0.0603541 0)
(1.08583 -0.104521 0)
(1.08501 -0.0887703 0)
(1.09106 -0.138951 0)
(1.08786 -0.121337 0)
(1.10208 -0.176075 2.58202e-23)
(1.09573 -0.157478 1.83164e-24)
(1.11921 -0.213539 7.24436e-22)
(1.1097 -0.19497 -7.70672e-22)
(1.1413 -0.250175 0)
(1.13006 -0.232505 1.10516e-22)
(1.16488 -0.277135 0)
(1.1526 -0.264427 0)
(1.05722 0.060717 1.17444e-21)
(1.03696 0.0795903 -7.90192e-21)
(1.07346 0.0369638 6.11109e-22)
(1.06587 0.0477893 -1.23887e-21)
(1.09414 0.0272394 -2.90915e-21)
(1.08181 0.0300572 -5.6069e-23)
(1.11971 0.0302556 -1.38499e-21)
(1.10558 0.027301 5.81351e-22)
(1.14274 0.0401012 1.60885e-24)
(1.13037 0.0344472 1.96722e-21)
(1.16099 0.0524617 -1.37579e-24)
(1.15267 0.0461572 0)
(1.17171 0.063457 1.49244e-28)
(1.16729 0.0582683 -1.77675e-28)
(1.17496 0.0705138 0)
(1.17417 0.0675395 0)
(1.1724 0.072932 0)
(1.17427 0.0722409 0)
(1.16609 0.0712852 0)
(1.1696 0.072576 0)
(1.1579 0.0660178 0)
(1.16216 0.0690489 0)
(1.14921 0.0581946 0)
(1.15361 0.0623075 0)
(1.14099 0.049606 -2.92758e-24)
(1.14502 0.0538858 -4.057e-22)
(1.134 0.0412335 0)
(1.1373 0.0454417 3.7996e-22)
(1.12852 0.0321107 -2.79449e-22)
(1.13094 0.036702 0)
(1.12612 0.0270548 8.16023e-22)
(1.05809 -0.283999 -1.17868e-21)
(1.16172 -0.288438 -2.29068e-22)
(1.11645 0.00423762 6.38886e-22)
(1.13388 0.00379906 0)
(1.13095 0.00339631 -5.3849e-22)
(1.06749 0.0102031 -7.13303e-23)
(1.09369 0.00640635 -1.6312e-22)
(1.0392 0.0202462 0)
(1.04671 0.0153851 7.08883e-23)
(1.06448 0.0246951 -2.93e-22)
(1.04619 0.0236334 1.49774e-22)
(1.10624 0.0217804 0)
(1.08688 0.0237898 1.44967e-22)
(1.11838 0.0194841 0)
(0.543259 -0.110365 0)
(0.474939 -0.0525641 -4.335e-22)
(0.600596 -0.143401 6.72228e-22)
(1.12112 0.0129918 8.69691e-22)
(1.12159 0.0190961 0)
(1.1204 0.0124246 2.63629e-21)
(0.514635 0.0057393 -9.00663e-22)
(0.696258 -0.18435 0)
(0.670299 0.0528578 2.92835e-21)
(0.797732 -0.222497 -4.42344e-22)
(0.823718 0.0813355 -1.00239e-21)
(0.943583 -0.259452 9.77567e-22)
(1.0083 0.0974913 5.55883e-21)
(1.1559 -0.290402 3.60398e-22)
(1.04856 -0.279646 -3.68272e-22)
(1.13487 0.00398123 0)
(1.13363 0.0042085 -6.69988e-23)
(1.28328 -0.260929 -2.36619e-21)
(1.13528 0.00349394 8.0403e-22)
(1.13576 0.00315366 0)
(1.1333 0.00529411 1.61796e-22)
(1.13456 0.00401233 1.4333e-22)
(1.12971 0.00756044 -1.17312e-27)
(1.13175 0.00640451 -8.92478e-23)
(1.12467 0.00784756 2.24946e-23)
(1.12738 0.008019 -2.3565e-23)
(1.11849 0.00465545 0)
(1.1218 0.00670436 0)
(1.11133 -0.00252862 -8.2859e-25)
(1.11503 0.00151872 0)
(1.10391 -0.0137604 3.83391e-24)
(1.10762 -0.00767564 0)
(1.09706 -0.0293784 -2.21122e-24)
(1.10036 -0.0210285 0)
(1.09185 -0.0496922 -2.20054e-24)
(1.09418 -0.038991 0)
(1.08943 -0.0743701 2.67872e-25)
(1.09022 -0.0615631 0)
(1.09111 -0.102783 0)
(1.0897 -0.0881816 0)
(1.098 -0.134362 0)
(1.09388 -0.118245 0)
(1.11118 -0.168503 0)
(1.10376 -0.15122 0)
(1.13196 -0.20331 4.17418e-25)
(1.12059 -0.185845 0)
(1.16014 -0.23587 4.28098e-23)
(1.14562 -0.220399 -2.89178e-22)
(1.19393 -0.264104 4.4704e-23)
(1.17629 -0.24998 -4.21948e-23)
(1.2241 -0.282168 3.74755e-22)
(1.21167 -0.275296 0)
(1.14778 -0.286436 0)
(1.24397 -0.27633 -2.13898e-20)
(1.23622 -0.283221 5.49386e-21)
(1.11524 0.0636215 -4.44701e-21)
(1.09405 0.101599 1.88038e-21)
(1.10218 0.0799391 5.82398e-21)
(1.13448 0.043295 -5.47658e-22)
(1.12583 0.05187 1.61617e-21)
(1.1517 0.0359682 0)
(1.14257 0.0380527 8.59362e-23)
(1.16817 0.0386961 -1.54247e-24)
(1.15949 0.0361879 0)
(1.18121 0.0464169 0)
(1.17522 0.0419745 0)
(1.18832 0.0559328 0)
(1.18554 0.0511692 0)
(1.18915 0.0638975 0)
(1.18946 0.0602227 0)
(1.18467 0.0684575 0)
(1.18746 0.0666343 0)
(1.17658 0.0693182 0)
(1.18096 0.0693008 0)
(1.16665 0.0669122 0)
(1.17176 0.0684903 0)
(1.15626 0.0614891 1.49863e-24)
(1.16146 0.0645297 0)
(1.14635 0.0539541 0)
(1.15122 0.0578531 0)
(1.13762 0.0460171 0)
(1.14186 0.0498943 0)
(1.13058 0.0384188 -1.11898e-24)
(1.13395 0.0421961 0)
(1.12535 0.0297854 2.8496e-22)
(1.12774 0.0345975 0)
(1.12333 0.0256433 -4.12466e-22)
(1.11724 0.00355278 -3.08823e-24)
(1.1301 0.00346732 1.08829e-21)
(1.07161 0.00777554 -6.62376e-23)
(1.09651 0.00480899 -1.36567e-22)
(1.04295 0.0163759 1.9945e-27)
(1.05113 0.0121598 6.67301e-23)
(1.06444 0.020257 2.67599e-28)
(1.04824 0.0193561 0)
(1.10365 0.0170781 -2.63374e-24)
(1.08522 0.0192396 6.86204e-23)
(1.11588 0.0146429 -4.99396e-22)
(0.4976 -0.0974259 0)
(1.13038 0.00444872 0)
(1.11673 0.0177142 2.16034e-22)
(1.11562 0.0117375 -7.43606e-22)
(0.430363 -0.0314812 -5.57894e-23)
(0.555533 -0.133154 0)
(0.489385 0.0319043 9.82501e-22)
(0.642902 -0.173021 4.37286e-22)
(0.651351 0.0728955 0)
(0.760072 -0.21388 -9.79901e-22)
(0.907256 0.0997666 2.45331e-21)
(1.0907 0.124512 1.39326e-22)
(1.01731 0.127997 2.12751e-21)
(0.881794 -0.249053 2.41268e-22)
(1.00239 -0.267765 0)
(1.12724 -0.274184 1.67109e-21)
(1.20546 -0.274029 -3.13987e-21)
(1.29099 -0.256941 0)
(1.31616 -0.239274 1.06671e-21)
(1.28631 -0.2476 1.52031e-20)
(1.13137 0.00307137 -5.1122e-22)
(1.13108 0.00338672 0)
(1.12988 0.00406881 7.27583e-23)
(1.1308 0.0033136 0)
(1.12668 0.00566002 2.27442e-27)
(1.12853 0.00489481 -7.41425e-23)
(1.12197 0.00532646 0)
(1.1245 0.00585135 -8.3676e-29)
(1.11595 0.00153517 0)
(1.11913 0.00387187 0)
(1.10896 -0.00599826 8.28685e-25)
(1.11255 -0.00180675 -1.11107e-28)
(1.10171 -0.0171344 -1.50219e-25)
(1.10531 -0.0111431 0)
(1.09526 -0.0321496 -1.84434e-24)
(1.09832 -0.0241621 -1.35262e-28)
(1.09077 -0.0513216 2.20054e-24)
(1.0927 -0.0412565 0)
(1.08938 -0.074321 2.34824e-24)
(1.08963 -0.0624145 1.56321e-28)
(1.09223 -0.100528 2.14344e-24)
(1.09022 -0.087095 1.6256e-28)
(1.10038 -0.129341 0)
(1.09561 -0.114674 0)
(1.11488 -0.160073 0)
(1.10682 -0.144567 0)
(1.13685 -0.191226 3.75333e-25)
(1.12494 -0.175744 0)
(1.16649 -0.220014 -3.39003e-22)
(1.15094 -0.206304 3.61445e-22)
(1.20381 -0.2445 -5.13667e-23)
(1.18406 -0.233195 2.10198e-23)
(1.2471 -0.259837 -1.40819e-21)
(1.22548 -0.253867 -1.22088e-23)
(1.26748 -0.261621 1.04358e-21)
(1.1307 0.102587 3.84774e-22)
(1.08963 0.152247 -2.31762e-21)
(1.1303 0.14703 9.4959e-22)
(1.12921 0.123878 -1.39278e-21)
(1.14218 0.0686369 9.99632e-22)
(1.13506 0.0839061 0)
(1.15966 0.0504521 -5.19133e-23)
(1.15104 0.0577318 -2.86491e-22)
(1.17307 0.043337 8.15861e-22)
(1.16627 0.0456394 -1.22276e-22)
(1.18446 0.0439439 1.5204e-24)
(1.1789 0.0426869 -9.15471e-22)
(1.19151 0.049296 0)
(1.18866 0.0462049 0)
(1.19282 0.0560917 0)
(1.19285 0.0526828 0)
(1.18896 0.0616663 0)
(1.19146 0.0591288 0)
(1.18118 0.0645516 0)
(1.18545 0.063463 0)
(1.17109 0.0645445 8.52546e-25)
(1.17632 0.064874 0)
(1.16013 0.0618776 0)
(1.16565 0.0635248 0)
(1.14931 0.0566328 -2.91899e-24)
(1.15465 0.0595389 0)
(1.13936 0.0496181 0)
(1.14416 0.0532219 0)
(1.13093 0.0424522 0)
(1.13487 0.0459212 0)
(1.12434 0.0357326 1.1031e-24)
(1.12723 0.0390306 0)
(1.11959 0.0281271 1.28158e-22)
(1.12131 0.0320962 -2.87812e-22)
(1.1171 0.0234911 1.37077e-23)
(1.13258 0.00505718 2.5579e-22)
(1.12729 0.00777674 4.85442e-22)
(1.13222 0.00640958 -6.03521e-22)
(1.11771 0.00303406 -2.53356e-22)
(1.12938 0.00371731 -4.86975e-22)
(1.07482 0.00557001 0)
(1.09838 0.00350585 0)
(1.04624 0.0127398 -1.99449e-27)
(1.05507 0.00910675 0)
(1.06428 0.0161381 2.56073e-28)
(1.05004 0.0153665 0)
(1.10118 0.0127466 2.83076e-23)
(1.08345 0.0150494 0)
(1.11911 0.00788735 -4.35124e-22)
(1.11357 0.0100643 3.14112e-22)
(1.1144 0.00579163 9.93702e-22)
(1.11872 0.00668345 -1.3552e-21)
(0.449327 -0.0795293 -3.82479e-28)
(0.387205 -0.0036036 1.33162e-21)
(0.495733 -0.113541 0)
(0.467166 0.0605993 -9.0971e-22)
(0.589472 -0.156093 -3.43565e-22)
(1.11311 0.000482424 -3.55633e-22)
(1.10777 0.00521129 1.76837e-22)
(1.10699 -0.000266185 1.67947e-22)
(0.676668 0.104846 -3.44857e-21)
(0.854808 0.12749 0)
(1.00253 0.154826 -2.1767e-21)
(1.13495 0.171967 0)
(1.09139 0.180434 0)
(0.704151 -0.19566 4.75115e-22)
(0.830515 -0.226703 5.50992e-23)
(0.969277 -0.247921 -2.37849e-21)
(1.08826 -0.257458 -6.23734e-22)
(1.20285 -0.24695 -1.9181e-21)
(1.12004 0.00891227 1.1237e-22)
(1.32722 -0.233698 -1.4209e-21)
(1.28473 -0.228572 -8.66827e-21)
(1.33908 -0.213564 0)
(1.12552 0.00969439 4.55284e-22)
(1.11941 0.0110645 -1.15371e-22)
(1.1229 0.00498839 2.21771e-22)
(1.12215 0.00668742 -2.24857e-22)
(1.12361 0.00279443 2.47514e-22)
(1.12357 0.00351547 -1.20946e-22)
(1.12213 0.00297829 -2.46958e-22)
(1.12314 0.00258155 3.70347e-22)
(1.11899 0.0038481 -2.08332e-27)
(1.1209 0.00347468 0)
(1.11455 0.0029167 -2.82101e-28)
(1.11699 0.00374003 0)
(1.109 -0.00139254 0)
(1.11192 0.00119866 0)
(1.1027 -0.00919068 0)
(1.10592 -0.00490669 0)
(1.09634 -0.020168 -1.69131e-24)
(1.09947 -0.0143088 0)
(1.09091 -0.0344985 1.84445e-24)
(1.09343 -0.0269158 0)
(1.08758 -0.0524492 -1.1264e-28)
(1.08892 -0.0430534 1.32079e-28)
(1.0874 -0.0737432 0)
(1.08704 -0.0627438 0)
(1.09138 -0.0977815 -2.77814e-25)
(1.08883 -0.0854855 0)
(1.10051 -0.12398 0)
(1.09527 -0.110674 0)
(1.11581 -0.151598 1.58805e-24)
(1.10737 -0.137701 0)
(1.13823 -0.179314 1.53165e-24)
(1.12615 -0.165588 0)
(1.16802 -0.204963 3.05154e-25)
(1.15229 -0.19256 0)
(1.20544 -0.226359 -4.04182e-23)
(1.18592 -0.216352 0)
(1.24995 -0.239206 -1.72959e-23)
(1.22736 -0.234184 4.08178e-23)
(1.29432 -0.238513 8.60232e-22)
(1.27267 -0.240819 -7.9668e-22)
(1.33409 -0.218957 0)
(1.3156 -0.229303 6.44242e-22)
(1.14783 0.141496 3.82602e-22)
(1.14401 0.198515 -1.87138e-22)
(1.1652 0.185637 1.36016e-22)
(1.15458 0.16309 -2.32589e-22)
(1.1448 0.103014 -5.42249e-22)
(1.14486 0.121431 0)
(1.15141 0.0732413 8.28974e-23)
(1.14714 0.0867353 4.90913e-22)
(1.16371 0.0563495 4.87137e-23)
(1.15738 0.0631044 -2.19298e-22)
(1.17437 0.0485887 -1.46244e-24)
(1.16916 0.0514435 -1.95372e-28)
(1.18242 0.0472435 0)
(1.17877 0.0471481 0)
(1.18624 0.0502969 1.12664e-24)
(1.18493 0.0484119 -1.7618e-28)
(1.18508 0.0547619 0)
(1.18624 0.0524889 0)
(1.17964 0.0584517 0)
(1.18282 0.0567876 0)
(1.17114 0.060133 0)
(1.17568 0.0595583 0)
(1.16098 0.0595933 -5.13754e-26)
(1.16618 0.0601194 0)
(1.15034 0.0568658 0)
(1.15567 0.0585015 0)
(1.13997 0.0518988 1.42036e-24)
(1.14507 0.0546346 0)
(1.13056 0.0454696 0)
(1.13507 0.0487612 0)
(1.12273 0.0390945 0)
(1.12632 0.0421843 0)
(1.11669 0.0332288 -2.95792e-22)
(1.11922 0.0361056 3.14898e-22)
(1.11235 0.0262757 6.2006e-23)
(1.11397 0.0299589 2.16642e-24)
(1.10958 0.0165829 -2.0375e-22)
(1.11033 0.0218995 -5.86925e-23)
(1.10865 0.0109603 0)
(1.13105 0.00603324 0)
(1.13022 0.00794993 -4.4271e-22)
(1.11714 0.00265153 0)
(1.12816 0.00413815 0)
(1.07714 0.00359103 0)
(1.09904 0.00234639 0)
(1.04909 0.00941452 0)
(1.05828 0.0063347 0)
(1.06409 0.0124278 3.85091e-27)
(1.05161 0.011733 0)
(1.09854 0.00899994 -3.14585e-23)
(1.08181 0.0113204 7.47363e-24)
(1.11665 0.00354013 3.36799e-22)
(1.11064 0.00614969 0)
(1.11681 0.00173486 3.99877e-22)
(0.39406 -0.0541331 0)
(1.34835 -0.205999 8.99601e-22)
(1.34332 -0.1992 -5.99065e-21)
(1.35897 -0.190428 -1.54283e-20)
(0.345378 0.0288654 8.69838e-22)
(0.434872 -0.0886231 2.25878e-28)
(1.11158 -0.00399852 3.77019e-22)
(1.10607 -0.00505822 -3.51727e-22)
(0.456288 0.094775 -8.99282e-22)
(0.665356 0.127907 0)
(0.877821 0.158785 -1.165e-21)
(1.00947 0.189308 -6.50303e-22)
(1.09785 0.211688 5.91005e-22)
(1.18034 0.207625 -1.72438e-23)
(1.15751 0.22488 1.48731e-22)
(0.637317 -0.167663 2.65578e-27)
(0.770404 -0.200223 6.48334e-22)
(0.911919 -0.220905 2.83043e-22)
(1.06128 -0.230309 -8.57577e-22)
(1.17855 -0.227464 0)
(1.28093 -0.207896 -5.4224e-21)
(1.12225 0.0118734 5.04582e-22)
(1.11477 0.013537 1.57513e-21)
(1.11081 0.00994106 7.91149e-25)
(1.09987 -0.000696974 6.65971e-22)
(1.10039 0.00480098 -3.43418e-22)
(1.11317 0.0120881 -5.05688e-22)
(0.515268 -0.126455 1.77693e-28)
(1.11353 0.00543634 -2.13787e-22)
(1.11379 0.00751787 2.18678e-22)
(1.11428 0.00253307 0)
(1.11457 0.00362014 1.04761e-22)
(1.11268 0.00186481 1.80123e-27)
(1.11382 0.00190481 7.72914e-24)
(1.10962 0.00211292 6.32322e-29)
(1.11136 0.00203972 0)
(1.10542 0.000684287 2.82101e-28)
(1.10764 0.00173316 0)
(1.10047 -0.00397699 0)
(1.10302 -0.00122209 0)
(1.09511 -0.0119155 0)
(1.09782 -0.00758828 0)
(1.08988 -0.0226689 0)
(1.09243 -0.0169726 0)
(1.08566 -0.0362801 -1.50111e-24)
(1.08757 -0.0291177 -1.11274e-28)
(1.08351 -0.0530079 0)
(1.08426 -0.0442783 0)
(1.08442 -0.0726322 1.04934e-28)
(1.08354 -0.0625179 -1.22995e-28)
(1.08926 -0.0945597 -1.86587e-24)
(1.08632 -0.083371 1.24171e-28)
(1.09894 -0.1182 1.02241e-28)
(1.09347 -0.106227 -1.19752e-28)
(1.11443 -0.14279 -1.58796e-24)
(1.10594 -0.130462 -1.06971e-28)
(1.13656 -0.167041 0)
(1.12468 -0.155083 0)
(1.1657 -0.189101 2.7092e-25)
(1.15029 -0.178482 -4.35903e-29)
(1.20234 -0.206736 0)
(1.18318 -0.198711 0)
(1.24597 -0.215677 0)
(1.22371 -0.212434 0)
(1.29116 -0.213037 -6.23784e-22)
(1.26938 -0.216177 3.95773e-22)
(1.3332 -0.195811 6.12819e-22)
(1.31279 -0.206238 -8.83257e-22)
(1.35538 -0.179215 8.85053e-21)
(1.37095 -0.168102 -4.27851e-21)
(1.352 -0.183096 8.9549e-21)
(1.17287 0.173656 -1.262e-23)
(1.19958 0.229169 1.71602e-23)
(1.2072 0.209623 8.30584e-22)
(1.18809 0.192114 0)
(1.15349 0.135912 -4.31445e-23)
(1.16147 0.154548 -8.90172e-23)
(1.14768 0.102774 2.59601e-22)
(1.14936 0.118763 0)
(1.15104 0.0768085 -8.49188e-23)
(1.14854 0.0888247 1.79304e-22)
(1.15897 0.0606224 0)
(1.15465 0.0675164 0)
(1.16687 0.0521736 1.08733e-24)
(1.16308 0.0555753 0)
(1.17245 0.0494054 1.40529e-28)
(1.17002 0.0501778 -1.67181e-28)
(1.17448 0.0504477 -1.14793e-25)
(1.17396 0.0495923 0)
(1.17244 0.0529746 1.23553e-28)
(1.17394 0.0516404 -1.47056e-28)
(1.16686 0.0551374 0)
(1.17003 0.0541754 0)
(1.15877 0.0558729 8.11085e-25)
(1.16305 0.0556974 -1.25253e-28)
(1.14936 0.0549433 -8.01171e-25)
(1.15416 0.0556074 0)
(1.13957 0.052199 8.89064e-29)
(1.14448 0.0538092 -1.05932e-28)
(1.13001 0.0475024 -1.26105e-24)
(1.13474 0.050069 0)
(1.12134 0.0416508 0)
(1.12554 0.0446228 0)
(1.11415 0.0360454 -1.04599e-24)
(1.11757 0.0387509 0)
(1.10871 0.0308726 3.11511e-23)
(1.11123 0.033471 -2.98182e-22)
(1.10483 0.0247417 -5.99154e-23)
(1.10632 0.0280272 2.62661e-22)
(1.10208 0.0158476 6.0064e-22)
(1.10306 0.0206674 0)
(1.10094 0.0104653 -3.86492e-22)
(1.12887 0.00714665 0)
(1.12758 0.0096261 -4.59405e-22)
(1.11615 0.00241741 5.39504e-23)
(1.1262 0.00461725 0)
(1.07871 0.0018417 0)
(1.09936 0.00138244 -5.3213e-23)
(1.05154 0.00646208 0)
(1.06085 0.00387958 0)
(1.06387 0.00918671 3.3784e-27)
(1.05301 0.00852395 0)
(1.09586 0.00580453 5.60936e-23)
(1.07993 0.00815692 -7.55067e-24)
(1.11408 -8.83265e-05 1.08109e-22)
(1.10796 0.00281698 -1.07587e-22)
(1.1147 -0.00233478 0)
(0.33777 -0.0232089 0)
(1.09953 -0.00568007 0)
(0.305832 0.0654055 0)
(0.437318 0.125714 -2.5733e-26)
(0.674382 0.162086 0)
(0.861109 0.192626 1.60863e-21)
(1.00563 0.221608 1.01118e-22)
(1.10664 0.242262 -9.32955e-24)
(0.560378 -0.132814 -4.00739e-27)
(0.705195 -0.165894 -5.34839e-25)
(0.870641 -0.190886 1.20841e-21)
(1.01845 -0.203834 -2.35692e-21)
(1.17533 0.250525 0)
(1.23022 0.224874 1.8965e-22)
(1.22336 0.248578 0)
(1.16311 -0.197561 5.09091e-21)
(1.29007 -0.1829 1.61005e-20)
(1.38023 -0.160445 4.38491e-22)
(1.10667 0.0143502 2.11676e-23)
(0.363456 -0.0544263 -3.68592e-28)
(1.37749 -0.163065 -2.0022e-21)
(0.449807 -0.0947523 -2.39775e-28)
(1.08792 -0.0119129 -1.84642e-21)
(1.1034 0.0106003 3.37051e-22)
(1.10236 0.0141388 -4.74757e-21)
(1.10465 0.00564247 0)
(1.10399 0.00831568 2.79498e-22)
(1.10472 0.00209066 5.87278e-27)
(1.10477 0.00360934 -5.55306e-23)
(1.10301 0.000783757 -1.59169e-27)
(1.10403 0.0011806 9.23521e-28)
(1.10005 0.000450953 6.41248e-29)
(1.10166 0.00063579 0)
(1.09617 -0.00133218 1.23186e-28)
(1.09818 -0.000130131 -1.44643e-28)
(1.09187 -0.00617448 0)
(1.09405 -0.00334676 0)
(1.08748 -0.0141328 0)
(1.08966 -0.00981856 0)
(1.08338 -0.0246178 7.9803e-29)
(1.08535 -0.0191001 -9.36563e-29)
(1.08031 -0.0375229 1.5012e-24)
(1.08165 -0.0307701 0)
(1.07923 -0.0530862 8.96253e-29)