/*--------------------------------*- C++ -*----------------------------------*\
  =========                 |
  \\      /  F ield         | OpenFOAM: The Open Source CFD Toolbox
   \\    /   O peration     | Website:  https://openfoam.org
    \\  /    A nd           | Version:  10
     \\/     M anipulation  |
\*---------------------------------------------------------------------------*/
FoamFile
{
    format      ascii;
    class       surfaceScalarField;
    location    "23.5";
    object      phi;
}
// * * * * * * * * * * * * * * * * * * * * * * * * * * * * * * * * * * * * * //

dimensions      [0 3 -1 0 0 0 0];

internalField   nonuniform List<scalar> 
57492
(
0.000248196
-1.12659e-05
-4.61062e-05
-0.000190824
-0.000173595
0.000283306
0.000138485
-2.91106e-05
8.19492e-05
0.000327364
-0.000380203
0.00315948
0.00338651
-0.000271935
-0.00627405
-0.00862818
0.00404532
0.00774234
0.00105404
-0.000978389
-0.000512038
0.000436385
-0.00189351
0.000358267
-0.000140012
0.00167525
0.000391198
-0.00123066
0.00150474
-0.00462694
0.0044221
-0.0012999
0.00127587
0.0042478
-0.00401893
-0.000676592
-0.000225784
0.000749642
0.000152734
-0.000127133
-0.000893764
0.000344305
0.000256783
-0.000353704
-3.02116e-05
-5.85081e-05
8.95062e-05
0.0023909
-0.00228932
-0.00086099
0.000759415
0.000327065
0.00192506
0.000138766
-0.000323895
0.00078728
0.00333923
-0.00380261
-0.000661256
0.00326503
-0.00292767
0.000135776
-0.000289673
0.000153898
-0.00167153
0.00122528
0.000582018
-0.00467133
0.000197694
0.00334703
0.0011266
0.00122139
-0.00473984
-0.00115288
-0.000135286
-0.000217556
-0.000730825
0.00108367
-0.000301168
0.000188734
-2.28523e-05
-0.00262944
0.00222213
0.000765685
-0.000358378
-0.00311622
0.000914768
-0.000427987
-0.00112665
0.000594959
0.000457125
7.45612e-05
-0.000778625
-0.000361594
1.35735e-05
-0.000369649
-0.00114189
0.00130195
0.000209587
-0.000419046
0.000117422
-6.80247e-05
0.00109969
-0.000734146
-0.000683333
0.000317793
-0.000950395
0.000744873
0.00130521
-0.00128859
-0.00247228
0.00232871
0.00143216
-0.0028672
-0.000702623
0.00228123
-0.000711901
-0.000153502
0.000865403
-0.0002731
-0.000438801
-0.00138263
0.00190345
-0.000793919
0.000204308
-0.000772094
-0.000814847
-0.000851506
0.00120977
-0.000234494
-0.00190169
0.00115075
0.000750945
-0.00432136
0.00241966
0.00472417
-0.000948005
0.000485472
-0.00426164
0.00349629
4.2805e-05
0.00118508
-0.000848543
0.00460314
-0.0047026
0.0020492
0.000427522
-0.00208552
0.00205297
-0.000143781
0.00245792
-0.000919208
-0.00182369
0.000284981
0.0027543
0.000131137
0.00130454
-0.000800404
0.00154884
0.00120563
0.00177416
-0.00467319
-0.000655332
0.000582998
0.00474552
-0.00480755
-0.000329421
0.000463782
0.00114154
0.00451125
-0.00443484
-0.00121795
0.000810369
-0.00429577
-0.00295772
0.00260077
0.00265898
-0.00230203
-0.00039396
0.00329159
-0.00585536
1.42892e-05
-0.000126968
-6.53568e-07
0.000113332
-0.000343969
4.55477e-06
7.31743e-05
-0.000144364
-0.00027278
-6.12945e-05
7.50122e-06
1.31971e-05
-1.38506e-05
9.78842e-06
3.40865e-06
0.00740682
0.00378469
-0.00594543
-0.00524608
0.00231885
-0.000688236
0.00577621
-0.00793761
0.00306512
0.00719134
0.00226
-0.00641292
0.00161562
-0.0028733
0.00214314
-0.000885462
0.00236776
-0.00292319
0.00217105
-3.13899e-05
2.28965e-05
-2.77243e-06
-7.3668e-05
-3.82803e-06
-0.000233659
-3.08332e-05
-0.00295412
0.00537446
0.00338682
-0.00580716
0.00435786
-0.00494422
0.00297559
0.00477417
-0.0023753
0.0102752
-0.00159157
-0.00175033
-0.00693333
0.00215881
0.00555266
0.00256377
0.0015485
-0.00513629
0.00574659
4.7409e-05
-7.65196e-05
0.000129358
0.000827971
0.00177307
-0.000631977
-0.00196906
0.00105409
0.000101244
-0.000100541
2.78888e-05
7.26517e-05
-0.000309612
0.000209072
-0.00666632
0.0034229
-0.00202261
0.00526604
-0.00578019
-0.00254444
0.0016583
-0.00264125
0.00211127
-0.00525021
0.00197003
-2.62714e-05
-0.000951959
-0.000991797
-0.000717989
0.00224742
0.000440592
-0.000842498
-8.59275e-05
0.000210436
-0.000778492
-9.02775e-05
-0.000273523
-0.00145693
-0.000296775
-7.11923e-05
2.67515e-05
0.000341216
-0.000243728
-0.000615806
0.000562759
0.00016339
2.07132e-05
-0.000427831
9.68644e-05
-4.66643e-06
0.000126784
-3.16822e-06
-0.000646398
0.000372875
8.37196e-05
-0.000730117
0.00017646
-0.000486072
0.00427351
0.00333168
-0.000178479
0.00212874
-0.00648341
-1.02437e-05
0.00226375
-0.00179739
-0.000456115
0.000291971
0.00316389
-0.00346611
0.0032698
0.00195284
-0.000617064
-0.00460558
-0.000953477
0.000398546
0.00382473
0.00409852
-0.00309915
-0.00163093
-0.00303934
0.00122715
0.00344312
-0.00120491
0.00351397
-0.00393999
0.000400911
-0.00464516
9.29087e-05
3.95732e-05
-5.17255e-06
0.00110459
-0.000645932
-0.00063225
8.85485e-05
-0.000364212
0.00138025
0.000391001
-1.91464e-05
-0.000187522
0.000334087
6.86359e-05
-0.000215201
0.000997991
-0.00122425
3.87364e-05
-0.00036026
0.000836084
0.000522167
-0.000126082
9.99087e-05
-0.00618582
0.00364117
0.00596754
0.00775194
-0.00204313
-0.00825326
-0.00289843
0.00446456
-9.7221e-05
-0.000879463
-0.000165205
-0.000525568
9.30039e-06
4.70038e-05
-0.000131133
3.90206e-05
4.51082e-05
-0.00012997
0.000143431
3.35423e-05
-0.000297515
3.64125e-05
-0.000267267
-0.000314555
5.62544e-05
-0.000809217
-0.000337513
-0.00115689
-0.00124469
0.00142903
0.000972547
4.89474e-05
0.000605523
-0.00181136
-0.00162836
0.000432607
-0.00294592
0.00133389
-5.94992e-05
-0.00351231
0.000807111
-0.000240719
0.000876266
-0.00334719
0.00256387
-9.29456e-05
0.000679229
-0.00272797
0.00292501
0.00252851
-0.010197
-0.00177776
0.00219382
0.00303187
-0.00347574
0.00207466
-0.000324704
-1.9324e-06
2.26456e-05
-6.10789e-06
4.17549e-06
0.000285954
-4.14497e-05
0.00522173
-0.00315717
-0.00219613
0.00013157
0.00448987
-0.000116682
0.00479319
3.3011e-05
-0.00522016
0.00129766
0.00341444
8.10873e-05
0.000481677
-0.00305283
0.00386881
5.762e-06
-1.18699e-05
0.000763426
-0.00213663
-0.00286962
0.00124606
0.00311264
0.00123545
-6.93645e-05
-0.00129924
0.000133151
0.000404533
-0.000119478
-0.00158287
0.000330225
0.00199752
0.000279393
-0.00145773
-0.000135286
7.33064e-05
-7.48631e-06
1.28378e-05
-4.83198e-06
-5.19532e-07
1.21647e-05
-2.70473e-07
-1.93806e-05
5.04044e-05
-0.000114265
7.60258e-05
-0.00178477
0.00274526
-0.000784023
0.00296262
-0.00388357
-0.000863823
-6.79719e-07
-0.00214419
0.0024751
-0.00405686
0.000252412
-0.00277659
-0.00186922
0.000588948
0.0027095
0.00291194
-0.00542375
0.00260176
0.00431711
-0.00420937
0.00223936
-0.00309024
0.00161181
-0.000760929
0.00245324
-0.00302974
0.00281585
0.00438912
0.00186985
0.00493514
-0.000262769
-0.00490765
0.000235278
0.00545785
-0.000682996
0.000160285
0.00552223
-0.000849785
2.32889e-05
-0.00469574
0.00396751
-0.0013213
0.00287602
0.00431578
-0.00137717
0.00111186
-0.00405046
0.00123734
0.00439844
-0.00132001
-0.00388581
-0.00164261
0.00415125
0.00104094
-0.0036996
-0.00183038
0.00363089
-0.00235589
-0.00325372
0.00212768
0.00348193
-0.00237692
-0.00328328
0.00330431
0.00221987
0.00306388
-0.00146134
-0.00382241
0.00303847
-0.00319552
-0.00257444
0.00259363
0.00301928
-0.00203117
0.00252061
-0.00408426
0.00363074
-0.00100782
-0.00508812
0.00103974
0.00539822
-0.00134984
0.00190277
-0.000370863
0.0011415
-0.00120289
0.000432257
-0.000196111
0.00144513
-0.00161988
-5.61865e-05
0.000326643
0.000120545
-0.0015757
-0.00241073
0.00155958
-2.12287e-07
-5.81851e-08
2.82443e-07
-4.94734e-07
-0.000155338
-0.00268712
0.00204205
-0.00236142
-0.000107695
0.00231378
7.65945e-05
-0.00247538
3.73597e-05
-0.00039985
0.00191698
0.000428451
-0.00194558
0.00204446
0.000449257
-0.00289357
0.00191253
0.0020489
-2.95871e-06
9.67445e-07
4.15644e-05
-4.72262e-06
1.76391e-06
-3.75517e-06
-6.06319e-06
4.99031e-06
-6.02216e-05
1.3591e-06
-7.42229e-06
6.34941e-06
-4.63627e-05
2.2392e-05
-0.000277197
2.37343e-05
-7.00969e-05
4.61262e-05
5.35654e-05
-5.39418e-06
-0.000174253
-1.70306e-05
7.0596e-05
-2.24248e-05
0.00134331
0.00329516
-0.00423993
0.00143397
-0.00453622
0.00444557
0.00469089
3.82428e-05
-0.0011852
-0.0024451
0.00116104
0.00246926
-0.000708462
0.00272093
-0.00319767
0.000160252
-0.00331381
0.00412
-0.00415825
-1.3206e-05
5.14537e-05
0.00411886
3.704e-05
-3.59e-05
-2.59497e-05
-0.00415125
1.89588e-05
0.00415028
-1.52594e-06
-2.98969e-05
0.00422461
6.00791e-05
-0.000134407
2.93679e-05
0.00433033
-0.000135089
0.00427826
-0.00425247
3.58117e-06
-0.000201741
0.00453302
-9.49135e-07
0.00415965
-8.31333e-05
-0.00412174
-7.06518e-05
-0.00410699
-1.62696e-05
-0.00410065
3.0698e-05
-0.00418794
7.40835e-05
-0.00411872
-9.51688e-05
-0.000195696
0.0047299
-1.1816e-06
0.00396569
-1.73995e-06
-2.07327e-05
-0.00411551
-1.50144e-05
-0.00415143
1.19782e-05
-2.93582e-05
-0.00435214
0.000265988
-4.77441e-07
0.00473111
-7.35924e-07
0.00396735
-2.13466e-06
-0.00430284
0.000122049
0.00473239
-2.91674e-07
-9.83975e-07
-4.20675e-07
0.00473335
-5.40964e-07
0.00396863
-1.5721e-06
0.00397019
-1.98538e-06
-2.47937e-05
-0.00432475
-2.59677e-06
-0.00432469
-2.94555e-06
-1.68233e-07
0.00473433
-8.09196e-07
0.00397145
-1.42151e-06
-3.97526e-07
-0.00432182
-2.52678e-06
-0.00432154
-3.54479e-06
-1.72762e-07
0.00473487
-3.69797e-07
0.00397312
-1.84962e-06
-2.56676e-07
-0.00431853
-3.03958e-06
-0.00431851
-3.29262e-06
3.2253e-07
0.0047352
-6.55571e-07
0.00397473
-1.28576e-06
-3.53458e-07
-0.00431519
-2.98361e-06
-0.00431496
-3.90041e-06
8.03293e-07
0.00473462
-2.19361e-07
0.00397726
-1.72802e-06
-1.85327e-07
-0.0043115
-3.50628e-06
-0.00431146
-3.68177e-06
2.27862e-06
0.00473286
-5.21366e-07
0.0039807
-1.16055e-06
9.73956e-06
-0.00431775
-3.48398e-06
-0.00429741
-4.30815e-06
4.70823e-06
0.00472824
-8.8002e-08
0.00398702
-1.61164e-06
2.7928e-05
-0.00419271
-0.000152973
-0.00422084
-4.86422e-05
1.0079e-05
0.00471856
-4.03536e-07
0.00397969
1.74107e-05
2.76855e-05
-0.00420956
-1.0838e-05
-0.00418617
-6.98693e-06
2.02093e-05
0.00469832
3.24418e-08
0.00395229
4.76115e-05
5.97215e-05
-0.0040581
-0.000211178
-0.00406223
-6.42175e-05
0.00020101
0.00449761
-2.9247e-07
0.00407302
8.02823e-05
6.87921e-05
-0.00403663
-9.02566e-05
-0.0040146
2.11634e-05
0.000177461
0.00416647
0.000153677
0.00414063
0.000109844
0.00010973
-0.000158127
-0.00398824
-0.00399551
9.06387e-05
1.20004e-05
4.02114e-05
0.00411426
0.00411413
3.85049e-05
-0.00405145
0.00411836
-0.000157158
-0.00407098
-0.000138599
0.000187365
-0.000166526
-0.00400908
9.10291e-05
-0.00389918
-0.00403311
0.00407126
-4.89881e-05
-0.000125927
-0.00392622
0.00392991
-7.17547e-06
-7.93496e-06
-0.00393337
0.00393664
-6.25746e-06
-6.96592e-06
-0.00393971
0.00394263
-5.44189e-06
-6.11164e-06
-0.00394539
0.00421611
-4.73266e-06
-5.35284e-06
-0.00420578
0.00414956
7.51858e-05
-4.69313e-06
-0.00428442
0.00425205
-3.53248e-06
-8.34077e-05
-0.004117
0.00405785
-7.5265e-05
0.000105159
-0.00396243
0.00396408
-2.59304e-06
-3.96671e-05
-0.00396562
0.00396709
-2.20464e-06
-2.72593e-06
-0.00396847
0.00396979
-1.85811e-06
-2.36777e-06
-0.00397103
0.00397221
-1.55147e-06
-2.05059e-06
-0.00397333
0.00397439
-1.28051e-06
-1.77071e-06
-0.00397539
0.00397634
-1.041e-06
-1.52444e-06
-0.00397725
0.0039781
-8.2511e-07
-1.30605e-06
-0.00395538
0.00404895
6.01047e-05
2.2435e-05
0.00403926
4.98964e-05
-2.51275e-05
7.96215e-05
0.00405976
-4.18398e-06
0.00409319
0.00406411
-0.00399663
1.28037e-05
-0.00410413
0.00409581
4.68329e-05
6.98221e-05
0.00399569
-0.00397633
-1.94457e-06
4.66668e-05
0.00397539
-0.00397438
-2.16919e-06
-2.55922e-06
0.00397332
-0.0039722
-2.40909e-06
-2.78255e-06
0.00397102
-0.00396977
-2.67368e-06
-3.02526e-06
0.00396846
-0.00396706
-2.96894e-06
-3.29601e-06
0.0039656
-0.00396404
-3.30015e-06
-3.59909e-06
0.00404323
-0.00403597
-3.67645e-06
-3.94112e-06
0.0041023
-0.00405642
-6.21442e-05
-4.32704e-06
0.00402836
-0.00400036
4.60868e-05
2.63588e-06
0.00404875
-0.0040732
3.64337e-05
-4.67847e-05
0.00394534
-0.00394259
-5.69814e-06
-5.81038e-06
0.00393969
-0.0039366
-6.38696e-06
-6.44292e-06
0.00393334
-0.00392985
-7.16794e-06
-7.1641e-06
0.00392617
-0.00396676
-8.05863e-06
-7.98641e-06
0.00396482
-0.00401996
-9.07633e-06
-8.92499e-06
0.00398879
-0.00392772
2.95704e-05
-1.00094e-05
-0.00388166
4.49677e-05
-0.00409881
-0.000138696
0.00405214
6.67419e-05
-7.05251e-07
0.00409233
0.000144193
-0.000133166
-0.0039102
0.000110626
-0.00384809
0.000140602
-0.000135204
-0.00410421
-0.00400164
-0.00402837
0.00396613
-9.49188e-05
0.00407119
-0.00410189
-0.000107991
-9.57859e-05
-0.00391883
0.0039228
-5.2961e-05
-7.8621e-05
-0.00392669
0.00393036
-1.08444e-05
-1.18193e-05
-0.00393379
0.00393704
-9.50857e-06
-1.04021e-05
-0.00394009
0.00394298
-8.33234e-06
-9.1609e-06
-0.0039457
0.00394826
-7.29768e-06
-8.06805e-06
-0.00395068
0.00403226
-6.39088e-06
-7.11006e-06
-0.00395511
0.00395716
-5.58033e-06
-6.264e-06
-0.00406784
0.00399744
-4.86485e-06
-5.52228e-06
-0.00396262
0.00396426
-4.22857e-06
-4.84727e-06
-0.00396579
0.00396726
-3.66633e-06
-4.26273e-06
-0.00396863
0.00396994
-3.16819e-06
-3.74282e-06
-0.00397117
0.00397235
-2.72721e-06
-3.2836e-06
-0.00397346
0.00397451
-2.33699e-06
-2.87785e-06
-0.00397551
0.00397646
-1.99139e-06
-2.51969e-06
-0.00397735
0.00397821
-1.68047e-06
-2.20196e-06
-0.00397871
0.00401145
2.73677e-05
2.19315e-05
9.45365e-06
-1.83723e-05
0.00406868
1.86136e-06
0.00405974
-0.00399992
0.00403997
2.66949e-05
6.14261e-05
0.00404191
-0.00404242
4.73431e-05
0.00400978
3.14239e-05
-1.55447e-06
4.65949e-05
0.00404729
0.00407326
0.00404258
-0.00401255
-1.72322e-05
6.99791e-05
0.00397734
-0.00397644
-2.84949e-06
1.1462e-05
0.00397549
-0.00397449
-3.17218e-06
-3.50315e-06
0.00397344
-0.00397233
-3.52454e-06
-3.83009e-06
0.00397116
-0.00396992
-3.91656e-06
-4.19208e-06
0.00396861
-0.00396723
-4.3552e-06
-4.59718e-06
0.00396578
-0.00396423
-4.84708e-06
-5.05179e-06
0.00396261
-0.00396088
-5.40287e-06
-5.5645e-06
0.00395906
-0.00401518
-6.02627e-06
-6.14184e-06
0.00400575
-0.00395293
-6.73029e-06
-6.79535e-06
0.00399219
-0.00394822
-7.53213e-06
-7.53103e-06
0.00394566
-0.00394293
-8.43265e-06
-8.36977e-06
0.00394005
-0.00393698
-9.46032e-06
-9.322e-06
0.00393373
-0.00393027
-1.06304e-05
-1.04057e-05
0.00392661
-0.00392271
-1.19671e-05
-1.16429e-05
0.00391857
-0.00391415
-1.34965e-05
-1.30581e-05
0.00390948
-0.00386466
-1.5249e-05
-1.46843e-05
0.00383782
-0.0037805
5.33116e-05
1.81272e-05
-0.00412699
-0.000110103
9.61657e-05
-0.000159576
-0.00378468
-0.00375192
6.75852e-05
-0.000221297
-0.00384848
2.5553e-05
0.00401628
0.00401624
4.01371e-05
-7.01123e-05
9.08822e-05
-0.00412498
-7.09441e-05
-0.00412616
6.96895e-05
-0.000157357
-0.00369701
4.05877e-05
-0.00372282
-0.00413206
0.00405032
-0.00403798
1.43539e-05
0.00400923
6.66421e-05
7.0661e-05
-3.01731e-05
0.0040068
4.55901e-05
0.00404131
-0.00407951
0.00412781
-0.000119246
-0.000127075
0.000102622
-0.00410171
0.00416623
-7.26313e-05
0.000312839
-0.00440644
-4.03493e-05
-0.00412669
0.00409756
-7.88581e-05
-0.000108988
-0.00404787
0.00398662
-3.36723e-05
-4.60946e-05
-0.00396005
0.00392357
-1.64789e-05
-5.20478e-05
-0.0039274
0.00393103
-1.44701e-05
-1.5656e-05
-0.00393442
0.00393764
-1.27201e-05
-1.37967e-05
-0.00394065
0.0039435
-1.11862e-05
-1.21725e-05
-0.00394618
0.00394872
-9.83811e-06
-1.07471e-05
-0.00395111
0.00395336
-8.65057e-06
-9.49468e-06
-0.00395549
0.00395751
-7.60066e-06
-8.39106e-06
-0.00395941
0.00396121
-6.6719e-06
-7.41537e-06
-0.00396291
0.00396453
-5.84592e-06
-6.54862e-06
-0.00396605
0.0039675
-5.11455e-06
-5.78353e-06
-0.00396886
0.00397016
-4.46626e-06
-5.10488e-06
-0.00397138
0.00397255
-3.89231e-06
-4.50498e-06
-0.00397364
0.00397469
-3.38423e-06
-3.97464e-06
-0.00397568
0.00397662
-2.93417e-06
-3.506e-06
-0.00397751
0.00397836
-2.53152e-06
-3.09066e-06
-0.00399014
0.00399754
1.99676e-05
1.01546e-05
2.09836e-05
2.63659e-05
-9.8523e-06
0.00405217
-4.23679e-05
1.11836e-05
0.00404746
0.00404373
0.00403323
0.00403071
-0.00402593
4.25681e-05
-0.00402537
0.00400386
6.1649e-05
3.67629e-05
0.00397913
-0.00399299
-3.36876e-06
2.31749e-05
0.00397748
-0.00397658
-3.747e-06
-4.051e-06
0.00397565
-0.00397466
-4.1652e-06
-4.43696e-06
0.00397362
-0.00397252
-4.62867e-06
-4.86708e-06
0.00397136
-0.00397013
-5.1464e-06
-5.34671e-06
0.00396884
-0.00396747
-5.72666e-06
-5.88445e-06
0.00396604
-0.0039645
-6.37829e-06
-6.48863e-06
0.0039629
-0.00396119
-7.11309e-06
-7.16937e-06
0.00395939
-0.00395748
-7.94109e-06
-7.93759e-06
0.00395547
-0.00395332
-8.87559e-06
-8.80584e-06
0.00395107
-0.00394866
-9.93563e-06
-9.78842e-06
0.00394613
-0.00394343
-1.11355e-05
-1.0903e-05
0.00394058
-0.00393754
-1.24999e-05
-1.21693e-05
0.00393433
-0.00393091
-1.40542e-05
-1.36113e-05
0.00392729
-0.00392343
-1.58294e-05
-1.52576e-05
0.00391935
-0.00391498
-1.78616e-05
-1.71411e-05
0.00391037
-0.00390542
-2.01946e-05
-1.93026e-05
0.0038655
-0.0037893
-2.28952e-05
-2.17904e-05
0.00374303
-0.00374601
4.35663e-05
2.1324e-05
5.48813e-05
-5.84553e-05
-0.00371925
-0.00372287
3.17334e-05
0.000125523
-0.00414788
-9.7027e-05
-0.00390881
3.86624e-05
0.00398175
0.00401802
3.14273e-05
0.000153938
-0.00432828
8.7267e-06
-0.00376419
0.000862459
-0.00346957
0.00451964
-4.97709e-05
2.17527e-05
-0.00369485
-9.0679e-05
-0.00367834
-0.00274095
0.00417633
0.000613523
-0.0021316
-0.00018089
-0.00410356
-0.00396427
0.00413522
0.00014189
0.000325259
-0.000113202
-0.00409837
0.00406427
-8.51413e-05
-3.50226e-06
-0.00403402
0.00398185
-2.66927e-05
-7.87381e-05
-0.00396089
0.00395058
-2.33653e-05
-2.51307e-05
-0.00392059
0.00392461
-2.04985e-05
-2.20607e-05
-0.00392838
0.00393193
-1.80269e-05
-1.94188e-05
-0.00393527
0.00393842
-1.58751e-05
-1.71298e-05
-0.00394138
0.00394419
-1.39918e-05
-1.51323e-05
-0.00394682
0.00394932
-1.2337e-05
-1.33812e-05
-0.00395167
0.0039539
-1.08788e-05
-1.18415e-05
-0.00395599
0.00395798
-9.59078e-06
-1.04843e-05
-0.00395985
0.00396163
-8.45083e-06
-9.28546e-06
-0.0039633
0.0039649
-7.43983e-06
-8.22304e-06
-0.0039664
0.00396782
-6.54292e-06
-7.28278e-06
-0.00396917
0.00397045
-5.74751e-06
-6.44884e-06
-0.00397165
0.00397281
-5.04269e-06
-5.71071e-06
-0.00397389
0.00397492
-4.41856e-06
-5.05772e-06
-0.0039759
0.00397683
-3.86567e-06
-4.48032e-06
-0.00397771
0.00397855
-3.37395e-06
-3.96912e-06
-0.00399222
0.00401513
-2.93903e-06
-3.51602e-06
-0.00400605
0.00400418
1.62255e-05
3.00591e-05
-0.00402041
0.00401632
4.27507e-05
5.0415e-05
5.53906e-05
-3.09276e-05
0.004023
-3.36666e-05
6.45726e-06
0.00404353
0.00400348
3.92924e-05
1.57652e-05
0.00399711
0.0040521
-2.68104e-05
1.78517e-05
0.00401576
0.00402219
-2.21064e-05
1.6305e-06
0.0040385
0.00403706
0.00404093
-0.00402627
4.69817e-05
-0.00410375
0.00399469
0.000110698
-3.13935e-05
0.00401583
-0.00400692
3.36633e-05
2.63249e-05
0.0039793
-0.00397849
-4.16913e-06
-4.45265e-06
0.00397766
-0.00397678
-4.63151e-06
-4.8817e-06
0.00397586
-0.00397488
-5.14493e-06
-5.35817e-06
0.00397386
-0.00397277
-5.71791e-06
-5.89013e-06
0.00397163
-0.00397041
-6.35927e-06
-6.48556e-06
0.00396915
-0.00396779
-7.07908e-06
-7.15391e-06
0.00396638
-0.00396487
-7.88817e-06
-7.90547e-06
0.00396328
-0.0039616
-8.8001e-06
-8.75235e-06
0.00395983
-0.00395794
-9.82859e-06
-9.70836e-06
0.00395595
-0.00395384
-1.09907e-05
-1.07888e-05
0.00395162
-0.00394925
-1.23067e-05
-1.20116e-05
0.00394675
-0.00394409
-1.37982e-05
-1.33986e-05
0.00394128
-0.00393829
-1.54932e-05
-1.49738e-05
0.00393513
-0.00393176
-1.74236e-05
-1.6767e-05
0.00392821
-0.00392441
-1.96277e-05
-1.88135e-05
0.0039204
-0.00391611
-2.2151e-05
-2.11545e-05
0.00391157
-0.00390671
-2.50492e-05
-2.38403e-05
0.00390157
-0.00389607
-2.83965e-05
-2.69335e-05
0.00384423
-0.00376838
-3.22884e-05
-3.05153e-05
0.00376669
-0.00374759
2.65434e-06
3.00461e-05
2.90851e-05
-3.13732e-05
-0.00369256
-0.00371641
-2.09133e-06
0.000121632
-0.00411558
-2.89708e-05
-0.00387112
0.000312293
-0.00377811
9.37119e-06
-0.00386424
0.0040179
-0.00402339
4.82341e-05
0.00400423
2.01317e-05
4.84537e-05
-3.27526e-05
0.0040228
1.09883e-05
0.00403215
0.000306489
-0.0033268
1.81288e-05
-0.00372784
-0.0019789
-0.00209828
-0.00325017
0.00374119
0.000122509
5.64375e-05
-3.66024e-05
-0.00371239
2.5745e-05
-0.00368572
-0.00301771
-0.000413352
-0.0040109
-0.00390725
0.00396254
8.65999e-05
0.00015919
-0.00399779
0.00394878
-3.61275e-05
-3.8751e-05
-0.00390396
0.00390888
-3.16222e-05
-3.39141e-05
-0.00391352
0.0039179
-2.77519e-05
-2.97637e-05
-0.00392203
0.00392593
-2.44016e-05
-2.61831e-05
-0.00392959
0.00393306
-2.14943e-05
-2.30812e-05
-0.00393631
0.0039394
-1.89583e-05
-2.03835e-05
-0.00394229
0.00394504
-1.67371e-05
-1.80268e-05
-0.00394762
0.00395006
-1.47849e-05
-1.596e-05
-0.00395236
0.00395455
-1.30639e-05
-1.41417e-05
-0.0039566
0.00395856
-1.15437e-05
-1.25383e-05
-0.00396039
0.00396214
-1.01981e-05
-1.11216e-05
-0.00396378
0.00396535
-9.00521e-06
-9.86701e-06
-0.00396682
0.00396822
-7.94666e-06
-8.75571e-06
-0.00396955
0.00397081
-7.00735e-06
-7.77003e-06
-0.00397199
0.00397312
-6.17458e-06
-6.89673e-06
-0.00397419
0.00397521
-5.43651e-06
-6.12353e-06
-0.00397617
0.00397708
-4.78278e-06
-5.43937e-06
-0.00397795
0.00397878
-4.20303e-06
-4.83392e-06
-0.00397956
0.00398031
-3.68791e-06
-4.2976e-06
-0.00401419
0.00400085
2.95703e-05
-3.82328e-06
2.78744e-05
4.2342e-05
-6.83272e-05
0.00404898
-1.68738e-05
2.94679e-05
0.00403093
0.00402894
-2.0497e-09
-5.70359e-07
0.00399768
0.00398377
-3.78916e-05
5.64352e-05
0.00399721
0.00398373
0.00406074
0.00404333
-0.00403093
3.45843e-05
-0.00399351
0.00403437
6.98307e-05
1.84286e-05
0.00401837
-0.00398024
-4.46981e-06
1.37656e-05
0.0039795
-0.00397871
-4.95623e-06
-5.19364e-06
0.00397789
-0.00397702
-5.50037e-06
-5.69946e-06
0.00397612
-0.00397515
-6.10827e-06
-6.26385e-06
0.00397415
-0.00397308
-6.78865e-06
-6.89603e-06
0.00397196
-0.00397077
-7.55155e-06
-7.60506e-06
0.00396952
-0.00396819
-8.40819e-06
-8.40164e-06
0.0039668
-0.00396531
-9.37188e-06
-9.29787e-06
0.00396376
-0.0039621
-1.04578e-05
-1.03079e-05
0.00396036
-0.00395851
-1.1683e-05
-1.14481e-05
0.00395656
-0.00395448
-1.30674e-05
-1.27365e-05
0.0039523
-0.00394997
-1.46343e-05
-1.41945e-05
0.00394752
-0.00394491
-1.64103e-05
-1.58475e-05
0.00394216
-0.00393922
-1.84277e-05
-1.77242e-05
0.00393613
-0.00393283
-2.07241e-05
-1.98596e-05
0.00392935
-0.00392563
-2.33448e-05
-2.2295e-05
0.00392171
-0.00391752
-2.63436e-05
-2.50794e-05
0.00391308
-0.00390835
-2.97861e-05
-2.82723e-05
0.00390333
-0.00389798
-3.37543e-05
-3.19465e-05
0.0038923
-0.00388624
-3.83487e-05
-3.61911e-05
0.00381508
-0.00376875
-4.36736e-05
-4.11154e-05
0.00372399
-0.00368892
-9.32621e-06
-4.68522e-05
6.52657e-05
-3.54839e-05
-0.0037155
-0.00366175
3.80971e-05
9.11201e-05
-0.0038944
1.66202e-06
-0.00386341
4.74777e-05
0.00398622
0.00401963
2.57282e-05
0.000182412
-0.00365403
-0.000470205
-0.00440226
-5.97554e-05
-0.00373725
1.00386e-05
-0.00385615
1.94034e-05
-0.00378385
-0.00433629
-0.000779701
0.000179289
-0.000482237
-0.00403334
-0.00029818
-0.0039248
-3.54686e-05
-0.00371241
2.35039e-05
-8.86648e-05
-0.00365034
5.89042e-05
-0.00369715
-0.00391812
-0.00354971
0.00371309
-4.08714e-05
0.0037281
-0.00409889
-0.000408907
-0.00023496
-0.00383221
0.00389056
2.82557e-05
4.00671e-05
-0.00389607
0.00390133
-4.13882e-05
-4.42601e-05
-0.0039063
0.00391104
-3.63546e-05
-3.88922e-05
-0.00391549
0.00391972
-3.19817e-05
-3.42213e-05
-0.0039237
0.00392748
-2.81762e-05
-3.01622e-05
-0.00393103
0.00393439
-2.48582e-05
-2.66286e-05
-0.00393755
0.00394055
-2.19566e-05
-2.35444e-05
-0.00394337
0.00394604
-1.94116e-05
-2.08444e-05
-0.00394855
0.00395094
-1.71727e-05
-1.84739e-05
-0.00395319
0.00395532
-1.51979e-05
-1.63869e-05
-0.00395733
0.00395924
-1.34526e-05
-1.45452e-05
-0.00396103
0.00396274
-1.19074e-05
-1.29172e-05
-0.00396435
0.00396588
-1.05373e-05
-1.14755e-05
-0.00396732
0.0039687
-9.32134e-06
-1.01977e-05
-0.00396999
0.00397123
-8.24183e-06
-9.06419e-06
-0.00397239
0.0039735
-7.2841e-06
-8.05914e-06
-0.00397455
0.00397554
-6.43492e-06
-7.16859e-06
-0.00397648
0.00397738
-5.68229e-06
-6.38004e-06
-0.00397823
0.00397904
-5.01518e-06
-5.68203e-06
-0.00397981
0.00398055
-4.42388e-06
-5.06415e-06
-0.00398124
0.00401471
-3.89761e-06
-4.51621e-06
-0.0040182
0.004028
3.84352e-05
2.43807e-05
-0.00397462
0.00399199
3.01117e-05
7.35085e-05
6.62597e-05
-4.8943e-05
0.00401362
-1.32228e-05
-1.00818e-05
0.00401529
0.00403926
4.95008e-05
5.23772e-07
0.00399896
0.0040295
1.86167e-08
-5.67696e-07
0.00399823
0.00398431
1.11229e-06
-1.65941e-06
0.00399776
0.00398427
-2.7733e-05
2.15444e-05
0.00402898
0.00403135
-1.45608e-05
1.94936e-05
0.0040147
0.00403913
0.00404793
-0.00400185
2.3754e-05
-0.00402958
0.00400631
4.27607e-05
4.40807e-05
0.00400949
-0.00400033
2.54236e-05
2.60642e-05
0.00398116
-0.00398046
-5.16674e-06
-5.40188e-06
0.00397974
-0.00397897
-5.72612e-06
-5.9199e-06
0.00397817
-0.00397731
-6.35155e-06
-6.50046e-06
0.00397643
-0.00397548
-7.05223e-06
-7.1513e-06
0.0039745
-0.00397345
-7.83773e-06
-7.88164e-06
0.00397235
-0.00397118
-8.71936e-06
-8.70176e-06
0.00396996
-0.00396866
-9.70997e-06
-9.62371e-06
0.0039673
-0.00396584
-1.08245e-05
-1.06614e-05
0.00396432
-0.0039627
-1.20806e-05
-1.18309e-05
0.00396099
-0.00395918
-1.34977e-05
-1.31507e-05
0.00395727
-0.00395524
-1.50985e-05
-1.46419e-05
0.00395311
-0.00395083
-1.69096e-05
-1.63289e-05
0.00394844
-0.00394589
-1.89619e-05
-1.82404e-05
0.0039432
-0.00394034
-2.12915e-05
-2.04097e-05
0.00393732
-0.00393411
-2.3942e-05
-2.28764e-05
0.00393071
-0.00392709
-2.69645e-05
-2.56875e-05
0.00392327
-0.0039192
-3.04203e-05
-2.8899e-05
0.00391489
-0.00391029
-3.43834e-05
-3.25781e-05
0.00390543
-0.00390024
-3.89439e-05
-3.68064e-05
0.00389475
-0.00388889
-4.42101e-05
-4.1682e-05
0.00388269
-0.00387605
-5.03067e-05
-4.73217e-05
0.00386903
-0.00382096
-5.73981e-05
-5.38729e-05
0.00377369
-0.00369919
-1.55977e-05
-9.16846e-06
1.60101e-06
-4.23229e-05
-0.00365643
-0.00369117
-6.42219e-06
6.14579e-05
-0.00377345
-0.00414772
-0.000433408
3.12867e-05
-0.00374508
0.00404356
-0.00405323
3.97886e-05
0.00404036
-6.88703e-06
4.10693e-05
-3.50957e-05
0.00400873
5.14397e-05
0.00399594
1.8268e-06
-0.00385519
1.07608e-05
-0.00384751
-9.77979e-05
-0.00393763
2.0733e-05
-0.00384005
3.18787e-05
-0.00383295
4.42998e-05
-0.00373697
1.73875e-05
9.25944e-06
-0.00368307
-3.34886e-05
-0.00364029
-0.00385483
-0.00401331
0.00382914
-0.000224739
-0.000365053
0.000480042
-0.00426271
0.00417777
-0.00433902
-0.000203799
-0.000268948
-0.0036972
0.00376682
-0.000110491
-0.000103019
-0.00384651
0.00389366
-1.88893e-05
-3.96288e-05
-0.003899
0.00390407
-4.64585e-05
-4.95969e-05
-0.00390885
0.0039134
-4.09035e-05
-4.36773e-05
-0.00391769
0.00392176
-3.60526e-05
-3.85077e-05
-0.00392559
0.00392923
-3.18154e-05
-3.39952e-05
-0.00393265
0.00393591
-2.81092e-05
-3.00529e-05
-0.00393896
0.00394187
-2.48604e-05
-2.66023e-05
-0.0039446
0.00394719
-2.20061e-05
-2.35756e-05
-0.00394963
0.00395195
-1.94923e-05
-2.09144e-05
-0.00395414
0.00395621
-1.72734e-05
-1.85692e-05
-0.00395816
0.00396002
-1.53112e-05
-1.64982e-05
-0.00396177
0.00396344
-1.3573e-05
-1.46663e-05
-0.003965
0.0039665
-1.20312e-05
-1.30434e-05
-0.00396791
0.00396925
-1.06625e-05
-1.16043e-05
-0.00397051
0.00397171
-9.44697e-06
-1.03272e-05
-0.00397285
0.00397393
-8.36786e-06
-9.19423e-06
-0.00397495
0.00397593
-7.41045e-06
-8.18957e-06
-0.00397685
0.00397773
-6.56143e-06
-7.29933e-06
-0.00397856
0.00397935
-5.80878e-06
-6.51091e-06
-0.0039801
0.00398082
-5.1416e-06
-5.81294e-06
-0.0039815
0.00398215
-4.548e-06
-5.19454e-06
-0.00401117
0.00402607
2.35427e-05
-4.64551e-06
4.63409e-05
1.8334e-05
-4.35399e-05
0.00403882
-2.94527e-05
1.03907e-06
0.00404371
0.00402814
-9.91756e-07
4.7418e-07
0.00399948
0.00398497
4.4714e-08
-5.68769e-07
0.00399875
0.00398483
1.09092e-06
-1.61355e-06
0.00399828
0.00398479
-4.48756e-05
3.27229e-05
0.00404114
0.00398486
0.00403676
0.00404224
-0.00404436
2.58719e-05
-0.00403385
0.00401655
6.0057e-05
5.24702e-05
0.00401276
-0.00398205
-5.29079e-06
-5.52873e-06
0.0039814
-0.00398072
-5.84919e-06
-6.04482e-06
0.00398001
-0.00397926
-6.47748e-06
-6.6278e-06
0.00397848
-0.00397765
-7.1827e-06
-7.28246e-06
0.00397678
-0.00397586
-7.97392e-06
-8.01783e-06
0.0039749
-0.00397388
-8.86186e-06
-8.84391e-06
0.0039728
-0.00397167
-9.85912e-06
-9.77225e-06
0.00397047
-0.0039692
-1.09801e-05
-1.08163e-05
0.00396787
-0.00396646
-1.22416e-05
-1.19916e-05
0.00396497
-0.00396339
-1.36629e-05
-1.33161e-05
0.00396173
-0.00395996
-1.52662e-05
-1.48105e-05
0.0039581
-0.00395612
-1.70767e-05
-1.64984e-05
0.00395405
-0.00395183
-1.91243e-05
-1.84072e-05
0.0039495
-0.00394702
-2.14432e-05
-2.05687e-05
0.00394441
-0.00394163
-2.4074e-05
-2.30202e-05
0.0039387
-0.00393558
-2.70648e-05
-2.58057e-05
0.00393229
-0.00392878
-3.04723e-05
-2.89775e-05
0.00392508
-0.00392114
-3.43645e-05
-3.25976e-05
0.00391697
-0.00391254
-3.8823e-05
-3.67402e-05
0.00390785
-0.00390285
-4.39454e-05
-4.14946e-05
0.00389756
-0.00389192
-4.98493e-05
-4.69678e-05
0.00388595
-0.00387959
-5.66736e-05
-5.32875e-05
0.00387285
-0.00386566
-6.45861e-05
-6.06079e-05
0.00380574
-0.00374754
-7.37925e-05
-6.90972e-05
0.0037174
-0.00371502
-3.58648e-05
-3.65639e-05
-0.00024977
5.81827e-05
-0.00373321
-0.00380307
6.60526e-06
1.97522e-05
-0.00366665
-0.0036481
-6.03144e-05
6.72703e-06
-0.00374889
4.51265e-05
0.00399627
0.00405061
1.73832e-05
0.000154736
-0.00429807
-0.000195687
2.0405e-06
-0.00384647
0.000263096
-0.00437107
-2.40581e-05
-0.00381882
1.15079e-05
-0.00383828
-2.44204e-05
-0.00385503
2.21632e-05
-0.00383033
3.41351e-05
-0.00382279
4.75143e-05
-0.00377522
2.17598e-05
-0.00368508
-3.02221e-05
2.07224e-05
-0.00365715
-3.54402e-05
-0.00364289
-0.00384606
-0.0042711
0.00410437
-3.70699e-05
-0.000299876
-0.00422783
0.000229635
0.00438444
-0.00427301
-0.000411306
-8.23436e-05
-0.00399405
0.0039113
-0.00014199
-0.000158626
-0.00387912
0.00383494
-6.63115e-05
-7.0845e-05
-0.00385749
0.00389691
-5.83146e-05
-6.21739e-05
-0.00390208
0.00390697
-5.13517e-05
-5.47635e-05
-0.00391158
0.00391595
-4.52757e-05
-4.8283e-05
-0.00392007
0.00392398
-3.99639e-05
-4.26259e-05
-0.00392767
0.00393116
-3.53151e-05
-3.76792e-05
-0.00393446
0.00393759
-3.12401e-05
-3.33483e-05
-0.00394054
0.00394334
-2.76616e-05
-2.95499e-05
-0.00394598
0.00394848
-2.45128e-05
-2.62124e-05
-0.00395084
0.00395309
-2.17365e-05
-2.32741e-05
-0.0039552
0.00395721
-1.92839e-05
-2.06819e-05
-0.0039591