/*--------------------------------*- C++ -*----------------------------------*\
  =========                 |
  \\      /  F ield         | OpenFOAM: The Open Source CFD Toolbox
   \\    /   O peration     | Website:  https://openfoam.org
    \\  /    A nd           | Version:  10
     \\/     M anipulation  |
\*---------------------------------------------------------------------------*/
FoamFile
{
    format      ascii;
    class       volScalarField;
    location    "38.5";
    object      p;
}
// * * * * * * * * * * * * * * * * * * * * * * * * * * * * * * * * * * * * * //

dimensions      [0 2 -2 0 0 0 0];

internalField   nonuniform List<scalar> 
6397
(
5.26869
5.19147
-3.38631
-3.80956
-4.97314
-4.68574
8.4527
5.56253
-7.81569
-5.63219
2.91375
-0.992409
-0.244818
-0.185695
-0.244605
-20.3611
-18.0667
-18.8661
11.9602
12.1575
11.3153
-3.75689
-4.62098
-3.56152
-0.135784
-0.0986022
-0.0506816
-1.75902
-2.05231
-1.63367
-1.64039
-2.81833
-2.8362
-3.98114
-0.255908
-0.543189
-1.50564
-1.67985
1.01488
1.16126
0.644891
0.414865
-1.64574
-4.64408
-3.9117
-4.17817
-5.19214
-4.62421
1.54852
1.51922
1.56476
1.46428
1.51019
3.39373
2.67956
3.75088
3.7821
2.47036
-3.70499
-3.86898
-3.32407
-2.83379
-2.36534
-2.00413
-1.80576
-1.76659
-1.86567
-2.12013
-4.76621
-3.71098
-4.65579
-4.51572
-3.96478
-3.29549
-2.64553
-2.11396
-1.76418
-1.58244
-1.54437
-1.62372
-4.22287
-3.36927
-2.54886
-1.83404
-3.59025
-2.90793
-3.1342
-2.13898
-2.8921
-2.44843
-3.76106
-2.50084
-2.26491
-1.75253
-4.24807
-2.76956
-3.10429
-1.6225
-2.30238
-4.75555
-3.97933
-5.34058
-5.27044
-4.28048
-4.98503
-2.64773
-3.44158
-1.52155
-1.99035
-1.07947
-1.23249
-1.07898
-1.03435
-1.37709
-1.21346
-1.50742
-4.08923
-5.7711
-5.05431
-2.51009
-3.19552
-1.78814
-2.04913
-1.72714
-1.67941
-2.19332
-1.90837
-2.72992
-2.48798
-2.6963
-2.80184
-2.14646
-2.43382
-1.7092
-1.87121
-1.35579
-1.54826
-1.08982
-1.53334
-2.84943
-7.10216
-5.9752
-7.40066
-1.47837
-0.520597
-0.510984
-1.65442
-1.38056
-0.760886
-1.88673
-4.38549
-3.03235
-2.12131
-4.87006
-4.00906
-5.47861
-5.42504
-4.24362
-5.05661
-2.38045
-3.284
-1.10697
-1.64681
-0.534079
-0.752328
-0.390596
-0.420138
-0.464622
-0.420255
-0.502858
-4.87935
-6.12726
-2.76602
-3.6972
-1.67213
-2.10837
-1.31814
-1.42388
-1.46783
-1.35932
-1.72791
-1.63418
-1.67793
-1.77544
-1.39586
-1.5452
-1.34056
-1.31856
-1.46617
-1.04148
-1.37772
-0.298419
-0.660841
-6.87858
-5.58624
-2.72128
0.217553
0.20453
-0.493285
-1.35775
-7.79293
-5.80274
-6.44362
-1.70737
-2.18961
0.0521891
0.0575869
0.412498
-2.1049
-1.65026
-4.1339
-1.03835
-0.422984
-2.71858
-1.79445
-4.5597
-3.68749
-5.1418
-5.10641
-3.90029
-4.71344
-1.98193
-2.92241
-0.653297
-1.22054
-0.0262853
-0.273109
0.185697
0.109553
0.226714
0.211191
0.224619
-8.01651
-8.39765
-5.3396
-6.84069
-2.80664
-3.93077
-1.44901
-2.00762
-0.871246
-1.08948
-0.770979
-0.77966
-0.837092
-0.807923
-0.797072
-0.83865
-0.729344
-0.751972
-0.995453
-0.814735
-1.27593
-0.808086
-1.25616
-0.355239
0.183946
-4.79735
-2.4363
-4.87974
-4.56854
-0.502044
-1.24671
0.308632
0.67073
-1.85892
-2.54065
-1.55953
-2.23231
0.377835
0.705096
0.118767
-0.0176417
-0.586976
-2.65013
-3.62687
-0.626758
-0.0528963
-2.18509
-1.334
-3.9002
-3.09794
-4.40668
-4.40041
-3.2188
-3.96273
-1.46688
-2.32773
-0.220214
-0.755318
0.400651
0.153296
0.639835
0.550519
0.714427
0.688344
0.728753
0.726942
0.68988
0.722481
0.481933
0.613327
-8.03385
-4.84026
-6.59062
-8.22678
-8.65952
-5.30499
-6.94042
-2.5839
-3.79556
-1.0982
-1.71384
-0.402657
-0.681198
-0.143683
-0.235623
-0.0716042
-0.098332
-0.0371628
-0.0567952
-0.143051
-0.0542739
-0.608603
-0.317855
-1.0163
-0.652711
-1.22403
-0.135788
-3.51413
-3.26454
-0.246966
0.285728
-3.91195
-2.12536
0.949534
-3.20049
-1.3473
-2.15208
-3.48307
-1.21747
-2.09486
-2.5148
-0.794543
-0.585815
0.0038673
-2.98252
-3.04851
0.666499
1.1576
0.948806
-0.190895
0.300905
-1.5281
-0.793629
-2.98418
-2.29122
-3.40624
-3.44568
-2.34578
-2.9972
-0.852492
-1.58264
0.211957
-0.248422
0.756133
0.534328
0.984248
0.894308
1.06713
1.03625
1.10338
1.09002
1.05732
1.08973
0.881104
0.987682
0.469771
0.717152
-4.33845
-1.55037
-2.77108
-7.40793
-6.02204
-7.58269
-8.01093
-4.75319
-6.33958
-2.11656
-3.28674
-0.661732
-1.26953
0.0638609
-0.235398
0.393431
0.262286
0.538879
0.479302
0.57684
0.568526
0.399598
0.524385
-0.191417
0.164841
-0.692862
-1.32396
-0.721636
-0.415266
0.138172
-3.6939
-3.05381
-3.64735
-4.27966
-2.02508
-2.83776
-0.537453
-1.23094
0.511208
0.0413008
1.15054
0.879354
1.32861
-3.13961
-1.90916
-2.69405
-1.34065
-1.86161
-1.14289
-0.19251
-0.841136
-1.07037
-0.288179
-1.02044
1.30838
1.43548
-2.58391
0.908699
1.13846
0.219744
0.609292
-0.843554
-0.27002
-1.91807
-1.41971
-2.22451
-2.12717
-1.443
-1.9426
-0.254749
-0.83721
0.601077
0.229458
1.03849
0.857911
1.22892
1.14982
1.30818
1.27516
1.34298
1.32835
1.32376
1.34264
1.19118
1.27441
0.8932
1.06579
0.386391
0.676188
-0.868523
0.442895
-0.0853518
-3.33813
-1.9673
-5.9895
-4.79874
-6.24275
-6.56744
-3.77714
-5.14934
-1.49251
-2.50812
-0.199117
-0.745562
0.482631
0.195601
0.821034
0.680832
0.996402
0.920028
1.04972
1.04043
0.844629
0.990823
0.225012
0.592842
-1.03657
-0.317435
-2.90028
-1.90694
-3.85025
-3.99382
-5.20746
-4.74608
-2.11408
-3.07075
-0.433333
-1.21205
0.677896
0.194179
1.28803
1.03431
0.142897
0.782025
-0.872142
-0.00602251
1.52704
1.44116
-2.61967
-1.87442
-2.21819
-1.64349
-1.47744
-1.68694
-0.561205
-1.78156
0.97539
0.342568
-1.87871
-0.506717
-1.67294
1.4025
1.04252
1.45627
-1.04362
0.403306
0.1796
1.55783
1.57327
1.57431
-2.33432
1.40382
1.48493
1.08937
1.26285
0.559624
0.854323
-0.203401
0.205242
-0.961342
-0.609655
-1.17254
-1.14288
-0.621596
-0.974618
0.250474
-0.181116
0.899878
0.614314
1.23851
1.09812
1.38801
1.32336
1.47038
1.42924
1.53799
1.50335
1.551
1.55667
1.43075
1.50609
1.18101
1.32136
0.823739
1.01314
0.628638
0.972243
1.251
-0.112827
0.533249
-2.09347
-1.01101
-4.21203
-3.25483
-4.4633
-4.67589
-2.57632
-3.63893
-0.783802
-1.58259
0.247404
-0.193468
0.828891
0.576988
1.14351
1.01101
1.31723
1.23895
1.38617
1.36109
1.19611
1.33226
0.586868
0.949516
-0.653744
0.0515859
-2.50968
-1.52129
-3.44431
-5.54445
-5.53573
-4.23565
-5.05874
-2.1649
-3.21537
-0.353191
-1.18954
0.81476
0.315982
1.40027
1.1685
1.51085
-2.3784
-2.05189
-2.01342
-2.15551
-1.29711
-2.49971
-0.423927
-2.83445
0.431199
-3.00695
1.44053
1.02002
-2.5807
0.0398937
-1.42244
1.81266
1.42919
1.74388
0.137776
0.986332
1.15675
1.60307
1.58843
1.54406
1.55679
-2.32583
1.44594
1.51074
1.21203
1.34133
0.837099
1.04162
0.326613
0.590308
-0.155482
0.0557502
-0.312094
-0.30012
0.0429962
-0.194208
0.637647
0.335441
1.10432
0.894045
1.36355
1.25436
1.48693
1.43229
1.57293
1.52797
1.63839
1.60785
1.62489
1.64502
1.51601
1.57835
1.37602
1.44299
1.21952
1.30209
1.00495
1.10968
0.945661
1.68949
1.74968
1.36416
1.57522
0.539851
1.02206
-0.884797
-0.108695
-2.3401
-1.67627
-2.59086
-2.69479
-1.34717
-2.06653
-0.0825397
-0.65463
0.66771
0.344758
1.1144
0.915026
1.38041
1.26619
1.53932
1.46633
1.60848
1.60861
1.44505
1.56455
0.895681
1.22759
-0.221638
0.416665
-1.86623
-1.00626
-2.72269
-4.97395
-4.00215
-5.54027
-5.52874
-4.23874
-5.06707
-2.1555
-3.20992
-0.321106
-1.17189
0.88324
0.367906
1.47514
1.24559
1.50726
-2.38507
-2.45993
-2.0182
-2.96017
-1.28502
-3.65673
-0.401866
-4.25309
0.436012
-4.25304
0.97379
-3.26278
1.67544
1.39235
-1.38467
1.48193
0.567414
1.53042
-2.55232
1.52457
1.50317
1.53948
1.45137
1.50821
1.28222
1.38029
1.02901
1.16793
0.706319
0.866172
0.470283
0.548957
0.334229
0.350524
0.523194
0.385503
0.90536
0.703467
1.23373
1.08475
1.429
1.34695
1.53707
1.49016
1.61373
1.57935
1.66035
1.64538
1.65442
1.66382
1.62372
1.64113
1.5641
1.59866
1.46085
1.5154
1.3944
1.41107
1.51855
1.43434
1.87992
1.66305
1.85316
1.76905
1.83533
1.85814
1.88734
1.6386
1.78396
1.06028
1.39717
0.17082
0.632029
-0.66178
-0.272273
-0.931853
-0.921091
-0.27345
-0.679098
0.518259
0.148192
1.03254
0.80831
1.35271
1.2079
1.55953
1.46993
1.67922
1.62807
1.73117
1.72421
1.60475
1.70486
1.14841
1.43154
0.23579
0.756368
-1.13662
-0.415099
-2.40232
-1.84992
-2.71195
-4.60144
-2.60398
-3.74965
-5.08636
-5.0551
-3.95039
-4.69028
-2.04143
-3.01695
-0.308878
-1.11874
0.869092
0.357289
1.43888
1.22491
1.60092
1.53746
1.51541
1.54491
1.57557
1.6754
1.86552
2.13059
-2.62429
-3.14659
-1.74437
-2.21818
-4.1348
1.47301
1.45689
1.44715
-1.40882
-5.18508
-0.441931
-5.77777
0.40372
-5.14543
0.936375
-3.2181
1.31593
-0.749265
1.56284
1.4397
1.24043
2.20931
2.3258
-3.03378
1.4835
1.49258
1.43113
1.47058
1.32132
1.38123
1.15578
1.2398
0.953135
1.05222
0.748137
0.853455
0.744692
0.744876
0.840188
0.77599
1.06629
0.943885
1.30487
1.19493
1.46365
1.39694
1.56723
1.52128
1.65339
1.6132
1.71342
1.68776
1.73426
1.73107
1.69779
1.72405
1.62378
1.66038
1.58577
1.59806
1.60885
1.58102
1.76271
1.66928
2.03223
1.8929
2.26075
2.16646
1.90189
1.72478
1.82839
1.98429
1.95433
1.97632
1.98869
1.82768
1.92731
1.4431
1.66206
0.990793
1.20309
0.578537
0.794506
0.277957
0.367068
0.544689
0.347932
0.997695
0.778989
1.3269
1.18113
1.54058
1.44422
1.68913
1.62437
1.77084
1.73992
1.79843
1.79705
1.69957
1.77728
1.34589
1.56663
0.641421
1.03814
-0.406633
0.1304
-1.40323
-0.96198
-1.67788
-2.14129
-1.18737
-3.76081
-3.08136
-4.25777
-4.17611
-3.40283
-3.98095
-1.81251
-2.63739
-0.298213
-1.01486
0.783854
0.305333
1.35815
1.13263
1.53622
1.47854
1.52973
1.4309
1.59561
2.40772
2.2932
-3.10643
-4.1747
1.41229
1.38514
-2.58404
-5.64406
-1.57999
-6.8208
-0.448913
-6.81875
0.397955
-5.07028
0.888488
-2.26001
1.17587
0.309234
1.25755
1.91102
1.46343
1.29342
2.43198
1.63986
1.55123
1.33512
0.11689
2.40834
2.25993
-3.80354
1.43528
1.44609
1.40915
1.43527
1.34395
1.38377
1.2332
1.28922
1.09989
1.16087
0.997012
1.03989
0.986332
0.986188
1.03256
1.00156
1.16618
1.09094
1.3386
1.2551
1.4724
1.41345
1.56613
1.52381
1.63943
1.60686
1.68702
1.66977
1.70302
1.69884
1.7058
1.70552
1.70391
1.70549
1.69866
1.70152
1.71768
1.69887
1.83996
1.76435
2.03623
1.92852
2.15343
2.11576
2.08862
2.14272
1.81481
1.72551
1.96094
1.89986
2.03208
2.00743
2.04121
2.04965
1.9471
2.00703
1.73171
1.84983
1.55289
1.6247
1.34496
1.47425
1.08842
1.18641
1.11813
1.06127
1.32145
1.21503
1.52335
1.42768
1.67594
1.60755
1.78082
1.73627
1.83149
1.81673
1.83625
1.84303
1.74703
1.80968
1.48584
1.64715
0.963735
1.25481
0.19389
0.587821
-0.523286
-0.213017
-0.799253
-0.714066
-0.725817
-1.35906
-0.594368
-2.67263
-2.07052
-3.24428
-3.09046
-2.71335
-3.10415
-1.53676
-2.15994
-0.314215
-0.90675
0.634594
0.206064
1.19497
0.963427
1.40616
1.33548
1.39894
1.42842
1.35581
1.37553
-3.79587
-5.50483
1.99134
2.17615
1.30093
1.26735
1.25078
1.93468
1.83094
-2.98544
-7.19929
-1.64744
-7.94314
-0.399053
-6.75888
0.403761
-3.92821
0.75637
-0.903056
0.984423
1.32747
1.05383
2.37618
1.4417
1.59796
1.53282
1.32185
1.15623
2.53699
1.20093
1.21244
0.224413
1.15708
-4.83419
1.36244
1.32315
1.3984
1.37652
1.38315
1.39274
1.33505
1.36215
1.2637
1.2995
1.18892
1.22391
1.13719
1.15856
1.12912
1.12986
1.15394
1.13862
1.23635
1.18912
1.36035
1.29875
1.47284
1.42078
1.56151
1.51998
1.64032
1.60097
1.68828
1.66622
1.71425
1.70481
1.7128
1.71724
1.70156
1.70511
1.72071
1.7067
1.77956
1.74455
1.87527
1.8245
1.98428
1.92916
2.03241
2.0247
2.00141
1.73669
1.66778
1.88348
1.80885
2.01495
1.95759
2.08081
2.05615
2.08639
2.08999
2.04296
2.07051
1.95213
1.99939
1.9064
1.92069
1.78227
1.86914
1.57968
1.66411
1.49948
1.50447
1.57082
1.52919
1.66548
1.61778
1.75277
1.71231
1.82236
1.79286
1.85647
1.84848
1.85893
1.86094
1.76371
1.81663
1.57091
1.68608
1.19506
1.40489
0.650835
0.931622
0.170168
0.373931
-0.00540675
0.0158066
0.0342619
0.566759
0.916223
-0.487561
0.0888187
-1.59406
-1.06114
-2.19795
-1.99541
-2.00623
-2.18749
-1.29666
-1.69504
-0.403786
-0.852991
0.386141
0.0177046
0.938149
0.691602
1.23502
1.11989
1.32907
1.30935
1.27163
2.36738
1.12469
1.85303
1.6904
-4.51487
-6.84761
-3.22191
-8.24327
-1.58316
-7.90678
2.04827
-0.286243
-5.5413
0.316461
-2.38036
0.557527
0.297878
1.47516
1.65108
1.64271
1.43968
0.764409
2.04996
1.22589
0.847187
2.60266
1.07052
1.01086
2.55634
0.988824
1.32587
1.31355
1.66406
1.51625
1.3944
-5.88631
1.21942
1.06251
1.15779
1.29562
1.26212
1.33711
1.31448
1.34108
1.34251
1.31967
1.33487
1.28224
1.30404
1.23959
1.26062
1.2129
1.22191
1.21392
1.21037
1.23405
1.22232
1.28818
1.25699
1.37697
1.33128
1.46896
1.42445
1.54732
1.50956
1.6064
1.58054
1.66124
1.63822
1.69209
1.67876
1.70988
1.7026
1.72058
1.71553
1.73073
1.72553
1.76996
1.74323
1.85158
1.80878
1.92474
1.89091
1.91971
1.93349
1.80312
1.87682
1.56884
1.70024
1.30646
1.22664
1.41079
1.72355
1.67948
1.83879
1.78091
1.95034
1.89431
2.0544
2.00696
2.11067
2.08926
2.12429
2.12099
2.11368
2.12137
2.09341
2.10212
2.09657
2.09497
2.00507
2.07207
1.77655
1.9033
1.72992
1.75234
1.73667
1.72602
1.77579
1.75413
1.81551
1.79647
1.84637
1.83295
1.85602
1.85616
1.80769
1.84382
1.75699
1.79669
1.60729
1.69652
1.33816
1.49137
0.965682
1.1615
0.638644
0.784665
0.554749
0.554125
0.724342
0.621879
0.868804
0.992216
1.19643
0.277455
0.689643
-0.615354
-0.172377
-1.24742
-0.990436
-1.41584
-1.38664
-1.1326
-1.32413
-0.580143
-0.875664
0.0301096
-0.269264
0.553296
0.303909
0.944825
0.773847
1.1516
1.07449
1.12725
1.15184
1.05935
-4.97236
-7.72354
1.03312
1.18207
1.01913
-3.12807
-8.21221
2.28103
-1.33129
-6.64377
-0.255027
-3.77633
1.85146
1.66035
1.8237
1.87265
1.70451
0.0861159
-1.00017
1.44944
0.363669
1.19792
1.06829
1.41193
1.18246
0.514307
2.47278
0.96709
0.61039
2.70114
0.828797
1.02369
0.950635
0.936227
0.878459
1.23673
1.41581
0.85361
-6.56535
1.15052
1.09268
1.236
1.19865
1.289
1.26444
1.30566
1.30016
1.29663
1.3043
1.2777
1.28862
1.26215
1.2695
1.25458
1.25696
1.26136
1.25594
1.28057
1.26906
1.32232
1.29825
1.38911
1.35382
1.46445
1.42716
1.53337
1.49974
1.59184
1.56417
1.63894
1.61768
1.66908
1.65587
1.68648
1.6792
1.70278
1.69364
1.72815
1.71462
1.76214
1.74393
1.80483
1.78236
1.84249
1.82763
1.81895
1.84388
1.69624
1.77095
1.47924
1.59754
1.33963
1.78977
1.79288
1.83822
1.80808
1.91603
1.87597
1.99706
1.9554
2.07983
2.04029
2.13967
2.11167
2.15001
2.14355
2.15772
2.15434
2.16832
2.16179
2.18014
2.17773
2.11076
2.16091
1.95696
2.03712
1.87122
1.9086
1.8353
1.8474
1.83653
1.83163
1.85495
1.84395
1.86592
1.86086
1.85635
1.86351
1.81184
1.83814
1.74392
1.78445
1.61767
1.68939
1.41718
1.52646
1.15715
1.29131
0.934815
1.0404
0.886183
0.899111
1.0102
0.939517
1.11515
1.47748
1.47553
1.48598
1.34376
1.44485
0.854978
1.14885
0.169006
0.518282
-0.485102
-0.172568
-0.940952
-0.753303
-1.03452
-1.02922
-0.841394
-0.970498
-0.439412
-0.658236
0.0714169
-0.19418
0.569454
0.339322
0.883132
0.74934
0.936549
0.94506
0.908809
0.830923
0.860317
-4.85596
-7.67662
2.52791
-2.71825
-7.02398
1.92874
2.05929
2.11412
1.98446
-1.11072
-4.73338
2.09548
1.76682
-0.409659
-2.09213
1.49924
-0.205634
0.132245
0.80432
1.54728
1.19888
0.135155
1.90364
1.10974
0.882957
0.213645
2.75882
0.600385
0.327828
0.843426
1.45616
0.617681
0.702816
-6.47796
0.988813
0.836792
0.919422
1.09531
1.04406
1.17969
1.14047
1.23732
1.21222
1.26586
1.25365
1.2742
1.27252
1.27189
1.27469
1.27119
1.27088
1.27064
1.26873
1.28439
1.27591
1.30614
1.29351
1.34218
1.32159
1.39568
1.36713
1.45799
1.42685
1.51803
1.48851
1.57131
1.5456
1.61436
1.59433
1.64508
1.63102
1.66556
1.65661
1.68113
1.67361
1.6997
1.68931
1.73231
1.71441
1.76159
1.74914
1.76856
1.76822
1.73059
1.75848
1.60974
1.68021
1.41406
1.51992
1.16032
1.29197
0.898796
1.02496
0.545661
0.670348
0.781549
1.95113
2.00127
1.90676
1.91823
1.92799
1.91231
1.97726
1.95044
2.0374
2.00638
2.09939
2.06906
2.13501
2.12207
2.16453
2.15269
2.18174
2.1733
2.2004
2.19058
2.20909
2.20854
2.15467
2.19243
2.03859
2.09995
1.94721
1.98762
1.90171
1.91998
1.88289
1.89045
1.87461
1.87815
1.86489
1.87017
1.84278
1.85574
1.7978
1.82247
1.72761
1.7645
1.61668
1.67169
1.45613
1.53241
1.26483
1.3536
1.11212
1.17933
1.06992
1.08355
1.13583
1.10408
1.28841
1.19905
1.38034
1.63055
1.59773
1.58958
1.6352
1.30749
1.48176
0.80422
1.08326
0.103481
0.46843
-0.55154
-0.246681
-1.00594
-0.806121
-1.17977
-1.13581
-1.00981
-1.13437
-0.540851
-0.808348
0.0716936
-0.229979
0.515851
0.319879
0.692614
0.642503
0.769567
0.730208
0.762071
0.777402
2.78273
-4.23785
-6.63467
0.745279
1.62277
2.16276
2.03751
-2.24286
-5.21301
0.558563
0.407975
2.39094
1.83039
-1.10301
-2.90769
0.404162
1.56601
-0.695163
-0.747879
0.519881
1.753
1.24335
-0.537655
1.16278
0.771278
0.841146
-0.233539
2.48974
1.16131
0.367148
-0.114776
3.03882
0.0211211
0.468068
0.58338
0.497522
2.22356
2.32346
-5.62372
0.8195
0.673073
0.749392
0.948899
0.888446
1.04942
1.00168
1.13194
1.09433
1.19257
1.16673
1.22765
1.21275
1.2455
1.23857
1.25521
1.25125
1.26067
1.25911
1.27589
1.26883
1.29375
1.28365
1.31715
1.30387
1.35074
1.33192
1.39699
1.37243
1.44983
1.42337
1.5022
1.47642
1.54968
1.52694
1.58821
1.57008
1.6171
1.60383
1.63795
1.62838
1.65557
1.64707
1.67142
1.66357
1.69097
1.68044
1.70908
1.70135
1.70307
1.71036
1.65377
1.68493
1.53896
1.60525
1.3655
1.45874
1.15042
1.26154
0.938612
1.04043
0.759846
0.845154
0.67495
2.26573
2.40823
2.32018
2.16598
2.21884
2.05811
2.10861
2.00027
2.01947
2.0018
1.99578
2.02752
2.01136
2.07038
2.04713
2.11454
2.09306
2.14055
2.13105
2.17089
2.15845
2.19097
2.18121
2.20821
2.20018
2.20845
2.21229
2.1622
2.19194
2.07547
2.12165
1.99436
2.03296
1.93746
1.96301
1.90222
1.9172
1.88157
1.89068
1.86144
1.8722
1.83032
1.84782
1.78112
1.80815
1.70838
1.74754
1.60518
1.65853
1.4694
1.53711
1.32211
1.39321
1.21234
1.25987
1.17758
1.18356
1.21461
1.18708
1.3052
1.25478
1.45024
1.37633
1.76318
1.69864
1.7971
1.79784
1.66051
1.75942
1.25687
1.4965
0.568751
0.939565
-0.246009
0.17048
-1.04613
-0.661326
-1.58692
-1.3657
-1.65795
-1.68787
-1.21006
-1.4897
-0.480893
-0.852685
0.107942
-0.159191
0.456181
0.313038
0.653672
0.564034
0.686284
0.698738
0.672019
2.10473
-3.43509
-5.08019
0.420821
0.420705
0.460237
1.47002
0.59933
0.330308
2.75585
1.88913
-1.96661
-3.52254
0.237267
1.63505
-1.27413
-1.58109
0.243565
2.03762
1.29509
-1.10852
0.352667
0.422412
0.851069
-0.975919
2.14662
1.27735
0.71825
0.2564
-0.766952
2.99067
-0.234885
-0.484316
2.54674
2.36309
2.20753
-4.42901
0.789924
0.728741
0.910615
0.855076
1.00972
0.963898
1.09003
1.05314
1.15174
1.12413
1.19346
1.17505
1.22008
1.20833
1.23798
1.2296
1.25246
1.24511
1.27139
1.26128
1.29425
1.282
1.32044
1.30648
1.35245
1.33519
1.39328
1.37182
1.43927
1.4163
1.48536
1.46271
1.52772
1.50749
1.56235
1.54604
1.58912
1.57676
1.60863
1.59958
1.62456
1.61697
1.63844
1.63167
1.65085
1.645
1.6559
1.65485
1.64067
1.65178
1.58796
1.61996
1.48265
1.54214
1.32943
1.41103
1.14962
1.24113
0.978458
1.06179
0.819729
0.899581
0.66308
0.742132
0.340118
0.346195
0.538791
0.588851
2.34513
2.49065
2.40062
2.25441
2.30216
2.14603
2.20007
2.07634
2.10242
2.06228
2.06541
2.06988
2.06316
2.09756
2.08198
2.12817
2.11345
2.1506
2.14049
2.17306
2.16268
2.19011
2.18228
2.20024
2.19638
2.19503
2.20087
2.15625
2.18087
2.08505
2.1234
2.00903
2.04466
1.95276
1.97772
1.9144
1.93145
1.88437
1.89843
1.85403
1.8698
1.81595
1.83646
1.76333
1.79144
1.69091
1.72858
1.59479
1.64509
1.47742
1.53922
1.35867
1.42029
1.27217
1.31338
1.24011
1.24735
1.26105
1.23956
1.32244
1.28257
1.42541
1.37149
1.68176
1.57213
1.85934
1.77954
1.9527
1.91475
1.93549
1.9707
1.62961
1.82771
0.946305
1.33079
-0.0416406
0.483363
-1.14531
-0.596691
-2.03376
-1.64018
-2.35832
-2.28414
-1.93953
-2.23525
-1.06151
-1.52058
-0.258573
-0.635949
0.285889
0.0513393
0.54627
0.445221
0.609677
0.593798
0.608524
0.325477
3.22753
1.95306
-2.81593
-3.69095
0.595956
2.61567
0.156655
1.7024
-1.9483
-2.38987
0.52593
0.344196
0.5241
0.0389637
2.65252
2.57968
2.40903
1.35569
-1.60037
-0.662032
0.080899
0.917132
-1.68949
1.38651
1.45431
0.291496
0.320411
-1.57294
3.10408
0.763057
-0.366599
-1.46298
3.21527
0.193358
0.169995
-0.960554
0.155814
2.22663
2.05458
-3.42666
0.763629
0.690199
0.878807
0.826981
0.974514
0.929594
1.05318
1.01613
1.11506
1.08617
1.16074
1.13954
1.19364
1.17826
1.21897
1.20681
1.24086
1.22973
1.26378
1.25193
1.28874
1.27583
1.31683
1.30229
1.34901
1.33226
1.38661
1.36728
1.42726
1.407
1.46776
1.4479
1.50528
1.48733
1.53647
1.52176
1.56071
1.54943
1.57854
1.57027
1.59214
1.58585
1.60211
1.59752
1.60893
1.60602
1.60713
1.60979
1.58409
1.59881
1.53091
1.56184
1.4364
1.48912
1.30314
1.37338
1.15613
1.22938
1.01607
1.08449
0.875355
0.947251
0.742284
0.80684
0.63823
0.680028
2.75782
2.71319
2.79654
2.55908
2.67031
2.41424
2.47306
2.32306
2.36883
2.21602
2.26971
2.1401
2.17097
2.11246
2.12259
2.10646
2.10684
2.11974
2.11129
2.1395
2.12973
2.15531
2.14799
2.17025
2.16316
2.18166
2.17662
2.18653
2.18533
2.17705
2.18475
2.13946
2.16232
2.07853
2.11074
2.01437
2.04562
1.96025
1.98537
1.91629
1.93657
1.8794
1.89689
1.84328
1.86173
1.80074
1.8233
1.74614
1.77511
1.67526
1.71269
1.58679
1.63373
1.48497
1.53908
1.38665
1.43711
1.31273
1.34665
1.27864
1.28815
1.28397
1.27384
1.32559
1.29907
1.38488
1.35477
1.39541
1.39443
1.69005
1.46144
1.55706
1.91325
1.80921
2.09601
2.00862
2.14535
2.15265
1.8795
2.057
1.2044
1.59683
0.0920548
0.694628
-1.26074
-0.573779
-2.45735
-1.90909
-2.99543
-2.83617
-2.60725
-2.91102
-1.60157
-2.14273
-0.55743
-1.05828
0.1664
-0.139258
0.45623
0.35542
0.527775
0.500815
0.531183
0.539301
0.52449
0.16656
1.77674
-2.53752
-2.82332
0.59063
0.637429
1.39415
-0.0642927
-0.0579381
-0.0376472
2.85353
2.80092
3.1081
1.43173
-2.14096
-1.71043
-0.195532
1.01592
-2.20766
0.12935
1.71665
-0.0636307
-0.143438
0.471638
-2.44918
2.40531
0.177582
-0.360805
-2.38303
4.16541
0.760105
-1.52623
-2.27951
0.387873
2.05548
2.462
2.31894
0.203754
1.87906
-2.85808
0.731446
0.660739
0.848262
0.796032
0.940844
0.896876
1.01902
0.982194
1.08204
1.05254
1.13101
1.10812
1.16856
1.15084
1.19906
1.18431
1.22616
1.2125
1.25325
1.23938
1.28109
1.26698
1.31019
1.29539
1.34175
1.32562
1.37686
1.359
1.41376
1.3954
1.44992
1.43226
1.4829
1.46696
1.51064
1.49756
1.53215
1.52218
1.54789
1.54064
1.55907
1.554
1.56559
1.56294
1.56716
1.56702
1.56003
1.56523
1.53372
1.54974
1.48173
1.5112
1.39757
1.44392
1.28306
1.34304
1.16077
1.22128
1.04236
1.10162
0.922678
0.981435
0.81427
0.866201
0.737466
0.767431
0.659081
0.750915
0.732978
0.544595
2.9109
2.88809
2.82809
2.94859
2.93105
2.61699
2.716
2.47333
2.53568
2.37622
2.42366
2.27315
2.32511
2.19315
2.22765
2.15478
2.17012
2.13723
2.14401
2.13762
2.13527
2.1477
2.14261
2.15576
2.15193
2.16403
2.16016
2.17039
2.1678
2.16909
2.17125
2.15438
2.16405
2.11966
2.13972
2.06775
2.09521
2.00945
2.03794
1.9565
1.98151
1.91151
1.93282
1.87164
1.89119
1.83176
1.85216
1.78625
1.80996
1.73039
1.75955
1.6615
1.69782
1.57993
1.62332
1.49043
1.53747
1.40555
1.44803
1.33909
1.3687
1.30129
1.31446
1.2938
1.29295
1.31361
1.30218
1.34069
1.32849
1.34003
1.34229
1.33105
1.46875
1.31679
1.39429
1.68581
1.56031
1.95609
1.82003
2.18537
2.08006
2.27804
2.25633
2.08121
2.22467
1.39922
1.8103
0.189025
0.849611
-1.34862
-0.559539
-2.78907
-2.11611
-3.51033
-3.27711
-3.11934
-3.44999
-1.97836
-2.60104
-0.751166
-1.33606
0.0577505
-0.274356
0.367737
0.259827
0.447925
0.418767
0.462453
0.461787
0.465499
0.462071
-0.0602416
2.73171
2.14968
2.51669
2.63132
2.67617
1.85858
1.5228
-2.5884
-2.37651
-0.345922
1.09596
-2.64884
-1.24154
0.698329
0.783994
2.07081
-0.00615564
0.458793
0.295804
2.85681
2.96452
1.29709
1.24517
1.2182
0.4676
0.409895
0.413802
-0.499987
0.594331
-3.23106
0.760046
-0.344081
-0.345334
-0.396113
-0.26251
-3.60828
3.27448
0.861122
0.0624652
1.91808
2.355
-1.80881
-3.50888
4.75155
-3.05067
1.65292
-2.68122
0.584895
0.525444
0.706016
0.645186
0.818402
0.765714
0.91001
0.866369
0.987726
0.950772
1.05192
1.0216
1.10358
1.0791
1.14517
1.12532
1.17996
1.16317
1.21094
1.19558
1.24078
1.22573
1.27068
1.25559
1.30117
1.28579
1.33271
1.31682
1.36565
1.34909
1.39908
1.3825
1.43161
1.41568
1.46093
1.44688
1.4854
1.47391
1.50412
1.49548
1.51744
1.51138
1.52602
1.52228
1.52947
1.52842
1.52738
1.52914
1.51593
1.52332
1.4879
1.50415
1.43928
1.4665
1.36461
1.40523
1.26767
1.31801
1.16594
1.21644
1.06384
1.11545
0.963903
1.01224
0.878899
0.919569
0.823232
0.844227
0.830782
0.818361
0.591812
3.04271
2.99051
3.01663
3.05938
3.06225
3.06981
3.06401
2.66514
2.75515
2.52504
2.58849
2.42108
2.47122
2.31967
2.3703
2.23691
2.27387
2.18993
2.20988
2.16243
2.17436
2.15211
2.15518
2.15238
2.1519
2.15381
2.15298
2.15602
2.15588
2.15612
2.15667
2.1494
2.15398
2.13207
2.14247
2.09892
2.11762
2.05192
2.07648
1.99871
2.02489
1.9489
1.97283
1.9039
1.92582
1.86186
1.88283
1.8193
1.841
1.77184
1.79635
1.71568
1.74482
1.64932
1.68406
1.57377
1.61347
1.49343
1.53477
1.41696
1.45441
1.3545
1.38281
1.31307
1.33021
1.29549
1.30164
1.29662
1.29473
1.30225
1.29911
1.2883
1.29837
1.26965
1.48049
1.38844
1.69835
1.58068
1.98544
1.835
2.25261
2.12731
2.38911
2.34445
2.18937
2.32296
1.50558
1.92007
0.263402
0.947667
-1.36225
-0.523931
-2.92378
-2.18981
-3.75854
-3.47318
-3.38799
-3.73188
-2.20199
-2.85516
-0.907858
-1.52233
-0.0678512
-0.412749
0.28213
0.152784
0.376445
0.346725
0.396231
0.3897
0.403258
-0.366925
2.9457
1.57908
1.18401
-3.03293
-2.26264
0.857407
1.92952
0.111179
3.07337
1.18357
1.15092
0.464854
0.412881
-0.709649
0.688577
-3.75232
-1.11271
-0.330497
-0.890187
-0.0545299
-4.97293
0.985458
-0.734139
-0.703909
0.769296
-0.683303
1.60183
2.14027
-1.52604
-5.60549
3.58787
-0.072393
-3.41566
-5.02988
2.88535
2.8041
1.34259
-2.92995
0.574759
0.519075
0.686689
0.631306
0.791476
0.740335
0.881954
0.838484
0.95929
0.922239
1.02446
0.9934
1.07831
1.05266
1.12294
1.10154
1.16118
1.14271
1.19555
1.17866
1.22795
1.21184
1.25939
1.24367
1.29046
1.27489
1.32172
1.30604
1.35327
1.33753
1.38413
1.36892
1.41315
1.39899
1.43904
1.42662
1.46044
1.45043
1.47648
1.46913
1.48746
1.48257
1.49345
1.49107
1.49409
1.49442
1.48938
1.49245
1.47539
1.48399
1.44688
1.46293
1.4021
1.42682
1.33624
1.37175
1.25468
1.29655
1.17
1.21236
1.0826
1.12678
1.00038
1.03964
0.934647
0.965419
0.895019
0.910144
0.901234
0.892095
0.896463
0.956867
0.924153
0.752817
0.829284
0.542236
0.656663
2.86737
0.254276
0.408145
3.21613
3.22465
3.21829
3.20078
3.21185
3.18701
3.19289
3.07882
3.17932
3.18219
2.88274
2.97941
2.70661
2.7911
2.56853
2.63283
2.45895
2.51199
2.35715
2.40721
2.27324
2.31166
2.21865
2.24286
2.18303
2.19903
2.16297
2.17116
2.15475
2.15804
2.1492
2.15205
2.14486
2.14597
2.14031
2.14307
2.12989
2.13622
2.10972
2.1212
2.07725
2.09498
2.03471
2.05656
1.98583
2.01006
1.93838
1.96166
1.8937
1.91581
1.85067
1.87221
1.8066
1.82899
1.75787
1.7828
1.70214
1.73101
1.63825
1.67151
1.5675
1.60411
1.49358
1.53095
1.42288
1.45727
1.36266
1.39081
1.31798
1.33815
1.29096
1.30291
1.27698
1.28278
1.26708
1.27163
1.2384
1.25646
1.21343
1.27061
1.11416
1.18571
1.48354
1.37215
1.72329
1.60052
2.00949
1.86274
2.27312
2.15008
2.40363
2.36085
2.2491
2.37387
1.57419
1.98615
0.329991
1.01632
-1.29357
-0.455825
-2.86809
-2.12423
-3.73049
-3.43191
-3.32141
-3.73784
-2.22605
-2.84271
-0.992316
-1.58047
-0.173176
-0.516019
0.199117
0.0537115
0.308444
0.272637
0.336898
0.325276
0.359043
0.349475
0.361884
0.363249
-0.774218
3.22768
1.18554
0.791869
-4.12149
-2.71915
-0.255813
-1.20267
0.142447
-5.94784
-1.64182
-0.668614
0.944221
0.997333
3.08698
3.18112
0.632839
1.06556
1.04789
0.995931
0.356535
0.313583
0.308037
-1.38587
2.69198
-0.911114
-7.91896
0.50886
-1.24327
-1.17992
-1.02679
-0.288284
-3.22008
-8.43317
2.39063
1.18662
1.80793
-6.70955
0.0762837
0.413899
0.277174
3.22331
3.21702
0.940255
-3.85174
-0.110726
0.458603
0.407595
0.562592
0.510212
0.66803
0.615706
0.76738
0.71903
0.856336
0.813252
0.933482
0.896349
0.999432
0.96779
1.05521
1.02848
1.10245
1.07969
1.14337
1.12353
1.18023
1.16217
1.21463
1.19764
1.24751
1.23118
1.27922
1.26347
1.30992
1.29465
1.3399
1.32502
1.36858
1.35448
1.39492
1.38212
1.41771
1.4068
1.43604
1.42752
1.44937
1.44331
1.45804
1.45428
1.46164
1.46052
1.45978
1.4613
1.453
1.45708
1.43755
1.44668
1.41003
1.42525
1.36924
1.39149
1.31197
1.34258
1.24347
1.27839
1.17242
1.20818
1.09928
1.13588
1.03267
1.06439
0.982074
1.00506
0.956209
0.965111
0.964797
0.955121
1.01162
0.983721
0.815587
0.884095
0.640984
0.735202
0.532952
3.44017
3.52429
3.47978
3.37523
3.40491
3.32985
3.35008
3.29667
3.31348
3.27673
3.28519
2.90698
2.99415
2.74359
2.82312
2.60553
2.67132
2.4905
2.546
2.38835
2.43797
2.30307
2.34297
2.24198
2.26973
2.19926
2.21889
2.17085
2.1833
2.15492
2.16187
2.1428
2.14877
2.13306
2.13738
2.1242
2.12897
2.10995
2.11806
2.08771
2.09983
2.05635
2.07315
2.01539
2.03679
1.97105
1.99356
1.92599
1.94839
1.88216
1.90404
1.83888
1.86057
1.7939
1.81671
1.74465
1.76977
1.68943
1.71792
1.62778
1.65965
1.56085
1.59505
1.49164
1.5263
1.42477
1.45747
1.36548
1.39388
1.31776
1.34017
1.28263
1.29895
1.25687
1.26876
1.23106
1.24446
1.19221
1.21555
1.12998
1.16337
1.09167
1.23498
1.14696
1.4621
1.34076
1.72577
1.59263
2.00063
1.86238
2.25818
2.13581
2.39908
2.35264
2.21572
2.36154
1.54785
1.94683
0.372865
1.01722
-1.13028
-0.357254
-2.57351
-1.89142
-3.37901
-3.09561
-3.09259
-3.37837
-2.07936
-2.63887
-0.960892
-1.49527
-0.206955
-0.5241
0.147512
0.00605957
0.256881
0.216424
0.293209
0.278573
0.314815
0.306682
0.317034
-1.30164
3.58846
0.706161
0.25049
-6.37229
-4.0872
-0.578049
0.12015
-0.143364
1.04603
3.27152
0.063551
0.990077
0.936378
0.349153
0.301841
-1.8493
3.21083
-0.534226
-9.60175
-2.98834
-1.12694
-1.94291
-0.539799
-2.45463
-11.6513
-0.510064
2.49023
-1.35196
-7.16375
-10.9097
-0.054442
-1.89235
3.79405
3.90685
-1.99591
0.382234
0.28383
0.396379
-5.83783
-0.393615
0.449412
0.399409
0.549168
0.499152
0.650137
0.599881
0.746099
0.699076
0.83319
0.790822
0.910032
0.872885
0.976612
0.944529
1.03393
1.0063
1.08335
1.05947
1.1266
1.10559
1.16552
1.14651
1.20149
1.18381
1.23532
1.21863
1.26741
1.25156
1.29776
1.28278
1.3264
1.3123
1.35286
1.33993
1.37651
1.36511
1.39671
1.38712
1.41238
1.40516
1.42309
1.41831
1.42924
1.4267
1.43063
1.43058
1.42687
1.4293
1.41842
1.42332
1.40211
1.41143
1.37623
1.39031
1.3396
1.3594
1.29067
1.31651
1.23374
1.26271
1.17402
1.2042
1.11369
1.14347
1.06103
1.08598
1.02317
1.03978
1.00838
1.01256
1.01915
1.01014
1.06045
1.03616
1.08542
1.12624
1.09098
0.998498
1.04397
0.890571
0.947904
0.749944
0.824153
0.581637
0.668585
0.484216
3.63124
3.70353
3.52078
3.57084