/*--------------------------------*- C++ -*----------------------------------*\
  =========                 |
  \\      /  F ield         | OpenFOAM: The Open Source CFD Toolbox
   \\    /   O peration     | Website:  https://openfoam.org
    \\  /    A nd           | Version:  10
     \\/     M anipulation  |
\*---------------------------------------------------------------------------*/
FoamFile
{
    format      ascii;
    class       volVectorField;
    location    "38.5";
    object      U;
}
// * * * * * * * * * * * * * * * * * * * * * * * * * * * * * * * * * * * * * //

dimensions      [0 1 -1 0 0 0 0];

internalField   nonuniform List<vector> 
6397
(
(4.25606 -0.814003 2.08951e-19)
(4.05822 -0.48188 -1.02421e-18)
(5.38455 -1.35571 0)
(5.43715 -0.896033 1.77485e-20)
(4.80448 -0.508813 -1.16085e-19)
(4.87645 -1.07499 -2.10831e-19)
(3.17561 -1.98473 -9.41848e-19)
(1.53883 -3.02095 1.87456e-18)
(-0.177905 -1.39141 3.55738e-19)
(0.372653 -0.882047 -8.50152e-20)
(2.4628 3.15939 6.79575e-19)
(3.52617 3.83512 3.21521e-20)
(3.70585 0.111251 -3.80995e-20)
(3.68593 0.100803 -1.60641e-20)
(2.56012 0.113398 3.10413e-20)
(1.78889 1.31037 -4.91893e-18)
(2.35054 -0.77545 -2.30065e-18)
(0.12247 0.0484204 2.33428e-18)
(0.999143 0.303938 8.08194e-19)
(2.14443 -0.348543 -2.53695e-18)
(1.64171 0.0681986 -1.31868e-18)
(-1.42449 0.57267 -7.73522e-19)
(-0.993587 0.358445 4.08512e-20)
(1.06438 -0.0928293 -4.70693e-19)
(4.05527 0.139186 0)
(4.32575 0.0823485 4.13122e-21)
(4.43433 0.135494 -2.67148e-22)
(2.8951 -2.58502 1.71496e-19)
(2.91182 -2.5389 -3.91937e-20)
(2.82734 -2.56666 8.15915e-20)
(2.83292 -2.58075 -1.17409e-19)
(5.72994 0.143573 -1.68348e-19)
(5.7857 -0.333162 -1.74088e-19)
(5.36362 -0.413949 7.00604e-19)
(5.72305 0.687124 1.46282e-20)
(5.885 0.452768 0)
(5.84484 0.534368 5.06881e-20)
(5.96706 0.1666 1.11775e-19)
(5.19021 0.37483 6.16293e-20)
(5.0592 0.387102 -4.15146e-20)
(5.41401 0.63445 0)
(5.61476 0.463118 0)
(2.76662 -2.4733 -4.28101e-20)
(3.67209 -1.83944 -2.27167e-19)
(3.69695 -2.21758 1.9766e-19)
(4.88116 -1.55518 -4.23958e-19)
(4.23813 -1.20352 -2.46543e-19)
(4.2941 -1.71144 7.02749e-19)
(4.50102 0.219633 8.49595e-20)
(4.5259 0.117727 -1.30189e-20)
(4.46071 0.0737739 1.54183e-19)
(4.47189 0.0163636 -5.89079e-20)
(4.46202 0.0567977 -4.17027e-19)
(4.41242 1.14402 -8.06459e-20)
(3.74284 0.627539 5.15643e-20)
(4.03913 0.0450021 8.351e-20)
(4.05544 0.0613352 8.01236e-20)
(4.4986 -0.0961416 -1.56654e-19)
(2.86956 1.07942 -1.77281e-19)
(2.80136 0.231486 1.78418e-19)
(2.9741 1.79736 1.38143e-19)
(3.08437 2.303 -1.36408e-19)
(3.19681 2.60266 -9.98107e-20)
(3.27168 2.72695 9.80996e-20)
(3.32578 2.73065 0)
(3.308 2.68528 8.07348e-20)
(3.24112 2.60928 -8.48874e-20)
(3.0854 2.50696 0)
(3.11642 0.357071 -2.10701e-19)
(2.77741 -0.648097 2.72079e-21)
(3.08121 -0.585743 2.01448e-19)
(3.19338 1.24303 0)
(3.27523 1.95948 0)
(3.36468 2.46102 0)
(3.42815 2.73394 -4.72847e-22)
(3.46495 2.81158 4.52775e-23)
(3.46339 2.76321 0)
(3.40884 2.64849 -7.7169e-24)
(3.29103 2.50716 0)
(3.10058 2.33371 0)
(3.04991 -1.39149 -1.89688e-19)
(2.78566 -1.42062 1.1932e-20)
(2.89376 2.3018 0)
(2.86771 2.07599 0)
(3.05021 -2.00329 3.09382e-20)
(2.83052 -1.99573 0)
(2.65543 1.92341 0)
(2.60463 1.66936 0)
(3.05296 -2.36848 2.74425e-19)
(2.85443 -2.34617 -2.53587e-20)
(2.46645 1.28471 0)
(2.41028 1.05989 0)
(3.07244 -2.52969 -1.75733e-19)
(3.04566 -2.52698 -7.98836e-20)
(2.34901 0.411283 0)
(2.28245 0.274301 1.22822e-20)
(3.36392 -2.28727 0)
(3.28703 -2.42586 1.46459e-19)
(3.30712 -2.44698 1.2109e-20)
(3.44539 -1.24274 -2.22347e-19)
(3.39155 -1.90177 0)
(3.57334 0.5552 -1.08822e-19)
(3.50311 -0.382497 2.22948e-19)
(3.67171 2.14076 8.78983e-20)
(3.63261 1.44101 8.67822e-20)
(3.71998 2.80129 4.73723e-22)
(3.70636 2.58688 -9.20115e-20)
(3.63891 2.70932 8.59617e-21)
(3.69306 2.81908 -4.46518e-20)
(3.38403 2.34583 -2.40298e-20)
(3.53191 2.54045 5.42258e-20)
(2.93399 1.83977 0)
(3.17663 2.12963 0)
(2.49573 0.873201 0)
(2.69829 1.43469 0)
(2.36251 0.191827 -1.82406e-20)
(2.8416 2.13215 -2.06517e-19)
(2.58916 0.539227 -1.34575e-19)
(2.69063 1.48912 2.03012e-19)
(3.16713 2.62821 1.29719e-19)
(3.02051 2.48841 -1.26816e-19)
(3.29304 2.68683 6.25906e-22)
(3.26853 2.66629 2.7202e-21)
(3.17774 2.63091 0)
(3.2733 2.68106 0)
(2.92228 2.10266 1.04439e-19)
(3.06816 2.44204 9.13619e-21)
(2.68458 0.878785 2.15527e-20)
(2.79739 1.56031 -1.03849e-19)
(2.64107 -0.720775 6.62196e-20)
(2.6418 0.0823598 -9.21927e-21)
(2.72864 -1.94059 -9.39869e-20)
(2.6511 -1.40301 -5.90317e-20)
(2.82823 -2.48278 0)
(2.76554 -2.28667 1.08681e-19)
(3.05396 -2.41688 -6.31497e-20)
(2.90738 -2.51537 -6.39962e-21)
(3.23545 -2.30659 2.375e-20)
(2.34205 -0.581507 -3.02784e-20)
(2.26551 -0.600023 7.37031e-21)
(2.99588 0.643728 -2.68229e-21)
(2.57782 -0.591703 1.34828e-19)
(2.98872 -0.588585 0)
(2.44851 -1.32368 1.75642e-20)
(2.50279 -0.572875 -1.20171e-20)
(2.6063 -1.20202 1.19492e-20)
(2.85839 -2.58925 4.0547e-20)
(3.53897 -2.31656 -7.39309e-20)
(3.42426 -2.18217 -2.2782e-20)
(2.81129 -2.54715 4.20634e-20)
(2.34071 -0.585973 4.77724e-21)
(3.74377 -2.14713 0)
(3.62909 -2.3165 -2.31768e-20)
(3.95847 -1.09835 6.64868e-21)
(3.84734 -1.74298 0)
(4.11467 0.638483 -3.98499e-20)
(4.03673 -0.270276 7.6807e-20)
(4.13758 2.1212 0)
(4.14761 1.4585 1.24623e-20)
(4.03551 2.72523 0)
(4.08974 2.539 4.83499e-21)
(3.84452 2.57434 0)
(3.94484 2.71519 5.21614e-21)
(3.53489 2.14592 -1.22607e-21)
(3.68947 2.37661 2.47678e-21)
(3.08305 1.57905 5.78148e-22)
(3.30238 1.89413 -1.22842e-21)
(2.62972 0.670228 1.4943e-22)
(2.83142 1.17725 -3.21105e-22)
(2.49519 0.0802149 5.82377e-21)
(3.17345 2.3535 3.6573e-21)
(3.06412 1.67921 3.93566e-21)
(3.35939 2.73427 -1.17246e-22)
(3.27261 2.66495 0)
(3.34436 2.64473 0)
(3.37976 2.69987 -1.43636e-21)
(3.13807 2.46878 0)
(3.2594 2.58275 0)
(2.84347 1.91884 -4.97304e-23)
(3.00576 2.26979 -9.26555e-21)
(2.60117 0.773446 -1.25668e-20)
(2.72299 1.42154 0)
(2.56328 -0.67041 -3.63552e-20)
(2.56636 0.0546366 0)
(2.70268 -1.8348 2.58089e-21)
(2.61671 -1.31615 3.64434e-20)
(2.85843 -2.42747 5.33736e-23)
(2.78644 -2.19037 9.12967e-21)
(2.88078 -2.55504 -3.69681e-20)
(2.95171 -2.279 1.66387e-20)
(2.83161 -2.39222 0)
(3.29013 -2.01905 1.54231e-21)
(3.10875 -2.15243 -5.10313e-21)
(3.05802 -1.78608 0)
(2.66248 -1.6935 0)
(2.38147 -1.46853 -1.49142e-20)
(2.70866 -0.506151 -9.47788e-23)
(2.77755 -1.06123 0)
(2.79863 -1.75645 -2.69127e-21)
(2.663 -1.93984 -6.38281e-23)
(3.6279 -1.84497 0)
(3.17443 -2.72508 0)
(3.67805 -2.79692 -1.29237e-19)
(2.66999 -2.30734 3.67657e-20)
(2.72057 -2.41343 0)
(3.13411 -1.79121 7.53858e-22)
(3.48208 -1.88174 4.81229e-23)
(3.31285 -1.64726 -3.58663e-20)
(2.98957 -2.60749 0)
(3.02397 -2.61447 -3.04985e-20)
(2.44521 -1.57052 0)
(3.8188 -2.16126 8.76128e-21)
(3.64921 -2.03178 0)
(4.16692 -2.00335 4.50118e-22)
(3.9692 -2.16142 5.61375e-21)
(4.50147 -0.964385 -1.351e-20)
(4.32398 -1.60282 0)
(4.67728 0.728251 2.12494e-22)
(4.59353 -0.147783 -1.5243e-20)
(4.62745 2.13827 -1.58622e-22)
(4.66574 1.51697 -1.41352e-20)
(4.36982 2.65428 9.112e-21)
(4.50374 2.50343 0)
(4.04209 2.42522 0)
(4.21638 2.59713 -9.28871e-21)
(3.64508 1.92726 -3.99628e-22)
(3.84869 2.19169 3.72171e-22)
(3.18323 1.32927 0)
(3.401 1.64914 -2.78869e-23)
(2.7921 0.5445 7.99638e-22)
(2.93673 0.972644 -6.39464e-22)
(2.68462 0.0485116 -1.28746e-21)
(3.56749 0.704473 -3.91806e-20)
(3.58022 -0.602714 1.89096e-22)
(3.60601 2.43084 -1.33757e-20)
(3.57991 1.76478 5.9211e-20)
(3.63119 2.74752 5.57794e-21)
(3.62024 2.71757 -1.91918e-20)
(3.51426 2.55656 0)
(3.59614 2.65402 1.53782e-20)
(3.22254 2.34681 0)
(3.37417 2.47394 0)
(2.89016 1.77829 6.83622e-23)
(3.05167 2.12926 0)
(2.63559 0.69936 0)
(2.74515 1.30374 0)
(2.59915 -0.630283 0)
(2.58543 0.0435805 0)
(2.75869 -1.73303 8.78231e-21)
(2.66492 -1.23766 0)
(2.96329 -2.36707 -5.28763e-23)
(2.87529 -2.11087 -8.97955e-21)
(3.01952 -2.53676 3.59504e-20)
(2.8489 -2.07094 1.33136e-20)
(2.74358 -2.20152 -3.43858e-20)
(2.97386 -1.93115 1.36758e-20)
(2.94044 -1.53978 -3.50077e-21)
(2.82956 -2.56866 0)
(2.59874 -2.16616 1.78629e-20)
(3.72538 -3.36895 1.37572e-19)
(3.3239 -3.28732 0)
(3.03439 -2.15213 2.57276e-21)
(2.92491 -2.38785 1.19026e-20)
(3.03938 -1.52017 4.94526e-21)
(3.22648 -1.38522 4.26964e-21)
(2.59226 -2.0531 3.39741e-20)
(2.665 -2.17033 6.38267e-20)
(3.27294 -2.61124 2.71947e-20)
(3.28341 -2.63561 0)
(3.69834 -1.70724 -7.24774e-22)
(3.53363 -1.48816 -2.04502e-20)
(3.1611 -1.87796 3.51178e-21)
(3.41893 -2.10634 -8.84679e-22)
(3.32477 -2.38353 -1.53241e-20)
(2.92668 -2.47894 5.33536e-21)
(2.65396 -2.37537 0)
(4.10528 -1.96146 3.23559e-22)
(3.88734 -1.85562 4.01649e-22)
(4.57421 -1.77896 -1.05482e-20)
(4.31304 -1.94587 2.25421e-20)
(4.99637 -0.796895 0)
(4.77953 -1.38858 0)
(5.19164 0.749656 -3.8303e-23)
(5.10317 -0.0453678 -1.23374e-26)
(5.05503 2.03086 1.57227e-22)
(5.13156 1.47327 0)
(4.66742 2.48359 0)
(4.86529 2.35945 -5.47622e-27)
(4.19489 2.21367 0)
(4.43764 2.40158 0)
(3.71349 1.68809 0)
(3.9643 1.95905 0)
(3.28563 1.11937 0)
(3.49856 1.40933 0)
(2.98147 0.42842 0)
(3.1063 0.80459 0)
(2.88886 -0.510338 2.16331e-21)
(2.88909 -0.0193404 0)
(3.10817 -1.39233 0)
(2.94835 -0.992597 5.26815e-22)
(3.55787 -1.90148 0)
(3.3292 -1.68775 4.59346e-21)
(4.30254 -1.90702 -4.15073e-20)
(4.21988 -3.37665 -3.01736e-20)
(4.28413 -2.85877 4.1683e-20)
(4.26415 0.70992 1.58539e-20)
(4.29614 -0.62155 -1.89053e-22)
(4.13256 2.44616 -7.47952e-21)
(4.20155 1.77799 -2.28011e-20)
(3.96766 2.70899 -1.49715e-23)
(4.05205 2.70742 0)
(3.71437 2.43017 0)
(3.85368 2.5758 0)
(3.33909 2.16661 0)
(3.52891 2.30455 0)
(2.9917 1.62133 -2.52268e-23)
(3.14797 1.95264 0)
(2.75491 0.61967 0)
(2.84587 1.17219 0)
(2.72446 -0.604683 0)
(2.70202 0.0155449 0)
(2.90414 -1.65692 5.48692e-22)
(2.79103 -1.17072 -5.70819e-22)
(3.13472 -2.29416 4.80959e-21)
(3.02255 -2.01646 -5.59029e-23)
(3.22155 -2.48928 -3.64098e-20)
(2.71593 -1.78998 -1.09861e-20)
(2.6128 -1.91528 -3.624e-20)
(2.8625 -1.6507 0)
(3.74798 -3.57051 0)
(4.10421 -3.52612 2.53618e-20)
(3.66144 -2.30284 9.83423e-21)
(3.80707 -2.06233 0)
(3.03656 -3.1138 0)
(2.86058 -2.64978 0)
(3.41205 -1.24709 0)
(2.87635 -2.23835 -1.46688e-19)
(3.5919 -2.53937 1.95972e-20)
(3.64511 -2.57117 0)
(3.45357 -3.49899 4.78923e-21)
(3.21689 -2.64414 -1.44011e-20)
(3.97606 -3.39852 7.26836e-21)
(3.7455 -3.47624 -3.77476e-21)
(3.59825 -2.53107 1.63367e-20)
(3.91353 -2.48594 9.74921e-21)
(4.07482 -2.18878 0)
(3.27986 -2.54824 1.40713e-19)
(2.88969 -2.90783 0)
(3.89829 -1.49917 1.21502e-20)
(3.56773 -1.10267 2.5828e-20)
(3.74911 -1.3253 5.41886e-20)
(4.36361 -1.72748 -4.06349e-21)
(4.13378 -1.6482 -7.18472e-21)
(4.90867 -1.5534 0)
(4.63516 -1.71948 2.86786e-21)
(5.39131 -0.642734 7.0863e-27)
(5.16736 -1.19623 -7.36892e-27)
(5.58482 0.764466 -4.81697e-23)
(5.52241 0.0506248 0)
(5.36519 1.87502 0)
(5.49599 1.41038 0)
(4.88027 2.2325 -2.44619e-23)
(5.11963 2.15617 5.47572e-27)
(4.31756 1.96192 6.08967e-29)
(4.58451 2.1472 -6.32158e-29)
(3.81153 1.47292 0)
(4.06001 1.72081 0)
(3.41204 0.953115 -4.89447e-23)
(3.62059 1.21501 0)
(3.12607 0.336568 5.25561e-23)
(3.27015 0.667448 0)
(3.03438 -0.442422 1.3239e-21)
(3.05928 -0.0396723 0)
(3.23926 -1.15697 -1.18312e-20)
(3.10994 -0.827216 -2.64538e-21)
(3.65126 -1.60924 -9.34612e-21)
(3.43421 -1.41627 7.17574e-21)
(4.2432 -1.88716 -7.0299e-21)
(3.93361 -1.75831 9.32803e-21)
(4.75072 -3.32444 2.02243e-20)
(4.28262 -3.26512 -8.5956e-22)
(4.53721 -3.42717 -2.21745e-20)
(5.01279 -1.90239 6.48792e-20)
(4.90793 -2.83524 -3.81959e-20)
(4.96477 0.637852 -3.35433e-20)
(5.02793 -0.654633 -1.94266e-20)
(4.65492 2.30639 0)
(4.83037 1.67474 4.1752e-20)
(4.27594 2.54583 -1.80156e-22)
(4.45755 2.55838 -7.61405e-27)
(3.92429 2.23615 0)
(4.09725 2.40087 0)
(3.49295 1.97389 1.18426e-23)
(3.70937 2.1007 0)
(3.12085 1.47967 5.4108e-24)
(3.28099 1.7839 0)
(2.91426 0.553495 0)
(2.98475 1.06344 0)
(2.90552 -0.570711 0)
(2.87096 -0.0045749 0)
(3.0876 -1.54832 0)
(2.97064 -1.09762 0)
(3.3524 -2.19903 0)
(3.21617 -1.92317 1.91567e-22)
(3.47753 -2.40656 -1.21648e-20)
(3.81524 -3.12113 -9.89384e-21)
(4.03531 -2.9509 0)
(4.385 -2.33669 -2.82857e-22)
(4.57427 -2.02251 6.32509e-21)
(3.21319 -2.29937 0)
(3.72884 -2.4692 -3.6124e-20)
(2.76575 -1.83788 -7.56712e-20)
(3.14709 -1.88495 1.09814e-19)
(2.45342 -1.66564 2.18612e-20)
(2.52868 -1.78395 1.28228e-20)
(2.57914 -1.42083 2.04622e-21)
(2.48405 -1.53313 -1.89132e-20)
(2.90052 -1.18759 1.25218e-20)
(2.73143 -1.29866 1.82127e-21)
(3.28751 -0.964601 0)
(3.08082 -1.07474 -2.15179e-20)
(3.49058 -0.871498 -4.32844e-20)
(3.22883 -3.35487 -4.82767e-21)
(3.13861 -2.90859 -8.76742e-27)
(3.5389 -3.46677 3.78911e-21)
(3.50807 -2.76855 0)
(3.6733 -3.23177 0)
(3.83523 -2.7077 0)
(3.77403 -2.58246 -2.29824e-22)
(3.63284 -2.79415 5.37051e-23)
(4.1861 -2.6655 -1.85588e-20)
(4.88476 -2.14585 3.89663e-21)
(4.71496 -2.47758 3.07437e-20)
(3.73025 -0.942318 -3.11276e-20)
(3.67788 -0.776087 3.55692e-20)
(3.13951 -3.16959 -1.37729e-26)
(4.09346 -1.26656 -3.19492e-22)
(3.95423 -1.14944 1.26981e-20)
(4.57472 -1.44147 -1.64576e-22)
(4.35904 -1.41005 0)
(5.1481 -1.26529 1.48639e-27)
(4.87891 -1.43968 1.55995e-22)
(5.65708 -0.47249 0)
(5.43464 -0.96579 0)
(5.83303 0.743473 -1.24295e-22)
(5.79975 0.125403 0)
(5.57072 1.67697 0)
(5.73845 1.29913 0)
(5.02623 1.93841 2.45566e-23)
(5.29261 1.91193 0)
(4.43886 1.66861 -3.31722e-23)
(4.70142 1.85866 0)
(3.93979 1.23607 0)
(4.16346 1.46445 0)
(3.55053 0.767338 -8.92934e-24)
(3.74019 1.00951 0)
(3.27617 0.214776 8.92068e-24)
(3.41204 0.509868 0)
(3.19758 -0.466518 -6.37554e-23)
(3.2259 -0.109437 3.74053e-27)
(3.38621 -1.09512 -1.09506e-23)
(3.27614 -0.809797 0)
(3.79682 -1.40352 1.56484e-21)
(3.58874 -1.29564 -7.18771e-21)
(4.2628 -1.53672 6.88625e-21)
(4.04309 -1.4736 1.88257e-20)
(4.80385 -1.75994 -1.2422e-20)
(4.51609 -1.64027 -8.44016e-21)
(4.54971 -2.98588 1.42508e-21)
(3.90392 -2.30526 1.82774e-22)
(4.21488 -2.6686 0)
(5.1986 -3.11342 -2.36636e-21)
(4.88262 -3.17377 3.5109e-21)
(5.59006 -1.86394 -4.72067e-21)
(5.43767 -2.69978 -7.22963e-22)
(5.57815 0.536067 1.16187e-22)
(5.64977 -0.690476 -2.65674e-21)
(5.11928 2.11573 0)
(5.38384 1.52214 0)
(4.5848 2.35963 7.82587e-23)
(4.84455 2.3542 -1.12877e-26)
(4.15535 2.04749 2.54083e-27)
(4.36033 2.22726 -2.68991e-27)
(3.68796 1.75413 1.65781e-23)
(3.93175 1.88476 0)
(3.27149 1.33635 0)
(3.45552 1.59273 0)
(3.0797 0.509772 -5.01132e-23)
(3.14449 0.970787 0)
(3.10381 -0.517889 0)
(3.0579 0.00495502 0)
(3.31086 -1.43868 -4.41648e-23)
(3.17614 -1.00146 0)
(3.60637 -2.09591 3.62431e-23)
(3.43062 -1.79504 -1.37901e-22)
(3.94841 -2.44022 -2.49138e-20)
(3.73083 -2.31177 0)
(4.22663 -2.33792 -2.44871e-19)
(4.04914 -2.46613 1.34729e-19)
(4.29164 -2.08434 -2.50537e-20)
(2.61763 -1.27329 0)
(3.58016 -1.29254 -1.22834e-19)
(3.00828 -1.34127 1.15679e-20)
(2.29394 -1.12977 0)
(2.38278 -1.21337 0)
(2.45547 -0.947172 -1.3879e-21)
(2.33407 -1.03519 -2.30703e-27)
(2.84138 -0.796775 -4.55156e-21)
(2.63461 -0.869345 -1.53695e-21)
(3.21816 -0.656652 0)
(3.04279 -0.731735 1.87294e-20)
(3.5001 -2.20991 -4.7914e-24)
(3.62766 -1.93063 -1.48356e-21)
(5.21333 -2.23083 -2.75384e-20)
(5.19354 -1.83468 -1.08714e-20)
(3.51663 -0.495536 3.86483e-20)
(3.36997 -0.57317 -1.9363e-20)
(3.38528 -3.35091 -1.8987e-25)
(3.40063 -2.98965 0)
(3.57237 -3.28216 0)
(3.73829 -2.88412 -2.99481e-25)
(3.53932 -2.95863 -2.25586e-23)
(4.04476 -2.91666 -1.23745e-20)
(3.40676 -2.44896 1.54532e-23)
(4.48707 -2.80046 0)
(3.34918 -1.51118 -1.18392e-20)
(3.21181 -1.79138 6.22867e-23)
(5.06776 -2.58053 -4.21249e-20)
(5.61815 -1.77093 1.23612e-20)
(5.57278 -2.16691 5.08547e-21)
(3.45093 -1.18012 1.32318e-20)
(3.07799 -0.964459 1.18856e-20)
(3.1082 -0.6346 1.717e-20)
(6.00165 -1.53665 3.01116e-20)
(5.50982 -1.29798 2.88845e-20)
(5.85193 -1.16139 2.04301e-21)
(3.66692 -0.418591 2.02753e-20)
(3.57123 -0.277802 0)
(3.70413 -0.259223 -2.3897e-20)
(3.36278 -3.22106 -1.23285e-26)
(3.88804 -0.779219 8.15183e-21)
(3.83597 -0.672405 3.85503e-20)
(4.25392 -1.05432 -1.17048e-20)
(4.11923 -0.981099 -8.05923e-21)
(4.72251 -1.19292 0)
(4.51865 -1.19569 0)
(5.26323 -1.0053 0)
(5.01388 -1.19115 0)
(5.75288 -0.300126 0)
(5.54606 -0.727748 0)
(5.9177 0.705678 0)
(5.89583 0.211761 0)
(5.65537 1.43093 4.32138e-27)
(5.83344 1.15584 -4.48954e-27)
(5.10375 1.61561 -9.46148e-26)
(5.38459 1.62094 1.71233e-28)
(4.5252 1.37816 3.31722e-23)
(4.78508 1.55805 0)
(4.03449 1.01162 0)
(4.24833 1.21867 0)
(3.64127 0.605945 -5.70591e-24)
(3.81876 0.823528 0)
(3.3684 0.140047 5.85674e-24)
(3.49003 0.38477 0)
(3.31344 -0.376949 6.375e-23)
(3.31925 -0.119756 0)
(3.54037 -0.788949 1.33924e-22)
(3.4118 -0.611614 4.48381e-27)
(3.91588 -1.06663 6.87214e-21)
(3.73937 -0.943697 0)
(4.33885 -1.32026 -6.42017e-21)
(4.13338 -1.20484 -8.82719e-21)
(4.86187 -1.43045 2.15092e-20)
(4.5955 -1.41651 -1.25563e-20)
(5.1868 -1.38195 -2.51754e-20)
(4.103 -2.00003 6.61653e-21)
(3.7911 -1.63064 -2.03513e-20)
(4.7485 -2.62821 4.67135e-24)
(4.40588 -2.33152 5.58882e-22)
(5.45662 -2.81833 -8.20129e-21)
(5.10552 -2.82049 8.96121e-21)
(5.96766 -1.73982 -7.11019e-23)
(5.76433 -2.4772 7.3411e-22)
(5.99264 0.416508 -1.16068e-22)
(6.06648 -0.68695 -5.1231e-26)
(5.46034 1.82602 0)
(5.77513 1.29339 0)
(4.80905 2.08313 -1.26455e-26)
(5.13358 2.05383 1.33853e-26)
(4.29099 1.82819 0)
(4.53294 1.98923 0)
(3.83913 1.5181 1.36905e-23)
(4.07593 1.65666 0)
(3.41423 1.18486 0)
(3.61333 1.38382 0)
(3.23805 0.478704 5.01135e-23)
(3.29923 0.879091 0)
(3.29893 -0.448529 0)
(3.24008 0.0215849 0)
(3.53662 -1.30372 -1.30117e-23)
(3.38195 -0.898332 1.41852e-26)
(3.87133 -1.94293 -3.52263e-23)
(3.66111 -1.65016 0)
(4.25729 -2.31698 0)
(4.01916 -2.18548 -1.31898e-24)
(4.65238 -2.22507 7.28873e-20)
(4.46084 -2.34498 5.8179e-23)
(4.85159 -1.93457 1.21906e-19)
(3.55641 -0.625347 -2.62272e-19)
(4.17293 -0.578446 1.42098e-19)
(2.57394 -0.568619 0)
(2.9959 -0.614122 0)
(2.21649 -0.493961 -3.0391e-24)
(2.32092 -0.533701 -7.54659e-27)
(2.37035 -0.40811 -5.52587e-25)
(2.24386 -0.45318 -2.17015e-27)
(2.7586 -0.344605 1.45753e-21)
(2.55117 -0.369902 3.16566e-27)
(3.18099 -0.307819 1.7541e-20)
(2.96482 -0.325315 -8.10479e-21)
(3.396 -0.289179 4.24227e-22)
(3.48529 -3.24339 4.47926e-25)
(3.6017 -3.04291 -6.66747e-26)
(3.52615 -3.07868 0)
(3.88408 -3.05518 3.40413e-25)
(3.33738 -2.67549 3.48737e-23)
(4.28468 -3.06403 1.23975e-20)
(3.1404 -2.04754 -3.97501e-23)
(4.7893 -2.86376 3.44818e-21)
(2.93335 -1.2469 9.14675e-23)
(5.39374 -2.47623 0)
(2.84055 -0.0368912 -1.9487e-20)
(2.82558 -0.28198 0)
(5.91927 -1.82265 2.49492e-20)
(6.11177 -0.822888 4.20607e-21)
(6.20254 -1.00276 -2.93444e-20)
(3.00986 0.0816879 -3.01554e-22)
(2.76961 0.463697 -3.3128e-20)
(3.10797 0.380244 -3.27177e-22)
(6.17834 -0.238853 1.28907e-20)
(5.78966 -0.577332 4.52918e-20)
(5.90114 -0.189524 5.80962e-20)
(3.48765 0.0631123 0)
(3.63169 0.0426527 -8.02208e-20)
(3.79467 -0.321092 3.91117e-20)
(3.82646 -0.234967 -4.09987e-20)
(3.52394 -3.18114 8.075e-26)
(4.00968 -0.591068 -1.79843e-20)
(3.97227 -0.581314 -1.89178e-20)
(4.34642 -0.80657 1.80538e-21)
(4.25588 -0.838505 -8.2626e-21)
(4.77029 -0.908724 -2.05977e-23)
(4.61082 -1.00164 2.11137e-26)
(5.2785 -0.731796 0)
(5.05735 -0.947891 0)
(5.7256 -0.139293 0)
(5.54376 -0.518398 0)
(5.85277 0.678991 4.88624e-25)
(5.84886 0.277797 0)
(5.59474 1.22352 0)
(5.76742 1.03448 0)
(5.08779 1.32245 0)
(5.35845 1.36265 0)
(4.53096 1.10675 0)
(4.79704 1.28207 0)
(4.04204 0.779201 0)
(4.26571 0.981266 0)
(3.67298 0.423174 6.35794e-23)
(3.83478 0.625672 0)
(3.49327 0.0450722 3.15438e-24)
(3.55852 0.246442 1.7365e-26)
(3.55763 -0.369175 0)
(3.50363 -0.158945 0)
(3.81748 -0.790109 2.28906e-24)
(3.68684 -0.595617 -4.48384e-27)
(4.13271 -1.06918 6.52378e-23)
(3.9853 -0.974378 1.73405e-26)
(4.4741 -1.14327 7.66174e-21)
(4.31408 -1.13637 7.87255e-24)
(4.89007 -1.12657 -3.7087e-21)
(4.67945 -1.15863 -4.10162e-21)
(5.3543 -0.985763 -1.8499e-20)
(5.13548 -1.08044 1.35701e-20)
(5.58469 -0.834142 -4.86283e-20)
(3.40358 -0.789779 2.2338e-21)
(3.11675 -0.328215 -3.72383e-22)
(4.17703 -1.65897 -2.07148e-22)
(3.78017 -1.25 0)
(4.92758 -2.29104 -4.60753e-24)
(4.562 -1.99893 -5.66033e-22)
(5.65572 -2.50171 0)
(5.30385 -2.47836 0)
(6.18092 -1.59676 3.85182e-23)
(5.96922 -2.23209 0)
(6.21123 0.284582 0)
(6.28398 -0.681503 0)
(5.64461 1.53674 0)
(5.9789 1.06048 0)
(4.91624 1.78783 -9.44637e-24)
(5.27949 1.74558 0)
(4.32909 1.61199 0)
(4.5897 1.73297 0)
(3.92456 1.31205 -4.21119e-23)
(4.11592 1.45576 0)
(3.54782 1.03314 -6.36936e-23)
(3.72257 1.18778 0)
(3.37864 0.463658 -6.97141e-23)
(3.42112 0.798814 4.3338e-27)
(3.47466 -0.359848 -7.22858e-23)
(3.38547 0.0643948 -3.60429e-26)
(3.74281 -1.14699 -8.84677e-24)
(3.56804 -0.779593 0)
(4.10034 -1.74797 0)
(3.89215 -1.48945 0)
(4.53076 -2.11854 0)
(4.31394 -1.99333 1.32125e-24)
(5.01131 -2.0343 -5.32951e-20)
(4.81889 -2.14229 -5.71355e-23)
(5.28192 -1.72885 4.36248e-20)
(4.80132 0.144267 0)
(5.33479 0.164887 -2.91602e-19)
(3.51691 0.123444 1.38673e-19)
(4.16449 0.134129 4.10761e-20)
(2.54615 0.194182 1.15233e-23)
(2.96383 0.178766 2.60813e-26)
(2.21201 0.172111 5.99114e-24)
(2.30432 0.183109 1.50518e-26)
(2.3575 0.143245 -4.13203e-27)
(2.23706 0.15542 4.2014e-27)
(2.76524 0.125301 3.13318e-21)
(2.54248 0.13736 -3.50336e-27)
(3.17093 0.0780637 -1.74711e-20)
(2.98466 0.0994099 -3.19263e-21)
(3.33194 0.0710486 -1.90384e-20)
(3.49553 -3.14253 0)
(3.70496 -3.15243 2.52718e-26)
(3.37131 -2.88745 0)
(4.00378 -3.19727 -2.54319e-24)
(3.0691 -2.3148 -3.96634e-23)
(4.4769 -3.07913 -3.72361e-23)
(2.85182 -1.48366 3.7876e-23)
(5.05556 -2.68506 1.96341e-22)
(2.70152 -0.521889 -1.58938e-22)
(5.65002 -1.97866 4.61846e-22)
(2.66891 0.43028 0)
(6.06429 -1.02509 3.84629e-20)
(3.31683 0.598473 -3.8319e-20)
(2.90713 0.769175 6.50341e-20)
(6.13671 -0.105058 -4.60661e-22)
(5.80004 0.29961 -6.19548e-20)
(5.91149 0.511379 -1.61002e-20)
(3.75994 -0.00113524 2.65599e-21)
(3.57271 -3.17552 -1.79804e-25)
(3.97596 -0.221283 -3.9282e-20)
(3.88527 0.0964521 2.47727e-19)
(3.86811 -0.196577 -1.53082e-19)
(4.17869 -0.482749 4.27404e-21)
(4.0022 -0.431317 3.64603e-20)
(4.44853 -0.70273 -1.80316e-21)
(4.23775 -0.625101 4.01973e-21)
(4.81145 -0.780477 -6.22681e-21)
(4.55444 -0.747564 5.47884e-21)
(5.23429 -0.574311 -3.66196e-23)
(4.97459 -0.665371 1.76591e-26)
(5.57856 -0.0438169 -2.68735e-23)
(5.39748 -0.279987 -1.14368e-26)
(5.66842 0.607168 2.3328e-23)
(5.65153 0.348072 0)
(5.42428 1.01807 0)
(5.58583 0.91267 0)
(4.95027 1.04455 -4.35589e-23)
(5.21569 1.11855 0)
(4.4201 0.836912 2.4989e-26)
(4.69323 0.996939 -2.59409e-26)
(3.97239 0.565451 2.99494e-26)
(4.19056 0.728968 -3.10804e-26)
(3.68642 0.311959 -3.26793e-26)
(3.81505 0.4499 3.39037e-26)
(3.589 0.071565 -1.42801e-22)
(3.6266 0.195814 3.57653e-26)
(3.61504 -0.216749 7.46193e-23)
(3.60178 -0.0708203 3.70321e-26)
(3.70097 -0.528686 2.42074e-24)
(3.6559 -0.391578 0)
(3.90519 -0.751725 7.35039e-23)
(3.78878 -0.664327 3.65815e-26)
(4.24492 -0.915404 6.51264e-23)
(4.06226 -0.850881 0)
(4.67583 -0.942821 4.46234e-21)
(4.45451 -0.956364 0)
(5.11392 -0.795593 1.82025e-20)
(4.89261 -0.896935 -2.03834e-20)
(5.4794 -0.356174 0)
(5.31239 -0.604184 2.2684e-21)
(5.52479 0.203988 8.19508e-20)
(5.56242 -0.0775949 -7.90742e-20)
(3.23336 0.0133279 2.6634e-21)
(3.39257 0.445907 2.1387e-20)
(3.31637 0.221235 -2.06665e-20)
(3.34967 -0.504541 6.90844e-22)
(3.21889 -0.213731 8.17222e-23)
(4.00018 -1.22327 0)
(3.62543 -0.849912 0)
(4.85548 -1.85152 -2.71738e-23)
(4.42997 -1.55737 0)
(5.6327 -2.13534 0)
(5.2757 -2.06486 0)
(6.12064 -1.43943 3.25687e-23)
(5.92044 -1.95529 0)
(6.17411 0.157386 0)
(6.22105 -0.664279 0)
(5.66682 1.19933 0)
(5.9652 0.803848 0)
(4.9967 1.42579 -2.34196e-23)
(5.32387 1.37212 0)
(4.40118 1.36314 0)
(4.66408 1.41416 0)
(4.00327 1.13323 -5.41016e-26)
(4.16272 1.25259 5.72892e-26)
(3.67338 0.889533 6.36299e-23)
(3.80903 1.00809 6.78302e-26)
(3.49921 0.450753 1.44373e-22)
(3.52215 0.707277 6.97443e-26)
(3.60783 -0.254485 -4.11333e-24)
(3.4876 0.113945 0)
(3.90445 -0.979183 6.60955e-23)
(3.70709 -0.63458 -7.42204e-26)
(4.29587 -1.54924 5.46725e-26)
(4.0779 -1.29031 -5.7991e-26)
(4.76618 -1.89703 0)
(4.53785 -1.74773 0)
(5.30618 -1.81268 2.2814e-21)
(5.06661 -1.88764 -4.47212e-21)
(5.72965 -1.19592 0)
(5.56393 -1.53094 1.69673e-21)
(5.80787 -0.752098 0)
(4.67771 0.761296 0)
(5.61238 0.605065 4.53981e-21)
(5.21262 0.705511 7.95766e-20)
(3.49292 0.877395 -1.55069e-20)
(4.09285 0.849966 -3.13945e-20)
(2.59829 0.926662 -1.17887e-24)
(2.98462 0.929466 0)
(2.27077 0.817676 -2.95942e-24)
(2.36327 0.87938 0)
(2.40294 0.69229 0)
(2.29114 0.753493 0)
(2.78097 0.599988 -2.9309e-25)
(2.57232 0.643107 0)
(3.2627 0.458092 0)
(3.01823 0.541107 0)
(3.64181 0.30985 0)
(3.47561 0.371943 -9.17441e-21)
(3.86134 0.155329 0)
(3.76052 0.268655 1.92882e-20)
(3.51152 0.833846 7.36292e-20)
(3.4606 0.673287 0)
(5.50201 0.757989 4.5963e-21)
(5.33917 0.489035 6.4033e-21)
(3.39341 -3.05685 4.10868e-24)
(3.72956 -3.23899 0)
(6.03014 -0.228282 0)
(3.10714 -2.60223 6.22896e-24)
(4.08096 -3.1711 1.79869e-24)
(3.96297 0.0136082 5.68411e-20)
(3.90583 0.332677 0)
(3.95063 0.2525 0)
(2.78405 -1.75698 2.28983e-23)
(4.6134 -2.79775 6.88576e-23)
(2.59046 -0.703605 0)
(5.21502 -2.04004 -4.30704e-22)
(2.54998 0.330719 0)
(5.70677 -0.905665 0)
(2.71427 0.966393 0)
(5.85675 0.217064 -2.18823e-20)
(3.1368 0.951486 -2.53468e-21)
(5.68429 1.00029 -1.34805e-22)
(3.57145 0.836675 0)
(3.69701 1.04271 -3.70248e-20)
(5.38947 1.18254 -4.15569e-20)
(5.10587 1.01148 1.09159e-19)
(5.06584 0.683661 -1.11769e-19)
(3.51119 -3.19265 1.25156e-25)
(4.054 -0.223282 1.90981e-20)
(3.97464 -0.0742013 0)
(4.20314 -0.428277 -3.96543e-21)
(4.09915 -0.319282 -8.64419e-21)
(4.42364 -0.568736 0)
(4.28283 -0.515632 4.17317e-21)
(4.74794 -0.565948 0)
(4.56077 -0.592548 8.70323e-22)
(5.08807 -0.362163 3.6603e-23)
(4.91057 -0.495569 0)
(5.3269 0.0891919 6.53922e-23)
(5.22052 -0.160449 0)
(5.35823 0.590738 1.43948e-23)
(5.37362 0.364004 0)
(5.13828 0.846983 -4.13224e-23)
(5.28475 0.776473 -3.6184e-26)
(4.73482 0.799926 4.3515e-23)
(4.96756 0.875004 4.49861e-26)
(4.29239 0.605438 -5.8475e-23)
(4.52816 0.731346 5.25308e-26)
(3.96426 0.411269 -6.1731e-26)
(4.12584 0.519794 6.0129e-26)
(3.80177 0.246225 -6.9359e-23)
(3.8759 0.338168 6.91818e-26)
(3.75302 0.0340196 1.45115e-22)
(3.77617 0.156476 0)
(3.76017 -0.28148 5.1666e-25)
(3.75157 -0.113147 7.6198e-26)
(3.8928 -0.585738 -1.51087e-22)
(3.80711 -0.450232 0)
(4.15335 -0.727142 -7.34651e-23)
(4.01394 -0.682249 -7.66848e-26)
(4.43451 -0.746688 0)
(4.29316 -0.746798 0)
(4.70198 -0.722778 8.88124e-21)
(4.56755 -0.745239 -9.29894e-21)
(4.98324 -0.572879 0)
(4.83807 -0.668053 -4.53039e-27)
(5.19131 -0.293059 3.20134e-21)
(5.10748 -0.448038 -4.73473e-21)
(5.19253 0.148612 4.60703e-20)
(5.22005 -0.0858543 -4.59816e-20)
(4.92136 0.476756 0)
(5.09222 0.355578 -6.37679e-21)
(3.51071 0.41713 1.12126e-20)
(3.7442 0.710616 -1.20575e-21)
(3.60531 0.591433 -2.0803e-20)
(3.44086 -0.00929325 2.29128e-20)
(3.46609 0.199004 -1.10474e-20)
(3.46238 -0.377311 1.09843e-20)
(3.4294 -0.195669 -3.44055e-20)
(3.83854 -0.852083 -4.0998e-23)
(3.59387 -0.586285 3.55343e-22)
(4.55734 -1.41854 2.71732e-23)
(4.17973 -1.13107 0)
(5.26506 -1.80512 9.32553e-26)
(4.93392 -1.66761 -9.85698e-26)
(5.81328 -1.25852 -5.84492e-26)
(5.55837 -1.69513 6.1797e-26)
(5.99199 0.0745185 -1.48199e-23)
(5.97736 -0.602046 0)
(5.57475 0.927889 3.75711e-26)
(5.82922 0.593057 -3.97573e-26)
(4.99862 1.14421 3.27918e-23)
(5.27013 1.0846 7.93541e-26)
(4.47162 1.12878 0)
(4.70697 1.14102 0)
(4.08335 0.978767 6.97043e-23)
(4.22763 1.06251 -4.27429e-27)
(3.79229 0.763555 -1.4013e-25)
(3.89986 0.860413 1.48421e-25)
(3.59981 0.437721 3.29815e-24)
(3.6303 0.620087 0)
(3.68357 -0.138893 7.64336e-23)
(3.56793 0.1703 0)
(3.99631 -0.79303 -7.46163e-23)
(3.79492 -0.469171 0)
(4.42487 -1.32351 1.23361e-25)
(4.1977 -1.06586 -1.30801e-25)
(4.92682 -1.63724 0)
(4.68611 -1.48163 0)
(5.46969 -1.57615 -5.95897e-21)
(5.2239 -1.62076 -7.83018e-22)
(5.90848 -1.01889 2.79991e-20)
(5.73247 -1.31925 -1.97462e-20)
(6.02451 -0.599533 0)
(5.48107 1.04714 1.58435e-20)
(5.68627 0.861747 -1.75994e-20)
(4.61226 1.34565 0)
(5.11394 1.21884 -1.5557e-20)
(3.46236 1.52823 5.27145e-23)
(4.04782 1.48669 0)
(2.61999 1.52355 -1.02886e-23)
(2.97071 1.5511 -8.27741e-26)
(2.33406 1.3557 0)
(2.41194 1.44876 0)
(2.47683 1.18215 0)
(2.36056 1.26802 0)
(2.87352 1.0327 2.91393e-25)
(2.6577 1.10387 0)
(3.28339 0.868799 0)
(3.08775 0.957147 0)
(3.65254 0.636913 -1.83124e-20)
(3.47301 0.755531 8.86282e-21)
(3.80172 0.514215 -5.03989e-23)
(3.72072 0.980047 0)
(3.89939 0.795059 1.4405e-20)
(4.81507 0.748636 8.37297e-20)
(4.72834 0.522504 -1.08838e-19)
(3.19738 -2.85151 -2.91158e-25)
(3.69442 -3.15472 1.17843e-24)
(4.06555 0.0983644 -9.0238e-20)
(4.0039 0.111407 5.58996e-20)
(2.80929 -2.05623 -8.67871e-23)
(4.11344 -2.80255 0)
(2.52527 -0.923402 -1.48052e-22)
(4.6546 -2.0263 -2.13362e-22)
(2.42094 0.259627 0)
(5.19181 -0.774332 0)
(2.5661 1.10275 5.8644e-22)
(5.46775 0.610184 -1.648e-21)
(2.96805 1.20875 0)
(5.30025 1.59961 -1.59562e-20)
(3.29422 1.17257 -2.7142e-20)
(4.96494 1.84252 0)
(3.94876 1.16385 2.36398e-20)
(4.80113 1.49125 3.68509e-20)
(4.06211 0.844914 -3.23778e-20)
(3.87444 1.1051 2.81226e-20)
(4.77299 1.03791 -8.07799e-20)
(4.03519 0.788812 -9.7363e-21)
(4.1601 0.834719 -8.26467e-21)
(4.23022 0.883267 3.99801e-20)
(5.49924 0.89654 3.55126e-21)
(4.61258 0.701717 1.65215e-21)
(4.55647 0.503173 2.4346e-19)
(3.37564 -3.04507 0)
(4.13471 -0.135906 -8.18902e-21)
(4.00958 -0.0837074 3.06731e-20)
(4.24023 -0.326086 0)
(4.10718 -0.249784 0)
(4.43558 -0.425799 0)
(4.27657 -0.373155 0)
(4.71065 -0.41 0)
(4.5404 -0.407928 0)
(4.97942 -0.240377 5.04855e-23)
(4.84 -0.32934 3.33982e-27)
(5.11428 0.125441 -3.85959e-23)
(5.06609 -0.0623233 9.13198e-26)
(5.04619 0.534374 -3.8297e-23)
(5.10233 0.358435 8.83935e-26)
(4.82064 0.713844 4.12693e-23)
(4.94999 0.679779 9.11253e-26)
(4.51479 0.625782 0)
(4.68004 0.709987 -3.19287e-27)
(4.22258 0.458045 5.84198e-23)
(4.37395 0.557116 3.43089e-27)
(4.02476 0.331427 0)
(4.12247 0.400424 3.93555e-27)
(3.91233 0.216907 1.26431e-25)
(3.96795 0.284242 0)
(3.8377 0.0371879 -1.45395e-22)
(3.87132 0.139183 0)
(3.8311 -0.199512 -7.53903e-23)
(3.8179 -0.0791859 1.50414e-25)
(3.93752 -0.407517 1.51721e-22)