/*--------------------------------*- C++ -*----------------------------------*\
  =========                 |
  \\      /  F ield         | OpenFOAM: The Open Source CFD Toolbox
   \\    /   O peration     | Website:  https://openfoam.org
    \\  /    A nd           | Version:  10
     \\/     M anipulation  |
\*---------------------------------------------------------------------------*/
FoamFile
{
    format      ascii;
    class       volScalarField;
    location    "7.5";
    object      p;
}
// * * * * * * * * * * * * * * * * * * * * * * * * * * * * * * * * * * * * * //

dimensions      [0 2 -2 0 0 0 0];

internalField   nonuniform List<scalar> 
25879
(
0.0320087
0.0352057
0.0336446
0.0300398
0.0974017
0.0935555
-0.107015
-0.0866725
-0.0714825
-0.0851758
-0.16538
-0.139342
-0.192131
-0.406286
-0.422016
0.268464
0.190623
-0.0675378
-0.196915
0.775009
0.76084
0.277121
0.38835
0.108576
0.109813
0.116112
0.114004
0.103245
0.107994
0.103025
0.102056
-0.364676
-0.370771
-0.370188
0.0503942
-0.007694
-0.0169784
-0.0891933
-0.0777344
-0.26414
-0.232708
-0.187192
0.336163
0.349489
0.353152
-0.190011
-0.209951
-0.332374
-0.31504
-0.337742
0.060423
0.0852069
-0.604367
-0.419219
0.00068377
0.00252945
0.00393385
0.513889
0.520499
0.481716
0.467709
0.439784
0.434837
4.22329e-05
0.00207565
0.00121553
-0.405986
-0.410432
-0.373792
-0.335165
-0.348905
0.164662
0.16808
0.172585
0.265584
0.408851
0.333601
0.0415822
0.0418005
0.0375804
0.368918
0.354866
0.829751
0.768595
0.763606
0.178203
0.186649
0.174059
0.0150063
0.0186538
-0.340613
-0.345198
-0.339435
0.0981399
0.0978912
0.0919925
0.0955815
0.0926143
0.0177095
0.0277514
0.0368027
0.0435368
0.0217301
0.0213939
0.0114392
0.149529
0.147174
0.0801078
0.133039
-0.0276964
-0.0391311
-0.115909
-0.109359
0.0079388
0.00793547
0.207318
0.195699
-0.1603
0.00442579
0.0337946
0.0377608
-0.256302
-0.265146
-0.159169
-0.163289
-0.336636
-0.330221
-0.400155
-0.424065
-0.410406
-0.378869
-0.371677
0.48744
0.468335
0.45737
0.47156
0.0348744
0.0391798
-0.101311
0.00387097
0.0285668
0.0285565
0.0291216
0.0296848
0.0304243
0.0312028
0.0319873
0.0328051
0.0336441
0.0345033
0.0353955
0.0363191
0.0372809
0.0382814
0.0393252
0.040417
0.0415519
0.04274
0.0439904
0.0453015
0.0466804
0.0481289
0.049654
0.0512577
0.0529465
0.0547223
0.0565914
0.0585547
0.0606156
0.0627741
0.0650404
0.0674291
0.0699364
0.072512
0.0750522
0.0775584
0.080544
0.0745125
0.0771782
0.0778972
0.0286644
0.0279745
0.0279488
0.0804106
0.0728652
0.0753954
0.0678669
0.0703262
0.063268
0.0655178
0.0590507
0.0611153
0.0552015
0.0570823
0.0517062
0.053413
0.0485388
0.0500849
0.0456707
0.0470708
0.0430708
0.0443406
0.0407069
0.041863
0.0385419
0.0396023
0.0365525
0.0375282
0.0347143
0.0356175
0.033005
0.0338466
0.0313872
0.0321904
0.0299492
0.0306317
0.029315
0.0302575
0.0285947
0.0294321
0.0317853
0.0310157
0.0333698
0.0325651
0.0350906
0.034211
0.0369475
0.0360013
0.0389605
0.0379365
0.0411457
0.0400567
0.0435279
0.0423046
0.0461564
0.044806
0.0490657
0.0475684
0.0522944
0.0506308
0.0558811
0.0540323
0.0598584
0.0578096
0.0642703
0.0619933
0.0691965
0.0666677
0.0718531
0.0279172
0.0272912
0.0273187
0.0834188
0.0841298
0.0831598
0.0867228
0.0862398
0.0800113
0.0737437
0.0763862
0.0285691
0.0278781
0.0278546
0.0272336
0.0272547
0.0778262
0.080402
0.0727626
0.0752426
0.0678846
0.0702773
0.0633788
0.0655871
0.059216
0.0612532
0.0553972
0.0572628
0.0519107
0.0536123
0.0487377
0.0502852
0.0458553
0.0472607
0.043237
0.044514
0.0408532
0.0420168
0.0386733
0.0397388
0.0366712
0.037651
0.034823
0.0357288
0.0331078
0.0339497
0.0314996
0.0322933
0.0300556
0.0307549
0.0286707
0.0293698
0.0273136
0.0279765
0.0300621
0.0293085
0.0315716
0.0308103
0.033146
0.0323491
0.0348454
0.0339812
0.0366692
0.0357383
0.0386352
0.0376278
0.0407739
0.0396535
0.0431201
0.0419233
0.045693
0.0443771
0.0485357
0.0470812
0.0516895
0.0500756
0.0551951
0.0534016
0.0590872
0.0570978
0.0634079
0.0611973
0.0682754
0.0657651
0.0709467
0.0841535
0.0271896
0.0870652
0.026677
0.0272899
0.0266541
0.089888
0.0892622
0.0793042
0.0825624
0.0836303
0.0266579
0.0266815
0.0266074
0.026632
0.0824592
0.0883
0.0853287
0.0771623
0.0797572
0.0722615
0.0746764
0.0674971
0.0698363
0.0630909
0.06525
0.0590173
0.0610126
0.055265
0.0571008
0.0518236
0.0535055
0.048679
0.0502145
0.0458132
0.0472119
0.0432041
0.0444776
0.0408258
0.0419874
0.0386506
0.0397142
0.0366528
0.0376308
0.0348088
0.0357127
0.0330981
0.0339378
0.0315048
0.0322887
0.0300391
0.0307614
0.0286348
0.0293381
0.0279504
0.0285013
0.0271547
0.0278037
0.0299142
0.0292097
0.0314126
0.0306547
0.0329877
0.0321902
0.0346663
0.0338118
0.036468
0.0355499
0.0384089
0.0374186
0.0405133
0.0394331
0.0428108
0.0416369
0.0453292
0.0440391
0.0481095
0.0466832
0.051193
0.0496098
0.0546195
0.0528599
0.0584212
0.0564703
0.0626294
0.0604707
0.0673033
0.064892
0.0725502
0.0698662
0.0782346
0.0752586
0.0923714
0.0912825
0.0265632
0.0870279
0.0260594
0.0260273
0.0903285
0.0931842
0.0814032
0.0859986
0.0270983
0.0956054
0.0942742
0.0265129
0.0264585
0.0846946
0.0867148
0.0260541
0.026073
0.0259977
0.0260328
0.0258771
0.0259387
0.0869123
0.0926835
0.0898299
0.0813436
0.0840171
0.0762337
0.0787458
0.0713864
0.0737654
0.066774
0.0690428
0.0624998
0.0645933
0.0585462
0.0604844
0.0548911
0.0566812
0.051526
0.0531723
0.04844
0.0499484
0.0456184
0.0469967
0.0430425
0.0443006
0.0406898
0.0418394
0.0385354
0.0395891
0.0365547
0.0375246
0.0347253
0.0356222
0.0330277
0.0338608
0.0314482
0.0322234
0.0299741
0.0306998
0.0285774
0.0292702
0.0272495
0.0279049
0.025985
0.0266087
0.0284143
0.0277471
0.029802
0.0291016
0.031273
0.0305267
0.0328321
0.0320412
0.0344904
0.0336474
0.0362659
0.0353622
0.0381755
0.0372024
0.0402433
0.0391868
0.0424939
0.0413441
0.0449565
0.0436957
0.0476708
0.0462789
0.0506776
0.0491342
0.0540157
0.052302
0.0577152
0.0558177
0.0617938
0.0597054
0.0662761
0.0639792
0.0712269
0.0686854
0.0766687
0.0738304
0.0828653
0.0798075
0.0974573
0.0956254
0.0879085
0.085984
0.0904409
0.0893004
0.0258111
0.0937856
0.025381
0.025937
0.0253305
0.0966978
0.0990181
0.0913982
0.100863
0.0986572
0.0894414
0.0901347
0.025455
0.0254212
0.0254612
0.025468
0.0253919
0.0254353
0.0252564
0.0253341
0.0907003
0.0962837
0.0935538
0.0851087
0.0879456
0.0798894
0.0824073
0.0749239
0.0773867
0.0702098
0.0725233
0.0657997
0.0679674
0.0616986
0.0637097
0.0578915
0.0597595
0.0543594
0.0560909
0.0510955
0.0526938
0.0480906
0.0495608
0.0453325
0.046681
0.0428059
0.0440409
0.0404916
0.0416232
0.0383679
0.039407
0.0364122
0.0373701
0.0346034
0.0354904
0.0329232
0.033748
0.0313566
0.0321263
0.0298884
0.030611
0.0285042
0.0291905
0.0271871
0.027837
0.0265499
0.0270085
0.025751
0.0263713
0.0283021
0.0276513
0.0296728
0.028979
0.0311212
0.0303862
0.0326581
0.0318778
0.0342932
0.0334624
0.0360405
0.0351517
0.0379162
0.0369609
0.0399413
0.0389081
0.04214
0.041017
0.0445406
0.0433124
0.0471797
0.0458273
0.0500963
0.0486002
0.0533276
0.0516698
0.0569028
0.0550701
0.0608382
0.058824
0.0651463
0.0629444
0.0698178
0.0674371
0.0749004
0.0722903
0.0804497
0.0776053
0.0867615
0.0834762
0.102041
0.0994205
0.0929553
0.090275
0.0251887
0.093961
0.0927742
0.0247889
0.0247384
0.0974212
0.0949907
0.100265
0.102651
0.104255
0.0256587
0.0964035
0.105256
0.102458
0.0937359
0.0251257
0.0250596
0.0936591
0.0248574
0.024829
0.0248683
0.0248753
0.024802
0.0248378
0.0246677
0.0247375
0.0245203
0.0245882
0.0936164
0.0992668
0.0964603
0.0883699
0.0910961
0.0830221
0.0856717
0.0780776
0.0804989
0.0732961
0.0756544
0.0688149
0.0710139
0.0646317
0.0666888
0.0607212
0.0626417
0.0570772
0.0588662
0.0536878
0.0553505
0.0505455
0.0520857
0.0476412
0.0490637
0.0449643
0.0462746
0.0425017
0.0437067
0.0402378
0.0413457
0.0381539
0.0391743
0.0362303
0.0371731
0.0344478
0.0353223
0.032789
0.0336037
0.0312389
0.0320011
0.0297841
0.0305002
0.0284115
0.0290907
0.0271049
0.0277511
0.0258672
0.0264826
0.0246833
0.0252651
0.0268951
0.0262712
0.0281697
0.0275218
0.0295192
0.0288353
0.0309465
0.0302225
0.0324593
0.0316914
0.0340677
0.0332507
0.0357837
0.0349112
0.0376218
0.0366862
0.0396005
0.038592
0.0417413
0.0406487
0.0440711
0.0428802
0.0466229
0.0453164
0.0494329
0.0479927
0.0525359
0.0509452
0.0559593
0.0542055
0.0597199
0.0577959
0.0638294
0.0617305
0.068279
0.0660118
0.07307
0.0706335
0.0781017
0.0755489
0.0838163
0.0808009
0.0900108
0.0869134
0.0966036
0.092885
0.105419
0.102003
0.0976764
0.0964809
0.0244524
0.101116
0.0984816
0.0241074
0.0246097
0.0240439
0.104031
0.0995905
0.106208
0.0987433
0.107746
0.108503
0.108447
0.104688
0.0974051
0.0242124
0.0241648
0.0242762
0.0242526
0.0242818
0.0242838
0.0242179
0.0242566
0.0240944
0.0241635
0.023935
0.0240179
0.0957651
0.100599
0.0982302
0.0906696
0.0932181
0.085667
0.0881341
0.0806975
0.0831324
0.0759738
0.0782811
0.0714845
0.0736992
0.0672639
0.0693386
0.063305
0.0652533
0.0595907
0.0614166
0.0561214
0.0578254
0.052889
0.0544756
0.0498843
0.0513583
0.0470972
0.0484638
0.0445168
0.0457814
0.0421317
0.0433002
0.039929
0.0410081
0.0378938
0.0388912
0.036009
0.0369334
0.0342579
0.0351176
0.0326248
0.0334273
0.0310955
0.0318478
0.0296582
0.0303659
0.0282987
0.02897
0.0270114
0.0276473
0.025783
0.0263895
0.0251909
0.0255524
0.0243783
0.0249566
0.026755
0.0261481
0.0280149
0.0273766
0.0293445
0.0286706
0.0307489
0.0300367
0.0322357
0.0314813
0.0338142
0.0330127
0.0354952
0.034641
0.0372916
0.0363778
0.0392189
0.0382375
0.041296
0.040237
0.0435465
0.0423974
0.0459996
0.0447452
0.0486882
0.0473118
0.0516448
0.0501306
0.0548951
0.0532314
0.0584556
0.0566352
0.06233
0.0603527
0.0665224
0.0643853
0.0710234
0.0687384
0.0757562
0.0733578
0.0808788
0.0782572
0.0860965
0.083488
0.0891374
0.107286
0.102869
0.0238586
0.101466
0.100247
0.0235479
0.0234843
0.105054
0.102237
0.107865
0.103079
0.110043
0.102384
0.111418
0.111958
0.111444
0.100512
0.0242767
0.109922
0.105142
0.0237884
0.0237037
0.101218
0.0236491
0.023603
0.0237075
0.02368
0.0237039
0.023714
0.0236448
0.0236807
0.0235355
0.0235964
0.0233757
0.0234611
0.023213
0.0232923
0.0962129
0.100159
0.0982201
0.0920101
0.0942533
0.0873819
0.0896572
0.0826699
0.0849668
0.0781166
0.0803778
0.0737261
0.0758912
0.0695463
0.0716103
0.0655862
0.0675372
0.0618512
0.0636906
0.0583387
0.0600664
0.0550518
0.0566667
0.0519854
0.0534912
0.0491291
0.0505312
0.0464709
0.0477756
0.0439986
0.0452117
0.0417016
0.0428284
0.0395695
0.0406153
0.0375902
0.0385613
0.0357504
0.0366535
0.0340356
0.034878
0.032432
0.0332205
0.0309273
0.0316679
0.02951
0.0302083
0.0281692
0.0288305
0.0268955
0.0275249
0.0256814
0.0262826
0.024526
0.0250987
0.0234166
0.0239644
0.0254185
0.0248424
0.0266013
0.0260037
0.0278425
0.0272137
0.02915
0.0284874
0.0305295
0.0298302
0.0319879
0.0312482
0.0335335
0.032749
0.0351759
0.0343418
0.0369261
0.0360366
0.038797
0.0378453
0.0408042
0.0397821
0.0429674
0.0418645
0.0453118
0.0441147
0.0478673
0.0465607
0.0506646
0.0492333
0.0537287
0.0521615
0.0570767
0.0553659
0.0607015
0.0588536
0.0646039
0.0626176
0.0687686
0.0666557
0.0731757
0.0709393
0.0777559
0.0754669
0.0824171
0.0799937
0.0894678
0.0856169
0.107465
0.102105
0.0985256
0.0936516
0.105478
0.10417
0.0231353
0.1091
0.10617
0.0228698
0.02333
0.0227918
0.112007
0.106857
0.114091
0.105566
0.115283
0.103566
0.115489
0.114619
0.112692
0.103958
0.109757
0.101081
0.0954745
0.105242
0.0229997
0.0229384
0.0230981
0.0230551
0.0231439
0.023124
0.0231385
0.0231491
0.0230851
0.0231171
0.0229863
0.0230356
0.0228347
0.0229148
0.022663
0.0227464
0.0950262
0.0981285
0.0966183
0.0917445
0.0933984
0.0879787
0.0899266
0.0837958
0.0859096
0.0795581
0.0816577
0.0754172
0.0774795
0.0713834
0.0733811
0.0675111
0.0694264
0.0638129
0.0656386
0.0603057
0.0620345
0.0569983
0.0586261
0.0538974
0.0554215
0.051001
0.0524238
0.0482986
0.049626
0.045776
0.0470153
0.0434195
0.0445773
0.0412183
0.0422997
0.0391637
0.040173
0.0372467
0.0381884
0.0354568
0.0363363
0.0337826
0.0346058
0.0322124
0.032985
0.0307354
0.0314628
0.0293414
0.0300285
0.0280209
0.0286724
0.026765
0.0273853
0.0255703
0.0261612
0.0244271
0.0249912
0.0238759
0.0241479
0.0230504
0.0236007
0.0252645
0.0247017
0.0264312
0.0258415
0.0276525
0.0270342
0.0289364
0.0282861
0.0302888
0.0296035
0.0317162
0.0309926
0.0332259
0.0324601
0.0348263
0.0340141
0.0365261
0.035663
0.0383358
0.0374163
0.0402672
0.0392851
0.0423363
0.041283
0.0445643
0.0434284
0.0469784
0.0457458
0.0496084
0.0482641
0.0524793
0.0510119
0.0556037
0.0540095
0.0589811
0.057262
0.0625901
0.0607576
0.0664047
0.0644728
0.070415
0.0683865
0.0744414
0.0724534
0.0786904
0.0764169
0.0849002
0.0815613
0.0871774
0.0872911
0.0889378
0.0884451
0.0968594
0.0906854
0.0898159
0.0225762
0.10548
0.0992176
0.109642
0.10826
0.0223368
0.0222635
0.11335
0.11016
0.116235
0.110289
0.118244
0.108768
0.119257
0.106536
0.119158
0.102984
0.117886
0.115511
0.111753
0.0847116
0.106666
0.0229366
0.0224936
0.0223996
0.0999569
0.0849259
0.0913918
0.0979276
0.109401
0.0224662
0.0224048
0.0225541
0.0225091
0.0225937
0.02258
0.0225859
0.0225959
0.0225351
0.0225655
0.022441
0.0224937
0.0223023
0.0223768
0.0221268
0.0222188
0.0219541
0.0220407
0.0922645
0.0932793
0.0929951
0.0898514
0.0911158
0.0871078
0.0885145
0.0837758
0.0854935
0.0801451
0.0820116
0.0763894
0.0782633
0.072659
0.0745213
0.0689824
0.0708096
0.0654137
0.0671826
0.0619781
0.0636773
0.0587005
0.0603181
0.0555985
0.0571264
0.0526837
0.054117
0.0499576
0.0512971
0.0474104
0.0486622
0.0450261
0.0461985
0.0427892
0.0438897
0.0406886
0.0417222
0.0387166
0.0396867
0.0368664
0.0377765
0.0351308
0.0359846
0.0335009
0.034303
0.0319674
0.0327225
0.0305211
0.0312338
0.0291531
0.0298277
0.0278552
0.0284958
0.0266202
0.0272301
0.0254417
0.0260246
0.0243128
0.0248717
0.0232325
0.0237693
0.0221849
0.0227041
0.0240023
0.0234725
0.0250998
0.0245458
0.026246
0.0256664
0.0274456
0.0268387
0.0287042
0.0280671
0.0300275
0.0293573
0.0314214
0.0307151
0.0328924
0.0321467
0.0344473
0.0336588
0.036093
0.0352581
0.0378369
0.0369519
0.0396879
0.0387481
0.0416579
0.0406567
0.0437648
0.0426924
0.0460335
0.0448767
0.0484931
0.0472372
0.051169
0.0498023
0.0540733
0.0525923
0.0572
0.0556098
0.0605218
0.0588387
0.0640013
0.062243
0.067609
0.0657945
0.0711438
0.0694038
0.0749429
0.0729095
0.0794754
0.077257
0.0817543
0.080793
0.0836484
0.0828776
0.0842151
0.10033
0.0932779
0.09152
0.0846836
0.113942
0.112385
0.0218638
0.117687
0.113947
0.0216713
0.0220968
0.0215859
0.120562
0.113563
0.12246
0.111837
0.123278
0.108905
0.122908
0.104432
0.121243
0.0984643
0.118059
0.113475
0.107498
0.0910779
0.10025
0.0927294
0.0838438
0.113647
0.0218167
0.0217467
0.0219362
0.0218829
0.0220178
0.0219828
0.0220535
0.0220412
0.0220458
0.0220552
0.0219977
0.0220266
0.021908
0.0219588
0.0217824
0.0218468
0.0216123
0.0217006
0.0214243
0.0215165
0.0866866
0.0854799
0.086348
0.0863311
0.0867088
0.0846869
0.0855505
0.0823859
0.083568
0.0796448
0.0810723
0.0764833
0.0780639
0.0732106
0.0748603
0.0698782
0.0715474
0.0665508
0.0682101
0.0632822
0.0649065
0.0601082
0.0616812
0.0570596
0.0585662
0.0541615
0.0555902
0.0514312
0.0527744
0.0488737
0.0501308
0.04648
0.047657
0.0442334
0.0453391
0.0421171
0.0431596
0.0401192
0.0411036
0.0382326
0.0391621
0.0364528
0.0373295
0.0347747
0.0356012
0.0331923
0.0339718
0.0316985
0.0324346
0.0302855
0.0309822
0.0289461
0.029607
0.027673
0.0283016
0.0264596
0.0270591
0.0253
0.0258734
0.0241884
0.0247389
0.0231205
0.0236514
0.022605
0.0213384
0.0228013
0.0217627
0.0222883
0.0238423
0.0233186
0.0249216
0.0243766
0.0260468
0.0254781
0.0272227
0.026628
0.0284542
0.0278311
0.0297464
0.0290923
0.0311046
0.0304168
0.0325342
0.03181
0.0340405
0.0332773
0.0356286
0.0348239
0.0373034
0.0364547
0.0390705
0.0381748
0.0409386
0.0399909
0.0429227
0.0419146
0.0450458
0.0439648
0.0473361
0.0461679
0.049819
0.0485518
0.0525055
0.0511367
0.0553853
0.0539224
0.0584263
0.0568883
0.0615861
0.0599932
0.064814
0.063199
0.0679504
0.0664005
0.0712841
0.0695384
0.0745824
0.0730566
0.076726
0.0757488
0.0781905
0.0775879
0.078781
0.0786201
0.0780612
0.0786714
0.0824262
0.0751247
0.07685
0.0916289
0.0840591
0.118313
0.116489
0.0211636
0.0210864
0.122134
0.117665
0.124973
0.117046
0.126729
0.114828
0.127312
0.111051
0.126565
0.105555
0.124273
0.098562
0.120376
0.0900737
0.114917
0.108048
0.0996301
0.090046
0.0681909
0.0804555
0.0212481
0.072823
0.0657481
0.0821037
0.117948
0.0213071
0.0212384
0.0214182
0.021366
0.0214917
0.0214611
0.021524
0.0215125
0.021517
0.0215256
0.021471
0.0214987
0.0213867
0.0214339
0.0212643
0.0213299
0.0211054
0.0211898
0.020917
0.0210133
0.020742
0.0208247
0.0784342
0.0745856
0.0768103
0.0802448
0.079587
0.0804308
0.0804519
0.0794782
0.0800768
0.0777309
0.0786416
0.075491
0.0766503
0.0728772
0.0742171
0.0700475
0.071484
0.0671001
0.0685829
0.0641119
0.0656074
0.0611383
0.0626203
0.0582223
0.0596706
0.0554004
0.0567972
0.0527041
0.0540346
0.0501558
0.0514103
0.0477635
0.04894
0.0455201
0.0466239
0.0434087
0.0444488
0.0414115
0.0423965
0.0395163
0.0404515
0.0377166
0.0386046
0.0360092
0.0368514
0.0343913
0.0351891
0.032859
0.0336146
0.0314073
0.0321233
0.0300301
0.0307096
0.0287214
0.0293675
0.0274749
0.0280906
0.0262848
0.0268731
0.0251456
0.0257091
0.0240519
0.0245934
0.0230037
0.0235249
0.0219885
0.0224915
0.0210009
0.0214946
0.021647
0.0206514
0.0211491
0.0226484
0.0221509
0.0236706
0.0231551
0.0247308
0.0241956
0.025834
0.0252767
0.0269847
0.026403
0.0281874
0.0275792
0.0294467
0.0288096
0.030767
0.0300988
0.0321528
0.0314513
0.033608
0.0328714
0.0351359
0.0343626
0.036739
0.0359277
0.0384202
0.0375694
0.0401857
0.0392916
0.0420478
0.0411032
0.0440276
0.043021
0.0461524
0.0450698
0.0484467
0.0472768
0.0509196
0.0496612
0.0535575
0.0522193
0.0563239
0.0549276
0.059171
0.0577401
0.0620329
0.0606078
0.064799
0.0634285
0.0676265
0.06619
0.0701428
0.0689485
0.0719208
0.0711202
0.0729079
0.072497
0.0730128
0.0730829
0.071635
0.0725931
0.0702226
0.0795906
0.0718005
0.0699813
0.0625432
0.122782
0.120633
0.126651
0.121537
0.0202423
0.0201518
0.020515
0.0209059
0.0204296
0.129422
0.120528
0.131004
0.117681
0.131256
0.112918
0.129994
0.106386
0.127078
0.0981733
0.122416
0.0885559
0.11611
0.0778392
0.108162
0.0986613
0.0880164
0.0663311
0.0763738
0.0683154
0.058532
0.122326
0.0206712
0.0205927
0.0208063
0.0207397
0.0209089
0.0208556
0.0209752
0.0209473
0.0210051
0.0209945
0.0209982
0.0210065
0.0209543
0.0209808
0.0208743
0.0209189
0.0207572
0.0208203
0.0206083
0.020687
0.0204247
0.0205215
0.0203278
0.06088
0.0637562
0.0563154
0.0674751
0.0645241
0.0717042
0.0698625
0.073961
0.072999
0.0747369
0.0745105
0.0743686
0.0746815
0.0731937
0.0738567
0.0714756
0.0723937
0.0693369
0.0704509
0.066922
0.0681562
0.0643452
0.0656485
0.0616845
0.0630215
0.0589983
0.0603413
0.0563349
0.057661
0.0537362
0.0550248
0.0512387
0.0524726
0.048869
0.0500365
0.0466382
0.047736
0.0445407
0.0455734
0.0425604
0.0435369
0.0406797
0.0416084
0.0388857
0.0397722
0.037173
0.0380193
0.0355391
0.0363461
0.0339831
0.0347513
0.032503
0.0332336
0.0310955
0.0317903
0.0297562
0.0304175
0.0284801
0.0291104
0.0272619
0.027864
0.0260966
0.0266729
0.0249793
0.0255322
0.0239058
0.0244372
0.0228741
0.0233861
0.0218725
0.0223674
0.0213856
0.0215147
0.0205439
0.0210295
0.0224863
0.0219985
0.0234889
0.0229831
0.0245285
0.0240038
0.0256083
0.025063
0.0267324
0.0261645
0.0279048
0.0273123
0.0291295
0.0285103
0.0304101
0.0297624
0.0317501
0.0310724
0.0331521
0.0324431
0.0346178
0.0338768
0.0361476
0.0353745
0.0377424
0.0369366
0.039406
0.038565
0.0411486
0.0402662
0.0429895
0.042055
0.0449542
0.0439545
0.0470653
0.0459901
0.0493306
0.0481783
0.0517337
0.0505167
0.054234
0.0529748
0.0567785
0.0555043
0.0592931
0.0580463
0.0616981
0.0605092
0.0640086
0.0628719
0.0659917
0.0650477
0.0672911
0.0666882
0.0678255
0.0676686
0.0674382
0.0677518
0.065557
0.0666979
0.0618513
0.0639401
0.0557723
0.05912
0.0538013
0.046865
0.0516611
0.127307
0.124831
0.0200547
0.0200348
0.0199535
0.131197
0.125393
0.133864
0.123857
0.135191
0.120225
0.135052
0.114458
0.133256
0.106683
0.129606
0.0972048
0.124152
0.0863838
0.116808
0.074501
0.107638
0.0615362
0.0970003
0.0851151
0.0719578
0.0572602
0.040607
0.0482474
0.0412892
0.0349854
0.126748
0.0201836
0.020107
0.0203103
0.0202491
0.0204062
0.020362
0.0204681
0.0204416
0.0204961
0.0204864
0.020489
0.0204971
0.0204469
0.0204723
0.0203706
0.0204131
0.02026
0.0203196
0.0201236
0.0201931
0.0199471
0.0200334
0.0197505
0.0198501
0.0195688
0.0196589
0.0433788
0.04141
0.0535342
0.0485753
0.0606594
0.0574611
0.0652197
0.063157
0.0679774
0.0668011
0.0692909
0.0687984
0.0694739
0.0695066
0.0688257
0.0692376
0.0675773
0.0682676
0.0658728
0.0667743
0.0638525
0.0648944
0.0616293
0.062761
0.0592824
0.0604673
0.0568741
0.0580826
0.0544568
0.0556636
0.0520766
0.0532592
0.0497742
0.0509133
0.0475793
0.0486618
0.0455056
0.046527
0.0435493
0.0445133
0.0416957
0.0426106
0.0399276
0.0408017
0.0382327
0.0390713
0.036606
0.0374109
0.0350459
0.0358175
0.0335529
0.0342909
0.0321265
0.0328313
0.0307649
0.0314376
0.0294652
0.0301074
0.0282233
0.0288371
0.027035
0.0276226
0.0258959
0.0264595
0.0248017
0.0253434
0.023749
0.0242703
0.0227323
0.0232368
0.0217483
0.0222357
0.020799
0.0212698
0.0198674
0.020333
0.0204231
0.0194802
0.0199551
0.021361
0.0208934
0.0223144
0.0218347
0.0232976
0.0228018
0.0243153
0.0238019
0.0253706
0.024838
0.0264669
0.0259133
0.0276076
0.0270314
0.0287961
0.0281956
0.0300355
0.0294092
0.0313281
0.0306749
0.0326754
0.0319948
0.0340776
0.0333696
0.0355335
0.0347988
0.0370423
0.0362812
0.0386059
0.0378168
0.0402327
0.0394104
0.0419398
0.0410746
0.0437505
0.0428305
0.0456854
0.0447013
0.0477498
0.0467016
0.0499254
0.0488257
0.0521692
0.0510421
0.0544235
0.0532993
0.0566116
0.0555318
0.0586639
0.0576566
0.0605272
0.0596293
0.0619974
0.0613278
0.062859
0.062506
0.0629734
0.0630278
0.0620681
0.062668
0.0597647
0.0611191
0.0558262
0.0580462
0.0494768
0.052941
0.0454053
0.0346984
0.0283964
0.131843
0.129003
0.135706
0.129122
0.0190959
0.0190012
0.0194049
0.0197686
0.0193157
0.138215
0.126908
0.139239
0.122329
0.138643
0.115373
0.136211
0.106319
0.131808
0.0955512
0.12535
0.0834137
0.116799
0.0700839
0.10645
0.055965
0.0944559
0.0416026
0.0811053
0.0659418
0.0502705
0.026889
0.0208358
0.0157675
0.00934746
0.131158
0.019558
0.0194828
0.0197032
0.0196325
0.0198237
0.0197672
0.0199128
0.0198724
0.0199703
0.0199455
0.0199962
0.0199874
0.0199888
0.0199967
0.0199485
0.0199728
0.0198758
0.0199162
0.0197717
0.0198277
0.0196373
0.0197083
0.019471
0.0195575
0.0192883
0.0193788
0.0191854
0.0385609
0.0343689
0.0465092
0.0421673
0.0541614
0.0506702
0.0591531
0.0569337
0.0623443
0.0609449
0.0641366
0.0634008
0.0648097
0.0645974
0.0646281
0.0648122
0.0638078
0.0642881
0.0625053
0.063209
0.0608546
0.0617164
0.0589647
0.0599344
0.0569166
0.0579563
0.0547753
0.0558541
0.0525961
0.0536873
0.0504289
0.0515081
0.048317
0.0493635
0.0462927
0.0472923
0.0443714
0.0453187
0.0425515
0.0434493
0.0408197
0.0416754
0.0391602
0.0399817
0.0375619
0.0383536
0.0360195
0.0367837
0.0345328
0.035269
0.0331032
0.0338107
0.0317316
0.03241
0.0304173
0.0310672
0.0291585
0.029781
0.0279523
0.0285489
0.0267951
0.0273677
0.0256834
0.0262338
0.0246135
0.0251434
0.0235816
0.024093
0.0225839
0.0230787
0.0216186
0.0220971
0.0206832
0.0211476
0.0202251
0.0202886
0.0193751
0.0198375
0.0211988
0.0207426
0.0221338
0.0216629
0.0230972
0.0226117
0.0240921
0.0235905
0.0251218
0.0246024
0.0261891
0.0256504
0.0272969
0.0267377
0.0284481
0.0278669
0.0296449
0.0290406
0.0308889
0.0302608
0.0321804
0.0315286
0.0335184
0.0328436
0.0349006
0.034204
0.0363245
0.0356073
0.0377908
0.0370521
0.0393059
0.0385414
0.0408849
0.040086
0.0425481
0.0417044
0.0443137
0.0434172
0.0461846
0.0452364
0.0481408
0.0471541
0.0501382
0.0491378
0.0521158
0.051134
0.0539968
0.0530738
0.0557107
0.0548784
0.0571755
0.0564839
0.058217
0.0577634
0.0586665
0.0585219
0.0583886
0.0586501
0.0570032
0.0578511
0.0544098
0.0558567
0.0501164
0.0524549
0.0436891
0.0471587
0.0348753
0.039645
0.0229547
0.0293119
0.0123891
0.00756665
0.0155825
0.136317
0.133073
0.0189131
0.0189468
0.0188648
0.140098
0.132607
0.00277374
0.00348474
-0.00285473
0.142381
0.129545
0.143044
0.123847
0.141914
0.115613
0.138785
0.105228
0.133481
0.0930589
0.125902
0.0793375
0.116189
0.0645711
0.10447
0.049391
0.0909717
0.0336003
0.0757452
0.017995
0.0594283
0.0442727
0.026984
0.00872313
0.00341591
0.00291441
-0.00148722
-0.00507051
0.135483
0.0190927
0.0190205
0.0192314
0.0191647
0.0193441
0.0192914
0.0194274
0.0193895
0.0194812
0.019458
0.0195048
0.0194969
0.0194972
0.019505
0.0194585
0.0194818
0.0193893
0.0194277
0.0192903
0.0193435
0.0191616
0.0192296
0.0190057
0.0190872
0.0188253
0.0189182
0.0186324
0.018729
0.0184512
0.0185403
0.0187252
0.011051
0.0324255
0.0262064
0.0407063
0.0367088
0.0482328
0.0446874
0.0535546
0.0511719
0.0570934
0.0555115
0.0592873
0.058346
0.0603793
0.0599574
0.0606088
0.0605895
0.0601788
0.0604666
0.0592456
0.0597675
0.0579375
0.0586318
0.0563599
0.0571772
0.0545948
0.0554967
0.0527087
0.0536634
0.0507592
0.0517386
0.0487985
0.0497772
0.0468719
0.0478284
0.0450134
0.0459325
0.0432398
0.0441154
0.0415513
0.0423853
0.0399366
0.0407355
0.0383817
0.0391523
0.0368768
0.0376234
0.0354169
0.0361411
0.0340029
0.034704
0.0326367
0.0333136
0.0313204
0.0319722
0.0300543
0.030681
0.0288376
0.0294398
0.0276682
0.028247
0.0265434
0.0271003
0.0254601
0.0259967
0.0244152
0.024933
0.0234054
0.0239061
0.0224279
0.0229127
0.0214802
0.0219504
0.0205594
0.0210165
0.0196598
0.0201084
0.0187752
0.0192176
0.0192611
0.0183655
0.0188171
0.0201367
0.0196976
0.0210301
0.0205817
0.0219458
0.0214846
0.0228882
0.0224135
0.0238597
0.0233701
0.0248627
0.024357
0.0259
0.0253769
0.026974
0.0264322
0.0280868
0.0275254
0.0292401
0.0286582
0.0304346
0.0298321
0.0316697
0.031047
0.0329434
0.0323018
0.0342524
0.0335937
0.0355932
0.0349189
0.0369651
0.0362751
0.038373
0.0376639
0.0398293
0.0390939
0.0413517
0.0405809
0.042955
0.0421425
0.0446402
0.043788
0.046386
0.0455077
0.0481477
0.0472684
0.0498627
0.0490158
0.0514554
0.0506796
0.0528511
0.052183
0.0539571
0.0534493
0.0546259
0.0543577
0.0546948
0.0547475
0.0540149
0.0544458
0.0523179
0.0532811
0.0493746
0.0510175
0.0448529
0.0473339
0.038413
0.0418948
0.0296823
0.0343206
0.0181028
0.024279
0.0111509
-0.011383
-0.0143326
0.140643
0.136932
-0.00416146
0.144276
0.135725
0.0180022
0.0179126
0.0183342
0.0186798
0.0182492
0.146268
0.131646
0.146491
0.1247
0.144751
0.11507
0.140817
0.103205
0.134504
0.0893695
0.125741
0.0739661
0.114663
0.0579221
0.101403
0.0412029
0.0862925
0.0244115
0.0697647
0.00799641
0.052727
-0.00769608
0.0366952
0.0163915
-0.000310098
-0.0223109
-0.024654
0.139628
0.0184931
0.0184139
0.0186353
0.0185656
0.0187664
0.0187039
0.0188715
0.0188223
0.0189497
0.0189141
0.019
0.0189784
0.0190215
0.0190144
0.0190136
0.0190213
0.0189765
0.0189988
0.0189104
0.0189471
0.018816
0.0188668
0.0186941
0.0187584
0.0185467
0.0186236
0.0183734
0.0184633
0.0181863
0.01828
0.0180885
-0.000490962
-0.0134144
0.0130352
0.00607949
0.0263687
0.0200201
0.0355189
0.0313965
0.0428487
0.0393558
0.0483735
0.0458622
0.052201
0.0504697
0.0547278
0.0536147
0.0561794
0.0555761
0.0567725
0.056572
0.0566956
0.0568087
0.0560995
0.0564552
0.0551074
0.0556467
0.0538215
0.0544961
0.0523233
0.0530948
0.0506801
0.0515162
0.0489509
0.0498229
0.0471895
0.0480711
0.0454425
0.0463116
0.0437445
0.0445857
0.0421136
0.0429201
0.0405517
0.0413243
0.0390496
0.0397939
0.0375955
0.0383171
0.0361805
0.0368835
0.0348012
0.0354863
0.0334588
0.0341251
0.0321558
0.0328021
0.0308951
0.0315199
0.0296779
0.0302809
0.028504
0.0290855
0.0273723
0.0279329
0.0262807
0.0268216
0.0252267
0.0257491
0.0242078
0.024713
0.0232211
0.0237105
0.0222641
0.0227389
0.0213343
0.0217959
0.0204293
0.0208788
0.0195454
0.0199853
0.0191108
0.0191239
0.018268
0.0187001
0.0199784
0.0195515
0.0208543
0.0204139
0.0217509
0.0212997
0.0226716
0.022208
0.0236186
0.0231416
0.0245943
0.0241027
0.0256008
0.0250935
0.0266401
0.0261162
0.0277138
0.0271725
0.0288228
0.0282637
0.0299672
0.0293905
0.0311457
0.0305522
0.0323554
0.0317468
0.0335922
0.0329707
0.0348519
0.0342194
0.0361325
0.0354895
0.0374374
0.0367814
0.0387766
0.0381018
0.0401645
0.0394634
0.041613
0.0408807
0.0431207
0.0423602
0.0446654
0.0438907
0.0462027
0.0454387
0.0476699
0.0469498
0.0489925
0.0483545
0.0500929
0.0495762
0.0508755
0.0505322
0.0512114
0.0511093
0.0509512
0.0511676
0.0499287
0.0505473
0.0479393
0.0490669
0.0447423
0.0465118
0.0400527
0.0426059
0.0335615
0.0370576
0.024961
0.0295481
0.0137326
0.0197267
-4.22233e-05
0.00719046
-0.0168104
-0.00804399
-0.0356304
-0.0364897
-0.0263472
0.144715
0.140463
0.0178246
0.0178961
0.0178168
0.148123
0.138347
0.149742
0.133085
0.149443
0.124718
0.146996
0.113531
0.142163
0.0999368
0.134721
0.0842993
0.12463
0.0673883
0.11203
0.0497225
0.097193
0.0317075
0.0805968
0.0138582
-0.0342414
0.0626877
-0.00329952
-0.0193277
0.0449889
0.0258228
0.00598218
-0.0103478
-0.0246985
-0.0370504
-0.0474076
-0.0474053
-0.0470243
0.143483
0.0180479
0.0179702
0.0181845
0.0181166
0.0183078
0.0182493
0.018406
0.01836
0.0184793
0.0184459
0.0185261
0.0185061
0.0185458
0.0185394
0.0185377
0.0185453
0.0185021
0.0185234
0.018439
0.018474
0.0183491
0.0183974
0.0182334
0.0182944
0.0180934
0.0181664
0.017929
0.0180144
0.0177454
0.0178383
0.0175597
0.0176523
0.0173851
0.0174719
-0.0205218
-0.0403675
-0.0300795
-0.00401257
-0.0118422
0.0090248
0.00263078
0.0213132
0.0153774
0.0307101
0.0264333
0.0379537
0.0345147
0.0435926
0.0409927
0.0476524
0.0458001
0.0504525
0.0491972
0.0522109
0.0514514
0.0531226
0.0527624
0.0533617
0.0533178
0.053071
0.0532756
0.0523691
0.0527656
0.0513544
0.051896
0.0501068
0.0507557
0.0486937
0.0494174
0.0471751
0.0479442
0.0456053
0.0463935
0.0440315
0.0448163
0.0424885
0.0432545
0.0409953
0.041735
0.0395552
0.0402688
0.0381614
0.0388531
0.0368041
0.0374787
0.0354761
0.0361367
0.0341752
0.0348222
0.032903
0.0335353
0.0316627
0.0322786
0.0304575
0.0310555
0.0292895
0.0298688
0.0281591
0.0287195
0.0270658
0.0276078
0.0260082
0.0265326
0.0249843
0.0254921
0.023992
0.0244843
0.023029
0.0235069
0.0220931
0.0225577
0.0211819
0.0216345
0.0202936
0.020735
0.0194259
0.0198572
0.0185754
0.0190005
0.0177294
0.0181526
0.0181519
0.0172976
0.0177235
0.0189795
0.0185668
0.0198159
0.0193957
0.0206729