/*--------------------------------*- C++ -*----------------------------------*\
  =========                 |
  \\      /  F ield         | OpenFOAM: The Open Source CFD Toolbox
   \\    /   O peration     | Website:  https://openfoam.org
    \\  /    A nd           | Version:  10
     \\/     M anipulation  |
\*---------------------------------------------------------------------------*/
FoamFile
{
    format      ascii;
    class       surfaceScalarField;
    location    "34.5";
    object      phi;
}
// * * * * * * * * * * * * * * * * * * * * * * * * * * * * * * * * * * * * * //

dimensions      [0 3 -1 0 0 0 0];

internalField   nonuniform List<scalar> 
12623
(
0.378549
0.0840097
-0.136211
-0.326348
0.291343
-0.116692
0.203898
0.314824
-0.14156
-0.292772
0.119508
-0.158625
0.33294
0.140508
-0.29454
0.157341
-0.163934
0.301134
-0.284183
-0.168983
0.00216043
0.163053
-0.187468
0.0222545
-0.203075
0.205235
-0.294193
0.00821755
0.285976
-0.16883
0.00295865
-0.128322
0.439321
-0.17665
-0.262671
-0.285345
0.233425
0.491241
-0.203942
-0.146789
0.149927
0.200804
0.0188915
0.0338426
-0.256676
-0.19305
0.0651525
0.0775358
-0.0403901
-0.0455923
0.00844657
-0.0138282
-0.0356914
0.127055
-0.08574
0.0315217
-0.0221046
-0.0539572
0.0281788
0.0478831
-0.0930004
-0.00231429
0.0732101
-0.0663454
-0.0806123
0.00920358
0.0533584
-0.0688466
0.00628466
-0.032713
-0.00654542
0.048462
-0.163915
0.18456
-0.272721
0.0259163
0.280647
0.0409665
-0.304276
-0.00941178
-0.310381
0.0246039
0.311693
-0.224781
-0.0108072
0.016806
0.218782
-0.233621
0.0731236
-0.0642833
-0.208434
0.203174
-0.0337858
0.0390455
-0.210723
-0.00851787
-0.369254
0.156437
-0.158193
0.371011
-0.155625
-0.346072
0.132443
0.334656
-0.439651
0.113697
-0.121676
0.44763
-0.133589
-0.407207
0.101144
-0.402198
-0.140206
0.408815
-0.375143
0.129382
0.451894
-0.101115
-0.458079
0.107301
-0.069124
0.112359
0.408659
-0.456257
-0.104639
0.459781
-0.434425
0.0918655
0.0787556
-0.077695
0.202113
-0.238518
0.159419
-0.159614
0.238713
-0.144519
-0.22495
0.130951
-0.150723
-0.275019
-0.259939
-0.167175
0.258132
-0.251243
-0.0376888
-0.354074
0.029437
0.362326
0.256905
0.0488071
-0.343401
-0.25096
0.0861215
0.421744
-0.10855
0.378936
-0.310356
0.0399705
-0.310703
0.306987
0.0704878
-0.0798294
-0.297646
0.0765539
0.286109
-0.0556761
-0.0283857
0.0172493
0.314237
-0.303101
-0.325224
0.322459
-0.0256208
0.311336
-0.0276537
0.0320565
-0.315739
0.260715
-0.257494
0.202621
-0.205841
0.212291
0.257225
-0.208802
-0.253131
0.189099
-0.193462
-0.23623
0.169063
-0.185964
-0.219405
0.144565
-0.161389
-0.198955
0.112131
-0.132582
-0.185385
0.0662399
-0.0798095
-0.176699
0.00728929
-0.0159757
-0.175729
-0.0568358
0.0558663
-0.117821
-0.181869
0.12396
0.272046
-0.265771
0.206016
0.211206
0.256982
-0.210963
0.273357
0.209896
-0.260564
0.197414
-0.246259
0.174793
-0.232273
0.155077
-0.214667
0.126959
-0.198745
0.0962088
-0.183597
0.0510924
-0.176398
9.03876e-05
-0.177739
-0.0554952
-0.18471
-0.11085
-0.194133
0.26855
0.198939
0.249663
-0.186813
-0.167793
-0.194915
0.18084
-0.202286
-0.150217
-0.167675
0.261235
0.174991
0.245907
-0.163919
-0.200432
-0.212386
0.217902
-0.216705
-0.186013
-0.126433
0.252997
0.13467
-0.114147
-0.219633
-0.226289
0.233536
-0.236105
-0.200233
0.245283
0.0808373
0.0212229
0.240866
-0.230401
0.241437
-0.237324
-0.215107
-0.251399
0.272454
-0.285547
0.147764
-0.251988
0.254745
0.0184658
0.101303
0.291736
-0.289346
0.196549
0.18118
0.282057
-0.271867
0.195825
0.202607
0.261037
-0.246635
0.160391
0.186585
0.231491
-0.215604
0.111071
0.139933
0.201497
-0.190017
0.0396129
0.0821016
0.187144
-0.188868
-0.0537715
-0.00278281
0.200521
-0.213557
-0.13718
-0.0991972
0.233542
-0.247595
-0.186179
-0.166029
-0.264107
-0.198595
-0.214697
0.207239
0.22536
0.231453
0.251707
-0.241723
0.250293
-0.193633
0.189107
0.128487
0.194445
-0.191685
0.195189
-0.0194793
0.0532878
-0.215152
0.222809
-0.140239
-0.0997729
-0.248663
0.250222
-0.187523
-0.187243
-0.267243
0.255945
-0.194544
-0.210483
-0.258946
0.238
-0.190017
-0.211803
-0.236358
0.221811
-0.149372
-0.185172
-0.219852
-0.0551547
-0.112187
0.0323839
-0.0346871
0.24317
0.21738
-0.02275
0.242808
0.22133
-0.276518
-0.208919
0.229491
-0.259559
-0.251307
0.248975
0.254039
0.246362
-0.241094
-0.246991
-0.250844
0.2459
-0.218974
0.22546
-0.283004
-0.292838
0.276491
-0.192573
-0.206784
-0.305027
0.208125
-0.205206
0.0361264
0.278681
-0.298067
0.0378517
0.285415
-0.0294841
0.202896
0.0839847
-0.248928
0.29703
-0.298868
0.149602
0.100266
0.298207
-0.294309
0.19265
0.180519
0.288614
-0.274159
0.18137
0.196912
0.257518
-0.245008
0.147881
0.169944
0.230707
-0.218755
0.0991196
0.125632
0.206349
-0.199554
0.032818
0.0696954
0.196008
-0.20023
-0.0495493
-0.00632928
0.210726
-0.22521
-0.122696
-0.0887009
0.242922
-0.260806
-0.168296
-0.148317
-0.18291
-0.24552
0.233379
0.237502
0.253747
-0.225732
0.216236
0.137983
0.202092
-0.211083
0.217402
-0.025798
0.0584411
-0.215721
0.236707
-0.161225
-0.0980919
-0.234198
0.255497
-0.208822
-0.184734
-0.244192
0.256587
-0.206939
-0.199178
-0.23527
0.236258
-0.191004
-0.190486
-0.218562
0.209703
-0.140513
-0.167476
-0.20155
0.206054
-0.0596586
-0.104035
-0.00766937
0.0779055
-0.0605696
0.225834
0.21759
0.0684523
0.276056
-0.0590932
0.250691
-0.238593
0.226514
-0.238766
-0.237144
-0.24844
0.231697
-0.265796
-0.314636
0.294083
-0.17202
-0.332226
-0.189194
0.223552
-0.212732
-0.315848
0.228231
-0.287683
-0.247308
0.259814
0.214008
0.206635
-0.211155
-0.234246
-0.23201
0.191338
0.116649
-0.112444
0.197908
0.20092
0.118625
-0.121162
0.121829
0.275389
0.300198
-0.302053
-0.0572388
0.306391
-0.127355
-0.207512
0.0819368
0.20956
-0.203772
0.0323863
-0.254376
0.316157
-0.322234
0.0439285
-0.0153801
0.326963
-0.32643
0.149069
0.104995
0.324043
-0.317378
0.185986
0.178131
0.299395
-0.292203
0.174178
0.178929
0.273142
-0.261995
0.136734
0.150884
0.245711
-0.234671
0.0880795
0.109349
0.221319
-0.214177
0.0256758
0.0563432
0.210536
-0.213931
-0.0461548
-0.00997008
0.224938
-0.237166
-0.110468
-0.0776936
0.255554
-0.271391
-0.152458
-0.129929
-0.160218
-0.270737
0.272651
0.252125
0.234976
-0.271386
0.266645
0.242243
0.255011
-0.264407
0.252457
0.149933
0.20433
-0.248655
0.246989
-0.0241324
0.0622432
-0.248376
0.252597
-0.165447
-0.0994783
-0.257126
0.260911
-0.212606
-0.189263
-0.260056
0.254804
-0.201687
-0.198323
-0.245637
0.234748
-0.180115
-0.181319
-0.219689
0.213564
-0.134388
-0.152417
-0.203377
0.198866
-0.0551484
-0.0938473
-0.012575
0.119613
-0.119865
0.226086
0.22476
0.252655
-0.347849
-0.197109
-0.222476
-0.237118
0.227484
-0.265048
-0.172582
0.159475
-0.218903
-0.188383
-0.218445
0.211581
-0.204311
-0.323119
0.214013
-0.290115
-0.150005
0.152339
0.273055
-0.14822
0.304606
0.155732
-0.157679
0.199855
0.14508
0.211572
0.203442
-0.203153
0.0320971
0.072943
0.212436
0.343768
-0.342407
-0.0585998
0.333741
-0.117328
-0.362321
-0.189838
0.16766
-0.157853
-0.372127
0.173687
-0.329146
0.209434
0.118751
-0.249369
0.351705
-0.365845
0.0580684
-0.00608191
0.365817
-0.362854
0.146106
0.104967
0.345021
-0.333893
0.174858
0.160299
0.319206
-0.303424
0.158396
0.164242
0.288509
-0.272779
0.121004
0.135968
0.258394
-0.244551
0.0742359
0.0949645
0.233487
-0.226356
0.0185448
0.0452791
0.224431
-0.228409
-0.0421773
-0.0118945
0.236533
-0.249331
-0.09767
-0.0695694
0.265263
-0.284937
-0.132784
-0.113998
0.304322
-0.325403
-0.150939
-0.140833
0.347558
-0.376014
-0.168653
-0.167039
0.39382
-0.41744
-0.134234
-0.172033
-0.266269
0.279276
0.201001
0.247145
-0.228592
0.140922
0.172214
-0.28998
0.300507
0.241599
0.224272
-0.309122
0.303206
0.248159
0.246396
-0.304543
0.300793
0.153683
0.202994
-0.296625
0.293741
-0.0212491
0.0664114
-0.291461
0.289056
-0.163042
-0.0971978
-0.286458
0.282972
-0.20912
-0.186665
-0.277399
0.267977
-0.192265
-0.19275
-0.256301
0.242543
-0.166358
-0.169642
-0.231985
0.218427
-0.12083
-0.141858
-0.210783
0.204396
-0.0487611
-0.0862032
-0.0113321
0.146123
-0.149464
0.229427
0.213204
0.25553
0.116586
-0.129661
-0.205828
-0.211464
0.0994576
-0.0830222
0.0958445
-0.38495
-0.427728
-0.0727342
-0.199744
-0.225757
0.209336
-0.260371
-0.135116
0.320637
0.144466
0.210048
0.215077
-0.214065
0.0310859
0.219122
0.0688972
-0.143457
-0.20465
0.173184
-0.289611
-0.05849
0.0482306
-0.201205
-0.0690471
-0.195271
0.101078
-0.33438
-0.00184202
0.00189686
-0.385004
0.00702273
-0.436592
0.218401
0.112786
-0.239777
0.382387
-0.391906
-0.0490805
-0.360575
0.34531
-0.119851
-0.0955152
0.404431
-0.404901
0.0585382
0.00644256
0.39829
-0.386407
0.134223
0.0983558
0.371241
-0.354058
0.157675
0.145133
0.335983
-0.317902
0.140315
0.146167
0.300302
-0.283207
0.103908
0.118368
0.26794
-0.254717
0.0610127
0.0796977
0.245184
-0.239452
0.012813
0.0357464
0.238336
-0.241486
-0.0390277
-0.0130105
0.249165
-0.261585
-0.0852499
-0.0618905
0.27739
-0.295768
-0.114406
-0.098193
0.316423
-0.332907
-0.134455
-0.120179
0.361848
-0.382857
-0.147644
-0.138097
0.416079
-0.439237
-0.111075
-0.13881
0.453091
-0.458384
0.0123152
-0.0588803
-0.240453
0.260136
0.121239
0.222584
-0.211088
0.0367351
0.0815887
-0.277997
0.297392
0.181607
0.154353
-0.316142
0.322522
0.235219
0.205522
-0.336945
0.345772
0.239331
0.231973
-0.350385
0.351293
0.152774
0.198381
-0.348821
0.34398
-0.0164081
0.0688835
-0.337799
0.329124
-0.154367
-0.0910168
-0.319388
0.308312
-0.198044
-0.176928
-0.297425
0.284298
-0.179138
-0.181863
-0.270259
0.255108
-0.151207
-0.155603
-0.240257
0.23071
-0.111283
-0.127007
-0.222059
0.217541
-0.0442436
-0.0775526
-0.007856
-0.01076
0.00720345
-0.197648
-0.205891
-0.0159575
0.0885632
-0.0969585
-0.428197
-0.454786
0.0849654
0.218348
0.106958
0.166043
-0.169109
0.213114
0.224777
0.163537
-0.172374
0.208692
0.206
0.171061
-0.168002
0.226368
0.211891
0.163412
-0.159502
0.269145
0.25094
0.153562
-0.142794
0.309869
0.298666
-0.126823
0.329338
-0.156663
-0.212551
0.167089
-0.254276
-0.0783929
-0.195304
0.0998421
-0.288375
0.00416932
-0.192236
0.00405316
-0.336536
0.0688676
-0.0650635
-0.209695
0.0728301
-0.201611
-0.100207
-0.381756
-0.149947
0.13839
-0.443228
-0.170343
-0.407802
0.361755
-0.379585
-0.102021
0.342771
-0.107839
-0.229351
0.400586
-0.416304
-0.0333619
-0.0745139
0.426013
-0.4272
0.0597252
0.0161509
0.417463
-0.403557
0.120318
0.0886186
0.385377
-0.365892
0.138189
0.126953
0.34526
-0.325645
0.120701
0.125535
0.306778
-0.290192
0.087323
0.0995002
0.275998
-0.264634
0.0496491
0.0655034
0.256881
-0.251881
0.00781299
0.0279933
0.251351
-0.254539
-0.0358392
-0.013541
0.263471
-0.276441
-0.07228
-0.0529589
0.292735
-0.310195
-0.0969459
-0.0818983
0.328183
-0.347727
-0.114911
-0.102191
0.370097
-0.396086
-0.121655
-0.115728
0.423552
-0.441696
-0.0929312
-0.111344
0.448534
-0.450567
0.0143482
-0.0520431
0.44496
-0.437196
0.130626
0.0793583
-0.222204
0.235165
0.023774
0.217047
-0.220454
-0.0616565
-0.021115
-0.252044
0.27236
0.100924
0.06471
-0.295759
0.309753
0.167613
0.130953
-0.331242
0.35069
0.215771
0.184033
-0.367508
0.382807
0.224031
0.215156
-0.393651
0.399619
0.146807
0.187537
-0.398784
0.392422
-0.0100463
0.0697185
-0.382278
0.367476
-0.139566
-0.0808726
-0.350292
0.331063
-0.178816
-0.159744
-0.313817
0.296936
-0.162257
-0.164618
-0.281434
0.265458
-0.135231
-0.140101
-0.252429
0.241955
-0.10081
-0.113978
-0.233821
0.229197
-0.0396206
-0.0694179
-0.225479
0.228427
0.0281376
-0.00413752
-0.233213
0.24526
0.0949117
0.0641113
0.124968
0.169816
-0.176078
0.219375
-0.165576
0.237113
0.229017
0.177691
-0.177704
0.208705
0.207613
0.176245
-0.177008
0.227131
0.210432
0.167809
-0.165306
0.266641
0.241741
0.149914
-0.142805
0.30276
0.283275
-0.103965
0.114879
-0.220609
-0.233794
-0.0906251
0.165812
-0.189535
-0.419505
-0.41897
0.147586
0.125378
-0.105181
0.322574
0.31191
-0.0876914
-0.203252
0.0953735
-0.249808
0.00198901
-0.193124
0.00228781
-0.28661
0.0787631
-0.198169
-0.104272
-0.332472
0.127082
-0.213814
-0.186803
-0.365295
0.124236
-0.104638
-0.253391
0.142656
-0.239029
-0.216544
-0.380793
-0.163326
-0.39079
0.135146
-0.201155
-0.381676
-0.273951
0.251708
-0.0823954
-0.111546
0.131073
-0.272918
-0.2903
-0.0951966
0.120847
-0.157843
-0.353794
-0.354658
0.379815
0.109989
-0.327214
0.0934033
0.336065
-0.352895
-0.0883511
-0.105139
0.118702
0.309011
0.302966
-0.0720397
-0.221669
0.371984
-0.401375
-0.0726303
-0.0887494
0.421715
-0.438506
-0.0165707
-0.0541741
0.441184
-0.436427
0.0549677
0.0188292
0.425512
-0.409997
0.104803
0.0777045
0.390533
-0.370161
0.117817
0.107489
0.348791
-0.329648
0.101558
0.104166
0.311289
-0.296539
0.0725727
0.0811412
0.28334
-0.273326
0.0396353
0.0523041
0.265793
-0.26133
0.00334997
0.0204609
0.261522
-0.265703
-0.0316581
-0.0133492
0.275291
-0.287421
-0.0601496
-0.0433712
0.301682
-0.31675
-0.0818783
-0.0676374
0.333715
-0.353628
-0.0949983
-0.0852254
0.375122
-0.397905
-0.0988717
-0.0942335
0.419311
-0.435287
-0.0769553
-0.0899384
0.443385
-0.435103
0.00606663
-0.0439449
0.418264
-0.39895
0.111312
0.062519
0.128451
-0.234309
0.228972
-0.0563188
-0.0732263
-0.232981
0.244108
0.0126472
-0.0251244
-0.260784
0.276338
0.0853694
0.0480335
-0.297681
0.321137
0.144157
0.10961
-0.344105
0.368599
0.191277
0.161065
-0.391154
0.412495
0.20269
0.192601
-0.428115
0.437528
0.137394
0.171917
-0.438566
0.430814
-0.0022937
0.0686801
-0.416985
0.3969
-0.119482
-0.0670434
-0.374751
0.3504
-0.154464
-0.137594
-0.329106
0.309455
-0.142606
-0.143324
-0.292607
0.276598
-0.119222
-0.123252
-0.263222
0.252662
-0.0902489
-0.100603
-0.246559
0.244535
-0.0375963
-0.0633156
-0.244545
0.246249
0.0264328
-0.00414709
-0.25198
0.26341
0.0834818
0.0583803
0.113359
0.173898
-0.182349
0.245564
0.268096
0.184348
-0.183681
0.218708
0.231016
0.182544
-0.180522
0.206683
0.206476
0.176767
-0.170934
0.221298
0.206677
0.162784
-0.150443
0.254299
0.233591
0.139816
-0.130177
0.293122
0.272648
0.300435
0.000506098
-0.201769
0.00132914
-0.248849
0.0856046
-0.199965
-0.102877
-0.288005
0.141107
-0.212194
-0.193373
-0.325902
0.160591
-0.231749
-0.24156
-0.340279
0.15215
-0.260106
-0.233944
-0.348005
0.121252
-0.104062
-0.30749
0.136349
-0.288015
-0.185503
-0.354016
-0.0992652
-0.304393
0.0764439
-0.135695
-0.317364
-0.305435
0.292315
-0.0909421
-0.113049
0.128143
-0.322584
-0.321238
-0.0972472
0.0672216
-0.0883332
-0.283281
-0.313088
0.324509
0.0650236
-0.30359
0.057723
-0.107938
0.112749
0.3042
-0.100316
0.295343
0.341067
-0.36248
-0.0669381
0.333961
-0.0649333
-0.219833
0.382263
-0.407677
-0.0472165
-0.068966
0.427496
-0.440118
-0.00394901
-0.034355
0.441965
-0.43683
0.0498329
0.0206764
0.426228
-0.409444
0.0880188
0.0671016
0.39131
-0.370341
0.0968478
0.089355
0.351158
-0.33202
0.0824191
0.0849832
0.315832
-0.300755
0.0574955
0.0649534
0.288898
-0.278752
0.0294893
0.0404475
0.272934
-0.269997
0.000413073
0.0146432
0.272403
-0.277571
-0.0264901
-0.0109437
0.28584
-0.294628
-0.0513607
-0.0351025
0.304517
-0.316262
-0.0701327
-0.057749
0.330319
-0.347237
-0.0780795
-0.0711692
0.365371
-0.386263
-0.0779791
-0.0761005
0.407502
-0.426783
-0.0576742
-0.0686999
0.437071
-0.430621
-0.000382647
-0.0336569
0.409064
-0.376804
0.079052
0.0409617
0.348051
-0.337111
0.0990478
0.0996978
0.0808013
-0.280054
0.266938
-0.0692797
-0.0829349
-0.250121
0.239147
-0.0453451
-0.0564088
-0.239355
0.250883
0.00111936
-0.0253323
-0.266858
0.286327
0.0658997
0.0320583
-0.305701
0.327902
0.121957
0.0902368
-0.351343
0.378059
0.164561
0.137624
-0.403346
0.428063
0.177973
0.167314
-0.446901
0.459522
0.124773
0.153079
-0.462597
0.455253
0.00504985
0.0656052
-0.439868
0.417365
-0.0969787
-0.051658
-0.39336
0.367321
-0.128425
-0.11359
-0.34456
0.323143
-0.121189
-0.120563
-0.305544
0.288435
-0.102114
-0.105653
-0.27472
0.263606
-0.0791352
-0.0868873
-0.258165
0.256315
-0.0357457
-0.0578744
-0.258986
0.262914
0.0225055
-0.00681903
-0.272058
0.276157
0.079383
0.0492358
0.0967443
0.163495
-0.167567
0.305205
0.339957
0.179284
-0.188368
0.254649
0.279813
0.188193
-0.1854
0.215915
0.230842
0.180948
-0.175944
0.201679
0.202024
0.170212
-0.162727
0.213813
0.200946
0.153422
-0.142881
0.243759
0.224286
0.132914
-0.121619
0.281827
0.262681
0.291565
0.092719
-0.208884
-0.0989148
-0.252811
0.156814
-0.215672
-0.192084
-0.289294
0.180556
-0.23216
-0.248747
-0.318714
0.173365
-0.252963
-0.255653
-0.31857
0.155813
-0.27957
-0.215764
-0.317743
0.145268
-0.30514
-0.164613
-0.325098
0.117499
-0.102091
-0.336645
0.131448
-0.336534
-0.12166
-0.284037
-0.0644678
0.0568215
-0.295943
-0.0801617
-0.267587
0.000980718
0.232664
-0.226029
0.338803
-0.360993
-0.0447482
-0.310241
0.242641
0.0685806
-0.0363714
0.386797
-0.403609
-0.0304046
-0.0431617
0.422484
-0.431752
0.00531911
-0.0154798
0.435156
-0.428974
0.0436508
0.0240803
0.419729
-0.40322
0.0715102
0.0578562
0.386896
-0.36612
0.0760718
0.0730306
0.348635
-0.329255
0.0630391
0.0674981
0.314674
-0.299589
0.0424106
0.0503721
0.289647
-0.280901
0.0207433
0.030506
0.27731
-0.276114
-0.000783405
0.0110522
0.278076
-0.281405
-0.0231603
-0.00898189
0.285464
-0.291491
-0.0453337
-0.0310445
0.299524
-0.311324
-0.0583323
-0.049716
0.324823
-0.34097
-0.0619321
-0.0576702
0.35814
-0.377501
-0.0586175
-0.0589312
0.396007
-0.412457
-0.0412252
-0.0501937
0.422499
-0.421647
-0.00123443
-0.0236143
0.407783
-0.382517
0.0537861
0.0270973
0.355621
-0.335551
0.0789771
0.072802
0.327599
-0.323385
0.0608088
0.0728503
0.316398
-0.306087
0.0465102
0.0507362
-0.289908
0.276751
-0.0777848
0.301091
-0.323387
-0.0797954
-0.0860642
-0.268245
0.263095
-0.0641297
-0.0744295
-0.256292
0.248566
-0.0376194
-0.0496053
-0.244983
0.250983
-0.0048806
-0.0217491
-0.265424
0.286302
0.0450215
0.0176171
-0.308321
0.332773
0.0975044
0.0682179
-0.356904
0.383601
0.137864
0.113493
-0.408957
0.434439
0.152491
0.141958
-0.454563
0.468893
0.110444
0.132954
-0.473056
0.465634
0.0124717
0.061442
-0.448792
0.424943
-0.0731297
-0.0348161
-0.400957
0.375837
-0.103304
-0.0896038
-0.354207
0.333295
-0.100278
-0.0989335
-0.316693
0.299725
-0.0851454
-0.0890505
-0.286426
0.274214
-0.0669229
-0.0735885
-0.268365
0.266674
-0.0340547
-0.0520256
-0.270456
0.275752
0.0172093
-0.0106015
-0.283635
0.299195
0.0638224
0.0413537
-0.311194
0.326998
0.103704
0.0847455
0.121434
0.158858
-0.173684
0.320031
-0.147953
0.378758
0.350862
0.180999
-0.185902
0.259552
0.287128
0.183399
-0.178475
0.210991
0.228338
0.171747
-0.164047
0.193979
0.195296
0.156298
-0.147818
0.205333
0.193197
0.138558
-0.129981
0.235181
0.215026
0.116887
-0.103552
0.268492
0.249587
0.0992111
-0.0931286
0.298118
0.287224
0.11793
0.357375
0.320144
-0.102354
0.119615
-0.353907
-0.340666
-0.0850751
0.0526152
-0.0621892
-0.286369
-0.295573
0.0421014
0.172105
-0.224175
-0.184578
-0.260317
-0.358451
0.115751
0.202172
-0.237289
-0.248818
-0.289223
0.369137
-0.311246
0.0106899
-0.0466123
0.0765782
0.327409
-0.0142908
0.336815
0.195312
-0.254107
-0.265429
-0.308938
0.176583
-0.273733
-0.238375
-0.295959
0.165201
-0.299502
-0.186425
-0.295932
0.153487
-0.327179
-0.148491
-0.298266
0.13907
-0.355988
-0.109313
-0.254886
0.10431
-0.085263
-0.359713
0.120624
-0.370221
-0.0723531
-0.257423
0.0426081
-0.0530231
-0.275954
0.0323919
-0.285357
-0.238502
0.341659
-0.360691
-0.0257168
-0.00595825
0.376897
-0.393138
-0.0141631
-0.0269552
0.406428
-0.414035
0.0129259
-0.00219039
0.416083
-0.413204
0.0407715
0.0261287
0.404401
-0.390502
0.0576114
0.0490534
0.374943
-0.356727
0.0578553
0.0574717
0.340358
-0.323685
0.0463668
0.0511292
0.310935
-0.29984
0.0313153
0.0376219
0.292915
-0.28876
0.0165881
0.0235815
0.287379
-0.288487
0.000324737
0.00967123
0.290199
-0.294563
-0.018796
-0.00727028
0.299903
-0.308922
-0.0363141
-0.025705
0.318779
-0.330095
-0.0470156
-0.0398594
0.340146
-0.350465
-0.0516131
-0.0476197
0.360638
-0.371846
-0.0474097
-0.048758
0.382963
-0.393713
-0.0304752
-0.0390768
0.401317
-0.402984
0.00043339
-0.0160105
0.395282
-0.381101
0.0396051
0.019395
0.360397
-0.341547
0.0601272
0.0520978
0.326127
-0.316311
0.0509921
0.0574304
0.311951
-0.305607
0.0401663
0.0463762
0.296538
-0.28955
0.0254035
0.0330333
-0.335667
0.329913
-0.0740419
0.347893
-0.360851
-0.0723055
-0.072849
-0.315515
0.304589
-0.0668596
-0.0716653
-0.289858
0.280018
-0.0542894
-0.0596985
-0.271855
0.264525
-0.0302897
-0.041442
-0.258852
0.258185
-0.00421386
-0.0160761
-0.264846
0.280614
0.0292534
0.0109567
-0.301265
0.327245
0.0715253
0.0475664
-0.353426
0.381818
0.109472
0.0873121
-0.407971
0.433151
0.12731
0.115805
-0.452515
0.465174
0.0977848
0.11359
-0.467867
0.46018
0.020159
0.0587491
-0.444136
0.421656
-0.0506501
-0.0187718
-0.39943
0.376424
-0.0802984
-0.0673777
-0.357307
0.338866
-0.0818363
-0.0798169
-0.324414
0.309598
-0.0703297
-0.0745986
-0.297293
0.285161
-0.0547917
-0.0612829
-0.277832
0.275377
-0.0316003
-0.0446959
-0.278224
0.286013
0.00941987
-0.0134477
-0.296098
0.303825
0.0560953
0.0312685
-0.31356
0.329492
0.0877715
0.0750112
0.0924753
0.132104
-0.140574
0.387227
0.419243
0.150671
-0.164743
0.334104
0.360959
0.17009
-0.171092
0.260555
0.292475
0.16782
-0.161735
0.204906
0.225066
0.153869
-0.144985
0.185095
0.18743
0.136184
-0.127062
0.196212
0.184395
0.117869
-0.107803
0.225115
0.205833
0.096896
-0.0866924
0.258288
0.238681
0.0759369
-0.0714042
0.293585
0.276468
0.325318
-0.0778281
0.0983232
-0.380208
-0.372119
-0.0665598
0.0187906
-0.0265089
-0.277638
-0.285177
0.0144174
0.223143
-0.245146
-0.239695
-0.26944
0.355354
-0.342232
-0.00243262
0.33788
0.0031838
0.218234
-0.260211
-0.267127
-0.287525
0.197371
-0.274895
-0.250558
-0.296756
0.185535
-0.294067
-0.207786
-0.274599
0.177357
-0.323372
-0.161849
-0.282573
0.1622
-0.35031
-0.138112
-0.269467
0.145402
-0.380766
-0.0927474
-0.234491
0.117542
-0.389439
-0.0604573
-0.249989
0.0711723
-0.0619649
-0.381326
0.0941178
-0.403153
-0.0346019
-0.267861
-0.372304
0.359466
-0.0491274
0.0457565
-0.375289
-0.0427712
0.0600287
-0.395598
-0.0984862
0.441478
0.00713858
-0.0077618
-0.277015
0.00298182
-0.28102
-0.255054
0.346822
-0.360967
-0.0115714
-0.0013679
0.374169
-0.382358
-0.00597391
-0.0137537
0.387855
-0.391852
0.0169233
0.00330657
0.392219
-0.389265
0.0378184
0.0264947
0.38233
-0.371543
0.0468243
0.0421176
0.358986
-0.34475
0.0436193
0.044915
0.331886
-0.319829
0.0343101
0.0382654
0.31069
-0.303689
0.0243143
0.0284828
0.299021
-0.296312
0.0138787
0.0189132
0.294386
-0.294091
2.97976e-05
0.00774563
0.294279
-0.296626
-0.0164493
-0.00708206
0.29993
-0.305674
-0.0305704
-0.0224012
0.311927
-0.319664
-0.0392791
-0.0336056
0.327774
-0.337541
-0.0418463
-0.0395094
0.347887
-0.359142
-0.0361549
-0.0384118
0.369336
-0.378079
-0.0217319
-0.0288827
0.38354
-0.384762
0.00165507
-0.0105498
0.380731
-0.370508
0.0293821
0.0153645
0.356688
-0.341471
0.0449093
0.038278
0.327517
-0.318175
0.0416507
0.0434767
0.307149
-0.298586
0.0316036
0.0353499
0.291223
-0.287419
0.0215991
0.0256703
0.286496
-0.286136
0.00262222
0.0134942
-0.348197
0.335772
-0.0598805
-0.0552901
-0.32684
0.315451
-0.0626529
-0.0639179
-0.304784
0.296668
-0.0587432
-0.0609983
-0.289272
0.282113
-0.0471304
-0.0523028
-0.276411
0.272813
-0.026692
-0.0357393
-0.27011
0.268836
-0.00294043
-0.0133728
-0.270905
0.279405
0.0207529
0.00888798
-0.293671
0.315182
0.0500144
0.0333008
-0.339115
0.366173
0.0824137
0.0633793
-0.390756
0.413867
0.104198
0.0912224
-0.43081
0.441814
0.0867808
0.0966479
-0.444978
0.440142
0.0249951
0.0555845
-0.428898
0.411363
-0.0331158
-0.00752719
-0.393248
0.373778
-0.0608286
-0.0492622
-0.357562
0.341591
-0.0658657
-0.0636008
-0.329194
0.317044
-0.0581795
-0.0622012
-0.306624
0.296033
-0.044201
-0.050863
-0.287473
0.283303
-0.0274304
-0.0361359
-0.283505
0.291009
0.00191606
-0.0136495
-0.300393
0.31563
0.0408581
0.0218844
-0.331728
0.350861
0.0686378
0.0589135
-0.352498
0.383156
0.0850926
0.0908387
0.105331
0.105182
-0.118437
0.400482
0.425939
0.131595
-0.140034
0.342543
0.374117
0.144059
-0.143916
0.260412
0.2965
0.140071
-0.133434
0.198269
0.221221
0.125352
-0.116778
0.176522
0.179348
0.108628
-0.100579
0.188162
0.176245
0.0929772
-0.0852986
0.217436
0.198231
0.0770084
-0.0698591
0.251139
0.23039
0.0565167
-0.0478036
0.284872
0.263126
0.0189035
-0.0159251
0.324431
0.296418
0.03013
-0.0664359
0.374185
0.35102
0.240601
-0.267513
-0.258265
-0.278302
0.00664592
-0.00696875
-0.285813
0.0058828
-0.280257
0.346625
-0.375037
-0.0380242
-0.081879
0.240344
0.215721
0.305942
-0.0411962
-0.285131
0.282941
0.00481164
-0.283765
-0.00833438
0.217786
-0.280627
-0.254529
-0.283554
0.204527
-0.293887
-0.222616
-0.281925
0.200857
-0.317568
-0.180647
-0.255801
0.188907
-0.350078
-0.150746
-0.26994
0.173497
-0.378405
-0.127504
-0.234711
0.148037
-0.411261
-0.0716528
-0.223296
0.113894
-0.409216
-0.0368519
-0.247739
-0.0334039
-0.380939
0.039054
-0.369922
0.36351
-0.0269919
0.0196534
-0.372046
-0.0175292
-0.385451
0.0241653
0.0787486
-0.421873
-0.0102697
-0.265353
-0.406086
0.0495413
0.0349656
-0.0714999
0.276878
-0.412243
0.0789625
-0.0511828
0.301869
-0.272717
0.357822
-0.356471
-0.00378367
-0.0140306
0.356572
-0.357675
-0.0104686
-0.00126705
0.365116
-0.369274
-0.00181563
-0.00631283
0.372686
-0.372584
0.0168214
0.0067184
0.37101
-0.366503
0.033311
0.0249204
0.360509
-0.352563
0.038878
0.0361245
0.34379
-0.334676
0.0345048
0.0361421
0.326149
-0.318896
0.0270569
0.029739
0.312876
-0.308453
0.019892
0.0224621
0.304668
-0.302119
0.0113301
0.0151278
0.299896
-0.299107
-0.000759025
0.00552217
0.29921
-0.301557
-0.0141032
-0.00697844
0.304953
-0.310269
-0.0252542
-0.0190052
0.316158
-0.323474
-0.0319637
-0.0277158
0.331121
-0.339464
-0.0335041
-0.0318619
0.347091
-0.354158
-0.0290877
-0.0307848
0.359988
-0.364895
-0.0168258
-0.0230521
0.367939
-0.368336
0.00205289
-0.00750577
0.365078
-0.357931
0.0222348
0.012106
0.348242
-0.337094
0.0337606
0.0285898
0.326865
-0.317729
0.0325148
0.0332478
0.310191
-0.302714
0.0241259
0.0278122
0.294693
-0.287398
0.0143034
0.01765
0.00903781
-0.358299
0.351746
-0.0425738
-0.0375609
-0.34652
0.339191
-0.0525521
-0.0500641
-0.329874
0.321469
-0.0542483
-0.0546002
-0.312286
0.302946
-0.0494037
-0.051815
-0.29521
0.288109
-0.0400295
-0.0445665
-0.282908
0.27964
-0.0234239
-0.0305382
-0.278335
0.278493
-0.00309898
-0.0120678
-0.279956
0.284369
0.0163398
0.0074254
-0.292275
0.305616
0.0366731
0.025395
-0.321981
0.341911
0.0624836
0.0470148
-0.36128
0.380815
0.0846641
0.071853
-0.39707
0.410443
0.0734081
0.0803923
-0.417719
0.417886
0.0248279
0.0483083
-0.411553
0.398897
-0.0204603
-0.00119351
-0.384527
0.368436
-0.0447382
-0.0348915
-0.354278
0.340266
-0.0518534
-0.0494425
-0.329052
0.318994
-0.0481213
-0.0509874
-0.310976
0.3033
-0.0365256
-0.0428452
-0.296121
0.291381
-0.0226903
-0.0289562
-0.289397
0.294036
-0.00272361
-0.0116654
-0.301466
0.315479
0.0268453
0.0144548
-0.329591
0.341549
0.0566793
0.0448016
-0.362722
0.379005
0.0688099
0.0696658
0.0720923
0.0733155
-0.0781244
0.446286
0.463972
0.0829215
-0.0923731
0.409933
0.430736
0.0990119
-0.102889
0.34642
0.380756
0.104055
-0.102521
0.258878
0.297666
0.0984503
-0.0925607
0.192379
0.21715
0.0861259
-0.0797299
0.170126
0.172913
0.0734933
-0.0672485
0.181917
0.170009
0.0612524
-0.0556314
0.211815
0.192235
0.0506843
-0.0460824
0.246537
0.225443
0.0415141
-0.0342153
0.277573
0.258558
0.0232373
-0.000802263
0.301996
0.28544
0.278718
0.00662714
-0.277759
0.285091
-0.0303316
-0.00966787
0.011469
-0.287615
-0.290816
-0.00261706
0.235525
-0.285251
-0.249143
-0.283689
0.219454
-0.295553
-0.230748
-0.275422
0.22089
-0.31392
-0.199571
-0.263001
0.0151462
-0.283934
0.215232
-0.343893
-0.167714
-0.238832
0.203209
-0.37979
-0.144402
-0.253043
0.181208
-0.411575
-0.105053
-0.201311
-0.00803576
-0.370835
0.00682505
-0.360579
0.358944
-0.00640002
-0.000778944
-0.359785
-1.54758e-05
-0.369101
-0.00251346
0.144984
-0.442351
-0.0344064
-0.225741
-0.387188
0.00856154
0.105861
-0.436328
-0.0037663
-0.254243
-0.412239
0.0303183
0.0605227
-0.432855
0.0126561
-0.271382
0.0155983
-0.0343016
0.303794
0.297928
-0.460555
0.274986
0.0729802
-0.0760438
0.411723
-0.0125086
0.0155433
-0.290649
-0.297225
-0.00609906
-0.0329916
0.4039
-0.286335
0.333558
-0.357865
-0.0137171
-0.31274
-0.0278385
0.310247
-0.0203784
0.356197
-0.352569
-0.00741135
-0.0156989
0.351889
-0.354135
-0.00822321
-0.0019467
0.357172
-0.360507
0.00151957
-0.00327609
0.361853
-0.360774
0.0157426
0.00806423
0.357404
-0.352358
0.0282654
0.0215504
0.346292
-0.339938
0.0325239
0.0300582
0.333636
-0.32789
0.0287584
0.0298406
0.322628
-0.318109
0.0225383
0.0244768
0.314052
-0.310534
0.0163746
0.0184049
0.307374
-0.304839
0.00879519
0.0119672
0.302946
-0.302465
-0.00124056
0.00362958
0.303015
-0.305141
-0.0119767
-0.00642862
0.308184
-0.312473
-0.0209651
-0.0159625
0.31715
-0.322551
-0.0265627
-0.0230383
0.327978
-0.333923
-0.0275588
-0.0264353
0.339842
-0.346003
-0.0229264
-0.0248664
0.351293
-0.355331
-0.0127875
-0.017762
0.357049
-0.356524
0.00152773
-0.00578804
0.353467
-0.347882
0.0166497
0.00904901
0.340643
-0.332307
0.0254248
0.0213514
0.324392
-0.316996
0.025119
0.0253327
0.310792
-0.305313
0.0186469
0.0216077
0.301188
-0.296354
0.0094697
0.0135245
0.292138
-0.287809
0.000482307
0.0048221
0.290399
-0.291332
-0.0016842
-0.00574416
-0.0185619
-0.29268
0.0140171
0.288799
-0.295265
-0.0120952
-0.00863231
-0.358793
0.357716
-0.0259147
-0.0173785
-0.354479
0.349738
-0.0378329
-0.0343243
-0.342726
0.333594
-0.0434206
-0.0430517
-0.326484
0.318777
-0.0465415
-0.0474897
-0.311658
0.304124
-0.0418701
-0.0446957
-0.298318
0.29273
-0.0344417
-0.0387604
-0.288458
0.28548
-0.0204461
-0.0262658
-0.284345
0.28474
-0.00349428
-0.0109328
-0.286509
0.289626
0.013223
0.00565668
-0.294293
0.301519
0.0294467
0.0207281
-0.310962
0.323688
0.0497571
0.0375721
-0.338053
0.355153
0.0675633
0.0574887
-0.371519
0.386439
0.0584879
0.0640268
-0.395326
0.39789
0.0222641
0.0394215
-0.394627
0.38674
-0.0125731
0.00206881
-0.376426
0.364388
-0.0327002
-0.0245772
-0.352327
0.340227
-0.0397532
-0.0373819
-0.329505
0.320014
-0.0386297
-0.0402657
-0.312844
0.306715
-0.0303968
-0.0356755
-0.302086
0.297604
-0.018209
-0.0243266
-0.295826
0.29676
-0.00365709
-0.00988749
-0.302198
0.312002
0.0170411
0.0090169
-0.324959
0.341187
0.0404518
0.0318446
-0.359303
0.373846
0.0542665
0.0515498
-0.387851
0.414572
0.0522408
0.0580877
0.0483585
0.0407889
-0.0363055
0.441803
0.428717
0.0433263
-0.0488163
0.415423
0.437757
0.0510515
-0.0530937
0.348462
0.382991