/*--------------------------------*- C++ -*----------------------------------*\
  =========                 |
  \\      /  F ield         | OpenFOAM: The Open Source CFD Toolbox
   \\    /   O peration     | Website:  https://openfoam.org
    \\  /    A nd           | Version:  10
     \\/     M anipulation  |
\*---------------------------------------------------------------------------*/
FoamFile
{
    format      ascii;
    class       volScalarField;
    location    "38";
    object      p;
}
// * * * * * * * * * * * * * * * * * * * * * * * * * * * * * * * * * * * * * //

dimensions      [0 2 -2 0 0 0 0];

internalField   nonuniform List<scalar> 
25879
(
0.0875239
0.0902463
0.0899157
0.0874325
-0.0569172
-0.0603881
-0.0772414
-0.0648852
-0.0429586
-0.0477827
-0.163146
-0.126326
-0.205887
-0.436004
-0.462869
0.24304
0.159557
-0.105276
-0.242472
0.771104
0.754531
0.275579
0.38239
0.165432
0.16706
0.173072
0.170562
0.160001
0.164366
0.160202
0.159493
-0.482701
-0.477119
-0.453538
0.104177
0.119858
0.114252
0.00888661
0.0101619
-0.348785
-0.297835
-0.22932
0.341863
0.355526
0.359983
-0.185215
-0.203552
-0.529269
-0.499332
-0.516348
0.0482622
0.0843691
-0.821791
-0.604982
0.00741443
0.00833461
0.0117197
0.504002
0.512845
0.473558
0.457938
0.425923
0.421934
0.00230264
0.00486813
0.00428997
-0.49548
-0.501152
-0.471779
-0.506864
-0.535627
0.221507
0.225106
0.229841
0.31596
0.459307
0.383933
0.0962264
0.0970695
0.0937151
0.373327
0.359102
0.831659
0.766829
0.763956
0.227048
0.235731
0.222927
0.0657156
0.0700655
-0.407703
-0.347574
-0.456568
0.155473
0.154937
-0.0203233
-0.0328409
-0.0380559
0.121585
0.122224
0.112144
0.106898
0.0671337
0.064705
0.0612708
0.19988
0.197258
0.0614071
0.108458
0.108244
0.101544
0.0406198
0.0415539
0.039538
0.0399007
0.204382
0.191473
-0.138172
-0.0216504
0.0176124
0.0252697
-0.250073
-0.25312
-0.219881
-0.215826
-0.343155
-0.322576
-0.542042
-0.548831
-0.49255
-0.49623
-0.468691
0.488243
0.469922
0.459292
0.472627
0.0911108
0.0938158
-0.0641716
0.00835111
-0.176565
-0.173625
-0.185295
-0.198176
-0.214265
-0.225265
-0.233077
-0.236091
-0.234691
-0.229134
-0.219695
-0.207134
-0.192246
-0.176177
-0.159787
-0.144139
-0.129784
-0.117314
-0.106798
-0.0983297
-0.0916991
-0.0867957
-0.083444
-0.0815756
-0.0811747
-0.0822399
-0.084896
-0.0891573
-0.0952708
-0.103237
-0.113333
-0.125318
-0.139219
-0.154164
-0.171063
-0.189634
-0.20977
-0.155777
-0.171166
-0.205135
-0.170072
-0.154709
-0.15984
-0.223223
-0.165704
-0.184959
-0.133119
-0.148551
-0.108439
-0.119714
-0.0923723
-0.0993881
-0.0838945
-0.087267
-0.0818974
-0.0821298
-0.0858129
-0.0831078
-0.0958424
-0.0899878
-0.112936
-0.103398
-0.137522
-0.124285
-0.167307
-0.151972
-0.196526
-0.182362
-0.217817
-0.208536
-0.225479
-0.223508
-0.216049
-0.222997
-0.192878
-0.205725
-0.182205
-0.216796
-0.183872
-0.201326
-0.237875
-0.229505
-0.241616
-0.241947
-0.22738
-0.2368
-0.199584
-0.214908
-0.165947
-0.183156
-0.134165
-0.149549
-0.109244
-0.120757
-0.0923913
-0.0998671
-0.0825833
-0.086677
-0.0787565
-0.0799164
-0.0806986
-0.0789144
-0.0889035
-0.0838494
-0.104293
-0.0954794
-0.127015
-0.114597
-0.140991
-0.164092
-0.145826
-0.14088
-0.23988
-0.230152
-0.253536
-0.255284
-0.267232
-0.185615
-0.1403
-0.153014
-0.18437
-0.166415
-0.166661
-0.151036
-0.149551
-0.215452
-0.236022
-0.173061
-0.193807
-0.137061
-0.153955
-0.110361
-0.122477
-0.0929224
-0.100532
-0.0834077
-0.0872525
-0.080495
-0.0811758
-0.0834656
-0.081256
-0.0923197
-0.0871213
-0.107719
-0.0991536
-0.129907
-0.118035
-0.156767
-0.143047
-0.183188
-0.170497
-0.202638
-0.194265
-0.209771
-0.208065
-0.20208
-0.207974
-0.184158
-0.193954
-0.160858
-0.173485
-0.133984
-0.146894
-0.216947
-0.202056
-0.238426
-0.22949
-0.242235
-0.242781
-0.228377
-0.237304
-0.201459
-0.216187
-0.168245
-0.185119
-0.136105
-0.151583
-0.110122
-0.122106
-0.0918486
-0.0999949
-0.0805172
-0.0853682
-0.0750698
-0.0770969
-0.0751454
-0.0744306
-0.0811034
-0.0773871
-0.0938638
-0.0866436
-0.114112
-0.103174
-0.12693
-0.214634
-0.150068
-0.242459
-0.122825
-0.125397
-0.115462
-0.26384
-0.275723
-0.165566
-0.177711
-0.196645
-0.13305
-0.12883
-0.136649
-0.135888
-0.26019
-0.283204
-0.274549
-0.22015
-0.241473
-0.175897
-0.197848
-0.137375
-0.155318
-0.109463
-0.122093
-0.091266
-0.0992312
-0.0811115
-0.0852746
-0.0775224
-0.0785533
-0.0796648
-0.0778928
-0.0874162
-0.0828086
-0.101277
-0.0935361
-0.121356
-0.110593
-0.145576
-0.133196
-0.16919
-0.157839
-0.186381
-0.178959
-0.192597
-0.191083
-0.186373
-0.19102
-0.170562
-0.179365
-0.148736
-0.160291
-0.136718
-0.182362
-0.148347
-0.164963
-0.213791
-0.199151
-0.234148
-0.225767
-0.238068
-0.238386
-0.224451
-0.233249
-0.19809
-0.212478
-0.165714
-0.182205
-0.13413
-0.149439
-0.108129
-0.12024
-0.0893199
-0.0978172
-0.0771075
-0.0824449
-0.0705146
-0.0731395
-0.0691317
-0.0691639
-0.0731904
-0.0704385
-0.0834718
-0.0774996
-0.100625
-0.0911659
-0.123688
-0.111743
-0.146525
-0.135198
-0.277247
-0.284682
-0.135283
-0.225016
-0.11342
-0.106763
-0.249266
-0.265792
-0.156615
-0.185439
-0.144006
-0.27216
-0.279187
-0.132678
-0.128406
-0.163102
-0.206298
-0.121946
-0.118537
-0.12398
-0.123924
-0.118716
-0.122013
-0.285608
-0.281836
-0.287422
-0.262206
-0.276895
-0.220361
-0.242716
-0.174252
-0.196936
-0.134929
-0.153255
-0.106566
-0.119384
-0.0880263
-0.09617
-0.0774389
-0.0818343
-0.0732627
-0.0746107
-0.0745848
-0.0732576
-0.0811753
-0.0771977
-0.0934199
-0.0865488
-0.11139
-0.101737
-0.133145
-0.12202
-0.154276
-0.144132
-0.16951
-0.162952
-0.174858
-0.173597
-0.169087
-0.173328
-0.154616
-0.162767
-0.135073
-0.145242
-0.115263
-0.124939
-0.0989461
-0.106571
-0.177485
-0.160668
-0.207785
-0.19356
-0.227192
-0.219314
-0.230501
-0.231031
-0.216996
-0.225716
-0.190967
-0.205152
-0.159295
-0.175401
-0.128543
-0.143456
-0.103117
-0.114998
-0.084449
-0.0929377
-0.0719625
-0.0774903
-0.0647235
-0.0677198
-0.062315
-0.0629094
-0.0648773
-0.0629389
-0.0729153
-0.0681693
-0.0868734
-0.0791185
-0.106308
-0.0960777
-0.126427
-0.116326
-0.140319
-0.134704
-0.267329
-0.269353
-0.165123
-0.14193
-0.231865
-0.189012
-0.113988
-0.250976
-0.0926675
-0.0902506
-0.0849458
-0.261624
-0.260977
-0.164573
-0.250175
-0.251202
-0.140074
-0.211457
-0.105392
-0.099611
-0.112488
-0.109699
-0.113077
-0.113691
-0.106954
-0.110831
-0.278835
-0.247482
-0.266108
-0.282972
-0.28464
-0.259024
-0.274111
-0.215588
-0.238724
-0.169065
-0.191827
-0.130025
-0.148238
-0.101778
-0.114547
-0.0832387
-0.0914051
-0.072441
-0.0769708
-0.0678097
-0.0694185
-0.0683842
-0.0674718
-0.0738506
-0.0704896
-0.0844786
-0.0784842
-0.100293
-0.0917822
-0.11951
-0.109683
-0.138114
-0.129199
-0.151387
-0.145697
-0.155856
-0.154874
-0.15061
-0.154416
-0.137658
-0.144901
-0.120831
-0.129508
-0.103972
-0.112148
-0.0965627
-0.13722
-0.108256
-0.122026
-0.169309
-0.153351
-0.19846
-0.184792
-0.216839
-0.20945
-0.219486
-0.220279
-0.206156
-0.214689
-0.180861
-0.194635
-0.15016
-0.165759
-0.120433
-0.134839
-0.0958427
-0.107343
-0.0776375
-0.0859468
-0.0651934
-0.0707524
-0.0575859
-0.0608186
-0.0543904
-0.0554334
-0.0556959
-0.0544528
-0.0618392
-0.0581347
-0.0730132
-0.0667891
-0.0885856
-0.0803732
-0.105544
-0.0970764
-0.11909
-0.113383
-0.12013
-0.121345
-0.229332
-0.22528
-0.136245
-0.115688
-0.101919
-0.233271
-0.18868
-0.0878122
-0.0808643
-0.246856
-0.160335
-0.251173
-0.244712
-0.229381
-0.100652
-0.129246
-0.205856
-0.201163
-0.108173
-0.0960275
-0.0892018
-0.211817
-0.0988596
-0.0938601
-0.104666
-0.102536
-0.104178
-0.105183
-0.0974407
-0.101489
-0.0858361
-0.0920315
-0.240001
-0.193163
-0.217548
-0.271254
-0.258357
-0.27526
-0.277105
-0.250348
-0.266046
-0.206612
-0.22967
-0.16084
-0.183172
-0.12277
-0.140517
-0.0952195
-0.107679
-0.0770626
-0.08508
-0.0663027
-0.0708573
-0.0613704
-0.0631723
-0.0612936
-0.060754
-0.0656944
-0.0629249
-0.0747445
-0.0696092
-0.0884465
-0.0810541
-0.105191
-0.0966257
-0.121346
-0.113621
-0.132721
-0.127874
-0.13637
-0.135634
-0.131659
-0.135019
-0.120427
-0.12667
-0.106228
-0.11343
-0.0919388
-0.0988452
-0.0807234
-0.085936
-0.0731858
-0.0764113
-0.128352
-0.113875
-0.158689
-0.143361
-0.186225
-0.173363
-0.203261
-0.196471
-0.205273
-0.206284
-0.192256
-0.200499
-0.168139
-0.181247
-0.13898
-0.153792
-0.110708
-0.124419
-0.0872004
-0.0982161
-0.0696016
-0.0776675
-0.0573031
-0.0628442
-0.0494163
-0.0528413
-0.0455178
-0.0469674
-0.0456598
-0.0450612
-0.0501038
-0.047322
-0.0589295
-0.0539766
-0.0713562
-0.0647989
-0.0850202
-0.0782306
-0.0956834
-0.0911372
-0.0990062
-0.0984475
-0.08867
-0.0956383
-0.0976616
-0.0800973
-0.17671
-0.168402
-0.228659
-0.184332
-0.0789766
-0.236633
-0.151371
-0.0709654
-0.0648325
-0.0633737
-0.235402
-0.116988
-0.224442
-0.0850102
-0.205951
-0.181332
-0.153139
-0.144597
-0.207426
-0.0843297
-0.0780201
-0.0939445
-0.089716
-0.0984641
-0.0968807
-0.0970224
-0.0985221
-0.0897811
-0.0940872
-0.0777625
-0.0842589
-0.181966
-0.133579
-0.157442
-0.228141
-0.206032
-0.259061
-0.24646
-0.262286
-0.264488
-0.236764
-0.252495
-0.19413
-0.216594
-0.14988
-0.171405
-0.113449
-0.130399
-0.0871399
-0.0990454
-0.0697135
-0.077428
-0.0592179
-0.063696
-0.0541364
-0.0560628
-0.0535178
-0.0532999
-0.0569426
-0.0547213
-0.0644955
-0.0601797
-0.0761655
-0.0698505
-0.0905412
-0.0831816
-0.104394
-0.0977812
-0.114029
-0.109948
-0.11697
-0.11643
-0.11283
-0.115738
-0.103309
-0.108576
-0.0912834
-0.0974382
-0.0797394
-0.0852385
-0.070594
-0.0746941
-0.0672676
-0.0917184
-0.0713497
-0.0808074
-0.117397
-0.104012
-0.146027
-0.131639
-0.171619
-0.159692
-0.187109
-0.181005
-0.188482
-0.189674
-0.175969
-0.183814
-0.153325
-0.165601
-0.126118
-0.139929
-0.0997203
-0.112536
-0.077591
-0.0879937
-0.0607614
-0.0685168
-0.0486962
-0.0541815
-0.0405928
-0.0441795
-0.0360565
-0.0378787
-0.0351146
-0.0351175
-0.0379819
-0.0360529
-0.0447034
-0.040873
-0.0545048
-0.0493135
-0.065307
-0.0599659
-0.0733479
-0.0699652
-0.0756647
-0.0753012
-0.0685914
-0.0735396
-0.0630453
-0.122811
-0.111646
-0.0707396
-0.218654
-0.17529
-0.0698399
-0.0626944
-0.221341
-0.1401
-0.215351
-0.105241
-0.20148
-0.0766274
-0.181583
-0.157537
-0.130931
-0.0495828
-0.0627335
-0.103019
-0.0921383
-0.0632655
-0.0552298
-0.197966
-0.0821221
-0.0763361
-0.0905627
-0.0869083
-0.0939131
-0.0929464
-0.0915617
-0.0934802
-0.083813
-0.0883227
-0.0715677
-0.0781562
-0.0566976
-0.0642716
-0.120379
-0.0793166
-0.0987537
-0.167664
-0.143599
-0.212791
-0.191159
-0.242345
-0.230294
-0.244837
-0.247465
-0.219497
-0.235112
-0.178465
-0.199975
-0.136562
-0.156872
-0.102431
-0.118282
-0.0778276
-0.0889702
-0.061433
-0.0687105
-0.051403
-0.0557132
-0.0463163
-0.0483006
-0.0452693
-0.0453188
-0.0478229
-0.0460975
-0.0539909
-0.0504366
-0.0637603
-0.0584536
-0.0759289
-0.0696896
-0.0876661
-0.0820701
-0.0957429
-0.092342
-0.0980903
-0.0977041
-0.094515
-0.0969931
-0.0865461
-0.0909403
-0.076645
-0.0816814
-0.0672797
-0.0717788
-0.060072
-0.0633755
-0.0560326
-0.0576834
-0.0549832
-0.0551093
-0.0813863
-0.0713636
-0.105167
-0.0926927
-0.131726
-0.118391
-0.155198
-0.144306
-0.16905
-0.163667
-0.169808
-0.171148
-0.157969
-0.165322
-0.137015
-0.148346
-0.111993
-0.124686
-0.0877008
-0.0995074
-0.0671649
-0.0768524
-0.0512713
-0.0586402
-0.0395598
-0.0449339
-0.0313394
-0.0350392
-0.0262685
-0.02841
-0.0243687
-0.0249063
-0.0258172
-0.0246582
-0.0306374
-0.0278179
-0.0381472
-0.0341361
-0.0465257
-0.0423943
-0.0526038
-0.0500761
-0.0534943
-0.053858
-0.0477239
-0.0512673
-0.0422444
-0.0447191
-0.0749404
-0.062191
-0.0291157
-0.0171099
-0.20411
-0.162749
-0.0488494
-0.202335
-0.127119
-0.0556812
-0.0468952
-0.0479519
-0.193044
-0.096037
-0.177704
-0.0676639
-0.157975
-0.0423194
-0.13544
-0.111021
-0.0856383
-0.0472415
-0.0598506
-0.025919
-0.0148439
-0.184357
-0.0698324
-0.0629987
-0.0812236
-0.0759603
-0.0886364
-0.0855352
-0.0909534
-0.0904997
-0.0877542
-0.0900487
-0.0793681
-0.0841275
-0.0668459
-0.0735401
-0.0517369
-0.0594508
-0.0651131
-0.0334763
-0.0483403
-0.105029
-0.0840585
-0.150827
-0.127621
-0.194256
-0.173643
-0.222119
-0.210985
-0.223685
-0.226594
-0.198958
-0.214075
-0.160213
-0.180384
-0.121434
-0.140162
-0.090141
-0.104654
-0.0675991
-0.0778184
-0.0524738
-0.0592078
-0.0430752
-0.0471412
-0.0381109
-0.0400926
-0.0367477
-0.0370092
-0.0385462
-0.037257
-0.0434641
-0.0406011
-0.0514928
-0.0471111
-0.0616441
-0.0564262
-0.0714807
-0.0667927
-0.0781944
-0.0753821
-0.0800565
-0.0797857
-0.0770145
-0.0790988
-0.0704402
-0.0740491
-0.0624405
-0.066484
-0.0550123
-0.058555
-0.0496455
-0.0519597
-0.0468682
-0.047812
-0.0465092
-0.0532804
-0.0407017
-0.0464982
-0.0701715
-0.0610168
-0.0920249
-0.08054
-0.116324
-0.10415
-0.137566
-0.127753
-0.149761
-0.145097
-0.149964
-0.151413
-0.138908
-0.145711
-0.119782
-0.130096
-0.097082
-0.108592
-0.0750008
-0.0857485
-0.0561539
-0.065078
-0.0412982
-0.048229
-0.030046
-0.0352561
-0.0218189
-0.0255756
-0.0163395
-0.0187345
-0.0136396
-0.0146279
-0.0138734
-0.0133762
-0.0170464
-0.0151037
-0.0225747
-0.019583
-0.0288994
-0.0257797
-0.0334232
-0.031566
-0.0335344
-0.0341863
-0.0290041
-0.0315688
-0.0246984
-0.0268574
-0.0109004
-0.0194493
-0.00566065
-0.00675996
-0.0134892
-0.00342935
-0.00364223
-0.0437841
-0.0339218
-0.0201704
-0.186527
-0.148248
-0.0572783
-0.0497345
-0.181687
-0.114853
-0.17083
-0.0855942
-0.155338
-0.0581542
-0.136651
-0.0378765
-0.115924
-0.0239144
-0.0937926
-0.0705883
-0.0464856
0.00589522
-0.021801
-0.0321769
-0.0357839
-0.0277204
-0.00802907
0.00551882
-0.00323065
-0.0125167
-0.168264
-0.0709243
-0.064391
-0.0816385
-0.0767597
-0.0881504
-0.0855178
-0.0894852
-0.0895114
-0.08541
-0.0881241
-0.0763653
-0.0814621
-0.0634677
-0.0703475
-0.0480549
-0.0559991
-0.0319444
-0.0399497
-0.0191661
0.00613482
-0.00596323
-0.0498923
-0.0336673
-0.088008
-0.068057
-0.131974
-0.10972
-0.173378
-0.153985
-0.199141
-0.188993
-0.19971
-0.202914
-0.175968
-0.190313
-0.140162
-0.158668
-0.105078
-0.121959
-0.0770089
-0.0900151
-0.0567749
-0.0659606
-0.0430878
-0.0492012
-0.0344469
-0.0382091
-0.0297127
-0.0316393
-0.0281385
-0.0285587
-0.0293017
-0.0283859
-0.0331176
-0.0308676
-0.0395847
-0.0360347
-0.0479247
-0.0436222
-0.0560811
-0.0521907
-0.0616246
-0.0593117
-0.0631025
-0.0629124
-0.060555
-0.0622834
-0.0552144
-0.05813
-0.0488631
-0.0520526
-0.0431489
-0.0458379
-0.0392165
-0.040914
-0.0375993
-0.0380886
-0.0385314
-0.0377728
-0.0418712
-0.0398914
-0.0432421
-0.0372408
-0.0585722
-0.0502735
-0.0783686
-0.0679746
-0.100308
-0.0893353
-0.119303
-0.110565
-0.129901
-0.12592
-0.129632
-0.131152
-0.119406
-0.125635
-0.102159
-0.111431
-0.081822
-0.0921301
-0.0619826
-0.0716575
-0.0448521
-0.0529983
-0.0310774
-0.0375456
-0.0203522
-0.0253611
-0.0122116
-0.0159752
-0.00644618
-0.00902919
-0.00310834
-0.00446016
-0.00234435
-0.00239268
-0.00415328
-0.00293723
-0.00803071
-0.00589021
-0.0126444
-0.0103647
-0.0158586
-0.0145749
-0.0154978
-0.0162323
-0.0120776
-0.0139133
-0.00780184
-0.0103073
6.52762e-05
-0.00351162
0.00489124
0.00341232
0.00590514
0.00287475
0.0170785
-0.00363897
0.00463854
-0.167555
-0.133349
-0.0240915
-0.161053
-0.102499
-0.0445807
-0.0338499
-0.036608
-0.149972
-0.074681
-0.135444
-0.0513862
-0.118376
-0.0347775
-0.0994796
-0.0222875
-0.0791493
-0.0124376
-0.0574844
-0.0345914
-0.0110106
-0.00451238
0.0125629
0.0269478
0.00337623
-0.15119
-0.0598668
-0.0523678
-0.0731749
-0.0668459
-0.0833339
-0.0787582
-0.0890187
-0.0868136
-0.0894342
-0.0899217
-0.0844854
-0.0876231
-0.0747388
-0.0801618
-0.0613076
-0.068411
-0.0456051
-0.0536654
-0.0290934
-0.0373311
0.0203557
0.0408188
0.0310084
-0.00430779
0.00858295
-0.0338313
-0.01813
-0.070435
-0.0511484
-0.112316
-0.0911013
-0.150817
-0.132604
-0.174295
-0.165246
-0.17375
-0.177263
-0.151343
-0.164683
-0.119025
-0.135599
-0.0880525
-0.102901
-0.0634506
-0.0748468
-0.0456633
-0.0537537
-0.0335133
-0.0389596
-0.0257155
-0.0291319
-0.0212963
-0.0231247
-0.0196056
-0.0201352
-0.0202513
-0.019646
-0.0231183
-0.0213999
-0.0282114
-0.0253956
-0.0349484
-0.0314553
-0.0416376
-0.0384394
-0.0461928
-0.044296
-0.0473762
-0.0472374
-0.0452806
-0.0466919
-0.041007
-0.0433261
-0.0360611
-0.0385242
-0.0317971
-0.033772
-0.0291183
-0.0302213
-0.0284967
-0.0285247
-0.0299943
-0.0289412
-0.0316596
-0.0212052
-0.0233687
-0.0162662
-0.0195482
-0.0331511
-0.0277872
-0.0468879
-0.0394774
-0.0645712
-0.0552972
-0.0841221
-0.0743529
-0.100931
-0.0932277
-0.110055
-0.10669
-0.109404
-0.110965
-0.100014
-0.105666
-0.0846271
-0.0928763
-0.0665967
-0.0757318
-0.0489518
-0.0575748
-0.033518
-0.0408922
-0.0208369
-0.0268321
-0.0106827
-0.0154646
-0.00270445
-0.00643297
0.00323591
0.000525256
0.00705791
0.00542544
0.00861251
0.00812971
0.00789818
0.00853008
0.0053583
0.00680699
0.00214359
0.00373541
2.31117e-05
0.000825141
0.000672742
-5.67497e-05
0.00341988
0.00194622
0.00738058
0.00514873
0.0116567
0.00980455
0.0142239
0.0132477
0.0143217
0.0145699
0.0123952
0.0135818
0.00147353
0.00881243
0.0109242
0.0357182
0.0497671
-0.148701
-0.118703
-0.0480953
-0.0400293
-0.141864
-0.0904716
-0.131541
-0.066065
-0.118449
-0.046636
-0.103145
-0.0325622
-0.0859368
-0.0216409
-0.0669168
-0.0129397
-0.046245
-0.00631147
-0.0243988
-0.00180364
0.0209971
0.0432503
0.0157681
-0.00127169
-0.0135762
0.0061427
0.0130135
0.0574759
-0.134318
-0.0634929
-0.0559871
-0.0766391
-0.0704511
-0.0863435
-0.0820394
-0.0912582
-0.0894629
-0.0907725
-0.0917202
-0.0849047
-0.0884971
-0.07434
-0.0801521
-0.0602523
-0.0676609
-0.0441234
-0.0523945
-0.0273327
-0.0357464
-0.0115116
-0.0192111
0.0542643
0.0705362
0.0628761
0.0344379
0.0447799
0.010882
0.0232524
-0.0177147
-0.00260059
-0.0527014
-0.0342919
-0.0920408
-0.0721782
-0.127633
-0.110996
-0.148351
-0.140577
-0.146626
-0.150409
-0.125941
-0.138045
-0.0975555
-0.111997
-0.0709217
-0.0836516
-0.0498614
-0.0596221
-0.0345478
-0.0415309
-0.0239659
-0.028728
-0.0170565
-0.0201025
-0.0130142
-0.0147114
-0.0112887
-0.011884
-0.0115277
-0.0111731
-0.0135974
-0.0123294
-0.0175041
-0.0153252
-0.022841
-0.0200554
-0.0282599
-0.0256574
-0.0319883
-0.0304344
-0.0329529
-0.0328416
-0.0312635
-0.0323969
-0.0278953
-0.0297112
-0.0241253
-0.025982
-0.0210633
-0.022448
-0.0194291
-0.020035
-0.0195669
-0.0192634
-0.0216282
-0.0203368
-0.0257128
-0.023393
-0.0319034
-0.0285295
-0.00847763
-0.00416238
-0.00613048
-0.0145479
-0.0112711
-0.023244
-0.0184936
-0.0353821
-0.0288502
-0.0509487
-0.0427875
-0.0681548
-0.0595578
-0.082897
-0.0761581
-0.0906946
-0.0878776
-0.0897548
-0.0913135
-0.0812086
-0.0863036
-0.0675817
-0.0748602
-0.0517328
-0.0597602
-0.0361655
-0.0437903
-0.0223611
-0.0289896
-0.0107607
-0.0162831
-0.00120873
-0.00574311
0.0065402
0.0028847
0.0125523
0.00977046
0.0167141
0.0148787
0.0188684
0.0180528
0.0190091
0.0191825
0.0175324
0.0184294
0.0154331
0.0164773
0.0141586
0.014598
0.0148828
0.0142503
0.0169622
0.0158455
0.0197369
0.0183384
0.0219608
0.0210006
0.0227319
0.0225726
0.0219667
0.0225676
0.0197037
0.0210108
0.0179425
0.0639069
0.0772215
0.0025571
0.00967254
-0.13132
-0.105157
-0.125031
-0.0803243
-0.0100734
-0.00273118
-0.0358748
-0.0237317
-0.0275018
-0.115925
-0.0595091
-0.104388
-0.0434705
-0.0906447
-0.0313965
-0.0747798
-0.0219021
-0.0568558
-0.0145844
-0.0370872
-0.00909942
-0.0160671
-0.00501479
0.00580747
0.0280304
0.0493759
-0.00168619
0.0693733
0.0827735
0.0057771
-0.118884
-0.0525789
-0.0443105
-0.0682162
-0.0606644
-0.081377
-0.0752615
-0.0907064
-0.0866421
-0.0949163
-0.0935081
-0.0935162
-0.0949398
-0.0866528
-0.090745
-0.0751392
-0.0814129
-0.0602794
-0.0680403
-0.0435984
-0.0521278
-0.0264692
-0.0349948
-0.0180284
0.094484
0.0876207
0.0993285
0.0826741
0.0891116
0.0670591
0.0753079
0.0482063
0.0580852
0.0255735
0.0374223
-0.00194399
0.0125317
-0.0352303
-0.0178803
-0.0719161
-0.0535174
-0.104259
-0.0893049
-0.121917
-0.115558
-0.119136
-0.123066
-0.100602
-0.111248
-0.0764313
-0.0886338
-0.0541657
-0.0647858
-0.0365742
-0.0447393
-0.0236697
-0.0295735
-0.0146301
-0.0187158
-0.00861973
-0.011286
-0.00499424
-0.00653668
-0.00330127
-0.00392486
-0.00323435
-0.00307504
-0.00465095
-0.00375541
-0.0075536
-0.00591697
-0.0116823
-0.00950893
-0.0160064
-0.0139153
-0.0190447
-0.0177723
-0.0198509
-0.0197497
-0.0185222
-0.0194153
-0.0159111
-0.017309
-0.0131076
-0.0144674
-0.0110264
-0.0119297
-0.0102407
-0.0104458
-0.0110093
-0.0104193
-0.0135112
-0.0120082
-0.0176711
-0.0153208
-0.0204412
-0.00089418
0.00284256
0.00116927
-0.00610103
-0.00324739
-0.0137113
-0.00956257
-0.0242665
-0.0185932
-0.0377696
-0.0306903
-0.0527243
-0.0452463
-0.0655525
-0.059694
-0.0722061
-0.0698474
-0.0710686
-0.0725991
-0.0633403
-0.0679023
-0.0513346
-0.0577235
-0.0374883
-0.0444979
-0.0238362
-0.030539
-0.0115561
-0.0174827
-0.000999288
-0.0060594
0.00793282
0.00366077
0.0153925
0.0118448
0.0213789
0.0185793
0.0257455
0.0237796
0.0283264
0.0272694
0.0291137
0.0289368
0.0284658
0.0289308
0.0272382
0.027856
0.0265877
0.0267714
0.0272607
0.0267613
0.0286815
0.0279369
0.0300497
0.0294418
0.0308017
0.0306315
0.0304655
0.0307885
0.0289749
0.0298826
0.0263567
0.0278638
0.0221898
0.0244824
0.016365
0.0195249
0.00117877
0.00846651
0.012698
-0.116233
-0.0935363
0.00421568
-0.0406364
-0.0320019
-0.11091
-0.0722902
-0.10313
-0.0549557
-0.0930008
-0.0416754
-0.0805724
-0.0313928
-0.0658493
-0.0234243
-0.0489009
-0.0174577
-0.029993
-0.0130544
-0.00959351
-0.0096812
0.0117893
-0.00674192
0.0335088
0.0542554
0.0738701
0.0923383
0.0151837
-0.00416056
0.00361639
0.0108518
-0.10559
-0.0580472
-0.049476
-0.074155
-0.0663861
-0.0874669
-0.0812701
-0.096488
-0.0926213
-0.100044
-0.0990071
-0.0976991
-0.0996241
-0.0897424
-0.0943899
-0.0771405
-0.0839492
-0.0613327
-0.0695439
-0.0438474
-0.0527323
-0.0261804
-0.0349548
-0.00943717
-0.0176614
0.00524412
-0.00178044
0.111842
0.113191
0.104783
0.109139
0.0935665
0.0996391
0.0789293
0.0866796
0.0609393
0.0703441
0.0392657
0.0506342
0.0128845
0.0267354
-0.0186281
-0.0022859
-0.052506
-0.0356412
-0.0811651
-0.0681122
-0.0955388
-0.0905866
-0.0920687
-0.0959129
-0.0761007
-0.0851097
-0.0562409
-0.0662011
-0.0381872
-0.0467931
-0.0238648
-0.0305301
-0.0132276
-0.0181136
-0.00565747
-0.00909527
-0.000526521
-0.0028171
0.00266205
0.00128879
0.00426925
0.00364801
0.00455345
0.00456681
0.00365709
0.00425252
0.00158627
0.00277024
-0.00151362
0.000135608
-0.00489602
-0.00324429
-0.00735472
-0.00631498
-0.0080522
-0.00794505
-0.00703632
-0.00772388
-0.00505125
-0.00610592
-0.00302953
-0.00398897
-0.00173388
-0.00225239
-0.00162222
-0.00151021
-0.00289264
-0.00207689
-0.00562577
-0.00407787
-0.00982688
-0.00752352
-0.0157132
-0.0125084
-0.0234015
-0.0192556
0.00950615
0.0117117
0.0106886
0.00639445
0.00811071
0.00187319
0.00435773
-0.00468295
-0.00111448
-0.0137157
-0.00886589
-0.0252506
-0.0192015
-0.0380797
-0.0316535
-0.0491594
-0.0440928
-0.054854
-0.0528639
-0.0536285
-0.0550928
-0.0466625
-0.0507392
-0.0361133
-0.0417057
-0.0240551
-0.0301553
-0.0121276
-0.0179974
-0.00124476
-0.00652362
0.00832282
0.00370644
0.0166292
0.012629
0.0237477
0.020339
0.0296188
0.0268507
0.0340674
0.0320363
0.0369222
0.0357037
0.0381774
0.0377426
0.0381605
0.0382945
0.0375969
0.0378924
0.037367
0.0373948
0.037864
0.0375405
0.0385474
0.0382273
0.0388105
0.0387571
0.0384185
0.0387216
0.0372614
0.03794
0.0353201
0.0364007
0.0323941
0.0340119
0.0281509
0.0304205
0.0225662
0.0255375
0.0191013
-0.00186089
0.00616077
-0.103698
-0.0840926
-0.0994845
-0.0663452
0.00584744
0.0124202
-0.0280249
-0.0150718
-0.0192393
-0.0929454
-0.0521359
-0.0840601
-0.0412086
-0.0727929
-0.0327207
-0.0591151
-0.0263496
-0.0430821
-0.0216374
-0.0248941
-0.0182393
-0.00500423
-0.0154582
0.0160487
-0.0129558
0.0373027
-0.0106181
0.0580696
0.0779269
0.0960385
-0.00775853
0.00115393
0.116848
0.122809
-0.0946464
-0.0463294
-0.037154
-0.0645205
-0.0555203
-0.0812692
-0.0731827
-0.0948978
-0.0885929
-0.103736
-0.100018
-0.106673
-0.106
-0.103336
-0.105796
-0.0941704
-0.0994388
-0.0803146
-0.0877463
-0.0633457
-0.0721178
-0.044918
-0.054222
-0.0265757
-0.035653
-0.00933225
-0.0177891
-0.00138756
0.121289
0.124443
0.11364
0.117444
0.10318
0.108836
0.0892875
0.0966271
0.0721977
0.0811602
0.051465
0.0623518
0.0262394
0.0394613
-0.00336841
0.0118874
-0.0340557
-0.0189553
-0.0586344
-0.0476509
-0.0697916
-0.0661918
-0.0661487
-0.0696264
-0.0530894
-0.060346
-0.0374401
-0.0452554
-0.0232832
-0.0300407
-0.0119362
-0.0172377
-0.00337082
-0.00732412
0.00283619
2.71531e-06
0.00713011
0.00520075
0.00987842
0.00868104
0.0113601
0.0107654
0.0117861
0.0116962
0.0112912
0.0116518
0.00989305
0.0107077
0.0076559
0.00886197
0.00508244
0.00635544
0.00311819
0.00396127
0.00250319
0.00262049
0.00324368
0.00273204
0.00471455
0.00393915
0.00611258
0.00547078
0.00679237
0.00657431
0.00638257
0.00673902
0.00473871
0.00571942
0.00183569
0.00344385
-0.00234089
-8.29741e-05
-0.00793486
-0.00494285
-0.0112646
0.0157826
0.0176545
0.0167402
0.013198
0.0146269
0.00930689
0.0114388
0.00374261
0.00676274
-0.00386142
0.000216162
-0.0135553
-0.00846952
-0.0244034
-0.0189554
-0.0338926
-0.0295364
-0.0388004
-0.0370935
-0.0376002
-0.0389568
-0.031348
-0.0349875
-0.0220716
-0.0269698
-0.0115705
-0.0168783
-0.00115988
-0.00629372
0.00846508
0.00377422
0.0171073
0.0129117
0.0247897
0.0210672
0.0315229
0.0282803
0.0371991
0.0345063
0.0416223
0.0395828
0.0446221
0.043309
0.0461989
0.0455813
0.0466507
0.0465368
0.0465723
0.0466371
0.0465738
0.046539
0.0467759
0.0466714
0.0467189
0.0468085
0.0460813
0.046475
0.044885
0.0455521
0.0431837
0.0440888
0.0409275
0.0421384
0.0377505
0.0394747
0.033588
0.0358537
0.0282394
0.0311014
0.0214613
0.0250266
0.0134324
0.0175251
-0.00438389
0.00443628
0.0090304
-0.0936879
-0.0768269
0.0182929
-0.0332515
-0.0239549
-0.0905611
-0.0623084
0.121423
0.120341
0.118522
-0.0851831
-0.0509126
-0.0774664
-0.0421991
-0.0673135
-0.0355502
-0.0546473
-0.030807
-0.03946
-0.0273384
-0.0218882
-0.0247498
-0.00237853
-0.0226393
0.0185526
-0.0201703
0.0399351
-0.0175692
0.0608251
-0.0140482
0.0807889
0.0982919
0.11335
0.116222
0.0122649
-0.010176
-0.000481817
0.00806902
-0.0860357
-0.0527087
-0.0429618
-0.0719515
-0.0624217
-0.0895728
-0.0810867
-0.103659
-0.0971894
-0.112436
-0.108817
-0.114778
-0.114469
-0.110392
-0.113425
-0.0998871
-0.105849
-0.0846047
-0.092749
-0.066292
-0.075716
-0.0467627
-0.0565726
-0.027583
-0.0370443
-0.0098109
-0.0184817
0.0059535
-0.00165531
0.0187367
0.0126921
0.125189
0.122989
0.125802
0.126617
0.119595
0.122894
0.110381
0.115467
0.0975754
0.104401
0.0814671
0.0899505
0.0617094
0.0720933
0.037799
0.0502871
0.0104978
0.0244317
-0.0164843
-0.00339794
-0.0367832
-0.0279011
-0.0452267
-0.042648
-0.0420521
-0.044872
-0.0320794
-0.0375707
-0.0203408
-0.0262002
-0.00964769
-0.0147713
-0.000925019
-0.00502253
0.00579596
0.00267635
0.0107681
0.0084853
0.0142841
0.0126936
0.0166024
0.0155811
0.0179311
0.0173811
0.0184365
0.0182791
0.01824
0.0184229
0.0173707
0.017892
0.015843
0.0166806
0.0139615
0.0149076
0.0124284
0.0130999
0.0118816
0.01201
0.0123856
0.0120235
0.0134357
0.0128865
0.014342
0.0139486
0.0145497
0.0145605
0.0137511
0.0142884
0.0118451
0.0129391
0.00883607
0.0104793
0.00472276
0.00692382
-0.000579804
0.00223192
-0.00717205
-0.00369746
-0.015125
-0.010922
0.0230853
0.0241261
0.023631
0.0216307
0.0224713
0.0194238
0.0206391
0.016141
0.0179364
0.0114973
0.0140112
0.00520615
0.00857497
-0.00279704
0.00140367
-0.0118191
-0.00727336
-0.0198573
-0.016143
-0.02412
-0.0226243
-0.0230541
-0.0242602
-0.0174832
-0.0207221
-0.00930225
-0.0136084
-0.000125177
-0.00475853
0.00898112
0.00448323
0.0174941
0.0133282
0.0252809
0.0214801
0.0323474
0.0289053
0.0386584
0.035605
0.0440719
0.0414916
0.0483811
0.0463797
0.0514239
0.0500686
0.0532088
0.0524668
0.0539974
0.0537049
0.0542399
0.0541605
0.0542933
0.0542827
0.0541115
0.0542513
0.0533891
0.0538295
0.052073
0.0527947
0.0503384
0.0512497
0.0482205
0.0493456
0.0457074
0.0470574
0.0425327
0.0442273
0.0385043
0.040644
0.0334417
0.0361168
0.0272246
0.0305516
0.0199468
0.0237193
0.016226
-0.00562244
0.00370832
-0.0860366
-0.071607
0.116225
-0.083992
-0.060107
0.0188113
0.0243616
-0.0196546
-0.00676993
-0.0107721
-0.0797819
-0.0513237
-0.0732604
-0.0447916
-0.0642496
-0.0401199
-0.0525779
-0.0369119
-0.0381492
-0.0345902
-0.0210441
-0.0329741
-0.00162229
-0.0311011
0.0195385
-0.0285903
0.0412356
-0.0254216
0.062537
-0.021463
0.0825213
-0.0165172
0.0999852
0.110385
0.113863
-0.010941
-0.000500667
-0.0796232
-0.0389643
-0.0291081
-0.0597874
-0.0494051
-0.0803036
-0.0701438
-0.0989799
-0.0900128
-0.113673
-0.106967
-0.122488
-0.118928
-0.12425
-0.124308
-0.118749
-0.122398
-0.106776
-0.113502
-0.0899006
-0.0988428
-0.0700799
-0.0802357
-0.0492731
-0.0596869
-0.0290925
-0.0390174
-0.0106627
-0.0196067
0.00555368
-0.00227266
0.0125917
0.122256
0.11349
0.126145
0.124094
0.127498
0.1275
0.123043
0.12574
0.11506
0.119511
0.103482
0.109716
0.0884708
0.0964136
0.0698911
0.0796533
0.047711
0.059225
0.0233011
0.0356151
0.000394891
0.0113401
-0.0159071
-0.0088949
-0.0224474
-0.020454
-0.0203367
-0.0222754
-0.0133958
-0.0172268
-0.00510735
-0.00926547
0.00261985
-0.00110825
0.00909269
0.00603028
0.0142095
0.0118186
0.0180859
0.0162949
0.0208938
0.0196145
0.0228029
0.0219526
0.0239615
0.0234691
0.0244964
0.0243007
0.0245112
0.0245652
0.0240442
0.0243397
0.0230851
0.0236236
0.0217899
0.0224551
0.0206396
0.021157
0.0201621
0.0202952
0.0204679
0.0202317
0.0211741
0.0208078
0.0216962
0.0214948
0.0215506
0.0217307
0.0204751
0.0211391
0.0183977
0.0195629
0.0153425
0.0169921
0.0113313
0.0134593
0.00632602
0.00895984
0.000267837
0.0034278
-0.00309891
0.0281843
0.028994
0.0285592
0.0269559
0.0276146
0.025076
0.0261083
0.0223481
0.0238338
0.0185427
0.0205974
0.0134348
0.0161656
0.00695661
0.0103578
-0.000401028
0.00331933
-0.00710483
-0.00398025
-0.0108163
-0.00948431
-0.00997226
-0.0109894
-0.0050783
-0.00793657
0.00215425
-0.00164897
0.0102273
0.00615567
0.0182363
0.0142762
0.0257848
0.0220792
0.0327915
0.0293567
0.0392571
0.0360944
0.0451191
0.0422726
0.050217
0.047778
0.0543453
0.0524165
0.0573566
0.0559973
0.0592632
0.0584425
0.0602709
0.059864
0.0606716
0.060534
0.0606189
0.0607038
0.0600201
0.0603995
0.0587636
0.0594712
0.0569853
0.0579239
0.054909
0.0559761
0.0525769
0.0537848
0.0498922
0.0512938
0.0466918
0.0483685
0.0428249
0.0448543
0.0381372
0.0405929
0.0325192
0.0354644