/*--------------------------------*- C++ -*----------------------------------*\
  =========                 |
  \\      /  F ield         | OpenFOAM: The Open Source CFD Toolbox
   \\    /   O peration     | Website:  https://openfoam.org
    \\  /    A nd           | Version:  10
     \\/     M anipulation  |
\*---------------------------------------------------------------------------*/
FoamFile
{
    format      ascii;
    class       surfaceScalarField;
    location    "7";
    object      phi;
}
// * * * * * * * * * * * * * * * * * * * * * * * * * * * * * * * * * * * * * //

dimensions      [0 3 -1 0 0 0 0];

internalField   nonuniform List<scalar> 
57492
(
0.000476411
-1.58437e-05
-9.06858e-05
-0.000369881
-0.000436721
0.000561583
0.000351548
-3.06639e-05
8.72221e-05
0.000345985
-0.000402543
0.00316428
0.00338392
-0.000273924
-0.00627428
-0.00862837
0.00404112
0.00775153
0.0017444
-0.0016588
-0.000867731
0.00078213
-0.00319223
0.000731391
-0.000333063
0.0027939
0.00058798
-0.00203581
0.0010209
-0.00442713
0.00421813
-0.000811908
0.000916009
0.00407509
-0.0039702
-0.00169839
-0.000508789
0.00165564
0.000551536
-0.000107238
-0.00169023
9.90745e-05
0.000745047
-0.000838753
-1.3532e-05
-0.0001443
0.000380558
0.00337912
-0.00316797
-0.00119954
0.000988391
0.000395775
0.00270509
0.000278258
-0.000339907
0.000804398
0.00333011
-0.0037946
-0.000672441
0.00325436
-0.00292182
0.000134662
-0.000289438
0.000154776
-0.00168161
0.00122926
0.000587008
-0.00466776
0.000216084
0.00335018
0.00110149
0.00120948
-0.00473571
-0.00114153
-0.000109146
-0.000540236
-0.00101315
0.00166253
-0.000467441
0.000386704
-2.84084e-05
-0.00336948
0.00268548
0.00109956
-0.000415557
-0.0035969
0.000673128
-0.000445704
-0.00110636
0.000582163
0.000450924
7.32738e-05
-0.000765635
-0.000354076
1.33504e-05
-0.000375854
-0.00116685
0.00134398
0.000198722
-0.000427994
0.000121144
-6.90038e-05
0.00184804
-0.00124182
-0.00115914
0.000552923
-0.00159124
0.00115905
0.00228023
-0.00205441
-0.00401556
0.00346127
0.00260871
-0.0042765
-0.00111165
0.00333373
-0.000714912
-0.000158333
0.000873245
-0.000275667
-0.000439246
-0.00138156
0.00190871
-0.000802823
0.00020509
-0.000770536
-0.000816111
-0.00151446
0.00224585
-0.000234156
-0.00190415
0.00115238
0.000751773
-0.00433043
0.00242627
0.00450423
-0.000492115
7.12487e-05
-0.00408337
0.00331121
-0.000340336
0.00153335
-0.000402034
0.00439883
-0.00448891
0.00326672
0.000612263
-0.00329101
0.00321645
-0.000282786
0.00367506
-0.00136382
-0.00269385
0.000382614
0.00413199
0.000155334
0.00218344
-0.00127622
0.00230923
0.00176788
0.00320946
-0.00427664
-0.000652748
0.000621392
0.00430799
-0.00441624
-0.000363974
0.000503573
0.000702965
0.00432582
-0.00427129
-0.000757496
0.000394261
-0.00411843
-0.00454581
0.00294098
0.00364893
-0.0020441
-0.00154434
0.00369352
-0.00669499
-4.06348e-05
-0.000327714
1.43441e-05
0.000354004
-0.000687931
-0.000191456
0.000208193
-0.000252114
-0.00064401
-0.00015232
3.27986e-05
8.08259e-05
-6.64818e-05
2.48027e-05
5.60232e-05
0.00798049
0.00360917
-0.00626234
-0.00532732
0.00200533
-0.000494351
0.00646951
-0.00829072
0.00261802
0.00767804
0.0019073
-0.00658886
0.00159943
-0.00286665
0.00214378
-0.000876556
0.00237452
-0.0029195
0.0021444
-6.57687e-05
5.62979e-05
-6.37296e-06
-0.000143047
-1.34075e-05
-0.00044715
-6.57783e-05
-0.00297442
0.00541745
0.003327
-0.00577003
0.00431098
-0.00491088
0.00288977
0.00483488
-0.0023072
0.0110827
-0.0025099
-0.00105703
-0.00751578
0.00110092
0.00616267
0.00381912
0.000890177
-0.00583389
0.00604464
5.02645e-05
-8.09284e-05
0.000137487
0.000893116
0.00183069
-0.000652554
-0.00207125
0.00112854
0.000110561
-0.00015826
5.08626e-05
0.000107397
-0.000427286
0.000269026
-0.00687898
0.00324453
-0.00199842
0.00563287
-0.00584706
-0.00282506
0.00179314
-0.00265793
0.00220559
-0.00539472
0.00202825
-2.24689e-05
-0.00097106
-0.00103472
-0.000736895
0.00230723
0.000457915
-0.000867315
-8.75142e-05
0.000217934
-0.000798754
-9.10298e-05
-0.000277591
-0.00149222
-0.00110304
-0.000314535
7.49007e-05
0.00134267
-0.000789012
-0.00184626
0.00153223
0.000738537
0.000118031
-0.00164558
0.000472112
-4.81102e-05
0.000612719
-6.57062e-05
-0.000659
0.000381409
8.20894e-05
-0.000741089
0.000203917
-0.000631203
0.00427432
0.00333117
-0.000178773
0.00212753
-0.00648158
-1.78156e-05
0.00227225
-0.00179911
-0.000455321
0.000276064
0.00317651
-0.00347039
0.00288257
0.00202143
-0.000855993
-0.004048
-0.000634501
9.98627e-05
0.00341721
0.00388285
-0.00249593
-0.00158815
-0.00303185
0.00115478
0.00346522
-0.00124411
0.00351063
-0.00385467
0.000355349
-0.00463131
0.000365275
0.00023439
-1.34155e-05
0.0018677
-0.000988781
-0.00131564
0.000490992
-0.00111821
0.00249492
0.0010052
4.73746e-05
-0.000185247
0.000333168
6.80862e-05
-0.000216007
0.000995698
-0.00122221
4.12688e-05
-0.000359449
0.000834889
0.000520258
-0.00012582
9.95384e-05
-0.00651252
0.00337434
0.00638271
0.00768636
-0.00223667
-0.00827475
-0.0031118
0.00428564
-9.5364e-05
-0.000890484
-0.000181004
-0.000533521
1.0163e-05
4.428e-05
-0.000131022
4.19521e-05
4.47902e-05
-0.000127477
0.000138518
3.32394e-05
-0.000288428
2.9929e-05
-0.000273125
-0.000317854
5.74576e-05
-0.000824538
-0.000339072
-0.00173534
-0.00188249
0.00219826
0.00141957
8.59411e-05
0.000864982
-0.00268627
-0.00249093
0.000694384
-0.00295096
0.00132503
-5.56804e-05
-0.00349639
0.000781303
-0.000235872
0.000846384
-0.00335211
0.0025842
-7.84742e-05
0.000651302
-0.00276274
0.00295782
0.00251685
-0.0101994
-0.00181175
0.00221647
0.00303047
-0.00351719
0.0020914
-0.000341019
-0.000156966
0.000274997
-0.000171824
1.48585e-05
0.000289267
-4.13307e-05
0.00480976
-0.0029491
-0.00231095
0.000450295
0.00420205
0.00020567
0.00557143
-0.00114909
-0.00596667
0.000473572
0.00394673
0.00115113
-8.30468e-05
-0.00381168
0.0043683
7.65523e-06
-0.000179479
0.000763259
-0.00217339
-0.00292939
0.00130393
0.00320889
0.00202943
-0.000121274
-0.00213061
0.000222459
0.000627827
-0.000189637
-0.00255514
0.000439715
0.00327447
0.000395843
-0.00232316
-0.000132156
5.01629e-05
-0.000146293
0.000124518
2.89746e-05
-7.1997e-06
5.1832e-05
2.68882e-06
-0.000200814
6.8698e-05
-0.000608492
0.000591626
-0.00246861
0.00365105
-0.00097852
0.00311314
-0.00465362
-0.000928128
-5.75709e-05
-0.00328832
0.0037856
-0.00444441
0.000353161
-0.00299829
-0.00212669
0.000680563
0.00274164
0.00288552
-0.00541107
0.00254856
0.0043577
-0.00416462
0.00224113
-0.00308216
0.00160576
-0.000764724
0.00245297
-0.00302267
0.00281083
0.0044063
0.0018294
0.00458257
-0.000287215
-0.00458374
0.000288386
0.00503435
-0.000672998
0.000221219
0.00534362
-0.000600023
-0.000208402
-0.00453519
0.00383941
-0.00104666
0.00255086
0.00429932
-0.00127653
0.00101431
-0.0040371
0.00110629
0.00438163
-0.0011886
-0.00388277
-0.00154733
0.00415357
0.000967505
-0.0036955
-0.001709
0.00362689
-0.00220995
-0.00326954
0.00197003
0.00350947
-0.00225323
-0.00330531
0.0033486
0.00211266
0.0030983
-0.00137424
-0.00383672
0.00307661
-0.00321719
-0.00243861
0.00242768
0.00308754
-0.00193676
0.00259646
-0.00409148
0.00364396
-0.000926715
-0.00511237
0.00094745
0.00541489
-0.00124998
0.00184249
-0.00108643
0.00238697
-0.00250836
0.00120782
-0.000703837
0.00265638
-0.00303898
-8.50367e-05
0.000630005
0.000460232
-0.00245657
-0.00347506
0.00220078
-2.79263e-05
3.06151e-05
9.68393e-07
-2.88947e-05
-0.00027056
-0.00400454
0.00299888
-0.00335535
-0.000198231
0.00328302
0.000155336
-0.00351965
8.96732e-06
-0.00040777
0.00185657
0.00043588
-0.00188468
0.00199347
0.000413633
-0.00281487
0.00184193
0.0020081
-1.69102e-05
3.02772e-05
0.000221023
2.56976e-05
-4.26077e-05
5.59748e-05
-1.34528e-05
2.41315e-05
-0.000162998
9.55173e-06
-2.30045e-05
3.36832e-05
-7.20042e-05
3.75086e-05
-0.000432945
4.23128e-05
-0.000114317
7.98214e-05
5.33164e-05
-5.40626e-06
-0.00017373
-1.69475e-05
7.0264e-05
-2.23538e-05
0.000992858
0.00293481
-0.00382781
0.00149662
-0.00417276
0.00366899
0.0040706
0.000360836
-0.00117604
-0.00243915
0.00115226
0.00246293
-0.000712762
0.00271989
-0.00318317
0.000152992
-0.0033049
0.00393313
-0.00397112
-1.22195e-05
5.02087e-05
0.00393066
3.5746e-05
-3.32749e-05
-2.44008e-05
-0.00396602
1.92941e-05
0.00395933
-1.04605e-06
-2.76216e-05
0.00402897
5.76875e-05
-0.000127326
2.8387e-05
0.00412857
-0.000127993
0.00407895
-0.00405556
4.99609e-06
-0.000191868
0.00432062
-1.74207e-07
0.00396477
-7.7684e-05
-0.00393212
-6.5753e-05
-0.00391935
-1.38195e-05
-0.00391468
3.10818e-05
-0.0039995
7.26022e-05
-0.00393497
-8.89336e-05
-0.000186023
0.0045071
-4.5632e-07
0.0037789
-1.59726e-07
-1.9454e-05
-0.00393354
-1.30217e-05
-0.00396789
1.34657e-05
-2.77283e-05
-0.00416152
0.000255703
4.71832e-08
0.00450714
-9.22374e-08
0.00377955
-6.02995e-07
-0.00411443
0.00011881
0.00450731
2.16714e-07
-3.84763e-07
1.0026e-07
0.00450723
-2.54349e-08
0.00377988
-1.12712e-07
0.00378055
-5.65963e-07
-2.34279e-05
-0.00413727
-8.17128e-07
-0.0041373
-5.52979e-07
3.31131e-07
0.00450723
-3.26127e-07
0.00378095
-6.96708e-08
-1.20596e-07
-0.00413658
-5.74144e-07
-0.00413637
-1.04927e-06
3.25545e-07
0.00450687
3.78612e-08
0.00378181
-5.3317e-07
-2.60601e-08
-0.00413566
-8.92573e-07
-0.00413571
-6.95015e-07
7.93825e-07
0.00450635
-2.75864e-07
0.00378263
-3.02879e-08
-1.79228e-07
-0.00413485
-6.30417e-07
-0.00413469
-1.19559e-06
1.24776e-06
0.004505
9.68559e-08
0.00378438
-5.04501e-07
-6.4697e-08
-0.00413385
-9.28467e-07
-0.00413389
-8.64899e-07
2.64947e-06
0.00450259
-2.31086e-07
0.00378702
8.8446e-09
9.37793e-06
-0.00414256
-6.72562e-07
-0.00412314
-1.37492e-06
4.95171e-06
0.00449748
1.51606e-07
0.00379245
-4.72601e-07
2.67822e-05
-0.00402546
-0.000143886
-0.00405255
-4.37997e-05
1.00547e-05
0.00448761
-1.85537e-07
0.0037849
1.75994e-05
2.65386e-05
-0.00404467
-7.32105e-06
-0.00402231
-3.70101e-06
1.96805e-05
0.00446772
2.08664e-07
0.00375832
4.6269e-05
5.73198e-05
-0.00390244
-0.000199556
-0.00390645
-5.85409e-05
0.000191559
0.0042763
-1.31245e-07
0.00387259
7.72803e-05
6.61223e-05
-0.00388528
-8.32783e-05
-0.00386408
2.37504e-05
0.000169131
0.00396096
0.000146205
0.00393639
0.000105336
0.000105659
-0.00014849
-0.00384245
-0.0038494
9.09755e-05
1.18227e-05
3.82964e-05
0.00391084
0.00391073
3.74859e-05
-0.00389929
0.00396016
-0.000144144
-0.00392179
-0.000125992
0.000180728
-0.000156547
-0.00386663
9.18621e-05
-0.00376053
-0.00387507
0.00390868
-4.09382e-05
-0.000114464
-0.00376684
0.00376789
-1.71779e-06
-2.04553e-06
-0.00376889
0.00376985
-1.58854e-06
-1.92736e-06
-0.00377076
0.00377163
-1.45013e-06
-1.80381e-06
-0.00377248
0.00402949
-1.30824e-06
-1.66494e-06
-0.00401797
0.0039627
7.45733e-05
-1.50402e-06
-0.00408996
0.00405765
-9.63573e-07
-7.70595e-05
-0.00392751
0.00386989
-6.97047e-05
0.000102522
-0.00377777
0.00377828
-6.8236e-07
-3.58787e-05
-0.00377877
0.00377923
-5.54574e-07
-9.44478e-07
-0.00377968
0.00378009
-4.41442e-07
-8.30843e-07
-0.0037805
0.00378088
-3.39915e-07
-7.31841e-07
-0.00378124
0.00378159
-2.47402e-07
-6.43045e-07
-0.00378192
0.00378223
-1.618e-07
-5.62459e-07
-0.00378253
0.00378282
-7.92933e-08
-4.86071e-07
-0.00376071
0.00384919
5.77292e-05
2.19804e-05
0.00383952
4.79596e-05
-2.34624e-05
7.57105e-05
0.00385859
-3.10399e-06
0.00389037
0.00386413
-0.00380047
1.36206e-05
-0.00390169
0.00389331
4.58618e-05
6.7778e-05
0.0038001
-0.00378224
-2.5934e-07
4.5901e-05
0.00378192
-0.00378159
-3.27054e-07
-7.88455e-07
0.00378124
-0.00378087
-3.98067e-07
-8.51106e-07
0.00378049
-0.00378009
-4.74911e-07
-9.17156e-07
0.00377966
-0.00377921
-5.60091e-07
-9.9062e-07
0.00377874
-0.00377825
-6.55069e-07
-1.07295e-06
0.00385477
-0.003849
-7.73416e-07
-1.16386e-06
0.00391347
-0.00387099
-5.62975e-05
-1.28385e-06
0.00384556
-0.00382025
4.72959e-05
5.65193e-06
0.00386798
-0.00389298
3.84644e-05
-4.1206e-05
0.00377244
-0.0037716
-1.39275e-06
-1.72807e-06
0.00377073
-0.00376981
-1.61784e-06
-1.92201e-06
0.00376885
-0.00376784
-1.87423e-06
-2.15418e-06
0.0037668
-0.00380844
-2.1521e-06
-2.41597e-06
0.00380946
-0.00386557
-2.4275e-06
-2.68752e-06
0.00383887
-0.00378371
3.58157e-05
-2.94989e-06
-0.00374307
5.12162e-05
-0.00395264
-0.000125698
0.00385132
6.39129e-05
6.39962e-07
0.00388957
0.000143743
-0.000128836
-0.00377544
0.000115412
-0.00371474
0.000131585
-0.000121998
-0.00396223
-0.00386388
-0.00387657
0.00381339
-8.09631e-05
0.00392133
-0.00395482
-9.22026e-05
-8.12375e-05
-0.00376491
0.00376589
-4.19196e-05
-6.59848e-05
-0.003767
0.00376804
-2.76349e-06
-3.15174e-06
-0.00376904
0.00376999
-2.53976e-06
-2.9204e-06
-0.00377089
0.00377176
-2.31501e-06
-2.70656e-06
-0.00377258
0.00377335
-2.08071e-06
-2.48414e-06
-0.0037741
0.00385051
-1.84248e-06
-2.25159e-06
-0.00377546
0.0037761
-1.60197e-06
-2.01297e-06
-0.00388043
0.0038121
-1.37552e-06
-1.80799e-06
-0.00377782
0.00377833
-1.19341e-06
-1.59517e-06
-0.00377882
0.00377928
-1.01876e-06
-1.42936e-06
-0.00377972
0.00378014
-8.61951e-07
-1.27024e-06
-0.00378054
0.00378092
-7.21432e-07
-1.12965e-06
-0.00378128
0.00378163
-5.94183e-07
-1.00341e-06
-0.00378195
0.00378227
-4.7772e-07
-8.89183e-07
-0.00378257
0.00378286
-3.67332e-07
-7.83888e-07
-0.00378284
0.00381349
2.70756e-05
2.19978e-05
9.00453e-06
-1.70511e-05
0.00386664
2.20672e-06
0.00385812
-0.00380208
0.00383971
2.62865e-05
5.93687e-05
0.00384204
-0.00384299
4.68039e-05
0.0038111
3.15865e-05
-2.29114e-06
4.55228e-05
0.00384633
0.00387103
0.00384362
-0.00381554
-1.44564e-05
6.84086e-05
0.00378257
-0.00378227
-5.64789e-07
1.29359e-05
0.00378195
-0.00378162
-6.60909e-07
-1.10522e-06
0.00378127
-0.00378091
-7.64609e-07
-1.19725e-06
0.00378052
-0.00378012
-8.79284e-07
-1.2989e-06
0.0037797
-0.00377925
-1.00682e-06
-1.41239e-06
0.00377878
-0.00377829
-1.14895e-06
-1.53952e-06
0.00377777
-0.00377723
-1.31625e-06
-1.68473e-06
0.00377666
-0.00383146
-1.49647e-06
-1.85262e-06
0.00382376
-0.00377476
-1.71226e-06
-2.04354e-06
0.00381371
-0.0037733
-1.9513e-06
-2.25046e-06
0.00377252
-0.00377169
-2.22106e-06
-2.50487e-06
0.00377083
-0.00376992
-2.52797e-06
-2.78467e-06
0.00376897
-0.00376797
-2.87065e-06
-3.10118e-06
0.00376694
-0.00376585
-3.24161e-06
-3.45078e-06
0.00376472
-0.00376352
-3.62613e-06
-3.82065e-06
0.00376227
-0.00372243
-4.01984e-06
-4.20309e-06
0.00370023
-0.00364874
6.39201e-05
2.9016e-05
-0.00398322
-9.35975e-05
0.00010247
-0.000159313
-0.00365789
-0.00362526
7.89903e-05
-0.000214363
-0.00372039
2.51307e-05
0.00381679
0.00381681
3.98125e-05
-5.87561e-05
8.36474e-05
-0.00398712
-5.49646e-05
-0.00398701
7.77895e-05
-0.000158015
-0.00357767
5.41972e-05
-0.00360166
-0.0039946
0.00384948
-0.00383817
1.49777e-05
0.00381003
6.45881e-05
6.83325e-05
-2.94542e-05
0.00380746
4.48792e-05
0.00384026
-0.00394054
0.00398276
-9.71865e-05
-0.000108062
8.96054e-05
-0.00396856
0.00402846
-8.68831e-05
0.000321213
-0.00426279
-2.01373e-05
-0.00397758
0.00394574
-6.03683e-05
-8.8418e-05
-0.00389443
0.00383242
-1.89597e-05
-2.99202e-05
-0.0038039
0.00376615
-4.17547e-06
-3.74573e-05
-0.00376724
0.00376828
-3.8016e-06
-4.23765e-06
-0.00376926
0.00377019
-3.47713e-06
-3.9016e-06
-0.00377108
0.00377193
-3.16345e-06
-3.5939e-06
-0.00377273
0.0037735
-2.84746e-06
-3.28703e-06
-0.00377423
0.00377491
-2.53097e-06
-2.97759e-06
-0.00377557
0.0037762
-2.22777e-06
-2.67374e-06
-0.00377679
0.00377736
-1.94845e-06
-2.39295e-06
-0.0037779
0.00377841
-1.70246e-06
-2.13384e-06
-0.00377889
0.00377935
-1.48035e-06
-1.9109e-06
-0.00377979
0.0037802
-1.28e-06
-1.70667e-06
-0.0037806
0.00378098
-1.10025e-06
-1.5247e-06
-0.00378134
0.00378168
-9.38036e-07
-1.36147e-06
-0.00378201
0.00378232
-7.90861e-07
-1.21441e-06
-0.00378262
0.0037829
-6.54557e-07
-1.08082e-06
-0.00379361
0.00380019
2.04985e-05
1.12918e-05
2.13794e-05
2.50519e-05
-8.97901e-06
0.00385057
-4.06514e-05
1.14221e-05
0.00384601
0.00384252
0.00383259
0.00383132
-0.00382722
4.26978e-05
-0.00382584
0.00380502
6.06353e-05
3.70707e-05
0.00378317
-0.00379686
-7.60225e-07
2.43588e-05
0.00378261
-0.00378231
-8.69084e-07
-1.31484e-06
0.00378199
-0.00378166
-9.91971e-07
-1.41851e-06
0.00378132
-0.00378096
-1.12882e-06
-1.54104e-06
0.00378058
-0.00378017
-1.28119e-06
-1.67799e-06
0.00377976
-0.00377931
-1.45097e-06
-1.8312e-06
0.00377885
-0.00377836
-1.64086e-06
-2.00289e-06
0.00377784
-0.0037773
-1.85793e-06
-2.19745e-06
0.00377674
-0.00377613
-2.09996e-06
-2.41889e-06
0.00377551
-0.00377484
-2.37526e-06
-2.66975e-06
0.00377414
-0.00377341
-2.68605e-06
-2.95109e-06
0.00377264
-0.00377182
-3.03494e-06
-3.27427e-06
0.00377098
-0.00377008
-3.42359e-06
-3.63355e-06
0.00376915
-0.00376817
-3.85247e-06
-4.03349e-06
0.00376714
-0.00376607
-4.31741e-06
-4.47214e-06
0.00376495
-0.00376376
-4.81162e-06
-4.94293e-06
0.00376252
-0.0037612
-5.33635e-06
-5.44253e-06
0.00372621
-0.0036564
-5.89799e-06
-5.97456e-06
0.0036156
-0.00362253
6.11352e-05
3.81895e-05
6.92185e-05
-6.80375e-05
-0.00360285
-0.00360471
5.13976e-05
0.000117063
-0.00401458
-9.46804e-05
-0.00378372
3.79184e-05
0.00378353
0.00381809
3.18094e-05
0.000139034
-0.00419447
2.24585e-06
-0.00364795
0.000819515
-0.00336865
0.00439107
-6.57447e-05
4.35587e-05
-0.00358253
-0.000100353
-0.00356824
-0.00266085
0.00404808
0.000620875
-0.00207942
-0.000145543
-0.00397221
-0.00383646
0.00399689
0.000160787
0.000339896
-0.00012828
-0.00395711
0.00392018
-6.02505e-05
1.96374e-05
-0.00388711
0.00383342
-6.67664e-06
-5.53494e-05
-0.00381001
0.00379697
-5.91752e-06
-6.51164e-06
-0.00376535
0.00376648
-5.31362e-06
-5.83786e-06
-0.00376756
0.00376858
-4.82333e-06
-5.30984e-06
-0.00376954
0.00377046
-4.3958e-06
-4.86547e-06
-0.00377133
0.00377216
-3.99218e-06
-4.4618e-06
-0.00377294
0.00377369
-3.59636e-06
-4.07094e-06
-0.0037744
0.00377508
-3.20942e-06
-3.68672e-06
-0.00377572
0.00377634
-2.84314e-06
-3.31684e-06
-0.00377692
0.00377748
-2.50699e-06
-2.97457e-06
-0.003778
0.00377851
-2.20666e-06
-2.66252e-06
-0.00377899
0.00377944
-1.93681e-06
-2.38728e-06
-0.00377987
0.00378029
-1.69372e-06
-2.13854e-06
-0.00378068
0.00378105
-1.47514e-06
-1.91585e-06
-0.00378141
0.00378175
-1.27823e-06
-1.71604e-06
-0.00378207
0.00378238
-1.10047e-06
-1.53645e-06
-0.00378267
0.00378296
-9.39491e-07
-1.37479e-06
-0.00379548
0.00381678
-8.01316e-07
-1.23363e-06
-0.00380772
0.00380553
1.71647e-05
3.04466e-05
-0.00382055
0.00381631
4.21516e-05
4.95704e-05
5.33542e-05
-2.97401e-05
0.0038224
-3.31102e-05
7.64605e-06
0.00384178
0.00380377
3.73173e-05
1.53602e-05
0.00379789
0.0038501
-2.62299e-05
1.80831e-05
0.0038156
0.00382172
-2.25178e-05
3.44491e-06
0.00383716
0.00383583
0.00384014
-0.00382659
4.70862e-05
-0.00389947
0.00379542
0.0001075
-2.75262e-05
0.00381707
-0.00380905
3.46751e-05
2.75508e-05
0.00378321
-0.00378294
-1.03378e-06
-1.47691e-06
0.00378266
-0.00378236
-1.16821e-06
-1.59393e-06
0.00378205
-0.00378172
-1.31949e-06
-1.72806e-06
0.00378138
-0.00378102
-1.48961e-06
-1.8814e-06
0.00378065
-0.00378025
-1.67933e-06
-2.05351e-06
0.00377983
-0.00377939
-1.89104e-06
-2.24614e-06
0.00377893
-0.00377845
-2.12779e-06
-2.46189e-06
0.00377794
-0.0037774
-2.39506e-06
-2.70503e-06
0.00377684
-0.00377625
-2.69457e-06
-2.97973e-06
0.00377563
-0.00377497
-3.03228e-06
-3.28975e-06
0.00377428
-0.00377356
-3.41153e-06
-3.63776e-06
0.0037728
-0.003772
-3.83452e-06
-4.0308e-06
0.00377117
-0.00377029
-4.30264e-06
-4.46682e-06
0.00376937
-0.00376841
-4.81698e-06
-4.94871e-06
0.00376741
-0.00376635
-5.3769e-06
-5.47662e-06
0.00376524
-0.00376407
-5.98186e-06
-6.04939e-06
0.00376284
-0.00376154
-6.63664e-06
-6.66878e-06
0.00376017
-0.00375872
-7.35424e-06
-7.34218e-06
0.00371244
-0.00364315
-8.15199e-06
-8.08823e-06
0.00364563
-0.00363188
2.98109e-05
5.38714e-05
5.24983e-05
-4.95099e-05
-0.00358551
-0.00360688
2.74987e-05
0.000113332
-0.00398887
-2.90848e-05
-0.00375239
0.000292313
-0.00366727
2.34586e-06
-0.00375065
0.00381764
-0.00382325
4.77634e-05
0.00380432
2.09665e-05
4.78529e-05
-3.25601e-05
0.00382187
1.25764e-05
0.0038307
0.00028051
-0.00323553
4.45178e-06
-0.0036222
-0.00195136
-0.00201274
-0.00315583
0.00362483
0.000151875
8.16079e-05
-5.60944e-05
-0.00361103
5.68156e-05
-0.00358209
-0.00293771
-0.000363664
-0.00388797
-0.00377996
0.00382886
0.000111887
0.000184763
-0.00385839
0.00380724
-9.09569e-06
-9.89184e-06
-0.00376066
0.00376203
-8.0531e-06
-8.77182e-06
-0.00376334
0.00376459
-7.16355e-06
-7.81667e-06
-0.00376577
0.00376688
-6.43224e-06
-7.01748e-06
-0.00376794
0.00376894
-5.82457e-06
-6.3639e-06
-0.00376988
0.00377078
-5.29242e-06
-5.80814e-06
-0.00377162
0.00377243
-4.79858e-06
-5.30737e-06
-0.00377319
0.00377392
-4.32531e-06
-4.83338e-06
-0.00377461
0.00377527
-3.87136e-06
-4.37758e-06
-0.0037759
0.0037765
-3.44533e-06
-3.94487e-06
-0.00377708
0.00377762
-3.05464e-06
-3.54501e-06
-0.00377814
0.00377864
-2.70302e-06
-3.18141e-06
-0.00377911
0.00377956
-2.38675e-06
-2.85673e-06
-0.00377998
0.00378039
-2.10171e-06
-2.56433e-06
-0.00378078
0.00378115
-1.84514e-06
-2.30178e-06
-0.0037815
0.00378183
-1.61386e-06
-2.06595e-06
-0.00378215
0.00378246
-1.40573e-06
-1.8541e-06
-0.00378274
0.00378302
-1.219e-06
-1.66415e-06
-0.00378329
0.00378354
-1.05364e-06
-1.49603e-06
-0.00381534
0.00380223
3.02739e-05
-1.35153e-06
2.85471e-05
4.09106e-05
-6.5237e-05
0.00384673
-1.70601e-05
2.94078e-05
0.00382943
0.00382762
-2.39852e-08
-1.70627e-07
0.00379808
0.00378483
-3.6718e-05
5.46941e-05
0.00379763
0.00378483
0.00385796
0.00384228
-0.00383088
3.56868e-05
-0.00379454
0.00383309
6.89418e-05
2.02191e-05
0.00381936
-0.00378352
-1.16491e-06
1.60238e-05
0.00378326
-0.003783
-1.30226e-06
-1.72805e-06
0.00378272
-0.00378243
-1.46178e-06
-1.87076e-06
0.00378212
-0.0037818
-1.6426e-06
-2.03304e-06
0.00378146
-0.0037811
-1.84579e-06
-2.21741e-06
0.00378073
-0.00378034
-2.07272e-06
-2.42442e-06
0.00377993
-0.0037795
-2.32566e-06
-2.65601e-06
0.00377904
-0.00377856
-2.60839e-06
-2.91514e-06
0.00377806
-0.00377753
-2.92555e-06
-3.20608e-06
0.00377698
-0.00377639
-3.28069e-06
-3.53314e-06
0.00377578
-0.00377513
-3.67895e-06
-3.90071e-06
0.00377446
-0.00377375
-4.12402e-06
-4.31239e-06
0.003773
-0.00377222
-4.61828e-06
-4.77305e-06
0.0037714
-0.00377054
-5.16362e-06
-5.28309e-06
0.00376965
-0.0037687
-5.76232e-06
-5.84527e-06
0.00376772
-0.00376668
-6.41746e-06
-6.46214e-06
0.00376559
-0.00376444
-7.13326e-06
-7.13705e-06
0.00376323
-0.00376195
-7.91815e-06
-7.87621e-06
0.0037606
-0.00375917
-8.78649e-06
-8.69038e-06
0.00375766
-0.00375605
-9.75999e-06
-9.59731e-06
0.00369155
-0.00365087
-1.08679e-05
-1.06285e-05
0.00361157
-0.00358247
2.77079e-05
-1.17983e-05
9.86494e-05
-6.30104e-05
-0.00361773
-0.003561
7.71878e-05
8.3803e-05
-0.00378036
4.21639e-07
-0.00375047
4.68654e-05
0.00378686
0.00381873
2.69449e-05
0.000166257
-0.00355302
-0.000480046
-0.00428619
-7.53916e-05
-0.00364018
2.44673e-06
-0.00374864
4.6967e-06
-0.00368299
-0.00422784
-0.00072261
0.000140647
-0.000432046
-0.00393644
-0.000314782
-0.00383076
-5.66691e-05
-0.00361737
6.04623e-05
-0.000117809
-0.00356038
0.000101366
-0.00360191
-0.00380374
-0.00344182
0.00359474
-1.03778e-06
0.0036196
-0.00398761
-0.0003546
-0.000185884
-0.00370507
0.0037568
6.0152e-05
7.44326e-05
-0.00375833
0.00375981
-1.05768e-05
-1.14248e-05
-0.00376123
0.00376257
-9.40202e-06
-1.01825e-05
-0.00376386
0.00376508
-8.38735e-06
-9.09826e-06
-0.00376624
0.00376733
-7.53009e-06
-8.17335e-06
-0.00376837
0.00376934
-6.80322e-06
-7.39602e-06
-0.00377026
0.00377114
-6.16536e-06
-6.72771e-06
-0.00377196
0.00377274
-5.58186e-06
-6.12946e-06
-0.00377348
0.00377419
-5.03325e-06
-5.57356e-06
-0.00377486
0.00377551
-4.51531e-06
-5.04888e-06
-0.00377612
0.0037767
-4.03265e-06
-4.55657e-06
-0.00377726
0.0037778
-3.59023e-06
-4.10247e-06
-0.00377831
0.00377879
-3.18989e-06
-3.68937e-06
-0.00377925
0.0037797
-2.82884e-06
-3.31771e-06
-0.00378011
0.00378052
-2.50291e-06
-2.98279e-06
-0.00378089
0.00378126
-2.20904e-06
-2.68136e-06
-0.0037816
0.00378193
-1.94414e-06
-2.4102e-06
-0.00378225
0.00378255
-1.70565e-06
-2.1665e-06
-0.00378283
0.0037831
-1.49182e-06
-1.94806e-06
-0.00378336
0.00378361
-1.30246e-06
-1.75395e-06
-0.00378384
0.00381525
-1.13371e-06
-1.58263e-06
-0.00381819
0.00382714
3.88152e-05
2.56014e-05
-0.00377607
0.00379225
3.06857e-05
7.20345e-05
6.42642e-05
-4.74695e-05
0.00381264
-1.42584e-05
-7.59837e-06
0.00381411
0.00383687
4.76596e-05
1.9449e-07
0.00379887
0.00382781
-1.40704e-08
-1.73312e-07
0.00379827
0.00378502
3.56219e-07
-5.44115e-07
0.00379781
0.00378502
-2.77268e-05
2.21987e-05
0.00382739
0.00382969
-1.59045e-05
2.09112e-05
0.00381372
0.00383699
0.00384582
-0.0038024
2.55203e-05
-0.00382807
0.00380561
4.33678e-05
4.4693e-05
0.00380998
-0.00380166
2.73691e-05
2.78005e-05
0.00378381
-0.00378357
-1.39913e-06
-1.82794e-06
0.00378333
-0.00378306
-1.56372e-06
-1.975e-06
0.00378279
-0.0037825
-1.74997e-06
-2.14236e-06
0.00378221
-0.00378189
-1.96045e-06
-2.3328e-06
0.00378156
-0.00378121
-2.19653e-06
-2.54814e-06
0.00378084
-0.00378045
-2.46005e-06
-2.78965e-06
0.00378005
-0.00377962
-2.75369e-06
-3.05962e-06
0.00377918
-0.0037787
-3.08125e-06
-3.3613e-06
0.00377821
-0.00377769
-3.44756e-06
-3.69904e-06
0.00377714
-0.00377657
-3.85674e-06
-4.07735e-06
0.00377597
-0.00377533
-4.31354e-06
-4.50083e-06
0.00377467
-0.00377397
-4.82201e-06
-4.97362e-06
0.00377325
-0.00377248
-5.38515e-06
-5.49978e-06
0.00377168
-0.00377084
-6.0055e-06
-6.08143e-06
0.00376996
-0.00376904
-6.68755e-06
-6.72223e-06
0.00376807
-0.00376705
-7.43717e-06
-7.42726e-06
0.00376599
-0.00376486
-8.26274e-06
-8.20356e-06
0.00376367
-0.00376241
-9.1758e-06
-9.06104e-06
0.00376109
-0.00375969
-1.01923e-05
-1.00131e-05
0.0037582
-0.00375663
-1.13338e-05
-1.10782e-05
0.00375498
-0.00375322
-1.26263e-05
-1.22816e-05
0.00375137
-0.00370956
-1.4101e-05
-1.36505e-05
0.00366866
-0.00360081
3.35189e-05
3.6288e-05
4.87451e-05
-8.18697e-05
-0.00356878
-0.00359907
4.70021e-05
5.49644e-05
-0.00366907
-0.00404346
-0.000376195
1.92537e-05
-0.00364766
0.00384114
-0.00385064
4.01831e-05
0.00383779
-4.24587e-06
4.13805e-05
-3.53321e-05
0.00380767
5.15233e-05
0.00379547
4.16626e-07
-0.00374844
2.57034e-06
-0.00374652
-0.000113254
-0.00384171
4.95956e-06
-0.00374462
7.58528e-06
-0.00374276
1.04581e-05
-0.00365271
6.82918e-05
-3.45468e-05
-0.00360253
2.46143e-05
-0.00355539
-0.00374836
-0.00389874
0.00371282
-0.000168683
-0.000308205
0.000424406
-0.00415966
0.0040661
-0.00423124
-0.000143072
-0.000208833
-0.00358082
0.00364371
-6.39297e-05
-5.38801e-05
-0.00371624
0.00375747
1.89259e-05
1.90054e-06
-0.00375899
0.00376044
-1.20308e-05
-1.29414e-05
-0.00376182
0.00376315
-1.07281e-05
-1.15669e-05
-0.00376441
0.00376561
-9.5875e-06
-1.03561e-05
-0.00376674
0.00376782
-8.60468e-06
-9.30573e-06
-0.00376883
0.00376978
-7.75859e-06
-8.40507e-06
-0.00377068
0.00377153
-7.0149e-06
-7.62394e-06
-0.00377233
0.00377309
-6.34232e-06
-6.92842e-06
-0.0037738
0.00377449
-5.72026e-06
-6.2919e-06
-0.00377514
0.00377577
-5.1409e-06
-5.70055e-06
-0.00377636
0.00377693
-4.60439e-06
-5.15124e-06
-0.00377748
0.003778
-4.11258e-06
-4.6458e-06
-0.0037785
0.00377897
-3.66588e-06
-4.18528e-06
-0.00377942
0.00377986
-3.26169e-06
-3.76886e-06
-0.00378027
0.00378066
-2.89614e-06
-3.39276e-06
-0.00378103
0.00378139
-2.56598e-06
-3.05353e-06
-0.00378173
0.00378205
-2.26807e-06
-2.74788e-06
-0.00378236
0.00378265
-1.99967e-06
-2.47288e-06
-0.00378293
0.0037832
-1.75871e-06
-2.22612e-06
-0.00378345
0.00378369
-1.5439e-06
-2.00603e-06
-0.00378392
0.00378413
-1.3511e-06
-1.81074e-06
-0.00381137
0.00382516
2.50334e-05
-1.63748e-06
4.65502e-05
1.86616e-05
-4.2282e-05
0.00383626
-2.94959e-05
2.86256e-06
0.00384074
0.00382603
-3.39327e-07
1.68251e-07
0.00379904
0.00378519
2.80504e-09
-1.77467e-07
0.00379845
0.00378519
3.51738e-07
-5.29089e-07
0.00379799
0.00378519
-4.3957e-05
3.27457e-05
0.0038386
0.0037852
0.0038344
0.00384026
-0.00384262
2.78846e-05
-0.00383196
0.00381526
6.00724e-05
5.29877e-05
0.00381293
-0.00378409
-1.46591e-06
-1.89204e-06
0.00378387
-0.00378364
-1.63114e-06
-2.04497e-06
0.0037834
-0.00378315
-1.8192e-06
-2.21532e-06
0.00378288
-0.0037826
-2.03235e-06
-2.40821e-06
0.00378231
-0.00378199
-2.27227e-06
-2.62668e-06
0.00378167
-0.00378132
-2.5408e-06
-2.87271e-06
0.00378097
-0.00378059
-2.84025e-06
-3.14817e-06
0.00378019
-0.00377977
-3.17366e-06
-3.45573e-06
0.00377933
-0.00377887
-3.54511e-06
-3.799e-06
0.00377838
-0.00377787
-3.95926e-06
-4.1824e-06
0.00377734
-0.00377678
-4.42088e-06
-4.61063e-06
0.00377619
-0.00377557
-4.93447e-06
-5.08841e-06
0.00377492
-0.00377424
-5.50438e-06
-5.62013e-06
0.00377353
-0.00377278
-6.1341e-06
-6.20987e-06
0.003772
-0.00377118
-6.8278e-06
-6.86111e-06
0.00377032
-0.00376942
-7.59171e-06
-7.57896e-06
0.00376847
-0.00376748
-8.43455e-06
-8.37088e-06
0.00376643
-0.00376533
-9.36791e-06
-9.24702e-06
0.00376417
-0.00376294
-1.0406e-05
-1.02203e-05
0.00376164
-0.00376027
-1.15661e-05
-1.13063e-05
0.00375882
-0.00375729
-1.28695e-05
-1.25241e-05
0.00375567
-0.00375396
-1.43411e-05
-1.38975e-05
0.00375216
-0.00375025
-1.60098e-05
-1.54521e-05
0.00369674
-0.00364533
-1.7894e-05
-1.72153e-05
0.00362115
-0.0036247
2.81693e-05
2.28183e-05
-0.000206216
3.23009e-05
-0.00365685
-0.00371825
6.93961e-05
-3.60519e-05
-0.00358874
-0.00356467
9.36203e-06
1.72107e-06
-0.00365154
4.5063e-05
0.00379559
0.00384731
1.9467e-05
9.90069e-05
-0.00419856
-0.000131682
4.32254e-07
-0.0037463
0.000211265
-0.00427192
-3.51837e-05
-0.00372573
2.71434e-06
-0.00374427
-4.35349e-05
-0.00376588
5.23891e-06
-0.00374227
8.0205e-06
-0.00374033
1.10764e-05
-0.00369833
-2.56944e-05
-0.00361289
3.80871e-05
-3.94728e-05
-0.00358735
3.99851e-05
-0.00356657
-0.00374621
-0.00415818
0.00398845
2.66567e-05
-0.000229503
-0.0041383
0.000169246
0.00427768
-0.00417763
-0.000329561
-1.21817e-05
-0.00387514
0.00378915
-8.26903e-05
-9.55178e-05
-0.00375324
0.00370615
-1.68409e-05
-1.79728e-05
-0.00372417
0.00375817
-1.50769e-05
-1.61197e-05
-0.00375967
0.0037611
-1.34608e-05
-1.44347e-05
-0.00376246
0.00376376
-1.20286e-05
-1.29261e-05
-0.00376499
0.00376616
-1.07619e-05
-1.15882e-05
-0.00376727
0.00376832
-9.65472e-06
-1.04129e-05
-0.00376931
0.00377024
-8.69037e-06
-9.39024e-06
-0.00377111
0.00377194
-7.84194e-06
-8.49726e-06
-0.00377271
0.00377345
-7.08133e-06
-7.70545e-06
-0.00377415
0.00377482
-6.38738e-06
-6.98958e-06
-0.00377545
0.00377606
-5.74839e-06
-6.33325e-06
-0.00377664
0.00377719
-5.16002e-06
-5.72889e-06
-0.00377772