/*--------------------------------*- C++ -*----------------------------------*\
  =========                 |
  \\      /  F ield         | OpenFOAM: The Open Source CFD Toolbox
   \\    /   O peration     | Website:  https://openfoam.org
    \\  /    A nd           | Version:  10
     \\/     M anipulation  |
\*---------------------------------------------------------------------------*/
FoamFile
{
    format      ascii;
    class       surfaceScalarField;
    location    "19.5";
    object      phi;
}
// * * * * * * * * * * * * * * * * * * * * * * * * * * * * * * * * * * * * * //

dimensions      [0 3 -1 0 0 0 0];

internalField   nonuniform List<scalar> 
57492
(
0.000256622
-1.15962e-05
-4.7719e-05
-0.000197307
-0.000183542
0.000294716
0.000145449
-2.92538e-05
8.23955e-05
0.000328999
-0.000382141
0.00315962
0.00338645
-0.000271999
-0.00627407
-0.00862819
0.00404526
0.00774255
0.00113693
-0.00105789
-0.00055343
0.00047439
-0.0020467
0.000396039
-0.000158592
0.00180926
0.000418194
-0.00132797
0.00147917
-0.00461856
0.00441308
-0.00127368
0.00125692
0.00423953
-0.00401728
-0.000728768
-0.000238939
0.00079611
0.000171598
-0.000126528
-0.000934003
0.000331763
0.000277982
-0.000374799
-2.97118e-05
-6.20682e-05
0.000101112
0.00254277
-0.00242868
-0.000914399
0.000800317
0.000342049
0.00204614
0.00015458
-0.000323395
0.000786564
0.00334134
-0.00380451
-0.00066139
0.00326712
-0.00292913
0.000135947
-0.000290205
0.000154258
-0.0016752
0.00122771
0.000583433
-0.0046768
0.000201136
0.00335229
0.00112337
0.00121858
-0.00474461
-0.00115077
-0.000135352
-0.0002314
-0.000745045
0.0011118
-0.00030854
0.000196388
-2.32009e-05
-0.00266855
0.00224893
0.000781582
-0.000361961
-0.00314492
0.000906292
-0.000429921
-0.00112667
0.000594605
0.000457455
7.46074e-05
-0.000778806
-0.000361459
1.3597e-05
-0.00037072
-0.00114544
0.00130675
0.000209409
-0.000420375
0.000117871
-6.82158e-05
0.00118757
-0.0007935
-0.00073852
0.000344447
-0.00102655
0.000798488
0.00141563
-0.00138667
-0.00266294
0.00248683
0.00156278
-0.00306374
-0.000756209
0.00243328
-0.00071406
-0.000154147
0.000868207
-0.00027396
-0.000440099
-0.00138652
0.00190886
-0.000796304
0.0002049
-0.00077442
-0.000816996
-0.000924772
0.00132081
-0.0002352
-0.00190175
0.00115078
0.000750968
-0.00432151
0.00241976
0.00466049
-0.000825508
0.00037373
-0.00420872
0.00344355
-6.57438e-05
0.00128269
-0.000729796
0.00453843
-0.00463415
0.00220424
0.000455166
-0.00224121
0.0022044
-0.000158754
0.00262818
-0.000982093
-0.00194769
0.000301595
0.00294611
0.00013724
0.00141091
-0.000861797
0.00165529
0.00128641
0.00193375
-0.00463947
-0.000650183
0.00058335
0.0047063
-0.00477696
-0.000326154
0.000463647
0.00111925
0.00450448
-0.00442932
-0.00119441
0.000789339
-0.00428866
-0.00305843
0.00262622
0.00272452
-0.00229231
-0.000467585
0.00332488
-0.00591573
1.24632e-05
-0.000134339
-2.97143e-07
0.000122173
-0.000358828
-3.50773e-06
7.80912e-05
-0.000149049
-0.00028787
-6.45349e-05
8.28737e-06
1.50915e-05
-1.53887e-05
1.03401e-05
4.75143e-06
0.00744811
0.00378314
-0.00597131
-0.00525995
0.00230821
-0.000680952
0.00582085
-0.00796917
0.0030484
0.00722899
0.00224671
-0.00643274
0.00161225
-0.00287692
0.00214748
-0.000882811
0.0023729
-0.00292733
0.00216668
-3.24822e-05
2.37943e-05
-2.90829e-06
-7.60713e-05
-4.12987e-06
-0.000241303
-3.20752e-05
-0.00296099
0.00538599
0.00338523
-0.00581023
0.00435653
-0.00494461
0.00297305
0.00478541
-0.00237247
0.0103461
-0.00164654
-0.00171885
-0.00698075
0.00209712
0.00560474
0.00264429
0.00150857
-0.00519147
0.00578002
4.76619e-05
-7.69157e-05
0.000130057
0.00083283
0.00177946
-0.000634331
-0.00197796
0.00105992
0.000101909
-0.000103177
2.88114e-05
7.43657e-05
-0.000315624
0.000212447
-0.0066925
0.00342279
-0.00202667
0.00529637
-0.00579738
-0.00256394
0.00166882
-0.00264872
0.00212118
-0.00526984
0.00197816
-2.61577e-05
-0.00095548
-0.000996526
-0.000720877
0.00225637
0.000442667
-0.000846043
-8.62417e-05
0.000211408
-0.000781634
-9.05666e-05
-0.000274479
-0.00146264
-0.000351921
-8.11739e-05
3.28531e-05
0.000400242
-0.000269458
-0.000698642
0.000616179
0.000191052
2.55767e-05
-0.000486087
0.000115686
-5.80772e-06
0.000153573
-5.03447e-06
-0.00064884
0.000374361
8.38698e-05
-0.00073271
0.000178293
-0.000493918
0.00427355
0.00333166
-0.000178493
0.0021287
-0.00648334
-1.03321e-05
0.00226388
-0.00179744
-0.000456112
0.000291798
0.00316406
-0.00346619
0.00323918
0.00200084
-0.000679978
-0.00456004
-0.000896726
0.000335089
0.00380082
0.00412195
-0.00301784
-0.00162689
-0.00304129
0.00121877
0.00344942
-0.00121237
0.00351757
-0.00393209
0.000392694
-0.00464635
0.000102801
4.62708e-05
-5.53807e-06
0.00114324
-0.000663086
-0.0006637
0.000104814
-0.000401779
0.00144021
0.000416585
-1.70557e-05
-0.000187721
0.000335178
6.87925e-05
-0.000216249
0.00100097
-0.00122846
3.97694e-05
-0.000361511
0.000838574
0.000523906
-0.000126545
0.000100212
-0.0062154
0.00363668
0.00600152
0.00776525
-0.00205759
-0.0082716
-0.00291531
0.00446516
-9.73027e-05
-0.00088174
-0.000166401
-0.000527047
9.36872e-06
4.66467e-05
-0.000131675
3.97852e-05
4.52433e-05
-0.000130002
0.000143025
3.36242e-05
-0.000296844
3.51665e-05
-0.000268116
-0.000315366
5.64354e-05
-0.000811609
-0.000338247
-0.0012373
-0.00133223
0.00153207
0.00103746
5.31432e-05
0.000644743
-0.00193519
-0.00174468
0.000465591
-0.00295139
0.00133553
-5.93347e-05
-0.00351708
0.000806429
-0.000240739
0.000876021
-0.00334728
0.00256408
-9.28254e-05
0.000679006
-0.00272832
0.00292534
0.00252834
-0.0101971
-0.00178287
0.00219897
0.00303663
-0.00348398
0.00208103
-0.000326317
-6.79226e-06
3.2369e-05
-1.12259e-05
4.43368e-06
0.00028671
-4.15234e-05
0.00509576
-0.00309059
-0.00221362
0.000208447
0.00439959
-3.36215e-05
0.00485706
-4.79314e-05
-0.00527671
0.00123442
0.0034637
0.00015893
0.000434264
-0.00312029
0.00392045
5.69577e-06
-1.69217e-05
0.00076542
-0.00214419
-0.00287983
0.0012522
0.00312535
0.00133207
-7.50077e-05
-0.00140071
0.000143654
0.000433914
-0.000128396
-0.0017041
0.000349106
0.00215348
0.000297412
-0.00156759
-0.000135497
7.23414e-05
-1.21152e-05
1.73953e-05
-4.47423e-06
-8.05928e-07
1.35172e-05
-8.38579e-08
-2.55484e-05
4.99917e-05
-0.000133641
9.71668e-05
-0.00182031
0.00279366
-0.000795054
0.00297883
-0.00392979
-0.000869351
-4.60169e-06
-0.00229756
0.00265127
-0.00408337
0.000257494
-0.0027929
-0.0018849
0.000594428
0.00271745
0.00291268
-0.00542899
0.00260097
0.00432767
-0.00421119
0.00223899
-0.00309333
0.0016146
-0.00076026
0.00245231
-0.00303297
0.00281965
0.00439746
0.0018675
0.00490815
-0.000257272
-0.00488437
0.000233495
0.00542373
-0.000675177
0.000159592
0.00551131
-0.000837863
1.31408e-05
-0.00468659
0.00395949
-0.00130744
0.00285927
0.00431835
-0.00136802
0.00110215
-0.00405248
0.00122705
0.00440159
-0.00131029
-0.00388936
-0.00163459
0.00415593
0.00103176
-0.00370235
-0.00181998
0.00363481
-0.00234792
-0.00325953
0.00211835
0.0034891
-0.00237069
-0.00328981
0.00331258
0.00221467
0.00307129
-0.00145663
-0.00382932
0.00304601
-0.00320203
-0.00256954
0.00258685
0.0030287
-0.00202804
0.00252978
-0.0040911
0.0036376
-0.00100313
-0.00509825
0.00103473
0.00540872
-0.0013452
0.00190018
-0.000468315
0.00125233
-0.00131218
0.000528164
-0.000275949
0.00156311
-0.00175548
-5.72887e-05
0.000339939
0.000133935
-0.00169123
-0.00256842
0.00165819
-1.07748e-06
9.93618e-07
2.48025e-07
-1.3255e-06
-0.000169239
-0.00287239
0.00217984
-0.00251266
-0.000118298
0.00246172
8.50388e-05
-0.00263393
3.62376e-05
-0.000406683
0.00191066
0.000435326
-0.00193931
0.00204304
0.000439245
-0.00288897
0.00190218
0.00205153
-3.37972e-06
1.875e-06
4.77755e-05
-4.16636e-06
7.86644e-07
-2.29136e-06
-6.34734e-06
5.52755e-06
-6.37151e-05
1.57373e-06
-7.92107e-06
7.10129e-06
-4.75546e-05
2.29848e-05
-0.00028397
2.45133e-05
-7.2068e-05
4.74981e-05
5.37433e-05
-5.41988e-06
-0.000174869
-1.70907e-05
7.0834e-05
-2.25106e-05
0.00128406
0.00327362
-0.00422259
0.00148225
-0.00453835
0.00434017
0.00463257
0.000123293
-0.00118677
-0.00244562
0.0011626
0.00246979
-0.000707465
0.00272065
-0.00319996
0.000161771
-0.00331486
0.00408524
-0.0041237
-1.30381e-05
5.14933e-05
0.00408362
3.67812e-05
-3.51579e-05
-2.56767e-05
-0.00411733
1.93096e-05
0.00411431
-1.45623e-06
-2.92308e-05
0.00418754
5.96071e-05
-0.000132844
2.9163e-05
0.00429191
-0.000133529
0.00424031
-0.00421517
4.02216e-06
-0.000199869
0.00449238
-6.03757e-07
0.00412237
-8.19311e-05
-0.00408602
-6.95434e-05
-0.00407186
-1.56115e-05
-0.00406607
3.09884e-05
-0.00415316
7.40526e-05
-0.00408508
-9.37555e-05
-0.000193845
0.00468709
-8.63275e-07
0.00392981
-1.2818e-06
-2.05084e-05
-0.00408248
-1.43402e-05
-0.00411813
1.25415e-05
-2.90683e-05
-0.00431788
0.000264462
-3.74379e-07
0.00468791
-4.48347e-07
0.00393113
-1.6948e-06
-0.00426899
0.000121793
0.00468882
-1.82845e-07
-7.23659e-07
-3.0603e-07
0.00468944
-3.12148e-07
0.00393209
-1.14823e-06
0.00393336
-1.57378e-06
-2.45502e-05
-0.00429142
-1.90989e-06
-0.00429139
-2.15077e-06
-4.5199e-08
0.00469009
-6.05433e-07
0.00393434
-1.02186e-06
-3.46926e-07
-0.00428929
-1.78352e-06
-0.00428904
-2.70205e-06
-4.3088e-08
0.00469033
-1.95711e-07
0.00393575
-1.45921e-06
-2.08841e-07
-0.00428684
-2.24086e-06
-0.00428685
-2.39449e-06
4.48336e-07
0.00469038
-5.02244e-07
0.00393711
-9.07707e-07
-3.08373e-07
-0.00428441
-2.12194e-06
-0.00428421
-2.94913e-06
9.31856e-07
0.00468954
-9.43093e-08
0.0039394
-1.35766e-06
-1.42964e-07
-0.00428168
-2.58156e-06
-0.00428168
-2.66809e-06
2.39934e-06
0.00468756
-4.12732e-07
0.0039426
-8.00095e-07
9.70785e-06
-0.0042889
-2.48655e-06
-0.00426874
-3.23664e-06
4.80986e-06
0.00468275
-6.81376e-09
0.00394866
-1.25847e-06
2.7775e-05
-0.00416576
-0.000150921
-0.00419375
-4.72151e-05
1.01318e-05
0.00467296
-3.32439e-07
0.00394122
1.7578e-05
2.75425e-05
-0.00418363
-9.66611e-06
-0.00416044
-5.77116e-06
2.01649e-05
0.0046527
8.6229e-08
0.00391391
4.74735e-05
5.93928e-05
-0.00403433
-0.000208691
-0.00403846
-6.2582e-05
0.000199202
0.00445375
-2.50532e-07
0.0040333
7.98132e-05
6.84429e-05
-0.0040143
-8.84737e-05
-0.0039924
2.23787e-05
0.000175872
0.00412568
0.000152199
0.0041001
0.000109073
0.000109204
-0.00015592
-0.00396759
-0.0039748
9.16089e-05
1.20261e-05
3.98282e-05
0.00407383
0.0040737
3.84206e-05
-0.00402893
0.00409414
-0.000153683
-0.00404974
-0.000135102
0.000186533
-0.000164246
-0.00398988
9.21899e-05
-0.00388046
-0.00400822
0.004045
-4.64517e-05
-0.000122773
-0.00389993
0.00390268
-5.2304e-06
-5.84912e-06
-0.00390526
0.0039077
-4.56977e-06
-5.16089e-06
-0.00391001
0.0039122
-3.97558e-06
-4.54425e-06
-0.00391428
0.0041822
-3.45681e-06
-3.99069e-06
-0.00417136
0.00411503
7.56405e-05
-3.50276e-06
-0.00424823
0.00421563
-2.5603e-06
-8.17058e-05
-0.00408129
0.00402224
-7.37936e-05
0.000105114
-0.00392726
0.00392853
-1.8673e-06
-3.85553e-05
-0.00392972
0.00393085
-1.58381e-06
-2.05478e-06
-0.00393193
0.00393295
-1.33481e-06
-1.79704e-06
-0.00393392
0.00393484
-1.117e-06
-1.57263e-06
-0.00393571
0.00393654
-9.24969e-07
-1.37609e-06
-0.00393733
0.00393808
-7.53787e-07
-1.203e-06
-0.00393879
0.00393947
-5.92942e-07
-1.04597e-06
-0.0039168
0.00400931
5.96969e-05
2.24179e-05
0.00399957
4.9566e-05
-2.47356e-05
7.88376e-05
0.00401973
-3.85349e-06
0.00405282
0.00402448
-0.00395781
1.31505e-05
-0.00406395
0.00405556
4.68126e-05
6.9599e-05
0.00395705
-0.00393806
-1.41293e-06
4.67096e-05
0.00393731
-0.00393652
-1.59362e-06
-2.00599e-06
0.00393569
-0.00393481
-1.78663e-06
-2.18495e-06
0.00393389
-0.00393292
-1.99763e-06
-2.37789e-06
0.0039319
-0.00393082
-2.23026e-06
-2.59163e-06
0.00392969
-0.00392848
-2.48484e-06
-2.82612e-06
0.00400733
-0.00400054
-2.76964e-06
-3.08349e-06
0.00406671
-0.00402169
-6.06327e-05
-3.37118e-06
0.00399435
-0.0039671
4.68019e-05
3.64842e-06
0.00401563
-0.00404048
3.73909e-05
-4.52234e-05
0.00391425
-0.00391218
-4.2253e-06
-4.43425e-06
0.00391
-0.00390768
-4.71454e-06
-4.88019e-06
0.00390524
-0.00390264
-5.26823e-06
-5.38965e-06
0.00389991
-0.00394122
-5.89809e-06
-5.97034e-06
0.00394036
-0.00399633
-6.6127e-06
-6.6301e-06
0.00396657
-0.0039072
3.22388e-05
-7.3865e-06
-0.00386278
4.77771e-05
-0.00407896
-0.00013503
0.00401218
6.62271e-05
-2.67311e-07
0.00405197
0.000145325
-0.000132721
-0.00389306
0.000113459
-0.00383092
0.000138437
-0.000131396
-0.004086
-0.00398416
-0.00400575
0.00394262
-9.05586e-05
0.00404966
-0.00408169
-0.000103001
-9.11893e-05
-0.00389448
0.00389737
-4.93455e-05
-7.46264e-05
-0.00390026
0.00390299
-7.96131e-06
-8.73525e-06
-0.00390555
0.00390799
-7.00366e-06
-7.7261e-06
-0.00391028
0.00391245
-6.15143e-06
-6.83338e-06
-0.0039145
0.00391644
-5.3953e-06
-6.03982e-06
-0.00391827
0.00399864
-4.72735e-06
-5.33792e-06
-0.00392165
0.00392321
-4.12555e-06
-4.71259e-06
-0.00403249
0.00396229
-3.59318e-06
-4.16757e-06
-0.00392741
0.00392867
-3.12694e-06
-3.66707e-06
-0.00392985
0.00393098
-2.7152e-06
-3.24157e-06
-0.00393205
0.00393307
-2.35335e-06
-2.86393e-06
-0.00393403
0.00393495
-2.03506e-06
-2.5335e-06
-0.00393581
0.00393664
-1.7534e-06
-2.24266e-06
-0.00393743
0.00393817
-1.50178e-06
-1.98521e-06
-0.00393888
0.00393956
-1.26983e-06
-1.75323e-06
-0.0039399
0.00397216
2.74303e-05
2.20796e-05
9.35481e-06
-1.805e-05
0.00402842
1.96904e-06
0.00401956
-0.0039606
0.00400012
2.67126e-05
6.11267e-05
0.00400218
-0.00400283
4.74638e-05
0.00397024
3.16722e-05
-1.80709e-06
4.65376e-05
0.00400724
0.00403296
0.00400314
-0.00397355
-1.64396e-05
6.99067e-05
0.00393885
-0.00393813
-2.12927e-06
1.20105e-05
0.00393739
-0.0039366
-2.3834e-06
-2.75153e-06
0.00393577
-0.0039349
-2.66019e-06
-3.00749e-06
0.00393399
-0.00393302
-2.96599e-06
-3.28946e-06
0.00393201
-0.00393094
-3.30441e-06
-3.60259e-06
0.00392981
-0.00392862
-3.67755e-06
-3.94894e-06
0.00392737
-0.00392605
-4.09363e-06
-4.33326e-06
0.00392466
-0.00398074
-4.55134e-06
-4.75997e-06
0.00397185
-0.00391999
-5.0645e-06
-5.23635e-06
0.00395945
-0.00391641
-5.6421e-06
-5.76452e-06
0.00391448
-0.00391242
-6.28686e-06
-6.36688e-06
0.00391025
-0.00390795
-7.02007e-06
-7.04532e-06
0.00390552
-0.00390294
-7.85199e-06
-7.81513e-06
0.00390022
-0.00389732
-8.79787e-06
-8.69091e-06
0.00389426
-0.003891
-9.87255e-06
-9.68676e-06
0.00388757
-0.00384423
-1.10945e-05
-1.08233e-05
0.00381891
-0.00376331
5.78566e-05
2.24569e-05
-0.00410827
-0.000104819
9.94568e-05
-0.000160909
-0.00376946
-0.00373643
7.25762e-05
-0.000220616
-0.00383336
2.55583e-05
0.00397653
0.0039765
4.02793e-05
-6.63958e-05
8.89295e-05
-0.00410853
-6.54664e-05
-0.00410919
7.34418e-05
-0.000159017
-0.00368389
4.62054e-05
-0.00370919
-0.00411585
0.00401035
-0.00399826
1.4626e-05
0.00396954
6.63711e-05
7.03446e-05
-3.01317e-05
0.00396703
4.56382e-05
0.0040012
-0.00406214
0.00410854
-0.000111872
-0.000120872
9.85103e-05
-0.00408683
0.00415008
-7.88422e-05
0.000318895
-0.00439014
-3.29254e-05
-0.00410587
0.00407547
-7.25952e-05
-0.00010215
-0.00402474
0.00396269
-2.85068e-05
-4.04601e-05
-0.00393516
0.0038979
-1.20894e-05
-4.70999e-05
-0.00390076
0.00390346
-1.0665e-05
-1.15877e-05
-0.003906
0.00390841
-9.4118e-06
-1.02645e-05
-0.00391067
0.00391282
-8.30292e-06
-9.09774e-06
-0.00391485
0.00391677
-7.32002e-06
-8.06465e-06
-0.00391858
0.0039203
-6.44716e-06
-7.14947e-06
-0.00392193
0.00392347
-5.67133e-06
-6.33748e-06
-0.00392492
0.00392632
-4.98382e-06
-5.61813e-06
-0.00392763
0.00392887
-4.37494e-06
-4.97838e-06
-0.00393005
0.00393117
-3.8377e-06
-4.41768e-06
-0.00393223
0.00393324
-3.36365e-06
-3.92189e-06
-0.00393419
0.0039351
-2.94552e-06
-3.48602e-06
-0.00393596
0.00393679
-2.57506e-06
-3.10149e-06
-0.00393756
0.0039383
-2.24446e-06
-2.76058e-06
-0.003939
0.00393968
-1.94347e-06
-2.4549e-06
-0.00395118
0.00395836
2.02494e-05
1.05758e-05
2.12252e-05
2.60944e-05
-9.62358e-06
0.00401195
-4.20621e-05
1.13124e-05
0.00400728
0.0040036
0.00399321
0.00399106
-0.00398647
4.28719e-05
-0.00398565
0.00396423
6.16973e-05
3.70862e-05
0.00394026
-0.00395415
-2.54741e-06
2.37e-05
0.00393895
-0.00393824
-2.8407e-06
-3.19198e-06
0.0039375
-0.00393672
-3.16593e-06
-3.48949e-06
0.00393591
-0.00393504
-3.52551e-06
-3.82239e-06
0.00393414
-0.00393318
-3.92465e-06
-4.19197e-06
0.00393218
-0.00393112
-4.3677e-06
-4.60325e-06
0.00393
-0.00392882
-4.85893e-06
-5.0601e-06
0.00392759
-0.00392627
-5.40642e-06
-5.56847e-06
0.0039249
-0.00392344
-6.01545e-06
-6.13541e-06
0.0039219
-0.00392027
-6.6965e-06
-6.76933e-06
0.00391855
-0.00391673
-7.46318e-06
-7.47995e-06
0.00391482
-0.00391278
-8.32613e-06
-8.28233e-06
0.00391064
-0.00390835
-9.30269e-06
-9.1887e-06
0.00390595
-0.00390339
-1.04099e-05
-1.02164e-05
0.0039007
-0.00389783
-1.16674e-05
-1.1384e-05
0.00389481
-0.00389158
-1.30965e-05
-1.27114e-05
0.00388818
-0.00388455
-1.4724e-05
-1.42233e-05
0.00384615
-0.0037717
-1.659e-05
-1.59486e-05
0.00372712
-0.00373164
5.07309e-05
2.79929e-05
6.09315e-05
-6.26898e-05
-0.00370744
-0.00371035
3.9638e-05
0.000123374
-0.0041334
-9.69865e-05
-0.00389539
3.86402e-05
0.00394221
0.00397813
3.17366e-05
0.000149502
-0.00431518
6.30554e-06
-0.00375288
0.000853421
-0.00346152
0.00451027
-5.64417e-05
3.04437e-05
-0.00368435
-9.52569e-05
-0.00366862
-0.00273435
0.00416387
0.000622006
-0.00213048
-0.00016855
-0.00408946
-0.0039501
0.00411851
0.000150482
0.00033391
-0.000120136
-0.00408023
0.00404475
-7.63934e-05
5.36147e-06
-0.00401317
0.00395998
-1.94043e-05
-7.05688e-05
-0.00393791
0.0039265
-1.70897e-05
-1.83982e-05
-0.00389565
0.00389864
-1.50762e-05
-1.62532e-05
-0.00390144
0.0039041
-1.33231e-05
-1.43915e-05
-0.0039066
0.00390897
-1.17826e-05
-1.27623e-05
-0.0039112
0.00391332
-1.04221e-05
-1.13277e-05
-0.00391531
0.00391721
-9.21702e-06
-1.00594e-05
-0.00391899
0.00392069
-8.14707e-06
-8.93551e-06
-0.0039223
0.00392382
-7.19693e-06
-7.93848e-06
-0.00392526
0.00392663
-6.35395e-06
-7.05482e-06
-0.00392792
0.00392915
-5.60727e-06
-6.27075e-06
-0.00393031
0.00393142
-4.94643e-06
-5.57908e-06
-0.00393247
0.00393347
-4.36207e-06
-4.96717e-06
-0.00393441
0.00393531
-3.84528e-06
-4.42733e-06
-0.00393616
0.00393697
-3.38706e-06
-3.9502e-06
-0.00393773
0.00393847
-2.97853e-06
-3.52692e-06
-0.00393916
0.00393983
-2.61053e-06
-3.1487e-06
-0.00395321
0.00397575
-2.28147e-06
-2.80951e-06
-0.00396662
0.00396464
1.66083e-05
3.03515e-05
-0.00398058
0.00397642
4.27975e-05
5.04308e-05
5.50578e-05
-3.07221e-05
0.00398294
-3.36726e-05
6.85295e-06
0.00400324
0.0039636
3.88884e-05
1.57365e-05
0.00395733
0.00401176
-2.67883e-05
1.80318e-05
0.00397578
0.00398216
-2.23655e-05
2.20934e-06
0.00399829
0.00399687
0.0040009
-0.0039865
4.72949e-05
-0.00406299
0.00395488
0.000110326
-3.03532e-05
0.00397629
-0.00396761
3.41919e-05
2.68752e-05
0.00394039
-0.00393975
-3.18559e-06
-3.52348e-06
0.00393909
-0.00393839
-3.54232e-06
-3.85195e-06
0.00393766
-0.00393689
-3.93868e-06
-4.21814e-06
0.00393608
-0.00393523
-4.37988e-06
-4.62706e-06
0.00393434
-0.00393339
-4.87078e-06
-5.08281e-06
0.0039324
-0.00393135
-5.41705e-06
-5.59083e-06
0.00393026
-0.00392909
-6.02472e-06
-6.15667e-06
0.00392787
-0.00392657
-6.70269e-06
-6.78775e-06
0.00392522
-0.00392377
-7.45963e-06
-7.49311e-06
0.00392226
-0.00392065
-8.30802e-06
-8.28325e-06
0.00391896
-0.00391716
-9.26228e-06
-9.17061e-06
0.00391527
-0.00391326
-1.03379e-05
-1.01719e-05
0.00391114
-0.00390889
-1.1554e-05
-1.13029e-05
0.00390652
-0.003904
-1.29317e-05
-1.25842e-05
0.00390135
-0.00389852
-1.44949e-05
-1.40383e-05
0.00389554
-0.00389237
-1.62714e-05
-1.56906e-05
0.00388902
-0.00388545
-1.82951e-05
-1.75719e-05
0.00388167
-0.00387765
-2.06113e-05
-1.97197e-05
0.00382748
-0.00375347
-2.32767e-05
-2.2184e-05
0.00375337
-0.00373617
1.3249e-05
3.9537e-05
3.8522e-05
-3.87608e-05
-0.00368411
-0.00370713
9.4755e-06
0.000119474
-0.00410337
-2.92522e-05
-0.00385983
0.00030726
-0.00376902
6.74431e-06
-0.00385489
0.00397794
-0.00398349
4.83505e-05
0.0039643
2.04929e-05
4.85372e-05
-3.28774e-05
0.00398263
1.15402e-05
0.00399187
0.000298977
-0.00332125
1.29501e-05
-0.00372033
-0.00198623
-0.00208355
-0.00324253
0.00372938
0.000135152
6.68747e-05
-4.46179e-05
-0.00370637
3.8214e-05
-0.00367847
-0.0030136
-0.000397477
-0.00399924
-0.0038927
0.00394603
9.71547e-05
0.000170591
-0.0039794
0.00392915
-2.61416e-05
-2.80119e-05
-0.00388328
0.00388691
-2.30373e-05
-2.46954e-05
-0.00389034
0.00389359
-2.03411e-05
-2.18223e-05
-0.00389665
0.00389956
-1.7985e-05
-1.93178e-05
-0.0039023
0.0039049
-1.59214e-05
-1.71285e-05
-0.00390734
0.00390966
-1.41052e-05
-1.5207e-05
-0.00391185
0.00391393
-1.25008e-05
-1.35138e-05
-0.00391589
0.00391775
-1.10797e-05
-1.20169e-05
-0.0039195
0.00392117
-9.81791e-06
-1.06902e-05
-0.00392275
0.00392425
-8.69726e-06
-9.51281e-06
-0.00392566
0.00392701
-7.70223e-06
-8.46848e-06
-0.00392828
0.00392949
-6.81995e-06
-7.54198e-06
-0.00393064
0.00393173
-6.03793e-06
-6.72224e-06
-0.00393276
0.00393374
-5.34515e-06
-5.99634e-06
-0.00393467
0.00393555
-4.73155e-06
-5.3544e-06
-0.00393639
0.00393719
-4.18681e-06
-4.78614e-06
-0.00393794
0.00393867
-3.70165e-06
-4.28173e-06
-0.00393935
0.00394001
-3.26708e-06
-3.83194e-06
-0.00394063
0.00394122
-2.87636e-06
-3.42923e-06
-0.00397464
0.0039613
2.99555e-05
-3.06947e-06
2.82365e-05
4.2122e-05
-6.77374e-05
0.00400856
-1.70138e-05
2.96005e-05
0.00399065
0.0039887
-1.80269e-08
-4.43082e-07
0.00395779
0.00394401
-3.77425e-05
5.62119e-05
0.00395732
0.00394397
0.00402021
0.00400323
-0.00399107
3.51359e-05
-0.00395378
0.00399416
6.99467e-05
1.90969e-05
0.00397876
-0.00394113
-3.44182e-06
1.45653e-05
0.00394054
-0.00393991
-3.81392e-06
-4.11586e-06
0.00393926
-0.00393857
-4.23215e-06
-4.50283e-06
0.00393785
-0.00393709
-4.69933e-06
-4.93526e-06
0.0039363
-0.00393546
-5.2206e-06
-5.41908e-06
0.00393458
-0.00393365
-5.8018e-06
-5.9594e-06
0.00393268
-0.00393165
-6.4494e-06
-6.5625e-06
0.00393057
-0.00392942
-7.17153e-06
-7.23549e-06
0.00392822
-0.00392695
-7.97811e-06
-7.98733e-06
0.00392561
-0.00392419
-8.88041e-06
-8.82874e-06
0.0039227
-0.00392112
-9.89269e-06
-9.77237e-06
0.00391945
-0.00391768
-1.10314e-05
-1.08331e-05
0.00391583
-0.00391385
-1.2315e-05
-1.20293e-05
0.00391177
-0.00390956
-1.37655e-05
-1.33802e-05
0.00390724
-0.00390476
-1.54072e-05
-1.49094e-05
0.00390216
-0.00389938
-1.72688e-05
-1.66431e-05
0.00389646
-0.00389335
-1.93833e-05
-1.86119e-05
0.00389007
-0.00388657
-2.17907e-05
-2.08521e-05
0.00388288
-0.00387895
-2.45409e-05
-2.3408e-05
0.00387481
-0.00387039
-2.76947e-05
-2.63336e-05
0.00380115
-0.00375659
-3.13143e-05
-2.96966e-05
0.00371354
-0.00368047
5.14554e-06
-3.35729e-05
7.90941e-05
-4.67308e-05
-0.00371083
-0.00365528
5.39049e-05
8.90343e-05
-0.00388515
1.23736e-06
-0.00385432
4.75372e-05
0.00394636
0.00397946
2.62439e-05
0.00017764
-0.00364768
-0.000478536
-0.00439666
-6.66095e-05
-0.00373318
7.19097e-06
-0.00384913
1.38027e-05
-0.00377875
-0.00433299
-0.000764163
0.000165442
-0.000466603
-0.00403183
-0.000307677
-0.00392354
-4.4205e-05
-0.0037089
3.84606e-05
-0.000101126
-0.00364816
7.63371e-05
-0.00369316
-0.00390897
-0.00353937
0.00370017
-2.56478e-05
0.0037191
-0.00409214
-0.000391116
-0.000217753
-0.00381697
0.0038733
4.08231e-05
5.37922e-05
-0.00387735
0.00388123
-3.00176e-05
-3.206e-05
-0.0038849
0.0038884
-2.65399e-05
-2.83714e-05
-0.00389171
0.00389486
-2.34885e-05
-2.51304e-05
-0.00389783
0.00390065
-2.08081e-05
-2.22864e-05
-0.00390331
0.00390584
-1.84503e-05
-1.97885e-05
-0.00390822
0.00391049
-1.63706e-05
-1.75892e-05
-0.00391262
0.00391465
-1.45317e-05
-1.5648e-05
-0.00391657
0.00391839
-1.29016e-05
-1.39304e-05
-0.00392011
0.00392174
-1.14539e-05
-1.24073e-05
-0.00392328
0.00392475
-1.01673e-05
-1.1055e-05
-0.00392614
0.00392746
-9.02427e-06
-9.85431e-06
-0.00392871
0.0039299
-8.00943e-06
-8.78852e-06
-0.00393102
0.00393209
-7.10892e-06
-7.84375e-06
-0.0039331
0.00393406
-6.31004e-06
-7.00626e-06
-0.00393497
0.00393584
-5.60144e-06
-6.26437e-06
-0.00393667
0.00393745
-4.97202e-06
-5.60676e-06
-0.00393819
0.0039389
-4.41139e-06
-5.02269e-06
-0.00393957
0.00394021
-3.91028e-06
-4.50234e-06
-0.00394082
0.00394141
-3.46164e-06
-4.03744e-06
-0.00394196
0.00397497
-3.05785e-06
-3.62081e-06
-0.00397832
0.00398791
3.87603e-05
2.48932e-05
-0.00393495
0.00395205
3.04416e-05
7.34478e-05
6.59896e-05
-4.8742e-05
0.00397341
-1.35966e-05
-9.3891e-06
0.00397503
0.00399875
4.9191e-05
4.3508e-07
0.00395893
0.00398915
1.64775e-09
-4.4464e-07
0.00395823
0.00394444
8.83747e-07
-1.32614e-06
0.00395776
0.00394441
-2.78784e-05
2.18579e-05
0.00398865
0.003991
-1.50469e-05
2.00265e-05
0.00397448
0.00399868
0.00400753
-0.00396202
2.44343e-05
-0.00398927
0.00396613
4.31667e-05
4.45065e-05
0.00396968
-0.00396073
2.61824e-05
2.67547e-05
0.00394186
-0.0039413
-4.00061e-06
-4.30296e-06
0.00394072
-0.0039401
-4.42908e-06
-4.69756e-06
0.00393946
-0.00393879
-4.90877e-06
-5.14121e-06
0.00393808
-0.00393734
-5.44561e-06
-5.63881e-06
0.00393656
-0.00393574
-6.04536e-06
-6.1961e-06
0.00393488
-0.00393396
-6.71487e-06
-6.81921e-06
0.00393301
-0.003932
-7.46193e-06
-7.51546e-06
0.00393094
-0.00392981
-8.29596e-06
-8.29341e-06
0.00392864
-0.00392739
-9.22866e-06
-9.1635e-06
0.00392608
-0.00392469
-1.02732e-05
-1.01381e-05
0.00392323
-0.00392167
-1.14455e-05
-1.12319e-05
0.00392004
-0.00391831
-1.27642e-05
-1.24619e-05
0.00391649
-0.00391456
-1.42507e-05
-1.38482e-05
0.00391252
-0.00391036
-1.5929e-05
-1.54134e-05
0.00390809
-0.00390567
-1.78275e-05
-1.71835e-05
0.00390312
-0.00390041
-1.99782e-05
-1.91886e-05
0.00389756
-0.00389452
-2.24193e-05
-2.14637e-05
0.00389133
-0.00388792
-2.51961e-05
-2.40502e-05
0.00388433
-0.00388051
-2.83636e-05
-2.6998e-05
0.00387647
-0.00387218
-3.19874e-05
-3.03666e-05
0.00386765
-0.00386282
-3.61433e-05
-3.42273e-05
0.00385772
-0.00381164
-4.09349e-05
-3.86705e-05
0.00376642
-0.00369383
3.74581e-06
8.68018e-06
2.04936e-05
-5.85874e-05
-0.00365507
-0.00368817
1.48381e-05
5.93922e-05
-0.0037669
-0.00414417
-0.000414572
2.67061e-05
-0.00374099
0.00400307
-0.00401274
4.01141e-05
0.00399981
-6.13206e-06
4.13661e-05
-3.53408e-05
0.00396845
5.17196e-05
0.00395578
1.34954e-06
-0.00384848
7.6734e-06
-0.003843
-0.000104986
-0.00393587
1.46856e-05
-0.00383764
2.24739e-05
-0.0038325
3.11109e-05
-0.00373786
3.80389e-05
-8.33725e-06
-0.00368477
-1.04913e-05
-0.00363964
-0.00384822
-0.00400432
0.00381785
-0.00020465
-0.000345624
0.0004621
-0.00426065
0.00417136
-0.00433556
-0.000181424
-0.000247533
-0.00368476
0.00375243
-9.33137e-05
-8.46623e-05
-0.0038301
0.00387541
-4.48823e-06
-2.38791e-05
-0.00387935
0.00388311
-3.37727e-05
-3.6004e-05
-0.00388666
0.00389005
-2.99238e-05
-3.1923e-05
-0.00389324
0.00389628
-2.65312e-05
-2.83265e-05
-0.00389916
0.00390189
-2.3541e-05
-2.51581e-05
-0.00390447
0.00390692
-2.09033e-05
-2.23661e-05
-0.00390923
0.00391143
-1.85722e-05
-1.99021e-05
-0.00391351
0.00391549
-1.65082e-05
-1.77237e-05
-0.00391735
0.00391912
-1.46769e-05
-1.5794e-05
-0.0039208
0.00392239
-1.30497e-05
-1.40815e-05
-0.0039239
0.00392534
-1.16027e-05
-1.256e-05
-0.00392669
0.00392798
-1.03158e-05
-1.12079e-05
-0.0039292
0.00393036
-9.17213e-06
-1.00066e-05
-0.00393146
0.00393251
-8.15614e-06
-8.94026e-06
-0.00393349
0.00393444
-7.2538e-06
-7.99394e-06
-0.00393533
0.00393618
-6.45249e-06
-7.15451e-06
-0.00393698
0.00393775
-5.74019e-06
-6.4096e-06
-0.00393847
0.00393917
-5.10573e-06
-5.74763e-06
-0.00393982
0.00394045
-4.53923e-06
-5.15808e-06
-0.00394105
0.00394162
-4.03251e-06
-4.63195e-06
-0.00394216
0.00394268
-3.57698e-06
-4.16142e-06
-0.00397131
0.00398594
2.41282e-05
-3.73996e-06
4.66501e-05
1.85135e-05
-4.33705e-05
0.00399826
-2.96034e-05
1.57961e-06
0.00400306
0.00398766
-8.11067e-07
3.92908e-07
0.00395935
0.00394497
2.62827e-08
-4.49859e-07
0.00395865
0.00394486
8.72216e-07
-1.29557e-06
0.00395818
0.00394483
-4.48241e-05
3.28923e-05
0.00400058
0.00394488
0.00399624
0.00400185
-0.00400405
2.66348e-05
-0.00399345
0.00397624
6.03711e-05
5.2908e-05
0.00397287
-0.00394256
-4.12311e-06
-4.42845e-06
0.00394204
-0.0039415
-4.54928e-06
-4.82065e-06
0.00394093
-0.00394033
-5.03029e-06
-5.2653e-06
0.0039397
-0.00393904
-5.57043e-06
-5.76536e-06
0.00393835
-0.00393762
-6.17535e-06
-6.32677e-06
0.00393686
-0.00393606
-6.85172e-06
-6.95586e-06
0.00393522
-0.00393432
-7.60743e-06
-7.65977e-06
0.00393339
-0.0039324
-8.45149e-06
-8.44695e-06
0.00393137
-0.00393027
-9.39484e-06
-9.3273e-06
0.00392912
-0.0039279
-1.04504e-05
-1.03127e-05
0.00392662
-0.00392526
-1.16334e-05
-1.14172e-05
0.00392383
-0.00392232
-1.29614e-05
-1.26571e-05
0.00392073
-0.00391904
-1.44552e-05
-1.40516e-05
0.00391726
-0.00391538
-1.61381e-05
-1.56226e-05
0.00391339
-0.00391129
-1.80372e-05
-1.73952e-05
0.00390907
-0.00390671
-2.01836e-05
-1.93984e-05
0.00390424
-0.0039016
-2.26132e-05
-2.16656e-05
0.00389883
-0.00389588
-2.53684e-05
-2.42356e-05
0.00389278
-0.00388947
-2.84993e-05
-2.71546e-05
0.00388599
-0.00388229
-3.20661e-05
-3.04774e-05
0.00387839
-0.00387424
-3.61404e-05
-3.42695e-05
0.00386985
-0.00386519
-4.08074e-05
-3.86091e-05
0.00386027
-0.00385503
-4.61717e-05
-4.35909e-05
0.00379703
-0.00374093
-5.23596e-05
-4.93195e-05
0.0037128
-0.00371268
-1.06096e-05
-1.32914e-05
-0.000234519
4.82381e-05
-0.00373726
-0.00380425
3.19864e-05
-2.6421e-06
-0.00366899
-0.0036478
-3.28894e-05
4.7173e-06
-0.00374491
4.53248e-05
0.00395607
0.00400987
1.80909e-05
0.000133706
-0.00429746
-0.000171804
1.49522e-06
-0.0038423
0.000244567
-0.00437151
-2.88279e-05
-0.00381715
8.17066e-06
-0.00383648
-3.2432e-05
-0.0038552
1.56279e-05
-0.0038308
2.39556e-05
-0.00382534
3.32235e-05
-0.00377942
2.70156e-06
-0.00369011
-2.84302e-06
-3.56326e-06
-0.00366258
-5.36141e-06
-0.00364529
-0.00384201
-0.00426473
0.00409541
-1.21054e-05
-0.000274268
-0.0042305
0.000207311
0.00438144
-0.00427343
-0.00038227
-5.50995e-05
-0.00398301
0.00389833
-0.000119967
-0.00013513
-0.00386448
0.00381885
-4.76769e-05
-5.08182e-05
-0.00383989
0.00387762
-4.22184e-05
-4.49284e-05
-0.00388147
0.00388511
-3.74179e-05
-3.98446e-05
-0.00388855
0.00389182
-3.31943e-05
-3.53612e-05
-0.00389491
0.00389784
-2.94693e-05
-3.14134e-05
-0.00390062
0.00390326
-2.61814e-05
-2.79314e-05
-0.00390575
0.00390812
-2.32759e-05
-2.48578e-05
-0.00391036
0.00391249
-2.07045e-05
-2.21408e-05
-0.0039145
0.00391642
-1.84249e-05
-1.97354e-05
-0.00391823
0.00391995
-1.64006e-05
-1.76023e-05
-0.00392158
0.00392313
-1.46006e-05
-1.57077e-05
-0.00392459
0.00392599
-1.29988e-05
-1.40233e-05