/*--------------------------------*- C++ -*----------------------------------*\
  =========                 |
  \\      /  F ield         | OpenFOAM: The Open Source CFD Toolbox
   \\    /   O peration     | Website:  https://openfoam.org
    \\  /    A nd           | Version:  10
     \\/     M anipulation  |
\*---------------------------------------------------------------------------*/
FoamFile
{
    format      ascii;
    class       surfaceScalarField;
    location    "15.5";
    object      phi;
}
// * * * * * * * * * * * * * * * * * * * * * * * * * * * * * * * * * * * * * //

dimensions      [0 3 -1 0 0 0 0];

internalField   nonuniform List<scalar> 
12623
(
0.0954774
0.0229418
-0.03582
-0.0825992
0.074278
-0.0379727
0.0591721
0.0883352
-0.00186246
-0.0815949
-0.00487783
-0.00262774
0.0882014
0.00276148
-0.08765
0.00257583
-0.000425847
0.0855
-0.0867955
-0.00348218
-0.00125819
0.0431049
-0.0493049
0.00745815
-0.0491838
0.0479257
0.00183157
-0.00705288
0.00522131
0.0012264
-0.00762112
0.00822629
0.0942379
-0.0411153
-0.0531226
-0.0616241
0.0516937
0.104168
-0.0289568
-0.0189396
0.0214901
0.0264063
0.00330027
0.00562598
-0.037883
-0.0248754
0.00923605
0.00654341
-0.00235323
-0.00832515
0.00413496
-0.00275573
-0.00542901
0.0147282
-0.00482521
-0.000283744
-0.00132325
-0.0134292
0.00207241
0.01268
-0.0266592
0.00607906
0.0192569
-0.0230552
-0.0170332
0.000518973
0.0081639
-0.00861013
-7.27337e-05
0.000998893
-0.0032686
0.00278868
-0.0131689
0.0223316
-0.0446815
0.00518099
0.0451265
0.0072479
-0.0505283
-0.00140113
-0.0563304
0.00528584
0.0562256
-0.0833911
-0.0155055
0.0151602
0.0837365
-0.0828741
0.0184156
-0.0189327
-0.088982
0.0874835
0.014123
-0.0126244
-0.0864888
-0.0179988
-0.088822
0.00722899
-0.00363286
0.0852259
-0.00416007
-0.0865149
0.00185294
0.0866172
-0.0892393
0.00612041
-0.00437099
0.0874898
-0.00571147
-0.0872705
0.00374266
-0.0913576
-0.00279434
0.0884405
-0.0871999
0.00307132
0.0871726
-0.0095057
-0.0917977
0.0141308
-0.00522177
0.0153474
0.0770469
-0.088988
-0.00691018
0.0863924
-0.0882536
0.00538608
-0.0114939
0.0120951
0.0868823
-0.0887636
0.00238578
-0.000843116
0.0872209
-0.00117986
-0.0869775
-0.000606259
-0.00215344
-0.0865046
-0.0869786
-0.000628905
0.0841254
-0.0867463
-0.00915241
-0.070383
0.00550531
0.0740301
0.0549449
0.00896185
-0.0730591
-0.0573897
0.0189671
0.0933675
-0.0215486
0.0877334
-0.07208
0.00589521
-0.0699765
0.0737229
0.01629
-0.0146238
-0.0753891
0.0191956
0.0717608
-0.0172334
-0.0106743
0.00714448
0.0808204
-0.0772906
-0.0830734
0.0828072
-0.0104081
0.0826342
-0.00670032
0.00754835
-0.0834822
0.0685287
-0.0638418
0.0122306
-0.0169175
0.0193928
0.0727705
-0.0236346
-0.0586821
0.0030633
-0.00822303
-0.0534808
-0.00703407
0.00183277
-0.049002
-0.0174547
0.0129759
-0.0471271
-0.0263846
0.0245098
-0.0467264
-0.0329436
0.0325429
-0.0500259
-0.035853
0.0391524
-0.053468
-0.0366502
0.0400924
-0.037284
-0.0566597
0.0404756
0.0678207
-0.0631358
0.0147079
0.0242187
0.0767178
-0.028166
0.0722593
0.0197802
-0.0586131
0.00770794
-0.0540515
-0.00149827
-0.0498832
-0.0112025
-0.0479864
-0.0193515
-0.0478081
-0.0265629
-0.0509581
-0.0297936
-0.0548949
-0.0319161
-0.0594085
-0.0321367
-0.0615011
-0.0351914
-0.0251455
0.0749456
0.0224592
0.0793779
-0.0278057
-0.0395566
-0.0584638
0.0413608
-0.0635529
-0.0375048
-0.024613
0.0768585
0.0227
0.0822439
-0.027479
-0.0422388
-0.0587964
0.0425713
-0.0634121
-0.0423795
-0.0222187
0.0782196
0.0208576
-0.0228488
-0.0444259
-0.0575601
0.0431897
-0.0644246
-0.0434135
0.0791717
0.0174635
0.0146052
0.0797267
-0.0450833
0.0431571
-0.0556339
-0.0447984
-0.0647095
0.0722805
-0.0723908
0.0209679
-0.0690741
0.0707774
0.012902
0.0206699
0.0707577
-0.0673392
0.0190407
0.021067
0.0631528
-0.0587411
0.0102962
0.0155937
0.0547734
-0.0510871
-0.0051845
0.00374023
0.0495914
-0.0493452
-0.0195978
-0.0126981
0.0525294
-0.0565057
-0.0258173
-0.0233787
0.0620741
-0.0649699
-0.0292409
-0.0263477
0.0674273
-0.0683554
-0.0365767
-0.032734
0.0707462
-0.071349
-0.0428107
-0.0399887
-0.0719561
-0.0441913
-0.0545239
0.0551752
0.04192
0.0537985
0.0407989
-0.0514403
0.0424644
-0.0523342
0.0498813
0.0429285
0.0442019
-0.0467978
0.0475302
0.0384201
0.0431758
-0.049264
0.05366
0.0201138
0.0308091
-0.059394
0.0645029
-0.00327614
0.00724188
-0.0717082
0.0746117
-0.019821
-0.0154283
-0.079873
0.0794407
-0.0277338
-0.0288959
-0.0826985
0.0830049
-0.0277853
-0.0310635
-0.0859985
-0.0194229
-0.0258425
-0.013765
0.0130139
0.0804778
0.0840944
0.0168396
0.0669517
0.0435668
-0.0709297
-0.0445931
0.0413513
-0.062494
-0.0490808
0.0520197
0.03786
0.0372816
-0.0400198
-0.0487022
-0.0456778
0.0338786
-0.0427304
0.039875
-0.0680744
-0.0782722
0.0777631
-0.0440841
-0.0437059
-0.0772966
0.09055
-0.0882605
-0.0149139
0.0659978
-0.0701023
0.0170065
0.0660624
0.016775
0.0886197
-0.00956358
-0.0543024
0.0682386
-0.0670609
0.0197902
0.0188063
0.0649778
-0.0619765
0.0160394
0.0189839
0.0590526
-0.0550323
0.0062759
0.0126698
0.0518422
-0.050364
-0.0066627
0.000550182
0.0505526
-0.0531589
-0.0169915
-0.0125096
0.0573205
-0.0622861
-0.0208517
-0.0192171
0.0659388
-0.0686559
-0.0265238
-0.022695
0.0705187
-0.0726483
-0.034447
-0.0308712
0.075085
-0.0771298
-0.0407658
-0.0375521
-0.043558
-0.0538598
0.0528749
0.0429049
0.0406243
-0.0518046
0.0495878
0.0451453
0.0452722
-0.0498936
0.0509002
0.0374135
0.04287
-0.0553647
0.0600264
0.0154521
0.0263446
-0.0651043
0.0715573
-0.00972912
0.00216405
-0.0744467
0.0806872
-0.0260615
-0.0183177
-0.0799718
0.0834626
-0.0312246
-0.0281805
-0.0822579
0.0825831
-0.0281106
-0.0298587
-0.0829076
0.0878444
-0.0243598
-0.0261669
-0.0184148
-0.0127309
0.0205371
0.0726716
0.0834586
-0.0187931
0.0643484
0.0205071
0.0686956
-0.0312463
0.0264348
-0.0408663
-0.0343535
-0.0455949
0.0369749
-0.0595939
-0.0860022
0.0838165
-0.0418984
-0.0864528
-0.0432554
0.0374053
-0.0397048
-0.0749971
0.033858
-0.0645272
-0.0382276
0.0423553
0.022307
0.0170674
-0.0203357
-0.037598
-0.0345146
0.0133544
-0.00672624
0.0123756
0.081233
0.0864649
-0.00457145
0.0165877
-0.0165085
0.0642692
0.0615132
-0.0613146
0.0203084
0.063007
0.0150939
-0.0896139
-0.0088323
0.0888826
-0.085964
-0.0185638
-0.051681
0.0628097
-0.0640362
0.018233
0.0182702
0.0644484
-0.063595
0.0189368
0.0192185
0.0615079
-0.0590982
0.0136297
0.0168968
0.0554981
-0.0534201
0.00419786
0.00906968
0.0515714
-0.0516149
-0.00661917
-0.00129852
0.0538468
-0.0575112
-0.0133271
-0.0102776
0.0621712
-0.0657802
-0.0172427
-0.0145571
0.0686633
-0.0704979
-0.0246892
-0.0198119
0.0736598
-0.0758218
-0.032285
-0.0277093
0.0789696
-0.0806921
-0.0390434
-0.0344043
-0.0404335
-0.0465666
0.0488506
0.035576
0.0296673
-0.0497446
0.0495961
0.0430533
0.0397304
-0.0504483
0.0496726
0.045921
0.04442
-0.0530098
0.0565431
0.0338803
0.0395328
-0.0614939
0.0673365
0.00960949
0.0213937
-0.072696
0.0776222
-0.0146554
-0.00319542
-0.081121
0.083517
-0.0284575
-0.0218165
-0.0846213
0.0848675
-0.0314708
-0.0292848
-0.0838067
0.0844647
-0.0287686
-0.028798
-0.0834364
0.082826
-0.0237493
-0.0251386
-0.0215528
-0.0147933
0.0160999
0.071365
0.0810409
0.068287
-0.0854183
-0.0407392
-0.0248455
-0.0410852
0.0294368
-0.0551727
-0.00522036
0.00256438
-0.0318586
-0.00919939
-0.0336189
0.0286946
-0.0327969
-0.0708948
0.024101
-0.0599336
0.0160433
-0.0163041
0.06453
0.0134871
0.0655632
-0.00558398
0.0115708
0.0752461
-0.00307546
0.0839563
0.0812302
-0.0827524
-0.0170416
-0.012775
0.0851729
0.062041
-0.0600407
0.0183082
0.0639497
0.0131852
-0.0829638
-0.0352514
0.0221498
-0.02702
-0.0780936
0.0169678
-0.0657129
0.0878721
-0.00356098
-0.0470897
0.060419
-0.0622655
0.0200795
0.0186484
0.0619661
-0.0608048
0.0177755
0.018919
0.0582749
-0.0562281
0.0115829
0.0143669
0.0543594
-0.0532837
0.0031222
0.00720089
0.0535765
-0.0556003
-0.00459539
-0.00100571
0.0589598
-0.0630544
-0.00923248
-0.00691814
0.0664898
-0.0689814
-0.0147511
-0.0111218
0.0707927
-0.0728737
-0.0226082
-0.0180006
0.0754293
-0.0783899
-0.0293244
-0.0251537
0.081395
-0.084726
-0.0357125
-0.0313991
0.087717
-0.0906672
-0.0389482
-0.0374425
0.0927746
-0.0950828
-0.038431
-0.041148
0.0932728
-0.0919916
-0.0283011
-0.0370615
-0.0365275
0.039522
0.0193126
0.0336442
-0.032788
0.00170823
0.0104711
-0.042373
0.0449022
0.0330468
0.0268162
-0.0470276
0.0472177
0.0428632
0.037605
-0.0498386
0.0532442
0.0425154
0.0417991
-0.0577697
0.063649
0.0280009
0.0350073
-0.0697054
0.0759709
0.003344
0.0153374
-0.0811267
0.0852639
-0.0187926
-0.0083512
-0.0877181
0.0888721
-0.0296115
-0.0242707
-0.0888714
0.0880899
-0.0306892
-0.0292842
-0.0873005
0.0852458
-0.0267139
-0.0280085
-0.0843219
0.083046
-0.0224734
-0.0242148
-0.0212593
-0.0171888
0.0170527
0.0715011
0.0754229
0.0690356
-0.00830511
0.00726453
-0.030818
-0.0347755
-0.00631764
-0.014192
0.00932648
-0.0732281
-0.0875911
-0.0185926
-0.0135073
-0.0367773
0.0186632
-0.0497349
0.0119913
0.0654454
0.000567316
0.0842294
0.0831216
-0.0825945
-0.0175687
0.0834958
-0.0131492
0.00422509
-0.0305795
0.0111393
-0.054105
0.0169038
-0.0114012
-0.0402781
0.019155
-0.0330693
0.00315673
-0.0595431
-0.00338845
-0.00385115
-0.0659885
-0.0086285
-0.082351
0.0877353
-0.00612333
-0.0419337
0.0659806
-0.0635324
0.0158599
-0.0666432
0.0701867
0.00844784
0.0125226
0.0634182
-0.0620564
0.0187177
0.0185342
0.0607061
-0.0590904
0.0161597
0.0175688
0.0576409
-0.0564481
0.0103901
0.0129175
0.0560117
-0.0566741
0.00378465
0.00676442
0.0585293
-0.0615449
-0.00157978
0.000849519
0.064776
-0.0676524
-0.00635607
-0.00368705
0.0695891
-0.071096
-0.0132442
-0.00918511
0.0727088
-0.0748968
-0.0204202
-0.0163878
0.0773922
-0.0802362
-0.0264804
-0.0226583
0.0833072
-0.0869238
-0.0320959
-0.0283281
0.0910525
-0.093531
-0.0364697
-0.0333138
0.0984571
-0.0997848
-0.0371033
-0.0362218
0.102841
-0.10281
-0.0283314
-0.0340057
0.100421
-0.0961385
-0.0129114
-0.0209814
-0.0381135
0.0363952
0.00342655
0.0430338
-0.0505067
-0.00392825
-0.0013973
-0.0367504
0.0388262
0.0172368
0.0101158
-0.0416144
0.0432145
0.0314467
0.0240281
-0.0464011
0.0498377
0.0394266
0.0344184
-0.0540561
0.0596652
0.0369063
0.0375807
-0.0658503
0.0728763
0.020975
0.0288221
-0.0793461
0.0854024
-0.00271237
0.0088676
-0.0897449
0.0925905
-0.0216382
-0.0126937
-0.0936598
0.0933967
-0.0293484
-0.02534
-0.0922642
0.0905585
-0.0289835
-0.0281516
-0.0884174
0.0872046
-0.0255011
-0.0258675
-0.0855271
0.0840679
-0.0210142
-0.0225373
-0.0197859
-0.0136019
0.0220231
-0.0486994
-0.0578288
-0.0062798
0.00199361
-0.00968191
-0.0746627
-0.0900033
-0.00414166
0.0871227
-0.009605
-0.00377306
0.00603866
0.0819638
0.0825066
-0.0137456
0.0130278
0.0759639
0.0762494
-0.0158356
0.0173172
0.0700195
0.0726151
-0.0173202
0.0155115
0.0663387
0.0690327
-0.0125934
0.00907291
0.0689659
0.0684813
0.00539776
0.0738619
-0.000209742
-0.0323425
0.00536978
-0.0439654
0.0177036
-0.029128
-0.00335524
-0.0475931
0.0276895
-0.0387357
-0.0111441
-0.0522502
0.0150324
-0.00956582
-0.0632954
0.0232166
-0.0568836
-0.0173209
-0.0583495
-0.0114725
0.00443179
-0.0829626
-0.0201776
-0.0659576
0.075377
-0.0724524
0.0055233
0.0791615
0.00161322
-0.0367737
0.0697838
-0.0679346
0.0140107
0.00985402
0.0660966
-0.0647096
0.0173306
0.0166963
0.0628936
-0.0615235
0.0147897
0.0157527
0.0607656
-0.0606611
0.0102856
0.0121596
0.0614041
-0.06305
0.00543053
0.00750737
0.065211
-0.0675646
0.00077375
0.00301057
0.0694154
-0.0707642
-0.00500732
-0.00183618
0.0717565
-0.0729522
-0.0120485
-0.00819283
0.0745417
-0.0766202
-0.0183417
-0.0147983
0.0789188
-0.0816288
-0.0237704
-0.0203598
0.0846398
-0.0882064
-0.0285293
-0.0253171
0.0920748
-0.0964183
-0.0321262
-0.0294454
0.100729
-0.104811
-0.033021
-0.0319111
0.108424
-0.109471
-0.0272839
-0.0303933
0.108396
-0.10699
-0.0143173
-0.0220567
0.103661
-0.0994186
0.000189797
-0.00747122
-0.0604734
0.054936
0.00160913
0.0644152
-0.06701
-0.006971
-0.00233795
-0.049057
0.0447712
0.00771238
0.00448168
-0.0431432
0.0427597
0.0176203
0.0117438
-0.0447496
0.0476718
0.0285246
0.0220381
-0.051419
0.0564335
0.0344121
0.0306712
-0.0621852
0.0691661
0.0299255
0.031829
-0.0761915
0.0835066
0.0136599
0.0217967
-0.0896458
0.094676
-0.00774265
0.0027284
-0.0976054
0.09874
-0.0227729
-0.015623
-0.0982697
0.0966569
-0.0277356
-0.0248696
-0.0945779
0.0921893
-0.026595
-0.0260726
-0.0900043
0.0878802
-0.023377
-0.0236824
-0.0857144
0.0843367
-0.0196365
-0.0203716
-0.0826064
0.0812483
-0.0162106
-0.0180556
-0.0821
0.0831312
-0.0106362
-0.0140009
-0.00422134
-0.00684371
0.0110127
0.0777948
0.00181676
0.0847753
0.0774796
-0.0122615
0.0139858
0.0742396
0.0750006
-0.0157209
0.0152654
0.070475
0.07088
-0.0154058
0.0115754
0.0701691
0.0688923
-0.00929642
0.00440262
0.0738597
0.0707603
-0.0148796
0.0182648
-0.0666805
-0.069374
-0.0125157
0.01275
-0.0204912
-0.0752213
-0.093813
0.0071444
-0.00145536
-0.000916363
0.0815332
0.0768091
0.0143135
-0.0289524
-0.00935781
-0.0379628
0.0299068
-0.0313453
-0.0185425
-0.0401947
0.0321094
-0.0476285
-0.0257816
-0.0437895
0.0243396
-0.0629584
-0.02942
-0.0491071
0.0204155
-0.017345
-0.0724445
0.0239198
-0.0701848
-0.0295924
-0.0568564
-0.0180261
-0.0869896
0.0112027
-0.0273441
-0.0659034
-0.0755919
0.0724592
-0.0142124
-0.0210645
0.0249697
-0.0763497
-0.0786222
-0.0180342
0.0158562
-0.0228988
-0.079947
-0.102948
0.107071
0.00708022
-0.0980038
0.0109117
0.0871892
-0.08473
-0.00337557
-0.00630215
0.00256948
0.0852659
0.0846737
-0.00378659
-0.031818
0.0820375
-0.0810038
0.00448957
-0.00107929
0.0785279
-0.0763193
0.0118021
0.00737814
0.0734364
-0.0709856
0.0148799
0.0138133
0.0692597
-0.0681048
0.0136349
0.0140269
0.0676907
-0.0679273
0.0105222
0.0117454
0.0687074
-0.069847
0.00657017
0.00828747
0.0709497
-0.0718515
0.00167558
0.00411326
0.0724199
-0.0728981
-0.00452905
-0.00126784
0.0735536
-0.0746533
-0.0109487
-0.00753739
0.0761284
-0.078004
-0.0164661
-0.0133232
0.0801085
-0.082639
-0.0212399
-0.0182553
0.0854474
-0.0887639
-0.0252128
-0.0225088
0.092369
-0.0965157
-0.0279796
-0.0258402
0.100811
-0.105322
-0.0285095
-0.0276158
0.109344
-0.111879
-0.0247485
-0.0263718
0.113694
-0.113596
-0.0144153
-0.0202424
0.112112
-0.110547
-0.00137516
-0.00895483
0.00366811
-0.0703216
0.0693505
-0.00599998
-0.010378
-0.0677738
0.0652223
0.00416062
-0.000761217
-0.0618549
0.0577823
0.011785
0.00784908
-0.0552254
0.0541259
0.0187198
0.0143007
-0.0549473
0.0576171
0.0258548
0.0212167
-0.0616599
0.0673077
0.0287643
0.0266284
-0.0736278
0.0809202
0.022633
0.0255089
-0.0878114
0.094391
0.00708027
0.0149055
-0.0993332
0.102566
-0.0109751
-0.00221372
-0.103636
0.102945
-0.0220813
-0.0166936
-0.101099
0.0984674
-0.025104
-0.023024
-0.0957894
0.0930411
-0.0238467
-0.0233947
-0.0906701
0.0884444
-0.0211513
-0.0213114
-0.0866193
0.0851212
-0.0181384
-0.0185464
-0.0829474
0.0818629
-0.0151261
-0.0158818
-0.0809191
0.081514
-0.0112311
-0.0130572
-0.00921195
-0.00207284
0.00777654
0.0790716
0.0816267
-0.00839277
0.00950304
0.0766845
0.0768634
-0.0110879
0.0128595
0.072468
0.0734157
-0.0141514
0.0144594
0.070167
0.0695881
-0.0135109
0.011695
0.0719849
0.0698408
-0.0078199
0.00236758
0.079312
0.0746354
0.0817462
0.0285444
-0.02759
-0.0244945
-0.0320108
0.0384016
-0.0376375
-0.033026
-0.0329503
0.0330674
-0.0563563
-0.038295
-0.0349145
0.0281423
-0.0671809
-0.039599
-0.0391004
0.0296055
-0.0748206
-0.0368964
-0.0473041
0.0245867
-0.0203655
-0.0828433
0.0288011
-0.0805642
-0.0307073
-0.0580948
-0.0175604
-0.094125
0.0136815
-0.0237399
-0.0737674
-0.0835137
0.080553
-0.0174048
-0.0230692
0.0269506
-0.0867247
-0.0869788
-0.0196041
0.0149538
-0.0188717
-0.0902071
-0.10409
0.10788
0.00989175
-0.100522
0.011385
-0.0116809
0.00739437
0.0895524
-0.0142706
0.0872634
0.090502
-0.0903208
-0.00355673
0.091969
-0.00525358
-0.0277681
0.0891962
-0.0880669
0.00336021
-0.0022039
0.0863663
-0.0840038
0.00943949
0.00567758
0.0813424
-0.0789956
0.0125331
0.011152
0.0772405
-0.0759729
0.0123673
0.0122717
0.0752529
-0.0749038
0.0101732
0.0110253
0.0747995
-0.0747514
0.00652212
0.00818315
0.0746471
-0.0744849
0.00151334
0.00400893
0.0744012
-0.0745769
-0.00435339
-0.00135148
0.0751303
-0.0761287
-0.00995028
-0.00698398
0.0774387
-0.0791132
-0.0147915
-0.0120133
0.081027
-0.0833455
-0.0189214
-0.0163416
0.0859125
-0.0889305
-0.0221948
-0.0199417
0.0921875
-0.0959091
-0.024258
-0.0225833
0.0997734
-0.103939
-0.024344
-0.0237514
0.107863
-0.111393
-0.0212183
-0.0224476
0.114158
-0.114707
-0.0138665
-0.0174776
0.115136
-0.113113
-0.00339818
-0.0085262
0.111161
-0.110213
0.00613222
0.00171617
0.00857936
-0.0777179
0.075538
-0.0120325
-0.0151991
-0.0737055
0.0726051
-0.00489956
-0.00854546
-0.072181
0.0718493
0.00449234
-0.00033714
-0.0712124
0.0700995
0.0128979
0.00848594
-0.0690654
0.0686678
0.0191175
0.0153347
-0.0695009
0.0719451
0.0234105
0.0203836
-0.0757127
0.0810014
0.0234756
0.0228607
-0.0868029
0.0932221
0.0162138
0.0197074
-0.0989017
0.103749
0.00223344
0.00922594
-0.106688
0.107726
-0.012013
-0.00515282
-0.106956
0.104799
-0.019925
-0.0159237
-0.102071
0.0989411
-0.0219738
-0.0202958
-0.0960638
0.093261
-0.0210438
-0.0205174
-0.0909045
0.0887188
-0.0189656
-0.018955
-0.0869273
0.0852846
-0.0164957
-0.0167549
-0.0840362
0.0825088
-0.0135987
-0.0146334
-0.0819846
0.0813964
-0.0106429
-0.0125329
-0.0094104
0.00145869
0.00251929
0.081522
0.084443
-0.00505002
0.00600119
0.0781204
0.079096
-0.00684573
0.00824523
0.075285
0.0760188
-0.00988834
0.0112667
0.0710897
0.0717726
-0.011769
0.0111124
0.0708237
0.0690858
-0.00931587
0.00589584
0.0754049
0.0716373
-0.00123436
-0.00312483
0.0836712
0.0792969
0.0860157
0.0404234
-0.0296118
-0.0383006
-0.0267362
0.0420077
-0.0465778
-0.0452097
-0.0260356
0.0342991
-0.062513
-0.0479238
-0.0265897
0.0342258
-0.0718012
-0.0458824
-0.0301145
0.0340671
-0.0800866
-0.0397537
-0.0382577
0.0322891
-0.0859027
-0.0310561
-0.0507787
0.0246875
-0.0209066
-0.0907597
0.0286921
-0.0907294
-0.0231645
-0.0694746
-0.0149514
0.0120989
-0.0976692
-0.0178762
-0.0872823
0.00852578
0.0691726
-0.0256453
0.0909341
-0.0924358
-0.00205495
-0.0852679
0.0650874
0.0287062
0.000412632
0.0940595
-0.0927161
0.00201679
-0.000580223
0.0918288
-0.0897839
0.00739453
0.00479031
0.0876941
-0.0853604
0.0101994
0.00906223
0.0835134
-0.0818918
0.0107457
0.0104247
0.080592
-0.0794437
0.00902485
0.00972561
0.0784668
-0.0775455
0.00560086
0.00720623
0.0767709
-0.0761687
0.000911082
0.00323432
0.0758938
-0.0759948
-0.00425235
-0.00162637
0.0764838
-0.0773586
-0.00907545
-0.00649504
0.0785107
-0.0800045
-0.0132977
-0.0108612
0.0817282
-0.083814
-0.0168355
-0.0146178
0.0861107
-0.0887912
-0.0195143
-0.0176451
0.0916576
-0.0949016
-0.021014
-0.0197169
0.0982439
-0.101831
-0.0207568
-0.0204091
0.105242
-0.108492
-0.0179681
-0.019037
0.111078
-0.112804
-0.0121402
-0.0148913
0.113464
-0.112805
-0.00405709
-0.00786674
0.110835
-0.108883
0.00418005
-0.000253756
0.10725
-0.105747
0.00838884
0.00694612
0.103013
-0.100004
0.0090905
0.00865092
-0.0840742
0.081331
-0.0146616
0.0861658
-0.0908361
-0.0162363
-0.0175124
-0.0790182
0.0774151
-0.0104293
-0.0128863
-0.0760532
0.0752637
-0.00411005
-0.00718357
-0.0751602
0.0757269
0.00392567
-0.000233634
-0.0766275
0.0777076
0.0118177
0.00758534
-0.0788086
0.0802554
0.0176706
0.0142338
-0.0821848
0.0850837
0.0205116
0.0184542
-0.0886961
0.0932899
0.0188818
0.0192484
-0.0979993
0.102838
0.0113748
0.014998
-0.106663
0.10936
-0.000463322
0.00540123
-0.110201
0.109393
-0.0112047
-0.00599438
-0.107414
0.104558
-0.0170682
-0.0139451
-0.101584
0.0984579
-0.0188481
-0.0173219
-0.0956984
0.0930529
-0.0183983
-0.0177578
-0.0908361
0.0887717
-0.0169011
-0.0167382
-0.0870699
0.085501
-0.0149268
-0.0150531
-0.084094
0.0828378
-0.0123425
-0.0132263
-0.0818245
0.0815525
-0.010371
-0.0115196
-0.0806778
0.0818496
-0.00604971
-0.00853567
-0.00190378
-0.00126486
0.00344643
0.0793405
-0.000986016
0.0834176
0.0821921
-0.00446316
0.00443209
0.0781515
0.0780792
-0.00550741
0.00698836
0.0738041
0.0749435
-0.00832583
0.00897897
0.0704366
0.0704351
-0.00857381
0.00706647
0.0723311
0.0694909
-0.00470373
0.000956611
0.079152
0.074
0.0020343
-0.00522999
0.0868669
0.0822878
0.0106811
-0.0144271
0.0932984
0.0914668
0.0255369
0.108723
0.0983732
-0.0207642
0.0252454
-0.0952409
-0.0937225
-0.0178779
0.0119894
-0.0144514
-0.0952073
-0.0974897
0.00947488
0.047884
-0.0354881
-0.0488627
-0.0230832
-0.0851615
-0.000185522
0.0425015
-0.0547802
-0.0535512
-0.0204083
0.106739
-0.086734
0.00870155
-0.00718061
0.0160428
0.099861
-0.000114266
0.0996723
0.0385555
-0.0668426
-0.0532331
-0.019239
0.0397336
-0.0774678
-0.047825
-0.0220432
0.0379682
-0.0857657
-0.0387693
-0.0305445
0.0350045
-0.0922151
-0.0284836
-0.0454595
0.0306104
-0.0960944
-0.0200393
-0.0673115
0.0212472
-0.0180426
-0.096927
0.0253709
-0.0993647
-0.0159253
-0.0858083
0.0108374
-0.0129498
-0.0930948
0.0087345
-0.0953869
-0.026624
0.0918768
-0.0939607
2.89336e-05
0.00555547
0.0944452
-0.0946813
0.00225283
-9.5736e-05
0.093911
-0.0924243
0.00590784
0.00402006
0.0904355
-0.0886167
0.00838056
0.00707343
0.0867383
-0.0848872
0.0088945
0.00854634
0.0832229
-0.0816322
0.00743415
0.00806137
0.0802484
-0.0790047
0.00435715
0.0058224
0.078052
-0.0773844
0.0002435
0.00228163
0.0771015
-0.0771877
-0.0041661
-0.00190927
0.0776135
-0.0783765
-0.00831242
-0.00606932
0.0793929
-0.080724
-0.0119667
-0.0098448
0.0822633
-0.0841196
-0.0149792
-0.0130785
0.0861511
-0.0885014
-0.0171639
-0.0156136
0.0909874
-0.0937657
-0.0182356
-0.017231
0.0965899
-0.0995827
-0.0177641
-0.017585
0.102412
-0.105121
-0.0152592
-0.0162078
0.107314
-0.10893
-0.0105241
-0.0126984
0.10957
-0.109417
-0.00421023
-0.00722608
0.108681
-0.106401
0.00190063
-0.000990438
0.103891
-0.101445
0.00594321
0.00443598
0.100102
-0.0986806
0.00766882
0.00730782
0.0965827
-0.0950996
0.00725136
0.00737704
-0.0890633
0.0877586
-0.0149316
0.0922835
-0.0955746
-0.0147516
-0.0146576
-0.0843864
0.0825325
-0.0128077
-0.0141402
-0.0804008
0.0790188
-0.00904738
-0.0107546
-0.0779992
0.0773862
-0.00349702
-0.00616397
-0.0774282
0.0782073
0.00314653
-0.000275671
-0.0795708
0.0815325
0.00985596
0.00622192
-0.083752
0.086431
0.0149916
0.0120143
-0.0892994
0.0927303
0.0170807
0.0155858
-0.0963103
0.100287
0.0149055
0.0156684
-0.103928
0.10723
0.00807285
0.0113563
-0.109399
0.110323
-0.00138735
0.00323289
-0.109847
0.108173
-0.00953095
-0.00551887
-0.105863
0.103031
-0.014236
-0.011635
-0.100274
0.0974512
-0.0160255
-0.0145646
-0.094974
0.0925886
-0.016013
-0.0152807
-0.0905721
0.0886732
-0.0150023
-0.0147216
-0.0870921
0.0856184
-0.0134531
-0.013472
-0.0842371
0.0834977
-0.0116031
-0.0118451
-0.0819806
0.0811724
-0.00956274
-0.0100024
-0.0807335
0.0819476
-0.00726377
-0.00809681
-0.00511768
0.00090591
0.000594685
0.081917
0.0849754
-0.00294634
0.00210274
0.0801841
0.0798405
-0.00232494
0.00304115
0.0774352
0.077857
-0.00421247
0.00548505
0.0725315
0.0737722
-0.0062305
0.00604387
0.0706232
0.0696897
-0.00484055
0.00275908
0.0744125
0.0706943
-0.000180441
-0.00261146
0.0819439
0.0765786
0.00513831
-0.00760653
0.0893351
0.0848147
0.00917998
-0.0116547
0.0957732
0.0930403
0.102761
-0.0161714
0.0195936
-0.100349
-0.0981744
-0.0135715
0.00773801
-0.00964967
-0.0934752
-0.0937988
0.00643722
0.05043
-0.0434166
-0.054641
-0.0219934
0.100167
-0.0945616
0.00309658
0.0972831
0.00276919
0.0436914
-0.0599161
-0.0570046
-0.0166367
0.0443354
-0.0714444
-0.053822
-0.013242
0.0436206
-0.0831201
-0.045522
-0.0152905
0.0412754
-0.0920366
-0.0341883
-0.0248399
0.0366072
-0.0982119
-0.0228958
-0.0426031
0.0307826
-0.101506
-0.0152905
-0.0679463
0.0240969
-0.103868
-0.0135568
-0.0852013
0.0148391
-0.012979
-0.100035
0.0184447
-0.103955
-0.0113107
-0.0914338
-0.0971465
0.0947218
-0.0105544
0.00973088
-0.097431
-0.00944636
0.0126097
-0.102913
-0.00294089
0.0835206
0.00739718
-0.00803267
-0.0928397
0.00544417
-0.0918458
-0.030835
0.0928828
-0.0941238
0.00126988
0.00387674
0.0950481
-0.0946159
0.00182065
0.000828545
0.0937677
-0.0925287
0.00466884
0.00317187
0.0910496
-0.0893227
0.00665368
0.00559428
0.0875728
-0.0857527
0.00707438
0.00679648
0.0840601
-0.0824268
0.00580078
0.00636881
0.0810289
-0.0798158
0.00314403
0.0044245
0.0789291
-0.0783347
-0.000350863
0.00139492
0.0780944
-0.0781751
-0.00408546
-0.00214954
0.078549
-0.0792192
-0.00764225
-0.00569535
0.0801175
-0.0812977
-0.0107864
-0.00894651
0.0826608
-0.0842979
-0.0133421
-0.0117154
0.0860782
-0.08812
-0.0151222
-0.0138332
0.0902555
-0.0926107
-0.0158805
-0.0150955
0.0949701
-0.0974359
-0.0152984
-0.0152255
0.0997391
-0.101922
-0.0130762
-0.0139045
0.103689
-0.105029
-0.00918424
-0.0109314
0.105726
-0.105738
-0.00419788
-0.00652955
0.105101
-0.103804
0.000603881
-0.00162765
0.10181
-0.0998372
0.00397004
0.00244245
0.0971867
-0.0949465
0.00542861
0.00465728
0.0931536
-0.0922417
0.00633946
0.0055842
0.0917882
-0.0909569
0.00461293
0.00598366
-0.0928422
0.0906762
-0.0125855
-0.0116919
-0.0892096
0.086945
-0.012667
-0.0131911
-0.0846534
0.0829203
-0.0110746
-0.0118486
-0.0815383
0.0802914
-0.00780056
-0.00937263
-0.0794043
0.0789999
-0.00309262
-0.00527685
-0.0791402
0.0799208
0.00236584
-0.000415893
-0.0812684
0.0832974
0.00782703
0.00487433
-0.0857029
0.0886612
0.0120334
0.00960877
-0.0917526
0.0952255
0.0136078
0.0124944
-0.0985585
0.101928
0.0115358
0.0123354
-0.104707
0.106907
0.00587215
0.00857778
-0.108053
0.108138
-0.00147292
0.00208744
-0.10725
0.105529
-0.00780927
-0.00463077
-0.103441
0.100997
-0.0117914
-0.00954775
-0.0986453
0.0962291
-0.0136092
-0.0122132
-0.0940848
0.0919906
-0.0139188
-0.0131364
-0.0901943
0.0884791
-0.0132871
-0.0129252
-0.0870322
0.0856686
-0.0120895
-0.0120251
-0.0845352
0.0834802
-0.0105481
-0.0107117
-0.0826216
0.0818453
-0.00878647
-0.00914383
-0.0812891
0.081206
-0.00718063
-0.00754064
-0.0812104
0.0843804
-0.00335557
-0.00512209
0.000181301
0.000531692
0.00051575
0.0808696
0.0825662
-0.000707655
0.000621806
0.0802699
0.0796486
-0.000926575
0.00173104
0.0766308
0.0775523
-0.00279488
0.00361643
0.0717099
0.0727084
-0.00365582
0.00272189
0.0715571
0.0696503
-0.000969546
-0.00136305
0.0767451
0.0724466
0.00386988
-0.00628817
0.0843622
0.0790855
0.0082137
-0.0104122
0.0915337
0.0867402
0.00981624
-0.010209
0.096166
0.0924443
0.00322399
-0.00382233
0.100459
0.0957762
0.0082052
-0.018226
0.107304
0.104055
0.0502707
-0.049996
-0.0557757
-0.0232223
-0.00456853
0.00348954
-0.089878
-0.00601753
-0.0903968
0.0958894
-0.103762
-0.0103538
-0.0248379
0.0708078
0.061334
0.084235
-0.0131835
-0.0883261
0.08836
0.00457909
-0.0870284
0.0021918
0.0472367
-0.0628173
-0.0561212
-0.0143375
0.0484579
-0.0762818
-0.050388
-0.00837602
0.0464324
-0.0882771
-0.0395986
-0.00988016
0.0428863
-0.0983157
-0.0267624
-0.0209732
0.0368291
-0.104258
-0.0156569
-0.0422368
0.0295459
-0.106955
-0.0111231
-0.0703799
0.0219012
-0.107324
-0.0107306
-0.0857814
-0.00803503
-0.0988468
0.00945084
-0.096551
0.0951957
-0.00667969
0.00573712
-0.0972715
-0.00501659
-0.100283
0.00717351
0.0154124
-0.106758
-0.00888599
-0.0905805
-0.104483
0.0110201
0.00844624
-0.0192342
0.0815958
-0.0849894
0.000478464
-0.0168502
0.0866304
-0.0363399
0.0978672
-0.095996
0.0012254
-0.00312511
0.0942281
-0.0931184
0.000160208
0.00210877
0.0932377
-0.0929426
0.00152549
0.000947896
0.0923209
-0.0913579
0.00370581
0.00255021
0.0901592
-0.0887072
0.00520164
0.00439559
0.0871927
-0.0855816
0.00546323
0.00528205
0.0840732
-0.0826194
0.00434699
0.00486045
0.0813921
-0.0803458
0.00209771
0.0031972
0.0795971
-0.0791065
-0.000841466
0.000646188
0.0789165
-0.078999
-0.00400295
-0.00233957
0.0793332
-0.0799276
-0.00704787
-0.00536115
0.0807234
-0.0817667
-0.00974321
-0.00815062
0.0829675
-0.0844022
-0.0119073
-0.0105146
0.0859519
-0.0877137
-0.0133604
-0.0122836
0.089537
-0.0915234
-0.0138941
-0.0132721
0.093486
-0.0955073
-0.0132771
-0.0132629
0.0973681
-0.0991096
-0.0113347
-0.0120437
0.10051
-0.101569
-0.00812504
-0.00953125
0.102126
-0.102177
-0.00414768
-0.00597221
0.101719
-0.100785
-0.000329897
-0.00208557
0.0995128
-0.0979534
0.00241067
0.00117039
0.0963616
-0.094468
0.00353502
0.00306545
0.092277
-0.0900285
0.00409097
0.0033932
0.00431514
-0.0943764
0.093154
-0.00933195
-0.00862705
-0.0921138
0.0905006
-0.0109723
-0.0106518
-0.0884719
0.0868093
-0.0110044
-0.0111624
-0.0850605
0.08344
-0.00945413
-0.0100998
-0.08215
0.0811042
-0.00675479
-0.00808257
-0.0804694
0.0802167
-0.00283985
-0.00464208
-0.0804119
0.0811386
0.00163919
-0.000611137
-0.0823387
0.084144
0.00602174
0.00367416
-0.0863084
0.0889968
0.00934501
0.00744441
-0.0917993
0.0948899
0.0105172
0.00969186
-0.0977555
0.100518
0.00877342
0.00946976
-0.10266
0.104221
0.00431074
0.00643573
-0.104909
0.104792
-0.00135536
0.00139938
-0.103983
0.102566
-0.00639288
-0.00382152
-0.100885
0.0989088
-0.00981554
-0.00786622
-0.096983
0.0949694
-0.0115956
-0.0102874
-0.0931496
0.0913401
-0.0121094
-0.0113165
-0.0897621
0.0882322
-0.0117572
-0.0113473
-0.0869245
0.0856768
-0.0108419
-0.0107174
-0.0846271
0.0836421
-0.00956306
-0.00966197
-0.0828303
0.0820909
-0.00804702
-0.00833211
-0.0813719
0.0805652
-0.00637392
-0.00682164
-0.0807303
0.0820491
-0.00467439
-0.00528716
-0.00275906
0.00330675
-0.00186129
0.0820751
0.0844774
0.000416199
-0.000312336
0.0807657
0.0811211
0.000650403
-0.000727593
0.0803471
0.0799866
0.00036775
0.000402959
0.0758601
0.0771924
-0.00117059
0.00142488
0.0714556
0.0719407
-0.000820756
-0.00064369
0.0730216
0.0702544
0.00266219
-0.00497264
0.0790556
0.0744651
0.00718799
-0.00909402
0.0862683
0.0813008
0.0103878
-0.0109694
0.0921152
0.088034
0.0108168
-0.00930091
0.0946501
0.0922917
0.00660175
-0.000357379
0.0942149
0.0930771
0.0844636
-0.00755063
-0.0913066
0.0785978
-0.011213
0.00393168
-0.00473551
-0.0890741
-0.0880261
0.00492939
0.0503964
-0.0531557
-0.0542853
-0.0250582
0.0508277
-0.0651871
-0.0523631
-0.0123624
0.0500225
-0.0798718
-0.0438911
-0.00408351
-0.00519334
-0.089939
0.0473284
-0.0927193
-0.0308766
-0.00576592
0.0421885
-0.103675
-0.017388
-0.0192421
0.0350715
-0.109784
-0.00795789
-0.045402
-0.00333799
-0.0976153
0.00368176
-0.0950948
0.0943464
-0.00258957
0.00161415
-0.09544
-0.00126892
-0.097925
0.00192383
0.0267993
-0.111853
-0.00689312
-0.0742174
-0.101329
0.00472742
0.0192017
-0.111114
-0.00696731
-0.0877001
-0.105497
0.00818804
0.0129291
-0.108667
-0.0062082
-0.091923
0.00868503
-0.0138439
0.0837568
0.0585799
-0.093701
0.0504686
0.00946849
-0.00854311
0.0761216
0.00417371