/*--------------------------------*- C++ -*----------------------------------*\
  =========                 |
  \\      /  F ield         | OpenFOAM: The Open Source CFD Toolbox
   \\    /   O peration     | Website:  https://openfoam.org
    \\  /    A nd           | Version:  10
     \\/     M anipulation  |
\*---------------------------------------------------------------------------*/
FoamFile
{
    format      ascii;
    class       surfaceScalarField;
    location    "2.5";
    object      phi;
}
// * * * * * * * * * * * * * * * * * * * * * * * * * * * * * * * * * * * * * //

dimensions      [0 3 -1 0 0 0 0];

internalField   nonuniform List<scalar> 
57492
(
-0.00626067
5.44721e-05
0.00133398
0.00487222
0.00477385
-0.00494062
-0.00609389
-0.000820121
0.0024841
0.0085354
-0.0101994
0.0386531
0.0295989
-0.00604186
-0.0622101
-0.0831157
0.0348087
0.0869601
0.0276015
-0.0267393
-0.0140661
0.0132039
-0.0494339
0.0131787
-0.00704317
0.0432984
0.00872894
-0.0305614
0.0114504
-0.0415085
0.0395932
-0.00953506
0.00999272
0.0381489
-0.0366912
0.013597
0.00124184
-0.00328899
-0.0115499
-0.00512225
0.0031048
0.0156145
-0.0104979
0.00760885
-0.00223323
0.000693126
-0.00994916
0.0401163
-0.035272
-0.0142984
0.00945406
0.00178793
0.030497
0.00783142
-0.00145168
0.00592828
0.0347125
-0.0391891
-0.00541641
0.0342304
-0.0302656
0.00410995
-0.00859248
0.00448253
-0.0338201
0.0239425
0.0139875
-0.0466245
0.00532109
0.0340819
0.00722153
0.00857065
-0.0472703
-0.00792483
-0.000637298
0.00252262
-0.00302164
0.00113632
0.00237519
-0.00331308
0.000300595
-0.0388122
0.0412055
0.0039838
-0.00637707
-0.0575341
0.0296603
-0.0109384
-0.0238605
0.0100137
0.011368
0.00247884
-0.0166177
-0.00797694
0.000734128
-0.0083171
-0.0242141
0.0289401
0.00359113
-0.00980206
0.00303883
-0.00155387
0.0302901
-0.0192424
-0.0186034
0.00755574
-0.0236858
0.0192253
0.0347506
-0.0310619
-0.0584263
0.0346338
0.0548544
-0.0549478
-0.0159311
0.039817
-0.0187735
-0.00289881
0.0216724
-0.0060288
-0.0127448
-0.0284349
0.0361672
-0.013761
0.00489324
-0.0178709
-0.0154573
-0.0254846
0.0386633
-0.00785151
-0.0378474
0.0203399
0.0175075
-0.0731459
0.0352985
0.0441967
-0.00562525
0.00149591
-0.0400674
0.0325129
-0.00258031
0.0142641
-0.00470017
0.0431304
-0.0440555
0.0456856
0.00738656
-0.0443433
0.0437612
-0.0051187
0.0455747
-0.0166831
-0.0327954
0.00390374
0.0518597
0.00110158
0.0362547
-0.0190814
0.0265879
0.0149262
0.0646269
-0.041455
-0.00505494
0.00434986
0.0421601
-0.0427725
-0.00219985
0.00351739
0.00795645
0.0404389
-0.0398135
-0.00858184
0.00498094
-0.038533
-0.0295505
0.0459935
0.039978
-0.056421
0.00428241
0.0516783
-0.0855112
0.00254595
0.00410972
-0.000604505
-0.00605117
0.0037702
0.0063846
-0.00257151
0.00152677
0.00481495
0.00210276
-0.000564548
-0.00191829
0.00131379
-1.53024e-05
-0.00190299
0.0998939
0.04071
-0.0684104
-0.0721935
0.0334425
-0.0207256
0.0871771
-0.087234
0.0327166
0.0879599
0.0188626
-0.0653866
0.011926
-0.0310633
0.0246203
-0.00548303
0.0266969
-0.0313626
0.0165918
0.00113924
-0.00123579
0.000151024
0.00195049
0.000522727
0.00546643
0.00135627
-0.0340583
0.0619038
0.0284689
-0.0563144
0.0385176
-0.0458791
0.02292
0.0566972
-0.0177134
0.141261
-0.0162099
-0.0370481
-0.0880027
0.0332724
0.0787811
0.0292071
0.0190364
-0.0563585
0.0705946
0.00154379
-0.00236391
0.00402789
0.0175286
0.0330863
-0.0138153
-0.0367996
0.0236558
0.00240827
0.00322723
-0.00142272
-0.00180451
0.00336527
-0.000138048
-0.0804564
0.0377417
-0.0287473
0.071462
-0.0692599
-0.0365289
0.0253323
-0.0376051
0.0342286
-0.0658834
0.0393356
-0.000644934
-0.0195485
-0.0191422
-0.0156194
0.0442774
0.0106777
-0.0192759
-0.00193107
0.00558749
-0.0175055
-0.00241534
-0.00647442
-0.0305795
0.0178859
0.00753389
-0.000959749
-0.02446
0.00981576
0.0174146
-0.00934452
-0.0201236
-0.00458173
0.0345211
-0.0142997
0.00171001
-0.0184687
0.00320922
-0.0162253
0.00975086
0.00222296
-0.0184482
0.00324786
0.000117412
0.0464982
0.0310419
-0.00327295
0.0174281
-0.0540456
-0.00316011
0.0359106
-0.026545
-0.00620546
-0.00496093
0.0414129
-0.0396121
0.0316021
0.0188101
-0.00568418
-0.044728
-0.00957179
0.00407938
0.0370945
0.0406058
-0.0313675
-0.0138391
-0.0289267
0.00894911
0.0338167
-0.0136419
0.0335813
-0.0337784
0.00132269
-0.0438913
-0.0082997
-0.00748054
-0.000126032
0.000904798
0.000938842
0.00293021
-0.00853962
0.00604932
0.0033951
-0.010978
-0.00250229
-0.0047869
0.0082235
0.00193895
-0.00537555
0.018403
-0.0178254
-0.00536444
-0.00844279
0.0194555
0.00739027
-0.00356928
0.00334998
-0.0656983
0.0354414
0.0679985
0.0712185
-0.0262721
-0.0814753
-0.0324431
0.0379633
-0.0023271
-0.0188201
-0.00306692
-0.0123481
0.000218918
0.000646583
-0.00413483
0.00190654
0.00158171
-0.00359156
0.00291589
0.00132226
-0.00658156
-0.00114483
-0.00569434
-0.0079498
0.00129606
-0.0161733
-0.0083411
-0.0216058
-0.0237473
0.028431
0.0169221
0.00129544
0.00989901
-0.0328003
-0.032004
0.00955219
-0.0508443
0.019659
-0.00263476
-0.0514649
0.00596106
-0.00534048
0.00218562
-0.0368504
0.0325495
0.00211532
0.00192216
-0.0340877
0.0343512
0.00242767
-0.112424
-0.0289812
0.0367504
0.0370156
-0.0463378
0.0389017
-0.00563334
0.00942311
-0.0140048
0.00906374
0.00035937
0.00701067
-0.00136423
0.047493
-0.029052
-0.0222761
0.00383514
0.0413462
0.00144657
0.0611858
0.00608558
-0.062989
0.0239332
0.0473663
-0.0101136
0.00909301
-0.0336654
0.0485055
0.000844386
0.00821936
0.0132464
-0.0416029
-0.0435009
0.0258573
0.0526487
0.0296473
-0.00139307
-0.0311448
0.00289055
0.00944419
-0.00348265
-0.0363516
0.00678584
0.0487911
0.00510461
-0.032012
-0.00322411
0.000522901
0.00717964
-0.00646459
-0.00135508
0.000640027
-0.00157772
-0.000186384
0.00894375
-0.00112852
0.0162606
-0.0167098
-0.0170341
0.0310165
-0.0107346
0.0662399
-0.061269
-0.022005
-0.000824346
-0.0426604
0.0502706
-0.0767597
-0.00150001
-0.055895
-0.029692
0.00882728
0.0324043
0.0256348
-0.052718
0.0200872
0.0481968
-0.0358797
0.0187082
-0.0325271
0.018912
-0.00509306
0.0203526
-0.0315475
0.0299031
0.0454448
0.0142719
0.0436906
-0.00179871
-0.0435702
0.00167829
0.048215
-0.00541619
0.000891776
0.0500785
-0.00649161
-0.000983288
-0.0426036
0.0359013
-0.01081
0.0249872
0.0407287
-0.0103655
0.00800519
-0.0383684
0.00905456
0.0414148
-0.00974061
-0.0371256
-0.0128887
0.0396488
0.00726106
-0.0354376
-0.0136141
0.0345421
-0.0180224
-0.0316522
0.0158806
0.033794
-0.0184961
-0.0322841
0.0327578
0.0170802
0.0306365
-0.0101051
-0.0376116
0.0302404
-0.0316562
-0.0200918
0.0199807
0.0303515
-0.0158432
0.0263878
-0.039983
0.0353832
-0.00550529
-0.0517741
0.00464208
0.0528442
-0.00571219
0.0137579
-0.00641496
0.0107454
-0.0110474
0.00671694
-0.00423406
0.0204757
-0.0226566
-0.000998382
0.000315591
-0.0102952
-0.0325953
-0.0408501
0.0249768
0.0020008
-0.00218719
4.49683e-05
0.00195583
-0.00508894
-0.0498314
0.0358389
-0.0389935
-0.00403186
0.0379364
0.00309034
-0.0409333
-0.00115051
-0.003938
0.018045
0.00420896
-0.018316
0.0193617
0.00404334
-0.027343
0.0179179
0.0194888
0.000312478
-0.00156775
-0.00622527
-0.00171655
0.00202902
-0.0032843
0.000335932
-0.000449755
0.00221658
-0.000299486
0.000635419
-0.000749241
0.00135987
-0.000107391
0.00112271
-0.00125889
0.00261876
-0.00136628
0.00213812
-0.000179628
-0.00552777
-0.000778794
0.00291692
-0.000958422
0.0127862
0.0310931
-0.0398
0.0131444
-0.0415739
0.0412157
0.0442676
-3.00849e-05
-0.0135064
-0.0251396
0.0134001
0.0252458
-0.00611774
0.0267865
-0.0341751
0.00308723
-0.0343446
0.0383122
-0.0386804
-0.00012153
0.000489717
0.0382901
0.000346847
-0.00032475
-0.000241052
-0.0386288
0.000189471
0.0385712
-1.01213e-05
-0.000271002
0.0392515
0.000562068
-0.00124236
0.000276632
0.0402235
-0.00124865
0.0397394
-0.0395101
4.72969e-05
-0.00186951
0.0420955
-2.44654e-06
0.0386282
-0.000758222
-0.038306
-0.000642035
-0.0381796
-0.000136528
-0.0381324
0.000299698
-0.0389567
0.000702694
-0.0383266
-0.000871089
-0.00181414
0.0439125
-2.89428e-06
0.036818
-3.94776e-06
-0.000193497
-0.0383109
-0.000124412
-0.0386457
0.000125533
-0.000274199
-0.0405288
0.00249208
-3.1567e-06
0.0439124
3.23534e-06
0.036824
-9.23186e-06
-0.0400704
0.00115056
0.0439128
-2.67351e-06
2.24508e-06
-4.84426e-06
0.0439103
7.36538e-06
0.0368267
-5.32956e-06
0.0368322
-1.04021e-05
-0.000232298
-0.0402902
-6.22643e-06
-0.0402909
-1.18171e-05
-2.96767e-06
0.0439086
4.71695e-06
0.0368353
-6.03767e-06
-5.27538e-06
-0.040281
-3.92961e-06
-0.0402794
-1.67964e-05
-3.08578e-06
0.0439035
8.20174e-06
0.036843
-1.07823e-05
-4.33327e-06
-0.0402693
-7.43896e-06
-0.04027
-1.36715e-05
1.84748e-06
0.0438976
4.02497e-06
0.0368509
-6.05626e-06
-5.74e-06
-0.0402583
-5.20301e-06
-0.0402571
-1.86901e-05
6.6654e-06
0.0438844
6.56777e-06
0.0368682
-1.06567e-05
-4.4281e-06
-0.0402453
-8.6007e-06
-0.0402458
-1.57278e-05
2.08455e-05
0.0438617
1.77891e-06
0.0368948
-5.66849e-06
8.75015e-05
-0.0403259
-6.87031e-06
-0.0401373
-2.09494e-05
4.38339e-05
0.0438135
4.38923e-06
0.0369487
-1.00655e-05
0.000256903
-0.0391822
-0.00140062
-0.0394464
-0.000434069
9.41867e-05
0.0437196
-2.26972e-07
0.0368766
0.000166229
0.000254777
-0.0393644
-7.25875e-05
-0.0391475
-4.41025e-05
0.000188566
0.0435279
3.03552e-06
0.0366191
0.00044606
0.000554302
-0.0379756
-0.00194313
-0.0380153
-0.000577908
0.00186364
0.0416653
-9.74817e-07
0.037734
0.000748718
0.000639888
-0.0378035
-0.000811942
-0.0375978
0.000222458
0.001646
0.038595
0.00142428
0.0383572
0.0010228
0.00102422
-0.00144655
-0.0373812
-0.0374492
0.000875572
0.000113913
0.000372869
0.0381082
0.0381083
0.000362832
-0.0379396
0.0385368
-0.00140905
-0.0381532
-0.00123301
0.0017534
-0.00152429
-0.0376103
0.000883062
-0.0365789
-0.0377135
0.0380448
-0.000403848
-0.00111991
-0.0366685
0.0366819
-2.02821e-05
-2.43043e-05
-0.0366947
0.0367069
-1.74139e-05
-2.14396e-05
-0.0367185
0.0367295
-1.49799e-05
-1.8971e-05
-0.0367401
0.0392449
-1.27411e-05
-1.67919e-05
-0.0391351
0.0385987
0.000725773
-1.45598e-05
-0.0398402
0.0395276
-1.21898e-05
-0.000751738
-0.0382618
0.0377022
-0.000682771
0.000994888
-0.0368063
0.036812
-8.12812e-06
-0.00035278
-0.036817
0.0368211
-9.188e-07
-7.87736e-06
-0.0368243
0.036827
4.64457e-06
-9.50738e-07
-0.0368293
0.0368317
5.84918e-06
2.45115e-06
-0.0368341
0.0368373
3.46555e-06
1.52862e-06
-0.0368408
0.0368449
2.86767e-07
-1.75128e-06
-0.0368493
0.036854
-1.66126e-06
-4.59837e-06
-0.0366405
0.0375044
0.000560398
0.0002125
0.037412
0.000465236
-0.000229393
0.000737304
0.0376003
-3.17529e-05
0.0379107
0.0376533
-0.0370323
0.000127799
-0.03802
0.0379392
0.000443677
0.000656069
0.0370278
-0.036853
-8.59885e-06
0.000441555
0.0368492
-0.0368452
-9.60431e-06
-1.393e-05
0.0368414
-0.0368376
-9.86525e-06
-1.45012e-05
0.0368338
-0.03683
-9.83814e-06
-1.45051e-05
0.0368261
-0.0368217
-9.72821e-06
-1.43794e-05
0.0368167
-0.0368111
-9.5945e-06
-1.41486e-05
0.0375552
-0.0374975
-1.03242e-05
-1.41594e-05
0.038124
-0.0377085
-0.000552044
-1.56019e-05
0.0374591
-0.037211
0.000454678
5.02967e-05
0.0376743
-0.0379159
0.000367171
-0.000407822
0.0367404
-0.0367301
-2.21093e-05
-2.50155e-05
0.0367193
-0.0367078
-2.51686e-05
-2.75883e-05
0.0366957
-0.0366827
-2.86677e-05
-3.08073e-05
0.0366693
-0.0370709
-3.24335e-05
-3.44079e-05
0.0370768
-0.0376183
-3.64338e-05
-3.81908e-05
0.0373536
-0.0368114
0.00033335
-4.2256e-05
-0.0364103
0.000482016
-0.0384473
-0.0012302
0.0375284
0.000620928
4.63911e-06
0.0379028
0.00138634
-0.00124806
-0.0367171
0.00110439
-0.0361284
0.00128111
-0.00119415
-0.0385342
-0.0375772
-0.0377185
0.0371086
-0.00079913
0.0381489
-0.0384691
-0.000910001
-0.000802594
-0.0366412
0.0366547
-0.000417435
-0.000652473
-0.0366694
0.0366829
-3.38558e-05
-3.89132e-05
-0.0366958
0.0367081
-2.96878e-05
-3.42861e-05
-0.0367196
0.0367307
-2.60254e-05
-3.05268e-05
-0.0367409
0.0367507
-2.2552e-05
-2.70289e-05
-0.0367603
0.0375066
-2.05402e-05
-2.41449e-05
-0.0367779
0.036786
-2.03448e-05
-2.30028e-05
-0.0378041
0.0371402
-1.89303e-05
-2.31668e-05
-0.0368074
0.0368131
-1.38271e-05
-1.99946e-05
-0.0368182
0.0368226
-5.29907e-06
-1.29017e-05
-0.0368262
0.0368293
1.57353e-06
-4.62252e-06
-0.036832
0.0368345
3.29569e-06
-2.5149e-07
-0.0368372
0.0368401
5.36429e-07
-1.13189e-06
-0.0368434
0.0368471
-3.43649e-06
-4.98556e-06
-0.036851
0.0368551
-5.81436e-06
-8.45533e-06
-0.0368564
0.0371564
0.000260376
0.000211221
8.75484e-05
-0.000166614
0.0376794
2.05833e-05
0.0375953
-0.0370465
0.0374141
0.000253343
0.000575116
0.0374393
-0.0374485
0.000452948
0.037138
0.00030592
-2.14163e-05
0.000442304
0.0374819
0.0377226
0.0374548
-0.0371813
-0.000145731
0.000662322
0.03686
-0.0368567
-1.18536e-05
0.000120271
0.0368533
-0.0368496
-1.32658e-05
-1.73919e-05
0.0368458
-0.0368418
-1.38789e-05
-1.83004e-05
0.0368376
-0.0368332
-1.42553e-05
-1.86668e-05
0.0368286
-0.0368235
-1.4789e-05
-1.90378e-05
0.036818
-0.036812
-1.56275e-05
-1.96256e-05
0.0368054
-0.0367985
-1.72556e-05
-2.07406e-05
0.0367913
-0.0373233
-1.99955e-05
-2.27801e-05
0.0372469
-0.0367681
-2.40289e-05
-2.61921e-05
0.0371459
-0.0367506
-2.81187e-05
-3.00828e-05
0.0367414
-0.0367313
-3.21816e-05
-3.42423e-05
0.0367206
-0.0367093
-3.65265e-05
-3.82661e-05
0.0366973
-0.0366846
-4.1394e-05
-4.27739e-05
0.0366712
-0.036657
-4.66793e-05
-4.77679e-05
0.036642
-0.0366259
-5.24925e-05
-5.31774e-05
0.0366089
-0.0362164
-5.90773e-05
-5.93109e-05
0.0359948
-0.0354882
0.000597755
0.000260415
-0.0387393
-0.000923973
0.000976178
-0.00153579
-0.0355688
-0.0352536
0.000741552
-0.0020781
-0.0361748
0.000242852
0.0371918
0.0371935
0.000386776
-0.000579444
0.000814347
-0.0387691
-0.000549318
-0.0387694
0.000734276
-0.00152088
-0.0347821
0.000497877
-0.0350172
-0.038841
0.0375095
-0.0373989
0.000142753
0.0371256
0.000626818
0.000665407
-0.000286484
0.037103
0.000436981
0.0374219
-0.0383202
0.0387364
-0.000965473
-0.00106614
0.000879073
-0.0385824
0.0391693
-0.000828219
0.00310191
-0.041443
-0.000217065
-0.0386918
0.0383875
-0.00060572
-0.000879391
-0.0378932
0.0372944
-0.000200304
-0.000308303
-0.037021
0.0366575
-5.39491e-05
-0.000379051
-0.0366717
0.0366853
-4.74545e-05
-5.30879e-05
-0.0366981
0.0367103
-4.19241e-05
-4.7118e-05
-0.0367219
0.0367328
-3.70065e-05
-4.20533e-05
-0.0367432
0.0367532
-3.25477e-05
-3.73836e-05
-0.0367626
0.0367717
-2.95441e-05
-3.35954e-05
-0.0367803
0.0367883
-2.82776e-05
-3.16692e-05
-0.0367955
0.0368025
-2.59417e-05
-3.04441e-05
-0.0368088
0.0368145
-1.95324e-05
-2.62915e-05
-0.0368198
0.0368246
-1.01504e-05
-1.81221e-05
-0.036829
0.036833
-2.42752e-06
-9.01875e-06
-0.0368366
0.03684
-4.2657e-08
-3.85514e-06
-0.0368431
0.0368461
-2.51955e-06
-4.26356e-06
-0.0368492
0.0368523
-6.57613e-06
-8.02966e-06
-0.0368555
0.0368588
-9.09337e-06
-1.16296e-05
-0.0369637
0.0370283
0.00019573
0.000106343
0.000204484
0.000243877
-8.77586e-05
0.0375233
-0.000395315
0.000110162
0.037477
0.0374439
0.0373484
0.0373349
-0.0372953
0.000413332
-0.0372813
0.0370781
0.000589891
0.00035956
0.0368667
-0.0370006
-1.18409e-05
0.000233743
0.0368622
-0.0368595
-1.45313e-05
-1.81171e-05
0.0368566
-0.0368534
-1.65042e-05
-2.03092e-05
0.0368498
-0.0368458
-1.78509e-05
-2.18632e-05
0.0368415
-0.0368367
-1.90126e-05
-2.29911e-05
0.0368316
-0.0368261
-2.03537e-05
-2.41484e-05
0.0368201
-0.0368137
-2.20406e-05
-2.55657e-05
0.036807
-0.0367999
-2.43603e-05
-2.74637e-05
0.0367926
-0.0367849
-2.76521e-05
-3.01146e-05
0.0367772
-0.0367692
-3.19845e-05
-3.39111e-05
0.0367608
-0.036752
-3.69191e-05
-3.84907e-05
0.0367428
-0.0367329
-4.20892e-05
-4.34582e-05
0.0367224
-0.0367112
-4.77166e-05
-4.87396e-05
0.0366995
-0.0366869
-5.39258e-05
-5.45516e-05
0.0366737
-0.0366597
-6.07172e-05
-6.09483e-05
0.0366449
-0.0366291
-6.82865e-05
-6.79857e-05
0.0366124
-0.0365946
-7.69353e-05
-7.59656e-05
0.0362491
-0.0355645
-8.67828e-05
-8.50924e-05
0.035162
-0.0352233
0.000559233
0.000339001
0.000641487
-0.000637175
-0.0350215
-0.035043
0.000461128
0.00113832
-0.0390284
-0.000912777
-0.0367829
0.000367949
0.0368678
0.0372054
0.00030977
0.00135977
-0.0407704
3.78062e-05
-0.0354571
0.00798208
-0.0327316
0.0426675
-0.000604564
0.000381185
-0.0348196
-0.000948576
-0.0346775
-0.0258553
0.0393461
0.005998
-0.020191
-0.00145536
-0.0386154
-0.0372976
0.0388651
0.00153444
0.003273
-0.00122446
-0.0384842
0.0381304
-0.000611653
0.000163818
-0.037814
0.0372965
-8.82231e-05
-0.000563053
-0.0370732
0.0369506
-7.77202e-05
-8.49963e-05
-0.0366469
0.0366617
-6.8756e-05
-7.53011e-05
-0.0366757
0.0366891
-6.08749e-05
-6.70694e-05
-0.0367018
0.0367139
-5.40384e-05
-5.98172e-05
-0.0367253
0.0367363
-4.79211e-05
-5.34873e-05
-0.0367466
0.0367565
-4.24832e-05
-4.77348e-05
-0.036766
0.0367749
-3.85212e-05
-4.30098e-05
-0.0367833
0.0367909
-3.59536e-05
-4.00005e-05
-0.0367979
0.0368043
-3.23308e-05
-3.73892e-05
-0.0368102
0.0368158
-2.51578e-05
-3.21891e-05
-0.0368213
0.0368267
-1.55973e-05
-2.35732e-05
-0.036832
0.0368372
-7.61946e-06
-1.43613e-05
-0.0368421
0.0368465
-4.49454e-06
-8.70256e-06
-0.0368505
0.0368539
-5.99342e-06
-8.20133e-06
-0.036857
0.0368597
-9.2754e-06
-1.10496e-05
-0.0368621
0.0368645
-1.14464e-05
-1.40839e-05
-0.0369861
0.0371932
-1.13715e-05
-1.52413e-05
-0.0371045
0.0370829
0.000164306
0.000293186
-0.037229
0.0371877
0.000409303
0.000480671
0.000519393
-0.000289563
0.0372472
-0.000322015
7.40704e-05
0.0374356
0.0370651
0.000363517
0.000149635
0.0370101
0.0375179
-0.000255741
0.000176572
0.0371821
0.0372423
-0.000219978
3.44225e-05
0.0373909
0.0373785
0.0374203
-0.0372886
0.000458241
-0.037998
0.0369842
0.00104816
-0.000267941
0.0371962
-0.0371186
0.000335714
0.000267124
0.0368676
-0.0368656
-1.38285e-05
-1.7264e-05
0.0368636
-0.0368613
-1.67683e-05
-2.01191e-05
0.0368589
-0.036856
-1.9326e-05
-2.27821e-05
0.0368528
-0.0368491
-2.15735e-05
-2.50793e-05
0.0368449
-0.0368402
-2.37666e-05
-2.71885e-05
0.0368349
-0.0368292
-2.61041e-05
-2.93661e-05
0.036823
-0.0368164
-2.86591e-05
-3.17223e-05
0.0368095
-0.0368023
-3.16185e-05
-3.43673e-05
0.0367948
-0.0367871
-3.53681e-05
-3.75767e-05
0.0367792
-0.0367711
-4.01068e-05
-4.17477e-05
0.0367628
-0.036754
-4.5707e-05
-4.685e-05
0.0367448
-0.036735
-5.18791e-05
-5.26463e-05
0.0367247
-0.0367137
-5.87014e-05
-5.90385e-05
0.0367022
-0.0366899
-6.62232e-05
-6.61051e-05
0.0366769
-0.0366631
-7.45021e-05
-7.38867e-05
0.0366486
-0.0366331
-8.3778e-05
-8.25184e-05
0.0366168
-0.0365993
-9.437e-05
-9.23102e-05
0.0365809
-0.0365611
-0.000106586
-0.000103552
0.0361056
-0.0354259
-0.000120419
-0.000116496
0.0354437
-0.0353027
0.000240188
0.000478941
0.000464385
-0.000443302
-0.0348407
-0.0350516
0.000213264
0.00110136
-0.03877
-0.000274201
-0.0364709
0.00284831
-0.0356366
4.05289e-05
-0.0364462
0.0372021
-0.0372574
0.000464611
0.0370718
0.000204327
0.000467362
-0.000318219
0.0372418
0.000123911
0.0373277
0.00274014
-0.0314284
7.19679e-05
-0.0351927
-0.0189212
-0.0195859
-0.0306635
0.0352312
0.00143036
0.000741949
-0.000503785
-0.0350789
0.000493721
-0.0348034
-0.0285314
-0.00358746
-0.0377883
-0.0367483
0.0372307
0.00105207
0.00175585
-0.0375247
0.0370332
-0.000120159
-0.000130165
-0.0365851
0.0366033
-0.000106365
-0.000114996
-0.0366204
0.0366367
-9.40517e-05
-0.000102116
-0.0366522
0.0366668
-8.33665e-05
-9.07366e-05
-0.0366806
0.0366938
-7.41085e-05
-8.09036e-05
-0.0367064
0.0367183
-6.60067e-05
-7.23519e-05
-0.0367296
0.0367404
-5.87216e-05
-6.47962e-05
-0.0367507
0.0367605
-5.22682e-05
-5.79655e-05
-0.0367697
0.0367784
-4.71965e-05
-5.22346e-05
-0.0367863
0.0367935
-4.31369e-05
-4.79174e-05
-0.0367998
0.0368057
-3.81443e-05
-4.3765e-05
-0.0368111
0.0368166
-3.0631e-05
-3.76589e-05
-0.0368222
0.0368283
-2.16081e-05
-2.92189e-05
-0.0368345
0.0368408
-1.39681e-05
-2.06047e-05
-0.0368469
0.0368526
-1.01202e-05
-1.47917e-05
-0.0368574
0.0368615
-1.00622e-05
-1.3071e-05
-0.0368647
0.0368672
-1.17897e-05
-1.42684e-05
-0.0368692
0.0368708
-1.30379e-05
-1.60332e-05
-0.0368721
0.0368733
-1.2612e-05
-1.65625e-05
-0.037182
0.0370533
0.00029297
-1.54842e-05
0.000276641
0.000398939
-0.00063592
0.0374841
-0.000166529
0.000286828
0.0373153
0.0372976
5.78843e-08
-1.47342e-06
0.0370115
0.036882
-0.000358311
0.000533659
0.0370068
0.0368825
0.037594
0.0374415
-0.0373308
0.00034752
-0.0369761
0.0373516
0.000672587
0.000197525
0.0372189
-0.0368702
-1.29166e-05
0.000155204
0.0368684
-0.0368664
-1.57945e-05
-1.91307e-05
0.0368645
-0.0368624
-1.88299e-05
-2.20616e-05
0.0368602
-0.0368576
-2.18725e-05
-2.50164e-05
0.0368547
-0.0368513
-2.49712e-05
-2.79848e-05
0.0368474
-0.036843
-2.82425e-05
-3.10755e-05
0.036838
-0.0368324
-3.16819e-05
-3.43569e-05
0.0368264
-0.0368198
-3.52114e-05
-3.77619e-05
0.0368129
-0.0368056
-3.89206e-05
-4.12661e-05
0.0367981
-0.0367902
-4.32022e-05
-4.51154e-05
0.0367822
-0.0367739
-4.83974e-05
-4.97411e-05
0.0367655
-0.0367566
-5.45744e-05
-5.53399e-05
0.0367474
-0.0367377
-6.16056e-05
-6.18527e-05
0.0367275
-0.0367167
-6.94896e-05
-6.92061e-05
0.0367054
-0.0366934
-7.82449e-05
-7.74177e-05
0.0366807
-0.0366673
-8.79618e-05
-8.65253e-05
0.0366531
-0.036638
-9.89038e-05
-9.67034e-05
0.036622
-0.0366049
-0.000111411
-0.000108274
0.0365869
-0.0365677
-0.000125819
-0.000121578
0.0365473
-0.0365254
-0.000142365
-0.000136886
0.0358918
-0.0354903
-0.000161335
-0.000154594
0.0351026
-0.0348125
0.000203574
-0.000174429
0.000893317
-0.00055742
-0.0351393
-0.034597
0.000677834
0.000813397
-0.0367351
1.35182e-05
-0.0364439
0.000457288
0.0369013
0.0372115
0.00026402
0.00162109
-0.0345175
-0.00463394
-0.0416302
-0.000711946
-0.0353504
4.37138e-05
-0.036418
7.70623e-05
-0.0357736
-0.0410539
-0.00706334
0.00140857
-0.00424208
-0.0382204
-0.00302462
-0.037197
-0.000504932
-0.0351313
0.000517587
-0.00108299
-0.0345739
0.000905412
-0.0349848
-0.0369614
-0.0334438
0.0349379
-6.37652e-05
0.0351665
-0.0387297
-0.00350011
-0.00186477
-0.0360188
0.0365296
0.000541331
0.0006749
-0.036551
0.0365716
-0.000140698
-0.000151612
-0.0365907
0.0366088
-0.00012443
-0.000134179
-0.0366259
0.0366421
-0.000110299
-0.000119183
-0.0366574
0.036672
-9.79362e-05
-0.000106058
-0.0366858
0.0366989
-8.72225e-05
-9.46528e-05
-0.0367113
0.0367231
-7.78289e-05
-8.47501e-05
-0.0367343
0.0367449
-6.93463e-05
-7.59517e-05
-0.0367549
0.0367644
-6.17636e-05
-6.7975e-05
-0.0367732
0.0367814
-5.53842e-05
-6.10749e-05
-0.0367888
0.0367953
-4.97148e-05
-5.52749e-05
-0.0368012
0.0368065
-4.34769e-05
-4.95687e-05
-0.0368116
0.036817
-3.59936e-05
-4.28002e-05
-0.0368228
0.0368292
-2.80188e-05
-3.50089e-05
-0.0368361
0.0368432
-2.11214e-05
-2.74728e-05
-0.0368502
0.0368567
-1.66253e-05
-2.17671e-05
-0.0368623
0.036867
-1.47117e-05
-1.87045e-05
-0.0368705
0.0368731
-1.43927e-05
-1.78255e-05
-0.0368749
0.0368762
-1.42696e-05
-1.78276e-05
-0.0368771
0.0368778
-1.33959e-05
-1.7457e-05
-0.0368785
0.0371831
-1.15882e-05
-1.61527e-05
-0.0372105
0.0372966
0.000378437
0.00024924
-0.0367983
0.0369553
0.000300283
0.000702668
0.00062731
-0.000463432
0.0371515
-0.000140449
-7.21054e-05
0.0371679
0.0373882
0.000465219
1.09253e-06
0.0370178
0.0372993
1.54177e-07
-1.43583e-06
0.0370128
0.0368832
2.6347e-06
-4.02322e-06
0.0370082
0.0368837
-0.00027165
0.00021796
0.0372955
0.0373183
-0.000156742
0.000205727
0.0371625
0.0373889
0.0374764
-0.0370536
0.000249801
-0.0373033
0.0370842
0.000424845
0.000437156
0.0371276
-0.0370468
0.000266736
0.000271502
0.0368733
-0.0368713
-1.4837e-05
-1.8357e-05
0.0368694
-0.0368673
-1.78267e-05
-2.11274e-05
0.0368653
-0.0368632
-2.09561e-05
-2.40918e-05
0.0368609
-0.0368585
-2.43458e-05
-2.72515e-05
0.0368557
-0.0368526
-2.8117e-05
-3.07288e-05
0.036849
-0.0368449
-3.23223e-05
-3.46313e-05
0.0368404
-0.0368352
-3.68234e-05
-3.89204e-05
0.0368296
-0.0368234
-4.14022e-05
-4.33903e-05
0.0368168
-0.0368097
-4.60409e-05
-4.78887e-05
0.0368022
-0.0367943
-5.10588e-05
-5.25723e-05
0.0367862
-0.0367778
-5.68448e-05
-5.7842e-05
0.0367691
-0.0367601
-6.35988e-05
-6.40056e-05
0.0367508
-0.0367411
-7.1351e-05
-7.11543e-05
0.036731
-0.0367203
-8.01319e-05
-7.93108e-05
0.0367092
-0.0366975
-8.99914e-05
-8.85158e-05
0.0366852
-0.0366721
-0.000101048
-9.88382e-05
0.0366583
-0.0366436
-0.000113587
-0.000110478
0.0366281
-0.0366116
-0.000127973
-0.000123777
0.036594
-0.0365753
-0.00014455
-0.000139101
0.0365554
-0.0365342
-0.000163588
-0.000156742
0.0365119
-0.036488
-0.000185222
-0.00017695
0.0364626
-0.0360493
-0.000209681
-0.000199814
0.0356449
-0.03498
0.00024051
0.000273373
0.000388864
-0.000719735
-0.0346539
-0.0349548
0.000363722
0.000531672
-0.0356457
-0.0392599
-0.0037119
0.000196435
-0.0354259
0.0374334
-0.0375268
0.000393676
0.0373998
-3.85007e-05
0.00040565
-0.0003464
0.0371033
0.000504823
0.036985
1.48907e-05
-0.0364151
4.69676e-05
-0.0363879
-0.00107869
-0.0372964
8.32226e-05
-0.0363617
0.000122532
-0.0363369
0.000165272
-0.0354589
0.000571233
-0.000254761
-0.0349704
0.000139147
-0.0345227
-0.0364148
-0.0378722
0.0360771
-0.00170495
-0.00305484
0.00417752
-0.0403826
0.0394863
-0.0410777
-0.00146347
-0.00209783
-0.0347992
0.0354165
-0.000681078
-0.000586916
-0.0361286
0.0365366
0.000133329
-3.71871e-05
-0.0365577
0.0365778
-0.00016075
-0.000172715
-0.0365967
0.0366147
-0.000142425
-0.000153106
-0.0366317
0.0366479
-0.000126469
-0.000136172
-0.0366631
0.0366776
-0.000112427
-0.000121306
-0.0366912
0.0367042
-0.000100192
-0.000108297
-0.0367164
0.036728
-8.94264e-05
-9.69629e-05
-0.0367389
0.0367492
-7.9653e-05
-8.68421e-05
-0.0367588
0.0367679
-7.07931e-05
-7.76019e-05
-0.0367762
0.0367838
-6.29761e-05
-6.9371e-05
-0.0367905
0.0367966
-5.57725e-05
-6.2045e-05
-0.036802
0.0368071
-4.85737e-05
-5.49854e-05
-0.0368121
0.0368175
-4.13833e-05
-4.78487e-05
-0.0368234
0.03683
-3.46012e-05
-4.09136e-05
-0.0368371
0.0368445
-2.85282e-05
-3.45529e-05
-0.0368518
0.0368586
-2.34645e-05
-2.9036e-05
-0.0368646
0.0368696
-1.97164e-05
-2.46922e-05
-0.0368735
0.0368764
-1.72585e-05
-2.17037e-05
-0.0368783
0.0368796
-1.55921e-05
-1.97976e-05
-0.0368805
0.0368812
-1.40508e-05
-1.83393e-05
-0.0368818
0.0368823
-1.21529e-05
-1.67282e-05
-0.0371463
0.0372794
0.000245377
-1.4778e-05
0.00045532
0.000183629
-0.000413557
0.0373814
-0.000289388
3.04845e-05
0.0374268
0.0372824
-1.91508e-06
7.29789e-07
0.037019
0.0368839
3.95516e-07
-1.47927e-06
0.0370139
0.0368844
2.58199e-06
-3.80201e-06
0.0370094
0.0368848
-0.000430007
0.000321012
0.0374044
0.0368845
0.0373635
0.0374233
-0.0374467
0.000273165
-0.0373422
0.0371791
0.000587919
0.00051829
0.0371577
-0.0368769
-1.40466e-05
-1.75547e-05
0.0368749
-0.0368728
-1.69261e-05
-2.03059e-05
0.0368707
-0.0368686
-2.00017e-05
-2.32326e-05
0.0368663
-0.036864
-2.32711e-05
-2.63045e-05
0.0368616
-0.036859
-2.69249e-05
-2.96515e-05
0.0368563
-0.0368532
-3.11666e-05
-3.34889e-05
0.0368499
-0.0368462
-3.60613e-05
-3.79691e-05
0.036842
-0.0368374
-4.1442e-05
-4.30422e-05
0.0368324
-0.0368267
-4.70355e-05
-4.84614e-05
0.0368206
-0.0368139
-5.2731e-05
-5.40033e-05
0.0368068
-0.0367991
-5.8721e-05
-5.97117e-05
0.0367911
-0.0367826
-6.53185e-05
-6.58711e-05
0.0367738
-0.0367647
-7.27544e-05
-7.27679e-05
0.0367553
-0.0367455
-8.11696e-05
-8.05729e-05
0.0367353
-0.0367248
-9.0708e-05
-8.94252e-05
0.0367138
-0.0367023
-0.000101512
-9.9468e-05
0.0366903
-0.0366776
-0.000113763
-0.000110852
0.0366642
-0.03665
-0.000127778
-0.00012382
0.0366351
-0.0366191
-0.000143961
-0.000138744
0.0366021
-0.036584
-0.000162679
-0.000156031
0.0365648
-0.0365442
-0.000184137
-0.000175973
0.0365225
-0.0364994
-0.000208311
-0.000198658
0.0364752
-0.0364494
-0.000235397
-0.000224097
0.0359235
-0.0354173
-0.000265694
-0.000252594
0.0351758
-0.035203
0.000166381
0.000122239
-0.00204648
0.000340278
-0.0354908
-0.0360894
0.000564139
-0.000251056
-0.0348358
-0.0346133
-2.55915e-05
1.50808e-05
-0.0354643
0.000442295
0.0369879
0.037491
0.000192917
0.00102957
-0.0407483
-0.00135897
1.63206e-05
-0.0363844
0.0021069
-0.0414599
-0.000332792
-0.0361718
5.11755e-05
-0.0363558
-0.000403935
-0.0365521
8.93671e-05
-0.0363286
0.000131087
-0.0363027
0.000176316
-0.03589
-0.000162362
-0.0350591
0.00025209
-0.000276384
-0.0348115
0.000261504
-0.0346227
-0.0363834
-0.040376
0.0387398
0.000172668
-0.0023134
-0.0401499
0.001715
0.0415219
-0.0405378
-0.00329747
-0.000213095
-0.0376492
0.0368228
-0.000878512
-0.00100717
-0.0364804
0.0360286
-0.000229261
-0.000244554
-0.0362091
0.036546
-0.000203557
-0.000217727
-0.0365664
0.0365858
-0.00018022
-0.000193088
-0.0366043
0.036622
-0.000160109
-0.000171605
-0.0366388
0.0366547
-0.000142409
-0.000152905
-0.0366697
0.036684
-0.000126695
-0.000136337
-0.0366974
0.0367101
-0.000112864
-0.000121694
-0.0367219
0.0367331
-0.000100606
-0.000108821
-0.0367435
0.0367533
-8.94322e-05
-9.72593e-05
-0.0367624
0.0367708
-7.9216e-05
-8.66576e-05
-0.0367785
0.0367855
-7.00114e-05
-7.70613e-05
-0.0367918
0.0367976
-6.15657e-05
-6.83788e-05
-0.036803
0.0368082
-5.37698e-05
-6.03356e-05
-0.0368134
0.036819
-4.69543e-05
-5.30844e-05
-0.036825
0.0368315
-4.11249e-05
-4.69051e-05
-0.0368384
0.0368455
-3.5635e-05
-4.14308e-05
-0.0368524
0.036859
-3.0045e-05
-3.59871e-05
-0.0368649
0.0368699
-2.47377e-05
-3.05446e-05
-0.0368739
0.0368771
-2.04034e-05
-2.5745e-05
-0.0368794
0.0368811
-1.7272e-05
-2.21112e-05
-0.0368823
0.0368832
-1.49602e-05
-1.95389e-05
-0.0368839
0.0368847
-1.28877e-05
-1.74849e-05
-0.0368853
0.0371414
-1.07256e-05
-1.54342e-05
-0.0374159
0.0374505
0.00035909
0.000180835
-0.0369679
0.0370282
0.000381991
0.000444095
0.000587396
-0.000335435
0.0371748
-0.000206103
0.000130345
0.037104
0.0373692
0.000353463
2.56831e-06
0.0370254
0.0373005
-1.39708e-06
3.37564e-07
0.0370201
0.036885
6.4559e-07
-1.55329e-06
0.0370148
0.0368853
2.47924e-06
-3.45982e-06
0.0370104
0.0368857
4.53091e-06
0.000390806
0.0370091
0.0368856
-0.000330657
0.000246149
0.0371878
0.0374237
0.000280479
0.000216096
0.0369945
0.0375116
0.0374757
-0.0372345
0.000346662
-0.0372651
0.0373429
0.000138311
0.000403587
0.0371681
-0.0368822
-1.27395e-05
0.000451892
0.0368806
-0.0368788
-1.58456e-05
-1.91487e-05
0.0368768
-0.0368747
-1.90326e-05
-2.22784e-05
0.0368725
-0.0368702
-2.2314e-05
-2.54196e-05
0.0368678
-0.0368653
-2.57975e-05
-2.86967e-05
0.0368627
-0.0368599
-2.97016e-05
-3.22702e-05
0.036857
-0.0368539
-3.42719e-05
-3.63898e-05
0.0368506
-0.0368471
-3.96179e-05
-4.12513e-05
0.0368432
-0.036839
-4.56331e-05
-4.68566e-05
0.0368345
-0.0368294
-5.20851e-05
-5.30149e-05
0.0368239
-0.0368178
-5.8835e-05
-5.95171e-05
0.0368112
-0.036804