/*--------------------------------*- C++ -*----------------------------------*\
  =========                 |
  \\      /  F ield         | OpenFOAM: The Open Source CFD Toolbox
   \\    /   O peration     | Website:  https://openfoam.org
    \\  /    A nd           | Version:  10
     \\/     M anipulation  |
\*---------------------------------------------------------------------------*/
FoamFile
{
    format      ascii;
    class       volScalarField;
    location    "10.5";
    object      p;
}
// * * * * * * * * * * * * * * * * * * * * * * * * * * * * * * * * * * * * * //

dimensions      [0 2 -2 0 0 0 0];

internalField   nonuniform List<scalar> 
28942
(
-0.0026804
-0.00178958
0.00354506
0.0115285
0.0118267
0.000261043
0.000679862
9.63165e-05
0.00478551
0.00485434
-0.000650012
-0.000875018
-0.0013881
-0.0013264
0.000423743
0.000839979
0.0116027
0.0118704
0.00727943
0.00880727
0.00984449
0.0098484
-0.00428368
-0.00392101
-0.00264159
-0.00278953
0.0155879
0.0155364
0.00512953
0.00510412
5.93784e-05
0.000106825
0.00168787
0.000740436
0.00874382
0.00995947
0.0125193
0.0145029
8.82659e-05
0.0167203
0.0111052
0.0136014
0.00395834
0.00391872
0.00395723
0.000592188
0.000438979
0.000474824
0.000544266
0.000849193
0.00149165
0.00505177
0.00511056
0.00487102
0.00503929
-0.00103481
0.000182211
-0.00190568
-0.0017692
-0.00214495
-0.00215558
-0.00204749
-0.00195218
0.00121284
-0.000689832
0.00111755
0.00254583
0.0111529
0.0106578
-0.00197541
-0.00231974
-0.00206282
0.0106844
0.0105542
0.0108228
-0.000197421
0.000273295
0.000785183
0.0039417
0.00435596
0.0033398
0.0021716
-0.00552158
-0.00691537
0.00245738
0.00524612
0.00632871
0.00714171
0.00547725
0.00565884
0.00766886
0.00700395
0.00108566
0.000556482
1.299e-05
0.00026676
0.000689706
0.00689887
0.0082183
-0.00722044
0.0133246
0.012525
0.00782444
0.0114127
0.00344985
0.00350113
0.00331615
0.0072752
0.00746093
0.00745542
-0.00171732
-0.00164308
-0.00192656
-0.00127408
-0.00118878
0.0175271
0.0155255
0.014946
0.0165856
0.00307353
0.0062855
0.00494202
0.0067034
0.0063969
0.017216
0.0175033
0.016144
0.00757721
0.00865489
0.000449857
0.00058062
0.000315695
0.0121935
0.0127035
0.00968462
0.00933068
0.0147916
0.00833427
0.00964753
0.0106584
0.000154508
-0.000504442
0.00903713
0.00395946
0.00396334
0.000319533
0.000300133
0.000815262
-0.000679325
0.00814983
0.00726415
0.00511977
0.000485795
0.000401545
0.000237324
0.000417777
0.00911332
0.00839289
4.28338e-05
-5.16829e-05
0.000154758
-0.00337905
-0.00273448
0.000216832
-0.00175905
0.000655177
0.0100748
0.0101652
0.011303
0.0108368
0.00939194
0.00527709
0.00521233
0.00532686
0.00524042
0.00688302
0.0066618
0.00697452
0.00719287
0.0071115
0.00712509
0.00731884
0.00784553
0.00755325
0.00713505
0.00745261
0.00816078
0.00888013
0.00919166
0.00222717
0.00220313
-0.00086797
0.000462618
0.00026901
-0.000318339
-0.000252804
0.000649048
0.000642724
0.000594997
0.000552692
0.00318934
0.00318412
0.00316663
-0.00137782
-0.00155956
-0.000977347
-0.0031196
-0.00371289
-0.00277703
-0.00361942
-0.00550222
-0.00400672
0.0177197
0.0184349
0.0181986
0.00360407
0.00370752
0.00361163
0.0120882
0.0116639
0.0117419
0.00257452
0.00254603
0.00260281
0.00251745
0.00248887
0.00246034
0.00246126
0.00243182
0.00243327
0.00248941
0.002518
0.0025465
0.00257517
0.00260332
0.0024036
0.00240508
0.0026312
0.00263188
0.00266
0.00237545
0.00237653
0.00266056
0.00234708
0.00231867
0.00234806
0.00231964
0.00268788
0.00268873
0.0022903
0.00229115
0.00271602
0.00271717
0.00226194
0.00226268
0.00274432
0.00274561
0.00223354
0.00223419
0.00277269
0.00277401
0.00220516
0.00220572
0.00280109
0.0028024
0.00217671
0.00217722
0.00282965
0.00283058
0.00214827
0.00214873
0.00285794
0.0028588
0.00211975
0.00212016
0.0028867
0.00288734
0.00209118
0.00209137
0.0029152
0.00291577
0.00206273
0.00206212
0.00294438
0.00294466
0.0020336
0.00203292
0.00297349
0.00297367
0.00200334
0.00200338
0.00294383
0.00297303
0.00300295
0.0030028
0.00288603
0.00291505
0.00282898
0.00285776
0.00277224
0.00280059
0.00271549
0.00274389
0.00265844
0.00268706
0.00260233
0.00263066
0.00254561
0.0025737
0.00248884
0.00251735
0.00243165
0.00246035
0.00237487
0.00240327
0.00231802
0.00234646
0.00226117
0.00228963
0.00220433
0.00223279
0.00214755
0.00217597
0.00209074
0.00211916
0.00203294
0.00206222
0.00200341
0.00197337
0.00197345
0.0020625
0.00200393
0.00203338
0.00212037
0.00209158
0.00217741
0.00214895
0.0022343
0.00220586
0.00229118
0.00226275
0.00234804
0.00231962
0.00240494
0.00237648
0.00246176
0.00243355
0.00251836
0.00249019
0.00257527
0.00254676
0.00263219
0.00260386
0.00268895
0.00266032
0.00274578
0.00271738
0.00280259
0.00277419
0.00285939
0.00283097
0.00291629
0.00288774
0.00297333
0.00294468
0.00300238
0.00300231
0.00197352
0.00197404
0.00303235
0.0030316
0.00303154
0.00303235
0.00294344
0.0030012
0.00297228
0.00288575
0.00291461
0.00282886
0.00285727
0.00277217
0.00280052
0.00271544
0.00274381
0.00265868
0.00268706
0.00260186
0.00263037
0.00254519
0.00257372
0.00248864
0.00251666
0.00243157
0.00246013
0.00237481
0.00240319
0.00231801
0.00234641
0.0022612
0.00228961
0.00220439
0.0022328
0.00214757
0.00217598
0.00209073
0.00211915
0.00203309
0.0020621
0.00194328
0.00194366
0.00197424
0.0020039
0.00200492
0.00197564
0.00194455
0.00194349
0.00206316
0.00203425
0.00212053
0.0020918
0.00217745
0.00214901
0.00223433
0.0022059
0.0022912
0.00226277
0.00234806
0.00231964
0.00240492
0.00237649
0.00246179
0.00243339
0.00251869
0.00249023
0.00257532
0.00254698
0.00263219
0.00260394
0.00268903
0.0026606
0.00274583
0.00271744
0.00280262
0.00277422
0.00285938
0.002831
0.00291612
0.00288774
0.00297294
0.00294449
0.00303053
0.00300171
0.00303017
0.00306083
0.00305971
0.00306153
0.00194483
0.00194566
0.00306059
0.00305897
0.00309008
0.00308895
0.00306175
0.00197525
0.001946
0.00191478
0.00191575
0.00305728
0.00308804
0.00311522
0.00308672
0.00300007
0.00302869
0.00294286
0.00297144
0.00288566
0.00291422
0.00282884
0.00285717
0.00277215
0.0028005
0.00271542
0.00274379
0.00265868
0.00268706
0.0026019
0.0026303
0.00254513
0.00257355
0.00248839
0.00251672
0.00243155
0.00245997
0.00237479
0.00240317
0.002318
0.0023464
0.00226119
0.00228959
0.00220437
0.00223278
0.00214754
0.00217596
0.00209069
0.00211912
0.00203338
0.00206208
0.00200441
0.00191377
0.00191503
0.00191418
0.00191401
0.00200572
0.00194694
0.00197651
0.0020636
0.00203476
0.00212059
0.00209203
0.00217749
0.00214905
0.00223438
0.00220594
0.00229125
0.00226281
0.00234811
0.00231968
0.00240497
0.00237654
0.0024618
0.00243339
0.00251866
0.00249023
0.00257545
0.00254705
0.00263227
0.00260389
0.00268907
0.00266068
0.00274586
0.00271747
0.00280263
0.00277425
0.00285938
0.00283101
0.00291609
0.00288774
0.00297281
0.00294444
0.00302972
0.00300122
0.00308764
0.00305856
0.00311806
0.00311657
0.00308952
0.00309085
0.00191638
0.00191721
0.00311749
0.00311927
0.00314913
0.0031455
0.00314691
0.00315751
0.00318862
0.00309049
0.00311138
0.0031356
0.00305631
0.00308474
0.00299925
0.00302776
0.0029423
0.00297072
0.00288548
0.00291394
0.00282881
0.00285713
0.00277211
0.00280046
0.00271538
0.00274375
0.00265863
0.00268701
0.00260188
0.00263026
0.0025451
0.00257349
0.00248832
0.00251671
0.00243152
0.00245992
0.00237474
0.00240314
0.00231795
0.00234635
0.00226114
0.00228955
0.00220432
0.00223273
0.00214749
0.00217591
0.00209064
0.00211907
0.00203359
0.0020621
0.00197605
0.00200493
0.0019175
0.00194684
0.00188559
0.00188777
0.00188657
0.00188459
0.00188483
0.00188522
0.0018847
0.00188756
0.00188624
0.00194806
0.00188952
0.00191873
0.00200631
0.00197731
0.00206373
0.00203509
0.00212064
0.00209218
0.00217754
0.00214909
0.00223442
0.00220598
0.0022913
0.00226286
0.00234816
0.00231973
0.00240501
0.00237659
0.00246185
0.00243343
0.00251868
0.00249026
0.0025755
0.00254709
0.00263231
0.00260391
0.00268911
0.00266071
0.0027459
0.0027175
0.00280267
0.00277429
0.00285942
0.00283105
0.00291614
0.00288779
0.00297282
0.00294449
0.0030295
0.00300116
0.00308647
0.0030579
0.00314407
0.00311525
0.00317447
0.00317296
0.00311841
0.00311956
0.00314622
0.00314796
0.00191843
0.00188903
0.00185803
0.00185924
0.00317833
0.00317574
0.00320637
0.00316286
0.00320334
0.00320195
0.00319186
0.00311907
0.00311108
0.00313731
0.00305584
0.00308393
0.00299879
0.00302734
0.00294211
0.00297044
0.00288544
0.00291379
0.00282877
0.00285711
0.00277206
0.00280042
0.00271533
0.0027437
0.00265859
0.00268696
0.00260183
0.00263021
0.00254506
0.00257345
0.00248828
0.00251667
0.00243149
0.00245989
0.0023747
0.00240309
0.0023179
0.0023463
0.00226109
0.0022895
0.00220428
0.00223269
0.00214744
0.00217586
0.0020906
0.00211902
0.00203371
0.00206215
0.00197653
0.0020051
0.0019475
0.00185632
0.00185811
0.00185702
0.00185566
0.00185604
0.00185621
0.00185591
0.00185686
0.00194898
0.00189037
0.00192001
0.00200665
0.00197793
0.00206378
0.00203529
0.00212069
0.00209224
0.00217759
0.00214914
0.00223447
0.00220603
0.00229134
0.00226291
0.0023482
0.00231977
0.00240505
0.00237663
0.00246189
0.00243347
0.00251872
0.0024903
0.00257553
0.00254713
0.00263234
0.00260394
0.00268914
0.00266075
0.00274593
0.00271754
0.00280271
0.00277433
0.00285946
0.00283109
0.00291619
0.00288783
0.00297288
0.00294454
0.00302952
0.00300121
0.00308617
0.00305784
0.00314303
0.00311443
0.00320059
0.00317179
0.00323105
0.00322961
0.00314671
0.003148
0.00185915
0.00186073
0.003176
0.00320662
0.00320703
0.00317626
0.00320427
0.00321862
0.00324405
0.00323693
0.00323213
0.00325992
0.00325884
0.00314749
0.00316671
0.00322405
0.00319605
0.00311155
0.00313885
0.00305557
0.00308395
0.00299877
0.00302715
0.00294212
0.00297045
0.00288544
0.00291378
0.00282874
0.00285709
0.00277202
0.00280039
0.00271529
0.00274366
0.00265854
0.00268692
0.00260178
0.00263016
0.00254501
0.0025734
0.00248823
0.00251662
0.00243144
0.00245984
0.00237465
0.00240305
0.00231786
0.00234626
0.00226105
0.00228946
0.00220423
0.00223264
0.0021474
0.00217582
0.00209056
0.00211898
0.0020337
0.00206213
0.00197669
0.00200523
0.00191899
0.00194795
0.00186003
0.00188984
0.00182857
0.00183013
0.00182914
0.00182759
0.00182795
0.00182731
0.00182731
0.0018275
0.00182739
0.0018287
0.00182799
0.00183126
0.00182981
0.0018914
0.00183271
0.00186213
0.00194957
0.0019207
0.00200689
0.00197829
0.00206384
0.00203538
0.00212074
0.00209229
0.00217764
0.00214919
0.00223452
0.00220608
0.00229138
0.00226295
0.00234824
0.00231981
0.00240509
0.00237667
0.00246192
0.00243351
0.00251875
0.00249034
0.00257557
0.00254716
0.00263238
0.00260398
0.00268918
0.00266078
0.00274597
0.00271758
0.00280275
0.00277436
0.0028595
0.00283113
0.00291623
0.00288787
0.00297293
0.00294459
0.0030296
0.00300127
0.00308621
0.00305792
0.00314281
0.00311449
0.00319952
0.00317117
0.00325711
0.00322818
0.0032877
0.00328619
0.00317558
0.00324983
0.00320519
0.00186109
0.0018317
0.00180167
0.00180286
0.00317625
0.00320448
0.00323468
0.00323271
0.00326091
0.00328889
0.00331646
0.00331504
0.0031759
0.00322528
0.00327693
0.00327971
0.00325252
0.00316817
0.0031972
0.00311184
0.00313973
0.00305554
0.00308393
0.0029988
0.00302715
0.00294212
0.00297046
0.00288542
0.00291377
0.00282871
0.00285706
0.00277199
0.00280035
0.00271525
0.00274362
0.0026585
0.00268687
0.00260174
0.00263012
0.00254496
0.00257335
0.00248819
0.00251658
0.0024314
0.00245979
0.00237461
0.00240301
0.00231781
0.00234621
0.00226101
0.00228941
0.00220419
0.0022326
0.00214736
0.00217578
0.00209052
0.00211894
0.00203366
0.00206209
0.00197678
0.00200523
0.00191942
0.00194815
0.00189035
0.00179935
0.00180065
0.00179987
0.00179894
0.00179917
0.001799
0.00179893
0.00179912
0.00179905
0.00179974
0.00179939
0.00180056
0.00189241
0.00183388
0.00186324
0.00194987
0.00192122
0.00200698
0.00197849
0.0020639
0.00203544
0.0021208
0.00209235
0.00217769
0.00214925
0.00223456
0.00220613
0.00229143
0.002263
0.00234828
0.00231986
0.00240513
0.00237671
0.00246196
0.00243355
0.00251879
0.00249038
0.00257561
0.0025472
0.00263242
0.00260401
0.00268922
0.00266082
0.00274601
0.00271762
0.00280278
0.0027744
0.00285954
0.00283117
0.00291627
0.00288791
0.00297298
0.00294463
0.00302966
0.00300132
0.0030863
0.00305798
0.00314288
0.0031146
0.0031994
0.00317115
0.0032562
0.00322768
0.00331365
0.00328486
0.00326602
0.00327174
0.00334393
0.00334244
0.0032043
0.0018024
0.00180408
0.00330655
0.00320445
0.00330521
0.0032334
0.00323272
0.00326155
0.00326099
0.0032892
0.00331722
0.00334499
0.00337259
0.00337123
0.00320431
0.00328102
0.00333383
0.00333602
0.00330855
0.00322528
0.00325337
0.00316865
0.00319697
0.00311195
0.00314018
0.00305549
0.00308384
0.00299879
0.00302713
0.00294209
0.00297044
0.00288539
0.00291374
0.00282867
0.00285703
0.00277195
0.00280031
0.00271521
0.00274358
0.00265845
0.00268683
0.00260169
0.00263007
0.00254492
0.00257331
0.00248814
0.00251653
0.00243135
0.00245975
0.00237456
0.00240296
0.00231777
0.00234617
0.00226096
0.00228937
0.00220415
0.00223256
0.00214732
0.00217574
0.00209049
0.00211891
0.00203363
0.00206206
0.00197676
0.0020052
0.00191971
0.0019483
0.001862
0.00189089
0.00180341
0.00183301
0.00177169
0.00177366
0.0017725
0.00177074
0.00177104
0.00177056
0.00177057
0.00177066
0.0017706
0.00177075
0.00177071
0.00177113
0.00177084
0.0017722
0.00177153
0.00177449
0.00177307
0.00183484
0.0017759
0.0018055
0.00189293
0.001864
0.0019501
0.00192161
0.00200704
0.00197858
0.00206396
0.0020355
0.00212086
0.00209241
0.00217774
0.0021493
0.00223461
0.00220618
0.00229147
0.00226304
0.00234832
0.0023199
0.00240516
0.00237674
0.002462
0.00243358
0.00251882
0.00249041
0.00257564
0.00254723
0.00263245
0.00260405
0.00268925
0.00266086
0.00274604
0.00271765
0.00280282
0.00277444
0.00285958
0.00283121
0.00291632
0.00288795
0.00297303
0.00294468
0.00302971
0.00300137
0.00308635
0.00305804
0.00314296
0.00311466
0.00319949
0.00317123
0.00325597
0.00322773
0.00331257
0.00328419
0.00336959
0.00334101
0.00329548
0.00330185
0.00339997
0.00339842
0.0032328
0.00323266
0.00336318
0.00336124
0.00333271
0.00326086
0.00326093
0.00180437
0.00177516
0.001745
0.00174632
0.00328945
0.00328917
0.00331735
0.00334546
0.00337341
0.00340106
0.00339011
0.00339206
0.00341906
0.00342863
0.00342738
0.0034175
0.0032326
0.00333804
0.00336538
0.00328119
0.00330933
0.00322518
0.00325347
0.00316852
0.00319675
0.00311201
0.00314027
0.00305543
0.00308376
0.00299876
0.0030271
0.00294207
0.00297041
0.00288536
0.00291372
0.00282864
0.002857
0.00277191
0.00280028
0.00271516
0.00274354
0.00265841
0.00268679
0.00260164
0.00263003
0.00254487
0.00257326
0.00248809
0.00251648
0.00243131
0.0024597
0.00237452
0.00240292
0.00231772
0.00234612
0.00226092
0.00228932
0.00220411
0.00223252
0.00214729
0.0021757
0.00209045
0.00211887
0.0020336
0.00206203
0.00197674
0.00200517
0.00191985
0.00194831
0.00186254
0.00189124
0.00183361
0.00174257
0.00174418
0.00174317
0.00174219
0.00174238
0.00174221
0.00174217
0.0017423
0.00174226
0.00174241
0.00174236
0.00174258
0.00174246
0.00174336
0.00174292
0.00174404
0.00183567
0.00177726
0.00180657
0.00189322
0.00186447
0.00195019
0.00192173
0.00200711
0.00197866
0.00206402
0.00203557
0.00212092
0.00209247
0.00217779
0.00214936
0.00223466
0.00220623
0.00229151
0.00226309
0.00234836
0.00231994
0.0024052
0.00237678
0.00246203
0.00243362
0.00251886
0.00249045
0.00257567
0.00254727
0.00263248
0.00260408
0.00268929
0.00266089
0.00274608
0.00271769
0.00280286
0.00277447
0.00285962
0.00283124
0.00291636
0.002888
0.00297308
0.00294472
0.00302976
0.00300142
0.00308641
0.00305809
0.00314301
0.00311472
0.00319955
0.00317129
0.003256
0.0032278
0.00331237
0.0032842
0.00336869
0.00334054
0.00342571
0.00339685
0.00338863
0.00345604
0.00345746
0.00348471
0.00348344
0.00345429
0.00332347
0.00333277
0.00326099
0.00326087
0.00174573
0.00174747
0.00336129
0.00328877
0.00328912
0.00331777
0.00331733
0.0033455
0.0033736
0.00340163
0.00342957
0.00344601
0.00344766
0.00347476
0.00348177
0.00351073
0.00351249
0.00347308
0.00344455
0.0034164
0.00348552
0.00351327
0.00326085
0.00339371
0.00342051
0.00333802
0.00336563
0.00328127
0.0033097
0.00322494
0.00325314
0.00316847
0.0031967
0.00311198
0.00314024
0.00305539
0.0030837
0.00299873
0.00302706
0.00294204
0.00297039
0.00288533
0.00291369
0.00282861
0.00285697
0.00277187
0.00280024
0.00271512
0.0027435
0.00265836
0.00268674
0.00260159
0.00262998
0.00254482
0.00257321
0.00248804
0.00251643
0.00243126
0.00245965
0.00237447
0.00240287
0.00231768
0.00234608
0.00226088
0.00228928
0.00220407
0.00223248
0.00214725
0.00217566
0.00209042
0.00211884
0.00203358
0.002062
0.00197672
0.00200515
0.00191985
0.00194829
0.00186281
0.00189139
0.0018053
0.0018341
0.00174685
0.00177614
0.00171512
0.00171731
0.00171613
0.00171395
0.00171427
0.00171378
0.00171379
0.00171385
0.00171382
0.00171394
0.00171389
0.00171405
0.00171399
0.0017142
0.00171411
0.00171463
0.00171441
0.00171577
0.00171507
0.00171772
0.00171667
0.00177801
0.00171901
0.00174871
0.00183618
0.00180725
0.00189334
0.00186484
0.00195027
0.00192181
0.00200719
0.00197873
0.00206409
0.00203564
0.00212098
0.00209254
0.00217785
0.00214941
0.00223471
0.00220628
0.00229156
0.00226314
0.0023484
0.00231998
0.00240524
0.00237682
0.00246207
0.00243365
0.00251889
0.00249048
0.00257571
0.0025473
0.00263252
0.00260411
0.00268932
0.00266092
0.00274611
0.00271772
0.0028029
0.00277451
0.00285966
0.00283128
0.00291641
0.00288804
0.00297313
0.00294477
0.00302981
0.00300148
0.00308647
0.00305815
0.00314307
0.00311478
0.00319961
0.00317135
0.00325608
0.00322786
0.00331244
0.00328428
0.00336864
0.00334056
0.00342481
0.00339675
0.00345268
0.00335067
0.00336075
0.00354095
0.00353925
0.00328908
0.00328908
0.00338884
0.00331683
0.00331729
0.00174765
0.00171835
0.00168812
0.00168917
0.003346
0.00334546
0.0033736
0.0034017
0.00342976
0.00345771
0.00350159
0.00350345
0.00353033
0.0035284
0.00350064
0.00347186
0.0034441
0.00351357
0.00354118
0.00356763
0.00356902
0.00328909
0.00344948
0.00347643
0.00339398
0.00342176
0.00333751
0.00336579
0.00328124
0.0033094
0.0032249
0.00325308
0.00316846
0.00319669
0.00311194
0.00314021
0.00305535
0.00308366
0.0029987
0.00302703
0.00294201
0.00297036
0.0028853
0.00291366
0.00282857
0.00285694
0.00277183
0.0028002
0.00271508
0.00274345
0.00265831
0.0026867
0.00260155
0.00262993
0.00254477
0.00257316
0.00248799
0.00251638
0.00243121
0.0024596
0.00237443
0.00240282
0.00231763
0.00234603
0.00226084
0.00228924
0.00220403
0.00223244
0.00214722
0.00217563
0.00209039
0.00211881
0.00203356
0.00206198
0.0019767
0.00200513
0.00191984
0.00194827
0.00186294
0.0018914
0.00180576
0.00183433
0.00177687
0.00168605
0.00168773
0.00168682
0.00168541
0.00168569
0.00168542
0.00168539
0.00168548
0.00168545
0.00168556
0.00168552
0.00168568
0.00168562
0.00168582
0.00168575
0.00168603
0.00168591
0.00168667
0.00168632
0.00168724
0.00177871
0.00172017
0.00174967
0.00183647
0.00180763
0.00189343
0.00186497
0.00195036
0.0019219
0.00200727
0.00197881
0.00206416
0.00203572
0.00212104
0.0020926
0.0021779
0.00214947
0.00223475
0.00220633
0.0022916
0.00226318
0.00234844
0.00232002
0.00240527
0.00237686
0.0024621
0.00243369
0.00251892
0.00249051
0.00257574
0.00254733
0.00263255
0.00260414
0.00268935
0.00266095
0.00274615
0.00271775
0.00280293
0.00277454
0.0028597
0.00283132
0.00291645
0.00288808
0.00297318
0.00294482
0.00302987
0.00300153
0.00308653
0.0030582
0.00314313
0.00311484
0.00319968
0.00317141
0.00325614
0.00322792
0.00331251
0.00328434
0.00336875
0.00334065
0.00342479
0.00339682
0.0034807
0.00345275
0.00353732
0.003509
0.00359579
0.00359419
0.00356554
0.00337838
0.00338913
0.00331723
0.00331726
0.00168874
0.00169048
0.0034169
0.00334497
0.00334543
0.00337416
0.00337358
0.00340169
0.00342976
0.00345777
0.00348569
0.00355687
0.00355889
0.00358522
0.00359243
0.00362046
0.00362282
0.0035836
0.00355586
0.00352757
0.0034999
0.00347198
0.00354142
0.00356904
0.00359667
0.00362363
0.00331728
0.00350555
0.00353256
0.00344991
0.00347705
0.00339362
0.00342204
0.00333746
0.00336555
0.00328124
0.00330937
0.0032249
0.00325308
0.00316845
0.00319668
0.00311192
0.00314019
0.00305532
0.00308363
0.00299867
0.003027
0.00294198
0.00297033
0.00288527
0.00291363
0.00282853
0.0028569
0.00277179
0.00280016
0.00271503
0.00274341
0.00265827
0.00268665
0.0026015
0.00262988
0.00254472
0.00257311
0.00248794
0.00251633
0.00243116
0.00245955
0.00237438
0.00240277
0.00231759
0.00234598
0.00226079
0.00228919
0.00220399
0.00223239
0.00214718
0.00217559
0.00209036
0.00211878
0.00203353
0.00206195
0.00197669
0.00200511
0.00191983
0.00194826
0.00186296
0.00189139
0.00180603
0.00183449
0.00174829
0.0017772
0.00168949
0.0017192
0.00165833
0.00165982
0.00165886
0.00165733
0.00165772
0.00165698
0.00165702
0.00165704
0.00165702
0.0016571
0.00165707
0.00165719
0.00165714
0.0016573
0.00165724
0.00165745
0.00165738
0.00165763
0.00165754
0.00165793
0.00165774
0.00165904
0.0016584
0.0016612
0.00165997
0.00172116
0.00166264
0.00169216
0.00177926
0.00175037
0.00183659
0.00180797
0.00189353
0.00186506
0.00195044
0.00192199
0.00200734
0.0019789
0.00206423
0.00203579
0.0021211
0.00209267
0.00217795
0.00214953
0.0022348
0.00220638
0.00229164
0.00226322
0.00234848
0.00232006
0.0024053
0.00237689
0.00246213
0.00243372
0.00251895
0.00249054
0.00257576
0.00254736
0.00263258
0.00260417
0.00268938
0.00266098
0.00274618
0.00271778
0.00280297
0.00277458
0.00285974
0.00283136
0.0029165
0.00288812
0.00297323
0.00294487
0.00302993
0.00300158
0.00308659
0.00305826
0.0031432
0.0031149
0.00319974
0.00317148
0.00325621
0.00322799
0.00331258
0.00328441
0.00336882
0.00334072
0.00342489
0.00339688
0.00348075
0.00345286
0.00353636
0.00350862
0.00356391
0.00340613
0.00341723
0.00365078
0.0036495
0.00334535
0.00334542
0.00344489
0.00337307
0.00337356
0.00169056
0.00166132
0.00163178
0.00163286
0.00340229
0.00340168
0.00342975
0.00345778
0.00348575
0.00351364
0.00361146
0.0036131
0.00363889
0.00363814
0.00361069
0.00358289
0.00355548
0.00352771
0.00349996
0.00356923
0.00359676
0.00362418
0.0036514
0.00367707
0.00367792
0.00334542
0.00356041
0.00358693
0.00350555
0.0035333
0.00344951
0.00347759
0.00339356
0.00342159
0.00333749
0.00336554
0.00328125
0.00330939
0.0032249
0.00325309
0.00316844
0.00319668
0.0031119
0.00314018
0.0030553
0.00308361
0.00299865
0.00302698
0.00294195
0.0029703
0.00288523
0.0029136
0.00282849
0.00285687
0.00277174
0.00280012
0.00271498
0.00274337
0.00265822
0.0026866
0.00260144
0.00262983
0.00254467
0.00257306
0.00248789
0.00251628
0.00243111
0.0024595
0.00237433
0.00240272
0.00231754
0.00234594
0.00226075
0.00228915
0.00220395
0.00223235
0.00214715
0.00217555
0.00209034
0.00211875
0.00203351
0.00206193
0.00197668
0.0020051
0.00191983
0.00194825
0.00186296
0.00189139
0.00180608
0.00183452
0.00174875
0.00177745
0.00171972
0.00162914
0.0016303
0.00162962
0.00162867
0.00162893
0.00162862
0.0016286
0.00162866
0.00162864
0.00162871
0.00162868
0.0016288
0.00162875
0.00162892
0.00162885
0.00162908
0.00162899
0.00162927
0.00162917
0.0016295
0.00162937
0.00163011
0.00162979
0.00163073
0.00172199
0.0016637
0.00169314
0.0017796
0.0017509
0.0018367
0.00180821
0.00189363
0.00186517
0.00195053
0.00192208
0.00200742
0.00197898
0.0020643
0.00203586
0.00212116
0.00209273
0.00217801
0.00214959
0.00223485
0.00220643
0.00229168
0.00226327
0.00234851
0.0023201
0.00240534
0.00237692
0.00246216
0.00243375
0.00251897
0.00249057
0.00257579
0.00254738
0.0026326
0.0026042
0.00268941
0.00266101
0.00274621
0.00271781
0.002803
0.00277461
0.00285978
0.00283139
0.00291654
0.00288817
0.00297328
0.00294492
0.00302999
0.00300164
0.00308665
0.00305833
0.00314327
0.00311497
0.00319982
0.00317156
0.00325629
0.00322807
0.00331265
0.00328449
0.00336888
0.00334079
0.00342495
0.00339694
0.00348082
0.00345292
0.00353635
0.00350864
0.00359156
0.003564
0.00364753
0.00361912
0.00370498
0.00370294
0.00367493
0.0034339
0.00344528
0.00337344
0.00337354
0.00163203
0.00163421
0.00347307
0.00340115
0.00340166
0.0034304
0.00342975
0.00345779
0.00348578
0.0035137
0.00354153
0.00366526
0.00366726
0.00369303
0.00370159
0.00372904
0.00373068
0.00369192
0.00366498
0.00363758
0.0036106
0.00358317
0.00355565
0.00352796
0.00359698
0.00362442
0.00365168
0.00367886
0.00370528
0.003732
0.00337354
0.00361582
0.00364195
0.003561
0.00358774
0.00350512
0.00353342
0.00344946
0.00347732
0.00339359
0.00342155
0.00333751
0.00336557
0.00328127
0.00330941
0.0032249
0.0032531
0.00316844
0.00319668
0.00311189
0.00314018
0.00305528
0.0030836
0.00299862
0.00302696
0.00294192
0.00297028
0.0028852
0.00291357
0.00282846
0.00285683
0.0027717
0.00280008
0.00271494
0.00274332
0.00265817
0.00268655
0.00260139
0.00262978
0.00254461
0.002573
0.00248784
0.00251623
0.00243106
0.00245945
0.00237428
0.00240267
0.00231749
0.00234589
0.00226071
0.0022891
0.00220391
0.00223231
0.00214712
0.00217552
0.00209031
0.00211872
0.0020335
0.00206191
0.00197667
0.00200508
0.00191982
0.00194825
0.00186296
0.0018914
0.00180609
0.00183453
0.00174904
0.00177762
0.00169141
0.00172024
0.00163284
0.00166238
0.00160144
0.00160277
0.00160211
0.00160051
0.00160083
0.00160024
0.00160031
0.00160024
0.00160023
0.00160026
0.00160025
0.00160031
0.00160028
0.0016004
0.00160035
0.00160053
0.00160046
0.00160069
0.0016006
0.00160089
0.00160078
0.0016011
0.00160099
0.00160142
0.00160123
0.00160259
0.0016019
0.00160496
0.00160361
0.0016647
0.00160631
0.00163559
0.00172261
0.00169387
0.00177986
0.00175123
0.00183682
0.00180835
0.00189373
0.00186528
0.00195063
0.00192218
0.00200751
0.00197907
0.00206437
0.00203594
0.00212122
0.0020928
0.00217806
0.00214964
0.00223489
0.00220648
0.00229172
0.00226331
0.00234854
0.00232013
0.00240536
0.00237696
0.00246218
0.00243378
0.002519
0.00249059
0.00257581
0.00254741
0.00263263
0.00260422
0.00268944
0.00266103
0.00274624
0.00271784
0.00280304
0.00277464
0.00285982
0.00283143
0.00291659
0.00288821
0.00297333
0.00294496
0.00303005
0.00300169
0.00308672
0.00305839
0.00314335
0.00311504
0.0031999
0.00317163
0.00325637
0.00322815
0.00331274
0.00328457
0.00336896
0.00334087
0.00342502
0.00339702
0.00348087
0.00345298
0.00353642
0.00350869
0.00359156
0.00356407
0.00364631
0.00361901
0.00367348
0.00346168
0.00347325
0.00375844
0.00375725
0.00340152
0.00340164
0.00350096
0.00342922
0.00342974
0.00163384
0.0016049
0.00157559
0.00157691
0.00345851
0.0034578
0.00348581
0.00351375
0.00354161
0.00356937
0.00371911
0.00372061
0.00374595
0.00374435
0.00371878
0.00369169
0.00366515
0.00363777
0.00361067
0.0035832
0.00355567
0.00362468
0.00365201
0.00367915
0.00370593
0.0037327
0.00375894
0.00378396
0.00378494
0.00340163
0.00366947
0.00369431
0.00361631
0.00364358
0.00356083
0.00358791
0.0035051
0.00353319
0.0034495
0.00347732
0.00339363
0.0034216
0.00333754
0.00336561
0.00328129
0.00330944
0.00322492
0.00325312
0.00316845
0.0031967
0.00311189
0.00314018
0.00305527
0.00308359
0.0029986
0.00302694
0.0029419
0.00297026
0.00288517
0.00291353
0.00282842
0.00285679
0.00277165
0.00280004
0.00271489
0.00274327
0.00265811
0.0026865
0.00260134
0.00262973
0.00254456
0.00257295
0.00248778
0.00251617
0.002431
0.00245939
0.00237422
0.00240261
0.00231744
0.00234584
0.00226066
0.00228905
0.00220388
0.00223227
0.00214708
0.00217548
0.00209029
0.00211869
0.00203348
0.00206188
0.00197666
0.00200507
0.00191983
0.00194824
0.00186298
0.0018914
0.00180611
0.00183454
0.00174921
0.00177767
0.00169191
0.00172053
0.00166299
0.00157242
0.00157342
0.00157291
0.00157196
0.00157219
0.00157186
0.00157189
0.00157185
0.00157185
0.00157186
0.00157185
0.00157191
0.00157188
0.001572
0.00157195
0.00157212
0.00157206
0.00157229
0.0015722
0.00157249
0.00157238
0.00157273
0.00157261
0.001573
0.00157285
0.0015737
0.00157332
0.00157448
0.00166562
0.00160756
0.00163664
0.00172303
0.00169432
0.00178001
0.00175152
0.00183694
0.00180848
0.00189384
0.00186539
0.00195072
0.00192228
0.00200759
0.00197916
0.00206444
0.00203602
0.00212128
0.00209286
0.00217811
0.0021497
0.00223494
0.00220653
0.00229176
0.00226335
0.00234858
0.00232017
0.00240539
0.00237699
0.00246221
0.0024338
0.00251902
0.00249062
0.00257583
0.00254743
0.00263265
0.00260424
0.00268946
0.00266106
0.00274627
0.00271786
0.00280307
0.00277467
0.00285986
0.00283146
0.00291663
0.00288825
0.00297338
0.00294501
0.00303011
0.00300175
0.00308679
0.00305846
0.00314343
0.00311512
0.00319999
0.00317172
0.00325647
0.00322825
0.00331284
0.00328467
0.00336907
0.00334098
0.00342512
0.00339712
0.00348094
0.00345306
0.00353647
0.00350875
0.00359163
0.00356411
0.00364627
0.00361905
0.00370039
0.00367343
0.00375532
0.00372724
0.00381048
0.00380915
0.00378226
0.00348942
0.00350127
0.00342958
0.00342972
0.00157548
0.00157793
0.00352884
0.00345727
0.00345779
0.00348659
0.00348582
0.0035138
0.00354169
0.00356948
0.00359716
0.00377098
0.0037733
0.00379821
0.00379814
0.00377163
0.00374528
0.00371918
0.00369208
0.00366527
0.00363813
0.00361081
0.0035834
0.0036523
0.0036795
0.00370646
0.00373317
0.0037595
0.0037854
0.00381099
0.0038069
0.00383627
0.00383379
0.00342971
0.0037236
0.00374758
0.00367002
0.00369624
0.00361592
0.00364327
0.00356044
0.00358823
0.00350516
0.00353286
0.00344956
0.0034774
0.00339368
0.00342166
0.00333759
0.00336566
0.00328133
0.00330948
0.00322495
0.00325316
0.00316846
0.00319672
0.0031119
0.00314019
0.00305527
0.00308359
0.00299859
0.00302693
0.00294187
0.00297023
0.00288513
0.0029135
0.00282837
0.00285676
0.00277161
0.00279999
0.00271483
0.00274322
0.00265806
0.00268645
0.00260128
0.00262967
0.0025445
0.00257289
0.00248772
0.00251611
0.00243095
0.00245933
0.00237417
0.00240256
0.00231739
0.00234578
0.00226062
0.00228901
0.00220384
0.00223223
0.00214705
0.00217544
0.00209026
0.00211866
0.00203346
0.00206186
0.00197665
0.00200506
0.00191983
0.00194824
0.00186299
0.00189141
0.00180613
0.00183456
0.00174926
0.0017777
0.00169218
0.0017207
0.00163467
0.00166354
0.00157604
0.00160558
0.00154475
0.00154634
0.00154548
0.00154382
0.00154418
0.00154352
0.0015436
0.00154347
0.00154349
0.00154344
0.00154345
0.00154345
0.00154344
0.0015435
0.00154347
0.00154359
0.00154354
0.00154371
0.00154364
0.00154388
0.00154379
0.00154409
0.00154398
0.00154433
0.0015442
0.0015446
0.00154447
0.00154511
0.00154477
0.00154632
0.00154556
0.00154854
0.00154724
0.00160829
0.00154975
0.00157908
0.00166611
0.00163731
0.00172323
0.00169472
0.00178015
0.00175169
0.00183706
0.00180861