/*--------------------------------*- C++ -*----------------------------------*\
  =========                 |
  \\      /  F ield         | OpenFOAM: The Open Source CFD Toolbox
   \\    /   O peration     | Website:  https://openfoam.org
    \\  /    A nd           | Version:  10
     \\/     M anipulation  |
\*---------------------------------------------------------------------------*/
FoamFile
{
    format      ascii;
    class       volVectorField;
    location    "10.5";
    object      U;
}
// * * * * * * * * * * * * * * * * * * * * * * * * * * * * * * * * * * * * * //

dimensions      [0 1 -1 0 0 0 0];

internalField   nonuniform List<vector> 
28942
(
(0.00656473 -0.003692 -2.14676e-22)
(0.00874967 -0.00448846 -3.25348e-23)
(0.0186552 -0.0128309 -1.18278e-21)
(0.103309 0.0182094 -6.37424e-21)
(0.10235 0.0222529 2.07689e-21)
(0.0315653 0.00137126 0)
(0.0376253 0.00123373 2.9057e-23)
(0.0427759 0.00173213 -2.55982e-23)
(0.132068 -0.0104221 -4.45193e-22)
(0.130519 -0.00919341 1.25107e-21)
(0.0168756 0.0109101 -2.16389e-22)
(0.0244444 0.01319 2.82124e-23)
(0.0119467 0.0077228 0)
(0.00902362 0.00624607 0)
(0.0823094 0.00232608 -3.57181e-23)
(0.0803402 0.0036224 -1.04982e-23)
(0.089511 0.0159748 7.83598e-22)
(0.0871797 0.0139724 1.25543e-21)
(0.0122565 -0.0151929 3.74144e-21)
(0.0295921 -0.030617 -9.88106e-22)
(0.0986955 0.0371171 1.14561e-21)
(0.0977987 0.0342471 0)
(0.0235883 0.00798602 9.1896e-22)
(0.0103838 0.0039401 3.84207e-22)
(0.0434017 0.0105952 6.95241e-22)
(0.0640839 0.00589466 -6.338e-22)
(0.00766886 -0.0183717 9.58962e-21)
(0.00670932 -0.0164417 -3.50729e-21)
(0.0362726 -0.0256648 8.17327e-22)
(0.0196761 -0.0138845 2.88215e-22)
(0.0323014 -0.0032475 0)
(0.040302 -0.00338343 -2.71573e-23)
(0.0494078 0.00694846 6.52859e-22)
(0.0666158 0.00197553 -1.27635e-22)
(0.0190858 0.0182018 1.59409e-21)
(0.0159134 0.0193121 -1.68997e-21)
(0.0325504 0.0379595 -3.53687e-21)
(0.0188594 0.0308345 -1.19061e-21)
(0.0181234 0.000640534 -2.30508e-23)
(0.00874587 0.0163607 -2.96868e-21)
(0.0306556 -0.00619966 0)
(0.0513557 -0.0109625 0)
(0.104686 -0.00596801 -6.20494e-23)
(0.104717 -0.00559419 1.82315e-22)
(0.105109 -0.00606143 1.59132e-22)
(0.0579258 0.00119588 2.74201e-23)
(0.0542613 6.1738e-05 -4.67932e-23)
(0.0727441 -0.000109573 -1.81973e-22)
(0.0703247 -0.000136327 5.04681e-23)
(0.0594654 -0.00392968 -4.68061e-22)
(0.0467594 -0.0054262 2.94611e-22)
(0.119893 0.00409454 -7.40163e-22)
(0.120014 0.00363978 -6.66577e-22)
(0.132159 -0.0137888 -4.11938e-24)
(0.130422 -0.0125122 2.31226e-22)
(0.0956218 0.0171095 4.55825e-22)
(0.114306 0.0102492 7.1954e-23)
(0.00552849 0.00373841 -3.31488e-22)
(0.0136406 0.00776117 0)
(0.0119507 0.00623664 1.66376e-22)
(0.00489126 0.00311846 2.82716e-22)
(0.00107339 0.000794711 -2.33097e-22)
(0.000901467 0.000723432 -2.02861e-22)
(0.11468 -0.0411397 0)
(0.11171 -0.0230415 3.57805e-23)
(0.127623 -0.0286666 9.28986e-24)
(0.127547 -0.0404025 0)
(0.0904141 -0.0325131 -7.52563e-22)
(0.0939627 -0.0349132 -4.98227e-22)
(0.0029533 -0.00178485 6.94991e-22)
(0.00382957 -0.00294652 -2.28119e-22)
(0.00700486 -0.00468444 5.7646e-22)
(0.0853555 -0.0453177 0)
(0.0916233 -0.0392146 2.57321e-21)
(0.0811299 -0.0525542 7.00105e-22)
(0.123716 0.00450057 9.35748e-24)
(0.123678 -0.00320596 -2.55866e-23)
(0.133532 -0.000477398 1.26763e-22)
(0.00486207 -0.0029675 -7.52772e-23)
(0.006582 -0.0045861 7.30059e-22)
(0.0530054 -0.0317489 2.26154e-22)
(0.0346906 -0.0212442 -3.27843e-22)
(0.00275612 -0.00105856 2.84757e-21)
(0.00634895 -0.00283798 -1.11708e-21)
(0.104907 0.047585 7.44023e-23)
(0.099881 0.054915 -1.01646e-21)
(0.0827834 0.0542702 9.47784e-22)
(0.0483868 0.0350256 -3.48592e-21)
(0.0456515 0.0321726 2.47176e-21)
(0.0302294 0.0209991 -1.58022e-22)
(0.0334717 0.0236615 -8.06428e-22)
(0.038794 0.0287913 1.10359e-21)
(0.0122481 0.0086968 2.17736e-23)
(0.0171974 0.0118912 2.0486e-24)
(0.00830141 0.00680658 -4.10514e-24)
(0.00651327 0.00572714 9.33868e-23)
(0.00603052 0.0052399 -1.47628e-22)
(0.0160617 0.0117435 -4.14116e-21)
(0.0178195 0.0138388 9.6481e-22)
(0.0104096 -0.00479506 0)
(0.101389 0.00515488 0)
(0.0984001 0.0156735 -4.61825e-21)
(0.0604777 0.0104726 2.48896e-21)
(0.0887324 0.0178653 0)
(0.128009 -0.018492 0)
(0.126988 -0.0192066 0)
(0.127117 -0.0202516 -1.19677e-21)
(0.115138 0.0253246 -2.82233e-22)
(0.114311 0.0268414 2.75336e-21)
(0.113462 0.0244545 1.4778e-21)
(0.00479123 0.00360533 5.57464e-22)
(0.00381686 0.00291318 -6.25701e-22)
(0.0253797 -0.0100271 -3.28765e-22)
(0.0284362 -0.0115692 2.2711e-22)
(0.0141106 -0.00683501 3.74093e-22)
(0.00650817 0.0113166 1.64045e-21)
(0.01905 0.0184102 3.86488e-21)
(0.0135631 0.0230551 2.74769e-22)
(0.00495451 0.0144702 -9.61313e-21)
(0.121051 0.0456926 8.66574e-23)
(0.110214 0.0571314 1.47629e-21)
(0.121056 0.0529011 -2.55047e-21)
(0.0397448 -0.0297102 9.27187e-22)
(0.0243879 -0.0174715 -6.34247e-22)
(0.00531405 -0.000606052 -4.5614e-21)
(0.00453227 -0.00346415 0)
(0.0125034 -0.00147667 2.25248e-21)
(0.0222554 -0.0162939 9.55791e-22)
(0.0347096 -0.0280041 -2.46737e-21)
(0.069776 0.000497529 1.37668e-22)
(0.0731362 0.000609224 -8.72254e-23)
(0.0663475 0.000715037 -4.17955e-24)
(0.0282905 -0.0420259 0)
(0.0298164 -0.0427907 0)
(0.0897182 -0.0185953 -5.99333e-22)
(0.0996922 -0.0220056 3.99857e-21)
(0.0870521 -0.0252677 0)
(0.0477365 -0.0403716 0)
(0.0588892 -0.0514019 -9.7407e-22)
(0.0418913 0.0396941 2.42386e-21)
(0.00156586 0.00169577 6.78091e-23)
(0.0010836 0.00139522 5.93332e-24)
(0.0225565 -0.0193842 -9.8078e-22)
(0.105613 -0.006419 9.29369e-22)
(0.105542 -0.00609779 -1.71703e-22)
(0.126022 0.00675359 1.5763e-23)
(0.120162 0.0154809 -2.10072e-23)
(0.127279 0.0150177 -2.81794e-22)
(0.00135437 0.00142896 5.37685e-23)
(0.0446411 0.0348459 3.92386e-21)
(0.063286 0.04673 -9.78322e-22)
(0.0611198 0.0399457 -4.23811e-24)
(0.0487518 -0.00181457 1.06121e-23)
(0.0481933 -0.00210585 5.94415e-23)
(0.0517985 -0.00260747 3.83827e-24)
(0.0570247 -0.00185006 -3.06436e-23)
(0.0462112 0.0384728 1.38376e-22)
(0.0192677 0.016257 0)
(0.00169036 -0.00143375 1.69908e-24)
(0.00229638 -0.00224614 -2.269e-24)
(0.006171 -0.00470479 -6.0826e-23)
(0.0424331 -0.0109203 -1.57311e-21)
(0.0728696 -0.00575932 -5.95826e-22)
(0.0643067 -0.00166003 -1.08313e-24)
(0.0802099 -0.0060327 2.34041e-22)
(0.0753349 -0.0152829 -1.45278e-22)
(0.0949134 0.0397092 2.56089e-21)
(0.092115 0.0452059 9.73109e-23)
(0.0890952 0.02915 1.43493e-21)
(0.0918553 0.0308258 -1.03988e-21)
(0.0993558 0.0407058 0)
(0.119651 -0.00252018 2.53272e-22)
(0.119674 -0.0029962 4.94772e-22)
(0.124932 -0.00699443 -4.87732e-22)
(0.125893 -0.00616187 8.43914e-22)
(0.117012 0.022497 3.56447e-22)
(0.118998 0.022952 -1.01451e-21)
(0.117153 0.0245002 0)
(0.115225 0.0235982 2.04032e-22)
(0.116839 0.026492 0)
(0.117711 0.0342423 -7.31984e-22)
(0.116363 0.0364709 -3.90918e-22)
(0.11215 0.0407003 -6.90287e-22)
(0.114474 0.038627 0)
(0.117365 0.0411934 2.34807e-21)
(0.114714 0.0433995 4.65913e-23)
(0.109214 0.0431041 -3.79374e-22)
(0.100633 0.0496042 -1.59299e-21)
(0.0992032 0.0449998 -2.78982e-22)
(0.046454 -0.0238547 -2.2159e-22)
(0.0552678 -0.026653 8.57856e-23)
(0.0111245 -0.00683261 -2.91986e-22)
(0.0636231 0.000496134 -9.63977e-23)
(0.0768466 5.32244e-05 0)
(0.000618904 -0.000570657 6.95534e-23)
(0.000584569 -0.000511304 2.33959e-23)
(0.0710347 -0.00235268 4.0909e-23)
(0.0802123 -0.00218609 1.34573e-23)
(0.0795753 -0.00122606 0)
(0.069239 -0.000572876 1.70178e-23)
(0.106289 0.000351071 -1.99294e-22)
(0.106278 0.000305862 9.56649e-22)
(0.106335 0.000315515 4.67276e-22)
(0.00254378 0.00199784 1.60922e-22)
(0.000315422 0.000293904 -2.87093e-22)
(0.000338761 0.000277416 1.7202e-22)
(0.00259062 0.00144821 0)
(0.000337278 0.000320488 8.80148e-22)
(0.000508731 0.000185715 -5.32081e-22)
(0.00948767 0.00487712 -7.66986e-22)
(0.00207437 0.00115218 -1.0072e-21)
(0.00234547 0.00120669 0)
(0.00158147 0.00763705 0)
(0.00058131 0.00332008 0)
(0.000315316 0.00200219 0)
(0.127103 -0.017777 2.11545e-22)
(0.126569 -0.0169686 0)
(0.126087 -0.0184978 -2.40705e-22)
(0.0882458 -0.0147186 5.17404e-21)
(0.0902564 -0.0151196 -1.87972e-21)
(0.0891588 -0.0127453 0)
(0.107239 7.81016e-06 -1.17299e-23)
(0.107264 7.91604e-06 2.3478e-23)
(0.107214 8.34767e-06 -7.929e-24)
(0.107287 8.01731e-06 0)
(0.107309 8.4085e-06 -1.49913e-23)
(0.107331 8.16664e-06 0)
(0.107329 -1.47713e-05 0)
(0.107351 7.13763e-06 5.56715e-23)
(0.107349 -1.53595e-05 0)
(0.107309 -1.53409e-05 -1.5087e-23)
(0.107287 -1.6172e-05 0)
(0.107263 -1.71883e-05 7.85329e-24)
(0.107239 -1.83838e-05 -1.17262e-23)
(0.107213 -1.96833e-05 7.91908e-24)
(0.107369 6.34167e-06 -5.32731e-23)
(0.107368 -1.55308e-05 -1.86553e-24)
(0.107187 8.53289e-06 9.25626e-28)
(0.107186 -2.06896e-05 -1.21043e-23)
(0.107158 8.72731e-06 6.4354e-23)
(0.107387 5.98906e-06 4.98412e-26)
(0.107387 -1.50601e-05 -1.86841e-24)
(0.107158 -2.16536e-05 2.38493e-23)
(0.107404 5.47895e-06 5.02234e-23)
(0.10742 4.9262e-06 -5.01821e-23)
(0.107404 -1.45898e-05 3.76085e-24)
(0.10742 -1.41413e-05 7.43948e-24)
(0.107128 1.04018e-05 -6.26133e-23)
(0.107128 -2.32638e-05 -1.56958e-23)
(0.107436 4.38142e-06 0)
(0.107436 -1.37322e-05 -7.33785e-24)
(0.107097 1.1086e-05 7.73938e-27)
(0.107097 -2.44239e-05 -7.75879e-27)
(0.10745 3.85638e-06 0)
(0.107451 -1.33038e-05 0)
(0.107065 1.18071e-05 0)
(0.107065 -2.56267e-05 0)
(0.107464 3.34535e-06 0)
(0.107465 -1.29375e-05 3.53058e-24)
(0.107031 1.28292e-05 -3.24531e-23)
(0.10703 -2.65501e-05 -7.92076e-27)
(0.107478 2.83461e-06 1.85131e-25)
(0.107478 -1.25197e-05 -3.77074e-24)
(0.106995 1.41055e-05 3.26082e-23)
(0.106994 -2.7362e-05 0)
(0.107491 2.32145e-06 0)
(0.107491 -1.21433e-05 0)
(0.106956 1.59062e-05 -2.06284e-24)
(0.106956 -2.78461e-05 3.53981e-23)
(0.107503 1.74832e-06 2.29256e-23)
(0.107503 -1.16612e-05 0)
(0.106916 1.77873e-05 -1.70497e-25)
(0.106916 -2.85836e-05 -3.35032e-23)
(0.107514 1.01182e-06 -3.42983e-23)
(0.107514 -1.12891e-05 -9.95769e-24)
(0.106873 1.89276e-05 3.41612e-23)
(0.106873 -2.91251e-05 0)
(0.107525 1.63957e-07 1.13019e-23)
(0.107525 -1.0919e-05 6.64164e-24)
(0.106828 2.08188e-05 -1.72853e-23)
(0.106829 -3.01718e-05 3.5057e-23)
(0.107535 -7.09827e-07 -4.51962e-23)
(0.107536 -9.98271e-06 5.09403e-23)
(0.10678 2.11162e-05 1.78314e-23)
(0.10678 -3.09279e-05 5.64328e-25)
(0.107546 -1.61824e-06 0)
(0.107546 -9.55452e-06 2.4302e-23)
(0.106728 2.20961e-05 -3.58707e-23)
(0.106729 -3.24154e-05 7.17685e-23)
(0.107556 -1.67298e-06 0)
(0.107556 -9.93994e-06 0)
(0.106782 7.17387e-05 -1.76441e-23)
(0.10673 7.59784e-05 -7.144e-23)
(0.106673 2.27002e-05 0)
(0.106675 -3.4838e-05 -3.65775e-23)
(0.106876 6.30065e-05 -1.10902e-23)
(0.10683 6.75274e-05 2.1766e-24)
(0.106959 5.48689e-05 0)
(0.106918 5.90282e-05 -3.57826e-23)
(0.107033 4.83361e-05 -6.9102e-26)
(0.106997 5.14169e-05 0)
(0.1071 4.29984e-05 0)
(0.107068 4.55622e-05 0)
(0.107161 3.82259e-05 0)
(0.107132 4.0513e-05 0)
(0.107216 3.54163e-05 1.56669e-23)
(0.107189 3.69775e-05 3.94658e-24)
(0.107265 3.26932e-05 -1.51112e-23)
(0.107241 3.41067e-05 -1.56483e-23)
(0.107311 2.98076e-05 2.68558e-23)
(0.107288 3.0944e-05 3.4339e-23)
(0.107352 2.68785e-05 0)
(0.107332 2.84613e-05 0)
(0.107388 2.35654e-05 -1.1826e-25)
(0.107371 2.52349e-05 0)
(0.107422 2.05425e-05 0)
(0.107405 2.20118e-05 0)
(0.107452 1.77268e-05 0)
(0.107437 1.91112e-05 0)
(0.107479 1.51624e-05 0)
(0.107466 1.64211e-05 0)
(0.107503 1.28705e-05 0)
(0.107491 1.3995e-05 0)
(0.107526 1.07641e-05 0)
(0.107515 1.17921e-05 0)
(0.107546 8.15371e-06 -1.84951e-23)
(0.107536 9.7734e-06 0)
(0.107556 6.9116e-06 -5.98408e-24)
(0.107566 -2.12996e-06 5.83843e-24)
(0.107565 -9.97849e-06 -5.78985e-24)
(0.107536 -2.01478e-05 0)
(0.107556 -1.84317e-05 -2.3752e-23)
(0.107546 -1.89899e-05 -1.22129e-23)
(0.107515 -2.27062e-05 3.33662e-24)
(0.107526 -2.13056e-05 -1.30753e-23)
(0.107491 -2.48738e-05 1.07992e-25)
(0.107503 -2.39596e-05 0)
(0.107465 -2.66419e-05 0)
(0.107478 -2.57375e-05 0)
(0.107436 -2.86025e-05 0)
(0.107451 -2.75828e-05 0)
(0.107404 -3.0904e-05 0)
(0.107421 -2.96881e-05 1.41766e-29)
(0.107369 -3.36696e-05 1.19451e-25)
(0.107387 -3.22007e-05 0)
(0.10733 -3.7364e-05 0)
(0.10735 -3.55671e-05 0)
(0.107287 -4.04821e-05 0)
(0.107309 -3.90038e-05 0)
(0.10724 -4.44003e-05 0)
(0.107264 -4.215e-05 -7.93814e-24)
(0.107188 -4.94774e-05 2.0813e-24)
(0.107214 -4.74236e-05 -1.02322e-23)
(0.10713 -5.54978e-05 0)
(0.10716 -5.20056e-05 -8.32222e-24)
(0.107067 -6.11662e-05 0)
(0.107099 -5.83685e-05 0)
(0.106996 -6.68861e-05 0)
(0.107032 -6.40005e-05 0)
(0.106918 -7.29268e-05 0)
(0.106958 -6.99167e-05 0)
(0.106831 -7.90752e-05 -9.05531e-24)
(0.106876 -7.57419e-05 0)
(0.106733 -8.63698e-05 -3.67254e-23)
(0.106783 -8.23066e-05 -9.11067e-24)
(0.106679 -9.12389e-05 3.73936e-23)
(0.106675 8.04726e-05 7.08252e-23)
(0.107566 6.03106e-06 1.17149e-23)
(0.107565 -1.80521e-05 -2.29054e-23)
(0.106616 -3.80148e-05 0)
(0.106622 -9.73335e-05 0)
(0.106617 8.49244e-05 0)
(0.106614 2.26028e-05 0)
(0.106787 0.000121355 0)
(0.106682 0.000136686 1.77664e-23)
(0.106736 0.000128744 1.79259e-23)
(0.106881 0.000106718 2.27885e-23)
(0.106835 0.000113856 -4.55371e-24)
(0.106964 9.39343e-05 7.04904e-26)
(0.106923 9.98196e-05 0)
(0.107038 8.36208e-05 0)
(0.107002 8.85636e-05 0)
(0.107105 7.50151e-05 0)
(0.107072 7.91127e-05 0)
(0.107165 6.81141e-05 0)
(0.107136 7.13089e-05 0)
(0.10722 6.14899e-05 0)
(0.107193 6.46762e-05 0)
(0.107269 5.60489e-05 -6.33865e-26)
(0.107245 5.89767e-05 1.63404e-23)
(0.107313 5.10603e-05 -6.09295e-26)
(0.107292 5.32751e-05 -3.19369e-23)
(0.107354 4.59648e-05 0)
(0.107334 4.84431e-05 0)
(0.107391 4.10799e-05 5.90771e-26)
(0.107373 4.34995e-05 0)
(0.107423 3.65259e-05 0)
(0.107407 3.87408e-05 0)
(0.107453 3.23363e-05 0)
(0.107439 3.43677e-05 0)
(0.10748 2.8491e-05 0)
(0.107467 3.03493e-05 0)
(0.107505 2.49169e-05 0)
(0.107493 2.6655e-05 0)
(0.107527 2.15385e-05 0)
(0.107516 2.32108e-05 0)
(0.107548 1.76836e-05 1.26314e-23)
(0.107538 1.9671e-05 0)
(0.107575 -2.92933e-06 0)
(0.107575 5.40945e-06 1.1474e-23)
(0.107566 1.39352e-05 0)
(0.107557 1.56237e-05 1.23194e-23)
(0.107556 -2.7636e-05 2.45144e-23)
(0.107566 -2.66997e-05 6.03038e-24)
(0.107574 -1.76293e-05 4.70325e-23)
(0.107574 -9.74579e-06 0)
(0.107537 -3.09524e-05 0)
(0.107547 -2.90487e-05 -3.70009e-23)
(0.107516 -3.4281e-05 1.05142e-25)
(0.107527 -3.25919e-05 1.31548e-23)
(0.107492 -3.71136e-05 -1.07992e-25)
(0.107504 -3.56857e-05 0)
(0.107466 -4.01586e-05 0)
(0.10748 -3.85983e-05 0)
(0.107438 -4.35754e-05 0)
(0.107452 -4.18102e-05 0)
(0.107406 -4.74897e-05 0)
(0.107422 -4.54569e-05 -1.41766e-29)
(0.107371 -5.19749e-05 -2.38868e-25)
(0.107389 -4.96514e-05 0)
(0.107332 -5.7471e-05 0)
(0.107352 -5.45203e-05 0)
(0.107289 -6.34251e-05 4.00925e-24)
(0.107311 -6.03569e-05 0)
(0.107243 -6.99647e-05 0)
(0.107267 -6.64929e-05 -3.99252e-24)
(0.107191 -7.75312e-05 8.34456e-24)
(0.107217 -7.36943e-05 8.29204e-24)
(0.107134 -8.5731e-05 0)
(0.107163 -8.16578e-05 0)
(0.10707 -9.44213e-05 0)
(0.107103 -9.00037e-05 0)
(0.107 -0.000103709 0)
(0.107036 -9.89872e-05 0)
(0.106923 -0.000113672 0)
(0.106962 -0.000108625 0)
(0.106836 -0.00012441 1.45227e-25)
(0.10688 -0.000118927 0)
(0.106739 -0.000136934 -1.47342e-25)
(0.106789 -0.000130356 0)
(0.10663 -0.000153148 -3.85367e-23)
(0.106686 -0.000144678 3.8519e-23)
(0.106624 0.000144912 3.6113e-23)
(0.106561 -0.000104628 0)
(0.10657 -0.000163489 -7.84527e-23)
(0.106554 -4.13774e-05 0)
(0.107575 1.30481e-05 0)
(0.107575 -2.55898e-05 -5.85621e-24)
(0.106555 8.90899e-05 9.14969e-23)
(0.106564 0.000153558 3.65871e-23)
(0.106496 -0.000112404 1.98097e-23)
(0.106506 -0.000174579 9.91377e-23)
(0.106552 2.29096e-05 0)
(0.107568 2.3404e-05 4.82599e-23)
(0.107576 2.12406e-05 -2.38487e-23)
(0.107583 -1.75286e-05 -1.15998e-23)
(0.107584 -2.45013e-05 5.76997e-23)
(0.106577 0.000216804 1.28265e-22)
(0.106499 0.000162966 -7.20758e-23)
(0.106444 0.000246324 -3.26279e-22)
(0.106513 0.00023056 -7.32224e-23)
(0.106693 0.000192387 3.57871e-23)
(0.106636 0.000204286 -1.09221e-22)
(0.106796 0.000170094 -3.65774e-23)
(0.106746 0.000181054 -2.75758e-23)
(0.106888 0.000150169 -9.11791e-24)
(0.106843 0.00015988 -9.1337e-24)
(0.10697 0.000133059 -7.04904e-26)
(0.106931 0.000141146 0)
(0.107044 0.000118773 0)
(0.107008 0.000125623 0)
(0.107111 0.00010674 0)
(0.107078 0.000112495 0)
(0.107171 9.66085e-05 0)
(0.107141 0.000101462 0)
(0.107225 8.76366e-05 0)
(0.107198 9.19168e-05 0)
(0.107273 7.94584e-05 0)
(0.10725 8.33813e-05 0)
(0.107317 7.18572e-05 3.98407e-30)
(0.107296 7.57615e-05 0)
(0.107358 6.49572e-05 0)
(0.107338 6.82738e-05 0)
(0.107394 5.83547e-05 5.90753e-26)
(0.107376 6.1626e-05 0)
(0.107426 5.21652e-05 0)
(0.10741 5.51931e-05 0)
(0.107456 4.64881e-05 0)
(0.107441 4.92588e-05 0)
(0.107482 4.13067e-05 0)
(0.107469 4.38333e-05 0)
(0.107507 3.65638e-05 0)
(0.107495 3.88826e-05 0)
(0.107529 3.21469e-05 0)
(0.107518 3.43328e-05 0)
(0.107549 2.76725e-05 6.43896e-24)
(0.107539 2.98911e-05 -3.23906e-24)
(0.107559 2.54825e-05 -2.46068e-23)
(0.107583 -3.09532e-06 -5.49263e-24)
(0.107584 1.21801e-05 2.29882e-23)
(0.107584 4.30556e-06 -1.75523e-23)
(0.107583 -9.48629e-06 0)
(0.107558 -3.75816e-05 -1.82753e-23)
(0.107576 -3.36986e-05 -5.28212e-23)
(0.107567 -3.54721e-05 4.24922e-23)
(0.107538 -4.18955e-05 0)
(0.107548 -3.98225e-05 0)
(0.107517 -4.54558e-05 2.71878e-30)
(0.107528 -4.35601e-05 0)
(0.107494 -4.93448e-05 0)
(0.107506 -4.73501e-05 0)
(0.107468 -5.36714e-05 -1.10855e-25)
(0.107481 -5.14491e-05 0)
(0.10744 -5.85331e-05 0)
(0.107454 -5.60281e-05 0)
(0.107408 -6.40442e-05 0)
(0.107424 -6.11996e-05 0)
(0.107374 -7.02991e-05 1.19434e-25)
(0.107391 -6.70735e-05 0)
(0.107335 -7.7497e-05 1.22299e-25)
(0.107355 -7.37464e-05 0)
(0.107293 -8.55413e-05 0)
(0.107315 -8.13972e-05 0)
(0.107246 -9.46536e-05 0)
(0.10727 -9.00243e-05 0)
(0.107195 -0.000104645 0)
(0.107221 -9.93973e-05 0)
(0.107138 -0.000115545 0)
(0.107167 -0.000110012 0)
(0.107076 -0.000127408 -1.36619e-25)
(0.107108 -0.000121353 0)
(0.107006 -0.00014028 0)
(0.107042 -0.000133713 0)
(0.106929 -0.000154304 0)
(0.106969 -0.000147141 0)
(0.106844 -0.000169733 6.33686e-31)
(0.106888 -0.000161827 0)
(0.106748 -0.000187143 2.97378e-30)
(0.106797 -0.000178157 0)
(0.106641 -0.000208152 1.52668e-25)
(0.106696 -0.000196923 0)
(0.106519 -0.000234871 -8.03477e-23)
(0.106582 -0.000220672 1.97576e-23)
(0.106438 -0.000186009 2.02136e-23)
(0.106453 -0.000250232 4.01322e-23)
(0.10649 9.33334e-05 -3.57877e-23)
(0.106489 -4.56998e-05 -3.84004e-23)
(0.107585 1.97861e-05 5.84999e-24)
(0.107584 -3.23484e-05 4.1523e-23)
(0.106428 0.000171152 4.38962e-24)
(0.106427 -0.000120817 0)
(0.106361 0.000252381 4.97843e-22)
(0.106383 -0.0002663 6.18918e-23)
(0.106367 -0.000198605 8.25345e-23)
(0.10637 0.000343977 -8.39806e-22)
(0.106306 0.000375761 1.49139e-22)
(0.106487 2.31566e-05 0)
(0.106475 0.000310645 8.25438e-23)
(0.106419 0.000331555 4.29744e-23)
(0.106595 0.000276913 7.44173e-23)
(0.106535 0.00029304 -1.13548e-22)
(0.106707 0.000245601 -3.7083e-23)
(0.106653 0.000261145 -1.85242e-23)
(0.106808 0.000217432 1.8597e-23)
(0.106759 0.000230953 1.88298e-23)
(0.106899 0.000192865 0)
(0.106855 0.000204742 -4.45984e-26)
(0.10698 0.000171715 0)
(0.10694 0.000181912 0)
(0.107053 0.000153533 6.90624e-26)
(0.107017 0.000162267 0)
(0.107119 0.000138042 0)
(0.107087 0.000145479 0)
(0.107178 0.000124761 0)
(0.107149 0.00013116 0)
(0.107231 0.000113091 0)
(0.107205 0.000118742 0)
(0.107279 0.000102512 6.33545e-26)
(0.107256 0.000107644 0)
(0.107323 9.27244e-05 1.36923e-30)
(0.107301 9.75961e-05 0)
(0.107362 8.37418e-05 0)
(0.107343 8.81181e-05 0)
(0.107397 7.53265e-05 -1.18149e-25)
(0.10738 7.94712e-05 0)
(0.10743 6.75227e-05 0)
(0.107414 7.13404e-05 0)
(0.107459 6.03924e-05 0)
(0.107445 6.38739e-05 0)
(0.107485 5.39142e-05 0)
(0.107472 5.70744e-05 0)
(0.107509 4.80356e-05 0)
(0.107497 5.09048e-05 0)
(0.107531 4.26514e-05 0)
(0.10752 4.52968e-05 0)
(0.107551 3.75527e-05 -3.21746e-24)
(0.107541 3.99793e-05 0)
(0.107569 3.29008e-05 0)
(0.10756 3.52492e-05 -6.24917e-24)
(0.107586 2.7739e-05 3.14613e-27)
(0.107578 3.02719e-05 0)
(0.107592 1.11668e-05 -2.33075e-23)
(0.107594 2.57235e-05 1.40914e-24)
(0.107593 1.87905e-05 1.14286e-23)
(0.107592 -2.90274e-06 8.38498e-24)
(0.107592 3.81693e-06 -5.78779e-24)
(0.107592 -1.75244e-05 -2.91322e-24)
(0.107592 -9.79858e-06 2.90853e-24)
(0.107592 -3.17091e-05 0)
(0.107592 -2.39897e-05 -2.64301e-23)
(0.107577 -4.28563e-05 -1.18786e-23)
(0.107593 -3.98368e-05 -2.27386e-23)
(0.107585 -4.11108e-05 5.23283e-23)
(0.107559 -4.71902e-05 -6.22113e-24)
(0.107568 -4.4886e-05 0)
(0.10754 -5.2109e-05 0)
(0.10755 -4.97153e-05 0)
(0.107519 -5.65302e-05 2.43149e-30)
(0.10753 -5.43219e-05 0)
(0.107496 -6.14994e-05 0)
(0.107508 -5.894e-05 0)
(0.107471 -6.7074e-05 1.10855e-25)
(0.107484 -6.42081e-05 0)
(0.107442 -7.33383e-05 0)
(0.107457 -7.01137e-05 0)
(0.107411 -8.04059e-05 0)
(0.107427 -7.6765e-05 0)
(0.107377 -8.83919e-05 0)
(0.107395 -8.42775e-05 0)
(0.107339 -9.74307e-05 2.07592e-30)
(0.107359 -9.2772e-05 0)
(0.107298 -0.000107528 0)
(0.107319 -0.000102338 0)
(0.107252 -0.000118833 0)
(0.107275 -0.000113051 0)
(0.107201 -0.000131314 0)
(0.107227 -0.000124876 0)
(0.107145 -0.000145032 0)
(0.107174 -0.000138022 0)
(0.107083 -0.000160053 1.36619e-25)
(0.107115 -0.000152375 0)
(0.107015 -0.000176504 0)
(0.10705 -0.000168089 0)
(0.106939 -0.000194615 0)
(0.106978 -0.000185336 0)
(0.106854 -0.00021473 -1.45214e-25)
(0.106897 -0.000204396 0)
(0.106759 -0.00023732 1.48078e-25)
(0.106808 -0.000225691 0)
(0.106654 -0.000263027 -1.50942e-25)
(0.106708 -0.000249717 0)
(0.106535 -0.000293864 1.98794e-23)
(0.106596 -0.000277454 -3.91903e-23)
(0.106403 -0.000331697 -2.00736e-23)
(0.106471 -0.000311896 4.07216e-23)
(0.106309 -0.000283246 7.54661e-25)
(0.10633 -0.000352447 4.12716e-23)
(0.106421 9.72081e-05 -3.6782e-23)
(0.106421 -4.98339e-05 0)
(0.106357 0.000180145 -3.5685e-22)
(0.106355 -0.00012725 0)
(0.107588 3.72918e-05 -5.86101e-24)
(0.107595 3.51446e-05 4.29365e-24)
(0.1076 -3.07898e-05 -2.23984e-23)
(0.107601 -3.85709e-05 -2.53877e-23)
(0.10628 0.000251864 -3.5018e-22)
(0.106292 -0.000211725 -8.3342e-23)
(0.106246 0.000379788 0)
(0.106388 0.000415746 -9.70362e-23)
(0.106231 -0.000301259 -4.09276e-23)
(0.106254 -0.000374688 6.26885e-23)
(0.106319 0.000435567 1.94749e-22)
(0.106419 2.31098e-05 0)
(0.106502 0.000373628 0)
(0.106445 0.000395731 -8.63806e-23)
(0.106617 0.000334155 0)
(0.10656 0.000353456 0)
(0.106726 0.000296896 0)
(0.106673 0.000315081 1.91913e-23)
(0.106823 0.000264106 0)
(0.106776 0.000279998 0)
(0.106912 0.000235176 0)
(0.106869 0.000249143 0)
(0.106991 0.000209838 0)
(0.106953 0.000222089 0)
(0.107063 0.000187853 -6.90624e-26)
(0.107028 0.000198437 0)
(0.107128 0.000168934 0)
(0.107097 0.000178041 0)
(0.107186 0.00015256 0)
(0.107158 0.000160467 0)
(0.107239 0.000138121 0)
(0.107213 0.000145131 0)
(0.107286 0.000125108 -1.13817e-30)
(0.107263 0.000131454 0)
(0.107329 0.000113181 1.0784e-30)
(0.107308 0.000119038 0)
(0.107367 0.000102197 0)
(0.107348 0.000107571 0)
(0.107402 9.20286e-05 1.1183e-30)
(0.107385 9.70177e-05 0)
(0.107434 8.26656e-05 0)
(0.107418 8.72438e-05 0)
(0.107462 7.41291e-05 0)
(0.107448 7.82957e-05 0)
(0.107489 6.63894e-05 0)
(0.107476 7.01632e-05 0)
(0.107512 5.93912e-05 0)
(0.107501 6.28022e-05 0)
(0.107534 5.30779e-05 0)
(0.107523 5.61511e-05 0)
(0.107554 4.74964e-05 0)
(0.107544 5.02272e-05 0)
(0.107571 4.17342e-05 6.20864e-24)
(0.107563 4.44961e-05 6.34406e-24)
(0.10758 3.93221e-05 -1.19263e-23)
(0.1076 1.03735e-05 -1.14486e-23)
(0.107602 2.45958e-05 0)
(0.107601 1.78852e-05 -1.15619e-23)
(0.1076 -2.98862e-06 0)
(0.1076 3.80975e-06 1.1684e-23)
(0.1076 -1.75433e-05 1.74375e-23)
(0.1076 -1.03028e-05 -5.8931e-24)
(0.1076 -2.37834e-05 -3.42656e-23)
(0.107578 -5.20283e-05 5.99239e-24)
(0.107594 -4.71433e-05 2.23511e-23)
(0.107586 -5.01572e-05 0)
(0.107561 -5.69701e-05 -1.23972e-23)
(0.10757 -5.43411e-05 1.24381e-23)
(0.107543 -6.20676e-05 0)
(0.107552 -5.96366e-05 0)
(0.107522 -6.74477e-05 2.57737e-30)
(0.107532 -6.4698e-05 0)
(0.107499 -7.35084e-05 0)
(0.107511 -7.03887e-05 0)
(0.107474 -8.0313e-05 0)
(0.107487 -7.68139e-05 0)
(0.107446 -8.79538e-05 0)
(0.10746 -8.40228e-05 0)
(0.107415 -9.65465e-05 0)
(0.107431 -9.21246e-05 0)
(0.107382 -0.000106213 1.19441e-25)
(0.107399 -0.000101238 0)
(0.107344 -0.000117079 -1.22301e-25)
(0.107363 -0.000111491 0)
(0.107303 -0.000129204 0)
(0.107324 -0.000122978 0)
(0.107258 -0.000142695 0)
(0.107281 -0.000135781 0)
(0.107208 -0.000157632 0)
(0.107234 -0.000149968 0)
(0.107153 -0.000174102 0)
(0.107181 -0.000165672 0)
(0.107092 -0.000192228 0)
(0.107124 -0.000182949 0)
(0.107025 -0.000212212 0)
(0.10706 -0.000201973 0)
(0.10695 -0.000234349 -1.42353e-25)
(0.106989 -0.000222991 0)
(0.106867 -0.000259051 1.45218e-25)
(0.10691 -0.00024635 0)
(0.106774 -0.000286845 -1.48082e-25)
(0.106821 -0.000272531 0)
(0.10667 -0.000318281 0)
(0.106723 -0.000302069 0)
(0.106554 -0.00035399 0)
(0.106613 -0.000335548 0)
(0.106425 -0.000396081 1.58625e-25)
(0.106491 -0.000373831 2.00684e-23)
(0.106279 -0.000446939 -1.05091e-22)
(0.106354 -0.000420541 0)
(0.106172 -0.000399352 -6.21656e-23)
(0.1062 -0.000475388 -7.57679e-25)
(0.106349 0.000101131 1.15054e-22)
(0.106348 -5.3624e-05 0)
(0.107603 3.24966e-05 -2.23212e-23)
(0.107602 -4.52244e-05 -4.30342e-23)
(0.106275 0.000180866 -6.12686e-23)
(0.106215 0.000324343 8.01737e-25)
(0.106198 0.00025292 1.78587e-22)
(0.10628 -0.000134336 0)
(0.106213 -0.0002237 2.09531e-23)
(0.106242 0.000454986 -1.78308e-22)
(0.106164 0.00045805 1.54384e-22)
(0.106147 0.000360422 -1.53166e-22)
(0.106149 -0.000319684 -6.30093e-23)
(0.106086 -0.000424456 4.21987e-23)
(0.106116 -0.000506857 4.14131e-23)
(0.106346 2.25977e-05 0)
(0.106407 0.000486203 5.42265e-24)
(0.106258 0.000541565 -8.25495e-25)
(0.106335 0.000513068 4.20021e-23)
(0.106528 0.000435676 4.15488e-23)
(0.106469 0.000460239 -4.17646e-23)
(0.106641 0.000389321 7.6202e-26)
(0.106585 0.000412145 0)
(0.106746 0.000347471 0)
(0.106694 0.000367775 0)
(0.106841 0.00031003 0)
(0.106794 0.000328241 0)
(0.106927 0.000276685 0)
(0.106885 0.000292839 0)
(0.107005 0.000247281 7.04872e-26)
(0.106967 0.000261509 0)
(0.107076 0.000221604 0)
(0.107041 0.000233994 0)
(0.107139 0.00019931 0)
(0.107108 0.000210065 0)
(0.107196 0.000179876 0)
(0.107169 0.000189275 0)
(0.107248 0.000162698 0)
(0.107223 0.000171041 0)
(0.107294 0.000147258 -6.33534e-26)
(0.107272 0.000154786 0)
(0.107336 0.000133189 1.14528e-30)
(0.107315 0.000140074 0)
(0.107374 0.000120285 0)
(0.107355 0.000126597 0)
(0.107408 0.00010842 1.18145e-25)
(0.107391 0.00011423 0)
(0.107439 9.75435e-05 0)
(0.107424 0.000102859 0)
(0.107467 8.76417e-05 0)
(0.107453 9.24735e-05 0)
(0.107492 7.86721e-05 0)
(0.10748 8.30446e-05 0)
(0.107516 7.05735e-05 0)
(0.107504 7.45187e-05 0)
(0.107537 6.32894e-05 0)
(0.107527 6.68318e-05 0)
(0.107556 5.68293e-05 1.01033e-25)
(0.107547 5.99678e-05 0)
(0.107574 5.0798e-05 -6.23577e-24)
(0.107565 5.38831e-05 0)
(0.10759 4.46429e-05 5.93846e-24)
(0.107582 4.76819e-05 0)
(0.107605 3.93764e-05 5.68219e-24)
(0.107597 4.19574e-05 -5.8023e-24)
(0.107609 2.3491e-05 1.12291e-23)
(0.107612 3.65501e-05 0)
(0.10761 3.08311e-05 1.67134e-23)
(0.107608 1.02357e-05 0)
(0.107608 1.66292e-05 0)
(0.107607 -3.32392e-06 0)
(0.107608 3.74474e-06 0)
(0.107607 -1.76977e-05 0)
(0.107607 -1.05101e-05 0)
(0.107608 -3.03229e-05 2.28277e-23)
(0.107607 -2.38243e-05 5.67613e-24)
(0.107609 -4.37275e-05 5.6197e-24)
(0.107608 -3.7078e-05 4.47675e-23)
(0.107596 -5.49928e-05 2.91355e-23)
(0.10761 -5.07831e-05 5.5992e-24)
(0.107603 -5.26858e-05 -1.13616e-23)
(0.10758 -6.04521e-05 5.98715e-24)
(0.107588 -5.75699e-05 -3.58878e-23)
(0.107564 -6.632e-05 8.10731e-30)
(0.107572 -6.33788e-05 0)
(0.107545 -7.18554e-05 0)
(0.107555 -6.9001e-05 0)
(0.107525 -7.81981e-05 2.69737e-30)
(0.107535 -7.49349e-05 0)
(0.107502 -8.53394e-05 0)
(0.107514 -8.16653e-05 0)
(0.107477 -9.33545e-05 0)
(0.10749 -8.92332e-05 0)
(0.10745 -0.000102344 0)
(0.107464 -9.77214e-05 0)
(0.10742 -0.000112429 0)
(0.107436 -0.000107243 0)
(0.107387 -0.000123734 -2.38883e-25)
(0.107404 -0.000117922 0)
(0.10735 -0.000136388 0)
(0.107369 -0.000129887 0)
(0.10731 -0.000150487 0)
(0.107331 -0.000143251 0)
(0.107266 -0.000166147 0)
(0.107288 -0.000158118 0)
(0.107217 -0.000183492 0)
(0.107242 -0.000174599 0)
(0.107163 -0.000202662 -1.33759e-25)
(0.10719 -0.000192841 0)
(0.107103 -0.000223843 0)
(0.107134 -0.000212989 0)
(0.107037 -0.000247301 0)
(0.107071 -0.00023527 0)
(0.106964 -0.00027339 1.42353e-25)
(0.107001 -0.000259992 0)
(0.106882 -0.000302574 2.10797e-30)
(0.106924 -0.000287564 0)
(0.106791 -0.000335424 2.96167e-25)
(0.106837 -0.000318506 0)
(0.106689 -0.000372556 0)
(0.106741 -0.000353417 0)
(0.106575 -0.000414572 0)
(0.106634 -0.000392909 0)
(0.106449 -0.000462192 -3.9169e-30)
(0.106514 -0.000437659 0)
(0.106308 -0.000516758 0)
(0.10638 -0.000488475 0)
(0.10615 -0.000583076 -6.2859e-23)
(0.106231 -0.000548139 0)
(0.106027 -0.000539357 -7.50259e-25)
(0.106064 -0.000621529 1.07051e-22)
(0.106271 0.000103203 0)
(0.106181 0.000560665 2.4312e-22)
(0.106191 0.000182378 4.19682e-23)
(0.107607 4.61179e-05 -5.6715e-24)
(0.107613 4.36567e-05 0)
(0.107616 -4.25601e-05 5.48145e-24)
(0.107617 -4.89433e-05 -1.08638e-23)
(0.106272 -5.6774e-05 0)
(0.1062 -0.000142215 0)
(0.10612 0.00027365 0)
(0.106129 -0.000236364 -2.0637e-23)
(0.106061 -0.000339583 -4.17581e-23)
(0.105995 -0.000452358 0)
(0.105934 -0.000574092 1.08031e-22)
(0.105972 -0.00066143 -8.63277e-23)
(0.10627 2.2688e-05 0)
(0.106284 0.000619103 -2.02127e-26)
(0.106097 0.000582119 7.71465e-23)
(0.106125 0.000679125 -2.76005e-22)
(0.106207 0.000649489 8.01213e-23)
(0.10643 0.000553398 -2.61832e-23)
(0.106358 0.000585061 -4.16446e-23)
(0.106554 0.000495567 0)
(0.106494 0.000523609 0)
(0.106665 0.000443459 -7.61949e-26)
(0.10661 0.000468897 0)
(0.106767 0.00039673 0)
(0.106717 0.00041945 0)
(0.10686 0.000354734 0)
(0.106815 0.000375169 0)
(0.106944 0.000317199 0)
(0.106903 0.000335418 0)
(0.107021 0.000283926 -7.04872e-26)
(0.106983 0.000300047 0)
(0.10709 0.000254669 0)
(0.107056 0.000268816 0)
(0.107152 0.000229072 0)
(0.107121 0.000241444 0)
(0.107208 0.000206625 0)
(0.10718 0.000217492 0)
(0.107258 0.000186747 0)
(0.107233 0.000196401 0)