/*--------------------------------*- C++ -*----------------------------------*\
  =========                 |
  \\      /  F ield         | OpenFOAM: The Open Source CFD Toolbox
   \\    /   O peration     | Website:  https://openfoam.org
    \\  /    A nd           | Version:  10
     \\/     M anipulation  |
\*---------------------------------------------------------------------------*/
FoamFile
{
    format      ascii;
    class       surfaceScalarField;
    location    "6.5";
    object      phi;
}
// * * * * * * * * * * * * * * * * * * * * * * * * * * * * * * * * * * * * * //

dimensions      [0 3 -1 0 0 0 0];

internalField   nonuniform List<scalar> 
29080
(
0.0907656
-0.145255
-0.0153221
0.0698115
0.050981
0.0397845
0.0151041
0.0381994
-0.0335974
-0.0197061
0.0519264
0.00702491
-0.0438472
0.0479708
-0.0022532
0.00620883
0.031498
-0.0585271
0.0476562
-0.0206271
-0.0485412
0.0291045
0.0509346
0.0446932
0.00659772
-0.0612266
0.00993567
-0.039875
0.0913479
-0.00677975
0.0146935
-0.103356
-0.0159564
0.0607857
-0.0838087
0.0553066
0.0822736
0.0663172
-0.0252803
-0.107372
0.0377629
0.0651899
0.00441956
0.000794433
0.0485295
-0.0156634
-0.0305158
0.0500074
0.0264781
0.0535927
-0.0883038
0.00823303
0.0200064
0.0748228
0.0204004
0.0635861
-0.0040854
0.00169561
-0.00041332
-0.00485662
0.00357434
-0.0100503
-0.0175149
0.0292607
-0.00641749
-0.00357092
-6.18454e-05
-0.00676027
-7.05405e-05
-0.00363364
-0.00798326
-0.0692306
0.00431568
0.00555768
0.0593573
-0.0338891
-0.048306
0.0129644
0.0412146
-0.0385374
-0.0365663
-0.00223528
0.00172977
0.00486446
-0.00435895
0.00747427
-0.00970955
-0.00255713
0.0100314
0.00423848
-0.00506583
0.00486426
0.00423867
-0.035593
-0.0040664
0.029537
0.0101225
0.00213032
-0.0274928
-0.0102305
0.0332228
0.00158836
-0.0326808
0.0217559
0.0074005
0.0215926
0.0297003
-0.0361008
0.0124385
0.0308186
-0.0071562
0.0249169
-0.0482105
-0.0128072
0.0177385
0.0121562
-0.00497779
0.0202012
0.00997574
0.0200707
0.0309491
0.0808215
0.00470995
-0.042042
-0.0434894
0.000358276
0.0759138
0.00454936
-0.0497769
0.0536393
-0.00350414
-0.0373446
-0.00772235
-0.0578109
-0.00445599
0.0147347
0.0475322
-0.0661274
0.0126322
-0.044792
0.0198792
0.0752867
0.0289396
-0.0414734
-0.0627529
-0.0293515
0.0256953
0.0789429
0.0714896
-0.101566
0.0644192
-0.0343431
-0.0368373
0.0539065
0.0544204
0.00713569
0.0125673
-0.0107883
-0.00891474
0.022227
0.00389913
-0.0189904
-0.00555492
0.00548438
-0.00918856
-0.0607847
-0.0379405
0.00831505
0.0904102
-0.0278541
0.0245409
-0.0574715
0.0540905
-0.0582093
-0.0237353
0.0528534
-0.0367034
0.0684111
-0.00724264
0.0878363
-0.0397185
-0.0481178
-0.0598611
0.0505365
0.0971609
-0.0283928
-0.0298765
0.0197319
-0.00385639
0.0169663
-0.0415028
0.013021
-0.0467539
0.00724648
0.00490969
0.0172222
0.00469011
0.0541064
-0.00515714
-0.0385885
0.0504861
0.00757465
-0.0194722
-0.0839371
-0.00442044
0.049769
-0.00333311
0.0212717
-0.0408717
0.0190856
-0.0426059
0.005199
-0.0344258
0.0366273
-0.0427148
-6.31089e-06
0.0479201
-0.035235
0.00239759
0.0483483
-0.0472032
-0.00243053
0.00128546
-0.00121582
-0.00128166
0.0508458
-0.0103734
-0.00725671
0.00408169
0.0135484
-0.0189494
0.0169023
-0.0083262
0.00243087
0.0278617
-0.00806557
0.0372582
0.000797797
-0.0356251
0.0761198
-0.00344645
-0.0871233
0.0144499
-0.00204887
0.05121
0.0269587
0.0555985
-0.00857737
0.00888531
-0.0559064
0.0560054
0.00693874
-0.0073457
0.000307633
-0.0463244
0.0468897
-0.000872939
-0.0468605
0.0474365
-0.000268393
-0.000778714
0.0445504
-0.0446353
0.000863603
0.0451809
-0.00199388
-0.0439657
0.000849418
0.0468588
-0.0473104
-0.000397871
0.0468581
0.000437515
-0.0464462
0.00361859
0.0467686
-0.0465262
-0.00386101
0.0473326
0.00261057
-0.0463246
0.0345805
0.0841892
-0.122216
-0.0726918
0.0779209
-0.011857
-0.0513907
0.00953627
0.0537115
-0.0485829
-0.0168572
0.053583
0.0115793
-0.012243
-0.0479191
0.00913083
-0.0489423
-0.0522335
0.00729502
0.0517612
-0.00682275
0.00992642
-0.0526236
-0.00109047
-0.0284351
0.00283273
0.0266928
-0.0171684
0.0162539
-0.000175985
0.00175439
-0.0185547
-0.000368088
0.00363084
-0.0303115
-0.0265635
-0.00440271
0.00347333
0.0151345
-0.0388653
0.0184161
0.0410623
-0.0161531
-0.0433253
0.0244626
0.0556814
-0.0617278
0.00635892
0.059166
-0.0134245
-0.0178328
0.0210267
-0.00445735
0.00728679
-0.000749912
-0.0450828
-0.000491734
-0.0405643
-0.00704605
-0.0391158
-0.00140168
-4.68998e-05
-0.0136452
-0.0254081
-6.25354e-05
0.0440704
-0.0542581
-0.00345742
-0.00241406
-0.0253936
6.23115e-05
-7.67728e-05
6.98208e-05
-0.025371
-9.24729e-05
0.0528048
-0.0527333
-1.72676e-06
-0.00139096
-0.0253454
7.86416e-05
-0.000104184
9.46311e-05
-0.0253129
-0.00012719
0.0526511
-0.0525556
-8.70878e-07
-3.54603e-06
-0.0252756
0.000104205
-0.000141426
0.000123373
-0.0252309
-0.000168113
0.0524475
-0.0523232
-9.18889e-07
-3.88803e-06
-0.0251804
0.000133225
-0.000183685
0.000152507
-0.025122
-0.000210969
0.0521855
-0.0520309
-2.06749e-06
-4.49439e-06
-0.0250572
0.000160045
-0.000224846
0.000175307
-0.0249838
-0.000248673
0.0518635
-0.0516802
-7.97872e-06
-7.40412e-06
-0.0249033
0.000176021
-0.000256554
0.000181315
-0.0248133
-0.000271319
0.0514855
-0.0512767
-2.75554e-05
-1.86462e-05
-0.0247156
0.000167706
-0.00026534
0.000152945
-0.0246043
-0.000264245
0.0510582
-0.0508266
-7.86132e-05
-5.07755e-05
-0.0372727
0.00010662
0.0125618
8.16508e-05
-0.0387513
0.00139688
0.0505972
-0.0514967
0.00098117
-0.000122776
-0.0433041
0.00655115
-0.00199825
0.00250551
-0.0443186
-0.00149103
0.0472305
-0.0451559
0.000430922
0.00228495
-0.0454889
0.00384725
-0.00267696
0.00302661
-0.044338
-0.00417757
0.044226
-0.0457454
0.00454599
0.00291732
-0.00227978
0.00171527
-0.0449925
-0.00162529
-0.000457375
-0.00109977
0.0484468
-0.000589167
0.0475683
-0.00268239
-0.044304
0.0485847
-0.0463809
-0.00330356
0.00081307
0.049231
-0.00145942
-0.000813417
0.0500733
0.0490371
-0.0492254
-8.0115e-05
0.051427
-0.00297905
0.0473682
-0.0465201
-0.00247343
-0.0457981
0.0451837
-0.00206262
-0.00260742
-0.0446325
0.0431731
-0.000538832
-0.000939768
-0.0380822
0.051087
-0.000443041
0.00648775
-0.0512899
0.0514794
-0.000454805
-0.000467124
-0.0516588
0.0518275
-0.000425311
-0.000450727
-0.0519869
0.0521339
-0.0003719
-0.000408029
-0.0522697
0.0523922
-0.000306157
-0.000346759
-0.0525027
0.0525998
-0.000238478
-0.000278639
-0.0526855
0.0527581
-0.000176851
-0.000212902
-0.0528217
0.0528706
-0.000125706
-0.000156034
-0.0529179
0.0540368
-0.00116577
-0.000109775
-0.00223469
0.00303195
-0.00200432
0.0503994
0.0497868
0.0452359
-0.0467291
0.00100145
-0.00201789
0.0480639
-0.0514769
-4.44255e-05
-0.0010793
0.0528109
-0.0527483
-6.43754e-05
-5.69268e-05
0.0526725
-0.0525851
-8.82295e-05
-7.93076e-05
0.0524849
-0.0523717
-0.000114139
-0.000104098
0.052246
-0.0521072
-0.000140832
-0.00013026
0.0519575
-0.0517964
-0.000169064
-0.000157073
0.0516273
-0.051449
-0.000205882
-0.000187783
0.0512655
-0.051076
-0.000268099
-0.000234264
0.0508837
-0.0495829
-0.00031968
-0.00031507
0.0474196
-0.0481692
0.00118054
0.00012172
0.0474426
-0.0449541
0.00205741
0.00219071
0.00131164
-0.000506467
-1.93991e-05
0.0505992
-0.00239469
0.0511193
-0.00148877
-0.0477137
6.28029e-05
-0.000264294
-0.0437642
0.0508006
-0.0507156
-0.00208932
0.0016957
0.0502643
-0.00115938
0.00148518
0.0506099
-0.0454663
0.000893791
0.048281
-0.0486349
-0.00211956
-0.0476032
0.0457811
-0.000240474
-0.00192963
-0.0459519
0.04481
0.00060302
-0.00111058
-0.051375
0.0515335
-0.000601559
-7.7241e-05
-0.0516781
0.0518178
-0.000594557
-0.000611668
-0.0519518
0.0520789
-0.00055244
-0.000584668
-0.0522
0.0523135
-0.000485371
-0.000529153
-0.0524193
0.0525161
-0.000402943
-0.000452586
-0.0526041
0.0526825
-0.000316858
-0.000366631
-0.0527519
0.0528121
-0.000237064
-0.000282354
-0.0528643
0.0529085
-0.000169967
-0.000208182
-0.0529472
0.0518986
-0.000117093
-0.000148473
-0.0506721
0.0516536
-0.00106159
-0.00100821
-0.00204107
0.0512526
-0.049887
-0.00248699
0.0499793
0.04932
-0.0510368
-0.00158677
-0.00202634
0.0529987
-0.051935
-6.2263e-05
-5.60107e-05
0.0529375
-0.0528963
-8.56515e-05
-7.67663e-05
0.052848
-0.0527927
-0.000119643
-0.000105229
0.0527296
-0.0526571
-0.000160741
-0.000142416
0.0525759
-0.0524846
-0.000205449
-0.000185344
0.052385
-0.0522762
-0.000249664
-0.000229811
0.052161
-0.0520387
-0.000291363
-0.000272272
0.0519129
-0.0517831
-0.000335715
-0.000313556
0.0516533
-0.0515229
-0.000398424
-0.000364076
0.051394
-0.0512079
-0.000505835
-0.000443977
0.0505009
-0.0495804
0.00026006
-0.000585229
0.0477586
-0.0447266
-0.000974519
0.000368832
0.0449662
-0.0439486
-0.00015403
0.00155124
0.00131705
-0.00196342
-0.0448199
0.0453697
-0.0460323
0.00197967
0.00231485
-0.0486878
-0.00143585
-0.000762616
-0.0438056
-0.00155412
-0.0441735
-0.00144135
0.000602963
0.0514483
0.00150655
-0.00195924
-0.0443672
0.000791218
-0.0453169
-0.00277671
0.0515996
0.0504797
-0.0506106
-0.00235608
0.0507157
-0.0510681
-0.00173694
0.0516369
-0.00208049
0.00251546
0.050745
-0.00278076
0.00177754
0.0507172
0.000771486
-0.000805982
-0.0486533
-0.0477048
0.0519426
-0.0516339
-0.0011147
-0.0518813
0.0508566
-0.00109479
-0.00137456
-0.0502383
0.0506154
-0.000617573
-0.0013114
-0.0501561
0.0514221
-0.00066303
-0.000651209
-0.0520277
0.0521074
-0.00068127
-0.000682794
-0.0521837
0.0522587
-0.000669521
-0.000688032
-0.0523334
0.0524066
-0.000625622
-0.000659384
-0.0524786
0.0525482
-0.000555002
-0.000601153
-0.0526153
0.0526783
-0.000466005
-0.000519609
-0.0527373
0.0527911
-0.000370678
-0.000425567
-0.05284
0.0528834
-0.00028048
-0.000331254
-0.052922
0.0529554
-0.000203431
-0.000246747
-0.0529846
0.0530102
-0.000142639
-0.000177683
-0.0524525
0.051602
-0.000211077
-0.000450535
-0.00150719
0.000295653
-0.00222101
0.0525246
0.0521512
0.0506758
0.0515103
-0.0530366
-6.0415e-05
-0.00112669
0.0530166
-0.0529936
-8.52599e-05
-7.60728e-05
0.0529665
-0.0529342
-0.000117941
-0.000103891
0.0528977
-0.0528558
-0.000161535
-0.000141659
0.0528091
-0.0527564
-0.000213359
-0.000189194
0.0526989
-0.0526356
-0.000268703
-0.000242918
0.0525683
-0.0524965
-0.00032145
-0.00029714
0.0524225
-0.0523464
-0.000367534
-0.000346226
0.0522707
-0.0521958
-0.000410594
-0.000389224
0.0521247
-0.0520575
-0.00046562
-0.000435217
0.0519962
-0.0519411
-0.000560849
-0.000505314
0.0518934
-0.0509007
-0.000732629
-0.000632967
0.0496786
-0.0502924
-0.00036074
-0.000853262
0.0487529
-0.0486089
-0.000298085
1.17654e-05
0.0472731
-0.0464566
0.00116307
0.000979121
0.0462107
-0.000105962
-0.0461544
4.97145e-05
0.000545357
-0.000863512
-0.0444962
-0.000987229
0.000849037
-0.0485151
-0.0507546
-0.00186655
-0.0024371
0.00135797
0.0517963
-0.00244369
0.0507516
-0.00167976
-0.044453
-0.000167829
-0.0452551
-0.000277876
-0.0442572
-0.00163891
0.0014696
-0.0450858
-0.00236553
0.0512257
-0.000935281
-0.0477193
-0.000670632
0.000861173
-0.0509451
0.0536265
-0.0527855
-0.00151161
-0.0533951
0.053818
-0.00153764
-0.0016351
-0.0537801
0.0533074
-0.000622091
-0.00133669
-0.0526334
0.0526583
-0.000642465
-0.000637374
-0.0526742
0.0526829
-0.00067175
-0.00066714
-0.0526905
0.0526972
-0.000687953
-0.000690398
-0.0527056
0.052717
-0.000680898
-0.000696391
-0.0527322
0.0527509
-0.000644334
-0.0006746
-0.052773
0.0527978
-0.000579759
-0.000623255
-0.0528247
0.0528526
-0.000493982
-0.000546524
-0.0528811
0.052909
-0.000398605
-0.000454009
-0.0529361
0.0529615
-0.000305947
-0.000358291
-0.0529853
0.0530071
-0.000225189
-0.000270538
-0.0530269
0.0530448
-0.000160568
-0.000197527
-0.0527352
0.0526359
-0.00011177
-0.000140933
-0.0516815
0.0510346
-0.00109007
-0.000552762
-0.0510629
0.0515222
-0.00282485
-0.00210873
0.00249717
-0.00259977
0.0513283
-0.00185115
0.000836082
0.0524633
0.0522456
-0.000375621
-4.57556e-06
0.0529048
0.0526117
0.0520292
-0.0503124
-0.00260736
0.0504761
0.0510797
-0.0520082
-0.0014276
-0.00201345
0.0530679
-0.0530539
-7.4485e-05
-6.69591e-05
0.0530383
-0.0530206
-0.000102957
-9.16152e-05
0.0530007
-0.0529781
-0.000140592
-0.000123788
0.0529533
-0.0529258
-0.000189036
-0.000166437
0.0528962
-0.0528641
-0.000245405
-0.000218813
0.0528306
-0.0527953
-0.00030396
-0.000276499
0.0527596
-0.0527234
-0.000357578
-0.000332881
0.0526884
-0.0526548
-0.000401144
-0.000381278
0.0526243
-0.0525976
-0.000437294
-0.000419739
0.0525763
-0.0525614
-0.000480558
-0.000456435
0.0525541
-0.0525553
-0.000559565
-0.00051266
0.0525656
-0.052586
-0.000712295
-0.000622668
0.052613
-0.0519912
-0.000982525
-0.000826225
0.0508125
-0.0501974
-0.00091319
-0.001167
0.0486013
-0.0473889
-4.93665e-05
-0.000616947
0.0463209
-0.0468415
0.000570307
-0.000522601
-0.000917924
-0.00181052
0.0507329
-0.000741583
-0.0454344
0.000985687
-0.0486396
0.000184877
-0.0449158
0.00121561
-0.052534
-0.0014671
0.000899379
-0.0506289
0.00140417
-0.0441918
0.0508793
-0.0515684
-0.00191827
0.00243904
0.050205
-0.00176473
0.0018491
0.051066
0.000612596
-0.0452608
-0.000832149
0.000862465
-0.0464765
0.0510266
-0.0522287
-0.00162268
0.0510946
-0.0018786
-0.000809941
-0.0474752
-0.00100433
0.00115197
-0.0526817
0.0545726
-0.0541805
-0.0013964
-0.0544858
0.0544438
-0.00146961
-0.00138031
-0.0541924
0.0538186
-0.00116379
-0.00138374
-0.0535769
0.0535381
-0.000583283
-0.001095
-0.0534889
0.053433
-0.000586612
-0.000588124
-0.053373
0.0533141
-0.000612827
-0.000607155
-0.0532579
0.0532059
-0.000636003
-0.000634171
-0.0531593
0.0531192
-0.000640814
-0.000649728
-0.0530859
0.0530597
-0.000618141
-0.000641342
-0.0530402
0.053027
-0.000566533
-0.000603723
-0.0530194
0.0530166
-0.000491267
-0.000538928
-0.053018
0.0530226
-0.000403204
-0.000455379
-0.0530297
0.0530386
-0.000314818
-0.000365409
-0.0530487
0.0530594
-0.000235893
-0.000280612
-0.0530703
0.0530811
-0.000171374
-0.000208468
-0.0530918
0.0531019
-0.000121961
-0.000151558
-0.0530544
0.0527779
-0.000813549
-0.000505262
-0.00155953
-0.00100793
0.000815324
0.0515209
0.00125617
-0.000848754
0.0506872
0.0509812
-0.000570933
0.000495835
0.0525384
0.05249
-5.20838e-06
-3.94567e-06
0.0529139
0.0531023
0.000423188
-0.000884723
0.0522578
0.0524484
0.051716
0.0517263
-0.0530929
-6.09946e-05
-0.00185557
0.0530835
-0.053073
-8.491e-05
-7.63854e-05
0.0530618
-0.0530496
-0.000115219
-0.000102827
0.0530365
-0.0530226
-0.000154543
-0.000136852
0.0530082
-0.0529935
-0.000203775
-0.00018077
0.0529789
-0.0529647
-0.00025962
-0.000233354
0.0529515
-0.0529396
-0.000315921
-0.000289697
0.0529295
-0.0529216
-0.000365466
-0.000342952
0.0529165
-0.0529146
-0.000403026
-0.000386392
0.0529166
-0.0529232
-0.000430657
-0.000417764
0.0529352
-0.0529536
-0.000462118
-0.000444465
0.0529792
-0.0530133
-0.000525463
-0.000487095
0.0530559
-0.0531072
-0.000660952
-0.000580113
0.0531651
-0.0532293
-0.000918293
-0.000768333
0.0532925
-0.0532274
-0.000978286
-0.0011038
0.052809
-0.0519819
-0.000876521
-0.00103533
0.0515881
-0.049968
-0.00104973
-0.000916438
0.0493838
-0.0478917
-0.00189002
-0.00150211
-0.00193304
-9.2936e-05
-0.0451566
0.00100979
-0.04875
-0.00227574
0.00158113
0.0517606
-0.00278045
0.0507097
0.00103823
-0.0445498
0.00054262
-0.0500195
0.00217139
-0.0457506
0.00128686
-0.0543715
-0.00109595
0.000873132
-0.0522679
0.00185556
-0.0462539
0.0024843
-0.0463502
0.0507587
-0.0485749
-0.00303261
-0.00428574
0.00461207
-0.0466509
-0.0464599
-0.004352
-0.00205577
0.00169728
0.0510457
0.0511355
-0.00243252
-0.0465584
-0.00234339
0.00182126
-0.0538493
0.0552898
-0.0553422
-0.00229096
-0.0556817
0.0557949
-0.00150962
-0.00148782
-0.0557646
0.0555748
-0.00127975
-0.00135002
-0.0554445
0.0548571
-0.000576325
-0.00125353
-0.0542866
0.0541892
-0.000485915
-0.000524471
-0.0540841
0.0539766
-0.000479148
-0.00048301
-0.0538694
0.0537666
-0.000510045
-0.000499948
-0.0536692
0.0535793
-0.000546056
-0.000536789
-0.0534968
0.0534231
-0.000567066
-0.000567287
-0.0533577
0.0533012
-0.000561639
-0.000575989
-0.053253
0.0532129
-0.000526428
-0.000555441
-0.0531802
0.0531547
-0.000465718
-0.000506289
-0.0531354
0.0531218
-0.000389633
-0.000436131
-0.0531131
0.0531085
-0.000310225
-0.0003567
-0.0531073
0.0531086
-0.000237244
-0.00027936
-0.0531119
0.0531165
-0.000175985
-0.000211749
-0.0531219
0.0531276
-0.000127649
-0.000156943
-0.0527367
0.0523933
-0.000470184
-0.000114352
-0.0515961
0.0511567
-0.00118327
-0.000762322
0.000703235
-0.00112852
0.00101896
0.0516304
0.0515499
-0.000392547
1.20607e-05
0.0529189
0.0531164
-4.08849e-06
-3.58599e-06
0.0529216
0.0531103
0.000668409
-0.00132378
0.0529132
0.0531132
0.0519733
-0.0512708
-0.00178276
0.0502731
0.051001
-0.051319
-0.00160024
-0.00203455
0.0531132
-0.0531067
-6.75036e-05
-6.14277e-05
0.0530999
-0.0530927
-9.21151e-05
-8.31175e-05
0.0530854
-0.0530778
-0.000122762
-0.000110193
0.0530705
-0.0530635
-0.000161515
-0.000144197
0.0530574
-0.0530525
-0.000208679
-0.000186859
0.0530493
-0.0530482
-0.000260699
-0.000236535
0.0530497
-0.0530539
-0.000311655
-0.000288276
0.0530612
-0.0530716
-0.00035502
-0.000335729
0.0530851
-0.0531021
-0.000386076
-0.000372867
0.0531223
-0.0531465
-0.000406447
-0.000397538
0.0531748
-0.0532083
-0.00042857
-0.000416201
0.0532474
-0.0532937
-0.000479225
-0.000447973
0.0533467
-0.0534071
-0.000600518
-0.000527081
0.0534729
-0.0535428
-0.000848383
-0.000702551
0.0536113
-0.0533017
-0.00128791
-0.00103529
0.0527523
-0.0522647
-0.00136417
-0.00158475
0.0513801
-0.0502977
-0.00213221
-0.00180097
0.0493953
-0.0473281
-0.00395724
-0.00240442
0.0470342
-0.0482009
-0.00269426
-0.00222698
-0.00361741
0.00397475
-0.0468172
0.0489176
-0.0479898
-0.00454527
-0.00363529
0.00117102
-0.0452894
-0.000457621
-0.0477498
0.00220915
-0.0445876
0.000859141
-0.0500056
0.00191835
-0.0458133
0.00122615
-0.0516728
0.00314629
-0.0469159
0.00200823
-0.054403
-0.00294749
0.00205907
-0.0539002
0.00390636
-0.0456445
0.00344492
-0.0461211
0.00499069
-0.0472857
-0.00569479
0.00419022
-0.0460168
0.051602
-0.053115
-0.00151967
-0.010471
0.000910007
-0.0377247
0.0513675
-0.0505604
-0.00258983
-0.00190115
0.00152067
0.0514262
-0.00271386
0.0519482
0.00298464
0.0507574
-0.00237456
0.00238865
0.0508691
0.0452433
-0.0252886
-0.0304258
0.0516278
-0.00245826
-0.045845
-0.00359198
0.00352325
-0.0543343
0.0555976
-0.0553126
-0.00387694
-0.0558992
0.0564226
-0.00281439
-0.00324909
-0.0561779
0.0562805
-0.00161219
-0.00124307
-0.0559502
0.0554604
-0.00078991
-0.00101979
-0.0548342
0.0547537
-0.000495826
-0.000627371
-0.054651
0.0545331
-0.000368058
-0.000421697
-0.0544066
0.0542783
-0.000350878
-0.00035649
-0.0541512
0.0540293
-0.000388172
-0.000372787
-0.0539136
0.0538064
-0.000438856
-0.000421126
-0.0537074
0.0536177
-0.000477319
-0.000468267
-0.0535365
0.0534645
-0.000489594
-0.000494843
-0.0534008
0.0533456
-0.000471276
-0.000491753
-0.0532984
0.0532589
-0.000426271
-0.000459017
-0.0532266
0.0532011
-0.000364138
-0.000403841
-0.0531817
0.0531676
-0.000296148
-0.000337232
-0.053158
0.0531523
-0.000231493
-0.000269833
-0.0531495
0.053149
-0.000175427
-0.000208971
-0.0531499
0.0531517
-0.000129458
-0.000157907
-0.0531542
0.0527766
-9.259e-05
-0.000116791
-0.0520981
0.0509783
-6.35169e-05
-8.37971e-05
-0.00143345
-0.000662885
2.13359e-05
0.052272
0.0524077
-1.60673e-05
9.63483e-06
0.0529254
0.0531217
-3.01923e-06
-3.41793e-06
0.052928
0.0531169
9.9835e-06
-1.60682e-05
0.0529193
0.0531198
0.00116691
-0.00231762
0.0529113
0.0531242
0.0507808
0.0515827
-0.0531304
-5.24845e-05
-0.00101229
0.0531259
-0.0531212
-7.21158e-05
-6.60094e-05
0.0531166
-0.053112
-9.67112e-05
-8.77159e-05
0.0531077
-0.0531038
-0.000126702
-0.000114517
0.0531006
-0.0530986
-0.000163556
-0.000147351
0.0530981
-0.0530998
-0.000207068
-0.000187303
0.0531038
-0.0531108
-0.0002537
-0.00023246
0.0531209
-0.0531343
-0.000298256
-0.000278234
0.0531507
-0.0531704
-0.000335346
-0.000319266
0.0531927
-0.0532178
-0.000360994
-0.000350587
0.0532451
-0.0532752
-0.00037629
-0.000370216
0.0533081
-0.0533447
-0.000391913
-0.000383396
0.0533854
-0.0534316
-0.00043302
-0.000407296
0.053483
-0.0535405
-0.000543015
-0.000475625
0.0536023
-0.0536676
-0.000783143
-0.000640783
0.053733
-0.053798
-0.00122287
-0.000969856
0.0538561
-0.053306
-0.00191429
-0.0015267
0.0527657
-0.0520444
-0.00285356
-0.00234122
0.0510789
-0.0520841
-0.00295199
-0.0033699
0.0505466
-0.0487128
-0.00452809
-0.00376448
0.0485777
-0.0478565
-0.00526652
-0.00377038
-0.00830794
0.00129638
-0.0443766
-0.000493557
-0.0463971
-0.00232594
0.00122926
0.0519658
-0.00252807
0.0509595
0.0483236
-0.0606854
-0.0129269
0.00170028
-0.0443695
0.000278597
-0.049058
0.00232371
-0.0449908
0.0017507
-0.0513645
0.00354396
-0.0465535
0.00248302
-0.0528599
0.00478065
-0.0469802
0.00352173
-0.0546667
-0.00416768
0.00326783
-0.0540804
0.00426325
-0.0461941
0.00340397
-0.0485107
-0.00233135
-0.0658191
-0.0022227
0.0511366
-0.0450421
-0.00418273
-0.0546763
0.00419232
0.0558908
-0.0557683
-0.00430517
-0.0555196
0.0555162
-0.00387352
-0.00379653
-0.0552304
0.0548058
-0.00238978
-0.00296334
-0.0552321
0.0549434
-0.00132342
-0.00166941
-0.0549629
0.0549493
-0.000776368
-0.00103927
-0.0549036
0.0548295
-0.000421736
-0.000581688
-0.0547329
0.0546213
-0.000256517
-0.000325041
-0.0544999
0.0543753
-0.00022627
-0.000235083
-0.0542506
0.05413
-0.000267576
-0.00024801
-0.0540146
0.0539069
-0.000331177
-0.000305786
-0.0538067
0.0537149
-0.000385586
-0.000368009
-0.053631
0.0535554
-0.000413969
-0.000410898
-0.0534873
0.0534272
-0.000411152
-0.000423719
-0.0533744
0.0533292
-0.00038099
-0.000406236
-0.0532908
0.0532594
-0.000332652
-0.00036553
-0.053234
0.0532144
-0.000276513
-0.000311914
-0.0531997
0.0531891
-0.000220929
-0.000255088
-0.0531819
0.0531773
-0.000170862
-0.00020178
-0.0531747
0.0531734
-0.000128167
-0.000155293
-0.053173
0.0531732
-9.27621e-05
-0.00011635
-0.0531739
0.0531745
-6.41495e-05
-8.44789e-05
-0.0525017
0.0518133
-0.000831264
-0.000760666
-0.0515985
0.0514471
-0.00207136
-0.00224342
0.00171883
-0.00198023
0.051398
-0.00131086
0.000737167
0.0519999
0.0523562
-0.000672338
1.68629e-05
0.0529275
0.0524726
-1.25581e-05
7.42948e-06
0.0529305
0.053126
-2.08146e-06
-3.19519e-06
0.0529333
0.0531223
8.51509e-06
-1.37405e-05
0.0529245
0.0531251
1.88447e-05
-2.31427e-05
0.0529156
0.0531293
0.0519869
-0.0507132
-0.00277892
0.050964
0.0514757
-0.0528546
-0.00121091
-0.00161201
0.0531454
-0.0531421
-5.57849e-05
-0.000721535
0.053139
-0.053136
-7.51784e-05
-6.9079e-05
0.0531331
-0.0531304
-9.93569e-05
-9.06197e-05
0.0531282
-0.0531267
-0.000128223
-0.0001167
0.0531262
-0.0531271
-0.000162628
-0.000147848
0.0531299
-0.053135
-0.000201956
-0.00018453
0.0531427
-0.0531535
-0.000242957
-0.000224744
0.0531672
-0.053184
-0.000281395
-0.000264547
0.0532035
-0.0532258
-0.000313112
-0.000299745
0.0532499
-0.0532761
-0.0003348
-0.000326426
0.0533037
-0.0533331
-0.000346878
-0.000342667
0.0533641
-0.0533978
-0.000358202
-0.000352372
0.0534343
-0.053475
-0.00039237
-0.00037078
0.0535196
-0.053569
-0.000493597
-0.000431015
0.053622
-0.0536785
-0.000726699
-0.000587795
0.0537362
-0.0537947
-0.00116443
-0.000912083
0.0538514
-0.0539075
-0.00185812
-0.00146999
0.0539613
-0.0540161
-0.00279881
-0.00228744
0.0540712
-0.0531282
-0.00389504
-0.00331476
0.0524674
-0.0530518
-0.00394376
-0.00442519
0.0519002
-0.0501099
-0.0070568
-0.004922
-0.0100942
-0.00186073
0.0513276
0.00140882
-0.0440851
-0.000513673
-0.0456048
0.00402349
-0.0553955
-0.0043963
-0.054893
0.00424023
0.00248769
-0.0445335
0.000393356
-0.0477007
0.00364351
-0.0450903
0.0017288
-0.0506102
0.00380849
-0.0455814
0.00282236
-0.0524145
0.00471582
-0.0474328
0.00387118
-0.0537592
0.00550315
-0.0482933
0.00321868
-0.0540608
0.00917781
-0.059201
-0.0106622
0.00276166
-0.0594029
-0.0110881
0.0122437
-0.0603566
0.0510693
-0.0517887
-0.00135187
0.0504765
-0.0507174
-0.002538
0.00210067
0.0510352
-0.00265939
0.0506026
-0.00139405
0.00193121
0.0511335
-0.044147
-0.00526456
0.0049567
-0.0550877
0.0557451
-0.0553598
-0.00564991
-0.0555485
0.055841
-0.00459773
-0.0041996
-0.0555996
0.0554467
-0.00372068
-0.00355508
-0.054967
0.0546632
-0.00208594
-0.00248362
-0.0547286
0.0547748
-0.0013697
-0.00173481
-0.0547957
0.0547895
-0.000770212
-0.00106012
-0.0547573
0.0547016
-0.000366046
-0.000549402
-0.0546258
0.0545355
-0.000166267
-0.000249257
-0.0544347
0.054329
-0.000120537
-0.000134283
-0.0542211
0.0541153
-0.000161694
-0.000140155
-0.0540126
0.0539155
-0.000234142
-0.000203107
-0.0538242
0.0537397
-0.000301105
-0.000276641
-0.0536616
0.0535904
-0.000342804
-0.000332765
-0.0535256
0.0534676
-0.000353137
-0.000358929
-0.0534159
0.0533708
-0.000335855
-0.000354534
-0.0533318
0.0532989
-0.000299809
-0.000326547
-0.0532717
0.0532497
-0.000254533
-0.000284675
-0.0532323
0.0532189
-0.00020752
-0.000237681
-0.0532088
0.0532013
-0.000163383
-0.000191644
-0.0531958
0.0531919
-0.000124271
-0.000149852
-0.0531892
0.0531872
-9.08028e-05
-0.000113561
-0.0531857
0.0531843
-6.28011e-05
-8.29445e-05
-0.0527652
0.0521844
-0.000250444
-0.000341526
-0.00184781
-0.0546652
0.00472885
-0.00544586
0.00569022
-0.055332
-0.0554747
-0.00533091
-0.00116941
0.00114454
0.0514229
0.00140053
-0.00157935
0.0507814
0.0515587
-0.000881009
0.000683897
0.052197
0.0526197
-1.56633e-05
1.30646e-05
0.0529301
0.0531408
-9.58726e-06
5.5319e-06
0.0529345
0.0531295
-1.3037e-06
-2.86779e-06
0.0529375
0.0531265
7.10986e-06
-1.13101e-05
0.0529287
0.0531294
1.53002e-05
-1.87831e-05
0.0529191
0.0531333
0.000602699
-0.00129083
0.0526539
0.0525708
0.0515999
0.0517689
-0.0524881
-0.000491661
-0.000560575
0.053156
-0.0531542
-5.75659e-05
-5.36549e-05
0.0531523
-0.0531504
-7.70606e-05
-7.10039e-05
0.0531488
-0.0531474
-0.000100689
-9.2262e-05
0.0531466
-0.0531465
-0.000128354
-0.000117538
0.0531473
-0.0531497
-0.00016031
-0.000146955
0.0531538
-0.0531601
-0.000195646
-0.000180439
0.0531687
-0.0531801
-0.000231572
-0.000216063
0.053194
-0.0532106
-0.000264847
-0.000250656
0.0532292
-0.05325
-0.000292352
-0.000281097
0.0532721
-0.0532957
-0.000311244
-0.000304307
0.05332
-0.0533456
-0.000321301
-0.000318305
0.0533721
-0.0534004
-0.000329899
-0.000325848
0.0534305
-0.0534634
-0.000359473
-0.000340691
0.053499
-0.053538
-0.000454538
-0.000395442
0.0535799
-0.0536252
-0.000681478
-0.000545891
0.0536727
-0.0537229
-0.00111419
-0.000864553
0.0537751
-0.0538306
-0.00180262
-0.00141781
0.0538899
-0.0539562
-0.00273248
-0.00222815
0.0540325
-0.0541242
-0.0038033
-0.00323854
0.0542293
-0.0532937
-0.00487934
-0.00432007
0.052864
-0.0533063
-0.00661459
-0.00535169
0.0547883
-0.058806
-0.0089092
-0.00861213
0.0601665
-0.068493
-0.00276164
-0.00930165
-0.0313479
-0.0398924
0.00274731
-0.0124398
0.0271037
-0.0460118
-0.0501019
-0.00223025
0.00148727
-0.0430847
-0.000482386
-0.0447291
-0.00247832
0.00123679
0.052375
-0.00213634
0.0506932
0.00264652
-0.0435365
0.000550963
-0.0465228
0.00390919
-0.045191
0.0015834
-0.0493713
0.00520416
-0.0460697
0.00312383
-0.0516671
0.00513787
-0.0470675
0.00428626
-0.0538053
0.00611619
-0.0511908
0.00703051
-0.0583296
0.0109031
-0.0580623
0.0158185
-0.0490714
-0.0543652
0.00539025
0.00617626
-0.0556504
-0.00600065
0.00620412
-0.0553599
-0.00674075
0.00685784
-0.0557674
0.0515633
-0.0507118
-0.00243089
-0.00729632
0.0123669
-0.0510824
-0.00202888
0.00119059
0.0516197
-0.0490546
-0.00834365
-0.00162298
0.0511574
-0.0431421
-0.0556928
0.0555231
-0.00583096
-0.00642808
-0.0556249
0.055106
-0.00513105
-0.00543271
-0.0555257
0.0553537
-0.00442573
-0.00461925
-0.0551054
0.0542877
-0.00290296
-0.00330683
-0.0543523
0.0544141
-0.00214771
-0.00254824
-0.0544648
0.0545011
-0.00140591
-0.00178556
-0.054521
0.0545225
-0.000771715
-0.00108003
-0.0545052
0.0544703
-0.000331127
-0.000532147
-0.0544192
0.0543554
-0.000102463
-0.00019819
-0.0542815
0.0542014
-4.04879e-05
-6.03144e-05
-0.0541175
0.054033
-7.72732e-05
-5.62142e-05
-0.0539494
0.0538688
-0.000153581
-0.000119458
-0.0537917
0.0537194
-0.000228783
-0.000199524
-0.0536517
0.0535893
-0.000280439
-0.000265044
-0.0535319
0.05348
-0.000301209
-0.00030155
-0.0534332
0.0533918
-0.000294429
-0.000307714
-0.0533554
0.0533241
-0.000268547
-0.000290178
-0.0532975
0.0532754
-0.000232387
-0.000258085
-0.0532571
0.0532423
-0.000192722
-0.000219421
-0.0532304
0.0532209
-0.000153883
-0.000179724
-0.0532133
0.0532073
-0.000118268
-0.000142279
-0.0532025
0.0531987
-8.69599e-05
-0.000108758
-0.0531955
0.0531929
-6.01898e-05
-7.97476e-05
-0.0529065
0.0530705
-0.000414478
-5.51134e-05
-0.0518676
0.0516241
-0.00110833
-0.000644903
-0.000481766
-0.00126203
0.000670742
0.0520142
0.0514873
-0.000745278
1.21155e-05
0.0529302
0.0525452
-1.12192e-05
9.40158e-06
0.0529319
0.0531417
-6.87813e-06
3.82516e-06
0.0529376
0.053132
-6.30406e-07
-2.49987e-06
0.0529406
0.0531297
5.68424e-06
-8.83678e-06
0.0529319
0.0531326
1.1867e-05
-1.45771e-05
0.0529218
0.0531363
0.000585821
-0.000849781
0.0529179
0.053142
0.0519869
-0.0498405
-0.00305052
0.0507546
0.0515248
-0.0528882
-0.00117461
-0.000975069
0.0527181
-0.053168
-4.17939e-05
-0.000730615
0.0531672
-0.0531662
-5.85001e-05
-5.44769e-05
0.0531652
-0.0531643
-7.80226e-05
-7.20089e-05
0.0531635
-0.053163
-0.000101202
-9.30448e-05
0.0531629
-0.0531634
-0.000127833
-0.000117638
0.0531648
-0.0531675
-0.000157654
-0.000145549
0.0531716
-0.0531777
-0.00018958
-0.000176262
0.0531857
-0.0531959
-0.000221359
-0.000208043
0.0532081
-0.0532223
-0.000250618
-0.000238484
0.0532381
-0.0532555
-0.000274976
-0.000265303
0.0532739
-0.0532933
-0.000291849
-0.00028596
0.0533132
-0.0533339
-0.00030058
-0.000298389
0.0533551
-0.0533773
-0.000307662
-0.000304633
0.0534005
-0.0534251
-0.000334801
-0.000317574
0.0534513
-0.0534796
-0.000426176
-0.00036931
0.0535102
-0.0535439
-0.000647771
-0.000515355
0.0535809
-0.0536226
-0.0010725
-0.000827558
0.0536694
-0.0537236
-0.00174847
-0.00137094
0.0537861
-0.0538606
-0.00265807
-0.00216558
0.0539484
-0.0540532
-0.00369843
-0.00315074
0.0541776
-0.0543288
-0.00472819
-0.00419567
0.0545099
-0.0554756
-0.00564892
-0.00517052
0.0565979
-0.0582162
-0.00729095
-0.0074898
0.0616436
-0.0584589
-0.00594638
-0.00587421
0.0524111
-0.0500511
-0.00459025
-0.00330051
0.00247343
0.00391987
-0.0554479
0.051933
-0.0409934
-0.00846622
-0.00646172
0.00152029
-0.0419585
-0.0004099
-0.0437682
0.00276834
-0.0423956
0.000772056
-0.0457115
0.00414502
-0.0441319
0.00192502
-0.0481725
0.00555314
-0.046485
0.00300316
-0.050384
0.00691209
-0.0478634
0.00401174
-0.0530882
0.0070528
-0.0512131