/*--------------------------------*- C++ -*----------------------------------*\
  =========                 |
  \\      /  F ield         | OpenFOAM: The Open Source CFD Toolbox
   \\    /   O peration     | Website:  https://openfoam.org
    \\  /    A nd           | Version:  10
     \\/     M anipulation  |
\*---------------------------------------------------------------------------*/
FoamFile
{
    format      ascii;
    class       volVectorField;
    location    "6.5";
    object      U;
}
// * * * * * * * * * * * * * * * * * * * * * * * * * * * * * * * * * * * * * //

dimensions      [0 1 -1 0 0 0 0];

internalField   nonuniform List<vector> 
14667
(
(1.03749 0.0666378 -1.1118e-19)
(0.88769 0.0444757 -4.63993e-20)
(0.737718 0.0286613 -4.2279e-21)
(0.854883 0.0255537 5.84158e-22)
(0.833483 0.0277553 1.23994e-21)
(0.990795 -0.0894037 -2.54998e-20)
(1.03275 -0.0821939 5.59503e-20)
(0.599744 0.0408021 -1.87318e-21)
(0.689908 0.0332042 0)
(0.836632 0.0299887 -4.14213e-22)
(1.037 -0.0668259 -2.4449e-20)
(1.0255 -0.0393586 1.31249e-20)
(0.986121 -0.0231151 -3.32158e-20)
(0.886228 -0.0752173 9.82318e-20)
(0.648595 0.0259974 -3.15004e-21)
(1.01844 -0.0307654 0)
(1.01876 -0.0291007 0)
(0.776626 0.0192876 -7.61867e-22)
(0.47787 0.0182251 0)
(1.04 -0.0583661 0)
(1.056 0.084993 -7.96919e-20)
(0.885568 -0.00309034 5.81666e-20)
(0.997401 0.0158811 0)
(1.00134 0.040466 3.84906e-21)
(-0.00556253 -0.0932059 5.60887e-20)
(0.332746 -0.0967153 1.89702e-19)
(-0.0350184 -0.051093 5.83842e-20)
(-0.116397 -0.114173 -2.23983e-19)
(-0.104603 -0.125121 4.09246e-21)
(0.807088 0.0858534 1.58916e-20)
(0.858737 0.0565168 -1.51537e-21)
(0.872011 0.0290958 -4.46569e-20)
(-0.0472953 0.0949219 1.47144e-20)
(-0.111539 0.0641942 7.57866e-20)
(-0.174674 0.0286717 8.42897e-20)
(0.00650595 0.043774 -1.27379e-19)
(0.0446949 0.104755 -1.77673e-21)
(0.638881 -0.074433 1.87847e-21)
(0.629175 -0.0400436 2.04329e-21)
(0.769922 -0.0299051 -1.18505e-22)
(0.763536 -0.0236517 0)
(0.646523 0.00520464 -2.18114e-20)
(0.54474 -0.202239 5.22105e-19)
(0.604013 -0.0802352 -1.70899e-19)
(0.424878 -0.0442967 -1.19531e-19)
(0.349316 -0.256411 8.00746e-20)
(0.569198 -0.414373 -7.42446e-21)
(1.16035 0.0498071 -1.14392e-19)
(1.20238 0.0301598 3.79908e-20)
(0.850752 0.0426219 0)
(0.829256 0.0648802 0)
(0.732513 0.027807 0)
(0.792734 0.00692062 0)
(0.848504 0.00509507 -7.83395e-20)
(1.36563 -0.289938 2.09209e-20)
(1.40141 -0.267127 1.27483e-20)
(1.32968 0.251292 3.76554e-20)
(1.40256 0.241156 2.64398e-20)
(0.250225 0.175301 -4.0352e-20)
(0.41591 0.132849 3.18742e-20)
(-0.0969925 -0.0795878 1.67435e-19)
(-0.100928 -0.0754587 0)
(0.974603 -0.474863 -9.72443e-21)
(0.98904 -0.39744 -5.77979e-20)
(0.909276 -0.349257 -4.82962e-21)
(0.855455 -0.610046 -9.07913e-21)
(0.928612 -0.545766 4.98863e-20)
(0.476079 0.690143 5.51784e-20)
(0.781482 0.717899 -2.30737e-20)
(0.902046 0.0343701 3.96772e-20)
(0.920662 0.0181894 -3.66643e-20)
(0.924963 0.0423493 -3.99751e-20)
(0.142827 -0.0126895 0)
(0.142032 -0.246096 4.08378e-20)
(0.885871 0.00598494 4.61479e-20)
(1.10361 -0.0667632 6.21209e-20)
(1.24105 -0.0364009 -2.02032e-19)
(1.15429 -0.0168889 1.25138e-19)
(0.910016 0.000145438 2.10228e-19)
(0.895335 -0.0310611 2.87208e-22)
(0.849176 -0.0234727 -7.92854e-22)
(0.912071 -0.0195138 0)
(0.858645 -0.0233173 1.11465e-21)
(0.995586 0.0218477 -2.63247e-22)
(0.992861 0.0228352 0)
(-0.184433 -0.0388517 0)
(-0.354787 -0.00216297 -9.73726e-20)
(0.482885 0.132593 2.15195e-20)
(0.694956 0.100259 -1.24889e-19)
(1.01263 -0.170775 -3.58726e-20)
(1.2039 -0.187433 4.92781e-20)
(1.08629 -0.154174 -1.50712e-21)
(1.08175 -0.13908 3.09839e-21)
(1.05461 -0.00012964 -1.3321e-21)
(1.05464 -0.000775253 6.5866e-22)
(0.989748 0.0232388 -3.72134e-21)
(0.973998 0.0175126 -2.8195e-21)
(1.05067 0.0757307 -1.19857e-21)
(1.02787 0.0722782 2.55296e-21)
(1.06368 0.100228 -3.19889e-21)
(1.04753 0.097355 1.35199e-21)
(1.43438 -0.328613 5.75836e-21)
(1.43275 -0.270279 3.84379e-20)
(0.931764 0.128592 7.02367e-21)
(0.911538 0.103348 -2.46407e-20)
(0.93765 0.0857205 3.21998e-21)
(0.957829 0.107413 3.08509e-21)
(0.961991 0.1711 2.12909e-20)
(0.950044 0.142211 4.72856e-22)
(0.548893 -0.0208055 9.11447e-22)
(0.343317 -0.0114043 -1.21409e-22)
(0.375708 -0.00831766 -1.58031e-21)
(0.582302 -0.0138102 0)
(0.702566 -0.0341445 2.48276e-21)
(0.710034 -0.0227767 -9.72688e-22)
(1.23757 -0.127078 -1.10867e-20)
(1.25821 -0.141723 2.84685e-20)
(1.2467 -0.127817 0)
(0.509362 -0.0441421 -2.27906e-21)
(0.389261 -0.0413377 -8.68427e-22)
(0.571647 -0.0332031 -4.46659e-22)
(1.05402 -0.000156667 5.95379e-22)
(1.05408 -0.000966093 -3.071e-21)
(1.05331 -0.00110383 1.59445e-21)
(1.0524 -0.00129232 -1.99194e-21)
(1.05238 -8.64174e-05 0)
(1.05331 -0.000139227 -3.58284e-22)
(1.05131 -0.00183963 5.64355e-21)
(1.0501 -0.00197257 -2.85818e-21)
(1.05001 -0.000353399 0)
(1.05131 -0.000386882 0)
(1.04865 -0.00233008 0)
(1.04695 -0.00264223 3.20298e-21)
(1.04673 -0.000611597 0)
(1.04849 -0.000530409 0)
(1.04499 -0.00303514 -3.21864e-21)
(1.04275 -0.00342264 0)
(1.0424 -0.000874956 0)
(1.04471 -0.000756766 0)
(1.04023 -0.00383817 3.62312e-21)
(1.03741 -0.00423489 -3.59701e-21)
(1.03689 -0.00110822 0)
(1.03979 -0.00100296 0)
(1.03431 -0.00461407 0)
(1.03094 -0.00493463 -4.05177e-21)
(1.03019 -0.00119599 -9.49194e-25)
(1.03368 -0.00118023 0)
(1.0273 -0.00518575 4.07818e-21)
(1.0234 -0.00531224 0)
(1.0224 -0.000947166 0)
(1.02643 -0.00112552 0)
(1.01921 -0.00524141 -4.39825e-24)
(1.01476 -0.0049121 0)
(1.01365 -4.60006e-05 0)
(1.01812 -0.000604933 0)
(1.00985 -0.00443407 -7.09036e-21)
(1.00572 -0.00419823 6.23628e-21)
(1.00438 0.00140075 6.5432e-22)
(1.00904 0.000672505 0)
(1.00023 -0.00284402 0)
(0.994804 -0.000673344 0)
(0.995291 0.0048559 1.20756e-21)
(0.999859 0.00261365 -7.04833e-22)
(0.989068 0.00101586 -1.61841e-21)
(0.982662 0.00391326 -1.75757e-21)
(0.985112 0.0101984 1.76167e-21)
(0.990144 0.00674493 -1.63117e-21)
(0.980016 0.0136257 -3.47768e-21)
(0.975637 0.00690818 3.52031e-21)
(1.05511 -0.000100181 9.63934e-23)
(1.05511 -0.000604174 -5.76566e-22)
(0.968247 0.0101864 -6.2e-24)
(1.05512 0.000292066 -4.53822e-22)
(1.05553 0.000254463 8.86696e-22)
(1.05552 -7.15227e-05 1.09537e-23)
(1.05465 -0.000959373 0)
(1.05514 -0.000845184 6.19798e-22)
(0.982365 4.54599e-05 8.22917e-22)
(0.996319 -0.00439281 3.9782e-21)
(0.989691 -0.00233579 -1.58788e-21)
(1.00708 -0.00706384 -3.09464e-21)
(1.00174 -0.00578423 3.19014e-21)
(1.01455 -0.00736324 0)
(1.01114 -0.00774273 0)
(1.02245 -0.00714796 4.29192e-24)
(1.01859 -0.00731539 0)
(1.02961 -0.0066016 -1.96451e-24)
(1.02614 -0.00692098 0)
(1.03592 -0.00570758 0)
(1.03287 -0.00618624 0)
(1.04131 -0.00463776 -3.36824e-24)
(1.03873 -0.00518065 0)
(1.04569 -0.00355751 -1.23711e-26)
(1.04363 -0.00408471 0)
(1.04907 -0.00259517 0)
(1.0475 -0.00304669 0)
(1.05155 -0.00182025 -8.72128e-27)
(1.05042 -0.00217437 0)
(1.05332 -0.00120468 0)
(1.0525 -0.00150847 0)
(1.05403 -0.00110473 1.61932e-21)
(1.05552 -0.000747489 5.8312e-22)
(1.05551 -0.00049235 -6.01499e-22)
(1.05404 0.000416151 2.60838e-22)
(1.05463 0.00033377 0)
(1.05247 0.000514188 3.16386e-23)
(1.05335 0.000502303 3.05231e-22)
(1.05024 0.000626478 0)
(1.05143 0.000551075 1.0756e-23)
(1.04723 0.000844171 0)
(1.04885 0.000719193 0)
(1.04325 0.00110735 0)
(1.04537 0.000968212 0)
(1.03823 0.00139676 0)
(1.04087 0.00124686 0)
(1.03226 0.00175833 0)
(1.03536 0.00156204 0)
(1.02551 0.00236504 0)
(1.02897 0.00201278 0)
(1.01819 0.00359727 0)
(1.02191 0.00287458 0)
(1.01046 0.0057991 6.72637e-22)
(1.01435 0.00457108 0)
(1.00309 0.00962658 -3.59276e-22)
(1.00667 0.00748925 3.18819e-23)
(0.99663 0.0151662 1.67273e-21)
(0.999517 0.0119108 0)
(0.993556 0.018958 4.53439e-21)
(1.05585 -5.30093e-05 3.55058e-22)
(1.05587 0.000221555 -7.46988e-23)
(0.974583 0.00237496 -8.79155e-22)
(0.967627 0.0218788 1.93616e-21)
(1.05577 -0.00117063 0)
(1.05606 -0.000997294 -1.40332e-22)
(1.05585 -0.000654371 -1.38519e-22)
(0.985733 0.0280129 0)
(0.999232 -0.00629395 8.12953e-22)
(1.01028 -0.00896144 6.21442e-22)
(1.00526 -0.00776696 0)
(1.01854 -0.0105246 2.90319e-21)
(1.01442 -0.00980359 -3.14784e-21)
(1.02391 -0.0108035 0)
(1.02081 -0.0105362 -1.15193e-21)
(1.02968 -0.0108135 -4.25598e-24)
(1.02687 -0.0109035 0)
(1.03499 -0.0101617 9.31553e-27)
(1.03239 -0.0105652 0)
(1.0398 -0.00895892 1.80926e-24)
(1.03747 -0.00961508 0)
(1.04401 -0.00745077 5.33889e-27)
(1.04199 -0.00822516 0)
(1.0475 -0.00588121 -3.89703e-27)
(1.04585 -0.00665802 0)
(1.05026 -0.0044378 0)
(1.04897 -0.00513014 0)
(1.05233 -0.00322874 -2.60846e-27)
(1.05138 -0.00379324 0)
(1.05385 -0.00225629 0)
(1.05315 -0.00270273 0)
(1.05498 -0.00158886 -2.91367e-24)
(1.05446 -0.00190787 -8.21043e-23)
(1.05542 -0.00136824 -9.80237e-22)
(1.05583 -0.000399 1.10493e-24)
(1.05595 0.000573914 -1.29421e-22)
(1.05525 0.00079925 -4.43917e-22)
(1.05563 0.000668279 -2.81828e-22)
(1.05429 0.00105952 -1.44317e-22)
(1.0548 0.000908127 1.47692e-22)
(1.05292 0.00142829 -6.40671e-25)
(1.05368 0.00124813 -9.89791e-24)
(1.05102 0.00200769 0)
(1.05204 0.00170357 0)
(1.0485 0.00267864 0)
(1.04985 0.00232961 0)
(1.04525 0.00340886 0)
(1.04697 0.00303624 0)
(1.04128 0.00414728 0)
(1.04335 0.00377789 0)
(1.03667 0.00487438 0)
(1.03904 0.00450857 0)
(1.03165 0.00569932 0)
(1.0342 0.00525949 0)
(1.02646 0.00693593 0)
(1.02907 0.00623898 0)
(1.02129 0.00910667 0)
(1.02386 0.00786311 0)
(1.0166 0.0127608 -3.51333e-22)
(1.01882 0.0107361 3.44039e-22)
(1.0134 0.0185062 -2.52587e-21)
(1.01486 0.0153454 0)
(1.01064 0.0266801 1.90776e-21)
(1.01158 0.0222132 -2.7686e-21)
(0.98158 0.03311 2.10155e-21)
(1.008 0.0375659 -1.61315e-21)
(1.00858 0.0316532 5.22666e-22)
(0.992493 -0.00464623 6.09362e-23)
(0.959906 0.0140262 1.89502e-21)
(0.960414 0.0262089 6.11154e-23)
(1.05612 -0.000560484 1.33861e-22)
(0.978029 0.0389888 0)
(1.00643 0.0438958 2.2394e-21)
(1.05631 -0.000845602 2.71501e-22)
(1.05609 0.00083233 0)
(1.05609 -0.00141011 2.86974e-22)
(1.05634 -0.00119634 -1.43989e-24)
(1.05633 0.000700973 0)
(1.05622 0.000485236 1.34435e-22)
(0.985183 -0.00312294 -3.48677e-21)
(0.965793 0.00522349 0)
(1.01282 -0.00924029 8.03798e-22)
(1.02184 -0.0106282 -9.87997e-22)
(1.01783 -0.00991685 -4.33342e-22)
(1.02834 -0.0118456 8.32165e-23)
(1.02582 -0.0113446 -7.66196e-22)
(1.03275 -0.0127073 2.3335e-23)
(1.03086 -0.0123786 -2.0847e-23)
(1.03605 -0.0132572 0)
(1.03442 -0.0130461 -1.54104e-22)
(1.03907 -0.0131051 2.03367e-26)
(1.03758 -0.0132834 0)
(1.04202 -0.012218 1.95802e-24)
(1.04055 -0.0127428 0)
(1.04489 -0.0107738 -1.80926e-24)
(1.04347 -0.011553 0)
(1.04755 -0.00899403 1.23542e-26)
(1.04625 -0.00991018 0)
(1.04989 -0.00712332 -1.02774e-26)
(1.04876 -0.00805478 0)
(1.05183 -0.00537741 0)
(1.05091 -0.0062227 0)
(1.05336 -0.00389895 -1.33441e-24)
(1.05264 -0.00459857 0)
(1.05452 -0.00274191 0)
(1.05398 -0.00328064 0)
(1.05541 -0.00193371 5.80195e-23)
(1.055 -0.00229379 -2.31785e-22)
(1.05578 -0.00164888 1.25256e-24)
(1.05613 -2.13004e-05 2.63848e-22)
(1.0561 -0.000318626 0)
(1.05615 0.000208195 -1.34075e-22)
(1.05547 0.00114319 2.86406e-22)
(1.05581 0.000979189 0)
(1.05468 0.00157232 0)
(1.0551 0.00133925 0)
(1.05359 0.00214127 6.40745e-25)
(1.05418 0.00182973 0)
(1.05213 0.0029305 0)
(1.05291 0.00250937 0)
(1.05026 0.00388521 0)
(1.05125 0.00339175 0)
(1.04796 0.0049145 0)
(1.04916 0.00439625 0)
(1.04527 0.00591648 0)
(1.04666 0.00542447 0)
(1.04231 0.00682826 9.35231e-25)
(1.04381 0.00638311 0)
(1.03929 0.00773119 1.01502e-24)
(1.0408 0.00726759 0)
(1.03645 0.00892209 0)
(1.03784 0.00826321 0)
(1.03398 0.0109588 0)
(1.03515 0.00978912 0)
(1.03217 0.0144696 0)
(1.03298 0.0125059 0)
(1.03132 0.0200779 -3.87022e-22)
(1.0317 0.0169742 0)
(1.03153 0.0282 0)
(1.03096 0.0237203 1.68183e-21)
(1.03241 0.0395616 -2.5351e-21)
(1.03107 0.0333021 4.89828e-22)
(1.03193 0.0544985 1.1722e-21)
(1.03236 0.0466187 0)
(0.950779 0.0176262 2.04331e-21)
(0.977046 -0.00164658 2.21996e-21)
(1.00727 -0.00881403 -1.33302e-21)
(1.05645 0.000422312 0)
(1.05654 0.000601925 1.22786e-22)
(0.953654 0.0316744 -3.31746e-21)
(1.00459 0.0510428 -1.14429e-21)
(0.973672 0.0453495 0)
(1.00126 0.0586852 0)
(1.05655 -0.00102123 -4.03393e-22)
(1.03053 0.0631477 -1.17884e-21)
(0.956296 0.00783618 9.5771e-22)
(0.999997 -0.0085643 1.36446e-21)
(1.03499 -0.0138427 1.34475e-21)
(1.04197 -0.0127366 -4.27655e-22)
(1.03919 -0.013114 8.20614e-22)
(1.04573 -0.0127444 -5.69006e-22)
(1.04444 -0.0126585 1.1389e-21)
(1.04755 -0.013215 5.39715e-24)
(1.04696 -0.012924 0)
(1.0482 -0.0138181 -2.47748e-24)
(1.04797 -0.0135169 0)
(1.04846 -0.0141688 0)
(1.04834 -0.0140543 0)
(1.0488 -0.0139319 2.702e-26)
(1.04861 -0.0141325 0)
(1.04939 -0.0130622 0)
(1.04906 -0.0135713 0)
(1.05027 -0.0116531 1.77558e-24)
(1.0498 -0.0124177 0)
(1.05134 -0.00985928 1.66159e-24)
(1.05079 -0.010791 0)
(1.05247 -0.0079121 -1.5402e-24)
(1.05191 -0.00888897 0)
(1.05354 -0.00605043 0)
(1.05302 -0.00695738 0)
(1.05449 -0.00444768 -1.31768e-24)
(1.05404 -0.00520963 0)
(1.05528 -0.00317998 0)
(1.0549 -0.00377203 7.73869e-29)
(1.05592 -0.00225377 1.84801e-23)
(1.05562 -0.00267869 0)
(1.05645 -0.00162805 -1.39939e-22)
(1.0562 -0.00191383 1.48937e-22)
(1.05684 -0.00119219 5.35543e-22)
(1.05667 -0.00139362 1.41888e-22)
(1.05673 -0.000872982 2.59766e-22)
(1.05634 -0.000478694 -1.34503e-22)
(1.05651 -0.000720667 -1.26298e-22)
(1.05636 -1.28543e-05 0)
(1.05632 -0.000258145 0)
(1.05639 0.000188768 -1.28945e-22)
(1.05667 0.000766935 -2.44229e-22)
(1.05628 0.00105023 -6.32173e-23)
(1.05649 0.000898236 -1.22173e-22)
(1.05578 0.0014419 0)
(1.05604 0.00122657 -6.75275e-23)
(1.05515 0.00197645 0)
(1.05548 0.00169259 0)
(1.05436 0.00268145 0)
(1.05478 0.00230234 0)
(1.05336 0.00360499 0)
(1.05388 0.00311714 0)
(1.05218 0.00470038 0)
(1.0528 0.00413723 0)
(1.05084 0.00585637 0)
(1.05153 0.00527916 0)
(1.04941 0.00693768 0)
(1.05013 0.00641443 0)
(1.04801 0.00784986 -9.35231e-25)
(1.0487 0.00741618 0)
(1.04679 0.00865161 -1.01502e-24)
(1.04737 0.00825229 0)
(1.04594 0.00963432 0)
(1.04631 0.00909192 0)
(1.04565 0.0113663 0)
(1.04572 0.0103609 0)
(1.04607 0.0145788 0)
(1.04576 0.0127447 0)
(1.0472 0.0199311 3.77746e-22)
(1.04657 0.0169425 0)
(1.04888 0.0282331 0)
(1.04798 0.0236744 0)
(1.05101 0.0402377 0)
(1.04973 0.0337468 -4.50923e-22)
(1.05191 0.0563035 2.19272e-21)
(1.05177 0.0477501 1.04617e-21)
(1.0518 0.0657098 -2.35979e-21)
(1.05699 -0.00101518 -6.46103e-22)
(0.940807 0.0220776 -5.45978e-22)
(0.96725 -0.000171131 -2.42895e-21)
(0.945813 0.0371871 1.11285e-21)
(1.03061 -0.0152338 -9.16308e-22)
(0.992574 -0.00891199 0)
(0.96742 0.0519959 -1.27717e-21)
(1.05682 0.000917779 4.92522e-22)
(1.05695 0.000791918 -1.17496e-22)
(1.05682 0.000667946 3.00612e-22)
(0.996168 0.0668023 -2.53592e-21)
(1.02559 0.0821662 1.33521e-21)
(1.05715 -0.00129853 0)
(1.05727 -0.00110478 0)
(1.04957 0.0863502 -2.47844e-21)
(0.94533 0.0107594 1.98097e-23)
(1.02442 -0.0172068 -1.52624e-23)
(1.05855 -0.0216073 1.52424e-23)
(1.064 -0.0162248 -1.61402e-23)
(1.0618 -0.0185199 0)
(1.06615 -0.0134619 -5.00745e-22)
(1.06556 -0.0145377 0)
(1.06571 -0.0125325 0)
(1.0663 -0.0128161 9.78642e-23)
(1.06376 -0.0126909 0)
(1.06484 -0.0125164 0)
(1.06139 -0.0132341 0)
(1.06259 -0.0129565 0)
(1.05914 -0.0136 -2.20883e-24)
(1.06023 -0.0134596 0)
(1.05729 -0.0135301 4.11543e-24)
(1.05816 -0.0136295 0)
(1.05597 -0.0129061 0)
(1.05656 -0.0132903 0)
(1.05519 -0.0117211 -2.18314e-26)
(1.05552 -0.0123798 0)
(1.05489 -0.0100871 -1.62782e-24)
(1.05499 -0.0109482 0)
(1.05494 -0.00822721 1.51201e-24)
(1.05488 -0.00916913 0)
(1.05523 -0.00639282 0)
(1.05507 -0.00729258 0)
(1.05563 -0.00477702 1.31768e-24)
(1.05542 -0.00554924 0)
(1.05606 -0.00347327 0)
(1.05585 -0.00408403 -7.73869e-29)
(1.05648 -0.00248518 0)
(1.05628 -0.00294173 0)
(1.05685 -0.00178418 1.36445e-22)
(1.05668 -0.00210305 0)
(1.05701 -0.00152426 -2.66664e-22)
(1.05687 -0.000724165 0)
(1.05736 -0.000923789 -1.23822e-22)
(1.05711 -0.000851837 2.53822e-22)
(1.05653 -0.000399032 -1.23385e-22)
(1.05667 -0.000594462 1.23738e-22)
(1.05655 -4.04876e-06 0)
(1.05651 -0.000208715 0)
(1.05663 0.000356588 0)
(1.05658 0.000167184 0)
(1.05672 0.000513188 -3.65368e-22)
(1.0565 0.00123342 0)
(1.05667 0.00106418 0)
(1.05612 0.00168132 0)
(1.05631 0.00143891 0)
(1.05567 0.00226946 -5.84107e-25)
(1.0559 0.00195618 0)
(1.05514 0.00303927 0)
(1.05541 0.00262833 0)
(1.05457 0.00401567 0)
(1.05486 0.0035037 0)
(1.05399 0.0051403 0)
(1.05428 0.0045661 0)
(1.05346 0.00629244 0)
(1.05372 0.00572208 0)
(1.05306 0.00732569 0)
(1.05324 0.00683273 0)
(1.05286 0.00813427 0)
(1.05293 0.00776007 0)
(1.05294 0.00876341 0)
(1.05286 0.00845982 0)
(1.05342 0.00949533 0)
(1.05312 0.00908807 0)
(1.05444 0.0108941 1.16226e-24)
(1.05385 0.0100655 1.37185e-28)
(1.05614 0.0137554 0)
(1.0552 0.0120873 0)
(1.05845 0.0189741 -3.87539e-26)
(1.05723 0.0160121 0)
(1.06104 0.0274662 0)
(1.05974 0.0227518 0)
(1.06346 0.0400239 -1.13105e-22)
(1.06234 0.0332191 4.23624e-22)
(1.0648 0.0568537 -2.03858e-21)
(1.06434 0.0479087 -8.42123e-22)
(1.06473 0.0774762 2.88857e-21)
(1.06512 0.0668984 1.59311e-21)
(1.06443 0.0886415 3.71416e-21)
(0.929955 0.026318 1.10396e-21)
(0.956442 0.000979988 1.49071e-21)
(1.05695 0.000579864 1.71805e-22)
(1.05707 0.000686114 1.18687e-22)
(0.936053 0.0425889 0)
(0.982986 -0.00955089 1.06389e-21)
(0.959164 0.058962 -6.67873e-23)
(1.05437 -0.025524 -6.45366e-23)
(1.01781 -0.0199673 6.44181e-23)
(0.991892 0.0758494 -2.63304e-21)
(1.02156 0.0924773 -1.39564e-21)
(1.05761 -0.0009815 -3.78692e-22)
(1.04435 0.108522 -2.81244e-21)
(1.06263 0.111762 -8.02494e-23)
(1.05743 -0.000766452 -1.1737e-22)
(1.05765 -0.000811261 0)
(0.933269 0.0134769 0)
(1.049 -0.0302483 2.68823e-21)
(1.07429 -0.0344913 -5.14842e-22)
(1.0806 -0.023851 -9.30233e-22)
(1.07791 -0.0287561 9.3976e-22)
(1.08311 -0.0165673 -2.2238e-22)
(1.08235 -0.0197542 0)
(1.08233 -0.0125315 -9.43796e-23)
(1.08314 -0.0141712 0)
(1.07925 -0.0109736 0)
(1.08104 -0.0114935 9.49495e-23)
(1.07507 -0.0109417 0)
(1.07722 -0.0108329 0)
(1.07081 -0.0115043 2.34359e-24)
(1.07291 -0.0111943 0)
(1.06694 -0.0120635 2.20883e-24)
(1.06881 -0.0118076 0)
(1.06367 -0.0122986 -4.04833e-24)
(1.06522 -0.0122367 0)
(1.06107 -0.0120098 -1.86147e-24)
(1.06228 -0.0122271 0)
(1.05915 -0.0111353 -1.75375e-24)
(1.06003 -0.0116435 0)
(1.05785 -0.00976506 2.11001e-26)
(1.05843 -0.010501 0)
(1.05709 -0.0081097 -1.78447e-26)
(1.05741 -0.00895719 0)
(1.05674 -0.00641733 0)
(1.05687 -0.00725378 0)
(1.05669 -0.00488602 0)
(1.05669 -0.0056227 0)
(1.05682 -0.00361944 0)
(1.05674 -0.00421696 0)
(1.05704 -0.00263502 0)
(1.05692 -0.00309338 0)
(1.05726 -0.00191594 -1.37244e-22)
(1.05715 -0.00224454 0)
(1.05746 -0.00139295 -2.62027e-22)
(1.05737 -0.00163359 3.99456e-22)
(1.05754 -0.00117375 0)
(1.05699 -0.000597766 0)
(1.0572 -0.000705881 -1.1707e-22)
(1.05669 -0.00032287 5.7894e-23)
(1.05682 -0.000482434 -5.84537e-23)
(1.05671 4.42055e-07 0)
(1.05667 -0.000162643 0)
(1.05679 0.000311112 0)
(1.05674 0.000147681 0)
(1.05686 0.000444886 -2.01786e-22)
(1.0572 0.000765204 -1.12653e-22)
(1.057 0.0010223 1.24741e-22)
(1.05711 0.000883922 1.20562e-22)
(1.05674 0.00137355 0)
(1.05687 0.00118292 0)
(1.05647 0.0018519 0)
(1.05661 0.00160035 0)
(1.05618 0.00245774 5.84107e-25)
(1.05633 0.00213717 0)
(1.05588 0.00323461 0)
(1.05603 0.00282253 0)
(1.05564 0.00419386 0)
(1.05575 0.00369418 0)
(1.05551 0.00526704 0)
(1.05556 0.00472316 0)
(1.05557 0.00633279 0)
(1.05552 0.0058096 0)
(1.05586 0.00725227 0)
(1.05569 0.00681906 0)
(1.0564 0.00792502 8.96973e-25)
(1.0561 0.00762158 0)
(1.05721 0.00838759 9.68349e-25)
(1.05677 0.00817222 0)
(1.05834 0.00890112 0)
(1.05773 0.00861102 0)
(1.05991 0.0100063 -1.16226e-24)
(1.05906 0.00933457 -1.37185e-28)
(1.06202 0.0125265 0)
(1.06089 0.0110281 0)
(1.06464 0.0175171 -4.38749e-26)
(1.06328 0.014642 0)
(1.06745 0.0261056 0)
(1.06604 0.021297 0)
(1.06993 0.0391661 0)
(1.06879 0.0320482 0)
(1.0715 0.0569366 -4.87416e-22)
(1.07085 0.0474975 0)
(1.07215 0.0783515 0)
(1.07194 0.0673317 -4.689e-23)
(1.07273 0.10148 -5.74793e-22)
(1.07241 0.0898275 1.16823e-21)
(1.0618 0.123373 4.04792e-21)
(1.07471 0.124319 1.22226e-21)
(1.07338 0.112967 -2.33994e-21)
(0.917254 0.0302641 -5.565e-22)
(0.944009 0.00194531 -5.19682e-22)
(0.924343 0.0480762 0)
(0.972833 -0.010956 -5.11531e-22)
(0.95037 0.0664754 6.1151e-22)
(1.00961 -0.0234496 1.1473e-21)
(0.984413 0.0849628 6.43838e-22)
(1.06937 -0.0408189 0)
(1.04207 -0.0356628 -2.17564e-21)
(1.01596 0.102926 0)
(1.04056 0.119815 2.77785e-21)
(1.07644 0.135957 2.03085e-21)
(1.06148 0.135106 -2.10401e-21)
(1.05783 -0.00099025 4.77823e-22)
(1.07777 0.147243 -6.48922e-21)
(1.05736 0.000845133 0)
(1.05747 -0.000626165 2.28915e-22)
(1.05767 -0.00065438 1.11134e-22)
(1.05742 0.000740098 4.35411e-22)
(1.05729 0.000667654 -3.28372e-22)
(1.08554 0.144256 -2.52309e-20)
(1.05785 -0.00081186 -1.14484e-22)
(0.919523 0.0160516 0)
(1.06398 -0.0479162 -1.71971e-21)
(1.07899 -0.0518288 5.10781e-22)
(1.08646 -0.0373983 -9.55734e-22)
(1.08292 -0.0443992 9.6492e-22)
(1.09109 -0.0251734 -8.69096e-22)
(1.08921 -0.030922 3.38812e-22)
(1.09224 -0.0162028 -2.09088e-22)
(1.09211 -0.0202288 4.29469e-22)
(1.09037 -0.0108541 0)
(1.09167 -0.0130776 0)
(1.0863 -0.00866018 0)
(1.08853 -0.00942657 0)
(1.08127 -0.00844913 0)
(1.08384 -0.00838404 0)
(1.07622 -0.00913237 -2.34359e-24)
(1.07871 -0.00873123 0)
(1.07163 -0.00999248 0)
(1.07385 -0.00957252 0)
(1.06769 -0.0105874 3.92654e-26)
(1.06957 -0.010343 0)
(1.06447 -0.0106599 3.30934e-26)
(1.06599 -0.0106981 0)
(1.06194 -0.0101276 0)
(1.06312 -0.0104677 0)
(1.06006 -0.00907085 2.37186e-26)
(1.06092 -0.00965431 0)
(1.05878 -0.00768671 -2.01429e-26)
(1.05935 -0.00840483 0)
(1.058 -0.00620923 0)
(1.05833 -0.00694592 0)
(1.05763 -0.00482923 0)
(1.05777 -0.00549821 0)
(1.05751 -0.00365318 0)
(1.05754 -0.00421222 0)
(1.05755 -0.00270937 -1.10921e-24)
(1.05752 -0.00315185 0)
(1.05765 -0.00197631 6.57921e-23)
(1.0576 -0.00231658 0)
(1.05776 -0.00142391 2.54263e-22)
(1.0577 -0.00167778 -6.63557e-23)
(1.0578 -0.0011837 -1.25387e-22)
(1.05708 -0.000481846 -5.60539e-23)
(1.05727 -0.000575895 1.7162e-22)
(1.05683 -0.000255398 0)
(1.05693 -0.000380982 0)
(1.05685 6.76378e-06 0)
(1.05682 -0.000125874 0)
(1.05692 0.000263781 0)
(1.05688 0.0001298 0)
(1.05706 0.000507627 -1.10158e-22)
(1.05698 0.000382231 8.21697e-23)
(1.05717 0.000594695 -1.09689e-22)
(1.05719 0.00110666 -2.41843e-22)
(1.05728 0.000967462 -1.18626e-22)
(1.05701 0.00148171 0)
(1.0571 0.00127544 0)
(1.05683 0.00196616 0)
(1.05692 0.00171001 0)
(1.05666 0.00256476 0)
(1.05674 0.00224907 0)
(1.05653 0.00331232 0)
(1.05658 0.00291824 0)
(1.05651 0.00420936 0)
(1.0565 0.00374524 0)
(1.05668 0.00518443 0)
(1.05657 0.00469376 0)
(1.05708 0.00612624 0)
(1.05684 0.00566705 0)
(1.05774 0.00691612 0)
(1.05737 0.00654711 0)
(1.05863 0.00746791 -1.62864e-26)
(1.05815 0.00722373 0)
(1.05972 0.00780926 -1.97073e-26)
(1.05915 0.00765611 0)
(1.06103 0.00817005 0)
(1.06034 0.00796256 0)
(1.06266 0.0090618 0)
(1.0618 0.00850479 0)
(1.06471 0.0113313 0)
(1.06363 0.00995789 0)
(1.06717 0.0161522 -2.63043e-24)
(1.0659 0.0133402 0)
(1.06979 0.0248419 0)
(1.06848 0.0199387 0)
(1.07219 0.0383002 -2.0349e-22)
(1.07105 0.0309523 0)
(1.07397 0.0566505 1.67352e-24)
(1.07316 0.0469246 2.05954e-22)
(1.07532 0.0783516 9.65643e-22)
(1.07467 0.0672312 -9.50441e-22)
(1.07718 0.100674 -1.08183e-21)
(1.0761 0.0894758 -9.77588e-22)
(1.08092 0.122611 -2.27423e-21)
(1.07875 0.111751 2.26296e-21)
(1.08359 0.133369 6.28398e-21)
(0.902971 0.033836 1.53541e-22)
(0.930924 0.00193084 -5.66826e-22)
(1.05736 0.000574818 -1.56861e-22)
(1.05748 0.000630662 1.03097e-22)
(1.09247 0.146724 -4.16672e-21)
(0.910439 0.0533902 1.30263e-21)
(0.960963 -0.0129344 0)
(0.938986 0.0738501 1.35531e-21)
(1.00003 -0.0276773 -1.14782e-21)
(0.975219 0.0940699 -4.22211e-24)
(1.03471 -0.0419157 0)
(1.0086 0.113517 -1.4611e-21)
(1.07464 -0.0598299 -1.03866e-21)
(1.05763 -0.0555518 2.2504e-21)
(1.03761 0.131463 0)
(1.06134 0.147074 -2.21919e-21)
(1.08196 0.159022 1.84827e-21)
(1.05785 -0.000647267 1.14776e-22)
(0.90477 0.0175444 0)
(1.07032 -0.0685199 0)
(1.07783 -0.0710232 2.39348e-22)
(1.08378 -0.054581 -1.41672e-21)
(1.08078 -0.0625812 7.28732e-22)
(1.08927 -0.0395286 -4.58191e-22)
(1.08668 -0.0468923 4.59053e-22)
(1.09283 -0.0261523 0)
(1.09141 -0.0325053 1.13741e-22)
(1.09364 -0.0157411 7.64404e-26)
(1.09359 -0.0204939 0)
(1.09182 -0.00919745 0)
(1.09303 -0.0119667 0)
(1.08799 -0.0062773 0)
(1.09009 -0.00734618 0)
(1.08317 -0.00582156 0)
(1.08564 -0.00582242 0)
(1.07821 -0.00662072 2.22403e-24)
(1.08067 -0.00612801 0)
(1.07364 -0.0077773 -2.06776e-24)
(1.07586 -0.00719678 0)
(1.06965 -0.00871839 3.89148e-24)
(1.07156 -0.00829935 0)
(1.06632 -0.00913487 3.61847e-26)
(1.06791 -0.00900253 0)
(1.06362 -0.00893238 1.67009e-24)
(1.06489 -0.00910941 0)
(1.06152 -0.00818883 1.583e-24)
(1.06249 -0.00861812 0)
(1.06 -0.00709095 -2.22176e-26)
(1.06069 -0.00767035 0)
(1.05899 -0.00585472 0)
(1.05943 -0.00647757 0)
(1.0584 -0.00465583 0)
(1.05865 -0.0052424 0)
(1.05812 -0.00359683 0)
(1.05823 -0.0041054 0)
(1.05801 -0.00271234 1.10921e-24)
(1.05805 -0.00313294 0)
(1.058 -0.00199203 0)
(1.058 -0.00233451 0)
(1.05802 -0.00140831 -9.59657e-25)
(1.058 -0.00168726 0)
(1.05803 -0.000974042 1.16629e-22)
(1.05802 -0.00117956 0)
(1.05802 -0.000619908 -1.09152e-22)
(1.05803 -0.000789881 -2.29738e-22)
(1.05785 -0.00049339 -2.16709e-22)
(1.05749 -0.000493115 -2.48186e-24)
(1.05768 -0.000507592 -2.17839e-22)
(1.05715 -0.000380003 0)
(1.05731 -0.000456606 -5.25868e-23)
(1.05694 -0.000199291 0)
(1.05702 -0.000296878 0)
(1.05697 1.25346e-05 0)
(1.05694 -9.51358e-05 0)
(1.05703 0.00022332 0)
(1.05699 0.00011396 0)
(1.05716 0.000425967 0)
(1.05708 0.000322729 0)
(1.05725 0.000501492 2.02731e-22)
(1.05761 0.000655131 -4.14528e-22)
(1.05753 0.000901472 1.13829e-22)
(1.05758 0.000776772 0)
(1.05741 0.0011711 0)
(1.05747 0.00102212 1.11717e-22)
(1.05729 0.00155367 0)
(1.05735 0.00135051 0)
(1.05717 0.00203402 0)
(1.05723 0.00178252 0)
(1.05709 0.00261313 -5.66218e-25)
(1.05712 0.00230992 0)
(1.05707 0.00331446 0)
(1.05706 0.00294762 0)
(1.05718 0.00412971 0)
(1.0571 0.00371104 0)
(1.05749 0.00499091 0)
(1.0573 0.00456036 0)
(1.05803 0.0058045 0)
(1.05773 0.00540964 0)
(1.05881 0.00647683 0)
(1.0584 0.00616381 0)
(1.05978 0.00693693 -8.80686e-25)
(1.05928 0.00673537 0)
(1.06088 0.00719997 -9.48641e-25)
(1.06032 0.00708629 0)
(1.06212 0.00745815 0)
(1.06148 0.00730767 0)
(1.06358 0.0081915 0)
(1.06282 0.00772101 0)
(1.06536 0.0102674 0)
(1.06443 0.00899117 0)
(1.06748 0.0149449 2.53447e-24)
(1.06638 0.012191 0)
(1.06978 0.0236545 0)
(1.06862 0.0187144 0)
(1.07206 0.0374138 0)
(1.07094 0.0298763 0)
(1.07419 0.0561044 -9.12411e-26)
(1.07314 0.046209 0)
(1.07651 0.0779367 0)
(1.07527 0.0668072 0)
(1.08004 0.100541 -2.15328e-23)
(1.078 0.0892716 4.71467e-22)
(1.08577 0.122786 -9.71602e-22)
(1.08262 0.111614 9.75466e-22)
(1.08923 0.134301 9.89477e-22)
(1.058 -0.00046041 3.26631e-22)
(0.886211 0.0370073 -1.53442e-22)
(0.915469 0.00153104 0)
(1.07519 -0.08026 -1.3216e-22)
(1.06601 -0.0780668 8.56217e-24)
(0.895116 0.0587833 -1.314e-21)
(0.948172 -0.0158961 0)
(0.925197 0.0811296 -1.05336e-21)
(0.98917 -0.032705 0)
(0.963823 0.103223 1.44593e-21)
(1.02567 -0.0487638 0)
(1.00097 0.124263 1.44255e-21)
(1.05147 -0.0640505 0)
(1.03343 0.143245 3.53947e-21)
(1.06194 0.159295 -1.45318e-21)
(1.09546 0.157006 -8.30574e-22)
(1.08544 0.163105 1.79546e-20)
(1.1016 0.172182 -2.22149e-21)
(1.05815 -0.000588416 -1.07762e-22)
(1.05775 0.000649846 8.28046e-22)
(1.05774 0.000512827 1.92809e-22)
(1.05814 -0.000435533 3.20035e-22)
(1.05763 0.000528733 0)
(0.887705 0.0188371 0)
(1.07279 -0.0906026 5.29408e-22)
(1.07564 -0.0910187 1.63772e-21)
(1.07865 -0.0724974 -1.14976e-21)
(1.07707 -0.0812821 -1.77403e-21)
(1.08271 -0.0564808 -3.96654e-22)
(1.0807 -0.064309 1.04847e-21)
(1.08676 -0.0412515 -4.34089e-22)
(1.08483 -0.0487979 8.71183e-22)
(1.08955 -0.0271071 0)
(1.08839 -0.0339563 0)
(1.09035 -0.0155443 7.65921e-26)
(1.09021 -0.0208971 0)
(1.08907 -0.00789655 0)
(1.08996 -0.0111903 0)
(1.08607 -0.00422366 0)
(1.08774 -0.00561336 0)
(1.08207 -0.00346598 0)
(1.08414 -0.00356438 0)
(1.07778 -0.00430934 -2.22403e-24)
(1.07992 -0.00376203 0)
(1.07371 -0.00569245 2.06776e-24)
(1.0757 -0.0049848 0)
(1.07008 -0.0069243 -3.80261e-24)
(1.07183 -0.00635669 0)
(1.06698 -0.00763876 3.89145e-26)
(1.06846 -0.00735817 0)
(1.0644 -0.00772583 -3.30569e-26)
(1.06562 -0.0077592 0)
(1.06235 -0.00726305 -1.52875e-24)
(1.06331 -0.00755316 0)
(1.0608 -0.00643047 -2.41076e-26)
(1.06151 -0.00688009 0)
(1.05972 -0.00542633 0)
(1.0602 -0.00593856 0)
(1.05902 -0.00440844 0)
(1.05933 -0.00491167 0)
(1.05862 -0.0034723 0)
(1.05879 -0.00392664 0)
(1.05841 -0.00265806 0)
(1.0585 -0.00304933 0)
(1.05829 -0.0019704 0)
(1.05834 -0.00229946 0)
(1.05823 -0.00140265 9.3952e-25)
(1.05826 -0.00167238 0)
(1.05819 -0.000951156 -1.73887e-22)
(1.05821 -0.00116619 5.82264e-23)
(1.05817 -0.000762375 2.35092e-24)
(1.06212 -0.0887433 -2.79194e-22)
(1.07102 -0.102375 0)
(1.07518 -0.102072 5.62681e-23)
(1.05783 -0.000351759 1.0252e-22)
(1.05811 -0.000295599 -7.87891e-24)
(1.05797 -0.000310149 1.00789e-22)
(1.05751 -0.000370345 0)
(1.05767 -0.000367658 0)
(1.0572 -0.00028712 0)
(1.05735 -0.000344171 5.20035e-23)
(1.05704 -0.000151812 0)
(1.0571 -0.000227229 0)
(1.05706 1.6527e-05 0)
(1.05703 -6.88641e-05 0)
(1.05712 0.000184306 0)
(1.05709 9.75259e-05 0)
(1.05723 0.000345058 0)
(1.05717 0.000263632 0)
(1.05741 0.000472232 5.1644e-23)
(1.05731 0.000411402 1.30234e-23)
(1.05751 0.000514695 -1.03614e-22)
(1.05771 0.000920569 -8.51923e-23)
(1.05774 0.000784795 -5.50006e-23)
(1.05764 0.00121975 0)
(1.05768 0.00106224 2.80369e-23)
(1.05756 0.00160103 0)
(1.0576 0.00139896 0)
(1.0575 0.00207028 0)
(1.05753 0.00182521 0)
(1.05747 0.00262506 5.66218e-25)
(1.05748 0.00233633 0)
(1.0575 0.00327615 -5.98767e-25)
(1.05747 0.00293839 0)
(1.05766 0.00400816 0)
(1.05756 0.00363508 0)
(1.05801 0.00476103 0)
(1.05781 0.00438668 0)
(1.05857 0.00546147 0)
(1.05826 0.00512224 0)
(1.05931 0.00603911 -7.87669e-25)
(1.05892 0.00576992 0)
(1.0602 0.00643437 0)
(1.05974 0.00626171 0)
(1.06117 0.00664842 0)
(1.06067 0.00655919 0)
(1.06223 0.00683849 0)
(1.06169 0.00672684 0)