/*--------------------------------*- C++ -*----------------------------------*\
  =========                 |
  \\      /  F ield         | OpenFOAM: The Open Source CFD Toolbox
   \\    /   O peration     | Website:  https://openfoam.org
    \\  /    A nd           | Version:  10
     \\/     M anipulation  |
\*---------------------------------------------------------------------------*/
FoamFile
{
    format      ascii;
    class       volScalarField;
    location    "43";
    object      p;
}
// * * * * * * * * * * * * * * * * * * * * * * * * * * * * * * * * * * * * * //

dimensions      [0 2 -2 0 0 0 0];

internalField   nonuniform List<scalar> 
28942
(
-0.00372205
-0.00309119
0.00208709
0.00958398
0.00988422
0.000119365
0.000353812
4.04232e-05
0.0027955
0.00288362
-0.0022656
-0.00253552
-0.00292164
-0.00283883
0.000233617
0.000579658
0.00995902
0.0102288
0.00565089
0.0072116
0.00823105
0.00822312
-0.0051927
-0.00501462
-0.00354337
-0.00376416
0.0139577
0.0139067
0.00359834
0.00354241
2.9683e-05
6.86441e-05
0.000915603
0.000383231
0.00722071
0.00842712
0.0109654
0.0129253
8.02415e-06
0.0151219
0.00918852
0.0116863
0.00197149
0.00190696
0.00194802
0.000350386
0.000201312
0.000280656
0.000323709
0.000454014
0.000848295
0.00288834
0.00295809
0.00292637
0.00308287
-0.00230631
-0.0009989
-0.0033316
-0.00317659
-0.00345004
-0.00352276
-0.00352382
-0.00342122
-5.87743e-05
-0.0017682
-0.000301749
0.00103541
0.00950009
0.00900344
-0.00331066
-0.00352187
-0.00325542
0.00906348
0.0089159
0.00920739
-0.00141921
-0.00102995
-0.000686129
0.00242365
0.00282327
0.00191071
0.000811643
-0.00627299
-0.00750564
0.00114861
0.00387809
0.00492122
0.00571027
0.00409205
0.00421763
0.00618698
0.00556389
-0.00132803
-0.00162484
-0.0019067
-0.00174176
-0.00156376
0.00540903
0.00670164
-0.00781708
0.0113814
0.0105824
0.00587632
0.00947375
0.00098323
0.000897997
0.000801725
0.00555503
0.00574763
0.00574151
-0.00317398
-0.00309408
-0.00307555
-0.00255546
-0.00267666
0.0159137
0.0139073
0.0133489
0.014981
0.00171123
0.00479776
0.00349358
0.00514021
0.0048175
0.0155854
0.0158809
0.01454
0.00598371
0.0070635
0.000237949
0.000350861
0.000143595
0.0105742
0.0110783
0.00776574
0.00741799
0.0128748
0.00676808
0.00806095
0.00912886
-0.00184208
-0.00235925
0.00742988
0.00189613
0.00197169
-0.00112547
-0.00139388
-0.000923883
-0.00245959
0.00666844
0.00579491
0.003782
0.000314853
0.000252083
0.000110076
0.00025566
0.00760639
0.0068712
-0.00179459
-0.00191316
-0.00180716
-0.00409289
-0.00363414
8.93393e-05
-0.00280991
-0.000452486
0.00847299
0.00858161
0.00967644
0.00921171
0.00778891
0.00318171
0.00310013
0.00333923
0.00321639
0.00512609
0.00490378
0.00523822
0.00545875
0.00539591
0.00546482
0.00567546
0.00622864
0.00592307
0.00552021
0.00585015
0.00655608
0.00730874
0.00760139
-0.000492236
-0.000474973
-0.00241078
0.000263456
9.1518e-05
-0.00192481
-0.00201531
0.000355878
0.000417886
0.000377328
0.000306242
0.00211395
0.00208119
0.00205004
-0.00286881
-0.00305846
-0.00271899
-0.00429912
-0.00478475
-0.00409116
-0.0046821
-0.00645325
-0.00514653
0.0161077
0.0168183
0.0165857
0.0010273
0.00117306
0.00105742
0.0104288
0.010001
0.0100814
0.00160136
0.00157959
0.00162321
0.00155788
0.0015365
0.00151524
0.00151605
0.00149421
0.00149522
0.00153699
0.00155832
0.00157989
0.00160181
0.00162365
0.00147365
0.00147438
0.00164509
0.00164561
0.00166744
0.00145325
0.00145358
0.00166788
0.00143272
0.00141236
0.00143317
0.0014129
0.0016899
0.00169047
0.00139221
0.00139276
0.00171211
0.00171297
0.00137222
0.00137279
0.00173469
0.0017356
0.00135238
0.00135298
0.00175743
0.00175838
0.00133272
0.00133329
0.00178033
0.00178124
0.00131325
0.0013137
0.00180343
0.00180414
0.00129387
0.00129428
0.00182647
0.00182717
0.00127462
0.00127494
0.00184965
0.0018502
0.00125545
0.00125558
0.00187311
0.00187362
0.00123643
0.00123607
0.00189648
0.00189667
0.00121705
0.00121674
0.00192004
0.00192025
0.00119717
0.00119733
0.0018956
0.00191915
0.00194382
0.00194377
0.0018483
0.00187209
0.00180186
0.00182529
0.00175632
0.00177907
0.00171099
0.00173363
0.00166598
0.0016884
0.00162234
0.00164459
0.00157906
0.00160049
0.00153607
0.00155743
0.00149363
0.0015148
0.00145229
0.0014729
0.00141158
0.00143186
0.00137153
0.00139149
0.00133211
0.00135175
0.00129327
0.00131263
0.00125497
0.00127406
0.0012165
0.00123594
0.00119708
0.00117762
0.00117775
0.00123622
0.00119756
0.00121691
0.00127495
0.00125557
0.00131367
0.00129429
0.00135288
0.00133321
0.00139267
0.0013727
0.0014331
0.00141282
0.00147417
0.00145357
0.00151605
0.00149513
0.00155846
0.00153727
0.00160153
0.00157984
0.0016457
0.00162373
0.0016901
0.00166757
0.00173532
0.0017127
0.00178088
0.00175808
0.00182682
0.00180377
0.00187319
0.00184981
0.00191933
0.00189635
0.00194287
0.00194313
0.00117755
0.00117812
0.00196713
0.00196589
0.001967
0.00196743
0.00189372
0.00194101
0.0019173
0.00184654
0.00187017
0.00180059
0.00182339
0.00175509
0.00177782
0.0017099
0.00173245
0.00166527
0.0016875
0.00162108
0.00164315
0.00157771
0.00159959
0.00153532
0.00155619
0.00149297
0.00151405
0.00145163
0.00147222
0.00141099
0.00143123
0.00137099
0.00139091
0.00133161
0.00135123
0.00129281
0.00131215
0.00125456
0.00127362
0.00121627
0.00123547
0.00115806
0.00115817
0.00117766
0.00119704
0.00119787
0.00117867
0.00115889
0.00115823
0.00123641
0.00121719
0.00127478
0.00125547
0.00131338
0.00129402
0.00135254
0.00133289
0.0013923
0.00137234
0.00143269
0.00141242
0.00147374
0.00145315
0.00151551
0.00149454
0.00155803
0.00153665
0.00160104
0.00157946
0.00164489
0.00162303
0.00168937
0.00166709
0.00173441
0.00171184
0.00177988
0.00175711
0.00182561
0.00180274
0.00187143
0.00184855
0.00191734
0.00189438
0.00196306
0.00194037
0.0019646
0.00198908
0.00198618
0.00198993
0.00115859
0.00115929
0.00198988
0.00198737
0.0020119
0.00200916
0.00199076
0.00117791
0.00115889
0.0011396
0.00114
0.00198336
0.00201154
0.00203759
0.00201143
0.00193761
0.00196064
0.00189092
0.00191423
0.00184445
0.00186774
0.00179873
0.00182136
0.00175343
0.00177607
0.00170843
0.00173088
0.00166393
0.00168612
0.00161996
0.00164184
0.00157663
0.00159821
0.00153402
0.00155525
0.00149209
0.00151298
0.00145084
0.00147138
0.00141027
0.00143047
0.00137033
0.00139022
0.00133101
0.0013506
0.00129226
0.00131156
0.00125404
0.00127308
0.001216
0.00123497
0.00119694
0.00113903
0.00113936
0.00113911
0.00113921
0.00119807
0.00115977
0.00117897
0.00123631
0.00121719
0.00127438
0.00125523
0.00131293
0.00129359
0.00135203
0.00133241
0.00139173
0.00137181
0.00143206
0.00141182
0.00147304
0.00145247
0.00151471
0.00149379
0.00155706
0.00153581
0.00160014
0.00157853
0.00164382
0.00162188
0.00168814
0.00166593
0.001733
0.00171051
0.00177828
0.0017556
0.0018238
0.00180103
0.00186931
0.0018466
0.0019147
0.001892
0.0019598
0.00193725
0.00200503
0.00198211
0.00203085
0.00202698
0.00201284
0.00201281
0.0011398
0.00114061
0.00203382
0.00203394
0.00204005
0.00204844
0.00205221
0.00199907
0.0020745
0.00201379
0.0020206
0.00202737
0.00197935
0.00200306
0.00193275
0.00195596
0.00188707
0.0019097
0.00184153
0.00186448
0.00179634
0.0018189
0.00175126
0.00177378
0.00170648
0.00172882
0.00166216
0.00168426
0.00161839
0.0016402
0.00157524
0.00159672
0.00153272
0.00155391
0.00149093
0.00151175
0.00144979
0.00147028
0.00140931
0.00142947
0.00136946
0.00138931
0.00133021
0.00134976
0.00129152
0.0013108
0.00125336
0.00127238
0.00121557
0.00123439
0.00117791
0.00119674
0.00114
0.00115892
0.00112049
0.00112085
0.00112071
0.00112029
0.00112027
0.00112065
0.00112039
0.00112165
0.00112109
0.00116007
0.00112236
0.0011412
0.00119798
0.00117904
0.00123586
0.00121693
0.00127383
0.00125479
0.00131231
0.001293
0.00135135
0.00133176
0.00139097
0.00137108
0.00143121
0.00141101
0.00147209
0.00145157
0.00151365
0.00149279
0.00155587
0.00153469
0.00159879
0.00157726
0.00164233
0.00162048
0.00168647
0.00166434
0.00173113
0.00170875
0.00177616
0.00175361
0.00182141
0.00179878
0.00186663
0.00184405
0.0019115
0.00188912
0.00195577
0.00193375
0.00199955
0.00197767
0.00204269
0.00202089
0.002069
0.00206312
0.00203482
0.00203545
0.00205379
0.00205424
0.0011401
0.0011214
0.00110277
0.00110314
0.00206917
0.00207302
0.00209872
0.00202884
0.00208789
0.00208272
0.0020651
0.00203554
0.00201062
0.00202233
0.0019734
0.00199442
0.00192745
0.0019504
0.00188307
0.00190531
0.00183829
0.00186074
0.00179339
0.00181584
0.0017486
0.00177097
0.00170409
0.0017263
0.00166001
0.00168199
0.00161645
0.00163816
0.00157349
0.0015949
0.00153117
0.00155225
0.00148951
0.00151026
0.0014485
0.00146892
0.00140813
0.00142824
0.00136838
0.00138818
0.00132923
0.00134874
0.00129063
0.00130987
0.00125255
0.00127153
0.00121496
0.0012337
0.00117756
0.00119619
0.00115876
0.00110181
0.0011021
0.00110193
0.00110184
0.00110187
0.00110211
0.00110199
0.00110234
0.00116014
0.00112244
0.00114152
0.00119765
0.00117889
0.00123523
0.00121646
0.00127312
0.00125412
0.00131153
0.00129226
0.00135048
0.00133093
0.00139
0.00137017
0.00143013
0.00140999
0.0014709
0.00145044
0.00151232
0.00149153
0.0015544
0.00153328
0.00159713
0.00157569
0.00164048
0.00161873
0.0016844
0.00166238
0.00172879
0.00170655
0.00177354
0.00175114
0.00181846
0.001796
0.00186331
0.00184092
0.00190777
0.00188561
0.00195144
0.00192974
0.00199407
0.00197302
0.00203538
0.00201416
0.00207631
0.00205675
0.00210113
0.00209445
0.00205685
0.00205615
0.00110223
0.00110362
0.00207363
0.00204811
0.00207743
0.00207514
0.00209169
0.00208895
0.00210471
0.00210185
0.00210643
0.00211866
0.00211331
0.00205676
0.0020374
0.00208916
0.0020671
0.00200357
0.00201813
0.00196635
0.0019876
0.00192261
0.00194444
0.00187875
0.00190077
0.00183441
0.00185663
0.0017899
0.00181216
0.00174547
0.00176767
0.00170128
0.00172334
0.00165749
0.00167933
0.00161418
0.00163577
0.00157144
0.00159274
0.00152932
0.00155031
0.00148783
0.0015085
0.00144698
0.00146733
0.00140675
0.00142679
0.00136713
0.00138687
0.00132809
0.00134754
0.00128959
0.00130877
0.00125161
0.00127054
0.00121411
0.0012328
0.00117694
0.00119552
0.00113969
0.00115834
0.00110213
0.00112108
0.00108342
0.00108326
0.00108326
0.00108359
0.00108347
0.0010838
0.00108367
0.00108391
0.00108387
0.00108419
0.00108402
0.00108496
0.0010845
0.00112253
0.00108532
0.00110391
0.00115986
0.00114127
0.00119712
0.00117849
0.00123446
0.00121574
0.00127227
0.00125331
0.00131058
0.00129137
0.00134943
0.00132994
0.00138884
0.00136906
0.00142884
0.00140876
0.00146946
0.00144908
0.00151072
0.00149002
0.00155262
0.00153159
0.00159514
0.00157381
0.00163826
0.00161664
0.00168192
0.00166003
0.00172602
0.00170393
0.00177043
0.0017482
0.00181496
0.0017927
0.00185938
0.00183721
0.00190337
0.00188145
0.00194655
0.00192509
0.00198845
0.00196774
0.00202873
0.00200873
0.00206689
0.00204836
0.00210351
0.00208445
0.00213066
0.00212178
0.0020759
0.00210108
0.00208924
0.00110202
0.00108349
0.00106632
0.00106654
0.0020763
0.00209433
0.00210381
0.00211014
0.00212366
0.00213689
0.00214635
0.00213809
0.0020765
0.00208049
0.00211613
0.0021072
0.00209508
0.00203501
0.00205959
0.00199711
0.00201412
0.00195957
0.00198018
0.00191701
0.00193834
0.00187377
0.0018955
0.00182996
0.00185192
0.00178592
0.00180796
0.0017419
0.0017639
0.00169808
0.00171996
0.0016546
0.00167629
0.00161158
0.00163303
0.0015691
0.00159027
0.0015272
0.00154808
0.00148591
0.00150648
0.00144523
0.0014655
0.00140517
0.00142513
0.00136569
0.00138536
0.00132678
0.00134617
0.0012884
0.00130752
0.00125052
0.0012694
0.00121311
0.00123176
0.00117614
0.00119458
0.00113916
0.00115765
0.00112058
0.00106503
0.00106474
0.00106488
0.00106553
0.00106533
0.00106589
0.00106573
0.00106595
0.00106596
0.00106593
0.00106596
0.00106607
0.0011225
0.00108539
0.00110396
0.00115934
0.00114093
0.00119632
0.00117784
0.00123357
0.00121489
0.00127128
0.00125237
0.00130948
0.00129032
0.0013482
0.00132878
0.00138748
0.00136777
0.00142733
0.00140733
0.00146779
0.00144749
0.00150886
0.00148825
0.00155055
0.00152964
0.00159285
0.00157163
0.0016357
0.00161421
0.00167906
0.00165733
0.00172282
0.0017009
0.00176685
0.00174482
0.00181095
0.00178891
0.00185488
0.00183296
0.00189834
0.0018767
0.00194095
0.00191978
0.00198226
0.00196182
0.00202182
0.00200231
0.00205886
0.00204072
0.00209436
0.00207633
0.0021272
0.0021105
0.00212484
0.00212096
0.00215286
0.0021427
0.00209297
0.00106502
0.00106666
0.00211928
0.00209549
0.00213176
0.00210915
0.00211317
0.00212836
0.00212879
0.00214218
0.00215262
0.00216097
0.00216685
0.00215713
0.00209509
0.00209509
0.00213803
0.00213058
0.00210902
0.00206914
0.00208541
0.0020292
0.00204889
0.00199033
0.00200898
0.00195233
0.00197232
0.00191075
0.00193167
0.0018682
0.00188959
0.001825
0.00184666
0.00178148
0.00180326
0.00173791
0.00175969
0.00169449
0.00171617
0.00165136
0.00167288
0.00160866
0.00162996
0.00156646
0.0015875
0.00152481
0.00154557
0.00148375
0.00150421
0.00144327
0.00146344
0.00140339
0.00142326
0.00136407
0.00138366
0.0013253
0.00134462
0.00128705
0.00130612
0.0012493
0.00126812
0.001212
0.00123059
0.00117513
0.00119351
0.00113852
0.00115684
0.00110179
0.00112011
0.00106494
0.00108351
0.0010466
0.00104635
0.00104644
0.0010471
0.00104678
0.00104767
0.00104739
0.00104806
0.0010479
0.0010481
0.00104812
0.00104797
0.00104802
0.0010479
0.00104787
0.00104817
0.00104795
0.00108529
0.00104833
0.00106689
0.00112211
0.00110367
0.00115865
0.00114042
0.00119539
0.00117698
0.00123254
0.00121392
0.00127014
0.00125129
0.00130822
0.00128912
0.00134681
0.00132745
0.00138593
0.0013663
0.00142562
0.00140571
0.00146589
0.00144568
0.00150676
0.00148625
0.00154821
0.00152742
0.00159024
0.00156916
0.0016328
0.00161146
0.00167583
0.00165427
0.00171922
0.00169749
0.00176283
0.00174101
0.00180646
0.00178466
0.00184986
0.00182821
0.00189274
0.0018714
0.00193471
0.00191387
0.00197535
0.00195524
0.0020142
0.00199504
0.00205059
0.00203275
0.00208441
0.0020679
0.0021153
0.00209973
0.00214447
0.00213087
0.00214037
0.00214045
0.0021672
0.00215401
0.00211217
0.00211453
0.00214197
0.00215253
0.00214647
0.00212882
0.00213169
0.00106476
0.00104658
0.00102983
0.00103002
0.0021474
0.00214639
0.00215847
0.00216729
0.00217423
0.00217721
0.00215184
0.00214319
0.00215082
0.00217767
0.00216865
0.00216663
0.00211422
0.00212127
0.00212858
0.00208466
0.00210062
0.00205757
0.00207376
0.00202035
0.00203864
0.00198314
0.00200185
0.00194467
0.00196428
0.00190399
0.00192451
0.00186215
0.00188319
0.00181957
0.00184093
0.0017766
0.00179812
0.00173352
0.00175507
0.00169053
0.00171201
0.0016478
0.00166913
0.00160544
0.00162657
0.00156355
0.00158444
0.00152218
0.0015428
0.00148136
0.0015017
0.0014411
0.00146116
0.00140141
0.00142119
0.00136227
0.00138178
0.00132367
0.00134291
0.00128557
0.00130456
0.00124794
0.0012667
0.00121077
0.0012293
0.00117401
0.00119234
0.00113764
0.00115579
0.00110125
0.00111945
0.00108305
0.00102851
0.00102812
0.00102827
0.00102928
0.00102892
0.00102992
0.00102963
0.00103029
0.00103015
0.00103035
0.00103036
0.00103012
0.00103025
0.0010299
0.00103001
0.00102985
0.00108504
0.00104858
0.00106682
0.00112145
0.00110321
0.00115772
0.00113956
0.00119435
0.00117599
0.00123139
0.00121282
0.00126887
0.00125008
0.00130681
0.00128778
0.00134524
0.00132596
0.0013842
0.00136465
0.0014237
0.00140388
0.00146377
0.00144367
0.0015044
0.00148402
0.0015456
0.00152494
0.00158735
0.00156641
0.00162959
0.00160841
0.00167225
0.00165088
0.00171523
0.00169372
0.00175838
0.00173681
0.00180151
0.00177997
0.00184435
0.00182299
0.00188661
0.00186558
0.00192791
0.00190741
0.00196783
0.00194808
0.00200592
0.00198714
0.00204161
0.00202411
0.00207449
0.00205848
0.00210417
0.00208974
0.00212981
0.00211784
0.00215483
0.00214004
0.00216266
0.00217472
0.0021886
0.00218226
0.0021705
0.00215837
0.00215653
0.00215832
0.00213153
0.00213317
0.00102827
0.00103
0.00216665
0.00214784
0.00214948
0.0021636
0.00216312
0.0021738
0.00218172
0.00218526
0.00218569
0.00215995
0.00214568
0.0021515
0.00215496
0.00216351
0.00217814
0.00216733
0.00217625
0.00218075
0.00219192
0.00218834
0.00213313
0.0021318
0.00213539
0.00210591
0.00211589
0.00207489
0.00209104
0.00204572
0.00206102
0.00201118
0.00202883
0.00197474
0.00199316
0.00193669
0.00195598
0.00189678
0.00191693
0.00185565
0.00187635
0.00181371
0.00183476
0.00177133
0.00179256
0.00172876
0.00175006
0.00168623
0.00170749
0.00164392
0.00166504
0.00160193
0.00162288
0.00156037
0.0015811
0.0015193
0.00153977
0.00147874
0.00149895
0.00143873
0.00145867
0.00139925
0.00141893
0.00136031
0.00137972
0.00132188
0.00134103
0.00128394
0.00130285
0.00124646
0.00126515
0.00120942
0.00122789
0.00117278
0.00119105
0.00113653
0.00115461
0.00110049
0.00111853
0.00106447
0.00108245
0.00102819
0.00104631
0.00101017
0.00101003
0.00101
0.00101078
0.00101036
0.0010116
0.00101119
0.00101225
0.00101196
0.0010126
0.00101246
0.00101266
0.00101267
0.00101244
0.00101258
0.00101204
0.00101228
0.00101176
0.00101186
0.00101169
0.00101172
0.00104819
0.00101169
0.00103006
0.00108455
0.00106639
0.00112054
0.00110258
0.00115669
0.00113857
0.00119321
0.0011749
0.00123012
0.00121161
0.00126745
0.00124873
0.00130524
0.00128629
0.00134351
0.00132432
0.00138228
0.00136284
0.00142158
0.00140187
0.00146143
0.00144144
0.00150181
0.00148156
0.00154274
0.00152221
0.00158417
0.0015634
0.00162606
0.00160507
0.00166834
0.00164716
0.00171089
0.00168959
0.00175355
0.00173222
0.00179614
0.00177488
0.00183839
0.00181734
0.00188001
0.00185931
0.00192061
0.00190047
0.00195979
0.00194042
0.00199709
0.00197871
0.002032
0.00201489
0.0020641
0.00204845
0.00209288
0.00207897
0.00211737
0.00210578
0.00213811
0.00212839
0.00214311
0.00217072
0.00217814
0.00218108
0.00216778
0.00215018
0.00215117
0.00217368
0.00216442
0.00216639
0.00102779
0.00100982
0.00099352
0.000993358
0.00217984
0.00217883
0.00218825
0.00219427
0.00219709
0.00219781
0.00215993
0.0021454
0.00215752
0.00216875
0.00218047
0.00218167
0.00218969
0.00220022
0.00219018
0.00216916
0.00218381
0.00215142
0.00213361
0.0021295
0.0021153
0.0021258
0.00209065
0.0021033
0.00206413
0.00207807
0.00203467
0.00204982
0.0020014
0.00201846
0.00196576
0.00198381
0.00192834
0.0019473
0.00188918
0.00190895
0.00184875
0.0018691
0.00180747
0.0018282
0.00176568
0.00178663
0.00172366
0.00174469
0.00168162
0.00170263
0.00163974
0.00166065
0.00159814
0.0016189
0.00155694
0.00157749
0.00151618
0.0015365
0.00147591
0.00149599
0.00143615
0.00145597
0.00139691
0.00141647
0.00135818
0.00137748
0.00131994
0.001339
0.00128217
0.001301
0.00124485
0.00126346
0.00120796
0.00122636
0.00117145
0.00118966
0.00113531
0.00115334
0.00109951
0.00111738
0.00106378
0.00108158
0.00104582
0.000992285
0.000991831
0.000992076
0.000993158
0.000992735
0.000994021
0.000993609
0.000994639
0.000994366
0.000994979
0.000994843
0.000995045
0.000995046
0.000994829
0.000994972
0.000994373
0.000994624
0.000993825
0.000994116
0.000993584
0.00104778
0.00101165
0.0010299
0.0010838
0.00106576
0.00111951
0.00110163
0.00115555
0.00113749
0.00119195
0.00117371
0.00122872
0.00121029
0.00126591
0.00124727
0.00130353
0.00128467
0.00134162
0.00132252
0.0013802
0.00136085
0.00141928
0.00139968
0.00145888
0.00143902
0.001499
0.00147888
0.00153962
0.00151925
0.00158072
0.00156012
0.00162225
0.00160144
0.00166411
0.00164315
0.0017062
0.00168514
0.00174836
0.00172729
0.00179039
0.00176941
0.00183203
0.00181128
0.00187297
0.00185262
0.00191286
0.00189308
0.00195128
0.00193229
0.00198779
0.00196982
0.0020219
0.00200519
0.00205315
0.00203793
0.00208107
0.00206758
0.00210493
0.00209357
0.00212421
0.00211535
0.00213832
0.00213157
0.00215254
0.00214679
0.00217032
0.00215663
0.00215
0.00218383
0.00218627
0.00216706
0.0021682
0.000991685
0.00099356
0.00219086
0.00218037
0.0021823
0.00219474
0.00219347
0.00220143
0.00220604
0.00220742
0.00220516
0.00216074
0.00214346
0.00214264
0.00214058
0.00213746
0.00215694
0.00216033
0.00217959
0.00218271
0.00219484
0.00219433
0.00220476
0.00219616
0.00218417
0.00216951
0.00216849
0.00213428
0.00214198
0.00211749
0.00211752
0.00209934
0.00211136
0.002078
0.00208919
0.00205239
0.00206572
0.00202346
0.00203834
0.00199114
0.00200769
0.00195636
0.00197402
0.00191964
0.00193824
0.00188121
0.00190062
0.00184149
0.00186149
0.00180088
0.00182128
0.0017597
0.00178035
0.00171823
0.00173899
0.0016767
0.00169746
0.00163527
0.00165597
0.0015941
0.00161465
0.00155326
0.00157363
0.00151284
0.001533
0.00147287
0.0014928
0.00143339
0.00145307
0.0013944
0.00141383
0.00135589
0.00137508
0.00131785
0.00133681
0.00128027
0.00129901
0.00124312
0.00126165
0.00120638
0.00122471
0.00117002
0.00118816
0.00113401
0.00115198
0.00109834
0.00111613
0.00106294
0.0010806
0.00102721
0.00104504
0.000991218
0.00100938
0.000973909
0.000973012
0.000973453
0.00097472
0.000974262
0.00097565
0.000975164
0.000976507
0.000976111
0.000977094
0.000976833
0.000977423
0.000977291
0.000977491
0.000977489
0.000977299
0.000977428
0.000976853
0.000977106
0.00097621
0.00097654
0.000975695
0.000975921
0.000975571
0.00097555
0.00101136
0.000975651
0.000993583
0.00104716
0.00102936
0.00108281
0.001065
0.00111841
0.00110057
0.00115433
0.00113633
0.00119058
0.00117241
0.00122721
0.00120885
0.00126423
0.00124567
0.00130168
0.00128291
0.00133958
0.00132057
0.00137794
0.0013587
0.00141679
0.00139731
0.00145613
0.0014364
0.00149596
0.00147599
0.00153627
0.00151606
0.00157702
0.0015566
0.00161816
0.00159755
0.00165959
0.00163885
0.0017012
0.00168039
0.00174283
0.00172203
0.00178428
0.0017636
0.00182529
0.00180487
0.00186556
0.00184555
0.00190472
0.00188531
0.00194238
0.00192378
0.0019781
0.00196052
0.0020114
0.00199509
0.00204183
0.00202702
0.00206889
0.00205583
0.00209203
0.002081
0.00211075
0.00210203
0.00212488
0.00211829
0.00213463
0.00213098
0.00213385
0.00219769
0.00220189
0.00215604
0.0021431
0.00218301
0.00218423
0.00220081
0.00219525
0.00219714
0.000990943
0.000973243
0.00095768
0.000957563
0.00220854
0.00220695
0.00221344
0.00221653
0.00221613
0.00221224
0.00214076
0.00212486
0.00212242
0.00214031
0.00216013
0.00217863
0.00219373
0.00219632
0.0022059
0.00220907
0.00219759
0.00218211
0.00216756
0.00213165
0.00214415
0.00218455
0.00212807
0.00212316
0.00211592
0.00212572
0.00210135
0.00210788
0.00208584
0.00209483
0.00206513
0.00207599
0.00204024
0.00205318
0.00201199
0.00202653
0.00198056
0.00199665
0.0019466
0.00196387
0.00191061
0.00192885
0.00187292
0.00189196
0.00183391
0.00185356
0.00179397
0.00181404
0.00175341
0.00177375
0.00171251
0.00173299
0.0016715
0.00169201
0.00163055
0.00165101
0.0015898
0.00161015
0.00154936
0.00156954
0.00150929
0.00152927
0.00146964
0.00148941
0.00143045
0.00144999
0.00139171
0.00141102
0.00135344
0.00137252
0.00131562
0.00133448
0.00127824
0.00129688
0.00124127
0.00125971
0.0012047
0.00122294
0.00116849
0.00118655
0.00113262
0.00115052
0.00109707
0.00111481
0.00106182
0.00107941
0.00102646
0.00104416
0.00100867
0.000956177
0.00095532
0.000955758
0.000957241
0.000956735
0.00095824
0.000957748
0.000959051
0.000958678
0.000959612
0.000959362
0.000959929
0.000959801
0.000960001
0.000959995
0.000959828
0.000959945
0.000959415
0.000959652
0.00095878
0.000959118
0.000958055
0.000958436
0.000957757
0.00101096
0.000975476
0.000993416
0.00104641
0.00102872
0.00108174
0.0010641
0.00111722
0.00109944
0.001153
0.00113507
0.00118911
0.00117102
0.00122558
0.00120731
0.00126243
0.00124396
0.00129969
0.00128101
0.00133738
0.00131849
0.00137552
0.0013564
0.00141412
0.00139477
0.00145319
0.0014336
0.00149272
0.0014729
0.0015327
0.00151266
0.00157308
0.00155285
0.00161381
0.00159341
0.00165479
0.00163428
0.00169591
0.00167535
0.001737
0.00171648
0.00177786
0.00175748
0.00181823
0.00179813
0.00185781
0.00183815
0.00189625
0.00187721
0.00193315
0.00191493
0.00196808
0.0019509
0.0020006
0.00198469
0.00203023
0.00201582
0.00205651
0.00204383
0.00207893
0.00206825
0.00209707
0.00208859
0.00211079
0.00210445
0.00211936
0.00211598
0.00212266
0.00212136
0.00212565
0.00212141
0.00212872
0.00211439
0.00211554
0.00220994
0.00221309
0.00219794
0.00219921
0.000955335
0.000957616
0.00220866
0.00220906
0.00221084
0.00222092
0.00221923
0.00222422
0.00222562
0.00222348
0.00221781
0.00212157
0.00210521
0.00209696
0.00210061
0.00208995
0.00210545
0.00211658
0.00214038
0.00215756
0.00217882
0.00219308
0.0022067
0.00221176
0.00221123
0.00219715
0.00217969
0.00216127
0.00213981
0.00211968
0.00219956
0.00211552
0.00211317
0.00211084
0.00210219
0.0020989
0.00210943
0.00208758
0.00209334
0.00207222
0.00208066
0.00205202
0.00206264
0.00202789
0.00204043
0.00200035
0.00201453
0.00196973
0.0019854
0.00193657
0.00195344
0.00190132
0.00191919
0.00186435
0.00188303
0.00182605
0.00184535
0.00178678
0.00180652
0.00174684
0.00176688
0.00170653
0.00172672
0.00166604
0.0016863
0.00162558
0.00164581
0.00158528
0.00160541
0.00154523
0.00156522
0.00150553
0.00152534
0.00146622
0.00148583
0.00142733
0.00144672
0.00138887
0.00140804
0.00135085
0.00136981
0.00131326
0.001332
0.00127609
0.00129462
0.00123931
0.00125765
0.00120291
0.00122107
0.00116687
0.00118485
0.00113115
0.00114897
0.00109573
0.00111341
0.0010606
0.00107813
0.0010256
0.00104312
0.000990467
0.00100798
0.000955034
0.000972888
0.000937843
0.000937141
0.000937461
0.000938823
0.000938263
0.000939907
0.000939365
0.000940889
0.000940421
0.000941653
0.0009413
0.000942188
0.000941949
0.000942494
0.00094237
0.000942569
0.00094256
0.000942414
0.00094252
0.000942033
0.000942252
0.000941422
0.000941757
0.000940643
0.000941039
0.000940029
0.000940294
0.000939999
0.000939873
0.000975194
0.000939947
0.000957647
0.00101049
0.000992886
0.00104552
0.00102795
0.0010806
0.00106304
0.00111595
0.00109824
0.00115159
0.00113373
0.00118754
0.00116953
0.00122384
0.00120565
0.00126051
0.00124213
0.00129757
0.001279
0.00133504
0.00131626
0.00137294
0.00135394
0.00141128
0.00139206
0.00145007
0.00143062
0.00148928
0.00146963
0.00152891
0.00150905
0.00156891
0.00154887
0.00160922
0.00158904
0.00164974
0.00162946
0.00169035
0.00167005
0.00173089
0.00171065
0.00177115
0.00175107
0.00181087
0.0017911
0.00184977
0.00183046
0.00188749
0.00186881
0.00192364
0.0019058
0.00195781
0.00194101
0.00198956
0.00197403
0.00201844
0.00200441
0.00204399
0.00203168
0.00206577
0.0020554
0.00208336
0.00207513
0.00209656
0.00209052
0.00210486
0.00210144
0.00210782
0.00210704
0.00210627
0.00210767
0.00210032
0.00222087
0.00222278
0.00210128
0.00208951
0.0022118
0.00221304
0.00221749
0.00222159
0.00222333
0.000954627
0.000937048
0.000922302
0.000922286
0.00223195
0.00223026
0.00223362
0.00223332
0.00222937
0.00222197
0.00209567
0.00208255
0.00206768
0.00208073
0.00211668
0.00213385
0.00215878
0.00217097
0.00219331
0.0022071
0.00221762
0.00221155
0.00219523
0.00217654
0.00215303
0.00213404
0.00211111
0.00207554
0.00208732
0.00221344
0.00209231
0.00207552
0.00209912
0.00210014
0.00209301
0.00208959
0.00208468
0.0020918
0.00207376
0.00207945
0.00205854
0.00206679
0.00203889
0.00204922
0.00201543
0.00202763
0.00198858
0.00200242
0.00195872
0.00197401
0.00192631
0.00194281
0.00189179
0.0019093
0.00185554
0.00187387
0.00181794
0.0018369
0.00177933
0.00179875
0.00174003
0.00175976
0.00170029
0.0017202
0.00166035
0.00168034
0.00162039
0.00164037
0.00158053
0.00160044
0.00154091
0.00156069
0.00150158
0.00152121
0.00146262
0.00148206
0.00142404
0.00144328
0.00138587
0.00140491
0.00134811
0.00136694
0.00131076
0.00132939
0.00127381
0.00129224
0.00123724
0.00125548
0.00120102
0.00121909
0.00116515
0.00118305
0.00112959
0.00114733
0.00109432
0.00111192
0.00105932
0.00107679
0.00102456
0.00104192
0.000989728
0.00100709
0.000972193
0.000920388
0.000919535
0.000919956
0.000921554
0.000920982
0.000922655
0.000922119
0.000923587
0.000923147
0.000924309
0.000923974
0.00092482
0.000924591
0.000925114
0.000924994
0.000925192
0.00092518
0.000925054
0.00092515
0.000924703
0.000924905
0.00092414
0.000924448
0.000923386
0.00092378
0.000922603
0.000923006
0.000922357
0.000974856
0.000939917
0.000957378
0.00100971
0.000992233
0.00104444
0.00102705
0.00107939
0.00106188
0.0011146
0.00109696
0.00115008
0.0011323
0.00118588
0.00116794
0.001222
0.0012039
0.00125848
0.00124019
0.00129532
0.00127685
0.00133257
0.0013139
0.00137022
0.00135134
0.00140829
0.0013892
0.00144677
0.00142748
0.00148566
0.00146617
0.00152493
0.00150525
0.00156453
0.00154469
0.0016044
0.00158444
0.00164445
0.00162442
0.00168454
0.00166451
0.00172452
0.00170457
0.00176418
0.00174441
0.00180326
0.00178382
0.00184148
0.00182251
0.00187848
0.00186016
0.00191391
0.00189643
0.00194735
0.00193091
0.00197837
0.0019632
0.00200654
0.00199285
0.00203143
0.00201944
0.00205262
0.00204253
0.00206974
0.00206173
0.00208251
0.0020767
0.00209055
0.00208719
0.0020936
0.0020927
0.00209141
0.00209333
0.00208363
0.00208796
0.00207564
0.00207571
0.00206092
0.00205124
0.00206311
0.0022304
0.00223062
0.00222444
0.00222566
0.000919454
0.000922103
0.00222468
0.0022328
0.00223455
0.00224164
0.00223992
0.00224161
0.00223953
0.00223377
0.00222438
0.00205396
0.00204963
0.00204184
0.00206197
0.0020805
0.00210247
0.0021336
0.00214941
0.00217353
0.00218866
0.00220608
0.00221907
0.00221011
0.00219187
0.00217076
0.00214893
0.00212445
0.0020983
0.00207216
0.00204084
0.00204618
0.00203275
0.00222611
0.00207285
0.00204865
0.00207492
0.0020678
0.00208165
0.00208093
0.00207686
0.00207885
0.002071
0.00207518
0.00206
0.0020659
0.00204498
0.00205305
0.00202583
0.0020359
0.00200296
0.00201485
0.00197675
0.00199026
0.00194758
0.00196252
0.00191589
0.00193203
0.00188208
0.00189923
0.00184653
0.00186451
0.00180962
0.00182823
0.00177167
0.00179076
0.00173299
0.00175241
0.00169384
0.00171346
0.00165444
0.00167416
0.00161498
0.00163471
0.00157559
0.00159527
0.00153639
0.00155597
0.00149746
0.00151689
0.00145885
0.00147811
0.00142059
0.00143968
0.00138272
0.00140161
0.00134524
0.00136393
0.00130814
0.00132664
0.00127142
0.00128973
0.00123506
0.00125319
0.00119904
0.00121701
0.00116334
0.00118115
0.00112795
0.00114561
0.00109283
0.00111036
0.00105797
0.00107537
0.00102335
0.00104063
0.000988787
0.00100603
0.000954184
0.000971568
0.00091913
0.00093673
0.000902219
0.0009015
0.000901818
0.000903229
0.000902658
0.000904383
0.000903799
0.000905454
0.000904941
0.000906332
0.000905917
0.000907018
0.000906699
0.000907504
0.000907286
0.000907788
0.000907671
0.000907868
0.000907853
0.000907746
0.000907832
0.000907423
0.000907609
0.000906905
0.000907188