/*--------------------------------*- C++ -*----------------------------------*\
  =========                 |
  \\      /  F ield         | OpenFOAM: The Open Source CFD Toolbox
   \\    /   O peration     | Website:  https://openfoam.org
    \\  /    A nd           | Version:  10
     \\/     M anipulation  |
\*---------------------------------------------------------------------------*/
FoamFile
{
    format      ascii;
    class       volVectorField;
    location    "43";
    object      U;
}
// * * * * * * * * * * * * * * * * * * * * * * * * * * * * * * * * * * * * * //

dimensions      [0 1 -1 0 0 0 0];

internalField   nonuniform List<vector> 
28942
(
(0.00447064 -0.00227824 -3.374e-22)
(0.00605003 -0.00236488 -6.24297e-23)
(0.0179847 -0.012418 -8.37774e-22)
(0.103305 0.0182397 -5.30656e-21)
(0.102342 0.0222816 1.73702e-21)
(0.0174881 0.000574345 0)
(0.0208071 0.000145668 1.44592e-23)
(0.0240576 0.000740979 -1.28802e-23)
(0.135252 -0.0180163 -2.62325e-22)
(0.133884 -0.0163798 7.46167e-22)
(0.00993512 0.0040723 -6.61087e-22)
(0.0162712 0.00571423 2.49117e-22)
(0.00723307 0.00319641 0)
(0.00477725 0.00209632 0)
(0.0533586 0.00225658 -1.91932e-23)
(0.0513189 0.00296151 -7.1764e-24)
(0.0893301 0.0158636 6.72586e-22)
(0.0870178 0.0138349 1.08217e-21)
(0.0121804 -0.0151311 2.94653e-21)
(0.0293701 -0.0305042 -7.75597e-22)
(0.0981618 0.0373394 9.60448e-22)
(0.097334 0.0343788 0)
(0.0188932 0.00469538 1.15919e-21)
(0.0079366 0.00239619 5.45426e-22)
(0.0380211 0.0073018 9.35256e-22)
(0.057819 0.0029946 -8.52612e-22)
(0.00765355 -0.0185093 8.55235e-21)
(0.00669786 -0.016572 -3.14906e-21)
(0.0355772 -0.0253613 5.80865e-22)
(0.0193355 -0.0137037 2.00711e-22)
(0.0179153 -0.00166895 0)
(0.0224022 -0.00149894 -1.71027e-23)
(0.0283261 0.00494981 3.50495e-22)
(0.0404901 0.00211211 -5.92506e-23)
(0.0188428 0.0180217 1.32617e-21)
(0.0157328 0.0191305 -1.32159e-21)
(0.0321962 0.0376344 -3.07356e-21)
(0.0186835 0.0305475 -1.07378e-21)
(0.00965864 5.53116e-05 -1.21057e-23)
(0.00865538 0.016205 -2.62999e-21)
(0.0306475 -0.00620335 0)
(0.0513403 -0.0109699 0)
(0.112674 -0.0153055 -3.06877e-23)
(0.112183 -0.0153862 9.14192e-23)
(0.116113 -0.0151122 7.87843e-23)
(0.0337647 0.000302263 1.48319e-23)
(0.0314562 -0.00058734 -2.41193e-23)
(0.0446041 -0.000525359 -1.06636e-22)
(0.042784 -0.00059056 3.02406e-23)
(0.0349386 -0.00308592 -2.58851e-22)
(0.0261913 -0.00377924 1.66949e-22)
(0.128324 0.00181213 -4.15323e-22)
(0.127671 0.00131869 -3.86573e-22)
(0.134591 -0.020821 -3.81023e-24)
(0.13302 -0.019094 1.42173e-22)
(0.0830616 0.00659734 7.09433e-22)
(0.102318 -0.000494048 2.44187e-22)
(0.00310155 0.00164321 -5.5884e-22)
(0.00904988 0.00372787 0)
(0.00834887 0.003331 2.3529e-22)
(0.00292208 0.00150901 4.8207e-22)
(0.000370693 0.000231349 -4.01169e-22)
(0.000198823 0.000125964 -3.84809e-22)
(0.110073 -0.0426043 0)
(0.105267 -0.0255688 1.23576e-22)
(0.122129 -0.0330091 -4.17354e-23)
(0.123709 -0.0436891 0)
(0.0901518 -0.032785 -6.43071e-22)
(0.09366 -0.0352445 -4.2278e-22)
(0.0019043 -0.00114028 1.11521e-21)
(0.00251458 -0.002035 -3.51465e-22)
(0.00491818 -0.00318364 8.72009e-22)
(0.0849449 -0.0457527 0)
(0.0912629 -0.0396036 2.18341e-21)
(0.0806243 -0.0530308 5.90032e-22)
(0.114556 0.0122283 2.28831e-22)
(0.113208 0.00668136 -2.54115e-22)
(0.125546 0.0107298 -1.03802e-22)
(0.00469638 -0.00286957 -5.42579e-23)
(0.00635624 -0.0044377 4.56987e-22)
(0.0511453 -0.0312058 1.29273e-22)
(0.0332531 -0.020589 -2.5977e-22)
(0.0021301 -0.000606013 3.18918e-21)
(0.0051936 -0.00209281 -1.24298e-21)
(0.101189 0.0482524 1.59769e-23)
(0.0971943 0.055224 -7.75439e-22)
(0.080846 0.0540394 7.08437e-22)
(0.0472778 0.0345457 -2.71541e-21)
(0.0445067 0.0316443 1.92317e-21)
(0.0295378 0.0206218 -1.15385e-22)
(0.0327604 0.0232757 -6.48324e-22)
(0.0380069 0.0283873 8.79334e-22)
(0.00447696 0.00276075 -5.6869e-23)
(0.00789301 0.00403754 -1.65244e-23)
(0.00323795 0.00204027 3.31131e-23)
(0.00194639 0.00165668 -4.41333e-22)
(0.00146351 0.00157933 5.40284e-22)
(0.0157632 0.011557 -3.29203e-21)
(0.0175166 0.0136493 7.54706e-22)
(0.00885656 -0.0038753 0)
(0.101389 0.00516028 0)
(0.0984001 0.0156849 -3.98626e-21)
(0.0604372 0.0104758 1.96433e-21)
(0.088676 0.0178823 0)
(0.13583 -0.00191485 0)
(0.135277 -0.00266421 0)
(0.133662 -0.00312807 -2.79163e-22)
(0.114999 0.0264669 -2.14912e-22)
(0.114095 0.0278789 2.12331e-21)
(0.11329 0.0253417 1.13939e-21)
(0.00232934 0.00131727 1.04035e-21)
(0.00153672 0.000787281 -1.16769e-21)
(0.0192025 -0.00559612 -5.41265e-22)
(0.0203156 -0.00513355 4.60473e-22)
(0.00919062 -0.00296297 9.09237e-22)
(0.00647997 0.0111466 1.48555e-21)
(0.0189782 0.0181563 3.47352e-21)
(0.0134738 0.0228031 2.72342e-22)
(0.00492375 0.0143074 -8.66371e-21)
(0.11721 0.0477019 5.67456e-23)
(0.108006 0.0582041 1.08557e-21)
(0.11849 0.0548122 -1.87229e-21)
(0.0391545 -0.0294564 7.37782e-22)
(0.0240475 -0.0172893 -4.72979e-22)
(0.00532439 -0.000749811 -4.12146e-21)
(0.00454106 -0.00360113 0)
(0.0125026 -0.00168356 2.013e-21)
(0.0219966 -0.016152 7.84323e-22)
(0.0343054 -0.0278187 -1.97228e-21)
(0.0422609 2.66332e-06 7.52127e-23)
(0.0448619 0.000169432 -5.31911e-23)
(0.0397463 0.000206974 -2.31841e-24)
(0.0280896 -0.0419921 0)
(0.0296376 -0.0428796 0)
(0.0896166 -0.0186555 -4.68944e-22)
(0.0995842 -0.0220942 3.18296e-21)
(0.087032 -0.0252794 0)
(0.0471849 -0.0402314 0)
(0.058256 -0.0514279 -7.89421e-22)
(0.041351 0.0393589 2.09938e-21)
(-5.8519e-06 0.000210679 5.02463e-22)
(-0.00019968 0.00012768 -3.2942e-22)
(0.0223569 -0.0192645 -7.97474e-22)
(0.119907 -0.0147846 4.45677e-22)
(0.11928 -0.0148135 -8.57225e-23)
(0.116035 -0.00539285 -6.4901e-23)
(0.109027 0.00131262 8.64899e-23)
(0.11827 0.00011238 1.69403e-22)
(8.27051e-05 0.000259446 1.94677e-22)
(0.0438009 0.0344476 3.23408e-21)
(0.0619603 0.0463394 -7.95953e-22)
(0.0594111 0.0394058 -3.0705e-24)
(0.0277992 -0.00100738 6.96242e-24)
(0.0273948 -0.00102309 3.74343e-23)
(0.0296846 -0.00084832 1.7526e-24)
(0.0330981 -0.000772091 -1.84147e-23)
(0.0454705 0.0381151 1.34031e-22)
(0.0189817 0.016072 0)
(0.000139601 -3.2326e-05 3.57418e-22)
(0.000426218 -0.000259213 -3.96555e-22)
(0.00187801 -0.00102409 2.75513e-22)
(0.0367458 -0.00779993 -1.83e-21)
(0.0651516 -0.00218583 -7.44407e-22)
(0.0383318 -0.000356875 -2.31732e-24)
(0.0747654 -0.00760782 2.70452e-22)
(0.0709379 -0.0157361 5.51844e-23)
(0.0943507 0.0398705 2.16063e-21)
(0.0914592 0.0454117 9.92253e-23)
(0.0887762 0.0290525 1.22457e-21)
(0.0915031 0.0307653 -8.87431e-22)
(0.0987475 0.0410219 0)
(0.125887 -0.00072262 1.53729e-22)
(0.126633 -0.00117661 2.91096e-22)
(0.128026 -0.0119619 -3.02374e-22)
(0.129485 -0.0117406 5.17857e-22)
(0.117071 0.0239857 2.63959e-22)
(0.119133 0.0248705 -7.47678e-22)
(0.117124 0.0260037 0)
(0.115155 0.0247549 1.55364e-22)
(0.116703 0.0279344 0)
(0.117231 0.0359672 -5.58702e-22)
(0.115773 0.0380308 -3.04678e-22)
(0.111404 0.0418686 -5.4686e-22)
(0.113796 0.0399885 0)
(0.116501 0.0429586 1.81156e-21)
(0.113778 0.0448957 4.73922e-23)
(0.1084 0.0440917 -3.06848e-22)
(0.0997048 0.0502262 -1.29983e-21)
(0.0984799 0.0454379 -2.28935e-22)
(0.0253583 -0.00863782 5.16626e-23)
(0.0333352 -0.00954364 -2.06352e-23)
(0.00635322 -0.00251692 -6.79724e-22)
(0.0376859 -5.38886e-05 -4.92407e-23)
(0.047929 -0.000302712 0)
(-3.87166e-06 -4.03935e-05 4.2055e-22)
(1.26328e-05 -4.7443e-05 2.14695e-22)
(0.043469 -0.00207081 2.2311e-23)
(0.0510684 -0.00201203 8.77155e-24)
(0.0505466 -0.00136425 0)
(0.0420908 -0.000904213 9.80179e-24)
(0.101109 0.0040592 -1.3165e-22)
(0.100764 0.00364014 6.23779e-22)
(0.101489 0.00375519 2.91689e-22)
(0.000682751 0.000273986 3.87285e-22)
(-0.000160196 -0.000130724 -5.63018e-22)
(-0.000203192 -0.000171956 4.78566e-22)
(0.00152263 0.000629716 0)
(8.44326e-05 9.12507e-05 1.13424e-21)
(0.000177671 -3.64462e-05 -8.15703e-22)
(0.00751238 0.00370597 -9.8715e-22)
(0.0014706 0.000791566 -1.18128e-21)
(0.00173917 0.000870333 0)
(0.00157285 0.00754347 0)
(0.000577308 0.00328112 0)
(0.000313466 0.00197658 0)
(0.136927 -0.00197872 6.10095e-23)
(0.137862 -0.00184888 0)
(0.136318 -0.00280092 -7.09744e-23)
(0.0881289 -0.0148521 4.45471e-21)
(0.090135 -0.0152591 -1.61711e-21)
(0.0890491 -0.0128777 0)
(0.112348 0.000138745 -7.28362e-24)
(0.112635 0.00012879 1.45786e-23)
(0.112042 0.000150149 -4.94502e-24)
(0.112905 0.000120407 0)
(0.113159 0.000115347 -9.25183e-24)
(0.113395 0.000108104 0)
(0.113392 -0.000137175 0)
(0.113616 9.6557e-05 3.41699e-23)
(0.113609 -0.000136725 0)
(0.113158 -0.000142984 -9.31443e-24)
(0.112904 -0.000151317 0)
(0.112634 -0.000160366 4.87832e-24)
(0.112345 -0.000171753 -7.28768e-24)
(0.112041 -0.00018283 4.93883e-24)
(0.11382 8.51817e-05 -3.26977e-23)
(0.113813 -0.000133813 -1.14233e-24)
(0.111715 0.000163633 7.72957e-28)
(0.111712 -0.000191717 -7.57489e-24)
(0.111363 0.000177237 4.04005e-23)
(0.114009 7.72225e-05 3.04849e-26)
(0.114007 -0.000127595 -1.13908e-24)
(0.111362 -0.000205018 1.49592e-23)
(0.114188 6.93018e-05 3.06252e-23)
(0.114356 6.25351e-05 -3.06e-23)
(0.114187 -0.000122032 2.29791e-24)
(0.114356 -0.000116349 4.52697e-24)
(0.111001 0.000198851 -3.93077e-23)
(0.110996 -0.00021927 -9.85398e-24)
(0.114512 5.5716e-05 0)
(0.114512 -0.000111352 -4.46509e-24)
(0.110607 0.000214541 4.87891e-27)
(0.110604 -0.00023063 -4.89114e-27)
(0.114659 4.98807e-05 0)
(0.114659 -0.00010628 0)
(0.110189 0.00022845 0)
(0.110185 -0.000244871 0)
(0.114796 4.39346e-05 0)
(0.114796 -0.000101848 2.13609e-24)
(0.109745 0.000242886 -2.05986e-23)
(0.109741 -0.000259009 -5.02062e-27)
(0.114923 3.88814e-05 1.11897e-25)
(0.114924 -9.72881e-05 -2.28126e-24)
(0.109274 0.000256398 2.0697e-23)
(0.10927 -0.000275004 0)
(0.115043 3.37571e-05 0)
(0.115044 -9.31876e-05 0)
(0.108776 0.00027061 -1.31476e-24)
(0.108771 -0.000290196 2.25913e-23)
(0.115155 2.93321e-05 1.37966e-23)
(0.115156 -8.89053e-05 0)
(0.108251 0.00028302 -1.43719e-25)
(0.108245 -0.00030662 -2.13838e-23)
(0.115259 2.46932e-05 -2.06297e-23)
(0.11526 -8.51566e-05 -5.98465e-24)
(0.107686 0.000288823 2.18606e-23)
(0.107683 -0.000323751 0)
(0.115357 2.07748e-05 6.79053e-24)
(0.115358 -8.07526e-05 3.99065e-24)
(0.107094 0.000300042 -1.11067e-23)
(0.107091 -0.000344417 2.25241e-23)
(0.115448 1.75128e-05 -2.70913e-23)
(0.115451 -7.50858e-05 3.05343e-23)
(0.10645 0.000296914 1.14836e-23)
(0.106453 -0.00036976 3.63951e-25)
(0.115535 1.47109e-05 0)
(0.115538 -7.03057e-05 1.45445e-23)
(0.105772 0.000294214 -2.3163e-23)
(0.105779 -0.00040286 4.63402e-23)
(0.115619 1.12368e-05 0)
(0.11562 -6.73332e-05 0)
(0.106521 0.000959699 -1.1363e-23)
(0.105844 0.000991083 -4.6138e-23)
(0.105045 0.000284621 0)
(0.105064 -0.000448098 -2.36735e-23)
(0.107753 0.000888234 -7.10199e-24)
(0.107153 0.000925675 1.3959e-24)
(0.108835 0.000803836 0)
(0.108305 0.000846561 -2.28612e-23)
(0.109798 0.000718711 -4.37885e-26)
(0.10933 0.000760992 0)
(0.110654 0.000636617 0)
(0.110239 0.000677207 0)
(0.111415 0.00055457 0)
(0.111045 0.000596335 0)
(0.112075 0.000481916 9.75496e-24)
(0.111753 0.000517184 2.46738e-24)
(0.112662 0.000420355 -9.38554e-24)
(0.112381 0.000449862 -9.75232e-24)
(0.113177 0.00036697 1.65746e-23)
(0.112927 0.000390408 2.12369e-23)
(0.113633 0.000320135 0)
(0.113412 0.000344322 0)
(0.114027 0.000276492 -7.23179e-26)
(0.113837 0.000297671 0)
(0.114371 0.000237234 0)
(0.114205 0.000256268 0)
(0.114672 0.000202571 0)
(0.114526 0.000219319 0)
(0.114934 0.000172235 0)
(0.114807 0.000186883 0)
(0.115164 0.000145686 0)
(0.115053 0.000158494 0)
(0.115365 0.000122473 0)
(0.115268 0.000133683 0)
(0.115542 9.92711e-05 -1.10637e-23)
(0.115456 0.000111863 0)
(0.115624 8.87161e-05 -3.57193e-24)
(0.115696 7.19367e-06 3.48423e-24)
(0.115697 -6.50595e-05 -3.45524e-24)
(0.115458 -0.000163209 0)
(0.115625 -0.000144714 -1.41849e-23)
(0.115544 -0.000153264 -7.31037e-24)
(0.115268 -0.000185306 2.00635e-24)
(0.115366 -0.000174101 -7.84832e-24)
(0.115052 -0.000208434 6.51459e-26)
(0.115164 -0.000196887 0)
(0.114806 -0.000233552 0)
(0.114933 -0.000220563 0)
(0.114524 -0.000262319 0)
(0.11467 -0.000247438 0)
(0.114201 -0.000295348 0)
(0.114368 -0.000278236 8.63334e-30)
(0.11383 -0.000333592 7.32102e-26)
(0.114022 -0.000313717 0)
(0.113409 -0.000375208 0)
(0.113625 -0.000354441 0)
(0.112926 -0.000421111 0)
(0.113174 -0.00039754 0)
(0.112373 -0.000475975 0)
(0.112658 -0.000446326 -4.92461e-24)
(0.111744 -0.000540885 1.30757e-24)
(0.112067 -0.000509684 -6.38116e-24)
(0.111034 -0.000615996 0)
(0.111402 -0.000575625 -5.20997e-24)
(0.110227 -0.000695445 0)
(0.110643 -0.00065494 0)
(0.109318 -0.000781985 0)
(0.109786 -0.000737772 0)
(0.108294 -0.000874867 0)
(0.108821 -0.000827716 0)
(0.107147 -0.000973313 -5.81104e-24)
(0.107738 -0.000922002 0)
(0.105865 -0.00109121 -2.37111e-23)
(0.106525 -0.0010267 -5.8596e-24)
(0.105161 -0.00116249 2.42016e-23)
(0.105125 0.00102336 4.58007e-23)
(0.115701 7.95614e-05 6.98527e-24)
(0.115702 -0.000136819 -1.36412e-23)
(0.104298 -0.000505396 0)
(0.104417 -0.00124923 0)
(0.104367 0.00105573 0)
(0.104276 0.000266963 0)
(0.106665 0.00161 0)
(0.105309 0.00175797 1.14439e-23)
(0.106006 0.001682 1.15333e-23)
(0.107877 0.00146125 1.45853e-23)
(0.107288 0.0015366 -2.91789e-24)
(0.108943 0.00131128 4.48446e-26)
(0.108426 0.00138564 0)
(0.109892 0.00116928 0)
(0.109432 0.00123921 0)
(0.110735 0.00103632 0)
(0.110326 0.00110162 0)
(0.111481 0.00091377 0)
(0.111119 0.000973449 0)
(0.112139 0.000800972 0)
(0.11182 0.000856761 0)
(0.112715 0.000701688 -3.9305e-26)
(0.112434 0.000750976 1.01586e-23)
(0.11322 0.000611561 -3.75752e-26)
(0.112978 0.000654108 -1.97533e-23)
(0.113667 0.000530146 0)
(0.11345 0.000569476 0)
(0.114057 0.000459201 3.61194e-26)
(0.113869 0.000493503 0)
(0.114397 0.000396782 0)
(0.114232 0.000426996 0)
(0.114694 0.000341961 0)
(0.11455 0.000368464 0)
(0.114953 0.000294023 0)
(0.114828 0.000317181 0)
(0.11518 0.000252173 0)
(0.11507 0.000272382 0)
(0.115379 0.000215461 0)
(0.115283 0.000233266 0)
(0.115554 0.000180768 7.55757e-24)
(0.115469 0.000198037 0)
(0.115769 3.852e-06 0)
(0.115773 7.13393e-05 6.82328e-24)
(0.11571 0.00015037 0)
(0.115634 0.000164929 7.36003e-24)
(0.115636 -0.000221808 1.46574e-23)
(0.115711 -0.000208843 3.5974e-24)
(0.115773 -0.000130289 2.80497e-23)
(0.115769 -6.2484e-05 0)
(0.11547 -0.000251845 0)
(0.115555 -0.000236148 -2.21293e-23)
(0.115282 -0.000285745 6.31965e-26)
(0.11538 -0.000268069 7.89605e-24)
(0.115069 -0.000322531 -6.51456e-26)
(0.115179 -0.000303645 0)
(0.114825 -0.000364161 0)
(0.114951 -0.000342641 0)
(0.114546 -0.000411908 0)
(0.114691 -0.000387217 0)
(0.114227 -0.000466713 0)
(0.114392 -0.000438365 -8.63332e-30)
(0.113862 -0.000529603 -1.46371e-25)
(0.11405 -0.00049709 0)
(0.113445 -0.00060098 0)
(0.11366 -0.000564271 0)
(0.112967 -0.00068195 2.48318e-24)
(0.113214 -0.000640129 0)
(0.112424 -0.00077233 0)
(0.112705 -0.000724641 -2.47282e-24)
(0.111805 -0.000876828 5.21588e-24)
(0.112123 -0.00082389 5.1696e-24)
(0.111102 -0.000992433 0)
(0.111465 -0.000933156 0)
(0.110307 -0.00112029 0)
(0.110717 -0.00105483 0)
(0.109411 -0.00126049 0)
(0.109872 -0.00118885 0)
(0.108403 -0.00141296 0)
(0.108921 -0.00133517 0)
(0.107276 -0.00157755 9.31476e-26)
(0.107855 -0.00149365 0)
(0.10602 -0.00175392 -9.49621e-26)
(0.106665 -0.00166437 0)
(0.104616 -0.00196781 -2.49368e-23)
(0.105335 -0.00185704 2.49254e-23)
(0.104574 0.00183455 2.33959e-23)
(0.103635 -0.00134827 0)
(0.103855 -0.00209408 -5.0978e-23)
(0.103502 -0.000569186 0)
(0.115781 0.000138308 0)
(0.115782 -0.000196766 -3.48891e-24)
(0.103572 0.00108971 5.95328e-23)
(0.103802 0.00191324 2.38366e-23)
(0.10281 -0.00145157 1.29068e-23)
(0.103055 -0.00222918 6.44382e-23)
(0.103467 0.000246484 0)
(0.115723 0.000222154 2.87795e-23)
(0.115793 0.00020455 -1.42123e-23)
(0.11584 -0.000123902 -6.90321e-24)
(0.115848 -0.000185233 3.43194e-23)
(0.10415 0.00271006 8.32964e-23)
(0.102982 0.00199475 -4.68881e-23)
(0.102514 0.00296575 -2.10932e-22)
(0.103351 0.00282974 -4.76087e-23)
(0.105592 0.00247195 2.30626e-23)
(0.104889 0.00259128 -7.07733e-23)
(0.106891 0.0022395 -2.35331e-23)
(0.106259 0.00235507 -1.78259e-23)
(0.108062 0.00201799 -5.83119e-24)
(0.107493 0.00212878 -5.84898e-24)
(0.109104 0.00180819 -4.48446e-26)
(0.108599 0.00191165 0)
(0.11003 0.00161104 0)
(0.10958 0.00170792 0)
(0.110852 0.00142799 0)
(0.110453 0.00151771 0)
(0.11158 0.00125982 0)
(0.111227 0.00134197 0)
(0.112223 0.00110731 0)
(0.111911 0.00118159 0)
(0.112787 0.000969648 0)
(0.112514 0.00103677 0)
(0.113283 0.000846601 3.2204e-29)
(0.113044 0.00090642 0)
(0.113719 0.000736252 0)
(0.113508 0.000789731 0)
(0.1141 0.000639212 3.60784e-26)
(0.113916 0.000686155 0)
(0.114434 0.000554017 0)
(0.114273 0.00059523 0)
(0.114725 0.00047936 0)
(0.114584 0.000515448 0)
(0.11498 0.000414128 0)
(0.114857 0.00044564 0)
(0.115203 0.000357227 0)
(0.115096 0.000384709 0)
(0.115399 0.000307379 0)
(0.115304 0.000331535 0)
(0.115571 0.000262055 3.85161e-24)
(0.115488 0.00028415 -1.93845e-24)
(0.11565 0.000241434 -1.4684e-23)
(0.115836 1.62692e-06 -3.26899e-24)
(0.115847 0.000126808 1.36688e-23)
(0.11584 6.41668e-05 -1.04542e-23)
(0.115836 -6.10172e-05 0)
(0.115651 -0.000298462 -1.09069e-23)
(0.115794 -0.000262708 -3.14578e-23)
(0.115725 -0.000280076 2.53467e-23)
(0.115488 -0.000339893 0)
(0.115572 -0.000318326 0)
(0.115304 -0.000384452 -2.36004e-29)
(0.115399 -0.000361075 0)
(0.115094 -0.000435162 0)
(0.115202 -0.000409017 0)
(0.114854 -0.000493032 -6.70611e-26)
(0.114978 -0.000463117 0)
(0.11458 -0.0005594 0)
(0.114722 -0.000525088 0)
(0.114266 -0.000635472 0)
(0.114428 -0.000596155 0)
(0.113908 -0.000722477 7.31716e-26)
(0.114093 -0.000677545 0)
(0.113498 -0.000821401 7.52216e-26)
(0.11371 -0.000770397 0)
(0.113031 -0.000933785 0)
(0.113272 -0.000875809 0)
(0.112498 -0.00106048 0)
(0.112773 -0.00099523 0)
(0.111892 -0.00120312 0)
(0.112204 -0.0011299 0)
(0.111204 -0.00136171 0)
(0.111559 -0.00128024 0)
(0.110427 -0.00153734 -8.61774e-26)
(0.110827 -0.00144742 0)
(0.109551 -0.00172993 0)
(0.110002 -0.00163154 0)
(0.108567 -0.00193926 0)
(0.109073 -0.00183254 0)
(0.107468 -0.00216467 -1.19581e-28)
(0.108032 -0.00205001 0)
(0.106245 -0.00240482 1.45489e-28)
(0.106872 -0.00228301 0)
(0.10489 -0.0026673 9.86572e-26)
(0.105584 -0.00253096 0)
(0.103388 -0.00297376 -5.22167e-23)
(0.104157 -0.00281418 1.27912e-23)
(0.102221 -0.00236511 1.31561e-23)
(0.102593 -0.00314158 2.60684e-23)
(0.102739 0.00111835 -2.32488e-23)
(0.10266 -0.000638775 -2.50043e-23)
(0.115858 0.000188519 3.47867e-24)
(0.11586 -0.000247356 2.47219e-23)
(0.102094 0.00206055 2.89189e-24)
(0.101947 -0.00156489 0)
(0.101463 0.00298053 3.23562e-22)
(0.101767 -0.00331114 4.03434e-23)
(0.101362 -0.0025059 5.38501e-23)
(0.102002 0.00417543 -5.38499e-22)
(0.101441 0.00441858 9.80331e-23)
(0.102636 0.000227878 0)
(0.103163 0.0038058 5.36027e-23)
(0.102515 0.00401499 2.76417e-23)
(0.104594 0.00346518 4.82476e-23)
(0.103865 0.00362604 -7.37031e-23)
(0.10596 0.00314945 -2.38953e-23)
(0.105296 0.00330814 -1.19503e-23)
(0.107195 0.00284671 1.19273e-23)
(0.106593 0.00299557 1.21325e-23)
(0.108313 0.00255904 0)
(0.107767 0.00270057 -3.07167e-26)
(0.109314 0.00229031 0)
(0.108828 0.00242244 0)
(0.110209 0.00203997 4.35968e-26)
(0.109774 0.00216281 0)
(0.111004 0.00180852 0)
(0.110618 0.00192187 0)
(0.111709 0.00159636 0)
(0.111367 0.00170001 0)
(0.112332 0.00140388 0)
(0.11203 0.0014977 0)
(0.11288 0.00123047 3.91906e-26)
(0.112615 0.00131488 0)
(0.113363 0.00107531 3.55181e-29)
(0.113129 0.00115069 0)
(0.113786 0.000937076 0)
(0.113581 0.00100413 0)
(0.114157 0.000814995 -7.21277e-26)
(0.113978 0.000874097 0)
(0.114482 0.000707734 0)
(0.114325 0.000759617 0)
(0.114767 0.000613786 0)
(0.114629 0.000659196 0)
(0.115016 0.000531716 0)
(0.114896 0.000571361 0)
(0.115234 0.000460148 0)
(0.115128 0.000494712 0)
(0.115425 0.000397603 0)
(0.115333 0.000427868 0)
(0.115593 0.00034225 -1.92366e-24)
(0.115512 0.00036884 0)
(0.115742 0.000293139 0)
(0.11567 0.000316904 -3.7291e-24)
(0.115873 0.000249609 4.61127e-28)
(0.11581 0.000270639 0)
(0.115909 0.000116168 -1.38586e-23)
(0.115933 0.000231129 8.36592e-25)
(0.11592 0.000174231 6.78534e-24)
(0.115898 -6.75345e-07 4.98409e-24)
(0.115902 5.7673e-05 -3.44031e-24)
(0.115903 -0.000118039 -1.73194e-24)
(0.115898 -5.93521e-05 1.72897e-24)
(0.115921 -0.000233827 0)
(0.11591 -0.000175846 -1.57336e-23)
(0.115811 -0.000329177 -7.07483e-24)
(0.115935 -0.000291964 -1.3527e-23)
(0.115875 -0.000309524 3.1106e-23)
(0.115671 -0.000373954 -3.71534e-24)
(0.115743 -0.000350798 0)
(0.115512 -0.000424919 0)
(0.115594 -0.000398539 0)
(0.115332 -0.000481318 -3.11887e-29)
(0.115425 -0.000452236 0)
(0.115126 -0.000545675 0)
(0.115232 -0.00051243 0)
(0.114892 -0.000619379 6.70611e-26)
(0.115013 -0.000581276 0)
(0.114624 -0.000703891 0)
(0.114762 -0.000660205 0)
(0.114318 -0.000800666 0)
(0.114476 -0.000750665 0)
(0.113968 -0.000911193 0)
(0.114149 -0.000854131 0)
(0.113569 -0.00103692 -5.94536e-29)
(0.113775 -0.000972079 0)
(0.113114 -0.00117949 0)
(0.113349 -0.00110602 0)
(0.112595 -0.00134027 0)
(0.112863 -0.0012575 0)
(0.112006 -0.00152067 0)
(0.11231 -0.00142803 0)
(0.111339 -0.00172144 0)
(0.111683 -0.00161843 0)
(0.110585 -0.00194336 8.61774e-26)
(0.110973 -0.00182977 0)
(0.109736 -0.00218649 0)
(0.110173 -0.0020623 0)
(0.108784 -0.0024505 0)
(0.109273 -0.00231595 0)
(0.107722 -0.00273445 -9.30192e-26)
(0.108268 -0.00259007 0)
(0.106543 -0.00303658 9.52927e-26)
(0.107148 -0.00288339 0)
(0.10524 -0.00335608 -9.75424e-26)
(0.105907 -0.00319416 0)
(0.103811 -0.00370056 1.28679e-23)
(0.104541 -0.00352218 -2.53699e-23)
(0.102266 -0.00408337 -1.30062e-23)
(0.103051 -0.00388702 2.64736e-23)
(0.100904 -0.00348063 5.14807e-25)
(0.101446 -0.00428078 2.68404e-23)
(0.101863 0.00112937 -2.40061e-23)
(0.101791 -0.000697807 0)
(0.101189 0.00207624 -2.32238e-22)
(0.101057 -0.00165877 0)
(0.115892 0.000311439 -3.47724e-24)
(0.115951 0.000288501 2.54757e-24)
(0.115978 -0.000221112 -1.32867e-23)
(0.115991 -0.000274667 -1.50558e-23)
(0.100492 0.00294366 -2.27942e-22)
(0.100466 -0.00264686 -5.43769e-23)
(0.100654 0.00439806 0)
(0.10256 0.00494237 -6.26175e-23)
(0.100013 -0.00365239 -2.66765e-23)
(0.100593 -0.00447697 4.07562e-23)
(0.101818 0.00505814 1.25453e-22)
(0.101763 0.000207157 0)
(0.103796 0.00454943 0)
(0.10317 0.0047561 -5.55422e-23)
(0.10512 0.0041616 0)
(0.104454 0.00435544 0)
(0.106395 0.00378095 0)
(0.10577 0.00396884 1.23807e-23)
(0.107559 0.00341903 0)
(0.10699 0.00359782 0)
(0.108617 0.00307523 0)
(0.108101 0.00324457 0)
(0.109571 0.00275283 0)
(0.109107 0.00291135 0)
(0.110427 0.00245256 -4.35968e-26)
(0.110011 0.00259988 0)
(0.111189 0.00217519 0)
(0.110819 0.002311 0)
(0.111866 0.00192112 0)
(0.111538 0.00204524 0)
(0.112465 0.0016905 0)
(0.112175 0.00180292 0)
(0.112994 0.0014828 -4.71961e-29)
(0.112738 0.00158387 0)
(0.113459 0.00129701 4.23692e-29)
(0.113234 0.00138724 0)
(0.113868 0.00113173 0)
(0.11367 0.0012119 0)
(0.114227 0.000985625 3.49936e-29)
(0.114053 0.00105638 0)
(0.114542 0.000857153 0)
(0.11439 0.000919304 0)
(0.114818 0.000744593 0)
(0.114684 0.000799002 0)
(0.11506 0.000646246 0)
(0.114943 0.000693756 0)
(0.115271 0.000560483 0)
(0.115169 0.000601899 0)
(0.115457 0.000485698 0)
(0.115367 0.000521829 0)
(0.11562 0.000420314 0)
(0.115541 0.000451937 0)
(0.115765 0.000362114 3.6978e-24)
(0.115695 0.000389945 3.78573e-24)
(0.115831 0.000335603 -7.09195e-24)
(0.115966 0.000106546 -6.79596e-24)
(0.11599 0.000214426 0)
(0.115976 0.000160733 -6.86453e-24)
(0.115956 -2.75557e-06 0)
(0.115959 5.22198e-05 6.93572e-24)
(0.11596 -0.000112958 1.0353e-23)
(0.115956 -5.8011e-05 -3.4991e-24)
(0.115967 -0.000166931 -2.03506e-23)
(0.115832 -0.000394656 3.56602e-24)
(0.115953 -0.00034752 1.3254e-23)
(0.115894 -0.000371412 0)
(0.115696 -0.00044775 -7.39407e-24)
(0.115766 -0.000420403 7.41849e-24)
(0.115541 -0.00050792 0)
(0.115621 -0.000477138 0)
(0.115366 -0.000575792 -3.84812e-29)
(0.115457 -0.000540738 0)
(0.115166 -0.000653464 0)
(0.11527 -0.000613318 0)
(0.114938 -0.000742508 0)
(0.115056 -0.000696475 0)
(0.114678 -0.00084457 0)
(0.114813 -0.000791821 0)
(0.114381 -0.000961353 0)
(0.114535 -0.000901027 0)
(0.114042 -0.00109462 7.30122e-26)
(0.114217 -0.00102583 0)
(0.113656 -0.00124617 -7.51621e-26)
(0.113855 -0.00116801 0)
(0.113216 -0.00141784 0)
(0.113443 -0.00132939 0)
(0.112715 -0.00161127 0)
(0.112973 -0.00151174 0)
(0.112147 -0.001828 0)
(0.11244 -0.0017167 0)
(0.111504 -0.00206905 0)
(0.111835 -0.00194544 0)
(0.110779 -0.00233517 0)
(0.111152 -0.00219899 0)
(0.109964 -0.00262643 0)
(0.110383 -0.0024777 0)
(0.109052 -0.0029423 -9.04412e-26)
(0.109521 -0.00278137 0)
(0.108037 -0.00328155 9.26891e-26)
(0.108558 -0.00310913 0)
(0.106911 -0.0036421 -9.49176e-26)
(0.107488 -0.00345934 0)
(0.105671 -0.00402149 0)
(0.106306 -0.00382964 0)
(0.104315 -0.00441671 0)
(0.105008 -0.00421715 0)
(0.10285 -0.00482762 1.02561e-25)
(0.103598 -0.0046189 1.29987e-23)
(0.101271 -0.00526305 -6.81847e-23)
(0.102072 -0.00504187 0)
(0.0997165 -0.00468477 -4.04176e-23)
(0.100441 -0.00548878 -4.81298e-25)
(0.100959 0.00113371 7.51509e-23)
(0.100888 -0.000751717 0)
(0.116006 0.000267012 -1.32264e-23)
(0.116008 -0.00032732 -2.55389e-23)
(0.100193 0.00205782 -3.99791e-23)
(0.0999883 0.00385871 6.05515e-25)
(0.099518 0.00292976 1.14887e-22)
(0.100144 -0.00174385 0)
(0.0995392 -0.00276889 1.36774e-23)
(0.100841 0.00513073 -1.15634e-22)
(0.099952 0.00511369 1.00259e-22)
(0.0992826 0.00410194 -9.86086e-23)
(0.099089 -0.00381382 -4.10507e-23)
(0.0988071 -0.00488117 2.74533e-23)
(0.0995882 -0.00572722 2.68188e-23)
(0.100854 0.000184304 0)
(0.103158 0.00564074 3.48604e-24)
(0.101517 0.00598872 -3.19506e-25)
(0.102369 0.00580776 2.71124e-23)
(0.104445 0.00523105 2.67339e-23)
(0.10382 0.00544181 -2.68728e-23)
(0.105694 0.00479738 4.89539e-26)
(0.105068 0.00501534 0)
(0.10688 0.00436973 0)
(0.106298 0.00458178 0)
(0.107972 0.00395727 0)
(0.107438 0.00416144 0)
(0.108968 0.0035635 0)
(0.108482 0.00375777 0)
(0.10987 0.00319228 4.45519e-26)
(0.109431 0.00337494 0)
(0.11068 0.00284579 0)
(0.110286 0.00301585 0)
(0.111404 0.00252545 0)
(0.111053 0.00268232 0)
(0.112049 0.00223194 0)
(0.111736 0.00237534 0)
(0.112621 0.00196536 0)
(0.112344 0.00209532 0)
(0.113126 0.00172518 -3.91434e-26)
(0.112881 0.00184205 0)
(0.113572 0.00151029 4.93983e-29)
(0.113356 0.00161467 0)
(0.113964 0.00131919 0)
(0.113774 0.00141189 0)
(0.114309 0.00115019 7.1988e-26)
(0.114142 0.00123205 0)
(0.114612 0.00100147 0)
(0.114465 0.00107343 0)
(0.114878 0.000871103 0)
(0.114749 0.000934129 0)
(0.115111 0.000757141 0)
(0.114998 0.0008122 0)
(0.115315 0.000657732 0)
(0.115216 0.00070574 0)
(0.115495 0.000571093 0)
(0.115408 0.000612934 0)
(0.115653 0.000495513 6.02919e-26)
(0.115576 0.000532031 0)
(0.115792 0.000428957 -3.71395e-24)
(0.115725 0.000461339 0)
(0.115916 0.000369506 3.53039e-24)
(0.115856 0.000398277 0)
(0.116025 0.000317635 3.36575e-24)
(0.115972 0.000342767 -3.44322e-24)
(0.116042 0.000198506 6.6517e-24)
(0.116076 0.000294354 0)
(0.116058 0.000247721 9.90225e-24)
(0.116019 9.81167e-05 0)
(0.116029 0.000148419 0)
(0.116009 -4.72713e-06 0)
(0.116012 4.69864e-05 0)
(0.116013 -0.000108236 0)
(0.11601 -5.66234e-05 0)
(0.116031 -0.000209611 1.35413e-23)
(0.11602 -0.000159146 3.3643e-24)
(0.116059 -0.000308695 3.32872e-24)
(0.116043 -0.000259457 2.65337e-23)
(0.115974 -0.000403471 1.7299e-23)
(0.116077 -0.000357298 3.31315e-24)
(0.116027 -0.000379283 -6.73352e-24)
(0.115858 -0.000457841 3.55657e-24)
(0.115918 -0.000429715 -2.13206e-23)
(0.115726 -0.000519368 -3.28949e-29)
(0.115794 -0.000487589 0)
(0.115576 -0.000588442 0)
(0.115653 -0.000552758 0)
(0.115407 -0.000667441 -4.57164e-29)
(0.115494 -0.000626612 0)
(0.115214 -0.000757975 0)
(0.115313 -0.000711173 0)
(0.114994 -0.000861778 0)
(0.115107 -0.000808119 0)
(0.114742 -0.000980691 0)
(0.114872 -0.000919241 0)
(0.114456 -0.00111666 0)
(0.114604 -0.00104643 0)
(0.11413 -0.0012717 -1.45947e-25)
(0.114298 -0.00119168 0)
(0.113758 -0.00144789 0)
(0.11395 -0.00135704 0)
(0.113336 -0.00164728 0)
(0.113554 -0.00154458 0)
(0.112856 -0.00187176 0)
(0.113103 -0.00175629 0)
(0.112313 -0.00212296 0)
(0.112593 -0.00199397 0)
(0.111699 -0.00240211 -8.35866e-26)
(0.112015 -0.00225901 0)
(0.111008 -0.00270991 0)
(0.111363 -0.00255243 0)
(0.110233 -0.00304639 0)
(0.110631 -0.00287462 0)
(0.109368 -0.00341081 9.04412e-26)
(0.109812 -0.00322521 0)
(0.108406 -0.00380153 -2.09737e-28)
(0.108899 -0.00360304 0)
(0.107343 -0.00421601 1.896e-25)
(0.107887 -0.00400603 0)
(0.106175 -0.00465074 0)
(0.106772 -0.00443114 0)
(0.104902 -0.0051009 0)
(0.105551 -0.00487417 0)
(0.103523 -0.00555931 -3.39529e-28)
(0.104226 -0.00532966 0)
(0.102042 -0.00602227 0)
(0.102794 -0.00579039 0)
(0.100469 -0.00651007 -4.06244e-23)
(0.101266 -0.00626229 0)
(0.0987088 -0.00595615 -4.302e-25)
(0.0996503 -0.0067659 6.90555e-23)
(0.099989 0.00112117 0)
(0.10068 0.00608778 1.57578e-22)
(0.0991983 0.00203449 2.73784e-23)
(0.116048 0.00036774 -3.35942e-24)
(0.116096 0.000342131 0)
(0.116107 -0.00029177 3.24209e-24)
(0.116124 -0.000336357 -6.42828e-24)
(0.0999541 -0.000802947 0)
(0.0991963 -0.00182438 0)
(0.0986337 0.00306723 0)
(0.0985817 -0.0028838 -1.34711e-23)
(0.0981322 -0.00397723 -2.71667e-23)
(0.0978671 -0.00508336 0)
(0.0978015 -0.00618243 6.99724e-23)
(0.0988062 -0.00701305 -5.57084e-23)
(0.0999037 0.000158634 0)
(0.102358 0.00676497 -1.30297e-26)
(0.0997608 0.0061646 4.9692e-23)
(0.100753 0.0071082 -1.77259e-22)
(0.101569 0.00695045 5.17042e-23)
(0.103852 0.00631786 -1.68012e-23)
(0.103115 0.00653274 -2.68814e-23)
(0.105126 0.00586612 0)
(0.104513 0.00609676 0)
(0.106305 0.00539048 -4.89494e-26)
(0.10572 0.00562898 0)
(0.107412 0.00491947 0)
(0.106869 0.00515378 0)
(0.10843 0.00446123 0)
(0.107932 0.00468835 0)
(0.109361 0.00402187 0)
(0.108906 0.00423887 0)
(0.110205 0.00360613 -4.45519e-26)
(0.109793 0.00381084 0)
(0.110966 0.0032172 0)
(0.110595 0.00340818 0)
(0.111648 0.00285713 0)
(0.111316 0.00303349 0)
(0.112256 0.00252692 0)
(0.111961 0.00268828 0)
(0.112797 0.00222678 0)
(0.112535 0.00237313 0)
(0.113276 0.00195619 3.90266e-26)
(0.113044 0.00208787 0)
(0.1137 0.00171397 5.60608e-29)
(0.113495 0.00183164 0)
(0.114073 0.00149848 0)
(0.113892 0.00160301 0)
(0.114402 0.00130783 -4.60485e-29)
(0.114243 0.00140019 0)
(0.114692 0.00113994 0)