/*--------------------------------*- C++ -*----------------------------------*\
  =========                 |
  \\      /  F ield         | OpenFOAM: The Open Source CFD Toolbox
   \\    /   O peration     | Website:  https://openfoam.org
    \\  /    A nd           | Version:  10
     \\/     M anipulation  |
\*---------------------------------------------------------------------------*/
FoamFile
{
    format      ascii;
    class       volVectorField;
    location    "33";
    object      U;
}
// * * * * * * * * * * * * * * * * * * * * * * * * * * * * * * * * * * * * * //

dimensions      [0 1 -1 0 0 0 0];

internalField   nonuniform List<vector> 
28942
(
(-0.584331 0.140257 -4.14637e-19)
(-0.620743 0.0323144 -9.02699e-20)
(1.82762 -1.28205 3.26873e-19)
(2.5301 0.0496798 -6.71528e-19)
(2.49197 0.0789657 2.2338e-19)
(1.14774 0.0588391 0)
(1.34031 0.0822883 -2.21954e-21)
(1.49737 0.0523963 2.513e-21)
(2.88219 -0.20652 -1.16773e-20)
(2.85897 -0.189726 4.08051e-20)
(-0.482288 0.212075 -1.29349e-18)
(-0.00353543 -0.310691 5.85788e-19)
(-0.127697 -0.0789591 0)
(-0.238862 0.0548031 0)
(2.51203 -0.119485 1.19468e-21)
(2.54369 -0.119454 1.15113e-22)
(2.35639 0.314987 1.71106e-19)
(2.32298 0.273482 2.70672e-19)
(1.01601 -1.57884 5.64529e-19)
(1.60215 -1.68098 -1.65983e-19)
(2.5526 0.645201 2.19437e-19)
(2.56893 0.616911 0)
(0.219936 0.339728 1.11922e-18)
(-0.266658 -0.0268345 5.98018e-19)
(2.77851 -0.678479 1.18332e-18)
(3.41321 -0.832958 -1.0709e-18)
(0.707482 -1.13368 2.75354e-18)
(0.713625 -0.894134 -1.09661e-18)
(2.07612 -1.47042 -4.42806e-21)
(1.57582 -1.05018 -4.45306e-21)
(1.13579 -0.0456539 0)
(1.54765 -0.0790595 8.86499e-21)
(1.91765 -0.125481 2.03417e-20)
(2.25102 -0.107343 1.0342e-20)
(1.51369 2.09739 -1.54618e-19)
(1.09905 2.25738 2.34865e-19)
(1.71625 2.06429 -6.17786e-19)
(1.34738 2.09178 -2.54219e-19)
(0.526926 0.0568061 2.71504e-21)
(0.61798 2.08461 -1.68054e-19)
(2.039 -0.0240544 0)
(2.36034 -0.074389 0)
(2.03266 0.321234 -1.02311e-20)
(1.98667 0.386236 2.98112e-20)
(2.11528 0.31343 2.61649e-20)
(1.92011 0.0672613 -1.05817e-21)
(1.88337 0.0846078 2.05442e-21)
(2.29054 0.0794511 1.80745e-21)
(2.23288 0.080174 -4.33982e-22)
(1.99005 0.0781283 5.9091e-21)
(1.83612 0.0908501 -3.37894e-21)
(2.73538 -0.0391316 -7.45354e-20)
(2.72996 -0.0450511 -6.25224e-20)
(2.88715 -0.235667 -1.57169e-21)
(2.85963 -0.216953 7.53402e-21)
(3.49828 -0.145957 9.08957e-19)
(3.77335 -0.298456 4.62894e-19)
(-0.00886004 0.0519487 -7.09022e-19)
(-0.0681955 0.0216939 0)
(-0.138625 0.178626 2.60195e-19)
(-0.0941035 0.095894 6.24338e-19)
(-0.007537 -0.00266504 -4.88473e-19)
(-0.003017 -0.0066274 -4.98832e-19)
(3.1984 -1.11471 0)
(3.6704 -0.905404 1.41711e-19)
(3.21001 -0.767483 -6.13971e-20)
(3.12523 -0.774089 0)
(2.30694 -0.423692 -1.58024e-19)
(2.36927 -0.462337 -1.02216e-19)
(-0.296372 0.144928 1.35789e-18)
(-0.403392 0.229448 -4.30106e-19)
(-0.556409 0.33126 1.07731e-18)
(2.35188 -0.563805 0)
(2.32089 -0.506104 5.42593e-19)
(2.17841 -0.810755 1.40477e-19)
(3.96392 0.726091 3.63061e-19)
(4.07988 0.582206 -4.03755e-19)
(3.88237 0.422958 -2.40732e-19)
(0.625041 -0.335586 1.62686e-20)
(0.94276 -0.549533 -3.42183e-19)
(2.70516 -1.6152 -6.41634e-20)
(2.53583 -1.60716 1.28395e-19)
(-0.453609 0.175125 2.07861e-18)
(-0.59477 0.169647 -8.03968e-19)
(3.47108 1.54318 -5.20906e-20)
(2.92638 1.26585 -8.81621e-21)
(2.94819 1.81117 -2.5019e-20)
(2.8456 1.93616 1.56985e-19)
(2.82033 1.96829 -1.10204e-19)
(2.40096 1.74081 2.43485e-20)
(2.44981 1.91531 3.0254e-20)
(2.48033 2.02301 -1.12301e-20)
(-0.846537 1.54255 -1.46903e-19)
(-0.657296 1.21801 -3.79272e-20)
(-0.338979 0.769347 7.58807e-20)
(-0.119816 1.04385 -9.88695e-19)
(-0.284738 1.45156 1.2464e-18)
(1.21593 1.41221 2.57065e-19)
(1.46531 1.65829 -9.04769e-20)
(-0.584907 -0.118741 0)
(2.51607 -0.00100605 0)
(2.43016 0.0782575 -4.66268e-19)
(2.40023 0.177467 3.89115e-19)
(2.60724 0.149599 0)
(3.38526 -0.282472 0)
(3.3781 -0.310716 0)
(3.43542 -0.3125 2.88971e-19)
(2.74557 0.391676 -3.69425e-20)
(2.73543 0.424561 3.83889e-19)
(2.72333 0.375893 2.07031e-19)
(0.00586571 0.0138416 1.40604e-18)
(0.0010487 0.0688658 -1.57957e-18)
(-0.519599 0.146725 -7.56193e-19)
(-0.523563 -0.168512 6.9581e-19)
(-0.707681 -0.190324 1.48955e-18)
(0.604112 0.947716 4.64836e-19)
(1.07219 0.778469 1.14051e-18)
(0.919684 1.53728 1.03841e-19)
(0.446283 1.46539 -2.63201e-18)
(3.56696 1.24147 2.05364e-21)
(3.12732 1.21362 9.47445e-20)
(3.04743 1.08962 -1.69659e-19)
(2.37323 -1.728 6.43141e-20)
(1.76916 -1.2698 -2.07552e-20)
(0.684541 0.242364 -1.4674e-18)
(0.655152 0.0471736 0)
(1.06643 0.152868 8.14447e-19)
(1.61665 -1.21656 7.87378e-20)
(1.98055 -1.58278 -1.75205e-19)
(2.21104 0.0746447 -9.95527e-22)
(2.28463 0.0730254 -2.48623e-21)
(2.07255 0.0673873 -7.36196e-23)
(1.25398 -1.61481 0)
(1.34467 -1.12329 0)
(2.57255 -0.165445 -8.67461e-20)
(2.52972 -0.155622 5.01011e-19)
(2.53215 -0.0456925 0)
(2.07601 -1.62114 0)
(2.08023 -1.34634 -1.76589e-19)
(2.44047 2.12466 3.29852e-19)
(0.131905 0.460928 8.59167e-19)
(0.1396 0.283049 -6.17125e-19)
(1.79842 -1.566 -1.06506e-19)
(2.20073 0.204637 1.48809e-19)
(2.21395 0.275715 -2.86733e-20)
(3.52 -0.115264 -1.09904e-19)
(3.50723 0.00480994 1.47862e-19)
(3.44851 -0.0016961 4.5134e-19)
(0.0786241 0.211382 3.06406e-19)
(2.76286 2.08787 3.09137e-19)
(2.79634 1.82804 -9.7965e-20)
(3.28191 2.20435 9.57987e-22)
(1.69016 -0.0592683 -1.65029e-21)
(1.68477 -0.0597556 -1.93976e-20)
(1.90368 -0.0682149 -1.42942e-21)
(1.91209 -0.0861726 5.14085e-21)
(2.34682 1.9864 1.17509e-19)
(1.43335 1.80371 0)
(0.224703 1.26257 9.27346e-19)
(0.0145498 0.204133 -1.05311e-18)
(0.0655092 2.20337 7.64705e-19)
(2.25253 0.661082 -1.44603e-18)
(3.44036 1.01059 -7.17317e-19)
(2.13918 -0.0932547 1.87437e-21)
(3.73329 -1.46195 1.76972e-19)
(3.60674 -1.48268 4.58154e-19)
(2.54487 0.713176 5.05399e-19)
(2.38674 0.846247 4.01654e-20)
(2.39682 0.520576 2.9809e-19)
(2.44071 0.539699 -2.14123e-19)
(2.59416 0.716335 0)
(2.73114 -0.061381 1.83846e-20)
(2.73365 -0.0758637 3.45426e-20)
(2.78184 -0.141471 -2.87706e-20)
(2.7943 -0.148666 4.98581e-20)
(2.76516 0.34747 4.28807e-20)
(2.80153 0.363561 -1.18595e-19)
(2.77235 0.378266 0)
(2.7389 0.356768 2.71036e-20)
(2.77501 0.416497 0)
(2.798 0.551046 -9.63898e-20)
(2.79414 0.621762 -5.54954e-20)
(2.77144 0.702505 -1.04873e-19)
(2.79054 0.679539 0)
(2.8683 0.686478 3.10151e-19)
(2.81851 0.75102 1.51051e-20)
(2.73787 0.765018 -6.46432e-20)
(2.61142 0.930719 -2.77257e-19)
(2.59595 0.774205 -5.04722e-20)
(1.66713 0.625609 5.41833e-19)
(2.15101 0.188191 -2.02487e-19)
(-0.707466 0.0387752 -1.07026e-18)
(2.0158 0.0710704 1.95974e-21)
(2.37617 0.0766741 0)
(0.365855 -0.154444 1.19451e-18)
(0.351817 -0.204353 5.52441e-19)
(2.26703 0.0875162 -6.56354e-22)
(2.45911 0.092554 1.36187e-23)
(2.46178 0.0898392 0)
(2.24553 0.085097 -2.56751e-22)
(1.56603 -1.75037 1.42382e-19)
(1.53969 -1.72792 -7.34226e-19)
(1.63228 -1.82207 -2.65742e-19)
(0.0365667 0.134203 5.91089e-19)
(-0.00346103 0.0254878 -7.53487e-19)
(0.00564552 0.0596399 7.05725e-19)
(-0.190229 -0.0343689 0)
(-0.124138 -0.0440051 1.05916e-18)
(-0.0924764 -0.0444074 -9.06139e-19)
(-0.301606 -0.120383 -9.64285e-19)
(-0.344903 -0.199412 -9.04589e-19)
(-0.248863 -0.17059 0)
(0.196923 1.15597 0)
(0.0943275 0.761932 0)
(0.00807769 0.468023 0)
(3.32239 -0.30734 -3.45726e-20)
(3.25331 -0.312745 0)
(3.29841 -0.331152 3.55149e-20)
(2.32843 -0.137128 1.11115e-18)
(2.35875 -0.1508 -4.0775e-19)
(2.35339 -0.109204 0)
(2.06639 -0.695494 1.38367e-20)
(2.07383 -0.352658 -2.70781e-20)
(2.07546 -1.00837 8.27734e-21)
(2.08545 0.000856205 0)
(2.10406 0.350376 1.92702e-20)
(2.13152 0.681926 0)
(1.965 0.646876 0)
(2.15563 0.982456 -6.05693e-20)
(1.99497 0.940329 0)
(1.93582 0.323471 1.74386e-20)
(1.91911 -0.018232 0)
(1.90829 -0.362757 -7.80316e-21)
(1.91026 -0.696911 1.27555e-20)
(1.92653 -1.00198 -8.26168e-21)
(2.18088 1.24365 5.79668e-20)
(2.02729 1.20006 1.79746e-21)
(2.08465 -1.28651 2.36669e-22)
(1.94682 -1.2741 1.11722e-20)
(2.1027 -1.51632 -5.6893e-20)
(2.20808 1.46143 -5.02861e-23)
(2.06703 1.42136 1.54206e-21)
(1.97589 -1.4992 -2.02125e-20)
(2.2342 1.63593 -4.39552e-20)
(2.26172 1.76775 4.3919e-20)
(2.10918 1.59665 -3.36977e-21)
(2.15314 1.72906 -5.67404e-21)
(2.12647 -1.69972 5.54461e-20)
(2.01154 -1.68228 1.28911e-20)
(2.2897 1.85869 0)
(2.1972 1.82109 5.59426e-21)
(2.15152 -1.84527 -5.74196e-24)
(2.05523 -1.81962 5.72702e-24)
(2.31731 1.91433 0)
(2.23978 1.87881 0)
(2.17833 -1.94568 0)
(2.0985 -1.9205 0)
(2.34265 1.94096 0)
(2.28 1.90856 -2.17048e-21)
(2.20528 -2.01457 1.97039e-20)
(2.14154 -1.98795 4.85451e-24)
(2.36456 1.94745 -1.12179e-22)
(2.31584 1.91917 2.3172e-21)
(2.22822 -2.05573 -1.98032e-20)
(2.18033 -2.03134 0)
(2.38299 1.94129 0)
(2.34741 1.91778 0)
(2.24933 -2.07781 1.10059e-21)
(2.21607 -2.05565 -1.80728e-20)
(2.39633 1.93039 -1.30723e-20)
(2.37458 1.91163 0)
(2.26628 -2.08667 -2.46264e-22)
(2.24798 -2.06807 1.70747e-20)
(2.40593 1.91907 1.95236e-20)
(2.39509 1.90582 5.49013e-21)
(2.27838 -2.09105 -1.73823e-20)
(2.27556 -2.07656 0)
(2.41202 1.91194 -6.41563e-21)
(2.41434 1.90336 -3.69442e-21)
(2.28564 -2.10047 8.49486e-21)
(2.29695 -2.0903 -1.6941e-20)
(2.4114 1.91037 2.60498e-20)
(2.42661 1.9074 -2.94678e-20)
(2.28586 -2.12119 -8.88359e-21)
(2.31192 -2.11709 -2.84963e-22)
(2.40944 1.91491 0)
(2.43575 1.91685 -1.44202e-20)
(2.27841 -2.15508 1.85401e-20)
(2.32136 -2.15683 -3.67468e-20)
(2.40418 1.92578 0)
(2.4431 1.93016 0)
(2.26834 -2.10743 8.79902e-21)
(2.24795 -2.13344 3.64793e-20)
(2.26448 -2.19896 0)
(2.32594 -2.20591 1.97321e-20)
(2.28912 -2.09179 5.52567e-21)
(2.28308 -2.09434 -1.08367e-21)
(2.29127 -2.0885 0)
(2.29248 -2.09209 1.8598e-20)
(2.28018 -2.03546 4.44886e-23)
(2.28827 -2.07142 0)
(2.26076 -1.86945 0)
(2.27399 -1.9695 0)
(2.24807 -1.53358 0)
(2.25869 -1.72438 0)
(2.24329 -1.00842 -1.82436e-20)
(2.24299 -1.29362 -4.07246e-21)
(2.26158 -0.334396 1.83727e-20)
(2.24544 -0.682029 1.80972e-20)
(2.28587 0.374817 -3.26776e-20)
(2.26755 0.0207513 -4.34837e-20)
(2.32507 1.0123 0)
(2.30734 0.708965 0)
(2.35718 1.49832 1.20265e-22)
(2.34249 1.27636 0)
(2.38291 1.80282 0)
(2.37039 1.67352 0)
(2.40592 1.94044 0)
(2.3949 1.88989 0)
(2.4217 1.96264 0)
(2.41498 1.96187 0)
(2.42496 1.93472 0)
(2.42514 1.95117 0)
(2.41422 1.90707 0)
(2.42201 1.91873 0)
(2.39057 1.90309 1.10819e-20)
(2.40378 1.90105 0)
(2.37137 1.91155 3.7877e-21)
(2.39771 1.93835 -4.07579e-21)
(2.45127 1.94319 4.04374e-21)
(2.44481 1.89212 0)
(2.48535 1.92305 1.56326e-20)
(2.46592 1.90669 7.50165e-21)
(2.39122 1.8812 -1.79676e-21)
(2.42028 1.88355 6.79333e-21)
(2.32037 1.88446 -5.60092e-23)
(2.35971 1.88238 0)
(2.23024 1.86704 0)
(2.27836 1.88123 0)
(2.12313 1.77467 0)
(2.17819 1.83416 0)
(2.00945 1.54944 0)
(2.06598 1.68166 -9.88827e-27)
(1.90721 1.16009 -1.03482e-22)
(1.95571 1.37546 0)
(1.82455 0.618364 0)
(1.86426 0.907388 0)
(1.77722 -0.0297628 0)
(1.79349 0.299054 0)
(1.7797 -0.684658 0)
(1.76946 -0.36362 8.35307e-21)
(1.83137 -1.23491 -1.94647e-21)
(1.80215 -0.978801 8.88747e-21)
(1.92692 -1.63006 0)
(1.87558 -1.45325 6.81349e-21)
(2.03856 -1.86624 0)
(1.98179 -1.76624 0)
(2.14591 -1.98488 0)
(2.09355 -1.93775 0)
(2.239 -2.03096 0)
(2.19449 -2.01384 0)
(2.313 -2.06572 4.34745e-21)
(2.2786 -2.04554 0)
(2.36371 -2.14172 1.86125e-20)
(2.34067 -2.09775 4.30141e-21)
(2.3835 -2.1937 -2.01699e-20)
(2.22016 -2.16976 -3.69678e-20)
(2.34946 1.92033 -8.39919e-21)
(2.50736 1.93711 1.82156e-20)
(2.32579 -2.25722 0)
(2.40028 -2.24507 0)
(2.18533 -2.20857 0)
(2.24421 -2.24454 0)
(2.25992 -2.07933 0)
(2.18106 -2.12245 -7.87902e-21)
(2.22545 -2.09577 -8.48356e-21)
(2.31052 -2.08054 -1.11757e-20)
(2.28978 -2.07512 2.21751e-21)
(2.34134 -2.08902 -3.85881e-23)
(2.32854 -2.08773 0)
(2.36146 -2.04164 0)
(2.35522 -2.07557 0)
(2.37551 -1.87445 0)
(2.37299 -1.97708 0)
(2.39418 -1.5323 0)
(2.38839 -1.72856 0)
(2.41738 -0.998977 0)
(2.40785 -1.28883 0)
(2.45077 -0.321285 7.92845e-23)
(2.43197 -0.672285 -1.97561e-20)
(2.4739 0.390441 7.73916e-23)
(2.45876 0.0401409 4.04759e-20)
(2.49305 1.02229 0)
(2.48514 0.721979 0)
(2.5009 1.50048 -6.10667e-23)
(2.49846 1.28307 0)
(2.49739 1.80086 0)
(2.50035 1.67267 0)
(2.48843 1.93832 0)
(2.49334 1.88779 0)
(2.47547 1.95865 0)
(2.4827 1.9592 0)
(2.45409 1.92612 0)
(2.46585 1.94508 0)
(2.42087 1.89235 0)
(2.43897 1.90738 0)
(2.37324 1.88216 -7.49316e-21)
(2.40001 1.88374 0)
(2.3896 1.94039 0)
(2.32549 1.92112 -9.99532e-21)
(2.30673 1.89121 0)
(2.3426 1.88603 -7.6992e-21)
(2.52984 1.8985 -1.41991e-20)
(2.56249 1.91409 -3.84829e-21)
(2.52905 1.93985 -3.41403e-20)
(2.45805 1.94667 0)
(2.46743 1.86098 0)
(2.4993 1.87926 2.13078e-20)
(2.39238 1.84368 -4.95834e-23)
(2.43107 1.85046 -6.83958e-21)
(2.29992 1.83855 5.60076e-23)
(2.34902 1.84127 0)
(2.18889 1.81202 0)
(2.24792 1.83046 0)
(2.0609 1.71371 0)
(2.12692 1.77534 0)
(1.92691 1.48908 0)
(1.9934 1.61993 9.88806e-27)
(1.80699 1.10885 1.95068e-22)
(1.86387 1.31847 0)
(1.71287 0.582903 0)
(1.75624 0.862856 0)
(1.66438 -0.0400911 -3.61751e-21)
(1.68158 0.276857 0)
(1.6757 -0.665902 0)
(1.66076 -0.359112 3.60137e-21)
(1.74364 -1.19306 -6.72801e-21)
(1.70391 -0.946129 -7.17363e-21)
(1.85919 -1.57203 0)
(1.79786 -1.40413 0)
(1.99259 -1.8064 0)
(1.9257 -1.70608 0)
(2.12192 -1.93028 0)
(2.05857 -1.87989 0)
(2.2388 -1.98348 0)
(2.18238 -1.9626 0)
(2.33625 -2.02814 -6.10437e-23)
(2.29048 -2.00231 0)
(2.4142 -2.11411 6.75915e-23)
(2.37722 -2.06557 0)
(2.48347 -2.2243 2.05268e-20)
(2.44936 -2.16944 -2.05153e-20)
(2.12901 -2.15225 -1.87778e-20)
(2.4158 -2.28398 0)
(2.51974 -2.26702 5.14478e-20)
(2.32123 -2.29804 0)
(2.26897 1.89026 0)
(2.59831 1.91677 4.15821e-21)
(2.14382 -2.23851 -5.8958e-20)
(2.06692 -2.17477 -2.34464e-20)
(2.42702 -2.29591 -1.46177e-20)
(2.5571 -2.28286 -6.60227e-20)
(2.2186 -2.27955 0)
(2.2752 1.85493 -3.04384e-20)
(2.22509 1.85274 1.55901e-20)
(2.55153 1.92049 9.74018e-21)
(2.63207 1.89725 -5.00873e-20)
(2.02224 -2.09435 -7.04002e-20)
(1.99309 -2.17573 4.41096e-20)
(1.85647 -2.06389 2.08404e-19)
(1.94805 -2.09107 4.07717e-20)
(2.15409 -2.06053 -1.59559e-20)
(2.09159 -2.0801 5.65759e-20)
(2.26046 -2.03881 1.66795e-20)
(2.21201 -2.0449 1.30973e-20)
(2.34058 -2.05585 4.4193e-21)
(2.3047 -2.04357 4.07111e-21)
(2.40019 -2.07311 3.85882e-23)
(2.37332 -2.06836 0)
(2.4502 -2.02799 0)
(2.42854 -2.06174 0)
(2.49711 -1.85961 0)
(2.4764 -1.96313 0)
(2.54598 -1.51661 0)
(2.5233 -1.71262 0)
(2.59405 -0.983057 0)
(2.57151 -1.27305 0)
(2.63428 -0.307299 0)
(2.61587 -0.657766 0)
(2.65918 0.400228 -9.97017e-25)
(2.64909 0.050159 0)
(2.66233 1.02546 0)
(2.66336 0.729228 0)
(2.64584 1.49645 -6.03105e-23)
(2.65656 1.2822 0)
(2.61329 1.79392 0)
(2.63097 1.66688 0)
(2.57447 1.92841 0)
(2.59424 1.87956 0)
(2.53296 1.94424 0)
(2.55424 1.94725 0)
(2.48616 1.90646 0)
(2.51047 1.92821 0)
(2.43098 1.86719 0)
(2.45948 1.88488 0)
(2.36237 1.8504 -3.5491e-21)
(2.39857 1.85545 1.79976e-21)
(2.32158 1.85157 1.49704e-20)
(2.3826 1.92169 4.64018e-21)
(2.23175 1.87331 -1.94528e-20)
(2.30293 1.90395 1.36086e-20)
(2.46793 1.92907 0)
(2.5766 1.85567 1.10796e-20)
(2.66567 1.87431 3.76203e-20)
(2.61808 1.871 -2.62061e-20)
(2.49173 1.81705 0)
(2.53475 1.83553 0)
(2.39705 1.79588 4.73287e-24)
(2.44485 1.8059 0)
(2.28634 1.78229 0)
(2.34341 1.79024 0)
(2.15728 1.74621 5.00748e-23)
(2.22502 1.76954 0)
(2.01204 1.64172 0)
(2.08709 1.70563 0)
(1.8623 1.41906 0)
(1.93688 1.54761 0)
(1.72796 1.04996 -9.16666e-23)
(1.79201 1.25298 0)
(1.62671 0.543299 -8.80202e-23)
(1.67189 0.811876 0)
(1.57925 -0.0490618 0)
(1.5955 0.252483 0)
(1.59841 -0.640726 0)
(1.5797 -0.351466 0)
(1.68213 -1.14074 0)
(1.63263 -0.905587 0)
(1.81353 -1.50449 0)
(1.74371 -1.34054 0)
(1.96315 -1.73575 6.14689e-23)
(1.8879 -1.6349 0)
(2.10863 -1.86454 0)
(2.03703 -1.81126 0)
(2.24405 -1.92515 0)
(2.17786 -1.90014 0)
(2.36305 -1.97946 5.59532e-24)
(2.3062 -1.94885 0)
(2.46376 -2.07201 -5.34561e-24)
(2.41501 -2.02094 0)
(2.55871 -2.182 -7.69704e-23)
(2.51132 -2.12809 0)
(2.66093 -2.23611 5.66306e-20)
(2.60712 -2.22378 -1.1134e-20)
(2.59442 -2.25211 -1.55367e-20)
(2.71836 -2.20195 -2.65867e-20)
(2.09598 -2.24907 2.08817e-20)
(2.3142 -2.31411 2.76537e-20)
(2.17256 1.83489 -4.21897e-21)
(2.70924 1.85761 -3.02217e-20)
(1.90978 -2.14326 -7.82061e-22)
(2.43935 -2.26466 0)
(1.76538 -1.99484 -3.90454e-19)
(2.78096 -2.10393 -5.78993e-20)
(2.63686 -2.1583 -7.84139e-20)
(1.56573 -1.77107 5.45421e-19)
(1.52622 -1.67386 -9.98899e-20)
(2.19037 -2.2897 0)
(1.79528 -1.95896 -4.36673e-20)
(1.67161 -1.88506 -2.63249e-20)
(1.99649 -2.00381 -3.73282e-20)
(1.90815 -1.99286 5.87321e-20)
(2.14365 -1.99018 1.62978e-20)
(2.07412 -1.99952 7.87381e-21)
(2.26894 -1.98751 -7.88993e-21)
(2.20982 -1.98465 -8.19612e-21)
(2.37462 -2.01696 0)
(2.32504 -1.99954 -1.5725e-22)
(2.46301 -2.03908 0)
(2.42149 -2.03262 0)
(2.54308 -1.99548 -4.23149e-23)
(2.50502 -2.02891 0)
(2.62217 -1.82847 0)
(2.58382 -1.93103 0)
(2.69959 -1.4882 0)
(2.66194 -1.68218 0)
(2.76905 -0.959347 0)
(2.73608 -1.24606 0)
(2.81933 -0.292447 -7.65388e-23)
(2.7974 -0.637245 0)
(2.84009 0.404049 -2.56222e-24)
(2.83387 0.0594346 0)
(2.82924 1.01666 0)
(2.83854 0.726753 0)
(2.78874 1.47594 1.18484e-22)
(2.81238 1.26723 0)
(2.72786 1.76628 0)
(2.76001 1.64201 0)
(2.65947 1.8991 0)
(2.69399 1.85058 0)
(2.59019 1.91458 0)
(2.62488 1.91775 0)
(2.51914 1.87483 0)
(2.55518 1.89778 0)
(2.44283 1.83194 0)
(2.48193 1.85178 0)
(2.35526 1.81014 1.76006e-21)
(2.40073 1.81796 0)
(2.249 1.8071 0)
(2.30477 1.80804 3.32237e-21)
(2.12448 1.78331 3.5044e-22)
(2.18838 1.80197 0)
(2.19634 1.82943 1.97367e-20)
(2.05997 1.73831 -1.03259e-21)
(2.12177 1.79012 -1.01678e-20)
(2.37825 1.87429 -8.08006e-21)
(2.28275 1.85807 5.52947e-21)
(2.57694 1.86782 2.90284e-21)
(2.47763 1.88104 -2.81683e-21)
(2.76271 1.80602 0)
(2.67169 1.84516 2.07977e-20)
(2.73057 1.81645 7.81801e-21)
(2.84654 1.75325 1.69289e-20)
(2.78627 1.7996 -3.9323e-20)
(2.62266 1.79992 3.33333e-21)
(2.67252 1.81497 0)
(2.51739 1.76502 0)
(2.56899 1.7817 0)
(2.40521 1.74036 5.24833e-24)
(2.46057 1.7526 0)
(2.27967 1.71847 0)
(2.34286 1.73141 0)
(2.13619 1.67293 -5.00749e-23)
(2.20987 1.70138 0)
(1.9775 1.56254 0)
(2.05884 1.62882 0)
(1.81597 1.34258 0)
(1.89656 1.46856 0)
(1.67163 0.986463 0)
(1.74063 1.18179 0)
(1.56651 0.503325 1.42373e-23)
(1.6127 0.75852 0)
(1.52103 -0.0559601 0)
(1.53595 0.228604 0)
(1.54789 -0.61113 0)
(1.52477 -0.33993 0)
(1.64334 -1.08197 0)
(1.58789 -0.860723 0)
(1.78633 -1.42922 0)
(1.71086 -1.27153 0)
(1.94664 -1.65833 -6.14689e-23)
(1.86622 -1.55725 0)
(2.10486 -1.79012 0)
(2.02651 -1.7351 0)
(2.25648 -1.85572 0)
(2.18185 -1.82768 0)
(2.39518 -1.91955 5.5485e-23)
(2.32789 -1.88388 0)
(2.52122 -2.01855 -6.26027e-23)
(2.45922 -1.96497 0)
(2.64635 -2.13265 7.60974e-23)
(2.58323 -2.07643 0)
(2.78142 -2.19349 -1.14941e-20)
(2.71196 -2.1771 2.23702e-20)
(2.93994 -2.06414 1.34506e-20)
(2.8572 -2.1615 -3.15903e-20)
(2.84744 -1.93349 -9.7623e-21)
(3.02137 -1.89574 -3.91336e-20)
(2.04207 -2.22712 2.92605e-20)
(2.30641 -2.28889 0)
(1.84065 -2.08094 2.72143e-19)
(2.4521 -2.17585 0)
(2.08709 1.72293 3.78257e-21)
(2.01486 1.68293 -2.70588e-21)
(2.81196 1.7182 2.34546e-20)
(2.90962 1.66529 2.43006e-20)
(1.69185 -1.9086 2.7328e-19)
(2.68349 -1.99921 7.91688e-20)
(1.42689 -1.51897 0)
(1.52418 -1.6661 5.87527e-20)
(2.91839 -1.69556 3.7263e-20)
(3.10535 -1.65261 -6.75612e-20)
(1.46021 -1.53356 -1.08177e-19)
(2.15518 -2.25844 0)
(1.75375 -1.85208 0)
(1.62982 -1.77641 4.46772e-20)
(1.97532 -1.90902 0)
(1.87325 -1.8909 0)
(2.1429 -1.91527 0)
(2.06451 -1.91474 -8.15423e-21)
(2.28579 -1.92801 0)
(2.21744 -1.91832 0)
(2.41102 -1.96479 0)
(2.35063 -1.94469 0)
(2.525 -1.98934 0)
(2.46959 -1.98196 0)
(2.63505 -1.94772 4.2315e-23)
(2.58075 -1.98021 0)
(2.74444 -1.78302 0)
(2.69049 -1.88433 0)
(2.84834 -1.44688 0)
(2.79758 -1.63847 0)
(2.93809 -0.926989 0)
(2.896 -1.20846 0)
(2.99724 -0.275418 4.00095e-24)
(2.97268 -0.611884 0)
(3.0141 0.403756 -3.97247e-24)
(3.01103 0.0681228 0)
(2.98832 0.998713 0)
(3.00657 0.717355 0)
(2.92434 1.4439 -3.17218e-24)
(2.96039 1.24156 0)
(2.83665 1.72738 0)
(2.88242 1.60556 0)
(2.7412 1.85896 0)
(2.78915 1.81075 0)
(2.6467 1.87409 0)
(2.69369 1.87755 0)
(2.55321 1.83287 0)
(2.60003 1.85664 0)
(2.45689 1.78685 0)
(2.50571 1.80835 0)
(2.35232 1.75941 0)
(2.40584 1.77046 0)
(2.22977 1.74896 -3.17322e-21)
(2.29372 1.75332 -3.37295e-21)
(2.16044 1.7417 7.19953e-21)
(2.16512 1.74821 1.18413e-20)
(1.99852 1.66001 0)
(2.07569 1.71214 1.02873e-20)
(2.37619 1.79006 0)
(2.26612 1.77601 -1.20936e-20)
(2.60065 1.77731 -1.87146e-20)
(2.48883 1.79336 6.43562e-21)
(2.70902 1.75377 3.4659e-20)
(2.78838 1.75115 -3.19027e-21)
(2.92629 1.68525 -1.75516e-20)
(2.86154 1.72791 0)
(2.66475 1.7373 5.967e-21)
(2.72831 1.74739 -5.98248e-21)
(2.54192 1.70699 0)
(2.60394 1.72066 0)
(2.4161 1.67903 5.58769e-24)
(2.47916 1.69201 0)
(2.27894 1.64922 0)
(2.3478 1.66578 0)
(2.12511 1.59465 0)
(2.20285 1.62745 0)
(1.95724 1.47884 0)
(2.04205 1.54714 0)
(1.78808 1.26216 0)
(1.87195 1.38525 0)
(1.63835 0.9208 -5.45225e-23)
(1.7097 1.10735 0)
(1.53202 0.464142 7.37829e-23)
(1.57841 0.704693 0)
(1.48973 -0.059619 0)
(1.50218 0.206338 0)
(1.52346 -0.577525 0)
(1.49703 -0.324727 0)
(1.62683 -1.01853 0)
(1.56745 -0.810729 0)
(1.77634 -1.3509 0)
(1.69786 -1.1986 0)
(1.94282 -1.57787 0)
(1.85899 -1.47668 0)
(2.11042 -1.71184 0)
(2.02688 -1.65562 0)
(2.27422 -1.78106 3.94069e-23)
(2.19333 -1.75088 0)
(2.42681 -1.84959 -4.2323e-23)
(2.35215 -1.81173 0)
(2.57221 -1.94933 4.9323e-23)
(2.49969 -1.89617 0)
(2.72107 -2.05836 0)
(2.64576 -2.0052 0)
(2.88184 -2.11349 0)
(2.79952 -2.0993 0)
(3.06456 -1.98544 -1.09143e-22)
(2.96879 -2.08247 -1.34242e-20)
(3.25742 -1.58269 1.00269e-19)
(3.16241 -1.81663 0)
(3.18903 -1.35075 6.31156e-20)
(3.35368 -1.28884 7.18261e-21)
(1.98338 -2.15548 -9.34042e-20)
(2.2972 -2.21038 0)
(1.94139 1.6092 1.83553e-20)
(2.99817 1.60345 3.30848e-20)
(1.77127 -1.92529 5.48957e-20)
(1.43837 -1.51264 4.2782e-21)
(1.58216 -1.68709 -1.48866e-19)
(2.47446 -2.01637 0)
(2.73026 -1.77225 -2.45326e-20)
(1.33397 -1.33064 1.08453e-19)
(1.27978 -1.13126 -1.29527e-19)
(1.39867 -1.27256 1.23522e-19)
(2.98881 -1.40058 7.0689e-20)
(3.2639 -1.00484 -5.08585e-20)
(3.44458 -0.953165 -3.66002e-20)
(2.1195 -2.17031 0)
(1.50981 -1.57641 -2.26831e-21)
(1.30645 -1.24528 -4.81166e-21)
(1.42068 -1.42965 -1.92827e-20)
(1.73736 -1.75281 -1.72932e-20)
(1.61836 -1.68229 1.73908e-20)
(1.96359 -1.81395 -2.54758e-23)
(1.85724 -1.79232 0)
(2.14795 -1.83496 0)
(2.06015 -1.82623 0)
(2.30839 -1.85985 0)
(2.2311 -1.84516 0)
(2.45074 -1.90058 0)
(2.38135 -1.8793 0)
(2.5865 -1.92629 -2.94826e-23)
(2.51908 -1.91831 0)
(2.72346 -1.88613 0)
(2.65493 -1.91785 0)
(2.85989 -1.72365 0)
(2.79231 -1.82357 0)
(2.98852 -1.39364 0)
(2.92571 -1.58142 0)
(3.09674 -0.887203 0)
(3.04651 -1.16071 0)
(3.16279 -0.256699 7.25379e-23)
(3.13634 -0.58188 0)
(3.17517 0.39791 -5.16457e-24)
(3.17577 0.0745481 0)
(3.13425 0.970785 0)
(3.16111 0.699995 0)
(3.04919 1.39917 -1.05968e-22)
(3.09632 1.20431 0)
(2.93749 1.67437 0)
(2.99542 1.55555 0)
(2.81794 1.8047 0)
(2.87785 1.75647 0)
(2.70063 1.82118 0)
(2.75881 1.82388 0)
(2.58679 1.78065 0)
(2.64347 1.80435 0)
(2.47268 1.73312 0)
(2.53016 1.75575 0)
(2.3523 1.70117 -4.21294e-23)
(2.41389 1.71477 0)
(2.21742 1.68466 3.18646e-21)
(2.2872 1.69182 0)
(2.06055 1.65261 -3.94971e-21)
(2.14163 1.6741 0)
(1.89723 1.53901 -3.63688e-21)
(1.97794 1.6098 3.80684e-21)
(1.94506 1.54459 -1.03221e-20)
(1.82136 1.4292 0)
(1.87494 1.49326 -1.32383e-20)
(2.13774 1.6263 0)
(2.03423 1.59163 0)
(2.37478 1.66432 0)
(2.25236 1.65345 0)
(2.62648 1.64398 0)
(2.50049 1.66383 0)
(2.86512 1.58612 -2.39031e-20)
(2.7494 1.62015 -7.02114e-21)
(3.06784 1.48151 -4.92619e-21)
(2.97138 1.53811 -4.59389e-20)
(3.00027 1.60862 -1.75561e-20)
(3.15473 1.4156 -3.72802e-21)
(3.07613 1.53217 7.748e-21)
(2.84659 1.67398 -3.18381e-21)
(2.92361 1.65391 2.07878e-20)
(2.70415 1.66801 5.8954e-24)
(2.77822 1.67409 0)
(2.56683 1.6415 0)
(2.63695 1.65475 0)
(2.42957 1.61148 5.78087e-24)
(2.49971 1.6257 0)
(2.2834 1.57513 0)
(2.35777 1.59472 0)
(2.12285 1.51269 0)
(2.20399 1.54903 0)
(1.95016 1.39243 0)
(2.03669 1.4621 0)
(1.77782 1.17987 0)
(1.86253 1.29954 0)
(1.62692 0.854606 9.74447e-23)
(1.69828 1.03156 0)
(1.52198 0.426109 0)
(1.56733 0.651231 0)
(1.48384 -0.061279 0)
(1.49372 0.185848 0)
(1.52271 -0.540819 0)
(1.49379 -0.306634 0)
(1.63021 -0.952694 0)
(1.56916 -0.757802 0)
(1.78158 -1.26989 3.85436e-23)
(1.70234 -1.12342 0)
(1.95008 -1.49232 0)
(1.86492 -1.39264 0)
(2.12368 -1.62521 0)
(2.03653 -1.56923 0)
(2.29713 -1.69806 -3.94069e-23)
(2.21111 -1.66528 0)
(2.46249 -1.77208 7.08782e-24)
(2.38088 -1.73197 0)
(2.627 -1.87146 -9.12056e-23)
(2.54396 -1.81912 0)
(2.80229 -1.97716 0)
(2.71304 -1.9259 0)
(2.99217 -2.02775 0)
(2.8953 -2.01577 0)
(3.19525 -1.90844 1.29198e-23)
(3.09283 -1.9968 0)
(3.39919 -1.52473 0)
(3.29898 -1.75061 0)
(3.59152 -0.913093 6.05471e-20)
(3.49637 -1.24106 0)
(3.51318 -0.588005 3.75616e-21)
(3.66897 -0.558266 -1.0517e-19)
(1.93626 -2.03185 0)
(1.2336 -1.0499 -1.56784e-19)
(1.72146 -1.72084 -3.88597e-20)
(1.86738 1.46783 3.63115e-21)
(1.78483 1.36816 0)
(3.13764 1.31777 -4.79426e-21)
(3.22774 1.25906 1.06849e-20)
(2.29862 -2.06574 0)
(2.49923 -1.78599 0)
(1.51376 -1.44837 0)
(2.77886 -1.47411 2.41605e-20)
(3.05226 -1.05383 5.03544e-20)
(3.32625 -0.620041 0)
(3.56156 -0.192375 -1.22505e-19)
(3.72099 -0.182388 8.61634e-20)
(2.08943 -2.01644 0)
(1.32081 -1.15643 8.70911e-24)
(1.16354 -0.778077 -4.40217e-20)
(1.16615 -0.70386 1.42436e-19)
(1.24294 -0.957878 -4.30049e-20)
(1.51747 -1.47102 9.25454e-21)
(1.41944 -1.32627 1.91826e-20)
(1.74112 -1.649 0)
(1.62678 -1.57732 0)
(1.96465 -1.71582 2.54578e-23)
(1.85773 -1.69079 0)
(2.15749 -1.74739 0)
(2.06418 -1.73287 0)
(2.33209 -1.78191 0)
(2.24696 -1.76305 0)
(2.49228 -1.82641 0)
(2.41356 -1.80388 0)
(2.64861 -1.85272 2.94827e-23)
(2.57035 -1.84461 0)
(2.80838 -1.81223 0)
(2.72818 -1.8441 0)
(2.96778 -1.65162 0)
(2.88863 -1.75002 0)
(3.1177 -1.3297 0)
(3.04477 -1.51237 0)
(3.2403 -0.841217 0)
(3.18412 -1.10429 0)
(3.31109 -0.237811 -6.10814e-23)
(3.2833 -0.548568 0)
(3.31801 0.38781 -6.08329e-24)
(3.32262 0.0786416 0)
(3.26374 0.934928 0)
(3.29806 0.676519 0)
(3.15976 1.34415 4.69156e-24)
(3.21688 1.1577 0)
(3.02721 1.61074 0)
(3.09556 1.49493 0)
(2.88726 1.74047 0)
(2.95727 1.69192 0)
(2.7505 1.75906 0)
(2.81822 1.76063 0)
(2.6191 1.71999 0)
(2.68427 1.74313 0)
(2.48968 1.67151 0)
(2.55449 1.69487 0)
(2.35598 1.63506 7.88384e-23)
(2.42386 1.65129 0)
(2.21024 1.61105 3.8612e-23)
(2.28502 1.62216 0)
(2.04475 1.57439 -6.10801e-21)
(2.12993 1.5974 5.77483e-21)
(1.95626 1.53499 -5.7395e-21)
(1.90042 1.38588 -2.86955e-21)
(1.75305 1.28147 -5.53168e-22)
(1.8192 1.34064 8.08925e-21)
(2.115 1.46202 0)
(1.99988 1.42867 0)
(2.37353 1.49248 1.23525e-25)
(2.24028 1.48526 0)
(2.65155 1.47014 0)
(2.51135 1.49018 0)
(2.91424 1.41193 -1.38101e-20)
(2.78707 1.44545 1.43541e-20)
(3.03237 1.36809 -1.71076e-21)
(3.06389 1.52479 4.91057e-22)
(3.22837 1.34139 8.61438e-21)
(3.14471 1.45011 -1.08833e-21)
(2.89967 1.59078 2.79868e-21)
(2.97996 1.56833 -2.80247e-21)
(2.7412 1.59381 3.66454e-23)
(2.82041 1.59597 0)
(2.59241 1.57004 2.54482e-23)
(2.66786 1.58248 0)
(2.44589 1.53848 5.80991e-24)
(2.52108 1.5541 0)
(2.29302 1.49696 0)
(2.37158 1.51934 0)
(2.12863 1.42818 0)
(2.21235 1.46746 0)
(1.95474 1.30481 0)
(2.04193 1.37524 0)
(1.78324 1.09747 0)
(1.86716 1.21315 0)
(1.63481 0.789281 -4.29221e-23)
(1.70449 0.956082 0)
(1.5337 0.389895 -3.53293e-23)
(1.57686 0.599091 0)
(1.50027 -0.0603135 0)
(1.50767 0.167603 0)
(1.54227 -0.502576 0)
(1.51201 -0.286216 0)
(1.65018 -0.886754 0)
(1.58946 -0.704037 0)
(1.79899 -1.19018 -3.85436e-23)
(1.72123 -1.04897 0)
(1.96579 -1.40831 2.60979e-23)
(1.88105 -1.31014 0)
(2.14241 -1.53922 0)
(2.05311 -1.4841 0)
(2.32211 -1.61321 0)
(2.23279 -1.57935 0)
(2.49517 -1.68869 7.13054e-24)
(2.40945 -1.64842 0)
(2.67032 -1.78237 7.61514e-23)
(2.58146 -1.73386 0)
(2.86151 -1.8776 0)
(2.76348 -1.83183 0)
(3.07304 -1.91591 0)
(2.96488 -1.91021 0)
(3.29916 -1.78496 1.37346e-23)
(3.18521 -1.87856 0)
(3.51918 -1.41714 0)
(3.41158 -1.62984 0)
(3.71061 -0.856686 -3.62053e-20)
(3.61869 -1.15654 0)
(3.84499 -0.172297 -3.7106e-20)
(3.78725 -0.526393 7.43102e-20)
(1.31385 -0.899108 2.41219e-19)
(1.20119 -0.826675 1.70975e-19)
(3.74632 0.209907 4.06689e-20)
(3.8698 0.192143 -4.06558e-20)
(1.89654 -1.82893 0)
(1.71076 1.23111 -6.84957e-21)
(3.30444 1.19373 3.86447e-20)
(1.12868 -0.446605 -2.62346e-20)
(2.30318 -1.84598 0)
(1.13691 -0.503812 -1.12014e-20)
(1.66244 -1.42535 0)
(2.53367 -1.48652 0)
(1.51351 -1.21008 0)
(2.82392 -1.11416 0)
(3.10428 -0.665246 0)
(3.3619 -0.214824 1.21223e-20)
(3.58343 0.212852 3.55019e-20)
(3.74421 0.593339 0)
(3.86848 0.555209 7.17279e-20)
(2.07015 -1.79453 0)
(1.19624 -0.633677 -5.4514e-20)
(1.12233 -0.145481 -1.19029e-19)
(1.16384 -0.116663 -5.10204e-20)
(1.16455 -0.385681 5.88383e-20)
(1.35394 -1.05694 -3.58693e-21)
(1.27288 -0.863831 1.72134e-20)
(1.54323 -1.35376 -6.88627e-21)
(1.44318 -1.21767 6.63082e-24)
(1.762 -1.53469 -1.79764e-23)
(1.65196 -1.45953 0)
(1.97955 -1.61272 -1.6292e-23)
(1.87397 -1.58233 0)
(2.17412 -1.65314 0)
(2.0792 -1.63437 0)
(2.35626 -1.69451 0)
(2.26631 -1.67255 0)
(2.53187 -1.74242 0)
(2.44461 -1.71864 0)
(2.70745 -1.76883 0)
(2.6193 -1.761 0)
(2.88697 -1.72705 0)
(2.79691 -1.75951 0)
(3.06563 -1.5687 0)
(2.97696 -1.66522 0)
(3.23202 -1.25718 0)
(3.15153 -1.43332 0)
(3.36413 -0.79088 0)
(3.30425 -1.04141 0)
(3.43701 -0.219189 6.85461e-24)
(3.40909 -0.513618 0)
(3.43892 0.37354 -5.992e-23)
(3.44683 0.0806944 0)
(3.37305 0.890864 0)
(3.414 0.646634 0)
(3.25297 1.27944 8.74251e-23)
(3.31835 1.10178 0)
(3.10416 1.5376 0)
(3.18057 1.42461 0)
(2.9482 1.66694 0)
(3.02622 1.61794 0)
(2.79568 1.68814 0)
(2.87121 1.68825 0)
(2.64964 1.65159 0)
(2.72192 1.67368 0)
(2.50757 1.60349 0)
(2.57846 1.62712 0)
(2.36327 1.56402 -3.6709e-23)
(2.4362 1.58229 0)
(2.20854 1.53373 -6.18642e-24)
(2.28776 1.54834 0)
(2.03793 1.49383 -2.7774e-21)
(2.12514 1.51741 0)
(1.8538 1.39071 0)
(1.94599 1.45391 7.04237e-21)
(1.68758 1.16783 7.40166e-21)
(1.76672 1.29753 0)
(1.69714 1.1014 9.54396e-21)
(1.61756 1.00109 0)
(1.64715 1.05267 -9.39359e-21)
(1.86236 1.18994 0)
(1.77072 1.14922 1.22822e-20)