/*--------------------------------*- C++ -*----------------------------------*\
  =========                 |
  \\      /  F ield         | OpenFOAM: The Open Source CFD Toolbox
   \\    /   O peration     | Website:  https://openfoam.org
    \\  /    A nd           | Version:  10
     \\/     M anipulation  |
\*---------------------------------------------------------------------------*/
FoamFile
{
    format      ascii;
    class       volVectorField;
    location    "31";
    object      U;
}
// * * * * * * * * * * * * * * * * * * * * * * * * * * * * * * * * * * * * * //

dimensions      [0 1 -1 0 0 0 0];

internalField   nonuniform List<vector> 
40874
(
(0.707559 -0.200148 0)
(0.607773 -0.164431 3.69155e-19)
(1.07504 -0.545778 -4.27223e-20)
(1.00767 -0.484488 1.61606e-19)
(1.01735 -0.708122 1.07752e-19)
(1.01388 -0.723522 5.02518e-20)
(1.04869 -0.72468 6.30949e-21)
(1.15042 -0.481254 1.12896e-20)
(1.04859 -0.427348 -3.4165e-21)
(0.756036 -0.621019 1.26279e-19)
(0.747958 -0.435483 -1.7321e-19)
(0.452113 -0.604896 1.6327e-19)
(0.835827 -0.667237 1.41638e-20)
(0.832793 -0.38236 9.74184e-20)
(0.836108 -0.282791 -9.5125e-20)
(0.780861 -0.25858 9.14594e-20)
(1.00386 -0.644378 -2.70339e-21)
(1.14946 -0.697188 0)
(0.949487 -0.706377 -2.98125e-19)
(0.984895 -0.283925 -8.18774e-20)
(0.975821 -0.348042 -4.59356e-21)
(0.964478 -0.433147 -1.49601e-19)
(0.592747 -0.536773 1.33739e-20)
(0.560597 -0.639192 5.3218e-20)
(0.911947 -0.336985 1.31435e-19)
(1.13618 -0.463893 -5.9809e-21)
(1.16454 -0.46307 1.73714e-20)
(1.14413 -0.396725 7.96059e-21)
(1.18012 -0.415337 0)
(1.28167 -0.434125 -1.27601e-20)
(1.28158 -0.468255 -1.61748e-21)
(1.21659 -0.406332 2.46184e-21)
(1.17518 -0.465237 0)
(-0.160944 0.316278 6.42742e-20)
(-0.204924 0.273134 0)
(-0.135343 0.237767 0)
(-0.12146 0.258406 -5.24537e-22)
(0.555702 0.0146267 -3.2892e-22)
(0.520758 0.0136336 5.41271e-22)
(0.582854 0.0182515 -2.59866e-21)
(0.658041 0.0174422 0)
(0.663212 0.0149889 -8.35466e-22)
(0.60319 0.0167628 1.23422e-21)
(0.536356 0.0167452 2.60924e-22)
(0.659747 0.0158106 8.41865e-22)
(0.593802 0.0150593 -5.71024e-22)
(0.515745 0.0148533 0)
(0.917974 0.617908 -2.11555e-20)
(0.801901 0.613853 4.36932e-20)
(0.782628 0.475185 -1.34297e-20)
(0.897719 0.48578 0)
(1.08546 0.607378 0)
(1.02245 0.561872 3.45695e-21)
(1.36087 -0.3872 4.75524e-20)
(1.40805 -0.329472 0)
(1.32503 -0.298025 0)
(1.29505 -0.323347 0)
(1.27942 -0.39445 -6.35661e-21)
(1.43679 -0.412556 -2.48392e-20)
(1.29302 -0.283373 1.11892e-19)
(1.43994 -0.261758 -1.4756e-19)
(1.26256 0.570989 0)
(1.15531 0.582605 0)
(1.16584 0.523199 -1.4874e-22)
(1.32078 0.559409 1.23851e-22)
(-0.0331783 -0.0264235 7.35873e-20)
(-0.074634 -0.0296616 -5.82784e-20)
(-0.0494017 -0.030082 -5.52547e-20)
(-0.032971 0.0228841 0)
(-0.00577556 0.00386121 -1.48205e-19)
(-0.00645989 0.00522241 -1.48657e-19)
(0.0278074 -0.0506681 2.45713e-19)
(0.00827126 -0.01551 4.2718e-20)
(0.0150848 -0.0326373 4.07403e-20)
(0.425521 -0.0499791 -8.48933e-23)
(0.47487 -0.00614291 1.00879e-20)
(0.296207 0.0275785 -3.20121e-21)
(0.204147 -0.0268481 -2.22725e-22)
(0.243131 0.0186814 5.61999e-22)
(0.394554 0.0170134 0)
(0.379428 0.0165636 -4.19576e-22)
(0.185692 0.0128033 -1.97152e-21)
(0.841824 0.379669 6.64383e-20)
(0.796586 0.366131 7.22882e-20)
(0.809218 0.286167 -3.65993e-20)
(0.851869 0.281834 1.62433e-19)
(1.31065 0.265096 -3.51858e-23)
(1.31078 0.276477 -1.20734e-20)
(1.2917 0.260041 -7.25898e-22)
(1.39081 0.322625 8.5215e-21)
(1.55405 0.311714 6.07738e-20)
(1.47651 0.260823 -4.95328e-21)
(1.58818 0.426711 6.48981e-20)
(1.29089 -0.684512 0)
(1.32166 -0.425613 -4.28478e-20)
(0.691784 -0.020995 8.00022e-22)
(0.629154 -0.0269402 9.24168e-23)
(0.566877 -0.0289194 -1.10523e-21)
(0.647809 -0.024337 2.95744e-22)
(0.715573 -0.0203069 4.25967e-22)
(0.995612 -0.0388568 0)
(0.988941 -0.0320288 3.79239e-22)
(-0.0353736 0.0265214 -5.52156e-21)
(0.047364 0.00890276 -3.6786e-20)
(-0.0526729 -0.00106606 0)
(-0.0482432 0.0321997 0)
(0.929394 0.356126 0)
(0.90968 0.405732 -6.4666e-20)
(0.212173 -0.0786185 5.722e-19)
(0.190592 -0.171182 -8.72788e-19)
(-0.0259849 0.122099 0)
(-0.0811895 0.185596 2.07103e-20)
(0.994003 -0.0370586 -3.04786e-20)
(0.525896 -0.0151375 -3.29479e-22)
(0.484532 -0.0104309 3.07758e-22)
(0.560712 0.00870357 -2.57036e-21)
(0.471785 0.00343759 1.31715e-21)
(0.529918 0.610759 2.87745e-21)
(0.472229 0.675052 -1.36365e-20)
(0.666258 0.804697 3.13253e-21)
(0.403848 0.680113 1.04457e-19)
(0.170348 -0.28027 -1.02194e-19)
(0.318406 -0.595659 1.09267e-19)
(0.231565 0.576258 -2.0079e-20)
(0.582569 0.0140105 0)
(0.505175 0.0122993 0)
(0.481431 0.0161636 9.59052e-22)
(0.427751 0.0134858 0)
(0.101308 -0.00783671 0)
(0.135596 -0.00781555 2.87526e-22)
(1.00311 -0.0159494 -7.70584e-20)
(0.63342 0.0160495 9.90845e-22)
(1.10206 -0.0463702 0)
(1.10195 -0.0465502 -2.16729e-21)
(0.67114 -0.00649366 0)
(1.34496 0.269769 7.84451e-21)
(1.34111 0.258346 -7.34465e-21)
(1.38692 0.290453 -6.92414e-21)
(1.49413 -0.0580327 3.74131e-20)
(1.58255 -0.0579484 -3.11406e-20)
(1.58392 -0.0929246 1.61733e-20)
(1.49473 -0.0908215 5.90784e-20)
(1.34339 -0.02761 -2.06778e-22)
(1.36291 -0.0509058 -1.14362e-20)
(0.13748 0.162293 -6.56022e-20)
(0.0666834 0.165932 7.66619e-20)
(0.0264644 0.155148 -6.93232e-20)
(0.068137 -0.125959 -2.0882e-19)
(0.0348908 -0.0312161 -2.8215e-19)
(0.0907127 -0.0944934 1.79457e-19)
(1.17653 -0.61655 0)
(1.40681 -0.300148 -1.1623e-20)
(1.34458 -0.270226 3.79698e-20)
(-0.0596262 -0.0103304 1.55197e-19)
(-0.0417847 -0.0169714 0)
(-0.0412085 -0.00229427 0)
(-0.0600101 -0.0240425 0)
(-0.0543713 0.0475735 -2.68863e-20)
(-0.0362693 0.0160133 5.2978e-20)
(-0.0332903 0.0470738 0)
(0.0934975 0.0556414 9.34818e-20)
(0.291197 0.0615405 -1.98152e-19)
(0.388009 0.0877706 -6.75955e-20)
(0.0702614 0.0199133 0)
(0.37503 -0.172663 -2.60344e-21)
(0.328811 -0.375489 2.81421e-19)
(0.459588 -0.451566 -2.6835e-20)
(0.61504 -0.304281 -3.21007e-19)
(1.09042 0.506234 -3.74117e-21)
(0.767505 0.0864358 0)
(0.106281 -0.37367 -1.00636e-19)
(0.114061 -0.42901 -1.93058e-19)
(0.46807 -0.517569 -1.20267e-19)
(0.117967 -0.319807 9.71529e-20)
(0.696725 -0.018624 0)
(0.628077 -0.0184284 -5.0847e-21)
(1.3954 0.127679 1.2109e-19)
(1.35906 0.0899472 -6.50141e-20)
(1.18843 0.0823235 -9.15871e-20)
(0.0342957 0.00397424 -8.29927e-20)
(0.0721804 0.0319667 3.73847e-20)
(0.258085 0.137711 1.53646e-20)
(0.227247 0.134413 2.35667e-20)
(1.21219 -0.370263 7.14342e-20)
(1.10015 -0.264755 2.09569e-20)
(1.22108 -0.00707896 2.74676e-22)
(1.21884 -0.00467207 0)
(1.21552 -0.0071325 0)
(0.91359 0.294846 4.13364e-20)
(0.906084 0.268612 -1.01617e-19)
(0.92591 0.273539 -6.45184e-22)
(0.992236 0.474585 2.08577e-20)
(1.05352 0.454221 4.39209e-21)
(0.264372 0.164553 3.45483e-19)
(0.085552 0.177103 0)
(0.0598041 0.0915594 0)
(0.207967 0.0751203 0)
(1.23369 0.741785 1.75012e-20)
(1.36097 0.680952 7.79596e-20)
(1.33454 0.705408 -2.47409e-20)
(1.10109 0.680218 -1.5232e-20)
(-0.109255 0.0560265 -5.02895e-20)
(-0.119151 0.0511031 -1.89949e-19)
(-0.0721917 0.0429121 -3.56217e-20)
(-0.0785849 0.0421273 0)
(1.22433 -0.00254658 1.83205e-22)
(1.22555 -0.00586195 1.11802e-22)
(-0.124682 0.0587339 3.91752e-19)
(0.354758 0.00260087 1.12436e-21)
(0.405015 -0.00112903 0)
(1.01366 -0.0344561 -2.68724e-20)
(1.01774 -0.0376584 6.15771e-20)
(0.858228 0.787666 -9.62694e-20)
(1.09902 -0.09434 -6.50264e-20)
(1.01786 -0.1176 0)
(1.08354 -0.119288 -4.53067e-20)
(1.08795 -0.101997 3.7059e-20)
(1.01844 -0.0774902 1.1826e-20)
(1.00964 -0.0965635 2.02149e-20)
(0.626866 -0.0732164 -2.36508e-19)
(0.483942 0.0376715 1.42117e-19)
(0.415711 -0.0580166 -4.10722e-19)
(0.654095 0.0156247 0)
(0.648872 0.0147701 -1.19128e-22)
(0.904985 0.816612 9.22851e-20)
(0.47231 0.501527 -2.51186e-21)
(0.539237 0.557913 0)
(1.03263 -0.128425 0)
(-0.175077 0.254999 0)
(1.47555 0.0204404 0)
(1.43303 0.0405058 3.52375e-21)
(-0.106613 0.0550535 1.12995e-19)
(-0.103465 0.0509161 4.66173e-20)
(1.39658 -0.259486 0)
(-0.124475 0.324286 -9.62975e-20)
(-0.0897466 0.31571 1.24653e-19)
(-0.0813169 0.417456 -2.89781e-19)
(-0.101569 0.421632 2.65091e-19)
(-0.126963 0.283069 -4.55088e-20)
(0.536189 -0.31357 0)
(0.662613 -0.399986 -4.87248e-20)
(-0.0283974 0.068398 5.15282e-20)
(-0.0159252 0.0290987 -4.50989e-20)
(0.943583 0.715603 0)
(1.11342 0.744747 -2.71642e-21)
(0.965783 0.631758 -4.79216e-20)
(0.708149 0.530379 0)
(0.697068 0.334229 -1.12018e-19)
(0.636192 0.440891 7.88724e-20)
(0.48087 0.320668 -2.93791e-19)
(0.604636 0.224664 3.59372e-20)
(1.40587 0.126067 -1.5742e-20)
(1.38546 0.113289 2.00415e-20)
(1.40238 0.10279 7.93876e-21)
(1.42553 0.116754 0)
(1.38878 -0.0140384 2.14846e-20)
(1.30897 -0.00687621 -1.84929e-20)
(1.37312 0.0166142 0)
(-0.11025 0.349707 0)
(-0.0764265 0.417569 4.09602e-20)
(-0.0860522 0.233436 5.42753e-20)
(0.0108242 0.154705 1.62046e-20)
(0.0313439 0.0741891 -6.45159e-20)
(0.0462367 0.109322 1.76622e-19)
(0.0982093 0.276226 -4.86586e-19)
(0.0256238 0.162385 -2.88808e-19)
(0.0171706 0.103814 -4.10505e-20)
(0.762696 0.0325089 5.66707e-20)
(0.785318 0.0151961 -1.10559e-19)
(0.781144 0.0533047 0)
(0.322877 0.155662 3.21022e-20)
(1.21232 -0.00764863 1.25531e-22)
(1.46392 0.121086 0)
(1.117 -0.0494446 -8.93458e-21)
(1.22168 0.0563903 0)
(1.2091 0.0501158 -2.63251e-22)
(1.19695 0.0448393 6.26556e-23)
(1.18545 0.0399053 1.57418e-23)
(1.17415 0.0360122 4.97702e-23)
(1.16401 0.0319869 -1.81769e-22)
(1.15507 0.0263786 -2.97785e-21)
(1.1463 0.0224453 4.91763e-22)
(1.13815 0.0188431 -3.57235e-22)
(1.13086 0.0153732 -6.47746e-28)
(1.12398 0.0120661 1.90862e-22)
(1.11784 0.00896112 1.81859e-21)
(1.11206 0.00598269 -2.05776e-21)
(1.10692 0.00317267 -1.22304e-25)
(1.10211 0.000462866 2.70231e-22)
(1.09787 -0.00209575 -4.71424e-21)
(1.09393 -0.00457678 4.46803e-21)
(1.0906 -0.00686741 0)
(1.08742 -0.00920735 -6.23731e-22)
(1.08469 -0.0114392 0)
(1.08232 -0.0135823 -5.56639e-21)
(1.08034 -0.0156423 5.49745e-21)
(1.07866 -0.0176681 3.53316e-22)
(1.07735 -0.019627 -1.74975e-25)
(1.07635 -0.0215595 0)
(1.0757 -0.0234374 -5.97889e-21)
(1.07537 -0.025297 5.5589e-21)
(1.07538 -0.0271132 -6.06816e-21)
(1.07573 -0.0289178 1.21051e-20)
(1.07644 -0.0306881 -1.21651e-20)
(1.07751 -0.0324526 6.05716e-21)
(1.07896 -0.0341971 0)
(1.08082 -0.0359512 6.44072e-21)
(1.08327 -0.0378768 -1.12301e-20)
(1.08626 -0.0394713 6.76156e-21)
(1.08994 -0.0412753 0)
(1.09276 -0.042572 5.25783e-21)
(1.09661 -0.0446385 0)
(1.25533 0.0641927 2.45882e-22)
(1.24669 0.0728573 6.63439e-22)
(1.26217 0.0806567 3.37614e-22)
(1.27816 0.0892271 0)
(1.28788 0.0785268 6.9886e-22)
(1.27086 0.0707645 7.91971e-22)
(1.22734 0.0504193 0)
(1.24128 0.0563896 5.68782e-21)
(1.20144 0.0392769 -1.41579e-22)
(1.2139 0.0442763 7.83454e-22)
(1.17801 0.0305774 0)
(1.18933 0.0343814 0)
(1.15784 0.0226826 0)
(1.16707 0.0272042 1.53405e-22)
(1.14104 0.0159563 -1.20185e-23)
(1.14912 0.0193045 1.36572e-26)
(1.12669 0.00965711 -1.02127e-22)
(1.13361 0.0127666 -3.46617e-26)
(1.11457 0.00391963 7.12437e-23)
(1.1204 0.00674767 5.06503e-26)
(1.10443 -0.0013067 -8.35496e-23)
(1.10929 0.00127437 3.69223e-26)
(1.09619 -0.00618402 -7.55598e-22)
(1.10007 -0.0036938 -1.56737e-22)
(1.08933 -0.0105005 2.06017e-22)
(1.09256 -0.00835031 7.35865e-22)
(1.08412 -0.0146802 -1.03418e-22)
(1.08655 -0.0126105 1.01167e-25)
(1.08032 -0.0186036 -1.1711e-22)
(1.08206 -0.0166517 0)
(1.07788 -0.0223408 1.1539e-25)
(1.07894 -0.0204771 5.34199e-26)
(1.07677 -0.0259364 1.27118e-22)
(1.07716 -0.0241403 -5.4838e-26)
(1.07702 -0.0294249 0)
(1.07672 -0.0276799 0)
(1.07868 -0.0328312 -6.3825e-26)
(1.07766 -0.0311267 -6.03443e-26)
(1.08191 -0.0362115 9.06932e-22)
(1.08008 -0.0345005 1.26869e-25)
(1.08714 -0.0394345 -1.30986e-21)
(1.0841 -0.0380416 0)
(1.09047 -0.0413455 0)
(1.21638 0.0624329 0)
(1.23196 0.0676506 0)
(1.1923 0.050544 0)
(1.20409 0.0563418 1.84016e-22)
(1.17013 0.0408183 -2.70204e-22)
(1.18088 0.0449963 -1.53235e-23)
(1.15102 0.0283745 1.7108e-21)
(1.16034 0.0353404 -2.15528e-22)
(1.13465 0.0204147 0)
(1.14267 0.0243529 0)
(1.12062 0.0130368 6.53439e-26)
(1.1273 0.0165882 1.97143e-28)
(1.10894 0.0065441 -1.52878e-25)
(1.1145 0.00969304 -6.56284e-26)
(1.09929 0.000705878 0)
(1.10387 0.00354286 0)
(1.09146 -0.00456868 0)
(1.09515 -0.0020077 0)
(1.08522 -0.00948513 0)
(1.08814 -0.00709723 0)
(1.08053 -0.0139821 -7.05267e-27)
(1.08269 -0.0117762 0)
(1.07724 -0.0182203 -5.78164e-26)
(1.07872 -0.0161341 0)
(1.07531 -0.0222528 0)
(1.07611 -0.0202645 6.17962e-26)
(1.07473 -0.0261221 -6.54992e-26)
(1.07486 -0.024209 0)
(1.07553 -0.0298702 -6.83807e-26)
(1.07496 -0.0280127 6.67995e-26)
(1.07778 -0.033535 -7.03729e-26)
(1.07647 -0.0317132 6.8657e-26)
(1.08154 -0.0371118 -6.86917e-26)
(1.0795 -0.0353513 7.01041e-26)
(1.08645 -0.0403462 0)
(1.08367 -0.0386349 7.07374e-26)
(1.09392 -0.0438932 0)
(1.09055 -0.0425131 0)
(1.30622 0.0870387 4.97795e-23)
(1.32605 0.0957957 0)
(1.31382 0.108395 4.79716e-22)
(1.29534 0.0983178 2.83445e-21)
(1.3482 0.105162 -3.5552e-21)
(1.33355 0.119712 5.13201e-22)
(1.37022 0.111561 8.55542e-21)
(1.09477 -0.0429478 -3.6973e-21)
(1.09892 -0.0449289 -1.15687e-21)
(1.09774 -0.0455298 0)
(1.25287 0.0905695 -2.15387e-22)
(1.23865 0.083725 -6.39023e-22)
(1.26771 0.0992832 8.10248e-25)
(1.30151 0.119081 1.22144e-21)
(1.32009 0.130517 -3.48295e-21)
(1.43023 0.138469 1.01588e-20)
(1.39165 0.135927 5.63781e-21)
(1.38054 0.0948715 -1.29925e-20)
(1.33599 0.0813422 -1.02155e-21)
(1.35706 0.088339 2.20882e-21)
(1.29631 0.067028 1.01528e-22)
(1.31551 0.0745222 -1.28506e-21)
(1.26207 0.054269 2.24445e-22)
(1.27858 0.060247 -1.21343e-21)
(1.23244 0.0424639 1.83142e-22)
(1.24716 0.0473766 -5.44659e-22)
(1.20555 0.0332704 -5.58819e-22)
(1.21858 0.0373192 -7.91086e-22)
(1.18184 0.024846 5.91748e-23)
(1.19337 0.0286198 -1.85507e-23)
(1.16199 0.0178437 0)
(1.17142 0.0217189 4.92504e-24)
(1.14511 0.011458 -4.55093e-23)
(1.15321 0.0146118 1.22623e-26)
(1.13056 0.0057354 1.02044e-23)
(1.13758 0.00855685 -1.58557e-26)
(1.11816 0.000550114 0)
(1.12411 0.00311729 -5.23088e-26)
(1.10775 -0.00419906 0)
(1.11273 -0.00184246 1.15796e-25)
(1.09916 -0.00859614 0)
(1.10328 -0.00640658 1.63605e-22)
(1.0922 -0.0126429 3.55885e-25)
(1.09549 -0.0106302 -3.49791e-25)
(1.08674 -0.0164879 6.7859e-24)
(1.08928 -0.0145713 0)
(1.08275 -0.0201348 -1.07345e-22)
(1.08457 -0.0183129 0)
(1.08013 -0.023625 -2.24547e-25)
(1.08127 -0.0218779 1.09547e-25)
(1.07886 -0.0269971 0)
(1.07933 -0.0253066 -1.07764e-25)
(1.07896 -0.0302819 1.24201e-22)
(1.07874 -0.0286329 2.36662e-25)
(1.08049 -0.0334959 0)
(1.07954 -0.0318845 3.72439e-25)
(1.08357 -0.0367116 -1.10226e-21)
(1.08181 -0.0350629 1.21697e-25)
(1.0885 -0.0398534 1.06251e-21)
(1.0857 -0.0384387 -1.45277e-22)
(1.09165 -0.0415006 3.06776e-22)
(1.10378 -0.0465438 1.14783e-21)
(1.10392 -0.0477147 0)
(1.10784 -0.0477392 -5.67122e-21)
(1.10684 -0.0479059 1.6852e-21)
(1.21145 0.0693084 3.34738e-23)
(1.22449 0.0768026 -7.10782e-23)
(1.18679 0.0557789 0)
(1.19854 0.0620182 5.13302e-23)
(1.16569 0.0447802 3.22001e-22)
(1.17581 0.0502471 5.46689e-23)
(1.14765 0.0338426 -9.65558e-23)
(1.15619 0.03866 -2.56154e-22)
(1.13253 0.0254313 0)
(1.1398 0.0294665 0)
(1.11913 0.0176372 0)
(1.12559 0.0214225 -5.26768e-28)
(1.10777 0.0107238 7.84325e-26)
(1.11322 0.0140853 -3.50257e-28)
(1.09824 0.00450679 0)
(1.10279 0.00753901 0)
(1.09039 -0.00113599 1.32167e-25)
(1.09412 0.0016251 0)
(1.08411 -0.0063067 -1.43608e-26)
(1.08708 -0.00376211 -1.06335e-25)
(1.07921 -0.0111314 7.6196e-27)
(1.08149 -0.00876377 0)
(1.07569 -0.0156325 0)
(1.07728 -0.0134144 0)
(1.07347 -0.0198954 2.08005e-27)
(1.07441 -0.0177887 0)
(1.07254 -0.0239737 -5.17067e-28)
(1.07284 -0.0219534 0)
(1.07294 -0.0279125 5.50903e-28)
(1.07257 -0.0259569 0)
(1.07473 -0.0317554 -1.41928e-25)
(1.07365 -0.0298417 0)
(1.07812 -0.0355629 -1.1039e-27)
(1.0762 -0.0336576 1.42491e-25)
(1.08367 -0.0395832 2.90773e-22)
(1.08061 -0.0375345 0)
(1.09162 -0.0437203 1.42108e-21)
(1.08725 -0.0416082 -1.13752e-21)
(1.10174 -0.0476894 -1.12156e-21)
(1.09665 -0.045846 -2.83078e-22)
(1.28397 0.108573 -1.21772e-21)
(1.24274 0.099042 -2.1746e-22)
(1.22965 0.0907202 1.12721e-23)
(1.25688 0.108272 3.3577e-22)
(1.28852 0.129677 5.13167e-22)
(1.3061 0.142381 -9.92169e-22)
(1.09945 -0.0476477 0)
(1.10773 -0.0496179 1.38604e-21)
(1.1053 -0.0495936 -2.86569e-22)
(1.41675 0.149043 3.07543e-21)
(1.35494 0.13326 -4.61394e-21)
(1.1087 -0.0475068 -1.88941e-21)
(1.34041 0.142096 3.04532e-21)
(1.11501 -0.0492664 -4.55077e-21)
(1.43948 0.0961104 -1.15862e-20)
(1.4593 0.14489 -4.68006e-22)
(1.49338 0.130251 -2.71365e-20)
(1.49736 0.109726 5.47996e-21)
(1.46891 0.101299 4.06139e-21)
(1.38712 0.0812359 -1.16252e-20)
(1.41126 0.0874029 6.64871e-21)
(1.34344 0.0672531 7.5007e-22)
(1.36462 0.0745146 -3.66274e-21)
(1.30333 0.0549597 5.49759e-23)
(1.32273 0.0609571 3.92411e-22)
(1.26755 0.0442355 -2.80386e-22)
(1.28492 0.0491934 0)
(1.23692 0.0340319 0)
(1.25172 0.0384893 5.71822e-22)
(1.2093 0.0261192 5.30073e-22)
(1.22284 0.0294417 0)
(1.18582 0.0188433 1.22864e-22)
(1.19716 0.0222568 2.21903e-25)
(1.16554 0.0125238 0)
(1.1754 0.0158224 -1.21945e-22)
(1.14814 0.00684004 8.99083e-24)
(1.15646 0.00968599 -1.29771e-25)
(1.13332 0.00170767 8.22869e-24)
(1.14046 0.00423434 -8.55607e-26)
(1.12069 -0.00292579 4.60808e-23)
(1.12675 -0.000627539 0)
(1.11007 -0.00717973 -6.09748e-23)
(1.11514 -0.00506474 -1.158e-25)
(1.1013 -0.0111544 7.35073e-23)
(1.10549 -0.00919047 0)
(1.09422 -0.0148431 8.47236e-23)
(1.09757 -0.0129966 0)
(1.08866 -0.0183553 9.95793e-23)
(1.09126 -0.016601 0)
(1.08457 -0.021711 1.07343e-22)
(1.08644 -0.0200296 0)
(1.08188 -0.0249462 -4.28466e-25)
(1.08306 -0.0233228 4.24503e-25)
(1.08056 -0.02809 -2.25932e-25)
(1.08105 -0.0265103 4.50622e-25)
(1.08062 -0.0311685 -2.44238e-22)
(1.08041 -0.0296194 4.53553e-25)
(1.0821 -0.0341992 0)
(1.08118 -0.0326754 -7.18762e-25)
(1.08512 -0.0372154 0)
(1.08341 -0.0356762 -7.40064e-25)
(1.09001 -0.0402625 4.05627e-22)
(1.08727 -0.0388426 2.60886e-22)
(1.09651 -0.0432097 -1.24382e-21)
(1.0932 -0.0417304 -2.69719e-22)
(1.10568 -0.0465911 0)
(1.10083 -0.0450358 1.16125e-21)
(1.11066 -0.0476442 5.84413e-22)
(1.11232 -0.0495945 3.09814e-22)
(1.11423 -0.0495686 4.87924e-21)
(1.10972 -0.0492895 0)
(1.2042 0.0750393 -8.89879e-23)
(1.21703 0.0826412 0)
(1.18097 0.0614016 0)
(1.19217 0.0678419 2.75233e-23)
(1.16054 0.0489099 6.70939e-24)
(1.17038 0.0551385 -6.35299e-23)
(1.14276 0.0379564 8.86173e-23)
(1.15147 0.0432226 1.38557e-22)
(1.1274 0.0286398 0)
(1.13476 0.0332197 0)
(1.11444 0.0202983 1.67622e-25)
(1.12065 0.0243403 1.74083e-27)
(1.10352 0.0129167 0)
(1.10874 0.0164988 6.32573e-28)
(1.09442 0.00631004 -4.14411e-25)
(1.09875 0.00952598 0)
(1.08697 0.00033411 -2.67001e-26)
(1.09049 0.00325053 4.16107e-25)
(1.08102 -0.00514257 1.4361e-26)
(1.08381 -0.00246346 4.35317e-28)
(1.07648 -0.0101974 2.45346e-25)
(1.07858 -0.00771657 0)
(1.07327 -0.0149229 2.64298e-25)
(1.07471 -0.0125967 -2.53996e-25)
(1.07134 -0.0193924 8.75826e-29)
(1.07215 -0.0171861 -2.65374e-25)
(1.0707 -0.0236643 2.82621e-25)
(1.07086 -0.02155 0)
(1.07138 -0.0277891 2.88683e-25)
(1.07087 -0.0257425 -2.83211e-25)
(1.07346 -0.031808 2.93761e-25)
(1.07224 -0.0298103 -2.89837e-25)
(1.07703 -0.0357179 -1.17771e-27)
(1.07505 -0.0337801 -2.94976e-25)
(1.08228 -0.0396079 -2.96353e-22)
(1.07939 -0.0376298 0)
(1.08953 -0.0435445 0)
(1.08566 -0.0415997 0)
(1.09407 -0.0455865 0)
(1.27208 0.118363 -5.02227e-22)
(1.32607 0.155085 4.39701e-22)
(1.23262 0.106862 -4.24111e-23)
(1.22033 0.0980779 -9.45724e-23)
(1.11397 -0.0514057 -1.39146e-21)
(1.1118 -0.0516029 0)
(1.24583 0.116228 0)
(1.44496 0.16356 -1.2135e-20)
(1.11629 -0.0491384 1.56862e-20)
(1.1228 -0.0496311 -1.63085e-20)
(1.48484 0.149185 0)
(1.37784 0.145974 2.03655e-21)
(1.40202 0.163797 -2.39886e-20)
(1.5001 0.0879861 1.22132e-21)
(1.53446 0.0973294 -3.70067e-22)
(1.52336 0.115929 1.36482e-20)
(1.36272 0.156282 4.79581e-21)
(1.34789 0.168344 1.11937e-21)
(1.44769 0.0758096 4.02371e-21)
(1.47356 0.0805329 -5.80529e-21)
(1.39684 0.0652474 -4.02758e-22)
(1.42112 0.0696942 8.44913e-22)
(1.34958 0.0533972 -3.20966e-22)
(1.37216 0.0595928 1.29142e-21)
(1.30872 0.0422849 0)
(1.3287 0.0475045 -4.04599e-24)
(1.27218 0.0334412 -5.8236e-24)
(1.28986 0.0376596 8.55306e-24)
(1.24055 0.0251879 0)
(1.2557 0.0290019 0)
(1.21304 0.0183565 0)
(1.22637 0.0214145 0)
(1.18912 0.0122443 -1.78406e-24)
(1.20061 0.0151564 1.48128e-24)
(1.16843 0.00686418 -2.34337e-23)
(1.17847 0.0096582 -6.98228e-25)
(1.15056 0.00200606 8.40373e-24)
(1.15911 0.00444072 1.11658e-26)
(1.13545 -0.0024331 2.86976e-23)
(1.14271 -0.000236305 1.60493e-26)
(1.12262 -0.00648209 -8.64268e-23)
(1.12877 -0.0044692 8.22341e-25)
(1.11186 -0.0102243 4.95581e-24)
(1.117 -0.00835964 8.29193e-25)
(1.10297 -0.0137518 -7.26764e-23)
(1.1072 -0.0119953 -1.03872e-24)
(1.0958 -0.0170633 -8.47186e-23)
(1.09918 -0.0154031 0)
(1.09019 -0.0202373 -8.94206e-23)
(1.09281 -0.0186476 0)
(1.08606 -0.023296 7.64972e-25)
(1.08795 -0.0217597 -7.56348e-25)
(1.08334 -0.0262692 8.21873e-25)
(1.08453 -0.0247739 -8.14319e-25)
(1.08201 -0.02918 0)
(1.0825 -0.0277143 0)
(1.08206 -0.0320489 1.19345e-22)
(1.08186 -0.0306023 8.76789e-25)
(1.08356 -0.0348952 0)
(1.08262 -0.0334599 1.39012e-24)
(1.08659 -0.0377278 0)
(1.08487 -0.0362877 4.88025e-25)
(1.09151 -0.0406132 -1.29181e-22)
(1.08876 -0.0392309 -2.58406e-22)
(1.09817 -0.0434427 -6.55039e-22)
(1.09471 -0.0420222 2.58707e-22)
(1.1072 -0.0465176 5.4895e-22)
(1.1025 -0.0450814 1.36251e-21)
(1.11182 -0.047686 -5.85035e-22)
(1.12091 -0.0505911 0)
(1.1222 -0.0501953 2.15377e-21)
(1.11807 -0.0511112 -1.19064e-21)
(1.11992 -0.0509807 0)
(1.11608 -0.0511718 -8.62916e-22)
(1.19668 0.0816371 3.95706e-23)
(1.20846 0.0898034 -3.97699e-23)
(1.17412 0.06652 -2.00097e-24)
(1.18504 0.0737974 3.7926e-26)
(1.1548 0.0535235 -8.11472e-25)
(1.1641 0.0597951 4.14909e-26)
(1.1378 0.0421511 0)
(1.14599 0.0475936 0)
(1.12337 0.032354 1.63519e-25)
(1.13029 0.0370798 0)
(1.11101 0.0236534 -3.55471e-25)
(1.11695 0.0278803 -1.21404e-27)
(1.10049 0.0159051 0)
(1.10553 0.0196683 0)
(1.09169 0.00896676 0)
(1.09589 0.0123449 0)
(1.08445 0.00269178 4.48448e-25)
(1.08788 0.00575512 0)
(1.07866 -0.00304113 0)
(1.08139 -0.000234164 -4.80791e-25)
(1.07421 -0.00834125 0)
(1.07628 -0.00574014 0)
(1.07105 -0.0132866 0)
(1.07247 -0.010853 0)
(1.06913 -0.0179547 -2.1677e-27)
(1.06993 -0.0156507 0)
(1.06846 -0.0224107 -5.5794e-28)
(1.06864 -0.0202054 0)
(1.06907 -0.0267097 -1.16292e-27)
(1.0686 -0.0245765 0)
(1.07105 -0.0309019 6.07946e-25)
(1.06988 -0.028816 0)
(1.07457 -0.0350436 6.16285e-25)
(1.0726 -0.032974 -6.09806e-25)
(1.07991 -0.0391981 -4.89669e-27)
(1.07701 -0.0371222 -6.16359e-25)
(1.08739 -0.0434298 0)
(1.08334 -0.0413022 0)
(1.09729 -0.0477007 6.14594e-22)
(1.09205 -0.0455818 0)
(1.6126 0.150167 4.13437e-21)
(1.60498 0.122629 0)
(1.38506 0.171201 -1.33157e-21)
(1.52788 0.142038 1.01433e-20)
(1.10965 -0.0518643 -6.074e-22)
(1.1032 -0.0498093 -6.04832e-22)
(1.27568 0.139018 -6.1336e-22)
(1.26033 0.126741 0)
(1.31088 0.166452 1.55359e-21)
(1.29201 0.15297 8.37078e-22)
(1.37207 0.182734 2.94271e-21)
(1.61998 0.109605 3.8107e-20)
(1.62349 0.164182 3.32651e-20)
(1.50808 0.156721 -1.94777e-20)
(1.61553 0.0829015 -2.17123e-20)
(1.60565 0.092876 0)
(1.21048 0.103951 6.5235e-23)
(1.22233 0.113476 -6.80855e-23)
(1.42896 0.184104 2.22098e-20)
(1.61051 0.12025 -4.13949e-20)
(1.59139 0.0913751 0)
(1.33168 0.182142 7.41685e-22)
(1.10738 -0.0521237 1.21528e-21)
(1.11643 -0.0538704 -1.17613e-21)
(1.11423 -0.0542783 1.19153e-21)
(1.61252 0.142649 9.37832e-21)
(1.47779 0.172153 6.58719e-21)
(1.61113 0.20492 0)
(1.5049 0.0678854 1.28922e-21)
(1.54318 0.0764947 0)
(1.45402 0.0566945 -1.82505e-21)
(1.47804 0.0614553 2.30162e-21)
(1.40412 0.0476623 3.92947e-22)
(1.42848 0.0511279 0)
(1.35522 0.0383435 6.20179e-22)
(1.37888 0.0432815 -1.09192e-23)
(1.31309 0.0295623 -4.89977e-22)
(1.33341 0.0338321 -1.1457e-23)
(1.27606 0.0223823 1.24892e-23)
(1.29397 0.0258259 -1.48475e-23)
(1.24382 0.0159311 -2.81817e-22)
(1.2593 0.0189677 4.87777e-24)
(1.21597 0.0103969 9.85805e-23)
(1.22941 0.0129711 -3.52356e-24)
(1.19172 0.00544476 0)
(1.20338 0.00783583 0)
(1.17074 0.00103363 2.42664e-23)
(1.18089 0.00329559 0)
(1.15263 -0.00297873 0)
(1.1613 -0.00096223 0)
(1.1373 -0.00667327 4.15359e-25)
(1.14466 -0.00483251 -5.61714e-25)
(1.12432 -0.0101016 4.07504e-23)
(1.13054 -0.00838861 -1.59621e-24)
(1.11345 -0.0133155 1.04794e-22)
(1.11864 -0.0117074 0)
(1.10447 -0.0163762 0)
(1.10874 -0.0148435 0)
(1.09724 -0.0192965 -2.32672e-24)
(1.10065 -0.0178286 3.35203e-24)
(1.09159 -0.0221245 4.53711e-24)
(1.09423 -0.0207024 1.23259e-24)
(1.08743 -0.0248815 -1.46063e-24)
(1.08933 -0.0234926 6.58503e-26)
(1.0847 -0.0275882 -1.57761e-24)
(1.08589 -0.0262231 5.95275e-26)
(1.08335 -0.0302624 0)
(1.08385 -0.0289125 -1.61046e-24)
(1.08341 -0.0329194 -1.11986e-22)
(1.0832 -0.0315768 -8.80239e-25)
(1.08492 -0.0355764 0)
(1.08397 -0.034233 8.5842e-25)
(1.08798 -0.0382332 0)
(1.08624 -0.036885 1.8355e-24)
(1.0929 -0.0409483 0)
(1.09015 -0.0396136 9.68287e-25)
(1.09965 -0.0436458 2.57803e-22)
(1.09609 -0.0422849 0)
(1.10874 -0.0465417 -1.10477e-21)
(1.10395 -0.0451238 -1.27044e-22)
(1.11977 -0.0494798 5.07507e-21)
(1.11399 -0.0479728 0)
(1.12641 -0.0515575 -1.1198e-21)
(1.12706 -0.0500787 3.48897e-21)
(1.12784 -0.0512255 -2.11062e-21)
(1.12392 -0.0524169 -1.14588e-21)
(1.12554 -0.0520875 2.26401e-21)
(1.1205 -0.0531163 2.2617e-21)
(1.12234 -0.0527684 2.77139e-21)
(1.11856 -0.0534926 5.87665e-22)
(1.18815 0.0869265 2.84618e-23)
(1.19918 0.0951886 -3.39289e-23)
(1.16706 0.0713741 5.0843e-24)
(1.17731 0.07891 0)
(1.1485 0.0576853 3.13195e-25)
(1.15748 0.0643188 -4.14702e-26)
(1.13231 0.0457877 -1.61149e-25)
(1.14013 0.0515271 4.99426e-25)
(1.11837 0.0354271 1.47043e-24)
(1.12507 0.0404434 0)
(1.1065 0.026292 -2.07041e-26)
(1.11219 0.0307197 -1.44695e-24)
(1.09646 0.0181886 -1.78139e-24)
(1.10127 0.0221227 0)
(1.08807 0.0109422 0)
(1.09207 0.0144688 1.78846e-24)
(1.08118 0.00439736 1.04807e-24)
(1.08444 0.00759082 0)
(1.07569 -0.00157687 1.08642e-24)
(1.07827 0.001346 -1.02166e-24)
(1.07149 -0.00708687 0)
(1.07343 -0.00438355 -1.07365e-24)
(1.06855 -0.0122264 1.15851e-24)
(1.06987 -0.00969755 0)
(1.06681 -0.0170765 -2.35147e-27)
(1.06753 -0.014683 -1.15847e-24)
(1.0663 -0.0217056 1.2165e-24)
(1.0664 -0.0194147 0)
(1.06705 -0.0261729 1.23951e-24)
(1.06651 -0.0239561 -1.22068e-24)
(1.06915 -0.030527 1.25655e-24)
(1.06792 -0.0283616 -1.24378e-24)
(1.07272 -0.0348053 1.26601e-24)
(1.07074 -0.0326731 -1.26148e-24)
(1.078 -0.0390648 1.27949e-24)
(1.07513 -0.0369321 -1.27347e-24)
(1.08524 -0.043322 -1.28477e-24)
(1.08136 -0.0411922 -1.27948e-24)
(1.09501 -0.047741 -6.2289e-22)
(1.08978 -0.0455124 1.26247e-24)
(1.10089 -0.049948 6.17013e-22)
(1.23505 0.123543 4.03383e-22)
(1.26217 0.146758 6.56546e-22)
(1.24835 0.134371 -6.76753e-22)
(1.29456 0.176863 -3.25387e-22)
(1.27741 0.161776 -6.40812e-22)
(1.41173 0.197564 5.54208e-22)
(1.61254 0.0578683 -6.87457e-21)
(1.60859 0.0641632 -6.49298e-21)
(1.50266 0.0940727 8.23615e-21)
(1.52564 0.127565 -1.86845e-20)
(1.12134 -0.049177 3.23131e-21)
(1.1278 -0.0499182 -1.70847e-21)
(1.35492 0.20085 4.40778e-22)
(1.31319 0.193284 -2.16051e-21)
(1.12318 -0.0557194 -1.75938e-21)
(1.12121 -0.0562513 1.18085e-21)
(1.60255 0.186298 -5.19901e-20)
(1.50145 0.18035 -5.63217e-20)
(1.57474 0.0649301 2.39984e-20)
(1.46595 0.198665 -4.30724e-20)
(1.40159 0.217732 0)
(1.21222 0.119973 2.61297e-24)
(1.20081 0.109972 0)
(1.51306 0.0471473 -3.93224e-21)
(1.55363 0.0533978 -1.95416e-22)
(1.45869 0.0373281 0)
(1.4843 0.0416435 0)
(1.40868 0.0295059 0)
(1.43311 0.0328199 -2.83305e-23)
(1.35953 0.022694 6.81319e-22)
(1.38349 0.0262263 1.08439e-23)
(1.31655 0.016467 1.03657e-21)
(1.33724 0.0195587 0)
(1.2791 0.0111373 -4.0571e-22)
(1.29718 0.0137305 0)
(1.24649 0.0064108 1.11092e-22)
(1.26219 0.00866695 1.38419e-23)
(1.21823 0.00227213 -2.19887e-22)
(1.23186 0.00425461 2.4586e-23)
(1.19374 -0.00148665 7.05483e-23)
(1.20552 0.000358647 0)
(1.1726 -0.00489423 0)
(1.1828 -0.00315801 0)
(1.15437 -0.00803406 1.12292e-23)
(1.1631 -0.00644683 1.95612e-24)
(1.13891 -0.0109771 -9.07579e-24)
(1.14633 -0.00949964 7.15432e-26)
(1.12584 -0.0137655 2.81087e-23)
(1.1321 -0.0123615 3.772e-25)
(1.11489 -0.0164351 -4.9619e-23)
(1.12011 -0.0150903 0)
(1.10586 -0.0190217 0)
(1.11014 -0.0177176 1.58008e-24)
(1.09858 -0.0215395 -7.02694e-23)
(1.10201 -0.0202677 -1.06341e-24)
(1.0929 -0.0240158 8.4858e-23)
(1.09555 -0.0227642 -3.56093e-24)
(1.08872 -0.0264666 0)
(1.09063 -0.0252269 4.00558e-24)
(1.08597 -0.0289041 -3.02703e-24)
(1.08717 -0.0276705 4.50415e-24)
(1.08462 -0.0313398 -1.04691e-22)
(1.08512 -0.0301065 3.21436e-24)
(1.08468 -0.0337836 1.13675e-22)
(1.08447 -0.0325456 -1.69091e-24)
(1.08619 -0.0362481 0)
(1.08525 -0.0349989 -1.77503e-24)
(1.08928 -0.0387326 9.13691e-25)
(1.08753 -0.0374714 -2.74595e-24)
(1.0942 -0.0412811 -1.18725e-22)
(1.09147 -0.0400101 0)
(1.10105 -0.0438583 0)
(1.0974 -0.0425472 0)
(1.11023 -0.046591 -5.07472e-22)
(1.10539 -0.045233 1.29363e-22)
(1.11547 -0.0478802 1.03822e-21)
(1.1311 -0.052465 -5.22429e-22)
(1.13194 -0.0512712 -5.52615e-21)
(1.13188 -0.0518669 3.98546e-22)
(1.12923 -0.0535188 -6.78634e-26)
(1.13033 -0.0530004 0)
(1.12667 -0.0546317 -2.92763e-22)
(1.12805 -0.0540662 -1.12265e-21)
(1.12504 -0.0551782 -1.7044e-21)
(1.17947 0.0920163 -2.85638e-23)
(1.18996 0.10073 3.37557e-23)
(1.15954 0.0756873 -3.57272e-24)
(1.16929 0.0836587 0)
(1.142 0.0614618 -1.29381e-24)
(1.15047 0.0683076 4.8926e-25)
(1.12673 0.0491328 3.23921e-24)
(1.13409 0.0550803 8.79578e-26)
(1.11357 0.0383916 -1.86667e-25)
(1.1199 0.0435812 -2.9011e-24)
(1.1023 0.0289398 -3.60134e-24)
(1.10771 0.033522 -2.00385e-26)
(1.09273 0.0205461 -1.23358e-25)
(1.09731 0.0246222 3.59381e-24)
(1.08471 0.0130372 6.54011e-26)
(1.08854 0.0166916 0)
(1.07813 0.0062568 3.43399e-26)
(1.08125 0.00956502 4.20897e-27)
(1.07287 7.19469e-05 9.16046e-28)
(1.07534 0.00309771 2.20107e-27)
(1.06886 -0.00563217 0)
(1.07071 -0.00283365 0)
(1.06605 -0.0109507 2.00611e-28)
(1.0673 -0.00833403 -5.90313e-28)
(1.06441 -0.0159679 -9.51353e-29)
(1.06508 -0.013492 0)
(1.06396 -0.0207566 -6.01859e-28)
(1.06403 -0.0183865 0)
(1.06474 -0.02538 -2.56587e-24)
(1.06419 -0.0230852 0)