/*--------------------------------*- C++ -*----------------------------------*\
  =========                 |
  \\      /  F ield         | OpenFOAM: The Open Source CFD Toolbox
   \\    /   O peration     | Website:  https://openfoam.org
    \\  /    A nd           | Version:  10
     \\/     M anipulation  |
\*---------------------------------------------------------------------------*/
FoamFile
{
    format      ascii;
    class       volScalarField;
    location    "3.5";
    object      p;
}
// * * * * * * * * * * * * * * * * * * * * * * * * * * * * * * * * * * * * * //

dimensions      [0 2 -2 0 0 0 0];

internalField   nonuniform List<scalar> 
28942
(
-0.490697
-0.485121
-0.219013
0.21709
0.22693
-0.0190425
-0.0118681
-0.0214765
0.00313113
0.00884189
-0.448252
-0.436339
-0.441778
-0.444338
-0.00187324
0.00199657
0.445201
0.46874
0.165973
0.238425
0.328742
0.331674
-0.460508
-0.464094
-0.459182
-0.488184
0.780624
0.795678
-0.0167292
-0.00180769
-0.0364014
-0.0329153
0.0331175
0.00196957
0.124758
0.174296
0.437084
0.568851
-0.0232731
0.451663
0.273256
0.301212
0.0671864
0.0676779
0.0629978
-0.0132827
-0.00993057
-0.0109095
-0.00970445
0.000151296
0.0144089
0.0135844
0.0157379
0.0135057
0.0203305
-0.385196
-0.328636
-0.443363
-0.437454
-0.439725
-0.445276
-0.450549
-0.449344
-0.162142
-0.260351
-0.135975
-0.0623156
0.422031
0.393566
-0.500492
-0.500365
-0.499931
0.419982
0.39896
0.417334
-0.313766
-0.31459
-0.251822
-0.193036
-0.250663
-0.168408
-0.303116
-0.555236
-0.598169
-0.0760857
0.0168443
0.0869481
0.0530568
-0.0132297
-0.00905565
0.0300062
0.0521689
-0.488923
-0.508609
-0.452287
-0.440031
-0.442474
0.0457404
0.0969
-0.637651
0.245438
0.247344
0.223845
0.230826
-0.174869
-0.170175
-0.189317
0.156261
0.166121
0.167004
-0.441778
-0.440533
-0.484694
-0.450619
-0.464751
0.857407
0.789335
0.727417
0.803724
-0.0332895
0.118439
0.0519014
0.068152
0.0523474
0.90286
0.915453
0.881199
0.0821653
0.122559
-0.0130289
-0.0128593
-0.0156684
0.441025
0.542216
0.200118
0.190368
0.270313
0.19604
0.338124
0.313918
-0.427184
-0.428556
0.140895
0.0559649
0.0584949
-0.287499
-0.3095
-0.285134
-0.432609
0.130405
0.13793
-0.0742303
-0.0246257
-0.0257457
-0.0209655
-0.0225577
0.207708
0.118677
-0.415228
-0.442863
-0.460129
-0.504572
-0.493104
-0.0133261
-0.467537
-0.438403
0.350686
0.362464
0.421377
0.398594
0.319588
0.0184426
0.0154009
0.0317483
0.0234199
0.128616
0.115313
0.136766
0.149114
0.147092
0.157491
0.170735
0.208304
0.187994
0.165569
0.186983
0.230636
0.288017
0.308258
-0.638816
-0.642764
-0.474672
-0.0145514
-0.0112013
-0.411322
-0.440175
-0.0035592
-0.00382979
-0.00629464
-0.0078485
0.0584815
0.0583168
0.0575582
-0.436629
-0.44242
-0.441999
-0.452535
-0.454994
-0.453422
-0.478131
-0.536691
-0.49834
0.843185
0.81246
0.856578
-0.152664
-0.13836
-0.151648
0.464086
0.447672
0.456089
0.0389343
0.0382454
0.0396299
0.0375642
0.0368972
0.0362425
0.0362519
0.0355997
0.0356233
0.0368935
0.0375608
0.0382396
0.0389341
0.0396263
0.034974
0.0349945
0.0403436
0.0403439
0.0410873
0.034359
0.0343637
0.0410837
0.0337461
0.0331408
0.0337483
0.033144
0.0418216
0.041823
0.0325446
0.0325482
0.0425716
0.0425813
0.031957
0.0319591
0.0433425
0.0433598
0.0313775
0.031378
0.0441323
0.0441577
0.0308057
0.0308049
0.0449464
0.0449733
0.0302411
0.0302394
0.0457881
0.0458007
0.0296835
0.0296819
0.0466438
0.0466475
0.029132
0.0291308
0.0475346
0.047526
0.0285863
0.0285809
0.0484377
0.0484258
0.0280476
0.0280279
0.0493847
0.049364
0.027498
0.0274787
0.0503589
0.0503365
0.0269307
0.026926
0.0493615
0.0503365
0.0513717
0.0513381
0.0475051
0.0484254
0.0457581
0.0466289
0.0441172
0.0449243
0.0425558
0.043329
0.0410463
0.0417946
0.0396255
0.0403363
0.0382411
0.03892
0.0369014
0.0375691
0.0355951
0.0362443
0.034348
0.034967
0.0331299
0.0337353
0.0319459
0.0325338
0.0307939
0.0313664
0.0296708
0.0302291
0.0285746
0.0291196
0.0274833
0.0280334
0.0269342
0.0263763
0.0263721
0.0280132
0.0269246
0.0274705
0.0291121
0.0285617
0.0302223
0.0296646
0.0313596
0.0307873
0.0325265
0.0319395
0.0337257
0.0331223
0.034966
0.0343397
0.0362401
0.0356054
0.0375433
0.0368878
0.0389048
0.0382162
0.0403202
0.0396092
0.0417851
0.0410385
0.0433205
0.0425442
0.0449291
0.0441159
0.0466093
0.0457588
0.0483836
0.0474809
0.0502627
0.0493067
0.0512606
0.0513468
0.0263831
0.0263739
0.0523849
0.0522939
0.0523878
0.0524151
0.0493045
0.0512674
0.0502684
0.0474541
0.0483661
0.0457253
0.0465768
0.0440951
0.0448996
0.0425355
0.0433075
0.0410408
0.0417785
0.0396053
0.0403193
0.0382209
0.0389123
0.036889
0.0375434
0.0355849
0.0362319
0.0343373
0.0349559
0.0331227
0.0337263
0.03194
0.0325273
0.0307883
0.0313605
0.0296649
0.0302232
0.0285678
0.0291132
0.0274788
0.0280239
0.0258278
0.0258376
0.0263949
0.0269377
0.0269216
0.0263842
0.0258333
0.0258245
0.0279968
0.0274606
0.0290864
0.0285363
0.0301968
0.0296387
0.0313333
0.0307616
0.0324986
0.0319123
0.0336955
0.033093
0.0349294
0.0343074
0.0362022
0.035562
0.0375143
0.0368526
0.0388626
0.0381814
0.0402732
0.0395662
0.0417341
0.040995
0.0432626
0.0424902
0.0448608
0.0440529
0.0465323
0.0456868
0.0482911
0.0473995
0.0501535
0.0492082
0.0521512
0.0511362
0.0523024
0.0533558
0.0532091
0.0534505
0.0258605
0.0258358
0.053459
0.0533628
0.0544506
0.0543045
0.0534967
0.0264027
0.0258741
0.0252927
0.0252945
0.053212
0.0544407
0.0552822
0.0542895
0.051146
0.0521622
0.0492124
0.0501635
0.0473883
0.0482854
0.0456785
0.0465191
0.0440559
0.0448583
0.0425013
0.0432704
0.0410117
0.0417485
0.0395789
0.0402885
0.038196
0.0388827
0.0368639
0.0375236
0.0355687
0.036211
0.0343212
0.0349397
0.0331083
0.033711
0.0319269
0.0325137
0.0307758
0.0313477
0.0296525
0.0302109
0.028554
0.0291004
0.0274705
0.0280097
0.0269341
0.0252944
0.0253205
0.0253056
0.0252895
0.0269045
0.0258334
0.0263713
0.0279724
0.027437
0.0290556
0.0285088
0.0301648
0.0296073
0.0312996
0.0307289
0.0324629
0.0318776
0.0336574
0.0330561
0.0348868
0.0342677
0.0361534
0.0355152
0.0374614
0.0368023
0.0388105
0.03813
0.0402132
0.039506
0.0416687
0.0409334
0.0431881
0.0424202
0.0447758
0.0439733
0.0464372
0.0455968
0.0481815
0.0472985
0.0500217
0.0490885
0.0519791
0.0509846
0.0541035
0.0530188
0.055435
0.0552208
0.0545562
0.0545533
0.0253405
0.0252987
0.055544
0.0555854
0.0567683
0.0563788
0.056595
0.0570455
0.0583707
0.0545893
0.0550752
0.0559889
0.0530675
0.0541139
0.0510131
0.0520222
0.0491016
0.0500396
0.0473058
0.0481928
0.0456127
0.0464475
0.0439975
0.0447966
0.0424499
0.0432154
0.0409655
0.0417003
0.039538
0.0402449
0.0381611
0.0388436
0.0368311
0.0374906
0.0355426
0.0361817
0.0342961
0.0349144
0.033085
0.0336866
0.0319053
0.0324913
0.0307556
0.0313269
0.0296331
0.0301912
0.0285344
0.029081
0.0274567
0.0279917
0.0264
0.0269273
0.0253457
0.0258717
0.024793
0.0248178
0.0248066
0.024768
0.024779
0.0247627
0.0247614
0.0247729
0.0247683
0.0258216
0.0247852
0.0253004
0.0268763
0.0263489
0.0279388
0.0274052
0.02902
0.028476
0.0301266
0.0295703
0.0312587
0.0306894
0.032419
0.0318352
0.0336102
0.0330106
0.0348354
0.0342185
0.0360965
0.0354612
0.0373982
0.0367422
0.0387434
0.038065
0.0401379
0.0394343
0.0415867
0.0408551
0.0430963
0.0423335
0.0446725
0.0438758
0.0463219
0.0454876
0.0480524
0.0471766
0.0498727
0.0489506
0.0517985
0.0508213
0.0538658
0.0528112
0.0561121
0.054969
0.0575777
0.0572973
0.0556762
0.0556725
0.0567104
0.0567496
0.0253439
0.0248238
0.0242545
0.0242516
0.0580614
0.0577942
0.0590865
0.0570224
0.0588143
0.0585246
0.0582431
0.0557064
0.054988
0.0559901
0.0529227
0.0539686
0.0508733
0.051881
0.0489879
0.0499132
0.0472123
0.0480887
0.0455284
0.0463597
0.0439213
0.0447161
0.0423823
0.0431436
0.0409053
0.0416365
0.0394844
0.0401882
0.0381138
0.0387931
0.0367886
0.0374457
0.0355055
0.0361421
0.0342617
0.0348789
0.0330532
0.0336534
0.0318762
0.0324609
0.0307286
0.0312989
0.0296076
0.030165
0.0285105
0.0290563
0.0274373
0.0279705
0.0263865
0.0269082
0.0258628
0.0242743
0.0242955
0.024284
0.0242508
0.0242658
0.0242488
0.0242493
0.0242507
0.0258017
0.0247661
0.0252878
0.0268403
0.0263199
0.027899
0.0273672
0.0289787
0.0284361
0.030082
0.0295273
0.0312108
0.0306431
0.0323673
0.0317855
0.0335542
0.0329568
0.0347743
0.03416
0.03603
0.0353975
0.0373249
0.0366724
0.0386632
0.0379884
0.0400493
0.0393501
0.0414887
0.040762
0.042987
0.0422301
0.0445502
0.0437602
0.046185
0.0453582
0.0478996
0.0470319
0.0497024
0.0487895
0.0516036
0.0506399
0.0536256
0.0525978
0.0558055
0.0546901
0.0581687
0.0569659
0.0597919
0.0594203
0.0568046
0.0568273
0.024298
0.0242458
0.057984
0.0592425
0.059321
0.0579452
0.0590341
0.0594471
0.0605775
0.0604856
0.0600927
0.0611032
0.0607192
0.0568488
0.0569381
0.0593281
0.0581099
0.0548128
0.0558568
0.0527321
0.053778
0.0507193
0.0517068
0.0488565
0.0497723
0.0470965
0.0479653
0.0454234
0.0462496
0.0438273
0.0446164
0.0422988
0.0430551
0.040831
0.0415577
0.0394181
0.0401181
0.0380545
0.0387305
0.0367357
0.0373897
0.0354581
0.036092
0.0342184
0.0348337
0.0330135
0.0336119
0.0318398
0.032423
0.0306949
0.0312639
0.0295763
0.0301325
0.0284819
0.0290262
0.0274105
0.0279435
0.0263621
0.0268832
0.0253305
0.0258455
0.0242898
0.0248146
0.0237779
0.0237683
0.0237738
0.023769
0.0237741
0.0237543
0.0237596
0.023745
0.0237505
0.023742
0.023745
0.0237325
0.0237371
0.0247414
0.0237241
0.0242324
0.0257681
0.0252566
0.0268005
0.0262817
0.0278547
0.0273247
0.0289313
0.0283902
0.030031
0.0294782
0.0311559
0.0305902
0.032308
0.0317284
0.0334898
0.032895
0.034704
0.0340927
0.0359533
0.0353241
0.0372408
0.0365921
0.0385708
0.0379003
0.0399473
0.039253
0.0413756
0.0406547
0.042861
0.0421109
0.0444093
0.043627
0.0460272
0.0452092
0.0477227
0.0468648
0.0495049
0.0486025
0.0513839
0.0504316
0.0533722
0.0523637
0.0554927
0.054413
0.0577726
0.0566136
0.0602529
0.0589868
0.0620546
0.0615672
0.0580052
0.0604909
0.0593346
0.0242803
0.0237705
0.0232217
0.0232117
0.0580302
0.059189
0.0605757
0.0603243
0.0614257
0.0624673
0.0634377
0.0629306
0.0580413
0.0590537
0.0617426
0.0614816
0.0602555
0.0566893
0.0578537
0.0545523
0.055597
0.0525043
0.0535285
0.0505365
0.0515036
0.048697
0.0496028
0.0469552
0.0478152
0.0452978
0.0461165
0.0437158
0.0444981
0.0421997
0.04295
0.0407428
0.0414642
0.0393392
0.0400347
0.0379838
0.0386558
0.0366723
0.0373228
0.0354009
0.0360318
0.0341665
0.0347793
0.032966
0.0335623
0.0317962
0.0323775
0.0306546
0.031222
0.029539
0.0300937
0.0284474
0.0289903
0.0273784
0.0279102
0.0263319
0.0268523
0.0253043
0.0258155
0.0247922
0.0232704
0.0232587
0.0232666
0.023269
0.0232728
0.023268
0.0232689
0.0232534
0.023263
0.0232386
0.0232467
0.0232304
0.0247128
0.0237034
0.0242084
0.025723
0.0252159
0.0267542
0.0262364
0.0278052
0.0272771
0.028878
0.0283389
0.0299738
0.029423
0.0310941
0.0305308
0.0322412
0.0316642
0.0334173
0.0328255
0.0346249
0.034017
0.0358668
0.0352414
0.0371461
0.0365016
0.0384665
0.0378009
0.0398322
0.0391435
0.041248
0.0405336
0.0427189
0.0419762
0.0442506
0.0434768
0.0458495
0.0450413
0.0475232
0.0466765
0.0492805
0.0483908
0.0511322
0.0501939
0.0530898
0.0520972
0.0551666
0.0541123
0.0573766
0.0562544
0.0597565
0.0585417
0.0623419
0.0610254
0.0619446
0.0619365
0.0643316
0.0637071
0.059322
0.0232663
0.0231936
0.0627631
0.0592873
0.0631309
0.0606823
0.0604902
0.0618459
0.0616634
0.0627947
0.063865
0.0648662
0.0657844
0.0651174
0.0593197
0.0610933
0.0641168
0.0636461
0.0623481
0.0586782
0.0598798
0.0563691
0.0574973
0.0542545
0.0552899
0.0522471
0.0532456
0.0503231
0.0512708
0.0485107
0.0494041
0.0467914
0.0476404
0.0451532
0.0459628
0.0435874
0.0443619
0.0420855
0.042829
0.0406409
0.0413564
0.039248
0.0399383
0.037902
0.0385695
0.0365987
0.0372453
0.0353344
0.0359619
0.0341061
0.034716
0.0329107
0.0335045
0.0317454
0.0323245
0.0306077
0.0311733
0.0294956
0.0300486
0.0284072
0.0289485
0.027341
0.0278714
0.0262959
0.0268159
0.0252708
0.0257809
0.0242623
0.0247642
0.0232531
0.0237623
0.0227619
0.0227447
0.0227541
0.0227768
0.0227695
0.0227827
0.0227791
0.0227862
0.0227864
0.0227688
0.0227805
0.0227455
0.0227553
0.0227181
0.0227321
0.0226905
0.0227036
0.0236711
0.0226709
0.0231723
0.0246697
0.0241701
0.0256755
0.0251708
0.0267028
0.0261866
0.0277503
0.027224
0.028819
0.0282819
0.0299102
0.0293617
0.0310256
0.0304649
0.0321671
0.031593
0.0333368
0.0327483
0.0345372
0.033933
0.0357708
0.0351497
0.0370408
0.0364011
0.0383507
0.0376906
0.0397043
0.0390218
0.0411062
0.040399
0.0425612
0.0418268
0.0440745
0.0433102
0.0456525
0.0448551
0.047302
0.0464679
0.0490314
0.0481562
0.0508505
0.0499291
0.052771
0.0517974
0.0548044
0.0537731
0.0569585
0.0558658
0.059256
0.0580877
0.0617195
0.0604653
0.0643697
0.0630263
0.0634681
0.063467
0.0665711
0.0657889
0.0606823
0.0606001
0.0650014
0.0655353
0.0645577
0.0620098
0.0618441
0.0232305
0.0227336
0.0221919
0.0221736
0.0632072
0.063055
0.0642152
0.0653203
0.0663473
0.0672711
0.0664118
0.0657612
0.0671633
0.0680829
0.0672451
0.0679005
0.0606532
0.0631155
0.0644298
0.0605715
0.0618067
0.0582311
0.0593967
0.0559944
0.0570876
0.0539282
0.0549444
0.0519614
0.0529355
0.0500812
0.0510089
0.0483002
0.0491789
0.0466067
0.0474433
0.0449902
0.0457894
0.0434427
0.0442084
0.0419566
0.0426924
0.0405257
0.0412346
0.0391448
0.0398294
0.0378093
0.0384717
0.0365151
0.0371573
0.0352589
0.0358825
0.0340374
0.034644
0.0328479
0.0334388
0.0316877
0.0322643
0.0305545
0.0311179
0.0294463
0.0299974
0.0283613
0.028901
0.0272982
0.0278271
0.0262557
0.0267745
0.0252334
0.025742
0.0242301
0.0247292
0.0237314
0.0222658
0.022244
0.0222555
0.0222881
0.0222786
0.0223041
0.0222968
0.0223073
0.0223081
0.0222904
0.0223017
0.0222595
0.0222749
0.0222291
0.0222459
0.0222112
0.0236309
0.0226461
0.0231393
0.0246188
0.0241217
0.0256231
0.0251188
0.0266464
0.0261323
0.02769
0.0271657
0.0287543
0.0282195
0.0298407
0.0292947
0.0309506
0.0303926
0.0320859
0.031515
0.0332486
0.0326637
0.034441
0.033841
0.0356656
0.0350492
0.0369255
0.036291
0.0382237
0.0375696
0.0395641
0.0388885
0.0409508
0.0402515
0.0423884
0.041663
0.0438818
0.0431278
0.0454369
0.0446513
0.0470602
0.0462397
0.0487592
0.0478998
0.0505426
0.0496398
0.0524208
0.0514692
0.0544048
0.0533991
0.056503
0.055439
0.0587274
0.0575989
0.0610911
0.0598907
0.0636118
0.062332
0.0663343
0.0649462
0.0670167
0.0687425
0.0696372
0.0702973
0.0692611
0.0677714
0.0649044
0.0650547
0.0620661
0.0619659
0.0222359
0.0221475
0.0660716
0.0634015
0.0632513
0.0646667
0.0645012
0.0657007
0.0668327
0.0678827
0.068827
0.0686288
0.0677544
0.0691988
0.0681523
0.0695949
0.0707977
0.07017
0.0694404
0.0685629
0.0712387
0.0718831
0.0620347
0.0650542
0.0663724
0.0624662
0.0637368
0.0600093
0.0612161
0.0577387
0.0588585
0.05559
0.0566472
0.0535716
0.0545666
0.0516499
0.0526002
0.049814
0.0507208
0.0480673
0.0489298
0.0464021
0.0472252
0.0448094
0.0455972
0.0432821
0.0440381
0.0418135
0.0425409
0.0403978
0.0410993
0.0390301
0.0397082
0.0377061
0.0383629
0.036422
0.0370593
0.0351744
0.0357939
0.0339606
0.0345635
0.0327776
0.0333654
0.0316231
0.032197
0.0304949
0.0310559
0.0293911
0.0299401
0.02831
0.0288478
0.0272502
0.0277775
0.0262107
0.026728
0.0251906
0.0256983
0.0241895
0.0246878
0.0232031
0.0236948
0.0222159
0.0227086
0.0217539
0.0217229
0.0217388
0.0217819
0.0217669
0.0218091
0.0217948
0.0218295
0.0218213
0.021832
0.0218331
0.0218166
0.0218267
0.0217837
0.0218016
0.0217451
0.0217662
0.021702
0.0217231
0.0216534
0.0216796
0.022604
0.0216253
0.0221169
0.0235814
0.0230935
0.0245638
0.0240703
0.0255653
0.0250624
0.0265852
0.0260729
0.0276245
0.0271024
0.0286841
0.0281517
0.0297651
0.0292219
0.0308691
0.0303142
0.0319977
0.0314303
0.0331528
0.0325719
0.0343366
0.033741
0.0355516
0.0349401
0.0368003
0.0361716
0.038086
0.0374384
0.0394121
0.0387438
0.0407824
0.0400915
0.0422012
0.0414855
0.0436732
0.0429303
0.0452037
0.0444308
0.0467987
0.0459928
0.0484649
0.0476225
0.0502102
0.0493272
0.0520431
0.0511152
0.0539732
0.0529955
0.0560094
0.0549774
0.0581611
0.0570705
0.0604352
0.0592824
0.0628386
0.0616202
0.0653895
0.0640964
0.0667298
0.0663508
0.0665398
0.0723406
0.0710507
0.0634786
0.063385
0.067592
0.0648461
0.064716
0.0221866
0.0216984
0.0211655
0.0211334
0.0661826
0.0660102
0.0672499
0.0684142
0.0694869
0.070434
0.0707013
0.0695681
0.0710313
0.0722726
0.071788
0.0710489
0.0701718
0.0729114
0.0735293
0.0725564
0.073926
0.0634602
0.0668225
0.0681589
0.0642473
0.0655257
0.0617462
0.0629807
0.0594156
0.0605609
0.0572299
0.0583075
0.0551552
0.0561791
0.0531884
0.054159
0.0513148
0.052241
0.0495235
0.050409
0.0478134
0.0486586
0.0461786
0.0469871
0.0446117
0.0453871
0.0431064
0.0438518
0.0416567
0.042375
0.0402575
0.0409511
0.0389042
0.0395754
0.0375927
0.0382435
0.0363195
0.0369515
0.0350815
0.0356963
0.0338759
0.0344749
0.0327002
0.0332845
0.031552
0.0321228
0.0304293
0.0309876
0.0293302
0.0298769
0.0282533
0.0287891
0.0271972
0.0277227
0.0261608
0.0266766
0.0251434
0.0256498
0.0241445
0.0246416
0.0231634
0.0236508
0.022676
0.021268
0.0212319
0.0212521
0.021303
0.0212866
0.021338
0.0213213
0.0213585
0.0213506
0.0213608
0.0213618
0.0213465
0.0213559
0.0213139
0.0213325
0.0212684
0.0212924
0.0212183
0.0212436
0.021193
0.0225556
0.0215872
0.0220739
0.0235254
0.0230386
0.024505
0.0240129
0.0255029
0.0250017
0.026519
0.0260087
0.0275539
0.0270341
0.0286084
0.0280787
0.0296838
0.0291435
0.0307814
0.0302298
0.0319028
0.0313391
0.0330498
0.032473
0.0342244
0.0336336
0.0354289
0.0348228
0.0366658
0.0360432
0.0379381
0.0372974
0.0392488
0.0385884
0.0406016
0.0399198
0.0420004
0.041295
0.0434495
0.0427184
0.0449537
0.0441944
0.0465185
0.0457282
0.0481499
0.0473255
0.0498545
0.0489927
0.0516398
0.0507367
0.0535132
0.0525651
0.0554828
0.0544855
0.0575562
0.0565062
0.0597396
0.0586339
0.0620369
0.0608739
0.0644449
0.0632279
0.0670016
0.065699
0.0697057
0.0683486
0.0740828
0.0725272
0.0710978
0.0679014
0.0681346
0.0649443
0.0648608
0.0212078
0.021101
0.0691895
0.0663676
0.0662438
0.0677582
0.0675868
0.0688689
0.0700692
0.0711611
0.0721108
0.0725356
0.0711634
0.0725741
0.0709194
0.0722615
0.0739732
0.0741082
0.0739055
0.0734277
0.0727497
0.0718621
0.0746545
0.0752217
0.0755596
0.0756223
0.0649375
0.068417
0.0697745
0.0658077
0.0670634
0.0633599
0.0645865
0.0610087
0.0621667
0.0587949
0.0598866
0.056693
0.057731
0.0546891
0.0556793
0.05278
0.053723
0.0509573
0.0518586
0.0492116
0.0500751
0.0475398
0.0483667
0.0459374
0.0467304
0.044398
0.0451602
0.0429163
0.0436503
0.041487
0.0421954
0.0401055
0.0407906
0.0387675
0.0394313
0.0374695
0.0381138
0.0362081
0.0368345
0.0349804
0.0355902
0.0337838
0.0343784
0.0326158
0.0331964
0.0314744
0.032042
0.0303576
0.0309131
0.0292638
0.029808
0.0281914
0.028725
0.0271392
0.0276628
0.0261062
0.0266204
0.0250917
0.0255967
0.0240948
0.0245911
0.0231175
0.0236032
0.0221486
0.0226314
0.0211734
0.021665
0.0207471
0.0206859
0.0207158
0.0207922
0.0207716
0.0208329
0.0208101
0.0208716
0.0208544
0.0208914
0.0208837
0.020894
0.0208947
0.0208803
0.0208892
0.020849
0.0208669
0.0208018
0.0208272
0.0207442
0.0207731
0.0206879
0.0207185
0.0206252
0.0206564
0.0215427
0.0205926
0.0210702
0.0225003
0.0220225
0.0234639
0.0229799
0.0244416
0.0239507
0.0254361
0.0249367
0.0264481
0.0259399
0.0274783
0.0269609
0.0285276
0.0280005
0.029597
0.0290597
0.0306878
0.0301396
0.0318015
0.0312417
0.0329398
0.0323675
0.0341046
0.0335188
0.035298
0.0346976
0.0365223
0.0359062
0.0377802
0.0371469
0.0390747
0.0384228
0.040409
0.0397367
0.0417866
0.0410922
0.0432115
0.0424929
0.044688
0.043943
0.0462209
0.0454471
0.0478155
0.0470102
0.0494774
0.0486377
0.0512127
0.0503356
0.0530275
0.0521099
0.0549278
0.0539667
0.0569192
0.0559119
0.0590065
0.0579507
0.061193
0.0600874
0.0634738
0.0623222
0.0658565
0.0646509
0.0683346
0.0670894
0.0696047
0.0695398
0.0697777
0.0754126
0.0735995
0.0664764
0.0663996
0.0708481
0.0679606
0.0678404
0.0211391
0.0206606
0.0201504
0.0201132
0.0694109
0.0692365
0.0705643
0.0717985
0.0729092
0.0738696
0.074019
0.0722807
0.0735951
0.0755005
0.0757078
0.075561
0.0751675
0.0745115
0.0736215
0.0764644
0.0769767
0.0772332
0.0771999
0.0748678
0.0768461
0.0664781
0.0697232
0.071003
0.067192
0.0684616
0.0647422
0.065944
0.0624562
0.0635901
0.0602517
0.0613418
0.0581437
0.0591861
0.0561264
0.0571239
0.0541957
0.0551506
0.0523485
0.0532619
0.0505789
0.0514546
0.0488799
0.0497209
0.0472481
0.0480559
0.0456796
0.0464563
0.0441693
0.0449175
0.0427126
0.0434346
0.0413049
0.0420029
0.0399422
0.0406182
0.0386207
0.0392765
0.037337
0.0379743
0.0360881
0.0367084
0.0348714
0.0354759
0.0336844
0.0342743
0.0325248
0.0331013
0.0313907
0.0319547
0.0302802
0.0308326
0.0291919
0.0297334
0.0281243
0.0286556
0.0270763
0.027598
0.026047
0.0265594
0.0250355
0.0255391
0.0240413
0.0245363
0.0230644
0.0235507
0.0221004
0.0225802
0.0216196
0.0202692
0.0202038
0.020238
0.0203207
0.0202985
0.0203707
0.0203452
0.0204088
0.0203923
0.0204284
0.0204207
0.0204314
0.0204319
0.0204181
0.0204268
0.0203882
0.0204052
0.0203419
0.0203671
0.0202809
0.0203126
0.0202153
0.0202496
0.0201821
0.0214926
0.0205488
0.0210243
0.0224388
0.021965
0.0233987
0.0229168
0.0243739
0.0238845
0.0253649
0.0248674
0.0263727
0.0258667
0.0273979
0.0268831
0.0284416
0.0279175
0.0295047
0.0289707
0.0305883
0.0300439
0.0316939
0.0311383
0.0328231
0.0322555
0.0339775
0.0333971
0.0351592
0.0345649
0.0363702
0.0357609
0.0376131
0.0369876
0.0388904
0.0382473
0.0402052
0.039543
0.0415606
0.0408776
0.0429601
0.0422546
0.0444076
0.0436776
0.0459072
0.0451507
0.0474633
0.0466779
0.0490807
0.0482641
0.0507641
0.0499139
0.0525184
0.0516322
0.0543478
0.0534235
0.0562556
0.0552918
0.0582444
0.0572399
0.0603152
0.0592697
0.0624648
0.0613804
0.0646905
0.0635689
0.0669691
0.0658254
0.0693008
0.0681266
0.0716924
0.0705017
0.0761477
0.0739761
0.0728432
0.0712526
0.0714843
0.0680822
0.0680082
0.0201837
0.020074
0.0726076
0.0696314
0.0695125
0.0711439
0.0709653
0.0723404
0.0736094
0.0747398
0.0757021
0.0749147
0.0728488
0.0740016
0.0718104
0.0727612
0.0750763
0.0762778
0.0769955
0.0773116
0.0772888
0.0769406
0.0763291
0.0754577
0.0783405
0.0787968
0.0789617
0.0788061
0.0782956
0.077393
0.0680895
0.0705772
0.0716986
0.0682224
0.0693767
0.0659157
0.0670833
0.0636767
0.064778
0.0615444
0.0626026
0.0594689
0.0604988
0.0574638
0.058457
0.0555343
0.0564897
0.0536792
0.0545977
0.0518961
0.0527789
0.0501814
0.0510306
0.0485303
0.0493482
0.0469398
0.0477277
0.0454066
0.0461663
0.0439267
0.0446602
0.0424962
0.0432056
0.0411113
0.0417983
0.0397684
0.0404348
0.0384641
0.0391116
0.0371956
0.0378256
0.03596
0.0365739
0.0347549
0.0353538
0.033578
0.0341631
0.0324273
0.0329995
0.0313009
0.0318612
0.0301972
0.0307464
0.0291148
0.0296535
0.0280524
0.0285812
0.0270088
0.0275283
0.0259833
0.0264939
0.024975
0.025477
0.0239833
0.0244771
0.0230075
0.0234936
0.0220466
0.0225251
0.0210976
0.0215702
0.0201459
0.0206245
0.0197359
0.0196636
0.0197014
0.0198032
0.0197695
0.0198601
0.0198322
0.0199133
0.0198879
0.0199499
0.0199339
0.0199696
0.0199617
0.019973
0.0199733
0.0199601
0.0199686
0.019931
0.0199476
0.0198862
0.0199106
0.0198239
0.0198572
0.0197506
0.0197879
0.0196814
0.0197172
0.019607
0.0196443
0.0204969
0.0195665
0.0200315
0.0214328
0.020967
0.0223737
0.0219005
0.0233304
0.0228502
0.0243023
0.0238145
0.0252895
0.024794
0.0262928
0.0257891
0.027313
0.0268008
0.0283508
0.0278296
0.0294072
0.0288766
0.0304833
0.0299428
0.0315804
0.0310292
0.0327
0.0321374
0.0338435
0.0332687
0.0350129
0.0344249
0.03621
0.0356079
0.0374371
0.0368197
0.0386965
0.0380626
0.0399909
0.0393392
0.0413231
0.0406522
0.0426963
0.0420044
0.0441136
0.0433992
0.0455786
0.0448399
0.0470949
0.0463301
0.0486662
0.0478735
0.0502963
0.0494737
0.0519885
0.0511345
0.0537455
0.0528588
0.0555688
0.0546489
0.0574585
0.0565055
0.0594126
0.0584278
0.0614267
0.0604124
0.0634939
0.0624548
0.0655907
0.0645403
0.0676947
0.0666431
0.069782
0.0687463
0.0708083
0.0730555
0.0732772
0.0761225
0.0736373
0.0697673
0.0696936
0.0744287
0.0713851
0.0712662
0.020103
0.0196356
0.0191411
0.019102
0.0729671
0.0727793
0.074204
0.0755074
0.076655
0.0776134
0.0751139
0.0726593
0.0735153
0.0762004
0.0776114
0.0784927
0.0789636
0.0790381
0.0787528
0.0781858
0.0773547
0.0802927
0.0806833
0.0807426
0.0804442
0.0797487
0.0786267
0.0743863
0.0770631
0.0697793
0.0708004
0.0717241
0.0688213
0.0698506
0.066711
0.0677389
0.0646434
0.0656896
0.0626014
0.0636128
0.0606128
0.0616027
0.0586603
0.0596312
0.0567605
0.0577031
0.0549209
0.0558331
0.0531426
0.0540242
0.051425
0.0522763
0.0497665
0.0505886
0.0481644
0.0489586
0.0466162
0.0473837
0.0451194
0.0458616
0.0436711
0.0443895
0.0422679
0.0429641
0.0409068
0.0415823
0.0395846
0.040241
0.0382984
0.0389372
0.0370458
0.0376681
0.0358241
0.0364312
0.0346312
0.0352242
0.033465
0.0340449
0.0323236
0.0328913
0.0312054
0.0317618
0.0301089
0.0306546
0.0290327
0.0295683
0.0279756
0.0285018
0.0269367
0.027454
0.0259152
0.0264239
0.0249103
0.0254107
0.0239213
0.0244138
0.0229477
0.0234326
0.0219896
0.0224666
0.0210448
0.0215144
0.0205739
0.0192703
0.0191924
0.0192338
0.0193419
0.0193071
0.0194065
0.0193754
0.0194593
0.0194348
0.0194951
0.0194793
0.0195149
0.019507
0.0195186
0.0195188
0.0195062
0.0195144
0.0194777
0.0194939
0.0194336
0.0194577
0.0193727
0.0194054
0.0192968
0.0193363
0.0192195
0.0192589
0.0191802
0.0204407
0.0195198
0.01998
0.0213662
0.0209009
0.0223047
0.0218332
0.0232585
0.0227799
0.0242268
0.0237409
0.02521
0.0247166
0.0262087
0.0257074
0.0272235
0.0267141
0.0282553
0.0277373
0.0293048
0.0287778
0.030373
0.0298365
0.0314613
0.0309146
0.0325708
0.0320133
0.033703
0.033134
0.0348595
0.0342781
0.0360421
0.0354475
0.0372528
0.0366439
0.0384936
0.0378693
0.0397669
0.0391261
0.0410751
0.0404165
0.0424209
0.0417432
0.0438071
0.0431088
0.0452364
0.0445162
0.0467117
0.0459682
0.0482359
0.0474676
0.0498114
0.0490171
0.0514405
0.0506192
0.0531242
0.0522756
0.0548623
0.0539866
0.0566528
0.0557513
0.058491
0.0575665
0.0603697
0.0594259
0.0622776
0.0613212
0.0641929
0.0632358
0.0660881
0.0651454
0.0679121
0.0670132
0.0696265
0.0687862
0.0711691
0.0704397
0.075091
0.0722838
0.07177
0.0749493
0.0751688
0.0715372
0.0714627
0.0191639
0.0190531
0.0763272
0.0732297
0.0731083
0.0748845
0.0746853
0.0761608
0.0774981
0.0786595
0.0796054
0.0743909
0.0715996
0.0721299
0.0753028
0.0773139
0.0789103
0.0800183
0.080627
0.0808313
0.0806474
0.0801365
0.0793303
0.082324
0.0826353
0.0825757
0.0821163
0.0812051
0.0798246
0.0779635
0.0695436
0.0727165
0.0697853
0.0715539
0.0702564
0.0709142
0.0687448
0.0695257
0.0670577
0.0679324
0.065214
0.0661399
0.0633739
0.0642983
0.061513
0.0624431
0.0596627
0.060586
0.057833
0.0587444
0.056039
0.0569308
0.0542897
0.0551585
0.0525886
0.053433
0.0509374
0.0517568
0.0493362
0.0501306
0.0477838
0.048554
0.0462788
0.0470255
0.0448195
0.0455436
0.0434037
0.0441063
0.0420287
0.0427113
0.0406922
0.0413558
0.0393914
0.0400375
0.0381242
0.0387538
0.036888
0.0375024
0.0356809
0.036281
0.0345007
0.0350876
0.0333457
0.0339202
0.0322141
0.0327771
0.0311044
0.0316566
0.0300154
0.0305574
0.0289457
0.0294782
0.0278943
0.0284178
0.0268603
0.0273752
0.0258429
0.0263496
0.0248415
0.0253403
0.0238555
0.0243466
0.0228843
0.0233681
0.0219277
0.0224042
0.0209849
0.0214536
0.0200547
0.0205198
0.0191167
0.0195878
0.0187332
0.0186454
0.0186899
0.0188146
0.0187749
0.018889
0.0188505
0.0189568
0.0189249
0.0190087
0.0189848
0.0190443
0.0190284
0.0190643
0.0190563
0.0190682
0.0190683
0.0190562
0.0190642
0.0190283
0.0190442
0.0189848
0.0190085
0.0189254
0.0189571
0.0188491
0.0188897
0.0187657
0.0188062
0.0186799
0.0187229
0.0185925
0.0186357
0.019459
0.0185427
0.0190005
0.0203743
0.019917
0.0212959
0.0208333
0.0222323
0.0217624
0.0231829
0.0227059
0.0241476
0.0236635
0.0251267
0.0246353
0.0261205
0.0256217
0.0271298
0.0266233
0.0281553
0.0276405
0.0291976
0.0286743
0.0302577
0.0297254
0.0313367
0.0307948
0.0324358
0.0318837
0.0335562
0.0329933
0.0346994
0.0341249
0.035867
0.0352801
0.0370607
0.0364605
0.0382823
0.037668
0.0395339
0.0389043
0.0408174
0.0401715
0.0421351
0.0414718
0.0434892
0.0428075
0.0448819
0.0441806
0.0463154
0.0455935
0.0477915
0.0470481
0.0493118
0.0485461
0.0508771
0.0500889
0.052487
0.0516766
0.0541398
0.0533083
0.0558314
0.0549811
0.0575551
0.0566899
0.0593006
0.058426
0.0610528
0.0601772
0.0627883
0.0619243
0.0644775
0.0636413
0.0660678
0.0652891
0.0674994
0.0668071
0.0687011
0.0681403
0.069174
0.0769407
0.0771485
0.0757111
0.0733989
0.0733225
0.0783201
0.075171
0.075046
0.0190667
0.0186083
0.0181351
0.0180834
0.0769035
0.0766901
0.0782174
0.0795873
0.0807578
0.0816851
0.0726469
0.0695108
0.0695263
0.0729577
0.0698802
0.0729523
0.0759395
0.0783321
0.0801706
0.0814832
0.0823041
0.0826657
0.0826083
0.082168
0.0814037
0.0844377
0.0846521
0.0844563
0.0838056
0.082664
0.0810071
0.0788353
0.0734203
0.0688915
0.0692606
0.0679523
0.0684377
0.0667424
0.0674033
0.0653236
0.0660506
0.0637555
0.0645552
0.0621106
0.0629402
0.060414
0.0612666
0.0587011
0.0595579
0.0569927
0.0578454
0.0553033
0.0561448
0.0536437
0.0544693
0.05202
0.0528271
0.0504356
0.0512228
0.0488923
0.0496588
0.0473903
0.0481362
0.0459292
0.0466547
0.044508
0.0452137
0.0431254
0.043812
0.0417794
0.042448
0.0404682
0.0411196
0.0391897
0.039825
0.0379419
0.0385621
0.0367229
0.037329
0.0355308
0.0361236
0.0343638
0.0349443
0.0332203
0.0337892
0.0320989
0.032657
0.0309982
0.0315461
0.029917
0.0304553
0.0288541
0.0293833
0.0278086
0.0283292
0.0267797
0.0272921
0.0257667
0.0262713
0.0247689
0.0252659
0.0237859
0.0242756
0.0228172
0.0232998
0.0218623
0.0223381
0.0209223
0.02139
0.0199946
0.0204564
0.0195316
0.0182763
0.018181
0.018231
0.0183621
0.018321
0.0184429
0.0184031
0.0185104
0.0184788
0.0185618
0.018538
0.0185975
0.0185816
0.0186176
0.0186095
0.0186218
0.0186217
0.0186102
0.018618
0.0185828
0.0185985
0.0185398
0.0185633
0.0184814
0.0185125
0.0184066
0.0184464
0.0183172
0.0183624
0.0182274
0.0182748
0.0181819
0.0193924
0.0184854
0.0189395
0.020302
0.0198453
0.0212225
0.0207607
0.0221564
0.0216878
0.0231038
0.0226285
0.0240648
0.0235826
0.0250396
0.0245505
0.0260285
0.0255322
0.0270321
0.0265284
0.028051
0.0275396
0.0290859
0.0285664
0.0301376
0.0296096
0.0312071
0.0306701
0.0322954
0.0317488
0.0334036
0.032847
0.0345331
0.0339657
0.0356852
0.0351063
0.0368614
0.0362703
0.0380633
0.0374591
0.0392925
0.0386744
0.0405507
0.0399179
0.0418396
0.0411912
0.0431611
0.0424963
0.0445166
0.0438345
0.0459076
0.0452076
0.0473351
0.0466168
0.0487996
0.0480628