/*--------------------------------*- C++ -*----------------------------------*\
  =========                 |
  \\      /  F ield         | OpenFOAM: The Open Source CFD Toolbox
   \\    /   O peration     | Website:  https://openfoam.org
    \\  /    A nd           | Version:  10
     \\/     M anipulation  |
\*---------------------------------------------------------------------------*/
FoamFile
{
    format      ascii;
    class       volVectorField;
    location    "3.5";
    object      U;
}
// * * * * * * * * * * * * * * * * * * * * * * * * * * * * * * * * * * * * * //

dimensions      [0 1 -1 0 0 0 0];

internalField   nonuniform List<vector> 
28942
(
(-0.117441 0.0779126 -4.91358e-20)
(-0.115398 0.098084 -1.02473e-20)
(0.46985 -0.327902 3.88618e-20)
(1.01572 0.0420937 -1.2006e-19)
(0.994046 0.0519467 3.94187e-20)
(0.537593 0.0255274 0)
(0.640762 0.0508886 -1.10473e-21)
(0.690982 0.01774 1.34418e-21)
(1.21378 -0.129445 -5.59183e-22)
(1.20243 -0.11631 2.90286e-21)
(-0.0404993 -0.246603 -1.21125e-19)
(-0.00964527 -0.208048 5.66477e-20)
(-0.0714565 -0.167647 0)
(-0.0876976 -0.197889 0)
(1.00284 -0.0267458 1.58925e-22)
(1.00281 -0.0244163 -1.61509e-23)
(0.93589 0.110267 3.01429e-20)
(0.919471 0.0958095 4.84559e-20)
(0.320409 -0.432771 8.86916e-20)
(0.617155 -0.693897 -2.49381e-20)
(0.997645 0.249416 3.90229e-20)
(0.997241 0.235032 0)
(0.0355017 -0.0150318 1.10097e-19)
(-0.0683929 -0.0356303 6.14468e-20)
(0.668977 -0.158957 1.21219e-19)
(1.04252 -0.269894 -1.10174e-19)
(0.188915 -0.425293 4.78286e-19)
(0.195931 -0.351536 -1.84074e-19)
(0.73513 -0.531083 1.35849e-21)
(0.448521 -0.310892 -3.62797e-22)
(0.523151 -0.0261855 0)
(0.684266 -0.0387504 2.55697e-21)
(0.801196 -0.034328 1.41003e-20)
(0.940666 -0.0316021 1.74503e-21)
(0.458731 0.503676 1.87535e-20)
(0.384132 0.556946 -1.19779e-20)
(0.60556 0.724357 -1.17034e-19)
(0.393238 0.654795 -4.89752e-20)
(0.276496 0.026549 1.35228e-21)
(0.210953 0.509274 -7.2114e-20)
(0.657189 -0.0597707 0)
(0.856157 -0.0778725 0)
(1.03755 -0.0842723 -9.9779e-22)
(1.03523 -0.081237 3.19586e-21)
(1.04222 -0.0813382 2.52992e-21)
(0.869631 0.024128 -6.1396e-22)
(0.843605 0.0383555 9.91e-22)
(0.969345 0.0246936 4.12507e-21)
(0.956253 0.0253261 -1.13927e-21)
(0.881703 0.0267744 -2.46849e-21)
(0.813129 0.02556 1.74882e-21)
(1.13206 0.00352787 -1.7345e-21)
(1.13095 -0.0020718 -2.04489e-21)
(1.21032 -0.146585 -1.64125e-22)
(1.19735 -0.133435 1.03546e-21)
(1.30487 -0.195476 9.741e-20)
(1.51375 -0.267253 5.25929e-20)
(-0.0741704 -0.0839122 -7.23633e-20)
(-0.060463 -0.120643 0)
(-0.0622767 -0.0699032 2.60287e-20)
(-0.0668622 -0.0566543 6.33908e-20)
(-0.032021 -0.026864 -5.12899e-20)
(-0.0347979 -0.0336076 -5.38517e-20)
(1.33207 -0.565766 0)
(1.47263 -0.494667 1.8854e-20)
(1.36015 -0.431609 -8.02295e-21)
(1.29106 -0.426142 0)
(0.93165 -0.217299 -2.85309e-20)
(0.951046 -0.237814 -1.85208e-20)
(-0.0694384 0.0470941 1.63604e-19)
(-0.086129 0.0527308 -5.14556e-20)
(-0.11338 0.0812501 1.28941e-19)
(0.926167 -0.301032 0)
(0.942258 -0.265607 9.85567e-20)
(0.875477 -0.413803 2.55627e-20)
(1.48013 0.300037 5.6925e-20)
(1.51711 0.273829 -6.17625e-20)
(1.4818 0.225143 -4.0911e-20)
(0.145749 -0.0826536 1.7626e-21)
(0.208029 -0.130573 -4.30624e-20)
(0.991814 -0.618384 -6.87667e-21)
(0.734856 -0.50092 1.42197e-20)
(-0.0916446 0.0504035 2.73058e-19)
(-0.098178 0.0517135 -1.05036e-19)
(1.28676 0.601522 -7.54589e-21)
(1.20809 0.568054 -9.86734e-21)
(1.10536 0.682346 4.57033e-21)
(0.956204 0.674936 -1.42681e-20)
(0.913727 0.648712 9.66764e-21)
(0.684985 0.472463 1.00385e-21)
(0.752323 0.566655 -4.2966e-21)
(0.791974 0.65142 8.33151e-21)
(-0.316753 -0.204505 -1.6633e-20)
(-0.193739 -0.253288 -4.35255e-21)
(-0.183848 -0.233567 8.7147e-21)
(-0.249685 -0.207009 -1.10944e-19)
(-0.283091 -0.170003 1.42352e-19)
(0.381566 0.303063 -3.1047e-20)
(0.430718 0.372475 5.15744e-21)
(-0.0272328 0.0196492 0)
(1.0071 0.00421201 0)
(0.965209 0.0532249 -8.90361e-20)
(0.890582 0.13529 6.48026e-20)
(1.08071 0.117913 0)
(1.37741 -0.0209337 0)
(1.37493 -0.0312281 0)
(1.39703 -0.0278282 7.08601e-20)
(1.09116 0.171298 -5.92751e-21)
(1.08804 0.184145 6.33115e-20)
(1.0802 0.161948 3.34285e-20)
(-0.0824081 -0.111295 1.46405e-19)
(-0.0885806 -0.125402 -1.64238e-19)
(0.0142139 0.0767996 -8.6814e-20)
(0.0105604 0.108412 8.29221e-20)
(-0.105025 0.134196 1.66611e-19)
(0.16941 0.264369 8.01534e-20)
(0.388833 0.260483 1.96061e-19)
(0.299786 0.485739 1.62142e-20)
(0.134249 0.380412 -4.6469e-19)
(1.30245 0.47034 7.03139e-22)
(1.15194 0.454004 2.1769e-20)
(1.18699 0.430986 -3.78718e-20)
(0.808339 -0.625135 1.15662e-20)
(0.550341 -0.400036 -4.44054e-21)
(0.163763 0.0176306 -2.43245e-19)
(0.1487 -0.0603652 0)
(0.312363 -0.0256625 1.30594e-19)
(0.512145 -0.393136 1.41745e-20)
(0.728089 -0.613071 -3.11685e-20)
(0.955784 0.0242107 -4.09633e-21)
(0.97538 0.02154 1.87143e-21)
(0.924 0.0229152 1.30814e-22)
(0.50327 -0.746615 0)
(0.530749 -0.577368 0)
(1.0619 -0.132859 -1.3891e-20)
(1.04812 -0.114455 8.01901e-20)
(1.0322 -0.0810275 0)
(0.824575 -0.720557 0)
(0.825421 -0.658879 -3.04215e-20)
(0.762304 0.756657 7.13976e-20)
(-0.1277 -0.13009 9.79287e-20)
(-0.103252 -0.116706 -7.21079e-20)
(0.552011 -0.507115 -1.63849e-20)
(1.05075 -0.0827863 1.31328e-20)
(1.04718 -0.0790384 -2.59469e-21)
(1.48349 -0.199807 -1.53359e-20)
(1.4958 -0.178372 2.0515e-20)
(1.49534 -0.155228 7.03796e-20)
(-0.0934352 -0.104512 3.42488e-20)
(0.877821 0.73042 7.34301e-20)
(1.01246 0.702547 -2.31605e-20)
(1.09687 0.74798 1.09115e-22)
(0.763837 -0.020752 -6.00023e-22)
(0.764763 -0.0225387 -5.5959e-21)
(0.828488 -0.0257682 -4.41943e-22)
(0.857992 -0.0299235 1.49141e-21)
(0.821844 0.723274 1.84629e-20)
(0.447379 0.430026 0)
(-0.145893 0.141822 8.30279e-20)
(-0.150981 0.187955 -9.20104e-20)
(-0.247778 0.216496 7.96723e-20)
(0.53588 0.0839541 -1.92488e-19)
(1.0884 0.249222 -9.44396e-20)
(0.920582 -0.0304785 5.94159e-22)
(1.27042 -0.457636 2.23879e-20)
(1.22734 -0.534168 5.4131e-20)
(0.979717 0.275908 9.07528e-20)
(0.96331 0.31487 7.65734e-21)
(0.936216 0.196116 5.30634e-20)
(0.953722 0.202198 -3.83297e-20)
(1.00501 0.275548 0)
(1.11867 0.00658188 9.62886e-22)
(1.12101 0.00215168 1.34771e-21)
(1.15869 -0.0841831 -2.52743e-21)
(1.16903 -0.0864206 3.84664e-21)
(1.10217 0.157006 6.41873e-21)
(1.11575 0.163985 -1.76665e-20)
(1.10351 0.168829 0)
(1.09024 0.15948 4.30875e-21)
(1.10225 0.181071 0)
(1.11074 0.238121 -1.57973e-20)
(1.10474 0.253826 -9.38012e-21)
(1.08288 0.281905 -1.81383e-20)
(1.09535 0.268871 0)
(1.11825 0.288368 5.33869e-20)
(1.10154 0.304446 2.9016e-21)
(1.06697 0.300631 -1.12261e-20)
(1.016 0.361105 -4.9447e-20)
(1.01244 0.302491 -8.91466e-21)
(0.142218 0.0710962 6.44142e-20)
(0.377595 0.0396647 -2.55418e-20)
(-0.108074 0.209425 -1.22229e-19)
(0.906714 0.0241806 4.00861e-21)
(0.991708 0.022509 0)
(-0.0751504 0.0557254 8.98781e-20)
(-0.068007 0.0499677 4.74542e-20)
(0.960724 0.0275048 -1.53929e-22)
(0.999228 0.0253823 -8.58169e-23)
(1.0002 0.0253451 0)
(0.95274 0.028803 -2.74543e-22)
(1.02233 0.00578682 -3.67342e-21)
(1.02198 0.0045477 1.75693e-20)
(1.02303 0.00500533 8.31719e-21)
(-0.0959738 -0.126473 6.28912e-20)
(-0.0383814 -0.0419481 -8.1415e-20)
(-0.0474408 -0.0518846 7.78755e-20)
(-0.0579672 -0.0373751 0)
(-0.0263232 -0.0153033 1.07928e-19)
(-0.0241943 -0.0156454 -9.40976e-20)
(-0.0673376 -0.0157218 -9.66806e-20)
(-0.097549 -0.0405331 -9.81533e-20)
(-0.0576906 -0.0268151 0)
(0.0579968 0.249291 0)
(0.026639 0.148694 0)
(0.00990964 0.0849018 0)
(1.35364 -0.0325816 -8.95256e-21)
(1.3318 -0.0380239 0)
(1.35047 -0.0422224 9.68772e-21)
(0.924224 -0.0860817 1.99207e-19)
(0.937714 -0.0931642 -7.23558e-20)
(0.934468 -0.0746591 0)
(1.03646 0.000289497 -1.76606e-22)
(1.03678 0.000277283 3.53435e-22)
(1.03612 0.000320716 -1.20718e-22)
(1.03709 0.000260169 0)
(1.03737 0.000252869 -2.22277e-22)
(1.03764 0.000249901 0)
(1.03764 -4.46315e-05 0)
(1.03789 0.000226244 8.12241e-22)
(1.03788 -5.84632e-05 0)
(1.03738 -5.47298e-05 -2.2359e-22)
(1.0371 -5.00858e-05 0)
(1.0368 -5.29087e-05 1.1828e-22)
(1.03647 -5.9379e-05 -1.76899e-22)
(1.03613 -6.56797e-05 1.20553e-22)
(1.03812 0.000201816 -7.77143e-22)
(1.03811 -7.05635e-05 -2.70638e-23)
(1.03576 0.000334601 5.76868e-27)
(1.03577 -6.02396e-05 -1.86033e-22)
(1.03536 0.000351879 9.97821e-22)
(1.03834 0.000194989 7.2077e-25)
(1.03834 -6.74143e-05 -2.67687e-23)
(1.03537 -7.07875e-05 3.68816e-22)
(1.03854 0.000188443 7.1999e-22)
(1.03874 0.000181555 -7.19396e-22)
(1.03855 -6.24079e-05 5.42186e-23)
(1.03874 -5.70007e-05 1.05997e-22)
(1.03495 0.000396673 -9.70936e-22)
(1.03496 -9.82092e-05 -2.43278e-22)
(1.03892 0.00017592 0)
(1.03892 -4.9614e-05 -1.04547e-22)
(1.03451 0.000393599 1.21302e-25)
(1.03452 -0.000118118 -1.2161e-25)
(1.0391 0.000174891 0)
(1.03909 -3.84895e-05 0)
(1.03405 0.000404338 0)
(1.03405 -0.000150335 0)
(1.03926 0.000179573 0)
(1.03925 -2.26974e-05 4.94466e-23)
(1.03356 0.000403277 -5.18663e-22)
(1.03355 -0.00018336 -1.26079e-25)
(1.03941 0.000189001 2.58584e-24)
(1.0394 -2.36856e-06 -5.28011e-23)
(1.03303 0.000406018 5.21137e-22)
(1.03301 -0.000220673 0)
(1.03955 0.000200388 0)
(1.03955 2.00716e-05 0)
(1.03246 0.000408138 -3.33804e-23)
(1.03245 -0.000261768 5.75026e-22)
(1.03969 0.000207671 3.15917e-22)
(1.03968 4.13463e-05 0)
(1.03186 0.000404482 -5.33659e-24)
(1.03187 -0.000313652 -5.44397e-22)
(1.03982 0.000207123 -4.71785e-22)
(1.03981 5.85338e-05 -1.36528e-22)
(1.03122 0.000373926 5.60127e-22)
(1.03124 -0.000360879 0)
(1.03994 0.000190131 1.54915e-22)
(1.03993 6.2619e-05 9.09929e-23)
(1.03054 0.000376577 -2.87158e-22)
(1.03057 -0.00041937 5.82116e-22)
(1.04005 0.000164931 -6.14393e-22)
(1.04005 6.49451e-05 6.92229e-22)
(1.02981 0.000324652 2.99039e-22)
(1.02986 -0.000458914 9.50741e-24)
(1.04015 0.000118137 0)
(1.04015 5.60565e-05 3.2829e-22)
(1.02903 0.000334064 -6.07505e-22)
(1.02909 -0.000516517 1.21492e-21)
(1.04024 7.40436e-05 0)
(1.04024 2.47374e-05 0)
(1.02983 0.0011119 -2.95905e-22)
(1.02905 0.00117029 -1.21253e-21)
(1.0282 0.000307787 0)
(1.02827 -0.000583684 -6.24977e-22)
(1.03125 0.00103163 -1.82725e-22)
(1.03056 0.00109269 3.60014e-23)
(1.0325 0.000965256 0)
(1.03189 0.001007 -5.84059e-22)
(1.03359 0.000903859 -1.09977e-24)
(1.03307 0.000933968 0)
(1.03455 0.000833322 0)
(1.03408 0.000874511 0)
(1.0354 0.000733017 0)
(1.03499 0.000799749 0)
(1.03613 0.000664365 2.37756e-22)
(1.03577 0.000705303 6.04982e-23)
(1.03679 0.000597277 -2.27782e-22)
(1.03648 0.000627288 -2.38157e-22)
(1.03737 0.000523819 3.98011e-22)
(1.03709 0.000552138 5.12302e-22)
(1.0379 0.00046693 0)
(1.03765 0.000498428 0)
(1.03835 0.000406024 -1.71031e-24)
(1.03813 0.000436177 0)
(1.03876 0.000355551 0)
(1.03856 0.000379092 0)
(1.03912 0.000323114 0)
(1.03894 0.000336391 0)
(1.03944 0.00031643 0)
(1.03928 0.000316931 0)
(1.03972 0.000317414 0)
(1.03958 0.000318703 0)
(1.03997 0.000283999 0)
(1.03985 0.000308489 0)
(1.04018 0.000192822 -2.49622e-22)
(1.04008 0.000249398 0)
(1.04026 0.000131884 -8.02009e-23)
(1.04032 3.0758e-05 7.80294e-23)
(1.04032 -9.7612e-06 -7.73783e-23)
(1.04005 -3.79091e-05 0)
(1.04025 -4.29335e-05 -3.18189e-22)
(1.04015 -3.34866e-05 -1.6508e-22)
(1.03981 -7.24188e-05 4.58118e-23)
(1.03994 -4.83642e-05 -1.78434e-22)
(1.03955 -0.000121669 1.49828e-24)
(1.03969 -9.59438e-05 0)
(1.03926 -0.000175246 0)
(1.03941 -0.000149048 0)
(1.03893 -0.000219881 0)
(1.0391 -0.000198927 0)
(1.03856 -0.000257294 0)
(1.03875 -0.00023918 2.0234e-28)
(1.03813 -0.000296172 1.73597e-24)
(1.03836 -0.000275751 0)
(1.03765 -0.000339167 0)
(1.0379 -0.000321975 0)
(1.03712 -0.00036489 0)
(1.03739 -0.000356932 0)
(1.0365 -0.000408228 0)
(1.03682 -0.000380877 -1.19162e-22)
(1.03579 -0.000455186 3.22958e-23)
(1.03615 -0.000445346 -1.55685e-22)
(1.03499 -0.00055837 0)
(1.03541 -0.000503034 -1.27927e-22)
(1.03408 -0.000665826 0)
(1.03455 -0.000605511 0)
(1.03306 -0.000809358 0)
(1.03359 -0.000732384 0)
(1.03192 -0.000983552 0)
(1.03251 -0.00089478 0)
(1.03065 -0.00116817 -1.49706e-22)
(1.03131 -0.00106921 0)
(1.02921 -0.00135456 -6.21377e-22)
(1.02995 -0.00125087 -1.51891e-22)
(1.0284 -0.00147198 6.38931e-22)
(1.02821 0.00121237 1.20802e-21)
(1.04033 7.05676e-05 1.56186e-22)
(1.04033 -6.22628e-05 -3.03377e-22)
(1.02739 -0.000653229 0)
(1.02754 -0.00159531 0)
(1.02731 0.00126036 0)
(1.02731 0.000287102 0)
(1.02993 0.00186268 0)
(1.02832 0.00207193 2.99833e-22)
(1.02915 0.00195991 3.00202e-22)
(1.03135 0.00168551 3.75152e-22)
(1.03067 0.00177066 -7.52394e-23)
(1.03258 0.00153156 1.13882e-24)
(1.03199 0.00159889 0)
(1.03366 0.00141333 0)
(1.03314 0.00147275 0)
(1.03461 0.00128651 0)
(1.03415 0.00135234 0)
(1.03544 0.00115729 0)
(1.03504 0.00122151 0)
(1.03618 0.00101446 0)
(1.03582 0.00109121 0)
(1.03683 0.000897892 -9.52062e-25)
(1.03651 0.000956875 2.47086e-22)
(1.03741 0.000786487 -9.02825e-25)
(1.03713 0.00083122 -4.76497e-22)
(1.03793 0.000700135 0)
(1.03768 0.000742134 0)
(1.03838 0.000620794 8.54317e-25)
(1.03816 0.000659974 0)
(1.03879 0.000549994 0)
(1.03859 0.000583681 0)
(1.03915 0.000497964 0)
(1.03898 0.000520727 0)
(1.03948 0.000473168 0)
(1.03932 0.000482334 0)
(1.03976 0.000456633 0)
(1.03962 0.000466345 0)
(1.04 0.000403556 0)
(1.03989 0.000436953 0)
(1.04021 0.00028243 1.70683e-22)
(1.04011 0.000350744 0)
(1.04037 -1.40551e-05 0)
(1.04039 2.54942e-05 1.51263e-22)
(1.04036 0.000122388 0)
(1.04029 0.000202781 1.6555e-22)
(1.04027 -0.00013065 3.30051e-22)
(1.04036 -0.000132792 8.04801e-23)
(1.0404 -7.95396e-05 6.26699e-22)
(1.04038 -4.03609e-05 0)
(1.04007 -0.000157182 0)
(1.04017 -0.000139992 -4.98424e-22)
(1.03983 -0.000201059 1.44104e-24)
(1.03996 -0.000174085 1.7954e-22)
(1.03956 -0.000259883 -1.49827e-24)
(1.0397 -0.000226968 0)
(1.03927 -0.000327222 0)
(1.03942 -0.00029317 0)
(1.03895 -0.000391413 0)
(1.03911 -0.000359956 0)
(1.03858 -0.000451655 0)
(1.03877 -0.000421606 -2.02339e-28)
(1.03816 -0.000514082 -3.46918e-24)
(1.03838 -0.000481938 0)
(1.03768 -0.000590805 0)
(1.03793 -0.000550044 0)
(1.03714 -0.000666634 5.99166e-23)
(1.03742 -0.0006281 0)
(1.03654 -0.000748744 0)
(1.03685 -0.00070309 -5.96608e-23)
(1.03584 -0.00084987 1.27743e-22)
(1.0362 -0.000799224 1.26063e-22)
(1.03505 -0.000978378 0)
(1.03545 -0.000916405 0)
(1.03415 -0.00113866 0)
(1.03461 -0.00105526 0)
(1.03314 -0.0013346 0)
(1.03366 -0.00123198 0)
(1.03202 -0.00156243 0)
(1.0326 -0.00144578 0)
(1.03078 -0.00181347 2.40225e-24)
(1.03142 -0.00168525 0)
(1.02937 -0.00210065 -2.48294e-24)
(1.0301 -0.0019517 0)
(1.02775 -0.00243749 -6.59977e-22)
(1.02859 -0.00226254 6.59579e-22)
(1.02742 0.00219182 6.22664e-22)
(1.02662 -0.00174467 0)
(1.02685 -0.0026509 -1.37186e-21)
(1.02645 -0.000724166 0)
(1.04042 5.97697e-05 0)
(1.04044 -0.000137492 -7.7726e-23)
(1.02635 0.0012988 1.60495e-21)
(1.02646 0.00231968 6.45282e-22)
(1.02564 -0.00189212 3.49881e-22)
(1.02589 -0.00286055 1.73551e-21)
(1.02635 0.000282803 0)
(1.0404 0.000202239 6.44959e-22)
(1.04046 0.000119509 -3.17903e-22)
(1.04046 -9.62427e-05 -1.5324e-22)
(1.04051 -0.00014025 7.60415e-22)
(1.02676 0.00332726 2.23388e-21)
(1.02546 0.00247472 -1.26467e-21)
(1.0248 0.00380314 -5.76469e-21)
(1.02576 0.00355961 -1.28112e-21)
(1.02857 0.00293191 6.06544e-22)
(1.0277 0.00312222 -1.88843e-21)
(1.03014 0.00259687 -6.14677e-22)
(1.02938 0.00275866 -4.71644e-22)
(1.03153 0.00233057 -1.49867e-22)
(1.03086 0.00245731 -1.51216e-22)
(1.03273 0.00210824 -1.13882e-24)
(1.03215 0.00221184 0)
(1.03378 0.00191867 0)
(1.03327 0.00201265 0)
(1.0347 0.00173105 0)
(1.03426 0.00182521 0)
(1.03552 0.00154628 0)
(1.03513 0.00163817 0)
(1.03624 0.00136566 0)
(1.03589 0.0014534 0)
(1.03689 0.00119919 0)
(1.03658 0.00127892 0)
(1.03746 0.00105717 7.18434e-28)
(1.03719 0.00112789 0)
(1.03798 0.000939393 0)
(1.03773 0.000994032 0)
(1.03844 0.000837524 8.53471e-25)
(1.03822 0.000887783 0)
(1.03884 0.00074425 0)
(1.03864 0.000789242 0)
(1.03921 0.000671035 0)
(1.03903 0.00070428 0)
(1.03953 0.000625936 0)
(1.03937 0.00064532 0)
(1.03981 0.00058878 0)
(1.03967 0.00060892 0)
(1.04004 0.000514222 0)
(1.03993 0.000558509 0)
(1.04024 0.000374771 8.70702e-23)
(1.04015 0.000451161 -4.38748e-23)
(1.04032 0.000286915 -3.29662e-22)
(1.04042 -4.64782e-05 -7.26598e-23)
(1.04047 1.49707e-05 3.03131e-22)
(1.04043 -1.71205e-05 -2.32967e-22)
(1.04043 -5.77822e-05 0)
(1.04031 -0.00023823 -2.44295e-22)
(1.04049 -0.000208805 -7.00053e-22)
(1.0404 -0.000220423 5.66772e-22)
(1.04011 -0.000278895 0)
(1.04021 -0.000258419 0)
(1.03986 -0.000329491 -1.64631e-27)
(1.03999 -0.00029978 0)
(1.03959 -0.000398902 0)
(1.03973 -0.000361381 0)
(1.0393 -0.000479575 -1.55185e-24)
(1.03945 -0.000438364 0)
(1.03897 -0.000562694 0)
(1.03914 -0.000521092 0)
(1.03861 -0.000646864 0)
(1.0388 -0.000604447 0)
(1.0382 -0.000736082 1.73361e-24)
(1.03841 -0.00069049 0)
(1.03773 -0.000836786 1.79462e-24)
(1.03797 -0.000784701 0)
(1.03719 -0.000948353 0)
(1.03747 -0.000890704 0)
(1.03659 -0.0010742 0)
(1.0369 -0.00101035 0)
(1.0359 -0.00122302 0)
(1.03626 -0.00114315 0)
(1.03512 -0.00139817 0)
(1.03553 -0.00130722 0)
(1.03424 -0.00160911 -2.14651e-24)
(1.0347 -0.00149926 0)
(1.03325 -0.00185855 0)
(1.03376 -0.0017291 0)
(1.03216 -0.00214398 0)
(1.03272 -0.00199731 0)
(1.03094 -0.00246153 -5.94432e-27)
(1.03156 -0.00229881 0)
(1.02957 -0.00282002 6.9971e-27)
(1.03027 -0.00263497 0)
(1.02801 -0.00324918 2.61511e-24)
(1.02881 -0.003022 0)
(1.0262 -0.00377689 -1.41575e-21)
(1.02714 -0.00349743 3.41905e-22)
(1.02485 -0.00307799 3.58714e-22)
(1.0252 -0.00406876 7.03331e-22)
(1.02534 0.00136641 -6.21492e-22)
(1.02545 -0.000839096 -6.76948e-22)
(1.04052 5.99753e-05 7.73377e-23)
(1.04057 -0.000200717 5.49709e-22)
(1.02439 0.00262195 7.67665e-23)
(1.02458 -0.00203851 0)
(1.0234 0.00410493 9.068e-21)
(1.02412 -0.00438119 1.11895e-21)
(1.02375 -0.00331956 1.49292e-21)
(1.02372 0.0051239 -1.51311e-20)
(1.02265 0.00603359 2.72878e-21)
(1.02535 0.000252047 0)
(1.02544 0.00465408 1.45234e-21)
(1.02465 0.00495082 7.65818e-22)
(1.02723 0.00416257 1.29597e-21)
(1.02631 0.0043994 -1.99199e-21)
(1.02895 0.00369707 -6.29708e-22)
(1.02812 0.003932 -3.1789e-22)
(1.03045 0.00327174 3.10409e-22)
(1.02973 0.0034738 3.19664e-22)
(1.03177 0.00293605 0)
(1.03113 0.00309721 -1.29705e-24)
(1.03292 0.00265673 0)
(1.03237 0.00279172 0)
(1.03394 0.00240257 1.09518e-24)
(1.03345 0.002528 0)
(1.03484 0.0021584 0)
(1.0344 0.00227967 0)
(1.03563 0.00192289 0)
(1.03525 0.00203944 0)
(1.03634 0.00170184 0)
(1.03599 0.00180975 0)
(1.03697 0.00150201 9.49353e-25)
(1.03666 0.00159843 0)
(1.03754 0.0013286 9.36743e-28)
(1.03726 0.00141307 0)
(1.03805 0.0011813 0)
(1.0378 0.0012513 0)
(1.03851 0.00105278 -1.7062e-24)
(1.03829 0.00111575 0)
(1.03891 0.000936281 0)
(1.03871 0.000992622 0)
(1.03927 0.000841423 0)
(1.0391 0.000885441 0)
(1.03959 0.000773938 0)
(1.03944 0.000804736 0)
(1.03986 0.000713634 0)
(1.03973 0.000745255 0)
(1.04008 0.000619451 0)
(1.03997 0.000672664 0)
(1.04027 0.000467356 -4.34417e-23)
(1.04018 0.000549175 0)
(1.04044 0.000288617 0)
(1.04036 0.000377633 -8.38814e-23)
(1.04059 0.000130296 5.16926e-27)
(1.04052 0.000201935 0)
(1.04051 -1.25905e-05 -3.07416e-22)
(1.04066 7.98954e-05 1.85185e-23)
(1.04058 2.49157e-05 1.49898e-22)
(1.04046 -6.00186e-05 1.10248e-22)
(1.04047 -4.10003e-05 -7.61183e-23)
(1.04052 -0.000113208 -3.82983e-23)
(1.04048 -7.29756e-05 3.8215e-23)
(1.04063 -0.00020458 0)
(1.04057 -0.000146532 -3.49623e-22)
(1.04055 -0.000296411 -1.5751e-22)
(1.04068 -0.000270269 -2.99999e-22)
(1.04062 -0.00028176 6.88176e-22)
(1.04037 -0.000342499 -8.33714e-23)
(1.04046 -0.000317474 0)
(1.04015 -0.000398895 0)
(1.04027 -0.000371941 0)
(1.0399 -0.00045951 -1.90529e-27)
(1.04003 -0.000427503 0)
(1.03963 -0.000539148 0)
(1.03977 -0.000497363 0)
(1.03934 -0.000632177 1.55185e-24)
(1.03949 -0.000584436 0)
(1.03901 -0.000732742 0)
(1.03918 -0.000681766 0)
(1.03865 -0.000839476 0)
(1.03884 -0.000785255 0)
(1.03824 -0.000955231 0)
(1.03845 -0.000896017 0)
(1.03778 -0.00108332 -3.0653e-27)
(1.03802 -0.00101767 0)
(1.03726 -0.00122731 0)
(1.03753 -0.00115289 0)
(1.03667 -0.00139198 0)
(1.03697 -0.00130723 0)
(1.03599 -0.00158404 0)
(1.03634 -0.0014836 0)
(1.03523 -0.00180869 0)
(1.03562 -0.00169208 0)
(1.03436 -0.0020706 2.14651e-24)
(1.03481 -0.00193487 0)
(1.0334 -0.00237289 0)
(1.03389 -0.00221676 0)
(1.03233 -0.00271563 0)
(1.03288 -0.00253936 0)
(1.03114 -0.00309963 -2.39608e-24)
(1.03175 -0.00290238 0)
(1.0298 -0.00353051 2.4879e-24)
(1.03049 -0.00330871 0)
(1.0283 -0.00402542 -2.58552e-24)
(1.02907 -0.00376825 0)
(1.02657 -0.00462942 3.45132e-22)
(1.02746 -0.0043082 -6.79252e-22)
(1.02456 -0.00537211 -3.53443e-22)
(1.0256 -0.00498039 7.24352e-22)
(1.02296 -0.0047174 3.17748e-23)
(1.02344 -0.0057841 7.49869e-22)
(1.02426 0.00143702 -6.57335e-22)
(1.0244 -0.000935138 0)
(1.02324 0.00293532 -6.42534e-21)
(1.02346 -0.00214739 0)
(1.04065 0.000225676 -7.69462e-23)
(1.04074 0.000181185 5.63638e-23)
(1.04069 -0.000201734 -2.91691e-22)
(1.04075 -0.000261583 -3.30484e-22)
(1.02187 0.00388752 -6.38238e-21)
(1.02257 -0.00357564 -1.50764e-21)
(1.02166 0.00612421 0)
(1.0241 0.00642707 -1.7786e-21)
(1.02173 -0.00508199 -7.37349e-22)
(1.02225 -0.00625354 1.15888e-21)
(1.023 0.00712369 3.53635e-21)
(1.02429 0.000233116 0)
(1.02591 0.00567718 0)
(1.02503 0.00604544 -1.54854e-21)
(1.02769 0.00502673 0)
(1.0268 0.00534017 0)
(1.02935 0.004439 0)
(1.02854 0.00472804 3.29337e-22)
(1.03077 0.00394293 0)
(1.03008 0.00417861 0)
(1.03203 0.00353514 0)
(1.03142 0.00372903 0)
(1.03314 0.00318675 0)
(1.03261 0.00335609 0)
(1.03412 0.00286942 -1.09518e-24)
(1.03365 0.00302517 0)
(1.03499 0.00257179 0)
(1.03457 0.00271863 0)
(1.03576 0.00229123 0)
(1.03538 0.00242922 0)
(1.03645 0.00203227 0)
(1.03611 0.00215877 0)
(1.03707 0.00179968 -1.32623e-27)
(1.03677 0.00191244 0)
(1.03764 0.00159615 1.18692e-27)
(1.03736 0.00169444 0)
(1.03814 0.00142038 0)
(1.0379 0.00150499 0)
(1.03859 0.00126554 9.66112e-28)
(1.03837 0.00134105 0)
(1.03899 0.0011263 0)
(1.0388 0.00119376 0)
(1.03935 0.00100917 0)
(1.03917 0.00106447 0)
(1.03965 0.000917144 0)
(1.03951 0.000960571 0)
(1.03991 0.000831769 0)
(1.03979 0.000875679 0)
(1.04012 0.000719263 0)
(1.04002 0.000780674 0)
(1.0403 0.000565459 0)
(1.04021 0.000646385 0)
(1.04048 0.000379017 8.28126e-23)
(1.04039 0.00047305 8.51592e-23)
(1.04057 0.000293978 -1.57944e-22)
(1.04055 -2.25956e-05 -1.4975e-22)
(1.04073 6.09921e-05 0)
(1.04063 1.88381e-05 -1.51661e-22)
(1.0405 -6.26743e-05 0)
(1.0405 -4.39436e-05 1.5285e-22)
(1.04057 -0.00012487 2.27892e-22)
(1.04052 -8.67479e-05 -7.70304e-23)
(1.04062 -0.000154115 -4.48536e-22)
(1.0406 -0.000387543 7.92582e-23)
(1.04074 -0.000333256 2.90981e-22)
(1.04068 -0.00036872 0)
(1.04043 -0.00045253 -1.65344e-22)
(1.04052 -0.000421211 1.65905e-22)
(1.04021 -0.000516456 0)
(1.04033 -0.000485623 0)
(1.03996 -0.000591064 -2.19749e-27)
(1.04009 -0.000552811 0)
(1.03969 -0.000681163 0)
(1.03983 -0.000634261 0)
(1.03939 -0.00078611 0)
(1.03954 -0.000732059 0)
(1.03906 -0.000902611 0)
(1.03923 -0.000843114 0)
(1.0387 -0.00102969 0)
(1.03889 -0.000964789 0)
(1.0383 -0.00116969 1.72522e-24)
(1.03851 -0.00109791 0)
(1.03785 -0.00132554 -1.79155e-24)
(1.03808 -0.00124553 0)
(1.03734 -0.00150149 0)
(1.0376 -0.00141064 0)
(1.03676 -0.00170352 0)
(1.03706 -0.00159898 0)
(1.0361 -0.00193799 0)
(1.03644 -0.00181639 0)
(1.03535 -0.00220934 0)
(1.03574 -0.0020689 0)
(1.03451 -0.00252054 0)
(1.03495 -0.00235993 0)
(1.03357 -0.00287382 0)
(1.03406 -0.0026919 0)
(1.03253 -0.00327195 -2.2953e-24)
(1.03307 -0.00306711 0)
(1.03137 -0.00372112 2.38085e-24)
(1.03197 -0.00348974 0)
(1.03008 -0.00423041 -2.47079e-24)
(1.03074 -0.00396777 0)
(1.02862 -0.00481179 0)
(1.02937 -0.00451119 0)
(1.02696 -0.0054878 0)
(1.02782 -0.00513541 0)
(1.02505 -0.00633833 2.80883e-24)
(1.02604 -0.00587961 3.53272e-22)
(1.02285 -0.00737941 -1.92098e-21)
(1.02398 -0.00683585 0)
(1.02098 -0.00678191 -1.14008e-21)
(1.02162 -0.00799191 -3.31804e-23)
(1.02313 0.00152787 2.07133e-21)
(1.02327 -0.00100343 0)
(1.04082 0.000143853 -2.90913e-22)
(1.0408 -0.000305392 -5.62538e-22)
(1.02188 0.00273922 -1.1205e-21)
(1.02107 0.00493662 3.12968e-23)
(1.02058 0.0041464 3.29935e-21)
(1.02227 -0.00232446 0)
(1.02131 -0.00381855 3.88556e-22)
(1.02177 0.00766171 -3.29987e-21)
(1.02048 0.00741605 2.93217e-21)
(1.02004 0.00579298 -2.84762e-21)
(1.02042 -0.00549713 -1.16569e-21)
(1.01962 -0.0073597 7.92682e-22)
(1.02032 -0.00868384 7.48581e-22)
(1.02316 0.000217584 0)
(1.02439 0.0078072 9.73224e-23)
(1.02209 0.00892506 -2.74249e-23)
(1.02328 0.00843734 7.61695e-22)
(1.0263 0.00673893 7.35362e-22)
(1.02538 0.00724242 -7.39562e-22)
(1.02806 0.00589549 1.31223e-24)
(1.02719 0.00630596 0)
(1.02967 0.00519083 0)
(1.02889 0.00552439 0)
(1.03105 0.00460978 0)
(1.03038 0.0048877 0)
(1.03228 0.00412021 0)
(1.03168 0.00435464 0)
(1.03335 0.00369861 1.13031e-24)
(1.03283 0.00390285 0)
(1.0343 0.00332071 0)
(1.03384 0.00350529 0)
(1.03514 0.0029732 0)
(1.03473 0.00314373 0)
(1.03589 0.00265157 0)
(1.03553 0.00280916 0)
(1.03657 0.00235737 0)
(1.03624 0.00250094 0)
(1.03719 0.00209306 -9.48026e-25)
(1.03689 0.00222142 0)
(1.03775 0.00186014 1.44747e-27)
(1.03748 0.00197275 0)
(1.03824 0.00165631 0)
(1.038 0.00175493 0)
(1.03869 0.0014754 1.70235e-24)
(1.03847 0.00156352 0)
(1.03908 0.00131277 0)
(1.03889 0.00139174 0)
(1.03942 0.00117196 0)
(1.03926 0.00123936 0)
(1.03971 0.00105351 0)
(1.03957 0.00111049 0)
(1.03995 0.000942197 0)
(1.03984 0.000998545 0)
(1.04015 0.000813216 0)
(1.04005 0.000881279 0)
(1.04033 0.000655174 1.36095e-24)
(1.04024 0.000737918 0)
(1.04051 0.000482982 -8.3172e-23)
(1.04042 0.000570404 0)
(1.04071 0.000322566 7.84826e-23)
(1.04061 0.000398996 0)
(1.0409 0.000220216 7.41516e-23)
(1.04081 0.000261234 -7.61933e-23)
(1.04079 6.28407e-05 1.46031e-22)
(1.04099 0.000190438 0)
(1.0409 0.0001313 2.1793e-22)
(1.04059 -8.13235e-06 0)
(1.04068 2.33958e-05 0)
(1.04053 -5.97979e-05 0)
(1.04054 -2.96565e-05 0)
(1.04061 -0.000135598 0)
(1.04056 -9.31376e-05 0)
(1.04074 -0.000200277 2.97306e-22)
(1.04067 -0.000161816 7.35666e-23)
(1.04084 -0.000283247 7.27783e-23)
(1.0408 -0.000246957 5.80882e-22)
(1.04079 -0.000391449 3.81763e-22)
(1.04087 -0.000323917 7.23096e-23)
(1.04083 -0.00035457 -1.47723e-22)
(1.04066 -0.000474587 7.86465e-23)
(1.04073 -0.000431412 -4.71408e-22)
(1.04049 -0.000556264 -2.13145e-27)
(1.04058 -0.000516814 0)
(1.04028 -0.000633815 0)
(1.04039 -0.000593288 0)
(1.04004 -0.000722269 -2.49624e-27)
(1.04016 -0.000676558 0)
(1.03976 -0.000824533 0)
(1.0399 -0.000771593 0)
(1.03946 -0.000941844 0)
(1.03961 -0.000881405 0)
(1.03913 -0.00107322 0)
(1.0393 -0.00100588 0)
(1.03877 -0.00121857 0)
(1.03896 -0.0011441 0)
(1.03837 -0.00138031 -3.44673e-24)
(1.03858 -0.00129722 0)
(1.03793 -0.00156205 0)
(1.03816 -0.00146848 0)
(1.03743 -0.0017688 0)
(1.03769 -0.00166197 0)
(1.03687 -0.00200701 0)
(1.03716 -0.00188361 0)
(1.03623 -0.00228286 0)
(1.03656 -0.00214006 0)
(1.0355 -0.00259946 -2.05482e-24)
(1.03588 -0.00243602 0)
(1.03469 -0.0029581 0)
(1.03511 -0.00277358 0)
(1.03378 -0.00336017 0)
(1.03424 -0.00315362 0)
(1.03277 -0.00381081 2.2953e-24)
(1.03328 -0.00357898 0)
(1.03165 -0.00432128 -9.37317e-27)
(1.03222 -0.00405779 0)
(1.0304 -0.00490625 4.93108e-24)
(1.03104 -0.00460368 0)
(1.02899 -0.00557934 0)
(1.02972 -0.00523118 0)
(1.02739 -0.00635503 0)
(1.02821 -0.00595298 0)
(1.02557 -0.00726444 -1.59973e-26)
(1.02651 -0.00679045 0)
(1.02349 -0.00837459 0)
(1.02456 -0.00778866 0)
(1.02111 -0.00981767 -1.16402e-21)
(1.02234 -0.00904704 0)
(1.01894 -0.00942483 -3.53945e-23)
(1.0198 -0.0106682 2.01443e-21)
(1.0219 0.00153704 0)
(1.02088 0.00929005 4.52176e-21)
(1.02051 0.00295061 7.71167e-22)
(1.04096 0.000306267 -7.40231e-23)
(1.04105 0.000269772 0)
(1.04088 -0.000262393 7.05525e-23)
(1.04091 -0.000292825 -1.39958e-22)
(1.02206 -0.00106621 0)
(1.02098 -0.00249524 0)
(1.0192 0.00473852 0)
(1.01995 -0.00413464 -3.82656e-22)
(1.019 -0.00596934 -7.84563e-22)
(1.01817 -0.00803551 0)
(1.01748 -0.0102624 2.05671e-21)
(1.01841 -0.0115895 -1.62814e-21)
(1.02194 0.000232937 0)
(1.02265 0.0101187 -3.67943e-25)
(1.01957 0.00985762 1.45135e-21)
(1.02022 0.0113537 -5.19517e-21)
(1.02146 0.0107134 1.4881e-21)
(1.02485 0.00886385 -4.67717e-22)
(1.02378 0.00949782 -7.55297e-22)
(1.02672 0.00768612 0)
(1.02582 0.00825125 0)
(1.02843 0.00672261 -1.31211e-24)
(1.02759 0.00718541 0)
(1.02997 0.00592354 0)
(1.02922 0.00630356 0)
(1.03132 0.00525443 0)
(1.03066 0.00557543 0)
(1.03251 0.00468526 0)
(1.03193 0.00495859 0)
(1.03356 0.00419453 -1.13031e-24)
(1.03305 0.00443175 0)
(1.03448 0.00375943 0)
(1.03403 0.00397122 0)
(1.0353 0.00336532 0)
(1.0349 0.0035579 0)
(1.03604 0.0030055 0)
(1.03568 0.00318136 0)
(1.03671 0.00267813 0)
(1.03638 0.00283785 0)
(1.03732 0.0023831 9.44511e-25)
(1.03702 0.0025266 0)
(1.03787 0.0021207 1.70472e-27)
(1.0376 0.00224792 0)
(1.03835 0.00188841 0)
(1.03812 0.00200114 0)
(1.03879 0.00168065 -1.39694e-27)
(1.03858 0.00178189 0)
(1.03916 0.00149325 0)
(1.03898 0.00158445 0)
(1.03949 0.00132734 0)
(1.03933 0.00140752 0)
(1.03977 0.00118173 0)
(1.03964 0.00125247 0)
(1.03999 0.00104533 0)
(1.03989 0.00111342 0)
(1.04018 0.000902484 0)
(1.04009 0.000975522 0)
(1.04036 0.000746362 -2.72018e-24)
(1.04027 0.000825865 0)
(1.04055 0.000586945 -1.3068e-24)
(1.04045 0.0006654 0)
(1.04076 0.000431192 1.59229e-22)
(1.04065 0.00050732 -1.61851e-22)
(1.04086 0.000361688 1.51651e-22)
(1.04084 8.07635e-05 3.61822e-23)
(1.04106 0.000176414 9.03055e-24)
(1.04096 0.000137123 -1.09658e-22)
(1.04063 1.79067e-05 0)
(1.04072 4.56332e-05 0)
(1.04056 -5.15351e-05 -1.12195e-27)
(1.04058 -1.37647e-05 0)
(1.04065 -0.000136875 0)
(1.0406 -9.08961e-05 0)
(1.04078 -0.000198304 1.44982e-22)
(1.04072 -0.000166383 -1.48275e-22)
(1.04084 -0.000232886 -6.2273e-24)
(1.04082 -0.000453838 -1.10232e-25)
(1.0409 -0.000363845 -1.44526e-22)
(1.04086 -0.000408661 1.91341e-25)
(1.04071 -0.000554405 -8.00193e-23)
(1.04077 -0.000502608 8.01557e-23)
(1.04055 -0.000648409 -1.32666e-24)
(1.04063 -0.00060203 0)
(1.04035 -0.000745648 -1.37671e-24)
(1.04046 -0.000696398 0)
(1.04012 -0.000850761 -2.78444e-27)
(1.04024 -0.000796983 0)
(1.03985 -0.000967683 0)
(1.03999 -0.000907601 0)
(1.03955 -0.00109874 0)
(1.0397 -0.00103142 0)
(1.03922 -0.00124468 0)
(1.03939 -0.00116986 0)
(1.03886 -0.00140672 0)