/*--------------------------------*- C++ -*----------------------------------*\
  =========                 |
  \\      /  F ield         | OpenFOAM: The Open Source CFD Toolbox
   \\    /   O peration     | Website:  https://openfoam.org
    \\  /    A nd           | Version:  10
     \\/     M anipulation  |
\*---------------------------------------------------------------------------*/
FoamFile
{
    format      ascii;
    class       volScalarField;
    location    "14";
    object      p;
}
// * * * * * * * * * * * * * * * * * * * * * * * * * * * * * * * * * * * * * //

dimensions      [0 2 -2 0 0 0 0];

internalField   nonuniform List<scalar> 
28942
(
-7.17195
-7.12012
0.0620306
1.53692
1.58237
-0.0876136
-0.0729983
-0.0860033
0.762196
0.784232
-2.37785
-2.11294
-2.32663
-2.48069
-0.00787281
-0.00343464
2.1414
2.32681
1.71957
2.3026
1.11252
1.14571
-1.87833
-1.82613
-1.905
-1.92744
4.6549
4.83132
0.991019
1.04148
-0.116753
-0.115595
0.0445076
-0.0149022
-1.37995
-1.00916
1.56862
2.34973
-0.102478
0.793715
0.957629
0.915615
0.186757
0.124698
0.27459
-0.0707495
-0.062831
-0.0584262
-0.0571521
-0.0499979
-0.0343079
0.690409
0.702495
0.815984
0.839747
-1.46609
-0.974426
-2.1735
-2.17167
-1.99596
-2.06737
-2.15838
-2.24358
0.135383
-0.281936
0.30949
0.585271
2.74161
2.62899
-7.24541
-7.2383
-7.20913
2.81563
2.68857
2.8777
-3.77522
-3.72156
-3.02646
0.121287
-0.181009
0.269903
-0.309892
-7.87485
-8.33238
-2.28424
-1.6353
-1.08115
-1.47429
-2.03856
-1.95968
-1.64989
-1.23273
-3.30173
-2.70304
-2.87826
-3.32325
-3.78819
-1.59094
-1.38209
-8.22539
1.62964
1.64313
1.69109
1.62541
-1.15562
-1.08429
-1.20204
0.11649
0.152186
0.191103
-2.29978
-2.40939
-7.11082
-6.93063
-7.03044
4.60793
4.19514
3.70532
4.1487
-1.85349
-0.699083
-1.08543
1.36684
1.24085
5.29752
5.52849
5.14364
1.34937
1.5708
-0.0622527
-0.057723
-0.0677902
3.26584
3.74647
0.635656
0.600146
0.802146
2.03594
2.71664
0.755771
-3.36972
-3.12075
1.61648
0.419073
0.361729
-0.664671
-0.752319
-0.626913
-2.97407
-0.65984
-0.737753
-2.3888
-0.0620736
-0.0783093
-0.0788671
-0.0694347
0.0181859
-1.34878
-6.86933
-7.16911
-7.07991
-7.79562
-6.61306
-0.041618
-1.53754
-1.27189
1.23578
1.26157
1.82367
1.66819
1.04453
-0.178171
-0.173696
0.860807
0.820346
-0.0117277
-0.10817
0.0144873
0.101011
0.0484946
0.00773649
0.0696533
0.271746
0.159994
-0.0276198
0.100953
0.393753
0.719014
0.923937
-6.83568
-6.10554
-7.15726
-0.0720423
-0.0556377
-7.76189
-7.60775
-0.0450699
-0.0382525
-0.0430749
-0.0522055
-2.46274
-2.54054
-2.64614
-2.52464
-2.50398
-2.69251
-1.93182
-1.90593
-1.98115
-1.85574
-2.00464
-1.85395
4.37355
3.99858
4.44683
-0.993136
-0.87964
-0.915267
2.73791
2.67232
2.68368
-1.44163
-1.47116
-1.43675
-1.526
-1.60793
-1.71786
-1.72574
-1.85579
-1.86437
-1.61393
-1.52648
-1.46492
-1.42886
-1.41748
-2.02062
-2.03501
-1.45709
-1.42964
-1.5041
-2.21526
-2.24359
-1.46687
-2.4426
-2.68934
-2.4794
-2.73149
-1.57504
-1.52883
-2.93919
-2.98599
-1.67727
-1.61864
-3.17631
-3.22931
-1.81186
-1.73845
-3.38777
-3.44748
-1.98061
-1.89036
-3.55809
-3.62322
-2.1821
-2.07292
-3.67413
-3.74207
-2.4111
-2.28211
-3.72589
-3.79461
-2.65649
-2.50763
-3.70984
-3.77582
-2.90729
-2.73841
-3.62527
-3.68537
-3.13858
-2.95119
-3.47799
-3.52763
-3.33449
-3.13042
-3.26986
-3.31666
-3.47181
-3.25579
-3.01491
-3.06497
-3.46114
-3.61185
-3.53609
-3.31147
-3.00927
-3.25374
-2.48813
-2.75056
-2.03104
-2.24569
-1.70351
-1.84979
-1.50979
-1.59101
-1.42984
-1.45742
-1.44924
-1.42744
-1.5681
-1.49543
-1.79652
-1.66845
-2.13299
-1.9503
-2.57718
-2.34494
-3.04341
-2.81533
-3.41026
-3.24642
-3.57035
-3.5216
-3.47316
-3.55417
-3.13971
-3.33243
-2.9082
-2.74769
-2.7893
-3.50816
-3.04975
-3.29917
-3.76099
-3.66615
-3.73446
-3.78415
-3.44134
-3.61704
-2.97508
-3.22142
-2.46557
-2.71866
-2.01572
-2.22774
-1.69451
-1.83703
-1.49357
-1.58104
-1.38884
-1.42917
-1.37531
-1.37122
-1.45593
-1.40305
-1.63834
-1.53362
-1.93205
-1.77159
-2.31633
-2.11626
-2.70962
-2.51912
-2.97659
-2.86705
-3.02823
-3.68882
-2.65836
-2.77599
-3.28694
-3.00822
-3.67282
-3.51214
-3.50518
-3.74846
-3.66313
-3.04383
-3.29292
-2.51269
-2.77839
-2.04027
-2.26291
-1.69761
-1.85125
-1.4905
-1.57836
-1.39774
-1.43138
-1.40292
-1.38831
-1.50456
-1.44179
-1.71278
-1.59539
-2.02587
-1.85606
-2.43522
-2.22106
-2.86979
-2.65642
-3.21449
-3.06027
-3.36716
-3.31999
-3.27889
-3.35307
-2.9721
-3.14914
-2.4821
-2.41398
-2.53654
-2.76228
-2.97091
-2.70631
-2.49902
-2.51186
-3.42361
-3.21662
-3.67609
-3.58019
-3.65517
-3.70298
-3.37035
-3.5412
-2.91391
-3.15583
-2.41221
-2.66146
-1.96599
-2.17728
-1.63833
-1.78528
-1.43257
-1.52235
-1.32395
-1.36728
-1.2986
-1.30117
-1.36082
-1.31837
-1.51505
-1.4259
-1.76601
-1.62891
-2.09318
-1.92319
-2.42772
-2.26558
-2.66271
-2.56435
-2.69757
-2.70682
-3.74111
-2.92938
-2.63568
-3.1936
-2.31356
-2.43524
-3.57067
-3.63749
-2.80323
-2.52832
-3.41038
-2.38277
-2.18378
-2.23817
-2.17742
-3.61318
-3.46039
-3.23097
-3.43619
-3.71551
-3.71434
-3.47005
-3.62683
-3.0152
-3.26124
-2.48429
-2.74954
-2.00931
-2.23375
-1.66086
-1.81771
-1.44623
-1.53796
-1.34413
-1.38268
-1.33721
-1.32919
-1.42164
-1.36785
-1.60511
-1.50081
-1.88884
-1.73452
-2.26071
-2.06616
-2.65755
-2.46226
-2.97413
-2.83246
-3.11627
-3.07147
-3.03912
-3.10495
-2.76567
-2.92288
-2.58009
-2.23675
-2.10319
-2.18547
-2.25568
-2.83834
-2.32598
-2.58419
-3.27638
-3.07518
-3.52616
-3.43023
-3.51102
-3.55675
-3.23849
-3.40185
-2.80133
-3.03325
-2.31908
-2.55865
-1.88817
-2.09299
-1.56324
-1.7107
-1.35354
-1.44525
-1.23933
-1.2858
-1.20394
-1.2122
-1.24643
-1.21537
-1.37046
-1.29783
-1.57777
-1.46419
-1.84952
-1.70824
-2.12854
-1.9932
-2.32715
-2.24355
-2.36719
-2.37031
-2.23317
-2.32011
-2.3878
-2.11704
-3.39849
-3.0478
-1.99369
-2.07904
-3.22963
-2.63479
-2.89721
-1.98469
-2.22884
-2.66435
-2.3846
-3.25192
-3.14238
-2.93186
-3.51764
-3.34331
-3.59899
-3.60856
-3.35654
-3.50679
-2.92373
-3.15964
-2.40806
-2.66712
-1.9415
-2.16242
-1.59557
-1.75187
-1.37873
-1.47208
-1.27056
-1.31254
-1.25299
-1.25107
-1.3211
-1.27626
-1.47858
-1.38831
-1.72924
-1.59251
-2.05895
-1.88639
-2.41305
-2.23837
-2.69852
-2.57045
-2.82909
-2.78687
-2.76469
-2.82124
-2.52693
-2.66397
-2.19605
-2.36768
-1.85581
-2.02153
-1.91564
-1.7027
-1.82075
-2.02069
-1.98223
-2.00403
-2.02853
-1.85443
-1.94504
-2.17832
-1.73523
-1.94797
-2.66016
-2.41984
-3.07751
-2.88506
-3.31752
-3.22434
-3.3081
-3.35249
-3.05376
-3.20624
-2.64327
-2.86136
-2.18776
-2.41409
-1.78128
-1.97463
-1.46915
-1.61216
-1.26031
-1.3524
-1.14152
-1.19092
-1.09671
-1.11042
-1.12079
-1.10028
-1.21556
-1.15911
-1.38114
-1.28992
-1.60089
-1.48644
-1.82777
-1.71758
-1.99066
-1.9218
-2.02899
-2.02702
-1.93116
-1.9972
-1.73353
-1.84009
-1.842
-1.61918
-3.17241
-2.86807
-2.96555
-2.44991
-1.69032
-1.56172
-1.65702
-1.54531
-2.62545
-2.05907
-2.3302
-2.45048
-1.70123
-1.50548
-2.24583
-3.05149
-2.91381
-2.6759
-3.3222
-3.14053
-3.39978
-3.41192
-3.17665
-3.31452
-2.77531
-2.99451
-2.2866
-2.53329
-1.83919
-2.05149
-1.50427
-1.65611
-1.29057
-1.38321
-1.17969
-1.22369
-1.15344
-1.15666
-1.20556
-1.16976
-1.33782
-1.26137
-1.55358
-1.43545
-1.84027
-1.69004
-2.14998
-1.99696
-2.40186
-2.28843
-2.51937
-2.48073
-2.46698
-2.51444
-2.26603
-2.38133
-1.98286
-2.13075
-1.8332
-1.75552
-1.57109
-1.67523
-1.83732
-1.81072
-1.80423
-1.8358
-1.74404
-2.00291
-1.5931
-1.7904
-2.44818
-2.22516
-2.83564
-2.65597
-3.0599
-2.97326
-3.05425
-3.09048
-2.82518
-2.96356
-2.44857
-2.64911
-2.0263
-2.23663
-1.64837
-1.82804
-1.35626
-1.4908
-1.155
-1.24471
-1.03461
-1.08569
-0.981894
-1.00041
-0.989767
-0.978488
-1.05796
-1.01631
-1.18528
-1.11463
-1.35734
-1.26746
-1.53654
-1.44931
-1.66663
-1.61137
-1.69983
-1.69676
-1.6273
-1.67588
-1.48322
-1.56168
-1.30377
-1.3948
-1.40033
-1.22234
-2.92115
-2.66033
-1.44744
-1.41501
-2.68667
-2.33147
-2.36157
-2.26202
-1.89495
-2.07588
-1.89349
-2.08898
-1.57755
-1.3196
-1.15675
-2.82488
-2.20465
-1.79933
-2.01794
-2.64652
-2.4095
-3.05835
-2.87986
-3.14412
-3.1468
-2.94628
-3.07098
-2.5783
-2.77928
-2.12758
-2.35584
-1.70893
-1.90828
-1.39168
-1.53602
-1.18583
-1.27563
-1.07501
-1.11985
-1.04193
-1.04947
-1.07949
-1.052
-1.18781
-1.12466
-1.36888
-1.26937
-1.61225
-1.48449
-1.87754
-1.7461
-2.09545
-1.99696
-2.19957
-2.1648
-2.15872
-2.19723
-1.99122
-2.08778
-1.7535
-1.87676
-1.5091
-1.6288
-1.30592
-1.40064
-1.46488
-1.22837
-1.35394
-1.62595
-1.55629
-1.68784
-1.67024
-1.63975
-1.67728
-1.49122
-1.5775
-1.26459
-1.38478
-1.43472
-1.13526
-1.27471
-1.80746
-1.61463
-2.21198
-2.01024
-2.56396
-2.4007
-2.76667
-2.6894
-2.76419
-2.78487
-2.56481
-2.68736
-2.22644
-2.40706
-1.84358
-2.03487
-1.49706
-1.6621
-1.22771
-1.35205
-1.03881
-1.12373
-0.920607
-0.971641
-0.862297
-0.884557
-0.856672
-0.853151
-0.90176
-0.87299
-0.995265
-0.942877
-1.1251
-1.057
-1.26222
-1.19523
-1.36343
-1.32011
-1.39207
-1.38802
-1.34065
-1.37534
-1.23462
-1.29304
-1.10208
-1.16832
-0.994286
-1.04233
-1.1111
-0.95944
-2.65779
-1.61965
-2.41253
-1.15077
-1.08825
-1.13813
-1.01776
-2.4424
-2.07568
-2.14007
-1.74894
-1.47629
-1.2598
-1.08508
-0.942485
-2.58097
-1.58787
-1.48475
-1.25223
-1.3991
-1.98926
-1.80286
-2.38659
-2.17746
-2.7533
-2.59301
-2.84567
-2.83843
-2.67428
-2.78557
-2.34433
-2.52393
-1.93986
-2.14556
-1.55686
-1.74009
-1.26248
-1.39686
-1.06844
-1.15362
-0.960376
-1.00482
-0.922423
-0.933341
-0.947063
-0.927116
-1.03314
-0.982356
-1.18153
-1.09968
-1.38354
-1.27725
-1.60583
-1.49536
-1.79045
-1.70675
-1.88119
-1.85023
-1.85045
-1.881
-1.71337
-1.79272
-1.51726
-1.61902
-1.31586
-1.41485
-1.22721
-1.38413
-1.16874
-1.286
-1.52319
-1.46402
-1.56805
-1.55841
-1.50828
-1.55076
-1.35682
-1.44335
-1.25302
-1.26989
-1.00034
-1.12614
-1.60116
-1.42907
-1.96169
-1.78183
-2.27592
-2.13017
-2.45783
-2.38812
-2.45915
-2.47765
-2.28578
-2.39288
-1.98711
-2.14686
-1.64693
-1.81721
-1.33508
-1.4842
-1.08941
-1.20313
-0.914631
-0.993665
-0.80141
-0.850997
-0.7401
-0.764801
-0.723964
-0.726659
-0.749826
-0.731817
-0.814642
-0.777761
-0.908658
-0.859035
-1.01011
-0.960295
-1.08696
-1.05368
-1.11173
-1.10682
-1.07817
-1.10153
-1.00069
-1.04395
-0.905244
-0.952414
-0.831109
-0.864492
-0.79961
-0.80883
-1.88487
-1.72633
-0.941321
-0.803952
-2.39592
-1.042
-0.892156
-1.13665
-2.22833
-1.35968
-2.17761
-1.90675
-1.95633
-1.62971
-1.40587
-1.22506
-1.07898
-0.956624
-0.819922
-2.34142
-1.08488
-1.05786
-0.891109
-0.969555
-1.40923
-1.23317
-1.77189
-1.59857
-2.11428
-1.94101
-2.42248
-2.28436
-2.51655
-2.5031
-2.37366
-2.46868
-2.08869
-2.24414
-1.73342
-1.91509
-1.38996
-1.55505
-1.12211
-1.24479
-0.942756
-1.02195
-0.839678
-0.882695
-0.798692
-0.812095
-0.812312
-0.79889
-0.878597
-0.838912
-0.997057
-0.931437
-1.16064
-1.07433
-1.34266
-1.25192
-1.49601
-1.4262
-1.5734
-1.54642
-1.5513
-1.57483
-1.44159
-1.50536
-1.28296
-1.36545
-1.12068
-1.19964
-0.988927
-1.04922
-0.909024
-0.94216
-1.13138
-0.890651
-1.01472
-1.32695
-1.23755
-1.44535
-1.39649
-1.47435
-1.4718
-1.40563
-1.45185
-1.2521
-1.33822
-1.03865
-1.15017
-0.802258
-0.92075
-0.862852
-0.684009
-0.766694
-1.10265
-0.975078
-1.39224
-1.24171
-1.70745
-1.55016
-1.98263
-1.85482
-2.14396
-2.08143
-2.14843
-2.16467
-1.99948
-2.09146
-1.74066
-1.87948
-1.44348
-1.59247
-1.1683
-1.30041
-0.94754
-1.05023
-0.787504
-0.860291
-0.680747
-0.72807
-0.618507
-0.64454
-0.59453
-0.602029
-0.604967
-0.59565
-0.646406
-0.622153
-0.711264
-0.676679
-0.783743
-0.747879
-0.840836
-0.815691
-0.862448
-0.856837
-0.842727
-0.857397
-0.789443
-0.819516
-0.722573
-0.755767
-0.672303
-0.693807
-0.65881
-0.660834
-0.685028
-0.667036
-1.72857
-1.59689
-0.851222
-0.715203
-2.17062
-2.03449
-0.828162
-0.999961
-1.26733
-1.98266
-1.7664
-0.770499
-0.758753
-0.730267
-0.617417
-1.78818
-1.53989
-1.35975
-1.21245
-1.09169
-0.988428
-0.783432
-0.633372
-0.599333
-0.900806
-0.759692
-0.758796
-2.12575
-0.748036
-0.679922
-0.930554
-0.829767
-1.20232
-1.05457
-1.521
-1.36291
-1.82518
-1.67438
-2.08564
-1.96836
-2.1744
-2.15747
-2.06374
-2.13978
-1.82358
-1.95588
-1.51643
-1.67411
-1.21465
-1.36034
-0.975601
-1.08553
-0.812882
-0.885144
-0.716478
-0.757253
-0.674138
-0.689156
-0.6788
-0.670835
-0.727804
-0.697854
-0.819831
-0.768588
-0.949037
-0.880657
-1.09456
-1.02178
-1.21907
-1.1621
-1.28358
-1.26065
-1.26852
-1.2861
-1.18275
-1.23284
-1.05737
-1.12264
-0.929324
-0.991559
-0.827429
-0.874062
-0.793222
-1.11474
-0.886276
-1.00612
-1.29089
-1.21068
-1.39087
-1.35125
-1.40449
-1.40885
-1.32808
-1.37719
-1.17271
-1.25908
-0.962065
-1.07198
-0.846635
-0.729295
-0.570209
-0.643668
-0.937416
-0.827859
-1.18772
-1.05795
-1.45813
-1.32317
-1.69473
-1.58476
-1.83519
-1.7802
-1.84186
-1.85517
-1.71591
-1.79373
-1.4958
-1.61412
-1.24041
-1.36879
-1.00156
-1.11661
-0.806692
-0.89785
-0.662158
-0.72834
-0.562824
-0.607351
-0.501174
-0.527711
-0.471488
-0.482626
-0.469825
-0.467364
-0.492819
-0.478516
-0.534748
-0.51197
-0.584515
-0.559585
-0.626056
-0.607348
-0.644901
-0.638915
-0.635194
-0.643569
-0.599967
-0.620196
-0.554448
-0.577034
-0.522836
-0.535416
-0.521809
-0.518326
-0.552778
-0.533101
-0.622595
-0.583105
-0.95823
-0.819471
-0.966875
-0.899505
-0.745512
-0.676034
-1.61242
-1.4781
-1.98037
-1.87148
-0.760916
-0.509228
-1.20069
-1.82507
-1.65742
-1.65923
-1.47902
-1.3377
-1.22138
-1.12431
-1.04088
-0.575001
-0.42222
-0.410169
-0.598648
-0.672832
-0.834549
-0.570982
-0.743184
-0.93733
-1.0578
-1.00068
-1.94722
-0.48776
-0.449109
-0.597789
-0.537279
-0.75234
-0.668824
-0.980014
-0.855288
-1.26334
-1.11989
-1.53788
-1.4034
-1.75665
-1.65974
-1.83704
-1.81772
-1.75578
-1.81464
-1.55779
-1.66782
-1.29829
-1.43217
-1.03796
-1.16432
-0.827909
-0.924911
-0.682584
-0.747467
-0.594078
-0.631958
-0.551855
-0.567725
-0.549398
-0.545892
-0.583859
-0.562147
-0.653237
-0.614353
-0.752573
-0.699816
-0.866011
-0.809092
-0.964567
-0.919235
-1.0171
-0.99809
-1.00736
-1.02013
-0.94181
-0.980285
-0.844983
-0.895407
-0.74653
-0.794256
-0.670159
-0.704424
-0.630268
-0.645087
-0.632733
-0.62517
-0.898382
-0.65327
-0.777057
-1.1161
-1.01285
-1.27572
-1.20445
-1.35905
-1.32776
-1.35751
-1.36895
-1.27226
-1.32483
-1.11445
-1.20139
-0.904612
-1.01427
-0.676505
-0.790533
-0.459381
-0.565745
-0.461514
-0.36157
-0.407391
-0.602485
-0.526704
-0.780098
-0.686571
-0.992544
-0.882602
-1.2207
-1.10686
-1.42066
-1.32759
-1.54058
-1.4933
-1.5485
-1.55875
-1.44397
-1.50889
-1.25973
-1.35885
-1.04387
-1.15275
-0.839392
-0.938232
-0.669985
-0.749631
-0.541448
-0.600721
-0.450338
-0.491613
-0.390592
-0.416911
-0.357109
-0.370835
-0.346247
-0.349042
-0.355075
-0.34841
-0.379471
-0.365704
-0.41194
-0.395333
-0.441537
-0.427813
-0.45786
-0.451838
-0.455033
-0.458982
-0.433173
-0.446096
-0.40341
-0.41811
-0.385795
-0.391885
-0.392924
-0.38615
-0.425922
-0.405982
-0.48981
-0.453783
-0.537707
-1.51574
-1.39768
-0.940569
-0.761706
-1.8305
-1.7454
-1.15267
-1.70302
-1.58041
-0.506075
-0.528499
-0.423352
-0.325494
-1.56693
-1.44607
-1.33951
-1.25197
-1.17953
-1.11615
-0.404883
-0.244668
-0.246167
-0.413029
-0.575295
-0.742116
-0.927846
-1.17605
-1.13135
-0.871008
-1.07371
-1.80614
-0.271327
-0.251712
-0.341128
-0.302741
-0.438775
-0.385819
-0.578359
-0.502064
-0.778103
-0.670363
-1.02327
-0.898039
-1.26276
-1.14696
-1.44253
-1.36332
-1.51638
-1.49522
-1.45997
-1.50363
-1.30232
-1.39105
-1.0864
-1.19872
-0.864436
-0.972645
-0.682725
-0.766945
-0.555071
-0.612359
-0.475202
-0.509775
-0.434243
-0.450325
-0.426477
-0.426435
-0.449002
-0.434109
-0.499474
-0.470922
-0.573639
-0.534088
-0.659669
-0.616344
-0.735579
-0.70049
-0.777141
-0.761864
-0.771101
-0.780191
-0.722019
-0.750966
-0.648875
-0.686965
-0.575092
-0.61073
-0.519724
-0.544308
-0.494369
-0.503259
-0.494825
-0.92682
-0.685857
-0.809546
-1.13447
-1.03622
-1.28095
-1.21654
-1.34946
-1.32574
-1.33289
-1.35168
-1.2366
-1.29392
-1.07438
-1.16268
-0.865702
-0.974412
-0.638434
-0.752015
-0.527979
-0.360447
-0.270927
-0.311638
-0.482708
-0.417794
-0.633352
-0.554318
-0.811029
-0.71932
-1.00048
-0.906027
-1.16664
-1.0892
-1.26731
-1.22737
-1.27529
-1.28324
-1.19033
-1.24334
-1.03828
-1.12023
-0.858513
-0.949449
-0.685706
-0.769599
-0.54007
-0.608878
-0.427146
-0.479569
-0.344641
-0.382387
-0.287849
-0.31334
-0.252351
-0.267676
-0.234919
-0.241537
-0.233236
-0.232254
-0.244607
-0.237527
-0.264252
-0.253812
-0.284866
-0.274937
-0.298855
-0.293081
-0.300277
-0.301397
-0.287477
-0.295399
-0.269264
-0.278029
-0.262102
-0.263445
-0.274494
-0.265796
-0.307619
-0.288287
-0.36566
-0.333078
-0.459022
-0.407287
-0.593414
-0.520873
-1.00347
-0.788451
-0.681733
-1.4464
-1.33684
-1.71693
-1.65538
-0.56187
-0.237016
-1.12496
-1.61577
-1.53507
-1.50688
-1.44004
-1.36572
-1.30674
-1.2592
-1.21629
-0.248711
-0.0859914
-0.0850178
-0.591186
-0.689555
-0.911545
-0.257764
-0.425528
-0.58739
-0.756157
-0.929584
-1.32572
-1.29044
-1.23616
-1.15654
-1.70193
-0.0974057
-0.0900222
-0.132207
-0.110188
-0.202774
-0.164592
-0.296704
-0.245949
-0.427011
-0.356735
-0.597423
-0.507356
-0.802476
-0.697016
-1.00241
-0.906585
-1.15381
-1.08587
-1.22188
-1.20086
-1.18497
-1.21575
-1.0627
-1.1329
-0.884965
-0.97818
-0.698404
-0.789663
-0.543642
-0.615648
-0.433123
-0.48299
-0.362095
-0.393171
-0.32324
-0.339041
-0.311632
-0.314227
-0.324642
-0.315216
-0.359779
-0.339626
-0.413327
-0.384626
-0.476572
-0.444591
-0.533298
-0.506959
-0.565051
-0.553238
-0.561325
-0.567742
-0.525202
-0.546587
-0.471133
-0.499269
-0.417429
-0.4432
-0.379347
-0.395791
-0.366594
-0.369292
-0.384801
-0.371886
-0.442662
-0.408117
-0.732877
-0.486077
-0.607457
-0.971485
-0.856014
-1.17054
-1.07771
-1.30628
-1.24749
-1.36161
-1.34475
-1.33035
-1.35656
-1.22094
-1.28435
-1.05109
-1.14232
-0.841843
-0.950138
-0.615173
-0.728976
-0.397283
-0.503033
-0.211646
-0.299963
-0.187358
-0.132413
-0.157101
-0.267293
-0.224111
-0.372246
-0.317102
-0.499055
-0.43284
-0.645895
-0.570423
-0.800836
-0.72369
-0.936712
-0.873326
-1.01981
-0.986655
-1.02727
-1.03346
-0.959164
-1.00174
-0.835493
-0.902386
-0.687537
-0.762572
-0.543219
-0.613602
-0.419198
-0.478125
-0.320832
-0.366799
-0.246812
-0.280992
-0.193576
-0.217848
-0.157447
-0.173578
-0.135665
-0.14489
-0.126548
-0.129609
-0.128604
-0.126309
-0.139052
-0.133041
-0.153003
-0.145962
-0.16483
-0.159451
-0.168499
-0.168042
-0.161583
-0.16613
-0.151826
-0.156207
-0.152113
-0.150129
-0.167681
-0.15801
-0.199061
-0.181221
-0.250545
-0.221876
-0.328533
-0.285903
-0.437067
-0.37861
-0.507644
-1.40153
-1.2963
-1.04817
-0.796882
-1.639
-1.59859
-1.11596
-1.56246
-1.51913
-0.327415
-0.367834
-0.194547
-0.115411
-1.47463
-1.46043
-1.41819
-1.38833
-1.36639
-1.34698
-0.0884021
0.0733306
0.0712377
-0.0952077
-0.269506
-0.441244
-0.610109
-0.780277
-0.953026
-1.51069
-1.48331
-1.42524
-1.33042
-0.906281
-1.19275
-1.63386
0.0579133
0.0680599
0.0285311
0.0441738
-0.0140697
0.0109025
-0.0852077
-0.0469282
-0.175897
-0.127971
-0.289788
-0.229666
-0.431441
-0.356744
-0.601087
-0.514073
-0.766732
-0.686756
-0.896027
-0.83786
-0.956247
-0.936301
-0.936624
-0.956062
-0.843685
-0.898616
-0.698358
-0.77518
-0.542978
-0.619177
-0.41279
-0.473548
-0.318443
-0.361236
-0.256199
-0.283711
-0.22011
-0.235212
-0.20603
-0.210489
-0.211683
-0.206528
-0.234678
-0.221191
-0.271758
-0.251741
-0.316552
-0.293798
-0.357409
-0.338358
-0.380647
-0.371946
-0.37817
-0.382745
-0.351942
-0.367495
-0.312839
-0.333134
-0.275041
-0.292956
-0.250737
-0.260613
-0.248251
-0.246327
-0.271178
-0.256789
-0.295094
-0.793855
-0.538828
-0.666783
-1.03229
-0.916963
-1.22494
-1.13546
-1.35178
-1.29792
-1.39498
-1.38452
-1.34945
-1.383
-1.22539
-1.29597
-1.04412
-1.14041
-0.829797
-0.939741
-0.602297
-0.716507
-0.382405
-0.489529
-0.283801
-0.112339
-0.0628925
-0.0848724
-0.182676
-0.144759
-0.271887
-0.224981
-0.378317
-0.323097
-0.498548
-0.437079
-0.623512
-0.561419
-0.732866
-0.681811
-0.800226
-0.773237
-0.807011
-0.811644
-0.752853
-0.78679
-0.653483
-0.707398
-0.532899
-0.594259
-0.413486
-0.471987
-0.308769
-0.358822
-0.223689
-0.263723
-0.15775
-0.188476
-0.108319
-0.13117
-0.0724736
-0.0888642
-0.0480226
-0.0589142
-0.033919
-0.0397128
-0.0296258
-0.0305995
-0.0337414
-0.0307923
-0.0428355
-0.0379838
-0.0524613
-0.0475173
-0.057019
-0.0557905
-0.0538733
-0.0561585
-0.0501568
-0.0513837
-0.0555177
-0.051372
-0.0724238
-0.0625633
-0.101516
-0.0852892
-0.14608
-0.121592
-0.210097
-0.17548
-0.296768
-0.25026
-0.41418
-0.351241
-0.567101
-0.487878
-1.01611
-0.734295
-0.651015
-1.38045
-1.27696
-1.59367
-1.57306
-0.416664
-0.044796
-1.12154
-1.53871
-1.53224
-1.46883
-1.50873
-1.49992
-1.50073
-1.50754
-1.51353
0.0693238
0.214458
0.21541
-0.490289
-0.546406
-0.808055
0.0639411
-0.104553
-0.283464
-0.462551
-0.638664
-0.816293
-0.990736
-1.73457
-1.71088
-1.64002
-1.51479
-1.33507
-1.1074
-1.59822
0.203374
0.211754
0.175397
0.192026
0.133912
0.15509
0.0839799
0.111271
0.0155696
0.0516702
-0.0658698
-0.0236151
-0.162826
-0.111879
-0.283214
-0.219825
-0.423118
-0.351901
-0.560425
-0.493687
-0.668448
-0.619778
-0.72455
-0.703883
-0.717711
-0.72936
-0.646322
-0.689588
-0.527982
-0.590882
-0.400077
-0.462869
-0.292166
-0.342681
-0.212674
-0.248942
-0.158765
-0.182833
-0.125783
-0.139924
-0.110282
-0.115994
-0.110369
-0.108482
-0.124007
-0.115665
-0.148258
-0.135028
-0.178515
-0.163059
-0.206574
-0.193453
-0.222619
-0.216608
-0.220651
-0.22402
-0.201757
-0.21293
-0.17407
-0.188353
-0.148494
-0.16036
-0.134721
-0.13963
-0.139504
-0.134507
-0.166363
-0.150141
-0.21933
-0.189081
-0.302998
-0.256981
-0.604153
-0.357532
-0.47744
-0.866345
-0.735347
-1.10666
-0.991834
-1.29742
-1.20923
-1.41732
-1.36763
-1.44895
-1.44473
-1.38916
-1.43008
-1.24944
-1.32794
-1.05342
-1.15674
-0.828956
-0.943141
-0.597936
-0.713199
-0.377143
-0.485146
-0.184643
-0.275938
-0.0326363
-0.103727
-0.000177258
0.0288534
0.0163202
-0.0452595
-0.020723
-0.106189
-0.0737576
-0.182304
-0.142481
-0.271347
-0.22547
-0.369186
-0.319508
-0.468794
-0.419473
-0.555437
-0.514982
-0.609016
-0.587495
-0.614867
-0.618233
-0.57218
-0.599037
-0.492915
-0.53601
-0.395447
-0.445252
-0.297252
-0.345583
-0.209379
-0.251624
-0.136204
-0.170884
-0.0777772
-0.105248
-0.0322071
-0.0535376
0.00272613
-0.0135362
0.0285846
0.0167367
0.0458016
0.0382802
0.0541865
0.0510972
0.0542264
0.0551531
0.0486208
0.0517885
0.0411302
0.0465178
0.0366048
0.0379904
0.0375225
0.0367142
0.0369006
0.0379472
0.0283307
0.0337233
0.0113741
0.0208724
-0.0147421
-0.000391274
-0.0524403
-0.0320051
-0.103919
-0.0763137
-0.172093
-0.135682
-0.260013
-0.213499
-0.367668
-0.311788
-0.428994
-1.38525
-1.27859
-0.856465
-0.585431
-1.57954
-1.57715
-1.1483
-1.54478
-1.57472
-0.197335
-0.244214
-0.0249514
0.037432
-1.48937
-1.58784
-1.61512
-1.6501
-1.68892
-1.72152
0.215634
0.339267
0.3405
0.213291
0.0591179
-0.11418
-0.300496
-0.489919
-0.675212
-0.863867
-1.04459
-1.99974
-1.96919
-1.86787
-1.69327
-1.45123
-1.16422
-0.597343
-0.863853
-1.59353
0.329912
0.336937
0.30414
0.318193
0.26984
0.289036
0.222941
0.246861
0.170344
0.197834
0.107384
0.140072
0.0348243
0.0724043
-0.0510861
-0.0060587
-0.154282
-0.100668
-0.268952
-0.210821
-0.381953
-0.326842
-0.473474
-0.431603
-0.525483
-0.505409
-0.525839
-0.532464
-0.471299
-0.505239
-0.375261
-0.426533
-0.270898
-0.322128
-0.182462
-0.223973
-0.1163
-0.146658
-0.0701955
-0.0909803
-0.0405333
-0.0535207
-0.0245055
-0.0309393
-0.0205615
-0.0211003
-0.0271539
-0.0226868
-0.0417121
-0.0336264
-0.0607819
-0.0509655
-0.0787774
-0.0703575
-0.0887718
-0.085111
-0.086941
-0.0895051
-0.0733589
-0.0813266
-0.0541371
-0.0639457
-0.0376544
-0.0450322
-0.0315749
-0.0329225
-0.0413765
-0.0342773
-0.0703276
-0.0533867
-0.120705
-0.0925606
-0.155578
-0.680027
-0.417051
-0.547346
-0.949294
-0.814517
-1.1939
-1.07699
-1.38671
-1.29821
-1.50182
-1.45539
-1.52251
-1.52441
-1.44789
-1.49654
-1.29163
-1.37855
-1.07878
-1.19042
-0.839957
-0.960757
-0.601146
-0.719338
-0.377674
-0.486896
-0.181052
-0.274834
-0.0976388
0.0543951
0.0817918
0.0697053
0.0143594
0.0357237
-0.0383407
-0.0104321
-0.103341
-0.0694909
-0.177775
-0.139665
-0.257171
-0.217165
-0.335858
-0.297091
-0.403503
-0.371952
-0.445185
-0.428467
-0.449954
-0.452367
-0.416399
-0.437588
-0.353437
-0.387756
-0.275049
-0.315273
-0.194623
-0.234394
-0.121113
-0.156664
-0.058347
-0.088312
-0.00670269
-0.0311975
0.0351128
0.0153245
0.0686834
0.0528433
0.0949568
0.0827134
0.113841
0.105362
0.124634
0.120282
0.127233
0.126905
0.123075
0.125873
0.117428
0.118319
0.114941
0.115865
0.114396
0.114669
0.110661
0.113275
0.10047
0.106353
0.0842809
0.0931285
0.0612757
0.0737313
0.029944
0.0467255
-0.01089
0.0107965
-0.0629666
-0.0353947
-0.12743
-0.0937035
-0.20162
-0.163574
-0.281202
-0.241442
-0.349774
-0.320652
-0.578746
-0.354596
-0.363059
-1.41483
-1.30092
-1.59534
-1.61168
-0.296906
0.0903677
-1.19424
-1.58043
-1.64924
-1.53924
-1.70218
-1.76961
-1.84317
-1.9171
-1.97567
0.337321
0.435949
0.432552
0.330009
0.210387
0.0566428
-0.124007
-0.319735
-0.521937
-0.723594
-0.925392
-1.11526
-2.29998
-2.24121
-2.08575
-1.83889
-1.52107
-1.17039
-0.82502
-0.153495
-0.316975
-0.128574
-1.61944
0.435402
0.438237
0.417564
0.427949
0.385698
0.402787
0.348091
0.368282
0.300453
0.325012
0.24793
0.274815
0.189028
0.219397
0.121965
0.156638
0.0448235
0.0847409
-0.0424904
0.00229303
-0.137067
-0.0891452
-0.231041
-0.185006
-0.308751
-0.272971
-0.355866
-0.336816
-0.361401
-0.364491
-0.317987
-0.345646
-0.23943
-0.281222
-0.15529
-0.196492
-0.0839827
-0.117542
-0.0297097
-0.0547768
0.00926775
-0.00848282
0.0355927
0.0238522
0.0514749
0.044735
0.0581837
0.055919
0.0568092
0.0584021
0.0493595
0.053683
0.0386177
0.0441981
0.0283465
0.0331275
0.0236575
0.0249853
0.0252139
0.0232419
0.0350175
0.0293273
0.0481365
0.0415607
0.0580507
0.0538985
0.0587078
0.0598431
0.045603
0.0540742
0.0157327
0.032918
-0.0319962
-0.00595836
-0.101087
-0.0640145
-0.190589
-0.142767
-0.483429
-0.240994
-0.356251
-0.760295
-0.619911
-1.0394
-0.901193
-1.2923
-1.17107
-1.49013
-1.40003
-1.60266
-1.55849
-1.61343
-1.6211
-1.52351
-1.58029
-1.34963
-1.4455
-1.11887
-1.23941
-0.863139
-0.99215
-0.611799
-0.735417
-0.382601
-0.493951
-0.182521
-0.278421
-0.0220013
-0.0968049
0.096602
0.0418117
0.12695
0.142268
0.135667
0.101546
0.115504
0.0665525
0.0853061
0.0210001
0.0450584
-0.0344223
-0.00561554
-0.0967127
-0.064989
-0.16122
-0.128988
-0.223064
-0.192817
-0.27519
-0.250947
-0.306959
-0.294295
-0.310257
-0.312138
-0.283878
-0.300565
-0.233902
-0.261231
-0.170895
-0.203332
-0.105118
-0.137807
-0.0436415
-0.0735633
0.0102251
-0.0156814
0.055914
0.0340597
0.0942145
0.0759152
0.126137
0.110925
0.152072
0.139864
0.171502
0.162659
0.183457
0.178462
0.187637
0.186474
0.185542
0.187197
0.181891
0.183177
0.180243
0.180915
0.178367
0.179576
0.17255
0.176104
0.1619
0.167763
0.147031
0.155017
0.127217
0.137799
0.101701
0.115207
0.0698398
0.0866084
0.0309415
0.0512999
-0.0148846
0.00880287
-0.0649554
-0.039668
-0.113383
-0.0898552
-0.149945
-0.134469
-0.158532
-1.47258
-1.34803
-0.518768
-1.64271
-1.67881
-1.2616
-1.64827
-1.7599
-0.0939012
-0.136561
0.0995395
0.146341
-1.6204
-1.85757
-1.97045
-2.0875
-2.19769
-2.2773
0.424166
0.494645
0.481264
-0.244246
-0.0820246
0.413607
0.328443
0.205774
0.0547082
-0.130796
-0.337845
-0.557396
-0.778167
-0.998894
-1.20367
-2.61543
-2.49799
-2.26057
-1.92444
-1.52819
-1.12113
-0.744999
-1.6776
0.509357
0.503645
0.504878
0.509617
0.48387
0.495698
0.45227
0.469394
0.413203
0.433673
0.366416
0.39062
0.314648
0.341029
0.258241
0.287117
0.195986
0.227885
0.127674
0.162564
0.0535123
0.091335
-0.0260042
0.0142225
-0.104628
-0.0660871
-0.170907
-0.140062
-0.21337
-0.195767
-0.21971
-0.221876
-0.183443
-0.206406
-0.12028
-0.153623
-0.0537968
-0.0863222
0.0029289
-0.0238836
0.0470574
0.0265285
0.079759
0.0647171
0.10288
0.0924006
0.118126
0.111397
0.126568
0.123155
0.128938
0.128445
0.126639
0.128252
0.121815
0.124389
0.117161
0.119271
0.117676
0.116136
0.118072
0.116435
0.125402
0.121267
0.134222
0.129931
0.139512
0.137621
0.136483
0.139285
0.121426
0.13063
0.0918151
0.108542
0.0462773
0.0710418
-0.0161959
0.0165844
-0.0532651
-0.552843
-0.291831
-0.418156
-0.842237
-0.694964
-1.13302
-0.98896
-1.39814
-1.27091
-1.60325
-1.51047
-1.71518
-1.67232
-1.71741
-1.73028
-1.61249
-1.67742
-1.42018
-1.52548
-1.1707
-1.3005
-0.897243
-1.03497
-0.630321
-0.76126
-0.391648
-0.506769
-0.187679
-0.285252
-0.0230316
-0.0996789
0.0437144
0.165333
0.180362
0.173887
0.142388
0.154692
0.111747
0.128111
0.0724634
0.0931696
0.0252513
0.0497177
-0.0270054
-0.00052393
-0.0796829
-0.0535937
-0.128296
-0.104757
-0.168041
-0.14966
-0.191768
-0.182419
-0.193507
-0.194964
-0.17248
-0.185775
-0.132577
-0.15442
-0.0817737
-0.107988
-0.0278341
-0.0547922
0.0237146
-0.00153596
0.0701146
0.0476389
0.110666
0.0911083
0.145739
0.128846
0.175842
0.161397
0.20089
0.189033
0.220052
0.211276
0.232285
0.227078
0.23741
0.235678
0.237146
0.237755
0.235415
0.236138
0.234131
0.23482
0.231035
0.232989
0.224111
0.22807
0.213784
0.219307
0.200475
0.207532
0.183724
0.192547
0.163323
0.173989
0.139054
0.151687
0.11088
0.125429
0.0795961
0.0955281
0.047431
0.0634072
0.0190206
0.0323452
0.00408208
0.00894176
0.0171767
0.0063117
0.0669252
0.0367644
0.153031
-0.017569
0.106654
-1.5607
-1.42123
-0.422827
-1.72402
-1.78218
-0.179933
0.18491
-1.35168
-0.152508
-1.75171
-1.9122
0.0548114
-1.73678
-2.06106
-2.22563
-2.38909
-2.53134
-2.6181
0.461932
0.397873
0.323565
0.204979
0.0540985
-0.134768
-0.353612
-0.590839
-0.835118
-1.0802
-1.30706
-2.91239
-2.70317
-2.36359
-1.93367
-1.46709
-1.02114
-0.631899
-1.7716
0.510258
0.438205
0.460903
0.487382
0.542107
0.528336
0.557527
0.551965
0.555106
0.558747
0.535754
0.54702
0.505307
0.521846
0.466385
0.486711
0.420825
0.444343
0.370581
0.39615
0.316922
0.344183
0.259757
0.288771
0.199299
0.229941
0.135
0.167696
0.0671931
0.101333
0.000742147
0.03337
-0.0565088
-0.0296628
-0.0932679
-0.0781424
-0.0977399
-0.100139
-0.0672028
-0.0862045
-0.0168872
-0.0432164
0.0349788
0.00964797
0.0794296
0.0583376
0.114753
0.098199
0.141802
0.129229
0.161833
0.152614
0.176084
0.169607
0.185448
0.181345
0.190379
0.188432
0.191745
0.191421
0.191059
0.191553
0.18992
0.190452
0.188176
0.189459
0.193976
0.19148
0.199922
0.196784
0.205765
0.203067
0.207868
0.207531
0.20245
0.206307
0.186461
0.195923
0.157758
0.173774
0.114995
0.138129
0.0584776
0.0882571
-0.00867453
0.0257371
-0.0829981
-0.0452055
-0.342936