/*--------------------------------*- C++ -*----------------------------------*\
  =========                 |
  \\      /  F ield         | OpenFOAM: The Open Source CFD Toolbox
   \\    /   O peration     | Website:  https://openfoam.org
    \\  /    A nd           | Version:  10
     \\/     M anipulation  |
\*---------------------------------------------------------------------------*/
FoamFile
{
    format      ascii;
    class       volVectorField;
    location    "0.5";
    object      U;
}
// * * * * * * * * * * * * * * * * * * * * * * * * * * * * * * * * * * * * * //

dimensions      [0 1 -1 0 0 0 0];

internalField   nonuniform List<vector> 
6397
(
(1.03312 -0.145826 1.43389e-20)
(1.0485 -0.17034 -6.82392e-20)
(1.01196 -0.0020226 0)
(1.01354 0.00181878 -5.43574e-23)
(1.00964 -0.00070276 1.75762e-21)
(1.00989 -0.000252056 3.46339e-21)
(0.843796 -0.51301 -4.23703e-20)
(0.489607 -0.752573 1.13421e-19)
(0.345104 0.130714 -9.42723e-21)
(0.382865 0.225651 2.25031e-21)
(0.523559 0.693125 8.15453e-20)
(0.869886 0.732004 -1.08777e-20)
(1.04635 0.0257354 -6.15004e-22)
(0.987249 -0.0198816 -4.44576e-22)
(0.993922 0.0330111 1.64246e-21)
(0.60938 -0.552182 -6.16377e-20)
(0.81447 -0.554317 -7.02347e-21)
(0.549544 -0.482096 1.64205e-20)
(0.329979 -0.021091 5.93356e-20)
(0.441507 -0.191154 -1.8091e-19)
(0.532364 -0.0370843 -9.50798e-20)
(0.831525 0.478592 -8.267e-20)
(0.686532 0.530744 2.15379e-21)
(1.00423 0.576165 -2.23832e-20)
(0.994261 0.0218828 0)
(1.02114 0.00568135 -1.09653e-22)
(1.00744 -0.0111481 -8.88415e-23)
(1.00906 0.00160245 -8.29899e-21)
(1.00825 0.00131609 2.04814e-21)
(1.00564 0.0007914 -4.21477e-21)
(1.00786 -0.000734759 5.91389e-21)
(1.00901 -0.0060285 5.02575e-21)
(1.00952 -0.00689445 3.44835e-21)
(1.01194 0.00597431 -1.22555e-20)
(1.01043 0.00107193 1.3858e-21)
(1.00916 -0.00295867 0)
(1.00739 0.00394133 -1.56103e-21)
(1.00865 0.00664919 -3.24351e-21)
(1.00585 0.00503776 3.18772e-21)
(1.00862 0.00563453 -1.50458e-21)
(1.0057 -0.00151677 0)
(1.01011 -0.000982538 0)
(1.00657 0.00147596 1.95492e-21)
(1.01039 0.00497948 3.55749e-21)
(1.00763 0.000741516 -3.84323e-21)
(1.00972 -0.00195118 7.52232e-21)
(1.01008 0.00112218 3.57799e-21)
(1.01171 0.000950496 -1.08973e-20)
(0.991698 -0.00872075 2.63269e-21)
(1.00564 0.0102943 -4.15876e-22)
(0.998087 0.0140772 5.52905e-21)
(1.00847 -0.00540185 -1.77908e-21)
(0.993161 -0.000374617 -1.31637e-20)
(0.999171 0.166222 -1.10096e-20)
(0.999774 0.204952 7.11632e-21)
(1.03055 0.020576 7.8835e-21)
(1.05495 0.0928649 7.54724e-21)
(1.06544 0.0162488 -1.41786e-20)
(1.00868 0.00112476 4.95928e-21)
(1.0097 0.000736281 -4.97261e-21)
(1.00833 -0.000264088 -4.96888e-21)
(1.0085 -0.000914111 4.89217e-21)
(1.00842 -0.00119053 5.31068e-21)
(1.0079 -0.000759902 -5.21998e-21)
(1.00765 -0.00104783 0)
(1.00762 -0.000587676 -5.54926e-21)
(1.00766 -0.000335162 5.82303e-21)
(1.00728 -0.000484895 0)
(1.00997 -0.000988848 4.56705e-21)
(1.01065 -9.69808e-05 -1.00401e-24)
(1.00993 -0.000350049 -4.33515e-21)
(1.00927 -0.000900055 0)
(1.0091 -7.68704e-05 0)
(1.00905 0.000680729 0)
(1.00939 0.000787436 2.05852e-23)
(1.00931 0.000908528 -2.58933e-24)
(1.00891 0.00162521 0)
(1.00798 0.00187421 6.77727e-25)
(1.00685 0.00154804 0)
(1.00649 0.000672609 0)
(1.00961 0.00129617 4.6963e-21)
(1.01145 -0.00187138 -3.1545e-22)
(1.00624 -0.00155613 0)
(1.0066 0.000615772 0)
(1.00898 0.00229115 -1.36971e-22)
(1.01171 -0.00312077 0)
(1.00619 -0.000228861 0)
(1.00562 0.000122779 0)
(1.00889 6.982e-05 -8.68111e-21)
(1.00994 -0.00085521 1.07572e-21)
(1.00736 -0.000366708 0)
(1.00488 -0.000585348 0)
(1.00908 -0.00260528 6.49042e-21)
(1.00922 -0.000268432 4.06689e-21)
(1.00749 -0.00137027 0)
(1.0052 -0.000839116 -8.04135e-22)
(1.01011 0.00235358 0)
(1.01294 0.00567469 -8.02089e-21)
(1.01038 0.0065401 -5.41023e-22)
(1.00887 -0.000796391 4.43127e-21)
(1.00934 -0.000459026 0)
(1.00878 0.000601769 2.23344e-21)
(1.00861 0.000121932 -4.44702e-21)
(1.00934 3.98187e-05 -2.53001e-21)
(1.00908 0.000351202 -1.75085e-21)
(1.00812 -0.000507061 -2.06191e-23)
(1.00884 -0.0002663 2.66997e-21)
(1.00709 -0.00197696 6.27393e-23)
(1.00766 -0.00126106 3.02997e-21)
(1.00557 -0.00177051 2.49246e-21)
(1.00632 -0.00216724 -5.22487e-21)
(1.0036 -0.00140823 0)
(1.00448 -0.00109449 0)
(1.00519 -0.00216597 0)
(1.00409 -0.00241401 0)
(1.0054 -0.00120719 1.62411e-21)
(1.00948 0.000241892 6.13048e-21)
(1.00752 0.000209807 3.22697e-21)
(1.00873 -0.000678754 -6.04485e-21)
(1.01008 0.00255581 -5.91927e-21)
(1.00948 0.00345904 5.78527e-21)
(1.00948 0.00229927 -4.33631e-23)
(1.00954 0.00253311 -1.75105e-22)
(1.00956 0.00186318 0)
(1.00913 0.00256283 0)
(1.0099 0.00119533 -4.92908e-21)
(1.00954 0.00167298 -6.39696e-22)
(1.00984 0.000841757 -8.92059e-22)
(1.00967 0.0011332 4.89644e-21)
(1.00875 0.00208709 -2.47782e-21)
(1.00885 0.00126313 2.84845e-22)
(1.00811 0.00133139 4.36667e-21)
(1.00804 0.00262831 2.26048e-21)
(1.01052 -0.000544513 0)
(1.01006 -0.00144078 -4.82979e-21)
(1.00818 0.00144328 3.93876e-21)
(1.01008 0.000677016 7.2572e-23)
(1.01489 -0.000420222 -2.13755e-21)
(1.00588 -0.000933052 2.50088e-21)
(1.00614 -0.00145252 -6.13072e-22)
(1.00757 0.00124157 4.94535e-23)
(1.006 0.00141067 -3.23407e-21)
(1.00611 0.000726794 0)
(1.00632 -0.000474341 -1.67515e-21)
(1.00486 -0.00143539 3.3476e-21)
(1.00452 -0.00221012 -3.32828e-21)
(1.01056 -0.000266945 -2.05057e-21)
(1.01084 -0.00342338 4.24487e-21)
(1.01249 0.00159014 2.04631e-21)
(1.00985 0.00130187 -1.91961e-21)
(1.00664 -0.00168833 -1.92946e-22)
(1.00757 -0.00150806 0)
(1.00858 -0.00363236 1.06017e-21)
(1.00878 -4.7706e-05 -1.41604e-22)
(1.00838 -0.000484021 0)
(1.00876 -0.00243184 7.17225e-22)
(1.00848 -0.00150194 -1.45107e-21)
(1.00848 -0.00142022 0)
(1.00855 -0.00168176 -3.11625e-22)
(1.00826 -0.0013604 0)
(1.00846 -0.00104116 -1.61681e-22)
(1.0085 -0.000804357 0)
(1.0083 -0.000929243 -3.3889e-22)
(1.00791 -0.000893258 -1.73091e-24)
(1.00851 -0.00057607 -2.66212e-22)
(1.00607 -0.00136046 -1.86105e-22)
(1.00665 -0.00114973 3.44235e-22)
(1.00608 0.000700539 1.01516e-22)
(1.00631 -5.36853e-06 9.84587e-23)
(1.00541 -0.000489584 -8.10609e-22)
(1.01054 0.00158524 -9.58281e-23)
(1.00914 0.00248039 -9.62571e-23)
(1.01106 -0.000589958 5.70515e-24)
(1.01097 -0.00111253 0)
(1.01015 -0.000755571 0)
(1.01001 -0.00103159 8.76844e-23)
(1.0094 -0.000267079 0)
(1.00968 -0.00040885 0)
(1.00923 -0.000625252 4.94459e-24)
(1.00869 -0.00022578 6.49029e-22)
(1.00956 -0.00103527 5.96519e-22)
(1.00896 -0.000229586 0)
(1.00918 -0.0015998 2.21788e-21)
(1.00962 1.00505e-05 0)
(1.00918 -8.17198e-05 -1.37415e-22)
(1.00904 -0.00295774 -2.22192e-21)
(1.00802 -0.0039035 -4.04382e-24)
(1.00786 0.000569767 -5.22927e-22)
(1.00943 -0.00382696 2.03916e-21)
(1.00772 0.00582629 -9.02241e-22)
(1.01058 -0.000698648 0)
(1.01435 0.00316443 -1.01071e-21)
(1.01374 -0.00459045 8.85635e-22)
(1.00511 0.000936211 0)
(1.00525 0.000684936 0)
(1.00683 -0.00237548 8.45065e-22)
(1.00478 -0.000629797 4.03895e-22)
(1.00472 -0.000246179 0)
(1.00518 -0.00321813 4.28071e-22)
(1.00584 -0.00144454 -2.15523e-22)
(1.00722 0.00292616 0)
(1.00469 0.00048685 0)
(1.00583 0.0017453 3.39985e-21)
(1.00689 0.00521977 -1.93934e-21)
(1.00864 -0.000259934 0)
(1.01436 0.00126938 2.03158e-21)
(1.01016 -0.00462061 1.62881e-23)
(1.01034 -0.000573629 -5.06319e-21)
(1.01034 -0.00395333 0)
(1.01133 -0.00258385 1.78345e-21)
(1.00527 -0.000596903 0)
(1.00978 0.00245915 -5.45235e-22)
(1.00966 -0.00354695 0)
(1.01023 0.00199618 -1.6996e-23)
(1.01031 0.00175356 -9.43465e-24)
(1.00851 -5.69798e-05 2.82004e-22)
(1.00899 0.00185338 0)
(1.00919 0.00186083 -4.63169e-24)
(1.0089 0.000442643 2.92938e-22)
(1.00957 0.000357145 4.88817e-24)
(1.00962 0.000248192 3.09085e-22)
(1.00922 -4.6478e-05 -6.66002e-22)
(1.00926 0.000171125 0)
(1.00886 -0.00105181 0)
(1.0091 -0.000385095 6.78751e-22)
(1.00851 -0.00244079 1.80091e-22)
(1.00862 -0.00190987 -8.98222e-23)
(1.00892 -0.00171204 0)
(1.00871 -0.00239249 2.32875e-23)
(1.00674 -0.0017495 1.93436e-22)
(1.0082 -0.00163962 -3.97246e-22)
(1.00546 -0.00128155 -8.2238e-22)
(1.0072 0.003591 7.27549e-22)
(1.00777 0.00381767 -3.14766e-24)
(1.00712 0.00165689 2.89229e-22)
(1.00708 0.00131159 -1.16146e-21)
(1.00723 0.00165144 -2.14007e-23)
(1.00682 0.00272796 7.39006e-22)
(1.00833 0.00131843 0)
(1.00781 0.00121537 -8.25687e-22)
(1.00882 0.000945755 0)
(1.00857 0.000587933 0)
(1.00903 0.00135642 -9.64985e-24)
(1.00884 0.000612599 0)
(1.00921 0.00154123 0)
(1.00909 0.000398621 0)
(1.0093 0.000870543 0)
(1.00923 -0.000164996 0)
(1.01002 -0.000919433 -1.05346e-21)
(1.00974 0.00237381 0)
(1.00993 0.00232939 4.00492e-24)
(1.01014 -0.00260182 1.07634e-21)
(1.01114 0.00217798 -2.06814e-21)
(1.00984 0.00393136 -9.73076e-22)
(1.00863 -0.00185148 1.81662e-21)
(1.01323 -0.00462029 -1.99617e-21)
(1.00442 0.000581728 -3.4493e-21)
(1.00487 0.00074307 0)
(1.00605 -0.00105438 -1.07053e-21)
(1.00485 0.000760411 -3.65062e-21)
(1.00428 0.00226138 0)
(1.00585 -0.00300048 -4.41204e-22)
(1.00507 -0.0017598 -1.33653e-21)
(1.0123 -0.000538765 1.99428e-24)
(1.01065 0.00227902 2.04175e-24)
(1.00832 0.00713461 -1.70212e-21)
(1.00947 -0.00170069 -1.74833e-21)
(1.0081 -0.000294243 -1.84369e-21)
(1.0098 7.33389e-05 0)
(1.01067 0.00142203 -5.3435e-22)
(1.00915 -0.00124051 -1.0065e-21)
(1.00376 -0.00035058 3.4595e-21)
(1.00316 -0.00298468 4.45942e-22)
(1.00573 -0.00227834 3.16659e-21)
(1.00969 -0.00115952 7.77803e-23)
(1.00435 -0.000160983 0)
(1.01157 -0.000937936 -5.12816e-22)
(1.01226 0.000297211 2.11934e-21)
(1.01049 -0.00172299 5.41409e-22)
(1.01098 -0.00132462 -1.32884e-21)
(1.00981 -0.000561529 0)
(1.00948 -0.00216893 0)
(1.00915 -0.00222826 1.94093e-27)
(1.00987 -0.00112916 2.87535e-28)
(1.00894 -0.00174228 -4.8444e-24)
(1.00897 -0.00132886 0)
(1.00849 -0.00171918 0)
(1.0087 -0.00178847 3.14868e-28)
(1.00808 -0.00149986 0)
(1.00824 -0.00171127 0)
(1.00866 -0.00126697 0)
(1.0082 -0.0013452 0)
(1.00891 -0.00199322 0)
(1.00909 -0.00164997 0)
(1.00748 -0.00235589 0)
(1.00818 -0.00217687 0)
(1.00683 -0.00305647 6.26303e-22)
(1.00724 -0.00287195 0)
(1.00403 -0.00348587 0)
(1.00559 -0.00246207 4.1258e-24)
(1.00193 -0.00339479 0)
(1.00273 -0.0041935 8.62373e-22)
(1.00675 0.00202402 8.2849e-22)
(1.00531 0.00412509 1.08201e-21)
(1.00654 0.00375256 -8.32061e-22)
(1.00752 0.000643411 -2.91262e-22)
(1.007 -0.00016071 3.14651e-24)
(1.00737 0.00127029 1.87864e-22)
(1.00729 0.00249148 4.17428e-22)
(1.00756 0.000432057 3.23016e-27)
(1.00763 0.000133041 0)
(1.00826 0.000212857 0)
(1.0079 0.000253575 0)
(1.00883 0.000158348 0)
(1.00843 0.000139087 0)
(1.00932 -8.65077e-05 -4.17764e-28)
(1.00919 4.35441e-06 0)
(1.00946 -0.000697432 0)
(1.00936 -0.000115863 0)
(1.00972 -0.000898096 0)
(1.00942 0.000104202 0)
(1.009 0.000222755 -5.35978e-22)
(1.00957 -0.002035 5.57443e-22)
(1.01006 -0.00193714 -5.12052e-22)
(1.00995 0.00129437 6.62615e-23)
(1.00948 -0.00289474 2.58418e-21)
(1.01206 0.000714582 1.26675e-21)
(1.00833 -0.0024925 1.82381e-21)
(1.01328 -0.00332019 0)
(1.00382 0.00190298 0)
(1.00469 0.00376989 -9.75877e-22)
(1.00321 -0.00482118 -3.69965e-21)
(1.00236 -0.0029849 0)
(1.0042 -0.000372377 0)
(1.00505 -0.000997909 0)
(1.00894 -0.00245957 0)
(1.01099 0.00350458 3.83355e-21)
(1.00977 -0.000217814 -1.52415e-21)
(1.00984 -0.00195719 0)
(1.00371 0.00149337 -2.20795e-22)
(1.00432 -0.0024861 1.76832e-21)
(1.00451 0.00331166 -6.82758e-22)
(1.00275 0.00316694 2.25064e-22)
(1.00482 -0.00216319 -3.64235e-21)
(1.00314 -0.00609776 -5.92028e-23)
(1.00276 -0.00302653 0)
(1.01048 0.000580978 -3.88811e-21)
(1.00432 0.000529621 0)
(1.0099 -0.00119026 1.97518e-21)
(1.01052 0.000112899 1.40812e-21)
(1.01078 -0.000454363 4.85154e-21)
(1.00994 -0.000147833 8.30968e-22)
(1.01016 -0.000271217 -1.97747e-21)
(1.00951 0.000906738 0)
(1.00923 0.000633291 -5.14099e-22)
(1.00976 0.000319134 -2.60992e-28)
(1.01025 0.000163529 2.71387e-28)
(1.00976 0.00051854 3.77321e-29)
(1.00941 0.0001982 0)
(1.00954 -1.62684e-05 0)
(1.00964 -1.70894e-05 0)
(1.00948 -0.000458212 5.09134e-24)
(1.00955 -0.000287163 -3.14867e-28)
(1.0093 -0.00100322 -3.21967e-28)
(1.00942 -0.000725499 3.34288e-28)
(1.00879 -0.00158827 0)
(1.00907 -0.00130816 0)
(1.00862 -0.00227822 -5.8283e-24)
(1.00862 -0.00188369 0)
(1.00847 -0.00271308 6.06929e-24)
(1.00862 -0.00275011 0)
(1.00745 -0.00159305 2.05878e-22)
(1.0082 -0.00194359 0)
(1.00427 -0.00222005 -1.72417e-21)
(1.00581 -0.00262735 -4.23756e-22)
(1.00381 -0.00380602 -1.807e-21)
(1.00388 -0.00289875 8.53709e-22)
(1.00173 -0.00514992 -3.70929e-21)
(1.00306 -0.00422936 1.80296e-21)
(1.0056 0.00274156 -8.61853e-22)
(1.00393 0.00369378 2.23234e-22)
(1.00521 0.00312807 9.52893e-22)
(1.00638 0.00346592 -1.34046e-21)
(1.00589 0.00193845 8.30438e-22)
(1.00698 0.00293358 6.77296e-22)
(1.00649 0.00488901 3.5887e-22)
(1.00701 0.00168359 0)
(1.00732 0.00145398 -8.29467e-22)
(1.00809 0.00197045 1.11176e-23)
(1.00736 0.00206088 3.63383e-28)
(1.00841 0.00142863 0)
(1.00828 0.00152758 0)
(1.00888 0.00115851 5.07068e-24)
(1.0087 0.00125702 0)
(1.00913 0.00109674 4.82396e-24)
(1.00898 0.00105995 0)
(1.00941 0.0011086 0)
(1.0092 0.00081252 0)
(1.00951 0.000602449 0)
(1.00959 0.000400247 0)
(1.0106 -8.97499e-05 0)
(1.01014 0.00148511 0)
(1.01023 0.00027664 0)
(1.01032 -0.00194502 -3.27454e-23)
(1.01124 0.00146521 1.00352e-21)
(1.00333 0.00352603 9.06278e-22)
(1.00292 0.00548408 0)
(1.00274 -0.00499082 -7.09396e-22)
(1.00118 -0.00605413 4.71701e-21)
(1.01079 -0.00330519 0)
(1.00863 -0.00309116 9.48183e-22)
(1.01063 0.00272553 1.69087e-21)
(1.01 -0.00266887 -1.75167e-21)
(1.0105 0.00387428 -9.6326e-22)
(1.0086 -0.00130805 2.51115e-23)
(1.01313 -0.000933109 -6.9172e-24)
(1.01116 -0.00306904 8.49273e-22)
(1.01052 -0.00094698 1.82611e-21)
(1.01269 -0.00220576 -2.20502e-22)
(1.01041 -0.0021076 0)
(1.01119 0.00213837 -1.82284e-21)
(1.01038 -0.00151366 -2.34275e-21)
(1.00342 0.000933277 2.22601e-22)
(1.00382 -0.000405636 8.55043e-28)
(1.00304 0.00112457 -2.25942e-22)
(1.00355 -0.00251522 0)
(1.00239 0.00293019 0)
(1.00326 -0.00242095 0)
(1.00266 0.00686293 -2.19214e-22)
(1.00194 0.00374684 -1.5547e-23)
(1.0025 -0.00538316 3.54073e-21)
(1.00108 -0.00861919 -9.71039e-22)
(1.00229 -0.00507802 -2.96141e-21)
(1.01015 0.00118084 -1.90145e-21)
(1.01163 -0.00380022 1.88054e-21)
(1.00369 -0.000103501 8.61987e-28)
(1.01069 0.000657521 1.74594e-23)
(1.01155 -0.0012622 9.88924e-22)
(1.01044 -0.000482592 4.47817e-22)
(1.01061 0.00072194 0)
(1.01009 -0.00153885 -2.45876e-28)
(1.01044 -0.00161497 -5.1622e-22)
(1.00991 -0.00145994 0)
(1.00988 -0.000728445 0)
(1.00952 -0.00147877 4.59217e-24)
(1.00977 -0.00128668 0)
(1.00926 -0.00158214 0)
(1.00937 -0.00148562 0)
(1.00902 -0.00166813 -1.01821e-23)
(1.00913 -0.00163555 0)
(1.00879 -0.00167036 -5.33901e-24)
(1.00889 -0.00168706 0)
(1.00862 -0.00169455 0)
(1.00871 -0.00165609 0)
(1.00834 -0.00197652 -1.23456e-27)
(1.00847 -0.00181953 0)
(1.00854 -0.00293181 3.81338e-28)
(1.00844 -0.00226483 0)
(1.00734 -0.00498355 -6.31162e-24)
(1.00805 -0.00403932 3.95578e-28)
(1.00664 -0.00592389 -1.16741e-27)
(1.00701 -0.00549784 0)
(1.00439 -0.00356453 9.70865e-23)
(1.0059 -0.00472703 -8.8516e-22)
(1.0021 -0.00642161 1.89462e-21)
(1.00272 -0.00455581 2.83661e-21)
(1.00148 -0.00652511 -3.78798e-21)
(1.0018 -0.00686091 -4.11139e-22)
(1.00416 0.00606097 -2.23148e-22)
(1.00339 0.0046533 2.33852e-22)
(1.00399 0.00504406 0)
(1.0053 0.00499817 1.34203e-22)
(1.00453 0.00496274 -3.01732e-22)
(1.00662 0.00244616 1.01882e-22)
(1.00589 0.0050585 2.64679e-23)
(1.00675 0.00164012 -3.02044e-24)
(1.00696 0.00102528 5.1764e-23)
(1.00804 0.00213846 0)
(1.00721 0.00228662 0)
(1.00833 0.00126757 -5.56016e-24)
(1.00833 0.00149857 7.2562e-28)
(1.00877 0.000946947 -6.56169e-28)
(1.0085 0.00115315 6.94536e-28)
(1.00914 0.00067607 -2.38832e-28)
(1.00898 0.00079036 0)
(1.00943 0.000357525 0)
(1.00932 0.000520046 0)
(1.00963 2.44752e-05 -4.57773e-24)
(1.00955 0.000251027 0)
(1.00995 0.000105134 0)
(1.00961 -1.26255e-05 0)
(1.00933 -0.000322884 -4.08297e-24)
(1.0098 -0.00074954 0)
(1.01066 -0.000661137 7.93591e-24)
(1.01004 0.00200099 -3.32126e-23)
(1.0107 -0.00104314 1.48408e-21)
(1.01073 -0.00265671 0)
(1.01162 0.000643955 6.59064e-21)
(1.01112 0.000601783 -4.84897e-21)
(1.01216 0.000153648 -6.18068e-23)
(1.00902 0.00182836 0)
(1.01206 0.00194544 1.7528e-21)
(1.00969 0.000530246 2.91579e-23)
(1.01166 0.000712021 0)
(1.00659 -0.00104033 0)
(1.01314 -0.00101986 8.27953e-22)
(1.01252 -0.00260326 1.98106e-28)
(1.00953 -0.000980402 -4.42663e-22)
(1.01136 -0.00093533 -1.46982e-21)
(1.0112 -0.000793705 0)
(1.01052 0.000774422 1.32915e-21)
(1.00258 0.00710925 3.73286e-24)
(1.00237 0.00591482 -2.38097e-22)
(1.00098 -0.0101788 3.97597e-21)
(1.0016 -0.00765333 7.41228e-21)
(1.00925 0.00174851 1.83792e-21)
(1.00986 0.00084177 -9.32699e-22)
(1.00299 0.0015808 1.42582e-26)
(1.00271 -0.000296682 0)
(1.00222 0.00261825 0)
(1.00256 -0.00223299 2.50201e-26)
(1.00171 0.00420288 2.77361e-24)
(1.00187 -0.00378382 9.56289e-22)
(1.00084 0.00493127 -5.60626e-24)
(1.00199 -0.00664113 0)
(1.00146 0.00805851 -1.9612e-21)
(1.00209 0.00737444 7.58881e-24)
(1.00078 -0.00608115 4.65774e-21)
(1.00094 -0.00980659 -8.01138e-21)
(1.00086 -0.00942497 -1.9694e-21)
(1.00119 0.00828753 1.67882e-21)
(1.00101 0.0111277 1.96812e-21)
(1.00084 0.00786411 2.00518e-21)
(0.999916 -0.0121177 -4.52082e-21)
(1.00009 -0.0114314 9.04344e-21)
(1.00012 -0.0123929 1.51108e-21)
(1.00935 0.0041694 8.87734e-22)
(1.00914 -0.00352139 0)
(1.00754 -0.00656464 -1.04292e-21)
(1.00275 -0.000122476 8.91119e-28)
(1.00834 0.0017492 4.70843e-22)
(1.01401 -0.00308667 1.88759e-21)
(1.00996 0.000139036 -9.52508e-22)
(1.01227 0.000182901 -4.65634e-22)
(1.00925 -0.000579568 0)
(1.00968 -0.000718903 0)
(1.01001 1.19685e-05 0)
(1.00989 0.000339411 0)
(1.00984 -6.97358e-05 0)
(1.00985 -0.000206531 0)
(1.0098 -0.000243522 0)
(1.00986 -0.000209586 0)
(1.00969 -0.000569977 -5.8285e-28)
(1.00976 -0.000433429 6.05599e-28)
(1.00955 -0.000961413 5.09015e-24)
(1.00963 -0.000766269 6.37079e-28)
(1.0093 -0.00143248 5.33901e-24)
(1.00944 -0.00119031 0)
(1.00891 -0.00191835 0)
(1.00912 -0.00168317 0)
(1.00844 -0.00241607 -9.66299e-28)
(1.00869 -0.0021491 0)
(1.00797 -0.00283531 3.40916e-27)
(1.00818 -0.00269081 0)
(1.00798 -0.00313263 6.3113e-24)
(1.00791 -0.00291702 0)
(1.00853 -0.00365984 1.30962e-23)
(1.00826 -0.00327862 4.07039e-28)
(1.00619 -0.0060303 7.68273e-22)
(1.00779 -0.00465449 0)
(1.00461 -0.00471145 -9.34986e-22)
(1.00531 -0.00634295 -1.00817e-21)
(1.00052 -0.00708343 3.80782e-21)
(1.00264 -0.00436769 -2.39031e-21)
(0.999918 -0.00960161 -8.03559e-21)
(1.00355 0.00772558 9.62296e-22)
(1.00242 0.00800702 -2.61025e-21)
(1.0055 0.00376109 3.40898e-24)
(1.00449 0.00571979 1.13558e-22)
(1.00716 0.00337341 8.25246e-22)
(1.00638 0.00413337 -8.79304e-22)
(1.00676 0.00400567 3.13987e-24)
(1.00718 0.00318939 -2.68829e-23)
(1.0082 0.00352069 3.01805e-24)
(1.00732 0.0042009 1.57665e-27)
(1.00833 0.00217136 0)
(1.00841 0.00256608 0)
(1.00861 0.00191636 1.37288e-27)
(1.00839 0.00208293 -1.4528e-27)
(1.00894 0.00150826 0)
(1.00879 0.00168049 0)
(1.00919 0.00123146 1.86355e-27)
(1.00907 0.00136303 0)
(1.0094 0.00102538 0)
(1.0093 0.00111108 0)
(1.00961 0.000820084 4.57774e-24)
(1.00951 0.000919536 0)
(1.00985 0.000531864 0)
(1.00978 0.000763707 0)
(1.01059 0.000743154 -4.06551e-27)
(1.00989 0.000528342 1.0743e-27)
(1.00957 -0.000211521 -7.71567e-24)
(1.01036 -0.000657507 0)
(1.01165 -0.000113965 0)
(1.01004 0.0023294 -4.83878e-25)
(1.01173 -0.00133361 -1.87195e-21)
(1.01123 -0.000355992 -3.69843e-24)
(1.01088 -0.00308582 -1.93793e-21)
(1.00824 0.0029944 3.25683e-21)
(1.00971 0.000583049 -1.76913e-21)
(1.01002 0.00210574 0)
(1.00828 -0.00065149 0)
(1.0119 -0.000486434 9.39449e-26)
(1.00687 -0.00171475 1.91755e-28)
(1.0127 -0.000642144 9.73301e-26)
(1.01204 -0.00160231 1.911e-28)
(1.00939 -0.000910948 1.00104e-22)
(1.01057 7.05925e-05 3.83008e-28)
(1.01052 -0.000468559 8.16772e-22)
(1.00967 -5.03454e-05 -5.21037e-22)
(1.00955 -0.00120077 -3.25917e-23)
(1.00187 0.00114141 -2.80522e-26)
(1.00159 -0.00075051 5.31751e-27)
(1.00113 0.00240164 0)
(1.00096 -0.0018991 -2.85177e-26)
(1.00053 0.00459393 -3.75152e-24)
(0.999985 -0.00323697 -9.5784e-22)
(0.99958 0.00610708 2.28812e-23)
(1.00049 -0.00657973 -2.43272e-22)
(1.0006 0.00780426 4.67001e-23)
(0.999485 -0.00901302 0)
(1.0011 0.00913149 -2.25095e-21)
(1.00044 0.0131893 0)
(0.999738 -0.00977618 -1.99023e-21)
(1.00036 -0.0146171 8.28471e-21)
(0.999536 -0.0129874 4.09273e-21)
(1.00237 0.0131524 -2.1429e-25)
(1.00075 0.0109165 -4.0928e-21)
(1.00134 0.0155326 -3.17056e-23)
(1.00058 -0.0171451 -1.3739e-23)
(1.00113 -0.0121381 8.0969e-21)
(1.0002 -0.0142553 7.86193e-21)
(1.01326 -0.00433939 0)
(1.01105 -0.00364636 -3.4319e-21)
(1.00568 0.025745 1.73604e-21)
(1.01505 -0.0207809 -1.81414e-21)
(1.00178 0.000213929 -5.31699e-27)
(1.00787 0.006999 -8.79518e-22)
(1.01423 -0.0152773 -9.0097e-22)
(1.00964 0.000161857 1.17799e-22)
(1.01091 -0.00277408 -4.58457e-22)
(1.01046 -0.000188363 -1.92272e-24)
(1.01096 -0.000924526 1.92065e-27)
(1.01016 -0.000998025 0)
(1.01006 -0.000870563 0)
(1.00994 -0.00113004 0)
(1.01009 -0.000894935 0)
(1.00977 -0.00126376 4.59266e-24)
(1.0099 -0.00115535 0)
(1.00959 -0.00141969 0)
(1.00968 -0.00133545 0)
(1.00944 -0.00157939 0)
(1.00951 -0.00149993 0)
(1.00928 -0.00175343 0)
(1.00936 -0.00166284 0)
(1.00909 -0.00203088 0)
(1.0092 -0.00187019 0)
(1.00881 -0.00249669 5.8305e-24)
(1.00895 -0.00223959 0)
(1.00854 -0.00324308 1.41668e-27)
(1.00867 -0.00282463 1.5228e-27)
(1.00834 -0.00428966 0)
(1.00843 -0.00373059 0)
(1.00783 -0.00589266 5.86523e-27)
(1.00817 -0.00505737 -4.07039e-28)
(1.00762 -0.00677213 6.7882e-24)
(1.00754 -0.00644922 1.70253e-27)
(1.00626 -0.00893361 9.15135e-22)
(1.00748 -0.00724367 8.88173e-25)
(1.00364 -0.00998924 -4.7774e-22)
(1.00467 -0.0109256 -4.5564e-22)
(1.00245 -0.0099869 -3.24117e-21)
(1.0029 -0.00928389 2.19349e-21)
(1.00217 -0.0116265 -9.10577e-21)
(1.00453 0.0106528 2.39577e-22)
(1.00397 0.0122031 -3.80839e-23)
(1.00496 0.00707589 -2.84903e-23)
(1.00443 0.00861815 0)
(1.00597 0.00828291 -3.37046e-24)
(1.00543 0.00779694 -1.14995e-22)
(1.00691 0.00584591 0)
(1.00662 0.00711693 0)
(1.00802 0.00361812 5.19016e-28)
(1.00744 0.00472525 0)
(1.00795 0.00251925 0)
(1.00805 0.00272809 0)
(1.00837 0.00236903 0)
(1.00809 0.00251365 0)
(1.00883 0.00187537 -5.56064e-24)
(1.00864 0.00211143 0)
(1.00912 0.0014846 0)
(1.00898 0.00167736 0)
(1.00939 0.00112136 -5.0723e-24)
(1.00927 0.00129487 0)
(1.00963 0.000786789 -4.82626e-24)
(1.00952 0.000951456 0)
(1.00982 0.000490651 -4.58024e-24)
(1.00972 0.000639981 3.04055e-28)
(1.00996 0.000255401 -4.33181e-24)
(1.0099 0.000392951 -2.27365e-27)
(1.01008 -2.67781e-05 -1.48476e-27)
(1.01011 0.00028221 0)
(1.01071 0.000765705 0)
(1.01005 0.000350155 0)
(1.01026 0.000356501 0)
(1.01064 -0.0011814 4.84711e-25)
(1.01003 -1.21904e-05 1.75761e-21)
(1.01013 0.000398478 3.63273e-24)
(1.00996 0.000329798 -1.53172e-21)
(1.00859 -3.13723e-05 0)
(1.01016 0.0045673 5.09721e-21)
(1.00681 0.00559685 -1.71773e-21)
(1.00974 -0.000464336 -4.97192e-22)
(1.01154 0.00267452 -1.80898e-25)
(1.00817 -0.00282398 -3.7079e-28)
(1.01154 -0.000489374 -1.84196e-25)
(1.00872 -0.00256983 -3.68651e-28)
(1.01207 -0.000147236 3.61689e-28)
(1.01142 -0.000970179 -3.67759e-28)
(1.00971 -0.000521323 1.9283e-22)
(1.01076 0.000571503 -3.68332e-28)
(1.0105 -0.00125097 -8.13082e-22)
(1.00967 -0.000170085 -1.96495e-22)
(1.01151 -0.00131305 -8.42221e-22)
(1.00075 0.00151103 0)
(1.00066 -0.000832463 -1.78208e-27)
(0.999839 0.0027775 0)
(0.999603 -0.00244456 1.17705e-25)
(0.999219 0.00478256 4.71523e-24)
(0.998206 -0.00340737 1.89859e-24)
(0.99836 0.00710913 -1.52878e-23)
(0.998455 -0.00538545 -7.71254e-24)
(0.998654 0.00848205 -6.20717e-23)
(0.998198 -0.00988284 -1.57061e-23)
(0.999728 0.0144097 0)
(0.998409 -0.012629 -2.06904e-21)
(1.001 0.0173317 -4.16797e-21)
(0.999949 0.0136619 8.25347e-21)
(0.998851 -0.0144898 1.29325e-22)
(1.00045 -0.0184245 -8.3604e-21)
(1.00011 -0.018719 -8.54684e-21)
(1.00652 -0.00166361 -5.93439e-23)
(1.00071 0.000223789 1.08059e-26)
(0.983868 -0.00181085 -1.87932e-21)
(0.994199 -0.00562965 1.09511e-20)
(1.04249 0.00490308 -6.72128e-21)
(1.00302 8.54624e-07 2.22254e-22)
(1.02708 -0.00171874 1.74489e-21)
(1.00891 0.000747821 -1.17647e-22)
(1.0138 -0.000162585 2.30051e-22)
(1.00992 -0.00114548 -4.8555e-22)
(1.01023 0.000199167 4.3388e-22)
(1.01003 0.000116429 -4.09428e-24)
(1.01026 -0.000613141 2.04525e-27)
(1.01006 -0.000387828 -4.34033e-24)
(1.01005 -0.000810409 -2.17112e-27)
(1.00998 -0.000711214 -5.0132e-28)
(1.01 -0.000652968 0)
(1.00985 -0.00101397 0)
(1.00991 -0.000862796 0)
(1.00971 -0.00137495 -5.09134e-24)
(1.00979 -0.00118925 0)
(1.0095 -0.0017773 2.57665e-27)
(1.00961 -0.00157355 -2.67525e-27)
(1.00927 -0.00218368 2.69774e-27)
(1.00939 -0.00198054 -2.79999e-27)
(1.009 -0.00264498 -2.81773e-27)
(1.00914 -0.00240511 2.92353e-27)
(1.00866 -0.00316707 -1.21568e-23)
(1.00884 -0.00290026 3.04607e-27)
(1.00829 -0.00374256 6.31804e-24)
(1.00847 -0.00345162 3.16771e-27)
(1.00817 -0.00453598 5.68621e-27)
(1.00816 -0.00407046 0)
(1.00841 -0.00619942 6.79752e-24)
(1.00837 -0.00527735 3.40837e-27)
(1.00757 -0.00718495 7.02851e-24)
(1.00791 -0.00689557 0)
(1.00775 -0.00816694 5.11127e-22)
(1.00801 -0.00727501 0)
(1.00426 -0.0109678 2.21595e-21)
(1.00608 -0.0093016 -2.41985e-21)
(1.00277 -0.0165985 0)
(1.00313 -0.0127134 2.51257e-22)
(1.00173 -0.0187877 8.23373e-21)
(1.00236 -0.0185234 -7.83554e-21)
(1.00378 0.0119913 2.48415e-22)
(1.0032 0.0144326 2.0761e-21)
(1.00374 0.0127753 -2.00446e-21)
(1.00495 0.0078077 5.98778e-23)
(1.00375 0.00869435 7.57022e-24)
(1.00722 0.00776421 0)
(1.00633 0.00828975 0)
(1.00787 0.00503241 -3.3775e-24)
(1.00791 0.00630455 0)
(1.00722 0.00447055 0)
(1.00735 0.00457984 0)
(1.00768 0.00399193 -3.14024e-24)
(1.00743 0.00415516 0)
(1.00834 0.00342472 0)
(1.00799 0.00380991 0)
(1.0088 0.00260858 0)
(1.00861 0.00298872 0)
(1.00907 0.00207313 -1.72652e-27)
(1.00894 0.00231653 0)
(1.00932 0.00163947 0)
(1.00919 0.00184666 0)
(1.00953 0.00129807 -5.01526e-27)
(1.00943 0.00145642 5.30989e-27)
(1.00971 0.00103611 4.82148e-24)
(1.00962 0.00115648 5.05799e-27)
(1.00987 0.000820641 9.15822e-24)
(1.00979 0.000925785 4.50157e-27)
(1.01006 0.000629113 -2.51391e-27)
(1.00995 0.000732453 0)
(1.01023 0.000503903 4.09188e-24)
(1.01012 0.000544087 -4.29967e-27)
(1.01019 -7.71128e-05 3.81495e-27)
(1.01045 0.000396685 -4.04549e-27)
(1.01099 0.000349519 0)
(1.01035 0.00123395 0)
(1.01075 -0.00015197 -2.87825e-22)
(1.01074 -0.000818041 4.55533e-22)
(1.00931 0.000758218 0)
(1.01158 0.000534954 -5.56437e-23)
(1.0098 -0.0036789 0)
(1.00773 0.00283678 0)
(1.00889 -0.0039659 -5.77838e-23)
(1.0106 0.000766728 -1.59023e-21)
(1.00988 0.00503883 1.91892e-22)
(1.00879 -0.000762906 3.80003e-22)
(1.01106 0.00220464 7.66685e-27)
(1.01064 -0.00380494 0)
(1.01089 -0.000135286 9.04255e-26)
(1.01015 -0.0025409 0)
(1.01141 0.000255033 0)
(1.01112 -0.00071539 0)
(1.01019 4.2551e-05 -2.17813e-26)
(1.01098 0.000778985 0)
(1.01053 -0.000365691 0)
(1.01016 0.000494485 0)
(1.01376 0.00485763 0)
(1.0125 0.00113433 -3.7092e-22)
(1.00042 -0.0034842 0)
(1.01536 -4.97745e-05 7.50349e-22)
(1.00098 0.0183573 8.36466e-21)
(1.00313 0.0180246 0)
(1.00115 -0.0219677 5.35447e-22)
(1.00209 -0.0213341 5.41393e-22)
(0.999635 0.00175504 -2.35413e-25)
(0.999466 -0.00080685 0)
(1.00913 0.00613583 0)
(0.998571 0.00349538 -7.11674e-25)
(0.998465 -0.00281628 -8.80473e-26)
(1.00203 -0.00165616 2.55486e-21)
(1.02838 -0.0102064 0)
(1.0179 0.0206563 0)
(0.997762 0.00560427 -1.92644e-24)
(0.997138 -0.00494737 -1.94176e-24)
(0.997073 0.00852369 0)
(0.996232 -0.00694602 1.56224e-23)
(0.996713 0.0100913 0)
(0.996444 -0.0100686 0)
(0.998783 0.0153547 0)
(0.996672 -0.0145414 1.00498e-21)
(0.99912 0.0173267 5.23366e-23)
(0.998116 -0.01709 2.61655e-22)
(1.0028 0.0207714 0)
(1.00092 0.0204763 -4.43331e-21)
(0.998982 -0.0213349 -4.79668e-21)
(1.00199 -0.0251095 8.66878e-21)
(1.00275 -0.024053 -8.72163e-21)
(0.999468 0.000298243 -7.24201e-27)
(1.00128 0.0137921 9.26019e-22)
(1.02379 -0.0148682 0)
(1.00886 0.00113402 -2.28738e-22)
(1.01601 -0.00490436 -4.22051e-22)
(1.00993 -0.00141925 0)
(1.01179 -0.000914829 2.21009e-22)
(1.01024 3.10328e-05 0)
(1.01006 -0.000996833 6.10132e-23)
(1.01014 -0.00130548 4.09231e-24)
(1.0104 -0.000293525 0)
(1.01013 -0.00106451 8.68609e-24)
(1.01016 -0.000492118 0)
(1.01003 -0.00112054 1.68788e-27)
(1.01006 -0.000983063 0)
(1.00991 -0.00131169 -4.8392e-24)
(1.00996 -0.00120713 -4.8511e-27)
(1.00982 -0.00155019 5.08643e-24)
(1.00987 -0.00142405 5.10149e-27)
(1.00968 -0.00186389 -5.34682e-24)
(1.00975 -0.00169348 5.02088e-27)
(1.0095 -0.00228137 -5.39672e-27)
(1.0096 -0.00206174 5.25496e-27)
(1.00929 -0.0027963 -5.84237e-24)
(1.0094 -0.00252621 5.84966e-27)
(1.00906 -0.00344584 1.21605e-23)
(1.00918 -0.00310165 0)
(1.0088 -0.00427753 -8.74328e-28)
(1.00893 -0.00383801 6.34185e-27)
(1.00847 -0.00534448 -1.31316e-23)
(1.00864 -0.00477619 0)
(1.00851 -0.00676408 -6.79423e-24)
(1.0084 -0.00599902 -6.82634e-27)
(1.00909 -0.00918885 0)
(1.00881 -0.00782572 0)
(1.00871 -0.0112735 9.07393e-22)
(1.00903 -0.0102532 -9.52225e-22)
(1.00706 -0.012363 0)
(1.00815 -0.0124608 -4.61286e-28)
(1.00511 -0.0126925 3.20678e-22)
(1.00589 -0.0131864 -5.00265e-22)
(1.00467 -0.0189146 4.18441e-21)
(1.0046 -0.0141409 -4.17353e-21)
(1.00463 -0.0238557 0)
(1.00461 -0.0207071 -5.38849e-22)
(1.00499 0.0175859 1.01877e-21)
(1.00487 0.0205173 -2.87669e-22)
(1.00517 0.0184763 -2.10575e-21)
(1.00653 0.0124941 1.96248e-21)
(1.00537 0.0147673 -1.00364e-21)
(1.00774 0.0135787 9.26259e-22)
(1.00741 0.0141715 -2.93456e-21)
(1.0068 0.00908004 -3.49748e-24)
(1.00732 0.0110755 2.95846e-23)
(1.00766 0.00725758 3.3775e-24)
(1.00701 0.0079348 0)
(1.00839 0.00562835 1.28629e-26)
(1.00817 0.00646298 -1.36e-26)
(1.00855 0.00431092 -1.24007e-26)
(1.00846 0.00492909 1.31139e-26)
(1.0088 0.00331787 -3.02416e-24)
(1.00868 0.00375435 0)
(1.00905 0.00269886 1.14593e-26)
(1.00892 0.00298232 -1.21235e-26)
(1.00929 0.00218371 5.55138e-24)
(1.00917 0.00243374 1.16263e-26)
(1.0095 0.00174381 0)
(1.0094 0.0019537 0)
(1.00969 0.00138275 5.0751e-24)
(1.0096 0.00155654 -3.35831e-28)
(1.00985 0.0010732 -9.55407e-27)