/*--------------------------------*- C++ -*----------------------------------*\
  =========                 |
  \\      /  F ield         | OpenFOAM: The Open Source CFD Toolbox
   \\    /   O peration     | Website:  https://openfoam.org
    \\  /    A nd           | Version:  10
     \\/     M anipulation  |
\*---------------------------------------------------------------------------*/
FoamFile
{
    format      ascii;
    class       surfaceScalarField;
    location    "39.5";
    object      phi;
}
// * * * * * * * * * * * * * * * * * * * * * * * * * * * * * * * * * * * * * //

dimensions      [0 3 -1 0 0 0 0];

internalField   nonuniform List<scalar> 
57492
(
-0.00650894
9.02468e-05
0.00142832
0.00499037
0.00368219
-0.00464075
-0.00555038
-0.000765415
0.0022843
0.00793257
-0.00945146
0.0386401
0.0296046
-0.0060361
-0.0622086
-0.0831279
0.0348169
0.086951
0.0132938
-0.0126462
-0.00647242
0.00582488
-0.0241113
0.00690932
-0.00403302
0.021235
0.00472329
-0.0155408
0.0130094
-0.0407828
0.0388521
-0.0110788
0.0112025
0.0374251
-0.0356181
0.000659418
0.00314424
-0.00632975
0.00252609
0.00255319
0.00187542
-0.00376919
-0.000273812
0.00156661
0.00126039
0.00120532
0.00166511
0.0291966
-0.0254887
-0.0109623
0.00725439
0.00153483
0.0222703
0.00539148
-0.00276713
0.00716569
0.0352486
-0.0396472
-0.00673462
0.0348128
-0.0308453
0.00345646
-0.00753025
0.00407379
-0.0310569
0.0216621
0.0128513
-0.0479038
0.00475787
0.0349507
0.00819525
0.0095377
-0.0484183
-0.00902318
-0.00034308
0.00178601
-0.00300587
0.00156293
0.00158889
-0.00216249
0.00023052
-0.0340057
0.0356458
0.00397437
-0.00561447
-0.0523307
0.0281031
-0.00977819
-0.0185109
0.00708003
0.00938931
0.0020416
-0.0134748
-0.0056823
0.000646164
-0.00777326
-0.0224907
0.0270016
0.0032623
-0.00915643
0.00284812
-0.00146494
0.0138564
-0.00904236
-0.0084426
0.0036286
-0.0117854
0.00923872
0.0164031
-0.0179381
-0.0301457
0.0213663
0.0267174
-0.0335333
-0.0104503
0.0260455
-0.0207397
-0.00287551
0.0236152
-0.00640231
-0.0143374
-0.0321552
0.0399249
-0.014172
0.00529836
-0.020855
-0.0165985
-0.0113118
0.0182212
-0.00903901
-0.0377773
0.0203122
0.0174651
-0.0730354
0.0352581
0.0428963
0.00638363
-0.0100729
-0.039207
0.0302173
-0.0144091
0.0270881
0.00647391
0.047156
-0.0472463
0.0256929
0.00460284
-0.0255725
0.0247774
-0.0031175
0.0296864
-0.0105065
-0.0219251
0.00274527
0.0334554
0.000833845
0.0197711
-0.0117011
0.0167074
0.0098254
0.0311807
-0.0425692
-0.00481916
0.0039458
0.0434426
-0.0438917
-0.00175326
0.00307577
0.00924311
0.0396188
-0.0390365
-0.00982536
0.00639317
-0.0379328
-0.023737
0.0406435
0.0338914
-0.0507979
0.00812508
0.0472684
-0.0791305
-0.000844452
0.00146208
0.000216481
-0.00083411
0.00180253
-0.00108037
-0.00030102
0.00131681
0.000786743
0.0012024
-4.13379e-05
-0.000345293
0.000561774
-0.000369278
2.39851e-05
0.0942508
0.0394548
-0.0648028
-0.0689027
0.032862
-0.0200573
0.081446
-0.0830335
0.03244
0.0834556
0.0187982
-0.0623769
0.0103682
-0.0308179
0.0247542
-0.00430454
0.0267078
-0.0311498
0.0148103
0.00126225
-0.00136109
0.000189087
0.0020525
0.00063807
0.00548586
0.00155701
-0.033892
0.0608539
0.0260882
-0.05305
0.036122
-0.0433062
0.0203362
0.0546119
-0.0140942
0.146411
-0.0187998
-0.0355069
-0.0921041
0.0312649
0.0811448
0.0340011
0.0180303
-0.05918
0.0724146
0.0014251
-0.00219052
0.0037094
0.0162719
0.031074
-0.0129517
-0.0343942
0.0220025
0.00220198
0.00398033
-0.00176752
-0.00221281
0.0039682
1.21314e-05
-0.0851687
0.0397855
-0.0303868
0.07577
-0.0738042
-0.038277
0.0269126
-0.0405474
0.0364883
-0.0697452
0.0422431
-0.000757014
-0.0210793
-0.0204068
-0.0167778
0.0475037
0.0115172
-0.0207311
-0.00206743
0.00602071
-0.0188674
-0.00262072
-0.00700257
-0.0329441
-0.0131566
0.00278411
0.00689537
0.00347712
0.00384353
-0.00583628
-0.0111639
0.00719208
0.0027453
-0.00609386
0.00834191
0.00163428
0.0139835
0.00125381
-0.01745
0.0104474
0.002478
-0.019928
0.00376783
0.000200376
0.0464956
0.0310432
-0.00327164
0.017435
-0.0540672
-0.00314127
0.0358839
-0.0265345
-0.00620817
-0.00493104
0.0413963
-0.0396065
0.0316939
0.0202277
-0.00719153
-0.0447302
-0.00858173
0.00282239
0.0374533
0.0418409
-0.0301949
-0.014185
-0.0294234
0.00920422
0.0344042
-0.0137597
0.0342492
-0.0346744
0.00145533
-0.0446385
5.70007e-05
0.000960972
0.000301345
0.00391181
-0.000311471
8.18453e-05
-0.0047047
0.00170739
0.00690912
-0.00810843
-0.00123702
-0.00447805
0.00999459
0.00213008
-0.00764662
0.0214709
-0.0233432
-0.00260574
-0.0106603
0.0223883
0.0097429
-0.00459266
0.00392696
-0.0689068
0.0369745
0.0717177
0.0748703
-0.0270224
-0.0861249
-0.033736
0.0396996
-0.0021039
-0.017316
-0.0030708
-0.0114717
0.000211336
-0.000656937
-0.00528846
0.00406718
0.00187821
-0.00326219
0.00112991
0.00147534
-0.00401973
-0.00453092
-0.0053648
-0.00733223
0.00122536
-0.0151372
-0.00754361
-0.0139218
-0.0145763
0.0174164
0.0110816
0.000860718
0.00671664
-0.0214991
-0.0192367
0.00552115
-0.046519
0.0173538
-0.00189173
-0.0464521
0.004117
-0.00418388
0.00229947
-0.036843
0.0325038
0.00203972
0.00200736
-0.0339779
0.03427
0.00251169
-0.11239
-0.0273628
0.0338877
0.0339383
-0.0439473
0.0424522
-0.00540284
-0.0043333
0.0070786
-0.00334592
-0.000987377
0.00649977
-0.00119211
0.0496907
-0.0316315
-0.0309322
0.0128729
0.0457207
0.0104439
0.05547
0.0105102
-0.0578551
0.0264865
0.0424762
-0.0134927
0.011438
-0.0287874
0.0438359
-0.00101459
-0.00233133
0.0144554
-0.0449215
-0.0464988
0.0277869
0.0562052
0.0151088
-0.000819567
-0.0157775
0.00148831
0.00494124
-0.00161787
-0.0195775
0.00371586
0.0251003
0.00305625
-0.0176925
-0.00368721
0.00121794
0.00990999
0.000278614
-0.00955791
-0.000630699
0.00140633
-0.000367131
0.00887079
0.00913343
0.0159279
-0.023655
-0.0213356
0.0374584
-0.012355
0.0698066
-0.0670665
-0.0240757
-0.000474371
-0.0257517
0.0299419
-0.0711333
-0.0012547
-0.052068
-0.0271895
0.00812418
0.0324541
0.0271391
-0.0548353
0.0219206
0.0495609
-0.0390274
0.0204086
-0.0330641
0.018764
-0.00610853
0.0220327
-0.0319921
0.030368
0.0466308
0.0154589
0.04368
-0.00239175
-0.0436204
0.00233209
0.0480639
-0.00607235
0.00168848
0.0493822
-0.00748694
0.0002722
-0.0421675
0.0352869
-0.0118061
0.0259014
0.0414619
-0.0105724
0.00811208
-0.0390016
0.00916152
0.0422241
-0.0099237
-0.0377756
-0.0132088
0.0404121
0.00742892
-0.0360003
-0.0140616
0.0352569
-0.0188406
-0.0323945
0.0165394
0.0346957
-0.0194214
-0.0330568
0.0336376
0.0180539
0.0315252
-0.010928
-0.0386511
0.0310784
-0.0324459
-0.0211746
0.020961
0.0312919
-0.0168001
0.0271507
-0.041224
0.0365923
-0.00629624
-0.0535379
0.00569456
0.0551559
-0.0073126
0.0150135
-0.00605895
0.0221551
-0.0216116
0.00551537
-0.00428327
0.0296505
-0.0314261
-0.000141576
4.91402e-05
-0.00801599
-0.0186626
-0.0286164
0.0177729
0.00085468
-0.00122181
1.56958e-05
0.000838984
-0.00340912
-0.0323696
0.0240776
-0.028305
-0.00292113
0.027817
0.00203167
-0.0295564
-0.000780181
-0.0207021
0.0138965
0.0199196
-0.0131141
0.0269655
-0.0196099
-0.0280577
0.00381605
0.037046
0.00014123
0.000473387
0.000346354
0.00046656
-0.00032533
0.000939948
0.000283383
-0.000279993
0.00119901
-0.000240443
0.000523826
-0.000520436
0.00107769
-7.44147e-05
0.000585616
-0.00103326
0.00211095
-0.00110767
0.00260722
-0.000263434
-0.00693645
-0.000971533
0.00357875
-0.00123497
0.0118728
0.0314691
-0.0405195
0.0145626
-0.0429193
0.0402295
0.0442604
0.00177136
-0.0139792
-0.024673
0.013918
0.0247342
-0.00539543
0.0258749
-0.0344586
0.00399754
-0.0340659
0.0340196
-0.0343051
-0.00263119
0.00291667
0.0341284
0.00154944
-0.00165827
-0.00637097
-0.0342854
0.00635127
0.0345866
0.00496495
-0.00542312
0.0355674
0.00905653
-0.0100374
0.0120399
0.0368718
-0.0133443
0.0352532
-0.0345855
0.0113722
0.0126749
0.039271
-0.0150741
0.0345061
0.013422
-0.0331188
0.00758987
-0.0327686
0.00461471
-0.0326077
0.00138857
-0.0332819
-0.00195702
-0.0328356
-0.00681731
0.0151118
0.0415046
-0.0173455
0.0331856
0.0164323
-0.00980786
-0.0340788
0.00960129
-0.033357
-0.0092864
-0.0129218
-0.0359913
0.0148343
0.0186715
0.0421067
-0.0192735
0.0337549
0.0181022
-0.0347705
-0.0115083
0.0424953
0.0200287
-0.0204173
0.0208181
0.0430213
-0.0213441
0.034195
0.0195887
0.0347216
0.0202915
-0.0153988
-0.0360315
0.015439
-0.0350778
-0.0150915
0.0213498
0.0432747
-0.0216032
0.0350806
0.0209909
-0.0174994
-0.0362663
0.0177342
-0.0354713
-0.0171059
0.0214615
0.043662
-0.0218487
0.0355185
0.0210235
-0.0191158
-0.0364514
0.0193009
-0.035783
-0.0188041
0.0215024
0.0437562
-0.0215966
0.035776
0.021245
-0.0202246
-0.0367635
0.0205368
-0.0362557
-0.0197519
0.0212871
0.0439848
-0.0215157
0.0361288
0.0209343
-0.0208376
-0.037006
0.0210801
-0.0366165
-0.0204768
0.0211569
0.0439055
-0.0210776
0.0363265
0.0209591
-0.0210001
-0.0374473
0.0214413
-0.0370045
-0.020612
0.0209018
0.0439307
-0.0209269
0.036678
0.0205503
-0.0209376
-0.0367824
0.0202728
-0.0368171
-0.0211251
0.0208638
0.0435665
-0.0204996
0.0365532
0.0209885
-0.020985
-0.0370478
0.0212504
-0.0370798
-0.0207223
0.0208577
0.0431308
-0.0204221
0.0363099
0.0211011
-0.0207312
-0.0363553
0.0200387
-0.036491
-0.02132
0.0226572
0.0405764
-0.0201027
0.0375018
0.0214653
-0.0207344
-0.0364972
0.0208763
-0.036514
-0.0207114
0.0225562
0.0378783
-0.0198581
0.0380777
0.0219803
-0.0207487
0.020573
-0.0363215
-0.0368584
-0.0204044
0.0212273
-0.0208018
0.0374528
0.0378879
0.021417
-0.036718
0.0372504
0.0203439
-0.0366885
0.0205435
-0.0204438
0.0208707
-0.0367484
-0.0209489
-0.0363533
-0.0367194
0.0365849
0.0213849
0.0205697
-0.0353475
0.0351782
0.0216106
0.0215102
-0.0350107
0.0348458
0.0207017
0.0212476
-0.0346844
0.0345361
0.0178825
0.0194623
-0.0343929
0.0363223
0.0129049
0.0155822
-0.0362349
0.035678
0.00690816
0.00968874
-0.0368882
0.0367021
-0.00147213
0.00170643
-0.0355832
0.0351959
-0.00965002
-0.00430423
-0.0346209
0.0348942
-0.0153473
-0.0127693
-0.0351889
0.0354896
-0.0195742
-0.0176402
-0.0357782
0.0360364
-0.0216023
-0.020706
-0.0362483
0.0364105
-0.022011
-0.0218151
-0.0365208
0.0365832
-0.0215781
-0.0217069
-0.0366015
0.0365803
-0.0209057
-0.0210958
-0.0365239
0.0364322
-0.0203304
-0.0204432
-0.0364308
0.036637
-0.0200644
-0.0201013
0.0360528
-0.0202176
0.0212345
-0.0203677
0.036586
0.0214456
0.0376768
0.0379993
-0.0369919
0.0204578
-0.0384866
0.0384776
0.021426
0.021493
0.0368179
-0.0362063
0.0203768
0.0209271
0.0359771
-0.0356992
0.0206812
0.0203212
0.0353735
-0.0349893
0.0208607
0.0206086
0.0345528
-0.0340592
0.0204973
0.020587
0.0335267
-0.0329623
0.0190242
0.019759
0.0323997
-0.0318703
0.0159029
0.0175396
0.031986
-0.0315862
0.0109724
0.0135377
0.0318148
-0.0312831
0.00408302
0.00781852
0.0309848
-0.0308014
-0.00214045
0.00109023
0.0313282
-0.0317116
-0.00890306
-0.00629046
0.0311022
-0.0314523
-0.0147414
-0.0121176
0.0318667
-0.0323281
-0.0183427
-0.0166915
0.0328149
-0.0333154
-0.0199763
-0.0192651
0.0338094
-0.0346486
-0.020286
-0.020118
0.0352097
-0.0362505
-0.0202792
-0.0201611
0.0366922
-0.0364658
-0.0206307
-0.0202697
-0.0367906
-0.0206241
-0.0366728
0.0208551
0.0361126
-0.0204275
0.0210638
0.0388595
-0.0208867
0.0212068
-0.0366734
-0.0206604
-0.0370169
-0.021258
0.0210911
-0.0365058
-0.0367997
-0.0366462
0.0362078
0.0207824
0.0367483
-0.0367862
0.020893
0.0206456
-0.0359127
0.0359634
0.0213342
0.0208648
-0.0359295
0.0358798
0.0216603
0.0215441
-0.0358283
0.0357778
0.0207522
0.0212991
-0.0357265
0.0356779
0.0179311
0.0195136
-0.0356333
0.0355741
0.0129641
0.0156268
-0.0355348
0.0362204
0.00622258
0.009728
-0.0355155
0.0355419
-0.00149859
0.00241136
-0.0366294
0.0361389
-0.00915952
-0.00539171
-0.0358712
0.0360603
-0.0155365
-0.0125016
-0.0362619
0.0364624
-0.0197747
-0.0178417
-0.0366436
0.0367933
-0.0217521
-0.0208872
-0.0368997
0.0369599
-0.0220712
-0.0219215
-0.0369734
0.0369436
-0.0215483
-0.0217204
-0.0368752
0.0367713
-0.0208019
-0.0210274
-0.0366364
0.0364691
-0.0201631
-0.0203083
-0.0362086
0.0358848
-0.0197406
-0.0198408
-0.0210416
0.0213863
0.0362413
-0.020417
0.035488
-0.0352685
0.0349662
-0.0201252
-0.0196013
0.0385212
-0.0382779
0.0211827
0.0384767
0.0211083
-0.0210772
0.0218431
0.0380936
0.0379859
0.0379755
-0.0372046
0.019687
0.0211906
0.0364328
-0.0361701
0.0201142
0.0201553
0.0358715
-0.0355247
0.0203344
0.0200226
0.0351313
-0.0346796
0.020409
0.0202152
0.0341772
-0.0336189
0.019939
0.0200846
0.0330251
-0.0324029
0.018402
0.0191651
0.0317878
-0.0311996
0.0153147
0.0169245
0.030673
-0.030213
0.0105124
0.0130111
0.0298737
-0.0301093
0.00431863
0.00747914
0.0299452
-0.0295896
-0.00249601
0.000926123
0.0300674
-0.0299733
-0.00899718
-0.00581264
0.0303042
-0.030723
-0.0143226
-0.0117867
0.0311986
-0.0317292
-0.017812
-0.016216
0.0322915
-0.0328735
-0.0193944
-0.0187028
0.0334482
-0.0340001
-0.0197341
-0.0195433
0.0345133
-0.0349826
-0.0198099
-0.019648
0.0354082
-0.0358661
-0.0201729
-0.0198441
0.0361414
-0.0363391
-0.0204627
-0.0203487
-0.0366752
0.02098
-0.0214038
0.0211042
-0.0367173
-0.0366882
-0.0210547
0.0205611
-0.0361303
-0.0200797
0.0346289
0.038536
0.0217838
0.0219851
-0.021523
-0.0369679
0.0217311
-0.0364212
-0.0219242
0.0216511
-0.0364442
-0.0218785
-0.0367339
-0.0377617
0.0349806
-0.0356567
-0.0194492
0.0341572
-0.0192563
0.0220269
-0.0213707
0.0374373
0.0213901
0.0391728
-0.0360692
0.0368382
0.0209622
0.0219575
-0.0222428
-0.0361359
0.0356363
-0.0249895
0.0228383
-0.0334851
0.0215245
-0.0370876
0.0371135
0.0208671
0.0207307
-0.0368485
0.0366715
0.0209594
0.0209105
-0.0365579
0.0364716
0.0214205
0.0209783
-0.036541
0.03661
0.0215913
0.0214746
-0.0366788
0.0367477
0.0206833
0.0212303
-0.0368124
0.0368685
0.017875
0.0194488
-0.0369154
0.0369458
0.0129337
0.0155799
-0.0369724
0.0369849
0.00621015
0.00970133
-0.0370022
0.0370287
-0.00152509
0.00239398
-0.0370607
0.0371151
-0.00921391
-0.0054237
-0.0371959
0.0372956
-0.0156363
-0.0125823
-0.0373996
0.0374944
-0.0198695
-0.0179457
-0.0375655
0.0376029
-0.0217895
-0.0209583
-0.0375994
0.0375527
-0.0220244
-0.021918
-0.0374651
0.0373393
-0.0214225
-0.0216329
-0.0371814
0.0369929
-0.0206134
-0.0208695
-0.0367786
0.0365357
-0.0199201
-0.020094
-0.0362853
0.0357841
-0.0192394
-0.0195904
-0.0194739
-0.0205034
0.0204389
0.0363058
0.0202306
-0.0201816
0.0345799
0.0352151
0.0370542
0.0386008
-0.0380998
0.0206817
-0.0389458
0.0393131
0.0214165
0.0207632
0.0370629
-0.0371178
0.0197419
0.0201538
0.0364999
-0.0361716
0.0197859
0.0195374
0.0358094
-0.0354004
0.0199254
0.0196604
0.0349469
-0.0344365
0.0198986
0.0197617
0.0338782
-0.0332665
0.0193272
0.0195264
0.0326228
-0.0319537
0.0177329
0.0185214
0.0312948
-0.0306624
0.0146822
0.0162656
0.0300944
-0.0296094
0.0100274
0.0124432
0.0292443
-0.0290007
0.00407502
0.00711407
0.0288851
-0.0289037
-0.00247742
0.00081056
0.02905
-0.029302
-0.00874518
-0.00566639
0.0296626
-0.0301158
-0.0138694
-0.0114262
0.0306435
-0.0312356
-0.0172199
-0.0156883
0.0318657
-0.0325187
-0.0187414
-0.0180727
0.033162
-0.0337812
-0.0191148
-0.0189
0.0343558
-0.0348879
-0.0192778
-0.0190734
0.0353783
-0.0358429
-0.0197083
-0.0193536
0.0362529
-0.0362881
-0.0204275
-0.0199387
0.0366505
-0.0375338
-0.0209951
-0.0206924
-0.0220698
0.0226457
-0.0373098
-0.037823
-0.0217807
-0.0217707
-0.03744
0.0220418
-0.036521
-0.0194356
0.0334113
0.0396587
0.0210445
-0.0219484
-0.039177
0.022808
-0.0366065
-0.0163155
-0.0333602
0.0534918
0.0227255
-0.022564
-0.0379845
0.02276
-0.0373442
-0.0260825
0.0380709
0.0250576
-0.0256812
0.0195184
-0.0374905
-0.0350019
0.0361625
0.0216777
0.0230757
-0.0200067
-0.0364714
0.0366994
0.0207341
0.0212157
-0.036698
0.0366377
0.0209274
0.0207321
-0.0367623
0.0368024
0.0209193
0.020786
-0.0368192
0.0369991
0.0212406
0.0209616
-0.037178
0.0373636
0.0214057
0.0212958
-0.0375527
0.037742
0.020494
0.0210412
-0.0379229
0.0380878
0.0177101
0.0192679
-0.0382314
0.0383473
0.0128178
0.0154363
-0.0384353
0.0384931
0.00615244
0.00961329
-0.0385273
0.0385434
-0.00154113
0.0023597
-0.0385491
0.0385553
-0.00922016
-0.0054294
-0.0385652
0.0385769
-0.015648
-0.0125922
-0.0385818
0.0385679
-0.0198556
-0.0179506
-0.0385252
0.0384461
-0.0217104
-0.0209157
-0.0383286
0.0381718
-0.0218676
-0.0218005
-0.0379812
0.0377586
-0.0211999
-0.0214423
-0.0375115
0.0372395
-0.0203413
-0.0206224
-0.0369477
0.0366316
-0.019604
-0.0198022
-0.036218
0.0360822
-0.0191035
-0.0191769
-0.0354482
0.0347563
-0.0187572
-0.0188399
-0.0342795
0.0332159
-0.018372
-0.0187795
-0.0192366
0.0197374
0.0340792
0.0194541
-0.0191795
0.0329412
0.0336288
-0.0198697
0.0205643
0.0356111
0.0350828
-0.0209185
0.0208222
0.0375337
0.0367
-0.0211301
0.0208508
0.039938
0.0388649
0.0398893
-0.0392573
0.0207845
-0.0411904
0.0397639
0.0222773
0.0197434
0.0386478
-0.0381794
0.0202132
0.0201537
0.037289
-0.0369509
0.0194038
0.0192634
0.0365947
-0.0362072
0.0193984
0.0191811
0.0357881
-0.0353242
0.0194615
0.0192413
0.0348185
-0.0342583
0.0193384
0.0192559
0.0336538
-0.0329989
0.0186724
0.0189219
0.0323162
-0.031611
0.0170278
0.0178386
0.0309191
-0.0302557
0.0140188
0.0155737
0.0296599
-0.0291511
0.00951855
0.0118474
0.0287608
-0.0284942
0.00380843
0.00672373
0.0283635
-0.0283716
-0.0024693
0.000679874
0.0285097
-0.0287726
-0.00848224
-0.00552831
0.0291506
-0.0296336
-0.0133863
-0.0110482
0.0302023
-0.0308457
-0.0165765
-0.0151196
0.0315328
-0.0322451
-0.018029
-0.0173856
0.0329461
-0.0336207
-0.0184402
-0.0181991
0.0342478
-0.0348332
-0.0186924
-0.0184463
0.0353784
-0.035901
-0.0191857
-0.0188084
0.0364073
-0.0369096
-0.0199251
-0.0194324
0.0373102
-0.0373987
-0.0209066
-0.0202918
0.0383141
-0.038769
-0.0221091
-0.0208653
-0.0230301
0.0235384
-0.0384927
-0.0389404
-0.0228588
-0.0222709
-0.0371176
0.0228301
-0.0365431
-0.0208948
-0.0345977
0.0233383
-0.0371848
0.0339253
-0.0343493
-0.017948
0.0327795
-0.0180337
0.0209632
-0.0206507
0.0396255
0.0199775
0.0407497
-0.0213781
-0.031592
0.0237405
-0.0375464
-0.0386417
-0.000153645
-0.0313359
0.0343113
0.0220821
-0.0236937
0.0238118
-0.0386108
-0.0230768
-0.0395573
-0.030134
0.0183165
-0.0369313
-0.0351637
0.0356524
0.0211891
0.0222233
-0.0359946
0.0359109
0.0208178
0.0208735
-0.0360429
0.0363796
0.0205907
0.0206001
-0.0366865
0.0369761
0.0206296
0.020479
-0.0372569
0.0375382
0.0209593
0.0206809
-0.0378267
0.0381269
0.0211055
0.0210073
-0.0384332
0.0387401
0.0201871
0.020735
-0.0390344
0.039307
0.0174375
0.0189735
-0.0395464
0.0397447
0.0126195
0.0151969
-0.0398954
0.0399965
0.00605132
0.00946262
-0.0400491
0.0400621
-0.00155409
0.00230709
-0.0400441
0.0400041
-0.00918018
-0.00541142
-0.0399482
0.0398756
-0.0155754
-0.0125363
-0.0397823
0.0396591
-0.0197324
-0.0178573
-0.0395016
0.0393048
-0.0215135
-0.0207581
-0.0390724
0.0388051
-0.0216003
-0.0215681
-0.0385118
0.0381934
-0.0208816
-0.0211489
-0.0378588
0.0375055
-0.019988
-0.0202878
-0.0371389
0.0367517
-0.0192169
-0.0194356
-0.0363454
0.0359115
-0.0186696
-0.0187706
-0.0354109
0.0348365
-0.0181828
-0.0183393
-0.0182923
-0.0187897
0.0187157
0.0341532
0.0184132
-0.0183125
0.0328405
0.0332522
-0.0192435
0.0194712
0.0353833
0.0345551
-0.0201471
0.0207239
0.0369569
0.0360241
0.0389381
0.0401938
-0.0395028
0.0200934
-0.039883
0.0414901
0.0206702
0.0200543
0.0389248
-0.0379139
0.0192023
0.0195757
0.0375283
-0.0371288
0.0190042
0.0188779
0.0367154
-0.036274
0.018957
0.0187677
0.0358047
-0.0352929
0.0189497
0.018772
0.0347428
-0.0341414
0.018737
0.0187059
0.0334999
-0.0328117
0.0179842
0.0182804
0.0320999
-0.0313692
0.0162971
0.0171268
0.0306547
-0.0299705
0.0133347
0.0148592
0.0293558
-0.0288278
0.00899048
0.0112327
0.0284168
-0.0281306
0.00352231
0.00631274
0.0279845
-0.0279769
-0.00247687
0.000533683
0.0281087
-0.0283751
-0.00821582
-0.00539655
0.0287649
-0.0292713
-0.01288
-0.0106584
0.0298733
-0.0305585
-0.0158914
-0.0145176
0.0312921
-0.0320523
-0.0172688
-0.016652
0.0327993
-0.0335181
-0.0177214
-0.0174521
0.0341885
-0.0348189
-0.018062
-0.0177759
0.035412
-0.0359866
-0.0186111
-0.0182153
0.036548
-0.0371095
-0.0193636
-0.0188711
0.0376732
-0.0382491
-0.0203308
-0.0197281
0.0383044
-0.0388989
-0.0215145
-0.02081
0.0396957
-0.0401871
-0.0225854
-0.022062
-0.0235623
0.0238367
-0.0398317
-0.0409332
-0.0228162
-0.022654
-0.0353584
0.0233643
-0.0365691
-0.0175813
0.0320482
0.0414869
0.0199806
-0.0223866
-0.0335892
-0.0268523
-0.0398471
-0.023956
-0.0344882
0.0238297
-0.0372739
0.0241888
-0.0379233
-0.042388
0.0121004
-0.0203264
0.0146415
-0.0367031
-0.0240584
-0.0361151
0.0240651
-0.0388393
-0.0238309
0.0237316
-0.0397324
-0.0231119
-0.0416522
-0.036221
-0.0313226
0.0330264
0.0203783
0.0316377
-0.0350156
0.0154783
0.0186316
-0.0341801
0.034684
0.0206852
0.0210696
-0.0352135
0.0356981
0.0203332
0.0203439
-0.0361406
0.0365533
0.020178
0.0201576
-0.0369425
0.0373198
0.0202522
0.0200899
-0.0376929
0.0380748
0.0205773
0.0203078
-0.0384688
0.0388792
0.020695
0.0206133
-0.0392973
0.0397164
0.019768
0.0203169
-0.0401191
0.0404941
0.0170626
0.0185708
-0.0408242
0.0411008
0.012343
0.0148668
-0.0413117
0.0414557
0.00590734
0.00925167
-0.0415293
0.0415446
-0.00156935
0.00223348
-0.0415078
0.0414281
-0.00910051
-0.00537466
-0.0413128
0.0411614
-0.0154241
-0.012421
-0.0409737
0.0407437
-0.0195023
-0.0176696
-0.0404729
0.0401599
-0.0212006
-0.0204874
-0.0398144
0.0394386
-0.0212245
-0.0212226
-0.0390451
0.038634
-0.0204705
-0.0207554
-0.0382154
0.0377847
-0.0195573
-0.0198691
-0.0373478
0.0368954
-0.0187645
-0.0189987
-0.0364293
0.0359368
-0.0181771
-0.0183044
-0.0354198
0.0350193
-0.0177823
-0.0178223
-0.0342501
0.0335668
-0.0172647
-0.017523
-0.0325001
0.0317743
-0.0168555
-0.016967
-0.0169169
0.0174067
0.0323507
0.0172018
-0.0163234
0.0308959
0.0323332
-0.0176638
0.0181801
0.0336369
0.0329951
-0.0185152
0.0187678
0.0351308
0.0342199
-0.0189263
0.0189826
0.0369005
0.0358656
-0.0195777
0.0196831
0.0395202
0.038343
-0.019507
0.0191944
0.0417996
0.0409258
0.0418986
-0.0408752
0.0196469
-0.0423523
0.0422737
0.019273
0.0195269
0.0401923
-0.039581
0.0194822
0.0193713
0.0386718
-0.0382211
0.0187517
0.0186664
0.0377767
-0.0373216
0.0185491
0.0184335
0.0368577
-0.0363684
0.0184677
0.0183038
0.0358554
-0.0353028
0.0183971
0.018259
0.0347159
-0.0340813
0.0181024
0.018119
0.0334111
-0.0326985
0.0172716
0.0176102
0.0319667
-0.0312195
0.0155498
0.016395
0.030491
-0.0297942
0.0126378
0.0141308
0.0291669
-0.0286246
0.0084482
0.0106054
0.0281974
-0.0278945
0.00321942
0.0058855
0.0277319
-0.0277115
-0.00249726
0.000371086
0.0278348
-0.0281004
-0.00795024
-0.00527327
0.0284982
-0.0290227
-0.0123555
-0.0102605
0.0296516
-0.0303704
-0.0151726
-0.0138887
0.0311404
-0.0319366
-0.0164726
-0.015882
0.0327172
-0.0334681
-0.0169704
-0.0166715
0.0341713
-0.0348379
-0.0173954
-0.0170727
0.0354714
-0.0360914
-0.0179911
-0.0175818
0.0367019
-0.0373173
-0.0187482
-0.0182605
0.0379382
-0.0385758
-0.0196932
-0.0191072
0.0392296
-0.0399082
-0.0208359
-0.0201562
0.0406045
-0.0411308
-0.022059
-0.0213657
0.0416968
-0.0421949
-0.0226139
-0.0222502
-0.0233748
0.0233037
-0.0415811
-0.0427676
-0.0228021
-0.0233408
-0.0344042
-0.0351193
0.0147452
-0.0236508
-0.0338945
0.0319248
-0.0329209
-0.0158594
0.0311793
-0.0155779
0.0190139
-0.0186949
0.0414806
0.0186415
0.0426461
0.0237893
-0.0365288
0.0242095
-0.0372946
-0.0232048
-0.0353418
0.024437
-0.0382952
0.0243977
-0.0395053
0.0239985
-0.0404272
-0.0226738
0.0229322
-0.0418395
-0.0225678
-0.0428736
-0.0357725
-0.032412
0.0310931
0.0167972
0.0139874
-0.0155711
-0.0335357
0.0331015
-0.0335759
0.0144618
0.0154348
-0.0312446
0.0326592
0.0189637
0.0184802
-0.0338564
0.0345988
0.0199429
0.0198723
-0.0351985
0.0357491
0.0197826
0.0197442
-0.036258
0.0367395
0.0196964
0.0196488
-0.0372011
0.0376577
0.0197957
0.0196283
-0.0381165
0.0385914
0.0201025
0.0198489
-0.0390834
0.0395963
0.0201821
0.0201213
-0.0401184
0.0406416
0.0192449
0.0197948
-0.0411444
0.0416137
0.0165933
0.018068
-0.0420281
0.042377
0.011994
0.0144524
-0.0426459
0.042831
0.00572224
0.00898275
-0.0429335
0.0429552
-0.00159108
0.00213104
-0.0429068
0.0427955
-0.00898919
-0.00532624
-0.0426284
0.0424054
-0.0152011
-0.0122539
-0.0421294
0.0417974
-0.0191703
-0.0173935
-0.0414176
0.0409926
-0.0207756
-0.0201077
-0.0405381
0.0400585
-0.0207448
-0.0207681
-0.0395694
0.0390707
-0.0199719
-0.0202663
-0.0385732
0.0380706
-0.0190548
-0.0193716
-0.037569
0.0370572
-0.0182526
-0.0184971
-0.0365374
0.0359948
-0.0176345
-0.0177847
-0.0354319
0.0348376
-0.017188
-0.0172594
-0.0341645
0.0335977
-0.016698
-0.0168499
-0.0162901
-0.0159622
0.0161536
0.0321593
0.0150246
-0.0151196
0.0309909
0.0313956
-0.0167306
0.0171535
0.033214
0.0324182
-0.0175024
0.0177696
0.0348636
0.033871
-0.0179451
0.0180247
0.036821
0.03569
-0.0186243
0.0186391
0.0395054
0.0377434
0.0408699
0.042258
-0.0416918
0.0190806
-0.0427561
0.0433309
0.0186981
0.0190289
0.0405804
-0.039548
0.0184499
0.0182599
0.0390347
-0.0385259
0.018243
0.018153
0.0380291
-0.037525
0.018045
0.0179366
0.0370169
-0.0364862
0.017937
0.0177958
0.035936
-0.0353494
0.0178105
0.0177088
0.0347327
-0.0340722
0.0174419
0.0175024
0.033381
-0.0326516
0.0165423
0.0169189
0.0319075
-0.031151
0.0147934
0.0156509
0.0304155
-0.0297121
0.0119344
0.0133952
0.0290774
-0.0285253
0.00789616
0.00997069
0.0280859
-0.027769
0.00290259
0.00544603
0.027592
-0.0275592
-0.00253008
0.000194099
0.0276743
-0.0279379
-0.00768663
-0.00515824
0.0283413
-0.0288804
-0.0118165
-0.00985704
0.0295311
-0.0302762
-0.0144275
-0.013238
0.0310728
-0.0318935
-0.0156519
-0.0150854
0.0326956
-0.0334674
-0.0161987
-0.0158694
0.0341931
-0.0348867
-0.0167018
-0.016347
0.0355524
-0.0362096
-0.0173339
-0.0169161
0.0368615
-0.0375228
-0.0180869
-0.0176086
0.0381942
-0.0388894
-0.018998
-0.0184358
0.0396083
-0.0403611
-0.0200831
-0.0194373
0.04114
-0.0419442
-0.0212549
-0.0205869
0.0424824
-0.0428845
-0.0222118
-0.021712
0.0436281
-0.0443919
-0.021804
-0.0220585
0.0192346
-0.0184887
-0.036861
-0.0330396
-0.0213446
0.0217337
-0.0432627
-0.0444295
-0.021307
-0.0238241
-0.0342309
-0.014385
0.0304447
0.0442639
0.0177085
-0.0146333
-0.0319049
0.0129624
0.0240862
-0.0364055
-0.0155445
-0.0326245
-0.0235639
-0.0335354
0.0243664
-0.037224
-0.0219927
-0.0318379
0.0243725
-0.03827
0.0240062
-0.039513
0.0231775
-0.0406725
0.0215507
-0.0416565
-0.0197884
0.0195957
-0.0430701
-0.0196906
-0.0445272
-0.0355104
-0.0318268
0.0313542
0.0149344
0.0102209
-0.0301651
-0.0119607
0.0318148
-0.0298732
0.00827927
0.0129503
-0.0314026
0.0315008
0.016699
0.0153864
-0.0321153
0.0325874
0.0184915
0.0178657
-0.0336693
0.0345426
0.0190696
0.0187904
-0.0352074
0.035821
0.0191691
0.0190793
-0.0363914
0.0369352
0.0191527
0.0190783
-0.0374609
0.0379861
0.0192704
0.0191026
-0.0385193
0.0390749
0.0195469
0.0193158
-0.0396529
0.0402565
0.0195785
0.0195434
-0.040871
0.0414869
0.0186289
0.0191802
-0.0420794
0.0426336
0.0160391
0.0174756
-0.043125
0.0435418
0.0115772
0.013961
-0.0438677
0.0440971
0.00549281
0.00865686
-0.044228
0.0442639
-0.001627
0.00200019
-0.0442118
0.0440777
-0.00885511
-0.00527416
-0.0438679
0.0435815
-0.0149147
-0.0120441
-0.0432246
0.0427974
-0.0187431
-0.0170366
-0.0423152
0.0417846
-0.020245
-0.0196254
-0.0412278
0.0406511
-0.0201681
-0.0202113
-0.0400735
0.0394941
-0.0193924
-0.0196887
-0.0389245
0.0383568
-0.018487
-0.018802
-0.0377969
0.0372323
-0.017688
-0.0179372
-0.0366653
0.0360802
-0.0170494
-0.0172177
-0.0354789
0.0348475
-0.0165566
-0.0166581
-0.034196
0.0335669
-0.0160689
-0.0161985
-0.0329359
0.0321577
-0.0150812
-0.0156591
-0.0309943
0.030329
-0.0137198
-0.0144145
-0.013354
0.0138242
0.0305207
0.0133199
-0.0125933
0.0296024
0.0304106
-0.0142254
0.0149311
0.0314536
0.0309944
-0.0154086
0.0158319
0.0327907
0.0319407
-0.0161853
0.0164616
0.0345872
0.0335176
-0.0166509
0.016749
0.0367228
0.0355008
-0.0167523
0.017232
0.0390256
0.0377402
-0.0172086
0.0169733
0.0417159
0.0408933
-0.0163302
0.0164431
0.044151
0.0432892
0.044191
-0.043253
0.0177601
-0.0447683
0.0452732
0.0159382
0.0171313
0.0424469
-0.0411312
0.0177649
0.0182229
0.0405361
-0.039947
0.0178608
0.0176648
0.0393809
-0.0388227
0.0176848
0.0175869
0.0382802
-0.0377343
0.017499
0.0173941
0.0371883
-0.0366229
0.0173716
0.0172498
0.0360418
-0.0354276
0.0171963
0.0171278
0.0347877
-0.0341078
0.016762
0.0168624
0.0334019
-0.0326621
0.0158026
0.016213
0.0319115
-0.0311516
0.0140335
0.0149003
0.0304142
-0.0297088
0.0112291
0.0126578
0.0290708
-0.0285128
0.00733819
0.00933264
0.0280647
-0.0277371
0.00257495
0.00499792
0.0275485
-0.0275052
-0.00257334
5.51756e-06
0.0276134
-0.0278756
-0.00742442
-0.0050501
0.0282846
-0.0288363
-0.0112648
-0.00944798
0.0295046
-0.0302689
-0.0136632
-0.0125698
0.0310824
-0.0319164
-0.0148179
-0.0142719
0.0327286
-0.0335105
-0.0154168
-0.0150571
0.0342496
-0.0349618
-0.0159896
-0.015608
0.0356514
-0.0363372
-0.0166481
-0.0162266
0.0370212
-0.0377182
-0.0173899
-0.0169245
0.0384291
-0.0391688
-0.0182583
-0.017725
0.0399381
-0.0407497
-0.0192715
-0.018668
0.041598
-0.0424851
-0.0203678
-0.0197385
0.0433922
-0.0443002
-0.0213038
-0.0208049
0.0448925
-0.045221
-0.0214755
-0.0214662
0.0456384
-0.0454967
-0.0198323
-0.0208896
0.0194503
-0.0198862
-0.0364251
-0.0291338
-0.0172835
0.017146
-0.0443898
-0.0459656
-0.0168146
-0.0237721
-0.0340226
0.0241399
-0.036179
-0.00776812
-0.0282157
0.00611061
-0.0281992
-0.009734
-0.0158197
-0.0287655
-0.0229383
-0.0325898
0.0241818
-0.0370333
0.0307846
-0.0314333
-0.0130711
0.0299071
-0.0117158
0.0149959
-0.0152363
0.0443914
0.0149086
0.0453605
-0.0207335
-0.0309905
0.023844
-0.0381079
0.0230277
-0.0393631
0.0216418
-0.0407636
0.0196613
-0.0417221
0.016579
-0.042503
0.00424901
-0.0267461
-0.0057186
-0.0264588
0.0281222
0.0025856
-0.0013498
-0.0259076
0.000798622
-0.0140235
-0.0432147
0.0128485
-0.0148414
-0.0451477
-0.0259854
-0.00211052
-0.0351427
-0.0272765
0.0269121
0.00864371
0.00695631
-0.0285947
0.0299967
0.0135323
0.0112677
-0.0304516
0.0310375
0.0161131
0.0149315
-0.0319929
0.032893
0.0175915
0.0169103
-0.0337328
0.0345159
0.0182864
0.0179506
-0.0352351
0.0359049
0.0184993
0.0183601
-0.0365317
0.0371325
0.0185519
0.0184515
-0.0377155
0.0383003
0.0186857
0.0185196
-0.038896
0.0395186
0.0189243
0.0187201
-0.0401678
0.0408467
0.0188995
0.0188942
-0.0415389
0.0422337
0.0179341
0.0184881
-0.0429037
0.0435327
0.0154101
0.0168056
-0.044094
0.0445746
0.0110967
0.0133997
-0.0449548
0.045231
0.00521661
0.00827664
-0.045393
0.0454489
-0.00168287
0.00183815
-0.0454006
0.0452524
-0.00870691
-0.00522592
-0.0450086
0.0446676
-0.0145737
-0.0118002
-0.0442379
0.0437236