/*--------------------------------*- C++ -*----------------------------------*\
  =========                 |
  \\      /  F ield         | OpenFOAM: The Open Source CFD Toolbox
   \\    /   O peration     | Website:  https://openfoam.org
    \\  /    A nd           | Version:  10
     \\/     M anipulation  |
\*---------------------------------------------------------------------------*/
FoamFile
{
    format      ascii;
    class       volVectorField;
    location    "39.5";
    object      U;
}
// * * * * * * * * * * * * * * * * * * * * * * * * * * * * * * * * * * * * * //

dimensions      [0 1 -1 0 0 0 0];

internalField   nonuniform List<vector> 
28942
(
(-0.136476 0.092144 -7.54078e-20)
(-0.131035 0.112865 -1.57568e-20)
(0.451338 -0.314994 1.53183e-20)
(1.01567 0.0423045 -1.55057e-19)
(0.993999 0.052122 5.07212e-20)
(0.282104 0.0121084 0)
(0.343631 0.0332495 1.90322e-22)
(0.380368 0.0101548 -1.22508e-22)
(1.18731 -0.137833 -8.18953e-21)
(1.17848 -0.125839 2.34539e-20)
(-0.108501 0.0658747 -9.07974e-20)
(-0.0806053 0.0402779 4.1193e-20)
(-0.0754649 0.0362001 0)
(-0.0656324 0.059508 0)
(0.747036 -0.0164577 -1.92395e-22)
(0.739669 -0.0138439 -7.70483e-23)
(0.945798 0.142747 2.802e-20)
(0.928807 0.13067 4.58258e-20)
(0.295625 -0.386932 1.46762e-19)
(0.577829 -0.624075 -4.06121e-20)
(1.02558 0.275425 3.21899e-20)
(1.02174 0.263039 0)
(0.0514411 0.000508369 8.81997e-20)
(-0.0507662 -0.0234028 4.87093e-20)
(0.638068 -0.137766 9.44045e-20)
(0.993384 -0.245417 -8.58098e-20)
(0.17769 -0.342839 4.99229e-19)
(0.182627 -0.27667 -1.88063e-19)
(0.701714 -0.503125 1.73447e-20)
(0.429607 -0.297114 5.74682e-21)
(0.276656 -0.0185315 0)
(0.359344 -0.0256443 5.33827e-22)
(0.451146 -0.00648685 9.18511e-21)
(0.607647 -0.018855 -6.5116e-22)
(0.502422 0.566993 -1.49578e-20)
(0.419892 0.633119 3.5345e-20)
(0.652247 0.81501 -8.074e-20)
(0.424039 0.751573 -4.25522e-20)
(0.152079 0.0169441 -1.4152e-22)
(0.229049 0.585309 -3.87745e-20)
(0.656123 -0.0598799 0)
(0.855118 -0.0780823 0)
(1.01145 0.261156 -1.90197e-21)
(1.00005 0.280361 5.29866e-21)
(1.07899 0.248979 4.83818e-21)
(0.525911 0.0137671 2.46994e-22)
(0.49764 0.0248503 -4.15359e-22)
(0.658674 0.0146213 -1.79504e-21)
(0.639776 0.0139083 4.98025e-22)
(0.544236 0.0118673 -5.71212e-21)
(0.448335 0.00244415 3.56511e-21)
(1.14218 -0.0138163 -1.1931e-20)
(1.1386 -0.0182972 -1.1167e-20)
(1.18241 -0.150456 -1.34787e-22)
(1.172 -0.13823 4.66663e-21)
(1.22593 -0.173332 7.45315e-20)
(1.43644 -0.258513 3.39435e-20)
(-0.0452231 0.000414719 -5.70476e-20)
(-0.0648602 0.0115274 0)
(-0.051698 -0.01049 2.07635e-20)
(-0.0470037 -0.0129427 5.01689e-20)
(-0.0165814 -0.00591534 -3.9077e-20)
(-0.00958473 0.0015567 -4.07688e-20)
(1.28059 -0.535895 0)
(1.41737 -0.47288 1.14056e-20)
(1.30857 -0.408538 -4.17841e-21)
(1.24442 -0.402815 0)
(0.918519 -0.176735 -3.03439e-20)
(0.936803 -0.197632 -2.00779e-20)
(-0.0848749 0.059704 2.50714e-19)
(-0.104703 0.0626511 -7.8997e-20)
(-0.131495 0.0948987 1.98e-19)
(0.90144 -0.252376 0)
(0.923825 -0.222297 1.07269e-19)
(0.852955 -0.358593 2.94194e-20)
(1.58258 0.225323 8.48462e-20)
(1.61283 0.176591 -9.36282e-20)
(1.54802 0.129479 -6.1552e-20)
(0.140507 -0.0796954 3.39842e-22)
(0.200169 -0.125499 -2.32379e-20)
(0.951618 -0.589016 -1.48786e-23)
(0.705714 -0.479869 1.02562e-20)
(-0.124486 0.0642227 4.21526e-19)
(-0.129415 0.059741 -1.62073e-19)
(1.38491 0.623604 -1.57875e-20)
(1.28886 0.588635 1.49757e-20)
(1.18604 0.735478 -2.12302e-20)
(1.04241 0.733332 7.93829e-20)
(0.99787 0.703837 -5.50423e-20)
(0.752463 0.518061 6.4657e-21)
(0.825165 0.623671 1.46913e-20)
(0.86174 0.715864 -1.8489e-20)
(-0.115732 0.215797 -1.48465e-20)
(-0.153026 0.132102 -3.39253e-21)
(-0.0231792 0.151437 6.80274e-21)
(0.0124637 0.21894 -1.11577e-19)
(0.00751057 0.291577 1.41527e-19)
(0.415888 0.33188 7.14026e-20)
(0.470583 0.411858 -2.09938e-20)
(-0.0336302 0.0129431 0)
(1.00709 0.00425053 0)
(0.965267 0.053338 -1.10013e-19)
(0.89026 0.135424 8.23618e-20)
(1.08046 0.118117 0)
(1.32658 -0.106662 0)
(1.31744 -0.11867 0)
(1.3405 -0.12306 7.95047e-20)
(1.11144 0.166867 -3.76525e-21)
(1.1095 0.182525 4.17893e-20)
(1.09901 0.158503 2.23907e-20)
(-0.0359877 0.0181903 1.14679e-19)
(-0.0215874 0.0340041 -1.28742e-19)
(0.0993759 0.0735341 -1.34827e-19)
(0.0953133 0.0574469 1.27571e-19)
(-0.103674 0.111419 2.5389e-19)
(0.182532 0.344395 7.59496e-20)
(0.40975 0.338845 1.88853e-19)
(0.317962 0.581444 1.82431e-20)
(0.144794 0.462443 -4.33171e-19)
(1.38558 0.474075 -1.38829e-21)
(1.22149 0.473598 -8.69817e-21)
(1.25322 0.439379 1.38331e-20)
(0.76515 -0.583538 2.44275e-20)
(0.523749 -0.378499 -1.57694e-20)
(0.171994 0.0842527 -2.40976e-19)
(0.148924 0.00145853 0)
(0.31732 0.0491752 1.27046e-19)
(0.485405 -0.368314 2.57656e-20)
(0.687003 -0.565874 -6.55878e-20)
(0.625507 0.0167238 1.20461e-21)
(0.659927 0.0159903 -1.05027e-21)
(0.585038 0.0150876 -4.70879e-23)
(0.477502 -0.661953 0)
(0.506728 -0.499114 0)
(1.06084 -0.133878 -1.29173e-20)
(1.04701 -0.116055 7.40448e-20)
(1.03168 -0.0811439 0)
(0.783668 -0.655061 0)
(0.791454 -0.590229 -3.99022e-20)
(0.827423 0.843998 4.26717e-20)
(0.062687 0.120643 8.6661e-20)
(0.0496677 0.0869099 -6.64963e-20)
(0.515463 -0.463548 -2.98284e-20)
(1.12425 0.208613 2.78936e-20)
(1.13697 0.221736 -5.05162e-21)
(1.40664 -0.209441 -7.98046e-21)
(1.40289 -0.191432 1.06728e-20)
(1.40782 -0.18088 3.14107e-20)
(0.0355451 0.0642176 2.86408e-20)
(0.956482 0.802684 4.94258e-22)
(1.09508 0.759448 -6.41964e-21)
(1.19697 0.810618 2.76341e-22)
(0.427295 -0.0128579 -9.57073e-23)
(0.426219 -0.0144887 -1.16821e-21)
(0.466938 -0.0188601 -1.19973e-22)
(0.507796 -0.0168355 2.10949e-22)
(0.888403 0.796791 2.29492e-20)
(0.487385 0.477978 0)
(-0.154726 0.357062 1.36517e-19)
(-0.180894 0.268858 -1.52171e-19)
(-0.172344 0.428814 1.16579e-19)
(0.719651 0.0892532 -2.9685e-19)
(1.31037 0.230628 -1.47951e-19)
(0.576402 -0.0179404 1.95032e-22)
(1.22504 -0.428974 1.77439e-20)
(1.18277 -0.506866 3.67708e-20)
(1.00976 0.308869 7.46151e-20)
(0.999225 0.352238 7.51713e-21)
(0.955095 0.230423 4.72114e-20)
(0.973914 0.23554 -3.40969e-20)
(1.0367 0.304069 0)
(1.10518 -0.0173171 1.17923e-22)
(1.10589 -0.0212947 -4.89336e-23)
(1.14272 -0.0927587 -9.69373e-21)
(1.1524 -0.0966091 1.65868e-20)
(1.12049 0.146711 3.48715e-21)
(1.13577 0.151579 -8.99441e-21)
(1.12392 0.16044 0)
(1.10886 0.152631 2.73737e-21)
(1.12463 0.17515 0)
(1.14274 0.238017 -8.82021e-21)
(1.1385 0.257552 -5.86137e-21)
(1.11951 0.294216 -1.16358e-20)
(1.1306 0.276928 0)
(1.15932 0.293834 2.73885e-20)
(1.14351 0.31466 3.02863e-21)
(1.10525 0.318383 -8.00766e-21)
(1.05864 0.392183 -3.43239e-20)
(1.04936 0.332185 -6.78031e-21)
(0.548757 -0.168001 8.36058e-20)
(0.753096 -0.241219 -3.37348e-20)
(-0.119188 0.178149 -1.86292e-19)
(0.564805 0.0129712 -7.87573e-22)
(0.695368 0.0149856 0)
(-0.0505099 0.0617825 1.74529e-19)
(-0.0388177 0.0335654 8.05778e-20)
(0.649005 0.0143167 5.56749e-22)
(0.74161 0.0151049 1.63691e-22)
(0.733657 0.0156733 0)
(0.635513 0.0169626 1.91534e-22)
(0.938894 -0.616046 6.00641e-21)
(0.941582 -0.625095 -3.06688e-20)
(0.950281 -0.619844 -1.24575e-20)
(0.000966207 0.0474003 5.08848e-20)
(0.00881147 0.0179756 -6.31643e-20)
(0.016022 0.0291833 6.16449e-20)
(-0.0441553 -0.0224258 0)
(-0.0224694 -0.0118189 8.491e-20)
(-0.0203727 -0.0121699 -7.2865e-20)
(-0.0494493 -0.00772199 -7.73638e-20)
(-0.0849411 -0.0346433 -7.96689e-20)
(-0.0492579 -0.0230735 0)
(0.0640255 0.311307 0)
(0.0300867 0.184276 0)
(0.0105657 0.107242 0)
(1.29775 -0.112392 -9.86194e-21)
(1.27606 -0.108686 0)
(1.28942 -0.118865 1.05529e-20)
(0.920532 -0.0513379 2.05232e-19)
(0.933745 -0.0594659 -7.46079e-20)
(0.930553 -0.0399581 0)
(0.915384 -0.0700095 1.18864e-21)
(0.916259 0.0363173 -2.33092e-21)
(0.917684 -0.172453 7.41871e-22)
(0.919037 0.141732 0)
(0.924545 0.242688 1.59499e-21)
(0.932626 0.334883 0)
(0.900742 0.323041 0)
(0.941597 0.414546 -4.91586e-21)
(0.911159 0.40012 0)
(0.891641 0.233659 1.44299e-21)
(0.885594 0.135471 0)
(0.882084 0.0328715 -6.85513e-22)
(0.881374 -0.0712935 1.11099e-21)
(0.883953 -0.171313 -7.40817e-22)
(0.951475 0.479556 4.70439e-21)
(0.922902 0.464152 1.46045e-22)
(0.921296 -0.269131 1.94035e-23)
(0.888494 -0.266613 1.03746e-21)
(0.926218 -0.356077 -5.36699e-21)
(0.962279 0.529563 -4.08068e-24)
(0.936403 0.515069 1.27029e-22)
(0.894331 -0.351829 -1.91313e-21)
(0.97318 0.565367 -3.61183e-21)
(0.983781 0.588367 3.60873e-21)
(0.950229 0.551709 -2.75337e-22)
(0.963674 0.575838 -4.76184e-22)
(0.933164 -0.429113 5.22428e-21)
(0.901639 -0.425017 1.22984e-21)
(0.993376 0.600549 0)
(0.976007 0.589464 4.69473e-22)
(0.939469 -0.490995 -5.53906e-25)
(0.910818 -0.484854 5.54542e-25)
(1.00168 0.604503 0)
(0.986949 0.595032 0)
(0.946904 -0.536908 0)
(0.920875 -0.529815 0)
(1.00843 0.60263 0)
(0.996303 0.594835 -1.91311e-22)
(0.954605 -0.568454 1.86901e-21)
(0.931805 -0.560081 4.66687e-25)
(1.01371 0.5972 -9.92972e-24)
(1.00413 0.59102 2.04227e-22)
(0.962665 -0.58641 -1.8783e-21)
(0.9431 -0.577287 0)
(1.01755 0.589962 0)
(1.01044 0.585257 0)
(0.970769 -0.593848 1.00121e-22)
(0.954545 -0.584397 -1.61608e-21)
(1.02015 0.582295 -1.16602e-21)
(1.01548 0.578939 0)
(0.978699 -0.594346 -6.9619e-23)
(0.965698 -0.585161 1.52403e-21)
(1.02152 0.57515 1.74039e-21)
(1.0192 0.57299 4.95979e-22)
(0.985826 -0.59157 -1.48365e-21)
(0.97622 -0.583303 0)
(1.02193 0.569338 -5.70916e-22)
(1.02198 0.568288 -3.32387e-22)
(0.992468 -0.589054 6.62768e-22)
(0.9855 -0.58181 -1.32133e-21)
(1.0211 0.565223 2.30538e-21)
(1.02356 0.565302 -2.60094e-21)
(0.997689 -0.588613 -6.53936e-22)
(0.993617 -0.582701 -1.98698e-23)
(1.0193 0.56315 0)
(1.02403 0.564366 -1.27053e-21)
(1.00203 -0.591411 1.2472e-21)
(1.00042 -0.586519 -2.46761e-21)
(1.0165 0.562976 0)
(1.02361 0.565195 0)
(1.00271 -0.591843 6.47252e-22)
(1.00461 -0.593588 2.46591e-21)
(1.00545 -0.597443 0)
(1.00643 -0.593245 1.21756e-21)
(0.996821 -0.597344 4.6688e-22)
(1.00048 -0.593584 -8.87706e-23)
(0.988454 -0.601047 0)
(0.992955 -0.600936 1.63705e-21)
(0.978951 -0.575799 4.26145e-24)
(0.983792 -0.593847 0)
(0.969769 -0.497227 0)
(0.974517 -0.543988 0)
(0.961547 -0.358736 0)
(0.966497 -0.435419 0)
(0.955619 -0.1731 -1.60803e-21)
(0.958346 -0.270843 -3.71633e-22)
(0.955455 0.0400527 1.58645e-21)
(0.954422 -0.0675028 1.61882e-21)
(0.960963 0.249399 -2.70018e-21)
(0.956575 0.146537 -3.66805e-21)
(0.974596 0.424923 0)
(0.967331 0.343237 0)
(0.991206 0.542401 9.81142e-24)
(0.982758 0.491515 0)
(1.00716 0.59937 0)
(0.999497 0.577748 0)
(1.01901 0.611687 0)
(1.01376 0.609742 0)
(1.02521 0.60066 0)
(1.02281 0.60788 0)
(1.02625 0.582831 0)
(1.02631 0.591867 0)
(1.02309 0.56761 0)
(1.02515 0.57453 0)
(1.01609 0.559495 9.47936e-22)
(1.02005 0.562454 0)
(1.0109 0.558493 3.13388e-22)
(1.01299 0.564126 -3.36796e-22)
(1.02258 0.567108 3.34036e-22)
(1.0268 0.563223 0)
(1.03162 0.564963 1.33685e-21)
(1.02959 0.563276 6.4874e-22)
(1.01818 0.568792 -1.64328e-22)
(1.02296 0.565175 6.31933e-22)
(1.00522 0.578673 -5.22598e-24)
(1.01233 0.573596 0)
(0.986869 0.585377 0)
(0.996808 0.583047 0)
(0.962311 0.577023 0)
(0.975378 0.584027 0)
(0.932312 0.537212 0)
(0.94783 0.562149 -8.50884e-28)
(0.901172 0.450303 -8.61966e-24)
(0.916471 0.500292 0)
(0.874249 0.311551 0)
(0.886999 0.387181 0)
(0.857124 0.129911 0)
(0.863892 0.223989 0)
(0.852551 -0.0706885 0)
(0.85312 0.0302345 7.22213e-22)
(0.859938 -0.260518 -1.79756e-22)
(0.855024 -0.168872 8.2512e-22)
(0.876141 -0.416017 0)
(0.866992 -0.343522 6.48162e-22)
(0.899445 -0.518075 0)
(0.887094 -0.474266 0)
(0.926861 -0.564346 0)
(0.91286 -0.547506 0)
(0.954826 -0.57285 0)
(0.941024 -0.57153 0)
(0.979611 -0.57186 3.50192e-22)
(0.967808 -0.572046 0)
(0.999367 -0.578913 1.24883e-21)
(0.990061 -0.574042 3.23197e-22)
(1.00784 -0.586508 -1.24469e-21)
(1.00546 -0.598643 -2.39832e-21)
(1.0048 0.558679 -6.74361e-22)
(1.03315 0.567618 1.47173e-21)
(1.01177 -0.602677 0)
(1.0157 -0.596446 0)
(1.00579 -0.606511 0)
(1.00819 -0.60616 0)
(1.00895 -0.592783 0)
(1.00653 -0.597657 -5.85268e-22)
(1.00819 -0.593602 -6.4228e-22)
(1.00883 -0.60003 -9.56682e-22)
(1.00935 -0.595454 1.85556e-22)
(1.00654 -0.604669 -3.62129e-24)
(1.00787 -0.604296 0)
(1.00351 -0.579195 0)
(1.00513 -0.597444 0)
(1.00053 -0.500135 0)
(1.00219 -0.547247 0)
(0.99789 -0.361208 0)
(0.999514 -0.438121 0)
(0.995627 -0.173003 0)
(0.997024 -0.272424 0)
(0.996528 0.0418054 6.80742e-24)
(0.995702 -0.067587 -1.72943e-21)
(1.00014 0.25389 6.54175e-24)
(0.997339 0.151023 3.42001e-21)
(1.00865 0.4311 0)
(1.00382 0.348661 0)
(1.01991 0.548936 -4.98061e-24)
(1.0142 0.498151 0)
(1.02992 0.604579 0)
(1.02529 0.583799 0)
(1.03581 0.614564 0)
(1.03349 0.613852 0)
(1.03656 0.601079 0)
(1.03682 0.609502 0)
(1.03273 0.581125 0)
(1.03516 0.591175 0)
(1.02515 0.564018 0)
(1.02938 0.571886 0)
(1.01375 0.554062 -6.4144e-22)
(1.01998 0.558018 0)
(1.00857 0.564549 0)
(0.997761 0.558373 -7.51875e-22)
(0.997934 0.551153 0)
(1.00642 0.552082 -6.45106e-22)
(1.04022 0.562036 -1.27868e-21)
(1.04415 0.565268 -3.39175e-22)
(1.03412 0.569586 -2.83212e-21)
(1.02077 0.56837 0)
(1.03091 0.558732 0)
(1.03586 0.559618 1.91985e-21)
(1.0182 0.562442 -4.80519e-24)
(1.02493 0.559862 -6.35932e-22)
(1.00131 0.569934 5.22592e-24)
(1.01032 0.566145 0)
(0.979131 0.573687 0)
(0.990966 0.572893 0)
(0.950859 0.56232 0)
(0.965761 0.570776 0)
(0.917437 0.520651 0)
(0.934616 0.546272 8.50877e-28)
(0.883055 0.43451 1.6478e-23)
(0.89999 0.483708 0)
(0.853181 0.299244 0)
(0.867232 0.372859 0)
(0.834079 0.123557 -3.19567e-22)
(0.841929 0.214957 0)
(0.828663 -0.0697327 0)
(0.829572 0.0276958 3.18194e-22)
(0.836295 -0.253886 -6.40752e-22)
(0.831119 -0.164925 -6.65782e-22)
(0.854893 -0.404804 0)
(0.84431 -0.335249 0)
(0.881637 -0.503966 0)
(0.86744 -0.461466 0)
(0.913339 -0.549048 0)
(0.897104 -0.532576 0)
(0.945775 -0.558274 0)
(0.929778 -0.55635 0)
(0.974622 -0.559424 -4.81857e-24)
(0.960829 -0.558397 0)
(0.998681 -0.568752 4.58181e-24)
(0.987156 -0.562762 0)
(1.01961 -0.5875 1.21979e-21)
(1.00942 -0.577058 -1.21914e-21)
(1.00423 -0.604514 -1.1334e-21)
(1.02312 -0.608334 0)
(1.02958 -0.59985 2.58451e-21)
(1.01657 -0.614123 0)
(0.988423 0.549896 0)
(1.04784 0.567804 3.55933e-22)
(1.00525 -0.616365 -3.03594e-21)
(1.00088 -0.613178 -1.17833e-21)
(1.02991 -0.622161 -6.97423e-22)
(1.03909 -0.61411 -3.28666e-21)
(1.0103 -0.61692 0)
(0.992849 0.541691 -2.47107e-21)
(0.98125 0.539672 1.24748e-21)
(1.03441 0.568786 7.82985e-22)
(1.05061 0.567715 -4.02942e-21)
(0.998381 -0.606778 -3.93557e-21)
(0.99623 -0.622769 2.30524e-21)
(0.982157 -0.621724 9.91575e-21)
(0.99141 -0.61446 2.20366e-21)
(1.00897 -0.594097 -1.13454e-21)
(1.00418 -0.599668 3.35375e-21)
(1.01629 -0.591224 1.258e-21)
(1.01307 -0.591126 8.51633e-22)
(1.02153 -0.599527 3.84462e-22)
(1.01921 -0.594501 3.4419e-22)
(1.02537 -0.604427 3.62129e-24)
(1.02354 -0.60398 0)
(1.02905 -0.5789 0)
(1.02725 -0.59718 0)
(1.03259 -0.500105 0)
(1.03097 -0.547039 0)
(1.03531 -0.36162 0)
(1.0342 -0.438147 0)
(1.03688 -0.173539 0)
(1.03627 -0.272747 0)
(1.0381 0.0424399 0)
(1.03745 -0.0673503 0)
(1.04028 0.256607 4.8606e-26)
(1.03901 0.151801 0)
(1.04469 0.435173 0)
(1.04217 0.352309 0)
(1.05037 0.553179 -5.07198e-24)
(1.04756 0.502513 0)
(1.05419 0.60736 0)
(1.05269 0.587504 0)
(1.05389 0.614861 0)
(1.05463 0.615445 0)
(1.04896 0.598934 0)
(1.05198 0.608527 0)
(1.04009 0.577026 0)
(1.04495 0.587991 0)
(1.02805 0.558268 0)
(1.03444 0.566941 0)
(1.01259 0.546579 -3.04593e-22)
(1.02079 0.55143 1.5488e-22)
(1.00331 0.5436 1.23333e-21)
(1.00343 0.562351 3.54897e-22)
(0.978232 0.546436 -1.44963e-21)
(0.989965 0.55559 1.06002e-21)
(1.01858 0.567074 0)
(1.04936 0.556455 9.97516e-22)
(1.06165 0.563157 3.2509e-21)
(1.05557 0.560058 -2.35821e-21)
(1.0357 0.552055 0)
(1.0428 0.553513 0)
(1.01917 0.554202 2.67358e-25)
(1.02771 0.552532 0)
(0.998709 0.559372 0)
(1.00943 0.556835 0)
(0.973133 0.560221 4.9282e-24)
(0.98662 0.560936 0)
(0.941704 0.545933 0)
(0.958143 0.555789 0)
(0.905495 0.50258 0)
(0.924016 0.528789 0)
(0.868512 0.417376 -7.86179e-24)
(0.886751 0.465729 0)
(0.836561 0.286 -7.90423e-24)
(0.851501 0.357256 0)
(0.815896 0.117135 0)
(0.824557 0.20504 0)
(0.809463 -0.0690892 0)
(0.810774 0.0246677 0)
(0.817237 -0.247015 0)
(0.811735 -0.160662 0)
(0.837299 -0.392787 0)
(0.825875 -0.325396 0)
(0.866902 -0.488363 6.45913e-24)
(0.851102 -0.447444 0)
(0.902415 -0.531861 0)
(0.884208 -0.515885 0)
(0.938723 -0.541951 0)
(0.920829 -0.539304 0)
(0.971095 -0.545425 3.61762e-25)
(0.955567 -0.543174 0)
(0.998675 -0.55669 -3.03424e-25)
(0.985375 -0.549865 0)
(1.02369 -0.576477 -4.46194e-24)
(1.01137 -0.565665 0)
(1.04783 -0.603669 2.66771e-21)
(1.0358 -0.589191 -5.93409e-22)
(1.04798 -0.63004 -7.03576e-22)
(1.05948 -0.619693 -1.2976e-21)
(1.00374 -0.627449 1.16372e-21)
(1.02079 -0.627372 1.32754e-21)
(0.968756 0.535533 -3.21645e-22)
(1.0671 0.563736 -2.59587e-21)
(0.98961 -0.632728 -6.91735e-23)
(1.03591 -0.637348 0)
(0.969583 -0.63075 -1.67995e-20)
(1.07083 -0.636744 -2.43919e-21)
(1.05623 -0.646625 -3.27924e-21)
(0.944832 -0.612192 2.44802e-20)
(0.931046 -0.606719 -4.35657e-21)
(1.01163 -0.628943 0)
(0.974733 -0.609329 -2.27148e-21)
(0.960442 -0.611949 -1.24974e-21)
(0.996483 -0.598213 -2.11415e-21)
(0.986747 -0.604214 3.13304e-21)
(1.01215 -0.588263 1.14191e-21)
(1.00486 -0.592539 5.08466e-22)
(1.02446 -0.587261 -6.36005e-22)
(1.0187 -0.58636 -5.76344e-22)
(1.0349 -0.596134 0)
(1.02986 -0.590921 -1.83094e-23)
(1.04483 -0.600809 0)
(1.03984 -0.600485 0)
(1.05525 -0.575286 -4.27418e-24)
(1.05002 -0.593501 0)
(1.06537 -0.497115 0)
(1.06049 -0.54364 0)
(1.07353 -0.359675 0)
(1.0698 -0.435566 0)
(1.07871 -0.172633 0)
(1.07654 -0.271274 0)
(1.0809 0.0428274 -6.94374e-24)
(1.08012 -0.0667973 0)
(1.08146 0.257363 -4.99759e-26)
(1.08127 0.152323 0)
(1.08199 0.436579 0)
(1.0817 0.353403 0)
(1.08205 0.554233 1.00826e-23)
(1.0822 0.503932 0)
(1.07946 0.606717 0)
(1.08122 0.587839 0)
(1.07275 0.61198 0)
(1.07665 0.61369 0)
(1.06201 0.594056 0)
(1.06784 0.604589 0)
(1.04813 0.570597 0)
(1.05541 0.582289 0)
(1.03173 0.55046 0)
(1.04023 0.559826 0)
(1.01242 0.537132 1.50577e-22)
(1.02248 0.542885 0)
(0.989144 0.53035 0)
(1.00134 0.533204 2.79838e-22)
(0.961459 0.522858 2.47553e-23)
(0.975786 0.527503 0)
(0.967446 0.538761 1.47016e-21)
(0.946168 0.513807 -7.63379e-23)
(0.955598 0.527171 -7.30369e-22)
(0.997895 0.555814 -5.98021e-22)
(0.981645 0.54833 4.07843e-22)
(1.03428 0.563169 2.15222e-22)
(1.01563 0.561084 -2.18493e-22)
(1.07287 0.559618 0)
(1.05352 0.562913 1.7107e-21)
(1.07564 0.555716 6.98175e-22)
(1.09195 0.553374 1.46673e-21)
(1.08378 0.556638 -3.45018e-21)
(1.0588 0.548591 3.14832e-22)
(1.06727 0.552403 0)
(1.04103 0.543546 0)
(1.05016 0.545323 0)
(1.02097 0.544246 3.11812e-25)
(1.03128 0.543338 0)
(0.997337 0.547215 0)
(1.00963 0.545851 0)
(0.968824 0.545292 -4.9282e-24)
(0.983732 0.547439 0)
(0.934782 0.528252 0)
(0.952473 0.539418 0)
(0.896372 0.48339 0)
(0.915942 0.510104 0)
(0.857483 0.39927 0)
(0.876649 0.446702 0)
(0.824008 0.272066 9.23858e-25)
(0.839651 0.340832 0)
(0.801969 0.109925 0)
(0.811302 0.194333 0)
(0.794603 -0.0687273 0)
(0.79634 0.0212058 0)
(0.802201 -0.239791 0)
(0.796619 -0.156736 0)
(0.823292 -0.379685 0)
(0.811214 -0.314998 0)
(0.855223 -0.471066 -6.45913e-24)
(0.838115 -0.432005 0)
(0.893933 -0.512723 0)
(0.874074 -0.497314 0)
(0.933475 -0.523816 0)
(0.914001 -0.520346 0)
(0.968807 -0.529778 4.45727e-24)
(0.951817 -0.526247 0)
(0.999465 -0.542867 -4.30143e-24)
(0.984585 -0.535286 0)
(1.0279 -0.563411 4.41144e-24)
(1.01381 -0.552282 0)
(1.05607 -0.590867 -5.92679e-22)
(1.04194 -0.576301 1.17266e-21)
(1.08468 -0.624229 6.33609e-22)
(1.0703 -0.607093 -1.41402e-21)
(1.08158 -0.653896 -3.51275e-22)
(1.09867 -0.641883 -1.67522e-21)
(1.00095 -0.639266 1.32173e-21)
(1.02384 -0.641538 0)
(0.981941 -0.641311 1.20181e-20)
(1.04061 -0.653082 0)
(0.955873 0.508226 2.84526e-22)
(0.939375 0.499315 -2.03498e-22)
(1.0777 0.549297 1.88209e-21)
(1.09974 0.543526 2.05055e-21)
(0.960362 -0.639081 1.1581e-20)
(1.06351 -0.662804 3.3111e-21)
(0.915593 -0.604652 0)
(0.934349 -0.59492 2.50825e-21)
(1.09143 -0.669182 1.53685e-21)
(1.11228 -0.658134 -2.95232e-21)
(0.915397 -0.58685 -4.85068e-21)
(1.0116 -0.64188 0)
(0.968756 -0.596092 0)
(0.952296 -0.597221 2.08469e-21)
(0.995144 -0.587766 0)
(0.98298 -0.592392 0)
(1.01558 -0.58027 0)
(1.00589 -0.583406 -5.2672e-22)
(1.03286 -0.580728 0)
(1.02456 -0.579224 0)
(1.04856 -0.589815 0)
(1.04079 -0.584642 0)
(1.06459 -0.594054 0)
(1.05645 -0.593965 0)
(1.08162 -0.568425 4.27418e-24)
(1.07305 -0.5866 0)
(1.09813 -0.491069 0)
(1.09011 -0.537045 0)
(1.11168 -0.355345 0)
(1.10542 -0.430257 0)
(1.1204 -0.170476 0)
(1.11673 -0.267996 0)
(1.12368 0.0431385 1.63679e-25)
(1.12268 -0.0656798 0)
(1.12288 0.256766 -1.49121e-25)
(1.12367 0.152055 0)
(1.11972 0.435665 0)
(1.12154 0.352659 0)
(1.11424 0.552295 -1.32439e-25)
(1.11734 0.502642 0)
(1.10518 0.602865 0)
(1.11023 0.585015 0)
(1.09201 0.606063 0)
(1.09909 0.608776 0)
(1.07549 0.586504 0)
(1.0841 0.597787 0)
(1.05668 0.56186 0)
(1.06632 0.574103 0)
(1.03606 0.540637 0)
(1.0466 0.550555 0)
(1.01323 0.525862 0)
(1.02497 0.532386 0)
(0.98669 0.517241 -2.63136e-22)
(1.00048 0.521031 -2.84094e-22)
(0.971742 0.513522 5.64446e-22)
(0.956337 0.524804 8.39174e-22)
(0.93054 0.498913 0)
(0.942267 0.512912 7.38929e-22)
(0.9918 0.543151 0)
(0.973015 0.535127 -8.56643e-22)
(1.03332 0.551308 -1.41714e-21)
(1.01204 0.548796 4.77762e-22)
(1.0554 0.55166 2.69818e-21)
(1.08929 0.545956 -3.16736e-22)
(1.11057 0.544171 -1.6114e-21)
(1.10062 0.546544 0)
(1.06838 0.538656 6.00276e-22)
(1.07916 0.54239 -6.01965e-22)
(1.04678 0.533302 0)
(1.05786 0.535245 0)
(1.02355 0.532707 3.48401e-25)
(1.03549 0.53249 0)
(0.997106 0.533629 0)
(1.0108 0.533356 0)
(0.966104 0.529109 0)
(0.982216 0.532592 0)
(0.92997 0.50953 0)
(0.948649 0.521895 0)
(0.88992 0.463359 0)
(0.910255 0.490484 0)
(0.849739 0.380469 -5.47693e-24)
(0.869516 0.426911 0)
(0.815185 0.257586 6.98037e-24)
(0.831361 0.323809 0)
(0.792021 0.102163 0)
(0.801908 0.183026 0)
(0.783693 -0.0687462 0)
(0.785904 0.0172754 0)
(0.790957 -0.23243 0)
(0.785406 -0.152975 0)
(0.812752 -0.365899 0)
(0.800176 -0.304243 0)
(0.846562 -0.452543 0)
(0.828382 -0.415581 0)
(0.887883 -0.492161 0)
(0.866682 -0.477368 0)
(0.93 -0.504335 3.88996e-24)
(0.909273 -0.499992 0)
(0.967757 -0.512779 -3.62441e-24)
(0.949548 -0.507999 0)
(1.0011 -0.527536 3.56875e-24)
(0.984827 -0.519294 0)
(1.03264 -0.548563 0)
(1.01696 -0.537303 0)
(1.06426 -0.575941 0)
(1.04836 -0.561411 0)
(1.09738 -0.609262 -5.02393e-24)
(1.08048 -0.592046 -6.30379e-22)
(1.13134 -0.643672 4.46553e-21)
(1.11445 -0.626945 0)
(1.12513 -0.670593 2.74051e-21)
(1.14802 -0.657344 4.89956e-22)
(0.996279 -0.650572 -4.08117e-21)
(1.02531 -0.655932 0)
(0.922033 0.484443 1.29043e-21)
(1.12115 0.535318 2.99634e-21)
(0.971466 -0.647871 2.28187e-21)
(0.917845 -0.613745 8.44496e-23)
(0.943577 -0.638664 -6.19157e-21)
(1.04429 -0.667667 0)
(1.06908 -0.676661 -1.01022e-21)
(0.891652 -0.575379 4.6786e-21)
(0.875442 -0.564417 -5.62757e-21)
(0.897149 -0.593726 5.21715e-21)
(1.09983 -0.68004 3.00537e-21)
(1.13605 -0.676128 -2.31369e-21)
(1.1639 -0.664849 -1.50879e-21)
(1.00982 -0.654425 0)
(0.925411 -0.575475 -1.02142e-22)
(0.879193 -0.549798 -2.12928e-22)
(0.903306 -0.564544 -8.38755e-22)
(0.964167 -0.580925 -8.61289e-22)
(0.945803 -0.580376 8.66032e-22)
(0.994734 -0.575352 -1.57769e-24)
(0.980508 -0.578657 0)
(1.01936 -0.569915 0)
(1.00752 -0.572128 0)
(1.04125 -0.571465 0)
(1.03057 -0.56954 0)
(1.06215 -0.580543 0)
(1.05168 -0.575502 0)
(1.08412 -0.584152 -3.11469e-24)
(1.07293 -0.584396 0)
(1.10746 -0.558318 0)
(1.09571 -0.576471 0)
(1.13005 -0.482048 0)
(1.11905 -0.527289 0)
(1.14872 -0.348761 0)
(1.14007 -0.4223 0)
(1.16084 -0.16713 0)
(1.15572 -0.262978 0)
(1.16535 0.0434392 6.78006e-24)
(1.16402 -0.0639278 0)
(1.1635 0.254985 -2.4278e-25)
(1.1651 0.151168 0)
(1.157 0.432456 0)
(1.16077 0.350157 0)
(1.14622 0.547306 -9.55676e-24)
(1.15218 0.498619 0)
(1.13079 0.595716 0)
(1.13909 0.578952 0)
(1.11125 0.597065 0)
(1.12145 0.600626 0)
(1.08908 0.57631 0)
(1.1004 0.588113 0)
(1.06554 0.55091 0)
(1.07744 0.563501 0)
(1.04097 0.528919 0)
(1.0534 0.539253 0)
(1.01474 0.512926 -3.76322e-24)
(1.02814 0.520112 0)
(0.985508 0.502593 2.64268e-22)
(1.00061 0.507232 0)
(0.951977 0.492017 -3.02639e-22)
(0.969268 0.498046 0)
(0.91572 0.467978 -2.66466e-22)
(0.934069 0.482656 2.84865e-22)
(0.915197 0.47733 -7.1075e-22)
(0.897184 0.445893 0)
(0.904768 0.462123 -9.33401e-22)
(0.945046 0.503928 0)
(0.92872 0.491425 0)
(0.985111 0.523233 0)
(0.964041 0.514805 0)
(1.03196 0.532019 0)
(1.00788 0.529205 0)
(1.08235 0.531145 -1.91814e-21)
(1.05708 0.532909 -5.34449e-22)
(1.1312 0.519185 -4.4752e-22)
(1.10719 0.52639 -3.84316e-21)
(1.12889 0.53233 -1.7308e-21)
(1.15426 0.509034 -3.90154e-22)
(1.14145 0.524405 7.60248e-22)
(1.10299 0.533747 -3.26354e-22)
(1.11608 0.534848 2.05872e-21)
(1.07796 0.52682 3.41774e-25)
(1.09071 0.530423 0)
(1.05294 0.521393 0)
(1.0656 0.523589 0)
(1.02682 0.519741 3.76832e-25)
(1.04018 0.520154 0)
(0.997923 0.518799 0)
(1.01282 0.519536 0)
(0.964854 0.511884 0)
(0.981959 0.516599 0)
(0.927107 0.490004 0)
(0.946532 0.503445 0)
(0.885923 0.442746 0)
(0.906769 0.470179 0)
(0.844948 0.361204 1.0172e-23)
(0.865093 0.40661 0)
(0.809675 0.242649 0)
(0.826226 0.306343 0)
(0.785613 0.0939226 0)
(0.795965 0.171223 0)
(0.776391 -0.0691263 0)
(0.779029 0.0129046 0)
(0.783217 -0.225043 0)
(0.777802 -0.149425 0)
(0.805478 -0.351541 4.9183e-24)
(0.792532 -0.293217 0)
(0.840808 -0.432949 0)
(0.821755 -0.398306 0)
(0.884171 -0.470403 0)
(0.861939 -0.456234 0)
(0.928164 -0.483775 -3.88996e-24)
(0.906535 -0.478501 0)
(0.967753 -0.494636 4.50167e-25)
(0.948597 -0.488677 0)
(1.00337 -0.510821 -6.72742e-24)
(0.98589 -0.502042 0)
(1.03768 -0.53209 0)
(1.02055 -0.520821 0)
(1.07254 -0.559014 0)
(1.05495 -0.544778 0)
(1.10927 -0.591758 4.2458e-25)
(1.09061 -0.574763 0)
(1.14832 -0.626466 0)
(1.12858 -0.609349 0)
(1.18817 -0.65067 3.02289e-21)
(1.16835 -0.641266 0)
(1.1769 -0.662773 6.48933e-22)
(1.20622 -0.651423 -6.03835e-21)
(0.989586 -0.659786 0)
(0.85614 -0.531665 -6.73522e-21)
(0.957901 -0.648817 -1.59754e-21)
(0.911519 0.450671 2.66001e-22)
(0.892328 0.42955 0)
(1.14087 0.494355 -4.62458e-22)
(1.16594 0.48539 9.63887e-22)
(1.0253 -0.668919 0)
(1.04588 -0.679366 0)
(0.924712 -0.629526 0)
(1.07307 -0.685249 9.94889e-22)
(1.10611 -0.683146 2.28983e-21)
(1.14453 -0.67066 0)
(1.18652 -0.64637 -6.75747e-21)
(1.22076 -0.639391 4.96961e-21)
(1.00606 -0.665197 0)
(0.869315 -0.522092 3.72377e-25)
(0.828669 -0.499427 -1.94161e-21)
(0.812667 -0.461964 6.34517e-21)
(0.842118 -0.497706 -1.84395e-21)
(0.918554 -0.553135 4.10623e-22)
(0.894801 -0.54015 8.32727e-22)
(0.9608 -0.563229 0)
(0.940684 -0.560476 0)
(0.995189 -0.560836 1.57724e-24)
(0.97901 -0.562731 0)
(1.02362 -0.55733 0)
(1.00988 -0.558718 0)
(1.04957 -0.55969 0)
(1.03677 -0.557494 0)
(1.07529 -0.568479 0)
(1.06231 -0.563707 0)
(1.10278 -0.571215 3.11469e-24)
(1.08876 -0.571902 0)
(1.13198 -0.545134 0)
(1.11729 -0.563248 0)
(1.16019 -0.470254 0)
(1.14645 -0.514566 0)
(1.18359 -0.34006 0)
(1.17273 -0.411863 0)
(1.19894 -0.162593 0)
(1.19242 -0.256286 0)
(1.20493 0.0438578 -6.16905e-24)
(1.20309 -0.061531 0)
(1.20242 0.252218 -3.26677e-25)
(1.20462 0.149865 0)
(1.19301 0.427149 0)
(1.19852 0.346095 0)
(1.17727 0.539407 2.60316e-25)
(1.18593 0.492034 0)
(1.1557 0.585385 0)
(1.16714 0.569771 0)
(1.13003 0.585105 0)
(1.14324 0.589357 0)
(1.1025 0.563598 0)
(1.11638 0.575689 0)
(1.07451 0.537877 0)
(1.08853 0.550609 0)
(1.0463 0.515459 0)
(1.06047 0.52605 0)
(1.01705 0.498479 7.13838e-24)
(1.03188 0.50625 0)
(0.98535 0.486581 3.34822e-24)
(1.00157 0.492062 0)
(0.949895 0.474652 -4.89662e-22)
(0.968093 0.481272 4.68317e-22)
(0.93089 0.465144 -4.45848e-22)
(0.900114 0.44781 -1.92476e-22)
(0.879081 0.416452 -3.794e-23)
(0.888322 0.432876 5.48041e-22)
(0.933614 0.475247 0)
(0.9153 0.462233 0)
(0.977831 0.495018 8.54344e-27)
(0.954558 0.486337 0)
(1.03 0.504765 0)
(1.00312 0.501402 0)
(1.08605 0.504615 -1.09175e-21)
(1.05789 0.506022 1.10183e-21)
(1.11396 0.500707 -1.62368e-22)
(1.14593 0.518172 2.69704e-23)
(1.17557 0.496368 8.34258e-22)
(1.16074 0.510587 -5.81242e-23)
(1.11616 0.519573 3.02356e-22)
(1.13092 0.52054 -3.02869e-22)
(1.08729 0.513464 4.13174e-24)
(1.10173 0.516711 0)
(1.0593 0.508031 3.34893e-24)
(1.07337 0.510344 0)
(1.03068 0.505533 3.97222e-25)
(1.04523 0.506485 0)
(0.999674 0.502927 0)
(1.01559 0.504582 0)
(0.964929 0.493837 0)
(0.982828 0.499671 0)
(0.925994 0.469909 0)
(0.945953 0.484299 0)
(0.884104 0.421784 0)
(0.905251 0.449425 0)
(0.842722 0.341674 -4.69508e-24)
(0.863051 0.386023 0)
(0.807021 0.227375 -4.3412e-24)
(0.823812 0.288595 0)
(0.78228 0.0852515 0)
(0.793002 0.159021 0)
(0.772264 -0.0699078 0)
(0.775288 0.00809319 0)
(0.778641 -0.217704 0)
(0.773381 -0.146116 0)
(0.801244 -0.336744 -4.9183e-24)
(0.788005 -0.282008 0)
(0.837806 -0.412533 3.61753e-24)
(0.818051 -0.380367 0)
(0.882663 -0.447815 0)
(0.859704 -0.434231 0)
(0.927858 -0.462491 0)
(0.905662 -0.456251 0)
(0.968707 -0.475623 4.59422e-25)
(0.948873 -0.468591 0)
(1.00613 -0.492957 5.89097e-24)
(0.987673 -0.48378 0)
(1.04277 -0.514217 0)
(1.02442 -0.503064 0)
(1.08048 -0.540326 0)
(1.06139 -0.526589 0)
(1.12087 -0.571676 4.66887e-25)
(1.10026 -0.555416 0)
(1.1646 -0.605432 0)
(1.14235 -0.588636 0)
(1.21024 -0.631706 -1.94406e-21)
(1.18735 -0.620634 0)
(1.25149 -0.627822 -2.27549e-21)
(1.23191 -0.635651 4.35719e-21)
(0.866735 -0.561914 1.06321e-20)
(0.846461 -0.532049 7.25353e-21)
(1.23083 -0.60987 2.88016e-21)
(1.26639 -0.604342 -2.87914e-21)
(0.980165 -0.664793 0)
(0.873608 0.401174 -4.79851e-22)
(1.18955 0.473933 3.86561e-21)
(0.783478 -0.417231 -1.06524e-21)
(1.0231 -0.678497 0)
(0.800727 -0.456742 -5.16674e-22)
(0.941378 -0.641215 0)
(1.04548 -0.685134 0)
(0.906337 -0.612659 0)
(1.07438 -0.685088 0)
(1.10912 -0.674146 0)
(1.14827 -0.650288 6.54533e-22)
(1.19095 -0.61171 2.55376e-21)
(1.23471 -0.559162 0)
(1.27573 -0.560432 6.58424e-21)
(1.00009 -0.672037 0)
(0.801842 -0.425997 -2.34563e-21)
(0.753776 -0.357922 -5.84659e-21)
(0.742856 -0.317306 -2.34398e-21)
(0.771715 -0.376918 2.62483e-21)
(0.861681 -0.493286 -1.46636e-22)
(0.832635 -0.464731 6.97436e-22)