/*--------------------------------*- C++ -*----------------------------------*\
  =========                 |
  \\      /  F ield         | OpenFOAM: The Open Source CFD Toolbox
   \\    /   O peration     | Website:  https://openfoam.org
    \\  /    A nd           | Version:  10
     \\/     M anipulation  |
\*---------------------------------------------------------------------------*/
FoamFile
{
    format      ascii;
    class       volScalarField;
    location    "32";
    object      p;
}
// * * * * * * * * * * * * * * * * * * * * * * * * * * * * * * * * * * * * * //

dimensions      [0 2 -2 0 0 0 0];

internalField   nonuniform List<scalar> 
6397
(
0.228227
0.209975
-0.0358586
-0.0264233
-0.0356756
-0.0462678
0.430059
0.166437
-0.442598
-0.508355
0.360701
0.256534
-0.00177067
-0.0021531
-0.00815486
-0.309044
-0.308717
-0.31628
0.846974
0.774666
0.744668
-0.684401
-0.608698
-0.604887
-0.00182887
-0.00265711
-0.00149169
-0.15235
-0.140986
-0.178733
-0.174
0.00153377
-0.00305258
-0.0182057
0.0249904
0.023249
0.0152628
0.012774
0.0347691
0.0355514
0.0313827
0.0302582
-0.177195
-0.104206
-0.12365
-0.0590673
-0.0667634
-0.0822292
0.0392198
0.0387333
0.0392564
0.0385072
0.0386838
0.354399
0.342921
0.175669
0.187202
0.0198901
-0.0671679
-0.0692214
-0.0695654
-0.076433
-0.088173
-0.104425
-0.123827
-0.14311
-0.158165
-0.162828
-0.0652924
-0.0761915
-0.0689179
-0.0661381
-0.0712653
-0.0810215
-0.0960127
-0.116006
-0.139539
-0.163359
-0.181415
-0.187921
-0.0772512
-0.0885367
-0.154415
-0.179022
-0.089839
-0.105475
-0.13456
-0.156373
-0.104807
-0.123979
-0.109802
-0.127263
-0.118749
-0.128485
-0.0870167
-0.100418
-0.0842768
-0.104463
-0.0954399
-0.0643438
-0.0731387
-0.0585521
-0.0594546
-0.0682165
-0.0613518
-0.0969345
-0.0798586
-0.146844
-0.119777
-0.196768
-0.174875
-0.19601
-0.204291
-0.137832
-0.170351
-0.107444
-0.108542
-0.0695876
-0.0879796
-0.132476
-0.124768
-0.117934
-0.128519
-0.0879153
-0.102559
-0.0676578
-0.0754417
-0.0649773
-0.0640936
-0.0801882
-0.0699789
-0.117222
-0.0963317
-0.160476
-0.140718
-0.131462
-0.155398
-0.107199
-0.0836054
-0.0800478
-0.0506962
-0.0568351
-0.0419233
-0.0667519
-0.0796902
-0.0603171
-0.191166
-0.0822253
-0.0841383
-0.186222
-0.0700715
-0.065397
-0.0748681
-0.0506707
-0.056723
-0.0487676
-0.0480402
-0.0605786
-0.0528065
-0.0910812
-0.0730518
-0.144382
-0.115167
-0.200897
-0.175262
-0.202453
-0.213197
-0.139535
-0.174871
-0.106274
-0.0807359
-0.0646562
-0.101606
-0.0947132
-0.0920471
-0.100743
-0.0694109
-0.0811828
-0.0563844
-0.0611829
-0.0598128
-0.0562886
-0.0805172
-0.0677657
-0.123053
-0.0992883
-0.172068
-0.149032
-0.186514
-0.128049
-0.14943
-0.0815074
-0.105355
-0.0383009
-0.0504154
-0.066282
-0.0680844
-0.0472143
-0.0464964
-0.055665
-0.0251179
-0.0388193
-0.0269282
-0.163017
-0.172547
-0.0774401
-0.0615432
-0.0572476
-0.187746
-0.194599
-0.0601507
-0.0605609
-0.0634525
-0.0470224
-0.0544154
-0.0363104
-0.040301
-0.0372165
-0.0354557
-0.0499218
-0.0420396
-0.0797909
-0.0623496
-0.132332
-0.103504
-0.190606
-0.163853
-0.195555
-0.203857
-0.131715
-0.168117
-0.0965006
-0.0320205
-0.0266824
-0.053608
-0.0414946
-0.0710094
-0.0649773
-0.0662871
-0.071799
-0.0506147
-0.0583801
-0.0439523
-0.0455343
-0.0520411
-0.0462835
-0.0761115
-0.0617918
-0.120972
-0.0963053
-0.172101
-0.14794
-0.188223
-0.121535
-0.142933
-0.0995623
-0.0312581
-0.0491861
-0.0588
-0.0325869
-0.044273
-0.0373741
-0.0501618
-0.0710119
-0.0522818
-0.145163
-0.153623
-0.182511
-0.175466
-0.0415713
-0.039244
-0.0190905
-0.0115207
-0.0336318
-0.172418
-0.0562819
-0.0403283
-0.0429229
-0.0293627
-0.0353321
-0.0226324
-0.0251085
-0.0251141
-0.0227766
-0.0373466
-0.0298557
-0.0647527
-0.0487266
-0.113259
-0.0864053
-0.16943
-0.14304
-0.176534
-0.182964
-0.114538
-0.150398
-0.0509082
-0.0792184
-0.0120119
-0.0290362
0.0120305
0.00187056
-0.011979
-0.0200166
-0.0144515
-0.0144926
-0.0118839
-0.0283937
-0.0202634
-0.0428362
-0.0372709
-0.0410721
-0.0440262
-0.0314222
-0.0360911
-0.0298396
-0.0290878
-0.041019
-0.0339232
-0.0663908
-0.0516062
-0.111556
-0.0865937
-0.163096
-0.138692
-0.179026
-0.111241
-0.130226
-0.0911224
-0.0437366
-0.0299398
-0.00965356
0.017634
-0.0532416
-0.0571304
-0.0353946
-0.153033
-0.165332
-0.158498
-0.0559291
-0.0511165
-0.0453451
-0.0620157
-0.0367754
-0.0134542
0.018498
-0.160828
-0.0580719
-0.0244388
-0.0202578
-0.022777
-0.0219403
-0.0242634
-0.0139542
-0.017996
-0.00988501
-0.0110997
-0.0130654
-0.0106436
-0.0239118
-0.0173622
-0.0472009
-0.0336309
-0.0885321
-0.0655148
-0.138892
-0.114706
-0.148119
-0.152406
-0.0902532
-0.124337
-0.028821
-0.0563407
0.008461
-0.00832743
0.0339585
0.0223985
0.0460466
0.0419139
-0.00762714
-0.0285069
-0.0161034
0.000264936
-0.00248332
0.000894409
0.00128958
-0.00703586
-0.00205456
-0.0175712
-0.0130296
-0.0177164
-0.0190589
-0.0125079
-0.014901
-0.0145476
-0.0122027
-0.0274884
-0.0197334
-0.0529206
-0.03835
-0.0960437
-0.0724622
-0.146006
-0.122416
-0.161667
-0.0676872
-0.0458342
0.0163462
0.0478647
-0.142417
-0.142403
-0.130968
-0.121748
-0.12469
-0.131698
-0.098346
-0.113461
-0.0636051
-0.081265
-0.0311227
-0.0467302
-0.0172532
-0.064244
-0.0624878
-0.0757005
-0.0596464
-0.0887559
-0.0457554
-0.0692526
-0.0983176
-0.0197509
0.0476609
0.0147036
-0.00689917
-0.00512887
-0.06693
-0.00892615
-0.00836113
-0.00590386
-0.00820356
-0.000541931
-0.00324078
0.00151204
0.00116506
-0.00174648
0.00046106
-0.0106747
-0.00534209
-0.0291795
-0.0184661
-0.0616093
-0.0435164
-0.102889
-0.0826124
-0.113698
-0.115464
-0.0616572
-0.0929134
-0.0033222
-0.029536
0.0311401
0.0160823
0.0554489
0.0440016
0.0705045
0.0643524
0.0794693
0.0751457
-0.0130259
-0.0426504
-0.0260851
0.00375563
-0.00331625
0.0113157
0.00837645
0.0134468
0.0127375
0.0104019
0.012751
0.0036974
0.00691387
0.00258554
0.00229498
0.00472553
0.00391593
0.000319611
0.00366009
-0.0133426
-0.00542596
-0.0374917
-0.0238736
-0.0766119
-0.055205
-0.121623
-0.100357
-0.140986
-0.137028
-0.116984
-0.132593
-0.098509
-0.108541
-0.0861056
-0.100459
-0.105586
-0.109543
-0.085741
-0.0973962
-0.0568818
-0.0718987
-0.0279485
-0.0420585
-0.0987329
-0.0627475
0.0516635
0.0766701
-0.00428141
-0.0152573
-0.0839237
-0.0760134
-0.105299
-0.0748526
-0.125799
-0.0581971
-0.137336
-0.0254083
-0.0854148
-0.132539
0.0168099
0.0717361
0.0524199
-0.0479434
-0.107795
-0.060522
0.0636922
0.0790588
0.0695384
0.00498886
-0.00428448
0.00444331
-0.0843537
0.00438608
0.00524339
0.00412782
0.00414498
0.00690016
0.00515162
0.0106287
0.00894366
0.0113621
0.0114787
0.00850526
0.0103181
0.00161817
0.00570116
-0.0120192
-0.00419869
-0.0352501
-0.022317
-0.0654704
-0.050398
-0.0743752
-0.0755079
-0.0324487
-0.059114
0.0226845
-0.00282346
0.0556286
0.0416517
0.0762333
0.0667614
0.0888876
0.0836754
0.0912959
0.0916708
0.0868219
-0.0204879
-0.0337371
0.000599512
-0.00908406
0.0138701
0.00798897
0.0206102
0.0178588
0.0236095
0.0223666
0.0238613
0.024223
0.0205439
0.0224247
0.0189367
0.0192369
0.0189746
0.0191974
0.0134863
0.0171791
0.00035118
0.00780115
-0.0210787
-0.00915371
-0.0543405
-0.036184
-0.0931986
-0.0744399
-0.109451
-0.106551
-0.089493
-0.103267
-0.0729829
-0.0696294
-0.0532793
-0.0881989
-0.0807192
-0.0896051
-0.0910293
-0.0756417
-0.0842716
-0.0519703
-0.0645246
-0.0263746
-0.0389923
-0.0146522
-0.113467
-0.0974172
-0.145717
-0.0941361
-0.171771
-0.0692782
-0.180557
-0.0261914
-0.164553
0.0209402
-0.0687311
-0.123596
0.0496102
0.057986
0.0529013
-0.0291124
-0.0685159
-0.0262729
0.0444638
0.060686
0.0476505
-0.00579905
0.0026178
0.0130915
0.0120571
-0.110948
0.0139048
0.0140794
0.0147821
0.0143146
0.017235
0.015846
0.019625
0.0186033
0.0196334
0.0199239
0.0174305
0.0187728
0.0124828
0.0153947
0.00321624
0.00845932
-0.0117433
-0.00349523
-0.0307625
-0.021264
-0.0367769
-0.0372926
-0.00507246
-0.025861
0.0437549
0.0201858
0.0751304
0.062033
0.0914717
0.0844867
0.0988126
0.0962782
0.0958486
0.0986399
0.0819474
0.0901367
0.0720814
-0.0194753
-0.0263404
-0.00268998
-0.0112182
0.0119538
0.00495697
0.0222128
0.0176316
0.028301
0.0257039
0.0316397
0.0301703
0.0336184
0.0328367
0.0331057
0.0336888
0.0316276
0.0322901
0.0301576
0.031085
0.0245398
0.028071
0.0129655
0.0194369
-0.00476877
0.00495824
-0.0311284
-0.0167926
-0.0631349
-0.0473393
-0.0785654
-0.0747142
-0.0623855
-0.0734494
-0.0490125
-0.0266019
-0.0116018
-0.0540451
-0.0410462
-0.0721762
-0.06451
-0.0771702
-0.0764565
-0.0683661
-0.0743635
-0.0493658
-0.0597386
-0.0267474
-0.0380948
-0.0158726
-0.153207
-0.124864
-0.194188
-0.113265
-0.219913
-0.0742114
-0.217965
-0.0205328
-0.183736
0.0240893
-0.124455
0.0415137
-0.0163279
-0.0567633
0.0394851
0.0328015
0.0285526
0.00882455
-0.14592
0.0201452
0.0160344
0.0185108
0.0216315
0.0209857
0.0230843
0.0221528
0.0251707
0.0241172
0.0266122
0.0260264
0.0264165
0.0266699
0.024947
0.0258355
0.0217019
0.0235966
0.0160268
0.0191846
0.00761414
0.0121538
-0.00188385
0.00268225
-0.00298766
-0.00452075
0.0203014
0.00527102
0.05876
0.0395579
0.0859662
0.0745312
0.0985178
0.0935962
0.101574
0.101084
0.095815
0.0998197
0.08153
0.0895227
0.0610542
0.0719119
0.0355724
0.0490031
-0.00279035
0.00844208
0.00064384
0.000758754
-0.00221549
0.0109385
0.00550218
0.0210726
0.0161462
0.0289747
0.0253564
0.0343561
0.0319468
0.0378351
0.0362602
0.0404711
0.0392287
0.041779
0.0413745
0.0411495
0.041693
0.0390221
0.0402969
0.0338218
0.0369292
0.0242292
0.0295344
0.0105791
0.0179048
-0.00858687
0.00187533
-0.0341337
-0.0211236
-0.0477925
-0.0442291
-0.0366759
-0.0449308
-0.0162429
-0.0262126
-0.00852647
-0.0182897
0.00552004
-0.00591387
-0.0415254
-0.0301102
-0.0599471
-0.0517893
-0.068055
-0.0654814
-0.0638939
-0.0674915
-0.0491869
-0.0575791
-0.0289272
-0.0393598
-0.00857832
-0.0185863
0.00694743
0.00056062
0.00183947
0.0197786
0.0158945
0.020841
-0.198943
-0.153801
0.00950331
-0.241527
-0.125782
0.0199331
0.00619605
0.0163718
-0.257112
-0.0701964
-0.234841
-0.0119985
-0.17903
0.021909
-0.106248
0.028882
-0.036495
0.0226797
0.0319519
0.0190899
0.00977486
-0.00290304
0.00506305
-0.184552
0.0252379
0.0228707
0.0274421
0.0261136
0.0292635
0.0280558
0.0310476
0.0300669
0.0319326
0.0316129
0.0318645
0.0319803
0.0310856
0.0315805
0.0292669
0.0303235
0.0263359
0.0279301
0.0226139
0.0245236
0.0198731
0.020898
0.0236856
0.0204323
0.0420194
0.031015
0.0698675
0.0558552
0.0906939
0.0817893
0.0999571
0.0965346
0.100668
0.101251
0.0937529
0.0981447
0.0801115
0.0877011
0.0611876
0.0711956
0.0379501
0.0500741
0.0115751
0.025096
0.0228718
0.0385231
0.0303616
0.014121
0.0172728
0.0150502
0.0133847
0.0210885
0.0176487
0.0282231
0.0247041
0.0343333
0.0314546
0.039018
0.0368413
0.0424772
0.04087
0.0453054
0.0439345
0.0474117
0.0465082
0.0478193
0.0478921
0.0461105
0.0472291
0.0418546
0.0443378
0.0345454
0.0385429
0.0250022
0.0299943
0.0117313
0.0191966
-0.00891588
0.00191192
-0.0210234
-0.0175387
-0.013837
-0.0196787
-0.000298842
-0.00709343
0.00508401
0.00920584
0.0176738
-0.0107057
-0.000497641
-0.0319581
-0.0212574
-0.0508681
-0.0420899
-0.0619793
-0.0576613
-0.0620791
-0.0634766
-0.0512727
-0.0578813
-0.0329937
-0.0427327
-0.0127615
-0.0228623
-0.00289561
0.0442517
0.0458057
-0.0115013
-0.00223223
-0.240333
-0.175733
0.0253815
0.023306
-0.273511
-0.125219
-0.267717
-0.0578459
-0.220282
-0.00674917
-0.147006
0.0123192
-0.0695072
0.0116396
-0.00258495
0.00173861
0.0392911
-0.0122102
0.0512041
0.0544743
-0.0233916
0.0481562
0.048299
0.0533511
0.0267265
-0.028119
-0.0155627
-0.216841
0.0290623
0.0266129
0.031813
0.0301549
0.033775
0.0326357
0.0352027
0.0345003
0.0359451
0.0356641
0.0361596
0.0361072
0.0359705
0.0361343
0.0352912
0.035691
0.0343423
0.0348286
0.0337245
0.0339283
0.0350823
0.0339981
0.041813
0.0375165
0.0573326
0.0485044
0.077553
0.0675257
0.0924727
0.0860654
0.0987896
0.0966065
0.0979381
0.0991753
0.0907058
0.0950532
0.0780417
0.0849486
0.0609597
0.0699827
0.0403947
0.0510361
0.0176774
0.0291841
-0.00469555
0.00628784
0.0412291
0.04557
0.0313011
0.0362163
0.0251916
0.027441
0.0248678
0.0243912
0.0285327
0.026307
0.0336405
0.0310633
0.0384597
0.0361293
0.0425334
0.0405919
0.0458672
0.0442809
0.0487065
0.0473308
0.0510664
0.0499729
0.0521949
0.0518305
0.0514367
0.0520476
0.0487246
0.050325
0.044059
0.0465967
0.0381202
0.0412363
0.0283999
0.0341543
0.0113947
0.020323
0.000937038
0.0042959
0.00441454
0.00140256
0.0128584
0.0085617
0.0191703
0.0166418
0.0214307
0.0129456
0.0204236
-0.00445193
0.00467275
-0.0247547
-0.0143682
-0.0446407
-0.035067
-0.0588033
-0.0527551
-0.0630146
-0.0623024
-0.0559493
-0.0608377
-0.0396155
-0.0486872
-0.018781
-0.0293076
0.00278848
-0.00739119
0.0201261
0.0105031
-0.263781
-0.181056
-0.0146682
-0.0281692
0.0278639
0.0177168
0.0232179
0.00457472
-0.00334672
-0.276383
-0.110897
-0.243386
-0.0448304
-0.174416
-0.0105067
-0.0941533
-0.00429494
-0.0221606
-0.0107794
0.0309939
-0.0242031
0.0573815
-0.0372423
0.0453516
0.0416649
0.0362581
0.0392005
0.0603573
-0.0448538
0.0512866
0.0113797
0.0293439
0.0142718
-0.230915
0.0304227
0.0288122
0.0324831
0.0310621
0.0350261
0.033637
0.0369227
0.0359768
0.0381784
0.0376193
0.0389594
0.0386304
0.0394671
0.0392552
0.0397659
0.0396516
0.0399526
0.0398628
0.0403656
0.040104
0.0416743
0.0408479
0.0452167
0.0430595
0.0529962
0.0484645
0.066187
0.0589454
0.0813529
0.0739611
0.0920913
0.0875165
0.0962139
0.0949344
0.0943919
0.0959871
0.0873023
0.0914435
0.0757626
0.0820268
0.0605421
0.0685503
0.0425097
0.0517928
0.0230963
0.0327981
0.0135883
0.0456985
0.0448128
0.0424563
0.0447893
0.03639
0.0394427
0.0320118
0.033792
0.0315133
0.0313336
0.0338994
0.0324288
0.0376675
0.0357179
0.0415511
0.0396338
0.0451076
0.0433796
0.048248
0.0467271
0.0510303
0.0496773
0.0534386
0.0522978
0.0549695
0.0543398
0.0551419
0.0552273
0.0540181
0.0547201
0.0518588
0.0530503
0.0485084
0.0504183
0.0407186
0.0454785
0.0270329
0.0341002
0.018236
0.0213876
0.0186462
0.0176452
0.0228056
0.0205851
0.0265214
0.0247369
0.0279175
0.0284488
0.0325647
0.0166405
0.0231467
0.000511027
0.00915762
-0.0197359
-0.00922628
-0.0411544
-0.0305897
-0.0585622
-0.0506974
-0.0670333
-0.0641451
-0.0637763
-0.0669192
-0.0493305
-0.0577603
-0.0277017
-0.0389276
-0.00425385
-0.0158551
0.00444466
-0.0445628
0.0191473
-0.0233814
-0.0100591
-0.258694
-0.167241
-0.245705
-0.090725
-0.190406
-0.0402695
-0.0395507
-0.110371
-0.024703
-0.0322403
-0.0274115
0.0269217
-0.040242
0.0287417
0.0288982
0.0218234
0.0196491
0.0610334
-0.0555051
0.029979
0.069726
-0.0648665
0.0445919
0.0603897
-0.0666204
0.0168681
0.0377022
0.0360874
-0.0306192
-0.0155515
0.0376345
-0.219812
0.0309144
0.0245089
0.0274482
0.0340697
0.0327397
0.0355427
0.0347554
0.0374179
0.0364695
0.0390914
0.03833
0.0402989
0.0397708
0.0411986
0.0407949
0.0419489
0.0416006
0.0426382
0.0423009
0.0434546
0.0430166
0.0447602
0.0440191
0.0471768
0.0457804
0.0517001
0.0491079
0.0594462
0.055133
0.0705235
0.064608
0.0821312
0.0765459
0.0900724
0.0867237
0.0927599
0.0920519
0.0904998
0.0922069
0.0838279
0.0876628
0.0734618
0.0790428
0.0600818
0.0671011
0.0444775
0.0524819
0.0279757
0.0361977
0.0126632
0.0199821
0.00109263
0.00623541
-0.0193095
-0.00562089
-0.00295209
0.0395206
0.0349316
0.0438788
0.0424884
0.0428438
0.0438913
0.0392583
0.0411573
0.036412
0.0375833
0.0360152
0.0359259
0.0376972
0.036651
0.0405752
0.0390523
0.0437952
0.0421779
0.0469368
0.0453886
0.0498595
0.0484271
0.0525435
0.0512318
0.0549269
0.0537857
0.0566746
0.0558985
0.0575163
0.0572059
0.0575925
0.0576244
0.0571407
0.0574417
0.0553096
0.0565348
0.049073
0.0529038
0.038496
0.0439253
0.0308755
0.0339469
0.0289835
0.0293821
0.0300217
0.0293132
0.0318132
0.0309439
0.0334365
0.0327743
0.0342557
0.0302281
0.0338749
0.0196855
0.0255484
0.00408817
0.0125988
-0.0167842
-0.00581398
-0.0401815
-0.0284358
-0.0612104
-0.0513388
-0.074312
-0.0690726
-0.0750767
-0.0763914
-0.0624911
-0.0703095
-0.0399931
-0.0519977
-0.0146643
-0.0275189
0.00322195
-0.00443356
0.00986051
-0.226392
-0.140953
-0.00618691
0.0058928
0.00605476
-0.193409
-0.0765138
-0.0602554
-0.125119
-0.0493783
-0.0420235
-0.0483474
-0.0494709
0.014298
0.0189388
0.0137388
0.00708197
0.0285914
-0.0592862
0.00966874
0.0706078
-0.0777559
-0.0209324
-0.0359384
0.018396
0.0830325
-0.091786
0.0335325
0.0736382
-0.0939246
0.0536402
0.0294432
0.0232174
0.0280799
0.014693
0.0373716
0.0379346
0.0220565
-0.189162
0.0333759
0.031377
0.0363993
0.0350565
0.0377707
0.0371069
0.0391927
0.03852
0.0406102
0.0399567
0.0417954
0.0412537
0.0428131
0.0423356
0.0437563
0.0432966
0.0447445
0.0442392
0.0459954
0.0453225
0.0478527
0.0468234
0.0508423
0.0491689
0.0556587
0.0529832
0.0628631
0.0589611
0.0720995
0.067279
0.0811438
0.0768332
0.0871717
0.0846502
0.0889521
0.0885881
0.0865873
0.0882561
0.0805039
0.0839677
0.0713001
0.0762366
0.0596478
0.0657321
0.0462692
0.0531182
0.0324174
0.0392544
0.0197287
0.0257437
0.0105019
0.0145856
0.00749533
0.0298581
0.0244628
0.0383997
0.0346017
0.0425964
0.0410619
0.0427756
0.0430942
0.0408705
0.0419312
0.03918
0.0399009
0.0389654
0.0388451
0.0403016
0.0394804
0.0426218
0.0413781
0.0453657
0.0439707
0.0481693
0.0467736
0.0508789
0.0495392
0.0534368
0.052181
0.0557603
0.0546375
0.0576159
0.0567601
0.0588797
0.0583178
0.0596714
0.0593157
0.0600862
0.0599489
0.0590796
0.0598901
0.0542969
0.0572412
0.0461414
0.0503748
0.03931
0.0423006
0.036021
0.0372749
0.0351456
0.0353855
0.035572
0.0353337
0.0363174
0.0359571
0.0368721
0.0369206
0.0385484
0.0383348
0.0317139
0.0348479
0.021984
0.0275138
0.0063099
0.0149653
-0.0155594
-0.00395772
-0.0412745
-0.0281664
-0.0663097
-0.0542437
-0.0843761
-0.0766254
-0.0894218
-0.0887972
-0.0786439
-0.0859462
-0.0548433
-0.0679182
-0.0273654
-0.0411516
-0.00502823
-0.0151134
0.00470526
-0.0051492
0.00797697
-0.181317
-0.116412
-0.0877805
-0.137928
-0.0774715
0.00943407
0.0168614
0.0151451
0.00626705
-0.0636501
-0.0719275
-0.0742621
0.000849636
0.0194819
-0.0835555
-0.000218162
0.0810311
-0.103304
-0.020938
-0.0571295
0.00530888
0.102586
-0.123003
-0.0391929
0.0188712
0.0931244
-0.131316
0.0405268
0.067792
0.0269119
0.0388324
-0.00268497
0.0111207
-0.154134
0.0329144
0.0298374
0.0315267
0.0355965
0.0344713
0.037736
0.0367511
0.0391086
0.038444
0.0403757
0.0397693
0.0416364
0.0410315
0.0428143
0.042252
0.0439205
0.0433836
0.0450154
0.044469
0.0462243
0.0455975
0.0477586
0.0469363
0.0499282
0.0487428
0.0531533
0.0513824
0.0578946
0.0553143
0.0643807
0.0609341
0.0720855
0.0681415
0.0792425
0.0758551
0.0839252
0.0819796
0.0851369
0.0849696
0.0828537
0.0844076
0.0774193
0.0804948
0.0693345
0.0736641
0.0592552
0.0644955
0.0478761
0.0536813
0.036267
0.0419914
0.0259869
0.0308666
0.0186555
0.0218351
0.0157033
0.0164835
0.018724
0.0164217
0.015325
0.0272903
0.0222855
0.0231696
0.0195703
0.0313261
0.0272558
0.0380011
0.0349928
0.0417205
0.0402586
0.0425485
0.0424402
0.0417209
0.0422434
0.0408473
0.0411891
0.0408784
0.0407043
0.0420455
0.0413456
0.0440062
0.042951
0.0463983
0.0451714
0.0489269
0.0476583
0.0514395
0.0501907
0.0538575
0.0526646
0.0560881
0.0550066
0.0579822
0.0570508
0.0594848
0.0587839
0.060636
0.060094
0.0613929
0.0610929
0.0607771
0.0613577
0.0570592
0.0593559
0.05059
0.0539862
0.0444751
0.0473092
0.0405531
0.0422237
0.0387068
0.0394041
0.0381537
0.0382387
0.038194
0.038037
0.0386989
0.0382819
0.0385553
0.0376791
0.03902
0.032863
0.0356813
0.0235063
0.0289285
0.00751685
0.0164004
-0.0154588
-0.00316956
-0.0436598
-0.0291032
-0.0728034
-0.0585009
-0.0959347
-0.0856053
-0.105466
-0.102802
-0.0965772
-0.103367
-0.0713051
-0.0855426
-0.0402083
-0.0557432
-0.0114427
-0.0250563
0.0118281
0.000568835
0.0257608
0.0199576
-0.122701
-0.14223
-0.106513
0.0265012
0.0395077
0.0140486
0.00411378
-0.0954431
-0.0954318
0.0341237
0.0218048
-0.106482
-0.00407501
-0.0157436
-0.109449
0.000935967
-0.00912577
0.0681775
-0.135278
-0.0195017
-0.0852562
-0.00819341
0.120325
-0.160979
-0.0404933
0.00172015
0.118227
-0.174749
-0.062321
0.0220267
0.0891667
-0.171035
0.0524744
0.0416884
0.0513802
0.0571015
0.0138321
0.0155013
-0.131167
0.0320701
0.028372
0.0307989
0.0349093
0.0338184
0.0370646
0.0363219
0.0386231
0.0379343
0.0398614
0.039265
0.0410532
0.0404659
0.0422549
0.0416625
0.043442
0.0428566
0.044618
0.0440353
0.0458293
0.0452163
0.0471931
0.0464836
0.0489016
0.047991
0.0512226
0.0499682
0.0544812
0.0527169
0.0589677
0.0565629
0.0647184
0.0617052
0.0711774
0.0679179
0.0769341
0.074218
0.0806477
0.0791138
0.0814984
0.0814402
0.0793954
0.0807975
0.0746057
0.0773068
0.0675765
0.0713309
0.058916
0.0634058
0.0493042
0.0541809
0.0396766
0.0444145
0.0314666
0.0352758
0.0257228
0.0281694
0.0240577
0.024285
0.0278914
0.0252971
0.0374324
0.0317638
0.0440015
0.0225326
0.0243228
0.0227854
0.0232349
0.0225788
0.0271054
0.0247143
0.0329032
0.0299046
0.0380509
0.0356763
0.0411719
0.039885
0.0422951
0.041952
0.0421438
0.0423091
0.041812
0.0419348
0.0420742
0.0418478
0.0431472
0.0425183
0.0448732
0.0439453
0.0470037
0.0459054
0.0493068
0.0481452
0.0516384
0.0504754
0.0539137
0.0527876
0.0560433
0.055003
0.0579339
0.0570178
0.0595135
0.0587612
0.0607911
0.0601894
0.061598
0.0612836
0.0610892
0.0615825
0.0580422
0.05991
0.0527698
0.0555598
0.0473494
0.0499562
0.0432984
0.0451139
0.0408873
0.0419085
0.0396959
0.0401635
0.0392328
0.0393921
0.0390453
0.0391272
0.0389985
0.0390263
0.0381675
0.0392397
0.0338073
0.0364236
0.0245428
0.0299665
0.00820609
0.0173175
-0.0157995
-0.0028697
-0.0462858
-0.030409
-0.0791415
-0.0628144
-0.107038
-0.0942513
-0.120986
-0.116278
-0.11418
-0.120344
-0.0873819
-0.102865
-0.0509782
-0.069334
-0.0161488
-0.0325917
0.00904003
-0.00251577
0.0235033
0.0174342
0.0246986
0.00319775
-0.122152
-0.115754
0.0492537
0.0567991
0.0642219
0.0377354
0.0269188
0.0306809
-0.148971
-0.00757052
-0.0718568
-0.131173
0.0071505
-0.0163463
0.0164884
-0.166939
-0.0162188
-0.121621
-0.0204243
0.101906
-0.206711
-0.040009
-0.0169738
0.143067
-0.231706
-0.0924235
-0.064951
0.000117635
0.115617
-0.229515
0.028787
0.0711534
0.0291781
0.00811
0.00418577
-0.128295
0.0328052
0.0315453
0.0359002
0.0346624
0.0378612
0.0370804
0.0391192
0.0385389
0.040224
0.0396649
0.041354
0.0407788
0.0425353
0.0419398
0.0437417
0.0431365
0.0449764
0.044356
0.0462776
0.0456152
0.0477477
0.0469836
0.0495555
0.0485979
0.051926
0.0506567
0.0551053
0.0534029
0.059265
0.0570618
0.0643304
0.0617073
0.0697386
0.0670515
0.0744996
0.0722793
0.0775049
0.0762692
0.0781252
0.0781235
0.0762461
0.0774849
0.0720757
0.0744196
0.066024
0.0692497
0.0586327
0.062455
0.0505638
0.0546349
0.0426743
0.0465347
0.0360901
0.0391446
0.0319224
0.033608
0.031337
0.0310546
0.0355701
0.0328685
0.0446933
0.0395022
0.0572585
0.0508644
0.052825
0.0642085
0.0708177
0.0635625
0.0290166
0.0326007
0.0299811
0.0287088
0.0286547
0.0306754
0.0293835
0.034546
0.0324672
0.0383764
0.0365783
0.0409277
0.0398324
0.0420871
0.0416588
0.0423112
0.0422722
0.0423336
0.0423014
0.0427537
0.0424766
0.0437776
0.0431918
0.0453416
0.044504
0.0472705
0.0462738
0.0493828
0.0483139
0.0515481
0.0504651
0.0536801
0.0526229
0.0557039
0.05471
0.0575379
0.0566492
0.0591052
0.058354
0.0603663
0.0597797
0.0610776
0.060819
0.0605414
0.0610177
0.057932
0.0595074
0.0535206
0.0558639
0.0487445
0.0510973
0.0448096
0.0466308
0.0421529
0.0433335
0.0405776
0.0412568
0.0397041
0.0400786
0.0391433
0.0394101
0.0387057
0.0390027
0.0394629
0.0386223
0.0386517
0.0394183
0.0347008
0.0371896
0.0253954
0.0308505
0.0088739
0.01811
-0.0158343
-0.00245241
-0.0479665
-0.0311267
-0.0836562
-0.0657623
-0.115413
-0.10062
-0.13316
-0.12665
-0.128353
-0.133857
-0.100158
-0.116825
-0.0587018
-0.0796584
-0.0199998
-0.0380353
0.00663191
-0.00519018
0.0208464
0.014927
0.0231759
0.0424457
-0.207061
-0.00992044
-0.122766
-0.144048
0.0281713
0.0375179
0.0178635
-0.0214963
-0.0651205
-0.188714
0.0264316
0.0755061
0.0810399
-0.00905943
0.0276823
0.0173638
-0.170292
-0.0309204
0.0346366
-0.247143
-0.036733
-0.0332703
0.120044
-0.29589
-0.131912
-0.0653606
-0.0221266
0.146276
-0.309345
-0.096014
-0.000288364
0.0943652
-0.282148
0.0463819
0.0592754
0.0407093
0.0710667
-0.00624467
-0.0102231
-0.145126
0.0331331
0.0302565
0.036102
0.0346821
0.0379637
0.0371296
0.0392004
0.0386237
0.0402579
0.039724
0.0413546
0.0407923
0.042531
0.0419336
0.0437616
0.0431381
0.0450489
0.0443983
0.0464215
0.0457211
0.047966
0.0471654
0.0498264
0.0488471
0.0521882
0.0509341
0.0552338
0.0536184
0.0590548
0.0570508
0.0635189
0.061229
0.0681375
0.0658551
0.0720974
0.0702597
0.0745715
0.073557
0.075048
0.0750699
0.0734043
0.0744816
0.0698183
0.0718322
0.0646454
0.0673989
0.0583827
0.061613
0.0516501
0.0550294
0.0452438
0.0483523
0.0400823
0.0424525
0.0371261
0.0382696
0.0375051
0.036799
0.0419415
0.039153
0.0506366
0.0457372
0.0622055
0.0563188
0.0760069
0.0682182
0.0444196
0.0370848
0.0506239
0.03923
0.0441598
0.0346415
0.0362542
0.0332929
0.0337191
0.033811
0.0332572
0.0361828
0.0348559
0.0388857
0.0375812
0.0408697
0.0399931
0.0419187
0.0414982
0.0423171
0.04217
0.0425532
0.042423
0.0430741
0.0427624
0.0440646
0.0435101
0.0455039
0.0447364
0.0472675
0.0463556
0.0492122
0.048226
0.0512221
0.050215
0.0532149
0.0522248
0.0551238
0.0541837
0.0568693
0.0560221
0.0583725
0.0576519
0.0595457
0.05901
0.0601153
0.0599306
0.059522
0.06
0.0572171
0.0585862
0.0534402
0.0554495
0.0492181
0.051342
0.0454962
0.0472555
0.042755
0.0440074
0.0409302
0.0417482
0.0397439
0.0402776
0.0389083
0.0392892
0.0381242
0.0385392
0.0368198
0.0374594
0.0390133
0.0369058
0.037907
0.0389703
0.0393749
0.0353376
0.0377197
0.0262232
0.0315714
0.0098859
0.0190467
-0.014966
-0.00143973
-0.0478046
-0.0305247
-0.0850264
-0.0662476
-0.119067
-0.10306
-0.139314
-0.131597
-0.136117
-0.14099
-0.107559
-0.12471
-0.0632512
-0.0851998
-0.0232513
-0.0419461
0.00420624
-0.00781165
0.0185139
0.0125236
0.0254736
0.0226069
0.0263847
0.0317316
-0.0249088
-0.140747
-0.193888
0.0285307
0.0854957
0.0360755
0.00290017
0.0505975
0.035787
0.0390853
0.0294875
-0.236015
-0.0393668
-0.0711452
-0.2689
-0.0289894
-0.0480537
0.0408161
-0.345576
-0.184567
0.0644841
-0.0623117
-0.0461284
0.12173
-0.392278
-0.0965154
-0.0311333
0.128009
-0.382459
-0.136363
0.00423714
0.0533214
0.0884363
-0.0242757
0.00311543
-0.0142121
0.0838158
-0.02709
-0.181262
0.0325735
0.0305638
0.0357477
0.0343845
0.037653
0.036816
0.0389379
0.0383389
0.0400142
0.0394768
0.0411028
0.0405458
0.0422835
0.0416712
0.043541
0.0429017
0.0448758
0.0441988
0.046308
0.0455766
0.0479091
0.0470818
0.0497979
0.0488096
0.0521241
0.0508984
0.0550201
0.0534969
0.0585233
0.0567015
0.0624771
0.0604648
0.0664576
0.0645003
0.0698087
0.0682557
0.0718794
0.0710311
0.0722663
0.0722931
0.0708631
0.0717797
0.0678029
0.0695188
0.0634128
0.0657459
0.0581456
0.0608548
0.0525715
0.0553552
0.0474135
0.0498928
0.0434642
0.045242
0.0415481
0.0422034
0.0425592
0.0416408
0.0471274
0.0443768
0.0555008
0.0508512
0.0661973
0.0606599
0.0798679
0.0724167
0.095469
0.09775
0.0884749
0.0924835
0.0531964
0.0468668
0.055629
0.0628858
0.0584699
0.0448398
0.0495885
0.0393156
0.041496
0.0369738
0.0378872
0.0365394
0.0365253
0.0377195
0.0369873
0.0394754
0.038595
0.0409228
0.0402656
0.0417896
0.0414238
0.0422328
0.0420445
0.0425789
0.0423959
0.0431492
0.0428231
0.0440999
0.0435759
0.0454288
0.044723
0.0470461
0.0462096
0.048837
0.0479274
0.0506998
0.049765
0.0525572
0.0516332
0.0543457
0.0534635
0.0559872
0.0551923
0.0574079
0.0567317
0.0584709
0.0579947
0.0589077
0.0587883
0.0582725
0.0587487
0.0561995
0.0574139
0.0528951
0.0546566
0.0491259
0.0510124
0.0456433
0.0473165
0.0428898
0.0441722
0.0408859
0.0418052
0.0394368
0.0401066
0.0382903
0.0388441
0.0371722
0.0377765
0.0355931
0.036415
0.0346971
0.0364277
0.0337161
0.0352185
0.0386503
0.0376352
0.0391024
0.0392078
0.035852
0.0380499
0.0272201
0.0323122
0.0114303
0.0203133
-0.0129647
0.000425164
-0.0454084
-0.0283022
-0.082546
-0.0637568
-0.116899
-0.100675
-0.137858
-0.129756
-0.135772
-0.140002
-0.109351
-0.125184
-0.0639791
-0.0839833
-0.0253824
-0.0437044
0.00192243
-0.0101156
0.0168465
0.0105231
0.0232546
0.0210218
0.0242749
0.0241749
0.0186492
0.0175351
-0.0357718
-0.0164876
0.00232546
-0.325554
-0.0460024
-0.0454188
-0.172802
-0.265137
-0.0157001
-0.061026
-0.0855685
-0.365607
0.106027
0.107519
-0.255568
0.0792701
0.101126
0.09807
0.0597476
0.0664918
0.032725
0.0321282
0.0310408
0.024185
0.0220901
0.0220511
-0.0541474
-0.0680327
0.035677
-0.447713
0.0217562
0.0387949
-0.0932634
-0.0628893
0.104608
-0.477542
-0.190353
-0.136155
-0.0636081
-0.040546
-0.0386718
0.0888871
-0.438068
0.00983569
-0.0483785
-0.235541
0.0283525
0.0262721
0.0320933
0.0303544
0.0351248
0.0337496
0.0370821
0.0362028
0.0384269
0.0377987
0.0395398
0.03899
0.0406429
0.0400818
0.0418291
0.0412194
0.0431114
0.0424585
0.0444874
0.0437871
0.0459732
0.0452145
0.0476237
0.0467734
0.0495338
0.04854
0.0518201
0.0506242
0.0545745
0.0531371
0.057798
0.0561344
0.0613267
0.059543
0.0647914
0.0630968
0.0676661
0.0663363
0.0694319
0.0687087
0.0697687
0.0697864
0.0685803
0.0693575
0.0659928
0.0674435
0.0622953
0.0642572
0.0579014
0.0601544
0.0533324
0.0556016
0.0492301
0.0511813
0.0462953
0.0475761
0.0452476
0.0454948
0.0467911
0.0456644
0.0514812
0.0487204
0.0594509
0.0551064
0.0697559
0.064345
0.0830678
0.0759694
0.0995985
0.0909779
0.103879
0.051613
0.0347383
0.0436935
0.0631336
0.0579627
0.0709666
0.0673562
0.0492893
0.0539467
0.043215
0.0457662
0.0400495
0.041351
0.0388436
0.0392376
0.039107
0.038836
0.040082
0.03956
0.0410425
0.040592
0.0416937
0.0414074
0.0421007
0.041915
0.0424788
0.0422786
0.0430521
0.0427311
0.0439455
0.0434575
0.0451645
0.0445186
0.046643
0.0458779
0.0482872
0.0474509
0.0500083
0.0491433
0.0517354
0.0508749
0.0534084
0.0525821
0.0549574
0.0542033
0.0562827
0.0556548
0.0572432
0.0568192
0.0575795
0.0575071
0.0569345
0.0573964
0.0550586
0.0561464
0.05213
0.0536928
0.0487199
0.0504371
0.0454482
0.0470394
0.0426999
0.0440011
0.040545
0.041554
0.038851
0.0396522
0.0374244
0.0381115
0.0360234
0.0367295
0.0342201
0.0351561
0.0331707
0.0359291
0.034379
0.038372
0.0373566
0.0390747
0.0389473
0.0363431
0.0382571
0.0283993
0.0331328
0.0134057
0.0218776
-0.00990187
0.00282802
-0.0409934
-0.0246169
-0.0764487
-0.0585286
-0.1091
-0.0937013
-0.128884
-0.121251
-0.126783
-0.130885
-0.101124
-0.116582
-0.0612687
-0.081053
-0.0251722
-0.0422056
0.000533601
-0.0109013
0.0148368
0.00893079
0.0204294
0.0184813
0.0218531
0.00258988
0.0231803
-0.0742759
-0.0708859