/*--------------------------------*- C++ -*----------------------------------*\
  =========                 |
  \\      /  F ield         | OpenFOAM: The Open Source CFD Toolbox
   \\    /   O peration     | Website:  https://openfoam.org
    \\  /    A nd           | Version:  10
     \\/     M anipulation  |
\*---------------------------------------------------------------------------*/
FoamFile
{
    format      ascii;
    class       surfaceScalarField;
    location    "32";
    object      phi;
}
// * * * * * * * * * * * * * * * * * * * * * * * * * * * * * * * * * * * * * //

dimensions      [0 3 -1 0 0 0 0];

internalField   nonuniform List<scalar> 
12623
(
0.09734
0.0226805
-0.0362554
-0.083765
0.0760847
-0.0380316
0.0592869
0.10732
0.0113069
-0.0997095
-0.0189172
0.0128107
0.104372
-0.00986338
-0.104128
-0.0134215
0.0186062
0.0989436
-0.105081
0.0137638
-0.00174075
0.0453089
-0.051449
0.00788085
-0.0531549
0.0514141
-0.00565333
-0.00927675
0.0149301
-0.00852988
-0.00854191
0.0114185
0.0907908
-0.0403004
-0.0504904
-0.0603631
0.0499056
0.101248
-0.0275979
-0.0181022
0.0204016
0.0252985
0.00320906
0.00526397
-0.0360709
-0.0238515
0.00895829
0.00239167
-0.00418108
-0.00430487
0.00609428
-0.00236209
-0.00182052
0.00657428
-0.00701795
0.000474779
-8.5321e-05
-0.01307
0.000500444
0.0126549
-0.0280449
0.00772211
0.0202374
-0.0257195
-0.0153954
0.0058559
0.0162342
-0.0182213
-0.00386873
-0.000391554
0.00496278
0.00128467
-0.0278801
0.0437227
-0.042851
0.00485739
0.0432576
0.00688845
-0.0484734
-0.00126605
-0.0548559
0.00498784
0.0547255
-0.0715674
0.0203013
-0.0217452
0.0730113
-0.0708509
-0.029803
0.0290865
-0.0789186
0.0803487
-0.00945533
0.00802527
-0.0759295
0.0173122
-0.1027
-0.00469111
0.0114036
0.0959873
0.00961414
-0.102214
-0.0101
0.100565
-0.0974118
-0.00378414
0.00771526
0.0934806
0.00538987
-0.0975415
-0.00526015
-0.103732
0.0110758
0.0980464
-0.100533
-0.0078909
0.0915856
-0.00159745
-0.098202
0.00821377
0.00341931
0.00862554
0.0795408
-0.0951945
0.0034606
0.0901364
-0.0961843
-0.0027943
-0.00145682
-0.000338917
0.0821444
-0.104287
-0.0134729
0.0156287
0.102132
0.00998558
-0.1021
-0.0121726
0.0124355
-0.10621
-0.103994
0.0187374
0.0990206
-0.105032
-0.0151222
-0.0687961
0.0121294
0.0717889
0.0530564
0.00492901
-0.0731076
-0.0600778
0.0235777
0.0895565
-0.0157867
0.0870453
-0.0729129
0.0016543
-0.0709355
0.0729143
0.0151246
-0.0132885
-0.0747503
0.0179937
0.0708163
-0.0158957
-0.0108044
0.00731443
0.0807423
-0.0772523
-0.0830206
0.0827169
-0.0105006
0.0799021
-0.00926319
0.0105603
-0.0811993
0.0742837
-0.0752739
-0.0405624
0.0415526
-0.0410776
0.0744546
0.0409067
-0.0744787
-0.0414378
0.0406426
-0.0744265
-0.0413235
0.0412713
-0.0728557
-0.0413466
0.0397758
-0.0722872
-0.0390073
0.0384389
-0.0700994
-0.034115
0.0319272
-0.0688019
-0.0251475
0.02385
-0.0672521
-0.0123637
0.0108139
0.00296621
-0.0665444
-0.0036739
0.0725415
-0.0749536
-0.0386654
-0.0408261
0.072189
0.0430917
0.0714184
-0.0397031
-0.0762261
-0.0392899
-0.0776849
-0.039979
-0.0767538
-0.0422546
-0.0769449
-0.0411555
-0.075594
-0.0403582
-0.0747535
-0.0349555
-0.0727214
-0.0271796
-0.0712116
-0.0138735
-0.0706833
0.00243792
0.041083
0.0695114
-0.039176
0.0714178
0.0418542
0.0188331
-0.0677269
-0.0176505
-0.0709701
0.0191199
0.0395048
0.0683401
-0.0383335
0.0697332
0.0411894
0.0315268
-0.0686115
-0.0306422
-0.0725222
0.0330788
0.0361365
0.0670804
-0.0348767
0.0350187
0.0390112
-0.0711595
-0.0364633
-0.0729003
0.0393894
0.06738
-0.0301026
-0.0237417
0.0693766
0.0401734
-0.0400572
-0.0712758
0.0431695
-0.0758963
0.0658554
-0.0670793
-0.0336529
-0.0627606
0.0635288
-0.02451
-0.0270078
0.0699761
-0.0725857
-0.0365664
-0.0354367
0.0753341
-0.0775146
-0.0364849
-0.0369547
0.0793855
-0.0798273
-0.0395372
-0.0374191
0.0814906
-0.0810696
-0.0415765
-0.0405912
0.0816395
-0.0798817
-0.0367133
-0.0397883
0.0790894
-0.0764252
-0.0165377
-0.0279719
0.0745444
-0.0743489
0.0189244
0.000557079
0.0742483
-0.0747494
0.0398905
0.0329782
-0.0757124
0.0441325
-0.0673088
0.0642389
-0.0275723
0.0677246
-0.0381904
-0.0695914
-0.0360474
-0.064193
0.0643627
-0.00384361
-0.0176046
-0.0663167
0.0682678
0.0218989
0.00885986
-0.069941
0.0723934
0.0359864
0.030254
-0.0729773
0.0748614
0.0393872
0.0391919
-0.0751882
0.0760902
0.0406506
0.0403158
-0.0758257
0.0756605
0.0432569
0.0411712
-0.0741059
0.0750187
0.0402766
0.0434088
-0.0740054
0.0271624
0.0360321
0.0116069
-0.0135803
0.07135
0.0751628
-0.0108964
0.060845
-0.0426161
-0.0768398
0.0437435
-0.0429802
-0.0755323
-0.0691453
0.0657271
-0.0347721
-0.0380024
0.0411344
-0.0727233
-0.0732749
-0.0338728
0.0420771
-0.0424132
-0.0765037
-0.0782686
0.0776371
0.044375
0.0423551
-0.0785466
0.0879672
-0.0840766
0.00413469
0.0600906
-0.0649204
-0.0196802
0.0618245
-0.0126304
0.0881787
-0.00166837
-0.0731216
0.0660009
-0.0690596
-0.0305942
-0.0259272
0.0723979
-0.0747141
-0.0342502
-0.0320984
0.0781196
-0.0796507
-0.0349537
-0.0335492
0.0815427
-0.0833468
-0.0377332
-0.0355271
0.0847747
-0.0861289
-0.0402223
-0.0391633
0.0863425
-0.0860627
-0.0369932
-0.0395747
0.0841741
-0.0820752
-0.0186367
-0.0298605
0.0792211
-0.0765401
0.0162433
-0.00229697
0.0749856
-0.0764793
0.0413841
0.0314238
0.0452904
-0.0626209
0.0616889
-0.0266403
-0.0329413
-0.0614819
0.0629098
-0.00527151
-0.0173976
-0.0644998
0.0673244
0.0190743
0.00726986
-0.0708702
0.0723935
0.0344632
0.0267082
-0.0759361
0.0762138
0.0391094
0.0356494
-0.0790952
0.0790936
0.0406522
0.0374344
-0.0802061
0.0790634
0.0443995
0.0400588
-0.0792291
0.078812
0.0406937
0.043243
-0.0791342
0.0807066
0.02559
0.0357099
0.0139422
0.00160551
0.00354404
0.0662004
0.0764294
-0.00099376
0.0610223
0.00179596
0.0633952
0.0385898
-0.0354
-0.0764647
0.0411394
-0.075273
-0.0427726
-0.0751729
-0.0794959
0.0779132
0.0459578
-0.0783841
0.0412433
-0.0418469
0.0404689
-0.0771686
-0.0422446
-0.076106
-0.0764638
0.073457
-0.0323932
-0.0375483
0.0395737
-0.0784901
-0.0798754
-0.0341368
-0.00672307
0.0100823
0.0787852
0.0879107
-0.00645502
0.00623205
-0.00785186
0.0626421
0.0596677
-0.0582629
0.000391098
0.0623694
0.00353034
-0.0916967
-0.00323613
0.0932644
-0.0873168
-0.00024521
-0.0747548
0.0608801
-0.0629262
-0.0176341
-0.0100131
0.0658482
-0.0697947
-0.0266477
-0.0230052
0.0716078
-0.0749139
-0.0309441
-0.0302853
0.077755
-0.0799085
-0.0328002
-0.0307081
0.0823658
-0.0839795
-0.0361194
-0.0330698
0.0868428
-0.0882367
-0.0388284
-0.0363
0.0902244
-0.0901991
-0.0370185
-0.037587
0.0899141
-0.0878834
-0.0206673
-0.0301455
0.0850418
-0.0815685
0.01277
-0.00513857
0.0786096
-0.0784761
0.0412505
0.0284649
0.0447274
-0.0704377
0.0658821
-0.0302164
-0.0308536
-0.062148
0.0603247
-0.0248169
-0.0292073
-0.0594776
0.0606645
-0.00645846
-0.0165505
-0.0630765
0.0660404
0.0161104
0.00485781
-0.0691875
0.0724478
0.0312029
0.0235611
-0.0752079
0.0776689
0.0366484
0.0328893
-0.0794552
0.0808165
0.0392909
0.0356481
-0.0817818
0.0824682
0.0437131
0.0390935
-0.0837082
0.0817941
0.0426078
0.042003
-0.0829928
0.0842974
0.0242853
0.0345112
0.0109229
-0.0101437
0.00945194
0.0668922
0.076368
0.0649953
-0.0773514
0.0394362
0.0419093
-0.0776086
-0.0423108
-0.0751066
0.0393971
-0.0367581
-0.0825144
0.0421252
-0.0812181
-0.0422652
0.0394136
-0.074317
-0.0436849
-0.0746863
0.0132639
-0.0153577
0.0647359
0.0101619
0.0654714
-0.0145804
0.0190062
0.0743594
-0.0129848
0.0863151
0.0881381
-0.0877357
-0.000647684
-0.00910408
0.0940061
0.0613036
-0.0594593
-0.00145322
0.0626298
0.00220418
-0.0755132
0.0375754
-0.0402473
0.0351233
-0.0703892
-0.0436314
-0.070933
0.0939513
-0.00714191
-0.0751563
0.0608168
-0.0639389
-0.014512
-0.00865562
0.0670892
-0.068782
-0.0249549
-0.0198549
0.0727858
-0.0754252
-0.0283046
-0.0262816
0.0781624
-0.0807166
-0.030246
-0.0279709
0.0831612
-0.0858527
-0.0334279
-0.0306252
0.0885802
-0.0912991
-0.0361095
-0.0335725
0.0935549
-0.0950803
-0.0354931
-0.0353311
0.0952722
-0.0937202
-0.0222193
-0.0299536
0.0906993
-0.0866805
0.00875127
-0.00815954
0.0829713
-0.0800368
0.0383161
0.0247557
0.0790723
-0.0769186
0.0438042
0.0437629
0.0771291
-0.0764332
0.0387404
0.0414538
0.0733802
-0.0693509
0.031094
0.0345224
-0.077177
0.0740501
-0.0292663
0.0794662
-0.0830278
-0.0331965
-0.0318476
-0.070903
0.0670625
-0.0263759
-0.0277064
-0.0623862
0.0600413
-0.022472
-0.024531
-0.0588918
0.059671
-0.00723772
-0.015401
-0.0616849
0.0647482
0.0130471
0.00284392
-0.0680561
0.0716413
0.0276177
0.0202532
-0.0748089
0.0777161
0.0337413
0.0297217
-0.0799551
0.0818652
0.0373808
0.033409
-0.0833625
0.0847182
0.0423574
0.0375962
-0.0851935
0.0871554
0.0406459
0.0415277
-0.0866978
0.0870565
0.0239266
0.0349688
0.0102437
-0.0218252
0.0188289
0.0698885
0.073549
0.0684666
-0.0391412
0.0420946
-0.0854678
-0.0869959
-0.0351731
0.0334223
-0.0379707
-0.0658409
-0.0630039
0.0270753
0.0435493
-0.0790327
-0.0445076
-0.0742839
0.00936588
0.0634259
-0.00981694
0.0907835
0.0937574
-0.0917134
-0.0026917
0.0961392
-0.0114858
0.0448253
-0.0839489
-0.0461108
-0.0722069
0.0406842
-0.0368651
-0.090815
0.0445423
-0.0893258
-0.0428458
-0.0660578
0.0260677
-0.0335346
-0.058374
0.0206841
-0.0576202
0.0985761
-0.011712
-0.0761146
0.0634803
-0.0629405
-0.00199304
-0.0627367
0.064448
0.00765449
0.00294782
0.0642064
-0.065758
-0.0129604
-0.00738974
0.0672086
-0.0698942
-0.0222693
-0.0184043
0.0728707
-0.0758746
-0.0253007
-0.023305
0.0785255
-0.0811388
-0.0276327
-0.02532
0.0837675
-0.0867528
-0.0304426
-0.0279965
0.0898184
-0.0930709
-0.032857
-0.030507
0.0960782
-0.0986336
-0.0329378
-0.0323238
0.099873
-0.0992105
-0.0228818
-0.0287141
0.0964433
-0.0918555
0.00416347
-0.0109268
0.0868645
-0.082288
0.0337396
0.0197647
0.0781183
-0.0768687
0.0425545
0.0395932
0.0743251
-0.0722771
0.0366924
0.0389102
0.0693515
-0.0654642
0.0272066
0.0315968
0.0603586
-0.0547255
0.015051
0.0219697
-0.0834584
0.0806109
-0.030349
0.0870316
-0.0910363
-0.0328604
-0.0315999
-0.0773237
0.0747754
-0.026718
-0.0285604
-0.071033
0.0678272
-0.0231701
-0.0239641
-0.0638329
0.0607087
-0.0193478
-0.0205367
-0.0592089
0.0594631
-0.00749191
-0.0139012
-0.0611458
0.0640381
0.0101549
0.00116115
-0.0673773
0.0711423
0.0238526
0.016914
-0.0745724
0.0778188
0.0304948
0.0262916
-0.0804454
0.0828413
0.0349848
0.0307825
-0.0848429
0.0867991
0.0404011
0.0355947
-0.0889869
0.0893124
0.0403204
0.0393399
-0.0907742
0.091539
0.0231617
0.0335071
0.0100693
-0.0387413
0.0431425
-0.0952163
-0.0953576
-0.03442
0.0118396
-0.0185987
-0.0508612
-0.0500936
0.00720766
0.0987448
-0.0176731
-0.0221086
0.0241677
0.0887244
0.0922649
-0.0314442
0.0282988
0.0775048
0.0790386
-0.0279266
0.0260674
0.0717476
0.0739212
-0.0232766
0.0199888
0.0680236
0.0712574
-0.0170133
0.0146626
0.0657766
0.0684469
0.0128237
0.0662869
0.0459568
-0.0801642
-0.046642
-0.0737527
0.0460943
-0.0855009
-0.0459248
-0.069128
0.0456107
-0.091794
-0.0382944
-0.061298
0.0398498
-0.034495
-0.100712
0.0433792
-0.0987457
-0.0246284
-0.0523443
-0.0020524
-6.50588e-05
-0.0479761
-0.00708824
-0.0458253
0.0644624
-0.0636699
0.0068619
0.0666096
0.0106766
-0.0767998
0.0633048
-0.0636278
-0.00166998
0.00258274
0.0648402
-0.065649
-0.0121516
-0.00617736
0.068054
-0.0707415
-0.0195818
-0.0159993
0.0735916
-0.0764174
-0.022475
-0.0204549
0.0789496
-0.0815492
-0.025033
-0.0227878
0.0842495
-0.0873303
-0.0273618
-0.0252962
0.0905322
-0.0940767
-0.0293125
-0.0273051
0.0975918
-0.100963
-0.0295671
-0.0288086
0.103246
-0.103748
-0.0223799
-0.0264309
0.101774
-0.0971239
-0.000486747
-0.0129002
0.0911446
-0.0847833
0.0273782
0.0137854
0.0795571
-0.0752757
0.0382732
0.034367
0.0717872
-0.0681676
0.0330727
0.0354216
0.0641497
-0.0604776
0.0235346
0.0275789
0.0566077
-0.0540339
0.0124772
0.0180998
0.0532081
-0.054978
0.00170482
0.00638188
-0.0906564
0.087291
-0.029495
0.094998
-0.0997766
-0.0297163
-0.0300784
-0.0837393
0.0804007
-0.0270104
-0.0280483
-0.0769733
0.0748377
-0.0245824
-0.025133
-0.0720592
0.0690133
-0.0201242
-0.0211857
-0.0656471
0.0623337
-0.0160344
-0.0171705
-0.060349
0.0600303
-0.00717317
-0.0119165
-0.0613097
0.0639561
0.00750844
-0.000118263
-0.0672081
0.0709816
0.0200791
0.013662
-0.0744941
0.0779062
0.0270827
0.0227792
-0.0807785
0.0835202
0.032243
0.0279103
-0.0859318
0.0883815
0.0379514
0.0331831
-0.0905383
0.0926026
0.0382562
0.0371831
-0.0949209
0.0946757
0.0234069
0.0311888
-0.0946841
0.0956682
-0.00367585
0.010061
-0.0980056
0.0999605
-0.0196281
-0.0138232
-0.0172437
-0.0300621
0.0354775
0.083309
0.0225485
0.0983205
0.0847512
-0.035157
0.0342755
0.0783863
0.079359
-0.0329487
0.0295226
0.0751738
0.075248
-0.0276715
0.0229875
0.0727076
0.0731085
-0.0211339
0.0177345
0.0691759
0.0703006
-0.0345661
0.0390574
-0.105204
-0.104722
-0.0296208
-0.0053018
0.00672245
-0.0493968
-0.058464
-0.00181583
-0.0164094
0.0150368
0.0679821
0.067612
0.0473654
-0.0814353
-0.0473098
-0.0723677
0.0472974
-0.0871876
-0.0429551
-0.0644673
0.0458077
-0.0942225
-0.0311095
-0.0548169
0.0419063
-0.101595
-0.0130507
-0.0463818
0.0329355
-0.0284031
-0.109254
0.036055
-0.108323
0.00493284
-0.0440357
0.00897945
-0.0618721
-0.0055713
0.01326
-0.0536773
-0.107391
0.102424
-0.023436
-0.0252017
0.0285224
-0.112575
-0.111104
-0.0214894
-0.00873475
0.0118069
-0.0649443
-0.0671235
0.0652495
-0.00369727
-0.0681431
-0.00771516
0.0693347
-0.0673481
0.0130502
0.0158127
-0.0192507
0.0714201
0.0692086
0.0159388
-0.0767442
0.0655614
-0.0659859
0.00728638
0.00888988
0.0655307
-0.0657997
-0.001401
0.00212756
0.0659794
-0.0671519
-0.0109791
-0.00599764
0.069176
-0.0717868
-0.016971
-0.0139751
0.0744052
-0.0769599
-0.0199203
-0.0178365
0.0793237
-0.0818708
-0.0224859
-0.020424
0.0845521
-0.0875848
-0.0243291
-0.0226149
0.0907429
-0.0943231
-0.0257323
-0.024147
0.0980285
-0.101867
-0.0257284
-0.0251033
0.104984
-0.10674
-0.0206238
-0.0233137
0.10607
-0.102357
-0.00419966
-0.0135705
0.0963087
-0.0888235
0.019893
0.00773687
0.081887
-0.0758007
0.0321868
0.0274305
0.0709822
-0.0667613
0.0288518
0.0306032
0.0632464
-0.0605122
0.0208004
0.024064
0.0585121
-0.0581153
0.0120804
0.0160997
0.0597257
-0.0627762
0.00475532
0.00799224
0.00065745
-0.0979686
0.0945209
-0.0262686
-0.025165
-0.0902921
0.0872503
-0.0264531
-0.0258496
-0.0834261
0.0809056
-0.02449
-0.0242241
-0.0778132
0.0751272
-0.0218963
-0.0220406
-0.0728536
0.0703973
-0.0176678
-0.0189121
-0.0676805
0.0646148
-0.0129687
-0.0144537
-0.0623215
0.0613486
-0.00620035
-0.00962314
-0.0620651
0.0643141
0.00525953
-0.000834763
-0.0673767
0.0710748
0.016381
0.0105993
-0.0745825
0.0780471
0.0236181
0.0192716
-0.0810232
0.0839517
0.0293145
0.0249342
-0.0866229
0.0894353
0.0351391
0.0305119
-0.0920123
0.0945752
0.0356933
0.0346061
-0.0967034
0.0983477
0.0217626
0.0290605
-0.099327
0.0995175
-0.00386633
0.0090817
-0.0992131
0.0998128
-0.0202278
-0.0135187
-0.0236409
-0.0246333
0.0348396
0.0881141
0.0929935
-0.0360685
0.036651
0.0827266
0.0835223
-0.0366648
0.0360983
0.0789528
0.0793452
-0.0350556
0.0335879
0.0766414
0.0762907
-0.0318264
0.0301901
0.0743439
0.07487
-0.0272266
0.0230468
0.0733557
0.0732641
0.0714082
0.0473399
-0.0814777
-0.0458289
-0.0694938
0.0461859
-0.0875658
-0.0364681
-0.0591087
0.0424774
-0.0947936
-0.0192423
-0.0486253
0.0365723
-0.102112
0.00113186
-0.0425808
0.0289589
-0.10876
0.0157553
-0.046531
0.0204874
-0.0170101
-0.114581
0.0207702
-0.112858
0.0168601
-0.0587305
0.0127981
-0.0698979
-0.0110433
0.0147265
-0.0668727
-0.110448
0.107847
-0.0144094
-0.0124067
0.0126832
-0.114857
-0.111921
-0.0109331
-0.0142952
0.0162278
-0.0718305
-0.0722905
0.0714335
-0.0101862
-0.0739838
-0.0126019
0.0164059
-0.0203866
0.0754008
0.0128748
0.0727397
0.069615
-0.0689753
0.0124105
0.0715848
0.0139691
-0.0752332
0.0678846
-0.0673009
0.00670271
0.00779922
0.067015
-0.0668417
-0.00157427
0.00184162
0.06724
-0.0685348
-0.00968433
-0.00559936
0.0705475
-0.0729138
-0.0146047
-0.0119624
0.0752107
-0.077478
-0.017653
-0.0155395
0.0796838
-0.0821388
-0.0200309
-0.0182182
0.0847033
-0.0875607
-0.0214717
-0.0200504
0.0905366
-0.0939416
-0.0223272
-0.0211711
0.097525
-0.101404
-0.0218489
-0.0215199
0.104926
-0.107666
-0.0178835
-0.0197926
0.108485
-0.106551
-0.00613334
-0.0127515
0.101804
-0.0947622
0.0128509
0.00298996
0.0874111
-0.0805229
0.0252986
0.0200794
0.0751316
-0.070876
0.0245963
0.0252118
0.0679572
-0.0660824
0.0189256
0.0211451
0.065185
-0.0656312
0.0125266
0.0152023
0.0666146
-0.067281
0.00542177
0.00897561
0.0683653
-0.0699123
-0.00215025
0.00174176
-0.00619406
-0.104264
0.10073
-0.0199018
-0.0179063
-0.0969047
0.0935633
-0.0229272
-0.0213401
-0.0898339
0.0865357
-0.023155
-0.0221202
-0.0836777
0.0808957
-0.021708
-0.021366
-0.078351
0.0757976
-0.0193429
-0.0194958
-0.0736474
0.0715974
-0.0156178
-0.0167619
-0.069573
0.0671659
-0.0105615
-0.0124293
-0.0649829
0.063503
-0.00472037
-0.00744022
-0.0634454
0.0649346
0.00377025
-0.000777154
-0.0674907
0.0709063
0.0129654
0.00804325
-0.074337
0.0778625
0.0200925
0.0158409
-0.0809782
0.0841019
0.0261908
0.0218185
-0.0869832
0.0900256
0.0320967
0.0276306
-0.0928451
0.0957362
0.0328021
0.0317866
-0.0982918
0.100707
0.019347
0.026505
-0.102273
0.102375
-0.00396843
0.00751571
-0.102285
0.101062
-0.0190042
-0.0134284
-0.0222888
-0.0165588
0.0243088
0.0911936
0.0954099
-0.0307129
0.0341257
0.0847013
0.0865894
-0.0355406
0.0364059
0.0818612
0.0821074
-0.0367045
0.0364821
0.0791751
0.0790466
-0.0357897
0.0346706
0.0777605
0.0769832
-0.0332293
0.0306504
0.0769228
0.0763113
-0.0271392
0.0238937
0.0766012
0.0767753
0.0749153
0.0445183
-0.0798101
-0.0411354
-0.0648265
0.0407064
-0.0857948
-0.0255431
-0.0528079
0.0343208
-0.0925421
-0.00387289
-0.0436206
0.0262247
-0.0993776
0.0156357
-0.0424612
0.0177328
-0.105722
0.0224558
-0.0521267
0.0104089
-0.110584
0.0188358
-0.0628397
0.00620044
-0.0064423
-0.111679
0.00395534
-0.112612
0.0191032
-0.0697481
0.0170222
-0.0150124
-0.0759937
0.0195947
-0.0744031
0.0248233
0.0596363
-0.0718503
0.0697449
-0.069657
0.0123225
-0.0647973
0.0379064
0.0517142
0.0189167
0.0700614
-0.0684983
0.00513952
0.0082037
0.0683958
-0.0682744
-0.00169559
0.00173912
0.068683
-0.0701421
-0.00822519
-0.00519081
0.0719796
-0.0740024
-0.0125819
-0.0101249
0.0759494
-0.0779667
-0.0156356
-0.0135926
0.0800258
-0.0823379
-0.0177188
-0.0161592
0.0847124
-0.0873301
-0.018854
-0.0176759
0.0900488
-0.0931406
-0.0192355
-0.0184524
0.0963784
-0.0999345
-0.0182927
-0.0182821
0.103349
-0.106447
-0.014786
-0.0163779
0.108302
-0.1082
-0.00623548
-0.010896
0.105552
-0.10041
0.00770906
0.000341581
0.0941976
-0.0878203
0.0189213
0.0138673
0.0826359
-0.0785428
0.0205032
0.0200274
0.0757474
-0.073817
0.0169952
0.0183497
0.0726641
-0.0719332
0.0117957
0.0140494
0.0715133
-0.0710977
0.00500622
0.0085557
0.0706854
-0.0711767
-0.00165892
0.00132938
0.0722505
-0.0744006
-0.00803608
-0.00512023
0.0761053
-0.0782026
-0.012915
-0.0108972
-0.105666
0.103412
-0.0121554
0.10613
-0.108133
-0.00443906
-0.0104697
-0.100576
0.097919
-0.0172447
-0.0150701
-0.0948278
0.0918734
-0.0199727
-0.018249
-0.0889795
0.0861022
-0.0202777
-0.0192264
-0.0835533
0.0810435
-0.0191982
-0.0188171
-0.0787901
0.0764926
-0.0170454
-0.0172425
-0.0744851
0.0726435
-0.0137763
-0.0147544
-0.0710964
0.0694438
-0.00890895
-0.0108822
-0.0678204
0.0663601
-0.00326016
-0.00581679
-0.0657215
0.066225
0.00326666
-0.000138471
-0.067834
0.0704705
0.0103289
0.00643434
-0.0734653
0.0768395
0.0167183
0.0128461
-0.0800199
0.0833172
0.0228934
0.0186382
-0.0863568
0.0895256
0.0289279
0.024591
-0.0925174
0.0957672
0.0295524
0.0287948
-0.0988818
0.101852
0.0163763
0.0233904
-0.103803
0.103932
-0.0040972
0.0055648
-0.102865
0.101364
-0.0175025
-0.0123618
-0.0983132
0.0978528
-0.0184568
-0.0192381
-0.0142246
-0.0214782
0.0277582
0.0849136
0.015702
0.0913611
0.0896337
-0.031364
0.0328431
0.0832223
0.0829836
-0.0343599
0.035451
0.0807701
0.0805906
-0.0360628
0.0362291
0.0790088
0.0784349
-0.0359577
0.0352716
0.0784466
0.0772547
-0.0342305
0.0319907
0.0791627
0.0773524
-0.0302078
0.0275741
0.0792348
0.0785581
-0.022142
0.0174073
0.0801355
0.0803474
-0.00509252
0.102635
0.0850544
-0.00118872
-0.000162405
-0.110328
-0.106844
-0.00247772
-0.0155332
0.0188822
-0.0793427
-0.0804502
-0.0132857
0.0369217
-0.0760254
-0.0316717
-0.0586978
-0.0994695
-0.0111631
0.0297674
-0.0812414
-0.0100297
-0.0466511
0.0932342
-0.0697139
0.0281938
0.0249101
-0.0145483
0.0922734
0.0250112
0.0931332
0.0208148
-0.0871322
0.0130636
-0.0410485
0.0115579
-0.0932027
0.0265918
-0.0465972
0.00411976
-0.0994332
0.0250246
-0.0583156
-0.000656584
-0.105972
0.0224332
-0.0661697
-0.00347458
-0.1093
0.0232659
-0.0734193
-0.00235435
0.000336583
-0.104826
-0.0051863
-0.107496
0.022415
-0.0779358
-0.0169317
0.0202651
-0.0826761
-0.0143472
-0.0830347
-0.0666004
0.0720293
-0.0716697
0.0119629
0.0212322
0.07061
-0.0699505
0.00448008
0.00714398
0.0696619
-0.0695702
-0.00178723
0.00145049
0.0705707
-0.0717716
-0.00702431
-0.00419031
0.0732977
-0.0749705
-0.010909
-0.00859888
0.0766153
-0.0784425
-0.0138085
-0.0119478
0.0803461
-0.0824679
-0.015597
-0.0142556
0.0846148
-0.0869717
-0.0164971
-0.0155291
0.0894018
-0.0921204
-0.0165168
-0.0160224
0.0949154
-0.0979588
-0.0152493
-0.0154871
0.100917
-0.103764
-0.0119384
-0.0134199
0.105867
-0.106779
-0.00532314
-0.00879389
0.105866
-0.102888
0.0047309
-0.000571433
0.0985261
-0.0934344
0.0138296
0.0095056
0.0888576
-0.0849022
0.0165479
0.0154506
0.0818632
-0.0793483
0.0144803
0.0153107
0.0773863
-0.0757282
0.0101376
0.0120874
0.0742437
-0.0735192
0.00428164
0.00707121
0.0732858
-0.073011
-0.0019337
0.00109606
0.0736309
-0.0746389
-0.0070281
-0.00450039
0.0764217
-0.0790094
-0.0103274
-0.00911435
0.0807722
-0.0830842
-0.0120352
-0.0115229
-0.102147
0.103404
-0.00569647
0.102212
-0.10166
-0.000216098
-0.00241217
-0.101304
0.100057
-0.0109087
-0.00836913
-0.0978004
0.0956647
-0.015109
-0.0128135
-0.0931731
0.0905191
-0.0173188
-0.0157574
-0.0880616
0.0855598
-0.0177759
-0.0167689
-0.0833068
0.081065
-0.0169564
-0.0165641
-0.079074
0.0770737
-0.0150451
-0.0152515
-0.075298
0.0736334
-0.0121116
-0.0129787
-0.0723313
0.0711834
-0.00776099
-0.00958013
-0.0702004
0.0692528
-0.00231256
-0.00483381
-0.0686213
0.0685406
0.00334741
0.000492963
-0.0692216
0.0707692
0.00878125
0.00575333
-0.0728736
0.0755757
0.0140161
0.0107418
-0.0783853
0.0814941
0.0197846
0.0158286
-0.0844925
0.0877772
0.0256432
0.0215926
-0.0911324
0.0950618
0.025623
0.0254395
-0.0989034
0.102417
0.0128625
0.0195488
-0.104471
0.104953
-0.00457853
0.0035108
-0.102957
0.100588
-0.0151339
-0.0103662
-0.0981284
0.0977686
-0.0180971
-0.0167781
-0.0159255
-0.0148865
0.0192843
0.0869633
0.0908752
-0.0254027
0.0272104
0.0831058
0.0835153
-0.029403
0.0313994
0.0812259
0.080791
-0.0330725
0.0344377
0.079405
0.0789175
-0.035416
0.0360181
0.0784067
0.0774566
-0.0362043
0.0359739
0.0786769
0.0770685
-0.0353367
0.0342863
0.0802131
0.0779896
-0.0328776
0.0305903
0.0815221
0.0799669
-0.0276422
0.0229586
0.0848191
0.0832956
0.0934647
0.00386556
-0.00606033
-0.102631
-0.0998275
0.00203334
-0.014446
0.017074
-0.0856627
-0.0856807
-0.0118496
0.0236614
-0.0699193
-0.016827
-0.0519006
0.0886651
-0.0798161
0.0193449
0.0914774
0.0221989
0.0136017
-0.0740283
0.00834279
-0.0419302
0.00331764
-0.0788919
0.0281181
-0.0425748
-0.00485166
-0.0842313
0.0317853
-0.0533578
-0.00899488
-0.0910949
0.0270154
-0.0628979
-0.00975462
-0.0996918
0.0273509
-0.0702547
-0.00945181
-0.105035
0.0270816
-0.0780859
-0.00917912
-0.104377
0.0244041
-0.0820748
-0.00530689
0.00278681
-0.0973074
-0.00783199
-0.100106
0.0206807
-0.0862829
-0.0948637
0.0957223
0.00192817
-0.00523823
-0.0920579
0.00243249
-0.0064389
-0.0961067
0.0100846
0.0868566
-0.0133066
0.0167732
-0.0891293
-0.0120222
-0.0869651
-0.059766
0.0751312
-0.073303
0.0101347
0.0165472
0.0726665
-0.0715759
0.00338945
0.00650747
0.0712209
-0.0714757
-0.00153236
0.00109546
0.0721687
-0.0732644
-0.00592853
-0.00349739
0.0744347
-0.0758102
-0.00953359
-0.00742858
0.0772415
-0.0789045
-0.0121456
-0.0105165
0.0806307
-0.0825352
-0.0136925
-0.0125293
0.0844503
-0.0865477
-0.0143996
-0.0136141
0.0886833
-0.0910235
-0.0141767
-0.0138867
0.0933739
-0.0958781
-0.0127451
-0.0131367
0.0982726
-0.100582
-0.00962881
-0.0110254
0.102387
-0.103462
-0.00424801
-0.00698916
0.103347
-0.101786
0.00317043
-0.000686932
0.0989925
-0.0952608
0.0100979
0.00671195
0.0914831
-0.0878451
0.0129099
0.0116729
0.0847611
-0.0819904
0.0117096
0.0122266
0.0797023
-0.0777376
0.00817297
0.00979932
0.0762871
-0.0753054
0.00329994
0.00562066
0.0748829
-0.0749954
-0.00182124
0.000673585
0.0754448
-0.076129
-0.00634398
-0.00405092
0.0772818
-0.0782484
-0.0093607
-0.00796154
0.0796051
-0.0818608
-0.00977945
-0.0101662
0.0839774
-0.0858549
-0.0101447
-0.00973294
-0.0972116
0.098167
-0.00117147
0.000544088
-0.0992983
0.0990903
-0.00548848
-0.00354352
-0.0981828
0.0970217
-0.00974757
-0.00746159
-0.0955278
0.0936558
-0.013237
-0.0113197
-0.0914871
0.0892822
-0.0151139
-0.0135886
-0.0872014
0.0850501
-0.0156246
-0.0146881
-0.0830881
0.0811121
-0.0149803
-0.0146021
-0.0793533
0.0776084
-0.0133002
-0.0134928
-0.0760709
0.0746083
-0.010649
-0.0114412
-0.0734608
0.0725539
-0.00685415
-0.00843261
-0.0719595
0.0715364
-0.00188947
-0.0042394
-0.0713094
0.0713085
0.00334836
0.000719994
-0.0716452
0.0724633
0.00796323
0.00541655
-0.0737073
0.0755003
0.0122231
0.00949774
-0.0775832
0.0801531
0.0172147
0.0137456
-0.082937
0.0863942
0.022186
0.0188087
-0.0902648
0.0948943
0.0209936
0.0215689
-0.0991869
0.102734
0.0093155
0.0152562
-0.104426
0.104344
-0.00449616
0.00181845
-0.10279
0.100214
-0.0125587
-0.00881203
-0.0973439
0.0948243
-0.0155775
-0.0139076
-0.0937104
0.0954691
-0.0129218
-0.0148115
-0.00996329
-0.015756
0.0202559
0.0824635
0.0852038
-0.0235133
0.0258315
0.0807876
0.0802579
-0.0280434
0.0301767
0.0790926
0.0785791
-0.0320847
0.0337773
0.0777123
0.0770095
-0.0351391
0.0361636
0.0773821
0.0760948
-0.0367693
0.0369448
0.0785014
0.0764627
-0.036659
0.0359053
0.0809668
0.0782754
-0.0347235
0.032102
0.0841436
0.0811487
-0.0311332
0.0277541
0.0881982
0.0842644
-0.0321746
0.0292624
0.0951856
0.0890442
-0.0228424
0.00247718
0.111843
0.0995532
0.00562797
-0.0619457
0.00191206
-0.0454698
0.011324
-0.0102035
-0.0869754
0.0127896
-0.0884306
0.0915104
-0.0967701
0.00773697
-0.00435153
0.0515886
0.0646054
0.0809427
0.00621615
-0.0833925
0.0812325
-0.00798479
-0.0839107
-0.00968529
-0.00586068
-0.06485
0.0266288
-0.040441
-0.0150651
-0.0686785
0.0374802
-0.0482697
-0.0195156
-0.0737106
0.0333597
-0.0597021
-0.0191537
-0.0816958
0.0313968
-0.0669438
-0.0160637
-0.0930799
0.0316493
-0.0748225
-0.0133537
-0.10086
0.0294559
-0.0831378
-0.0113226
-0.100887
0.0257607
-0.0871547
0.00240572
-0.0908305
-0.00363315
-0.0900756
0.090777
0.00170426
-0.0026248
-0.0892594
0.00180865
-0.0902395
-0.00321577
-0.00882499
-0.0977202
0.0207242
-0.0902338
-0.0941979
-0.00554196
0.0264358
-0.0523732
0.0775261
-0.0931211
-0.00832339
0.00662844
0.0844127
-0.052226
0.0870528
-0.0817441
0.0140362
0.0124816
0.0775186
-0.0746339
0.00725004
0.0123217
0.073599
-0.0729997
0.00279015
0.00547257
0.0728324
-0.0731379
-0.00122685
0.000928161
0.0736569
-0.0744849
-0.00510047
-0.00297845
0.0754047
-0.0765738
-0.00836445
-0.00650884
0.0778475
-0.0793406
-0.0106524
-0.00924276
0.0808774
-0.0825647
-0.0120052
-0.0109925
0.0842596
-0.0861062
-0.012553
-0.0119192
0.0879584
-0.0899466
-0.0121886
-0.0120344
0.0918966
-0.0939187
-0.010723
-0.0111866
0.0957953
-0.0975556
-0.00786849
-0.00914882
0.0989105
-0.0997475
-0.00341104
-0.00563423
0.0997829
-0.0988422
0.00222968
-0.000651512
0.096988
-0.0943019
0.00741177
0.00485775
0.0913411
-0.0882507
0.00981952
0.00871217
0.0854641
-0.0828718
0.00911732
0.00944004
0.080707
-0.0788623
0.00632827
0.00763455
0.0775213
-0.0766133
0.00239198
0.00427962
0.0762006
-0.0762226
-0.00179928
0.000260884
0.0766311
-0.0774042
-0.00557085
-0.00364239
0.0784286
-0.0792593
-0.00853004
-0.00693718
0.0801355
-0.0806412
-0.00927376
-0.00929001
-0.00914159
-0.0923944
0.0938332
0.000489435
0.000815106
-0.0953513
0.0962463
-0.00206648
-0.000974096
-0.09643
0.0963739
-0.00543233
-0.00372718
-0.0956317
0.0945946
-0.00871041
-0.00671946
-0.0932968
0.0916868
-0.011627
-0.0100219
-0.0900143
0.0881732
-0.0132728
-0.0119161
-0.0864125
0.0845694
-0.0137815
-0.0129274
-0.0828713
0.0811466
-0.0132557
-0.012904
-0.0796036
0.0780824
-0.0117789
-0.0119498
-0.0767605
0.0755089
-0.0093974
-0.0101193
-0.0745173
0.0737419
-0.00607876
-0.00744102
-0.0733155
0.0731769
-0.00175079
-0.00381303
-0.073295
0.0736294
0.00301389
0.000601899
-0.0741212
0.0748443
0.00724011
0.00492477
-0.0757571
0.0770254
0.0109548
0.00858493
-0.0785767
0.0807069
0.0150845
0.0121943
-0.0833258
0.0869066
0.0186052
0.0161899
-0.0910165
0.0957194
0.0162906
0.017459
-0.0996911
0.102556
0.00645077
0.0112845
-0.103571
0.102981
-0.00390618
0.000803669
-0.101301
0.0988507
-0.0101083
-0.00713243
-0.0960804
0.0933402
-0.0128373
-0.0111373
-0.0914378
0.0917225
-0.0132065
-0.0129091
-0.0113618
-0.00839162
0.0126474
0.0826009
0.0851641
-0.0170103
0.0199957
0.079478
0.0808409
-0.0222242
0.024567
0.0784448
0.0780295
-0.0268887
0.0292126
0.0767686
0.0762575
-0.0313651
0.033346
0.0757314
0.0748571
-0.0350136
0.0363581
0.0760376
0.0744272
-0.0372744
0.0377492
0.0780266
0.0755464
-0.0377359
0.0372181
0.0814846
0.0782887
-0.0362162
0.03471
0.0856498
0.0821506
-0.0328109
0.0316169
0.0893922
0.0861635
-0.0312984
0.0341737
0.0923104
0.0893626
0.0813536
0.0150209
-0.0913606
0.0780466
0.00952455
-0.00822513
0.00943203
-0.0881823
-0.0864652
-0.00567057
-0.0147398
-0.0530666
0.0220255
-0.0408665
-0.0252803
-0.0546349
0.0404609
-0.0434217
-0.0307651
-0.057429
0.0406538
-0.0555638
0.0113493
-0.0903479
-0.0303192
-0.0625451
0.0362191
-0.0645244
-0.0254518
-0.0723077
0.0369196
-0.072214
-0.0193292
-0.0871045
0.0347231
-0.0800896
0.00169712
-0.0886365
-0.00232001
-0.0878567
0.0879277
0.00162606
-0.00152285
-0.0878205
0.00148671
-0.0885549
-0.00160452
-0.0151016
-0.0970811
0.0315414
-0.0889184
-0.0900901
-0.00246943
-0.0117155
-0.0979963
0.0268456
-0.0932761
-0.0926792
-0.0047345
-0.00799569
-0.0952665
0.0202328
-0.0954457
-0.0142886
0.00679733
0.0855379
0.0612278
-0.099561
0.0469587
0.00120636
0.0019469
0.0763875
-0.00652322
0.00745614
-0.0891153
-0.0883495
-0.00463897
-0.0150658
0.0775
-0.0449403
0.0852553
-0.0885591
0.0110408
-0.0816056
0.00756622
0.0835639
0.00986582
0.085146
-0.0809955