/*--------------------------------*- C++ -*----------------------------------*\
  =========                 |
  \\      /  F ield         | OpenFOAM: The Open Source CFD Toolbox
   \\    /   O peration     | Website:  https://openfoam.org
    \\  /    A nd           | Version:  10
     \\/     M anipulation  |
\*---------------------------------------------------------------------------*/
FoamFile
{
    format      ascii;
    class       volVectorField;
    location    "32";
    object      U;
}
// * * * * * * * * * * * * * * * * * * * * * * * * * * * * * * * * * * * * * //

dimensions      [0 1 -1 0 0 0 0];

internalField   nonuniform List<vector> 
6397
(
(1.0511 -0.178494 8.75919e-21)
(1.0584 -0.188451 -3.96989e-20)
(1.27171 0.33292 0)
(1.23555 0.34167 7.09541e-22)
(1.18903 0.383381 -6.99001e-22)
(1.22156 0.383301 -1.80318e-21)
(0.800846 -0.500302 -3.52193e-20)
(0.483881 -0.729192 9.49231e-20)
(-0.080002 0.0815935 1.89601e-20)
(-0.140853 0.0650116 -8.88162e-21)
(0.496325 0.69722 7.4678e-20)
(0.795556 0.708322 -1.0582e-20)
(0.464699 0.0286332 -4.39966e-22)
(0.529141 0.0164002 -1.4634e-22)
(0.340945 0.0271421 1.10583e-21)
(-0.0585441 0.0385653 -7.85289e-20)
(0.0848689 0.0554793 -4.37435e-20)
(-0.107182 0.0393613 3.82969e-20)
(0.325441 -0.00306711 5.45987e-20)
(0.450349 -0.184668 -1.65163e-19)
(0.546535 -0.0339463 -8.48308e-20)
(0.292912 -0.010202 -1.33421e-19)
(0.0503939 -0.00207203 6.024e-21)
(0.572074 0.0430895 -9.29798e-20)
(0.664133 0.0165116 0)
(0.664316 0.0139784 1.17248e-22)
(0.789789 0.0188153 9.9733e-24)
(0.931719 -0.219682 1.44951e-20)
(0.944233 -0.347958 -3.89064e-21)
(0.97443 -0.0566156 8.71103e-21)
(0.979602 -0.203182 -1.23463e-20)
(1.1733 0.294299 6.75382e-22)
(1.20545 0.296672 -5.43049e-22)
(1.20107 0.341216 3.17369e-21)
(1.11803 0.209385 7.62383e-22)
(1.1422 0.213371 0)
(1.1448 0.248916 -2.5109e-22)
(1.17283 0.252437 -3.48934e-22)
(1.09877 0.149703 1.96396e-21)
(1.08233 0.145902 -1.12877e-21)
(1.09729 0.176001 0)
(1.11818 0.178408 0)
(0.974815 0.0868113 -4.40912e-21)
(1.18747 0.419026 -4.56646e-21)
(1.20928 0.370058 5.63898e-21)
(1.25586 0.371132 -7.00518e-21)
(1.19819 0.418816 -3.74491e-21)
(1.22733 0.401188 1.20054e-20)
(1.04881 0.0855204 2.15421e-21)
(1.06018 0.0784877 -3.38382e-22)
(1.05705 0.0632431 4.05636e-21)
(1.07265 0.0552481 -1.53755e-21)
(1.06668 0.0614957 -1.06673e-20)
(0.973147 0.18702 -9.02078e-21)
(1.02672 0.218158 5.92898e-21)
(1.03196 0.0519547 3.99741e-21)
(1.0375 0.0645698 4.08207e-21)
(1.12666 -0.0235606 -8.19237e-22)
(1.04446 -0.51594 -3.21551e-21)
(1.03561 -0.520879 3.23921e-21)
(1.04525 -0.524816 3.27632e-21)
(1.04003 -0.535625 -3.22705e-21)
(1.02909 -0.532002 -4.39167e-21)
(1.01152 -0.50078 4.31654e-21)
(0.984807 -0.432599 0)
(0.948877 -0.318246 6.70251e-21)
(0.909405 -0.155632 -7.01436e-21)
(0.87406 0.0411846 0)
(1.03321 -0.506695 -3.00124e-21)
(1.02047 -0.534625 -1.56503e-23)
(1.01034 -0.513782 2.83e-21)
(1.0487 -0.510535 0)
(1.05741 -0.526161 0)
(1.06077 -0.541788 0)
(1.05952 -0.541801 -1.7234e-23)
(1.05018 -0.516471 2.42309e-24)
(1.02995 -0.45362 0)
(0.998896 -0.341689 -9.27221e-25)
(0.961731 -0.174179 0)
(0.925075 0.0361857 0)
(0.983482 -0.516065 -4.06348e-21)
(1.0009 -0.53856 2.70875e-22)
(0.851783 0.242376 0)
(0.89811 0.252151 0)
(0.956442 -0.496038 -6.40585e-22)
(0.980654 -0.512899 0)
(0.848691 0.40832 0)
(0.888162 0.430679 0)
(0.93199 -0.439061 9.87556e-21)
(0.960387 -0.448374 -1.5525e-21)
(0.86505 0.512281 0)
(0.895465 0.541708 0)
(0.912506 -0.345734 -8.50617e-21)
(0.899084 -0.223335 -5.50915e-21)
(0.894736 0.551028 0)
(0.915485 0.582783 5.97613e-22)
(0.912846 -0.422445 0)
(0.877553 -0.219913 9.81382e-21)
(0.89061 -0.337496 6.1664e-22)
(0.974652 -0.490891 -2.74937e-21)
(0.941672 -0.473579 0)
(1.03589 -0.487147 -1.27574e-21)
(1.00771 -0.488704 2.75365e-21)
(1.07281 -0.518215 1.68422e-21)
(1.05706 -0.497842 1.01421e-21)
(1.094 -0.540201 1.72617e-23)
(1.0853 -0.536422 -1.7796e-21)
(1.08283 -0.46638 -6.24666e-22)
(1.09392 -0.521418 -3.33561e-21)
(1.02675 -0.19283 -3.66703e-21)
(1.05839 -0.359147 7.30418e-21)
(0.959338 0.248413 0)
(0.989604 0.0216913 0)
(0.935806 0.555988 0)
(0.939281 0.437559 0)
(0.943412 0.60158 -1.22432e-21)
(0.820557 0.382615 -4.44174e-21)
(0.884381 0.510624 -1.44869e-21)
(0.844634 0.475567 4.39585e-21)
(0.836154 0.0450224 5.85812e-21)
(0.817261 0.229317 -5.72594e-21)
(0.911841 -0.296098 4.59711e-23)
(0.870429 -0.139729 1.99346e-22)
(0.982873 -0.480836 0)
(0.950382 -0.409449 0)
(1.027 -0.521431 2.94247e-21)
(1.00781 -0.514139 3.82147e-22)
(1.0455 -0.516334 5.3622e-22)
(1.04039 -0.516609 -2.9266e-21)
(1.03613 -0.54691 2.18988e-21)
(1.04425 -0.529302 -1.92244e-22)
(1.01323 -0.522264 -6.05023e-21)
(1.02636 -0.550545 -2.02942e-21)
(0.988118 -0.341215 0)
(1.00161 -0.449694 6.66138e-21)
(0.892482 -0.0877344 -6.52033e-21)
(0.926133 -0.0775717 6.36542e-23)
(0.871757 -0.0914223 2.45894e-21)
(0.957632 0.597752 -1.3519e-21)
(0.941139 0.577382 3.6236e-22)
(0.884294 0.464189 -1.46998e-23)
(0.93076 0.508555 1.45186e-21)
(0.937078 0.46437 0)
(0.970742 0.578164 8.76815e-22)
(0.978281 0.605891 -1.63152e-21)
(0.979478 0.582524 1.62204e-21)
(1.0356 -0.031072 4.55831e-21)
(0.865025 -0.210575 -4.59637e-21)
(0.859204 -0.0863701 -2.35407e-21)
(1.03667 0.116496 4.3294e-21)
(0.931075 0.546985 1.02712e-22)
(0.902547 -0.399549 0)
(0.878584 -0.318637 -7.64034e-22)
(0.972611 -0.456392 4.24533e-23)
(0.935107 -0.442793 0)
(1.04031 -0.462216 -3.38934e-22)
(1.00914 -0.457617 6.67525e-22)
(1.0888 -0.500559 0)
(1.06589 -0.478177 1.70152e-22)
(1.12998 -0.529407 0)
(1.11054 -0.520597 1.09863e-22)
(1.142 -0.476214 0)
(1.14138 -0.519926 3.3694e-22)
(1.10309 -0.221339 7.31245e-24)
(1.12854 -0.380284 3.80787e-22)
(1.02806 0.223631 2.96471e-22)
(1.06573 -0.00949706 -5.52912e-22)
(0.981354 0.555147 -8.36065e-23)
(0.998171 0.424868 -1.1399e-22)
(0.976155 0.608333 6.19667e-22)
(0.805483 0.354686 4.81038e-23)
(0.836774 0.435007 5.36803e-23)
(0.808685 0.0561031 -5.20184e-24)
(0.795936 0.221792 0)
(0.878187 -0.261569 0)
(0.838702 -0.111957 -6.01796e-23)
(0.957054 -0.448737 0)
(0.919704 -0.374537 0)
(1.01773 -0.500315 -2.22791e-24)
(0.990803 -0.487686 -3.87755e-22)
(1.05173 -0.511838 -3.52087e-22)
(1.03955 -0.503538 0)
(1.05948 -0.554272 -2.02848e-21)
(1.0587 -0.531441 0)
(1.05419 -0.530439 1.75409e-22)
(1.05824 -0.559244 2.03228e-21)
(1.04241 -0.33471 7.86062e-24)
(1.04765 -0.456496 8.29801e-22)
(1.03742 -0.185622 -4.28203e-21)
(0.893506 0.0471498 1.46704e-21)
(0.926859 0.0624148 0)
(0.86232 0.0390673 1.00853e-21)
(0.874417 0.0432431 -1.11751e-21)
(0.980986 0.47091 0)
(0.970972 0.507195 0)
(0.965256 0.561759 -3.6168e-22)
(1.00215 0.601487 -3.03552e-22)
(0.99472 0.573622 0)
(0.974297 0.566573 -1.48295e-22)
(0.975901 0.571671 6.56899e-23)
(0.988688 0.432948 0)
(1.01317 0.498216 0)
(1.02327 0.463912 -6.80478e-22)
(0.980854 0.21466 3.79472e-21)
(1.03807 0.244458 0)
(0.876094 0.152076 -1.99355e-21)
(0.856376 0.0305297 -1.21434e-23)
(0.870685 0.136587 3.21745e-21)
(1.10497 0.1395 0)
(1.10606 -0.0129629 -4.04478e-21)
(0.963773 0.538331 0)
(0.856141 -0.199927 3.56503e-22)
(0.853285 -0.0877598 0)
(0.897222 -0.36648 7.01136e-24)
(0.870933 -0.297908 1.60062e-22)
(0.971923 -0.418796 -1.24624e-22)
(0.932368 -0.404854 0)
(1.04422 -0.432591 1.38711e-24)
(1.01061 -0.423407 -1.20736e-22)
(1.10276 -0.474934 -1.94494e-24)
(1.07376 -0.451933 -1.37161e-22)
(1.16195 -0.509345 5.23413e-22)
(1.13293 -0.495815 0)
(1.19966 -0.477991 0)
(1.18564 -0.508835 -5.33405e-22)
(1.18229 -0.25116 -2.78852e-22)
(1.1997 -0.396419 1.23199e-22)
(1.10174 0.186677 0)
(1.14661 -0.0466568 -3.75929e-23)
(1.02752 0.541379 -2.36161e-22)
(1.0584 0.397839 4.38485e-22)
(1.01024 0.602371 4.79426e-22)
(0.891946 0.41271 -1.92509e-22)
(0.945975 0.417317 4.27905e-25)
(0.799133 0.330796 -1.24684e-22)
(0.838086 0.392729 3.42297e-22)
(0.789362 0.0741108 -1.68216e-23)
(0.783132 0.220179 -3.87053e-22)
(0.852036 -0.221209 0)
(0.815408 -0.0795292 4.75644e-22)
(0.936983 -0.411093 0)
(0.894727 -0.333222 0)
(1.01203 -0.474292 3.77337e-24)
(0.977507 -0.454722 0)
(1.06062 -0.500791 0)
(1.04046 -0.485022 0)
(1.08559 -0.552115 0)
(1.07492 -0.525844 0)
(1.09668 -0.53547 1.53048e-21)
(1.0919 -0.561238 0)
(1.09927 -0.333519 -7.78556e-24)
(1.09699 -0.458077 -1.5639e-21)
(1.09939 -0.177251 4.68957e-21)
(0.905622 0.177082 1.62128e-21)
(0.936575 0.193644 -3.55512e-21)
(0.887179 0.164821 2.67961e-21)
(0.980428 0.548486 5.82351e-22)
(0.999436 0.52871 0)
(0.979473 0.565576 4.49563e-22)
(1.06013 0.496101 7.25277e-22)
(1.04427 0.534152 0)
(0.955325 0.568973 1.2869e-22)
(0.968775 0.586359 4.66043e-22)
(0.896993 0.24697 2.31717e-22)
(0.893289 0.225102 2.41051e-22)
(0.987847 0.324022 3.08776e-21)
(1.03799 0.346514 3.40675e-21)
(1.17133 -0.000868507 3.91319e-21)
(1.17087 0.157412 0)
(0.854833 0.0211525 1.74586e-22)
(0.871117 0.120319 -3.61337e-22)
(0.950991 0.537181 -5.84037e-22)
(0.905938 0.526375 -6.59673e-23)
(0.922551 0.57323 -7.59621e-22)
(1.10202 0.265734 -1.90679e-22)
(0.98631 0.551265 0)
(0.85321 -0.187415 2.32393e-22)
(0.849378 -0.0872826 -9.57598e-22)
(0.897601 -0.334242 -1.93207e-22)
(0.869612 -0.274772 5.68656e-22)
(0.97747 -0.379574 0)
(0.935896 -0.36718 0)
(1.05082 -0.401053 -5.33118e-25)
(1.01639 -0.387511 -6.70071e-29)
(1.1162 -0.443304 1.92749e-24)
(1.08288 -0.421378 0)
(1.18938 -0.47804 0)
(1.1527 -0.462634 -1.15335e-28)
(1.25076 -0.463625 0)
(1.22358 -0.483489 0)
(1.25887 -0.273785 0)
(1.26523 -0.398854 0)
(1.17675 0.139966 0)
(1.22776 -0.0864343 0)
(1.0713 0.512751 0)
(1.11925 0.357051 0)
(1.02182 0.586962 -2.31528e-22)
(1.03992 0.584691 0)
(0.985583 0.521215 0)
(1.00679 0.555952 6.20848e-23)
(0.897409 0.463651 0)
(0.951282 0.491963 6.99441e-23)
(0.994031 0.395379 -7.5049e-23)
(1.07188 0.45395 -1.80813e-22)
(1.03022 0.426546 7.53718e-23)
(0.904362 0.360383 4.43781e-23)
(0.954693 0.371421 -4.27737e-25)
(0.803266 0.299098 -5.76096e-23)
(0.849242 0.345212 -5.15922e-23)
(0.779381 0.0868637 -1.15943e-24)
(0.779772 0.211552 0)
(0.834563 -0.182542 0)
(0.800074 -0.0506593 0)
(0.923794 -0.369182 0)
(0.87791 -0.291037 0)
(1.00985 -0.441927 -6.37105e-25)
(0.969331 -0.416372 0)
(1.0707 -0.48152 0)
(1.0439 -0.459453 0)
(1.1105 -0.540228 0)
(1.09237 -0.51018 0)
(1.13884 -0.528499 5.54553e-22)
(1.12613 -0.551541 -5.7678e-22)
(1.15666 -0.330724 1.00838e-21)
(1.14823 -0.454812 -9.47579e-23)
(1.16356 -0.170674 -5.43938e-21)
(0.924182 0.287828 -1.85442e-21)
(0.951372 0.306297 -3.28478e-21)
(0.906799 0.268012 0)
(1.10305 0.524863 0)
(1.11946 0.477851 1.59526e-22)
(0.847626 0.492792 2.72821e-22)
(0.830046 0.415327 0)
(1.02233 0.564893 0)
(0.98313 0.591013 0)
(0.894674 0.20225 0)
(1.0946 0.361177 -8.16397e-21)
(1.23307 0.0126615 2.90394e-21)
(1.2334 0.169033 0)
(1.07988 0.566083 8.69339e-23)
(0.950855 0.602525 -5.91616e-22)
(1.16911 0.505696 2.74223e-22)
(1.1484 0.555336 -9.98276e-23)
(0.879349 0.552638 8.32223e-22)
(0.783259 0.418253 1.1952e-22)
(0.75351 0.330791 0)
(1.16742 0.281825 8.3064e-21)
(0.999726 0.584299 0)
(0.857479 0.0123958 -6.955e-22)
(0.899071 0.178905 -1.90838e-22)
(0.874282 0.102508 -1.81167e-21)
(0.855438 -0.174928 -2.17657e-22)
(0.850611 -0.0848284 6.91809e-22)
(0.904158 -0.300083 0)
(0.873492 -0.249708 1.16202e-22)
(0.983869 -0.340068 2.82941e-29)
(0.943187 -0.32723 -2.94211e-29)
(1.05551 -0.367969 -5.15818e-25)
(1.02155 -0.351833 0)
(1.12612 -0.406627 0)
(1.08934 -0.387721 0)
(1.20861 -0.439821 -1.68729e-24)
(1.16662 -0.42395 1.15337e-28)
(1.29018 -0.43771 2.07192e-28)
(1.25106 -0.448662 -2.15125e-28)
(1.32641 -0.288721 0)
(1.31891 -0.389859 0)
(1.25208 0.0840822 5.78995e-24)
(1.30421 -0.125822 0)
(1.11264 0.466339 -3.36074e-24)
(1.18151 0.2998 0)
(1.02396 0.56496 -5.76058e-23)
(1.05974 0.552875 0)
(0.966528 0.489393 -1.78898e-22)
(0.996162 0.534858 5.44744e-23)
(0.867874 0.394738 -4.44089e-22)
(0.925834 0.442679 1.08078e-22)
(0.722583 0.243059 -1.09138e-21)
(0.797914 0.331254 4.43048e-22)
(1.07953 0.409677 6.76688e-23)
(1.17687 0.453626 -6.67409e-24)
(1.12686 0.430276 -8.31586e-23)
(0.998805 0.359548 -2.23282e-26)
(1.03593 0.387913 -6.30687e-24)
(0.919538 0.311039 1.36115e-24)
(0.963274 0.331236 -2.8982e-25)
(0.818544 0.262235 0)
(0.867882 0.295588 5.57167e-24)
(0.77938 0.093505 -1.61062e-24)
(0.787211 0.195017 -4.26754e-29)
(0.825492 -0.145307 0)
(0.794213 -0.0261185 0)
(0.915712 -0.322771 -1.68665e-25)
(0.867979 -0.246816 0)
(1.00891 -0.402882 -9.61729e-25)
(0.964161 -0.372127 0)
(1.08031 -0.45392 0)
(1.04753 -0.426695 0)
(1.13412 -0.518843 0)
(1.10844 -0.486599 0)
(1.1782 -0.515082 0)
(1.15735 -0.534226 0)
(1.21078 -0.320872 0)
(1.19625 -0.443212 5.3774e-23)
(1.22285 -0.159862 -1.94338e-21)
(1.22314 0.533062 -3.27186e-22)
(1.23391 0.474824 0)
(0.678655 0.211243 -1.9164e-22)
(0.658705 0.131486 1.29835e-21)
(1.15372 0.370855 0)
(1.22791 0.290105 -1.56964e-21)
(1.09004 0.429529 -3.07113e-21)
(1.14073 0.428909 2.70386e-21)
(1.00125 0.409658 1.58953e-21)
(1.0422 0.422886 -2.69514e-22)
(0.945051 0.371424 8.86166e-23)
(0.968642 0.3921 -1.38264e-21)
(0.921861 0.322615 -1.59322e-21)
(0.929979 0.34788 3.05847e-22)
(0.921541 0.268625 0)
(0.919378 0.295775 1.16723e-21)
(0.927052 0.240984 4.05387e-22)
(1.04746 0.597184 -8.76485e-23)
(0.979477 0.616867 -3.18297e-28)
(1.11516 0.595359 1.00221e-22)
(0.923884 0.594341 0)
(1.19237 0.584042 0)
(0.825244 0.489031 0)
(1.29831 0.488828 7.39131e-23)
(1.28029 0.549005 8.27891e-24)
(0.711815 0.297908 -3.91425e-22)
(0.619595 0.0130735 -1.85174e-22)
(0.614471 0.0637221 -1.9077e-22)
(0.90512 0.155433 3.42697e-22)
(0.934781 0.212491 -2.87414e-22)
(1.01103 0.615492 -4.23697e-28)
(0.863542 0.00303647 7.47097e-23)
(0.880623 0.084439 -1.07073e-22)
(0.863583 -0.161739 -1.62912e-23)
(0.857117 -0.0828162 0)
(0.915809 -0.266031 5.15029e-30)
(0.883618 -0.224596 2.6629e-23)
(0.992502 -0.303086 0)
(0.953925 -0.288781 0)
(1.06068 -0.334889 -3.26958e-25)
(1.02766 -0.317451 0)
(1.13325 -0.367807 0)
(1.09515 -0.352309 0)
(1.21947 -0.395858 2.59739e-24)
(1.17498 -0.382057 0)
(1.31452 -0.399302 2.14045e-24)
(1.26694 -0.404678 0)
(1.37828 -0.290804 0)
(1.35546 -0.366575 0)
(1.32567 0.0228041 -1.6308e-24)
(1.37084 -0.159249 0)
(1.15947 0.396141 1.27874e-24)
(1.24842 0.224932 0)
(1.01845 0.523976 -4.28392e-25)
(1.07974 0.497608 -4.66821e-29)
(0.92613 0.450906 -1.04587e-24)
(0.970278 0.499332 0)
(0.821254 0.332497 -1.11287e-23)
(0.878002 0.39346 -2.90054e-22)
(0.710032 0.177279 9.15769e-22)
(0.762295 0.260459 1.18763e-21)
(0.68425 0.0117631 -1.80758e-21)
(0.681816 0.0895141 -1.4062e-22)
(1.17659 0.402149 4.76169e-23)
(1.29332 0.424451 -8.15549e-23)
(1.23191 0.416126 0)
(1.08397 0.365806 1.70973e-24)
(1.12841 0.384054 9.79874e-24)
(1.00286 0.324825 4.07634e-24)
(1.0411 0.348422 2.35908e-24)
(0.934798 0.268845 -4.02019e-25)
(0.970365 0.295918 2.56877e-24)
(0.843152 0.221105 0)
(0.890868 0.247646 0)
(0.790099 0.0936718 3.008e-25)
(0.805998 0.172226 2.9978e-29)
(0.825347 -0.109921 -1.28933e-29)
(0.798166 -0.00564895 1.36469e-29)
(0.9133 -0.274846 6.82311e-25)
(0.865777 -0.202461 0)
(1.00876 -0.360331 0)
(0.962315 -0.325256 0)
(1.0868 -0.421087 2.81403e-25)
(1.04999 -0.389376 0)
(1.15179 -0.491159 0)
(1.11997 -0.456856 0)
(1.21036 -0.49284 2.83448e-24)
(1.18186 -0.508937 0)
(1.2566 -0.307149 -9.62354e-24)
(1.23536 -0.426294 4.0468e-23)
(1.28696 0.026187 -2.56467e-21)
(1.27533 -0.145681 0)
(1.27669 0.292463 -9.6348e-21)
(1.28723 0.178118 7.71725e-21)
(1.25493 0.362529 -1.85405e-22)
(1.08604 0.4686 0)
(1.16544 0.443687 -2.31406e-21)
(1.12588 0.462128 -4.46016e-22)
(1.01397 0.460578 0)
(1.04765 0.468991 0)
(0.967041 0.426207 -9.22286e-22)
(0.98654 0.445905 -2.56525e-28)
(0.949585 0.374908 3.41438e-22)
(0.954778 0.401837 1.53946e-21)
(0.952718 0.315723 0)
(0.948979 0.345219 -8.04391e-22)
(1.36362 0.488765 -2.70402e-24)
(1.35958 0.424053 7.04294e-23)
(0.621036 -0.0871996 1.3285e-21)
(0.721491 -0.044835 3.31548e-21)
(0.965798 0.257589 -2.54008e-22)
(0.958616 0.286498 5.91087e-23)
(1.07024 0.620346 -1.10481e-26)
(0.969329 0.620552 0)
(1.14352 0.618321 0)
(0.883592 0.545865 -1.32318e-26)
(1.23327 0.593426 -2.34938e-24)
(0.759626 0.376946 -3.76794e-22)
(1.33071 0.539683 4.48008e-24)
(0.640059 0.137808 0)
(1.42692 0.407447 1.13805e-21)
(1.4199 0.46092 -2.81702e-24)
(0.576598 -0.0835928 4.69836e-22)
(0.778348 -0.0837989 -3.55296e-21)
(0.667018 -0.151118 -6.35203e-22)
(1.39908 0.341419 -4.27771e-22)
(1.4837 0.362212 -1.14439e-21)
(1.458 0.308426 -7.61534e-22)
(0.82984 -0.125285 -1.55535e-21)
(0.858815 -0.0449363 4.45971e-21)
(0.881356 -0.0991064 6.12956e-22)
(0.974393 0.227563 6.09359e-23)
(0.998413 0.292122 0)
(1.0055 0.261597 -6.98188e-23)
(1.01784 0.629943 -6.70245e-28)
(0.913402 0.131552 2.60502e-23)
(0.942335 0.184718 2.47028e-22)
(0.872829 -0.00646866 2.91205e-23)
(0.889059 0.0665103 -2.57627e-23)
(0.876795 -0.147706 0)
(0.86843 -0.0805943 0)
(0.930814 -0.231937 0)
(0.898956 -0.198392 0)
(1.00132 -0.268837 0)
(0.966773 -0.252312 0)
(1.06498 -0.302213 0)
(1.03336 -0.285264 0)
(1.13712 -0.328576 -1.99416e-29)
(1.09944 -0.316566 2.07204e-29)
(1.22222 -0.350039 -9.10059e-25)
(1.17807 -0.339654 -4.50075e-29)
(1.32227 -0.352493 -2.14045e-24)
(1.27095 -0.35619 0)
(1.40776 -0.276678 0)
(1.37121 -0.330209 0)
(1.39087 -0.0332552 -1.70107e-24)
(1.41868 -0.178448 0)
(1.22433 0.303197 1.25176e-24)
(1.32125 0.14071 0)
(1.03659 0.45478 4.28463e-25)
(1.12348 0.413378 0)
(0.90822 0.397851 4.81502e-24)
(0.966355 0.441418 1.45199e-28)
(0.812954 0.281685 4.06836e-22)
(0.857656 0.341518 0)
(0.761419 0.153846 -5.28479e-22)
(0.778944 0.217336 -5.16903e-22)
(0.792062 0.046727 2.14476e-21)
(0.767618 0.0957354 -1.36545e-21)
(0.828874 0.00242456 -3.98788e-21)
(1.27801 0.363859 -1.58434e-22)
(1.33709 0.358676 5.61142e-22)
(1.17232 0.352991 1.37459e-25)
(1.22327 0.361434 -1.47091e-24)
(1.08624 0.324824 5.96358e-23)
(1.12728 0.340255 -6.31711e-23)
(1.00987 0.2907 5.30653e-25)
(1.04722 0.309441 -2.39611e-24)
(0.94823 0.234958 4.01684e-25)
(0.977741 0.265016 2.57361e-28)
(0.873924 0.180048 0)
(0.914425 0.206982 0)
(0.811983 0.0859375 2.27748e-28)
(0.835644 0.143225 -2.41009e-28)
(0.83181 -0.0775818 0)
(0.811058 0.0089343 0)
(0.914755 -0.227257 5.51184e-25)
(0.86869 -0.159274 0)
(1.0101 -0.317072 0)
(0.963363 -0.278291 0)
(1.09105 -0.385453 -2.81403e-25)
(1.05238 -0.350438 0)
(1.16328 -0.458055 0)
(1.12723 -0.422955 0)
(1.23324 -0.463749 -9.84133e-25)
(1.19869 -0.477091 -5.04131e-28)
(1.29321 -0.285598 9.35622e-24)
(1.26476 -0.401178 0)
(1.33021 0.0361213 0)
(1.3163 -0.128624 5.10476e-25)
(1.31445 0.282214 1.98595e-21)
(1.33073 0.177491 4.06551e-24)
(1.28932 0.340402 1.38856e-21)
(1.14417 0.448387 -2.9228e-21)
(1.16954 0.420907 1.57601e-21)
(1.07987 0.482298 0)
(1.11224 0.470523 0)
(1.02362 0.482651 -1.17352e-25)
(1.04969 0.486546 -2.5297e-28)
(0.987743 0.45533 -1.13594e-25)
(1.0025 0.471895 -2.24038e-28)
(0.976337 0.408777 -6.66334e-23)
(0.979028 0.433747 -3.26268e-28)
(0.983013 0.351656 -3.24298e-22)
(0.977775 0.380895 3.12095e-22)
(0.990509 0.321894 -3.90122e-24)
(1.08115 0.629227 1.76901e-26)
(0.943825 0.591339 -3.17506e-27)
(1.16069 0.613475 0)
(0.823075 0.449629 1.51421e-26)
(1.25915 0.562472 4.42672e-24)
(0.683171 0.216087 3.77398e-22)
(1.35922 0.486047 -2.54631e-23)
(0.578878 -0.0443722 7.04548e-24)
(1.44989 0.386909 -5.13789e-23)
(0.583954 -0.200771 0)
(1.50381 0.253692 8.35179e-22)
(1.51158 0.279277 0)
(0.7402 -0.183006 -5.99572e-22)
(0.902708 -0.155271 2.43115e-21)
(0.868111 -0.180534 1.38496e-21)
(1.45172 0.211815 -4.81802e-23)
(1.52361 0.17456 1.47088e-21)
(1.47933 0.155126 2.33859e-24)
(0.931158 -0.20627 -7.2512e-22)
(0.936815 -0.136291 3.11297e-21)
(0.962681 -0.178996 1.75845e-21)
(1.0298 0.32036 0)
(1.03675 0.291715 -3.08725e-22)
(0.978853 0.202862 3.16555e-22)
(1.01804 0.226894 -3.30797e-22)
(1.01023 0.62072 3.9715e-27)
(0.920372 0.111257 -1.88551e-22)
(0.953101 0.154397 -6.51005e-23)
(0.884232 -0.013722 2.74009e-23)
(0.901085 0.0468073 -8.36187e-23)
(0.894167 -0.131474 -4.68046e-25)
(0.884319 -0.0781651 3.70369e-28)
(0.947802 -0.199994 0)
(0.918156 -0.171591 0)
(1.00964 -0.238318 0)
(0.979865 -0.219735 0)
(1.06904 -0.270338 9.35444e-25)
(1.03888 -0.255193 0)
(1.13813 -0.290941 0)
(1.10253 -0.28168 0)
(1.21838 -0.305196 0)
(1.17664 -0.298909 0)
(1.3151 -0.302396 0)
(1.26498 -0.307323 0)
(1.41085 -0.247237 0)
(1.36604 -0.285203 0)
(1.43407 -0.0713136 -2.45804e-24)
(1.4384 -0.177823 0)
(1.30417 0.204773 1.1671e-24)
(1.38778 0.0650099 -1.75412e-28)
(1.10468 0.366545 0)
(1.20224 0.313021 0)
(0.960412 0.339171 6.71529e-25)
(1.02342 0.368782 -1.45199e-28)
(0.882042 0.249986 3.71178e-24)
(0.913855 0.29601 9.84949e-28)
(0.863048 0.158206 5.65101e-22)
(0.86545 0.203162 5.12748e-25)
(0.884812 0.0684026 -2.86166e-22)
(0.871517 0.113713 -2.90182e-22)
(0.906814 -0.034136 -1.62047e-21)
(0.897286 0.0190163 1.1308e-21)
(0.918382 -0.0873644 -3.53012e-21)
(1.35961 0.285373 -4.87755e-23)
(1.40941 0.25531 8.51371e-24)
(1.25724 0.311995 2.06029e-24)
(1.308 0.303968 0)
(1.16513 0.309042 -1.35859e-25)
(1.20997 0.313139 1.4893e-24)
(1.08747 0.288235 0)
(1.1244 0.300591 0)
(1.01843 0.257475 1.49125e-25)
(1.05264 0.27387 0)
(0.960027 0.207722 0)
(0.987051 0.235942 0)
(0.904736 0.144948 0)
(0.934364 0.176161 0)
(0.845385 0.0693894 -1.62373e-24)
(0.872329 0.111813 0)
(0.844218 -0.05288 0)
(0.834498 0.0134535 0)
(0.913639 -0.181312 -1.06483e-24)
(0.872658 -0.120352 0)
(1.00692 -0.272988 -1.26451e-24)
(0.960148 -0.231447 0)
(1.09169 -0.347551 -8.05661e-25)
(1.05073 -0.310022 6.85821e-29)
(1.16981 -0.420859 -1.25814e-25)
(1.13073 -0.385896 -5.29201e-30)
(1.24632 -0.429174 -9.90459e-25)
(1.20823 -0.440648 0)
(1.31754 -0.258766 0)
(1.28254 -0.370098 0)
(1.36282 0.0421175 0)
(1.3464 -0.109366 -5.11351e-25)
(1.34125 0.260278 -1.28625e-21)
(1.36099 0.170919 -3.99308e-24)
(1.31018 0.310203 1.10793e-21)
(1.15819 0.375475 0)
(1.16861 0.335674 -8.95881e-22)
(1.11996 0.439276 1.5375e-21)
(1.14119 0.411274 2.93428e-22)
(1.07049 0.477059 1.85954e-25)
(1.09518 0.462093 3.82617e-28)
(1.02912 0.485252 2.19582e-25)
(1.04795 0.484787 4.30249e-28)
(1.005 0.467195 -3.93285e-28)
(1.01448 0.479134 3.99887e-28)
(1.00096 0.429239 -1.28479e-22)
(1.00051 0.450131 3.056e-28)
(1.01248 0.377285 3.22825e-22)
(1.00513 0.404651 1.30924e-22)
(1.02126 0.348799 1.9264e-22)
(1.07288 0.604354 0)
(0.895121 0.517535 1.24505e-27)
(1.15709 0.555221 0)
(0.744355 0.297279 -8.56934e-26)
(1.25321 0.473507 -5.81595e-24)
(0.607041 0.0150501 -5.75704e-25)
(1.34964 0.370833 1.82786e-23)
(0.548118 -0.21501 9.0932e-25)
(1.43475 0.262666 6.383e-23)
(0.644858 -0.262386 -5.55505e-25)
(1.49615 0.163483 0)
(0.807183 -0.217957 -4.18192e-22)
(1.48616 0.0878611 1.69573e-22)
(1.51007 0.0792884 -2.5705e-21)
(0.899499 -0.24148 3.08726e-23)
(0.99487 -0.215117 -1.89243e-21)
(0.969175 -0.249449 -1.74842e-21)
(1.0395 0.266267 -4.21185e-22)
(0.979565 0.571759 -1.02818e-26)
(0.990898 0.174212 -5.36135e-22)
(1.06514 0.245815 2.55401e-21)
(1.01625 0.202289 -1.73855e-21)
(0.931165 0.0862436 3.21383e-23)
(0.957136 0.130815 4.94252e-22)
(0.90016 -0.0215278 -2.73654e-23)
(0.911751 0.033849 7.30635e-23)
(0.915832 -0.115162 -1.3968e-22)
(0.902843 -0.0700521 1.22699e-22)
(0.964841 -0.171985 -1.29196e-24)
(0.938954 -0.145282 5.89638e-28)
(1.01724 -0.211331 -1.28544e-24)
(0.991859 -0.191736 -5.94809e-28)
(1.07273 -0.239886 3.01423e-25)
(1.04427 -0.227052 0)
(1.13679 -0.256047 0)
(1.10419 -0.248893 0)
(1.21014 -0.263686 -9.35814e-25)
(1.17207 -0.261197 0)
(1.29755 -0.254445 2.14226e-28)
(1.2523 -0.261916 -2.22429e-28)
(1.39004 -0.208452 9.53863e-30)
(1.34482 -0.238233 -9.90042e-30)
(1.44081 -0.0836806 8.13814e-29)
(1.42588 -0.15857 -8.44379e-29)
(1.36865 0.124133 -1.71581e-24)
(1.42296 0.0151499 2.83404e-28)
(1.19986 0.279188 2.84531e-24)
(1.2877 0.21965 1.09755e-27)
(1.0607 0.28656 3.44499e-25)
(1.12176 0.297723 0)
(0.985715 0.2295 4.39242e-24)
(1.01629 0.260663 2.15131e-27)
(0.954683 0.157683 4.43814e-24)
(0.966401 0.19509 0)
(0.94223 0.0699923 2.87284e-22)
(0.947403 0.11569 0)
(0.940868 -0.0290037 1.12262e-21)
(0.939072 0.0208355 -1.25752e-21)
(0.965784 -0.117602 0)
(0.950043 -0.0759442 1.04635e-22)
(1.0149 -0.184727 1.96034e-21)
(0.988044 -0.153624 -1.84702e-21)
(1.3929 0.178197 -2.3182e-23)
(1.42733 0.0827096 5.25576e-23)
(1.41666 0.133061 -5.53987e-23)
(1.31952 0.240841 2.84167e-24)
(1.35899 0.21438 -6.4153e-25)
(1.23536 0.268391 0)
(1.27769 0.258569 0)
(1.15704 0.270687 -5.34988e-25)
(1.19529 0.272032 0)
(1.08763 0.255317 0)
(1.12108 0.265015 0)
(1.02633 0.226915 -6.79747e-25)
(1.0565 0.24234 0)
(0.971795 0.183697 0)
(0.997479 0.208076 0)
(0.929672 0.120072 0)
(0.950185 0.153531 0)
(0.885374 0.0489511 -3.10199e-25)
(0.907585 0.0856347 0)
(0.868201 -0.0411415 0)
(0.870018 0.00706186 0)
(0.912013 -0.142219 -1.67953e-27)
(0.88295 -0.0922646 1.77816e-27)
(0.993487 -0.228668 1.26301e-24)
(0.950512 -0.1875 1.58734e-27)
(1.08009 -0.306714 2.07762e-24)
(1.03715 -0.26745 1.13955e-27)
(1.16271 -0.381555 -6.44669e-25)
(1.12174 -0.346055 0)
(1.24367 -0.391199 -8.5988e-25)
(1.20273 -0.402185 1.43534e-28)
(1.32932 -0.225144 -1.15952e-27)
(1.28609 -0.333114 1.2296e-27)
(1.38225 0.0499066 0)
(1.36451 -0.0863604 0)
(1.35477 0.234595 1.63034e-22)
(1.37837 0.160492 -2.35011e-22)
(1.27845 0.292185 0)
(1.31847 0.275996 2.78429e-23)
(1.23956 0.298141 0)
(1.12705 0.36225 0)
(1.14296 0.287723 7.83138e-23)
(1.13744 0.325986 4.84316e-24)
(1.09507 0.422123 -1.39558e-22)
(1.11199 0.394532 -2.11995e-22)
(1.05818 0.462586 -3.00503e-26)
(1.0762 0.445305 0)
(1.02977 0.479058 -1.02405e-25)
(1.04225 0.47385 0)
(1.01703 0.472122 0)
(1.02115 0.478376 0)
(1.02157 0.444762 1.78134e-26)
(1.01719 0.460699 0)
(1.03867 0.400424 0)
(1.02885 0.424479 0)
(1.06121 0.344323 0)
(1.05041 0.373031 1.26022e-22)
(1.07266 0.275945 0)
(1.06931 0.31526 -1.44539e-23)
(1.46965 0.0181103 7.53259e-23)
(1.42065 0.0312544 0)
(1.03139 -0.24528 3.79979e-23)
(1.04607 -0.21043 6.85129e-23)
(1.04103 0.517734 3.14942e-25)
(0.823507 0.38251 0)
(1.2041 0.253865 0)
(1.11919 0.427983 9.77838e-25)
(0.658428 0.0907326 5.86713e-26)
(1.06309 0.223215 8.96238e-22)
(1.10093 0.294134 0)
(1.09958 0.261902 0)
(1.205 0.314686 3.04301e-24)
(0.549732 -0.196509 7.34361e-25)
(1.29018 0.198768 0)
(0.573237 -0.330646 9.81453e-25)
(1.36857 0.10504 0)
(0.732253 -0.286197 0)
(1.43873 0.0366327 0)
(0.851149 -0.275476 2.93526e-22)
(1.46741 -0.0131385 6.34369e-22)
(0.944396 -0.293458 3.76075e-23)
(1.40102 -0.0144543 0)
(1.43607 -0.0423701 -2.54813e-22)
(1.01187 -0.286485 -9.57189e-24)
(1.07278 -0.268519 -6.18191e-22)
(1.08049 -0.229612 1.53033e-22)
(0.924553 0.458769 7.40422e-27)
(0.993456 0.14743 3.37548e-22)
(1.02342 0.178341 0)
(0.940785 0.0652795 -8.9616e-23)
(0.962252 0.105874 -1.5035e-22)
(0.919831 -0.023744 0)
(0.924338 0.0222364 8.86323e-23)
(0.939241 -0.0975267 0)
(0.924836 -0.0604827 1.95834e-23)
(0.980004 -0.148586 1.2914e-24)
(0.958904 -0.122786 0)
(1.02448 -0.187045 2.78702e-24)
(1.0023 -0.168276 0)
(1.07591 -0.211559 2.43333e-25)
(1.04959 -0.200757 0)
(1.13389 -0.22441 -1.42432e-24)
(1.10453 -0.218947 -1.3357e-27)
(1.19949 -0.226662 9.34645e-25)
(1.16564 -0.227131 1.21662e-27)
(1.27495 -0.212246 -1.24602e-24)
(1.23619 -0.221971 9.75159e-28)
(1.35494 -0.169413 -8.80586e-28)
(1.31532 -0.195568 8.37105e-28)
(1.41192 -0.0761293 -1.44939e-24)
(1.38955 -0.130458 9.87195e-28)
(1.38683 0.0730747 3.57645e-24)
(1.41311 -0.00610124 0)
(1.26847 0.204434 4.13152e-25)
(1.33476 0.148563 2.81127e-27)
(1.1454 0.235713 -7.96483e-24)
(1.20217 0.232453 0)
(1.06385 0.201932 -4.39026e-24)
(1.09993 0.223156 -4.4013e-27)
(1.01101 0.141145 0)
(1.03482 0.174315 0)
(0.977333 0.0602964 5.34693e-22)
(0.991646 0.102477 -5.6077e-22)
(0.967789 -0.0260609 0)
(0.968533 0.0167118 -2.38469e-28)
(0.987597 -0.100939 1.2034e-22)
(0.974189 -0.0655814 -1.99625e-22)
(1.02884 -0.158077 1.03309e-21)
(1.00602 -0.131818 -1.03042e-21)
(1.08449 -0.194497 0)
(1.05524 -0.178958 -6.81898e-23)
(1.36776 0.0774766 1.16881e-22)
(1.35199 0.00324369 -1.47009e-22)
(1.36444 0.0383178 -4.02947e-22)
(1.3403 0.151794 1.58605e-22)
(1.35892 0.116395 -1.15148e-22)
(1.28291 0.204974 8.18222e-23)
(1.31447 0.181902 -2.41033e-22)
(1.21454 0.232103 -5.387e-25)
(1.24937 0.221662 3.97295e-24)
(1.14758 0.237097 5.34989e-25)
(1.18053 0.236952 0)
(1.08626 0.225442 2.78506e-27)
(1.1161 0.233132 -2.94473e-27)
(1.03208 0.200005 -3.21216e-27)
(1.05843 0.214233 3.39696e-27)
(0.983814 0.161501 -9.58225e-25)
(1.00701 0.182763 0)
(0.948398 0.103507 3.77854e-27)
(0.964264 0.135022 -3.99761e-27)
(0.92156 0.0330549 1.92996e-24)
(0.934732 0.068928 4.20793e-27)
(0.90441 -0.0406851 0)
(0.910269 -0.00330731 0)
(0.922975 -0.116411 2.11409e-24)
(0.908166 -0.0785842 -1.39035e-28)
(0.980234 -0.189491 -3.6505e-27)
(0.947856 -0.153111 3.8659e-27)
(1.05677 -0.265575 4.29526e-25)
(1.01724 -0.226437 0)
(1.13831 -0.341429 7.70489e-25)
(1.09714 -0.305481 0)
(1.22907 -0.346955 -8.68753e-25)
(1.18119 -0.36079 0)
(1.33445 -0.183628 -2.82569e-28)
(1.28191 -0.28661 2.99616e-28)
(1.39034 0.0560684 0)
(1.37372 -0.0595071 0)
(1.35518 0.204946 1.31898e-23)
(1.38253 0.146297 -9.73663e-23)
(1.27647 0.25093 8.67921e-23)
(1.31726 0.237129 3.58446e-23)
(1.23801 0.254808 0)
(1.11336 0.277294 -2.64171e-23)
(1.11758 0.242562 5.20524e-22)
(1.09608 0.344332 0)
(1.1069 0.31183 2.59392e-23)
(1.06959 0.402524 4.14632e-25)
(1.08286 0.374844 0)
(1.04234 0.446958 -1.55257e-25)
(1.05526 0.426746 -1.04057e-27)
(1.02472 0.473156 0)
(1.03178 0.462556 0)
(1.02282 0.47832 0)
(1.02159 0.478475 0)
(1.0371 0.461808 -1.77089e-26)
(1.0281 0.472688 0)
(1.06183 0.424995 0)
(1.0487 0.44563 0)
(1.09008 0.370384 9.49573e-23)
(1.0762 0.399287 -1.21716e-22)
(1.09948 0.338675 -7.89794e-23)
(1.37069 -0.0510207 0)
(1.33078 -0.0250873 3.55857e-22)
(1.11749 -0.242434 5.30759e-23)
(1.11565 -0.204128 4.253e-22)
(0.977915 0.356357 3.05309e-26)
(0.736312 0.179692 4.30094e-26)
(1.05789 0.186605 -1.4925e-21)
(1.08418 0.217153 8.85648e-22)
(1.04109 0.230273 -9.35106e-24)
(0.580289 -0.147405 0)
(1.1119 0.100449 -2.3446e-23)
(0.535598 -0.36991 -1.5355e-24)
(1.18326 0.000538518 0)
(0.653956 -0.375414 0)
(1.26354 -0.052071 -2.05865e-22)
(0.804568 -0.321697 1.47015e-24)
(1.35568 -0.0751447 0)
(0.891937 -0.340959 1.1805e-22)
(1.40981 -0.0882363 4.68398e-22)
(0.997444 -0.334418 0)
(1.39311 -0.0878857 1.02023e-21)
(1.05998 -0.317462 -2.7981e-23)
(1.30452 -0.0437903 -1.20843e-21)
(1.3353 -0.0737093 1.31728e-21)