/*--------------------------------*- C++ -*----------------------------------*\
  =========                 |
  \\      /  F ield         | OpenFOAM: The Open Source CFD Toolbox
   \\    /   O peration     | Website:  https://openfoam.org
    \\  /    A nd           | Version:  10
     \\/     M anipulation  |
\*---------------------------------------------------------------------------*/
FoamFile
{
    format      ascii;
    class       volScalarField;
    location    "29";
    object      p;
}
// * * * * * * * * * * * * * * * * * * * * * * * * * * * * * * * * * * * * * //

dimensions      [0 2 -2 0 0 0 0];

internalField   nonuniform List<scalar> 
33313
(
-0.00571762
-0.0068646
-0.0061388
-0.0097589
0.00219762
0.00219919
0.000589219
0.0110957
0.00996274
-0.00521646
-0.00133375
-0.412077
-0.424218
-0.407541
-0.0547563
-0.0671119
-0.0523718
-0.407621
-0.538559
-0.445363
-0.33988
0.788344
0.714906
0.856392
0.854509
0.2588
0.264072
0.266408
0.229023
0.219879
0.231256
0.281929
0.263376
-0.733902
-0.754576
-0.740515
-0.714793
0.0261056
0.0231206
-0.183009
-0.166668
0.256949
0.243128
-0.709939
-0.380986
-0.398616
0.752416
0.830581
-0.00338012
-0.00155413
0.227644
0.256314
0.285583
0.33248
0.151171
0.173465
0.430104
0.551255
0.420076
0.323598
0.440217
0.836945
0.905875
0.935454
-0.00480781
-0.0212109
-0.131609
-0.208707
-0.20298
-0.356671
-0.294438
-0.235799
-0.676184
-0.212987
-0.501115
-0.515102
-0.558593
-0.519551
-0.0938177
-0.144564
0.551311
0.541919
0.560396
-0.269204
-0.301502
-0.345017
-0.448153
-0.427442
-0.424901
0.922139
-0.571038
-0.621348
-0.604629
-0.5696
-0.537787
0.215878
0.205029
0.00552823
0.0035498
-0.299316
-0.289933
-0.365831
-0.37346
-0.386307
-0.427168
-0.762775
-0.816994
-0.799413
-0.753699
-0.175741
0.041354
-0.0162634
-0.17173
-0.989512
-1.12779
-0.919818
0.919298
0.880721
-0.366697
-0.340355
-0.655985
-0.664488
-0.650208
-0.00474308
-0.00333019
-0.0179858
0.3525
0.00233091
0.00524047
-0.395916
-0.430432
-0.549541
-0.571721
0.126622
0.114559
-0.0134107
0.054633
-0.193935
-0.0941368
0.145154
0.0239167
0.27389
0.00887442
0.00843646
-0.000713703
0.0598352
0.0570721
0.054853
0.0525876
0.282613
0.26174
0.295575
0.279024
0.447998
0.453728
0.426798
0.43187
-0.501079
-0.442976
-0.43509
-0.588341
0.109392
0.148454
0.280672
0.162419
-0.463421
-0.441851
-0.434118
-0.434263
-0.00375682
-0.00262667
0.0737342
0.072055
0.110493
0.109356
0.259129
0.242537
-0.322748
-0.354281
0.00431988
0.00428754
0.0779461
0.0750324
0.19146
0.192157
-0.132162
-0.086025
-0.394456
-0.442427
-0.406374
-0.484034
0.547456
0.522826
-0.509296
-0.552784
0.443602
0.462898
0.465559
0.324757
0.342779
0.327965
0.565626
0.543152
0.213963
0.219705
-0.365829
-0.358555
-0.299082
-0.434398
0.233155
0.22828
2.42338e-05
0.00329375
5.41113e-05
-0.00224904
-0.0648206
-0.46817
-0.450682
0.374881
0.377319
0.358838
0.354745
-0.309182
-0.297296
-0.276638
0.218833
0.238295
0.211323
-0.392276
-0.389361
-0.391617
-0.207452
-0.172574
0.0759744
0.11048
0.108962
-0.753336
0.215347
-0.220715
-0.207046
-0.191446
-0.17727
-0.162325
-0.149184
-0.137157
-0.126375
-0.117178
-0.109564
-0.103503
-0.0988334
-0.095493
-0.0933613
-0.0924027
-0.092546
-0.0937872
-0.0961152
-0.0995738
-0.104218
-0.110129
-0.117377
-0.125983
-0.135896
-0.146932
-0.158724
-0.170953
-0.183313
-0.194405
-0.205209
-0.214231
-0.221488
-0.239929
-0.244282
-0.255104
-0.231082
-0.230187
-0.227311
-0.204595
-0.213067
-0.210565
-0.186561
-0.196537
-0.163806
-0.175405
-0.1413
-0.152283
-0.122013
-0.131121
-0.107534
-0.114133
-0.0980952
-0.102209
-0.0932964
-0.0951416
-0.092907
-0.0925505
-0.0971166
-0.094411
-0.106509
-0.101116
-0.122002
-0.113431
-0.144382
-0.132321
-0.173755
-0.158144
-0.206515
-0.189542
-0.223539
-0.253307
-0.266691
-0.211869
-0.238026
-0.21933
-0.225785
-0.258658
-0.272875
-0.210237
-0.232757
-0.242763
-0.230172
-0.274581
-0.244431
-0.259846
-0.213269
-0.224909
-0.2207
-0.191356
-0.202954
-0.163798
-0.178228
-0.13799
-0.150089
-0.117751
-0.127227
-0.103166
-0.10972
-0.0941998
-0.0980302
-0.0901434
-0.091598
-0.0905137
-0.0897965
-0.0951525
-0.0922974
-0.104311
-0.099138
-0.11858
-0.110774
-0.13831
-0.12779
-0.162717
-0.150078
-0.188653
-0.176325
-0.211573
-0.200894
-0.22806
-0.220879
-0.232419
-0.213578
-0.225401
-0.220665
-0.200683
-0.19944
-0.203787
-0.192681
-0.197756
-0.176914
-0.185554
-0.156363
-0.167091
-0.135414
-0.145675
-0.117504
-0.125947
-0.104218
-0.110247
-0.0957789
-0.099415
-0.091843
-0.0932696
-0.0922606
-0.091503
-0.0973068
-0.0941747
-0.107661
-0.101766
-0.124345
-0.115146
-0.1483
-0.135384
-0.179855
-0.163131
-0.217064
-0.198021
-0.251824
-0.235471
-0.278187
-0.26647
-0.287163
-0.285292
-0.204232
-0.225104
-0.271572
-0.284356
-0.217963
-0.228408
-0.220359
-0.240551
-0.18433
-0.193018
-0.179635
-0.221818
-0.256899
-0.205525
-0.202502
-0.205951
-0.193964
-0.201257
-0.174637
-0.18471
-0.150439
-0.163184
-0.127401
-0.138202
-0.109595
-0.117889
-0.0969707
-0.102613
-0.0894932
-0.0926276
-0.0865954
-0.0875041
-0.0878992
-0.0867371
-0.0933306
-0.0900915
-0.103207
-0.0976806
-0.118159
-0.110014
-0.138574
-0.127709
-0.163671
-0.150692
-0.190268
-0.177211
-0.214078
-0.202979
-0.230653
-0.22357
-0.23558
-0.234811
-0.23352
-0.205682
-0.213098
-0.185121
-0.196101
-0.185708
-0.184317
-0.179648
-0.183821
-0.165668
-0.173492
-0.147212
-0.156789
-0.12814
-0.137505
-0.111796
-0.119489
-0.0998006
-0.105219
-0.092397
-0.0955432
-0.0893177
-0.0903326
-0.0905029
-0.0893674
-0.0963101
-0.0927931
-0.107509
-0.101175
-0.125222
-0.115478
-0.150556
-0.136892
-0.183823
-0.166246
-0.223167
-0.203013
-0.261129
-0.243054
-0.288325
-0.276394
-0.298371
-0.295757
-0.276901
-0.287236
-0.295209
-0.214777
-0.195917
-0.233301
-0.264365
-0.172639
-0.274949
-0.265342
-0.20784
-0.209917
-0.228618
-0.205067
-0.186366
-0.220424
-0.249754
-0.181612
-0.167247
-0.175654
-0.184123
-0.184591
-0.173897
-0.1804
-0.156879
-0.165963
-0.135737
-0.146719
-0.115945
-0.125278
-0.100641
-0.107743
-0.0899682
-0.0947076
-0.0839389
-0.0864013
-0.0821326
-0.0825328
-0.0842703
-0.0827179
-0.0903524
-0.0868066
-0.10075
-0.0949765
-0.116133
-0.107782
-0.136915
-0.125871
-0.162272
-0.149169
-0.189293
-0.175847
-0.213577
-0.202106
-0.230481
-0.223239
-0.235894
-0.234818
-0.233895
-0.196027
-0.203233
-0.1763
-0.186861
-0.169541
-0.159281
-0.165432
-0.171412
-0.171042
-0.16582
-0.169628
-0.153529
-0.160463
-0.136941
-0.145532
-0.119782
-0.128217
-0.105078
-0.111989
-0.0944141
-0.0992048
-0.0880588
-0.0907124
-0.0858155
-0.0864335
-0.0877055
-0.0862292
-0.0941587
-0.0903216
-0.106019
-0.0993473
-0.124502
-0.114352
-0.150869
-0.136642
-0.185553
-0.167224
-0.226304
-0.205493
-0.266249
-0.246963
-0.295256
-0.282783
-0.305332
-0.302915
-0.29341
-0.301929
-0.259291
-0.264177
-0.280519
-0.164389
-0.174831
-0.156777
-0.223005
-0.252993
-0.20977
-0.245318
-0.265569
-0.245849
-0.193074
-0.250398
-0.240906
-0.162362
-0.145207
-0.151758
-0.138573
-0.145337
-0.238644
-0.147622
-0.128058
-0.13849
-0.160178
-0.155005
-0.162022
-0.162629
-0.153572
-0.158917
-0.138606
-0.146642
-0.120574
-0.129765
-0.103879
-0.111802
-0.090944
-0.0969181
-0.0821507
-0.0860156
-0.0775264
-0.0793378
-0.0767636
-0.0766812
-0.0796673
-0.0777621
-0.0863012
-0.0825028
-0.0970829
-0.091136
-0.112707
-0.104252
-0.133599
-0.122513
-0.158952
-0.145854
-0.186046
-0.172536
-0.210495
-0.198909
-0.227501
-0.220217
-0.233298
-0.231983
-0.226274
-0.231471
-0.207371
-0.218085
-0.195821
-0.197348
-0.197696
-0.185133
-0.191613
-0.166559
-0.176581
-0.143316
-0.155321
-0.154195
-0.150573
-0.156302
-0.156047
-0.151433
-0.154751
-0.140509
-0.146605
-0.125807
-0.133433
-0.110545
-0.118048
-0.0975091
-0.103623
-0.0881881
-0.0923488
-0.0828644
-0.0850372
-0.0814123
-0.0816596
-0.0839283
-0.0821555
-0.0909028
-0.0868147
-0.103236
-0.0963303
-0.122214
-0.111808
-0.149211
-0.134644
-0.184773
-0.165971
-0.226597
-0.205232
-0.267722
-0.247836
-0.298069
-0.284896
-0.308652
-0.306166
-0.29629
-0.305143
-0.282761
-0.224812
-0.224773
-0.194804
-0.133218
-0.117411
-0.209809
-0.238645
-0.130939
-0.179207
-0.232824
-0.148788
-0.220905
-0.203279
-0.203711
-0.121276
-0.202743
-0.190221
-0.106984
-0.224891
-0.110658
-0.0920202
-0.101556
-0.127614
-0.11969
-0.138242
-0.133985
-0.140047
-0.140346
-0.133073
-0.137524
-0.120278
-0.127162
-0.105246
-0.112838
-0.0913535
-0.0979725
-0.080646
-0.0855568
-0.0736451
-0.0766721
-0.0703734
-0.071558
-0.0706074
-0.0700661
-0.0742202
-0.0719927
-0.0813264
-0.0773188
-0.0923745
-0.0863188
-0.108064
-0.0996005
-0.128815
-0.117822
-0.153864
-0.140927
-0.180619
-0.167271
-0.204847
-0.193348
-0.221838
-0.214527
-0.227782
-0.226385
-0.221201
-0.226113
-0.213367
-0.183917
-0.17652
-0.181143
-0.182941
-0.184583
-0.173417
-0.179272
-0.156235
-0.165546
-0.134707
-0.145837
-0.123118
-0.130695
-0.118321
-0.124941
-0.138646
-0.135361
-0.140666
-0.140386
-0.136545
-0.139369
-0.126991
-0.132339
-0.114088
-0.120786
-0.100673
-0.107266
-0.0892763
-0.0946066
-0.0812703
-0.084816
-0.0769378
-0.078652
-0.0762154
-0.0761259
-0.079265
-0.0772466
-0.086623
-0.0823595
-0.099227
-0.0921975
-0.118409
-0.107905
-0.145628
-0.130941
-0.181522
-0.162536
-0.223867
-0.202208
-0.265696
-0.24546
-0.296571
-0.28316
-0.307346
-0.304841
-0.294524
-0.303747
-0.262774
-0.28049
-0.220767
-0.242456
-0.182432
-0.178088
-0.19891
-0.0962946
-0.0830026
-0.19474
-0.221886
-0.158451
-0.162874
-0.164172
-0.213591
-0.135409
-0.200353
-0.162685
-0.170319
-0.156489
-0.109436
-0.183019
-0.086922
-0.111297
-0.0750576
-0.209019
-0.0771828
-0.0630927
-0.0695841
-0.093219
-0.0852805
-0.107526
-0.100796
-0.116821
-0.113021
-0.118606
-0.118724
-0.112924
-0.116579
-0.102308
-0.108023
-0.0899531
-0.0961711
-0.0785769
-0.0839956
-0.0699585
-0.0738727
-0.0646399
-0.066879
-0.0626427
-0.0632371
-0.0638072
-0.0628397
-0.0680591
-0.0655456
-0.0755485
-0.0713796
-0.0867362
-0.0806413
-0.102305
-0.0939354
-0.12266
-0.111897
-0.147094
-0.134481
-0.173162
-0.160149
-0.196848
-0.18559
-0.2136
-0.20636
-0.219708
-0.218163
-0.213609
-0.218231
-0.19613
-0.206235
-0.183856
-0.170028
-0.167204
-0.169738
-0.170881
-0.16127
-0.166502
-0.145887
-0.154284
-0.126218
-0.136438
-0.105472
-0.0994049
-0.104428
-0.115426
-0.115942
-0.111101
-0.122916
-0.120011
-0.124893
-0.124562
-0.121463
-0.123844
-0.113237
-0.117858
-0.102033
-0.107855
-0.0903805
-0.0961027
-0.0805595
-0.0851363
-0.0738115
-0.0767707
-0.0704079
-0.0716959
-0.0703392
-0.0699533
-0.0738206
-0.0716115
-0.0814193
-0.077058
-0.0940887
-0.0870475
-0.113179
-0.102739
-0.1402
-0.125621
-0.175877
-0.156995
-0.218134
-0.196492
-0.260102
-0.239775
-0.2911
-0.277654
-0.301779
-0.299344
-0.288939
-0.298185
-0.256779
-0.274789
-0.214116
-0.23613
-0.170826
-0.192093
-0.140688
-0.133493
-0.15118
-0.0685241
-0.0577605
-0.145084
-0.125001
-0.117986
-0.178711
-0.203819
-0.149399
-0.193931
-0.148923
-0.142896
-0.122422
-0.180171
-0.0988363
-0.163643
-0.0794267
-0.0934405
-0.0535431
-0.0635147
-0.129273
-0.111253
-0.104357
-0.0504643
-0.0438895
-0.16258
-0.149043
-0.0413396
-0.192007
-0.0514155
-0.0472338
-0.0625664
-0.056538
-0.0759957
-0.0692537
-0.0881937
-0.0824318
-0.0962992
-0.0929473
-0.0980428
-0.0980167
-0.0935467
-0.096473
-0.0849278
-0.0895782
-0.0749055
-0.0799372
-0.0657871
-0.0701124
-0.0590873
-0.0620875
-0.0553102
-0.0568268
-0.0544827
-0.0545358
-0.0564908
-0.0551394
-0.0612973
-0.0585408
-0.0690718
-0.0647935
-0.08027
-0.0742054
-0.0955437
-0.0873614
-0.115279
-0.104864
-0.138828
-0.126681
-0.163913
-0.151387
-0.186761
-0.175888
-0.203045
-0.195978
-0.209233
-0.207565
-0.203716
-0.207971
-0.187242
-0.196832
-0.175655
-0.156335
-0.153407
-0.1566
-0.157431
-0.149335
-0.153849
-0.13587
-0.14326
-0.118048
-0.127385
-0.0979987
-0.108206
-0.0953774
-0.0923958
-0.0834895
-0.0877215
-0.0925813
-0.0824706
-0.0875481
-0.101421
-0.0972682
-0.107397
-0.104842
-0.109288
-0.108911
-0.106493
-0.10847
-0.0994954
-0.103442
-0.0898726
-0.0948772
-0.0798716
-0.0847757
-0.0715339
-0.0754015
-0.0659629
-0.0683754
-0.0634096
-0.0643109
-0.0639084
-0.0632708
-0.0677154
-0.0653721
-0.0754124
-0.0710303
-0.0879475
-0.0810033
-0.106661
-0.0964392
-0.133075
-0.118824
-0.167997
-0.149502
-0.209541
-0.188235
-0.251028
-0.230906
-0.281769
-0.268435
-0.292283
-0.289914
-0.279554
-0.288704
-0.247719
-0.265547
-0.205268
-0.227183
-0.161891
-0.18325
-0.124674
-0.1423
-0.109071
-0.162604
-0.185351
-0.135613
-0.135126
-0.174901
-0.11087
-0.161461
-0.0904792
-0.146094
-0.073679
-0.0597495
-0.0396165
-0.0482079
-0.115509
-0.0992075
-0.072908
-0.0818331
-0.0775907
-0.0388524
-0.0312852
-0.0715799
-0.0675738
-0.0308084
-0.174797
-0.0345157
-0.0326207
-0.0400069
-0.0369362
-0.0485964
-0.0439005
-0.0595324
-0.0539516
-0.0698778
-0.0649603
-0.0768829
-0.0739553
-0.0786202
-0.0784532
-0.0751724
-0.0774603
-0.0682975
-0.0720175
-0.0603098
-0.0643069
-0.0531912
-0.0565423
-0.0482078
-0.0503907
-0.0458098
-0.0466794
-0.0460291
-0.0455984
-0.0487811
-0.0470936
-0.054051
-0.0510969
-0.0620139
-0.057676
-0.0731063
-0.0671333
-0.0879379
-0.080021
-0.106868
-0.0968994
-0.129304
-0.117743
-0.153147
-0.141242
-0.174902
-0.164537
-0.190533
-0.18372
-0.196692
-0.19495
-0.191719
-0.195634
-0.176351
-0.185239
-0.153445
-0.165652
-0.127329
-0.14038
-0.135812
-0.122764
-0.12986
-0.14327
-0.140312
-0.144081
-0.144573
-0.138117
-0.141881
-0.126464
-0.13292
-0.110561
-0.118938
-0.0922415
-0.101592
-0.0732681
-0.0827405
-0.0798407
-0.075772
-0.0871695
-0.0836993
-0.0923402
-0.0901099
-0.0941116
-0.0937064
-0.091875
-0.0934934
-0.0859863
-0.0893214
-0.0778067
-0.0820638
-0.0693284
-0.0734769
-0.0623622
-0.0655744
-0.0578698
-0.0597834
-0.0560765
-0.0566358
-0.0570508
-0.0562084
-0.0610767
-0.0586553
-0.0687355
-0.0644056
-0.0809494
-0.0742034
-0.0990198
-0.089162
-0.124449
-0.110733
-0.158109
-0.140269
-0.198339
-0.177677
-0.238759
-0.219126
-0.268833
-0.255781
-0.279078
-0.276794
-0.266597
-0.275547
-0.23552
-0.25292
-0.194155
-0.21551
-0.151642
-0.172567
-0.114634
-0.132185
-0.0853149
-0.0989847
-0.0626623
-0.0731721
-0.0636115
-0.0532766
-0.114802
-0.147198
-0.167503
-0.0639104
-0.122513
-0.157269
-0.1014
-0.144747
-0.0838066
-0.130692
-0.069061
-0.0569187
-0.0470407
-0.0311225
-0.038841
-0.103751
-0.0887929
-0.0726432
-0.055619
-0.0450169
-0.0321889
-0.0235714
-0.118093
-0.106006
-0.0247842
-0.158176
-0.0232833
-0.0230522
-0.0252019
-0.0239742
-0.0290333
-0.0268646
-0.0354468
-0.031922
-0.0441246
-0.039629
-0.0527319
-0.0485985
-0.0587649
-0.0562105
-0.0604962
-0.0602095
-0.0579381
-0.0596839
-0.0525609
-0.0554789
-0.0463361
-0.049437
-0.0409543
-0.0434575
-0.037471
-0.0389392
-0.0362804
-0.0365834
-0.037414
-0.0365617
-0.0408036
-0.0388308
-0.0464449
-0.0433382
-0.0545065
-0.0501545
-0.0653937
-0.0595641
-0.0796629
-0.0720749
-0.0976365
-0.0881944
-0.118773
-0.107895
-0.141169
-0.129989
-0.161636
-0.151874
-0.176462
-0.169973
-0.18251
-0.180725
-0.178167
-0.181666
-0.163909
-0.172191
-0.142627
-0.153918
-0.130513
-0.110909
-0.0948371
-0.103192
-0.123682
-0.117888
-0.131236
-0.1282
-0.13259
-0.132697
-0.127922
-0.13097
-0.117955
-0.123536
-0.103885
-0.111345
-0.0872262
-0.0957582
-0.0696344
-0.0784675
-0.0336576
-0.0379404
-0.0263019
-0.0608335
-0.0608781
-0.0547654
-0.0576694
-0.0673995
-0.0641626
-0.0734945
-0.070574
-0.0779307
-0.0760007
-0.0795628
-0.0791489
-0.0778
-0.0791097
-0.0728906
-0.0756835
-0.0660071
-0.0695905
-0.0589112
-0.0623725
-0.0531912
-0.0558086
-0.0496683
-0.0511357
-0.0485374
-0.0488024
-0.0498933
-0.0488935
-0.0540356
-0.0515892
-0.0615302
-0.0573193
-0.0732558
-0.066798
-0.0904486
-0.0810823
-0.114557
-0.101557
-0.146497
-0.129557
-0.184857
-0.165124
-0.223671
-0.204783
-0.252716
-0.240097
-0.262605
-0.260413
-0.250477
-0.259159
-0.220468
-0.23725
-0.180663
-0.201217
-0.139601
-0.159838
-0.10341
-0.120624
-0.0743358
-0.0880122
-0.0515118
-0.0622515
-0.042033
-0.13338
-0.151072
-0.111836
-0.141572
-0.0935789
-0.13026
-0.0849772
-0.0860801
-0.0766049
-0.078319
-0.117535
-0.0656426
-0.0551853
-0.0466428
-0.0397689
-0.0267955
-0.0341205
-0.0938131
-0.0798911
-0.064755
-0.0486962
-0.0200285
-0.0318767
-0.0522032
-0.0295852
-0.0196304
-0.0457326
-0.0438053
-0.0223506
-0.143023
-0.0163498
-0.0176686
-0.0152621
-0.0155242
-0.0160261
-0.0154192
-0.0185902
-0.017086
-0.0232308
-0.0206273
-0.0298932
-0.0263787
-0.0369077
-0.0334969
-0.0420532
-0.0398406
-0.0437517
-0.0433746
-0.0419371
-0.0432271
-0.0378317
-0.0400667
-0.0331099
-0.0354475
-0.029207
-0.0309874
-0.0270079
-0.0278636
-0.0268517
-0.0266695
-0.0287637
-0.0275537
-0.0326826
-0.0304759
-0.0386047
-0.035389
-0.0466825
-0.0423573
-0.0572799
-0.051637
-0.0708902
-0.0636815
-0.0877929
-0.0789373
-0.107499
-0.0973721
-0.128306
-0.117922
-0.147347
-0.138255
-0.16125
-0.15514
-0.167125
-0.165322
-0.163421
-0.166499
-0.150407
-0.157985
-0.130651
-0.141148
-0.108056
-0.119511
-0.0967481
-0.100381
-0.0928937
-0.112688
-0.107047
-0.12032
-0.117189
-0.122362
-0.122041
-0.118906
-0.121299
-0.110467
-0.115254
-0.0980615
-0.104684
-0.0829488
-0.0907494
-0.0666194
-0.0748495
-0.0502083
-0.0583469
-0.0503885
-0.0479697
-0.0555746
-0.0529668
-0.0605483
-0.0581372
-0.0643041
-0.062652
-0.0657844
-0.0653774
-0.0644115
-0.0654621
-0.0603498
-0.0626703
-0.0546136
-0.0575982
-0.0487554
-0.0516006
-0.04415
-0.0462365
-0.0414811
-0.0425579
-0.0409131
-0.040932
-0.0425585
-0.0414469
-0.0467216
-0.0442992
-0.053941
-0.0499075
-0.0650359
-0.0589426
-0.0811558
-0.072387
-0.103665
-0.0915336
-0.133497
-0.117666
-0.169503
-0.150949
-0.206235
-0.188318
-0.233945
-0.221884
-0.243413
-0.241317
-0.231757
-0.240096
-0.203056
-0.21909
-0.165101
-0.184697
-0.125892
-0.145233
-0.0910334
-0.107688
-0.0626889
-0.0760456
-0.040027
-0.0507835
-0.0219687
-0.030504
-0.00781769
-0.0144528
-0.0146223
-0.00205679
-0.121415
-0.136519
-0.102853
-0.128028
-0.076323
-0.0682912
-0.0872039
-0.117927
-0.0741619
-0.106453
-0.0633264
-0.0544828
-0.0473113
-0.0415382
-0.0370125
-0.0422461
-0.025892
-0.0332886
-0.0855449
-0.0724724
-0.058222
-0.0429313
-0.026788
-0.0101267
0.0027405
-0.0302349
-0.018663
-0.076825
-0.0679926
-0.0227163
-0.129722
-0.0127647
-0.0153668
-0.0091393
-0.010687
-0.00737226
-0.00805282
-0.00729438
-0.00714159
-0.00876255
-0.00783951
-0.0119716
-0.0101331
-0.0169052
-0.0142614
-0.0224608
-0.0197159
-0.0267827
-0.0248893
-0.0284221
-0.0279805
-0.0272226
-0.0281332
-0.0241819
-0.0258447
-0.0207183
-0.0224176
-0.0180517
-0.0192274
-0.0169293
-0.0172713
-0.0176382
-0.0170509
-0.0201937
-0.0186896
-0.0245343
-0.0221445
-0.0306497
-0.0273668
-0.0386685
-0.0344066
-0.0489057
-0.0434845
-0.0617863
-0.0549925
-0.0775449
-0.0693129
-0.0957436
-0.0864067
-0.11488
-0.105333
-0.132411
-0.124031
-0.145316
-0.139622
-0.150966
-0.149169
-0.147867
-0.150544
-0.136118
-0.142991
-0.117951
-0.127623
-0.0971046
-0.107732
-0.0866751
-0.0911134
-0.0840071
-0.103075
-0.0975356
-0.110771
-0.107523
-0.113495
-0.112769
-0.111131
-0.112936
-0.10406
-0.108137
-0.0931338
-0.0990131
-0.0794208
-0.0865508
-0.0642225
-0.0719131
-0.0486943
-0.0564498
0.0154943
0.0066498
0.0195995
-0.04112
-0.0369292
-0.0344853
-0.0355635
-0.0402802
-0.0385234
-0.0443432
-0.0422614
-0.048402
-0.046425
-0.0515493
-0.0501503
-0.0528698
-0.0524834
-0.051808
-0.0526466
-0.0484684
-0.0503833
-0.0437355
-0.0461941
-0.0389717
-0.0412717
-0.0353477
-0.0369683
-0.0334167
-0.0341586
-0.033313
-0.0331331
-0.0351609
-0.0339802
-0.0392592
-0.036904
-0.0461096
-0.0423021
-0.05646
-0.0507915
-0.0713554
-0.063266
-0.0920513
-0.0809047
-0.119468
-0.104911
-0.152721
-0.135555
-0.186972
-0.170217
-0.213103
-0.201693
-0.22212
-0.220111
-0.211062
-0.218984
-0.18387
-0.19905
-0.14799
-0.16651
-0.110922
-0.129211
-0.0777671
-0.0936652
-0.0504155
-0.0633608
-0.0282394
-0.0387791
-0.0102372
-0.0187391
0.00434526
-0.0025895
0.0103097
-0.111226
-0.124012
-0.060104
-0.0954718
-0.116583
-0.0822576
-0.107617
-0.0712482
-0.0972576
-0.0622
-0.0548476
-0.0490329
-0.0444507
-0.0408238
-0.0380191
-0.0276141
-0.0355362
-0.0788358
-0.0665601
-0.0530432
-0.0383369
-0.02275
-0.00660819
0.0229483
0.00962832
-0.0337401
-0.0332695
-0.0199122
-0.0269621
-0.0265705
-0.0250345
-0.118346
-0.0116874
-0.0154689
-0.00592412
-0.00855276
-0.00204606
-0.00379747
0.000148598
-0.000756632
0.000874637
0.000678973
0.000267536
0.000732088
-0.00172643
-0.000543038
-0.00517663
-0.00328685
-0.00940847
-0.00727581
-0.012956
-0.0113664
-0.0145077
-0.0140262
-0.0138083
-0.0144076
-0.011646
-0.0128368
-0.00921771
-0.0103923
-0.00756542
-0.00824515
-0.00732486
-0.00724658
-0.0087371
-0.00782149
-0.0118058
-0.0100691
-0.0164643
-0.0139403
-0.0226901
-0.0193792
-0.0305828
-0.026416
-0.0404046
-0.0352313
-0.0525109
-0.0461531
-0.0670901
-0.0594982
-0.0837531
-0.07522
-0.101191
-0.0924958
-0.117182
-0.109531
-0.129055
-0.123794
-0.134438
-0.132669
-0.131897
-0.134197
-0.121375
-0.127563
-0.104776
-0.113644
-0.0856984
-0.0953228
-0.067338
-0.0762977
-0.0517928
-0.0591559
-0.0688328
-0.0532153
-0.0610668
-0.0831127
-0.0762389
-0.0947862
-0.0893659
-0.10264
-0.0992435
-0.105992
-0.104903
-0.104603
-0.105883
-0.098749
-0.102197
-0.0891293
-0.0943533
-0.0766724
-0.0831917
-0.062511
-0.0697135
-0.0477813
-0.0551622
-0.0333872
-0.0405024
-0.0283858
-0.0275672
-0.030753
-0.0294753
-0.0338374
-0.0322252
-0.0371002
-0.0354964
-0.0397146
-0.0385412
-0.0408719
-0.0405172
-0.0400502
-0.0407194
-0.0373175
-0.0388882
-0.0334538
-0.0354546
-0.029647
-0.0314702
-0.0268739
-0.0280923
-0.025567
-0.0260284
-0.0258338
-0.0254997
-0.0278043
-0.0265932
-0.0317643
-0.0295127
-0.038171
-0.0346274
-0.0476931
-0.042493
-0.0612594
-0.0539053
-0.0799964
-0.0699142
-0.104784
-0.091619
-0.134984
-0.119364
-0.166428
-0.150992
-0.190782
-0.180097
-0.199355
-0.197408
-0.189024
-0.196436
-0.163496
-0.177747
-0.129838
-0.147209
-0.0950601
-0.112225
-0.0638278
-0.0788358
-0.0377359
-0.0501409
-0.0162745
-0.0264979
0.00140882
-0.00698681
0.0159769
0.00905371
0.0274259
0.0221466
0.0355417
0.0318735
0.0254046
0.0384357
-0.0453113
-0.102787
-0.113523
-0.0264974
-0.0896529
-0.107094
-0.0786566
-0.0991441
-0.0695833
-0.0897249
-0.0622562
-0.056454
-0.0519114
-0.0485099
-0.0459015
-0.0437415
-0.0419306
-0.0309965
-0.03998
-0.0736604
-0.0620938
-0.0491206
-0.0349171
-0.0198074
-0.00410259
0.011686
0.0271482
0.0406732
-0.0376457
-0.0223744
-0.0435097
-0.0374438
-0.0282765
-0.108868
-0.0124574
-0.0171635
-0.0048218
-0.00837474
0.00076176
-0.00183458
0.00472325
0.00293626
0.00720594
0.00613539
0.00839471
0.00794551
0.0084908
0.0085729
0.00749597
0.00813916
0.00530123
0.00654496
0.00225979
0.00383279
-0.000550866
0.000743853
-0.00197855
-0.001484
-0.00167545
-0.00202345
-0.000228305
-0.00103476
0.00136112
0.00061094
0.00219799
0.00191616
0.00173576
0.00214808
-0.0002287
0.00094327
-0.00368749
-0.00177633
-0.00856604
-0.00595393
-0.0148257
-0.0115226
-0.0225345
-0.0184896
-0.0319005
-0.0269932
-0.0432102
-0.0372972
-0.056608
-0.0496549
-0.0717505
-0.0640119
-0.0875135
-0.079658
-0.10198
-0.0950499
-0.11282
-0.107996
-0.117909
-0.116186
-0.115864
-0.117822
-0.106498
-0.112037
-0.0914751
-0.0995095
-0.0741123
-0.0828655
-0.057551
-0.0655962
-0.050194
-0.047221
-0.0321531
-0.0397087
-0.0623697
-0.0548485
-0.0762638
-0.0695219
-0.0877792
-0.0823939
-0.0958624
-0.0923025
-0.0997952
-0.098375
-0.0992885
-0.100095
-0.094517
-0.0974069
-0.0860476
-0.0906956
-0.0747068
-0.0806776
-0.0614633
-0.0682569
-0.0474229
-0.054483
-0.0335233
-0.0404114
0.0528381
0.0421838
0.0547489
-0.0268233
-0.0196593
-0.0198837
-0.0196501
-0.0202134
-0.0198372
-0.0217727
-0.0208732
-0.0240864
-0.0228597
-0.0266671
-0.0253838
-0.0288161
-0.0278424
-0.0298102
-0.0294958
-0.0291672
-0.0297041
-0.0269399
-0.0282206
-0.0238241
-0.0254293
-0.0208455
-0.0222568
-0.0187986
-0.0196757
-0.0180077
-0.0182401
-0.0185578
-0.0181108
-0.0205801
-0.0193724
-0.0243412
-0.0222226
-0.030249
-0.0269965
-0.0388891
-0.0341844
-0.0510677
-0.0444793
-0.0677689
-0.0587931
-0.0898046
-0.0781011
-0.116757
-0.102791
-0.145151
-0.131155
-0.167568
-0.157669
-0.175734
-0.173806
-0.166267
-0.17311
-0.142519
-0.155787
-0.111145
-0.127338
-0.0787017
-0.0947208
-0.0494685
-0.0635356
-0.0248423
-0.0365854
-0.00434102
-0.0141354
0.0128228
0.00462611
0.0271842
0.0203304
0.0386411
0.0332864
0.0471318
0.0432894
0.0504361
-0.0960257
-0.10491
-0.0852656
-0.0993921
-0.0763935
-0.0923443
-0.0278359
-0.0249531
-0.0208387
-0.0692194
-0.0837654
-0.0635862
-0.0593302
-0.0561919
-0.0538692
-0.0522412
-0.050891
-0.0494227
-0.0477107
-0.034723
-0.0451889
-0.0699904
-0.0590479
-0.0465811
-0.0328268
-0.0180643
-0.00259388
0.0130209
0.0284211
0.0559266
0.0431803
-0.0203691
-0.0418912
-0.024995
-0.0134629
-0.0141964
-0.0311111
-0.101171
-0.0142764
-0.019445
-0.00530225
-0.00953929
0.00182032
-0.00148479
0.00715624
0.00469352
0.0110853
0.00928547
0.0137126
0.0125489
0.0152551
0.0146047
0.01591
0.0156858
0.0157183
0.0159258
0.0145678
0.0152675
0.0125806
0.0136484
0.0104758
0.0114795
0.00921529
0.00969419
0.00921812
0.00906718
0.0100906
0.00959342
0.01101
0.0105976
0.0112058
0.0112354
0.0102014
0.0108699
0.00782291
0.00918518
0.00408777
0.00611951
-0.000920336
0.00173742
-0.00714494
-0.00388146
-0.014621
-0.01072
-0.0235035
-0.0188732
-0.0340139
-0.0285436
-0.0462558
-0.0399249
-0.059929
-0.0529565
-0.074081
-0.067033
-0.0870802
-0.0808457
-0.0969116
-0.0925155
-0.101691
-0.100031
-0.100071
-0.101727
-0.0917691
-0.0967063
-0.078263
-0.085495
-0.0625875
-0.0704865
-0.047712
-0.0549058
-0.0351882
-0.04117
-0.0297738
-0.0422495
-0.0349403
-0.0568408
-0.0495824
-0.070482
-0.0638479
-0.0819823
-0.07657
-0.0903339
-0.086603
-0.0948265
-0.093091
-0.0951308
-0.0955052
-0.0913261
-0.09372
-0.0838695
-0.0880119
-0.0734969
-0.0789937
-0.0610792
-0.0674876
-0.0476261
-0.054407
-0.0341444
-0.0408338
-0.0212588
-0.0275947
-0.01259
-0.0129479
-0.0125266
-0.0124383
-0.0134206
-0.0128509
-0.0150922
-0.0141826
-0.0171014
-0.0160888
-0.0188457
-0.0180482
-0.0196784
-0.0194108
-0.0191631
-0.0195989
-0.0173551
-0.0183921
-0.0148805
-0.0161454
-0.0126112
-0.0136708
-0.0111736
-0.0117667
-0.0107985
-0.0108493
-0.0115531
-0.0110299
-0.0135664
-0.0123906
-0.0170811
-0.0151177
-0.0224539
-0.0195091
-0.0301866
-0.0259887
-0.0409621
-0.0351461
-0.0556159
-0.0477528
-0.0748697
-0.0646472
-0.0984825
-0.0862262
-0.123666
-0.111196
-0.144013
-0.134951
-0.151801
-0.149854
-0.14336
-0.149558
-0.12147
-0.133731
-0.0923934
-0.10741
-0.0622556
-0.0771464
-0.0350023
-0.0481323
-0.0119074
-0.0229418
0.00748096
-0.00180335
0.0239264
0.0160336
0.0378607
0.0312038
0.0491237
0.0438262
0.0578172
0.053794
0.063856
0.061157
0.0674636
0.0658858
0.0568585
0.0687386
-0.090814
-0.0980221
-0.0823038
-0.0933528
-0.0241097
-0.0174121
-0.0754843
-0.0871417
-0.0702218
-0.0793598
-0.0663362
-0.0636318
-0.0619117
-0.0608437
-0.0600524
-0.0593921
-0.0583659
-0.0564955
-0.0537566
-0.0151276
-0.0376493
-0.0498325
-0.0678475
-0.0574795
-0.0454757
-0.0320209
-0.0173366
-0.00195977
0.0136087
0.0290408
0.0437652
-0.0179673
-0.0142282
-0.0449099
-0.0265736
0.057559
0.0697629
-0.0325589
-0.0951195
-0.015876
-0.0209837
-0.00650631
-0.0110162
0.00161494
-0.00229363
0.00813305
0.005053
0.013163
0.0108059
0.0169548
0.0152052
0.019654
0.0184288
0.0214604
0.0206563
0.0225492
0.0220863
0.0229881
0.0228526
0.022684
0.0229373
0.0216108
0.0222308
0.0201802
0.0208957
0.0191361
0.0195676
0.0189303
0.0189266
0.0193488
0.0190972
0.01974
0.0195926
0.0194434
0.0197103
0.0180376
0.0188937
0.0153686
0.0168618
0.0114603
0.0135636
0.00640493
0.00906982
0.000276935
0.00347254
-0.00692595
-0.00318625
-0.0153084
-0.0109602
-0.0250324
-0.0199944
-0.0361659
-0.0304292
-0.0484494
-0.0422
-0.0610871
-0.0547974
-0.0727056
-0.0671266
-0.0815805
-0.0775934
-0.0860348
-0.0844524
-0.0847652
-0.0861645
-0.0774226
-0.0818112
-0.065346
-0.0718173
-0.0513287
-0.0583879
-0.0380636
-0.0444735
-0.0269876
-0.0322223
-0.022225
-0.0381058
-0.031035
-0.0523407
-0.0452577
-0.0657765
-0.0592244
-0.0773103
-0.0718475
-0.0859588
-0.0820461
-0.091005
-0.088963
-0.0920654
-0.0920415
-0.0891323
-0.0910819
-0.082569
-0.0862677
-0.0730287
-0.0781209
-0.0613294
-0.0673952
-0.048373
-0.0549458
-0.0351674
-0.0417422
-0.0224628
-0.0287335
0.0798012
0.0703937
0.0803653
-0.016397
-0.0072505
-0.00930304
-0.00818976
-0.00583814
-0.00647478
-0.00531559
-0.00547156
-0.00570405
-0.00540038
-0.00684797
-0.00620004
-0.00838229
-0.00759646
-0.00977611
-0.00913387
-0.0104511
-0.0102344
-0.0100236
-0.0103827
-0.00856476
-0.0093963
-0.00663849
-0.0076121
-0.0049702
-0.00573331
-0.00403378
-0.00439559
-0.00398329
-0.00389533
-0.00487318
-0.00430589
-0.006827
-0.00570628
-0.0100609
-0.00826803
-0.0148803
-0.0122503
-0.0217056
-0.0180119
-0.0311005
-0.0260426
-0.043753
-0.036977
-0.0602781
-0.0515113
-0.0805638
-0.0700203
-0.102455
-0.091565
-0.120615
-0.112444
-0.128031
-0.126038
-0.120756
-0.126231
-0.100816
-0.112033
-0.0740244
-0.0878854
-0.0461099
-0.0599167
-0.0207584
-0.0329865
0.000825379
-0.00949967
0.0190314
0.0103017
0.0345801
0.0271011
0.0478577
0.0415022
0.0587423
0.0536023
0.0672818
0.0633037
0.0733808
0.070596
0.077448
0.075634
0.0788341
-0.0871114
-0.0927644
-0.0109674
-0.080779
-0.0889183
-0.0760207
-0.083527
-0.0726932
-0.0765215
-0.0706262
-0.0695789
-0.0692823
-0.0694672
-0.0696829
-0.0694731
-0.0686753
-0.0667289
-0.0633473
-0.0586987
-0.0388841
-0.0525822
-0.0672947
-0.0574485
-0.045796
-0.0324867
-0.0177767
-0.00226104
0.0135468
0.0292986
0.044248
0.0583639
0.0803114
0.0707833
-0.0105914
-0.0451609
-0.0264975
-0.00367855
-0.00507023
-0.0314594
-0.0906465
-0.0164749
-0.0214675
-0.00730951
-0.0117501
0.000930067
-0.00311029
0.00811582
0.00467871
0.0140098
0.0112115
0.0186991
0.0165018
0.0223125
0.0206274
0.0250348
0.0237746
0.0270294
0.0261129
0.0284464
0.0278022
0.029367
0.0289689
0.0297278
0.0296264
0.0294251
0.029659
0.0286284
0.0290619
0.0278513
0.028202
0.0275277
0.0276235
0.0275976
0.0275374
0.0275781
0.0276357
0.0269126
0.0273548
0.0252248
0.0262098
0.0223731
0.0239451
0.0183837
0.0205147
0.0133547
0.0159922
0.00737764
0.0104807
0.000480764
0.00404559
-0.00739445
-0.00332827
-0.0163573
-0.0117344
-0.0264462
-0.0212669
-0.03744
-0.0318597
-0.0486823
-0.0430908
-0.0590301
-0.0540546
-0.0670158
-0.0634123
-0.0711357
-0.0696447
-0.0701394
-0.0713283
-0.0636436
-0.0675403
-0.0529016
-0.0586555
-0.0404771
-0.0467277
-0.0287545
-0.0344194
-0.018942
-0.0235792
-0.0111343