/*--------------------------------*- C++ -*----------------------------------*\
  =========                 |
  \\      /  F ield         | OpenFOAM: The Open Source CFD Toolbox
   \\    /   O peration     | Website:  https://openfoam.org
    \\  /    A nd           | Version:  10
     \\/     M anipulation  |
\*---------------------------------------------------------------------------*/
FoamFile
{
    format      ascii;
    class       volVectorField;
    location    "29";
    object      U;
}
// * * * * * * * * * * * * * * * * * * * * * * * * * * * * * * * * * * * * * //

dimensions      [0 1 -1 0 0 0 0];

internalField   nonuniform List<vector> 
33313
(
(0.309142 0.0155551 -2.7439e-21)
(0.448236 0.0108029 1.534e-21)
(0.392407 0.0310209 0)
(0.175192 0.0126626 0)
(0.763569 0.0333571 3.01649e-22)
(0.721031 0.0336026 0)
(0.605671 0.0351344 -7.39451e-22)
(0.642334 0.0270618 0)
(0.739689 0.0271351 3.67851e-22)
(0.609016 0.023793 6.29873e-22)
(0.681717 0.0316785 0)
(-0.00945328 0.00528043 -2.44913e-20)
(0.00454385 -0.00501273 -8.85179e-20)
(0.00401368 -0.0021097 -1.75594e-19)
(0.456765 -0.370839 2.5053e-21)
(0.177411 -0.130266 -1.58021e-20)
(0.158257 -0.123872 -8.86892e-21)
(1.48504 -0.338562 0)
(1.54815 -0.196591 0)
(1.47499 -0.135938 0)
(1.4741 -0.232018 4.48051e-20)
(0.533201 0.03654 0)
(0.449432 0.336637 -1.27785e-19)
(0.303658 0.294794 3.86567e-19)
(0.413724 0.0239513 -8.28234e-20)
(1.00475 -0.0202279 -6.82613e-20)
(1.00453 -0.0394615 4.73164e-20)
(1.00487 -0.0787721 0)
(0.962696 0.10541 -5.40784e-20)
(1.03579 0.100858 4.30191e-20)
(1.01579 0.081918 2.87272e-20)
(0.996693 -0.0192519 -4.21215e-20)
(0.881809 0.0570126 -2.06568e-20)
(-0.00365533 -0.0682 1.27369e-19)
(-0.0684672 -0.0448717 -2.63466e-19)
(-0.0757255 -0.0465029 1.63961e-19)
(-0.0918131 -0.0648629 2.27318e-20)
(1.11097 -0.0169553 -8.61346e-23)
(1.11495 -0.0172282 -2.19359e-21)
(1.51809 0.24029 -1.21636e-20)
(1.49477 0.216369 2.25818e-20)
(1.02357 -0.17579 -4.95372e-20)
(1.02985 -0.171457 -3.98995e-21)
(-0.0773314 -0.0467088 -1.08532e-19)
(-0.0975967 0.0694734 2.87564e-20)
(-0.103995 0.0733517 -1.16227e-19)
(0.202495 0.512472 9.16598e-20)
(0.182359 0.373567 3.37291e-20)
(0.43967 -0.0469309 -8.0163e-22)
(0.555192 -0.0270411 -3.85569e-22)
(1.04198 0.0686942 -3.7724e-20)
(1.05969 0.0630618 2.03211e-20)
(1.06391 -0.0977571 -5.93255e-20)
(1.01897 -0.0608822 1.57192e-19)
(0.480925 0.554896 1.37371e-19)
(0.4173 0.613011 -6.25698e-20)
(0.640972 0.754116 -9.25268e-20)
(0.380049 0.693528 2.12312e-19)
(0.22966 -0.381899 3.60776e-20)
(0.365757 -0.701771 -3.00918e-21)
(0.215993 0.548513 -6.02356e-20)
(0.407142 -0.255697 2.32042e-19)
(0.231055 -0.194614 -6.99446e-20)
(0.10046 -0.144314 0)
(0.093265 -0.00459893 0)
(0.125753 -0.0146353 1.09283e-20)
(1.44456 -0.0752743 2.76667e-20)
(1.37287 -0.199312 0)
(1.36561 -0.194465 0)
(-0.0729388 0.577575 2.78035e-20)
(-0.117455 0.573689 0)
(0.0390618 0.516566 0)
(0.442669 0.0614567 1.57312e-20)
(1.5368 0.290898 4.75287e-20)
(-0.198696 0.579713 9.24528e-20)
(-0.0984101 0.524547 7.21682e-20)
(0.517135 0.326459 0)
(0.418552 0.380128 3.9845e-20)
(1.42088 0.33132 3.51393e-20)
(1.46019 0.276917 -2.21851e-20)
(0.82607 -0.0549586 1.45539e-19)
(0.840766 -0.0363454 -4.85331e-20)
(0.801251 -0.089234 0)
(1.37226 0.19925 1.31172e-20)
(1.22113 0.227513 -3.0174e-21)
(0.596418 0.084385 -1.21197e-20)
(0.0246812 0.0395113 0)
(-0.0722161 0.0755674 1.39749e-20)
(-0.0852279 0.0671408 7.84381e-20)
(0.0385982 -0.138753 2.81393e-19)
(-0.159106 0.186337 9.71314e-21)
(-0.102758 0.185938 -3.91085e-21)
(-0.114963 0.0236416 -7.00371e-19)
(-0.125715 0.0661811 0)
(-0.114843 0.0987386 6.38997e-20)
(1.04198 0.0636478 0)
(1.0154 0.0612709 -4.56075e-21)
(0.511528 -0.0517924 1.2276e-21)
(0.651038 -0.035464 -1.79301e-21)
(1.45478 -0.150558 0)
(1.45921 -0.199442 -9.83641e-20)
(1.47701 -0.119409 0)
(1.47087 -0.0283164 4.01515e-20)
(1.48865 -0.0464184 6.58375e-21)
(1.47491 -0.0337357 -4.44787e-20)
(0.417764 0.022932 -3.87151e-21)
(0.28158 -0.0252867 -1.39171e-19)
(0.00833469 -0.0437322 -9.81367e-20)
(0.0292745 -0.0390442 -4.97377e-22)
(0.950935 -0.628694 2.01888e-20)
(1.13731 -0.774358 -3.49844e-21)
(0.963652 -0.739576 2.18164e-21)
(0.758155 -0.523683 0)
(0.874589 -0.234155 1.09795e-19)
(0.342899 -0.0407198 5.44911e-20)
(0.799307 -0.0893832 -4.9445e-20)
(0.21628 0.0741072 -4.36023e-19)
(0.179223 0.222748 5.01024e-20)
(1.47031 -0.0430347 1.94547e-21)
(1.45263 -0.0262782 0)
(-0.0628834 -0.0681112 0)
(-0.0654432 -0.0580721 1.65849e-19)
(-0.072128 -0.0746886 0)
(0.366029 -0.0159083 -1.23699e-21)
(0.429753 -0.0115754 7.47205e-22)
(0.224674 -0.0368182 -6.6178e-21)
(0.785516 0.74464 1.63152e-19)
(1.1687 -0.128216 2.19934e-23)
(1.15958 -0.133874 0)
(0.0135711 0.476564 2.10046e-20)
(0.102111 0.479593 -3.21392e-20)
(-0.0807224 -0.0425379 -2.28482e-19)
(-0.0792666 -0.0586273 4.26913e-19)
(0.900764 0.702773 3.10273e-20)
(1.06287 0.716367 5.2448e-20)
(0.923602 0.661815 0)
(0.764642 0.600499 0)
(0.52484 -0.36161 -1.58805e-20)
(0.649723 -0.456267 0)
(0.881775 -0.756022 -8.26927e-20)
(0.888824 -0.731078 -1.23912e-21)
(0.74707 -0.770829 9.66817e-20)
(1.16381 -0.115459 -2.59074e-22)
(1.16805 -0.109554 -1.20598e-21)
(1.17708 -0.124182 -1.52383e-23)
(1.07279 -0.00175801 0)
(1.07569 -0.00161819 -3.27231e-21)
(1.07753 -0.00403111 4.89615e-21)
(1.08004 -0.0056892 3.03038e-21)
(1.00735 -0.216087 3.7448e-20)
(1.02157 -0.219688 0)
(1.00294 -0.176788 -6.51855e-20)
(1.01068 -0.189762 3.7587e-20)
(0.940804 0.0938639 3.0459e-20)
(0.933908 0.113314 -4.72627e-20)
(0.953401 0.121032 2.90822e-20)
(0.947519 0.133131 1.70486e-19)
(0.117758 0.444511 2.78966e-20)
(-0.172722 0.616495 0)
(-0.0460828 0.568559 -3.42699e-20)
(-0.0788036 -0.0691312 -3.68532e-19)
(0.445951 0.367898 4.87008e-21)
(0.476527 0.436924 -1.48903e-20)
(0.867208 0.731897 -4.0582e-20)
(0.48517 0.491673 -5.62651e-20)
(-0.0654113 0.142279 0)
(-0.0569826 0.0975839 9.01002e-20)
(-0.0834974 0.226961 -6.07885e-20)
(0.398749 0.0850882 0)
(0.780586 0.0286138 0)
(0.835549 0.0301796 -1.58322e-22)
(1.06027 0.00768002 3.69883e-21)
(1.06095 0.00476076 -2.3338e-21)
(1.08525 0.0178301 1.75155e-21)
(1.08895 0.0221271 6.1985e-24)
(1.01288 -0.0920234 1.43802e-20)
(1.02469 -0.0765367 -6.31631e-20)
(0.401605 0.214447 8.21846e-20)
(0.389761 0.265134 -7.0577e-20)
(1.40404 0.175846 0)
(1.41671 0.155609 0)
(1.11417 -0.00319898 -6.89563e-22)
(1.11948 -0.000920201 -9.22535e-21)
(1.10444 0.183997 -4.00807e-20)
(1.09939 0.176765 1.38436e-20)
(0.680194 0.329175 0)
(0.608722 0.319775 -3.09991e-21)
(0.429229 0.272249 1.92691e-20)
(0.498823 0.263713 2.57416e-20)
(0.261685 0.377048 6.11846e-22)
(-0.289266 0.609242 -2.44192e-19)
(0.841547 0.0412404 -5.27613e-20)
(0.870936 0.0385599 2.24166e-20)
(0.280367 0.429212 8.79614e-21)
(0.313089 0.401013 0)
(0.927096 0.244318 0)
(0.901624 0.280367 -4.24933e-21)
(0.875508 0.37752 -5.99502e-20)
(0.976475 -0.266695 2.36058e-20)
(0.951195 -0.293355 0)
(0.947946 -0.449645 2.82734e-20)
(0.81806 -3.23327e-05 -4.38965e-20)
(0.846226 0.00461884 5.37304e-20)
(1.04014 -0.069117 5.7654e-21)
(1.03338 -0.0619857 -1.25891e-20)
(-0.132072 0.10252 0)
(-0.125052 0.0597737 -4.10975e-20)
(1.30304 -0.645164 -4.18673e-20)
(1.24185 -0.66105 1.55254e-20)
(1.02875 -0.0580648 -4.328e-20)
(1.03368 -0.0671031 5.1408e-20)
(0.731244 0.0333811 -3.86022e-24)
(0.796784 0.0323941 4.47054e-24)
(0.793732 0.0321518 -1.20038e-22)
(0.739792 0.0320573 -5.16011e-23)
(0.588728 -0.447593 -2.65421e-21)
(-0.00401543 0.0209945 1.02211e-19)
(0.00349523 0.00469447 -4.86997e-20)
(0.983501 0.186348 1.32608e-20)
(0.981899 0.16815 -6.21201e-21)
(0.993434 0.167256 6.23847e-21)
(0.996986 0.186051 0)
(1.43988 -0.034018 -2.98269e-20)
(1.42791 -0.0168027 1.66614e-21)
(1.41214 -0.014829 2.9066e-20)
(1.11211 0.291689 0)
(1.09435 0.287079 -3.84898e-20)
(1.11433 0.288249 0)
(-0.0695358 0.0450818 -4.67093e-20)
(-0.0239522 0.0147287 -1.05203e-19)
(-0.0303273 0.0194251 0)
(0.211489 -0.144477 -8.21175e-20)
(0.1808 -0.126783 3.03203e-20)
(1.0589 0.00906114 2.58129e-21)
(1.07395 -0.00842174 -7.40914e-21)
(1.07609 -0.00583999 -3.53229e-21)
(1.47356 -0.390463 0)
(1.04552 -0.176105 0)
(0.87729 -0.376493 -6.23837e-21)
(0.895091 -0.449974 -5.30208e-21)
(0.915313 -0.512533 6.80871e-21)
(0.931923 -0.555456 -5.02173e-22)
(0.949115 -0.586592 0)
(0.963088 -0.604208 -2.90316e-21)
(0.975188 -0.612531 2.90274e-21)
(0.985212 -0.61351 2.47055e-21)
(0.993553 -0.609418 -2.46904e-21)
(1.00027 -0.602035 -2.16142e-21)
(1.0056 -0.592973 2.16e-21)
(1.00964 -0.583311 1.97142e-21)
(1.01263 -0.573919 -1.97003e-21)
(1.0147 -0.565308 0)
(1.01599 -0.557916 0)
(1.01658 -0.552052 0)
(1.01647 -0.548056 1.92521e-21)
(1.0157 -0.546105 -1.92685e-21)
(1.01422 -0.546189 0)
(1.01217 -0.547714 0)
(1.00949 -0.549642 0)
(1.00648 -0.550059 2.46945e-21)
(1.00298 -0.547086 1.87835e-22)
(0.999456 -0.537977 -5.53037e-21)
(0.995233 -0.52159 2.87293e-21)
(0.991732 -0.494829 -3.344e-21)
(0.986036 -0.459889 1.08488e-20)
(0.981835 -0.412276 3.20825e-23)
(0.976783 -0.357909 0)
(0.973464 -0.292354 1.34906e-21)
(0.970653 -0.218506 0)
(0.968923 -0.14027 -2.97278e-21)
(0.917257 -0.398518 0)
(0.878692 -0.293556 1.36673e-20)
(0.908808 -0.308721 4.31209e-21)
(0.855453 -0.289873 2.80495e-21)
(0.971972 0.0248882 -3.22523e-21)
(0.967904 -0.0540022 2.84343e-21)
(0.93808 -0.213664 0)
(0.931151 -0.0530044 -1.48375e-21)
(0.933557 -0.136061 -1.39972e-21)
(0.947481 -0.351887 0)
(0.941953 -0.285979 0)
(0.959034 -0.454919 0)
(0.952257 -0.408853 0)
(0.972126 -0.51698 -2.96802e-25)
(0.965327 -0.491211 0)
(0.985305 -0.542173 0)
(0.978763 -0.53345 0)
(0.99731 -0.54502 -5.9987e-24)
(0.99152 -0.545237 0)
(1.00701 -0.542814 0)
(1.00251 -0.543629 0)
(1.01375 -0.546409 -5.24816e-24)
(1.01076 -0.543584 0)
(1.0176 -0.557977 -5.25024e-24)
(1.01601 -0.551273 0)
(1.01868 -0.575806 -5.51376e-24)
(1.01851 -0.566246 -6.58792e-28)
(1.0163 -0.597208 0)
(1.018 -0.586301 0)
(1.00908 -0.616638 0)
(1.01339 -0.60771 0)
(0.995423 -0.622969 0)
(1.00315 -0.622385 0)
(0.974541 -0.599403 0)
(0.98583 -0.616084 0)
(0.946017 -0.527211 2.90642e-21)
(0.96095 -0.570714 6.22711e-22)
(0.930171 -0.469557 5.18226e-24)
(0.866028 -0.199731 -9.52194e-23)
(0.895137 -0.208573 2.1866e-21)
(0.925886 0.0271423 0)
(0.839424 -0.191149 -1.13722e-20)
(0.949491 0.122692 0)
(0.974817 0.118854 3.65278e-21)
(0.85418 -0.0965834 1.25264e-22)
(0.8856 -0.10478 -2.22824e-21)
(0.924935 0.115994 -6.25248e-21)
(1.00513 0.0306862 0)
(0.826134 -0.0879266 -1.7721e-21)
(1.00691 0.117794 -3.42615e-21)
(0.875264 0.00559164 -2.36961e-21)
(0.818086 0.0166874 1.92276e-21)
(0.845352 0.00970804 0)
(0.83046 -0.276588 -4.66275e-22)
(0.80251 -0.080277 3.31294e-21)
(0.815138 -0.181363 7.19396e-21)
(0.868587 -0.431905 1.60164e-22)
(0.849886 -0.361718 -2.89471e-21)
(0.905921 -0.534643 -4.87283e-24)
(0.887267 -0.489527 -5.45089e-21)
(0.941108 -0.586288 0)
(0.924283 -0.566536 0)
(0.96872 -0.599694 0)
(0.955968 -0.596568 0)
(0.988751 -0.592313 0)
(0.979576 -0.597688 0)
(1.00276 -0.576929 0)
(0.996416 -0.58502 0)
(1.01225 -0.561417 0)
(1.00798 -0.568868 0)
(1.01848 -0.550124 0)
(1.01572 -0.555045 0)
(1.02209 -0.545947 0)
(1.02059 -0.547032 0)
(1.02349 -0.549085 0)
(1.02302 -0.546842 0)
(1.02336 -0.552511 0)
(1.02351 -0.551599 0)
(1.02243 -0.541245 -3.19109e-26)
(1.02272 -0.549881 0)
(1.02125 -0.49931 6.01211e-26)
(1.0208 -0.52488 0)
(1.01599 -0.415952 -5.96859e-22)
(1.01697 -0.462427 -8.47662e-21)
(1.00843 -0.29415 -2.57462e-21)
(1.01099 -0.359168 4.72132e-21)
(1.00487 -0.140872 3.00033e-21)
(1.00639 -0.220664 -1.41226e-21)
(1.00423 -0.0566899 0)
(0.949453 0.203307 -8.1747e-22)
(1.00843 0.204457 -2.03989e-22)
(0.976124 0.202897 0)
(0.901785 -0.0502317 -1.67162e-22)
(0.89881 0.114716 6.08288e-21)
(0.899505 0.0319159 0)
(0.9091 -0.208404 0)
(0.904322 -0.130809 6.58409e-22)
(0.921849 -0.34478 -6.22087e-22)
(0.914648 -0.280926 0)
(0.937683 -0.446905 0)
(0.92955 -0.400849 6.23542e-22)
(0.954723 -0.508626 -3.73179e-25)
(0.946085 -0.482728 0)
(0.972027 -0.534424 0)
(0.963423 -0.525302 0)
(0.988174 -0.538392 6.00847e-24)
(0.980341 -0.537985 0)
(1.00175 -0.537665 0)
(0.995349 -0.537715 0)
(1.01211 -0.542744 5.25671e-24)
(1.00732 -0.539199 0)
(1.0196 -0.555628 5.25917e-24)
(1.01618 -0.54828 0)
(1.02453 -0.574882 5.52376e-24)
(1.02239 -0.564569 6.59956e-28)
(1.02642 -0.598271 0)
(1.02592 -0.586277 0)
(1.02403 -0.620581 0)
(1.02586 -0.610093 0)
(1.01557 -0.630686 0)
(1.02068 -0.62813 0)
(0.999702 -0.610765 1.02623e-23)
(1.00856 -0.625789 0)
(0.977838 -0.541002 0)
(0.989269 -0.582683 0)
(0.95322 -0.411168 0)
(0.965747 -0.484068 0)
(0.929341 -0.21975 -1.11067e-21)
(0.940912 -0.321133 -4.93139e-21)
(0.909774 1.48919e-05 -1.69216e-21)
(0.9195 -0.109995 6.68333e-21)
(0.924944 0.199362 2.39043e-21)
(0.794134 0.0229851 -3.31688e-21)
(0.870326 0.110636 2.2876e-21)
(0.904076 0.1104 -3.26303e-21)
(1.01057 0.283289 1.86934e-21)
(1.0406 0.201664 2.60566e-21)
(1.04144 0.282324 1.28193e-21)
(0.812962 0.118971 0)
(0.876806 0.112697 2.62312e-21)
(0.900251 0.195705 7.15991e-22)
(0.878985 0.190673 2.93306e-21)
(0.788867 0.12406 4.21107e-23)
(0.840181 0.114591 0)
(0.781219 -0.0703443 -8.05181e-22)
(0.768328 0.127095 -3.86547e-21)
(0.773317 0.0286317 1.60672e-21)
(0.807805 -0.259606 -3.30202e-21)
(0.79302 -0.168081 0)
(0.846768 -0.412612 7.25007e-23)
(0.826336 -0.342146 1.44239e-21)
(0.886728 -0.514628 -2.79032e-22)
(0.866898 -0.469498 3.5556e-22)
(0.92498 -0.569273 0)
(0.906333 -0.547625 0)
(0.956667 -0.586651 0)
(0.941857 -0.581558 0)
(0.980571 -0.582814 0)
(0.969503 -0.586497 0)
(0.998174 -0.570208 0)
(0.990057 -0.577013 0)
(1.01111 -0.556709 0)
(1.00512 -0.563236 0)
(1.02077 -0.546926 -2.44848e-24)
(1.01628 -0.551134 0)
(1.02798 -0.54398 0)
(1.02463 -0.544476 0)
(1.03338 -0.54803 0)
(1.03084 -0.54537 0)
(1.03777 -0.551996 0)
(1.03557 -0.550822 0)
(1.04168 -0.541162 1.98171e-26)
(1.03949 -0.549469 0)
(1.04493 -0.499681 -6.32411e-27)
(1.04262 -0.524786 0)
(1.04567 -0.417309 -9.93592e-23)
(1.04451 -0.463107 0)
(1.04355 -0.294961 -3.66826e-22)
(1.04424 -0.360231 -2.78572e-21)
(1.04154 -0.14188 8.15276e-22)
(1.04247 -0.221178 3.78938e-22)
(1.04048 0.0291394 -8.72718e-22)
(1.04038 -0.0571232 -1.67561e-21)
(1.04034 0.115756 8.86327e-22)
(0.951339 0.27905 -1.00473e-21)
(0.978843 0.281015 0)
(0.904018 0.270695 1.90147e-21)
(0.927049 0.275305 -4.01345e-22)
(0.87699 -0.0468931 8.00987e-23)
(0.876264 0.0330964 0)
(0.885106 -0.202809 1.34438e-22)
(0.879883 -0.127111 -2.74712e-22)
(0.899746 -0.337843 9.703e-24)
(0.891733 -0.273956 1.59221e-22)
(0.918409 -0.438124 0)
(0.908746 -0.392785 0)
(0.938985 -0.499256 -4.43273e-25)
(0.928527 -0.473608 0)
(0.960184 -0.525143 -6.15181e-24)
(0.949608 -0.515889 0)
(0.980238 -0.530031 0)
(0.970477 -0.529063 0)
(0.997449 -0.530851 0)
(0.98927 -0.530086 0)
(1.01126 -0.537507 0)
(1.00476 -0.533205 0)
(1.02224 -0.551679 -5.06151e-24)
(1.01705 -0.543717 0)
(1.03092 -0.572183 0)
(1.02687 -0.561223 0)
(1.03701 -0.597206 0)
(1.03434 -0.584324 0)
(1.03942 -0.621877 0)
(1.03877 -0.610099 0)
(1.03644 -0.635285 0)
(1.03873 -0.630956 0)
(1.02642 -0.619415 -1.03448e-23)
(1.03237 -0.63236 0)
(1.00977 -0.552264 0)
(1.01875 -0.593522 0)
(0.989214 -0.420037 1.96629e-21)
(0.999854 -0.494165 0)
(0.967016 -0.227947 -2.74636e-24)
(0.977803 -0.33055 -2.027e-21)
(0.948286 -0.0028059 -5.61242e-22)
(0.957294 -0.117183 4.45209e-21)
(0.898882 0.215215 -4.12631e-21)
(0.936036 0.218452 0)
(0.941604 0.110376 -3.3995e-21)
(0.786886 0.221574 8.39398e-21)
(0.767369 0.222398 -4.37816e-21)
(0.810486 0.218648 3.79769e-21)
(0.866192 0.214081 0)
(0.883813 0.263957 -3.03179e-21)
(0.932173 0.318162 0)
(0.897125 0.314365 9.16632e-21)
(1.01188 0.355006 -8.23428e-22)
(1.04168 0.355636 1.20043e-21)
(1.07382 0.200608 3.9441e-21)
(0.78925 0.311519 0)
(0.770508 0.309775 -2.07967e-21)
(1.07304 0.281114 0)
(0.836986 0.215401 0)
(0.750511 0.12973 3.12252e-21)
(0.754622 0.303691 2.13728e-21)
(0.750198 0.220694 -2.4221e-21)
(0.76282 -0.0613706 -4.84495e-22)
(0.75499 0.0347781 1.50303e-21)
(0.789222 -0.242792 -2.01532e-21)
(0.77436 -0.15436 3.19275e-22)
(0.828549 -0.392241 -4.24703e-22)
(0.807783 -0.323217 0)
(0.870728 -0.493717 -4.24489e-25)
(0.849771 -0.448712 2.76502e-22)
(0.911386 -0.5507 0)
(0.89144 -0.527456 0)
(0.946298 -0.571974 0)
(0.929797 -0.564907 0)
(0.97364 -0.57174 0)
(0.960862 -0.573704 0)
(0.994569 -0.56193 0)
(0.984804 -0.567449 0)
(1.01075 -0.550394 2.26022e-24)
(1.00315 -0.55603 0)
(1.02367 -0.541981 2.44848e-24)
(1.01754 -0.545559 0)
(1.03436 -0.540009 0)
(1.02924 -0.540061 0)
(1.04367 -0.544621 0)
(1.03911 -0.541724 0)
(1.05247 -0.548804 0)
(1.04802 -0.54752 0)
(1.0611 -0.538205 7.06823e-26)
(1.05662 -0.546311 0)
(1.06887 -0.497202 -6.70229e-26)
(1.06478 -0.522046 0)
(1.0744 -0.416047 -5.33105e-24)
(1.07169 -0.46152 0)
(1.07703 -0.29497 -1.21499e-23)
(1.07598 -0.360014 0)
(1.07725 -0.142052 -8.40346e-22)
(1.07739 -0.221783 0)
(1.0758 0.0284301 -8.7873e-22)
(1.07605 -0.0579119 1.72322e-21)
(1.0739 0.114894 -1.32723e-21)
(0.955043 0.348471 2.18719e-22)
(0.982085 0.351953 7.98565e-22)
(0.910022 0.337972 2.64499e-21)
(0.931556 0.343944 3.60843e-22)
(0.857567 0.110706 -3.11227e-21)
(0.866788 0.255954 2.31293e-21)
(0.860966 0.18562 -3.75391e-22)
(0.856758 -0.044635 8.28909e-25)
(0.856133 0.0339331 6.30337e-22)
(0.864915 -0.197007 -6.17721e-22)
(0.859738 -0.122657 0)
(0.880859 -0.328799 -8.33176e-24)
(0.872112 -0.266279 0)
(0.901588 -0.427553 0)
(0.890762 -0.382789 0)
(0.925214 -0.487847 -4.98927e-25)
(0.913151 -0.462499 0)
(0.949916 -0.513815 6.15181e-24)
(0.937563 -0.50439 0)
(0.973502 -0.519785 0)
(0.961995 -0.518162 0)
(0.994051 -0.522287 0)
(0.984227 -0.520652 0)
(1.01111 -0.530514 0)
(1.00298 -0.525475 0)
(1.02549 -0.54586 5.06151e-24)
(1.01858 -0.537351 0)
(1.0379 -0.567429 0)
(1.03193 -0.555922 0)
(1.04824 -0.593827 0)
(1.04337 -0.580193 0)
(1.0556 -0.620563 0)
(1.05238 -0.607645 0)
(1.0583 -0.636966 0)
(1.05767 -0.631026 0)
(1.05438 -0.624678 1.05339e-23)
(1.05726 -0.635809 0)
(1.04312 -0.56097 0)
(1.04963 -0.600586 0)
(1.02635 -0.429576 -1.8806e-25)
(1.03519 -0.504007 0)
(1.00754 -0.236572 0)
(1.01703 -0.339295 0)
(0.989342 -0.00699757 1.15405e-21)
(0.998188 -0.123878 0)
(0.974789 0.220413 -7.61118e-21)
(0.981602 0.109361 5.70853e-22)
(0.92972 0.407528 -7.70647e-21)
(0.964939 0.411711 8.37197e-21)
(0.969271 0.321812 -9.15478e-23)
(0.890916 0.3295 -2.23256e-22)
(0.777205 0.384333 0)
(0.762962 0.375369 -5.45443e-23)
(0.81191 0.309903 -3.74345e-21)
(0.865246 0.310337 -1.9588e-21)
(1.07256 0.354731 -3.22249e-21)
(0.961993 0.488897 1.1469e-22)
(1.0019 0.412105 7.47875e-21)
(0.995973 0.490188 -1.47911e-20)
(0.795215 0.389728 -3.3747e-21)
(0.896193 0.402947 -3.9168e-21)
(0.928887 0.484861 7.45687e-21)
(0.788318 0.446001 0)
(0.853023 0.248246 -2.16832e-21)
(0.875002 0.319713 -4.77987e-22)
(0.862236 0.309618 -2.16865e-21)
(0.775586 0.434948 2.46272e-21)
(0.836977 0.309684 1.838e-21)
(0.741904 0.29751 1.12063e-21)
(0.765888 0.42312 0)
(0.751808 0.366536 -3.47403e-21)
(0.73595 0.131292 5.97162e-22)
(0.736592 0.218208 -6.03555e-22)
(0.747461 -0.0516591 6.37232e-22)
(0.739741 0.0404249 -1.29448e-21)
(0.774426 -0.226252 0)
(0.759201 -0.141265 0)
(0.81376 -0.371061 0)
(0.792897 -0.303637 0)
(0.857633 -0.472098 -6.86527e-24)
(0.835642 -0.427065 0)
(0.900297 -0.531006 0)
(0.879346 -0.50649 0)
(0.937729 -0.555775 0)
(0.919878 -0.54688 0)
(0.968019 -0.559054 0)
(0.953748 -0.559321 0)
(0.991959 -0.552045 0)
(0.980689 -0.556271 0)
(1.01114 -0.542464 -2.26022e-24)
(1.00204 -0.54722 0)
(1.02713 -0.535344 0)
(1.01946 -0.538342 0)
(1.04113 -0.534164 0)
(1.03431 -0.533877 0)
(1.05419 -0.53908 0)
(1.04769 -0.536083 0)
(1.06725 -0.543249 0)
(1.06063 -0.541975 0)
(1.0805 -0.532782 1.15089e-25)
(1.07378 -0.540773 0)
(1.09296 -0.49247 -1.1942e-25)
(1.08679 -0.516995 0)
(1.10307 -0.41288 5.33021e-24)
(1.09835 -0.457712 0)
(1.10957 -0.29365 0)
(1.10678 -0.357868 0)
(1.11215 -0.142326 0)
(1.11119 -0.221247 0)
(1.11111 0.0272286 1.74358e-21)
(1.11132 -0.0584376 0)
(1.10725 0.198272 -4.31255e-21)
(1.10803 0.114046 8.54135e-22)
(1.10358 0.352206 6.5156e-21)
(1.10481 0.278608 -2.02484e-22)
(1.0146 0.418137 -7.64106e-22)
(1.07282 0.418425 7.28747e-22)
(1.04328 0.419333 0)
(0.960373 0.409915 0)
(0.98634 0.41474 0)
(0.917731 0.396106 -3.79941e-22)
(0.937804 0.40376 1.28566e-21)
(0.885385 0.375776 1.41731e-21)
(0.900094 0.386486 -2.30028e-21)
(0.841663 0.108356 -8.40201e-24)
(0.84618 0.180516 -2.50974e-21)
(0.840047 -0.0430153 8.70636e-25)
(0.839646 0.033491 0)
(0.848282 -0.190811 -1.71444e-23)
(0.84301 -0.118478 0)
(0.864853 -0.319167 7.52033e-25)
(0.855665 -0.258344 0)
(0.887286 -0.415841 0)
(0.875487 -0.371996 0)
(0.913487 -0.474988 -5.41854e-25)
(0.900045 -0.450099 0)
(0.941287 -0.500874 0)
(0.927351 -0.491339 0)
(0.968032 -0.507942 0)
(0.95496 -0.505638 0)
(0.991593 -0.512188 0)
(0.980279 -0.509657 0)
(1.01166 -0.521955 0)
(1.00201 -0.516209 0)
(1.02927 -0.538345 0)
(1.02071 -0.529365 0)
(1.04528 -0.560753 -5.04368e-24)
(1.03745 -0.548826 0)
(1.0598 -0.588188 0)
(1.05275 -0.573987 0)
(1.07215 -0.616588 -6.84046e-24)
(1.06633 -0.60273 0)
(1.08068 -0.635691 0)
(1.07703 -0.628256 0)
(1.08312 -0.627036 -1.05339e-23)
(1.0828 -0.636278 0)
(1.07782 -0.5669 0)
(1.08148 -0.60481 0)
(1.06537 -0.43806 1.57522e-26)
(1.07233 -0.511419 0)
(1.04907 -0.244376 0)
(1.05748 -0.348014 0)
(1.03164 -0.0135145 -3.44396e-25)
(1.04038 -0.13123 0)
(1.01564 0.216583 -3.26597e-21)
(1.02324 0.104342 -1.70702e-21)
(1.00826 0.320194 2.71468e-21)
(0.95982 0.551254 6.48363e-21)
(0.991018 0.552936 7.47019e-21)
(1.10196 0.416151 0)
(0.791657 0.480207 -6.28785e-21)
(0.783204 0.46415 2.21906e-21)
(0.816049 0.392807 3.09353e-21)
(0.866045 0.398489 9.36611e-22)
(0.87349 0.363741 -1.86381e-21)
(0.804514 0.454911 0)
(0.897731 0.479422 0)
(0.802732 0.494073 -2.59259e-21)
(0.929496 0.547021 0)
(0.986885 0.599658 0)
(0.958955 0.597132 -6.54658e-21)
(0.811182 0.510031 7.04863e-21)
(1.13427 0.347909 -1.23967e-20)
(1.13024 0.412212 3.57684e-21)
(0.804734 0.491883 7.14164e-23)
(0.839296 0.395346 7.22532e-22)
(0.758303 0.407244 -1.64009e-21)
(0.800168 0.471343 -6.8491e-22)
(0.777713 0.445981 1.68209e-21)
(0.732238 0.290847 -2.70966e-23)
(0.743115 0.355495 -4.72433e-22)
(0.724741 0.132747 -3.67567e-24)
(0.726129 0.215522 4.89011e-22)
(0.735896 -0.0420189 0)
(0.728191 0.0461369 0)
(0.762907 -0.209464 0)
(0.747617 -0.128043 0)
(0.802208 -0.349454 0)
(0.781333 -0.283887 0)
(0.847186 -0.449808 5.99508e-24)
(0.824481 -0.404792 0)
(0.891439 -0.510333 0)
(0.869678 -0.484736 0)
(0.930911 -0.538275 0)
(0.91196 -0.52769 0)
(0.963714 -0.544931 0)
(0.94815 -0.543549 0)
(0.990343 -0.540697 -1.8925e-24)
(0.977717 -0.543636 0)
(1.01228 -0.533063 1.91198e-24)
(1.00179 -0.536945 0)
(1.03112 -0.527177 0)
(1.022 -0.529635 0)
(1.0482 -0.526631 0)
(1.0398 -0.526097 0)
(1.06479 -0.531619 0)
(1.05647 -0.528646 0)
(1.0819 -0.535547 0)
(1.07322 -0.534402 0)
(1.09959 -0.525091 1.55424e-25)
(1.09068 -0.53303 0)
(1.11662 -0.48557 -1.68438e-25)
(1.10827 -0.50966 0)
(1.13109 -0.407687 -5.02408e-24)
(1.1243 -0.451639 0)
(1.14126 -0.290709 0)
(1.13677 -0.353776 0)
(1.14618 -0.141851 0)
(1.14429 -0.219523 0)
(1.14562 0.0259152 -1.30858e-23)
(1.14622 -0.0592406 0)
(1.14076 0.195177 -5.06105e-23)
(1.14251 0.112116 0)
(1.13642 0.274841 -1.53506e-21)
(1.07153 0.471884 -7.23412e-22)
(1.12631 0.465532 6.11807e-22)
(1.09908 0.469608 0)
(1.01728 0.470792 0)
(1.04408 0.472142 -6.65551e-22)
(0.96683 0.461293 0)
(0.991122 0.467141 0)
(0.92687 0.444861 1.70221e-21)
(0.945561 0.453904 0)
(0.897315 0.422333 2.18054e-21)
(0.910788 0.434304 -1.26894e-21)
(0.886403 0.409266 -4.18419e-22)
(0.842204 0.239825 -2.49488e-22)
(0.864416 0.350942 1.92877e-22)
(0.85233 0.298829 1.78321e-21)
(0.829313 0.105321 8.87558e-25)
(0.834483 0.174764 2.46986e-22)
(0.826772 -0.0414724 8.89426e-25)
(0.826702 0.0324119 0)
(0.834799 -0.184445 8.4896e-25)
(0.829559 -0.114392 0)
(0.851775 -0.309046 7.72811e-25)
(0.842312 -0.249902 0)
(0.875503 -0.403137 0)
(0.862932 -0.360462 0)
(0.903873 -0.460758 -5.71783e-25)
(0.889256 -0.436489 0)
(0.934351 -0.486434 -4.81752e-24)
(0.919045 -0.476822 0)
(0.963833 -0.494651 0)
(0.949405 -0.491631 0)
(0.990047 -0.500673 0)
(0.977411 -0.497244 0)
(1.01286 -0.511901 0)
(1.00181 -0.5055 0)
(1.03349 -0.529169 -4.34796e-24)
(1.02337 -0.519809 0)
(1.05295 -0.552171 5.04368e-24)
(1.04333 -0.539959 0)
(1.07152 -0.580281 0)
(1.06235 -0.565707 0)
(1.08879 -0.609888 6.84045e-24)
(1.08039 -0.595324 0)
(1.10319 -0.631272 0)
(1.09649 -0.622535 0)
(1.11216 -0.626163 -1.01662e-23)
(1.10854 -0.633492 0)
(1.11316 -0.570148 0)
(1.11376 -0.606005 0)
(1.10563 -0.444688 3.01463e-23)
(1.11038 -0.51652 0)
(1.09192 -0.25283 0)
(1.09932 -0.355781 0)
(1.07513 -0.021937 1.73426e-23)
(1.0838 -0.139918 0)
(1.05672 0.210069 -1.02255e-21)
(1.06599 0.0961444 -1.1077e-21)
(1.03846 0.408738 -3.80671e-21)
(1.04721 0.315447 6.2448e-21)
(1.02162 0.55175 -6.90749e-21)
(1.02981 0.488217 6.86851e-21)
(0.983717 0.629746 -4.88514e-21)
(1.00856 0.627233 0)
(1.01418 0.597879 0)
(0.826506 0.50829 3.90328e-21)
(0.822684 0.485645 -2.15147e-21)
(0.823197 0.462187 -3.2164e-21)
(0.869386 0.474247 0)
(1.00326 0.642698 0)
(0.982048 0.64497 5.17267e-21)
(0.816728 0.506446 -7.78414e-24)
(0.900837 0.541388 7.60233e-22)
(0.820239 0.527017 -2.10648e-21)
(0.931515 0.592979 9.492e-23)
(1.12101 0.506935 -1.90843e-21)
(1.15207 0.45931 -1.70716e-22)
(1.14536 0.500684 0)
(0.831797 0.528195 -1.92599e-21)
(0.959045 0.626798 -3.45279e-22)
(0.850166 0.514215 1.36153e-21)
(0.878103 0.395368 -1.8008e-22)
(0.847968 0.491804 0)
(0.844507 0.468698 6.19088e-23)
(0.79751 0.448413 -8.30277e-22)
(0.847682 0.4682 0)
(0.821887 0.461834 1.57199e-21)
(0.754056 0.391107 3.34296e-22)
(0.774438 0.426199 -3.4158e-22)
(0.725727 0.282431 0)
(0.737512 0.34279 0)
(0.717226 0.133699 3.63577e-24)
(0.719042 0.211954 0)
(0.727644 -0.0324791 3.08673e-24)
(0.720207 0.0512628 0)
(0.754476 -0.192554 0)
(0.739228 -0.114576 0)
(0.793678 -0.327807 0)
(0.772849 -0.264178 0)
(0.839169 -0.426977 -4.32034e-25)
(0.816089 -0.382182 0)
(0.884566 -0.488845 0)
(0.862181 -0.462305 0)
(0.925701 -0.519706 0)
(0.905846 -0.507548 0)
(0.960645 -0.529586 0)
(0.943968 -0.526618 0)
(0.989662 -0.528061 1.8925e-24)
(0.975823 -0.529737 0)
(1.0141 -0.522342 -1.91198e-24)
(1.00235 -0.525366 0)
(1.03556 -0.517616 -1.83962e-24)
(1.02511 -0.519581 0)
(1.0555 -0.51754 0)
(1.04563 -0.516856 0)
(1.07535 -0.52236 0)
(1.06535 -0.51954 0)
(1.0962 -0.525805 0)
(1.08561 -0.524909 0)
(1.11801 -0.515208 1.92316e-25)
(1.10703 -0.52315 0)
(1.13934 -0.476498 -2.13587e-25)
(1.12887 -0.500077 0)
(1.15791 -0.400518 5.02408e-24)
(1.14912 -0.44341 0)
(1.17154 -0.286251 1.08926e-23)
(1.16543 -0.347891 0)
(1.17879 -0.140523 0)
(1.17596 -0.216612 0)
(1.1791 0.0241531 1.21735e-23)
(1.17961 -0.0595388 0)
(1.17333 0.191154 -7.74421e-22)
(1.17622 0.10892 0)
(1.16402 0.342051 8.95663e-21)
(1.16779 0.270274 1.95106e-21)
(1.15794 0.405941 -2.70917e-21)
(1.07056 0.513692 0)
(1.09593 0.511335 0)
(1.02019 0.512544 0)
(1.045 0.514154 6.60197e-22)
(0.973983 0.502186 0)
(0.996309 0.508591 0)
(0.937182 0.484122 -7.97702e-22)
(0.954266 0.493867 0)
(0.910223 0.45972 -6.95692e-22)
(0.922498 0.472607 6.57133e-22)
(0.857924 0.337894 3.1784e-21)
(0.872347 0.380824 -1.57914e-21)
(0.893055 0.431292 1.49459e-21)
(0.900537 0.446137 7.15442e-22)
(0.834297 0.231043 -6.24591e-24)
(0.84525 0.287905 -9.92811e-22)
(0.820197 0.10114 1.39239e-23)
(0.825981 0.168405 0)
(0.816819 -0.0401675 8.88553e-25)
(0.817089 0.0309388 0)
(0.824403 -0.178116 8.51295e-25)
(0.819323 -0.11047 0)
(0.841509 -0.298613 6.8074e-24)
(0.831894 -0.241383 0)
(0.866201 -0.389664 0)
(0.853038 -0.348381 0)
(0.896363 -0.445406 -5.8985e-25)
(0.880763 -0.42191 0)
(0.929097 -0.47074 4.81752e-24)
(0.912636 -0.461089 0)
(0.960885 -0.480127 -3.9661e-24)
(0.945314 -0.476374 0)
(0.989378 -0.487915 0)
(0.975595 -0.483606 0)
(1.01465 -0.500487 0)
(1.00234 -0.493502 0)
(1.03807 -0.518453 3.28033e-25)
(1.02651 -0.508811 0)
(1.06074 -0.541791 0)
(1.04945 -0.529436 0)
(1.08318 -0.570196 0)
(1.07198 -0.555456 0)
(1.1052 -0.600527 0)
(1.0943 -0.585508 0)
(1.12539 -0.623726 0)
(1.11567 -0.613906 0)
(1.14092 -0.621962 1.01661e-23)
(1.13396 -0.627427 0)
(1.14839 -0.570412 0)
(1.14585 -0.603968 0)
(1.14593 -0.449101 -2.9512e-23)
(1.1484 -0.519003 0)
(1.13489 -0.259993 0)
(1.1413 -0.361741 0)
(1.11829 -0.0308431 -1.73458e-23)
(1.12713 -0.148024 0)
(1.09777 0.200283 0)
(1.10847 0.0867692 0)
(1.07511 0.39947 -4.91783e-22)
(1.08645 0.305587 4.9097e-22)
(1.05239 0.543108 1.263e-21)
(1.06352 0.479275 -1.61989e-21)
(1.03292 0.62062 -2.68988e-21)
(1.04203 0.590137 2.70958e-21)
(0.999031 0.646204 -4.0307e-21)
(1.01702 0.640087 3.81184e-21)
(1.02392 0.636214 0)
(0.872701 0.494292 2.37589e-21)
(0.873141 0.472323 0)
(0.980662 0.648751 0)
(0.995427 0.642861 3.78106e-21)
(1.01045 0.636917 -3.37723e-21)
(0.833238 0.517443 1.33808e-21)
(0.875001 0.535177 0)
(0.831826 0.542493 3.58316e-21)
(0.905858 0.586909 -7.53913e-22)
(1.11569 0.536671 -1.63727e-21)
(1.13822 0.529822 2.23879e-21)
(0.839106 0.547019 0)
(0.934957 0.622761 0)
(0.854017 0.535425 -1.70861e-21)
(0.96044 0.642082 3.04254e-22)
(0.87376 0.515992 -2.52119e-21)
(0.887785 0.415963 -1.50998e-21)
(0.897251 0.476542 2.54408e-21)
(0.896162 0.497196 5.01397e-23)
(0.980058 0.64489 3.8499e-21)
(0.992113 0.635944 3.44477e-21)
(1.00468 0.630011 -3.03947e-21)
(0.918921 0.483187 -9.4458e-22)
(0.899376 0.455978 -7.7899e-22)
(1.1773 0.451589 -5.19887e-21)
(1.16881 0.492212 2.99576e-22)
(0.921406 0.463904 6.61335e-22)
(0.852441 0.527397 7.43757e-22)
(0.84961 0.444262 -7.38628e-22)
(0.874996 0.450149 1.06395e-21)
(0.797975 0.424517 2.61832e-22)
(0.823093 0.437108 -9.6739e-22)
(0.752654 0.372636 0)
(0.773802 0.404087 0)
(0.722633 0.272927 2.25294e-24)
(0.735259 0.328715 0)
(0.712775 0.133917 -2.46787e-24)
(0.715168 0.207147 0)
(0.722434 -0.0230868 -3.08673e-24)
(0.715307 0.0562217 0)
(0.748882 -0.175776 0)
(0.733794 -0.101218 0)
(0.787804 -0.306243 0)
(0.767115 -0.244629 0)
(0.833359 -0.403831 -4.22104e-25)
(0.810163 -0.359446 0)
(0.879474 -0.466752 0)
(0.856658 -0.43941 0)
(0.921915 -0.500265 0)
(0.901333 -0.486661 0)
(0.958669 -0.513185 0)
(0.941037 -0.508711 0)
(0.989795 -0.514274 0)
(0.974875 -0.514726 0)
(1.01651 -0.510413 0)
(1.00361 -0.512606 0)
(1.04035 -0.506765 1.83962e-24)
(1.02869 -0.508286 0)