/*--------------------------------*- C++ -*----------------------------------*\
  =========                 |
  \\      /  F ield         | OpenFOAM: The Open Source CFD Toolbox
   \\    /   O peration     | Website:  https://openfoam.org
    \\  /    A nd           | Version:  10
     \\/     M anipulation  |
\*---------------------------------------------------------------------------*/
FoamFile
{
    format      ascii;
    class       surfaceScalarField;
    location    "29";
    object      phi;
}
// * * * * * * * * * * * * * * * * * * * * * * * * * * * * * * * * * * * * * //

dimensions      [0 3 -1 0 0 0 0];

internalField   nonuniform List<scalar> 
57492
(
-0.017505
-0.000876894
0.00371733
0.0146646
0.0166753
-0.0116442
-0.0225361
-0.00280214
0.00909366
0.0286015
-0.0348931
0.0990246
0.0723165
-0.0164258
-0.154915
-0.209929
0.0849747
0.223979
0.0519023
-0.0509014
-0.0264278
0.0254269
-0.0950279
0.0231117
-0.0139608
0.085877
0.0169802
-0.0601058
0.0299469
-0.102745
0.0979836
-0.0251855
0.0259444
0.0942421
-0.0902396
0.0357422
0.0115479
-0.028497
-0.0187931
0.00626954
0.0361557
-0.00668299
-0.0126268
0.0148417
0.00405464
0.00310555
-0.00418445
0.101653
-0.086747
-0.0377784
0.0228726
0.00289235
0.0768153
0.0219452
-0.00516724
0.0161564
0.0877426
-0.0987317
-0.0148361
0.0866087
-0.0769398
0.0154976
-0.031995
0.0164974
-0.089679
0.060689
0.0444877
-0.118744
0.0147011
0.0870525
0.01699
0.0206433
-0.120186
-0.0192013
0.0110707
0.00775446
0.0154977
-0.0343229
0.0106602
-0.00179676
0.00220726
-0.0990336
0.120037
-0.00306633
-0.0179369
-0.153933
0.0883183
-0.0334185
-0.0651565
0.0218379
0.0343439
0.00897465
-0.0478583
-0.0203244
0.00302625
-0.0259475
-0.0698887
0.0861245
0.00971174
-0.0316416
0.0105972
-0.00490311
0.0592783
-0.0375672
-0.0361653
0.0144542
-0.0474068
0.0395166
0.0671685
-0.0717117
-0.124162
0.0735647
0.122309
-0.125649
-0.0399972
0.0939346
-0.063184
-0.0112004
0.0743843
-0.0177922
-0.0453918
-0.0776783
0.0968442
-0.0369581
0.0165188
-0.0508758
-0.0433212
-0.0488789
0.0719907
-0.0288731
-0.11313
0.0549223
0.058208
-0.204462
0.0913314
0.168351
-0.0216093
0.00603781
-0.15278
0.124755
-0.00383345
0.04743
-0.0162731
0.156145
-0.161481
0.0944859
0.0150632
-0.0925689
0.0923944
-0.0118693
0.103218
-0.0358634
-0.0756807
0.00832618
0.116587
0.00169371
0.0780638
-0.0432457
0.0575764
0.0278679
0.136073
-0.102862
-0.0142799
0.0132978
0.103844
-0.106159
-0.0070756
0.010372
0.0209174
0.0999175
-0.0982337
-0.0226013
0.0133402
-0.0951677
-0.0638231
0.121229
0.100775
-0.158181
0.0215079
0.132388
-0.217719
-0.00381855
0.000872459
0.00176403
0.00118206
0.0121857
-0.00116249
0.000384991
0.00451898
0.00728172
-6.77444e-05
0.00132519
0.00508761
-0.00332358
-0.00106202
0.00614963
0.244141
0.0967951
-0.16439
-0.176546
0.0893692
-0.0645301
0.219301
-0.210792
0.0843947
0.215766
0.0455619
-0.159558
0.0266811
-0.0781255
0.0628839
-0.0114394
0.0674417
-0.0789125
0.0381519
0.00375653
-0.00485569
0.000222272
0.00594649
0.00152737
0.0163302
0.0042809
-0.0859117
0.154606
0.0678996
-0.136594
0.0917221
-0.110192
0.0518957
0.143673
-0.0409625
0.354276
-0.0574742
-0.0719346
-0.224867
0.0594053
0.191422
0.103449
0.0342629
-0.146101
0.171243
0.00551733
-0.00831948
0.014611
0.0494716
0.0861721
-0.0394483
-0.0961954
0.0694218
0.00865135
0.0177716
-0.00654374
-0.0112278
0.0183965
-0.000624967
-0.196332
0.0848319
-0.0690232
0.180523
-0.160874
-0.104179
0.0687208
-0.0900293
0.0960588
-0.166903
0.112297
-0.00128433
-0.0547846
-0.0562285
-0.0502679
0.125233
0.0373321
-0.0630364
-0.00757064
0.0203392
-0.0548498
-0.00947097
-0.0206955
-0.0889389
0.0966882
0.00261132
-0.0199677
-0.0793318
0.0112845
0.0787216
0.00668213
-0.0389116
-0.00339765
0.0535937
-0.0328517
-0.00344861
-0.050823
-0.00199639
-0.0590939
0.0383984
0.00600241
-0.0650963
0.0106828
0.00771374
0.117921
0.0764381
-0.00869167
0.0422019
-0.134209
-0.0154425
0.095709
-0.0672193
-0.0130472
-0.0230097
0.100886
-0.093319
0.0706692
0.0448705
-0.0157412
-0.0997985
-0.0195529
0.00725778
0.0829643
0.0918018
-0.0664842
-0.0333414
-0.0729533
0.0201025
0.0861923
-0.0361925
0.0846567
-0.0818056
0.00127534
-0.110421
0.00417468
0.00653769
0.000742535
0.0264804
-0.00664727
-0.00315778
-0.0189285
-0.00209502
0.0475039
-0.0219645
-0.00860824
-0.0117188
0.0243599
0.00513301
-0.017774
0.0456308
-0.0422787
-0.0150709
-0.0250414
0.0551462
0.0155261
-0.0132061
0.0125245
-0.174045
0.0829278
0.175949
0.17614
-0.0719607
-0.208358
-0.0868403
0.0889346
-0.00727539
-0.0535859
-0.00902742
-0.0393313
0.000414373
-0.00143012
-0.0134548
0.00897649
0.00590844
-0.0113058
0.00324145
0.00663421
-0.0173699
-0.00739072
-0.0162477
-0.0270726
0.00398897
-0.0434973
-0.0263364
-0.0485228
-0.0510778
0.061969
0.0376316
0.00337068
0.0220329
-0.0739264
-0.0681398
0.0204327
-0.125946
0.0452201
-0.00895323
-0.121206
0.00863821
-0.0133781
-0.00510291
-0.0858835
0.0790835
0.011903
-0.000360993
-0.088968
0.0842261
-0.00957021
-0.280775
-0.0726697
0.0898614
0.0852381
-0.112688
0.105249
-0.019605
-0.0119679
0.00857024
-0.0125233
0.000555373
0.0234794
-0.00532799
0.16564
-0.100536
-0.0815125
0.0164083
0.14372
0.00564682
0.14942
0.024667
-0.152579
0.068612
0.11737
-0.0365619
0.0280038
-0.0792299
0.119838
0.00104961
-0.0135729
0.0334798
-0.116416
-0.112778
0.0784436
0.142848
0.0595853
-0.00333363
-0.0621822
0.00593052
0.0189802
-0.00680178
-0.0761196
0.0138655
0.101771
0.010314
-0.0674534
-0.00928805
-0.00187945
0.0228375
-0.0171853
-0.00921507
0.00356292
-0.00231605
-5.95711e-05
0.0252131
-0.0120052
0.0252044
-0.0155152
-0.0902178
0.140187
-0.0392861
0.18899
-0.191844
-0.087363
-0.00284789
-0.0953067
0.11202
-0.201815
-0.0166485
-0.151027
-0.0748939
0.0241063
0.0834275
0.064298
-0.133024
0.0481662
0.126572
-0.0913106
0.0470113
-0.0833633
0.0491654
-0.0128134
0.0510608
-0.0802664
0.0762169
0.116677
0.0346734
0.106012
-0.00460462
-0.105911
0.00450421
0.116749
-0.0134424
0.00270539
0.123872
-0.0167714
-0.0016473
-0.105454
0.088636
-0.0274491
0.0626853
0.102438
-0.0233336
0.0174088
-0.0965136
0.0197505
0.1043
-0.0216118
-0.093753
-0.0299161
0.100335
0.0158218
-0.0894723
-0.0310678
0.0873439
-0.0421864
-0.0805802
0.0363004
0.0864662
-0.0444054
-0.0823775
0.0845965
0.0410977
0.0786745
-0.0234308
-0.0963415
0.0777936
-0.0811013
-0.0475054
0.0470621
0.0782369
-0.0378474
0.0690165
-0.10201
0.0902211
-0.0116418
-0.132258
0.00855573
0.133634
-0.00993228
0.0325857
-0.0862884
0.0547626
-0.0679068
0.0994326
-0.0551587
0.0649012
-0.096031
5.35964e-05
-0.00228595
-0.0197321
-0.0664633
-0.096371
0.0583219
0.00959255
-0.00965212
0.000216002
0.00937655
-0.01311
-0.112996
0.0828599
-0.0940157
-0.0114321
0.0923377
0.00827749
-0.0982394
-0.00405374
-0.0248302
0.0487902
0.0243623
-0.0483222
0.0588081
-0.00522227
-0.0784161
0.0473296
0.0602687
-0.000406279
0.00314688
0.00379709
0.00648588
-0.00689216
0.00963276
0.000383132
0.00142344
-0.00187431
0.000574948
-0.000191816
0.00199838
0.0058624
0.000971283
0.0038265
-0.00383463
0.00969703
-0.00286335
0.00845792
-0.00125038
-0.0204136
-0.00362021
0.0120781
-0.0048706
0.02761
0.0700046
-0.0903568
0.0313763
-0.0955492
0.0917829
0.0989352
0.00244566
-0.0353207
-0.0625316
0.0351286
0.0627237
-0.0137126
0.0652699
-0.086878
0.00953122
-0.0857755
0.089906
-0.0911323
0.0709853
-0.069759
0.0887479
0.0721802
-0.071022
0.070771
-0.0917192
-0.0701841
0.0889222
0.0697475
-0.0699219
0.0901265
0.0679795
-0.0691838
0.0625074
0.091914
-0.0642949
0.0977046
-0.0970546
0.0618574
0.0507441
0.0965949
-0.055425
0.0945809
0.0538678
-0.0936258
0.0645507
-0.0927224
0.0688442
-0.0923777
0.0718354
-0.0946716
0.0732792
-0.0929991
0.0690985
0.0432058
0.100255
-0.0468659
0.0900895
0.0476971
0.0705309
-0.091451
-0.070799
-0.0929639
0.0704956
0.069524
-0.0978879
-0.0630872
0.0378237
0.0997535
-0.0373223
0.0904623
0.037451
-0.0962049
0.072765
0.0990971
0.0266525
-0.0259961
0.014385
0.0987316
-0.0140195
0.0905797
0.0265351
0.0907953
0.0141694
0.068478
-0.097164
-0.0692019
-0.0971703
0.0694434
0.0016347
0.0984158
-0.00131898
0.0908724
0.0015576
0.0693082
-0.0969774
-0.0694949
-0.0963712
0.0685092
-0.0111437
0.0981521
0.0114075
0.0909482
-0.0112195
0.0692815
-0.0969315
-0.0693275
-0.0958483
0.0687586
-0.0236991
0.0982361
0.0236151
0.0910808
-0.0238317
0.0696528
-0.096399
-0.0701853
-0.0946879
0.0684924
-0.0352997
0.0981836
0.0353523
0.0909714
-0.0351903
0.0702572
-0.0959609
-0.0706953
-0.0937659
0.0693352
-0.0458481
0.0987133
0.0453183
0.0910082
-0.0458849
0.0712737
-0.0951818
-0.0720528
-0.0919934
0.0695012
-0.0545442
0.0988554
0.0544022
0.0905923
-0.0541283
0.0727188
-0.0911159
-0.0767846
-0.0887357
0.069461
-0.0619147
0.0997888
0.0609813
0.0905688
-0.0618913
0.0736234
-0.0909622
-0.0737771
-0.0856649
0.0705526
-0.0673481
0.100353
0.0667843
0.0896304
-0.0664097
0.0743492
-0.0849046
-0.0804067
-0.0806327
0.069317
-0.0678687
0.098257
0.0699644
0.0915047
-0.069743
0.0731083
-0.0824935
-0.0755194
-0.0771616
0.0696371
-0.0714821
0.0895042
0.0802349
0.0922534
-0.0722308
0.0713879
-0.0742548
-0.0796266
-0.0738954
0.0681217
-0.0769934
0.078873
0.0876246
0.0904928
-0.0752328
-0.0871195
0.0893832
-0.0777831
-0.0874528
-0.0739215
0.067623
-0.069054
-0.0781956
0.0633963
-0.0696687
-0.0870021
0.0894326
-0.0762077
-0.0780256
-0.085843
0.0861486
-0.0723584
-0.073195
-0.0862568
0.0861797
-0.0701082
-0.0708035
-0.0859246
0.0855124
-0.0690827
-0.0690724
-0.0850739
0.0913829
-0.0693961
-0.0687634
-0.0897634
0.0879982
-0.0684189
-0.0691795
-0.0892584
0.0875507
-0.0693143
-0.0710192
-0.0827806
0.0798353
-0.0662385
-0.0651517
-0.0770799
0.0762496
-0.0545947
-0.0615395
-0.0756642
0.0752597
-0.0369178
-0.0462805
-0.0749955
0.0749636
-0.0139876
-0.0257318
-0.0751235
0.0754844
0.0110465
-0.00147894
-0.076029
0.076751
0.0346302
0.0230706
-0.0775819
0.0784788
0.0535054
0.0444874
-0.0793611
0.0801904
0.0659549
0.0600989
-0.0792031
0.0835119
0.0759261
0.0709517
0.0848211
0.0775638
-0.0790447
0.0796848
0.0869844
-0.0775228
0.0889709
0.0943527
-0.0948763
-0.0692195
-0.0936948
0.0919737
-0.0735117
-0.0715729
0.096031
-0.097112
-0.0608102
-0.065255
0.09771
-0.0981543
-0.0454405
-0.0535304
0.098424
-0.098507
-0.0237487
-0.0349206
0.0984225
-0.0982099
0.00134497
-0.0113041
0.0978742
-0.0973671
0.026028
0.0138337
0.0967234
-0.0959268
0.0469006
0.0368073
0.0966819
-0.0962331
0.0614086
0.0546229
0.0971295
-0.0954659
0.0671806
0.0654471
0.0940208
-0.0925094
0.0717678
0.0703903
0.0927955
-0.0929928
0.0706929
0.0693846
0.0888779
-0.0879289
0.0684944
0.0686502
0.0869384
-0.0858164
0.0676366
0.0675186
0.084528
-0.0830171
0.0678243
0.067204
0.0812856
-0.0802734
0.0684488
0.0677697
0.0777076
-0.0760048
0.0676142
0.0679867
0.0718533
-0.0683556
0.0646239
0.0654857
-0.0640491
0.0590898
-0.0879057
-0.0686011
0.0847174
0.0797886
-0.0746477
0.0890986
0.0564045
-0.0578453
-0.0682278
0.0534249
-0.0610695
0.0595169
-0.0599732
-0.0874494
-0.076524
-0.0912949
0.0896068
-0.076095
0.0928704
-0.093794
-0.0676774
-0.072346
-0.0880479
0.0878554
-0.0760153
-0.0764667
-0.0877751
0.0875403
-0.0721236
-0.0731146
-0.0871559
0.0866142
-0.0695666
-0.0704191
-0.08593
0.0851011
-0.0682538
-0.0683882
-0.0841016
0.0828814
-0.0681759
-0.0677639
-0.0816851
0.0817348
-0.0684687
-0.0679832
-0.078608
0.0770183
-0.0677246
-0.0678923
-0.0777298
0.0748946
-0.0634032
-0.0658633
-0.0722257
0.0708802
-0.0532491
-0.0588706
-0.0698289
0.0690484
-0.0361372
-0.0452292
-0.0685734
0.0684165
-0.0138306
-0.0252569
-0.0685634
0.0690113
0.0105987
-0.00162586
-0.0697448
0.0707457
0.0336293
0.0223371
-0.0719368
0.0732601
0.0521821
0.0432963
-0.0746203
0.0759674
0.0646078
0.0587387
-0.0774374
0.0806713
0.0726922
0.0694817
0.0780345
-0.0786439
0.0875938
0.0762313
0.0865206
-0.0823378
0.085221
0.0769053
0.0758973
0.093487
-0.0958528
-0.0711459
0.0903382
-0.0714989
0.0752001
-0.0739681
0.0878666
0.0855272
0.0982706
-0.100201
-0.0672896
-0.0691551
0.101589
-0.102892
-0.0595066
-0.063867
0.104001
-0.10487
-0.0445711
-0.0524216
0.105479
-0.105804
-0.0234241
-0.0343121
0.105822
-0.105559
0.00108222
-0.011286
0.105074
-0.104323
0.0252768
0.0133492
0.103348
-0.102192
0.0457444
0.0358321
0.10087
-0.0994867
0.0600255
0.0533008
0.098097
-0.0984001
0.0674837
0.0640575
0.0964667
-0.0941341
0.0694351
0.0684569
0.093542
-0.0915225
0.0686733
0.0687926
0.0902838
-0.0889558
0.0671664
0.0674115
0.0875606
-0.0860696
0.0661455
0.0661235
0.0844156
-0.082546
0.0659547
0.0655501
0.080446
-0.0780727
0.0660755
0.0656698
0.0754801
-0.0726863
0.0648203
0.0653941
0.069767
-0.0647582
0.059615
0.0625665
0.0613828
-0.0573384
0.0493806
0.0557144
-0.0946482
-0.0591191
0.0435404
-0.0460255
-0.0585844
-0.0546832
0.0408852
-0.0482677
-0.0659857
0.0769542
0.0844981
0.0889227
-0.0725525
-0.0476059
0.0464457
-0.0862893
-0.0476354
-0.0946186
0.030656
-0.0332621
-0.0559783
0.0293571
-0.0533843
-0.078346
0.083102
-0.0800587
0.0738621
0.0835158
0.0765403
-0.0725563
0.0740647
0.0863582
-0.0700727
0.086439
-0.10027
0.101166
-0.0485308
-0.0369032
0.035766
-0.0934815
0.103641
0.018305
-0.00940695
-0.112539
-0.0335331
-0.100607
0.0990026
-0.0660733
-0.05856
-0.0970483
0.0940476
-0.0730942
-0.0703917
-0.0926249
0.0904387
-0.0738291
-0.075044
-0.0897906
0.0890265
-0.0713594
-0.0724665
-0.0881627
0.0871826
-0.0685864
-0.0695553
-0.0860852
0.0848366
-0.0670051
-0.0672909
-0.0834465
0.0818881
-0.0666175
-0.0663738
-0.0801713
0.0782591
-0.0665564
-0.0662664
-0.0762734
0.0740875
-0.0655388
-0.0659067
-0.071893
0.0698481
-0.0613583
-0.0636688
-0.0678644
0.0660801
-0.0514648
-0.056887
-0.0646346
0.0635393
-0.0350419
-0.0437837
-0.062861
0.0625714
-0.0135411
-0.0245786
-0.0626789
0.0632162
0.0100614
-0.00173331
-0.064124
0.065378
0.0323753
0.0214292
-0.0668939
0.0686045
0.0504715
0.0417805
-0.0703943
0.0722017
0.0628004
0.0569489
-0.0744538
0.0772122
0.0699339
0.0672295
0.0730507
0.0766703
-0.0743239
0.0852473
-0.0776688
0.0768339
0.0853331
0.0855221
0.085268
0.0969944
-0.100064
-0.0680767
-0.0938729
0.0897714
-0.068451
-0.0683773
0.102392
-0.104333
-0.0653488
-0.0668266
0.106572
-0.108418
-0.0576604
-0.0616278
0.109983
-0.111243
-0.0433107
-0.0508572
0.112146
-0.112681
-0.0228893
-0.0334092
0.112814
-0.112538
0.000806874
-0.0111531
0.111939
-0.110945
0.0242828
0.0127501
0.109656
-0.108117
0.0442054
0.0345425
0.106369
-0.104477
0.0581331
0.0515532
0.10255
-0.100586
0.065519
0.0621312
0.0987115
-0.0969228
0.0676464
0.0665829
0.0951515
-0.0934336
0.0669554
0.0670213
0.0917706
-0.0900807
0.0654765
0.0657485
0.0883351
-0.08649
0.0643005
0.064378
0.0844968
-0.0823001
0.063758
0.0635568
0.0798881
-0.0772328
0.0634202
0.0632578
0.0743797
-0.0713308
0.0617714
0.062541
0.0681673
-0.0649589
0.0564067
0.0594029
0.0604986
-0.0560088
0.0448908
0.0512541
0.0527041
-0.0511029
0.0277559
0.0375805
0.0170286
-0.0173756
-0.0530374
-0.0505598
0.0164856
0.0346792
-0.0852024
-0.0329301
-0.0663177
0.0763137
0.084036
0.0876497
-0.067951
0.0214932
-0.0966697
-0.0156908
-0.0576631
0.0219768
-0.0838392
0.109192
-0.00407875
0.00424889
-0.05073
-0.00410316
-0.053013
-0.0767546
0.112951
0.024072
-0.0675499
0.0151576
-0.0765968
-0.105619
0.109784
-0.0135721
0.00398601
0.00334668
-0.107763
0.105591
-0.046359
-0.031512
-0.103629
0.100421
-0.0628645
-0.0565986
-0.0981963
0.0967619
-0.0716598
-0.0681672
-0.0942954
0.0931194
-0.0726531
-0.0725775
-0.0918968
0.0906235
-0.0700861
-0.0712439
-0.0893041
0.0879054
-0.0671878
-0.0682359
-0.0864109
0.0847855
-0.0653797
-0.0657964
-0.0830257
0.081095
-0.0646867
-0.064614
-0.079
0.0767175
-0.0642739
-0.0641715
-0.0742849
0.0717189
-0.0629727
-0.0634741
-0.0691051
0.0665522
-0.0588054
-0.061055
-0.0641778
0.0620322
-0.0493192
-0.0545125
-0.0602498
0.05888
-0.033672
-0.0420013
-0.0580036
0.0576084
-0.0131458
-0.0237023
-0.0576708
0.0582809
0.00945135
-0.00179576
-0.0593321
0.0607939
0.0309135
0.0203779
-0.0625755
0.0646068
0.0484401
0.0399989
-0.0667572
0.0689707
0.060587
0.0547985
-0.0720535
0.0744371
0.0675503
0.0641466
-0.0767188
0.0793044
0.0712765
0.070769
-0.0816824
0.0849256
0.0730705
0.0741624
0.0762817
-0.0756484
0.0846998
-0.0771181
0.075635
0.0864087
0.0831996
0.0752419
-0.0734035
0.0834089
0.0851155
0.0724606
-0.0709422
0.0848398
0.0843252
0.0699772
-0.0684242
0.0860967
0.085474
0.093901
-0.0969308
-0.0654211
-0.0914475
0.0882243
-0.065201
-0.0654975
0.100107
-0.102957
-0.0652267
-0.065201
0.105969
-0.108616
-0.0627023
-0.0638146
0.111104
-0.11342
-0.0553438
-0.0591395
0.115413
-0.117054
-0.0416692
-0.0488646
0.118247
-0.118976
-0.0221609
-0.0322163
0.119205
-0.118944
0.000545126
-0.0109234
0.118215
-0.117036
0.0231039
0.0120214
0.115483
-0.113584
0.0423062
0.0329896
0.111445
-0.109121
0.0558094
0.0494138
0.106727
-0.104299
0.063091
0.0597375
0.101944
-0.0996641
0.0653668
0.0642272
0.0974838
-0.0953588
0.0648304
0.064841
0.0933143
-0.0912639
0.063426
0.063704
0.0891882
-0.0870176
0.0621298
0.0623023
0.0847289
-0.0822689
0.061298
0.0612681
0.0796372
-0.0767963
0.0605794
0.0606261
0.0737797
-0.0705675
0.0585592
0.0595244
0.0672363
-0.063843
0.0530134
0.0560717
0.0605788
-0.0575997
0.0419117
0.0479899
0.0538857
-0.0509412
0.0248114
0.0338665
0.049966
-0.0499505
0.00423336
0.0155104
-0.00801649
0.0093209
-0.0520344
-0.050633
-0.007334
0.0199689
-0.0836781
-0.0172537
-0.0647548
0.0092107
-0.0839036
-0.00202748
-0.0597388
0.0807194
-0.0799368
0.0722879
0.0837308
0.0726236
-0.0663842
0.0681125
0.0843684
-0.0634208
0.0852609
-0.00691214
-0.0821493
0.0111155
-0.0548075
-0.0849555
-0.0309167
-0.0966616
0.107697
0.0130367
-0.0201156
0.0219536
-0.0538724
-0.0183942
-0.0523544
-0.0933501
0.0118462
-0.0738817
-0.110852
0.111351
-0.014071
0.00083076
-0.111236
0.108104
-0.0432269
-0.0313971
-0.104524
0.102756
-0.0610966
-0.0530181
-0.100981
0.0992191
-0.0698977
-0.066393
-0.0974697
0.0957242
-0.0709077
-0.0708281
-0.0939879
0.0922409
-0.0683392
-0.0695076
-0.0904933
0.0887009
-0.0653954
-0.0664882
-0.0868475
0.0848799
-0.0634122
-0.063943
-0.0827922
0.0805489
-0.0624434
-0.0625263
-0.0781474
0.0755522
-0.0616787
-0.0617699
-0.0727986
0.0698885
-0.0600627
-0.0607205
-0.066928
0.0640016
-0.055879
-0.0580945
-0.0612695
0.0588081
-0.0468579
-0.0517804
-0.0567432
0.0551346
-0.0320634
-0.0399364
-0.0540819
0.0535759
-0.0126398
-0.0226496
-0.0536477
0.054287
0.00881206
-0.00186758
-0.0554396
0.0570594
0.0292937
0.0192254
-0.0590443
0.0613271
0.0461574
0.038014
-0.0637645
0.0662923
0.0580592
0.0523611
-0.0687955
0.0712627
0.0650831
0.0616434
-0.0754374
0.0770887
0.0696252
0.0665943
0.0713143
0.0754679
-0.0750509
0.0842828
-0.07398
0.0755211
0.0848676
0.0846875
0.0718761
-0.0711459
0.0826787
0.0819407
0.0698235
-0.0690216
0.0840379
0.0830028
0.0845649
0.096745
-0.10011
-0.0620566
-0.0933086
0.0887763
-0.0606687
-0.0620611
0.103103
-0.106053
-0.0622764
-0.0622074
0.109124
-0.112215
-0.0596109
-0.0607445
0.115122
-0.117822
-0.0526436
-0.0562323
0.120165
-0.122123
-0.0397116
-0.046522
0.123578
-0.124499
-0.0212397
-0.0307606
0.124832
-0.124591
0.000303682
-0.0105905
0.123758
-0.122435
0.021781
0.0111881
0.120669
-0.11847
0.0401077
0.0312234
0.115997
-0.113302
0.0531145
0.0469409
0.110518
-0.107692
0.0602653
0.0569531
0.104937
-0.102254
0.0626837
0.0614726
0.0996925
-0.0972136
0.0623515
0.0622791
0.0948241
-0.092444
0.0610459
0.0613146
0.0900726
-0.0876337
0.0596909
0.0599309
0.0851216
-0.0824811
0.0586575
0.058756
0.0797085
-0.0767518
0.0576226
0.0578536
0.0736286
-0.0703122
0.0552428
0.0564013
0.066884
-0.0634138
0.0495432
0.0526435
0.0600933
-0.0570835
0.0389018
0.0446694
0.0546283
-0.0528615
0.0230447
0.0314114
0.0508252
-0.0498512
0.00325928
0.0134741
0.0501271
-0.0514599
-0.0170614
-0.00705803
-0.0291433
0.031458
-0.054669
-0.0539503
-0.026653
0.00416785
-0.0786352
-0.00217972
-0.0646025
0.0745793
0.0846726
0.0861642
-0.0608087
-0.00925287
-0.0815628
-0.0422129
-0.121159
-0.030604
-0.0937583
0.0117737
-0.060397
0.0242193
-0.0570732
-0.133799
0.00953228
-0.0399388
0.0285972
-0.122457
-0.0481629
-0.112935
0.0337507
-0.0561652
-0.0391372
0.0412725
-0.0568043
-0.0358981
-0.0571894
-0.0718935
-0.107548
0.11185
0.00873459
0.11203
-0.124118
0.0216207
0.0163279
-0.114544
0.115252
-0.0147793
-0.00186302
-0.113562
0.111564
-0.0412293
-0.0297069
-0.109469
0.107311
-0.0589385
-0.0509225
-0.105077
0.102788
-0.0676081
-0.0641595
-0.100504
0.0982391
-0.0686422
-0.0685447
-0.0960267
0.0938485
-0.066161
-0.0672952
-0.0917141
0.0895721
-0.0632534
-0.0643538
-0.0874014
0.0851383
-0.0611491
-0.0617723
-0.0827754
0.0802631
-0.0599312
-0.0601634
-0.0776048
0.0747579
-0.0588318
-0.0591116
-0.0717509
0.0685853
-0.0568972
-0.0577134
-0.0653653
0.0621615
-0.0526751
-0.0548745
-0.059149
0.0564327
-0.0441415
-0.0487679
-0.0541409
0.0523363
-0.0302588
-0.0376447
-0.0511356
0.0505309
-0.0120352
-0.0214489
-0.0505984
0.0512441
0.00816637
-0.00193506
-0.0524593
0.05419
0.027563
0.0180102
-0.0563223
0.0587904
0.0436893
0.0358817
-0.061449
0.064234
0.0552741
0.0497025
-0.0670106
0.0697372
0.0623565
0.0588668
-0.072321
0.0759128
0.0660334
0.0640105
-0.0790317
0.0818792
0.0694405
0.0681954
-0.0826233
0.0857208
0.0714818
0.0718794
0.0749319
-0.0745347
0.0844703
-0.0746464
0.0704287
0.0899385
0.0849581
0.0740141
-0.071672
0.0819408
0.0841669
0.0712135
-0.0703297
0.081795
0.0814822
0.069056
-0.0673948
0.0823766
0.0817291
0.0659055
-0.0646382
0.0831011
0.0830756
0.0625267
-0.0594306
0.0830681
0.0831494
0.0917844
-0.0941332
-0.0583199
-0.0877434
0.0849875
-0.0566747
-0.0567677
0.098311
-0.101476
-0.0588912
-0.0578832
0.105053
-0.108414
-0.0589156
-0.0586307
0.11181
-0.115215
-0.0562061
-0.0573484
0.118457
-0.121489
-0.049612
-0.0529896
0.124134
-0.126348
-0.0374974
-0.0438775
0.128013
-0.129097
-0.0201553
-0.0290954
0.129536
-0.12932
8.82358e-05
-0.0101521
0.128455
-0.127012
0.0203376
0.0103226
0.125078
-0.122654
0.0376831
0.0292899
0.119918
-0.116924
0.05012
0.0442056
0.11382
-0.110667
0.0571121
0.0538496
0.107582
-0.104566
0.0596672
0.0583875
0.101684
-0.0988998
0.0595671
0.0593978
0.0962219
-0.0935804
0.0584044
0.0586366
0.0909817
-0.0883515
0.0570608
0.0573322
0.0856891
-0.0829288
0.0558972
0.0560936
0.0800592
-0.0770205
0.0545839
0.054984
0.0738268
-0.0704624
0.0518784
0.0532076
0.0670216
-0.0635797
0.0461013
0.0492027
0.0603207
-0.0573857
0.0359668
0.0414104
0.0549592
-0.0531269
0.0212124
0.0289848
0.0519849
-0.0516648
0.00293912
0.0123321
0.0520395
-0.0527775
-0.0163234
-0.00668331
0.054352
-0.0566051
-0.033645
-0.0250785
-0.0442366
0.0468018
-0.0597545
-0.0595285
-0.0413132
-0.0114803
-0.0764078
-0.12681
0.0312886
-0.0282268
-0.08394
0.0879447
-0.0849917
0.0685288
0.0901936
0.0681798
-0.0593758
0.0606467
0.0817971
-0.0558156
0.0814273
0.012316
-0.0651449
0.0253066
-0.0614844
-0.0427476
-0.0991735
0.0362142
-0.0595367
0.0444685
-0.0593612
0.0503012
-0.0603037
-0.0505348
0.0536875
-0.0629072
-0.0474779
-0.0625855
-0.0710579
-0.123759
0.118249
0.0271306
0.0415926
-0.0454622
-0.12294
0.128292
-0.132126
0.0454271
0.0358212
-0.115495
0.117801
0.00642799
0.0190828
-0.119607
0.119939
-0.0151115
-0.00366845
-0.118319
0.116319
-0.0392293
-0.0280874
-0.114002
0.111436
-0.056373
-0.048605
-0.108736
0.105963
-0.0648351
-0.0614596
-0.103214
0.100513
-0.0659408
-0.0657958
-0.0979048
0.0953642
-0.0636204
-0.064687
-0.0928992
0.0904541
-0.0608083
-0.0618888
-0.0880072
0.0854917
-0.0586336
-0.0593254
-0.0828944
0.0801698
-0.0572067
-0.0575661
-0.0773246
0.0743079
-0.055815
-0.0562664
-0.0711428
0.0678119
-0.0535663
-0.0545484
-0.064421
0.0610326
-0.0492867
-0.0514836
-0.0578274
0.0549132
-0.0412273
-0.0455627
-0.0524405
0.050492
-0.0283102
-0.035172
-0.0491655
0.0484809
-0.0113506
-0.0201224
-0.0484984
0.0491369
0.00752779
-0.0019525
-0.050381
0.0521766
0.0257673
0.0167662
-0.0544057
0.0569992
0.0410958
0.0336527
-0.0598126
0.0627781
0.0523086
0.0468891
-0.065754
0.0687024
0.0594081
0.0558909
-0.0715193
0.0742205
0.0633321
0.0611937
-0.0784593
0.0812716
0.0666282
0.0639566
0.0681593
0.0725659
-0.0730925
0.084997
-0.0703059
0.0702845
0.0899599
0.087218
0.071238
-0.0710777
0.0817804
0.0823125
0.0704887
-0.0694903
0.0807966
0.0808932
0.068114
-0.0663948
0.0806575
0.0803528
0.0639635
-0.0626021
0.0817398
0.0806442
0.081194
0.0936563
-0.0970771
-0.0548991
-0.0901527
0.0859343
-0.0524563
-0.0532641
0.100267
-0.103389
-0.0557692
-0.0546929
0.106801
-0.110376
-0.05534
-0.0552197
0.113977
-0.117605
-0.0525783
-0.0537476
0.121085
-0.124357
-0.0463398
-0.0495097
0.127231
-0.129651
-0.0350779
-0.041003
0.131483
-0.132697
-0.0189412
-0.0272634
0.133224
-0.133047
-8.8298e-05
-0.00962499
0.132176
-0.130663
0.0188245
0.00945169
0.128605
-0.126029
0.035107
0.0272321
0.123105
-0.119894
0.0469089
0.0412813
0.116552
-0.113148
0.0537085
0.0505075
0.109807
-0.106535
0.0563946
0.0550464
0.103408
-0.100389
0.0565475
0.0562717
0.097498
-0.0946712
0.0555776
0.0557458
0.0919154
-0.0891554
0.0543008
0.0545764
0.0863891
-0.0835408
0.0530489
0.0533273
0.0806017
-0.0775133
0.0514955
0.0520449
0.0742995
-0.0709576
0.0485365
0.0499938
0.0675876
-0.0642571
0.0427708
0.0458327
0.0611264
-0.0583026
0.0331431
0.0382797
0.0559424
-0.0541354
0.0194054
0.0266246
0.0529911
-0.0525856
0.00253366
0.0111878
0.0528678
-0.0538167
-0.0153745
-0.00640111
0.0549615
-0.0566647
-0.0319417
-0.0239338
0.059497
-0.0629324
-0.0440425
-0.0384809
0.0544283
-0.0465712
-0.120792
-0.113491
-0.0517763
0.0555205
-0.0663297
-0.0662526
-0.048456
-0.0272426
-0.077392
0.070338
0.0901402
0.0831911
-0.0530725
-0.0556422
-0.128314
0.0518298
0.0264147
-0.066253
-0.0561612
-0.122421
-0.0413613
-0.0853263
0.0376995
-0.0629697
-0.0528491
-0.0928956
0.0467526
-0.0618207
0.0530082
-0.0620682
0.0570275
-0.0636437
0.0583899
-0.0657766
-0.0546518
0.0580634
-0.0697413
-0.0509964
-0.069908
-0.0718858
-0.131409
0.127656
0.0491793
0.0538255
-0.123212
-0.0589272
0.133731
-0.127569
0.0476636
0.0541518
-0.126065
0.12487
0.0283253
0.0374129
-0.124738
0.1235
0.00766594
0.0192145
-0.123862
0.124199
-0.0154491
-0.00402991
-0.122573
0.120291
-0.0369476
-0.026461
-0.117606
0.114699
-0.0534661
-0.0459195
-0.111699
0.108632
-0.0617684
-0.0584593
-0.105577
0.102558
-0.0629216
-0.0627409
-0.0996333
0.0967882
-0.0607753
-0.0617626
-0.0940393
0.0913368
-0.0581058
-0.0591399
-0.0886656
0.0859536
-0.0559216
-0.0566541
-0.0831878
0.0803121
-0.0543309
-0.0548003
-0.0773328
0.0742015
-0.0526836
-0.0532871
-0.070942
0.0675273
-0.0501517
-0.0512889
-0.0640528
0.0605684
-0.0458022
-0.0480091
-0.057252
0.0542119
-0.0381873
-0.0422464
-0.0516189
0.0495613
-0.0262526
-0.032579
-0.0481352
0.0473781
-0.0105935
-0.0186963
-0.0473279
0.0479383
0.00691733
-0.00190227
-0.0491781
0.0509942
0.0239512
0.0155264
-0.0532692
0.0559305
0.0384345
0.0313776
-0.058834
0.0619111
0.0492316
0.0439855
-0.0650204
0.0681235
0.056305
0.0527816
-0.0711129
0.0739936
0.0604514
0.0582043
-0.0767039
0.0806108
0.0627213
0.0612463
-0.0844507
0.087417
0.0655626
0.0643193
-0.0890341
0.0919528
0.0674193
0.0665626
0.0711785
-0.0704776
0.0892591
-0.0695958
0.06583
0.0957187
0.0917228
0.0709977
-0.0703045
0.0843038
0.087738
0.070512
-0.0702729
0.0815414
0.08252
0.0696093
-0.0685255
0.0797128
0.0802295
0.0670638
-0.0652679
0.0788616
0.0788912
0.0631721
-0.0604287
0.0789964
0.0785484
0.0585705
-0.0563362
0.0795629
0.0793357
0.0555041
-0.0512299
0.0789169
0.0805952
0.0883036
-0.091103
-0.0496568
-0.0838695
0.0812157
-0.0485762
-0.0486384
0.0944714
-0.0979856
-0.0513849
-0.0498957
0.10122
-0.104655
-0.0523343
-0.0514588
0.108182
-0.11186
-0.0516627
-0.0516919
0.115577
-0.119346
-0.0488097
-0.0500301
0.122978
-0.126412
-0.0429058
-0.0458773
0.129439
-0.131998
-0.0325184
-0.0379764
0.133948
-0.13526
-0.0176299
-0.0253134
0.135858
-0.135725
-0.000221022
-0.00902655
0.134869
-0.133332
0.0172875
0.00859549
0.1312
-0.128541
0.0324482
0.0250997
0.125505
-0.12216
0.043564
0.0382457
0.118672
-0.115108
0.0501441
0.0470194
0.111601
-0.108162
0.0529551
0.0515396
0.104874
-0.101699
0.053372
0.0529843
0.0986665
-0.0957121
0.0526231
0.0527136
0.092846
-0.089992
0.0514468
0.0517104
0.0871497
-0.0842422
0.0501414
0.0504851
0.0812713
-0.078183
0.0484072
0.049074
0.0750115
-0.0717577
0.0452827
0.0468223
0.0685144
-0.0653354
0.0395917
0.0425894
0.0623558
-0.0596625
0.0304498
0.0353001
0.0573982
-0.0556497
0.0176568
0.0243603
0.0545203
-0.0540478
0.00206115
0.0100585
0.0542186
-0.055017
-0.0145761
-0.00623031
0.0564257
-0.0583886
-0.0299789
-0.022525
0.0605632
-0.0629943
-0.0416114
-0.0363063
0.0662781
-0.0695498
-0.0477246
-0.0451722
0.0679012
-0.0606978
-0.127995
-0.101751
-0.0526939
0.0562873
-0.0735014
-0.0741163
-0.0481274
-0.0398529
-0.0789004
0.0391057
-0.0676591
-0.0560181
-0.121477
0.0499264
-0.116207
-0.0630237
-0.0717352
-0.109613
-0.0530138
-0.0851617
0.0486638
-0.0648809
0.0950978
-0.0905125
0.062834
0.0969905
0.0639372
-0.0494182
0.0508279
0.0775072
-0.0466113
0.0784088
-0.0614919
-0.0921014
0.0556512
-0.0644638
0.0598701
-0.0649108
0.0619327
-0.0671864
0.0616193
-0.0693326
0.0592028
-0.0726568
0.0546752
-0.115773
-0.060379
-0.116537
0.123585
0.0476268
-0.0542016
-0.11397
0.0516346
-0.0531085
-0.0763111
0.0559182
-0.0501178
-0.077107
-0.112199
-0.057776
-0.072633
-0.118094
0.115524
0.0502332
0.055418
-0.121614
0.126328
0.0444657
0.0480621
-0.126649
0.126784
0.0281896
0.0370918
-0.128066
0.128509
0.0072222
0.0179332
-0.128218
0.127168
-0.0143989
-0.0037384
-0.125353
0.123006
-0.0346005
-0.024646
-0.12036
0.117461
-0.0505669
-0.0432743
-0.114351
0.111061
-0.0584791
-0.0553488
-0.107719
0.104391
-0.0595935
-0.0593984
-0.101171
0.0980568
-0.0576613
-0.0585426
-0.0950758
0.0921757
-0.0552057
-0.0561589
-0.089342
0.0864929
-0.0530725
-0.0538204
-0.0836093
0.0806304
-0.0513519
-0.0519168
-0.0775726
0.0743848
-0.0494958
-0.0502293
-0.0710964
0.0676689
-0.0467242
-0.0480005
-0.0641874
0.0606914
-0.0423063
-0.0445275
-0.057347
0.054257
-0.0350973
-0.0389019
-0.0516017
0.0494767
-0.0241276
-0.0299237
-0.0479784
0.0471555
-0.00977071
-0.017198
-0.0470381
0.0475989
0.00635645
-0.00178479
-0.0488027
0.0505967
0.0221573
0.0143226
-0.0528675
0.055541
0.035761
0.0291068
-0.0584741
0.0615996
0.046106
0.0410524
-0.064777
0.0679707
0.0531114
0.0496042
-0.0710725
0.0740898
0.0574341
0.0551025
-0.076965
0.0797433
0.059943
0.0583711
-0.0838577
0.0868938
0.0625264
0.0602049
0.0629439
0.0679448
-0.0694047
0.090719
-0.0657716
0.0637375
0.0977528
0.093896
0.0684218
-0.0690928
0.0849748
0.0867551
0.069293
-0.0690422
0.0812906
0.0827202
0.0683476