/*--------------------------------*- C++ -*----------------------------------*\
  =========                 |
  \\      /  F ield         | OpenFOAM: The Open Source CFD Toolbox
   \\    /   O peration     | Website:  https://openfoam.org
    \\  /    A nd           | Version:  10
     \\/     M anipulation  |
\*---------------------------------------------------------------------------*/
FoamFile
{
    format      ascii;
    class       volScalarField;
    location    "17";
    object      p;
}
// * * * * * * * * * * * * * * * * * * * * * * * * * * * * * * * * * * * * * //

dimensions      [0 2 -2 0 0 0 0];

internalField   nonuniform List<scalar> 
28942
(
-0.387395
-0.383374
-0.22391
0.204945
0.214716
-0.00575966
-0.000867416
-0.00730859
-0.00524695
0.000381142
-0.444407
-0.455538
-0.449647
-0.44257
0.000544785
0.00528171
0.454143
0.47691
0.171707
0.240598
0.344279
0.346306
-0.476633
-0.479072
-0.470201
-0.494675
0.779507
0.794486
-0.0188337
-0.00315872
-0.0120266
-0.0107131
0.0208781
0.00513529
0.148648
0.195324
0.452801
0.580814
-0.00687381
0.467094
0.267508
0.295512
0.0539522
0.0677046
0.0496267
-0.00239629
-0.000849788
-0.00283361
-0.000909241
0.00589511
0.014328
-0.00155323
0.00102311
0.00452229
0.0112018
-0.393833
-0.330988
-0.4519
-0.454651
-0.457343
-0.456891
-0.45266
-0.447335
-0.172802
-0.271918
-0.147795
-0.074174
0.418877
0.389612
-0.392728
-0.395037
-0.397628
0.415637
0.394762
0.412761
-0.247775
-0.247215
-0.20055
-0.197663
-0.255568
-0.173818
-0.307894
-0.440149
-0.475031
-0.0309995
0.0556743
0.121202
0.0910239
0.0304301
0.0303752
0.0668441
0.0861611
-0.401971
-0.413756
-0.415417
-0.402152
-0.394061
0.0761509
0.124762
-0.509325
0.233291
0.235159
0.211452
0.218478
-0.203707
-0.205791
-0.218477
0.169727
0.180107
0.180027
-0.445248
-0.439825
-0.382025
-0.351565
-0.365066
0.862366
0.795273
0.735337
0.810246
0.00710549
0.148734
0.0844216
0.066991
0.0519332
0.904307
0.914963
0.882086
0.0831053
0.122933
-0.00388907
-0.00288876
-0.00542726
0.440629
0.541073
0.194461
0.184709
0.264718
0.194684
0.334871
0.333701
-0.391445
-0.399649
0.143741
0.0294965
0.0433463
-0.284823
-0.298017
-0.269698
-0.407099
0.159586
0.169041
-0.0267715
-0.00804198
-0.00807661
-0.00665579
-0.00694055
0.23208
0.144539
-0.389192
-0.386724
-0.381126
-0.394426
-0.397238
-0.00506495
-0.472378
-0.444022
0.366505
0.379465
0.433493
0.411387
0.33629
-7.1964e-05
-0.00485339
0.0219975
0.0139902
0.140663
0.127878
0.149982
0.161764
0.16134
0.175593
0.18944
0.227622
0.207087
0.186639
0.208109
0.250157
0.308089
0.32635
-0.400318
-0.402708
-0.368251
-0.00478196
-0.00435102
-0.398023
-0.393992
0.00281065
0.00245928
0.000724314
0.000453512
-0.0192853
-0.0270971
-0.017373
-0.433581
-0.431123
-0.423586
-0.465229
-0.468201
-0.463135
-0.491664
-0.547939
-0.511626
0.84918
0.819627
0.862293
-0.190573
-0.180806
-0.195623
0.464756
0.447922
0.456926
-0.0425046
-0.035038
-0.050615
-0.028166
-0.0221402
-0.0169964
-0.020178
-0.0124371
-0.0151713
-0.0258416
-0.0326151
-0.04034
-0.0488931
-0.0580071
-0.0087479
-0.0109088
-0.0592694
-0.0682266
-0.0683617
-0.00588534
-0.00741315
-0.0789981
-0.00351239
-0.00159319
-0.00456817
-0.00224516
-0.0772854
-0.0896853
-0.000142913
-0.000408982
-0.0861074
-0.100268
0.000879582
0.000983651
-0.0943888
-0.110391
0.0015241
0.00198819
-0.101702
-0.119594
0.00183885
0.00265055
-0.107765
-0.127527
0.00185385
0.00301081
-0.112293
-0.13372
0.00159606
0.00309743
-0.115061
-0.137897
0.00105594
0.00292169
-0.116017
-0.139822
0.000268904
0.00252402
-0.114865
-0.139407
-0.000852749
0.0017593
-0.112098
-0.136836
-0.0022861
0.00070619
-0.107645
-0.132321
-0.0041661
-0.000643157
-0.0876092
-0.0831141
-0.101938
-0.12631
-0.0927134
-0.0910656
-0.0917382
-0.0931422
-0.084281
-0.0887017
-0.0719598
-0.0786192
-0.0568229
-0.064693
-0.0424046
-0.0496547
-0.0290673
-0.0353989
-0.0180708
-0.0232134
-0.00968157
-0.0136011
-0.00413237
-0.00656164
-0.000779117
-0.00222631
0.000810243
0.000219832
0.000926706
0.00103161
-0.000195994
0.000509029
-0.00247956
-0.00120354
-0.00585744
-0.00405658
-0.00806701
-0.00618487
-0.00223672
0.00380493
0.00236052
0.00319475
0.00429493
0.00417843
0.00380512
0.00417683
0.00221737
0.00315995
-0.000752452
0.000928479
-0.00552666
-0.00288634
-0.0126726
-0.0087538
-0.0228218
-0.0173623
-0.0364618
-0.0291498
-0.0541909
-0.0448651
-0.0758188
-0.0644867
-0.0998726
-0.0875355
-0.124089
-0.112185
-0.144893
-0.135141
-0.158656
-0.152854
-0.16254
-0.161907
-0.156496
-0.160635
-0.150114
-0.0776902
-0.0105055
0.00122789
-0.11923
-0.14239
-0.0718922
-0.0956179
-0.0636516
-0.0539814
-0.0590535
-0.0701652
-0.0675768
-0.0715013
-0.0715811
-0.0670819
-0.0699908
-0.0578731
-0.0629701
-0.0459252
-0.0521434
-0.0338406
-0.0399111
-0.0227874
-0.0281566
-0.0136892
-0.0178178
-0.00688293
-0.0100388
-0.00248225
-0.00439082
-0.000107349
-0.00107226
0.000591457
0.000435166
-0.000135454
0.000390724
-0.00212022
-0.00097772
-0.00529603
-0.00356368
-0.00961471
-0.00730062
-0.00836635
-0.0130145
-0.0149488
-0.0121823
0.00478657
0.00410056
-0.000100068
-0.00405471
0.00550214
0.00523962
0.00540642
0.00554822
0.00439904
0.00501262
0.00233307
0.00351272
-0.00112016
0.000804147
-0.00641193
-0.00350442
-0.0141602
-0.00993356
-0.0250183
-0.019174
-0.0396926
-0.0318282
-0.0585609
-0.0485889
-0.0818848
-0.0697583
-0.108228
-0.0947518
-0.135343
-0.121901
-0.159476
-0.148039
-0.176545
-0.169124
-0.183303
-0.181336
-0.178647
-0.182365
-0.164458
-0.172591
-0.0490482
-0.133831
-0.15498
-0.111721
-0.0177999
0.00319387
-0.0662574
-0.0449007
-0.124958
-0.144764
-0.0890213
-0.0195149
-0.0225208
-0.00163325
0.0020006
-0.0250016
-0.041995
-0.0222521
-0.023551
-0.0314614
-0.0276004
-0.0407195
-0.0360044
-0.0482639
-0.0449231
-0.0515263
-0.0504792
-0.0497829
-0.0512997
-0.0435926
-0.0471498
-0.0347688
-0.0394064
-0.0252386
-0.0300229
-0.0164153
-0.0206895
-0.00918286
-0.0125138
-0.00396448
-0.00633214
-0.000800651
-0.00213068
0.000523689
6.99455e-05
0.000280119
0.000583989
-0.00134053
-0.000368385
-0.00423025
-0.00263078
-0.00833659
-0.00613477
-0.0135642
-0.0108178
-0.0165
-0.0106157
-0.0205285
-0.0155163
-0.00590571
0.00670893
0.0058259
0.00637492
0.00685651
0.00687172
0.00624386
0.00662558
0.00481294
0.00563458
0.00234634
0.00372585
-0.00150745
0.000618231
-0.00722108
-0.00409785
-0.0154222
-0.0109674
-0.026815
-0.0206767
-0.042173
-0.0339545
-0.0620511
-0.0515164
-0.086676
-0.0738237
-0.115007
-0.100481
-0.144719
-0.129901
-0.17198
-0.158933
-0.192307
-0.183277
-0.201939
-0.198622
-0.199148
-0.202109
-0.18512
-0.193293
-0.163605
-0.174994
-0.134575
-0.152018
-0.0616919
-0.104286
-0.0253791
0.00504731
-0.0404043
-0.116752
-0.0243352
-0.14096
-0.125541
-0.0109495
-0.0151894
-0.0829097
-0.00662436
-0.00837928
-0.00715363
-0.00655493
-0.0111717
-0.00848124
-0.0191246
-0.0148951
-0.0270965
-0.023382
-0.0319851
-0.0300081
-0.03263
-0.032866
-0.0292712
-0.0313793
-0.0233219
-0.0265294
-0.0164035
-0.0198947
-0.00984829
-0.0130159
-0.00453043
-0.00698935
-0.000894078
-0.00249656
0.000980081
0.000261093
0.00120551
0.00128457
-2.82887e-05
0.000760929
-0.00259666
-0.00115144
-0.00644479
-0.0043629
-0.01152
-0.00883643
-0.0176127
-0.0144628
-0.0241119
-0.0208562
-0.0299719
-0.0272135
-0.0229517
-0.0323539
-0.0279
-0.0127915
-0.0178637
-0.0033064
-0.00786915
0.00418813
0.000738669
0.00790362
0.00700356
0.0075039
0.00817904
0.00813793
0.00785458
0.008098
0.00685011
0.00743697
0.00507216
0.00606747
0.00227834
0.00382122
-0.00189592
0.000389921
-0.00793418
-0.00464739
-0.0164631
-0.0118447
-0.0282212
-0.0218897
-0.044025
-0.0355714
-0.0645761
-0.0536713
-0.0901622
-0.0767641
-0.120025
-0.104659
-0.151931
-0.13593
-0.182017
-0.167491
-0.205495
-0.194878
-0.218084
-0.213347
-0.21746
-0.219464
-0.204065
-0.212196
-0.181423
-0.193533
-0.155487
-0.168424
-0.131164
-0.143358
-0.0589595
-0.0977069
-0.0398304
-0.109493
-0.0345018
-0.0366113
0.00309798
0.00622519
-0.0323167
-0.118119
-0.0224437
-0.00335543
-0.123166
-0.132714
-0.00953698
-0.0781863
0.00534466
0.00202937
0.00811635
0.00731169
0.00650905
0.00790635
0.000513577
0.00394398
-0.0071003
-0.00333288
-0.0131181
-0.0104432
-0.0158314
-0.0149372
-0.0150593
-0.0158361
-0.0117993
-0.0136622
-0.00741152
-0.0096641
-0.00309886
-0.00518355
0.000314
-0.00124147
0.0023608
0.00151935
0.00291083
0.00282394
0.00199928
0.00262959
-0.000267151
0.00102977
-0.00383125
-0.00188886
-0.00867916
-0.00609643
-0.0147311
-0.011568
-0.0216158
-0.0181152
-0.0285334
-0.0251067
-0.031726
-0.0249416
-0.0341678
-0.0297392
-0.014809
-0.0199329
-0.00500939
-0.00976004
-0.000698619
0.00947079
0.00909995
0.00941933
0.00928734
0.0094675
0.00857051
0.00901209
0.00725593
0.00799571
0.00520131
0.00633437
0.00214795
0.0038192
-0.00227059
0.000135642
-0.00853783
-0.00513867
-0.0172743
-0.0125548
-0.0292315
-0.0227999
-0.0452559
-0.0366847
-0.0661432
-0.0550521
-0.0923023
-0.078571
-0.123205
-0.107248
-0.156806
-0.139867
-0.189301
-0.173488
-0.215696
-0.203581
-0.231222
-0.225054
-0.232933
-0.233877
-0.220712
-0.228442
-0.197489
-0.210163
-0.168703
-0.183438
-0.141272
-0.154373
-0.124074
-0.129719
-0.0578923
-0.0926141
-0.038094
0.00868637
-0.0429489
-0.0307007
-0.0376324
-0.103923
-0.112351
-0.0180003
-0.0285396
-0.0358953
-0.117103
-0.117354
-0.120082
-0.0754016
0.004236
-0.0119761
-0.00310592
0.0148988
0.0103132
0.0204524
0.0182529
0.0214604
0.021539
0.0178263
0.0201813
0.0112796
0.0147251
0.0047714
0.0078596
0.00041622
0.00224702
-0.0011015
-0.000682111
-0.000331737
-0.00094283
0.00165681
0.000580837
0.00381057
0.00276932
0.0053564
0.00469589
0.00582734
0.00574111
0.0050427
0.00559608
0.00297202
0.00416545
-0.000358943
0.00146311
-0.00495858
-0.00249884
-0.010836
-0.00774069
-0.0178438
-0.0142204
-0.0254543
-0.0216243
-0.03265
-0.029183
-0.0383009
-0.0357335
-0.0412856
-0.0402049
-0.0351765
-0.0414523
-0.0387797
-0.026451
-0.0310105
-0.016527
-0.0215604
-0.00668192
-0.0115201
0.00191119
-0.00214363
0.00813574
0.00534767
0.0106779
0.0102909
0.0105344
0.0106012
0.0107202
0.0100729
0.0104061
0.00905263
0.00962773
0.00749437
0.00835044
0.00522338
0.00646236
0.00197296
0.00374028
-0.00261875
-0.000129337
-0.0090259
-0.0055618
-0.0178553
-0.0130958
-0.0298535
-0.0234081
-0.045879
-0.0373094
-0.0667834
-0.0556773
-0.0931002
-0.0792597
-0.124521
-0.108244
-0.159252
-0.141658
-0.193646
-0.176786
-0.222614
-0.209146
-0.240981
-0.233397
-0.245175
-0.244967
-0.234427
-0.241587
-0.211156
-0.224073
-0.180422
-0.196359
-0.148686
-0.16422
-0.121618
-0.134325
-0.112513
-0.110838
-0.057737
-0.0216788
-0.046611
-0.0438203
-0.0437346
0.00746475
0.0098478
-0.0888765
-0.100211
-0.0438681
-0.108551
-0.112948
-0.112656
-0.106793
-0.102073
-0.0734375
-0.00602469
-0.0333065
-0.0277367
-0.0161293
0.0106927
0.00287444
0.0225459
0.0171985
0.0301854
0.0268807
0.0336261
0.0324519
0.0324908
0.0336302
0.0276173
0.0303909
0.0213376
0.0244955
0.0159145
0.0184129
0.012485
0.0139272
0.0110194
0.0115433
0.0107775
0.0108022
0.0108821
0.0108361
0.0106274
0.0108338
0.00955746
0.0102118
0.00744873
0.0086403
0.0042074
0.00597223
-0.000219972
0.00214562
-0.00589928
-0.00289991
-0.0128332
-0.00921666
-0.020764
-0.0167064
-0.0289813
-0.0248997
-0.0363186
-0.03285
-0.0415279
-0.0392366
-0.0430795
-0.0354231
-0.0410124
-0.0385878
-0.0273675
-0.031642
-0.0179151
-0.0227364
-0.00819998
-0.0130258
0.000659416
-0.00357614
0.00436687
0.0117983
0.0118131
0.0118624
0.0113841
0.0116355
0.0105705
0.011035
0.0093354
0.0100097
0.00759377
0.00853798
0.0051603
0.00647798
0.0017699
0.00360394
-0.00292926
-0.000391038
-0.00939478
-0.00590894
-0.0182115
-0.0134686
-0.0301053
-0.0237246
-0.0459262
-0.0374707
-0.0665518
-0.0555907
-0.0926172
-0.0788885
-0.124023
-0.107707
-0.159269
-0.141332
-0.194965
-0.177347
-0.226057
-0.211436
-0.247072
-0.23813
-0.253852
-0.252401
-0.244923
-0.251313
-0.222035
-0.234982
-0.189827
-0.206728
-0.154508
-0.172131
-0.122045
-0.137649
-0.0959435
-0.108078
-0.0470904
-0.0397082
-0.0950025
-0.0857218
-0.0591448
-0.0428485
0.0116093
-0.0408933
-0.0870056
-0.0469393
-0.0524092
-0.0984868
-0.0519606
-0.106658
-0.110756
-0.109713
-0.102756
-0.0894597
-0.0769511
-0.073196
-0.0228092
-0.0557379
-0.0499388
-0.0355822
-0.00109962
-0.0113398
0.0158727
0.00791774
0.0285579
0.0227064
0.0376279
0.0335275
0.0430403
0.0408156
0.0442955
0.0442159
0.0414984
0.0433356
0.0361645
0.039019
0.0303516
0.0332
0.0255483
0.0277684
0.0221978
0.0237006
0.0199471
0.0209739
0.0181438
0.0190307
0.0161795
0.0172131
0.0136189
0.0149928
0.0102025
0.0120285
0.00577202
0.00812165
0.000200738
0.00313648
-0.00661321
-0.00304814
-0.0146221
-0.0104829
-0.0234151
-0.0189653
-0.0320887
-0.02784
-0.0393917
-0.0359907
-0.0440903
-0.0421275
-0.0455785
-0.0452424
-0.0436987
-0.0450608
-0.0398677
-0.0416585
-0.0412237
-0.035056
-0.0377697
-0.0277567
-0.0316317
-0.0189357
-0.0234891
-0.00948976
-0.0142208
-0.000551467
-0.00488122
0.00665619
0.00332032
0.0113512
0.00934263
0.0128313
0.0127847
0.0128415
0.0125307
0.0127162
0.0118631
0.0122446
0.010844
0.0113966
0.0094551
0.0102017
0.00758031
0.00858855
0.00503218
0.00640448
0.00155321
0.00342751
-0.00319377
-0.000637913
-0.0096442
-0.00617545
-0.0183533
-0.0136778
-0.0300134
-0.0237675
-0.0454459
-0.0372049
-0.0655262
-0.0548554
-0.0909585
-0.0775489
-0.12183
-0.105752
-0.156955
-0.139005
-0.193287
-0.175239
-0.225952
-0.210429
-0.249311
-0.239126
-0.258696
-0.255951
-0.251925
-0.257338
-0.22999
-0.242661
-0.19687
-0.21448
-0.158571
-0.177953
-0.121236
-0.139453
-0.0890362
-0.104361
-0.0636098
-0.0755002
-0.061475
-0.0538299
-0.0693775
-0.0528003
-0.0633815
-0.0873098
-0.0664931
-0.0726413
-0.0617999
-0.0592291
-0.0987092
-0.0436829
-0.0414144
0.0109713
0.0126135
-0.0624801
-0.106701
-0.110297
-0.108384
-0.100114
-0.084951
-0.0850001
-0.0787385
-0.0989079
-0.0628455
-0.0430992
-0.105985
-0.0754094
-0.0449146
-0.061182
-0.0180314
-0.0304486
0.00305771
-0.00699501
0.0199928
0.0120485
0.0331061
0.026977
0.0430792
0.0384636
0.0499438
0.0469198
0.0532305
0.0520734
0.0526096
0.0533907
0.0487945
0.0510159
0.043341
0.0461649
0.0378226
0.0405148
0.0330629
0.0353308
0.0291109
0.0310035
0.0255925
0.0273274
0.022035
0.0238458
0.0180411
0.0201124
0.0133239
0.0157872
0.00766585
0.0106244
0.000885542
0.00442538
-0.00711485
-0.00296318
-0.0161839
-0.0115408
-0.0257245
-0.0209524
-0.0346586
-0.0303473
-0.041691
-0.0384882
-0.0457468
-0.0441424
-0.0463298
-0.0464564
-0.0454066
-0.038006
-0.0391071
-0.0389496
-0.0340296
-0.0363477
-0.0276581
-0.031095
-0.0195373
-0.0237763
-0.0105004
-0.0150641
-0.00165687
-0.00598547
0.00583283
0.00233774
0.00872792
0.0134607
0.0137066
0.0136203
0.0129418
0.0132344
0.0120868
0.0125471
0.0109387
0.0115502
0.00944343
0.0102405
0.00747743
0.00852915
0.00485666
0.00626235
0.00133492
0.00322589
-0.00340671
-0.000860966
-0.00977721
-0.00635973
-0.0182961
-0.0137321
-0.0296114
-0.0235601
-0.0444987
-0.0365579
-0.0638051
-0.0535499
-0.0882671
-0.0753612
-0.118124
-0.102544
-0.1525
-0.134866
-0.188761
-0.170639
-0.222354
-0.206233
-0.247635
-0.236381
-0.259534
-0.255497
-0.255196
-0.259451
-0.234825
-0.246874
-0.201628
-0.219521
-0.161129
-0.181891
-0.119552
-0.140112
-0.0817104
-0.099953
-0.0499673
-0.0650443
-0.0235315
-0.0363441
-0.0917809
-0.0340321
-0.0566991
-0.0254474
2.77766e-05
-0.011609
-0.0777064
-0.0691093
-0.0692769
-0.089599
-0.0386816
0.0136832
-0.0789009
-0.0677957
-0.100955
-0.0757259
-0.108616
-0.11152
-0.10854
-0.0986546
-0.081392
-0.121238
-0.112618
-0.136021
0.0232491
0.0365661
0.0110598
-0.146358
-0.12958
-0.113412
-0.051359
-0.0169129
-0.0796658
-0.0727849
-0.0917773
-0.0402777
-0.0555664
-0.0142475
-0.0264653
0.00634691
-0.0034254
0.0230359
0.0151535
0.0363381
0.0300682
0.0468429
0.0419171
0.0546803
0.051106
0.0595089
0.0575064
0.0608528
0.0606283
0.0588431
0.0602265
0.0543973
0.0568452
0.0488854
0.0517028
0.0433046
0.0460637
0.0380674
0.0406391
0.0330992
0.0355658
0.0281008
0.0306249
0.0227391
0.0254847
0.0167183
0.0198278
0.00978276
0.0133793
0.00173455
0.00590588
-0.00746502
-0.0027298
-0.0175111
-0.0124194
-0.0276121
-0.0226226
-0.0365643
-0.0323137
-0.0431036
-0.0402022
-0.0463693
-0.0451708
-0.0461034
-0.0466609
-0.0428679
-0.0448253
-0.0375548
-0.0404057
-0.0362723
-0.0344149
-0.0356427
-0.0357133
-0.0363191
-0.0325162
-0.0344139
-0.0270494
-0.0300502
-0.0196894
-0.0235677
-0.0111986
-0.0155251
-0.00258929
-0.00684133
0.00500592
0.00141568
0.0105203
0.00806261
0.0136136
0.0123485
0.0141956
0.0143327
0.0143036
0.0137839
0.0140251
0.0130859
0.013475
0.0121208
0.0126334
0.0108912
0.0115417
0.00932756
0.0101574
0.00730566
0.00838342
0.00464879
0.00606932
0.00112458
0.00301147
-0.00356514
-0.00105374
-0.00979978
-0.00646293
-0.0180586
-0.013643
-0.0289376
-0.02313
-0.043153
-0.0355812
-0.0615002
-0.0517623
-0.0847121
-0.0724643
-0.113136
-0.0982817
-0.146179
-0.129174
-0.181656
-0.163826
-0.215458
-0.199088
-0.242118
-0.230034
-0.256315
-0.251046
-0.254581
-0.257541
-0.236333
-0.247433
-0.203973
-0.221655
-0.162351
-0.183949
-0.117473
-0.139943
-0.0746697
-0.0955482
-0.0370391
-0.0551274
-0.00501297
-0.0203626
0.00918665
-0.0945239
-0.0857703
0.0221441
0.0493316
-0.0768802
-0.0939798
-0.0985059
-0.0786777
-0.105166
-0.0357053
-0.0326175
0.0134285
0.0142861
-0.0911519
-0.112356
-0.114373
-0.110016
-0.0983809
-0.078951
-0.161649
-0.148771
-0.174226
-0.189429
-0.17422
-0.156057
-0.138368
-0.046622
-0.00930135
0.0618187
0.0326349
-0.0859791
-0.104002
-0.125665
-0.0666353
-0.0843833
-0.0358545
-0.0504282
-0.0111184
-0.0228152
0.00884176
-0.000630534
0.0251696
0.017418
0.0384596
0.0321595
0.0492133
0.0441304
0.0576276
0.0537158
0.0635036
0.0609095
0.0663969
0.0653462
0.0661303
0.0666502
0.0630915
0.0649172
0.0581936
0.0608061
0.0524255
0.0553697
0.0464077
0.0494264
0.0403335
0.0433795
0.0340963
0.0372485
0.0274576
0.030844
0.0201456
0.0239026
0.0119083
0.0161562
0.0025874
0.00738627
-0.00773826
-0.00246868
-0.0185805
-0.013144
-0.0289771
-0.023909
-0.0376728
-0.0336159
-0.0435182
-0.0410054
-0.0458833
-0.0451486
-0.0448693
-0.0457828
-0.0411307
-0.0432824
-0.0385831
-0.0332047
-0.031164
-0.0324493
-0.0330762
-0.0334552
-0.0306218
-0.0321252
-0.0259637
-0.0285596
-0.0194002
-0.0228854
-0.0115639
-0.0155918
-0.00332456
-0.00742979
0.00424368
0.000618123
0.0100117
0.00741203
0.0119949
0.0143797
0.0146851
0.0145839
0.0138455
0.0141539
0.0130391
0.0134719
0.0120101
0.0125526
0.0107327
0.011406
0.00913073
0.00997862
0.00708259
0.0081715
0.00442109
0.00584042
0.000929311
0.00279416
-0.00366852
-0.00121219
-0.00972032
-0.00648861
-0.0176621
-0.013425
-0.0280331
-0.0225074
-0.0414803
-0.0343296
-0.0587296
-0.0495854
-0.0804773
-0.0690068
-0.10713
-0.0931901
-0.138333
-0.122234
-0.172345
-0.155167
-0.205597
-0.189358
-0.23298
-0.220369
-0.24911
-0.242746
-0.250019
-0.251615
-0.234354
-0.244225
-0.203711
-0.220693
-0.162195
-0.183979
-0.115365
-0.139076
-0.0687178
-0.0917202
-0.0260879
-0.0467574
0.0110403
-0.00681205
0.0432183
0.0276907
0.0720026
0.0579764
0.0738296
0.0982082
0.0853656
-0.113837
-0.106132
-0.0865924
-0.100382
-0.0294597
0.0147334
-0.120475
-0.0921536
-0.111344
-0.108982
-0.117898
-0.118775
-0.112781
-0.0990287
-0.0769292
-0.201768
-0.184979
-0.211442
0.115607
0.126772
0.110169
-0.231497
-0.219466
-0.204217
-0.185613
-0.166441
-0.0418616
-0.00145815
0.0427598
0.0852612
-0.0942915
-0.136221
-0.159852
-0.0951384
-0.114455
-0.0605766
-0.0771877
-0.0319619
-0.0455528
-0.00855942
-0.0196799
0.0106479
0.00150912
0.026524
0.01896
0.0396442
0.0333986
0.050442
0.0453119
0.0591377
0.0550504
0.0656426
0.0626814
0.0696161
0.0679688
0.0707686
0.0705638
0.0691459
0.0702721
0.0652593
0.0674413
0.0598463
0.0626976
0.0535642
0.0567832
0.0467792
0.0502244
0.0395609
0.0432288
0.0317881
0.0357559
0.0232559
0.0276307
0.0137725
0.0186418
0.00328198
0.0086474
-0.00797425
-0.00228096
-0.0193246
-0.0136965
-0.0296922
-0.0247075
-0.037856
-0.0341187
-0.0428622
-0.0407904
-0.0443631
-0.0440436
-0.0426986
-0.0438842
-0.0386868
-0.0409274
-0.0332832
-0.036103
-0.0273628
-0.0303499
-0.0279717
-0.0244231
-0.0263327
-0.0300539
-0.0292275
-0.030238
-0.0303872
-0.0284091
-0.0295887
-0.0244738
-0.0266941
-0.0187037
-0.0217911
-0.0115917
-0.0152757
-0.00383574
-0.00773063
0.00357412
-2.01505e-06
0.00949884
0.00678028
0.0131986
0.0116348
0.0147349
0.0141944
0.0147468
0.0149362
0.0148658
0.0143261
0.014575
0.0137023
0.0140507
0.012848
0.0133021
0.0117881
0.012345
0.0104888
0.0111722
0.00887252
0.00972643
0.00682295
0.00791043
0.00418362
0.00558804
0.000754011
0.00258153
-0.00371839
-0.00133443
-0.00954906
-0.0064423
-0.0171295
-0.0130939
-0.0269396
-0.0217236
-0.039552
-0.032858
-0.0556105
-0.0471109
-0.0757487
-0.065137
-0.100387
-0.0874985
-0.129346
-0.114377
-0.161293
-0.145091
-0.193241
-0.177521
-0.2206
-0.207821
-0.238137
-0.230901
-0.241551
-0.241794
-0.22879
-0.23724
-0.200647
-0.21648
-0.160446
-0.181761
-0.113207
-0.137359
-0.0643039
-0.0886504
-0.0180557
-0.0406504
0.023141
0.00324908
0.0588038
0.041668
0.0893739
0.0746855
0.102785
-0.135905
-0.128645
0.120724
0.136882
-0.0985719
-0.108856
-0.145831
-0.108197
-0.119522
-0.0249881
-0.022339
0.0146679
0.0149423
-0.129583
-0.125227
-0.124661
-0.116632
-0.100305
-0.0753193
-0.239024
-0.216223
-0.24093
-0.267028
-0.262187
-0.251285
-0.236628
-0.218212
-0.197115
-0.0368674
0.0067013
0.0530794
0.0959715
0.144611
0.129495
-0.104727
-0.168293
-0.192041
-0.124406
-0.145743
-0.0866987
-0.104668
-0.0551466
-0.0702908
-0.0285793
-0.0412599
-0.00648614
-0.0170227
0.0118892
0.00312031
0.0272327
0.0199023
0.0400615
0.0339349
0.050752
0.0456551
0.0595169
0.0553704
0.066334
0.0631798
0.0709687
0.0689403
0.0731187
0.0723516
0.072685
0.0732204
0.069867
0.0715505
0.065122
0.0677012
0.0589886
0.0621987
0.0518766
0.0555381
0.0439746
0.0480212
0.0352812
0.0397324
0.0256976
0.030608
0.0151485
0.0205441
0.00373089
0.00953155
-0.00813216
-0.00218643
-0.019618
-0.0139868
-0.0296118
-0.0248735
-0.0370112
-0.0336918
-0.0411112
-0.0394915
-0.0418322
-0.0418721
-0.0397
-0.0410707
-0.0355982
-0.0378364
-0.0304299
-0.0330958
-0.0277169
-0.0248598
-0.0216201
-0.0233691
-0.0268747
-0.0260582
-0.0273259
-0.0273039
-0.0259598
-0.0268875
-0.0226671
-0.0245445
-0.017655
-0.020357
-0.0112821
-0.0146087
-0.00413431
-0.00775171
0.00304738
-0.000404596
0.00898922
0.0062229
0.0129044
0.0112343
0.0140181
0.014599
0.0148483
0.0147618
0.0141114
0.0143762
0.0134259
0.0137995
0.0125497
0.0130115
0.0114817
0.0120417
0.0101802
0.0108641
0.0085692
0.00941929
0.00653882
0.00761436
0.00394419
0.00532217
0.000601578
0.00237904
-0.003718
-0.00142043
-0.00929753
-0.00633102
-0.0164841
-0.0126665
-0.0256982
-0.0208097
-0.037436
-0.0312193
-0.0522535
-0.0444257
-0.0707028
-0.060995
-0.0931786
-0.0814279
-0.119614
-0.105937
-0.149016
-0.134058
-0.178971
-0.164138
-0.205518
-0.192965
-0.223785
-0.215988
-0.229338
-0.228367
-0.219609
-0.226398
-0.1946
-0.208925
-0.156791
-0.177039
-0.110647
-0.134442
-0.0612507
-0.0860433
-0.0131255
-0.0367962
0.0306534
0.00943354
0.0686729
0.0504298
0.100553
0.0853766
0.126207
0.114189
0.145358
0.136484
0.150484
0.156064
0.151642
-0.16073
-0.15443
-0.113046
-0.119499
-0.019802
0.0148814
-0.174346
-0.126979
-0.129723
-0.153005
-0.134295
-0.131887
-0.121357
-0.102028
-0.0737098
-0.265557
-0.237961
-0.259603
0.155725
0.156214
0.157688
-0.29036
-0.294785
-0.292688
-0.284558
-0.270906
-0.252191
-0.230762
-0.0313006
0.0153153
0.063281
0.105778
0.136729
0.153588
-0.117489
-0.194689
-0.216181
-0.151876
-0.172818
-0.112939
-0.131951
-0.0790726
-0.0953084
-0.0502316
-0.0641032
-0.0255971
-0.0374046
-0.00482262
-0.014762
0.0126629
0.00429417
0.0274108
0.0203479
0.0398602
0.0338998
0.0503331
0.0453275
0.0590194
0.054894
0.0659295
0.0627031
0.0709028
0.068672
0.0736856
0.0725891
0.0740837
0.074181
0.0721601
0.0734031
0.0681398
0.0703915
0.0623832
0.065455
0.0552434
0.0589684
0.0469556
0.0512345
0.0376184
0.0424165
0.0272594
0.0325652
0.0159562
0.0217156
0.00398294
0.0100255
-0.00807051
-0.00208347
-0.019289
-0.0138495
-0.0286007
-0.0242465
-0.0350905
-0.0322382
-0.0383161
-0.0371174
-0.0384224
-0.0387274
-0.0360526
-0.0374926
-0.0320811
-0.0342108
-0.027339
-0.0297628
-0.0224619
-0.0248846
-0.0178718
-0.0201195
-0.0190556
-0.0157461
-0.0174338
-0.0219255
-0.0205743
-0.0238113
-0.0230137
-0.0244014
-0.0242888
-0.0233692
-0.0241007
-0.020633
-0.0222082
-0.0163191
-0.0186607
-0.0106748
-0.0136414
-0.00412087
-0.00747576
0.00264464
-0.000687408
0.0085198
0.00575527
0.012603
0.0108255
0.0145629
0.013829
0.0148858
0.0148803
0.014562
0.0146702
0.0146378
0.0142421
0.0144234
0.0137562
0.0140277
0.0130494
0.0134244
0.0121728
0.0126324
0.0111128
0.0116679
0.00982425
0.0105009
0.00823409
0.0090724
0.00623987
0.00729479
0.00370854
0.00505057
0.000473204
0.00219028
-0.00367191
-0.00147169
-0.00897798
-0.00616291
-0.0157489
-0.01216
-0.0243472
-0.0197957
-0.0351948
-0.0294628
-0.048758
-0.0416086
-0.0654985
-0.0567067
-0.0857563
-0.0751784
-0.109518
-0.0972248
-0.136048
-0.122525
-0.163445
-0.149811
-0.188419
-0.176489
-0.20664
-0.198656
-0.213803
-0.21183
-0.206989
-0.212224
-0.185441
-0.198062
-0.150875
-0.169563
-0.107151
-0.129874
-0.0589238
-0.0832985
-0.0107253
-0.0345692
0.0339444
0.0122156
0.0729658
0.0542509
0.105263
0.0899931
0.130227
0.118712
0.147256
0.139785
0.152462
-0.188187
-0.183147
0.156737
0.15447
-0.130145
-0.132377
-0.205615
-0.148584
-0.141921
-0.0158671
-0.0140144
0.0148245
0.0146416
-0.179247
-0.144976
-0.140237
-0.12669
-0.103871
-0.0718203
-0.279945
-0.248139
-0.264529
-0.298825
-0.313363
-0.32136
-0.322843
-0.317688
-0.305306
-0.287735
-0.26606
-0.025003
0.0243879
0.0732119
0.114259
0.141879
0.153954
0.149803
0.152838
-0.132687
-0.212457
-0.230651
-0.174305
-0.19383
-0.136712
-0.154868
-0.102518
-0.11929
-0.0721474
-0.0868012
-0.0457757
-0.0584965
-0.0229875
-0.0339477
-0.00351918
-0.0128631
0.0130531
0.00509991
0.0271629
0.0203907
0.0391708
0.0334101
0.0493468
0.0444743
0.057854
0.0538036
0.0647182
0.0614951
0.0698243
0.0675045
0.0729323
0.0716445
0.0738644
0.0736755
0.0725765
0.073496
0.0691608
0.0711238
0.0638301
0.0667191
0.0568434
0.0605285
0.0484292
0.0528035
0.0387556
0.0437415
0.0279743
0.0334927
0.0163211
0.0222359
0.00423509
0.0102951
-0.00757174
-0.00175706
-0.0181639
-0.0130809
-0.0265831
-0.0226968
-0.0321344
-0.0297384
-0.034619
-0.0337465
-0.0343314
-0.0347827
-0.0319639
-0.0333563
-0.0283187
-0.030252
-0.0241115
-0.0262495
-0.0198516
-0.0219625
-0.0178095
-0.0166753
-0.0137718
-0.0152707
-0.0191721
-0.0179922
-0.0209063
-0.0201599
-0.0215181
-0.021373
-0.020727
-0.021307
-0.0184563
-0.0197746
-0.0147655
-0.0167805
-0.00981663
-0.0124332
-0.00390839
-0.00695577
0.00239201
-0.0007518
0.0081131
0.0053914
0.0122693
0.0104333
0.0143826
0.0135766
0.0147637
0.0141632
0.0143219
0.0142604
0.0138336
0.0140189
0.0133018
0.0135904
0.0126002
0.0129701
0.011739
0.01219
0.0106987
0.0112433
0.00943474
0.0100983
0.00787793
0.00869807
0.00593364
0.00696089
0.00348068
0.00477908
0.000368648
0.00201723
-0.00358567
-0.00149093
-0.0086029
-0.00594674
-0.0149458
-0.0115913
-0.0229223
-0.0187099
-0.0328837
-0.0276327
-0.0452101
-0.0387286
-0.0602709
-0.0523796
-0.0783345
-0.0689201
-0.0993952
-0.0885096
-0.12289
-0.110906
-0.147341
-0.135133
-0.170094
-0.15914
-0.187466
-0.179703
-0.195505
-0.192873
-0.191189
-0.195003
-0.173128
-0.184175
-0.14238
-0.15915
-0.102118
-0.123199
-0.0564626
-0.0796806
-0.00980016
-0.0329999
0.0341628
0.0127086
0.0728361
0.0542823
0.104638
0.0896641
0.128638
0.11766
0.144171
0.137508
0.15084
0.148607
0.148684
0.150844
0.142965
0.136858
0.14379
-0.21826
-0.215092
-0.149928
-0.147496
-0.0122969
0.0143064
-0.239353
-0.173039
-0.155998
-0.208182
-0.157038
-0.1494
-0.132278
-0.105479
-0.0693237
-0.280144
-0.246764
-0.25759
-0.294153
-0.316206
-0.334277
-0.346181
-0.351327
-0.349089
-0.339905
-0.323718
-0.30263
-0.0178511
0.0338355
0.082611
0.121088
0.144215
0.151457
0.146359
0.129116
0.127918
0.120451
-0.150358
-0.219385
-0.233515
-0.188711
-0.204403
-0.155882
-0.17254
-0.123182
-0.139281
-0.0931216
-0.107836
-0.0658554
-0.0791005
-0.0417615
-0.0534153
-0.0207181
-0.0308706
-0.00252034
-0.0112808
0.0131349
0.00560312
0.0265801
0.0201138
0.0381042
0.0325663
0.0479287
0.0432178
0.0561895
0.0522498
0.0629138
0.0597462
0.0680067
0.0656759
0.0712696
0.0698793
0.0725212
0.0721556
0.0716578
0.072356
0.0686925
0.0704327
0.0637452
0.0664564
0.0570006
0.0605853
0.0486657
0.0530193
0.0389552
0.0439686
0.0281242
0.033661
0.0165428
0.0223981
0.0047724
0.0106383
-0.00641641
-0.000948185
-0.0161364
-0.0115137
-0.023588
-0.0201837
-0.0282967
-0.0262956
-0.0302422
-0.0296005
-0.0298047
-0.0302801
-0.0276535
-0.028898
-0.0244825
-0.0261547
-0.0208806
-0.022706
-0.0172524
-0.0190505
-0.0138811
-0.015529
-0.0108503
-0.0122966
-0.0120059
-0.00949706
-0.0107351
-0.0144917
-0.0132732
-0.016643
-0.0156196
-0.0181702
-0.0175099
-0.018732
-0.0185879
-0.0181079
-0.0185762
-0.0162128
-0.0173196
-0.0130642
-0.0147905
-0.00876023
-0.0110469
-0.00349945
-0.00623046
0.00228977
-0.000627988
0.00777238
0.00513505
0.0119241
0.0100676
0.0141655
0.0132922
0.0147256
0.0146034
0.0142561
0.0145704
0.0138279
0.0138036
0.0138417
0.0136747
0.0137707
0.0133164
0.0135218
0.0127858
0.0130711
0.0121022
0.0124623
0.0112654
0.0117037
0.0102533
0.0107833
0.00902281
0.00966877
0.00750917
0.00830609
0.0056258
0.00661975
0.00326306
0.00451182
0.00028653
0.00186053
-0.00346545
-0.0014818
-0.00818467
-0.00569156
-0.0140955
-0.0109766
-0.0214552
-0.0175778
-0.0305503
-0.0257682
-0.0416812
-0.0358438
-0.0551291
-0.0481016
-0.0710849
-0.0627895
-0.0895198
-0.0800092
-0.109976
-0.0995487
-0.131291
-0.120634
-0.151362
-0.141651
-0.167169
-0.160011
-0.175256
-0.172383
-0.172587
-0.175425
-0.157695
-0.166362
-0.131161
-0.145813
-0.0950112
-0.114072
-0.0529574
-0.0744632
-0.00909638
-0.0310021
0.0328581
0.0123209
0.0700636
0.0521956
0.100624
0.0862607
0.123398
0.113034
0.13772
0.131646
0.143309
0.141603
0.140336
0.142884
0.135697
-0.250212
-0.249238
0.133896
-0.172376
-0.164755
-0.275227
-0.200194
-0.171715
-0.00941366
-0.00827437
0.0141498
0.0137211
-0.23934
-0.170132
-0.158962
-0.137694
-0.106462
-0.0659339
-0.267249
-0.234268
-0.239637
0.116941
0.110101
-0.273967
-0.303623
-0.330382
-0.351826
-0.367584
-0.376632
-0.378631
-0.372649
-0.359055
-0.339195
-0.00981086
0.0434674
0.0910576
0.125722
0.143776
0.14634
0.137667
-0.170434