/*--------------------------------*- C++ -*----------------------------------*\
  =========                 |
  \\      /  F ield         | OpenFOAM: The Open Source CFD Toolbox
   \\    /   O peration     | Website:  https://openfoam.org
    \\  /    A nd           | Version:  10
     \\/     M anipulation  |
\*---------------------------------------------------------------------------*/
FoamFile
{
    format      ascii;
    class       volVectorField;
    location    "36.5";
    object      U;
}
// * * * * * * * * * * * * * * * * * * * * * * * * * * * * * * * * * * * * * //

dimensions      [0 1 -1 0 0 0 0];

internalField   nonuniform List<vector> 
28942
(
(-0.111572 0.0492397 -3.23355e-20)
(-0.113815 0.0334857 -6.78809e-21)
(0.538071 -0.369927 8.56636e-20)
(1.01551 0.0429978 -1.16479e-19)
(0.993762 0.0526894 3.82502e-20)
(0.277313 0.011697 0)
(0.33882 0.0338358 -1.33373e-23)
(0.375329 0.0100386 9.87713e-23)
(1.21 -0.081561 4.0699e-21)
(1.19692 -0.071716 -9.26833e-21)
(0.0109293 -0.140903 -2.09924e-19)
(0.0873294 -0.111954 9.61308e-20)
(-0.0402383 -0.140015 0)
(-0.0662703 -0.165122 0)
(0.756734 -0.0128337 -6.14466e-22)
(0.748527 -0.010137 -1.28965e-22)
(0.931534 0.0836846 3.24176e-20)
(0.915878 0.0684948 5.12047e-20)
(0.346791 -0.47223 2.73602e-20)
(0.658922 -0.743315 -8.4659e-21)
(0.984231 0.227858 4.6321e-20)
(0.984335 0.211543 0)
(0.12892 0.0178714 1.9105e-19)
(-0.0615437 -0.0406731 1.05683e-19)
(0.892898 -0.145215 2.10411e-19)
(1.27466 -0.240153 -1.91215e-19)
(0.195141 -0.477006 4.52406e-19)
(0.202766 -0.398449 -1.78367e-19)
(0.794082 -0.567286 -2.3286e-20)
(0.491089 -0.336721 -9.36049e-21)
(0.281821 -0.0184495 0)
(0.364201 -0.0256418 -1.64055e-22)
(0.452594 -0.00375571 1.04016e-20)
(0.612869 -0.016321 -2.30017e-21)
(0.439064 0.47719 3.84756e-20)
(0.367938 0.524263 -4.01482e-20)
(0.586201 0.685654 -1.4202e-19)
(0.381908 0.613023 -5.34147e-20)
(0.14796 0.0159066 7.55963e-23)
(0.203005 0.475627 -9.25488e-20)
(0.656894 -0.0597673 0)
(0.855843 -0.0778975 0)
(0.966061 -0.253845 -7.6823e-22)
(0.943865 -0.242782 2.40838e-21)
(0.972319 -0.235546 1.97502e-21)
(0.519998 0.0140241 8.91219e-23)
(0.49261 0.0255916 -1.64274e-22)
(0.650181 0.0152996 -4.85248e-22)
(0.631931 0.0147812 1.32974e-22)
(0.539144 0.0130361 -4.89213e-21)
(0.446002 0.00415043 3.10296e-21)
(1.10951 0.00806478 -2.63337e-21)
(1.10902 0.00556614 -2.15885e-21)
(1.21248 -0.0996106 -2.86588e-22)
(1.19736 -0.0892636 -1.4807e-21)
(1.45381 -0.045435 1.64695e-19)
(1.59806 -0.11307 8.46356e-20)
(-0.0787708 -0.0965941 -1.23719e-19)
(-0.0224192 -0.10662 0)
(-0.0345248 -0.0647242 4.50221e-20)
(-0.0756989 -0.0709487 1.08432e-19)
(-0.0462416 -0.042493 -8.69592e-20)
(-0.0505147 -0.0507394 -9.01567e-20)
(1.41296 -0.53672 0)
(1.57867 -0.431257 3.39601e-20)
(1.42849 -0.368141 -1.52765e-20)
(1.34934 -0.382786 0)
(0.948606 -0.235706 -2.60831e-20)
(0.969983 -0.253456 -1.6487e-20)
(-0.0632908 0.037689 1.07399e-19)
(-0.0820922 0.0486872 -3.43698e-20)
(-0.112297 0.0730052 8.69694e-20)
(0.957494 -0.322036 0)
(0.966123 -0.283099 8.68255e-20)
(0.906498 -0.437363 2.01379e-20)
(1.44065 0.325678 2.89414e-20)
(1.47665 0.306007 -3.18256e-20)
(1.45367 0.263384 -1.67582e-20)
(0.169838 -0.0947459 4.42542e-21)
(0.245949 -0.14966 -8.42805e-20)
(1.08786 -0.654178 -1.94125e-20)
(0.834995 -0.553318 2.47248e-20)
(-0.0809633 0.0474424 1.85226e-19)
(-0.0882992 0.0496991 -7.14093e-20)
(1.24962 0.593543 -1.26992e-21)
(1.17754 0.559033 -2.89639e-20)
(1.07332 0.660139 2.43279e-20)
(0.921629 0.652506 -7.859e-20)
(0.878874 0.625944 5.43706e-20)
(0.656005 0.452918 -2.53806e-21)
(0.722091 0.543524 -1.70183e-20)
(0.762571 0.625633 2.64283e-20)
(-0.165606 -0.0410743 -2.44258e-20)
(-0.0465153 -0.0103284 -6.66679e-21)
(-0.150385 -0.140624 1.33381e-20)
(-0.193296 -0.140524 -1.64241e-19)
(-0.194367 -0.130461 2.08588e-19)
(0.364643 0.289545 -9.60825e-20)
(0.412055 0.355627 2.15276e-20)
(-0.0303319 0.0247454 0)
(1.00707 0.00437693 0)
(0.965349 0.0536746 -8.69972e-20)
(0.889406 0.135766 6.34509e-20)
(1.07973 0.118645 0)
(1.4177 0.0439539 0)
(1.4222 0.0369586 0)
(1.44082 0.0461869 2.80729e-20)
(1.0782 0.163101 -9.11299e-21)
(1.07462 0.174322 9.30493e-20)
(1.06803 0.153127 4.93479e-20)
(-0.088423 -0.120824 2.47937e-19)
(-0.0961169 -0.135211 -2.78119e-19)
(-0.02474 0.0262134 -5.72595e-20)
(-0.0822922 -0.0037258 5.21219e-20)
(-0.118182 -0.00271588 1.09398e-19)
(0.169497 0.222879 8.34283e-20)
(0.388337 0.22212 2.01254e-19)
(0.297907 0.440014 1.48245e-20)
(0.132692 0.339811 -4.88471e-19)
(1.27138 0.467131 2.83072e-21)
(1.1246 0.441755 4.94501e-20)
(1.15861 0.423457 -8.53975e-20)
(0.870814 -0.667097 -5.64459e-21)
(0.597625 -0.431124 1.0998e-20)
(0.160876 -0.0236843 -2.44313e-19)
(0.149883 -0.100391 0)
(0.312555 -0.066191 1.3358e-19)
(0.554347 -0.42377 -7.76101e-22)
(0.781605 -0.655176 1.41873e-20)
(0.617673 0.0169218 9.47381e-23)
(0.651198 0.0160764 -4.13262e-22)
(0.577891 0.0151143 -1.05986e-23)
(0.53168 -0.797023 0)
(0.557207 -0.620644 0)
(1.06163 -0.133218 -1.93085e-20)
(1.04785 -0.114986 1.13906e-19)
(1.03207 -0.0810418 0)
(0.877277 -0.764164 0)
(0.869308 -0.696593 -1.73168e-20)
(0.735906 0.720642 9.01408e-20)
(-0.137787 -0.145482 1.55074e-19)
(-0.122817 -0.133518 -1.12286e-19)
(0.596521 -0.547963 -4.85358e-22)
(0.997807 -0.22581 1.07244e-20)
(0.984083 -0.214884 -2.31879e-21)
(1.52563 -0.0553526 -2.31173e-20)
(1.52469 -0.00649935 3.09295e-20)
(1.49628 0.00857673 1.0036e-19)
(-0.114217 -0.125956 5.51962e-20)
(0.846357 0.702377 1.22694e-19)
(0.980592 0.680095 -3.54394e-20)
(1.05612 0.722977 -3.34824e-24)
(0.432779 -0.0128001 1.37804e-22)
(0.431266 -0.0143831 3.59015e-22)
(0.471582 -0.0183201 7.67261e-23)
(0.513387 -0.0162358 -4.12742e-22)
(0.794556 0.693677 1.6485e-20)
(0.42872 0.409911 0)
(0.0037788 -0.051329 7.87473e-20)
(0.00284628 -0.0248924 -8.66725e-20)
(-0.0712168 0.0536634 5.7979e-20)
(0.462479 0.0834764 -1.28958e-19)
(0.999355 0.259041 -6.16892e-20)
(0.582396 -0.0165939 7.76323e-23)
(1.45241 -0.471919 3.69247e-20)
(1.40133 -0.560776 9.72381e-20)
(0.965733 0.251382 1.06793e-19)
(0.946463 0.290773 7.17583e-21)
(0.92749 0.169993 5.93453e-20)
(0.943639 0.176519 -4.28718e-20)
(0.989946 0.253541 0)
(1.12676 0.00598233 4.75071e-21)
(1.13074 0.00163359 8.77635e-21)
(1.15142 -0.0504491 8.02327e-22)
(1.15871 -0.0509817 -1.82778e-21)
(1.09002 0.1517 1.09449e-20)
(1.10284 0.159875 -3.09059e-20)
(1.09053 0.162774 0)
(1.07811 0.152526 6.62387e-21)
(1.08865 0.173876 0)
(1.09357 0.228561 -2.47173e-20)
(1.08719 0.24262 -1.37077e-20)
(1.06496 0.267176 -2.54495e-20)
(1.07758 0.255823 0)
(1.09867 0.277258 8.26227e-20)
(1.08194 0.291356 2.58081e-21)
(1.04887 0.283878 -1.47338e-20)
(0.997248 0.339803 -6.43305e-20)
(0.995011 0.281176 -1.11715e-20)
(0.118744 0.3767 2.64631e-20)
(0.246274 0.320075 -9.8655e-21)
(-0.100019 0.0249588 -7.93791e-20)
(0.558175 0.0132247 1.50295e-22)
(0.685846 0.0154885 0)
(0.0126821 -0.0053872 8.20449e-20)
(0.0127225 -0.00512604 3.93677e-20)
(0.641752 0.015946 3.86621e-22)
(0.731363 0.0170553 1.03281e-22)
(0.723539 0.0172709 0)
(0.628173 0.0182072 9.41555e-23)
(0.966459 0.54288 4.34904e-21)
(0.96173 0.553266 -2.27519e-20)
(0.951431 0.546284 -1.01107e-20)
(-0.108351 -0.1415 1.05591e-19)
(-0.0577405 -0.0632689 -1.3551e-19)
(-0.0721686 -0.0790756 1.2739e-19)
(-0.0737521 -0.0533633 0)
(-0.0375374 -0.0231545 1.86538e-19)
(-0.0357579 -0.0272312 -1.60904e-19)
(-0.0559076 -0.0205125 -1.66765e-19)
(-0.110998 -0.0492952 -1.65067e-19)
(-0.0663126 -0.0346307 0)
(0.0569732 0.216417 0)
(0.025534 0.129635 0)
(0.0101911 0.0720631 0)
(1.40122 0.0290895 -3.1136e-21)
(1.38045 0.0157686 0)
(1.40332 0.0185643 3.40789e-21)
(0.931364 -0.108134 1.9109e-19)
(0.944838 -0.1146 -6.93782e-20)
(0.941496 -0.0979569 0)
(0.971934 -0.617722 6.37871e-22)
(0.982824 -0.624114 -1.29453e-21)
(0.959186 -0.601274 5.09845e-22)
(0.99205 -0.623313 0)
(0.999471 -0.617579 6.55429e-22)
(1.0051 -0.609262 0)
(1.01569 -0.613609 0)
(1.0096 -0.600146 -2.31691e-21)
(1.01763 -0.60317 0)
(1.01266 -0.623272 7.08744e-22)
(1.00779 -0.630587 0)
(1.0014 -0.633098 -4.67e-22)
(0.993454 -0.628247 6.83145e-22)
(0.983787 -0.612951 -5.09017e-22)
(1.01281 -0.591177 2.21606e-21)
(1.01821 -0.592959 7.65316e-23)
(0.945078 -0.571776 -1.69082e-23)
(0.972013 -0.583812 8.89417e-22)
(0.93095 -0.527666 -4.93062e-21)
(1.0147 -0.583168 -1.99761e-24)
(1.0177 -0.583676 7.48302e-23)
(0.960878 -0.539343 -1.89194e-21)
(1.01551 -0.576708 -2.05805e-21)
(1.01536 -0.572291 2.05633e-21)
(1.01622 -0.576097 -1.52448e-22)
(1.01375 -0.570603 -3.07791e-22)
(0.916474 -0.468254 4.79923e-21)
(0.949762 -0.478052 1.27703e-21)
(1.01427 -0.570176 0)
(1.0103 -0.567426 3.0362e-22)
(0.903235 -0.391726 -6.73935e-25)
(0.938615 -0.399583 6.74871e-25)
(1.0123 -0.570111 0)
(1.00586 -0.566382 0)
(0.892013 -0.300749 0)
(0.929368 -0.305862 0)
(1.00946 -0.571235 0)
(1.00046 -0.56667 -1.6728e-22)
(0.883116 -0.197932 2.96925e-21)
(0.921936 -0.200127 7.44554e-25)
(1.0059 -0.571913 -9.19107e-24)
(0.99421 -0.566716 1.79131e-22)
(0.877242 -0.0873513 -2.98275e-21)
(0.917007 -0.0866948 0)
(1.00169 -0.569967 0)
(0.987212 -0.564335 0)
(0.874153 0.0266556 1.95079e-22)
(0.914493 0.0298652 -3.40813e-21)
(0.996924 -0.563014 -1.43125e-21)
(0.979666 -0.557065 0)
(0.874023 0.13971 6.36765e-23)
(0.914284 0.144892 3.22978e-21)
(0.991754 -0.548761 2.21079e-21)
(0.971616 -0.54237 6.38362e-22)
(0.877031 0.248851 -2.98227e-21)
(0.915611 0.255091 0)
(0.985861 -0.525534 -7.74945e-22)
(0.963307 -0.518748 -4.35924e-22)
(0.881967 0.347808 1.42942e-21)
(0.918991 0.35525 -2.97271e-21)
(0.980265 -0.492339 3.48619e-21)
(0.955212 -0.484229 -3.92338e-21)
(0.890329 0.435133 -1.27629e-21)
(0.923959 0.443297 -4.21161e-23)
(0.974521 -0.44847 0)
(0.947357 -0.438798 -1.95001e-21)
(0.900108 0.50508 2.48202e-21)
(0.930921 0.51368 -5.07478e-21)
(0.96852 -0.391012 0)
(0.939317 -0.382722 0)
(0.860458 0.424103 1.26268e-21)
(0.872774 0.493467 4.29465e-21)
(0.912152 0.557347 0)
(0.93969 0.566549 2.36129e-21)
(0.843892 0.241368 8.4256e-22)
(0.850622 0.339703 -1.67423e-22)
(0.840287 0.0265641 0)
(0.840473 0.136912 3.07191e-21)
(0.850215 -0.19035 6.03645e-24)
(0.843504 -0.0836239 0)
(0.873091 -0.377812 0)
(0.860169 -0.289541 0)
(0.90463 -0.512157 0)
(0.887609 -0.45184 0)
(0.937764 -0.586139 -8.86223e-22)
(0.921484 -0.555988 -2.6005e-22)
(0.966507 -0.611953 7.92032e-22)
(0.953125 -0.604084 8.82989e-22)
(0.988048 -0.609108 -1.21727e-21)
(0.978205 -0.613116 -1.56443e-21)
(1.0029 -0.59475 0)
(0.99611 -0.602413 0)
(1.01276 -0.580203 4.68437e-24)
(1.00842 -0.587077 0)
(1.01828 -0.571526 0)
(1.016 -0.574855 0)
(1.02027 -0.571361 0)
(1.01967 -0.570454 0)
(1.01943 -0.574778 0)
(1.02017 -0.573343 0)
(1.01644 -0.567155 0)
(1.01824 -0.573497 0)
(1.01143 -0.530947 0)
(1.01442 -0.553544 0)
(1.00391 -0.453287 1.69126e-21)
(1.00866 -0.498044 0)
(0.999728 -0.396758 6.20929e-22)
(0.961747 -0.323035 -5.83149e-22)
(0.931255 -0.3156 5.78234e-22)
(0.933926 -0.475107 0)
(0.913197 -0.374464 2.08424e-21)
(0.923294 -0.430209 1.04489e-21)
(0.955187 -0.533216 -2.04107e-22)
(0.944657 -0.50929 8.25215e-22)
(0.975358 -0.555827 -5.29663e-24)
(0.965502 -0.548082 0)
(0.993266 -0.55966 0)
(0.984693 -0.558864 0)
(1.00759 -0.562317 0)
(1.00093 -0.560298 0)
(1.01796 -0.572836 0)
(1.01325 -0.566436 -5.57213e-28)
(1.02469 -0.591506 -4.87234e-24)
(1.02176 -0.581307 0)
(1.02747 -0.614747 0)
(1.02667 -0.602959 0)
(1.02533 -0.634681 0)
(1.02715 -0.625892 0)
(1.01707 -0.635704 0)
(1.02184 -0.638951 4.44081e-22)
(1.00267 -0.594284 -1.70843e-22)
(1.01096 -0.62181 7.05166e-22)
(0.985779 -0.487784 0)
(0.994457 -0.550353 6.47521e-22)
(0.96991 -0.312242 0)
(0.977307 -0.407868 0)
(0.959797 -0.0885429 0)
(0.96397 -0.204254 0)
(0.956884 0.147097 0)
(0.957521 0.0301063 0)
(0.958812 0.358659 8.04433e-22)
(0.957189 0.257709 0)
(0.964649 0.516928 2.65516e-21)
(0.960846 0.445682 7.74385e-22)
(0.969319 0.570184 -2.41414e-21)
(0.887154 0.544354 -4.04894e-21)
(0.994937 -0.328887 -1.28376e-21)
(0.903758 -0.308551 2.29572e-21)
(0.949282 0.601197 0)
(0.974728 0.604966 0)
(0.902314 0.577481 0)
(0.92499 0.591125 0)
(0.834514 0.411826 0)
(0.864687 0.526412 -8.9868e-22)
(0.848511 0.47749 -1.17772e-21)
(0.815772 0.236921 -1.6364e-21)
(0.823415 0.330911 3.19874e-22)
(0.812076 0.0287993 -5.16402e-24)
(0.812007 0.134964 0)
(0.823307 -0.181343 0)
(0.815837 -0.0780247 0)
(0.848377 -0.362908 0)
(0.834208 -0.277275 0)
(0.88272 -0.494117 0)
(0.864536 -0.435159 0)
(0.919803 -0.568865 0)
(0.901356 -0.537935 0)
(0.952507 -0.597291 3.08314e-24)
(0.936921 -0.587706 -8.54688e-22)
(0.978733 -0.598358 2.45295e-24)
(0.966581 -0.600368 1.45418e-21)
(0.998023 -0.587397 0)
(0.989151 -0.59351 0)
(1.01205 -0.575394 -2.30397e-24)
(1.00561 -0.58108 0)
(1.02189 -0.568712 0)
(1.01743 -0.571094 0)
(1.02849 -0.570123 0)
(1.02554 -0.56848 0)
(1.03278 -0.574667 0)
(1.03089 -0.572717 0)
(1.03538 -0.567945 0)
(1.03434 -0.573857 0)
(1.03616 -0.532723 0)
(1.03617 -0.554868 0)
(1.03428 -0.456737 -1.14052e-21)
(1.03586 -0.50052 0)
(0.955523 -0.245303 0)
(0.990544 -0.251475 -1.41166e-21)
(1.02973 -0.33469 0)
(1.03238 -0.401734 -1.21549e-21)
(0.89108 -0.366064 -1.8411e-21)
(0.880301 -0.301984 -4.82365e-22)
(0.894764 -0.234226 -4.41721e-21)
(0.923803 -0.23915 0)
(0.915463 -0.465017 0)
(0.902988 -0.420996 2.77631e-21)
(0.940664 -0.522173 -5.64357e-24)
(0.928114 -0.49855 -8.30222e-22)
(0.965122 -0.545261 5.29665e-24)
(0.953069 -0.537067 0)
(0.987373 -0.550536 0)
(0.976647 -0.548906 0)
(1.00587 -0.555153 0)
(0.99714 -0.552132 0)
(1.02044 -0.567526 0)
(1.01361 -0.560237 5.57215e-28)
(1.03176 -0.587833 9.60569e-24)
(1.02647 -0.576827 0)
(1.03986 -0.612985 0)
(1.03626 -0.600105 0)
(1.04373 -0.635635 -2.18036e-22)
(1.04238 -0.625392 0)
(1.04195 -0.639666 0)
(1.04348 -0.641345 2.17115e-22)
(1.03454 -0.600697 -6.26712e-22)
(1.03902 -0.627198 -5.66892e-22)
(1.02326 -0.495443 0)
(1.02928 -0.557184 0)
(1.01201 -0.318488 0)
(1.01738 -0.415099 0)
(1.00413 -0.0918671 0)
(1.00754 -0.209134 0)
(1.00051 0.146528 0)
(1.00184 0.0283225 0)
(0.999631 0.359792 -1.31812e-23)
(0.999863 0.258325 0)
(0.999787 0.518175 1.10647e-23)
(0.999516 0.447185 0)
(1.00184 0.606571 2.41879e-21)
(1.00069 0.571593 -2.41715e-21)
(0.882142 0.558882 -1.61e-21)
(0.980782 0.6231 0)
(1.00384 0.625036 3.78648e-21)
(0.958921 0.618657 0)
(1.02758 -0.258213 0)
(0.870657 -0.229025 4.97267e-22)
(0.917743 0.594216 -3.93238e-21)
(0.900286 0.57645 -1.3915e-21)
(0.986783 0.628399 -8.70963e-22)
(1.00553 0.630735 -4.71809e-21)
(0.937864 0.608587 0)
(1.06616 -0.33853 -5.20057e-21)
(1.06534 -0.263366 2.66638e-21)
(0.8876 -0.152976 1.13072e-21)
(0.863034 -0.148926 -5.51117e-21)
(0.886131 0.555478 -5.02572e-21)
(0.918872 0.582426 2.8783e-21)
(0.926189 0.561421 9.51378e-21)
(0.907225 0.562139 2.65697e-21)
(0.845545 0.506914 -1.67246e-21)
(0.865218 0.538028 4.55257e-21)
(0.812746 0.398062 1.98764e-21)
(0.827842 0.460334 1.27915e-21)
(0.792341 0.231589 6.26125e-22)
(0.800686 0.320901 5.26247e-22)
(0.788449 0.0309099 5.16402e-24)
(0.78818 0.133451 0)
(0.801036 -0.171718 0)
(0.792806 -0.0721125 0)
(0.828051 -0.347021 0)
(0.81286 -0.264238 0)
(0.864983 -0.474984 0)
(0.845601 -0.417412 0)
(0.90498 -0.550086 0)
(0.88505 -0.51873 0)
(0.941355 -0.581477 0)
(0.923924 -0.570272 0)
(0.971295 -0.585983 -1.97814e-25)
(0.957188 -0.586166 0)
(0.994486 -0.578157 0)
(0.983665 -0.582803 0)
(1.01239 -0.568547 -2.08507e-24)
(1.004 -0.573114 0)
(1.02632 -0.563654 0)
(1.01978 -0.56521 0)
(1.03742 -0.566298 0)
(1.03215 -0.564106 0)
(1.04678 -0.571604 0)
(1.04228 -0.569316 0)
(1.05501 -0.565575 0)
(1.05108 -0.571117 0)
(1.06168 -0.531431 0)
(1.05862 -0.552952 0)
(1.06562 -0.457394 -5.70214e-22)
(1.06408 -0.499867 2.81073e-22)
(1.06616 -0.403717 2.5532e-21)
(0.950412 -0.161454 6.43279e-22)
(1.02509 -0.173127 -2.85538e-21)
(0.986544 -0.167146 2.03461e-21)
(0.917057 -0.156841 0)
(0.873008 -0.356609 1.38373e-21)
(0.850976 -0.223778 4.32821e-21)
(0.861248 -0.294258 -3.20642e-21)
(0.899856 -0.452633 0)
(0.886188 -0.409781 0)
(0.928325 -0.508873 4.83762e-25)
(0.913983 -0.485405 0)
(0.95664 -0.532481 0)
(0.942604 -0.523901 0)
(0.982821 -0.539322 4.18544e-24)
(0.970139 -0.536812 0)
(1.00518 -0.545934 0)
(0.99452 -0.541919 0)
(1.02377 -0.56002 0)
(1.01489 -0.551928 0)
(1.03956 -0.58176 -4.73336e-24)
(1.03197 -0.570046 0)
(1.0528 -0.608538 -5.21741e-24)
(1.04653 -0.594793 0)
(1.06271 -0.633412 0)
(1.05826 -0.621965 0)
(1.06788 -0.640336 0)
(1.06598 -0.640518 0)
(1.06748 -0.604019 0)
(1.06838 -0.629378 0)
(1.06246 -0.499804 0)
(1.06536 -0.561382 0)
(1.05589 -0.322241 1.38668e-23)
(1.05916 -0.419361 0)
(1.05028 -0.09423 0)
(1.05291 -0.212202 0)
(1.04579 0.145169 0)
(1.04795 0.0265711 0)
(1.04126 0.358629 5.18564e-26)
(1.04363 0.25716 0)
(1.03581 0.517129 -7.48986e-26)
(1.03865 0.446149 0)
(1.03018 0.604741 -8.89494e-24)
(1.03285 0.569993 0)
(1.0253 0.629427 3.36588e-21)
(1.02768 0.623674 -1.00477e-21)
(1.00687 0.627775 -7.9618e-22)
(1.0231 0.626638 -1.79971e-21)
(0.933515 0.599596 1.68899e-21)
(0.968747 0.623363 1.7089e-21)
(1.0644 -0.178974 -7.11835e-22)
(0.842637 -0.146351 -3.45018e-21)
(0.937344 0.582097 -4.20716e-23)
(0.992097 0.625601 0)
(0.946441 0.561019 -1.41585e-20)
(1.02086 0.620173 -1.98221e-21)
(1.00791 0.621321 -2.75296e-21)
(0.946936 0.536123 1.91954e-20)
(0.964762 0.534804 -3.25374e-21)
(0.950537 0.61353 0)
(0.915044 0.538105 -2.35043e-21)
(0.932652 0.53631 -1.13753e-21)
(0.873896 0.531324 -2.52392e-21)
(0.895861 0.537722 3.36362e-21)
(0.830011 0.485642 1.62744e-21)
(0.85126 0.51492 6.44044e-22)
(0.795021 0.382278 -9.28957e-22)
(0.811103 0.441398 -8.29547e-22)
(0.773381 0.224817 0)
(0.782346 0.309558 -4.94001e-23)
(0.769393 0.033226 0)
(0.769007 0.131473 0)
(0.783223 -0.16134 -3.91132e-24)
(0.774244 -0.0656423 0)
(0.811969 -0.330158 0)
(0.795922 -0.250352 0)
(0.850885 -0.454648 0)
(0.830541 -0.398491 0)
(0.893159 -0.529941 0)
(0.872039 -0.498137 0)
(0.932455 -0.564089 -2.32054e-24)
(0.913485 -0.551309 0)
(0.965575 -0.571947 -2.20187e-25)
(0.949843 -0.570395 0)
(0.992223 -0.567138 0)
(0.979653 -0.570384 0)
(1.01368 -0.559768 4.01991e-24)
(1.0035 -0.5633 0)
(1.03144 -0.556452 0)
(1.02294 -0.557299 0)
(1.04685 -0.560035 0)
(1.03936 -0.557449 0)
(1.06116 -0.565808 0)
(1.05409 -0.563318 0)
(1.07491 -0.560299 0)
(1.06812 -0.565529 0)
(1.08741 -0.527202 0)
(1.08135 -0.548111 0)
(1.09717 -0.455238 2.90748e-22)
(1.09258 -0.496497 0)
(1.10289 -0.339534 0)
(1.1003 -0.402875 6.05956e-22)
(1.10364 -0.183718 1.20401e-23)
(1.10384 -0.265949 0)
(1.02236 -0.0829042 2.89565e-21)
(1.10287 -0.0938361 -1.75763e-22)
(1.06272 -0.088009 -1.47614e-21)
(0.946209 -0.0735493 -1.00391e-21)
(0.983104 -0.0773622 7.02905e-22)
(0.882596 -0.0672001 3.40882e-22)
(0.912335 -0.0702446 -2.96529e-22)
(0.836761 -0.0650024 0)
(0.857352 -0.0653265 2.47027e-21)
(0.835111 -0.217586 9.07995e-22)
(0.820609 -0.0647827 1.81864e-21)
(0.826726 -0.14333 -4.01972e-21)
(0.858485 -0.345314 4.19831e-22)
(0.845996 -0.285171 0)
(0.887179 -0.438504 0)
(0.872529 -0.396685 0)
(0.918238 -0.49387 5.23102e-25)
(0.902475 -0.470759 0)
(0.949932 -0.517905 0)
(0.934179 -0.508977 0)
(0.979588 -0.526293 -4.18544e-24)
(0.965174 -0.522897 0)
(1.00544 -0.534857 0)
(0.993017 -0.529881 0)
(1.02779 -0.550468 0)
(1.01697 -0.541689 0)
(1.04787 -0.573301 0)
(1.03806 -0.561064 0)
(1.06616 -0.60129 2.52707e-25)
(1.05725 -0.586891 0)
(1.08209 -0.627916 0)
(1.0745 -0.615501 0)
(1.09424 -0.637375 0)
(1.08875 -0.636208 0)
(1.10109 -0.603893 0)
(1.09839 -0.62782 0)
(1.10256 -0.501618 0)
(1.10242 -0.56241 0)
(1.10059 -0.32444 -1.38668e-23)
(1.10186 -0.421517 0)
(1.09699 -0.0962694 0)
(1.09897 -0.214299 0)
(1.09154 0.142751 0)
(1.09457 0.0244362 0)
(1.08317 0.355219 1.31265e-23)
(1.08777 0.254308 0)
(1.0718 0.512885 -1.10412e-23)
(1.07782 0.442244 0)
(1.05877 0.600524 8.79429e-24)
(1.06536 0.565619 0)
(1.04607 0.625519 -9.34705e-22)
(1.05221 0.619469 1.91753e-21)
(1.03453 0.616806 7.50085e-22)
(1.04002 0.623225 -1.47739e-21)
(1.0184 0.613823 2.68536e-22)
(1.02878 0.610021 -1.13199e-21)
(0.949617 0.598979 1.40019e-21)
(0.977382 0.620295 0)
(0.954478 0.579971 1.06549e-20)
(0.995894 0.619876 0)
(1.14334 -0.185693 7.12302e-22)
(1.14364 -0.0983688 -5.13154e-22)
(0.833875 0.0186332 1.99953e-21)
(0.818254 0.0170167 2.002e-21)
(0.963791 0.566379 8.94783e-21)
(1.00862 0.615417 2.78045e-21)
(0.979858 0.543991 0)
(0.948702 0.518313 1.79066e-21)
(1.01505 0.609988 1.30449e-21)
(1.02269 0.605198 -1.41052e-21)
(0.970387 0.523689 -3.79032e-21)
(0.962951 0.61169 0)
(0.909415 0.515088 0)
(0.929091 0.515936 1.74975e-21)
(0.865229 0.507007 0)
(0.888271 0.513092 0)
(0.818791 0.464817 0)
(0.841499 0.492165 -6.67299e-22)
(0.781885 0.367431 0)
(0.798764 0.423339 0)
(0.759264 0.218104 0)
(0.768556 0.298352 0)
(0.754999 0.0358891 0)
(0.754648 0.129421 0)
(0.769688 -0.150164 3.91132e-24)
(0.760152 -0.058539 0)
(0.799832 -0.312422 0)
(0.783094 -0.235608 0)
(0.840214 -0.433405 0)
(0.819141 -0.378615 0)
(0.884177 -0.508665 0)
(0.862168 -0.476507 0)
(0.925703 -0.545279 2.89743e-25)
(0.905535 -0.531053 0)
(0.961491 -0.556328 -2.38048e-25)
(0.944384 -0.553144 0)
(0.991156 -0.554439 0)
(0.977041 -0.556319 0)
(1.01585 -0.549211 -1.72706e-25)
(1.00403 -0.551766 0)
(1.03715 -0.547288 0)
(1.02683 -0.54753 0)
(1.05661 -0.551539 0)
(1.04701 -0.548703 0)
(1.07562 -0.55749 0)
(1.06611 -0.554937 0)
(1.09465 -0.55229 0)
(1.08515 -0.557291 0)
(1.11273 -0.520189 0)
(1.10386 -0.540457 0)
(1.1281 -0.449904 0)
(1.12072 -0.490205 0)
(1.13857 -0.337764 -6.31249e-22)
(1.13384 -0.398896 -6.15197e-22)
(1.14177 -0.265947 1.36907e-21)
(1.0196 0.0102954 1.46488e-21)
(1.10172 -0.000136514 0)
(1.0604 0.00562972 1.49352e-21)
(0.943337 0.0162024 0)
(0.980309 0.0136666 -1.49518e-21)
(0.879873 0.0198041 -1.84263e-21)
(0.909529 0.0179348 6.5512e-22)
(0.854523 0.0202453 3.40407e-21)
(0.823345 -0.210021 -3.52787e-22)
(0.809418 -0.0634205 -1.44192e-21)
(0.815212 -0.139446 0)
(0.847414 -0.333063 7.21358e-22)
(0.83454 -0.275145 -7.23248e-22)
(0.877167 -0.42312 0)
(0.861807 -0.382613 0)
(0.910503 -0.477425 5.47842e-25)
(0.893527 -0.454675 0)
(0.945028 -0.501723 0)
(0.927819 -0.492473 0)
(0.977654 -0.511653 0)
(0.961751 -0.50737 0)
(1.00658 -0.522082 0)
(0.992595 -0.516208 0)
(1.03239 -0.538994 0)
(1.01978 -0.529654 0)
(1.05651 -0.562591 -3.93849e-24)
(1.0446 -0.550008 0)
(1.07966 -0.591319 4.9647e-24)
(1.06821 -0.576519 0)
(1.1015 -0.619189 0)
(1.09081 -0.606055 0)
(1.12056 -0.630808 0)
(1.11151 -0.628441 0)
(1.13469 -0.600197 0)
(1.12837 -0.622644 0)
(1.14261 -0.500525 0)
(1.13943 -0.560124 0)
(1.14502 -0.324961 0)
(1.14441 -0.421344 0)
(1.14313 -0.0981174 0)
(1.14461 -0.21544 0)
(1.13652 0.138991 1.37655e-23)
(1.1405 0.0217111 0)
(1.12425 0.349241 -1.23683e-23)
(1.1311 0.249439 0)
(1.1069 0.505131 1.03196e-23)
(1.11611 0.435274 0)
(1.08681 0.592375 0)
(1.097 0.557446 0)
(1.06684 0.618397 0)
(1.07667 0.611653 0)
(1.04883 0.61017 -4.77356e-24)
(1.05744 0.616585 -7.4455e-22)
(1.03117 0.597694 2.39581e-21)
(1.04005 0.603056 0)
(1.01593 0.603543 1.52531e-21)
(1.02166 0.595162 -2.03783e-22)
(0.963924 0.596407 -3.81211e-21)
(0.984606 0.614979 0)
(1.14184 -0.00588657 2.84164e-21)
(0.80689 0.0142779 2.94228e-21)
(0.968809 0.582548 1.71258e-21)
(0.981792 0.557533 2.25728e-22)
(0.980735 0.571762 -4.17466e-21)
(0.999179 0.614567 0)
(1.00798 0.612409 -5.74289e-22)
(0.989579 0.535652 3.1722e-21)
(1.00037 0.54916 -3.19405e-21)
(0.996098 0.56237 3.3828e-21)
(1.01101 0.609426 1.59821e-21)
(1.00799 0.604772 -9.21384e-22)
(1.01127 0.595135 -8.87461e-22)
(0.973903 0.607546 0)
(0.951225 0.500855 -8.45101e-23)
(0.990903 0.517259 -2.00901e-22)
(0.972757 0.507924 -6.38819e-22)
(0.907734 0.492479 -7.76127e-22)
(0.929597 0.495721 7.80616e-22)
(0.860414 0.482274 -1.67834e-24)
(0.88503 0.488934 0)
(0.811574 0.443195 0)
(0.835375 0.4683 0)
(0.772826 0.352051 0)
(0.790468 0.40456 0)
(0.749541 0.21098 0)
(0.759063 0.286831 0)
(0.745016 0.0386248 -2.87858e-24)
(0.744755 0.127175 0)
(0.760156 -0.138429 0)
(0.750287 -0.0510692 0)
(0.791288 -0.294059 0)
(0.774047 -0.220225 0)
(0.83269 -0.411546 0)
(0.81111 -0.3581 0)
(0.877821 -0.486591 0)
(0.855189 -0.454173 0)
(0.920979 -0.52535 2.0308e-24)
(0.899918 -0.509839 0)
(0.958938 -0.539386 -2.5051e-25)
(0.940689 -0.534681 0)
(0.991193 -0.540257 0)
(0.975737 -0.540834 0)
(1.01878 -0.537053 -3.33345e-24)
(1.00548 -0.538695 0)
(1.04331 -0.536331 0)
(1.03133 -0.536077 0)
(1.06651 -0.540966 0)
(1.05497 -0.538031 0)
(1.08988 -0.54678 0)
(1.07811 -0.544318 0)
(1.11382 -0.541631 0)
(1.1018 -0.546522 0)
(1.1371 -0.510417 0)
(1.12564 -0.530104 0)
(1.15755 -0.442049 -8.17701e-24)
(1.14779 -0.48124 0)
(1.1729 -0.332809 6.33994e-22)
(1.16609 -0.39244 0)
(1.1809 -0.185378 -7.19844e-22)
(1.178 -0.2634 0)
(1.18057 -0.0105497 -6.73291e-22)
(1.18198 -0.100656 7.01041e-22)
(1.09843 0.0935882 -1.45333e-21)
(1.17719 0.0814713 0)
(1.13867 0.0882271 -2.10759e-21)
(1.01709 0.102283 0)
(1.05727 0.0987795 0)
(0.941869 0.105284 0)
(0.978287 0.104288 0)
(0.879553 0.10577 0)
(0.908691 0.105616 0)
(0.834215 0.101106 -2.03796e-21)
(0.854446 0.104167 -5.60125e-22)
(0.807963 0.0907232 -3.63393e-22)
(0.818955 0.0966717 -3.55298e-21)
(0.801916 -0.0625784 -1.65908e-21)
(0.801214 0.0846458 -2.54056e-22)
(0.799674 0.0112037 6.22074e-22)
(0.815753 -0.201913 -3.14511e-22)
(0.807532 -0.134298 2.04683e-21)
(0.839476 -0.319847 7.44154e-25)
(0.826675 -0.264327 0)
(0.869925 -0.407006 0)
(0.853985 -0.367601 0)
(0.90503 -0.459811 5.60132e-25)
(0.88706 -0.437618 0)
(0.941858 -0.484213 0)
(0.923462 -0.474699 0)
(0.97694 -0.495637 0)
(0.959799 -0.490493 0)
(1.00852 -0.507792 0)
(0.993167 -0.501107 0)
(1.03743 -0.52574 0)
(1.0232 -0.515984 0)
(1.06529 -0.549748 7.50896e-24)
(1.05142 -0.53701 0)
(1.093 -0.578737 0)
(1.07915 -0.563793 0)
(1.12048 -0.607292 0)
(1.10683 -0.593719 0)
(1.14626 -0.620672 0)
(1.13374 -0.61726 0)
(1.16753 -0.59306 0)
(1.15766 -0.613883 0)
(1.18169 -0.49678 1.08288e-23)
(1.1756 -0.554712 0)
(1.18813 -0.324053 0)
(1.18583 -0.419099 0)
(1.18757 -0.0998953 0)
(1.18872 -0.215822 0)
(1.17961 0.133882 -1.37655e-23)
(1.1846 0.0183408 0)
(1.16346 0.340702 6.7689e-25)
(1.17254 0.24256 0)
(1.14036 0.494017 -2.00254e-23)
(1.15263 0.425283 0)
(1.11355 0.580382 0)
(1.12717 0.545642 0)
(1.08696 0.607241 0)
(1.10003 0.599906 0)
(1.06272 0.600486 4.42529e-25)
(1.07452 0.606114 0)
(1.03951 0.588249 0)
(1.05106 0.593739 0)
(1.01503 0.583708 1.02479e-21)
(1.02754 0.584932 0)
(0.99975 0.597016 -1.22099e-22)
(1.00119 0.584091 -1.39545e-21)
(0.975594 0.59577 0)
(1.00707 0.528987 -4.32692e-21)
(0.982244 0.584491 -1.14096e-21)
(1.21705 -0.0156467 6.72138e-22)
(1.21446 0.0724765 0)
(0.812399 0.164908 -2.97981e-22)
(0.806179 0.15657 6.97037e-22)
(0.990376 0.610938 0)
(1.0014 0.612114 0)
(0.993633 0.576795 0)
(1.00658 0.612884 5.65561e-22)
(1.00566 0.611814 9.12029e-22)
(0.999029 0.607805 0)
(0.98658 0.599425 -1.74751e-21)
(0.985766 0.585008 1.13821e-21)
(0.982698 0.604819 0)
(0.995155 0.499233 2.76591e-25)
(1.02359 0.5409 -1.20434e-21)
(1.03192 0.522089 4.04511e-21)
(1.01354 0.510406 -1.2115e-21)
(0.953604 0.481562 3.46271e-22)
(0.975199 0.490095 6.32819e-22)
(0.907737 0.469098 0)
(0.931062 0.474499 0)
(0.858042 0.456765 1.67846e-24)
(0.88359 0.463973 0)
(0.807517 0.420462 0)
(0.832173 0.443544 0)
(0.76734 0.3361 0)
(0.785592 0.384885 0)
(0.743662 0.203737 0)
(0.753273 0.27503 0)
(0.73905 0.0413737 2.87858e-24)
(0.738841 0.124863 0)
(0.754306 -0.126403 0)
(0.74432 -0.0434484 0)
(0.785958 -0.27531 0)
(0.768431 -0.204464 0)
(0.827965 -0.3893 0)
(0.806082 -0.337195 0)
(0.87382 -0.463976 0)
(0.850793 -0.431391 0)
(0.918117 -0.504593 -1.43178e-24)
(0.896418 -0.487951 0)
(0.957778 -0.521367 -2.57766e-25)
(0.938613 -0.515263 0)
(0.99221 -0.5248 0)
(0.975613 -0.524162 0)
(1.02235 -0.523461 2.0468e-25)
(1.00772 -0.52427 0)
(1.04978 -0.523736 0)
(1.03629 -0.523097 0)
(1.07634 -0.528472 0)
(1.06306 -0.525586 0)
(1.10364 -0.53384 0)
(1.08984 -0.531624 0)
(1.13202 -0.528501 0)
(1.11774 -0.533397 0)
(1.16007 -0.498104 0)
(1.14622 -0.517232 0)
(1.18527 -0.431773 1.58191e-23)
(1.17318 -0.469818 0)
(1.20503 -0.325838 8.91126e-24)
(1.19593 -0.383654 0)
(1.21628 -0.183946 -1.29364e-21)
(1.21179 -0.258833 1.2749e-21)
(1.21796 -0.102023 -1.25168e-21)
(1.09442 0.18446 -3.5959e-22)
(1.17251 0.170757 -8.34071e-23)
(1.13391 0.178264 1.08269e-21)
(1.01493 0.191209 0)
(1.05426 0.188644 0)
(0.941863 0.192177 1.04239e-26)
(0.977173 0.192249 0)
(0.881505 0.188565 0)
(0.909729 0.190781 0)
(0.83769 0.17986 -9.96038e-22)
(0.85724 0.184685 1.10152e-21)
(0.822914 0.172982 1.07172e-22)
(0.79821 -0.06148 5.21445e-23)
(0.798255 0.0787143 6.148e-22)
(0.79638 0.00878623 -1.04908e-22)
(0.811284 -0.193584 2.86336e-22)
(0.803357 -0.129351 -2.86839e-22)
(0.834373 -0.306228 4.48395e-24)
(0.821771 -0.253045 0)
(0.865264 -0.390294 3.3569e-24)
(0.84899 -0.352314 0)
(0.901703 -0.441272 5.61244e-25)
(0.882978 -0.419799 0)
(0.940329 -0.465637 0)
(0.921007 -0.455904 0)
(0.97735 -0.478486 0)
(0.959222 -0.472523 0)
(1.01114 -0.492183 0)
(0.99463 -0.484796 0)
(1.04278 -0.510885 0)
(1.02712 -0.500861 0)
(1.074 -0.534945 -3.57047e-24)
(1.05836 -0.522243 0)
(1.10589 -0.563715 -3.8356e-24)
(1.08983 -0.548884 0)
(1.13861 -0.592382 0)
(1.12219 -0.57866 0)
(1.17073 -0.607081 0)
(1.15493 -0.602805 0)
(1.19885 -0.582537 0)
(1.18556 -0.601613 0)
(1.21895 -0.490487 -1.08288e-23)
(1.2101 -0.546242 0)
(1.22901 -0.321927 1.17521e-23)
(1.22525 -0.414944 0)
(1.22933 -0.101786 0)
(1.23036 -0.215667 0)
(1.2198 0.127432 0)
(1.22586 0.0142385 0)
(1.19993 0.329741 8.40658e-25)
(1.21112 0.233763 0)
(1.17148 0.479852 1.86605e-23)
(1.18658 0.412492 0)
(1.13853 0.565108 0)
(1.15527 0.530641 0)
(1.1058 0.59279 0)
(1.1219 0.584852 0)
(1.0759 0.587577 5.27204e-25)
(1.09049 0.592456 0)
(1.04786 0.575717 0)
(1.06177 0.581249 0)
(1.01903 0.569946 -5.57074e-22)
(1.03371 0.571966 0)
(0.985635 0.568587 -4.34105e-22)
(1.00296 0.569358 9.50925e-22)
(1.01135 0.57217 5.73013e-21)
(1.0226 0.559989 4.47194e-21)
(0.968429 0.58477 4.22077e-22)
(0.966516 0.566683 -4.21815e-22)
(0.985552 0.595311 0)
(1.2092 0.159551 -1.15244e-21)
(0.803633 0.147311 2.25506e-21)
(1.05072 0.534262 -7.15503e-22)
(0.995292 0.609121 0)
(1.04222 0.553679 -3.11057e-22)
(0.993217 0.588496 0)
(1.00266 0.613521 0)
(1.00704 0.585037 0)
(1.00408 0.616132 0)
(0.999419 0.616162 0)
(0.98848 0.611848 1.67395e-22)
(0.971681 0.601085 4.51091e-22)
(0.948799 0.582144 0)