/*--------------------------------*- C++ -*----------------------------------*\
  =========                 |
  \\      /  F ield         | OpenFOAM: The Open Source CFD Toolbox
   \\    /   O peration     | Website:  https://openfoam.org
    \\  /    A nd           | Version:  10
     \\/     M anipulation  |
\*---------------------------------------------------------------------------*/
FoamFile
{
    format      ascii;
    class       volVectorField;
    location    "88";
    object      U;
}
// * * * * * * * * * * * * * * * * * * * * * * * * * * * * * * * * * * * * * //

dimensions      [0 1 -1 0 0 0 0];

internalField   nonuniform List<vector> 
28942
(
(0.0044282 -0.00225597 -3.39733e-22)
(0.00599381 -0.00233899 -6.30477e-23)
(0.0179335 -0.0123847 -8.29324e-22)
(0.103306 0.0182353 -5.26597e-21)
(0.102344 0.0222779 1.7241e-21)
(0.0135447 0.000410603 0)
(0.0160932 -2.69505e-06 9.95671e-24)
(0.0186764 0.000530168 -8.76939e-24)
(0.135235 -0.0184444 -2.56692e-22)
(0.133892 -0.0168106 7.30452e-22)
(0.00979334 0.00401512 -6.66341e-22)
(0.0160653 0.00562846 2.52128e-22)
(0.00713631 0.00315269 0)
(0.00470681 0.00207006 0)
(0.0425419 0.0019159 -1.39951e-23)
(0.0408046 0.00245343 -5.68604e-24)
(0.0893154 0.0158892 6.68697e-22)
(0.0870033 0.0138578 1.07614e-21)
(0.0121631 -0.0151106 2.92431e-21)
(0.0293273 -0.0304635 -7.69671e-22)
(0.0981168 0.0374006 9.53817e-22)
(0.0972956 0.0344364 0)
(0.0187361 0.00462587 1.15911e-21)
(0.00786225 0.00236302 5.46118e-22)
(0.0377914 0.00720944 9.35816e-22)
(0.057522 0.00291096 -8.53124e-22)
(0.00764715 -0.0184879 8.5161e-21)
(0.00669324 -0.0165527 -3.13634e-21)
(0.0355051 -0.0253196 5.74871e-22)
(0.0192978 -0.0136803 1.98469e-22)
(0.0139074 -0.00127263 0)
(0.0173863 -0.00109329 -1.26831e-23)
(0.0221141 0.00403617 2.66503e-22)
(0.0319224 0.00182621 -4.04566e-23)
(0.0188249 0.0180094 1.31614e-21)
(0.0157196 0.0191196 -1.30801e-21)
(0.0321687 0.0376177 -3.05642e-21)
(0.0186687 0.0305363 -1.06939e-21)
(0.00741207 -1.8767e-05 -8.29626e-24)
(0.00864867 0.0161973 -2.61714e-21)
(0.0306494 -0.00620317 0)
(0.0513427 -0.0109694 0)
(0.111793 -0.0117012 -2.72508e-23)
(0.111285 -0.0116991 8.03452e-23)
(0.11585 -0.0115953 7.00202e-23)
(0.0263654 0.000164913 1.06455e-23)
(0.0245452 -0.000591006 -1.70864e-23)
(0.0351358 -0.000478257 -7.84148e-23)
(0.0336607 -0.000547734 2.23719e-23)
(0.0273241 -0.0025792 -1.95764e-22)
(0.0202889 -0.00307827 1.27367e-22)
(0.128657 0.00129137 -4.02516e-22)
(0.127972 0.00082008 -3.75982e-22)
(0.134553 -0.0212106 -3.76985e-24)
(0.133006 -0.0194846 1.39424e-22)
(0.0824728 0.00635054 7.09823e-22)
(0.101725 -0.000769151 2.45772e-22)
(0.00305794 0.00162052 -5.60617e-22)
(0.00894094 0.00367884 0)
(0.00825558 0.00328832 2.35593e-22)
(0.00288201 0.00148779 4.83712e-22)
(0.000362146 0.000226209 -4.02271e-22)
(0.00019285 0.000122665 -3.86306e-22)
(0.109757 -0.0426055 0)
(0.104887 -0.0256116 1.24642e-22)
(0.121757 -0.033117 -4.25145e-23)
(0.123406 -0.0437701 0)
(0.0901043 -0.0328028 -6.39462e-22)
(0.093608 -0.03527 -4.20307e-22)
(0.00188456 -0.00112928 1.12315e-21)
(0.0024881 -0.00201696 -3.53919e-22)
(0.00487185 -0.00315519 8.78073e-22)
(0.0848729 -0.0457589 0)
(0.0911993 -0.0396232 2.17079e-21)
(0.0805413 -0.0530241 5.86567e-22)
(0.114121 0.0124083 2.33999e-22)
(0.112718 0.0069066 -2.59564e-22)
(0.125088 0.0110126 -1.09624e-22)
(0.0046831 -0.00286168 -5.3723e-23)
(0.00633812 -0.00442561 4.50782e-22)
(0.0510048 -0.0311451 1.2715e-22)
(0.0331521 -0.0205354 -2.5784e-22)
(0.00211053 -0.000595751 3.19306e-21)
(0.00515616 -0.00207205 -1.24433e-21)
(0.100979 0.0482493 1.41926e-23)
(0.097028 0.0552168 -7.6721e-22)
(0.0807199 0.054013 7.00338e-22)
(0.0472039 0.0345102 -2.68872e-21)
(0.0444321 0.0316061 1.90418e-21)
(0.0294913 0.0205952 -1.13897e-22)
(0.0327119 0.0232481 -6.42704e-22)
(0.0379529 0.0283579 8.71454e-22)
(0.00440772 0.00272956 -5.82361e-23)
(0.00775984 0.003981 -1.68171e-23)
(0.00318825 0.00202217 3.36997e-23)
(0.00192326 0.00164652 -4.50471e-22)
(0.00145009 0.0015708 5.52248e-22)
(0.015742 0.0115435 -3.26124e-21)
(0.0174948 0.0136354 7.47086e-22)
(0.00880333 -0.00384625 0)
(0.101389 0.00515939 0)
(0.0984003 0.0156832 -3.96214e-21)
(0.0604414 0.0104756 1.94434e-21)
(0.0886812 0.0178811 0)
(0.135449 -0.00108029 0)
(0.134886 -0.00179387 0)
(0.133193 -0.00228849 -2.56471e-22)
(0.114973 0.0266134 -2.12481e-22)
(0.114065 0.028016 2.10055e-21)
(0.113267 0.0254758 1.12718e-21)
(0.00229365 0.00129927 1.04486e-21)
(0.00151126 0.000777392 -1.17275e-21)
(0.0190444 -0.0055331 -5.45907e-22)
(0.0201237 -0.00506131 4.65641e-22)
(0.00909676 -0.00292613 9.20412e-22)
(0.00647659 0.0111506 1.47973e-21)
(0.0189676 0.0181625 3.45932e-21)
(0.0134649 0.0228015 2.72181e-22)
(0.00492081 0.0143072 -8.62818e-21)
(0.116983 0.0477542 5.57399e-23)
(0.107861 0.0582434 1.07202e-21)
(0.11832 0.0548819 -1.84882e-21)
(0.039084 -0.0294127 7.32515e-22)
(0.0240049 -0.017262 -4.68643e-22)
(0.00532077 -0.000740303 -4.10531e-21)
(0.00453785 -0.0035903 0)
(0.0124954 -0.00166975 2.00413e-21)
(0.0219603 -0.0161276 7.79413e-22)
(0.034249 -0.0277794 -1.95842e-21)
(0.0332152 -2.97372e-05 5.39991e-23)
(0.0353292 0.000126655 -3.98024e-23)
(0.0311801 0.000145041 -1.67014e-24)
(0.0280504 -0.0419407 0)
(0.0295999 -0.0428319 0)
(0.0896236 -0.0186528 -4.63611e-22)
(0.0995914 -0.0220904 3.14949e-21)
(0.0870346 -0.0252785 0)
(0.047109 -0.0401812 0)
(0.0581683 -0.0513757 -7.84162e-22)
(0.0413106 0.0393378 2.08732e-21)
(-2.2407e-06 0.000214562 5.08465e-22)
(-0.000194124 0.000131023 -3.34725e-22)
(0.0223226 -0.019237 -7.92226e-22)
(0.120272 -0.011467 3.94968e-22)
(0.119636 -0.0114115 -7.64061e-23)
(0.115415 -0.00572585 -6.54892e-23)
(0.108342 0.000977003 8.72736e-23)
(0.117606 -0.000324565 1.75607e-22)
(8.22859e-05 0.000259097 1.96439e-22)
(0.0437424 0.0344181 3.20919e-21)
(0.0618706 0.0463076 -7.89419e-22)
(0.0593047 0.0393637 -3.03155e-24)
(0.0216569 -0.000799006 5.34432e-24)
(0.021338 -0.000777475 2.77608e-23)
(0.0231603 -0.000549591 1.0249e-24)
(0.025867 -0.000568209 -1.3696e-23)
(0.0454171 0.0380893 1.33763e-22)
(0.0189607 0.0160585 0)
(0.0001381 -2.72764e-05 3.65084e-22)
(0.000421026 -0.000254911 -4.05049e-22)
(0.00185819 -0.00100751 2.82396e-22)
(0.036546 -0.00771763 -1.83461e-21)
(0.0648536 -0.00209854 -7.47653e-22)
(0.0301033 -0.000185568 -2.13972e-24)
(0.0744652 -0.00764391 2.70232e-22)
(0.0706775 -0.0157265 5.82995e-23)
(0.0943034 0.0399229 2.14622e-21)
(0.091404 0.0454584 9.92836e-23)
(0.0887481 0.0290897 1.21709e-21)
(0.0914735 0.0308065 -8.82015e-22)
(0.0986953 0.0410842 0)
(0.126119 -0.000315146 1.49808e-22)
(0.126889 -0.000747968 2.83006e-22)
(0.128093 -0.0123518 -2.96268e-22)
(0.129557 -0.0121573 5.07139e-22)
(0.117054 0.024158 2.6062e-22)
(0.119112 0.0250593 -7.3807e-22)
(0.1171 0.0261703 0)
(0.115134 0.0249072 1.53606e-22)
(0.116671 0.0280923 0)
(0.117172 0.0361133 -5.52506e-22)
(0.11571 0.0381647 -3.01589e-22)
(0.111336 0.0419764 -5.41731e-22)
(0.11373 0.0401091 0)
(0.116419 0.0430847 1.79251e-21)
(0.113696 0.0450067 4.73866e-23)
(0.10833 0.0441868 -3.04251e-22)
(0.0996274 0.0502885 -1.28943e-21)
(0.0984182 0.0455001 -2.27142e-22)
(0.0249456 -0.00846758 5.77377e-23)
(0.0327991 -0.00932413 -2.30247e-23)
(0.00628068 -0.00248553 -6.87816e-22)
(0.0295073 -9.06737e-05 -3.40974e-23)
(0.0378692 -0.00027014 0)
(-3.15562e-06 -3.98057e-05 4.29546e-22)
(1.30438e-05 -4.71611e-05 2.18823e-22)
(0.0342498 -0.00176464 1.63522e-23)
(0.0405241 -0.00171557 6.76882e-24)
(0.0400857 -0.00118291 0)
(0.0331181 -0.000817774 7.19597e-24)
(0.0854479 0.00336535 -1.08971e-22)
(0.084677 0.00304646 5.14807e-22)
(0.0855355 0.00312794 2.38329e-22)
(0.000670613 0.000271973 3.90117e-22)
(-0.000159398 -0.000129258 -5.65576e-22)
(-0.000201045 -0.000168996 4.81798e-22)
(0.00149981 0.000617239 0)
(7.98689e-05 8.77476e-05 1.13417e-21)
(0.000171856 -3.90078e-05 -8.17148e-22)
(0.00744635 0.00367258 -9.87361e-22)
(0.00145121 0.000781086 -1.18024e-21)
(0.0017201 0.000860404 0)
(0.00157198 0.00754433 0)
(0.000576943 0.00328136 0)
(0.000313307 0.00197696 0)
(0.136623 -0.00109146 5.68773e-23)
(0.137636 -0.000925749 0)
(0.135996 -0.00187567 -6.62827e-23)
(0.08811 -0.0148525 4.43075e-21)
(0.0901168 -0.0152619 -1.60837e-21)
(0.0890322 -0.0128772 0)
(0.0959219 0.000358144 -6.3906e-24)
(0.0964863 0.000349505 1.27901e-23)
(0.0953554 0.000366127 -4.32304e-24)
(0.0970454 0.000342464 0)
(0.0976031 0.000343322 -8.15758e-24)
(0.0981544 0.000338771 0)
(0.0981494 -0.00024648 0)
(0.0986975 0.000323097 3.02837e-23)
(0.0986864 -0.000266048 0)
(0.0976045 -0.000238771 -8.21498e-24)
(0.0970467 -0.000236441 0)
(0.0964863 -0.000233479 4.27607e-24)
(0.0959191 -0.000234649 -6.38769e-24)
(0.0953542 -0.000235034 4.31764e-24)
(0.0992277 0.000305682 -2.8979e-23)
(0.0992216 -0.000279877 -1.01324e-24)
(0.09478 0.000379172 -8.37991e-30)
(0.0947733 -0.000229459 -6.59812e-24)
(0.0941942 0.000390137 3.50921e-23)
(0.0997506 0.000294496 2.70783e-26)
(0.0997607 -0.000286079 -1.01411e-24)
(0.0941905 -0.000231828 1.30034e-23)
(0.100276 0.000282223 2.72719e-23)
(0.100798 0.000272197 -2.72495e-23)
(0.10029 -0.000293132 2.04197e-24)
(0.100814 -0.000298599 4.03635e-24)
(0.0936253 0.000411324 -3.41428e-23)
(0.0936138 -0.000232809 -8.55908e-24)
(0.101315 0.000260608 0)
(0.101334 -0.000305158 -3.9812e-24)
(0.0930338 0.000422712 4.22357e-27)
(0.0930232 -0.000228753 -4.23415e-27)
(0.10183 0.000251016 0)
(0.101849 -0.00031031 0)
(0.0924361 0.00043055 0)
(0.0924253 -0.000228325 0)
(0.10234 0.000239622 0)
(0.10236 -0.000316699 1.9128e-24)
(0.0918326 0.000438254 -1.77155e-23)
(0.0918209 -0.000227132 -4.32349e-27)
(0.102847 0.000230177 1.00274e-25)
(0.102866 -0.000321611 -2.04288e-24)
(0.0912229 0.000443949 1.78002e-23)
(0.0912106 -0.000227693 0)
(0.103349 0.000218861 0)
(0.103369 -0.000327581 0)
(0.0906075 0.000450007 -1.12617e-24)
(0.0905945 -0.000226322 1.93279e-23)
(0.103848 0.000209691 1.23998e-23)
(0.103867 -0.000331551 0)
(0.0899869 0.000454166 -9.98847e-26)
(0.0899725 -0.000225248 -1.82934e-23)
(0.104343 0.000198855 -1.85472e-23)
(0.104363 -0.000336405 -5.38254e-24)
(0.089347 0.000451843 1.86514e-23)
(0.0893354 -0.000224769 0)
(0.104835 0.00019109 6.10912e-24)
(0.104857 -0.000335991 3.58979e-24)
(0.0887038 0.000455854 -9.44082e-24)
(0.0886923 -0.000227209 1.91425e-23)
(0.105322 0.000185575 -2.43972e-23)
(0.105351 -0.000328992 2.7498e-23)
(0.0880296 0.000445202 9.7319e-24)
(0.0880271 -0.000235428 3.07996e-25)
(0.105813 0.000182477 0)
(0.105839 -0.000322497 1.31032e-23)
(0.0873472 0.000434701 -1.95758e-23)
(0.0873518 -0.000250827 3.91586e-23)
(0.106318 0.000170841 0)
(0.106328 -0.000321739 0)
(0.0883283 0.00112077 -9.62964e-24)
(0.0876402 0.00111857 -3.89746e-23)
(0.0866407 0.000417761 0)
(0.0866623 -0.000277772 -1.99501e-23)
(0.0896535 0.00111571 -6.04632e-24)
(0.0889947 0.00111919 1.18749e-24)
(0.0909092 0.00109515 0)
(0.09028 0.00110502 -1.95294e-23)
(0.0921281 0.0010702 -3.77076e-26)
(0.0915223 0.00108326 0)
(0.0933194 0.00104116 0)
(0.092727 0.00105614 0)
(0.0944857 0.00100469 0)
(0.093906 0.00102459 0)
(0.0956066 0.0009659 8.5363e-24)
(0.0950429 0.000984354 2.15205e-24)
(0.0967245 0.000937301 -8.23304e-24)
(0.096172 0.000951521 -8.52395e-24)
(0.0978209 0.000912185 1.46195e-23)
(0.0972688 0.000919182 1.86723e-23)
(0.0989179 0.000890133 0)
(0.0983716 0.000904075 0)
(0.099977 0.000864591 -6.4218e-26)
(0.0994511 0.000877294 0)
(0.101016 0.000836272 0)
(0.100498 0.000850622 0)
(0.102038 0.000806891 0)
(0.101529 0.000821545 0)
(0.103045 0.000777602 0)
(0.102543 0.000792131 0)
(0.104036 0.000748776 0)
(0.103542 0.000763064 0)
(0.105012 0.000720578 0)
(0.104526 0.000734539 0)
(0.10598 0.000677204 -9.96874e-24)
(0.105495 0.000705549 0)
(0.106466 0.000654147 -3.2191e-24)
(0.106814 0.000155212 3.14339e-24)
(0.106822 -0.000325127 -3.11723e-24)
(0.105516 -0.000813133 0)
(0.106485 -0.000804455 -1.27904e-23)
(0.106001 -0.000807527 -6.59026e-24)
(0.104537 -0.000823226 1.80386e-24)
(0.105027 -0.000819484 -7.05802e-24)
(0.10355 -0.000824837 5.84059e-26)
(0.104045 -0.000825434 0)
(0.102548 -0.000822042 0)
(0.103051 -0.000823472 0)
(0.101529 -0.00081918 0)
(0.10204 -0.000820481 0)
(0.100493 -0.000817374 0)
(0.101013 -0.000818003 7.68659e-30)
(0.0994375 -0.000818119 6.48553e-26)
(0.0999672 -0.000817249 0)
(0.0983684 -0.000814405 0)
(0.0989024 -0.000817461 0)
(0.0972742 -0.000811042 0)
(0.097822 -0.000811808 0)
(0.0961593 -0.000815273 0)
(0.0967178 -0.00081033 -4.32216e-24)
(0.0950227 -0.000827289 1.13704e-24)
(0.0955929 -0.000824023 -5.57543e-24)
(0.0938758 -0.000843451 0)
(0.0944561 -0.000833666 -4.53591e-24)
(0.0926947 -0.000855982 0)
(0.0932887 -0.000849696 0)
(0.0914863 -0.000869431 0)
(0.092094 -0.000862535 0)
(0.0902455 -0.000882426 0)
(0.090871 -0.00087604 0)
(0.0889661 -0.000896767 -4.94592e-24)
(0.089612 -0.000888122 0)
(0.0876522 -0.000930761 -2.00343e-23)
(0.0883136 -0.000908474 -4.9709e-24)
(0.0869726 -0.000958257 2.03951e-23)
(0.0869376 0.00111775 3.86453e-23)
(0.106955 0.000634766 6.30265e-24)
(0.10697 -0.000801502 -1.23108e-23)
(0.0859506 -0.000315788 0)
(0.0862841 -0.00100035 0)
(0.0862213 0.00111649 0)
(0.0859195 0.000393309 0)
(0.0889161 0.00178227 0)
(0.0875627 0.00181323 9.67737e-24)
(0.0882448 0.00179586 9.77003e-24)
(0.0902222 0.00174973 1.24164e-23)
(0.0895759 0.00176704 -2.4819e-24)
(0.0914559 0.00170886 3.83862e-26)
(0.0908449 0.00172921 0)
(0.0926555 0.00166763 0)
(0.0920594 0.00168842 0)
(0.0938271 0.00162539 0)
(0.0932446 0.00164662 0)
(0.0949752 0.00158476 0)
(0.0944037 0.00160415 0)
(0.0960936 0.00154235 0)
(0.0955375 0.00156413 0)
(0.0971919 0.00150413 -3.45025e-26)
(0.0966418 0.001524 8.9004e-24)
(0.0982602 0.00146383 -3.31076e-26)
(0.0977315 0.00148316 -1.7365e-23)
(0.0993276 0.00142216 0)
(0.0987947 0.00144202 0)
(0.10037 0.00138418 3.20647e-26)
(0.0998517 0.00140292 0)
(0.101393 0.00134662 0)
(0.100884 0.0013654 0)
(0.102399 0.00130909 0)
(0.101898 0.00132781 0)
(0.103389 0.00127202 0)
(0.102896 0.00129046 0)
(0.104364 0.00123562 0)
(0.103878 0.00125373 0)
(0.105324 0.00119887 0)
(0.104846 0.00121752 0)
(0.106275 0.00114979 6.80872e-24)
(0.1058 0.00117661 0)
(0.107308 0.000144405 0)
(0.107439 0.000615992 6.1625e-24)
(0.107228 0.00110106 0)
(0.10675 0.00112492 6.63319e-24)
(0.106779 -0.00127915 1.3195e-23)
(0.107253 -0.00127228 3.24066e-24)
(0.107455 -0.00080267 2.53029e-23)
(0.107313 -0.000325876 0)
(0.105826 -0.00129516 0)
(0.106302 -0.00128693 -1.99221e-23)
(0.104864 -0.00130909 5.67468e-26)
(0.105346 -0.00130139 7.10095e-24)
(0.103891 -0.00131663 -5.84056e-26)
(0.104379 -0.0013134 0)
(0.102904 -0.00132199 0)
(0.103399 -0.00131935 0)
(0.1019 -0.0013277 0)
(0.102404 -0.00132471 0)
(0.100879 -0.00133489 0)
(0.101392 -0.00133104 -7.68656e-30)
(0.0998408 -0.00134441 -1.29625e-25)
(0.100362 -0.00133935 0)
(0.0987869 -0.00135454 0)
(0.0993158 -0.00134953 0)
(0.097709 -0.00136657 2.18049e-24)
(0.0982512 -0.00135991 0)
(0.0966145 -0.00138052 0)
(0.0971625 -0.00137128 -2.1714e-24)
(0.0954975 -0.00140202 4.54546e-24)
(0.0960553 -0.00139098 4.51787e-24)
(0.0943579 -0.00142332 0)
(0.0949318 -0.00141264 0)
(0.0931924 -0.00144855 0)
(0.0937783 -0.00143556 0)
(0.0919999 -0.00147666 0)
(0.0925997 -0.00146223 0)
(0.0907768 -0.00150795 0)
(0.0913924 -0.0014918 0)
(0.0895196 -0.00154415 7.90972e-26)
(0.0901529 -0.00152535 0)
(0.0882248 -0.00158819 -8.01995e-26)
(0.0888781 -0.00156531 0)
(0.0868954 -0.00166509 -2.09755e-23)
(0.0875636 -0.00162304 2.09659e-23)
(0.0868652 0.00183068 1.96939e-23)
(0.0855895 -0.00105395 0)
(0.0862192 -0.00171972 -4.26589e-23)
(0.0852364 -0.000360846 0)
(0.107702 0.00108339 0)
(0.107729 -0.00126541 -3.14301e-24)
(0.0854979 0.00111498 4.98712e-23)
(0.0861607 0.00184883 1.99498e-23)
(0.0848782 -0.0011104 1.07853e-23)
(0.0855319 -0.00178208 5.39098e-23)
(0.0851846 0.000364446 0)
(0.107631 0.0015626 2.59201e-23)
(0.108091 0.00153864 -1.28006e-23)
(0.107932 -0.000800262 -6.22699e-24)
(0.108199 -0.00125606 3.09576e-23)
(0.0871598 0.00255538 6.99878e-23)
(0.0854356 0.00186628 -3.92954e-23)
(0.0857411 0.00261169 -1.75642e-22)
(0.0864474 0.0025805 -3.99847e-23)
(0.0885011 0.00248794 1.94762e-23)
(0.0878371 0.00252292 -5.95423e-23)
(0.0897886 0.00242323 -1.99157e-23)
(0.0891522 0.00245534 -1.50251e-23)
(0.0910453 0.00236524 -4.9648e-24)
(0.0904243 0.00239514 -4.96866e-24)
(0.0922507 0.00230921 -3.83862e-26)
(0.0916547 0.00233751 0)
(0.0934206 0.00225278 0)
(0.0928393 0.0022809 0)
(0.0945628 0.00219738 0)
(0.0939949 0.00222494 0)
(0.0956806 0.00214393 0)
(0.0951246 0.00217025 0)
(0.0967742 0.00209269 0)
(0.0962302 0.00211773 0)
(0.0978449 0.00204161 0)
(0.0973117 0.0020668 0)
(0.0988945 0.00199216 6.22064e-29)
(0.098373 0.00201774 0)
(0.0999282 0.00194165 0)
(0.0994129 0.00196639 0)
(0.100945 0.00189373 3.19823e-26)
(0.100439 0.00191746 0)
(0.101943 0.00184716 0)
(0.101446 0.00187032 0)
(0.102926 0.0018015 0)
(0.102437 0.00182423 0)
(0.103893 0.00175671 0)
(0.103411 0.001779 0)
(0.104844 0.00171271 0)
(0.10437 0.00173463 0)
(0.105782 0.00166808 0)
(0.105315 0.00169074 0)
(0.106708 0.00161556 3.46568e-24)
(0.106246 0.00164266 -1.74438e-24)
(0.10717 0.00158927 -1.32247e-23)
(0.107789 0.00013793 -2.9516e-24)
(0.108173 0.00106508 1.23356e-23)
(0.107916 0.000603838 -9.43628e-24)
(0.107794 -0.000334381 0)
(0.107206 -0.00174353 -9.81987e-24)
(0.108126 -0.0017174 -2.83298e-23)
(0.107667 -0.00173126 2.28144e-23)
(0.10628 -0.00176965 0)
(0.106743 -0.00175589 0)
(0.105339 -0.00178488 -9.24333e-29)
(0.10581 -0.00177595 0)
(0.104388 -0.00179954 0)
(0.104866 -0.00179257 0)
(0.103423 -0.00181289 -5.98486e-26)
(0.103908 -0.00180623 0)
(0.102441 -0.00182691 0)
(0.102934 -0.00181975 0)
(0.101443 -0.00184256 0)
(0.101944 -0.00183449 0)
(0.100428 -0.0018604 6.47794e-26)
(0.100937 -0.0018512 0)
(0.0993958 -0.00188021 6.62923e-26)
(0.0999141 -0.00187005 0)
(0.098344 -0.00190313 0)
(0.0988722 -0.00189112 0)
(0.0972725 -0.00192932 0)
(0.0978111 -0.00191601 0)
(0.0961796 -0.00195987 0)
(0.096728 -0.00194367 0)
(0.095064 -0.00199281 0)
(0.095625 -0.00197576 0)
(0.0939237 -0.0020308 -7.43034e-26)
(0.094497 -0.00201125 0)
(0.0927569 -0.00207321 0)
(0.0933438 -0.00205145 0)
(0.0915605 -0.00212056 0)
(0.0921626 -0.0020962 0)
(0.0903316 -0.00217419 -1.24561e-28)
(0.0909503 -0.00214651 0)
(0.0890681 -0.00223557 1.40994e-28)
(0.0897045 -0.00220394 0)
(0.0877723 -0.00231412 8.28626e-26)
(0.0884212 -0.00227027 0)
(0.0864504 -0.00242757 -4.35907e-23)
(0.0871138 -0.00236561 1.07151e-23)
(0.0848327 -0.00184481 1.09685e-23)
(0.0857893 -0.00249712 2.17901e-23)
(0.0847625 0.00110698 -1.95266e-23)
(0.0845043 -0.00040957 -2.08966e-23)
(0.108549 0.00151543 3.13246e-24)
(0.108587 -0.00170875 2.22625e-23)
(0.0846743 0.00186376 2.46291e-24)
(0.0841562 -0.0011739 0)
(0.08479 0.00252404 2.69258e-22)
(0.0851212 -0.00256943 3.35069e-23)
(0.084138 -0.00191238 4.4719e-23)
(0.0864716 0.00348616 -4.43203e-22)
(0.0862296 0.00363008 8.12968e-23)
(0.0844545 0.000337748 0)
(0.0872252 0.00332522 4.49596e-23)
(0.0867414 0.00342804 2.29559e-23)
(0.0884432 0.0032202 4.05752e-23)
(0.0877969 0.00326253 -6.18754e-23)
(0.0897151 0.00312799 -2.01673e-23)
(0.0890904 0.00317586 -1.00682e-23)
(0.0909344 0.00304347 1.01055e-23)
(0.0903292 0.00308444 1.02386e-23)
(0.0921256 0.00296444 0)
(0.0915313 0.00300234 -1.9151e-26)
(0.0932823 0.00289132 0)
(0.0927078 0.00292779 0)
(0.0944114 0.00282047 3.74839e-26)
(0.0938501 0.00285552 0)
(0.0955152 0.00275242 0)
(0.0949663 0.00278613 0)
(0.0965956 0.0026871 0)
(0.0960582 0.00271939 0)
(0.0976537 0.00262437 0)
(0.0971273 0.00265539 0)
(0.0986906 0.00256325 3.43224e-26)
(0.0981745 0.00259349 0)
(0.0997078 0.00250381 6.72737e-29)
(0.0992017 0.00253371 0)
(0.100708 0.00244522 0)
(0.10021 0.00247417 0)
(0.101692 0.00238873 -6.39027e-26)
(0.101202 0.00241677 0)
(0.102659 0.00233387 0)
(0.102178 0.00236113 0)
(0.103611 0.00228037 0)
(0.103137 0.00230697 0)
(0.104548 0.00222807 0)
(0.104081 0.00225409 0)
(0.10547 0.0021767 0)
(0.105011 0.00220231 0)
(0.106379 0.00212487 0)
(0.105926 0.00215105 0)
(0.107277 0.00207114 -1.73075e-24)
(0.106828 0.00209714 0)
(0.108165 0.0020129 0)
(0.10772 0.0020421 -3.35244e-24)
(0.109044 0.00195309 -3.39468e-27)
(0.108607 0.00198368 0)
(0.108636 0.00104788 -1.25069e-23)
(0.10949 0.00193004 7.52736e-25)
(0.109009 0.00149659 6.12051e-24)
(0.10826 0.000127697 4.5031e-24)
(0.108386 0.000590282 -3.10805e-24)
(0.108404 -0.00079749 -1.56573e-24)
(0.108268 -0.000337325 1.5617e-24)
(0.109043 -0.00170013 0)
(0.108664 -0.0012535 -1.4186e-23)
(0.108652 -0.00216476 -6.36531e-24)
(0.109538 -0.00213913 -1.21871e-23)
(0.109096 -0.00215165 2.7988e-23)
(0.107765 -0.00219741 -3.34075e-24)
(0.10821 -0.00218119 0)
(0.106867 -0.00222567 0)
(0.107317 -0.00221117 0)
(0.105958 -0.00224852 -1.14583e-28)
(0.106414 -0.00223754 0)
(0.105035 -0.00227007 0)
(0.105498 -0.00225946 0)
(0.104098 -0.00229118 5.98486e-26)
(0.104568 -0.00228059 0)
(0.103145 -0.00231325 0)
(0.103623 -0.00230204 0)
(0.102176 -0.00233714 0)
(0.102663 -0.00232494 0)
(0.101191 -0.00236341 0)
(0.101686 -0.00234997 0)
(0.100189 -0.00239242 -1.29991e-28)
(0.100692 -0.00237755 0)
(0.0991678 -0.00242506 0)
(0.0996806 -0.00240824 0)
(0.0981277 -0.00246153 0)
(0.0986503 -0.00244288 0)
(0.0970671 -0.00250252 0)
(0.0975998 -0.00248135 0)
(0.0959845 -0.00254761 0)
(0.0965287 -0.00252445 0)
(0.0948782 -0.00259814 7.43034e-26)
(0.0954344 -0.0025722 0)
(0.0937463 -0.00265431 0)
(0.0943156 -0.00262551 0)
(0.0925866 -0.00271681 0)
(0.0931701 -0.00268472 0)
(0.0913967 -0.00278688 -7.89651e-26)
(0.0919955 -0.00275083 0)
(0.090175 -0.00286549 8.04608e-26)
(0.0907899 -0.00282514 0)
(0.0889201 -0.00295435 -8.19264e-26)
(0.0895514 -0.0029084 0)
(0.0876423 -0.00306143 1.07682e-23)
(0.0882795 -0.00300317 -2.12413e-23)
(0.0863667 -0.00320216 -1.08463e-23)
(0.0870017 -0.00312659 2.20532e-23)
(0.0844404 -0.00263878 3.15234e-25)
(0.0857175 -0.00327827 2.22631e-23)
(0.0840083 0.00108105 -2.00224e-23)
(0.0837684 -0.000448562 0)
(0.0838948 0.00181234 -1.93658e-22)
(0.0834256 -0.001222 0)
(0.109664 0.0023843 -3.12268e-24)
(0.110081 0.00235093 2.28738e-24)
(0.109493 -0.00169201 -1.19848e-23)
(0.109973 -0.00212055 -1.35572e-23)
(0.0838521 0.00246767 -1.88368e-22)
(0.0834331 -0.00197594 -4.51564e-23)
(0.0853383 0.00361773 0)
(0.087912 0.00414274 -5.13496e-23)
(0.0837588 -0.00270898 -2.21683e-23)
(0.085059 -0.00335253 3.36893e-23)
(0.087348 0.00413684 1.03089e-22)
(0.0837111 0.000308619 0)
(0.0888079 0.00396697 0)
(0.0883281 0.00405801 -4.57391e-23)
(0.0899627 0.00383811 0)
(0.0893684 0.0038993 0)
(0.0911501 0.00372822 0)
(0.0905593 0.00378047 1.04308e-23)
(0.092299 0.00362933 0)
(0.0917272 0.00367822 0)
(0.0934275 0.00353638 0)
(0.0928657 0.00358144 0)
(0.0945316 0.00344961 0)
(0.0939827 0.00349265 0)
(0.095612 0.00336632 -3.74839e-26)
(0.0950747 0.0034075 0)
(0.0966696 0.00328662 0)
(0.0961436 0.00332605 0)
(0.0977057 0.00321027 0)
(0.0971903 0.00324804 0)
(0.0987212 0.00313696 0)
(0.098216 0.00317327 0)
(0.0997171 0.00306614 -8.12188e-29)
(0.0992215 0.00310124 0)
(0.100695 0.00299758 7.91172e-29)
(0.100208 0.00303171 0)
(0.101656 0.00293077 0)
(0.101177 0.00296388 0)
(0.102601 0.0028662 7.47627e-29)
(0.10213 0.00289825 0)
(0.103531 0.00280352 0)
(0.103068 0.00283465 0)
(0.104445 0.00274254 0)
(0.10399 0.00277285 0)
(0.105346 0.00268302 0)
(0.104898 0.00271262 0)
(0.106233 0.00262461 0)
(0.105791 0.00265372 0)
(0.107107 0.00256637 0)
(0.106671 0.00259557 0)
(0.107969 0.00250827 0)
(0.107539 0.00253734 0)
(0.10882 0.00244728 3.32087e-24)
(0.108395 0.00247654 3.40334e-24)
(0.109243 0.00241498 -6.37349e-24)
(0.109092 0.00103128 -6.14001e-24)
(0.109932 0.00190767 0)
(0.109455 0.00147332 -6.19194e-24)
(0.108725 0.000119784 0)
(0.108845 0.00057907 6.26627e-24)
(0.108865 -0.000796715 9.35367e-24)
(0.108731 -0.000340142 -3.163e-24)
(0.109121 -0.00124773 -1.83729e-23)
(0.109297 -0.00259901 3.19928e-24)
(0.110138 -0.00255627 1.18947e-23)
(0.109724 -0.00258302 0)
(0.108447 -0.00263467 -6.63831e-24)
(0.108875 -0.00261781 6.66019e-24)
(0.107585 -0.00266682 0)
(0.108018 -0.00265155 0)
(0.10671 -0.00269644 -1.34721e-28)
(0.107149 -0.00268192 0)
(0.105822 -0.00272495 0)
(0.106267 -0.00271077 0)
(0.104919 -0.00275357 0)
(0.105372 -0.00273919 0)
(0.104001 -0.00278342 0)
(0.104462 -0.0027683 0)
(0.103068 -0.00281533 0)
(0.103537 -0.00279909 0)
(0.10212 -0.00284991 6.43995e-26)
(0.102596 -0.00283227 0)
(0.101154 -0.00288777 -6.61623e-26)
(0.101639 -0.00286841 0)
(0.100171 -0.00292969 0)
(0.100665 -0.00290819 0)
(0.0991692 -0.00297597 0)
(0.0996724 -0.00295229 0)
(0.0981481 -0.00302723 0)
(0.0986611 -0.00300095 0)
(0.0971061 -0.00308367 0)
(0.0976298 -0.00305476 0)
(0.0960417 -0.00314619 0)
(0.0965768 -0.00311415 0)
(0.0949534 -0.00321533 0)
(0.0955006 -0.00317992 0)
(0.0938393 -0.00329182 -7.71037e-26)
(0.0943996 -0.00325261 0)
(0.092698 -0.00337673 7.86256e-26)
(0.0932721 -0.00333317 0)
(0.0915282 -0.00347088 -8.01131e-26)
(0.0921167 -0.00342266 0)
(0.0903299 -0.00357476 0)
(0.0909325 -0.00352157 0)
(0.0891029 -0.00368839 0)
(0.0897194 -0.00363025 0)
(0.0878634 -0.00381671 8.53784e-26)
(0.0884859 -0.00375014 1.08367e-23)
(0.0866129 -0.00396942 -5.64677e-23)
(0.0872338 -0.00388959 0)
(0.0844144 -0.00343523 -3.34634e-23)
(0.0859923 -0.00405361 -3.13169e-25)
(0.083251 0.00105376 6.25983e-23)
(0.0830228 -0.000483034 0)
(0.110506 0.00232187 -1.18945e-23)
(0.110562 -0.00253994 -2.29294e-23)
(0.0830269 0.00174942 -3.30485e-23)
(0.084188 0.00317861 1.10439e-24)
(0.0830669 0.00241429 9.4082e-23)
(0.0826943 -0.00126077 0)
(0.0827113 -0.00202203 1.12971e-23)
(0.0863216 0.00411468 -9.68258e-23)
(0.0853794 0.00402465 8.25941e-23)
(0.0837884 0.00327192 -8.12637e-23)
(0.0830639 -0.00276972 -3.39297e-23)
(0.0837481 -0.00351263 2.26328e-23)
(0.0853826 -0.00415078 2.22139e-23)
(0.0829579 0.000279612 0)
(0.089542 0.00471919 2.87654e-24)
(0.0880922 0.00473968 5.04108e-25)
(0.0888852 0.00471873 2.24876e-23)
(0.0905515 0.00456532 2.22072e-23)
(0.0900492 0.00464866 -2.23224e-23)
(0.0916568 0.00441426 4.11224e-26)
(0.0910874 0.00448578 0)
(0.0927718 0.00429342 0)
(0.0922183 0.00435097 0)
(0.0938612 0.00418323 0)
(0.093319 0.00423769 0)
(0.0949303 0.0040793 0)
(0.0943984 0.00413025 0)
(0.0959775 0.00398109 3.80646e-26)
(0.0954567 0.00402971 0)
(0.0970032 0.00388686 0)
(0.0964929 0.00393348 0)
(0.0980085 0.00379661 0)
(0.0975084 0.00384126 0)
(0.0989941 0.00371014 0)
(0.0985037 0.00375293 0)
(0.0999608 0.00362715 0)
(0.0994798 0.00366824 0)
(0.10091 0.00354723 -3.42412e-26)
(0.100437 0.00358683 0)
(0.101841 0.00347011 9.19087e-29)
(0.101378 0.00350839 0)
(0.102757 0.00339541 0)
(0.102301 0.00343244 0)
(0.103658 0.00332318 6.36044e-26)
(0.10321 0.00335902 0)
(0.104545 0.00325315 0)
(0.104103 0.00328792 0)
(0.105417 0.00318507 0)
(0.104983 0.00321889 0)
(0.106276 0.00311868 0)
(0.105848 0.00315169 0)
(0.107122 0.00305361 0)
(0.106701 0.00308602 0)
(0.107955 0.0029892 0)
(0.10754 0.00302138 0)
(0.108777 0.00292509 5.39916e-26)
(0.108367 0.00295714 0)
(0.109587 0.00286078 -3.33538e-24)
(0.109184 0.00289349 0)
(0.110385 0.00279091 3.17556e-24)
(0.109987 0.00282628 0)
(0.111177 0.00271806 3.01752e-24)
(0.11078 0.00275462 -3.09319e-24)
(0.110358 0.00188128 5.99043e-24)
(0.111575 0.00268377 0)
(0.110926 0.002294 8.89967e-24)
(0.109537 0.00101492 0)
(0.109893 0.00145313 0)
(0.10918 0.000112857 0)
(0.109298 0.000566203 0)
(0.109317 -0.000794244 0)
(0.109187 -0.000342199 0)
(0.109934 -0.00168238 1.22145e-23)
(0.109568 -0.00124341 3.04145e-24)
(0.110976 -0.00252186 2.98898e-24)
(0.110404 -0.00210808 2.39024e-23)
(0.110853 -0.00296654 1.551e-23)
(0.111645 -0.00292055 2.96145e-24)
(0.111248 -0.00294249 -6.03063e-24)
(0.110054 -0.00301289 3.18808e-24)
(0.110452 -0.00298895 -1.91198e-23)
(0.109245 -0.00305317 -1.29887e-28)
(0.10965 -0.00303299 0)
(0.108421 -0.00308969 0)
(0.108834 -0.00307125 0)
(0.107586 -0.00312579 -1.55094e-28)
(0.108005 -0.00310793 0)
(0.106738 -0.00316121 0)
(0.107163 -0.00314352 0)
(0.105875 -0.00319709 0)
(0.106308 -0.00317904 0)
(0.104999 -0.00323443 0)
(0.105439 -0.00321554 0)
(0.104107 -0.00327406 0)
(0.104555 -0.00325393 0)
(0.103201 -0.00331667 -1.28623e-25)
(0.103656 -0.00329497 0)
(0.102278 -0.00336298 0)
(0.102741 -0.00333934 0)
(0.101339 -0.00341368 0)
(0.101811 -0.00338776 0)
(0.100382 -0.00346927 0)
(0.100863 -0.00344086 0)
(0.0994069 -0.00353032 0)
(0.0998968 -0.00349909 0)
(0.0984124 -0.00359731 -7.22111e-26)
(0.0989122 -0.00356304 0)
(0.097397 -0.00367103 0)
(0.0979074 -0.00363331 0)
(0.0963597 -0.00375209 0)
(0.0968812 -0.00371062 0)
(0.0952992 -0.00384125 7.71037e-26)
(0.0958325 -0.00379563 0)
(0.0942144 -0.00393932 -2.15784e-28)
(0.0947599 -0.00388914 0)
(0.0931047 -0.00404694 1.60006e-25)
(0.0936627 -0.00399195 0)
(0.0919701 -0.00416422 0)
(0.0925405 -0.0041044 0)
(0.0908105 -0.00429086 0)
(0.0913932 -0.00422625 0)
(0.0896276 -0.00442527 -2.48959e-28)
(0.0902223 -0.00435813 0)
(0.0884221 -0.00457116 0)
(0.0890265 -0.00449585 0)
(0.0872406 -0.00474639 -3.35853e-23)
(0.0878273 -0.00465486 0)
(0.0847537 -0.00424219 -3.05567e-25)
(0.0866577 -0.00484596 5.70422e-23)
(0.082453 0.0010068 0)
(0.0872792 0.00474876 1.30492e-22)
(0.0822275 0.00169298 2.25783e-23)
(0.111946 0.00309953 -3.01184e-24)
(0.112323 0.00306526 0)
(0.11139 -0.00250588 2.90506e-24)
(0.112034 -0.00289494 -5.77367e-24)
(0.0822734 -0.00051562 0)
(0.0819532 -0.001291 0)
(0.0824159 0.00248588 0)
(0.0819822 -0.00206114 -1.11267e-23)
(0.0823613 -0.0028324 -2.23964e-23)
(0.083076 -0.00359408 0)
(0.0841118 -0.00433604 5.76866e-23)
(0.0860545 -0.00494699 -4.60096e-23)
(0.0821922 0.000245472 0)
(0.090161 0.00533814 -1.08277e-26)
(0.0864294 0.00471429 4.09628e-23)
(0.0887231 0.00542331 -1.46019e-22)
(0.0894397 0.00539777 4.27812e-23)
(0.0914281 0.00526067 -1.39072e-23)
(0.0908132 0.00528144 -2.2296e-23)
(0.0924678 0.00512351 0)
(0.0919608 0.0052035 0)
(0.0935227 0.0049611 -4.11187e-26)
(0.0929849 0.0050378 0)
(0.0945766 0.00482813 0)
(0.0940536 0.00489222 0)
(0.0956045 0.00470671 0)
(0.0950933 0.00476652 0)
(0.0966113 0.00459225 0)
(0.0961105 0.00464862 0)
(0.0975975 0.00448359 -3.80646e-26)
(0.0971069 0.00453734 0)
(0.098564 0.00437942 0)
(0.0980831 0.00443097 0)
(0.0995119 0.00427957 0)
(0.0990402 0.00432898 0)
(0.100442 0.00418387 0)
(0.0999791 0.00423123 0)
(0.101355 0.00409203 0)
(0.1009 0.0041375 0)
(0.102251 0.00400372 3.40403e-26)