/*--------------------------------*- C++ -*----------------------------------*\
  =========                 |
  \\      /  F ield         | OpenFOAM: The Open Source CFD Toolbox
   \\    /   O peration     | Website:  https://openfoam.org
    \\  /    A nd           | Version:  10
     \\/     M anipulation  |
\*---------------------------------------------------------------------------*/
FoamFile
{
    format      ascii;
    class       volVectorField;
    location    "19.5";
    object      U;
}
// * * * * * * * * * * * * * * * * * * * * * * * * * * * * * * * * * * * * * //

dimensions      [0 1 -1 0 0 0 0];

internalField   nonuniform List<vector> 
28942
(
(-0.107092 0.0724241 -5.37848e-20)
(-0.103266 0.0829723 -1.13545e-20)
(0.459694 -0.321937 3.57697e-20)
(1.01569 0.042279 -1.25582e-19)
(0.994019 0.052106 4.1201e-20)
(0.237473 0.00950707 0)
(0.292802 0.0299816 -2.54648e-22)
(0.327196 0.00888178 3.65664e-22)
(1.22774 -0.150516 -1.52292e-21)
(1.21652 -0.135947 5.45804e-21)
(-0.0898646 -0.15303 -1.04185e-19)
(-0.0711366 -0.123875 4.80075e-20)
(-0.0914195 -0.0845018 0)
(-0.0933414 -0.0971454 0)
(0.684849 -0.0118339 -1.01797e-22)
(0.676095 -0.00910266 -6.57421e-23)
(0.935571 0.104067 2.99847e-20)
(0.919068 0.0890616 4.83112e-20)
(0.325569 -0.445158 7.91506e-20)
(0.625723 -0.716704 -2.2313e-20)
(0.994887 0.239303 3.82769e-20)
(0.99514 0.225723 0)
(0.0169454 -0.020356 9.94843e-20)
(-0.0722281 -0.0365411 5.54348e-20)
(0.621254 -0.164074 1.09189e-19)
(0.994011 -0.279706 -9.92383e-20)
(0.196102 -0.450366 4.75902e-19)
(0.204036 -0.373794 -1.83731e-19)
(0.735454 -0.53531 1.67736e-21)
(0.445446 -0.310154 -4.44242e-22)
(0.239424 -0.0171089 0)
(0.312254 -0.0230089 5.98834e-22)
(0.399352 -0.00198695 7.7671e-21)
(0.548004 -0.0151762 -3.14499e-22)
(0.4535 0.489758 2.21608e-20)
(0.378801 0.539211 -1.62712e-20)
(0.59809 0.697245 -1.18465e-19)
(0.387956 0.626181 -4.93631e-20)
(0.124504 0.0117585 3.64207e-22)
(0.208036 0.491115 -7.51663e-20)
(0.656949 -0.0598146 0)
(0.855955 -0.077947 0)
(1.55303 -0.146238 1.78534e-21)
(1.5511 -0.178605 -6.53925e-21)
(1.53341 -0.146441 -4.4491e-21)
(0.463711 0.0115364 -1.04272e-22)
(0.437187 0.02198 1.33225e-22)
(0.589759 0.0118751 1.17803e-21)
(0.571936 0.0114024 -3.33398e-22)
(0.481281 0.00922633 -3.64774e-21)
(0.39183 0.00121939 2.37545e-21)
(1.1527 -0.00243107 -1.34913e-21)
(1.15041 -0.00802541 -1.92855e-21)
(1.22236 -0.167263 -1.43622e-22)
(1.20938 -0.152636 1.55877e-21)
(1.27186 -0.222159 8.7051e-20)
(1.50539 -0.308847 4.60235e-20)
(-0.0699038 -0.0474106 -6.53745e-20)
(-0.0815802 -0.0670897 0)
(-0.0735367 -0.0503049 2.3535e-20)
(-0.0657807 -0.0398545 5.73595e-20)
(-0.0267741 -0.016847 -4.57823e-20)
(-0.0240398 -0.0154976 -4.82973e-20)
(1.33322 -0.589935 0)
(1.47119 -0.525064 1.69746e-20)
(1.36354 -0.460427 -7.10148e-21)
(1.29639 -0.453052 0)
(0.933633 -0.22811 -2.8865e-20)
(0.953 -0.248601 -1.88015e-20)
(-0.0691911 0.0525593 1.78658e-19)
(-0.0831833 0.0535633 -5.67172e-20)
(-0.102854 0.0791993 1.42513e-19)
(0.929816 -0.316158 0)
(0.944798 -0.27879 9.997e-20)
(0.878542 -0.433429 2.58428e-20)
(1.45488 0.273448 6.01285e-20)
(1.48267 0.245077 -6.59015e-20)
(1.44341 0.204971 -4.24387e-20)
(0.141608 -0.0806414 1.6192e-21)
(0.201522 -0.127594 -4.00423e-20)
(0.984732 -0.622986 -6.00913e-21)
(0.721224 -0.495805 1.31469e-20)
(-0.0867728 0.0485582 3.03041e-19)
(-0.0893268 0.0469886 -1.16442e-19)
(1.27476 0.58324 -8.6576e-21)
(1.19878 0.547794 -7.75748e-21)
(1.09473 0.662915 2.29034e-21)
(0.94726 0.659569 -9.91582e-21)
(0.908541 0.63996 6.49537e-21)
(0.682637 0.468416 1.05525e-21)
(0.746379 0.557748 -3.8665e-21)
(0.785414 0.638248 7.77062e-21)
(-0.111414 -0.296238 -1.49583e-20)
(-0.0887694 -0.294042 -3.73127e-21)
(-0.0966615 -0.190159 7.47894e-21)
(-0.111934 -0.223783 -1.07676e-19)
(-0.116072 -0.246719 1.36984e-19)
(0.382643 0.302015 -3.44878e-20)
(0.429467 0.367153 6.22744e-21)
(-0.0140142 0.0129866 0)
(1.00709 0.00423871 0)
(0.96527 0.053322 -9.23625e-20)
(0.890267 0.135434 6.76444e-20)
(1.08047 0.118128 0)
(1.32558 0.0596531 0)
(1.32327 0.0557282 0)
(1.33692 0.0553471 4.9791e-20)
(1.08813 0.166582 -5.69434e-21)
(1.08501 0.178815 6.08153e-20)
(1.07789 0.157457 3.22217e-20)
(-0.0693765 -0.0529853 1.32576e-19)
(-0.0662031 -0.0528378 -1.48775e-19)
(0.0702068 0.0509812 -9.89941e-20)
(0.045727 0.0144095 9.50733e-20)
(-0.0923037 0.0504608 1.81014e-19)
(0.16338 0.240462 8.00975e-20)
(0.380186 0.23535 1.95851e-19)
(0.293659 0.456697 1.60797e-20)
(0.130877 0.356831 -4.65049e-19)
(1.28886 0.4519 4.0436e-22)
(1.14157 0.437305 1.79352e-20)
(1.17853 0.415655 -3.1302e-20)
(0.813332 -0.635498 1.08666e-20)
(0.550148 -0.402079 -3.85795e-21)
(0.160054 0.000562397 -2.42824e-19)
(0.148962 -0.0748597 0)
(0.310454 -0.0471655 1.30148e-19)
(0.513643 -0.397214 1.33478e-20)
(0.734421 -0.626219 -2.89628e-20)
(0.558316 0.0139963 -1.47327e-21)
(0.591187 0.0133296 5.24798e-22)
(0.520596 0.0127069 4.48247e-23)
(0.509154 -0.776242 0)
(0.536798 -0.604324 0)
(1.06168 -0.133006 -1.4475e-20)
(1.04788 -0.114702 8.38062e-20)
(1.03208 -0.0810822 0)
(0.831007 -0.743059 0)
(0.831599 -0.683592 -3.05096e-20)
(0.751432 0.730675 7.31757e-20)
(-0.0354995 -0.0436256 9.80299e-20)
(-0.0303012 -0.0261298 -7.47543e-20)
(0.558333 -0.51846 -1.47961e-20)
(1.4952 -0.105933 -1.87577e-20)
(1.49794 -0.131501 3.97111e-21)
(1.48384 -0.244502 -1.34062e-20)
(1.4908 -0.228224 1.7933e-20)
(1.49934 -0.208304 6.18284e-20)
(-0.0336239 -0.0186675 3.32875e-20)
(0.866975 0.710763 7.42411e-20)
(1.00057 0.682608 -2.25889e-20)
(1.09023 0.735088 1.22178e-22)
(0.377786 -0.011353 -1.43783e-22)
(0.376165 -0.0127678 -1.31046e-21)
(0.413079 -0.0171471 -1.50793e-22)
(0.453188 -0.0142358 3.15757e-22)
(0.811679 0.701443 1.81078e-20)
(0.444821 0.421077 0)
(0.00256464 -0.071325 8.36689e-20)
(-0.0187652 -0.0230488 -9.25706e-20)
(-0.080255 -0.0861391 7.40177e-20)
(0.571881 0.0659532 -2.14757e-19)
(1.11369 0.219687 -1.0475e-19)
(0.518906 -0.015089 2.08312e-22)
(1.24149 -0.463663 2.04472e-20)
(1.20115 -0.538719 4.91439e-20)
(0.976515 0.26453 8.91145e-20)
(0.959983 0.300783 7.78453e-21)
(0.934663 0.186618 5.24867e-20)
(0.952239 0.192728 -3.79145e-20)
(1.00158 0.264386 0)
(1.12504 0.0315426 1.36203e-21)
(1.12912 0.0299767 2.23419e-21)
(1.1713 -0.0977057 -3.25292e-21)
(1.18305 -0.101333 5.07221e-21)
(1.09862 0.153651 6.12424e-21)
(1.11137 0.160661 -1.67738e-20)
(1.09981 0.16465 0)
(1.08729 0.15543 4.1392e-21)
(1.09852 0.176048 0)
(1.10598 0.230385 -1.49034e-20)
(1.10005 0.245298 -8.93041e-21)
(1.07815 0.271939 -1.73059e-20)
(1.09068 0.259602 0)
(1.11239 0.278227 4.99435e-20)
(1.09585 0.293579 2.94867e-21)
(1.06208 0.289724 -1.0831e-20)
(1.01058 0.347082 -4.77494e-20)
(1.00849 0.290091 -8.6662e-21)
(-0.0617631 -0.26177 4.32179e-20)
(0.0829349 -0.237823 -1.79882e-20)
(-0.107101 0.0334498 -1.34403e-19)
(0.501044 0.0103503 1.51862e-21)
(0.624638 0.0123888 0)
(-0.0143403 -0.003412 8.98589e-20)
(-0.0205773 0.00772811 4.647e-20)
(0.580712 0.0120667 1.94693e-22)
(0.668502 0.0121586 4.19511e-23)
(0.660998 0.0128487 0)
(0.567634 0.0145614 -2.15647e-23)
(0.719155 -0.698671 1.4641e-20)
(0.71162 -0.717669 -7.44731e-20)
(0.721003 -0.675355 -4.14341e-20)
(-0.0585103 -0.0451814 5.78656e-20)
(-0.013436 -0.00733865 -7.41975e-20)
(-0.0116023 -0.00304816 7.27083e-20)
(-0.0562773 -0.0333038 0)
(-0.025503 -0.0145183 9.68995e-20)
(-0.023713 -0.0144972 -8.43125e-20)
(-0.0719144 -0.0167736 -8.73819e-20)
(-0.0963892 -0.040002 -8.90318e-20)
(-0.0573592 -0.0267292 0)
(0.0558966 0.23304 0)
(0.0257078 0.140334 0)
(0.00944834 0.0798942 0)
(1.31074 0.0554272 -6.08182e-21)
(1.298 0.053748 0)
(1.30897 0.0532673 6.48012e-21)
(0.924951 -0.0923343 2.00671e-19)
(0.938398 -0.098706 -7.28976e-20)
(0.934973 -0.0802816 0)
(0.913305 0.637957 5.37998e-22)
(0.91354 0.624633 -1.07457e-21)
(0.9116 0.647354 4.08395e-22)
(0.911281 0.609118 0)
(0.907824 0.592123 5.69535e-22)
(0.903024 0.574401 0)
(0.890666 0.580624 0)
(0.89603 0.556939 -1.99202e-21)
(0.885208 0.564874 0)
(0.893745 0.596512 6.00769e-22)
(0.895655 0.611481 0)
(0.895628 0.624941 -3.59056e-22)
(0.893114 0.635914 5.46831e-22)
(0.88868 0.642681 -4.07952e-22)
(0.887716 0.53985 1.90661e-21)
(0.878161 0.549422 6.97284e-23)
(0.907226 0.651763 4.89505e-24)
(0.881751 0.644129 6.88525e-22)
(0.900063 0.649021 -4.15649e-21)
(0.878702 0.52322 -1.66949e-24)
(0.870027 0.534331 7.02652e-23)
(0.871969 0.638108 -1.44558e-21)
(0.867916 0.50806 -1.75306e-21)
(0.854787 0.495495 1.75175e-21)
(0.859749 0.521408 -1.40987e-22)
(0.846663 0.51172 -2.88957e-22)
(0.892106 0.637809 4.04245e-21)
(0.859862 0.62343 9.76423e-22)
(0.838729 0.486574 0)
(0.830444 0.50587 2.85108e-22)
(0.878886 0.615721 -5.53435e-25)
(0.844617 0.598134 5.55798e-25)
(0.819725 0.48115 0)
(0.811459 0.503034 0)
(0.863992 0.581485 0)
(0.827512 0.561044 0)
(0.798413 0.477789 0)
(0.790745 0.500927 -1.55962e-22)
(0.84641 0.534399 2.86425e-21)
(0.808356 0.51165 6.57642e-25)
(0.776259 0.473344 -7.94806e-24)
(0.769987 0.49592 1.66312e-22)
(0.827126 0.474137 -2.87802e-21)
(0.788062 0.449867 0)
(0.755139 0.464163 0)
(0.751056 0.484237 0)
(0.80664 0.401601 1.91461e-22)
(0.767099 0.376646 -3.23662e-21)
(0.736917 0.4466 -1.06907e-21)
(0.735569 0.462706 0)
(0.7854 0.318064 -3.43517e-23)
(0.745852 0.292987 3.05975e-21)
(0.723012 0.418622 1.63372e-21)
(0.7247 0.429592 5.72462e-22)
(0.762926 0.223502 -3.46705e-21)
(0.724602 0.199509 0)
(0.713993 0.379094 -5.61361e-22)
(0.718567 0.384487 -3.78389e-22)
(0.741822 0.122515 1.73082e-21)
(0.704206 0.0992611 -3.36252e-21)
(0.710573 0.329564 2.63426e-21)
(0.71774 0.32846 -2.97065e-21)
(0.719297 0.0125386 -1.91408e-21)
(0.684143 -0.00775615 -5.33464e-23)
(0.711214 0.270771 0)
(0.721165 0.264601 -1.66601e-21)
(0.699188 -0.0989517 3.50159e-21)
(0.666254 -0.116428 -6.69451e-21)
(0.716951 0.203744 0)
(0.728561 0.194516 0)
(0.758993 0.0357983 1.89397e-21)
(0.736577 -0.0780452 7.8512e-21)
(0.680156 -0.21248 0)
(0.650368 -0.225577 3.12624e-21)
(0.805567 0.24929 1.23417e-21)
(0.782389 0.145601 -2.39303e-22)
(0.848837 0.426389 0)
(0.827663 0.342524 3.6857e-21)
(0.886463 0.555679 6.03677e-24)
(0.868614 0.497687 0)
(0.914409 0.63072 0)
(0.901852 0.59985 0)
(0.930227 0.657333 0)
(0.924276 0.649323 0)
(0.935557 0.649453 -7.87569e-22)
(0.934541 0.656607 -2.25077e-22)
(0.932775 0.621993 6.9757e-22)
(0.93494 0.63733 8.1192e-22)
(0.922632 0.586341 -1.04136e-21)
(0.927999 0.604978 -1.38849e-21)
(0.907672 0.548307 0)
(0.91598 0.567265 0)
(0.8882 0.511336 3.81433e-24)
(0.898446 0.529598 0)
(0.863328 0.47906 0)
(0.876687 0.494171 0)
(0.828787 0.458731 0)
(0.847487 0.467082 0)
(0.784742 0.448335 0)
(0.807518 0.453241 0)
(0.741778 0.426599 0)
(0.762193 0.440632 0)
(0.713343 0.370047 0)
(0.725147 0.403563 0)
(0.705315 0.272612 8.66414e-22)
(0.706912 0.326706 0)
(0.708876 0.210795 2.66338e-22)
(0.727064 0.132708 -3.74732e-22)
(0.740104 0.120018 3.71621e-22)
(0.727605 0.327309 0)
(0.742952 0.185167 1.7897e-21)
(0.733441 0.259127 7.42722e-22)
(0.7295 0.436924 -1.94956e-22)
(0.726199 0.387539 9.05026e-22)
(0.750399 0.500073 -6.10535e-24)
(0.737647 0.474583 0)
(0.785826 0.520809 0)
(0.766888 0.514598 0)
(0.824026 0.523225 0)
(0.80546 0.522391 0)
(0.853167 0.533016 0)
(0.840162 0.526285 -5.99552e-28)
(0.870343 0.556155 -4.71731e-24)
(0.863043 0.543337 0)
(0.879504 0.584626 0)
(0.875787 0.570211 0)
(0.881402 0.611639 0)
(0.881159 0.598834 0)
(0.874807 0.631458 0)
(0.879331 0.622969 3.51312e-22)
(0.859047 0.634466 -1.33979e-22)
(0.867907 0.635697 5.01365e-22)
(0.832296 0.608523 0)
(0.847026 0.625976 4.56929e-22)
(0.796789 0.541906 0)
(0.815508 0.580918 0)
(0.755374 0.428366 0)
(0.776498 0.491029 0)
(0.712327 0.270486 0)
(0.733789 0.354532 0)
(0.672192 0.0790353 8.73056e-22)
(0.691707 0.17823 0)
(0.638425 -0.129387 3.26705e-21)
(0.654316 -0.0239394 7.93089e-22)
(0.625885 -0.234801 -3.19593e-21)
(0.71553 -0.192421 -7.66643e-21)
(0.716908 0.143785 -6.19676e-22)
(0.756168 0.107786 1.77014e-21)
(0.638234 -0.331144 0)
(0.617223 -0.335136 0)
(0.697495 -0.30403 0)
(0.664847 -0.321993 0)
(0.802729 0.0589013 0)
(0.756327 -0.168898 -2.22078e-21)
(0.779125 -0.0543571 -2.06126e-21)
(0.849737 0.270839 -2.59952e-21)
(0.826506 0.168203 5.24567e-22)
(0.891581 0.445609 -7.50407e-24)
(0.871392 0.363932 0)
(0.925787 0.570308 0)
(0.909894 0.514771 0)
(0.948906 0.639873 0)
(0.938842 0.611816 0)
(0.959961 0.660939 0)
(0.955831 0.655635 0)
(0.959869 0.648507 0)
(0.96135 0.657953 0)
(0.952048 0.617354 2.77802e-24)
(0.956938 0.634471 -7.81108e-22)
(0.93802 0.57891 2.20569e-24)
(0.945312 0.598544 1.29344e-21)
(0.919796 0.539036 0)
(0.92942 0.558922 0)
(0.89825 0.500267 -1.83768e-24)
(0.909398 0.519467 0)
(0.872786 0.46473 0)
(0.886199 0.481772 0)
(0.839233 0.439152 0)
(0.857335 0.450228 0)
(0.795413 0.425591 0)
(0.818374 0.431436 0)
(0.749569 0.407407 0)
(0.77184 0.418732 0)
(0.716063 0.360014 0)
(0.73049 0.388465 0)
(0.702711 0.273183 -5.72632e-22)
(0.706757 0.321435 0)
(0.741103 0.0599905 0)
(0.729264 0.0754079 -6.17874e-22)
(0.709782 0.154518 0)
(0.703761 0.217036 -5.82159e-22)
(0.760222 0.175679 -1.9925e-21)
(0.774967 0.0957467 -5.27991e-22)
(0.773149 0.0302379 -3.58899e-21)
(0.75551 0.044806 0)
(0.740936 0.324474 0)
(0.748767 0.253121 2.9445e-21)
(0.738025 0.441641 -7.51999e-24)
(0.737327 0.38792 -9.10681e-22)
(0.753037 0.513236 6.10528e-24)
(0.743288 0.483633 0)
(0.783437 0.539119 0)
(0.766764 0.531047 0)
(0.819162 0.540189 0)
(0.801492 0.540835 0)
(0.847643 0.544253 0)
(0.834885 0.540617 5.99547e-28)
(0.86372 0.561903 9.55459e-24)
(0.857135 0.551603 0)
(0.870146 0.586596 0)
(0.867956 0.573938 0)
(0.868694 0.609808 -1.69379e-22)
(0.870333 0.598856 0)
(0.858512 0.624957 0)
(0.864858 0.618912 1.68652e-22)
(0.83884 0.623069 -4.30232e-22)
(0.84978 0.626731 -4.01562e-22)
(0.808756 0.592233 0)
(0.824805 0.611971 0)
(0.770657 0.522058 0)
(0.790572 0.562632 0)
(0.727694 0.406902 0)
(0.749495 0.470116 0)
(0.684253 0.249525 0)
(0.705727 0.332976 0)
(0.645306 0.0612879 -1.07594e-23)
(0.663913 0.158274 0)
(0.61602 -0.139882 1.04476e-23)
(0.629165 -0.038745 0)
(0.601137 -0.334417 2.70263e-21)
(0.606284 -0.239923 -2.70134e-21)
(0.735293 -0.281894 -3.98768e-21)
(0.613849 -0.427325 0)
(0.601595 -0.421226 4.7385e-21)
(0.630816 -0.427074 0)
(0.719928 0.0902001 0)
(0.792935 0.0151986 5.11539e-22)
(0.683272 -0.40844 -8.48261e-21)
(0.717243 -0.389559 -3.46875e-21)
(0.617097 -0.506835 -1.51549e-21)
(0.608445 -0.494814 -6.01101e-21)
(0.653654 -0.422509 0)
(0.705366 0.164219 -1.81214e-21)
(0.713525 0.103718 9.08743e-22)
(0.792044 -0.0447852 9.24872e-22)
(0.812725 -0.0625841 -4.72419e-21)
(0.755497 -0.364711 -1.35736e-20)
(0.702709 -0.489386 7.06747e-21)
(0.725118 -0.554692 2.93641e-20)
(0.736529 -0.466375 7.5855e-21)
(0.801271 -0.142075 -4.35553e-21)
(0.777602 -0.255506 1.20456e-20)
(0.849217 0.0837214 4.43181e-21)
(0.825469 -0.0280455 3.2311e-21)
(0.89587 0.292519 1.05733e-21)
(0.873171 0.191651 1.11441e-21)
(0.936361 0.464248 7.50407e-24)
(0.917119 0.384178 0)
(0.9669 0.58405 0)
(0.953097 0.531209 0)
(0.984755 0.647377 0)
(0.977494 0.622524 0)
(0.989831 0.66247 0)
(0.988794 0.660029 0)
(0.984337 0.645112 0)
(0.988176 0.656819 0)
(0.971299 0.610682 0)
(0.978579 0.62925 0)
(0.953558 0.569865 -1.08487e-25)
(0.962943 0.590595 0)
(0.932463 0.528449 0)
(0.943357 0.549043 0)
(0.908923 0.488286 -1.53449e-24)
(0.920972 0.508194 0)
(0.882656 0.450353 0)
(0.896258 0.468844 0)
(0.850137 0.42006 0)
(0.867523 0.433742 0)
(0.807536 0.402256 0)
(0.830071 0.409796 0)
(0.760089 0.385761 0)
(0.783631 0.395276 0)
(0.721835 0.34683 0)
(0.738917 0.3704 0)
(0.702953 0.271575 -2.09783e-22)
(0.70967 0.313757 1.09435e-22)
(0.701498 0.221006 9.10536e-22)
(0.75757 -0.00988787 3.12767e-22)
(0.733718 0.0253536 -1.05394e-21)
(0.744404 0.00799372 9.14924e-22)
(0.773668 -0.0274957 0)
(0.780638 0.164512 1.63884e-21)
(0.815301 0.000311751 4.7574e-21)
(0.796714 0.0823049 -3.88037e-21)
(0.758042 0.31904 0)
(0.767683 0.244289 0)
(0.750061 0.443349 -6.5885e-25)
(0.752041 0.385779 0)
(0.75898 0.523427 0)
(0.752345 0.489602 0)
(0.783739 0.555307 6.35047e-24)
(0.769707 0.544819 0)
(0.816056 0.55634 0)
(0.799751 0.557841 0)
(0.843302 0.555152 0)
(0.830994 0.55453 0)
(0.858331 0.566835 -4.8393e-24)
(0.852385 0.559352 0)
(0.862379 0.587039 -4.85324e-24)
(0.861535 0.576503 0)
(0.857765 0.606106 0)
(0.861086 0.597224 0)
(0.844169 0.61659 0)
(0.852151 0.612949 0)
(0.820968 0.609732 0)
(0.833786 0.615923 0)
(0.788088 0.574356 0)
(0.805517 0.596237 0)
(0.747779 0.500994 7.65208e-24)
(0.76866 0.542904 0)
(0.703633 0.384804 0)
(0.725904 0.448251 0)
(0.660313 0.228835 0)
(0.681536 0.311247 0)
(0.623154 0.0446022 1.32523e-24)
(0.640622 0.139235 0)
(0.597646 -0.149654 -1.37924e-24)
(0.608605 -0.0525565 0)
(0.589096 -0.332971 -8.39492e-24)
(0.590979 -0.244027 0)
(0.603219 -0.481025 3.83097e-21)
(0.592828 -0.413439 -1.00399e-21)
(0.622064 -0.55141 -9.87393e-22)
(0.620456 -0.531001 -2.01087e-21)
(0.673326 -0.50171 3.53097e-21)
(0.629769 -0.512025 2.64936e-21)
(0.725643 0.0418284 -2.08049e-22)
(0.83614 -0.0793874 -3.73976e-21)
(0.692084 -0.579365 -5.86072e-22)
(0.626911 -0.568518 0)
(0.712127 -0.644081 -4.02294e-20)
(0.645377 -0.562088 -2.42513e-21)
(0.643161 -0.588706 -3.71542e-21)
(0.738172 -0.67015 6.83041e-20)
(0.727934 -0.703658 -1.11789e-20)
(0.648476 -0.510339 0)
(0.75949 -0.534079 -8.35027e-21)
(0.750482 -0.607555 -3.85258e-21)
(0.797118 -0.34051 -8.09086e-21)
(0.77471 -0.444606 1.17399e-20)
(0.848522 -0.114917 4.50184e-21)
(0.822779 -0.228878 2.20213e-21)
(0.898645 0.109799 -2.31069e-21)
(0.873952 -0.00116912 -2.29637e-21)
(0.944784 0.314921 0)
(0.922437 0.215827 2.49148e-23)
(0.98299 0.481554 0)
(0.965155 0.4041 0)
(1.00916 0.59498 -6.49835e-24)
(0.997777 0.545481 0)
(1.02115 0.651441 0)
(1.01694 0.629983 0)
(1.01988 0.660594 0)
(1.02201 0.660947 0)
(1.00856 0.638946 0)
(1.01525 0.652562 0)
(0.990779 0.601786 -2.52749e-24)
(1.00027 0.621539 0)
(0.969291 0.559311 -1.22368e-25)
(0.980378 0.580779 0)
(0.945563 0.516722 0)
(0.957663 0.537865 0)
(0.920176 0.475607 2.91262e-24)
(0.933056 0.495984 0)
(0.893088 0.436059 0)
(0.90692 0.455555 0)
(0.861571 0.40184 0)
(0.878212 0.417809 0)
(0.82086 0.379337 0)
(0.842519 0.389012 0)
(0.773047 0.362834 0)
(0.797234 0.371456 0)
(0.730764 0.331059 0)
(0.750253 0.350274 0)
(0.706337 0.266823 1.00934e-22)
(0.715829 0.303331 0)
(0.703716 0.170883 0)
(0.70231 0.222064 1.63974e-22)
(0.720167 0.0568959 3.96183e-23)
(0.709842 0.114931 0)
(0.750226 -0.0372604 1.06876e-21)
(0.733819 -0.00150772 -4.08629e-23)
(0.740847 -0.0191357 -4.39769e-22)
(0.776207 -0.0758719 -4.92428e-22)
(0.76205 -0.056639 3.26381e-22)
(0.812469 -0.115209 1.858e-22)
(0.793293 -0.0955934 -2.27329e-22)
(0.858293 -0.153252 0)
(0.834166 -0.134851 2.21913e-21)
(0.84119 -0.0160112 1.13117e-21)
(0.885071 -0.17148 2.15837e-21)
(0.862688 -0.0968341 -5.02669e-21)
(0.804595 0.151354 5.83397e-22)
(0.822117 0.0671397 0)
(0.778391 0.310487 0)
(0.790016 0.233164 0)
(0.765475 0.442155 -6.17359e-25)
(0.770163 0.380739 0)
(0.768222 0.530506 0)
(0.764774 0.492512 0)
(0.786841 0.568946 -6.35047e-24)
(0.775766 0.555632 0)
(0.814873 0.571204 0)
(0.800389 0.572905 0)
(0.840251 0.565555 0)
(0.82864 0.567681 0)
(0.854184 0.571013 0)
(0.848838 0.566581 0)
(0.856115 0.586156 6.93825e-26)
(0.856483 0.577996 0)
(0.848526 0.600835 0)
(0.853407 0.594132 0)
(0.83184 0.6066 0)
(0.841348 0.605356 0)
(0.805596 0.594845 0)
(0.819924 0.603509 0)
(0.770296 0.555305 0)
(0.788917 0.579132 0)
(0.728236 0.479211 -7.65208e-24)
(0.749877 0.52223 0)
(0.683321 0.362527 0)
(0.70584 0.42591 0)
(0.640528 0.208706 0)
(0.661309 0.289696 0)
(0.60549 0.0294009 9.43289e-24)
(0.62168 0.121212 0)
(0.583774 -0.15733 -9.12019e-24)
(0.59264 -0.0643226 0)
(0.580527 -0.329753 8.29997e-24)
(0.579558 -0.246808 0)
(0.601069 -0.463614 -8.84058e-22)
(0.58746 -0.403285 1.86681e-21)
(0.650561 -0.532871 6.97661e-22)
(0.621931 -0.507408 -1.61721e-21)
(0.676737 -0.575735 2.77204e-22)
(0.684956 -0.542468 -1.21316e-21)
(0.668257 -0.58138 2.84985e-21)
(0.635847 -0.579347 0)
(0.688053 -0.64308 2.85085e-20)
(0.643143 -0.61013 0)
(0.716709 0.0695327 1.36328e-22)
(0.728983 0.0145475 -8.87913e-23)
(0.880625 -0.219452 1.85759e-21)
(0.907253 -0.238634 2.26466e-21)
(0.704282 -0.696539 2.70051e-20)
(0.670896 -0.606148 3.75143e-21)
(0.723995 -0.740179 0)
(0.755883 -0.661347 7.0665e-21)
(0.712011 -0.576702 1.55808e-21)
(0.722688 -0.542481 -1.5588e-21)
(0.741886 -0.708812 -1.56525e-20)
(0.6494 -0.584415 0)
(0.79178 -0.513324 0)
(0.773901 -0.593485 7.67443e-21)
(0.841296 -0.313515 0)
(0.814506 -0.419345 0)
(0.897132 -0.0878781 0)
(0.869465 -0.201684 -2.28133e-21)
(0.949192 0.134518 0)
(0.923767 0.0248333 0)
(0.994976 0.335585 0)
(0.973084 0.238876 0)
(1.03053 0.496775 0)
(1.01431 0.42227 0)
(1.0519 0.603226 6.49835e-24)
(1.04316 0.557349 0)
(1.05761 0.65248 0)
(1.05666 0.634546 0)
(1.04977 0.65574 0)
(1.05514 0.658806 0)
(1.03257 0.630179 0)
(1.04206 0.645504 0)
(1.01009 0.590828 1.25866e-25)
(1.02179 0.611495 0)
(0.985089 0.547215 -1.33623e-25)
(0.997796 0.569171 0)
(0.958881 0.503914 0)
(0.972103 0.525382 0)
(0.931834 0.462233 -1.56707e-25)
(0.945456 0.482884 0)
(0.903937 0.421736 0)
(0.91803 0.44184 0)
(0.873283 0.384523 0)
(0.889231 0.40234 0)
(0.834934 0.357223 0)
(0.855358 0.369299 0)
(0.788033 0.339046 0)
(0.812172 0.34774 0)
(0.74274 0.312728 0)
(0.764246 0.328331 0)
(0.713011 0.259108 0)
(0.725271 0.289971 0)
(0.70484 0.174403 -1.30523e-22)
(0.706208 0.220023 -1.66467e-22)
(0.708529 0.123303 3.00772e-22)
(0.768796 -0.0962298 5.51617e-22)
(0.750163 -0.0574657 0)
(0.758603 -0.0767797 4.44928e-22)
(0.796291 -0.136503 0)
(0.781222 -0.116059 -5.63004e-22)
(0.83361 -0.178306 -1.27448e-21)
(0.813839 -0.157254 4.04446e-22)
(0.855996 -0.199617 2.68983e-21)
(0.87064 -0.0343982 -6.48938e-22)
(0.914205 -0.190552 -2.21366e-21)
(0.892546 -0.115196 0)
(0.831939 0.135891 1.29871e-21)
(0.850685 0.0501552 -1.30325e-21)
(0.802154 0.299578 0)
(0.815851 0.219791 0)
(0.784178 0.438097 -5.6266e-25)
(0.791553 0.373079 0)
(0.780727 0.53438 0)
(0.780504 0.492371 0)
(0.792816 0.579724 0)
(0.784951 0.563292 0)
(0.815775 0.584363 0)
(0.803537 0.585625 0)
(0.838583 0.575248 0)
(0.827969 0.579723 0)
(0.851253 0.574466 -4.9646e-24)
(0.846519 0.57322 0)
(0.851332 0.584036 4.78386e-24)
(0.852754 0.578494 0)
(0.841048 0.594102 0)
(0.847347 0.589657 0)
(0.821543 0.595189 0)
(0.832442 0.5963 0)
(0.792727 0.578741 0)
(0.808289 0.589729 0)
(0.755409 0.535338 0)
(0.774993 0.560956 0)
(0.712064 0.456963 0)
(0.734247 0.500863 0)
(0.666815 0.340319 0)
(0.689365 0.403355 0)
(0.624933 0.189323 6.77522e-24)
(0.645088 0.268535 0)
(0.592302 0.0157641 -6.79016e-24)
(0.607094 0.104342 0)
(0.574475 -0.162646 6.40189e-24)
(0.581236 -0.0740859 0)
(0.576127 -0.324745 0)
(0.572588 -0.247216 0)
(0.602568 -0.444572 0)
(0.585888 -0.391761 0)
(0.658975 -0.500868 -3.86776e-24)
(0.62682 -0.480894 -6.92464e-22)
(0.734936 -0.507017 2.37712e-21)
(0.696232 -0.507392 0)
(0.760042 -0.54006 1.64739e-21)
(0.772347 -0.507322 -8.64729e-23)
(0.669442 -0.644718 -8.77768e-21)
(0.647884 -0.627633 0)
(0.744081 -0.0397871 5.67506e-22)
(0.936567 -0.257717 4.25079e-21)
(0.689791 -0.698949 4.29043e-21)
(0.718623 -0.747694 2.75604e-22)
(0.706499 -0.732156 -1.22011e-20)
(0.666686 -0.633304 0)
(0.702478 -0.609134 -7.8428e-22)
(0.73369 -0.749196 1.21669e-20)
(0.724557 -0.767451 -8.93846e-21)
(0.72154 -0.756873 1.01832e-20)
(0.747873 -0.572945 1.94651e-21)
(0.793642 -0.542926 -1.13482e-21)
(0.80611 -0.513435 -7.99948e-22)
(0.656608 -0.640619 0)
(0.780423 -0.643359 -4.58258e-22)
(0.747694 -0.741156 -6.28729e-22)
(0.762542 -0.699619 -3.16967e-21)
(0.828121 -0.486927 -4.04056e-21)
(0.8032 -0.571386 4.06255e-21)
(0.887088 -0.283836 -8.85835e-24)
(0.856588 -0.390188 0)
(0.946845 -0.0603186 0)
(0.917533 -0.172841 0)
(1.00082 0.159067 0)
(0.974688 0.0510553 0)
(1.04624 0.355673 0)
(1.02485 0.261399 0)
(1.07879 0.510275 -7.58808e-24)
(1.06441 0.439348 0)
(1.09469 0.608577 0)
(1.08895 0.566857 0)
(1.09356 0.650094 0)
(1.09611 0.635851 0)
(1.07892 0.647647 0)
(1.08761 0.653261 0)
(1.05593 0.618756 0)
(1.06816 0.635473 0)
(1.02898 0.577865 2.40163e-24)
(1.04275 0.599131 0)
(1.00071 0.533683 -1.425e-25)
(1.01491 0.55585 0)
(0.972239 0.490144 0)
(0.986476 0.511718 0)
(0.943743 0.448262 -2.28767e-24)
(0.958003 0.469013 0)
(0.915116 0.407346 0)
(0.929465 0.427739 0)
(0.885145 0.368097 0)
(0.900504 0.387258 0)
(0.849346 0.336361 0)
(0.868331 0.350838 0)
(0.804539 0.315153 0)
(0.827931 0.324801 0)
(0.757646 0.29229 0)
(0.780508 0.30522 0)
(0.72278 0.248131 -1.33688e-24)
(0.737922 0.273785 0)
(0.708996 0.174887 1.31089e-22)
(0.713127 0.215 0)
(0.716096 0.0793039 -1.68471e-22)
(0.710174 0.129017 0)
(0.739718 -0.0234108 -9.74387e-23)
(0.726127 0.0281536 1.32054e-22)
(0.768462 -0.109589 -3.16109e-22)
(0.755815 -0.0729261 0)
(0.761461 -0.091285 -3.91921e-22)
(0.788551 -0.149428 0)
(0.777638 -0.129463 0)
(0.817148 -0.19082 0)
(0.801723 -0.169938 0)
(0.854962 -0.233694 0)
(0.834938 -0.212166 0)
(0.902409 -0.276135 -1.89343e-21)
(0.877726 -0.255584 -4.13598e-22)
(0.957771 -0.313894 -5.23178e-22)
(0.928875 -0.295465 -3.85414e-21)
(0.946992 -0.209972 -3.12473e-21)
(0.988756 -0.331044 -5.61842e-22)
(0.968401 -0.275735 1.16601e-21)
(0.903154 -0.0538182 -6.67807e-22)
(0.92487 -0.135116 3.87992e-21)
(0.862623 0.118452 -5.33987e-25)
(0.882249 0.0315655 0)
(0.829182 0.286455 0)
(0.844832 0.204155 0)
(0.806142 0.431236 -4.95749e-25)
(0.816192 0.362934 0)
(0.796428 0.53496 0)
(0.799472 0.489137 0)
(0.801688 0.587369 0)
(0.797227 0.56763 0)
(0.818885 0.595421 0)
(0.809277 0.595643 0)
(0.838379 0.583985 0)
(0.829104 0.590301 0)
(0.849508 0.577226 9.88137e-24)
(0.845447 0.579167 0)
(0.84798 0.58082 0)
(0.850295 0.578117 0)
(0.835348 0.586026 0)
(0.842895 0.583919 0)
(0.813326 0.582522 0)
(0.825463 0.585924 0)
(0.782341 0.561622 0)
(0.798924 0.574785 0)
(0.743423 0.514647 4.65246e-24)
(0.763738 0.541895 0)
(0.699232 0.434416 0)
(0.72174 0.478978 0)
(0.654076 0.318346 0)
(0.676447 0.380752 0)
(0.613481 0.170831 -6.77522e-24)
(0.632831 0.247924 0)
(0.583463 0.00370001 1.27491e-24)
(0.596788 0.0887167 0)
(0.569362 -0.165828 -1.15082e-23)
(0.574146 -0.0819827 0)
(0.575771 -0.316729 0)
(0.569689 -0.24513 0)
(0.60867 -0.422655 0)
(0.588505 -0.377031 0)
(0.671104 -0.465691 9.98648e-25)
(0.636618 -0.451801 0)
(0.747963 -0.47008 0)
(0.709373 -0.469373 0)
(0.817342 -0.484081 1.05092e-21)
(0.784492 -0.473861 0)
(0.834632 -0.527552 1.06024e-23)
(0.846127 -0.500905 -1.68721e-21)
(0.678466 -0.686537 0)
(0.736129 -0.760982 -1.55994e-20)
(0.699042 -0.724753 -2.83631e-21)
(0.737023 -0.00810436 9.72649e-23)
(0.751405 -0.0547069 0)
(0.977188 -0.359197 -4.98354e-22)
(1.00651 -0.375118 9.44612e-22)
(0.666611 -0.65623 0)
(0.69485 -0.64046 0)
(0.713742 -0.745627 0)
(0.736186 -0.605168 7.72415e-22)
(0.781011 -0.572352 1.12304e-21)
(0.822859 -0.553643 0)
(0.860503 -0.547032 -2.20821e-21)
(0.872326 -0.52184 1.39776e-21)
(0.670348 -0.676402 0)
(0.767152 -0.726462 1.43576e-24)
(0.734696 -0.766266 -4.12491e-21)
(0.741227 -0.760797 1.40675e-20)
(0.750588 -0.751277 -4.81188e-21)
(0.811814 -0.621349 2.20274e-21)
(0.787876 -0.682554 3.14758e-21)
(0.869427 -0.457297 0)
(0.839501 -0.545373 0)
(0.935066 -0.252518 8.85669e-24)
(0.901866 -0.358797 0)
(0.998368 -0.0313038 0)
(0.967492 -0.142414 0)
(1.05401 0.184171 0)
(1.02732 0.0783045 0)
(1.09851 0.37491 0)
(1.07793 0.283868 0)
(1.12716 0.521338 7.58807e-24)
(1.11509 0.454741 0)
(1.13672 0.610517 0)
(1.13437 0.57334 0)
(1.1283 0.644136 0)
(1.13451 0.63357 0)
(1.10684 0.636403 0)
(1.11882 0.644304 0)
(1.07829 0.604842 0)
(1.09313 0.62261 0)
(1.04717 0.563061 -2.1041e-24)
(1.06286 0.584611 0)
(1.01594 0.518853 -1.48948e-25)
(1.03149 0.540971 0)
(0.985472 0.475521 0)
(1.0006 0.49699 0)
(0.955744 0.433782 1.5201e-25)
(0.970537 0.454472 0)
(0.926516 0.392864 0)
(0.941082 0.413299 0)
(0.897061 0.352467 0)
(0.911952 0.372466 0)
(0.86376 0.317015 0)
(0.881253 0.333656 0)
(0.821989 0.291872 0)
(0.844016 0.303171 0)
(0.775073 0.270333 0)
(0.798508 0.281685 0)
(0.735922 0.234333 2.15539e-24)
(0.753632 0.255218 0)
(0.716143 0.172239 9.427e-25)
(0.723236 0.206602 0)
(0.717803 0.0873551 -1.94064e-22)
(0.714466 0.131943 1.63451e-22)
(0.725566 0.0398931 -1.32233e-22)
(0.787932 -0.156599 -7.64788e-23)
(0.773132 -0.117809 -1.16152e-23)
(0.78011 -0.137482 2.17368e-22)
(0.809074 -0.19673 0)
(0.797495 -0.176368 0)
(0.838404 -0.238587 4.54092e-27)
(0.822666 -0.217483 0)
(0.876129 -0.280862 0)
(0.856234 -0.259778 0)
(0.922927 -0.322474 -8.51899e-22)
(0.898509 -0.302064 8.37798e-22)
(0.94907 -0.341542 1.26729e-22)
(0.982132 -0.228872 -1.97168e-23)
(1.02115 -0.347232 1.08093e-21)
(1.00264 -0.293507 3.45075e-23)
(0.938472 -0.0741766 6.94893e-22)
(0.960315 -0.15498 -6.96062e-22)
(0.896255 0.0992124 1.11708e-23)
(0.917012 0.0114489 0)
(0.85932 0.271222 1.12232e-23)
(0.876908 0.186685 0)
(0.831276 0.421566 -4.16309e-25)
(0.844 0.350308 0)
(0.815239 0.53218 0)
(0.821589 0.48278 0)
(0.813433 0.591654 0)
(0.81253 0.568507 0)
(0.824277 0.603998 0)
(0.81764 0.602639 0)
(0.839701 0.59147 0)
(0.83213 0.599039 0)
(0.848915 0.579296 -4.91677e-24)
(0.845635 0.584265 0)
(0.845977 0.576691 -4.31517e-24)
(0.849036 0.576992 0)
(0.831386 0.576769 0)
(0.839985 0.577097 0)
(0.807187 0.568749 0)
(0.820398 0.57437 0)
(0.774388 0.543656 0)
(0.791809 0.55885 0)
(0.734266 0.493434 -4.65246e-24)
(0.755103 0.522137 0)
(0.689638 0.411761 4.14717e-24)
(0.712264 0.456766 0)
(0.644985 0.296792 0)
(0.666975 0.358292 0)
(0.606013 0.153371 0)
(0.624406 0.228034 0)
(0.578695 -0.00679033 1.21905e-24)
(0.590555 0.0744188 0)
(0.56808 -0.167024 8.98127e-24)
(0.57103 -0.088099 0)
(0.57919 -0.305891 0)
(0.570527 -0.240742 0)
(0.618945 -0.396832 0)
(0.59511 -0.35886 0)
(0.687442 -0.428649 9.29745e-25)
(0.650407 -0.419173 0)
(0.764697 -0.433514 0)
(0.726725 -0.431069 0)
(0.829794 -0.455223 -5.45263e-22)
(0.799135 -0.441159 0)
(0.884005 -0.49626 -5.34831e-22)
(0.857327 -0.474671 1.08508e-21)
(0.72796 -0.766313 1.39671e-20)
(0.730189 -0.771579 1.45235e-20)
(0.898075 -0.544158 6.79383e-22)
(0.910173 -0.518572 -6.79114e-22)
(0.692941 -0.708092 0)
(0.767659 -0.098753 -1.16387e-22)
(1.03762 -0.389703 4.03338e-21)
(0.735218 -0.756528 -3.27851e-21)
(0.69064 -0.667384 0)
(0.734483 -0.757458 -9.0182e-22)
(0.711391 -0.735378 0)
(0.725912 -0.637532 0)
(0.724351 -0.742988 0)
(0.768474 -0.602213 0)