/*--------------------------------*- C++ -*----------------------------------*\
  =========                 |
  \\      /  F ield         | OpenFOAM: The Open Source CFD Toolbox
   \\    /   O peration     | Website:  https://openfoam.org
    \\  /    A nd           | Version:  10
     \\/     M anipulation  |
\*---------------------------------------------------------------------------*/
FoamFile
{
    format      ascii;
    class       surfaceScalarField;
    location    "7";
    object      phi;
}
// * * * * * * * * * * * * * * * * * * * * * * * * * * * * * * * * * * * * * //

dimensions      [0 3 -1 0 0 0 0];

internalField   nonuniform List<scalar> 
12623
(
0.388776
0.0878124
-0.145259
-0.331329
0.299925
-0.123262
0.212113
0.301079
-0.0507762
-0.276991
0.0266878
-0.0745667
0.311066
0.0645804
-0.291969
0.0854591
-0.0884412
0.294951
-0.283534
-0.0830019
-0.0102616
0.178022
-0.199716
0.0319555
-0.231247
0.220985
-0.268595
-0.00196504
0.27056
-0.168191
-0.0691897
-0.0312146
0.407971
-0.169173
-0.238798
-0.274561
0.225929
0.456604
-0.202059
-0.145468
0.148484
0.199042
0.0187264
0.0335263
-0.254312
-0.19133
0.0645887
-0.00174629
-0.0682858
-0.0068849
0.076917
-0.0130452
-0.00906025
0.0203591
-0.118041
0.0367104
-0.00999495
-0.0512088
0.0126647
0.048539
-0.0993694
0.0153665
0.074008
-0.084705
-0.0658732
0.0237839
0.090069
-0.0914122
-0.0224408
-0.0156696
0.0226903
0.0167632
-0.197672
0.272071
-0.269813
0.0257561
0.277583
0.0405347
-0.301018
-0.00933008
-0.306749
0.0246144
0.307891
-0.250061
-0.135594
0.142528
0.243127
-0.254961
0.16598
-0.161079
-0.249655
0.235485
0.107479
-0.0933088
-0.249411
-0.135838
-0.330933
0.0988947
-0.0978697
0.329908
-0.0848052
-0.314018
0.0678899
0.31172
-0.369536
0.0915899
-0.098186
0.376132
-0.0970714
-0.3461
0.073636
-0.35085
-0.0981806
0.351959
-0.329162
0.0772064
0.379963
-0.0970297
-0.384568
0.101634
-0.0777883
0.109626
0.348126
-0.380699
-0.103866
0.387535
-0.362643
0.0735343
-0.0661985
0.0739329
0.227751
-0.258859
0.0606646
-0.057876
0.256071
-0.0334249
-0.253458
0.028024
-0.0558338
-0.278476
-0.270607
-0.0796111
0.267216
-0.265776
-0.00975062
-0.332465
-0.0112511
0.353467
0.252777
0.0595557
-0.322084
-0.236741
0.0649495
0.424569
-0.118015
0.373843
-0.299645
0.0438173
-0.2952
0.300571
0.0632162
-0.0712038
-0.292583
0.0700918
0.277811
-0.0473316
-0.0286064
0.0175507
0.31408
-0.303024
-0.325127
0.322292
-0.0257722
0.306555
-0.0325967
0.0383002
-0.312258
0.220067
-0.204961
0.138059
-0.153164
0.170627
0.232241
-0.182801
-0.19303
0.0920918
-0.104023
-0.181899
0.0348665
-0.0459977
-0.178685
-0.0286329
0.0254191
-0.184541
-0.0890943
0.0949498
-0.192392
-0.141907
0.149759
-0.20822
-0.180336
0.196164
-0.218439
-0.206261
0.21648
-0.221255
-0.227636
0.230452
0.233051
-0.215171
0.152748
0.190343
0.246475
-0.204578
0.246798
0.176595
-0.19973
0.122617
-0.183672
0.0760335
-0.174042
0.0252363
-0.173357
-0.0293177
-0.178593
-0.0838579
-0.192112
-0.128388
-0.204673
-0.167775
-0.221185
-0.189749
-0.231217
-0.211224
-0.194501
0.253686
0.187613
0.25247
-0.200496
-0.229185
-0.235694
0.237244
-0.247866
-0.212536
-0.194439
0.256241
0.191884
0.26086
-0.202829
-0.228903
-0.242683
0.235892
-0.253556
-0.223214
-0.186544
0.258073
0.184711
-0.180645
-0.226473
-0.242189
0.225979
-0.261171
-0.218858
0.255769
0.168284
0.150937
0.24736
-0.22028
0.216149
-0.238058
-0.218255
-0.263196
0.253274
-0.260691
0.192128
-0.234828
0.23795
0.147816
0.18673
0.2568
-0.245378
0.176191
0.187993
0.229785
-0.212896
0.135859
0.161002
0.197853
-0.184526
0.0627058
0.107575
0.178639
-0.178544
-0.0294126
0.0193491
0.187987
-0.198774
-0.117601
-0.0744141
0.217695
-0.232098
-0.175346
-0.148855
0.251402
-0.262966
-0.200972
-0.19192
0.278486
-0.283426
-0.213918
-0.207694
-0.288742
-0.212938
-0.239177
0.24448
0.230589
0.240353
0.209724
-0.233927
0.227155
-0.237004
0.233887
0.233568
0.244719
-0.219978
0.213822
0.20232
0.23039
-0.202733
0.199509
0.0981734
0.160848
-0.204671
0.207816
-0.0491422
0.0202572
-0.228094
0.231104
-0.156174
-0.124301
-0.249871
0.242925
-0.197632
-0.201568
-0.254587
0.247995
-0.196237
-0.212157
-0.257036
-0.153454
-0.189686
-0.114781
0.118734
0.243407
0.235825
0.133831
0.222852
0.198113
-0.288851
-0.198005
0.192711
-0.257793
-0.236635
0.250432
0.195926
0.182694
-0.190979
-0.225642
-0.223463
0.169522
-0.158236
0.154447
-0.285063
-0.321605
0.313639
-0.190039
-0.15297
-0.326871
0.243469
-0.242712
-0.0940665
0.250499
-0.262894
0.160211
0.251438
0.132892
0.232848
-0.055577
-0.236326
0.257233
-0.25469
0.189585
0.181068
0.248965
-0.240076
0.167302
0.182268
0.229584
-0.213372
0.119647
0.15051
0.198518
-0.19002
0.0542078
0.0927214
0.185996
-0.188674
-0.0267347
0.0153243
0.196292
-0.209498
-0.104395
-0.0667958
0.225419
-0.243931
-0.156834
-0.132934
0.262344
-0.27894
-0.184375
-0.173507
0.29413
-0.306286
-0.201762
-0.192504
-0.205586
-0.263662
0.266758
0.227492
0.213926
-0.271804
0.26493
0.240442
0.239673
-0.260036
0.245383
0.216973
0.235283
-0.241441
0.232585
0.107029
0.164791
-0.228245
0.234397
-0.055294
0.0245976
-0.229139
0.249074
-0.17611
-0.119043
-0.240393
0.255298
-0.212537
-0.192887
-0.246508
0.24367
-0.193399
-0.203367
-0.23772
0.251636
-0.16737
-0.183735
-0.126914
-0.0816855
0.109834
0.215259
0.228073
-0.103251
0.249981
0.104708
0.229435
-0.138571
0.122507
-0.207399
-0.14586
-0.218353
0.150071
-0.253417
-0.359467
0.343705
-0.174277
-0.36869
-0.143747
0.0862066
-0.0826911
-0.330386
0.0856816
-0.284538
-0.210485
0.226873
0.106119
0.0624699
-0.0664124
-0.203456
-0.201933
0.0539182
-0.0221561
0.0395879
0.210319
0.223981
-0.0132894
0.0384717
-0.0442485
0.255758
0.276855
-0.273273
0.101125
0.286273
0.0290536
-0.247787
-0.0484807
0.240691
-0.240101
-0.101753
-0.232115
0.271346
-0.27104
0.159905
0.130965
0.270855
-0.265431
0.184161
0.180883
0.261558
-0.25271
0.158455
0.178395
0.235567
-0.227277
0.111356
0.133367
0.213004
-0.206093
0.0472965
0.0784491
0.20153
-0.20231
-0.0259542
0.0107608
0.209626
-0.220308
-0.0937124
-0.05948
0.237324
-0.253424
-0.140734
-0.115918
0.276178
-0.292951
-0.167602
-0.150753
0.312977
-0.325376
-0.189363
-0.172478
-0.187256
-0.248769
0.26513
0.179565
0.147626
-0.278525
0.287676
0.218341
0.200531
-0.298483
0.291647
0.247279
0.228867
-0.295893
0.288429
0.224437
0.231037
-0.283141
0.276808
0.113362
0.170078
-0.27141
0.267982
-0.0518669
0.0299963
-0.266368
0.266356
-0.176099
-0.117428
-0.26634
0.265188
-0.211385
-0.19287
-0.256073
0.256582
-0.193908
-0.194253
-0.244986
0.235073
-0.157457
-0.172139
-0.131942
-0.0471729
0.0486048
0.213827
0.220488
0.233791
-0.375647
-0.0757335
-0.0745801
-0.210185
0.0814437
-0.249179
0.00917102
-0.0100848
-0.20102
0.00809128
-0.202376
-0.00604644
0.00690679
-0.331247
-0.00483259
-0.285752
-0.0133171
0.0083988
0.260676
-0.0219282
0.294884
0.0159047
-0.00536482
0.199779
0.0201115
0.219774
0.232186
-0.239988
-0.0939518
-0.0572861
0.240992
0.314156
-0.303347
0.0903169
0.318477
0.0247328
-0.382779
0.0140381
-0.104301
0.100483
-0.378961
-0.103497
-0.33205
0.234897
-0.00749504
-0.225252
0.300591
-0.304492
0.163806
0.128209
0.297135
-0.291468
0.178494
0.173526
0.272828
-0.262409
0.148035
0.159755
0.249924
-0.237707
0.0991385
0.120883
0.227506
-0.219332
0.0391233
0.0682481
0.215391
-0.216287
-0.0250587
0.00681944
0.222851
-0.234509
-0.0820547
-0.0529157
0.249113
-0.266825
-0.123022
-0.101314
0.285999
-0.306011
-0.14759
-0.131578
0.325378
-0.346135
-0.168606
-0.153112
0.365736
-0.383172
-0.156841
-0.167655
0.397494
-0.410762
-0.0624648
-0.129425
0.41106
-0.41007
0.0994931
0.0143351
-0.224303
0.239288
0.0911338
0.211526
-0.207765
-0.0138461
0.0411419
-0.25815
0.279076
0.158639
0.128764
-0.298067
0.304815
0.211593
0.18154
-0.317468
0.325054
0.239693
0.216213
-0.329531
0.331469
0.2225
0.22656
-0.330319
0.326539
0.117142
0.171228
-0.321684
0.316343
-0.0465253
0.0348513
-0.310787
0.303905
-0.169216
-0.111873
-0.296718
0.288251
-0.202918
-0.185682
-0.281073
0.265854
-0.178689
-0.187075
-0.256178
0.244425
-0.145704
-0.162463
-0.127505
-0.00572635
1.05356e-05
0.219542
0.209397
0.242201
-0.0749343
0.0805672
-0.206653
-0.212317
-0.0703828
0.17912
-0.179519
-0.378561
-0.394219
0.163269
0.0076079
-0.209702
-0.00637301
-0.247639
-0.0199855
0.316534
0.0296669
0.225341
0.246742
-0.247947
-0.0927472
0.245045
-0.0555892
0.086709
-0.208518
-0.102023
-0.287226
0.126723
-0.115883
-0.223157
0.139925
-0.219855
-0.184814
-0.326755
0.207816
-0.230268
-0.356109
0.196562
-0.382966
0.245335
-0.0118386
-0.224017
0.356157
-0.348544
0.0827034
-0.348191
0.348674
-0.0204685
0.0326993
0.348372
-0.336435
0.151869
0.128037
0.324244
-0.309245
0.163496
0.161335
0.294392
-0.279342
0.132985
0.144901
0.265169
-0.251915
0.0858849
0.10671
0.240659
-0.232583
0.0310467
0.056992
0.228938
-0.230923
-0.0230733
0.003175
0.237193
-0.248461
-0.0707861
-0.0466466
0.262866
-0.281221
-0.104667
-0.086909
0.300254
-0.319503
-0.128341
-0.112545
0.338564
-0.359776
-0.147394
-0.134051
0.383542
-0.400101
-0.140283
-0.143888
0.421609
-0.427058
-0.0570157
-0.107917
0.432586
-0.429039
0.0959459
0.0198639
0.416628
-0.393913
0.173847
0.150858
-0.217296
0.223207
-0.0197564
0.220686
-0.232437
-0.104132
-0.0669937
-0.234476
0.253141
0.0724689
0.0298726
-0.273935
0.28798
0.144594
0.10797
-0.307589
0.324468
0.194714
0.161932
-0.338966
0.352525
0.226134
0.201716
-0.363556
0.372106
0.213949
0.215529
-0.37633
0.37611
0.117362
0.167004
-0.371565
0.364314
-0.039274
0.0393964
-0.35461
0.341618
-0.156225
-0.102169
-0.327572
0.312827
-0.188174
-0.171636
-0.29637
0.285211
-0.16753
-0.170618
-0.2701
0.258301
-0.133905
-0.147351
-0.117151
-0.144267
0.161881
-0.24077
-0.250667
-0.126037
0.198119
-0.226959
-0.354125
-0.367501
0.171707
0.241577
-0.0202518
0.0529973
-0.0514438
0.223788
0.236699
0.040205
-0.0496455
0.20922
0.208535
0.0502611
-0.0525031
0.221784
0.210012
0.0558123
-0.0603427
0.265207
0.24551
0.0637276
-0.0635121
0.316318
0.298269
-0.0587838
0.343945
0.0916617
-0.214655
-0.0971718
-0.25249
0.149828
-0.218421
-0.182115
-0.289925
0.176062
-0.234035
-0.233607
-0.323416
0.154153
-0.130837
-0.273983
0.17333
-0.259947
-0.242501
-0.340567
-0.180107
0.15623
-0.343624
-0.210227
-0.324005
0.371275
-0.375896
-0.0158482
0.364939
-0.0524479
-0.229527
0.378331
-0.377948
0.0823204
0.0351349
0.370887
-0.363089
0.144072
0.120975
0.344582
-0.326929
0.145843
0.142827
0.309363
-0.292701
0.116323
0.127335
0.276687
-0.262923
0.0721211
0.0906961
0.251854
-0.245158
0.0243514
0.0459226
0.242661
-0.244789
-0.0209444
0.000677128
0.250823
-0.261617
-0.0599918
-0.0406134
0.27624
-0.293342
-0.0875652
-0.0722859
0.310523
-0.328022
-0.110842
-0.0953645
0.347231
-0.369144
-0.125481
-0.114842
0.392194
-0.414196
-0.118281
-0.120838
0.431114
-0.43877
-0.0493598
-0.0909981
0.436613
-0.42937
0.0887024
0.0177068
0.417949
-0.403091
0.158989
0.139437
0.380362
-0.357378
0.133246
0.148979
-0.245702
0.233377
-0.091807
0.266627
-0.287319
-0.110145
-0.105112
-0.229522
0.234172
-0.0244064
-0.063139
-0.24676
0.260408
0.0588216
0.0172845
-0.280322
0.301255
0.123661
0.0880552
-0.320685
0.340302
0.175097
0.142501
-0.358252
0.376403
0.207983
0.183766
-0.392126
0.406307
0.199768
0.199805
-0.415489
0.419497
0.113353
0.157823
-0.416477
0.407501
-0.0302977
0.0424166
-0.393814
0.375358
-0.137769
-0.0884823
-0.355265
0.334239
-0.167148
-0.151543
-0.316097
0.299086
-0.150518
-0.152476
-0.280847
0.269646
-0.122705
-0.129112
-0.258218
0.25018
-0.0847097
-0.105722
-0.251921
0.25627
-0.0246002
-0.0573299
0.0185175
0.0731395
-0.0756696
0.226318
-0.0753321
0.251792
0.234506
0.0809948
-0.0864103
0.214635
0.213861
0.0911864
-0.0997317
0.23033
0.214788
0.0996858
-0.106821
0.272342
0.245464
0.101227
-0.103268
0.318359
0.292675
-0.136324
0.155446
-0.293106
-0.30303
-0.120613
0.137167
-0.161126
-0.319665
-0.332129
0.111918
0.0931359
-0.0793721
0.351176
0.333814
0.162078
-0.226904
-0.173322
-0.261283
0.192318
-0.234677
-0.23341
-0.290123
0.19218
-0.252885
-0.254341
-0.311576
0.176202
-0.280703
-0.233415
-0.31738
0.145734
-0.131587
-0.317177
0.162872
-0.310243
-0.187744
-0.297388
-0.116402
-0.306285
0.090557
-0.143049
-0.293018
-0.327068
0.308384
-0.112903
-0.136727
0.154704
-0.335153
-0.343877
-0.119918
0.082164
-0.110628
-0.27782
-0.28922
0.312482
0.0672942
-0.267995
0.060939
0.371593
-0.381668
-0.0692972
-0.104929
0.115829
0.340275
0.33736
-0.0706954
-0.240771
0.39006
-0.404799
-0.00110864
-0.0440563
0.407839
-0.40584
0.0803213
0.0381747
0.393208
-0.375596
0.12646
0.108343
0.357152
-0.337845
0.126536
0.124383
0.318446
-0.301187
0.0990632
0.107937
0.284612
-0.27229
0.0597988
0.0741216
0.261866
-0.256833
0.0193182
0.0354991
0.253885
-0.256117
-0.0187126
-0.00227112
0.261455
-0.271494
-0.0499534
-0.0352749
0.283625
-0.296692
-0.0744981
-0.0601546
0.310833
-0.32747
-0.0942044
-0.0812241
0.347662
-0.370391
-0.102752
-0.0946499
0.392886
-0.414003
-0.0971646
-0.0983437
0.430077
-0.437371
-0.0420654
-0.0749237
0.431788
-0.416507
0.0734219
0.0121231
0.396221
-0.374936
0.137704
0.119151
0.35707
-0.334892
0.111067
0.131113
0.0895094
-0.294145
0.280002
-0.0960028
-0.106373
-0.259336
0.24459
-0.0770613
-0.084446
-0.237253
0.241518
-0.0286712
-0.0558018
-0.252105
0.267865
0.0430616
0.00669745
-0.285269
0.30569
0.10324
0.0706507
-0.326462
0.349231
0.152328
0.12173
-0.370881
0.39351
0.185353
0.162115
-0.413598
0.432393
0.180973
0.179718
-0.445223
0.451795
0.106781
0.144993
-0.450193
0.439741
-0.0198453
0.0440184
-0.423286
0.40161
-0.116092
-0.0720273
-0.378922
0.355243
-0.143469
-0.128855
-0.334507
0.314881
-0.130892
-0.131741
-0.29778
0.283891
-0.108816
-0.112011
-0.268857
0.262223
-0.0780758
-0.0906889
-0.25852
0.262701
-0.028781
-0.0536265
0.00274195
0.093112
-0.0946863
0.253366
0.271887
0.101989
-0.110134
0.234463
0.241808
0.116976
-0.12293
0.220589
0.220703
0.127742
-0.130944
0.233532
0.2196
0.131652
-0.127793
0.268483
0.246172
0.125148
-0.122291
0.315502
0.29003
0.327352
0.207947
-0.242534
-0.22202
-0.272673
0.209996
-0.252494
-0.251985
-0.292479
0.195204
-0.271887
-0.244422
-0.300569
0.181966
-0.299797
-0.213634
-0.291489
0.174552
-0.330092
-0.167481
-0.272955
0.141375
-0.120794
-0.364458
0.162639
-0.356417
-0.128755
-0.274891
-0.0712465
-0.252766
0.0560181
-0.0986214
-0.250446
-0.351287
0.335012
-0.104519
-0.124497
0.144407
-0.384368
-0.370177
-0.105607
0.048502
-0.0613338
-0.239934
-0.275054
0.283051
0.0480213
-0.267311
0.0407589
-0.129945
0.134981
0.335239
-0.119374
0.326789
0.379768
-0.39667
-0.052395
0.373094
-0.0640216
-0.254843
0.407728
-0.419042
0.0102055
-0.0329982
0.420767
-0.41542
0.0749745
0.0398999
0.400312
-0.382651
0.1088
0.0932345
0.363451
-0.343381
0.106467
0.105182
0.324512
-0.307285
0.0818365
0.0890675
0.292158
-0.280166
0.0478071
0.0589943
0.270895
-0.265279
0.0137017
0.0262284
0.263283
-0.265231
-0.0167645
-0.0042674
0.271392
-0.279078
-0.0422667
-0.0291138
0.28871
-0.297836
-0.0653726
-0.0505225
0.310074
-0.324972
-0.0793065
-0.0689862
0.343236
-0.363624
-0.0823639
-0.0763853
0.385213
-0.407594
-0.0747832
-0.0767548
0.425398
-0.433292
-0.0341717
-0.0571197
0.425513
-0.402975
0.0508844
0.00434389
0.373686
-0.350385
0.114403
0.0898609
0.327673
-0.307942
0.0913366
0.108401
0.292842
-0.289269
0.0637204
0.0744093
0.0547211
-0.317173
0.302129
-0.0978592
-0.102079
-0.288783
0.279505
-0.0867248
-0.0930269
-0.266685
0.253412
-0.0637884
-0.0716266
-0.245483
0.247288
-0.0304757
-0.0478726
-0.257044
0.272359
0.0277466
-0.00305883
-0.288978
0.308037
0.0841814
0.054032
-0.327729
0.350607
0.129451
0.102037
-0.373677
0.398832
0.160198
0.139045
-0.422073
0.443936
0.15911
0.156477
-0.459267
0.467822
0.0982263
0.129662
-0.467788
0.457877
-0.00993447
0.044052
-0.441124
0.418239
-0.0932076
-0.0552737
-0.394568
0.369675
-0.118576
-0.105184
-0.347745
0.327758
-0.110904
-0.109812
-0.31066
0.294801
-0.0929569
-0.0949134
-0.282332
0.273247
-0.0689907
-0.0782206
-0.270423
0.270662
-0.0290202
-0.0508018
-0.00358712
0.101158
-0.101848
0.295641
0.315008
0.11043
-0.122753
0.265689
0.280469
0.130735
-0.13725
0.240978
0.24979
0.142643
-0.147489
0.225435
0.226096
0.151431
-0.153436
0.235537
0.223542
0.153004
-0.151305
0.266784
0.24574
0.148735
-0.141989
0.308756
0.28746
0.320343
0.226669
-0.259207
-0.24081
-0.283848
0.212251
-0.269541
-0.245096
-0.291805
0.199679
-0.289601
-0.223404
-0.2908
0.194883
-0.320127
-0.190509
-0.268462
0.186917
-0.35437
-0.149605
-0.252104
0.172615
-0.384625
-0.12184
-0.251672
0.122894
-0.101683
-0.391388
0.146125
-0.4076
-0.0842808
-0.227499
-0.0333307
0.0275037
-0.261484
-0.0409367
-0.232328
-0.00488362
0.258603
-0.268984
0.376828
-0.397829
-0.0313947
-0.344716
0.276878
0.0629535
-0.0319089
0.417748
-0.422033
0.0144912
-0.0130793
0.423694
-0.414379
0.0656603
0.0415602
0.403066
-0.383284
0.0890185
0.081921
0.365222
-0.344446
0.0856913
0.0871194
0.327327
-0.309174
0.0636833
0.071948
0.295912
-0.28314
0.0350351
0.0457326
0.275815
-0.270282
0.00816914
0.0189034
0.270797
-0.272771
-0.0147906
-0.00375323
0.278835
-0.284523
-0.0365794
-0.0230489
0.292431
-0.301758
-0.056046
-0.0426139
0.314239
-0.329179
-0.0643657
-0.0565056
0.344932
-0.362403
-0.0648934
-0.0606325
0.380425
-0.399237
-0.0559715
-0.0587321
0.414254
-0.42249
-0.025936
-0.0421026
0.419044
-0.401536
0.0333758
0.000898385
0.374962
-0.346155
0.0855968
0.0632866
0.324997
-0.310816
0.0771551
0.0872436
0.301998
-0.295651
0.0573734
0.0655912
0.292553
-0.288271
0.0437393
0.0516232
0.280058
-0.272165
0.0196109
0.0325463
-0.350887
0.331129
-0.0847612
0.367591
-0.393525
-0.0757492
-0.0889027
-0.3146
0.30013
-0.0833893
-0.0855501
-0.286469
0.277234
-0.0774895
-0.0793662
-0.269376
0.260642
-0.055054
-0.0637689
-0.252901
0.250567
-0.0281417
-0.0401316
-0.256568
0.270444
0.0138711
-0.00906023
-0.287765
0.30801
0.0639358
0.0367112
-0.328244
0.350796
0.106898
0.0818033
-0.373318
0.398064
0.135452
0.116523
-0.42126
0.443572
0.136797
0.133282
-0.460454
0.471577
0.0871035
0.11278
-0.473334
0.464175
-0.000775426
0.0422945
-0.446702
0.422921
-0.0694263
-0.0378003
-0.399165
0.375139
-0.0945501
-0.0814283
-0.354551
0.335969
-0.0923216
-0.0892237
-0.320376
0.3057
-0.0782814
-0.0793206
-0.292382
0.282884
-0.0594928
-0.0649022
-0.277802
0.280599
-0.0318169
-0.0457198
-0.283887
0.294773
0.015802
-0.00687508
0.0453351
0.108811
-0.11956
0.306391
-0.102399
0.334127
0.32142
0.129359
-0.142686
0.279016
0.290268
0.150839
-0.157312
0.24745
0.257943
0.162408
-0.165805
0.228832
0.231193
0.167444
-0.166807
0.2349
0.225181
0.163612
-0.160195
0.263367
0.242545
0.150392
-0.139065
0.29743
0.277657
0.135814
-0.128185
0.327611
0.317092
0.150842
0.38464
0.349446
-0.0906928
0.117624
-0.418319
-0.410179
-0.074039
0.00971425
-0.0132595
-0.257939
-0.26832
0.00586908
0.22656
-0.273516
-0.237618
-0.291326
-0.316606
0.0553341
0.214639
-0.284501
-0.22973
-0.285479
0.403824
-0.344977
0.00410623
-0.0750771
0.109947
0.34977
-0.0316839
0.360431
0.212929
-0.307647
-0.206214
-0.275095
0.211014
-0.344224
-0.1753
-0.242767
0.201198
-0.382953
-0.138626
-0.235319
0.181903
-0.420402
-0.110828
-0.225126
0.148849
-0.438824
-0.0550255
-0.21341
0.0802751
-0.0645446
-0.425909
0.107729
-0.445773
-0.0132293
-0.232359
-0.0113343
0.00860865
-0.255213
-0.00977987
-0.269875
-0.280042
0.378158
-0.397152
-0.0124012
0.00127249
0.410331
-0.418295
0.0224545
0.000100258
0.417076
-0.409531
0.0581145
0.040342
0.393456
-0.377897
0.0734595
0.0658466
0.36049
-0.341228
0.0664293
0.0697119
0.324855
-0.308116
0.0469437
0.0555757
0.296896
-0.286881
0.0250197
0.0345129
0.282925
-0.2813
0.00654355
0.0149482
0.283613
-0.287735
-0.0106692
-0.0014401
0.293098
-0.300351
-0.0293265
-0.0176855
0.308508
-0.319614
-0.0449401
-0.0344569
0.330092
-0.341126
-0.0533322
-0.0460272
0.350371
-0.361044
-0.0542201
-0.0513875
0.37225
-0.385101
-0.0431202
-0.0475265
0.396636
-0.405094
-0.0174774
-0.0305678
0.405905
-0.396374
0.0238451
0.00170868
0.377818
-0.354591
0.0623699
0.0447304
0.333524
-0.321318
0.0649492
0.0661767
0.31104
-0.30314
0.0494735
0.0553128
0.294065
-0.285752
0.0354261
0.0425486
0.281127
-0.277786
0.0162691
0.0279218
0.275092
-0.27672
-0.00815221
0.00317575
-0.372651
0.366344
-0.0694418
0.387101
-0.402023
-0.0496222
-0.0595895
-0.351588
0.343609
-0.0767825
-0.0741467
-0.332051
0.322975
-0.0743129
-0.0739923
-0.310322
0.296849
-0.0640167
-0.066713
-0.286102
0.276807
-0.0457584
-0.0530223
-0.26877
0.262366
-0.021738
-0.0320948
-0.26185
0.268762
0.00695905
-0.0085444
-0.282121
0.301315
0.0447412
0.0233528
-0.322266
0.346086
0.0830785
0.0608527
-0.369293
0.394305
0.11044
0.0933163
-0.41719
0.439496
0.114491
0.110396
-0.456447
0.467173
0.0763773
0.0958292
-0.467572
0.457738
0.00905924
0.0418952
-0.440528
0.418465
-0.0473637
-0.0205905
-0.396848
0.375537
-0.0732387
-0.0598111
-0.357412
0.340826
-0.0757359
-0.0710988
-0.32743
0.314448
-0.0652998
-0.065924
-0.30267
0.293925
-0.0507475
-0.0531244
-0.28573
0.282827
-0.0289133
-0.0375251
-0.285814
0.295707
0.00590906
-0.00986291
0.0244364
0.105049
-0.112934
0.342012
0.358822
0.123535
-0.141024
0.32388
0.332021
0.153314
-0.163373
0.289076
0.302557
0.170185
-0.174368
0.251634
0.264755
0.17671
-0.176825
0.228946
0.233535
0.175021
-0.171292
0.23117
0.223377
0.165217
-0.156826
0.254975
0.236471
0.146323
-0.134876
0.285983
0.267154
0.120256
-0.110971
0.318325
0.302472
0.348422
-0.0444713
0.0573638
-0.438802
-0.41294
-0.0335539
-0.021467
0.0256753
-0.274083
-0.281399
-0.0167881
0.224526
-0.283403
-0.229716
-0.29134
0.38424
-0.3737
-0.00643354
0.360249
-0.00769293
0.226616
-0.298188
-0.220747
-0.270946
0.231183
-0.327816
-0.198601
-0.251793
0.22734
-0.370366
-0.164084
-0.217309
0.215193
-0.416244
-0.124531
-0.221615
0.184809
-0.456363
-0.0840714
-0.19608
0.139912
-0.471007
-0.0102226
-0.216417
0.0827921
-0.471201
0.0180055
-0.241755
0.0237
-0.0192227
-0.417418
0.0311355
-0.446237
0.0305547
-0.260092
-0.393133
0.389545
-0.0156345
-0.00422839
-0.386034
-0.00287048
-0.00252724
-0.419119
-0.101926
0.374192
-0.0280359
0.0359414
-0.281988
-0.0251911
-0.284244
-0.285231
0.377131
-0.390317
0.000784114
0.00470348
0.401317
-0.403298
0.0244357
0.0111007
0.400723
-0.393078
0.0504692
0.0377665
0.381436
-0.366623
0.0586469
0.0542047
0.350554
-0.334347
0.0502228
0.0536426
0.320033
-0.307467
0.034378
0.0412615
0.298947
-0.292973
0.019046
0.0259922
0.290602
-0.289887
0.00582878
0.0125771
0.290649
-0.292242
-0.00907551
-0.000678557
0.294014
-0.297869
-0.0254716
-0.0159135
0.302358
-0.309504
-0.0377944
-0.029968
0.316887
-0.326619
-0.0436002
-0.0386444
0.33689
-0.349111
-0.0419994
-0.0411157
0.360887
-0.372402
-0.0316058
-0.03575
0.381533
-0.387753
-0.0112577
-0.0214367
0.389042
-0.383819
0.0186223
0.00299781
0.372152
-0.355545
0.0457621
0.0330638
0.339369
-0.325607
0.0511874
0.0500013
0.315682
-0.307204
0.0409954
0.0453877
0.298393
-0.291218
0.0282503
0.0337378
0.282842
-0.277751
0.0111782
0.0195462
0.276142
-0.279464
-0.00483008
0.00156661
0.284241
-0.288855
-0.0205773
-0.0120108
-0.385595
0.377228
-0.0412548
-0.0296038
-0.368973
0.355974
-0.0564421
-0.0513352
-0.341763
0.32919
-0.0642098
-0.0599358
-0.318199
0.308374
-0.0644883
-0.0630009
-0.299191
0.291154
-0.0559793
-0.0575303
-0.284592
0.279377
-0.040543
-0.0464608
-0.275674
0.272331
-0.0183953
-0.0283914
-0.27067
0.27272
0.00490928
-0.00688324
-0.279977
0.293638
0.0310807
0.0160951
-0.311374
0.333831
0.0606212
0.0431166
-0.356854
0.381649
0.085645
0.0702934
-0.404086
0.424893
0.0936846
0.0879592
-0.439272
0.446518
0.0691311
0.0814501
-0.44558
0.437402
0.017238
0.0428329
-0.4244
0.407427
-0.030391
-0.00758832
-0.390171
0.372508
-0.0555764
-0.042555
-0.357038
0.342528
-0.0612255
-0.0556283
-0.330936
0.320106
-0.05447
-0.0543327
-0.311054
0.301814
-0.0415079
-0.0440719
-0.295418
0.291914
-0.0254087
-0.031129
-0.294204
0.301092
-0.000978703
-0.0121535
-0.305129
0.326723
0.0337399
0.0203994
0.057829
0.110705
-0.125396
0.356703
0.367601
0.141222
-0.154633
0.337291
0.347847
0.165942
-0.174402
0.297536
0.313866
0.179654
-0.182403
0.254383
0.270006
0.183146
-0.181423
0.227223
0.234278
0.17715
-0.170629
0.224649
0.219104
0.161763
-0.150445
0.243657
0.227606
0.137235
-0.125382
0.27413
0.253944
0.107109
-0.0931224
0.304339
0.284199
0.0590895
-0.0495917
0.340272
0.31439
0.0572051
-0.0824389
0.385483
0.368044
0.23229
-0.289077
-0.230446
-0.281641
0.0307085
-0.0272181
-0.292346
0.0356392
-0.289174
0.359602
-0.392244
-0.0497965
-0.102419
0.266974
0.220927
0.314733
-0.0575497
-0.287508
0.281272
-0.0143415
-0.289129
-0.0255966
0.244034
-0.31104
-0.220566
-0.248981
0.247412
-0.347887
-0.191802
-0.224075
0.2425
-0.397673
-0.146552
-0.195289
0.218943
-0.450378
-0.0974636
-0.208223
0.174008
-0.490458
-0.0361651
-0.170137
0.111632
-0.499848
0.0342558
-0.232667
0.0429245
-0.48299
0.0417416
-0.252942
0.00862563
-0.380672
-0.0139884
-0.368902
0.372291
0.00523661
-0.0194359
-0.362523
0.0130568
-0.373812
-0.0262954
-0.00358336
-0.445181
0.0483709
-0.272522
-0.408765
-0.0243422
0.0214129
-0.0435068
0.289068
-0.344408
0.0554011
-0.0699124
0.312253
-0.283387
0.377539
-0.378867
-0.0051052
-0.0223979
0.378489
-0.378751
0.00104671
0.00432472
0.382734
-0.381579
0.0232811
0.0150834
0.378929
-0.371165
0.042706
0.0351159
0.362752
-0.350648
0.0465428
0.045791
0.339126
-0.32706
0.0381566
0.0421213
0.317139
-0.30917
0.0264095
0.03134
0.303543
-0.300357
0.0158601
0.0203647
0.298076
-0.297548
0.00530074
0.0102965
0.296757
-0.298128
-0.00770457
-0.00146945
0.299721
-0.304337
-0.0208551
-0.0143208
0.309139
-0.316412
-0.0305219
-0.0251661
0.32345
-0.33209
-0.0349595
-0.0316062
0.34025
-0.348653
-0.0335961
-0.0329565
0.355922
-0.362448
-0.0250789
-0.0284814
0.367761
-0.371298
-0.00772057
-0.0161241
0.372027
-0.36832
0.0149153
0.00372695
0.36062
-0.349127
0.0342695
0.0253636
0.336979
-0.325361
0.0395689
0.037853
0.315962
-0.307962
0.0329947
0.0359892
0.301245
-0.295109
0.0221148
0.0270209
0.290234
-0.286205
0.00714955
0.014671
0.283157
-0.281241
-0.00674575
-0.00148166
-0.0119802
-0.376226
0.375808
-0.0152161
-0.0068058
-0.373121
0.367069
-0.0352032
-0.0269164
-0.358933
0.351904
-0.0494136
-0.0431989
-0.3438
0.334621
-0.0550309
-0.0518312
-0.325566
0.315834
-0.0547567
-0.0539462
-0.307075
0.298596
-0.0475003
-0.0487713
-0.291651
0.285901
-0.0347929
-0.0395153
-0.282352
0.280422
-0.0164646
-0.0248431
-0.279847
0.280965
0.00379124
-0.00630911
-0.284574
0.292383
0.0232716
0.0124863
-0.304036
0.320443
0.0442133
0.0314644
-0.338688
0.359008
0.0653257
0.0520484
-0.377597
0.394494
0.0767872
0.0693699
-0.406649
0.414484
0.0612961
0.0692954
-0.416857
0.413906
0.0201888
0.0404602
-0.40674
0.395117
-0.0187684
-0.000422292
-0.382301
0.367855
-0.0411307
-0.0297385
-0.354841
0.341925
-0.0483091
-0.0426141
-0.331445
0.322235
-0.0452599
-0.043853
-0.314945
0.308161
-0.0347242
-0.0367821
-0.302363
0.297924
-0.0209692
-0.0253311
-0.296799
0.297391
-0.00157095
-0.0110282
-0.307536
0.318862
0.022414
0.0102545
0.0322822
0.0907863
-0.101983
0.385389
0.400533
0.114179
-0.132532
0.375056
0.379796
0.149851
-0.165149
0.35259
0.365166
0.176907
-0.184916
0.305545
0.325624
0.189184
-0.18947
0.25467
0.274273
0.186667
-0.181475
0.222032
0.231475
0.174071
-0.16499
0.215568
0.211699
0.154556
-0.142195
0.231296
0.217173
0.12873
-0.114242
0.259642
0.240478
0.100103
-0.0838913
0.288126
0.27006
0.0651533
-0.0348518
0.309971
0.295651
0.289686
0.0414282
-0.287777
0.290144
-0.0453237
-0.0266491
0.0320559
-0.297752
-0.298911
-0.0168669
0.246409
-0.291452
-0.238386
-0.263821
0.257166
-0.320794
-0.218081
-0.222702
0.259188
-0.364575
-0.173871
-0.196756
0.0401223
-0.297241
0.243925
-0.422655
-0.113094
-0.179658
0.199974
-0.476343
-0.0492347
-0.195153
0.133652
-0.512478
0.0261863
-0.162068
0.0183114
-0.355062
-0.0257724
-0.348864
0.352509
0.0146661
-0.0208574
-0.344819
0.0168124
-0.349305
-0.026614
0.055803
-0.512726
0.0708092
-0.261734
-0.366081
-0.0335033
-0.00720597
-0.479367
0.0606383
-0.26521
-0.394308
-0.0407524
-0.0374897
-0.432034
0.0624484
-0.293542
0.0366246
-0.0526133
0.306133
0.253282
-0.39355
0.249894
0.0967674
-0.111066
0.362424
-0.0263254
0.032075
-0.303502
-0.307364
-0.0178726
-0.010981
0.36103
-0.275364
0.343469
-0.372037
-0.0212286
-0.318532
-0.0392712
0.31248
-0.0326126
0.37341
-0.371138
-0.00737734
-0.0210245
0.370055
-0.370435
0.00142711
0.00324153
0.368186
-0.365612
0.0207071
0.0128339
0.36075
-0.353609
0.0355649
0.0302542
0.345923
-0.337251
0.0378705
0.038105
0.329276
-0.321799
0.0306797
0.0341463
0.315584
-0.310868
0.0216935
0.0251247
0.306928
-0.304531
0.0134636
0.0164245
0.302104
-0.301157
0.00435314
0.00786981
0.300451
-0.301708
-0.00644778
-0.00217549
0.303409
-0.307257
-0.017007
-0.0126194
0.311289
-0.316842
-0.0249688
-0.0211344
0.322141
-0.328261
-0.0288397
-0.0263068
0.334171
-0.340644
-0.0271237
-0.0270463
0.346997
-0.352986
-0.0190903
-0.0221282
0.357514
-0.35972
-0.00551425
-0.0115956
0.359372
-0.355906
0.0114493
0.00337838
0.349908
-0.341484
0.0258455
0.0193658
0.332449
-0.323346
0.0304659
0.028818
0.315516
-0.308617
0.0260961
0.0281587
0.302882
-0.298005
0.0172382
0.0212856
0.294316
-0.292153
0.00498653
0.0109816
0.291584
-0.291115
-0.00721492
-0.00204997
0.290844
-0.289534
-0.0156516
-0.0122512
0.294874
-0.297748
-0.0139928
-0.0202567
-0.028404
-0.303851
0.0248914
0.296413
-0.304209
-0.0206074
-0.0192079
-0.358733
0.364453
-0.000482585
0.00683276
-0.366686
0.366892
-0.0154222
-0.00903946
-0.364545
0.35906
-0.0297187
-0.0245688
-0.35372
0.34594
-0.0416329
-0.0378588
-0.337874
0.328679
-0.0458363
-0.0437655
-0.321491
0.313977
-0.0472419
-0.0467582
-0.307485
0.301066
-0.0410813
-0.04228
-0.295662
0.290908
-0.0300395
-0.0341108
-0.287735
0.28612
-0.0148496
-0.0216698
-0.285937
0.28743
0.00229811
-0.00612602
-0.290066
0.29496
0.0183772
0.00985076
-0.301716
0.311648
0.0342817
0.0247083
-0.323171
0.337074
0.0514223
0.0405257
-0.350879
0.365258
0.0624079
0.0555649
-0.377497
0.387629
0.0511642
0.0570565
-0.393311
0.394037
0.0194632
0.0347781
-0.390862
0.383381
-0.0112873
0.00275275
-0.374517
0.363259
-0.0298731
-0.0208747
-0.352975
0.341651
-0.0369855
-0.0323297
-0.332548
0.323574
-0.0362864
-0.0347493
-0.31732
0.311518
-0.0289227
-0.0305276
-0.307269
0.303718
-0.0174188
-0.0210817
-0.301933
0.30325
-0.0028887
-0.00924233
-0.308303
0.315149
0.015568
0.00520197
-0.324975
0.346947
0.0334296
0.0224556
0.0359137
0.0904119
-0.100791
0.395768
0.379879
0.121765
-0.140669
0.39396
0.40077
0.15556
-0.168418
0.365448
0.380057
0.177818
-0.183263
0.31099