/*--------------------------------*- C++ -*----------------------------------*\
  =========                 |
  \\      /  F ield         | OpenFOAM: The Open Source CFD Toolbox
   \\    /   O peration     | Website:  https://openfoam.org
    \\  /    A nd           | Version:  10
     \\/     M anipulation  |
\*---------------------------------------------------------------------------*/
FoamFile
{
    format      ascii;
    class       volVectorField;
    location    "7";
    object      U;
}
// * * * * * * * * * * * * * * * * * * * * * * * * * * * * * * * * * * * * * //

dimensions      [0 1 -1 0 0 0 0];

internalField   nonuniform List<vector> 
6397
(
(4.3183 -0.736816 1.09176e-19)
(4.14768 -0.506144 -4.88231e-19)
(3.7281 -0.282751 0)
(3.75321 -0.612769 -1.31368e-22)
(3.73915 -1.00217 1.8993e-20)
(3.57744 -0.708488 4.11578e-20)
(3.44404 -2.00581 -5.15714e-19)
(1.86822 -3.37843 1.31273e-18)
(0.319437 2.40041 4.73264e-19)
(-0.905587 2.2243 -1.95222e-19)
(1.89002 3.08257 1.01618e-18)
(3.56529 3.72664 -1.05463e-19)
(3.64666 0.105248 -3.10265e-20)
(3.63829 0.0918351 -1.28326e-20)
(2.5132 0.109639 2.44972e-20)
(-1.07017 0.0218266 -2.46141e-18)
(0.518532 0.42854 -1.41194e-18)
(-2.33458 -0.00448201 1.17402e-18)
(1.3416 0.113861 7.84672e-19)
(2.11876 -0.48218 -2.40426e-18)
(1.82275 0.054623 -1.19397e-18)
(1.01886 -0.103529 -3.04107e-18)
(0.196286 0.307392 1.5121e-19)
(3.66317 0.503266 -2.25441e-18)
(4.00911 0.123555 0)
(4.27139 0.071894 7.75723e-22)
(4.37841 0.119272 -1.2437e-21)
(2.86051 2.27745 2.42441e-19)
(2.92901 2.51788 -5.70487e-20)
(2.74478 1.73063 9.87703e-20)
(2.83377 2.11449 -1.49044e-19)
(4.11794 -1.00696 5.24646e-20)
(4.04616 -0.742586 4.07724e-20)
(3.90433 -0.884569 -1.40194e-19)
(4.62334 -0.97876 8.42801e-21)
(4.49667 -0.85934 0)
(4.42331 -1.04688 -1.41838e-20)
(4.24067 -0.833371 -3.61301e-20)
(4.75766 -0.726893 2.249e-20)
(4.89557 -0.739012 -1.18128e-20)
(4.83551 -0.949891 0)
(4.62901 -0.76578 0)
(2.66751 1.25492 -4.12319e-20)
(3.16339 -0.43157 2.63551e-20)
(3.14385 0.000767536 -2.67926e-20)
(3.57658 -0.325591 8.22014e-20)
(3.3881 -0.798011 3.23961e-20)
(3.38939 -0.378777 -9.75118e-20)
(5.06497 -0.515829 1.04372e-20)
(4.83701 -0.393521 -2.50804e-21)
(4.77123 -0.303262 3.29329e-20)
(4.5323 -0.248797 -9.90501e-21)
(4.62344 -0.302041 -6.37003e-20)
(4.46596 0.988485 -1.21266e-19)
(3.47039 0.734057 7.82101e-20)
(4.03656 0.0492608 4.53155e-20)
(4.05305 0.0643771 4.39573e-20)
(4.33535 -0.117572 -4.11895e-20)
(2.54475 1.80012 -1.65995e-19)
(2.72372 2.19511 1.64884e-19)
(2.37914 1.21131 2.02142e-19)
(2.28131 0.471148 -1.98441e-19)
(2.29057 -0.356653 -2.16705e-19)
(2.38945 -1.16962 2.13039e-19)
(2.56978 -1.86163 0)
(2.78302 -2.37553 1.47859e-19)
(3.00841 -2.70109 -1.55372e-19)
(3.18404 -2.86509 0)
(2.67327 2.03745 -1.09644e-19)
(2.88329 2.4491 -1.06499e-21)
(2.84847 2.33449 1.03591e-19)
(2.49118 1.62672 0)
(2.31324 1.06197 0)
(2.20951 0.374029 0)
(2.20344 -0.381314 -5.0245e-22)
(2.30094 -1.11021 8.73914e-23)
(2.49243 -1.73472 0)
(2.71526 -2.20484 -1.24924e-23)
(2.95968 -2.52288 0)
(3.16096 -2.726 0)
(2.96002 2.52525 -1.09408e-19)
(2.97175 2.58089 7.67703e-21)
(3.32897 -2.93105 0)
(3.35474 -2.84041 0)
(3.03217 2.64452 -3.17347e-21)
(3.0094 2.63764 0)
(3.39986 -2.9315 0)
(3.47434 -2.8987 0)
(3.04408 2.65489 2.26421e-19)
(2.98624 2.63366 -2.56744e-20)
(3.41046 -2.89037 0)
(3.54412 -2.91391 0)
(3.04688 2.55512 -1.79413e-19)
(2.98703 2.3485 -1.39611e-19)
(3.3629 -2.78372 0)
(3.53077 -2.84882 2.02398e-20)
(3.17045 2.66223 0)
(3.19333 2.38003 2.7907e-19)
(3.1958 2.60443 1.72769e-20)
(3.01204 2.43016 -8.14062e-20)
(3.10726 2.59749 0)
(2.70203 1.86637 -4.08561e-20)
(2.87926 2.19644 8.12852e-20)
(2.3741 0.907797 4.85733e-20)
(2.53804 1.44387 3.3774e-20)
(2.2794 -0.381713 5.03273e-22)
(2.28563 0.288607 -5.05793e-20)
(2.54932 -1.5891 3.08422e-21)
(2.37028 -1.02669 -5.10267e-20)
(2.99703 -2.36134 -3.71106e-20)
(2.75209 -2.03659 7.98498e-20)
(3.4399 -2.70333 0)
(3.21168 -2.57437 0)
(3.73076 -2.8468 0)
(3.59702 -2.77883 0)
(3.78107 -2.84845 -4.03675e-20)
(3.44185 -2.92961 -1.10536e-19)
(3.32314 -2.68414 -6.48323e-20)
(3.42032 -2.84499 1.09147e-19)
(3.30834 -2.9483 1.28271e-19)
(3.41001 -2.97064 -1.25347e-19)
(2.99367 -2.49176 1.4176e-21)
(3.18106 -2.80104 4.67066e-21)
(2.66141 -1.22299 0)
(2.82078 -1.96822 0)
(2.56475 0.600602 2.55634e-19)
(2.58509 -0.314718 3.83352e-20)
(2.7453 1.99559 3.95202e-20)
(2.63187 1.40377 -2.53622e-19)
(3.00974 2.54205 7.19403e-20)
(2.8906 2.35892 -9.63487e-21)
(3.06546 2.61213 -1.01803e-19)
(3.06646 2.61337 -6.54579e-20)
(2.92425 2.37118 0)
(3.016 2.53675 1.14469e-19)
(2.94281 1.95507 -1.48875e-19)
(2.78503 1.87916 2.10098e-21)
(3.21119 1.99502 9.21945e-20)
(3.80519 -2.64317 -8.47358e-20)
(3.47436 -2.60821 1.95186e-20)
(3.34306 -2.54616 -6.24412e-22)
(3.18176 -2.37438 6.50281e-20)
(3.16578 -2.20152 0)
(3.78031 -2.11259 5.92964e-20)
(4.19337 -2.60038 -1.17489e-19)
(4.27612 -2.08098 1.16845e-19)
(2.80085 1.60517 4.19703e-20)
(3.4638 2.38089 -1.47911e-19)
(3.56432 2.00434 -8.81705e-20)
(2.71365 1.15845 4.04873e-20)
(3.26914 -2.50036 5.45969e-21)
(3.36459 2.59338 0)
(3.43038 2.55446 -2.70326e-20)
(3.16229 2.31012 7.45368e-22)
(3.26824 2.49496 0)
(2.85175 1.69895 -8.8357e-21)
(2.99878 2.04623 1.55036e-20)
(2.55285 0.786811 0)
(2.68116 1.29004 4.53575e-21)
(2.45424 -0.35092 0)
(2.46095 0.239691 2.40815e-21)
(2.66915 -1.42547 0)
(2.51651 -0.91485 4.71254e-21)
(3.09557 -2.12774 -1.27354e-21)
(2.85029 -1.82946 3.66393e-21)
(3.57946 -2.48974 1.93923e-21)
(3.33111 -2.33691 -3.4275e-21)
(3.95392 -2.71927 -1.66656e-21)
(3.77819 -2.6084 -1.58153e-21)
(4.07828 -2.75803 1.98985e-20)
(3.56996 -2.9042 1.49194e-21)
(3.50081 -2.7505 1.58349e-21)
(3.5697 -3.03396 -1.38841e-22)
(3.59982 -3.00554 0)
(3.37686 -2.64564 0)
(3.49172 -2.93651 -2.93503e-21)
(3.14937 -1.25673 0)
(3.24185 -2.0773 0)
(3.03645 0.737669 -3.34261e-22)
(3.0585 -0.255949 -3.88947e-20)
(3.08116 2.19575 -2.79421e-20)
(3.02191 1.58438 0)
(3.22272 2.6527 -6.71549e-20)
(3.15106 2.52247 0)
(3.19518 2.57391 3.19684e-21)
(3.23917 2.64654 6.73086e-20)
(2.99401 2.26456 6.0726e-23)
(3.10103 2.46998 1.09964e-20)
(2.88941 1.98474 -4.08882e-20)
(2.91986 1.44561 3.14461e-20)
(2.73422 1.38401 0)
(3.56986 1.47812 5.66339e-20)
(3.19888 1.48332 -4.67682e-20)
(2.95468 -1.63923 0)
(3.00142 -1.80142 0)
(3.38707 -2.05286 -3.21435e-20)
(4.61589 -2.4399 -9.42402e-21)
(4.78868 -1.93177 0)
(4.31152 -1.14066 -1.93162e-20)
(3.76525 -1.17158 1.02879e-20)
(2.98372 -1.45459 0)
(2.77916 -0.839696 0)
(2.79942 -0.729063 -3.91764e-20)
(2.65434 0.692515 6.26356e-20)
(2.67367 0.63292 0)
(3.61878 0.787694 -1.18183e-19)
(3.97498 1.46438 -9.16439e-22)
(4.061 0.787994 2.96661e-19)
(2.85196 1.0453 0)
(2.92906 1.45936 -1.86239e-20)
(3.13982 -1.93597 0)
(3.79775 2.30281 1.55541e-20)
(3.99088 1.96115 0)
(3.58891 2.47467 2.4756e-22)
(3.75952 2.46801 4.22168e-22)
(3.33675 2.1365 -3.019e-21)
(3.48337 2.36457 0)
(3.02553 1.50902 8.44962e-24)
(3.1714 1.86563 -2.53727e-21)
(2.74878 0.661281 -5.20596e-24)
(2.85558 1.12165 -2.19469e-21)
(2.64856 -0.338736 2.40926e-21)
(2.65842 0.176331 0)
(2.82821 -1.27655 0)
(2.69417 -0.829544 -2.45523e-21)
(3.2405 -1.91301 -1.15574e-21)
(3.00709 -1.63374 5.52646e-22)
(3.74767 -2.26664 0)
(3.48613 -2.1202 -1.73735e-22)
(4.21193 -2.53636 -1.62685e-21)
(3.99243 -2.40417 4.91156e-21)
(4.41689 -2.59674 1.96248e-20)
(3.43613 -2.37413 -8.00159e-21)
(3.22836 -1.99675 2.5075e-23)
(3.76165 -2.84984 -4.01857e-21)
(3.63093 -2.64351 1.36724e-20)
(3.87912 -3.08844 -5.03996e-21)
(3.84003 -3.00594 -1.63461e-20)
(3.84095 -2.76953 0)
(3.86581 -3.03154 2.49887e-20)
(3.73222 -1.37006 0)
(3.78405 -2.20568 0)
(3.59847 0.670015 6.70236e-22)
(3.65633 -0.359009 0)
(3.52272 2.2053 0)
(3.55375 1.56451 0)
(3.50909 2.64648 0)
(3.51894 2.55685 0)
(3.37857 2.47803 1.85751e-20)
(3.47512 2.60013 0)
(3.13754 2.11277 -6.01238e-23)
(3.27269 2.3359 -1.89791e-20)
(3.01586 1.8372 2.05625e-20)
(2.92039 0.782713 4.11891e-20)
(2.726 0.76355 -5.86712e-20)
(3.21638 0.807167 1.02581e-19)
(4.86718 -1.01994 1.46441e-19)
(2.85857 -0.950991 0)
(3.32837 -1.12597 4.16863e-20)
(2.69366 0.128798 4.14715e-20)
(2.68149 0.117456 0)
(4.31014 0.116376 2.09071e-20)
(3.74473 0.0701091 5.98835e-20)
(3.62047 0.0755817 -2.52414e-21)
(4.07294 0.0882933 1.71571e-21)
(2.62588 0.0811119 5.68588e-20)
(2.64916 0.0864068 3.02053e-20)
(3.08866 1.35352 7.62652e-21)
(3.0218 0.951346 0)
(4.41129 1.42135 1.77412e-20)
(4.53698 0.788831 3.46113e-20)
(4.87291 0.219966 -1.46881e-19)
(4.78165 1.48937 -1.88794e-20)
(4.27285 1.41514 -1.29257e-19)
(2.77905 0.554001 1.24749e-20)
(3.03291 -1.04025 0)
(4.16001 2.24147 1.86652e-20)
(4.40499 1.91509 -8.2346e-20)
(3.85714 2.36323 -8.83761e-21)
(4.10279 2.37896 2.70796e-20)
(3.54559 1.97275 0)
(3.74343 2.21485 0)
(3.22285 1.34428 -1.99197e-23)
(3.37752 1.69354 -4.29711e-31)
(2.94919 0.55087 5.15975e-24)
(3.05802 0.976167 0)
(2.8411 -0.330903 0)
(2.85236 0.113183 1.00135e-27)
(3.01113 -1.12201 0)
(2.88053 -0.751304 0)
(3.40596 -1.684 0)
(3.18104 -1.44036 0)
(3.91206 -2.00063 0)
(3.64795 -1.86549 0)
(4.42246 -2.28929 0)
(4.16275 -2.15054 0)
(4.97053 -2.19596 -1.68106e-20)
(4.69687 -2.34519 0)
(5.32213 -0.869528 0)
(5.20392 -1.72064 3.00862e-22)
(5.19827 1.46021 0)
(5.34015 0.288797 -2.57145e-20)
(3.07526 -1.24112 -4.70595e-21)
(2.78398 0.165304 -7.20802e-21)
(2.89478 -0.592721 4.72651e-21)
(3.56595 -2.15662 2.44584e-21)
(3.3187 -1.75965 -2.50712e-23)
(3.9805 -2.74464 -2.47788e-21)
(3.78841 -2.47829 -3.10929e-21)
(4.23514 -3.07878 -1.32279e-23)
(4.12416 -2.95048 0)
(4.3704 -2.83073 0)
(4.30507 -3.06862 0)
(4.37973 -1.46464 0)
(4.38903 -2.29194 0)
(4.26127 0.610142 -9.28409e-24)
(4.32769 -0.441427 0)
(4.07363 2.17041 0)
(4.17613 1.52455 0)
(3.85409 2.60198 0)
(3.96884 2.52079 0)
(3.60372 2.36088 1.04645e-20)
(3.75778 2.51408 -1.08877e-20)
(3.28724 1.98007 3.32677e-21)
(3.465 2.19135 -6.05703e-22)
(3.17732 1.71465 -1.24926e-20)
(2.89606 0.0800727 -6.19272e-20)
(2.70606 0.090732 -6.15463e-20)
(3.20453 0.0914607 0)
(2.6912 0.989634 0)
(2.7785 0.934055 5.76147e-21)
(4.67529 2.5208 1.07408e-19)
(4.99763 2.39773 0)
(2.7652 0.0931689 0)
(3.28948 0.0647827 0)
(4.54892 0.111247 0)
(2.7657 0.0542901 -2.83116e-20)
(3.23479 1.24461 -1.79964e-21)
(3.1699 0.861555 0)
(2.69976 1.07737 5.00991e-21)
(3.74665 1.35015 -8.03637e-20)
(2.85928 1.57912 4.28632e-21)
(2.79892 1.72533 -3.16713e-21)
(4.2327 2.48014 1.4938e-19)
(4.54622 3.10771 -2.77454e-20)
(4.74101 2.91854 0)
(2.95742 0.50377 1.56029e-20)
(2.97177 0.0883618 0)
(4.85217 1.35543 -8.48034e-20)
(4.99167 0.116582 -6.40412e-20)
(4.97939 0.77263 -2.56335e-19)
(4.53421 2.12668 -1.86512e-20)
(4.7774 1.82373 7.58668e-20)
(4.14172 2.20646 0)
(4.42521 2.23774 1.03888e-20)
(3.75923 1.81072 2.838e-28)
(4.00961 2.04195 -2.95097e-28)
(3.40641 1.19476 -1.45918e-23)
(3.60397 1.5242 0)
(3.119 0.451753 0)
(3.24423 0.840187 0)
(3.03054 -0.306049 3.07209e-23)
(3.02739 0.0711918 -1.00134e-27)
(3.20168 -0.970299 -1.45662e-27)
(3.07236 -0.651021 1.51245e-27)
(3.59187 -1.45421 0)
(3.36141 -1.24447 0)
(4.0998 -1.75969 -8.01182e-24)
(3.83697 -1.61573 0)
(4.60716 -2.00591 -2.07526e-23)
(4.33901 -1.89878 0)
(5.20763 -1.92212 -3.66248e-21)
(4.89851 -2.03406 0)
(5.67579 -0.76745 4.0792e-20)
(5.49047 -1.52359 1.00964e-20)
(5.56179 1.37068 3.45891e-20)
(5.70813 0.296861 -1.48377e-20)
(4.99305 2.59817 3.01552e-20)
(5.32545 2.18132 -3.45487e-20)
(2.90932 0.220778 1.55694e-21)
(2.97593 1.42979 7.1835e-22)
(2.88911 0.8824 -2.00736e-21)
(3.22401 -1.06182 1.95336e-21)
(3.02399 -0.465595 -1.25025e-21)
(3.7072 -1.9468 -2.81487e-21)
(3.4554 -1.54852 -6.74473e-22)
(4.17613 -2.57481 0)
(3.94505 -2.28186 3.57739e-21)
(4.5569 -2.95978 -2.26233e-22)
(4.36744 -2.8064 -6.21515e-27)
(4.86394 -2.77444 0)
(4.71715 -2.97655 0)
(5.0184 -1.4904 -2.94403e-22)
(4.96522 -2.27695 0)
(4.91581 0.512897 -3.34649e-22)
(4.99729 -0.501738 0)
(4.62076 2.02355 0)
(4.78817 1.39735 0)
(4.21929 2.45383 0)
(4.41845 2.37073 0)
(3.84264 2.19771 0)
(4.02962 2.36755 0)
(3.47576 1.8165 0)
(3.65424 2.01491 4.35698e-22)
(3.338 1.56242 2.38172e-22)
(3.04261 1.99178 -5.14352e-21)
(3.18348 1.75586 0)
(4.45128 3.03872 4.84482e-21)
(4.64007 2.66238 -3.89839e-20)
(2.93495 0.0319751 0)
(3.15199 0.435014 5.78013e-21)
(2.78938 -0.477398 -2.15848e-20)
(2.95075 -0.455551 1.91296e-21)
(2.6906 -0.57272 3.133e-20)
(2.70328 -0.501514 -7.97493e-21)
(2.94552 -0.642618 -1.03816e-21)
(2.76228 -0.604429 -2.81402e-20)
(3.63955 -0.653501 -1.08203e-19)
(3.24644 -0.65063 1.12256e-20)
(4.53776 -0.555534 0)
(4.08148 -0.612442 1.07725e-19)
(4.94435 -0.493603 1.05705e-19)
(2.79443 1.15931 -5.05099e-21)
(3.32393 1.30642 -3.60083e-26)
(2.79608 1.88391 3.17995e-21)
(3.7675 2.42448 0)
(2.97254 2.20805 0)
(4.1487 3.14252 0)
(3.47091 1.86706 1.15002e-22)
(3.29353 2.15581 6.01312e-23)
(4.36609 3.28147 -7.66502e-20)
(4.31564 2.44888 4.43171e-21)
(4.16673 2.81943 1.74812e-20)
(5.34851 0.128288 8.9533e-20)
(5.28326 -0.404195 -8.24137e-20)
(3.00048 1.23022 -2.73676e-26)
(5.21833 1.27346 7.25904e-21)
(5.33677 0.748551 -3.71016e-20)
(4.85994 1.95754 -5.84147e-21)
(5.09123 1.69737 0)
(4.39691 2.00003 1.76691e-27)
(4.68833 2.03542 7.2625e-21)
(3.94206 1.61048 0)
(4.22504 1.83607 0)
(3.54113 1.0188 2.61304e-23)
(3.77584 1.33151 0)
(3.26378 0.355567 0)
(3.39886 0.689127 0)
(3.20932 -0.281859 -7.16028e-23)
(3.21262 0.0219868 0)
(3.37491 -0.843625 -3.96571e-23)
(3.26058 -0.588394 0)
(3.76567 -1.22874 0)
(3.54024 -1.06765 0)
(4.22048 -1.52158 -1.46608e-23)
(3.98732 -1.37549 0)
(4.72857 -1.73607 2.28027e-23)
(4.44763 -1.64366 0)
(5.34329 -1.64743 3.1372e-23)
(5.02312 -1.74709 -2.40015e-27)
(5.82242 -0.66878 -5.82026e-23)
(5.62302 -1.31296 0)
(5.71936 1.24416 -3.34594e-21)
(5.84986 0.27045 1.12772e-20)
(5.2406 2.25299 2.87252e-21)
(5.51194 1.94324 -2.0073e-20)
(4.52847 2.0688 -3.66596e-21)
(4.89494 2.25424 1.09851e-20)
(3.13815 1.28431 4.0018e-22)
(3.68809 1.58546 -1.68521e-22)
(3.3795 1.5036 0)
(3.04553 0.286985 1.97256e-22)
(3.02392 0.845951 -4.07487e-22)
(3.33837 -0.844171 -4.96801e-24)
(3.14571 -0.302852 6.48258e-23)
(3.84274 -1.71518 -2.62919e-24)
(3.57367 -1.30675 -2.78864e-23)
(4.36277 -2.371 0)
(4.10051 -2.0647 0)
(4.84027 -2.77495 1.02185e-22)
(4.60103 -2.61109 -9.34102e-27)
(5.27518 -2.64136 1.89911e-26)
(5.06833 -2.80509 -2.00978e-26)
(5.56347 -1.47927 5.47787e-23)
(5.45817 -2.19944 0)
(5.50291 0.40097 0)
(5.58966 -0.559546 0)
(5.1033 1.8282 1.65249e-22)
(5.33841 1.24097 0)
(4.54586 2.22114 0)
(4.82769 2.13758 0)
(4.05714 1.98806 2.15652e-23)
(4.2814 2.13894 0)
(3.65093 1.64216 1.66085e-23)
(3.83643 1.81107 1.65488e-22)
(3.39209 1.14023 7.17569e-21)
(3.48445 1.41441 0)
(3.32669 0.394945 5.27433e-20)
(3.31536 0.781085 -3.33829e-20)
(3.31662 -0.00639933 -5.89162e-21)
(2.91625 -0.954616 0)
(3.19643 -0.858741 2.19973e-21)
(3.03743 -0.885106 -4.24227e-21)
(2.75729 -1.11439 0)
(2.80392 -1.02635 0)
(2.96897 -1.23929 -4.00648e-20)
(2.80504 -1.1777 -8.09626e-27)
(3.60551 -1.25334 2.73554e-20)
(3.24103 -1.26083 7.41431e-20)
(4.45304 -1.12463 0)
(4.02229 -1.19623 -7.22026e-20)
(3.75992 1.90681 -1.56738e-23)
(3.9293 1.67793 -1.54885e-22)
(4.03321 2.14488 6.94421e-21)
(4.18989 1.79516 3.50276e-20)
(5.1467 -0.902166 -6.75993e-20)
(4.83716 -1.02694 3.42294e-20)
(2.90562 2.04802 -2.64737e-25)
(3.38676 2.34328 0)
(2.98291 2.41609 0)
(3.79674 3.10136 -6.32739e-25)
(3.20702 2.41152 -2.34111e-23)
(4.07305 3.35295 -1.69306e-20)
(3.576 2.20033 2.94334e-23)
(4.18426 3.11231 0)
(4.11694 1.8307 3.79939e-21)
(3.98093 2.00299 1.96815e-24)
(3.85563 2.46203 -2.41522e-20)
(3.89313 1.54097 -3.67026e-20)
(3.82539 1.86856 -1.49999e-22)
(4.22235 1.6363 1.61198e-21)
(4.32966 1.94619 -3.83429e-21)
(4.46817 1.69413 -2.29498e-21)
(3.59319 1.36185 -2.74318e-20)
(3.69789 1.1404 6.33063e-20)
(3.43422 0.99655 1.17643e-20)
(5.35258 -0.768459 -1.7275e-20)
(4.92362 -1.20688 0)
(5.13234 -1.00612 1.94309e-20)
(3.09695 2.1925 -2.00046e-26)
(5.58617 0.152387 -1.42009e-20)
(5.52023 -0.31792 -4.32675e-20)
(5.45252 1.17612 2.80799e-20)
(5.58554 0.718349 1.40324e-20)
(5.07475 1.74548 0)
(5.31269 1.54495 0)
(4.56048 1.75937 0)
(4.86298 1.79325 0)
(4.05408 1.38734 0)
(4.35733 1.57567 0)
(3.64603 0.841356 0)
(3.88839 1.10101 0)
(3.40664 0.275639 -5.39652e-27)
(3.53313 0.548547 5.60673e-27)
(3.35845 -0.25399 4.08764e-23)
(3.36966 0.00314973 5.74182e-27)
(3.51343 -0.691096 3.96572e-23)
(3.40658 -0.488531 0)
(3.83832 -1.01015 0)
(3.66214 -0.849563 0)
(4.20955 -1.31436 -1.15593e-23)
(4.00705 -1.15339 0)
(4.74409 -1.48248 1.93238e-23)
(4.44681 -1.40801 0)
(5.34556 -1.38316 -3.13657e-23)
(5.04641 -1.46932 0)
(5.79526 -0.574947 -8.22582e-23)
(5.61131 -1.09646 -6.5412e-28)
(5.61053 1.06506 -1.02961e-21)
(5.80407 0.211172 0)
(5.04789 1.94508 -2.4105e-21)
(5.33569 1.70889 2.36547e-21)
(4.37655 1.62404 1.69448e-20)
(4.7342 1.85443 -1.37041e-20)
(4.01861 1.35807 -5.53558e-20)
(3.81838 1.33506 1.84593e-21)
(4.00981 1.50374 -3.57202e-21)
(3.30057 1.07296 1.29108e-23)
(3.56369 1.21723 3.91268e-22)
(3.14659 0.333072 2.76236e-21)
(3.14429 0.783903 -2.91553e-21)
(3.43232 -0.656775 1.29542e-23)
(3.25213 -0.173271 -6.58355e-23)
(3.89561 -1.44179 2.62484e-24)
(3.64311 -1.06918 4.00945e-27)
(4.45298 -2.0902 0)
(4.16634 -1.77997 0)
(5.03675 -2.51964 -1.11812e-26)
(4.75046 -2.34201 1.18288e-26)
(5.59013 -2.44466 0)
(5.32997 -2.57742 0)
(5.97126 -1.41938 6.38279e-23)
(5.83419 -2.06212 0)
(5.93799 0.287421 0)
(6.02623 -0.598267 0)
(5.46641 1.57372 -1.65246e-22)
(5.74812 1.04273 0)
(4.84114 1.93592 0)
(5.16227 1.84547 0)
(4.28719 1.76004 -1.61764e-23)
(4.54413 1.88345 -6.23172e-27)
(3.83851 1.4595 -1.61395e-23)
(4.04098 1.60051 0)
(3.54642 1.04174 0)
(3.64032 1.26603 -3.3971e-24)
(3.4784 0.392246 -2.0414e-20)
(3.44495 0.723137 -3.69697e-23)
(3.46055 -0.000746027 -2.33043e-20)
(3.35846 -1.19381 9.28955e-21)
(3.55454 -1.1046 -8.1366e-21)
(3.00562 -1.40579 0)
(3.16258 -1.27688 0)
(2.84144 -1.58463 -2.33214e-24)
(2.87982 -1.49993 -4.08812e-27)
(3.04492 -1.71849 -4.18721e-24)
(2.89064 -1.65739 -7.0455e-27)
(3.5921 -1.72985 -4.53985e-21)
(3.28293 -1.74209 -1.74411e-26)
(4.3197 -1.55273 -2.78564e-20)
(3.94714 -1.66454 2.51776e-20)
(4.65211 -1.39396 9.4139e-21)
(3.0878 2.63103 6.09515e-25)
(3.51275 3.00121 -1.45038e-25)
(3.20254 2.64142 0)
(3.82597 3.35549 7.32892e-25)
(3.46474 2.44465 3.82633e-23)
(3.9931 3.196 1.69649e-20)
(3.83231 2.29331 -1.55514e-22)
(3.96738 2.76995 1.46165e-21)
(4.20646 2.13173 -3.3265e-22)
(3.60515 2.10533 0)
(4.71121 1.72834 2.46919e-21)
(4.59966 2.03809 0)
(3.60488 1.69563 -4.76149e-21)
(3.20946 0.875633 6.71516e-20)
(3.29128 1.1818 2.44976e-20)
(4.55364 1.52308 -5.5707e-22)
(4.95218 1.7564 1.75823e-20)
(4.79775 1.5417 -2.66973e-23)
(3.05361 0.748908 1.78161e-21)
(3.47991 0.735311 7.31284e-20)
(3.39827 0.626431 7.33094e-20)
(4.74082 -1.43967 0)
(4.90736 -1.23642 1.70683e-20)
(5.42381 -0.632805 -1.88352e-20)
(5.26235 -0.773232 1.97753e-20)
(3.26303 2.81261 1.26136e-25)
(5.68327 0.174503 1.41849e-20)
(5.64892 -0.216135 2.49369e-20)
(5.55797 1.04428 -1.21419e-21)
(5.71443 0.669654 8.49678e-21)
(5.16745 1.49977 3.98295e-24)
(5.4292 1.34974 -1.37237e-26)
(4.64617 1.4841 0)
(4.94645 1.53349 0)
(4.13266 1.15493 0)
(4.42978 1.31074 0)
(3.73035 0.692432 4.8264e-23)
(3.98808 0.878187 0)
(3.49439 0.216486 0)
(3.67095 0.396587 0)
(3.45148 -0.22895 0)
(3.51567 -0.0649006 0)
(3.61515 -0.597032 0)
(3.56017 -0.455107 0)
(3.86325 -0.917887 0)
(3.7673 -0.764036 0)
(4.18116 -1.12371 3.42323e-23)
(4.01612 -1.03015 0)
(4.66326 -1.15883 1.48868e-23)
(4.41259 -1.12719 8.38957e-27)
(5.2415 -1.08909 0)
(4.94875 -1.13744 0)
(5.73144 -0.494413 3.37564e-23)
(5.54027 -0.874374 6.54124e-28)
(5.51763 0.779568 -3.81397e-24)
(5.74719 0.0968275 2.57779e-27)
(4.75916 1.63843 5.56267e-21)
(5.15304 1.37342 1.42854e-24)
(4.15053 1.28828 -3.38043e-21)
(4.44162 1.55024 -2.30389e-21)
(3.71499 0.866487 -2.72077e-20)
(3.91053 1.02536 1.83917e-20)
(3.59105 0.790906 -8.15443e-20)
(4.09641 1.39679 3.51789e-22)
(4.32664 1.45838 -3.66511e-23)
(3.75518 1.17465 -8.25657e-23)
(3.8937 1.32216 0)
(3.43912 0.881692 -1.27625e-23)
(3.61873 1.02073 -3.96236e-22)
(3.22662 0.391072 0)
(3.26985 0.70286 0)
(3.48987 -0.454377 3.80446e-24)
(3.31097 -0.0189208 0)
(3.93552 -1.1889 0)
(3.70592 -0.84334 0)
(4.46232 -1.7746 0)
(4.19195 -1.49371 0)
(5.08954 -2.17864 1.91909e-23)
(4.78077 -2.00802 0)
(5.72556 -2.14211 0)
(5.42834 -2.24489 0)
(6.16666 -1.29424 1.75809e-22)
(6.0029 -1.83247 0)
(6.17146 0.164046 1.18701e-22)
(6.24334 -0.596568 0)
(5.69628 1.2992 7.40505e-23)
(5.98291 0.82295 -6.45286e-27)
(5.04471 1.63804 2.4716e-23)
(5.3753 1.54755 2.62878e-26)
(4.45887 1.50829 -1.35136e-23)
(4.72788 1.60001 0)
(4.00936 1.25566 0)
(4.20553 1.36926 0)
(3.68663 0.942311 0)
(3.78617 1.10116 3.40206e-24)
(3.60815 0.386594 2.14769e-20)
(3.56426 0.671904 3.63007e-23)
(3.5937 0.0169566 -1.87852e-20)
(3.79606 -1.3069 0)
(3.97302 -1.17621 5.41339e-20)
(3.40744 -1.56535 -1.21979e-21)
(3.60198 -1.43499 -1.09446e-21)
(3.08554 -1.7756 2.19464e-24)
(3.23027 -1.66802 2.92996e-27)
(2.90369 -1.91161 4.47557e-24)
(2.95667 -1.84409 7.59172e-27)
(3.0504 -2.0171 -1.16695e-26)
(2.93102 -1.97276 1.18655e-26)
(3.51895 -2.00864 -6.88324e-21)
(3.24955 -2.02848 1.36739e-26)
(4.17737 -1.80601 2.77485e-20)
(3.84019 -1.92991 7.01266e-21)
(4.48459 -1.64026 2.2848e-20)
(3.29918 2.8703 0)
(3.65728 3.23866 4.40623e-26)
(3.44743 2.68448 0)
(3.85357 3.26134 -1.80979e-24)
(3.70253 2.50526 -4.57774e-23)
(3.90855 2.8907 -1.82819e-23)
(4.07094 2.46761 1.15883e-22)
(3.69964 2.44253 4.46819e-23)
(4.49539 2.25948 3.92628e-22)
(3.37396 1.85116 3.42487e-23)
(4.90563 2.14597 0)
(3.37308 1.58271 -7.62038e-21)
(5.0698 1.50531 8.73645e-21)
(5.26509 1.76146 -4.4294e-20)
(3.00817 0.92176 9.64101e-22)
(3.33232 0.401112 -7.79894e-20)
(2.95032 0.539589 -7.09839e-20)
(4.97045 -1.03315 -2.19183e-20)
(3.44308 3.06206 -2.11128e-25)
(5.41577 -0.430722 1.18275e-20)
(4.93405 -0.825492 5.48864e-21)
(5.24 -0.647647 -5.64287e-21)
(5.68762 0.244058 -5.16448e-21)
(5.62876 -0.153131 -1.14616e-20)
(5.57362 0.942215 1.21278e-21)
(5.70185 0.589022 -1.11084e-21)
(5.18596 1.28339 5.41957e-22)
(5.42277 1.13199 -5.35429e-22)
(4.68527 1.23615 -3.0506e-23)
(4.94884 1.25799 1.06416e-26)
(4.19691 0.934845 -4.42796e-23)
(4.43314 1.05322 -1.99414e-26)
(3.80766 0.52601 2.63085e-24)
(3.99501 0.683126 0)
(3.58063 0.128164 0)
(3.6965 0.289217 0)
(3.56575 -0.201127 -5.52365e-23)
(3.58286 -0.0511435 0)
(3.70922 -0.477212 2.64745e-26)
(3.65782 -0.315666 -2.74887e-26)
(3.9119 -0.734252 2.58743e-26)
(3.81871 -0.565844 -2.68565e-26)
(4.24428 -0.869339 -2.42485e-26)
(4.06718 -0.771666 2.51615e-26)
(4.66803 -0.919738 -8.2016e-23)
(4.4578 -0.863276 2.21973e-26)
(5.15494 -0.827092 4.07722e-23)
(4.91278 -0.88392 1.8266e-26)
(5.56473 -0.400483 2.31792e-23)
(5.40411 -0.655606 0)
(5.46828 0.507766 4.88446e-23)
(5.6193 0.00746898 1.85841e-26)
(4.74648 1.25812 4.80731e-23)
(5.15417 0.986756 0)
(4.16875 1.0885 4.70816e-21)
(4.40884 1.26008 0)
(3.92039 0.760054 2.08094e-20)
(4.02629 0.889394 -2.26983e-20)
(3.72602 0.625179 0)
(3.8376 0.68402 2.44159e-21)
(3.51167 0.319538 7.8652e-20)
(3.61572 0.509863 -7.49269e-20)
(4.53113 1.24185 4.28839e-22)
(5.08183 1.17777 3.18884e-21)
(4.80777 1.23232 -3.15494e-21)
(4.0781 1.15339 2.56496e-22)
(4.28698 1.20208 1.88037e-23)
(3.71464 1.02223 0)
(3.87163 1.10936 0)
(3.51097 0.717357 -2.00169e-23)
(3.60581 0.875125 0)
(3.30493 0.377614 0)
(3.38612 0.568024 0)
(3.46327 -0.241557 -1.67569e-23)
(3.32485 0.103201 0)
(3.92869 -0.933423 0)
(3.68285 -0.59635 0)
(4.47152 -1.49329 0)
(4.20212 -1.23002 0)
(5.08458 -1.85943 -2.14474e-23)
(4.78151 -1.70531 0)
(5.72154 -1.86007 0)
(5.41991 -1.92542 0)
(6.19546 -1.17891 7.52237e-26)
(5.9985 -1.62052 -7.96293e-26)
(6.25248 0.0553064 -1.18612e-22)
(6.2997 -0.586448 -9.4503e-26)
(5.76484 1.01121 -1.09398e-22)
(6.05551 0.610785 -5.90468e-26)
(5.11629 1.32239 -2.11288e-23)
(5.43 1.22822 0)
(4.56427 1.26468 8.13378e-24)
(4.80568 1.30864 -8.24379e-27)
(4.15109 1.06783 2.61793e-26)
(4.31958 1.1467 -2.77774e-26)
(3.82241 0.831376 0)
(3.92936 0.928617 0)
(3.71473 0.392071 -3.41583e-21)
(3.67962 0.609063 5.49885e-21)
(3.83891 -0.199337 0)
(3.69526 0.0639536 -6.96722e-22)
(3.88504 -0.505352 0)
(4.0014 -1.5294 0)
(4.29644 -1.22822 -5.0987e-21)
(4.16952 -1.39755 -1.19376e-20)
(3.59447 -1.83724 -3.66622e-22)
(3.80782 -1.68382 8.59955e-22)
(3.17109 -2.03671 5.53147e-25)
(3.37071 -1.94149 0)
(2.94302 -2.16241 -2.14687e-24)
(3.00917 -2.10821 0)
(3.06225 -2.20658 0)
(2.96419 -2.19818 0)
(3.48143 -2.13083 5.32906e-25)
(3.23878 -2.18296 0)
(4.01235 -1.87971 0)
(3.74892 -2.02483 0)
(4.45821 -1.4596 0)
(4.25121 -1.68825 3.20669e-21)
(4.78317 -0.914965 0)
(4.61925 -1.19971 2.274e-21)
(5.3741 1.42749 -2.24908e-20)
(5.33455 1.06091 0)
(3.31041 0.0793404 4.62927e-21)
(3.46185 0.0738538 4.86533e-21)
(3.51778 2.88658 3.49599e-24)
(3.79879 3.164 0)
(4.15235 -0.609462 0)
(3.65226 2.73368 7.32766e-24)
(3.82395 3.02246 1.3779e-24)
(4.84588 -0.656349 2.57946e-20)
(4.58065 -1.00033 0)
(4.6397 -0.781591 0)
(3.92314 2.68092 2.44586e-23)
(3.75548 2.61092 1.60949e-23)
(4.36064 2.65736 0)
(3.37665 2.2046 -2.99578e-23)
(4.84052 2.42473 0)
(3.1858 1.71205 0)
(5.30721 2.22684 0)
(3.08019 1.38487 3.41595e-21)
(5.63792 1.74821 -1.08403e-20)
(2.77973 0.507515 2.05686e-21)
(5.56569 0.908104 0)
(5.73329 1.25444 1.54323e-20)
(2.93919 0.279151 -3.78188e-20)
(3.29908 -0.280862 7.0997e-20)
(3.47723 -0.162808 -6.84116e-20)
(3.62212 3.04337 1.32363e-25)
(5.30609 -0.292025 1.65405e-21)
(5.15254 -0.477328 0)
(5.57085 0.254658 -6.15695e-22)
(5.50492 -0.0228503 -1.93997e-22)
(5.48895 0.777193 0)
(5.57972 0.560848 5.34004e-22)
(5.1231 1.01537 0)
(5.32561 0.972415 -1.93053e-23)
(4.64532 0.939053 3.04956e-23)
(4.8762 1.04488 0)
(4.18553 0.675387 9.10494e-23)
(4.38584 0.841931 0)
(3.85454 0.353638 1.22e-24)
(3.97782 0.516971 0)
(3.72414 0.0726323 -5.47269e-23)
(3.7468 0.202993 -5.48607e-26)
(3.77602 -0.173311 5.51809e-23)
(3.72238 -0.0458882 5.72272e-26)
(3.92089 -0.44963 -5.68392e-23)
(3.83377 -0.288574 5.38355e-26)
(4.1479 -0.689104 -5.45547e-26)
(4.01662 -0.553392 5.30419e-26)
(4.43925 -0.779235 -5.45471e-23)
(4.29741 -0.721065 5.40049e-26)
(4.69455 -0.758543 9.8458e-23)
(4.57788 -0.756698 0)
(5.00034 -0.621665 1.07814e-23)
(4.85021 -0.692711 4.85592e-26)
(5.31706 -0.281177 -9.2127e-23)
(5.18226 -0.475287 0)
(5.3376 0.332876 -4.8808e-23)
(5.39995 0.00307729 -5.50881e-26)
(4.83897 0.910895 0)
(5.14416 0.674112 0)
(4.31425 0.912462 9.01189e-21)
(4.54231 0.988101 -9.43872e-21)
(4.06495 0.673446 0)
(4.17299 0.789163 -4.63515e-27)
(3.85028 0.501609 3.14883e-21)
(3.96725 0.586216 -4.88773e-21)
(3.6386 0.206026 4.01197e-20)
(3.73407 0.378473 -4.00339e-20)
(3.60625 -0.19331 0)
(3.59723 0.00362413 -4.84385e-21)
(4.91112 0.993971 3.37842e-21)
(5.23945 0.782824 -1.506e-21)
(5.07693 0.923201 -6.46507e-21)
(4.61236 1.02594 7.9474e-21)
(4.75728 1.0137 -3.32898e-21)
(4.35047 0.993642 4.16792e-21)
(4.47923 1.01886 -1.22823e-20)
(4.01077 0.894522 -2.05382e-23)
(4.19279 0.949751 1.62507e-22)
(3.71823 0.645991 2.00169e-23)
(3.84006 0.792621 0)
(3.50203 0.319991 8.42102e-26)
(3.60323 0.482571 -8.90428e-26)
(3.48086 -0.0932237 -8.20625e-26)
(3.44292 0.137529 8.67774e-26)
(3.8402 -0.652432 -2.00248e-23)
(3.62401 -0.361034 0)
(4.40534 -1.18459 6.30774e-26)
(4.11701 -0.93023 -6.67151e-26)
(5.0398 -1.5448 2.22364e-24)
(4.727 -1.39257 3.47994e-26)
(5.66807 -1.58128 0)
(5.36954 -1.62268 0)
(6.14064 -1.01978 -2.06049e-23)
(5.94554 -1.38723 8.54439e-28)
(6.15983 -0.0486755 7.98094e-26)
(6.22627 -0.549134 -8.45261e-26)
(5.69081 0.721248 2.92463e-23)
(5.96457 0.383197 0)
(5.10555 1.04204 -3.61229e-24)
(5.38475 0.927112 0)
(4.61917 1.04582 -2.67055e-23)
(4.82898 1.05637 0)
(4.25792 0.893352 6.33235e-26)
(4.39659 0.956268 -6.71666e-26)
(3.95655 0.70423 0)
(4.05924 0.770543 0)
(3.79646 0.388782 4.17552e-21)
(3.79594 0.540158 5.77039e-21)
(3.90988 -0.118067 -2.2874e-20)
(3.76307 0.116512 1.11153e-20)
(3.9708 -0.396054 0)
(4.43753 -1.40272 -1.12494e-21)
(4.55203 -1.19202 1.13448e-20)
(4.10363 -1.77608 0)
(4.30993 -1.59725 1.10504e-21)
(3.64018 -2.12844 4.748e-24)
(3.87752 -1.97322 0)
(3.21597 -2.27339 -2.72908e-24)
(3.40702 -2.21064 -2.19608e-26)
(2.97513 -2.3245 0)
(3.06184 -2.31596 0)
(3.0257 -2.2823 0)
(2.96639 -2.32273 0)
(3.36914 -2.13143 -5.29859e-25)
(3.16017 -2.22277 0)
(3.86218 -1.85529 0)
(3.6107 -2.00771 0)
(4.29647 -1.45167 -2.77488e-21)
(4.09543 -1.66517 -3.09935e-21)
(4.4565 -1.22098 5.92053e-22)
(5.75735 0.715431 0)
(5.3964 0.556607 4.67303e-21)
(3.56283 -0.376547 5.20899e-20)
(3.66251 -0.350068 -6.23754e-20)
(3.6819 2.89773 -2.66731e-25)
(3.86767 3.01177 6.53562e-25)
(4.83923 -0.500802 -4.14888e-20)
(4.66551 -0.505687 3.96664e-20)
(3.83513 2.90929 -8.46081e-23)
(3.69444 2.84441 0)
(4.16983 2.9102 -2.6936e-22)
(3.49367 2.46709 -3.88591e-23)
(4.69658 2.85277 0)
(3.0277 2.03868 0)
(5.24334 2.59146 -5.50535e-21)
(3.00669 1.51989 6.16091e-23)
(5.77222 2.2293 0)
(2.7063 1.01606 4.07816e-21)
(6.05072 1.65156 3.53927e-20)
(2.70664 -0.0611221 0)
(6.09444 0.944982 -1.22386e-20)
(3.04905 -0.0271639 3.30955e-20)
(5.51472 0.281936 -1.94269e-20)
(5.85744 0.43441 9.48734e-21)
(3.33865 -0.558022 -5.44541e-20)
(5.23663 0.274395 -5.65584e-21)
(5.23061 0.0762829 -6.05809e-21)
(5.54355 0.0219403 2.50822e-20)
(4.82822 -1.15164 -2.06214e-20)
(3.66829 -0.570159 5.82319e-23)
(3.75165 -0.476844 1.30884e-19)
(3.74538 2.9829 0)
(5.15872 -0.162697 -1.60782e-21)
(5.00795 -0.305848 1.44842e-20)
(5.34287 0.306115 0)
(5.26775 0.0786496 0)
(5.2779 0.686106 0)
(5.32446 0.496169 0)
(4.96493 0.82931 0)
(5.1232 0.759974 0)
(4.53705 0.723975 4.00012e-23)
(4.73005 0.779607 2.2222e-27)
(4.14723 0.493832 -4.68391e-23)
(4.30716 0.608455 9.25647e-26)
(3.90688 0.262984 -5.22137e-23)
(3.99005 0.377435 1.04073e-25)
(3.83385 0.0794341 5.46736e-23)
(3.84674 0.177528 1.09906e-25)
(3.85089 -0.107737 0)
(3.83584 0.00488881 -3.49511e-27)
(3.90451 -0.318462 5.67847e-23)
(3.87531 -0.193072 3.58595e-27)
(4.03439 -0.485468 0)
(3.96798 -0.383145 3.58425e-27)
(4.2417 -0.601416 -3.03286e-24)
(4.14503 -0.523336 0)
(4.52462 -0.624042 -1.10007e-22)
(4.39056 -0.612267 0)
(4.8469 -0.473006 -5.17281e-23)
(4.70332 -0.55736 1.1291e-25)
(5.09636 -0.175941 1.14057e-22)
(5.00036 -0.334399 0)
(5.13007 0.26171 0)
(5.15956 0.033244 0)
(4.8155 0.661084 0)
(5.01974 0.492045 0)
(4.38095 0.725821 0)