/*--------------------------------*- C++ -*----------------------------------*\
  =========                 |
  \\      /  F ield         | OpenFOAM: The Open Source CFD Toolbox
   \\    /   O peration     | Website:  https://openfoam.org
    \\  /    A nd           | Version:  10
     \\/     M anipulation  |
\*---------------------------------------------------------------------------*/
FoamFile
{
    format      ascii;
    class       volScalarField;
    location    "39.5";
    object      p;
}
// * * * * * * * * * * * * * * * * * * * * * * * * * * * * * * * * * * * * * //

dimensions      [0 2 -2 0 0 0 0];

internalField   nonuniform List<scalar> 
28942
(
-6.19193
-6.20307
-0.360916
1.5183
1.56427
-0.058668
-0.0536488
-0.0594
0.638226
0.672634
-2.67877
-2.57522
-2.57657
-2.6446
-0.00698989
-0.0019175
2.30955
2.47879
1.86065
2.34488
1.38793
1.41394
-2.59124
-2.52209
-2.7667
-2.63146
4.6871
4.85418
0.832799
0.922377
-0.108775
-0.107684
0.0463027
-0.0123748
-1.49824
-1.18945
1.67417
2.40901
-0.0831382
0.705187
1.15292
1.11128
0.529827
0.501249
0.551782
-0.0450884
-0.0424863
-0.0304682
-0.0321394
-0.0346935
-0.0231943
0.728794
0.734157
0.669744
0.708014
-1.94974
-1.37209
-2.51348
-2.55809
-2.46075
-2.46082
-2.45823
-2.49649
-0.284259
-0.739289
-0.0692756
0.239916
2.68859
2.55778
-6.22227
-6.2274
-6.24806
2.72827
2.61075
2.78684
-3.17821
-3.14292
-2.50511
-0.255358
-0.653405
-0.100455
-0.797631
-6.61009
-6.96456
-1.75845
-1.19169
-0.718013
-1.16574
-1.6673
-1.70752
-1.41574
-0.996898
-4.24177
-3.53926
-3.18249
-3.79479
-4.50979
-1.49522
-1.32706
-6.90279
1.61101
1.62495
1.67425
1.60845
-1.13198
-1.08817
-1.20313
0.440411
0.476185
0.507184
-2.55736
-2.60673
-6.24595
-5.60116
-5.8491
4.74877
4.29835
3.80044
4.28143
-1.3343
-0.287314
-0.644966
1.27764
1.16908
5.43312
5.60141
5.20642
1.32703
1.54108
-0.0288219
-0.0215466
-0.0321747
3.28072
3.76588
0.830806
0.795338
0.998243
1.97769
2.6566
0.911234
-3.64767
-3.29855
1.66831
0.585532
0.568834
-0.974973
-0.987244
-0.787559
-3.09412
-0.442891
-0.437577
-1.9358
-0.0569946
-0.072248
-0.0734592
-0.0641891
0.210399
-1.36075
-8.12843
-7.74911
-7.10691
-6.42861
-5.60642
-0.0386179
-2.22823
-1.97689
1.50779
1.53094
2.0405
1.89785
1.33115
-0.00709229
-0.0109114
0.78055
0.746703
0.312363
0.22372
0.34373
0.421891
0.381442
0.360733
0.421916
0.613891
0.507884
0.337229
0.458462
0.729456
1.03254
1.22432
-7.22259
-6.77407
-5.90883
-0.0422128
-0.0242703
-8.89659
-8.32342
-0.0280874
-0.0210537
-0.0214821
-0.0310767
-1.28624
-1.33052
-1.31073
-2.7143
-2.68378
-2.84229
-2.40826
-2.40479
-2.39717
-2.66688
-2.85094
-2.63958
4.54125
4.15144
4.62671
-0.985681
-0.873925
-0.932208
2.7552
2.68366
2.70498
-2.26388
-2.05042
-2.4867
-1.85943
-1.69589
-1.56337
-1.49984
-1.46241
-1.41001
-1.61821
-1.76588
-1.93987
-2.1364
-2.33946
-1.38922
-1.34416
-2.71053
-2.54343
-2.91928
-1.33971
-1.30036
-2.733
-1.3137
-1.31257
-1.28129
-1.28684
-3.08909
-2.88672
-1.33548
-1.31535
-3.21302
-2.99563
-1.38185
-1.36681
-3.27486
-3.04842
-1.4522
-1.44177
-3.27017
-3.04042
-1.54812
-1.54236
-3.19709
-2.97123
-1.67159
-1.67059
-3.06392
-2.85019
-1.82335
-1.82675
-2.88488
-2.69028
-2.00248
-2.00989
-2.6743
-2.50552
-2.20278
-2.21652
-2.45624
-2.31228
-2.41693
-2.4421
-2.23663
-2.11733
-2.6395
-2.67259
-2.03301
-1.93732
-2.86426
-2.89497
-2.31249
-2.09133
-1.85652
-1.78204
-2.78758
-2.54645
-3.19978
-3.00816
-3.41138
-3.33795
-3.34624
-3.41378
-3.03357
-3.21384
-2.5867
-2.82218
-2.12309
-2.34682
-1.74479
-1.92103
-1.48793
-1.60053
-1.34956
-1.40584
-1.30939
-1.31748
-1.36458
-1.32522
-1.51712
-1.42818
-1.77727
-1.6332
-2.14114
-1.94812
-2.57012
-2.35021
-2.78201
-3.0623
-3.09252
-2.41462
-2.86212
-2.6433
-1.97803
-2.18835
-1.63436
-1.79248
-1.40212
-1.50445
-1.27074
-1.32488
-1.22779
-1.2385
-1.27409
-1.23955
-1.41011
-1.3312
-1.64409
-1.51567
-1.97099
-1.79712
-2.33216
-2.15442
-2.63447
-2.49703
-2.77293
-2.7283
-2.70199
-2.76327
-2.45562
-2.59567
-2.12691
-2.29621
-1.8071
-1.96099
-1.67471
-1.90019
-2.97255
-3.05703
-1.65752
-1.56943
-1.74644
-1.7158
-2.34677
-1.91399
-2.1166
-2.84141
-2.5935
-3.26246
-3.06979
-3.47518
-3.40167
-3.40517
-3.47615
-3.08459
-3.2699
-2.62294
-2.86368
-2.14742
-2.3814
-1.75723
-1.93686
-1.48539
-1.60546
-1.33486
-1.39655
-1.28423
-1.29782
-1.32689
-1.29398
-1.46501
-1.38358
-1.70756
-1.5727
-2.05163
-1.86845
-2.45747
-2.25088
-3.21751
-3.12448
-2.83399
-2.65536
-2.771
-2.9588
-3.20765
-3.24607
-2.33965
-2.55949
-1.91277
-2.12104
-1.5704
-1.72863
-1.33769
-1.44067
-1.20339
-1.25937
-1.1527
-1.1681
-1.1827
-1.15736
-1.29724
-1.2293
-1.49937
-1.38773
-1.77942
-1.63072
-2.09253
-1.93905
-2.35446
-2.23548
-2.47459
-2.43633
-2.41281
-2.46599
-2.19969
-2.32076
-1.91587
-2.06118
-1.64816
-1.7753
-1.45238
-1.53782
-1.74774
-1.49579
-1.39244
-1.5705
-2.97461
-3.1065
-1.63409
-1.62222
-1.45263
-1.35945
-1.61516
-2.65186
-2.78252
-3.30149
-3.19643
-1.58391
-1.53484
-1.42354
-1.48707
-1.89649
-1.72019
-2.34099
-2.10664
-2.83417
-2.58888
-3.25279
-3.06151
-3.46316
-3.39116
-3.38924
-3.46193
-3.06592
-3.25299
-2.60483
-2.84441
-2.12855
-2.36194
-1.73243
-1.91636
-1.45567
-1.57864
-1.29692
-1.36274
-1.23757
-1.25577
-1.26826
-1.24183
-1.3901
-1.31741
-1.61102
-1.48768
-1.92964
-1.75951
-2.305
-2.11523
-2.48752
-3.31178
-3.06803
-3.21908
-3.33884
-2.63475
-2.95403
-2.81222
-2.22438
-2.43523
-1.81928
-2.01736
-1.48683
-1.64139
-1.25615
-1.35898
-1.11953
-1.17722
-1.0616
-1.08144
-1.07612
-1.05969
-1.16676
-1.11164
-1.33526
-1.2417
-1.57078
-1.44578
-1.83505
-1.70408
-2.05481
-1.95533
-2.15648
-2.12406
-2.10493
-2.14975
-1.92648
-2.02771
-1.69063
-1.8108
-1.4712
-1.57506
-1.31731
-1.38454
-1.24719
-1.27113
-1.35269
-1.24635
-1.55963
-1.5175
-2.87014
-3.04265
-1.4822
-1.43632
-1.40031
-1.2704
-1.37148
-1.2546
-1.22966
-1.55421
-1.35158
-1.29721
-1.524
-1.42291
-1.84167
-1.66342
-2.28285
-2.05191
-2.76187
-2.52321
-3.17045
-2.98345
-3.3737
-3.30463
-3.30039
-3.37185
-2.98419
-3.16681
-2.53335
-2.76785
-2.06711
-2.29555
-1.67592
-1.85824
-1.40013
-1.52321
-1.2375
-1.30567
-1.17129
-1.19336
-1.19054
-1.17047
-1.29548
-1.23198
-1.49255
-1.38215
-1.78041
-1.62636
-2.1208
-1.94913
-2.43565
-2.28648
-2.64888
-2.5588
-3.10222
-2.70145
-2.89263
-3.33835
-3.24935
-3.33211
-3.36199
-3.08007
-3.21267
-2.75467
-2.87387
-2.83884
-2.46089
-2.62442
-2.07812
-2.27587
-1.69789
-1.88246
-1.38421
-1.53049
-1.16085
-1.26127
-1.02355
-1.08239
-0.95915
-0.983022
-0.959799
-0.951431
-1.0267
-0.984747
-1.16136
-1.08586
-1.35366
-1.25165
-1.5698
-1.46216
-1.75029
-1.66867
-1.83423
-1.80731
-1.7931
-1.82926
-1.64898
-1.73069
-1.45963
-1.55591
-1.28419
-1.36709
-1.16391
-1.2155
-1.11819
-1.1319
-1.15219
-1.12474
-1.32032
-1.20294
-1.5176
-1.49479
-1.46351
-1.44935
-2.38197
-2.42528
-3.03991
-2.83706
-1.39489
-1.41712
-1.26598
-1.1379
-1.399
-1.28089
-1.1419
-1.52334
-1.24781
-1.17857
-1.43738
-1.33051
-1.75213
-1.5776
-2.17279
-1.95388
-2.62682
-2.39985
-3.01953
-2.83972
-3.21428
-3.14801
-3.1448
-3.2129
-2.8434
-3.01742
-2.41364
-2.6371
-1.96806
-2.18669
-1.59085
-1.76733
-1.32137
-1.44207
-1.15899
-1.22775
-1.08784
-1.113
-1.09671
-1.08259
-1.18441
-1.13048
-1.35606
-1.25945
-1.61022
-1.47391
-1.91402
-1.7597
-2.19463
-2.06374
-2.3044
-3.08121
-2.66865
-2.89131
-3.30504
-3.22052
-3.29566
-3.33058
-3.19269
-2.51961
-2.6254
-2.59559
-2.25731
-2.40402
-1.905
-2.08673
-1.55337
-1.72402
-1.26254
-1.39825
-1.05191
-1.14719
-0.917438
-0.975891
-0.848435
-0.875444
-0.837326
-0.835874
-0.882957
-0.85297
-0.985827
-0.927461
-1.13738
-1.05675
-1.30902
-1.22334
-1.45316
-1.38793
-1.52061
-1.49882
-1.48939
-1.51727
-1.3771
-1.44079
-1.23
-1.30473
-1.09443
-1.15834
-1.00417
-1.04203
-0.9782
-0.982794
-1.02342
-0.991519
-1.14858
-1.0748
-1.39095
-1.25295
-1.50289
-1.49902
-2.41073
-2.58719
-1.46382
-1.33229
-1.421
-1.49126
-1.4948
-1.18138
-1.22369
-1.35918
-1.51393
-1.54204
-1.39364
-1.51797
-1.00703
-1.03546
-1.01612
-1.1114
-1.04122
-1.31845
-1.20455
-1.62306
-1.45746
-2.01202
-1.81029
-2.43747
-2.22332
-2.81031
-2.63971
-2.99541
-2.93217
-2.93243
-2.99506
-2.65302
-2.81448
-2.25361
-2.46149
-1.83704
-2.04183
-1.4809
-1.64805
-1.22319
-1.33907
-1.06457
-1.13237
-0.990659
-1.01794
-0.990443
-0.981722
-1.06144
-1.01691
-1.20721
-1.12479
-1.42617
-1.30843
-1.69098
-1.55595
-1.94046
-1.82251
-2.10348
-2.03619
-2.13528
-2.13887
-2.60346
-2.09095
-2.35352
-3.00216
-2.82234
-3.21234
-3.13372
-3.19779
-3.23425
-2.94819
-3.10004
-2.50719
-2.74758
-2.34879
-2.24699
-2.319
-2.26511
-2.331
-2.03013
-2.16382
-1.71292
-1.87656
-1.39385
-1.5493
-1.12726
-1.25193
-0.931701
-1.02051
-0.803117
-0.85965
-0.732006
-0.76094
-0.711554
-0.715725
-0.73923
-0.719422
-0.814243
-0.771031
-0.929276
-0.86778
-1.06131
-0.995269
-1.17287
-1.12229
-1.22579
-1.20843
-1.20356
-1.22398
-1.11978
-1.16737
-1.00957
-1.06563
-0.907858
-0.955749
-0.84254
-0.869152
-0.83249
-0.830066
-0.88422
-0.85043
-1.00696
-0.935319
-1.23222
-1.10416
-1.57506
-1.39586
-1.51586
-1.06404
-1.50479
-1.84913
-1.81324
-2.38304
-2.13843
-1.53249
-1.56419
-1.47689
-1.60934
-1.67064
-1.73753
-1.80174
-1.60121
-1.54153
-0.865183
-1.12951
-0.91877
-0.8811
-0.861693
-0.860979
-0.957056
-0.891971
-1.16496
-1.05068
-1.45258
-1.29858
-1.81174
-1.62486
-2.21106
-2.00986
-2.55823
-2.39977
-2.73143
-2.67178
-2.67662
-2.73259
-2.42384
-2.57004
-2.06135
-2.2502
-1.68069
-1.8683
-1.35151
-1.50654
-1.10984
-1.21901
-0.957983
-1.02342
-0.883293
-0.911845
-0.875195
-0.871314
-0.930546
-0.894898
-1.05147
-0.982688
-1.23615
-1.13658
-1.46175
-1.34647
-1.67805
-1.57503
-1.81947
-1.7627
-1.85041
-2.49975
-2.00791
-2.26513
-2.87539
-2.70585
-3.06878
-2.99822
-3.04464
-3.08398
-2.80512
-2.95132
-2.61085
-2.06758
-1.97714
-2.04102
-1.99969
-2.05407
-1.79109
-1.90911
-1.51016
-1.6549
-1.22608
-1.36491
-0.985366
-1.09844
-0.805716
-0.887712
-0.684408
-0.738276
-0.613096
-0.642982
-0.585539
-0.594131
-0.598529
-0.587093
-0.650163
-0.619747
-0.734001
-0.688874
-0.832101
-0.782891
-0.915781
-0.877726
-0.956516
-0.942819
-0.942004
-0.956085
-0.882235
-0.916318
-0.802469
-0.843181
-0.728506
-0.763256
-0.68408
-0.701221
-0.686197
-0.67881
-0.741108
-0.706792
-0.858129
-0.790595
-1.06328
-0.948044
-1.39105
-1.20973
-1.42041
-1.29252
-1.84922
-1.6091
-1.56385
-1.74745
-1.87749
-0.980424
-1.59792
-1.21556
-1.58143
-1.6732
-1.56175
-1.76532
-1.87273
-1.98006
-2.07467
-2.13321
-1.8587
-1.59939
-0.713694
-1.06275
-0.805017
-0.748252
-0.696325
-0.699085
-0.714394
-0.701529
-0.804878
-0.746617
-0.996591
-0.890229
-1.26344
-1.12102
-1.59701
-1.42295
-1.96454
-1.78072
-2.27782
-2.13487
-2.43651
-2.38121
-2.39041
-2.43908
-2.16794
-2.29672
-1.84729
-2.01465
-1.50685
-1.67522
-1.2083
-1.34944
-0.985777
-1.08675
-0.843069
-0.905048
-0.769346
-0.798342
-0.75496
-0.755136
-0.796082
-0.768625
-0.893536
-0.837691
-1.04563
-0.963343
-1.23395
-1.13741
-1.41639
-1.32919
-1.53949
-1.48852
-1.56336
-1.56434
-1.49011
-1.53854
-1.9057
-1.42207
-1.66246
-2.36449
-2.14466
-2.71149
-2.55567
-2.88425
-2.82297
-2.84952
-2.89244
-2.62117
-2.7586
-2.22804
-2.43889
-1.74843
-1.99421
-1.70151
-1.50032
-1.61397
-1.79258
-1.76257
-1.72835
-1.77665
-1.54832
-1.6501
-1.3043
-1.43037
-1.05536
-1.17736
-0.841636
-0.942553
-0.678883
-0.753668
-0.565748
-0.616514
-0.495466
-0.525658
-0.46257
-0.47461
-0.463696
-0.459046
-0.496251
-0.476291
-0.554479
-0.522805
-0.624647
-0.589283
-0.685528
-0.657688
-0.716452
-0.705672
-0.708296
-0.717201
-0.667927
-0.691137
-0.612394
-0.640905
-0.560507
-0.584764
-0.532624
-0.542353
-0.543345
-0.532768
-0.59812
-0.564843
-0.707344
-0.64488
-0.891516
-0.788562
-1.17803
-1.02042
-1.58185
-1.3667
-1.50754
-1.38737
-2.13044
-1.81721
-1.6495
-1.70011
-0.877596
-1.1637
-1.31497
-1.68519
-1.8246
-1.23639
-1.18147
-1.59901
-1.37204
-1.67328
-1.96859
-2.12504
-2.27288
-2.38859
-2.43855
-0.959823
-0.684594
-0.74743
-2.40276
-2.04988
-1.05466
-1.69381
-0.590192
-0.631511
-0.536916
-0.55614
-0.541238
-0.534445
-0.575786
-0.554011
-0.665121
-0.611289
-0.834907
-0.740091
-1.07759
-0.947797
-1.3802
-1.22286
-1.70551
-1.54381
-1.9816
-1.85514
-2.12467
-2.07414
-2.08819
-2.12882
-1.89804
-2.00839
-1.62102
-1.76603
-1.32265
-1.47082
-1.05679
-1.183
-0.855446
-0.947233
-0.723574
-0.781292
-0.652327
-0.681038
-0.633001
-0.636557
-0.661628
-0.641411
-0.738028
-0.693835
-0.860377
-0.793946
-1.01398
-0.935016
-1.16449
-1.09234
-1.2683
-1.2248
-1.29074
-1.29117
-1.27295
-1.79054
-1.33838
-1.56656
-2.20807
-2.00741
-2.52162
-2.38188
-2.67185
-2.62006
-2.62908
-2.67427
-2.41044
-2.54001
-2.04791
-2.24314
-1.8299
-1.43574
-1.26229
-1.35856
-1.51267
-1.49112
-1.46293
-1.5032
-1.31016
-1.39666
-1.1018
-1.20976
-0.886758
-0.992519
-0.69958
-0.788399
-0.554211
-0.621458
-0.45023
-0.49736
-0.382232
-0.412072
-0.345625
-0.360232
-0.337361
-0.338115
-0.354685
-0.343062
-0.392524
-0.371555
-0.440504
-0.416127
-0.483384
-0.463598
-0.506571
-0.498105
-0.503354
-0.508253
-0.477834
-0.492763
-0.440638
-0.459922
-0.405631
-0.421805
-0.390402
-0.39453
-0.407029
-0.394398
-0.460287
-0.428759
-0.559114
-0.503088
-0.720768
-0.630776
-0.967997
-0.832437
-1.30861
-1.12772
-1.70019
-1.50588
-1.27438
-2.25399
-2.63966
-2.40924
-2.00834
-1.87467
-1.63781
-1.49542
-1.77169
-1.84398
-1.11637
-1.15155
-1.43371
-1.82687
-2.02401
-1.82881
-2.22397
-2.43072
-2.6109
-2.72918
-2.74657
-0.813071
-0.533168
-0.578
-1.62507
-1.68989
-2.08872
-0.884026
-1.1491
-1.39525
-2.82722
-2.49945
-1.82796
-0.458676
-0.49274
-0.409043
-0.430532
-0.382763
-0.392118
-0.398329
-0.386094
-0.443793
-0.416998
-0.531296
-0.481132
-0.67989
-0.597088
-0.89439
-0.779471
-1.15984
-1.02244
-1.4419
-1.3017
-1.68269
-1.57213
-1.80975
-1.76423
-1.78312
-1.81554
-1.62542
-1.71732
-1.39185
-1.51463
-1.13538
-1.2634
-0.90245
-1.01354
-0.722989
-0.805201
-0.602961
-0.655884
-0.535352
-0.563176
-0.512532
-0.5187
-0.530481
-0.516542
-0.588234
-0.554401
-0.68406
-0.631775
-0.806495
-0.743316
-0.928106
-0.869585
-1.01349
-0.977393
-1.03596
-1.03341
-0.992724
-1.02129
-0.90161
-0.950501
-1.25171
-0.848825
-1.04507
-1.66864
-1.46213
-2.04279
-1.86409
-2.3193
-2.19687
-2.44615
-2.40388
-2.39738
-2.44363
-2.18774
-2.3106
-1.8518
-2.03322
-1.44396
-1.65216
-1.03163
-1.23609
-1.03581
-0.840586
-0.942629
-1.18799
-1.11972
-1.24968
-1.23216
-1.21031
-1.24292
-1.08334
-1.15556
-0.907833
-0.998954
-0.72457
-0.815001
-0.562531
-0.639796
-0.434089
-0.493891
-0.339747
-0.382878
-0.275288
-0.304069
-0.236744
-0.252974
-0.221463
-0.226341
-0.22694
-0.221815
-0.248933
-0.236272
-0.27977
-0.26387
-0.30881
-0.295213
-0.325983
-0.319347
-0.326394
-0.328333
-0.31168
-0.320613
-0.287802
-0.300373
-0.265406
-0.275487
-0.259521
-0.259588
-0.279438
-0.266028
-0.329096
-0.300207
-0.416389
-0.367342
-0.554947
-0.478164
-0.763385
-0.649365
-1.04873
-0.89746
-1.36591
-1.20954
-1.50971
-1.79284
-1.62244
-2.10317
-1.69979
-1.93219
-2.03471
-1.56703
-2.01155
-2.277
-0.699146
-0.659718
-0.914062
-0.736873
-2.02292
-2.53571
-2.78701
-2.98233
-3.07571
-3.02792
-0.621836
-0.350583
-0.379815
-0.66418
-0.947385
-1.2362
-1.51424
-2.95922
-2.54104
-1.65837
-2.06361
-2.00678
-0.300551
-0.321437
-0.270031
-0.284382
-0.245423
-0.255912
-0.239769
-0.239923
-0.262775
-0.247575
-0.312164
-0.28409
-0.395054
-0.348685
-0.525411
-0.453295
-0.712248
-0.612109
-0.942275
-0.823449
-1.18578
-1.0648
-1.3925
-1.29768
-1.50357
-1.46301
-1.48675
-1.51109
-1.36026
-1.43453
-1.16773
-1.26956
-0.950879
-1.05978
-0.749683
-0.846106
-0.591923
-0.664535
-0.484224
-0.532055
-0.421098
-0.447572
-0.395996
-0.404112
-0.405133
-0.396433
-0.447017
-0.422042
-0.519874
-0.479877
-0.614958
-0.565677
-0.710976
-0.664595
-0.779739
-0.750446
-0.800056
-0.796732
-0.767589
-0.790322
-0.736042
-1.16635
-0.793989
-0.977933
-1.54557
-1.35806
-1.87853
-1.72081
-2.11768
-2.01277
-2.22061
-2.18813
-2.16638
-2.21315
-1.96659
-2.08274
-1.65746
-1.82316
-1.2886
-1.47636
-1.0989
-0.827445
-0.663528
-0.747857
-0.956638
-0.899895
-1.00821
-0.992962
-0.976181
-1.00253
-0.872113
-0.931448
-0.726277
-0.802192
-0.571924
-0.64834
-0.433151
-0.499636
-0.320746
-0.373435
-0.235922
-0.275022
-0.17576
-0.202989
-0.136881
-0.153844
-0.116841
-0.124638
-0.113473
-0.113241
-0.123469
-0.117095
-0.141388
-0.131867
-0.160051
-0.151092
-0.172635
-0.167433
-0.175511
-0.175393
-0.168109
-0.172993
-0.153401
-0.161311
-0.140066
-0.145749
-0.140673
-0.137991
-0.162242
-0.148687
-0.20759
-0.181672
-0.283095
-0.241016
-0.399091
-0.335244
-0.569554
-0.476619
-0.802649
-0.678824
-1.06291
-0.934446
-1.26472
-1.17657
-1.31971
-1.31508
-1.56924
-1.21588
-1.28576
-1.98763
-1.7858
-2.13985
-2.27853
-0.618634
-0.575971
-1.7149
-2.24182
-2.5878
-2.25504
-2.90173
-3.18054
-3.36269
-3.39792
-3.25871
-0.398357
-0.158636
-0.163079
-0.894254
-0.81106
-1.10766
-0.407745
-0.690293
-0.991673
-1.31322
-1.62324
-3.02265
-2.51802
-1.97195
-1.44515
-2.23541
-0.132057
-0.147272
-0.111619
-0.11853
-0.103854
-0.108077
-0.0971985
-0.0992531
-0.105982
-0.0995621
-0.134513
-0.117425
-0.184787
-0.156875
-0.262713
-0.219669
-0.378702
-0.315185
-0.540731
-0.454161
-0.738197
-0.636368
-0.945192
-0.842743
-1.11945
-1.0394
-1.21586
-1.17979
-1.20811
-1.22502
-1.11007
-1.16828
-0.954775
-1.0376
-0.774045
-0.86547
-0.602319
-0.685029
-0.465314
-0.528665
-0.369856
-0.412552
-0.311752
-0.336537
-0.285451
-0.294904
-0.28752
-0.283091
-0.316161
-0.298605
-0.369611
-0.340015
-0.441342
-0.403964
-0.515258
-0.479378
-0.569375
-0.546095
-0.586565
-0.583192
-0.563547
-0.57945
-0.512658
-0.541035
-0.454454
-0.483221
-0.744664
-0.426012
-0.579625
-1.08779
-0.914965
-1.4288
-1.26117
-1.72302
-1.58458
-1.92701
-1.83874
-2.00643
-1.98378
-1.94635
-1.99373
-1.75766
-1.86635
-1.47444
-1.62535
-1.14156
-1.31109
-0.799202
-0.968113
-0.493647
-0.640066
-0.501535
-0.361428
-0.430972
-0.639016
-0.572341
-0.74571
-0.699239
-0.789003
-0.775783
-0.763803
-0.784733
-0.679427
-0.727664
-0.559637
-0.622182
-0.43101
-0.494948
-0.313251
-0.369952
-0.215769
-0.261764
-0.140138
-0.175302
-0.0845411
-0.11
-0.0463875
-0.0634448
-0.0234503
-0.0331425
-0.0138242
-0.0171064
-0.015064
-0.013287
-0.0235445
-0.0186767
-0.0346629
-0.0290741
-0.0438631
-0.0397471
-0.0480559
-0.0467506
-0.0452326
-0.0475563
-0.036611
-0.0413414
-0.0296971
-0.0322481
-0.0346831
-0.0302563
-0.0561367
-0.043269
-0.0963024
-0.0736251
-0.160387
-0.124946
-0.256012
-0.203686
-0.392969
-0.318722
-0.577155
-0.479415
-0.787906
-0.682603
-0.945671
-0.880146
-0.974821
-0.976961
-0.949129
-2.2151
-1.97121
-0.975442
-0.705119
-2.39765
-2.57874
-1.86855
-2.5165
-2.95363
-0.301323
-0.281256
-0.417577
-0.297478
-2.51936
-3.30825
-3.58627
-3.71905
-3.66567
-3.4231
-0.161255
0.0372348
0.0376733
-0.152407
-0.399962
-0.694498
-1.01991
-1.36821
-1.71745
-3.00754
-2.427
-1.83375
-1.29475
-0.58691
-0.83504
-2.51879
0.0334578
0.0357375
0.0389246
0.0344332
0.0453806
0.0444975
0.041236
0.0435227
0.033685
0.0383555
0.0143705
0.0256465
-0.0193497
-0.000379835
-0.0705142
-0.0426776
-0.143801
-0.103889
-0.2468
-0.191102
-0.384956
-0.311555
-0.551367
-0.465665
-0.724204
-0.638902
-0.869934
-0.802723
-0.953193
-0.921287
-0.953363
-0.963682
-0.88047
-0.92455
-0.75749
-0.823881
-0.608233
-0.684336
-0.463051
-0.533284
-0.34538
-0.40003
-0.261746
-0.299415
-0.208942
-0.231822
-0.182315
-0.192595
-0.178878
-0.177836
-0.196795
-0.185271
-0.23429
-0.213275
-0.286538
-0.259128
-0.341704
-0.314765
-0.383035
-0.365103
-0.397109
-0.393937
-0.381528
-0.392607
-0.343697
-0.365105
-0.322547
-0.70267
-0.400633
-0.549367
-1.01847
-0.859699
-1.32385
-1.17452
-1.58208
-1.46141
-1.75416
-1.68099
-1.81168
-1.79833
-1.74519
-1.79364
-1.56667
-1.66837
-1.30647
-1.44446
-1.00436
-1.15831
-0.694451
-0.847461
-0.550486
-0.358849
-0.244631
-0.300969
-0.472082
-0.416664
-0.557541
-0.519824
-0.593876
-0.582511
-0.574489
-0.590911
-0.506915
-0.545706
-0.409402
-0.460505
-0.303139
-0.356179
-0.203988
-0.251994
-0.120043
-0.159897
-0.0531615
-0.0845145
-0.00224069
-0.0258209
0.0345619
0.017803
0.0590656
0.0482403
0.0728936
0.0672099
0.0777725
0.0763251
0.0759146
0.0775211
0.0700815
0.0733055
0.0634333
0.0666475
0.0588228
0.0606526
0.0591762
0.0582649
0.0639737
0.0613199
0.0664882
0.0661027
0.0588362
0.0641974
0.0384397
0.0502799
0.00357743
0.0230251
-0.0497645
-0.0204893
-0.127004
-0.0849921
-0.234993
-0.176755
-0.377602
-0.302121
-0.542258
-0.459372
-0.669016
-0.616409
-0.683784
-0.691149
-0.606513
-0.653765
-0.463743
-0.544675
-0.471618
-0.281258
-0.372567
-2.46369
-2.17289
-2.70397
-2.93408
-0.264397
-0.188502
-2.01834
-2.82681
-3.36222
-2.80336
-3.73029
-3.96989
-4.01965
-3.85885
-3.50588
0.0456741
0.195307
0.19719
-0.115971
-0.0446317
-0.190513
0.0542043
-0.136573
-0.378991
-0.676706
-1.01999
-1.39557
-1.78645
-2.91292
-2.27552
-1.6625
-1.12928
-0.698129
-0.361115
-2.85431
0.190182
0.193604
0.183971
0.188399
0.178227
0.179399
0.175446
0.178309
0.163171
0.170051
0.14505
0.154863
0.117993
0.13283
0.0800674
0.100541
0.0292276
0.0563406
-0.0381664
-0.00198943
-0.127938
-0.079957
-0.244226
-0.182669
-0.383198
-0.311747
-0.526354
-0.455779
-0.647697
-0.591545
-0.719573
-0.691237
-0.726456
-0.731202
-0.674497
-0.706875
-0.578144
-0.630964
-0.45559
-0.518545
-0.333879
-0.392976
-0.233823
-0.280486
-0.161271
-0.194182
-0.113782
-0.13466
-0.0875453
-0.0982105
-0.0799853
-0.0815523
-0.0894042
-0.082678
-0.114083
-0.0999824
-0.150463
-0.131202
-0.190067
-0.170601
-0.22046
-0.20718
-0.231426
-0.228737
-0.220534
-0.228504
-0.193669
-0.208481
-0.163301
-0.177827
-0.141828
-0.150739
-0.384569
-0.137763
-0.255244
-0.66855
-0.524045
-0.95909
-0.814241
-1.23361
-1.10019
-1.45948
-1.35483
-1.60306
-1.54334
-1.64096
-1.63602
-1.5677
-1.61776
-1.39678
-1.49295
-1.15591
-1.283
-0.880141
-1.02036
-0.601293
-0.738861
-0.348058
-0.469889
-0.137948
-0.237237
-0.138983
-0.0510318
-0.0936991
-0.23387
-0.186169
-0.324909
-0.280838
-0.393255
-0.363017
-0.423156
-0.413663
-0.40855
-0.421335
-0.354852
-0.385813
-0.276127
-0.317559
-0.188869
-0.232623
-0.105881
-0.146282
-0.0339661
-0.0683292
0.0248216
-0.00294153
0.0710496
0.0494203
0.10605
0.0898651
0.131178
0.119762
0.147666
0.140426
0.156616
0.153013
0.159191
0.158616
0.156926
0.15854
0.152272
0.154689
0.147942
0.149773
0.14733
0.14708
0.149798
0.14847
0.149263
0.150362
0.140317
0.145967
0.121762
0.132275
0.0921639
0.108507
0.0486291
0.072336
-0.0125488
0.020523
-0.0959325
-0.0512099
-0.204106
-0.146995
-0.328863
-0.265911
-0.429601
-0.386426
-0.443684
-0.449777
-0.369153
-0.413354
-0.251116
-0.313593
-0.185482
-2.7202
-2.37679
-0.104653
0.0246952
-3.05044
-3.33236
-2.1469
-3.15728
-3.78855
-0.0299801
-0.0284076
-0.0911606
-0.0111423
-3.08641
-4.13287
-4.29708
-4.23944
-3.96095
-3.49843
0.198137
0.305359
0.296414
0.194722
0.0646677
-0.115851
-0.346829
-0.641714
-0.99234
-1.39303
-1.81969
-2.74321
-2.07651
-1.47036
-0.962055
-0.564422
-0.257573
0.0919038
-0.0240917
-3.23192
0.313132
0.311899
0.307021
0.31027
0.301336
0.304805
0.29171
0.295869
0.282184
0.287979
0.263802
0.273931
0.238823
0.252016
0.206965
0.223878
0.167291
0.188155
0.11841
0.144117
0.057141
0.0896364
-0.0210443
0.0204003
-0.11971
-0.0677232
-0.23537
-0.176152
-0.353506
-0.295267
-0.454082
-0.407412
-0.516344
-0.490999
-0.528451
-0.528798
-0.493023
-0.516174
-0.417786
-0.459784
-0.317303
-0.369246
-0.215909
-0.265271
-0.131581
-0.171062
-0.0692202
-0.0977077
-0.026943
-0.0457838
-0.00164724
-0.0123424
0.00883897
0.00534312
0.00598953
0.00898771
-0.00863092
2.64443e-05
-0.0323732
-0.019627
-0.0593524
-0.0459912
-0.0805936
-0.0712541
-0.0883883
-0.0864495
-0.0807562
-0.0863866
-0.0620265
-0.0723367
-0.0416021
-0.0512323
-0.0342116
-0.377246
-0.13734
-0.254189
-0.642806
-0.507514
-0.911359
-0.778052
-1.15955
-1.03982
-1.35708
-1.26654
-1.47549
-1.42765
-1.49594
-1.49852
-1.41586
-1.46791
-1.2498
-1.3421
-1.02426
-1.14252
-0.770814
-0.899221
-0.517416
-0.64245
-0.285347
-0.397669
-0.182505
-0.0483044
0.0247896
-0.0109435
-0.125466
-0.0871011
-0.197674
-0.162878
-0.252013
-0.228015
-0.276131
-0.26842
-0.265216
-0.275118
-0.222714
-0.247327
-0.159491
-0.192887
-0.0881508
-0.124102
-0.0189194
-0.0528056
0.0424619
0.0129382
0.0939552
0.0694622
0.135674
0.11598
0.168557
0.153154
0.193592
0.181997
0.211575
0.20342
0.223044
0.218097
0.228418
0.226459
0.22848
0.229029
0.225288
0.227075
0.221988
0.223448
0.221357
0.221258
0.222369
0.221952
0.21982
0.221847
0.210545
0.216057
0.194184
0.203286
0.16952
0.183008
0.134582
0.153461
0.0870226
0.11255
0.0240772
0.0576268
-0.0559201
-0.0138266
-0.147561
-0.10129
-0.224838
-0.190596
-0.243794
-0.244087
-0.184861
-0.224278
-0.0812776
-0.135378
0.0270873
-0.0267828
0.13337
0.0795417
0.154346
0.239457
0.187898
-2.96217
-2.56282
-3.41806
-3.75097
-0.031287
0.058752
-2.24164
-3.48351
-4.19858
-3.34249
-4.48008
-4.53893
-4.35963
-3.96157
-3.39875
0.28291
0.361418
0.34749
0.266555
0.18591
0.0735974
-0.0931352
-0.308967
-0.595594
-0.943163
-1.35835
-1.81329
-2.51394
-1.84752
-1.26941
-0.803485
-0.441301
-0.163501
0.0512479
0.307309
0.2901
0.350334
-3.63073
0.388673
0.376509
0.401219
0.396386
0.399107
0.401207
0.394044
0.396842
0.383667
0.389372
0.369454
0.37735
0.347513
0.359433
0.319011
0.333933
0.284958
0.302728
0.244936
0.265723
0.197827
0.22237
0.141421
0.170991
0.0722851
0.10865
-0.0118676
0.032057
-0.107759
-0.0588368
-0.20519
-0.157167
-0.288551
-0.249675
-0.342792
-0.320054
-0.358614
-0.3557
-0.335329
-0.351729
-0.275995
-0.30971
-0.193499
-0.236293
-0.109615
-0.150508
-0.0391973
-0.0722923
0.013947
-0.0105099
0.0512834
0.034427
0.0752646
0.0648035
0.0876814
0.0828342
0.0897582
0.0899329
0.0828337
0.087319
0.0689213
0.0765659
0.0519706
0.0604626
0.038306
0.0443152
0.0334267
0.0345918
0.0388996
0.034943
0.0514778
0.0446774
0.064938
0.0584395
0.0703358
0.0687715
0.062277
0.0690705
-0.144604
0.0513887
-0.0412022
-0.376662
-0.257396
-0.626723
-0.500451
-0.876656
-0.752963
-1.10237
-0.994365
-1.27546
-1.19714
-1.37169
-1.33437
-1.37645
-1.38586
-1.28959
-1.34386
-1.12619
-1.216
-0.911993
-1.0236
-0.676009
-0.795118
-0.44259
-0.557628
-0.229536
-0.332794
-0.0494079
-0.134282
0.0909112
0.0251217
0.0909819
0.147507
0.11998
0.0292082
0.0604242
-0.0325574
-0.00186768
-0.0894825
-0.0621923
-0.1322
-0.113288
-0.151136
-0.145092
-0.14292
-0.150545
-0.109343
-0.12886
-0.0586062
-0.08549
-0.000397262
-0.0298631
0.0572748
0.0288786
0.109581
0.0842656
0.154611
0.13304
0.192167
0.174294
0.222816
0.208307
0.247227
0.235764
0.26581
0.257232
0.278626
0.272943
0.285611
0.28284
0.287203
0.28701
0.285105
0.286479
0.283298
0.284155
0.28315
0.282991
0.283126
0.283385
0.279357
0.28187
0.270494
0.275548
0.256506
0.264183
0.236395
0.247292
0.208949
0.223667
0.17272
0.19203
0.126228
0.150829
0.0687473
0.0988218
0.00385483
0.0366041
-0.0527119
-0.027035
-0.0728541
-0.0692306
-0.0343346
-0.0612737
0.048235
0.00372254
0.139686
0.0945755
0.224901
0.182743
0.266386
-3.16404
-2.70673
0.214159
-3.77979
-4.15716
-2.29184
-3.77562
-4.5554
0.146128
0.135005
0.119518
0.172679
-3.54305
-4.74014
-4.67523
-4.36877
-3.85751
-3.21126
0.330828
0.393971
0.37688
0.34116
0.39286
0.313145
0.254569
0.174518
0.0744689
-0.0717237
-0.270407
-0.541005
-0.877304
-1.29502
-1.76581
-2.24516
-1.60579
-1.07373
-0.654662
-0.329678
-0.0778907
0.118541
-4.01997
0.425106
0.409761
0.450978
0.438864
0.4666
0.459589
0.471337
0.470475
0.467565
0.47012
0.457249
0.4633
0.440955
0.449855
0.4176
0.430192
0.387691
0.403341
0.352527
0.370764
0.312205
0.333003
0.266486
0.290059
0.214168
0.241301
0.152668
0.184698
0.0808956
0.118024
0.000949253
0.0416148
-0.0795925
-0.0399347
-0.1493
-0.116506
-0.196777
-0.176462
-0.214552
-0.209579
-0.199391
-0.211239
-0.151669
-0.179148
-0.0838562
-0.119032
-0.0149775
-0.0485678
0.0433092
0.0158049
0.0882596
0.0674145
0.120991
0.10603
0.143385
0.133366
0.156922
0.151193
0.162552
0.160664
0.161359
0.162723
0.154874
0.158647
0.145735
0.150402
0.13821
0.141476
0.135902
0.136355
0.140058
0.13719
0.148561
0.144032
0.156335
0.152939
0.157048
0.157413
0.153467
-0.159177
0.0363659
-0.0579294
-0.383103
-0.267807
-0.621192
-0.501463
-0.855771
-0.740205
-1.06232
-0.964298
-1.21439
-1.14664
-1.29106
-1.2631
-1.28139
-1.29718
-1.18757
-1.24432
-1.02506
-1.11348
-0.818544
-0.925547
-0.59521
-0.707482
-0.377357
-0.48442
-0.180097
-0.275612
-0.0126577
-0.0917831
0.0582921
0.147697
0.195916
0.172492
0.0959988
0.121754
0.0462149
0.0707589
0.00153755
0.0228995
-0.0316617
-0.0169504
-0.0459292
-0.0415926
-0.0397946
-0.0457226
-0.0130649
-0.0286272
0.027746
0.00604201
0.0753037
0.051118
0.123368
0.0995668
0.167981
0.146258
0.207373
0.188376
0.241163
0.224956
0.269602
0.256022
0.29304
0.281931
0.31155
0.30292
0.324846
0.318873
0.332617
0.329422
0.335311
0.334511
0.334761
0.335291
0.334039
0.334272
0.334307
0.334122
0.333469
0.334225
0.329151
0.331791
0.321175
0.325599
0.309512
0.315844
0.293447
0.302072
0.272297
0.28355
0.245305
0.259576
0.211843
0.229406
0.171889
0.192621
0.12797
0.150055
0.0891079
0.107002
0.0724168
0.0767555
0.0945502
0.0780786
0.152926
0.120293
0.22642
0.189275
0.297124
0.262543
0.363507
0.330482
0.432673
0.397943
0.49633
0.434247
0.466924
-3.30419
-2.78877
0.272355
-4.10297
-4.51448
0.119767
0.217723
-2.2885
0.389718
-4.00361
-4.82585
0.470642
-3.65438
-4.89042
-4.69372
-4.26299
-3.65513
-2.95269
0.355401
0.291634
0.238857
0.164628
0.0706421
-0.0584551
-0.233666
-0.484573
-0.799271
-1.20964
-1.68038
-1.95981
-1.36905
-0.892009
-0.518798
-0.227756
0.00164661
0.184032
-4.36465
0.410264
0.330085
0.361359
0.387561
0.443619
0.427884
0.473068
0.458439
0.498116
0.486184
0.516392
0.508138
0.526197
0.522611
0.52549
0.527052
0.51598
0.521802
0.499157
0.508381
0.475416
0.488177
0.445016
0.46096
0.409307
0.427766
0.369231
0.389753
0.325337
0.347777
0.276779
0.301754
0.221869
0.250187
0.159998
0.191789
0.0926511
0.126749
0.0255026
0.0585673
-0.0333054
-0.00548094
-0.0750044
-0.0567875
-0.0932979
-0.0874018
-0.0826943
-0.0918822
-0.0432559
-0.0660354
0.0123701
-0.0163724
0.0683768
0.0410649
0.116183
0.0935221
0.153936
0.136287
0.182456
0.169263
0.203125
0.193684
0.217133
0.210904
0.22522
0.221875
0.228155
0.227265
0.22711
0.228037
0.223854
0.225609
0.221218
0.222237
0.221102
0.221131
0.224501
0.222295
0.230202
0.227279
0.23402
0.232619
0.231439
0.233742
0.218817
0.226468
0.191667
0.207439
0.0150299
0.171457
0.0985718
-0.179398
-0.0786675
-0.397266
-0.28598
-0.626717
-0.511581
-0.849027
-0.740159
-1.03941
-0.949839
-1.17338
-1.11479
-1.23263