/*--------------------------------*- C++ -*----------------------------------*\
  =========                 |
  \\      /  F ield         | OpenFOAM: The Open Source CFD Toolbox
   \\    /   O peration     | Website:  https://openfoam.org
    \\  /    A nd           | Version:  10
     \\/     M anipulation  |
\*---------------------------------------------------------------------------*/
FoamFile
{
    format      ascii;
    class       volScalarField;
    location    "37";
    object      p;
}
// * * * * * * * * * * * * * * * * * * * * * * * * * * * * * * * * * * * * * //

dimensions      [0 2 -2 0 0 0 0];

internalField   nonuniform List<scalar> 
33313
(
-0.00209352
-0.00332401
-0.00370387
-0.00651763
0.00490328
0.00455418
0.00286334
0.0123534
0.0117035
-0.0018696
0.00204556
-0.72706
-0.748469
-0.729712
0.13604
0.125114
0.140287
-0.165339
-0.25792
-0.197664
-0.118324
0.759717
0.658163
0.812014
0.840308
0.191274
0.196746
0.199277
0.28926
0.280298
0.291868
0.214661
0.323812
-0.371925
-0.38085
-0.369964
-0.354652
0.0919623
0.0872681
-0.417322
-0.384314
0.336483
0.324093
-0.352397
-0.740954
-0.776605
0.674466
0.772193
-0.00618814
-0.0052794
0.28859
0.317133
0.219003
0.265854
-0.0449805
-0.0190411
0.291609
0.435019
0.555002
0.464991
0.291209
0.862512
0.922087
0.948578
-0.008255
-0.0234013
-0.159979
-0.020543
-0.0197544
-0.200785
-0.18855
-0.14828
-0.318871
-0.468352
-0.329336
-0.26511
-0.189881
-0.170346
-0.302342
-0.367526
0.561178
0.546964
0.578212
-0.563982
-0.617845
-0.703571
-0.832118
-0.815441
-0.806898
0.941556
-0.394457
-0.336517
-0.360053
-0.395802
-0.438586
0.276692
0.26597
0.00268008
0.000746525
-0.094343
-0.0825615
-0.141808
-0.148648
-0.152269
-0.178253
-0.384661
-0.424447
-0.416413
-0.386082
0.0367302
0.210284
0.166503
0.0348783
-0.566828
-0.67975
-0.514178
0.908558
0.848948
-0.143242
-0.130729
-0.33843
-0.334249
-0.339478
-0.00823358
-0.0069439
-0.0194706
0.202521
0.012657
0.0189415
-0.830063
-0.851712
-0.378048
-0.362381
-0.0718149
-0.0841295
-0.248298
-0.162191
0.0143175
0.100968
0.300817
0.200175
0.4104
0.0100204
0.00502706
0.00640891
0.121357
0.117622
0.117637
0.114427
0.362388
0.346013
0.368385
0.355297
0.40331
0.404961
0.370009
0.371716
-0.199194
-0.265377
-0.209452
-0.353988
-0.0948032
-0.0482597
0.118288
-0.0311921
-0.695372
-0.714014
-0.705804
-0.838719
0.00078574
0.00196661
0.135192
0.13441
0.0342195
0.0316621
0.192409
0.175679
-0.79441
-0.809414
0.0263693
0.0219
0.011763
0.00791565
0.0789758
0.0825058
-0.103025
-0.115711
-0.813456
-0.79758
-0.845598
-0.377431
0.527293
0.502279
-0.822028
-0.794738
0.361817
0.37457
0.36712
0.409807
0.43436
0.429856
0.559272
0.533729
0.146964
0.152513
-0.716409
-0.711432
-0.0659444
-0.178084
0.166027
0.161269
0.00340212
0.00641198
0.00352145
0.0013786
0.127227
-0.785625
-0.766734
0.294599
0.301396
0.279497
0.270912
-0.112681
-0.107513
-0.0929836
0.0877484
0.114093
0.0826663
-0.766011
-0.762075
-0.767371
0.001253
0.0415046
0.137002
0.043721
0.041382
-0.388993
0.30195
-0.119453
-0.128984
-0.140595
-0.152302
-0.166419
-0.180865
-0.195942
-0.210983
-0.224845
-0.236623
-0.245382
-0.250655
-0.252035
-0.249432
-0.243085
-0.23352
-0.22136
-0.207532
-0.192865
-0.178221
-0.164233
-0.151408
-0.140027
-0.130227
-0.122066
-0.115415
-0.110415
-0.106414
-0.103908
-0.102502
-0.102394
-0.103409
-0.115267
-0.10953
-0.108005
-0.111163
-0.10883
-0.105627
-0.103215
-0.107396
-0.104673
-0.103544
-0.102808
-0.108915
-0.105627
-0.119421
-0.113491
-0.135627
-0.126781
-0.157525
-0.145919
-0.183419
-0.170169
-0.209194
-0.196665
-0.22892
-0.220192
-0.237052
-0.234692
-0.231166
-0.235872
-0.212574
-0.223215
-0.186372
-0.19999
-0.158658
-0.172502
-0.134865
-0.146398
-0.1246
-0.104092
-0.102536
-0.111013
-0.104766
-0.114495
-0.112266
-0.099794
-0.098665
-0.115727
-0.104828
-0.0997694
-0.108408
-0.0957206
-0.0960384
-0.096481
-0.111819
-0.0987703
-0.104526
-0.130095
-0.120539
-0.154713
-0.141228
-0.185128
-0.169517
-0.216848
-0.201141
-0.243421
-0.231249
-0.258063
-0.25254
-0.256988
-0.259549
-0.240451
-0.250438
-0.213175
-0.227727
-0.182219
-0.197714
-0.153771
-0.167402
-0.131163
-0.141653
-0.11509
-0.122362
-0.105235
-0.109429
-0.100619
-0.102356
-0.100567
-0.100029
-0.10213
-0.119881
-0.112659
-0.116812
-0.107139
-0.116299
-0.110927
-0.102613
-0.104405
-0.102195
-0.101846
-0.106528
-0.103765
-0.115852
-0.110557
-0.130504
-0.122496
-0.1504
-0.139851
-0.173974
-0.161908
-0.197526
-0.186063
-0.215723
-0.207639
-0.223496
-0.221149
-0.218272
-0.22252
-0.201253
-0.211008
-0.177074
-0.189677
-0.151301
-0.164124
-0.128303
-0.139327
-0.111443
-0.119003
-0.0999994
-0.104975
-0.0939329
-0.0962948
-0.12203
-0.0944456
-0.0940176
-0.0927128
-0.118171
-0.10732
-0.112177
-0.0933811
-0.116111
-0.123227
-0.123319
-0.0913244
-0.0942427
-0.0965686
-0.0881216
-0.0917469
-0.110299
-0.102798
-0.12889
-0.118888
-0.154726
-0.140722
-0.186262
-0.170123
-0.218714
-0.202683
-0.246032
-0.233462
-0.261503
-0.255587
-0.26085
-0.263297
-0.244143
-0.254299
-0.216058
-0.231085
-0.183906
-0.200026
-0.154223
-0.168459
-0.130547
-0.141542
-0.113611
-0.12127
-0.102865
-0.107509
-0.097399
-0.0995245
-0.0965247
-0.0964286
-0.0999857
-0.0977153
-0.103232
-0.127035
-0.123111
-0.131502
-0.129836
-0.105921
-0.1103
-0.100767
-0.102814
-0.0996953
-0.0996987
-0.102987
-0.100779
-0.11097
-0.106377
-0.123933
-0.116823
-0.141721
-0.132276
-0.162911
-0.152053
-0.184198
-0.17382
-0.200783
-0.193395
-0.207993
-0.205782
-0.203361
-0.207172
-0.187939
-0.196789
-0.16588
-0.177405
-0.142335
-0.154006
-0.12129
-0.131292
-0.105999
-0.112853
-0.0960974
-0.100449
-0.0909707
-0.0928952
-0.0927373
-0.0907356
-0.0902363
-0.0892813
-0.0857116
-0.0917549
-0.0935169
-0.131893
-0.0924565
-0.0939549
-0.125023
-0.11827
-0.100844
-0.0884221
-0.0844632
-0.105247
-0.0931651
-0.0838751
-0.0793301
-0.0810177
-0.0930214
-0.0878614
-0.106835
-0.0993188
-0.126153
-0.115676
-0.152914
-0.138606
-0.184822
-0.168475
-0.217744
-0.201465
-0.245671
-0.232784
-0.261696
-0.25553
-0.261359
-0.263683
-0.24457
-0.254825
-0.215985
-0.231306
-0.183089
-0.199595
-0.152647
-0.167254
-0.128307
-0.13962
-0.110805
-0.118733
-0.0994747
-0.104426
-0.0933522
-0.0958208
-0.0917179
-0.0920077
-0.0943228
-0.0925153
-0.097103
-0.135495
-0.130797
-0.140991
-0.138862
-0.114746
-0.130798
-0.12213
-0.103843
-0.108647
-0.0978692
-0.100312
-0.096115
-0.0964942
-0.0984157
-0.0967453
-0.10505
-0.101175
-0.116269
-0.110084
-0.131891
-0.123579
-0.150638
-0.141018
-0.169591
-0.160335
-0.184477
-0.177827
-0.191058
-0.18901
-0.187048
-0.190394
-0.173309
-0.181213
-0.15345
-0.163852
-0.132142
-0.142696
-0.113394
-0.122246
-0.099693
-0.105861
-0.0910558
-0.0947925
-0.0869989
-0.0884564
-0.0876572
-0.08673
-0.0954942
-0.0932663
-0.089803
-0.141698
-0.0842551
-0.0786978
-0.0913753
-0.0942502
-0.110597
-0.0981498
-0.0897538
-0.0950688
-0.0887891
-0.096557
-0.1
-0.0852858
-0.128383
-0.140855
-0.138518
-0.0792601
-0.093352
-0.073134
-0.0722418
-0.0721328
-0.0784699
-0.0752564
-0.0880282
-0.0827321
-0.102167
-0.0944668
-0.12219
-0.11133
-0.149093
-0.134845
-0.180944
-0.164592
-0.213966
-0.197634
-0.242042
-0.229069
-0.258341
-0.25202
-0.258356
-0.260507
-0.241809
-0.251969
-0.213205
-0.228572
-0.18006
-0.196711
-0.149278
-0.164058
-0.124604
-0.136082
-0.106779
-0.114868
-0.0950771
-0.100229
-0.0884851
-0.0912041
-0.0862208
-0.0868498
-0.0879161
-0.0866005
-0.0935075
-0.09028
-0.102107
-0.0974167
-0.132929
-0.116613
-0.125221
-0.144902
-0.139571
-0.151652
-0.148957
-0.152253
-0.152769
-0.112034
-0.119565
-0.100761
-0.105792
-0.0941211
-0.0969084
-0.0915976
-0.0923709
-0.0929366
-0.0917821
-0.0982645
-0.0950907
-0.10776
-0.102492
-0.121235
-0.114045
-0.137553
-0.129165
-0.154168
-0.146039
-0.167325
-0.161431
-0.173244
-0.171374
-0.169829
-0.172725
-0.157735
-0.164712
-0.140086
-0.149346
-0.121095
-0.130497
-0.104545
-0.112329
-0.0925219
-0.097934
-0.0851409
-0.0882752
-0.0820852
-0.08308
-0.0834457
-0.0822089
-0.0859345
-0.104701
-0.101984
-0.107324
-0.0809252
-0.0732602
-0.0923492
-0.0963527
-0.149879
-0.0904415
-0.100623
-0.0875745
-0.106136
-0.110764
-0.113099
-0.0835549
-0.0930705
-0.0975932
-0.0754228
-0.0949249
-0.0640552
-0.0662521
-0.0647286
-0.0660055
-0.0645441
-0.0719455
-0.0684892
-0.0819255
-0.076428
-0.0964904
-0.0885674
-0.116783
-0.105855
-0.143328
-0.129314
-0.174775
-0.158609
-0.207432
-0.191284
-0.235258
-0.222377
-0.25163
-0.245229
-0.252015
-0.253953
-0.235941
-0.245866
-0.207706
-0.222908
-0.174774
-0.191335
-0.144104
-0.158838
-0.119469
-0.130936
-0.101596
-0.109722
-0.0897198
-0.0949787
-0.0827967
-0.0857014
-0.0800146
-0.0809281
-0.0809392
-0.0800378
-0.0854525
-0.0827879
-0.0889251
-0.123215
-0.102481
-0.113173
-0.141438
-0.132684
-0.155192
-0.148919
-0.163381
-0.160088
-0.164527
-0.164927
-0.162278
-0.124589
-0.146013
-0.134716
-0.108124
-0.115705
-0.0966196
-0.101775
-0.0895013
-0.0925531
-0.0862725
-0.0874257
-0.0866794
-0.0860252
-0.0907508
-0.0882511
-0.0985861
-0.0942005
-0.109989
-0.103882
-0.123966
-0.116765
-0.138316
-0.131281
-0.149779
-0.14463
-0.15503
-0.153346
-0.152158
-0.154635
-0.141635
-0.147724
-0.126132
-0.134277
-0.10944
-0.117693
-0.0950136
-0.101782
-0.0846525
-0.0892946
-0.0784944
-0.0810669
-0.0763496
-0.0769222
-0.0783634
-0.0768107
-0.0851617
-0.0811239
-0.0978051
-0.0906574
-0.121587
-0.117582
-0.106822
-0.0782071
-0.068007
-0.0947239
-0.0999813
-0.130738
-0.13452
-0.0935331
-0.106357
-0.0911611
-0.114135
-0.107917
-0.0919194
-0.0964077
-0.0874529
-0.123616
-0.0819807
-0.158386
-0.0708024
-0.0979835
-0.0559147
-0.0590225
-0.0570155
-0.0551166
-0.0551711
-0.0579078
-0.0560345
-0.0644704
-0.0607352
-0.0748865
-0.0691736
-0.0897302
-0.0817034
-0.10987
-0.0990883
-0.135808
-0.12213
-0.166503
-0.150723
-0.198366
-0.182611
-0.225587
-0.212967
-0.241797
-0.235412
-0.242527
-0.244235
-0.227137
-0.236694
-0.199665
-0.21449
-0.167413
-0.183649
-0.137291
-0.151768
-0.113049
-0.124341
-0.0953878
-0.103431
-0.0835269
-0.0888036
-0.0764131
-0.0794388
-0.073221
-0.0743681
-0.0734671
-0.072938
-0.0769804
-0.0748412
-0.0835673
-0.0799684
-0.0875366
-0.130322
-0.119217
-0.150467
-0.140841
-0.166333
-0.159057
-0.175867
-0.17199
-0.177553
-0.177756
-0.140773
-0.152847
-0.171419
-0.175495
-0.119509
-0.129603
-0.103135
-0.110723
-0.0915273
-0.0967679
-0.0840726
-0.087322
-0.0802441
-0.0817302
-0.0797822
-0.079599
-0.0826627
-0.0808025
-0.0889265
-0.0853761
-0.0983762
-0.0932884
-0.11015
-0.104066
-0.122367
-0.116363
-0.132223
-0.127781
-0.136825
-0.135327
-0.134444
-0.136537
-0.125381
-0.130641
-0.111915
-0.118997
-0.0974349
-0.104583
-0.0850378
-0.0908366
-0.0762666
-0.0801722
-0.071264
-0.0733085
-0.0699152
-0.0701294
-0.0724496
-0.0706721
-0.0794677
-0.0753403
-0.0921129
-0.0850111
-0.111712
-0.100881
-0.146103
-0.139798
-0.124752
-0.0749107
-0.0622944
-0.149938
-0.163808
-0.157317
-0.0986875
-0.105266
-0.0981834
-0.114001
-0.113496
-0.101073
-0.0962392
-0.124302
-0.09282
-0.136367
-0.0874798
-0.165586
-0.0664267
-0.0803768
-0.167908
-0.183974
-0.177143
-0.0712913
-0.0526128
-0.0811776
-0.0849895
-0.0562144
-0.102719
-0.046941
-0.0493998
-0.0449139
-0.0454809
-0.0454035
-0.0448044
-0.0490643
-0.0468067
-0.0562416
-0.0522164
-0.0670334
-0.0611679
-0.0819056
-0.0739156
-0.101635
-0.0911141
-0.126768
-0.113534
-0.15637
-0.141163
-0.187054
-0.171882
-0.213333
-0.201131
-0.229166
-0.222884
-0.230221
-0.231682
-0.2157
-0.224775
-0.189329
-0.203592
-0.158172
-0.173871
-0.129005
-0.143029
-0.105491
-0.11645
-0.0882943
-0.0961391
-0.0766335
-0.0818423
-0.0694679
-0.0725499
-0.0659771
-0.0673045
-0.0656584
-0.0654452
-0.068283
-0.0666245
-0.073808
-0.0707675
-0.0773288
-0.137878
-0.125886
-0.160085
-0.149337
-0.177975
-0.169766
-0.188771
-0.184367
-0.191172
-0.19104
-0.184853
-0.189031
-0.167782
-0.199238
-0.189488
-0.178753
-0.134148
-0.158296
-0.145886
-0.113355
-0.123189
-0.0972323
-0.104695
-0.0856382
-0.0909054
-0.0779518
-0.0813475
-0.0736271
-0.0753952
-0.072384
-0.0726292
-0.0741631
-0.0728962
-0.0789684
-0.0761928
-0.0866124
-0.0824663
-0.0963586
-0.0913019
-0.106612
-0.101558
-0.114985
-0.111198
-0.118975
-0.117657
-0.117024
-0.118774
-0.109292
-0.113793
-0.097722
-0.103809
-0.0853246
-0.0914309
-0.0748351
-0.0797221
-0.0675596
-0.0707737
-0.063624
-0.0651841
-0.0629788
-0.0628834
-0.0658911
-0.0639613
-0.072991
-0.0688662
-0.0852796
-0.0784154
-0.104359
-0.0938599
-0.131433
-0.116842
-0.148451
-0.104356
-0.112413
-0.0887766
-0.10458
-0.123743
-0.103209
-0.136867
-0.100009
-0.151753
-0.094488
-0.0867628
-0.0602643
-0.0767717
-0.188462
-0.206566
-0.212912
-0.223381
-0.17091
-0.0643856
-0.044543
-0.149525
-0.161642
-0.0473864
-0.1092
-0.0389988
-0.0416256
-0.0346092
-0.0363676
-0.0335587
-0.0335956
-0.0351907
-0.034034
-0.0397225
-0.0370663
-0.0474618
-0.0431929
-0.0584774
-0.0525452
-0.0731854
-0.0653284
-0.0923354
-0.0821571
-0.116448
-0.10378
-0.144651
-0.130178
-0.173829
-0.159401
-0.198884
-0.187232
-0.214168
-0.208059
-0.215524
-0.216731
-0.202008
-0.210512
-0.177018
-0.190564
-0.147322
-0.162296
-0.11947
-0.132865
-0.096985
-0.107471
-0.0804801
-0.0880212
-0.0691878
-0.0742505
-0.0621009
-0.0651777
-0.0584211
-0.0598755
-0.0576471
-0.0576938
-0.0595436
-0.0582763
-0.0639569
-0.0614933
-0.0703724
-0.06707
-0.0767988
-0.0736377
-0.118955
-0.0923499
-0.105623
-0.145484
-0.132363
-0.169899
-0.158043
-0.189633
-0.180571
-0.20175
-0.196755
-0.204725
-0.204418
-0.19829
-0.20263
-0.183505
-0.191793
-0.126201
-0.137587
-0.106194
-0.115711
-0.0905407
-0.0978158
-0.0790948
-0.0843263
-0.0712754
-0.0747709
-0.0665489
-0.0685517
-0.0646205
-0.0652452
-0.0654051
-0.0646756
-0.0688857
-0.0668138
-0.0748947
-0.0716003
-0.0828122
-0.0786814
-0.0912989
-0.0870991
-0.0983323
-0.0951377
-0.101759
-0.10061
-0.100171
-0.101624
-0.093631
-0.097449
-0.0837936
-0.0889673
-0.0733232
-0.0784649
-0.064597
-0.0686419
-0.0586961
-0.0612766
-0.0557218
-0.0568494
-0.0556786
-0.0553242
-0.058861
-0.0568374
-0.0658757
-0.0618409
-0.0776827
-0.0711039
-0.0957672
-0.0858434
-0.121492
-0.107569
-0.156248
-0.137655
-0.19957
-0.1769
-0.237353
-0.223142
-0.0796482
-0.111916
-0.121612
-0.173539
-0.112983
-0.135857
-0.112087
-0.151978
-0.108665
-0.169835
-0.102618
-0.0937245
-0.0824243
-0.0502669
-0.0685207
-0.211475
-0.231162
-0.248775
-0.261694
-0.24644
-0.0524941
-0.0332385
-0.0653003
-0.0675134
-0.0346442
-0.117661
-0.0293068
-0.03137
-0.0251588
-0.0271986
-0.0221658
-0.0233837
-0.0221171
-0.0217499
-0.0247757
-0.0231387
-0.0300908
-0.0270785
-0.0382727
-0.0338264
-0.0493701
-0.0434426
-0.063781
-0.0561219
-0.0822047
-0.072448
-0.105095
-0.0931009
-0.131659
-0.118043
-0.159083
-0.145521
-0.182703
-0.171699
-0.197298
-0.191421
-0.198923
-0.199877
-0.1865
-0.194373
-0.163104
-0.175812
-0.135164
-0.14926
-0.108932
-0.12155
-0.0877326
-0.0976242
-0.0721158
-0.0792619
-0.0613408
-0.0661878
-0.0544509
-0.0574662
-0.0506856
-0.0522164
-0.049557
-0.0498138
-0.0508185
-0.0499013
-0.0543069
-0.0523124
-0.0595895
-0.0568249
-0.0625211
-0.0955757
-0.0695041
-0.0821151
-0.123986
-0.109631
-0.152599
-0.138325
-0.179323
-0.166392
-0.200813
-0.190926
-0.214248
-0.208661
-0.217791
-0.217328
-0.211185
-0.215751
-0.195481
-0.204369
-0.227733
-0.268078
-0.248526
-0.184898
-0.139535
-0.162281
-0.150995
-0.117244
-0.128108
-0.0982344
-0.10727
-0.083207
-0.0902185
-0.0720325
-0.07717
-0.0641777
-0.0677268
-0.0591386
-0.0613314
-0.0566218
-0.0575759
-0.056528
-0.0562749
-0.058831
-0.0573847
-0.0633899
-0.0608501
-0.0696919
-0.0663783
-0.0766198
-0.073174
-0.0824668
-0.0797983
-0.0853833
-0.0843902
-0.0840963
-0.0852957
-0.0786029
-0.0818162
-0.0703286
-0.0746748
-0.0616157
-0.065877
-0.0544946
-0.0577742
-0.0498333
-0.0518445
-0.0477086
-0.0484573
-0.0481681
-0.0476035
-0.0515194
-0.0494542
-0.0583312
-0.054448
-0.0694891
-0.0632966
-0.0863166
-0.077103
-0.110217
-0.0973078
-0.14269
-0.125368
-0.183303
-0.162153
-0.205452
-0.121483
-0.133033
-0.123248
-0.15042
-0.122451
-0.16973
-0.0712711
-0.0576182
-0.0589352
-0.118501
-0.190616
-0.111402
-0.101086
-0.0876839
-0.0719681
-0.0354632
-0.0541529
-0.236531
-0.257228
-0.274062
-0.284389
-0.266504
-0.286743
-0.17298
-0.0352748
-0.018511
-0.149983
-0.159981
-0.0179195
-0.128215
-0.0177374
-0.0184711
-0.014516
-0.0163017
-0.0115279
-0.0130051
-0.00989095
-0.0104182
-0.0108396
-0.0100211
-0.0143568
-0.0122969
-0.0203331
-0.0170313
-0.0288231
-0.0242659
-0.0398865
-0.0340191
-0.0538923
-0.0464863
-0.0714585
-0.0621931
-0.0929719
-0.0817304
-0.117734
-0.105058
-0.143237
-0.130624
-0.165277
-0.15499
-0.179088
-0.173482
-0.180938
-0.181653
-0.169644
-0.176856
-0.147985
-0.159771
-0.122026
-0.135125
-0.0976548
-0.109376
-0.077946
-0.0871464
-0.0633766
-0.0700533
-0.0532425
-0.0578155
-0.0466519
-0.0495563
-0.0428945
-0.0444554
-0.0415049
-0.0419252
-0.0422319
-0.0416158
-0.0448975
-0.0433434
-0.0491095
-0.046872
-0.0539112
-0.0515844
-0.0559296
-0.0985114
-0.0844946
-0.128479
-0.113255
-0.159218
-0.143876
-0.187913
-0.174047
-0.211051
-0.200375
-0.225738
-0.219591
-0.229897
-0.229224
-0.223058
-0.227772
-0.206473
-0.215833
-0.182659
-0.195314
-0.128377
-0.139278
-0.10756
-0.117727
-0.0896663
-0.0981752
-0.0753855
-0.0820713
-0.0645859
-0.0695793
-0.0567854
-0.0603445
-0.0515197
-0.0538591
-0.0485108
-0.0497439
-0.047658
-0.0478178
-0.0489364
-0.0480346
-0.0522357
-0.0503509
-0.0571385
-0.0545323
-0.0627171
-0.0599242
-0.0675306
-0.0653219
-0.0699751
-0.0691382
-0.0689446
-0.0699301
-0.0643618
-0.0670457
-0.0574817
-0.0610865
-0.0503512
-0.0538196
-0.0446682
-0.0472638
-0.0411039
-0.0426134
-0.0397139
-0.040138
-0.0405801
-0.0398519
-0.0440105
-0.0419485
-0.0505274
-0.0468427
-0.0609218
-0.0551788
-0.0763252
-0.0679175
-0.0981302
-0.0863348
-0.127724
-0.111921
-0.164973
-0.145643
-0.206372
-0.185614
-0.243405
-0.226259
-0.280069
-0.256341
-0.132981
-0.146768
-0.135155
-0.167493
-0.0727525
-0.0598956
-0.134154
-0.190122
-0.129375
-0.213737
-0.120534
-0.108105
-0.0924234
-0.0741968
-0.0546195
-0.168914
-0.0166892
-0.0342526
-0.262519
-0.283102
-0.297507
-0.303806
-0.300807
-0.287855
-0.264032
-0.0146676
-0.0011254
-0.0464423
-0.0475289
0.000723545
-0.140905
-0.00346695
-0.00261943
-0.0026851
-0.00340366
-0.00040493
-0.00166898
0.0014901
0.000657154
0.00196519
0.00199697
9.91684e-05
0.00133977
-0.00413971
-0.00173828
-0.0106075
-0.00709791
-0.0192749
-0.0146675
-0.0302018
-0.0244437
-0.043705
-0.0366012
-0.0603112
-0.0515884
-0.0803518
-0.0699095
-0.10322
-0.0915294
-0.126714
-0.115094
-0.147094
-0.137562
-0.160067
-0.154755
-0.162085
-0.162591
-0.151906
-0.158455
-0.132061
-0.142874
-0.108238
-0.120256
-0.0859022
-0.096642
-0.0678353
-0.0762731
-0.0544326
-0.0605839
-0.0450357
-0.0492888
-0.0388286
-0.041581
-0.0351607
-0.0367109
-0.0335968
-0.0341362
-0.0338903
-0.0335228
-0.0358678
-0.034686
-0.03917
-0.0374013
-0.0432289
-0.0412251
-0.0450787
-0.101137
-0.0864972
-0.132516
-0.116548
-0.164996
-0.148802
-0.195292
-0.180639
-0.219899
-0.208515
-0.235699
-0.229059
-0.240428
-0.239543
-0.233329
-0.238307
-0.215982
-0.225773
-0.190845
-0.204205
-0.237678
-0.265376
-0.239334
-0.176398
-0.136745
-0.15433
-0.14604
-0.116558
-0.126731
-0.0973397
-0.10671
-0.0806799
-0.0886247
-0.0672318
-0.0735498
-0.0568875
-0.0616971
-0.0492179
-0.0527485
-0.043806
-0.0462509
-0.0403994
-0.0418618
-0.0389071
-0.0394164
-0.0393144
-0.0388758
-0.0415424
-0.0402145
-0.0452568
-0.0432514
-0.0496875
-0.0474507
-0.0536146
-0.0518018
-0.0556552
-0.0549483
-0.0548124
-0.0556249
-0.0510141
-0.0532377
-0.0453685
-0.0483142
-0.0396468
-0.04241
-0.0352327
-0.0372269
-0.0326212
-0.0336971
-0.0318528
-0.0320053
-0.0330347
-0.0321863
-0.0364644
-0.0344445
-0.0426122
-0.0391627
-0.0521676
-0.046912
-0.0660845
-0.0585134
-0.0855734
-0.0750491
-0.111957
-0.0978389
-0.145503
-0.127953
-0.183404
-0.164094
-0.218012
-0.202069
-0.230465
-0.146414
-0.162839
-0.048157
-0.14867
-0.186974
-0.146845
-0.212675
-0.140528
-0.238451
-0.129606
-0.114359
-0.0959315
-0.0752468
-0.0535279
-0.0321964
0.00268493
-0.0121772
-0.288051
-0.306791
-0.317439
-0.318446
-0.308851
-0.289027
-0.234563
-0.260091
-0.161192
0.00474691
0.0155591
-0.139198
-0.145492
0.0169383
-0.155738
0.0124482
0.0139914
0.0109132
0.0113347
0.0113742
0.010889
0.0127357
0.0120293
0.0136568
0.0133319
0.013132
0.0136339
0.010509
0.0120966
0.00572917
0.00837769
-0.00105913
0.00257919
-0.00978231
-0.00518083
-0.020476
-0.0148735
-0.0333931
-0.0266318
-0.0489727
-0.0408232
-0.0674969
-0.0578729
-0.0884462
-0.0777519
-0.109913
-0.0992931
-0.128625
-0.11985
-0.140735
-0.135737
-0.142845
-0.143178
-0.133731
-0.139635
-0.115719
-0.125538
-0.0941229
-0.105009
-0.0739312
-0.0836351
-0.057602
-0.0652317
-0.0454445
-0.0510329
-0.0368527
-0.0407527
-0.0310941
-0.0336618
-0.0275839
-0.0290883
-0.0259239
-0.0265417
-0.0258796
-0.0257105
-0.0272965
-0.026418
-0.0299153
-0.028485
-0.0331471
-0.0315394
-0.0359837
-0.0347254
-0.037325
-0.0368812
-0.073697
-0.048347
-0.0604133
-0.103104
-0.0879121
-0.135724
-0.119096
-0.169517
-0.152678
-0.201097
-0.1858
-0.226919
-0.214949
-0.243633
-0.236589
-0.248825
-0.247765
-0.241636
-0.24675
-0.223544
-0.233723
-0.197265
-0.211189
-0.166436
-0.182311
-0.12277
-0.131473
-0.104406
-0.113654
-0.0868161
-0.0953963
-0.0714528
-0.078801
-0.0588942
-0.0648172
-0.0490624
-0.0536592
-0.041586
-0.0450561
-0.0361008
-0.0386129
-0.0323871
-0.0340307
-0.0303723
-0.0311687
-0.0300575
-0.0300035
-0.0313947
-0.03053
-0.0341189
-0.0326144
-0.0375883
-0.035818
-0.0407637
-0.0392885
-0.0424454
-0.0418595
-0.0417495
-0.0424212
-0.0386258
-0.04045
-0.0340683
-0.0364317
-0.0295878
-0.0317311
-0.0262757
-0.02775
-0.0244763
-0.0251848
-0.0242218
-0.0241529
-0.0256364
-0.0247069
-0.028999
-0.0270526
-0.034724
-0.0315353
-0.0433986
-0.0386492
-0.0558178
-0.049084
-0.0729835
-0.0637397
-0.0959758
-0.0836948
-0.125258
-0.109871
-0.158844
-0.14181
-0.190545
-0.175516
-0.209635
-0.202225
-0.207905
-0.211728
-0.223777
-0.198341
-0.0373277
-0.161624
-0.181095
-0.150059
-0.163374
-0.208454
-0.16012
-0.236666
-0.151441
-0.263857
-0.13765
-0.119433
-0.0978822
-0.0747276
-0.0512863
-0.0290289
-0.00947957
0.0178616
0.00648361
-0.311149
-0.326275
-0.331789
-0.326356
-0.309648
-0.283189
-0.248364
-0.207757
-0.183384
0.018352
0.0276014
-0.0273955
-0.0272577
0.0273851
-0.172554
0.0267212
0.0272612
0.0250331
0.025812
0.0239763
0.0243248
0.0240665
0.0239042
0.0246704
0.0243685
0.0247719
0.0248541
0.0234747
0.0243397
0.020284
0.0221274
0.0151421
0.0179485
0.0081859
0.0118821
-0.000479379
0.00406298
-0.0108511
-0.00544578
-0.0231179
-0.0167278
-0.037638
-0.0300738
-0.0546477
-0.0458366
-0.0737109
-0.0639933
-0.0932001
-0.0835556
-0.110281
-0.102249
-0.12155
-0.116853
-0.123646
-0.123855
-0.115513
-0.12081
-0.099314
-0.108141
-0.0799783
-0.0897109
-0.0619794
-0.0706234
-0.0474311
-0.054232
-0.0365579
-0.0415641
-0.0288114
-0.0323377
-0.0235468
-0.0259062
-0.020249
-0.021679
-0.0185608
-0.0192211
-0.0182656
-0.0182489
-0.0192286
-0.0185993
-0.0212393
-0.0201257
-0.0238377
-0.0225057
-0.0262093
-0.0251281
-0.0270106
-0.0480798
-0.0268094
-0.0370264
-0.074024
-0.0604652
-0.104222
-0.0886237
-0.137782
-0.12069
-0.172483
-0.155185
-0.205006
-0.189234
-0.23172
-0.219321
-0.249107
-0.241765
-0.254639
-0.25345
-0.247461
-0.252614
-0.228767
-0.239371
-0.201729
-0.216113
-0.170055
-0.186301
-0.158437
-0.164401
-0.140754
-0.15294
-0.123726
-0.133841
-0.129595
-0.108668
-0.116623
-0.0921408
-0.10043
-0.0762014
-0.0839945
-0.0621488
-0.0688894
-0.0505071
-0.0560207
-0.0412244
-0.0455889
-0.0339898
-0.0373734
-0.0284955
-0.0310406
-0.0245602
-0.0263393
-0.0221346
-0.0231587
-0.0212389
-0.0214951
-0.0218531
-0.021365
-0.0237681
-0.0226737
-0.026444
-0.0250601
-0.0289875
-0.0277981
-0.0303532
-0.0298776
-0.0297711
-0.0303276
-0.0272304
-0.0287068
-0.0236294
-0.0254807
-0.0202306
-0.0218362
-0.01786
-0.0188928
-0.0167393
-0.0171427
-0.0168987
-0.0166546
-0.0184717
-0.0174955
-0.0217128
-0.0198648
-0.0269792
-0.0240667
-0.0347598
-0.0305199
-0.0457009
-0.0397899
-0.0606089
-0.0526055
-0.0803311
-0.0698252
-0.105295
-0.0921709
-0.134347
-0.119511
-0.162379
-0.148998
-0.180966
-0.173493
-0.18057
-0.18334
-0.171763
-0.178233
-0.201156
-0.178709
-0.231223
-0.173189
-0.26107
-0.0263995
-0.0178879
-0.0173179
-0.16148
-0.288497
-0.144137
-0.122501
-0.098102
-0.0725941
-0.0479223
-0.0255218
-0.00672334
0.00772738
0.0268131
0.0183744
-0.329922
-0.339905
-0.339029
-0.326467
-0.303025
-0.270347
-0.230543
-0.186902
-0.120392
-0.142201
-0.136307
0.0258307
0.0339944
-0.11773
-0.120197
0.0326392
-0.19097
0.0358034
0.0350212
0.0364788
0.0362629
0.0361171
0.0363633
0.035512
0.0357971
0.0353021
0.0353467
0.0353268
0.0353329
0.0347796
0.0351794
0.0329212
0.0340469
0.0293511
0.0313603
0.0240088
0.0268948
0.0170207
0.0207107
0.00851921
0.012953
-0.00145283
0.00372008
-0.0130246
-0.00702342
-0.0264805
-0.0194986
-0.0420176
-0.0339927
-0.0592789
-0.0504916
-0.0768913
-0.0681723
-0.0924071
-0.0850926
-0.102953
-0.0984529
-0.104836
-0.104971
-0.0975943
-0.102328
-0.0831583
-0.0910106
-0.0660709
-0.0746541
-0.0502587
-0.0578459
-0.0374863
-0.0434603
-0.0278998
-0.0323212
-0.0210131
-0.024157
-0.0162698
-0.0184057
-0.0132254
-0.0145587
-0.011566
-0.0122381
-0.0110959
-0.0111912
-0.0116965
-0.0112699
-0.0131995
-0.0123529
-0.0152215
-0.0141802
-0.0171118
-0.0162307
-0.0182034
-0.0178349
-0.0182031
-0.0477186
-0.0365093
-0.0738573
-0.0601968
-0.104509
-0.0886562
-0.138509
-0.121215
-0.173736
-0.156161
-0.206778
-0.190737
-0.234009
-0.221358
-0.251799
-0.244277
-0.257547
-0.256274
-0.250428
-0.255566
-0.231538
-0.242302
-0.204022
-0.218592
-0.172311
-0.188377
-0.137253
-0.153738
-0.108226
-0.113693
-0.0947438
-0.101774
-0.0799996
-0.0874025
-0.0656755
-0.072695
-0.0529141
-0.0590547
-0.0421892
-0.0472909
-0.0334738
-0.0375947
-0.0265174
-0.0297939
-0.0210701
-0.0236175
-0.0169918
-0.0188642
-0.0142597
-0.0154562
-0.0129136
-0.0134118
-0.0129569
-0.0127672
-0.0142235
-0.013459
-0.0162529
-0.0151855
-0.0182688
-0.0173201
-0.0193583
-0.0189815
-0.0188666
-0.0193267
-0.0168353
-0.0180061
-0.0140739
-0.0154767
-0.0116066
-0.012752
-0.010026
-0.0106908
-0.00946076
-0.00961644
-0.0099436
-0.0095658
-0.0116105
-0.0106171
-0.0146879
-0.0129567
-0.0194777
-0.0168472
-0.0263779
-0.0226359
-0.0358975
-0.0307751
-0.0486547
-0.0418312
-0.0652815
-0.056453
-0.0860956
-0.0751745
-0.110288
-0.0979097
-0.134371
-0.122683
-0.151676
-0.144438
-0.152592
-0.154692
-0.133755
-0.145492
-0.0993503
-0.118088
-0.0977641
-0.0786417
-0.195625
-0.222337
-0.193888
-0.254234
-0.0258184
-0.0167887
-0.18519
-0.284498
-0.16975
-0.310623
-0.148545
-0.12332
-0.0962076
-0.0690745
-0.0437538
-0.0219522
-0.00450351
0.00856801
0.0178646
-0.120988
0.0310118
0.0244878
-0.342757
-0.346373
-0.338311
-0.318647
-0.288907
-0.251039
-0.207961
-0.162976
-0.117904
-0.00985132
-0.00940307
0.028979
0.0365795
-0.0746134
-0.057042
0.0343995
-0.210332
0.0401579
0.0385382
0.0429944
0.0417179
0.0448599
0.0440729
0.0455775
0.0453545
0.0454322
0.0455789
0.0451308
0.0452781
0.0447246
0.044968
0.0436884
0.0443243
0.0414496
0.042747
0.0376611
0.0397587
0.0322578
0.0351557
0.025359
0.0289848
0.0171167
0.0213978
0.00760904
0.0125214
-0.0032404
0.00236336
-0.0156519
-0.00923588
-0.0297913
-0.0225079
-0.0453748
-0.037451
-0.0612502
-0.0533881
-0.0752711
-0.0686591
-0.0844175
-0.0806836
-0.0866827
-0.086684
-0.0802552
-0.0844673
-0.0675185
-0.0744247
-0.0526292
-0.0600884
-0.0389497
-0.0455073
-0.0279056
-0.0330747
-0.0195767
-0.0234252
-0.0135414
-0.0163045
-0.00933026
-0.011235
-0.00656717
-0.00778774
-0.00498243
-0.00564117
-0.00440208
-0.00457468
-0.00472245
-0.00445569
-0.0058136
-0.00518508
-0.00737341
-0.00656219
-0.0089131
-0.00817393
-0.00992976
-0.00949527
-0.0100611
-0.047169
-0.035915
-0.0733284
-0.0596641
-0.103967
-0.0881245
-0.137948
-0.120655
-0.173123
-0.155565
-0.206269
-0.190175
-0.233622
-0.220909
-0.251528
-0.243951
-0.257375
-0.256053
-0.250354
-0.25544
-0.231578
-0.242295
-0.203858
-0.218594
-0.171301
-0.187939
-0.136934
-0.153953
-0.0407961
-0.0356718
-0.0207162
-0.12043
-0.101816
-0.105105
-0.104233
-0.0930529
-0.0980432
-0.0812187
-0.0873939
-0.0681723
-0.0747449
-0.0553904
-0.0616703
-0.0438723
-0.0494342
-0.0340416
-0.0387395
-0.0258965
-0.0297693
-0.0192444
-0.0223981
-0.0138924
-0.0164151
-0.00974256
-0.0116695
-0.00679926
-0.00811747
-0.00512029
-0.005799
-0.00472702
-0.00476706
-0.00548491
-0.00498078
-0.00699349
-0.00618287
-0.0085703
-0.00782399
-0.00942059
-0.00913071
-0.00900704
-0.00938255
-0.00742805
-0.00832757
-0.00540129
-0.006414
-0.00372491
-0.00448299
-0.00279446
-0.00315872
-0.00267318
-0.00263259
-0.00339959
-0.00292452
-0.00510573
-0.00411949
-0.00798824
-0.00638628
-0.0122971
-0.00994699
-0.0183489
-0.0150834
-0.0265328
-0.0221482
-0.0373007
-0.0315654
-0.0510939
-0.0437981
-0.0681114
-0.0592101
-0.0877043
-0.0776888
-0.107418
-0.0977857
-0.122257
-0.115891
-0.124307
-0.12536
-0.109589
-0.119089
-0.079435
-0.0961559
-0.0606252
-0.212928
-0.243637
-0.00877655
-0.20794
-0.276152
-0.195203
-0.305327
-0.175482
-0.328414
-0.150228
-0.12182
-0.0924026
-0.0642993
-0.0393132
-0.0186852
-0.00288377
0.00869971
0.0169961
0.02275
0.0318885
0.026658
-0.348431
-0.344942
-0.329593
-0.303386
-0.268362
-0.226896
-0.182188
-0.136954
-0.0925962
-0.0515089
-0.00123458
-0.0147725
-0.104411
0.0291744
0.0365598
-0.0897707
-0.0893917
0.0337724
-0.229701
0.0414263
0.0391482
0.0456243
0.0436781
0.0491893
0.0475082
0.0519106
0.0506788
0.053438
0.0528355
0.0538355
0.0537525
0.0536017
0.0537736
0.0529205
0.0533247
0.0515464
0.0523453
0.0490677
0.050468
0.045188
0.047312
0.0398409
0.0426933
0.0331359
0.0366475
0.0252348
0.0293256
0.0162424
0.0208731
0.00612646
0.0113329
-0.00528124
0.000596422
-0.0181243
-0.0115243
-0.0321824
-0.0250412
-0.0464879
-0.0394005
-0.0591603
-0.0531778
-0.0675904
-0.0640783
-0.0694564
-0.069489
-0.0637221
-0.0674615
-0.052613
-0.0586076
-0.0398403
-0.0462189
-0.0281987
-0.0337742
-0.0188002
-0.023203
-0.0116733
-0.0149731
-0.00646187
-0.00885469
-0.00277912
-0.00445182
-0.000313813
-0.00141102
0.00116122
0.000535762
0.00179749
0.00157713
0.00168492
0.00183007
0.000920259
0.00137439
-0.000271982
0.00035678
-0.00151412
-0.000911503
-0.0023942
-0.00202987
-0.00246979
-0.00256922
-0.00161951
-0.00213564
-0.0250985
-0.00807955
-0.0160711
-0.0463684
-0.0351333
-0.0722541
-0.0587317
-0.102521