/*--------------------------------*- C++ -*----------------------------------*\
  =========                 |
  \\      /  F ield         | OpenFOAM: The Open Source CFD Toolbox
   \\    /   O peration     | Website:  https://openfoam.org
    \\  /    A nd           | Version:  10
     \\/     M anipulation  |
\*---------------------------------------------------------------------------*/
FoamFile
{
    format      ascii;
    class       volVectorField;
    location    "37";
    object      U;
}
// * * * * * * * * * * * * * * * * * * * * * * * * * * * * * * * * * * * * * //

dimensions      [0 1 -1 0 0 0 0];

internalField   nonuniform List<vector> 
33313
(
(0.301184 0.014384 -1.04762e-21)
(0.435787 0.00898058 6.44446e-22)
(0.380407 0.0286191 0)
(0.171678 0.0123918 0)
(0.750983 0.0263805 6.64586e-22)
(0.705579 0.0276379 0)
(0.589013 0.031461 -4.79347e-22)
(0.62401 0.0215607 0)
(0.723084 0.0195633 5.0656e-22)
(0.595705 0.0195217 -5.12174e-23)
(0.668666 0.0261588 0)
(-0.103192 0.0752503 -4.31182e-20)
(-0.0256253 0.0138353 -1.56185e-19)
(-0.0288552 0.0212057 -3.15197e-19)
(0.417507 -0.337491 -3.67443e-21)
(0.161683 -0.118862 3.12595e-20)
(0.143433 -0.112625 2.575e-20)
(1.39014 -0.400273 0)
(1.41644 -0.284152 0)
(1.37687 -0.247715 0)
(1.40287 -0.322866 1.40046e-20)
(0.555365 0.0842261 0)
(0.470637 0.394521 -1.20093e-19)
(0.311724 0.354581 3.66212e-19)
(0.410506 0.0776533 -7.97358e-20)
(1.00478 -0.0205296 -5.06441e-20)
(1.00446 -0.0399358 3.51495e-20)
(1.00481 -0.0791549 0)
(0.963244 0.105221 -6.85971e-20)
(1.03615 0.100474 5.45686e-20)
(1.01596 0.0817105 3.528e-20)
(0.996749 -0.0193805 -3.15841e-20)
(0.882052 0.0570384 -2.57423e-20)
(-0.0376431 -0.0535337 6.41273e-20)
(-0.0601077 -0.0387792 -1.32221e-19)
(-0.0615597 -0.0331921 8.28386e-20)
(-0.0908648 -0.0388677 1.12859e-20)
(1.12821 -0.030031 -2.94675e-22)
(1.13501 -0.0303032 -9.06168e-21)
(1.56641 0.0964911 -2.7892e-20)
(1.53069 0.0788842 5.17447e-20)
(1.0028 -0.154682 -6.42861e-20)
(1.00954 -0.152283 -5.49751e-21)
(-0.0562057 -0.0231083 -5.38867e-20)
(-0.0535363 0.0887385 5.60278e-20)
(-0.0984483 0.0786422 -2.23737e-19)
(0.216057 0.58035 8.3735e-20)
(0.190297 0.436417 3.41532e-20)
(0.421419 -0.0451203 2.17562e-22)
(0.53445 -0.0255652 -1.14429e-21)
(1.04197 0.0682431 -4.80216e-20)
(1.05973 0.062735 2.53055e-20)
(1.06359 -0.0981791 -4.6498e-20)
(1.01874 -0.0611614 1.2564e-19)
(0.525363 0.61763 -3.02666e-20)
(0.455417 0.686924 4.07998e-20)
(0.69083 0.832689 -5.81609e-20)
(0.411833 0.770624 1.75608e-19)
(0.2051 -0.333626 5.71106e-20)
(0.336017 -0.620274 -4.16195e-21)
(0.234684 0.61731 -2.77927e-20)
(0.389609 -0.187441 2.39832e-19)
(0.226666 -0.123507 -7.25904e-20)
(0.0980396 -0.0830502 0)
(0.0878515 -0.0044451 0)
(0.119265 -0.014349 1.19794e-20)
(1.27376 -0.171424 3.33177e-20)
(1.31821 -0.270104 0)
(1.31603 -0.265833 0)
(-0.0873823 -0.309716 1.42368e-20)
(-0.0373306 -0.378308 0)
(0.104136 -0.339307 0)
(0.224781 -0.00837929 7.65504e-21)
(1.61404 0.166465 1.05072e-19)
(-0.283507 -0.121374 6.73432e-20)
(-0.208878 -0.10871 3.7764e-20)
(0.105585 0.0157045 0)
(0.050101 -0.0286282 1.28617e-20)
(1.47608 0.253539 1.04491e-19)
(1.52266 0.166987 -6.31236e-20)
(0.821713 -0.00557586 1.47194e-19)
(0.838429 0.00944608 -4.97493e-20)
(0.79624 -0.0400836 0)
(1.53737 0.0544909 2.77986e-20)
(1.43342 0.111826 -6.19184e-21)
(0.928391 0.0350961 -2.50358e-20)
(0.150099 0.0253376 0)
(-0.00221413 0.0587543 2.65778e-20)
(-0.0610821 0.0573437 1.51687e-19)
(0.0370169 -0.0980432 2.88311e-19)
(-0.128753 0.183341 6.15418e-21)
(-0.157249 0.0741188 -2.51253e-21)
(-0.0331624 0.124559 -4.087e-19)
(-0.00116551 0.191881 0)
(-0.00837817 0.257511 5.34305e-20)
(1.04221 0.062973 0)
(1.01569 0.0605056 -5.95819e-21)
(0.491441 -0.0499322 -5.68522e-22)
(0.62774 -0.0337956 -6.2072e-22)
(1.41175 -0.263168 0)
(1.40976 -0.300124 -3.07444e-20)
(1.41159 -0.234484 0)
(1.41784 -0.188412 1.65103e-20)
(1.44012 -0.2005 2.60723e-21)
(1.37258 -0.183527 -1.82373e-20)
(0.269892 -0.00920205 -2.19889e-21)
(0.189325 -0.0403334 -7.33057e-20)
(-0.0124759 -0.0437709 -5.17199e-20)
(-0.00608185 -0.0402427 -2.57347e-22)
(0.879439 -0.584872 -1.86e-20)
(1.06422 -0.722037 2.93817e-20)
(0.891748 -0.685049 8.07533e-20)
(0.692559 -0.481771 0)
(0.724375 -0.206994 6.38349e-20)
(0.272753 -0.0393022 3.18432e-20)
(0.644326 -0.0891547 -2.89096e-20)
(0.215777 0.13125 -4.3156e-19)
(0.183483 0.285396 4.81042e-20)
(1.42892 -0.192476 7.42465e-22)
(1.42278 -0.185404 0)
(-0.0481044 0.0144859 0)
(-0.0247226 -0.00167917 8.32973e-20)
(-0.0279759 0.0130629 0)
(0.34947 -0.0150073 -2.02317e-21)
(0.411589 -0.0108884 1.47323e-21)
(0.213887 -0.0347709 -6.61111e-21)
(0.844273 0.811344 9.39484e-20)
(1.09284 -0.0503876 -1.49026e-22)
(1.08855 -0.0456516 0)
(0.210354 0.0890456 4.75057e-20)
(0.256106 -0.0896184 -6.16428e-20)
(0.05122 0.102719 -1.52372e-19)
(0.0374357 0.0741552 2.72424e-19)
(0.98145 0.755209 -5.96311e-21)
(1.14381 0.756398 -4.43598e-20)
(1.01809 0.712893 0)
(0.841702 0.651266 0)
(0.4772 -0.333026 2.88808e-21)
(0.595063 -0.419735 0)
(0.82001 -0.696646 -1.38855e-19)
(0.822774 -0.67373 -8.67578e-20)
(0.696931 -0.697401 1.49916e-19)
(1.09541 -0.0512994 -2.28835e-22)
(1.09911 -0.054075 -4.03137e-22)
(1.09749 -0.0545409 1.44469e-23)
(1.08074 -0.00769389 0)
(1.08482 -0.0074147 -6.63889e-21)
(1.08613 -0.0107638 1.03799e-20)
(1.08985 -0.0125591 6.57733e-21)
(0.984088 -0.189808 4.78573e-20)
(0.996797 -0.195686 0)
(0.983353 -0.149238 -8.21385e-20)
(0.990432 -0.163905 4.67268e-20)
(0.949609 0.128499 2.73076e-20)
(0.944583 0.150123 -4.19847e-20)
(0.966397 0.157583 2.58027e-20)
(0.961762 0.167031 1.4739e-19)
(-0.0945109 -0.10628 9.95967e-21)
(-0.238425 -0.246594 0)
(-0.14902 -0.212658 -1.70076e-20)
(0.0271476 0.0547388 -2.2143e-19)
(0.494421 0.406889 2.03419e-20)
(0.522695 0.480713 1.53955e-20)
(0.933739 0.7893 -2.16076e-20)
(0.529949 0.542609 1.37934e-20)
(-0.175777 0.37348 0)
(-0.197864 0.292567 1.4636e-19)
(-0.208897 0.405819 -9.85263e-20)
(0.60913 0.0785962 0)
(0.774088 0.022827 0)
(0.832185 0.0234898 1.28057e-22)
(1.06562 0.00286579 6.84002e-21)
(1.06634 -0.000590562 -4.32102e-21)
(1.07912 0.00461538 5.24792e-22)
(1.08304 0.00783222 -3.70956e-23)
(1.01242 -0.0926901 1.05277e-20)
(1.02422 -0.0773807 -4.53366e-20)
(0.924126 -0.190706 2.05053e-19)
(0.848658 -0.219741 -1.63595e-19)
(1.06748 0.273774 0)
(1.08497 0.279922 0)
(1.0969 -0.0132929 -8.88496e-23)
(1.10134 -0.0123094 -8.92716e-22)
(1.13032 0.176491 -1.69009e-20)
(1.12257 0.169004 6.11909e-21)
(0.588853 -0.174693 0)
(0.617836 -0.197197 -3.49471e-21)
(0.85076 -0.289525 3.98761e-20)
(0.871143 -0.368115 4.31639e-20)
(0.556783 -0.194148 7.44922e-22)
(-0.307125 -0.241274 -1.88586e-19)
(0.846435 0.0889432 -5.12781e-20)
(0.875973 0.083869 2.19369e-20)
(0.458526 -0.345764 1.35621e-20)
(0.456876 -0.432111 0)
(0.95458 0.280293 0)
(0.934934 0.323053 -6.85524e-21)
(0.911614 0.4184 -4.79629e-20)
(0.945142 -0.231976 2.83843e-20)
(0.912286 -0.254674 0)
(0.907266 -0.404427 3.46522e-20)
(0.818314 0.0479526 -4.38383e-20)
(0.847833 0.0518432 5.22819e-20)
(1.03953 -0.0703542 3.94284e-21)
(1.03292 -0.0631329 -8.68936e-21)
(-0.0956954 0.204692 0)
(-0.0618971 0.142453 -8.04032e-20)
(1.19646 -0.622904 -3.15569e-21)
(1.14105 -0.636359 5.89657e-21)
(1.02836 -0.0589925 -3.06888e-20)
(1.03321 -0.0681029 3.66183e-20)
(0.718802 0.0270156 -1.11049e-23)
(0.786519 0.0246346 1.28587e-23)
(0.784967 0.0248787 4.47344e-22)
(0.728547 0.0259474 2.95299e-22)
(0.539689 -0.410057 1.47728e-20)
(-0.0586882 0.068047 1.71525e-19)
(-0.0399647 0.0375209 -8.24392e-20)
(1.00426 0.213792 1.03156e-20)
(0.999968 0.195673 -4.90153e-21)
(1.0119 0.191942 4.92232e-21)
(1.01825 0.210452 0)
(1.42713 -0.187909 -1.04465e-20)
(1.42585 -0.174836 6.23438e-22)
(1.41849 -0.168939 1.01683e-20)
(1.15488 0.292948 0)
(1.13433 0.294158 -1.94711e-20)
(1.15459 0.289486 0)
(-0.0738901 0.0551216 -9.11097e-20)
(-0.0278119 0.0192149 -2.05893e-19)
(-0.0333108 0.0228911 0)
(0.190903 -0.131263 1.01352e-20)
(0.158151 -0.113793 -5.50729e-21)
(1.0641 0.00424535 4.6259e-21)
(1.06594 -0.0152788 -2.96946e-21)
(1.06789 -0.0133678 -1.32288e-21)
(1.26336 -0.385177 0)
(1.02329 -0.160624 0)
(0.995504 -0.574631 -3.17153e-21)
(0.991809 -0.576558 -3.34499e-21)
(0.985993 -0.573644 4.99692e-21)
(0.98112 -0.564152 -4.06273e-22)
(0.974215 -0.543883 0)
(0.969023 -0.512259 -3.82063e-21)
(0.964199 -0.467341 3.82005e-21)
(0.960255 -0.40927 4.42112e-21)
(0.95684 -0.338783 -4.41835e-21)
(0.954268 -0.257241 -4.88969e-21)
(0.952249 -0.166833 4.88641e-21)
(0.951188 -0.0702556 5.0997e-21)
(0.95112 0.0293121 -5.09604e-21)
(0.952839 0.128701 0)
(0.956009 0.224417 0)
(0.960979 0.313347 0)
(0.967257 0.392323 4.3477e-21)
(0.97486 0.45934 -4.35132e-21)
(0.982999 0.512841 0)
(0.991449 0.552904 0)
(0.999422 0.580154 0)
(1.00675 0.596436 2.95717e-21)
(1.01289 0.603773 -2.14822e-22)
(1.01795 0.604438 -5.30508e-21)
(1.0215 0.600748 2.56247e-21)
(1.02432 0.59411 -2.28954e-21)
(1.0249 0.586852 7.03985e-21)
(1.02535 0.578749 1.82446e-23)
(1.02459 0.572061 0)
(1.02329 0.565995 6.58145e-22)
(1.02121 0.561454 0)
(1.01809 0.558863 -1.34876e-21)
(0.982066 -0.565505 0)
(0.994929 -0.567614 6.37069e-21)
(0.986867 -0.562111 1.76559e-21)
(1.00315 -0.572198 1.89134e-21)
(1.00939 0.557514 -1.57487e-21)
(1.01398 0.557701 1.37478e-21)
(1.02288 0.563237 0)
(1.01952 0.561509 -6.95014e-22)
(1.0222 0.561504 -7.00953e-22)
(1.02221 0.571435 0)
(1.0232 0.566573 0)
(1.01769 0.584067 0)
(1.02043 0.577424 0)
(1.00878 0.595457 -1.6339e-25)
(1.01398 0.590335 0)
(0.994674 0.595425 0)
(1.00243 0.597618 0)
(0.975618 0.569238 -8.78855e-24)
(0.985674 0.586617 0)
(0.953865 0.501079 0)
(0.96485 0.541218 0)
(0.933548 0.382075 -1.16015e-23)
(0.943235 0.44798 0)
(0.918943 0.217221 -1.26733e-23)
(0.925334 0.304475 0)
(0.912117 0.0248632 -1.31138e-23)
(0.914562 0.122975 -1.59986e-27)
(0.912487 -0.16938 0)
(0.911444 -0.0737625 0)
(0.919564 -0.339239 0)
(0.915263 -0.258817 0)
(0.932038 -0.465275 0)
(0.925224 -0.408514 0)
(0.947881 -0.539221 0)
(0.939754 -0.508775 0)
(0.966268 -0.566368 1.75516e-21)
(0.957418 -0.557231 5.04223e-22)
(0.975667 -0.567992 -3.89162e-23)
(1.00018 -0.566809 2.9954e-23)
(0.994619 -0.561475 8.69256e-22)
(1.01887 0.561959 0)
(1.00656 -0.570667 -5.19866e-21)
(1.00775 0.560684 0)
(1.00064 0.556206 1.77398e-21)
(1.00471 -0.567716 -4.60832e-24)
(1.00029 -0.562835 -8.32248e-22)
(1.01654 0.563181 -3.53591e-21)
(1.00186 0.550238 0)
(1.0097 -0.570896 -8.06531e-22)
(0.993001 0.549017 -1.66411e-21)
(1.00597 -0.567034 -8.01928e-22)
(1.01147 -0.573381 7.80169e-22)
(1.00857 -0.571017 0)
(1.01308 -0.575356 4.21778e-23)
(1.01499 -0.571914 1.40359e-21)
(1.01395 -0.572576 3.27836e-21)
(1.00715 -0.580498 1.17632e-22)
(1.00945 -0.57825 -1.78286e-21)
(1.00499 -0.568237 -4.41787e-24)
(1.00624 -0.577806 -4.16602e-21)
(1.00112 -0.516145 0)
(1.00291 -0.5481 0)
(0.99795 -0.412361 0)
(0.99943 -0.470997 0)
(0.995518 -0.257954 0)
(0.996642 -0.340865 0)
(0.994514 -0.0672353 0)
(0.994706 -0.165837 0)
(0.996455 0.136283 0)
(0.995082 0.0345802 0)
(1.00231 0.324798 0)
(0.998851 0.23418 0)
(1.01179 0.472179 0)
(1.00671 0.404889 0)
(1.0225 0.564186 0)
(1.01719 0.525282 0)
(1.03127 0.604179 0)
(1.0273 0.589846 0)
(1.03594 0.608195 -2.08989e-27)
(1.03416 0.609484 0)
(1.03617 0.594501 -2.47297e-26)
(1.03646 0.602627 0)
(1.03204 0.576557 -3.85188e-22)
(1.03408 0.585529 -5.37442e-21)
(1.02498 0.561977 -1.2989e-21)
(1.0286 0.568745 2.31081e-21)
(1.01531 0.553401 1.36055e-21)
(1.0206 0.55687 -6.5486e-22)
(1.00928 0.551626 0)
(1.00265 0.560303 -4.65016e-22)
(0.982899 0.546388 -1.04663e-22)
(0.992678 0.554523 0)
(1.02641 0.56227 -9.23412e-23)
(1.02695 0.565028 3.44238e-21)
(1.02689 0.563498 0)
(1.02535 0.562724 0)
(1.02676 0.561716 3.58069e-22)
(1.02078 0.569253 -3.72526e-22)
(1.02373 0.565289 0)
(1.01244 0.579841 0)
(1.01719 0.574307 3.73345e-22)
(0.999576 0.588822 -2.39658e-25)
(1.00669 0.585022 0)
(0.981401 0.586217 0)
(0.991177 0.589706 0)
(0.958305 0.558038 8.73742e-24)
(0.970357 0.576265 0)
(0.932755 0.489559 0)
(0.945587 0.529574 0)
(0.909109 0.372541 1.15481e-23)
(0.920384 0.43715 0)
(0.891803 0.211476 1.26288e-23)
(0.899451 0.296668 0)
(0.883222 0.0236207 1.30846e-23)
(0.886371 0.119426 1.59522e-27)
(0.883782 -0.166132 0)
(0.882366 -0.0726958 0)
(0.892991 -0.33208 0)
(0.887401 -0.253479 0)
(0.908869 -0.455793 0)
(0.900255 -0.399963 0)
(0.92885 -0.528858 8.28501e-24)
(0.918539 -0.498716 0)
(0.950174 -0.5559 0)
(0.939502 -0.547533 0)
(0.970978 -0.556692 0)
(0.96062 -0.558081 0)
(0.989026 -0.554444 -3.89273e-22)
(0.980566 -0.554754 -1.98704e-21)
(1.00376 -0.561095 -5.59534e-22)
(0.996863 -0.556448 2.25804e-21)
(1.01362 0.563606 1.42269e-21)
(1.01449 -0.573685 -1.35274e-21)
(1.01042 -0.572464 7.7019e-22)
(1.01023 -0.567289 -1.07503e-21)
(0.972671 0.54127 1.05638e-21)
(0.975509 0.536964 1.2599e-21)
(0.963372 0.531122 6.46419e-22)
(1.01223 -0.577848 0)
(1.038 0.565131 1.71114e-21)
(1.02627 0.565612 4.82293e-22)
(1.03973 0.56596 2.09023e-21)
(1.01334 -0.577704 2.10801e-23)
(1.01118 -0.57602 0)
(1.02039 -0.571085 -3.6821e-22)
(1.01464 -0.5755 -1.72277e-21)
(1.01785 -0.572096 7.20839e-22)
(1.02329 -0.57553 -1.65367e-21)
(1.02202 -0.572223 0)
(1.02334 -0.580624 5.36649e-23)
(1.02334 -0.57868 9.08576e-22)
(1.0261 -0.568718 -2.62324e-22)
(1.02463 -0.578329 3.24089e-22)
(1.02804 -0.516729 0)
(1.02717 -0.548744 0)
(1.02939 -0.412742 0)
(1.02875 -0.471471 0)
(1.03044 -0.25821 0)
(1.02996 -0.341164 0)
(1.03145 -0.0673698 0)
(1.03091 -0.166052 0)
(1.03321 0.136867 0)
(1.03217 0.0347588 0)
(1.03675 0.326403 -6.95014e-24)
(1.03471 0.235238 0)
(1.04222 0.474761 0)
(1.0393 0.407041 0)
(1.04799 0.566832 0)
(1.04523 0.52805 0)
(1.05147 0.605691 0)
(1.05016 0.592054 0)
(1.05095 0.607909 4.05835e-26)
(1.05175 0.610127 0)
(1.04631 0.592387 -6.08565e-26)
(1.04911 0.601364 0)
(1.03817 0.572753 -5.14178e-23)
(1.04255 0.582512 0)
(1.02711 0.55635 -1.62094e-22)
(1.03286 0.56393 -1.38725e-21)
(1.01344 0.546092 3.32277e-22)
(1.02061 0.550343 1.67557e-22)
(0.996723 0.541291 -3.77918e-22)
(1.0055 0.543388 -6.77968e-22)
(0.986775 0.539956 3.83956e-22)
(0.997174 0.556961 -6.04181e-22)
(0.984467 0.550059 0)
(1.0253 0.563437 1.44305e-21)
(1.01057 0.561108 -2.25938e-22)
(1.0338 0.560979 4.27972e-23)
(1.03586 0.563032 0)
(1.02849 0.560135 8.33831e-23)
(1.03176 0.559811 -1.42143e-22)
(1.02022 0.565092 5.72122e-24)
(1.02496 0.561967 9.04088e-23)
(1.00824 0.573681 0)
(1.01481 0.569248 0)
(0.9917 0.580107 -3.06311e-25)
(1.00064 0.577658 0)
(0.969872 0.574852 -6.81354e-24)
(0.981465 0.579662 0)
(0.943242 0.544739 0)
(0.957038 0.563776 0)
(0.914406 0.476146 0)
(0.92884 0.515925 0)
(0.887818 0.361435 0)
(0.900515 0.424588 0)
(0.868037 0.204549 -1.09423e-23)
(0.876845 0.287484 0)
(0.85793 0.0215937 0)
(0.861672 0.114916 0)
(0.858606 -0.163236 0)
(0.856908 -0.0722442 0)
(0.869457 -0.325153 0)
(0.862897 -0.248389 0)
(0.888009 -0.446112 0)
(0.877941 -0.391542 0)
(0.911718 -0.517118 -8.35126e-24)
(0.89939 -0.487936 0)
(0.937418 -0.54371 0)
(0.924548 -0.534917 0)
(0.962535 -0.545986 7.55155e-22)
(0.950198 -0.546392 0)
(0.984694 -0.545677 6.08824e-25)
(0.97418 -0.545094 -7.46448e-22)
(1.0028 -0.55361 -1.96009e-22)
(0.994133 -0.54838 1.37801e-21)
(1.01621 -0.575645 -1.42152e-21)
(1.01879 -0.56941 0)
(1.01099 -0.560576 -1.02642e-21)
(1.01137 -0.583605 3.55359e-21)
(1.0107 -0.580547 -1.81207e-21)
(1.01233 -0.58438 1.52355e-21)
(1.01452 -0.580278 0)
(1.04104 0.56401 -2.22835e-21)
(1.02621 -0.579858 0)
(1.02184 -0.585573 3.27552e-21)
(0.962311 0.532352 -4.79863e-22)
(0.95098 0.521264 5.99449e-22)
(0.968559 0.525305 1.68608e-21)
(1.00831 -0.590648 0)
(1.00584 -0.586701 -9.76596e-22)
(0.955136 0.519169 0)
(1.01332 -0.583153 0)
(1.01635 -0.571102 1.39889e-21)
(1.0036 -0.580855 9.86219e-22)
(1.01045 -0.575391 -1.07503e-21)
(1.02611 -0.567836 -2.45886e-22)
(1.02161 -0.568318 7.37604e-22)
(1.0337 -0.572626 -1.18378e-21)
(1.03007 -0.5693 2.04084e-22)
(1.03971 -0.578143 -3.55059e-22)
(1.03674 -0.576203 0)
(1.04737 -0.566365 -8.01291e-26)
(1.04338 -0.575916 2.41163e-22)
(1.05484 -0.514643 0)
(1.05126 -0.546531 0)
(1.06111 -0.411198 0)
(1.05813 -0.469599 0)
(1.06594 -0.25739 0)
(1.06375 -0.339995 0)
(1.069 -0.066861 0)
(1.06769 -0.165472 0)
(1.07074 0.137676 7.39268e-24)
(1.06998 0.0353106 0)
(1.07225 0.328207 6.95014e-24)
(1.07146 0.236507 0)
(1.07405 0.477182 0)
(1.07315 0.409284 0)
(1.07492 0.568509 0)
(1.07474 0.530287 0)
(1.07288 0.60544 0)
(1.07436 0.592862 0)
(1.06692 0.605429 8.44373e-26)
(1.0704 0.608745 0)
(1.0573 0.588018 -9.70411e-26)
(1.06252 0.597865 0)
(1.04485 0.566912 -2.76267e-24)
(1.05139 0.577353 0)
(1.03006 0.549011 -5.4119e-24)
(1.03775 0.557334 0)
(1.01275 0.537134 -3.42703e-22)
(1.02173 0.542257 0)
(0.992576 0.530996 -3.24657e-22)
(1.00307 0.533702 6.9754e-22)
(0.981084 0.52914 -5.49867e-22)
(0.991009 0.549311 1.07584e-22)
(0.975912 0.54176 4.63302e-22)
(1.02415 0.556843 2.18854e-21)
(1.0069 0.554097 2.64115e-22)
(1.04959 0.562978 -2.02383e-21)
(1.05715 0.562367 1.96828e-21)
(1.05363 0.564074 -1.39266e-22)
(1.04159 0.557893 1.45604e-25)
(1.04556 0.560522 4.13477e-22)
(1.03229 0.55573 -3.55101e-22)
(1.03731 0.55609 0)
(1.02049 0.559171 -5.31889e-24)
(1.02686 0.556863 0)
(1.00512 0.565772 0)
(1.01334 0.562414 0)
(0.985244 0.569682 -3.60276e-25)
(0.99583 0.568556 0)
(0.960196 0.561804 6.81354e-24)
(0.973383 0.567912 0)
(0.930541 0.529838 0)
(0.945826 0.549643 0)
(0.89892 0.46124 0)
(0.914718 0.500733 0)
(0.86978 0.348946 0)
(0.883724 0.41059 0)
(0.847797 0.196488 1.09423e-23)
(0.857641 0.277012 0)
(0.836356 0.0190878 0)
(0.840614 0.109541 0)
(0.837047 -0.159989 0)
(0.835174 -0.0718226 0)
(0.849099 -0.31711 0)
(0.841805 -0.242568 0)
(0.869931 -0.434699 0)
(0.858595 -0.381642 0)
(0.896847 -0.503763 7.20327e-24)
(0.88281 -0.475368 0)
(0.9267 -0.529709 0)
(0.911641 -0.521042 0)
(0.955823 -0.53325 3.84074e-25)
(0.941575 -0.532791 0)
(0.981194 -0.534962 0)
(0.969099 -0.533408 0)
(1.00271 -0.544412 3.17932e-22)
(0.992383 -0.538604 0)
(1.02211 -0.561317 -2.37523e-21)
(1.01259 -0.552006 1.58892e-22)
(1.03335 -0.591863 -3.00841e-21)
(1.0404 -0.584668 2.81662e-21)
(1.03131 -0.572198 -2.52339e-22)
(1.04269 0.557706 -3.57731e-23)
(0.99972 -0.593737 0)
(0.995546 -0.586953 -5.71514e-23)
(1.01132 -0.592073 -1.50285e-21)
(1.01799 -0.589507 -7.35159e-22)
(0.941137 0.508509 -1.75711e-21)
(1.04932 -0.598628 4.67446e-23)
(1.04813 -0.575278 2.71021e-21)
(1.05901 -0.589672 -5.75065e-21)
(1.00431 -0.598591 -1.51727e-21)
(1.02688 -0.59715 -1.44683e-21)
(1.04017 -0.605417 2.91245e-21)
(0.992353 -0.60078 0)
(1.07358 0.558227 -1.84834e-21)
(1.06139 0.556315 -3.04601e-22)
(1.07993 0.552506 -2.08626e-21)
(0.986183 -0.592914 1.28658e-21)
(1.01448 -0.591732 7.47346e-22)
(1.0018 -0.573143 5.68517e-22)
(0.98079 -0.583037 0)
(0.991988 -0.578234 -1.76946e-21)
(1.01837 -0.564809 2.91088e-22)
(1.01057 -0.568452 -2.94162e-22)
(1.03211 -0.562397 3.3304e-22)
(1.02556 -0.562587 -6.35387e-22)
(1.04412 -0.56759 0)
(1.03824 -0.564159 0)
(1.05572 -0.573383 0)
(1.04992 -0.571363 0)
(1.06837 -0.561292 -8.4643e-24)
(1.0619 -0.571008 0)
(1.08115 -0.5099 0)
(1.07487 -0.541526 0)
(1.09244 -0.407407 0)
(1.08705 -0.465276 0)
(1.1012 -0.254818 0)
(1.09721 -0.336796 0)
(1.10655 -0.0655266 0)
(1.10433 -0.163532 0)
(1.10855 0.138115 -7.39268e-24)
(1.10792 0.0361283 0)
(1.10824 0.328236 0)
(1.10861 0.236702 0)
(1.10636 0.476719 0)
(1.10751 0.409128 0)
(1.10221 0.566841 0)
(1.10466 0.529323 0)
(1.09457 0.601969 0)
(1.09888 0.590332 0)
(1.08315 0.60015 1.25569e-25)
(1.0893 0.604335 0)
(1.06866 0.581304 -1.30811e-25)
(1.07623 0.591815 0)
(1.05198 0.559093 2.76284e-24)
(1.06055 0.570065 0)
(1.03351 0.540153 0)
(1.04297 0.549003 0)
(1.01293 0.526916 0)
(1.02351 0.532777 0)
(0.989543 0.519189 6.77177e-22)
(1.00152 0.522641 0)
(0.962965 0.512199 -1.82111e-21)
(0.976534 0.516629 3.43063e-22)
(0.933102 0.494441 3.09952e-21)
(0.948283 0.505735 -9.49826e-23)
(0.951225 0.517519 -4.88362e-22)
(0.926798 0.492608 4.58333e-22)
(0.938073 0.5057 0)
(0.984115 0.535711 0)
(0.96672 0.527582 0)
(1.02236 0.544647 -2.78928e-22)
(1.00266 0.541281 1.12621e-21)
(1.06465 0.544701 1.44008e-21)
(1.04322 0.545892 -2.26234e-21)
(1.06154 0.558552 -6.31466e-24)
(1.06781 0.55974 -1.92942e-21)
(1.04975 0.552828 2.04539e-25)
(1.05572 0.555829 0)
(1.03671 0.549654 -1.06405e-23)
(1.04345 0.550591 0)
(1.02153 0.551645 2.78909e-25)
(1.02951 0.550073 0)
(1.00305 0.556288 0)
(1.0128 0.553961 0)
(0.980223 0.557767 -4.05464e-25)
(0.992258 0.557906 0)
(0.952403 0.547371 0)
(0.966946 0.554714 0)
(0.920219 0.513669 0)
(0.936741 0.534183 0)
(0.886293 0.445159 0)
(0.903224 0.484328 0)
(0.855001 0.33536 0)
(0.870004 0.395452 0)
(0.83115 0.187569 0)
(0.84187 0.265527 0)
(0.818575 0.0162429 -9.32658e-24)
(0.823279 0.103545 0)
(0.819152 -0.156513 0)
(0.817215 -0.0714516 0)
(0.832019 -0.308333 -8.51053e-24)
(0.824199 -0.236265 0)
(0.854691 -0.421977 0)
(0.842302 -0.370733 0)
(0.884437 -0.488545 -7.20327e-24)
(0.868878 -0.461181 0)
(0.917743 -0.513955 0)
(0.900915 -0.505311 0)
(0.950253 -0.518678 4.28065e-25)
(0.934368 -0.517412 0)
(0.978814 -0.522648 0)
(0.965089 -0.519963 0)
(1.00354 -0.533662 -8.8613e-24)
(0.99156 -0.527213 0)
(1.02626 -0.551343 -9.52969e-22)
(1.01508 -0.541801 -4.63004e-22)
(1.03722 -0.562573 8.04492e-22)
(1.05796 -0.613924 3.29481e-21)
(1.06994 -0.605368 3.13949e-21)
(0.917572 0.478306 0)
(0.974995 -0.598369 -3.92979e-21)
(0.96791 -0.586842 1.27829e-21)
(1.00945 -0.601145 1.5013e-21)
(1.02082 -0.600534 3.63152e-22)
(1.08617 0.541089 -2.21227e-21)
(0.999012 -0.606826 0)
(1.03147 -0.61009 0)
(0.983228 -0.607589 -1.50172e-21)
(1.04654 -0.620063 0)
(1.08074 -0.622038 0)
(1.06631 -0.62991 -3.33195e-21)
(0.961901 -0.601103 4.85679e-21)
(0.926883 0.479287 -5.69845e-21)
(0.910264 0.463215 1.80588e-21)
(0.953106 -0.587714 -6.26541e-23)
(1.01496 -0.601818 3.45554e-22)
(0.975905 -0.571023 -9.94666e-22)
(0.944735 -0.572462 -5.24886e-22)
(0.961394 -0.573213 1.02019e-21)
(1.00051 -0.563487 -7.46344e-24)
(0.988928 -0.567524 -2.49131e-22)
(1.02073 -0.55652 -1.96479e-24)
(1.01109 -0.559585 2.51249e-22)
(1.0383 -0.554944 0)
(1.02979 -0.554778 0)
(1.05455 -0.560573 0)
(1.04648 -0.557025 0)
(1.07112 -0.566172 0)
(1.06275 -0.564318 0)
(1.08875 -0.553569 8.13865e-24)
(1.07981 -0.563491 0)
(1.10667 -0.502533 0)
(1.0978 -0.533852 0)
(1.12291 -0.401259 0)
(1.11512 -0.458426 0)
(1.13565 -0.250566 0)
(1.12983 -0.331523 0)
(1.14341 -0.0635362 -7.02028e-24)
(1.14022 -0.160403 0)
(1.14582 0.138131 7.0346e-24)
(1.14524 0.037052 0)
(1.14387 0.326963 0)
(1.1453 0.236001 0)
(1.13852 0.474302 0)
(1.14161 0.407321 0)
(1.1295 0.562759 0)
(1.13452 0.526148 0)
(1.11633 0.595897 0)
(1.12343 0.585256 0)
(1.0995 0.592378 1.64179e-25)
(1.1083 0.597349 0)
(1.08021 0.572374 -1.61807e-25)
(1.09009 0.5834 0)
(1.05944 0.549371 -2.46028e-24)
(1.06997 0.560716 0)
(1.0375 0.529633 0)
(1.04863 0.538904 0)
(1.01389 0.51525 0)
(1.02595 0.521726 0)
(0.987667 0.506024 -4.79342e-24)
(1.00112 0.510153 0)
(0.958541 0.497541 -2.03102e-23)
(0.97324 0.50248 0)
(0.942846 0.49092 -6.18207e-22)
(0.912194 0.471056 -4.54986e-22)
(0.893642 0.441067 4.32714e-22)
(0.901886 0.45653 0)
(0.939732 0.496582 0)
(0.924871 0.484569 -5.12046e-22)
(0.976636 0.515585 0)
(0.957054 0.506915 0)
(1.0201 0.52576 1.82724e-21)
(0.99773 0.521787 0)
(1.06755 0.526526 2.77533e-21)
(1.04342 0.527403 -1.3964e-21)
(1.09171 0.523231 -3.85335e-22)
(1.09003 0.551865 -2.25311e-22)
(1.10718 0.535257 6.89802e-23)
(1.09847 0.5463 1.99647e-21)
(1.07386 0.551908 2.52432e-25)
(1.08198 0.553301 2.23065e-22)
(1.05816 0.545795 2.61473e-25)
(1.06616 0.548937 0)
(1.04164 0.5419 2.84651e-25)
(1.05007 0.543267 0)
(1.02334 0.542601 3.21728e-25)
(1.03281 0.541735 0)
(1.00203 0.545377 0)
(1.01315 0.544037 0)
(0.976606 0.54453 -4.42412e-25)
(0.9899 0.545871 0)
(0.946448 0.531749 -5.31897e-24)
(0.962123 0.540251 0)
(0.9122 0.496441 0)
(0.929723 0.517601 0)
(0.876417 0.428103 0)
(0.89426 0.466912 0)
(0.843391 0.320871 0)
(0.859247 0.379369 0)
(0.818045 0.177962 -8.00947e-24)
(0.829464 0.253222 0)
(0.804534 0.0130978 9.32658e-24)
(0.809622 0.0970434 0)
(0.804844 -0.152944 0)
(0.802957 -0.0711768 0)
(0.818204 -0.29902 8.51053e-24)
(0.810033 -0.229664 0)
(0.842327 -0.40821 0)
(0.829082 -0.35903 0)
(0.874499 -0.471854 -5.8845e-24)
(0.857624 -0.44572 0)
(0.910716 -0.496566 0)
(0.892424 -0.487966 0)
(0.945956 -0.502655 9.62245e-24)
(0.928744 -0.500519 0)
(0.977084 -0.508693 0)
(0.962078 -0.504991 0)
(1.00462 -0.521064 4.16458e-24)
(0.991177 -0.514065 0)
(1.03044 -0.539384 -3.03802e-22)
(1.0176 -0.529512 -2.87327e-22)
(1.05604 -0.563688 -1.15887e-21)
(1.04318 -0.550824 1.84959e-21)
(1.08208 -0.594149 -2.81439e-21)
(1.06897 -0.578175 2.79623e-21)
(1.09121 -0.638681 -3.64614e-21)
(1.10883 -0.627879 0)
(1.09537 -0.611169 0)
(0.935184 -0.586131 3.12742e-21)
(0.925589 -0.56901 -1.78471e-21)
(1.00635 -0.610891 -1.48863e-21)
(1.02285 -0.61271 0)
(1.12149 -0.644328 0)
(1.10109 -0.654028 3.83406e-21)
(0.992144 -0.6152 -8.59759e-23)
(1.03526 -0.624046 4.10877e-22)
(0.972107 -0.612711 -1.43547e-21)
(1.05217 -0.635187 5.33731e-23)
(0.877482 0.41329 -1.23781e-21)
(0.887817 0.425529 -8.64955e-23)
(0.870929 0.397447 0)
(0.946161 -0.601275 -1.42946e-21)
(1.0739 -0.645674 -2.31688e-22)
(0.914995 -0.578163 1.38675e-21)
(1.11511 0.517848 -7.16341e-23)
(0.903879 -0.558392 0)
(1.01435 -0.612926 -1.46784e-23)
(0.937602 -0.555153 -6.2574e-22)
(0.893901 -0.536595 0)
(0.9168 -0.54932 1.25228e-21)
(0.971856 -0.556995 2.06446e-22)
(0.955638 -0.557532 -2.10896e-22)
(0.999805 -0.551795 0)
(0.986523 -0.554794 0)
(1.02348 -0.546272 1.94413e-24)
(1.01209 -0.548686 0)
(1.04459 -0.545632 2.02202e-24)
(1.03426 -0.545091 0)
(1.0648 -0.55145 0)
(1.0547 -0.547921 0)
(1.08581 -0.556463 0)
(1.07513 -0.554955 0)
(1.10824 -0.543301 -2.35818e-25)
(1.09687 -0.553428 0)
(1.13111 -0.492645 0)
(1.11976 -0.523634 0)
(1.1521 -0.392866 0)
(1.142 -0.449148 0)
(1.16872 -0.244708 0)
(1.16111 -0.324282 0)
(1.17885 -0.0608263 7.02029e-24)
(1.17469 -0.156089 0)
(1.18178 0.137903 -7.03459e-24)
(1.18118 0.0382154 0)
(1.17847 0.324472 -6.29772e-24)
(1.18082 0.234569 0)
(1.16994 0.46976 0)
(1.17484 0.403821 0)
(1.15623 0.555964 0)
(1.16374 0.520498 0)
(1.13766 0.587003 0)
(1.1475 0.577353 0)
(1.11558 0.582039 1.98604e-25)
(1.12695 0.587636 0)
(1.0917 0.56127 -1.88944e-25)
(1.10378 0.572611 0)
(1.06708 0.53783 2.46028e-24)
(1.07945 0.549379 0)
(1.0419 0.517568 4.14228e-24)
(1.05458 0.527136 0)
(1.01555 0.50223 0)
(1.02893 0.509251 0)
(0.986912 0.491577 3.94842e-24)
(1.00155 0.496448 0)
(0.955535 0.481753 -2.79585e-22)
(0.971389 0.487139 0)
(0.922282 0.463295 3.87316e-21)
(0.938829 0.474746 7.74375e-22)
(0.904972 0.447655 -1.33872e-21)
(0.897691 0.44306 0)
(0.88633 0.428566 0)
(0.927973 0.468632 0)
(0.911571 0.456483 5.07954e-22)
(0.968835 0.488196 0)
(0.947156 0.479193 0)
(1.01706 0.499401 -9.63153e-22)
(0.992229 0.495029 0)
(1.07015 0.501168 -9.57597e-22)
(1.04333 0.5015 8.1812e-22)
(1.12733 0.527165 4.22884e-21)
(1.13788 0.509979 -2.33371e-21)
(1.12336 0.492979 2.5463e-21)
(1.09701 0.498063 9.63939e-22)
(1.10624 0.54335 -6.68914e-24)
(1.11676 0.537779 -1.03839e-21)
(1.08632 0.54305 1.16523e-23)
(1.09622 0.544628 0)
(1.06676 0.536906 3.1097e-25)
(1.07657 0.540112 0)
(1.04699 0.532549 3.2717e-25)
(1.057 0.534229 0)
(1.02584 0.532149 4.71865e-24)
(1.03668 0.531914 0)
(1.002 0.533196 0)
(1.01434 0.532783 0)
(0.974335 0.530155 -4.70369e-25)
(0.98871 0.532629 0)
(0.942238 0.515136 5.31897e-24)
(0.958841 0.52472 0)
(0.906344 0.478351 -5.24909e-24)
(0.924658 0.500094 0)
(0.869123 0.410258 0)
(0.887668 0.448677 0)
(0.834779 0.305662 0)
(0.851281 0.362527 0)
(0.808307 0.167802 9.88218e-25)
(0.820256 0.240265 0)
(0.794017 0.00965304 0)
(0.799447 0.0901117 0)
(0.793966 -0.149393 0)
(0.792206 -0.0710658 0)
(0.807544 -0.289323 0)
(0.799169 -0.222902 0)
(0.832805 -0.393556 0)
(0.818865 -0.346692 0)
(0.867021 -0.453924 5.8845e-24)
(0.849035 -0.42916 0)
(0.905624 -0.477893 0)
(0.886143 -0.469322 0)
(0.943045 -0.485516 -8.67333e-24)
(0.924774 -0.482418 0)
(0.9763 -0.493612 0)
(0.96021 -0.488937 0)
(1.00624 -0.507208 -4.16511e-24)
(0.991551 -0.49973 0)
(1.03493 -0.525938 0)
(1.02065 -0.515934 0)
(1.06377 -0.550086 -1.43245e-22)
(1.04923 -0.537296 1.43011e-22)
(1.09389 -0.580098 4.79449e-22)
(1.07865 -0.564418 -6.38816e-22)
(1.12539 -0.613669 -1.57465e-21)
(1.10932 -0.596601 1.58631e-21)
(1.13361 -0.657505 -4.70227e-21)
(1.15635 -0.644497 4.50481e-21)
(1.14085 -0.630542 0)
(0.879638 -0.540835 2.60752e-21)
(0.868604 -0.517037 0)
(1.10949 -0.66627 0)
(1.14382 -0.666007 4.37856e-21)
(1.17054 -0.654451 -3.91925e-21)
(1.00197 -0.620974 7.96775e-22)
(1.02387 -0.625665 0)
(0.983474 -0.622497 2.3064e-21)
(1.03796 -0.638224 -4.07439e-22)
(0.861814 0.378881 -1.21851e-21)
(0.854938 0.363384 1.64604e-21)
(0.958744 -0.615265 0)
(1.05675 -0.649823 0)
(0.927857 -0.59643 -1.59843e-21)
(1.08056 -0.659687 2.55712e-22)
(0.892453 -0.563479 -2.54903e-21)
(1.14809 0.485877 -2.57253e-21)
(0.841342 -0.489145 3.22494e-21)
(0.853652 -0.515589 1.64202e-22)
(1.11588 -0.672879 5.58623e-21)
(1.15196 -0.666761 6.34115e-21)
(1.18308 -0.657446 -5.80414e-21)
(0.812876 -0.453479 -1.20893e-21)
(0.831908 -0.462989 -9.51706e-22)
(0.88384 0.409248 -2.51031e-21)
(0.866743 0.381792 1.59734e-22)
(0.802242 -0.424993 9.51652e-22)
(1.0126 -0.624639 3.72625e-22)
(0.885843 -0.513605 -6.91047e-22)
(0.859573 -0.492632 1.06735e-21)
(0.931484 -0.535891 1.88817e-22)
(0.909567 -0.528183 -7.85758e-22)
(0.968721 -0.541024 0)
(0.951003 -0.540005 0)
(0.999716 -0.538262 1.26534e-24)
(0.984898 -0.540155 0)
(1.0265 -0.534362 -1.47779e-24)
(1.01352 -0.536073 0)
(1.05087 -0.534568 -2.02202e-24)
(1.03887 -0.533716 0)
(1.07468 -0.540287 0)
(1.06273 -0.536928 0)
(1.0997 -0.544456 0)
(1.08696 -0.543409 0)
(1.12661 -0.530648 -2.7568e-25)
(1.11296 -0.54101 0)
(1.15412 -0.480376 0)
(1.14044 -0.511013 0)
(1.17955 -0.382342 0)
(1.16729 -0.437573 0)
(1.19979 -0.237283 0)
(1.19051 -0.315156 0)
(1.21217 -0.0573611 0)
(1.20708 -0.150591 0)
(1.21575 0.137532 0)
(1.21503 0.0396891 0)
(1.2114 0.320924 6.29772e-24)
(1.21449 0.232538 0)
(1.20001 0.463314 0)
(1.20657 0.398822 0)
(1.1819 0.546698 0)
(1.19176 0.51261 0)
(1.15819 0.575503 0)
(1.17062 0.566857 0)
(1.13113 0.569313 2.28233e-25)
(1.14492 0.575395 0)
(1.10292 0.548139 -2.11757e-25)
(1.11707 0.55961 0)
(1.07474 0.524604 0)