/*--------------------------------*- C++ -*----------------------------------*\
  =========                 |
  \\      /  F ield         | OpenFOAM: The Open Source CFD Toolbox
   \\    /   O peration     | Website:  https://openfoam.org
    \\  /    A nd           | Version:  10
     \\/     M anipulation  |
\*---------------------------------------------------------------------------*/
FoamFile
{
    format      ascii;
    class       volScalarField;
    location    "45.5";
    object      p;
}
// * * * * * * * * * * * * * * * * * * * * * * * * * * * * * * * * * * * * * //

dimensions      [0 2 -2 0 0 0 0];

internalField   nonuniform List<scalar> 
28942
(
-0.00373768
-0.00310791
0.0020676
0.00955815
0.00985834
0.000115455
0.000344949
3.84564e-05
0.00277101
0.00285911
-0.00228278
-0.00255251
-0.00293797
-0.00285521
0.000228086
0.000569306
0.00993628
0.0102061
0.00562874
0.00718966
0.00820851
0.00820047
-0.00520554
-0.00502822
-0.0035569
-0.00377837
0.0139345
0.0138835
0.00357764
0.00352139
2.83784e-05
6.67891e-05
0.000895297
0.000373714
0.00719913
0.00840535
0.0109431
0.0129026
6.06207e-06
0.0150988
0.00916266
0.0116605
0.00191288
0.00184195
0.00188976
0.000342488
0.000195022
0.000274255
0.000316335
0.000443096
0.000830168
0.0028597
0.00292972
0.00290228
0.0030585
-0.00232146
-0.00101496
-0.00334727
-0.0031924
-0.00346527
-0.00353811
-0.00353915
-0.00343669
-7.63331e-05
-0.00178379
-0.000320012
0.00101583
0.0094774
0.00898076
-0.00332686
-0.00353778
-0.00327172
0.00904109
0.0088934
0.00918494
-0.00143612
-0.00104728
-0.000704652
0.00240355
0.00280312
0.00189143
0.000793257
-0.00628601
-0.00751758
0.00112957
0.00385811
0.00490087
0.00568965
0.00407206
0.00419712
0.00616586
0.00554324
-0.00134941
-0.0016449
-0.0019258
-0.00176166
-0.00158457
0.00538794
0.00668016
-0.00782896
0.0113555
0.0105566
0.00585045
0.00944782
0.000959408
0.000872227
0.000777654
0.0055317
0.00572431
0.00571825
-0.0031899
-0.00311012
-0.00309188
-0.00257266
-0.0026943
0.0158904
0.0138841
0.0133259
0.0149579
0.00169159
0.0047765
0.00347286
0.00511894
0.0047961
0.015562
0.0158576
0.014517
0.005962
0.00704169
0.000231847
0.000343234
0.000139147
0.0105516
0.0110555
0.00773989
0.00739212
0.012849
0.00674655
0.00803902
0.009107
-0.00186226
-0.00237752
0.00740783
0.00183676
0.00191521
-0.00114162
-0.00140869
-0.000941576
-0.00247751
0.00664728
0.00577393
0.00376244
0.000308703
0.000246838
0.000106595
0.000250172
0.00758488
0.00684965
-0.0018147
-0.00193277
-0.0018272
-0.00410711
-0.00364914
8.60843e-05
-0.00282503
-0.000468575
0.0084505
0.00855922
0.00965375
0.00918907
0.00776649
0.00315425
0.00307239
0.00331409
0.00319084
0.00510248
0.0048802
0.00521478
0.0054353
0.00537264
0.00544202
0.00565278
0.00620615
0.00590049
0.00549783
0.00582781
0.00653367
0.0072866
0.00757906
-0.000516339
-0.00049847
-0.00242879
0.000257259
8.75017e-05
-0.00194414
-0.00203416
0.000347279
0.000409625
0.00036957
0.000298698
0.002082
0.00204712
0.00201617
-0.00288541
-0.00307453
-0.00273613
-0.00431331
-0.00479814
-0.00410576
-0.00469584
-0.00646578
-0.00516019
0.0160844
0.0167949
0.0165623
0.00100114
0.00114667
0.00103197
0.0104061
0.00997825
0.0100586
0.00158641
0.00156463
0.00160826
0.00154286
0.00152145
0.00150011
0.00150095
0.001479
0.00148
0.00152196
0.00154331
0.0015649
0.00158684
0.00160871
0.00145837
0.00145901
0.00163006
0.00163054
0.00165225
0.00143787
0.00143812
0.00165268
0.00141721
0.00139674
0.00141762
0.00139726
0.00167469
0.00167521
0.00137649
0.00137702
0.00169668
0.00169746
0.0013564
0.00135696
0.00171899
0.00171979
0.00133648
0.00133706
0.00174137
0.00174221
0.00131672
0.00131731
0.00176384
0.00176463
0.00129719
0.00129764
0.00178638
0.00178706
0.00127775
0.00127817
0.00180881
0.00180951
0.00125845
0.00125877
0.00183122
0.00183178
0.00123925
0.00123936
0.00185391
0.00185442
0.0012202
0.00121982
0.00187625
0.00187646
0.00120077
0.00120049
0.00189872
0.00189892
0.00118091
0.00118109
0.00187531
0.00189775
0.00192125
0.0019212
0.00182976
0.00185277
0.00178465
0.00180748
0.00174013
0.00176244
0.00169543
0.0017178
0.00165078
0.00167304
0.00160731
0.00162958
0.00156409
0.00158554
0.00152096
0.00154235
0.00147834
0.0014996
0.00143681
0.00145753
0.00139591
0.00141629
0.00135567
0.00137572
0.00131609
0.00133581
0.00127713
0.00129654
0.00123874
0.00125787
0.00120022
0.00121969
0.00118081
0.00116138
0.00116152
0.00121995
0.00118128
0.00120063
0.00125876
0.00123933
0.00129758
0.00127815
0.00133693
0.00131719
0.00137691
0.00135685
0.00141754
0.00139715
0.00145878
0.0014381
0.00150087
0.00147984
0.00154344
0.00152218
0.00158649
0.00156482
0.00163063
0.00160874
0.00167476
0.00165237
0.00171947
0.00169714
0.00176422
0.00174187
0.001809
0.00178657
0.00185381
0.00183124
0.00189784
0.00187598
0.00192012
0.00192054
0.00116129
0.00116185
0.0019431
0.0019417
0.00194307
0.00194347
0.00187323
0.00191832
0.00189575
0.00182781
0.00185064
0.00178324
0.00180538
0.00173873
0.00176102
0.0016942
0.00171646
0.00164996
0.00167202
0.00160592
0.00162794
0.00156257
0.0015845
0.00152015
0.00154103
0.0014776
0.00149877
0.00143607
0.00145676
0.00139524
0.00141558
0.00135507
0.00137508
0.00131553
0.00133523
0.00127662
0.001296
0.00123829
0.00125738
0.00119996
0.00121916
0.00114185
0.00114196
0.00116134
0.00118071
0.00118153
0.00116235
0.00114263
0.00114204
0.00122011
0.00120085
0.00125854
0.00123918
0.00129724
0.00127783
0.00133654
0.00131682
0.00137647
0.00135643
0.00141706
0.00139668
0.00145829
0.00143761
0.00150024
0.00147918
0.00154289
0.00152144
0.00158592
0.00156435
0.00162968
0.0016079
0.00167389
0.00165178
0.00171842
0.00169614
0.00176306
0.00174075
0.0018076
0.00178538
0.00185181
0.00182979
0.00189562
0.00187376
0.00193861
0.00191742
0.00194061
0.00196334
0.00196016
0.0019643
0.00114229
0.001143
0.00196438
0.00196183
0.00198446
0.00198147
0.00196522
0.00116154
0.00114254
0.00112339
0.00112376
0.00195772
0.00198452
0.00200914
0.00198467
0.00191466
0.00193643
0.00187015
0.00189241
0.00182544
0.00184794
0.00178112
0.00180308
0.00173684
0.00175902
0.00169252
0.00171467
0.00164842
0.00167043
0.00160464
0.00162645
0.00156135
0.00158292
0.00151867
0.00153995
0.0014766
0.00149757
0.00143518
0.00145581
0.00139442
0.00141472
0.00135432
0.00137429
0.00131485
0.0013345
0.00127598
0.00129534
0.0012377
0.00125677
0.00119963
0.0012186
0.00118056
0.00112286
0.00112311
0.00112292
0.00112304
0.00118168
0.00114342
0.0011626
0.00121995
0.00120081
0.00125807
0.0012389
0.00129671
0.00127732
0.00133595
0.00131626
0.00137581
0.0013558
0.00141632
0.00139598
0.00145748
0.00143682
0.00149931
0.00147831
0.00154176
0.00152047
0.00158487
0.00156326
0.00162843
0.00160656
0.00167246
0.00165043
0.00171678
0.0016946
0.00176121
0.001739
0.00180552
0.00178341
0.00184938
0.00182755
0.00189262
0.00187105
0.00193504
0.00191391
0.001977
0.00195575
0.0020013
0.00199708
0.0019857
0.00198546
0.00112351
0.00112431
0.00200501
0.00200457
0.00200733
0.00201656
0.00202058
0.00196144
0.00203911
0.00198662
0.00199163
0.00199605
0.00195365
0.00197607
0.0019094
0.00193146
0.00186594
0.00188748
0.00182219
0.00184433
0.00177841
0.00180031
0.00173436
0.00175641
0.00169028
0.00171231
0.00164639
0.00166831
0.00160284
0.00162456
0.00155975
0.00158122
0.00151718
0.00153841
0.00147528
0.00149616
0.00143398
0.00145455
0.00139333
0.00141358
0.00135332
0.00137325
0.00131394
0.00133356
0.00127516
0.00129448
0.00123694
0.00125598
0.00119912
0.00121795
0.00116148
0.00118029
0.00112364
0.00114251
0.0011043
0.00110461
0.00110447
0.00110416
0.00110413
0.00110451
0.00110426
0.00110542
0.0011049
0.00114364
0.00110602
0.00112483
0.00118151
0.00116259
0.00121942
0.00120048
0.00125743
0.00123836
0.00129599
0.00127664
0.00133515
0.0013155
0.00137492
0.00135496
0.00141532
0.00139504
0.00145638
0.00143577
0.00149808
0.00147715
0.00154038
0.00151917
0.00158331
0.00156179
0.00162671
0.00160494
0.00167052
0.00164858
0.00171461
0.00169255
0.00175877
0.0017367
0.00180278
0.00178082
0.00184631
0.00182464
0.00188899
0.00186778
0.00193056
0.00190996
0.00197111
0.0019509
0.00201044
0.00199052
0.00203498
0.00202875
0.00200581
0.00200631
0.0020227
0.00202275
0.00112365
0.00110495
0.00108659
0.00108686
0.00203417
0.00203928
0.00206375
0.00199223
0.00205149
0.00204603
0.00202871
0.0020065
0.00198058
0.00198922
0.00194718
0.00196669
0.00190359
0.00192539
0.0018615
0.00188264
0.00181853
0.00184014
0.00177506
0.00179684
0.00173133
0.00175322
0.00168755
0.00170943
0.00164393
0.00166571
0.00160063
0.00162223
0.00155775
0.00157913
0.0015154
0.00153652
0.00147365
0.00149446
0.00143251
0.001453
0.00139199
0.00141217
0.00135211
0.00137197
0.00131283
0.0013324
0.00127415
0.00129342
0.00123602
0.00125502
0.00119842
0.00121716
0.00116103
0.00117966
0.00114227
0.00108569
0.00108587
0.00108576
0.00108579
0.00108579
0.00108603
0.00108593
0.00108621
0.00114364
0.00110603
0.00112508
0.00118111
0.00116235
0.00121868
0.00119992
0.00125661
0.00123759
0.00129509
0.00127578
0.00133414
0.00131454
0.0013738
0.0013539
0.00141408
0.00139386
0.00145499
0.00143446
0.00149653
0.00147569
0.00153867
0.00151754
0.00158138
0.00155997
0.00162456
0.00160292
0.00166812
0.00164631
0.00171192
0.00169001
0.00175576
0.00173385
0.00179939
0.00177762
0.00184252
0.00182105
0.00188477
0.00186379
0.00192571
0.00190544
0.0019651
0.00194575
0.00200259
0.00198326
0.00203917
0.00202195
0.00206198
0.00205478
0.00202584
0.0020249
0.00108591
0.00108732
0.00203951
0.00200899
0.00203899
0.00204158
0.00205555
0.00205315
0.00206499
0.00206383
0.00206762
0.00207702
0.00207129
0.00202564
0.00200106
0.00205159
0.00203025
0.00197252
0.00198452
0.00193928
0.00195897
0.00189817
0.00191872
0.00185662
0.00187754
0.00181415
0.00183548
0.0017711
0.00179268
0.00172776
0.00174946
0.00168434
0.00170605
0.00164104
0.00166267
0.00159802
0.00161949
0.00155541
0.00157666
0.00151329
0.00153429
0.00147173
0.00149244
0.00143077
0.00145118
0.00139042
0.00141052
0.00135068
0.00137048
0.00131153
0.00133103
0.00127297
0.00129218
0.00123495
0.00125389
0.00119745
0.00121614
0.00116033
0.00117888
0.00112315
0.00114175
0.00108573
0.00110459
0.00106728
0.00106697
0.00106705
0.00106756
0.00106738
0.00106781
0.00106767
0.00106791
0.00106789
0.0010681
0.00106798
0.00106873
0.00106833
0.00110603
0.00106898
0.00108749
0.00114326
0.00112472
0.00118048
0.00116188
0.0012178
0.00119909
0.00125563
0.00123665
0.001294
0.00127475
0.00133293
0.00131339
0.00137245
0.00135262
0.00141259
0.00139245
0.00145333
0.00143289
0.00149469
0.00147394
0.00153662
0.00151559
0.00157908
0.00155779
0.001622
0.0016005
0.00166527
0.00164361
0.00170873
0.00168699
0.00175219
0.00173048
0.0017954
0.00177385
0.00183805
0.00181682
0.00187981
0.00185908
0.00192023
0.00190022
0.00195886
0.00193986
0.00199539
0.0019773
0.00202932
0.00201302
0.0020612
0.00204442
0.00208629
0.0020771
0.00204229
0.00206002
0.00205226
0.00108551
0.00106708
0.00105017
0.0010503
0.00204282
0.00205844
0.00206432
0.00207158
0.00208232
0.00209292
0.00209948
0.00209093
0.00204303
0.00204169
0.00207267
0.0020629
0.00205362
0.00199863
0.00202201
0.00196517
0.00197978
0.00193163
0.00195059
0.00189187
0.00191184
0.001851
0.0018716
0.00180912
0.00183016
0.00176659
0.00178792
0.0017237
0.00174518
0.00168068
0.0017022
0.00163774
0.0016592
0.00159505
0.00161636
0.00155272
0.00157384
0.00151087
0.00153174
0.00146954
0.00149014
0.00142878
0.00144909
0.00138862
0.00140863
0.00134904
0.00136876
0.00131004
0.00132947
0.00127161
0.00129076
0.00123371
0.0012526
0.00119632
0.00121496
0.00115942
0.00117782
0.00112251
0.00114096
0.00110398
0.00104899
0.00104855
0.00104878
0.00104959
0.00104934
0.00104999
0.00104982
0.00105004
0.00105005
0.00104994
0.00105001
0.00105001
0.00110591
0.00106895
0.00108743
0.00114264
0.00112427
0.00117955
0.00116111
0.00121676
0.00119809
0.00125448
0.00123556
0.00129272
0.00127354
0.00133152
0.00131205
0.00137089
0.00135113
0.00141085
0.0013908
0.0014514
0.00143106
0.00149254
0.0014719
0.00153424
0.00151333
0.00157643
0.00155528
0.00161905
0.0015977
0.00166198
0.00164049
0.00170506
0.00168352
0.00174809
0.0017266
0.00179083
0.00176952
0.00183296
0.001812
0.00187415
0.00185371
0.00191398
0.00189427
0.00195201
0.00193327
0.00198781
0.00197023
0.00202063
0.00200468
0.00205162
0.00203578
0.00207967
0.00206532
0.0020851
0.00207918
0.0021032
0.00209278
0.00205669
0.0010487
0.0010503
0.00207237
0.00205966
0.00208567
0.00207007
0.00207488
0.00208747
0.00208786
0.00209856
0.00210614
0.00211162
0.00211479
0.00210482
0.00205916
0.00204992
0.00208964
0.00208199
0.00206146
0.00202941
0.00204339
0.00199258
0.00201057
0.0019577
0.00197423
0.00192354
0.00194182
0.00188487
0.0019044
0.00184475
0.00186498
0.00180351
0.00182425
0.00176155
0.00178261
0.00171916
0.0017404
0.00167659
0.00169789
0.00163405
0.00165531
0.00159172
0.00161285
0.00154971
0.00157067
0.00150814
0.00152887
0.00146708
0.00148755
0.00142655
0.00144675
0.00138659
0.0014065
0.0013472
0.00136682
0.00130837
0.00132772
0.00127009
0.00128916
0.00123233
0.00125114
0.00119506
0.00121364
0.00115827
0.00117661
0.00112176
0.00114003
0.00108516
0.00110339
0.00104851
0.00106698
0.00103052
0.00102999
0.00103026
0.00103117
0.00103077
0.00103183
0.00103151
0.00103225
0.00103208
0.00103228
0.00103231
0.00103207
0.00103217
0.00103189
0.00103191
0.00103194
0.00103184
0.00106874
0.00103203
0.00105046
0.00110541
0.00108702
0.00114183
0.00112366
0.00117848
0.0011601
0.00121558
0.00119697
0.00125317
0.00123431
0.00129127
0.00127216
0.00132991
0.00131052
0.0013691
0.00134944
0.00140887
0.00138892
0.00144921
0.00142898
0.00149011
0.0014696
0.00153154
0.00151077
0.00157344
0.00155244
0.00161572
0.00159454
0.00165827
0.00163698
0.00170093
0.00167961
0.0017435
0.00172225
0.00178572
0.00176468
0.00182729
0.00180662
0.00186786
0.00184774
0.00190704
0.00188766
0.00194439
0.00192599
0.0019795
0.00196227
0.00201171
0.00199602
0.00204111
0.00202683
0.00206738
0.00205409
0.00209194
0.00208069
0.00209787
0.00209599
0.00211223
0.00209875
0.0020736
0.00207634
0.00209091
0.00210205
0.00209799
0.00208781
0.00209099
0.00104824
0.00103022
0.00101374
0.00101383
0.00210387
0.00210302
0.00211234
0.00211826
0.0021224
0.00212255
0.00209825
0.00208951
0.00209482
0.00212036
0.00211151
0.00211134
0.00207595
0.00207213
0.00207655
0.00203882
0.00205269
0.00201691
0.00203087
0.00198324
0.00199968
0.0019499
0.00196666
0.00191506
0.00193295
0.00187734
0.00189645
0.00183797
0.00185784
0.0017974
0.00181782
0.00175604
0.00177681
0.00171418
0.00173516
0.00167209
0.00169316
0.00162999
0.00165104
0.00158804
0.00160899
0.00154639
0.00156718
0.00150514
0.00152571
0.00146435
0.00148468
0.00142408
0.00144415
0.00138434
0.00140414
0.00134516
0.00136468
0.00130651
0.00132577
0.0012684
0.00128739
0.00123079
0.00124953
0.00119366
0.00121217
0.00115699
0.00117527
0.00112077
0.00113883
0.00108451
0.00110266
0.0010664
0.00101256
0.00101196
0.00101225
0.00101347
0.00101304
0.00101419
0.00101386
0.00101459
0.00101443
0.00101463
0.00101465
0.00101434
0.00101451
0.001014
0.00101417
0.00101387
0.00106836
0.00103212
0.00105025
0.00110463
0.00108646
0.00114076
0.00112266
0.00117728
0.00115896
0.00121425
0.00119571
0.0012517
0.00123292
0.00128964
0.00127061
0.00132811
0.00130881
0.00136711
0.00134754
0.00140667
0.00138682
0.00144677
0.00142665
0.00148741
0.00146703
0.00152854
0.00150792
0.00157011
0.00154928
0.00161203
0.00159104
0.00165417
0.00163309
0.00169638
0.00167529
0.00173845
0.00171746
0.00178012
0.00175936
0.00182109
0.00180072
0.00186102
0.00184122
0.00189951
0.00188048
0.00193615
0.0019181
0.00197051
0.00195365
0.00200209
0.00198669
0.00203061
0.00201681
0.00205585
0.00204363
0.00207701
0.00206731
0.00209778
0.00208477
0.00210934
0.00211511
0.00212925
0.0021206
0.00210899
0.00209851
0.00211149
0.00211041
0.00209074
0.00209258
0.00101197
0.00101373
0.00211657
0.00210451
0.00210631
0.00211732
0.00211723
0.0021251
0.00213021
0.00213082
0.00212849
0.00210195
0.00208762
0.00209133
0.00209367
0.00210056
0.00211482
0.00210721
0.00211874
0.00212594
0.00213013
0.00212492
0.00209251
0.00207812
0.00207904
0.00205605
0.0020636
0.00202881
0.00204301
0.00200426
0.00201737
0.0019735
0.00198928
0.00194084
0.00195738
0.00190629
0.00192389
0.00186935
0.00188807
0.00183072
0.00185022
0.00179084
0.00181091
0.00175009
0.00177056
0.0017088
0.0017295
0.00166722
0.00168803
0.00162558
0.0016464
0.00158405
0.00160479
0.00154277
0.00156337
0.00150185
0.00152226
0.00146137
0.00148156
0.00142137
0.00144131
0.00138188
0.00140156
0.00134292
0.00136234
0.00130448
0.00132364
0.00126655
0.00128545
0.00122911
0.00124777
0.00119213
0.00121056
0.0011556
0.00117381
0.00111949
0.0011375
0.00108363
0.00110158
0.00104778
0.00106567
0.00101178
0.00102976
0.000994156
0.000993847
0.00099378
0.000994971
0.00099447
0.000995905
0.000995441
0.000996626
0.000996307
0.000997008
0.000996859
0.000997055
0.000997074
0.00099677
0.000996948
0.000996261
0.000996563
0.000995808
0.000996003
0.000995531
0.000995666
0.00103161
0.0009954
0.00101363
0.00106778
0.00104969
0.00110357
0.00108571
0.00113956
0.00112151
0.00117596
0.00115771
0.00121279
0.00119432
0.00125007
0.00123137
0.00128784
0.0012689
0.00132612
0.00130692
0.00136491
0.00134545
0.00140424
0.00138451
0.00144408
0.0014241
0.00148444
0.0014642
0.00152525
0.00150479
0.00156647
0.00154582
0.001608
0.00158721
0.00164971
0.00162884
0.00169143
0.00167059
0.00173297
0.00171225
0.00177406
0.0017536
0.00181441
0.00179436
0.00185367
0.00183421
0.00189146
0.00187279
0.00192736
0.00190968
0.00196097
0.00194449
0.00199184
0.00197679
0.00201966
0.00200617
0.00204407
0.00203234
0.00206419
0.00205479
0.00208083
0.00207308
0.0020834
0.00212374
0.00212846
0.00211588
0.00210309
0.00210706
0.00210812
0.00212028
0.00211852
0.00212069
0.00101124
0.000993424
0.000977521
0.000977179
0.00213116
0.00213038
0.00213699
0.00214018
0.00214026
0.00213858
0.00209835
0.00208401
0.00209529
0.00210584
0.00211913
0.00212167
0.00213241
0.00213663
0.00212479
0.00210284
0.00211718
0.00210838
0.00207561
0.00206865
0.00206102
0.00206962
0.00204027
0.00205088
0.00201777
0.00202971
0.00199253
0.00200561
0.0019631
0.00197827
0.00193116
0.00194738
0.00189716
0.00191446
0.00186096
0.00187931
0.00182305
0.0018422
0.00178386
0.0018036
0.00174375
0.0017639
0.00170304
0.00172345
0.00166199
0.00168255
0.00162083
0.00164142
0.00157974
0.00160027
0.00153886
0.00155927
0.00149831
0.00151854
0.00145815
0.00147818
0.00141844
0.00143824
0.00137922
0.00139877
0.0013405
0.0013598
0.00130227
0.00132133
0.00126454
0.00128335
0.00122728
0.00124585
0.00119047
0.00120882
0.00115409
0.00117223
0.00111811
0.00113605
0.00108251
0.00110027
0.00104699
0.00106467
0.00102913
0.000976437
0.000975712
0.0009761
0.000977483
0.000976983
0.000978453
0.000977992
0.00097914
0.000978837
0.000979507
0.000979363
0.000979559
0.000979573
0.000979287
0.000979463
0.000978733
0.000979038
0.000978027
0.000978402
0.000977687
0.00103107
0.000995237
0.00101331
0.00106689
0.00104895
0.00110238
0.0010846
0.00113825
0.00112027
0.00117451
0.00115633
0.00121118
0.00119279
0.0012483
0.00122968
0.00128588
0.00126703
0.00132395
0.00130486
0.00136252
0.00134317
0.00140159
0.001382
0.00144116
0.00142132
0.00148121
0.00146113
0.00152169
0.0015014
0.00156253
0.00154207
0.00160364
0.00158306
0.00164489
0.00162427
0.00168612
0.00166553
0.0017271
0.00170666
0.0017676
0.00174744
0.0018073
0.00178758
0.00184588
0.00182676
0.00188295
0.00186464
0.00191811
0.00190081
0.00195097
0.00193487
0.0019811
0.00196642
0.00200817
0.00199506
0.00203182
0.00202047
0.00205144
0.0020422
0.00206669
0.00205981
0.00207708
0.00207206
0.00208839
0.00208412
0.00210281
0.00208977
0.00208395
0.00213433
0.00213333
0.00212144
0.00212262
0.000975458
0.000977357
0.00213581
0.00213194
0.00213404
0.00214358
0.00214244
0.00214759
0.00214945
0.00214826
0.00214361
0.00209704
0.00207991
0.00207765
0.00207443
0.00207009
0.00208907
0.00209498
0.00211569
0.00211929
0.00213354
0.00213433
0.00213927
0.00212939
0.00211621
0.00210095
0.00212293
0.00207321
0.00207989
0.00205926
0.00205683
0.00204476
0.00205513
0.0020273
0.00203653
0.00200563
0.00201699
0.00198072
0.0019936
0.00195221
0.00196688
0.00192106
0.00193693
0.00188768
0.00190466
0.0018522
0.00187019
0.00181501
0.0018338
0.00177651
0.00179591
0.00173705
0.00175688
0.00169693
0.00171706
0.00165644
0.00167672
0.00161578
0.00163612
0.00157515
0.00159546
0.00153469
0.0015549
0.00149451
0.00151456
0.0014547
0.00147456
0.0014153
0.00143495
0.00137636
0.00139578
0.00133789
0.00135707
0.0012999
0.00131884
0.00126238
0.00128108
0.00122531
0.00124379
0.00118868
0.00120695
0.00115246
0.00117052
0.00111663
0.0011345
0.00108116
0.00109885
0.00104601
0.00106355
0.00101051
0.00102822
0.000974874
0.000992829
0.000957972
0.000956896
0.000957406
0.000959028
0.000958456
0.000960113
0.000959562
0.000961073
0.00096063
0.000961727
0.000961438
0.000962082
0.000961942
0.000962137
0.000962147
0.00096189
0.000962051
0.000961352
0.000961656
0.000960577
0.000960978
0.000959865
0.000960192
0.00095948
0.000959586
0.00099482
0.000959443
0.000977203
0.00103032
0.00101266
0.00106574
0.00104804
0.0011011
0.00108338
0.00113683
0.00111893
0.00117293
0.00115484
0.00120944
0.00119114
0.00124637
0.00122785
0.00128376
0.00126501
0.00132161
0.00130262
0.00135993
0.00134071
0.00139874
0.00137928
0.00143802
0.00141833
0.00147774
0.00145783
0.00151786
0.00149776
0.00155831
0.00153805
0.00159898
0.00157863
0.00163976
0.00161938
0.00168046
0.00166014
0.00172088
0.00170073
0.00176076
0.00174091
0.00179981
0.00178042
0.00183769
0.00181893
0.00187404
0.0018561
0.00190847
0.00189154
0.00194059
0.00192486
0.00196999
0.00195567
0.00199633
0.00198359
0.00201925
0.00200826
0.0020383
0.00202931
0.00205315
0.00204633
0.00206382
0.00205887
0.00207077
0.00206852
0.00206838
0.0021458
0.0021469
0.00208753
0.00207543
0.00213485
0.00213608
0.00214332
0.00214429
0.00214628
0.000974409
0.000956803
0.000941782
0.00094157
0.00215491
0.00215332
0.00215706
0.00215751
0.00215466
0.00214859
0.00207457
0.00205955
0.00205622
0.00207329
0.00209348
0.00211292
0.00212934
0.00213264
0.00214426
0.00214192
0.00212933
0.00211294
0.00209818
0.00206287
0.00207457
0.00213644
0.00206506
0.00205854
0.00205492
0.00206396
0.00204315
0.00204798
0.00203118
0.00203846
0.00201415
0.00202314
0.00199307
0.00200409
0.00196869
0.00198131
0.00194101
0.00195525
0.00191061
0.00192612
0.00187791
0.00189454
0.00184314
0.00186077
0.00180666
0.00182509
0.00176884
0.0017879
0.00173003
0.00174954
0.00169052
0.00171035
0.00165059
0.0016706
0.00161045
0.00163054
0.00157029
0.00159037
0.00153027
0.00155026
0.00149048
0.00151034
0.00145103
0.00147071
0.00141196
0.00143144
0.00137331
0.00139258
0.00133512
0.00135416
0.00129737
0.00131619
0.00126007
0.00127867
0.00122321
0.00124159
0.00118677
0.00120494
0.00115072
0.0011687
0.00111505
0.00113284
0.00107972
0.00109734
0.00104473
0.00106219
0.00100963
0.00102719
0.000991976
0.000940431
0.000939329
0.000939901
0.000941708
0.000941098
0.000942848
0.000942292
0.000943761
0.000943341
0.000944385
0.000944108
0.000944728
0.000944592
0.000944786
0.000944793
0.000944562
0.000944709
0.000944059
0.000944346
0.000943299
0.000943704
0.000942396
0.000942872
0.000941981
0.000994326
0.000959107
0.000976896
0.00102943
0.00101188
0.00106449
0.00104699
0.00109973
0.00108207
0.00113531
0.00111748
0.00117125
0.00115323
0.00120757
0.00118936
0.00124431
0.00122589
0.00128148
0.00126284
0.00131909
0.00130023
0.00135717
0.00133808
0.00139569
0.00137638
0.00143466
0.00141513
0.00147404
0.00145431
0.00151379
0.00149388
0.00155382
0.00153378
0.00159405
0.00157393
0.00163433
0.0016142
0.00167449
0.00165445
0.00171433
0.00169448
0.00175359
0.00173406
0.00179198
0.00177293
0.00182917
0.00181076
0.00186481
0.00184722
0.00189852
0.00188194
0.00192991
0.00191454
0.00195861
0.00194463
0.00198426
0.00197186
0.00200652
0.00199586
0.00202502
0.00201628
0.00203946
0.00203279
0.00204991
0.00204513
0.00205574
0.00205369
0.00205691
0.00205652
0.0020587
0.0020547
0.00205983
0.00204643
0.00204759
0.00215557
0.00215569
0.00214722
0.00214846
0.000939178
0.000941412
0.00214868
0.00215558
0.00215738
0.0021648
0.00216305
0.00216537
0.00216425
0.00215983
0.00215219
0.00205485
0.00203921
0.00203031
0.00203352
0.00202251
0.00203728
0.00204924
0.00207284
0.00208977
0.00211178
0.0021268
0.00214182
0.00214809
0.00214252
0.00212754
0.00210954
0.00209107
0.00206996
0.00205063
0.00214886
0.00205119
0.00204807
0.00204816
0.00203769
0.00203808
0.00204798
0.00202957
0.0020338
0.00201749
0.00202427
0.0020008
0.00200963
0.00198034
0.00199103
0.00195655
0.00196886
0.00192959
0.00194345
0.0018999
0.00191506
0.00186788
0.00188417
0.0018338
0.00185108
0.00179802
0.00181611
0.00176088
0.00177961
0.00172272
0.00174192
0.00168382
0.00170335
0.00164446
0.00166419
0.00160485
0.00162468
0.00156518
0.00158502
0.0015256
0.00154538
0.00148623
0.00150589
0.00144715
0.00146665
0.00140842
0.00142774
0.00137009
0.0013892
0.00133217
0.00135108
0.00129469
0.00131338
0.00125763
0.00127611
0.00122098
0.00123926
0.00118474
0.00120281
0.00114888
0.00116676
0.00111337
0.00113108
0.0010782
0.00109575
0.00104333
0.00106073
0.00100864
0.00102601
0.000973828
0.000991164
0.000938773
0.000956445
0.000922042
0.000921087
0.000921541
0.000923263
0.000922583
0.000924533
0.000923907
0.000925652
0.00092512
0.000926514
0.000926116
0.000927111
0.000926845
0.000927441
0.000927309
0.000927503
0.000927505
0.000927299
0.000927434
0.000926831
0.000927098
0.000926098
0.000926498
0.000925165
0.000925643
0.000924324
0.000924707
0.000924032
0.00092404
0.000958665
0.000923868
0.000941342
0.000993599
0.000976193
0.00102838
0.00101095
0.00106317
0.00104575
0.00109826
0.00108068
0.00113368
0.00111593
0.00116944
0.00115152
0.00120558
0.00118746
0.00124211
0.00122379
0.00127905
0.00126053
0.00131642
0.00129768
0.00135422
0.00133527
0.00139245
0.00137329
0.0014311
0.00141173
0.00147012
0.00145057
0.00150948
0.00148977
0.00154909
0.00152926
0.00158885
0.00156896
0.00162862
0.00160875
0.00166824
0.00164847
0.00170749
0.00168794
0.00174613
0.00172692
0.00178386
0.00176514
0.00182037
0.0018023
0.0018553
0.00183807
0.00188831
0.00187208
0.001919
0.00190398
0.00194703
0.00193339
0.00197205
0.00195995
0.00199372
0.00198334
0.00201172
0.00200321
0.00202579
0.00201928
0.00203588
0.00203133
0.00204158
0.00203941
0.00204255
0.00204268
0.00203978
0.00204167
0.00203318
0.002164
0.00216302
0.00203349
0.00202266
0.00215852
0.00215969
0.00215543
0.0021656
0.00216729
0.000938236
0.000920843
0.00090654
0.000906394
0.00217337
0.00217156
0.00217236
0.0021697
0.00216367
0.00215455
0.00202917
0.00201711
0.00200173
0.00201367
0.00204939
0.0020656
0.00209053
0.00210232
0.0021256
0.00214038
0.00215222
0.00214143
0.00212449
0.00210562
0.00208223
0.00206413
0.00204221
0.00200878
0.00201965
0.00216016
0.00202728
0.00200944
0.00203535
0.00203589
0.00203058
0.00202583
0.00202422
0.00203051
0.00201591
0.00202019
0.00200377
0.00201045
0.00198748
0.0019961
0.00196756
0.00197797
0.00194432
0.00195635
0.00191801
0.00193154
0.001889
0.00190383
0.00185764
0.0018736
0.00182425
0.00184119
0.00178915
0.0018069
0.00175268
0.00177107
0.00171516
0.00173404
0.00167687
0.0016961
0.00163808
0.00165753
0.00159901
0.00161858
0.00155984
0.00157943
0.00152072
0.00154027
0.00148176
0.00150122
0.00144307
0.00146238
0.00140469
0.00142384
0.00136669
0.00138565
0.00132907
0.00134783
0.00129185
0.00131041
0.00125504
0.0012734
0.00121863
0.00123679
0.00118259
0.00120057
0.00114692
0.00116472
0.0011116
0.00112922
0.00107659
0.00109406
0.00104188
0.0010592
0.00100745
0.00102464
0.000972951
0.000990139
0.000955632
0.000904799
0.000903687
0.000904255
0.000906181
0.0009055
0.000907449
0.000906835
0.000908512
0.000908011
0.00090933
0.000908952
0.0009099
0.000909646
0.000910218
0.00091009
0.000910283
0.000910282
0.000910097
0.000910221
0.000909663
0.000909911
0.000908984
0.000909354
0.000908082
0.000908554
0.000907097
0.000907607
0.000906726
0.000958253
0.000923665
0.000940939
0.000992727
0.00097543
0.00102713
0.0010099
0.00106177
0.00104442
0.00109671
0.0010792
0.00113195
0.00111429
0.00116753
0.0011497
0.00120346
0.00118545
0.00123977
0.00122157
0.00127648
0.00125808
0.00131359
0.00129499
0.00135111
0.0013323
0.00138903
0.00137003
0.00142734
0.00140815
0.001466
0.00144663
0.00150495
0.00148545
0.00154412
0.00152452
0.00158341
0.00156377
0.00162267
0.00160306
0.00166174
0.00164225
0.0017004
0.00168114
0.00173841
0.00171951
0.00177549
0.00175709
0.00181132
0.00179359
0.00184558
0.00182868
0.0018779
0.00186202
0.00190793
0.00189324
0.00193533
0.001922
0.00195976
0.00194796
0.00198091
0.00197079
0.00199849
0.00199018
0.00201225
0.00200588
0.00202208
0.00201768
0.00202768
0.00202548
0.00202887
0.00202882
0.0020255
0.00202794
0.0020172
0.00202167
0.00200959
0.0020091
0.0019945
0.00198575
0.00199717
0.00217107
0.00216855
0.00216861
0.00216973
0.000903466
0.000906078
0.00216065
0.00217432
0.00217597
0.00218064
0.00217877
0.00217803
0.00217377
0.00216616
0.0021553
0.00198793
0.00198498
0.00197764
0.00199699
0.002014
0.00203464
0.00206535
0.00208021
0.00210441
0.0021195
0.00213772
0.00215181
0.00213877
0.00212022
0.00209923
0.00207804
0.00205451
0.00202955
0.00200486
0.00197619
0.00198171
0.00196889
0.00217025
0.00200852
0.00198338
0.00201051
0.00200289
0.00201837
0.00201715
0.00201481
0.00201599
0.00201091
0.00201414
0.00200234
0.00200695
0.00199022
0.0019968
0.00197427
0.00198271
0.00195479
0.00196497
0.00193206
0.00194383
0.00190634
0.00191957
0.00187796
0.00189247
0.00184724
0.00186288
0.00181451
0.00183112
0.00178007
0.00179749
0.00174426
0.00176232
0.00170737
0.00172594
0.0016697
0.00168862
0.00163148
0.00165065
0.00159295
0.00161225
0.00155428
0.00157363
0.00151563
0.00153495
0.0014771
0.00149634
0.0014388
0.00145792
0.0014008
0.00141976
0.00136312
0.00138192
0.00132581
0.00134442
0.00128888
0.0013073
0.00125233
0.00127056
0.00121615
0.0012342
0.00118034
0.0011982
0.00114487
0.00116257
0.00110973
0.00112726
0.0010749
0.00109228
0.00104034
0.00105759
0.00100606
0.00102317
0.000971846
0.000988913
0.000937626
0.000954794
0.000903025
0.000920399
0.00088659
0.000885635
0.000886062
0.000887848
0.000887156
0.000889196
0.000888522
0.000890425
0.000889837
0.000891429
0.000890955
0.000892206
0.000891846
0.000892748
0.000892506
0.000893055
0.000892931
0.000893123