/*--------------------------------*- C++ -*----------------------------------*\
  =========                 |
  \\      /  F ield         | OpenFOAM: The Open Source CFD Toolbox
   \\    /   O peration     | Website:  https://openfoam.org
    \\  /    A nd           | Version:  10
     \\/     M anipulation  |
\*---------------------------------------------------------------------------*/
FoamFile
{
    format      ascii;
    class       surfaceScalarField;
    location    "45.5";
    object      phi;
}
// * * * * * * * * * * * * * * * * * * * * * * * * * * * * * * * * * * * * * //

dimensions      [0 3 -1 0 0 0 0];

internalField   nonuniform List<scalar> 
57492
(
0.000237003
-1.06595e-05
-4.39671e-05
-0.000182377
-0.000163535
0.000268975
0.000131563
-2.88053e-05
8.09917e-05
0.000323869
-0.000376056
0.00315966
0.00338646
-0.000272023
-0.0062741
-0.00862821
0.0040453
0.00774257
0.000817411
-0.000754015
-0.000395191
0.000331796
-0.00146009
0.000259259
-9.35136e-05
0.00129434
0.000310074
-0.000952751
0.00157814
-0.00463342
0.00442631
-0.00137103
0.00133269
0.0042501
-0.00400464
-0.000617076
-0.00020846
0.000690547
0.00013499
-0.000123319
-0.000838473
0.000344715
0.000233834
-0.000327894
-2.92597e-05
-5.37969e-05
7.91717e-05
0.00191753
-0.00184689
-0.000692926
0.000622283
0.000272454
0.00154633
9.87414e-05
-0.000324041
0.000787863
0.00333556
-0.00379938
-0.000660344
0.0032614
-0.0029251
0.000135533
-0.00028875
0.000153217
-0.00166458
0.00122082
0.000579289
-0.00466083
0.000190702
0.00333671
0.00113342
0.00122703
-0.00473083
-0.00115703
-0.000133345
-0.000198624
-0.00070539
0.00103736
-0.000288629
0.000177411
-2.21265e-05
-0.00255549
0.00216802
0.000738102
-0.000350634
-0.00305706
0.000924578
-0.000423009
-0.00112802
0.000596555
0.000456915
7.45504e-05
-0.000779169
-0.000362388
1.35368e-05
-0.000367484
-0.00113458
0.00129185
0.000210219
-0.000416323
0.00011648
-6.76416e-05
0.000851232
-0.000567001
-0.000528082
0.000243851
-0.000734921
0.000586914
0.00099924
-0.00100465
-0.00192518
0.00185159
0.00107823
-0.00227468
-0.000547323
0.00181735
-0.000707653
-0.000152183
0.000859836
-0.000271398
-0.000436255
-0.0013749
0.00189269
-0.00078919
0.000203153
-0.000767396
-0.000810656
-0.000649212
0.000908472
-0.000233103
-0.00190179
0.0011508
0.000750988
-0.00432155
0.00241977
0.00491304
-0.000915707
0.000436047
-0.00443338
0.00362373
5.81469e-06
0.0012835
-0.000819473
0.00489102
-0.00498726
0.00159808
0.000341883
-0.00162989
0.00160854
-0.000103972
0.00194383
-0.000728317
-0.00144636
0.000230851
0.00217659
0.000109116
0.00100224
-0.000621517
0.00122781
0.00096018
0.00133641
-0.00474419
-0.000643624
0.000558667
0.00482915
-0.00487713
-0.000308791
0.000441731
0.00120758
0.00451369
-0.00443808
-0.0012832
0.000878614
-0.00430445
-0.00279926
0.0025392
0.00254904
-0.00228898
-0.0002868
0.00321368
-0.00572614
1.49325e-05
-0.00011765
-8.12543e-07
0.00010353
-0.000323401
1.04393e-05
6.75492e-05
-0.000136856
-0.000254093
-5.68318e-05
6.73068e-06
1.13014e-05
-1.21139e-05
8.95422e-06
2.34719e-06
0.00731645
0.00378602
-0.0058879
-0.00521457
0.0023353
-0.000700279
0.00568142
-0.00786407
0.00309511
0.00710426
0.00228902
-0.00636707
0.0016235
-0.00286662
0.0021346
-0.000891478
0.00235748
-0.00291537
0.00218139
-3.00188e-05
2.19433e-05
-2.58399e-06
-7.05292e-05
-3.45663e-06
-0.00022373
-2.91764e-05
-0.00294007
0.00535096
0.00339278
-0.00580367
0.00436311
-0.00494571
0.00298405
0.004751
-0.00238408
0.0101056
-0.00149305
-0.00178639
-0.00682614
0.0022347
0.00543411
0.00243678
0.00160023
-0.00501991
0.00565438
4.6867e-05
-7.56723e-05
0.000127859
0.00081753
0.00175937
-0.000626989
-0.00194992
0.00104158
9.98163e-05
-9.61923e-05
2.64649e-05
6.97274e-05
-0.000299087
0.000202894
-0.00661015
0.0034226
-0.00201383
0.00520138
-0.00574444
-0.00250141
0.0016357
-0.00262607
0.00209031
-0.00520868
0.00195318
-2.65514e-05
-0.000944767
-0.00098186
-0.000712057
0.00222896
0.000436279
-0.000835196
-8.52927e-05
0.000208432
-0.00077204
-8.97074e-05
-0.000271599
-0.00144521
-0.000239591
-6.31299e-05
1.87991e-05
0.000283922
-0.000217659
-0.000527408
0.000505475
0.000138607
1.69334e-05
-0.0003732
7.97641e-05
-4.28664e-06
0.000101203
-2.63997e-06
-0.000641468
0.000369869
8.34525e-05
-0.00072492
0.000172722
-0.000471809
0.00427357
0.00333165
-0.000178504
0.00212869
-0.00648333
-1.03046e-05
0.00226386
-0.00179744
-0.000456115
0.000291864
0.00316401
-0.00346618
0.00327409
0.00185576
-0.000513753
-0.0046161
-0.00102609
0.000490366
0.00380982
0.0040069
-0.00317723
-0.00164103
-0.00303502
0.00124819
0.00342786
-0.00118736
0.00350584
-0.00395951
0.000420518
-0.00464289
8.3225e-05
3.40745e-05
-4.64641e-06
0.00105049
-0.000619124
-0.000594905
7.7507e-05
-0.000327177
0.00130016
0.000365661
-1.91795e-05
-0.000187305
0.000331835
6.83456e-05
-0.000212876
0.000991878
-0.00121514
3.59575e-05
-0.000357633
0.000831079
0.000518433
-0.000125104
9.93052e-05
-0.00612048
0.0036496
0.00589348
0.00772413
-0.00201041
-0.00821513
-0.00286017
0.00446382
-9.71373e-05
-0.000874958
-0.00016249
-0.000522606
9.14632e-06
4.79496e-05
-0.000129961
3.71772e-05
4.48343e-05
-0.000130062
0.000144625
3.33861e-05
-0.000299602
3.95793e-05
-0.000265518
-0.000312971
5.58825e-05
-0.000804332
-0.000336143
-0.000914447
-0.000981911
0.00112312
0.000773237
3.75706e-05
0.000483118
-0.00143514
-0.00128147
0.000337133
-0.00293603
0.00133144
-5.9995e-05
-0.00350475
0.000809702
-0.000240982
0.000876132
-0.00334728
0.00256402
-9.28694e-05
0.000679135
-0.00272822
0.00292521
0.00252834
-0.0101972
-0.00176724
0.00218373
0.00302341
-0.00345921
0.00206184
-0.000321337
5.22694e-07
1.64107e-05
-3.35822e-06
3.88092e-06
0.00028447
-4.1324e-05
0.00559996
-0.00340601
-0.00243086
0.000236908
0.00483173
-5.12419e-05
0.00466262
0.000150743
-0.00510017
0.00137076
0.00331241
-2.05411e-05
0.000542832
-0.00293085
0.00375878
5.45381e-06
-8.81204e-06
0.000759474
-0.00212123
-0.00284846
0.00123317
0.00308609
0.00095915
-5.42067e-05
-0.00100857
0.000103623
0.000317535
-9.3306e-05
-0.00123323
0.000268443
0.00155171
0.000222762
-0.00113846
-0.000134916
7.55306e-05
-7.2637e-06
1.02913e-05
-2.70922e-06
-3.18362e-07
1.09754e-05
-2.46036e-07
-1.79931e-05
4.69492e-05
-0.000104475
6.85009e-05
-0.00172362
0.00265997
-0.000763633
0.00292158
-0.00379403
-0.00085116
5.52351e-06
-0.00168874
0.00195166
-0.00399994
0.0002426
-0.00274155
-0.00183596
0.000577578
0.00269347
0.00291095
-0.00541372
0.00260422
0.00429548
-0.00420623
0.00223965
-0.00308467
0.00160684
-0.000761822
0.00245473
-0.00302388
0.0028088
0.00437235
0.00187531
0.00499379
-0.000239622
-0.0049603
0.000206126
0.00553187
-0.000667445
0.000129368
0.00552964
-0.00089658
7.44965e-05
-0.00470756
0.00396967
-0.00136868
0.00292866
0.00430854
-0.00140161
0.00113827
-0.0040452
0.00126655
0.00438885
-0.00134686
-0.00387702
-0.00166359
0.004139
0.00106435
-0.00369317
-0.00185696
0.00362122
-0.00237631
-0.00324056
0.00215173
0.00346513
-0.00239285
-0.00326878
0.00328533
0.00223308
0.00304772
-0.00147291
-0.00380789
0.00302163
-0.00318139
-0.00258739
0.00261132
0.0029977
-0.00203951
0.00249983
-0.00407021
0.00361631
-0.00101902
-0.00506745
0.0010516
0.0053767
-0.00136085
0.00190912
-0.000268341
0.00100191
-0.00106753
0.000333966
-0.000110879
0.00128444
-0.0014419
-5.33632e-05
0.000307481
0.000111544
-0.00123508
-0.00192292
0.00124979
-1.54932e-07
-9.11041e-08
3.11169e-07
-4.66102e-07
-0.000116472
-0.00212717
0.00162212
-0.00188968
-7.8964e-05
0.00185218
5.45442e-05
-0.00198075
3.65234e-05
-0.000277827
0.00177306
0.000303325
-0.00179856
0.00182861
0.000511057
-0.00261749
0.00181495
0.00178672
-2.49418e-06
4.90763e-07
3.6078e-05
-4.7934e-06
2.29922e-06
-4.30264e-06
-5.6074e-06
4.31768e-06
-5.55421e-05
1.06558e-06
-6.67299e-06
5.38327e-06
-4.42308e-05
2.14204e-05
-0.000265819
2.23667e-05
-6.65974e-05
4.37871e-05
5.32063e-05
-5.33762e-06
-0.000172973
-1.69084e-05
7.01147e-05
-2.22461e-05
0.00141894
0.00328635
-0.00421492
0.00134021
-0.0044794
0.00455812
0.00471985
-9.32871e-05
-0.00118241
-0.00244453
0.00115824
0.0024687
-0.000710454
0.00272191
-0.00319386
0.000157352
-0.00331234
0.00416275
-0.00419015
-1.36094e-05
4.10085e-05
0.00417207
3.72432e-05
-4.65665e-05
-2.64514e-05
-0.00417116
7.464e-06
0.00421383
-1.73238e-06
-4.00275e-05
0.00429882
6.0987e-05
-0.000145979
2.98389e-05
0.00441547
-0.000146491
0.00436199
-0.00432686
-5.29204e-06
-0.000206224
0.00463101
-9.30921e-06
0.00424916
-9.33903e-05
-0.00418465
-8.12267e-05
-0.00415988
-2.65029e-05
-0.00414295
2.03162e-05
-0.00421975
6.3193e-05
-0.00413809
-0.00010811
-0.000200687
0.00484067
-8.97993e-06
0.0040583
-9.83181e-06
-2.11163e-05
-0.00412251
-2.75288e-05
-0.00415823
-9.75173e-07
-2.97262e-05
-0.00434572
0.000252929
-1.17629e-06
0.00484992
-8.06967e-06
0.00406676
-9.63343e-06
-0.00429593
0.000107972
0.00485868
-9.95066e-07
-7.76569e-06
-1.11542e-06
0.00486666
-6.86706e-06
0.00407442
-8.65297e-06
0.00408188
-8.57974e-06
-2.50312e-05
-0.00430357
-1.71142e-05
-0.00430284
-1.81268e-05
-8.59808e-07
0.00487416
-6.63959e-06
0.00408867
-7.65326e-06
-7.03425e-07
-0.00428489
-1.79737e-05
-0.004284
-1.95356e-05
-8.54241e-07
0.00488081
-5.78838e-06
0.00409548
-7.65897e-06
-6.36891e-07
-0.00426505
-1.92104e-05
-0.00426429
-2.03461e-05
-3.39948e-07
0.00488678
-5.63699e-06
0.00410192
-6.7759e-06
-8.14477e-07
-0.0042442
-2.00344e-05
-0.0042433
-2.18114e-05
1.70568e-07
0.00489144
-4.83154e-06
0.00410894
-6.84978e-06
-7.75181e-07
-0.00422219
-2.12356e-05
-0.00422135
-2.27187e-05
1.68689e-06
0.0048945
-4.74793e-06
0.00411663
-6.00595e-06
8.80513e-06
-0.00420894
-2.20553e-05
-0.00418834
-2.42118e-05
4.21015e-06
0.00489428
-3.98202e-06
0.00412697
-6.13639e-06
2.62947e-05
-0.00406708
-0.000168153
-0.00409368
-6.83666e-05
9.77555e-06
0.00488846
-3.96267e-06
0.004123
1.37514e-05
2.56353e-05
-0.00406258
-3.0134e-05
-0.00403927
-2.87704e-05
2.03006e-05
0.0048714
-3.23352e-06
0.00409793
4.53663e-05
5.60329e-05
-0.00389458
-0.000224032
-0.00389829
-8.49512e-05
0.000207931
0.00466673
-3.26193e-06
0.0042263
7.95617e-05
6.38207e-05
-0.00385135
-0.000107048
-0.00383037
-4.09376e-06
0.000183731
0.00432625
0.000156743
0.0042995
0.000110533
0.000101631
-0.000171476
-0.00378151
-0.00378894
6.01952e-05
1.20128e-05
3.93307e-05
0.00427491
0.00427479
3.67234e-05
-0.00386893
0.00395563
-0.000193741
-0.00386417
-0.000176237
0.000173227
-0.000178603
-0.00377613
5.78324e-05
-0.00367354
-0.00389458
0.003952
-8.75596e-05
-0.000162981
-0.00382935
0.00385057
-4.32741e-05
-4.55032e-05
-0.00387063
0.00388975
-3.9152e-05
-4.1297e-05
-0.00390779
0.00392496
-3.51464e-05
-3.72477e-05
-0.00394118
0.00422545
-3.13457e-05
-3.33324e-05
-0.00422766
0.00418303
5.20942e-05
-2.97379e-05
-0.00433038
0.00430835
-2.45375e-05
-0.000106341
-0.00418095
0.00412982
-9.48445e-05
8.73728e-05
-0.00404099
0.00405039
-1.87044e-05
-5.76672e-05
-0.00405911
0.0040673
-1.62621e-05
-1.76959e-05
-0.00407492
0.00408211
-1.40499e-05
-1.53921e-05
-0.00408878
0.00409507
-1.20742e-05
-1.33176e-05
-0.00410091
0.0041064
-1.03242e-05
-1.14748e-05
-0.0041115
0.0041163
-8.78031e-06
-9.84749e-06
-0.00412075
0.00412493
-7.41638e-06
-8.41432e-06
-0.00410448
0.00420446
5.6756e-05
1.71961e-05
0.00419712
4.66749e-05
-2.66033e-05
8.06151e-05
0.0042209
-7.48002e-06
0.00425567
0.0042172
-0.00414413
6.4911e-06
-0.00426173
0.00425586
4.25919e-05
6.60082e-05
0.00413981
-0.00411625
-9.80479e-06
4.10441e-05
0.00411148
-0.00410633
-1.11602e-05
-1.09062e-05
0.00410086
-0.00409496
-1.2679e-05
-1.23174e-05
0.0040887
-0.00408194
-1.44085e-05
-1.39188e-05
0.00407478
-0.00406705
-1.63785e-05
-1.57443e-05
0.00405886
-0.00405007
-1.8629e-05
-1.78258e-05
0.00412325
-0.0041074
-2.11453e-05
-2.02072e-05
0.0041658
-0.00410959
-8.27164e-05
-2.28172e-05
0.00407098
-0.00403196
2.41673e-05
-1.82937e-05
0.00406915
-0.00408133
1.11995e-05
-7.09124e-05
0.0039407
-0.00392446
-3.43681e-05
-3.26557e-05
0.00390739
-0.00388924
-3.84945e-05
-3.66076e-05
0.00387021
-0.00385003
-4.28951e-05
-4.08448e-05
0.0038289
-0.00384972
-4.75479e-05
-4.53407e-05
0.00382841
-0.00386092
-5.24403e-05
-5.00773e-05
0.00380992
-0.00372898
-2.07471e-05
-5.50961e-05
-0.00366268
-8.46996e-06
-0.00386579
-0.000176981
0.00421312
6.46095e-05
-6.40865e-06
0.00425479
0.000104881
-0.000119736
-0.00365869
4.9521e-05
-0.00360732
0.000152915
-0.000173834
-0.00384488
-0.00374295
-0.00385379
0.00381544
-0.000155395
0.00387243
-0.00387773
-0.000171675
-0.000157597
-0.00378974
0.00381268
-0.000110497
-0.000137283
-0.0038345
0.00385539
-6.41611e-05
-6.73259e-05
-0.00387513
0.00389394
-5.7964e-05
-6.10356e-05
-0.00391168
0.00392857
-5.20287e-05
-5.49896e-05
-0.00394447
0.00395954
-4.64208e-05
-4.92324e-05
-0.00397367
0.00406699
-4.12287e-05
-4.38646e-05
-0.00399955
0.00401142
-3.6409e-05
-3.89029e-05
-0.0041331
0.00407029
-3.20279e-05
-3.43066e-05
-0.00404272
0.00405197
-2.79559e-05
-3.00972e-05
-0.00406057
0.00406866
-2.43548e-05
-2.62972e-05
-0.00407619
0.00408328
-2.11379e-05
-2.29183e-05
-0.00408986
0.00409607
-1.82768e-05
-1.99054e-05
-0.00410183
0.00410725
-1.57469e-05
-1.72353e-05
-0.00411228
0.00411702
-1.35189e-05
-1.4881e-05
-0.00412142
0.00412555
-1.15518e-05
-1.28103e-05
-0.00412909
0.00416582
2.00221e-05
1.36601e-05
7.91622e-06
-1.96137e-05
0.0042326
-2.30267e-06
0.00422334
-0.00415647
0.00420056
2.05231e-05
5.60267e-05
0.00420013
-0.00419796
4.04233e-05
0.0041692
2.45209e-05
1.26494e-06
4.31154e-05
0.00421041
0.00423732
0.00419524
-0.00416112
-2.76323e-05
6.32866e-05
0.00412142
-0.00411696
-1.42649e-05
1.34688e-06
0.00411224
-0.00410714
-1.62573e-05
-1.56274e-05
0.00410174
-0.00409591
-1.85118e-05
-1.77196e-05
0.00408972
-0.00408305
-2.10795e-05
-2.01016e-05
0.00407598
-0.00406836
-2.39985e-05
-2.28144e-05
0.00406029
-0.00405162
-2.73061e-05
-2.58959e-05
0.00404245
-0.00403258
-3.10142e-05
-2.93781e-05
0.00402213
-0.00406967
-3.5174e-05
-3.32641e-05
0.00405036
-0.00398644
-3.97518e-05
-3.76073e-05
0.00401492
-0.00395886
-4.48587e-05
-4.24308e-05
0.00394383
-0.00392782
-5.03794e-05
-4.76836e-05
0.00391101
-0.00389313
-5.6369e-05
-5.34236e-05
0.00387439
-0.00385452
-6.27681e-05
-5.95883e-05
0.00383371
-0.00381172
-6.95399e-05
-6.61435e-05
0.00378875
-0.00376455
-7.6641e-05
-7.30503e-05
0.00373938
-0.00367614
-8.3984e-05
-8.02676e-05
0.00362864
-0.0035526
-2.65152e-05
-5.59704e-05
-0.00387664
-0.000174931
3.16645e-05
-0.000115841
-0.00352314
-0.00350275
-1.81921e-05
-0.000199464
-0.00357506
1.9941e-05
0.00417831
0.00417833
3.39903e-05
-0.000113185
0.000104976
-0.00383667
-0.000140124
-0.0038497
3.82165e-06
-0.000109906
-0.00341706
-4.78404e-05
-0.00345108
-0.00383744
0.00421174
-0.00419658
5.36309e-06
0.0041713
6.03812e-05
6.85474e-05
-2.86618e-05
0.00417052
4.03643e-05
0.00420651
-0.00382143
0.0038916
-0.000210293
-0.000195507
0.000144296
-0.00379849
0.00388007
1.54225e-05
0.000197354
-0.00409285
-0.000136871
-0.0039145
0.00390947
-0.000166648
-0.000197824
-0.00388353
0.00384438
-0.000116241
-0.000131661
-0.00383819
0.00382079
-9.30963e-05
-0.00013109
-0.0038421
0.00386246
-8.45211e-05
-8.86419e-05
-0.0038817
0.00390004
-7.63021e-05
-8.02754e-05
-0.00391734
0.00393379
-6.84869e-05
-7.22855e-05
-0.00394929
0.003964
-6.11318e-05
-6.47253e-05
-0.0039778
0.00399087
-5.42983e-05
-5.76622e-05
-0.0040031
0.00401468
-4.79964e-05
-5.11339e-05
-0.0040255
0.00403572
-4.22426e-05
-4.5127e-05
-0.00404528
0.00405431
-3.69889e-05
-3.96578e-05
-0.00406273
0.00407065
-3.22825e-05
-3.47103e-05
-0.00407803
0.00408497
-2.80851e-05
-3.02928e-05
-0.00409143
0.00409751
-2.43589e-05
-2.63631e-05
-0.00410316
0.00410848
-2.10674e-05
-2.2885e-05
-0.00411342
0.00411808
-1.81711e-05
-1.98208e-05
-0.00412239
0.00412646
-1.56207e-05
-1.71283e-05
-0.00414162
0.00415197
9.67262e-06
-1.49731e-06
1.14189e-05
2.57441e-05
-1.07603e-05
0.00421761
-4.01714e-05
5.5135e-06
0.00421297
0.00420892
0.0041979
0.00418904
-0.00418152
3.29063e-05
-0.00418588
0.00416569
5.41851e-05
2.76793e-05
0.00413028
-0.00414156
-1.63493e-05
1.20402e-05
0.00412238
-0.00411799
-1.86507e-05
-1.78364e-05
0.00411335
-0.00410834
-2.12652e-05
-2.02661e-05
0.00410304
-0.00409731
-2.42386e-05
-2.30252e-05
0.00409124
-0.0040847
-2.7624e-05
-2.61694e-05
0.00407777
-0.0040703
-3.14668e-05
-2.97467e-05
0.00406239
-0.00405389
-3.5809e-05
-3.38011e-05
0.0040449
-0.00403523
-4.06803e-05
-3.83698e-05
0.00402501
-0.00401406
-4.61248e-05
-4.34834e-05
0.00400249
-0.0039901
-5.21483e-05
-4.91769e-05
0.00397705
-0.00396312
-5.87899e-05
-5.54779e-05
0.00394844
-0.0039328
-6.60148e-05
-6.23624e-05
0.00391638
-0.00389893
-7.38203e-05
-6.98446e-05
0.00388064
-0.00386125
-8.21589e-05
-7.78821e-05
0.00384096
-0.00381952
-9.09781e-05
-8.64288e-05
0.00379715
-0.00377358
-0.000100211
-9.54258e-05
0.00374905
-0.00372327
-0.000109762
-0.000104798
0.00366479
-0.00357169
-0.000119616
-0.00011445
0.00350689
-0.00348809
-6.66463e-05
-8.29902e-05
-3.78463e-05
1.05084e-05
-0.00342375
-0.00344317
-8.27667e-05
0.000136306
-0.00382868
-8.13906e-05
-0.00360358
3.19864e-05
0.00414483
0.00418256
2.34925e-05
0.000190379
-0.00397344
4.48533e-05
-0.0034514
0.000868789
-0.00316077
0.00410692
4.67444e-05
-9.68645e-05
-0.00339305
-1.57335e-05
-0.00336127
-0.00251193
0.00385342
0.00044523
-0.00190895
-0.00029966
-0.00378253
-0.00368637
0.00387027
1.34475e-05
0.000181135
-1.40771e-05
-0.00385779
0.00384782
-0.000200325
-0.00012439
-0.00384145
0.00381199
-0.000137189
-0.000191448
-0.00381149
0.00382106
-0.00012581
-0.000131168
-0.00380994
0.00383157
-0.000114734
-0.000119965
-0.0038521
0.00387172
-0.000104137
-0.000109166
-0.00389027
0.00390797
-9.40036e-05
-9.88325e-05
-0.00392468
0.00394058
-8.43916e-05
-8.89914e-05
-0.00395556
0.00396979
-7.53598e-05
-7.97011e-05
-0.00398315
0.00399581
-6.6964e-05
-7.10214e-05
-0.00400767
0.00401891
-5.92298e-05
-6.29952e-05
-0.00402941
0.00403933
-5.21656e-05
-5.56313e-05
-0.00404861
0.00405737
-4.57524e-05
-4.89321e-05
-0.00406554
0.00407325
-3.99893e-05
-4.28809e-05
-0.00408042
0.00408719
-3.48473e-05
-3.74669e-05
-0.00409348
0.0040994
-3.02843e-05
-3.26517e-05
-0.00410491
0.00411009
-2.6255e-05
-2.83913e-05
-0.00411491
0.00411945
-2.27109e-05
-2.4639e-05
-0.00412367
0.00412765
-1.95976e-05
-2.13444e-05
-0.0041446
0.00417113
-1.68598e-05
-1.84471e-05
-0.00416418
0.00416449
5.05163e-06
1.83667e-05
-0.00418356
0.00418115
3.43986e-05
4.13118e-05
5.21254e-05
-2.86808e-05
0.00418953
-2.73534e-05
-3.00136e-06
0.0042115
0.0041696
3.9422e-05
1.58847e-05
0.00416231
0.00421966
-2.53507e-05
1.40268e-05
0.00418185
0.00418843
-1.63468e-05
-7.02878e-06
0.00420593
0.00420419
0.00420494
-0.0041875
3.67511e-05
-0.00427226
0.00416096
0.000104271
-4.3831e-05
0.00417436
-0.00416257
2.11098e-05
1.45381e-05
0.00413135
-0.0041276
-2.01027e-05
-1.91727e-05
0.00412363
-0.00411935
-2.29332e-05
-2.18063e-05
0.00411482
-0.00410993
-2.61547e-05
-2.47963e-05
0.00410475
-0.00409916
-2.98256e-05
-2.82032e-05
0.00409325
-0.00408687
-3.40027e-05
-3.20863e-05
0.00408011
-0.00407284
-3.87391e-05
-3.65001e-05
0.00406515
-0.00405687
-4.40837e-05
-4.14959e-05
0.00404812
-0.00403872
-5.00789e-05
-4.71197e-05
0.00402879
-0.00401815
-5.67667e-05
-5.34132e-05
0.00400692
-0.0039949
-6.41698e-05
-6.04107e-05
0.00398224
-0.00396872
-7.23048e-05
-6.8136e-05
0.0039545
-0.00393936
-8.11576e-05
-7.65822e-05
0.00392346
-0.00390658
-9.07064e-05
-8.57417e-05
0.00388889
-0.00387014
-0.0001009
-9.55739e-05
0.00385055
-0.00382986
-0.000111671
-0.000106021
0.00380828
-0.00378556
-0.000122932
-0.000117006
0.00376192
-0.00373711
-0.000134576
-0.000128433
0.00371137
-0.00368447
-0.00014651
-0.000140192
0.00361528
-0.00352327
-0.000158656
-0.000152183
0.00350122
-0.00346073
-0.000137351
-0.000104818
-9.40283e-05
6.76554e-05
-0.00336667
-0.00340804
-0.000146719
0.000131148
-0.00376945
-1.70193e-05
-0.00354171
0.000333578
-0.00343823
4.71494e-05
-0.00351428
0.00418391
-0.0041875
3.7985e-05
0.00417133
9.58076e-06
4.23459e-05
-2.79361e-05
0.00419153
1.67187e-06
0.00420163
0.0003549
-0.00300461
8.4642e-05
-0.00337826
-0.00168008
-0.00202742
-0.00298576
0.00347076
-3.97724e-05
-7.53945e-05
6.56849e-05
-0.00335696
-0.000124999
-0.00335844
-0.00273938
-0.000546039
-0.0036684
-0.00365172
0.00372593
-6.0765e-05
1.75074e-07
-0.00378264
0.00375708
-0.00017477
-0.000181095
-0.00373322
0.00375735
-0.000161323
-0.000167582
-0.00378051
0.00380286
-0.000148156
-0.000154329
-0.00382422
0.00384476
-0.000135275
-0.000141326
-0.00386429
0.00388299
-0.000122837
-0.000128695
-0.00390071
0.00391763
-0.000110924
-0.00011655
-0.00393361
0.00394884
-9.96226e-05
-0.000104976
-0.0039632
0.00397684
-8.90053e-05
-9.40528e-05
-0.00398966
0.00400183
-7.91318e-05
-8.38457e-05
-0.00401324
0.00402405
-7.00363e-05
-7.44028e-05
-0.00403416
0.00404372
-6.17292e-05
-6.57437e-05
-0.00405266
0.00406111
-5.41992e-05
-5.78692e-05
-0.00406899
0.00407643
-4.74283e-05
-5.07614e-05
-0.00408336
0.00408989
-4.13835e-05
-4.43967e-05
-0.00409597
0.00410171
-3.60186e-05
-3.87339e-05
-0.00410704
0.00411207
-3.12805e-05
-3.3723e-05
-0.00411674
0.00412114
-2.71135e-05
-2.93091e-05
-0.00412523
0.00412909
-2.34576e-05
-2.54349e-05
-0.00413268
0.00413607
-2.02483e-05
-2.20371e-05
-0.00417349
0.00416195
1.65902e-05
-1.90547e-05
1.57651e-05
3.90277e-05
-6.79956e-05
0.0042185
-1.07197e-05
2.17954e-05
0.00420043
0.00419791
-1.30456e-06
-1.12217e-06
0.00416473
0.00415036
-3.7094e-05
5.45144e-05
0.00416443
0.00415021
0.00423077
0.00420829
-0.00419332
2.17784e-05
-0.00415856
0.00420258
6.02557e-05
5.89637e-06
0.00417799
-0.00413606
-2.08152e-05
-7.94037e-07
0.00413267
-0.00412903
-2.37496e-05
-2.25594e-05
0.00412517
-0.00412102
-2.70892e-05
-2.56599e-05
0.00411662
-0.00411188
-3.08983e-05
-2.91929e-05
0.00410686
-0.00410144
-3.52405e-05
-3.32245e-05
0.00409571
-0.00408953
-4.01785e-05
-3.7818e-05
0.004083
-0.00407596
-4.57723e-05
-4.3035e-05
0.00406853
-0.00406053
-5.20789e-05
-4.89342e-05
0.00405208
-0.00404301
-5.91488e-05
-5.55697e-05
0.00403344
-0.00402318
-6.7026e-05
-6.29895e-05
0.00401236
-0.00400079
-7.57388e-05
-7.12306e-05
0.00398861
-0.00397561
-8.52991e-05
-8.03156e-05
0.00396195
-0.00394742
-9.56952e-05
-9.02424e-05
0.00393216
-0.00391597
-0.000106895
-0.000100993
0.00389903
-0.00388109
-0.000118839
-0.000112522
0.00386235
-0.00384258
-0.000131444
-0.000124758
0.00382198
-0.00380031
-0.000144603
-0.000137607
0.00377779
-0.00375418
-0.000158183
-0.00015095
0.00372972
-0.00370419
-0.000172045
-0.00016465
0.00367782
-0.00365045
-0.000186026
-0.000178548
0.0035628
-0.0035003
-0.00019985
-0.000192475
0.00344082
-0.00338771
-0.000178113
-0.000206195
-9.63796e-05
9.58929e-05
-0.00335795
-0.00334332
-0.000140769
0.000101517
-0.00353739
1.21331e-05
-0.00350669
3.87929e-05
0.00415433
0.0041891
1.51451e-05
0.000212372
-0.0032957
-0.000328035
-0.00396954
1.87941e-05
-0.00335144
4.93699e-05
-0.00347901
8.7714e-05
-0.00340028
-0.00390661
-0.00086019
0.000297081
-0.000585891
-0.0036178
-0.000169679
-0.00350278
6.94744e-05
-0.00333054
-0.000135971
5.377e-05
-0.00327575
-0.000128261
-0.00335103
-0.00355475
-0.00329631
0.00347176
-0.000215224
0.00344138
-0.003749
-0.000552566
-0.000400969
-0.00360605
0.00368359
-0.000138309
-0.000134118
-0.0037081
0.00373209
-0.000198757
-0.000205603
-0.00375533
0.00377792
-0.000183909
-0.000190825
-0.00379962
0.00382061
-0.000169139
-0.000176036
-0.00384068
0.00386001
-0.000154605
-0.000161401
-0.00387842
0.00389608
-0.000140494
-0.000147103
-0.00391283
0.00392885
-0.000126945
-0.000133303
-0.003944
0.00395846
-0.000114075
-0.000120129
-0.00397209
0.00398506
-0.000101978
-0.000107684
-0.00399726
0.00400885
-9.07216e-05
-9.60494e-05
-0.00401973
0.00403004
-8.03477e-05
-8.52795e-05
-0.0040397
0.00404884
-7.08708e-05
-7.5401e-05
-0.00405739
0.00406547
-6.2282e-05
-6.64166e-05
-0.00407302
0.00408015
-5.45569e-05
-5.83075e-05
-0.00408679
0.00409306
-4.76566e-05
-5.10425e-05
-0.00409891
0.00410442
-4.15297e-05
-4.45756e-05
-0.00410955
0.00411438
-3.6117e-05
-3.88507e-05
-0.00411888
0.00412312
-3.13552e-05
-3.38062e-05
-0.00412706
0.00413078
-2.71785e-05
-2.93778e-05
-0.00413425
0.00413752
-2.35195e-05
-2.54983e-05
-0.00414056
0.00417746
-2.03098e-05
-2.20991e-05
-0.00418302
0.00419505
2.59478e-05
1.02092e-05
-0.00414128
0.00416092
1.91498e-05
6.3357e-05
6.09957e-05
-4.46777e-05
0.00418411
-3.83849e-06
-2.17717e-05
0.00418653
0.00421149
4.69993e-05
3.38564e-06
0.00416811
0.00420023
-1.13612e-06
-1.13413e-06
0.004167
0.00415261
3.39358e-06
-5.64501e-06
0.00416668
0.00415247
-2.32097e-05
1.49866e-05
0.00419975
0.00420191
-5.98739e-06
9.51983e-06
0.00418557
0.00421063
0.00421765
-0.00416787
1.04725e-05
-0.00420012
0.0041776
3.2036e-05
3.26806e-05
0.00417409
-0.00416251
1.02015e-05
1.21172e-05
0.00414059
-0.0041375
-2.39084e-05
-2.27116e-05
0.00413423
-0.00413072
-2.72675e-05
-2.58257e-05
0.004127
-0.00412299
-3.1098e-05
-2.93771e-05
0.00411875
-0.00411418
-3.54704e-05
-3.34326e-05
0.00410934
-0.00410413
-4.04535e-05
-3.80614e-05
0.00409861
-0.00409268
-4.61163e-05
-4.33325e-05
0.0040864
-0.00407964
-5.25259e-05
-4.93142e-05
0.00407251
-0.00406484
-5.97459e-05
-5.60721e-05
0.00405674
-0.00404806
-6.78332e-05
-6.36671e-05
0.0040389
-0.00402909
-7.68348e-05
-7.21519e-05
0.00401875
-0.00400771
-8.67809e-05
-8.15663e-05
0.00399609
-0.00398371
-9.76821e-05
-9.19324e-05
0.0039707
-0.00395687
-0.000109524
-0.000103248
0.00394238
-0.00392701
-0.000122267
-0.000115489
0.00391093
-0.00389393
-0.00013584
-0.0001286
0.00387619
-0.00385749
-0.000150144
-0.000142498
0.00383803
-0.00381758
-0.000165049
-0.000157068
0.00379636
-0.00377414
-0.000180399
-0.00017217
0.00375116
-0.00372719
-0.000196014
-0.000187635
0.00370247
-0.00367681
-0.000211687
-0.000203268
0.00365044
-0.00362315
-0.000227145
-0.000218842
0.00359523
-0.00353113
-0.000242212
-0.00023411
0.00346857
-0.00338407
-0.000212761
-0.000203328
-0.000181951
0.000121802
-0.00329088
-0.00335593
-0.000210097
7.31245e-05
-0.00339814
-0.00376025
-0.000574644
7.32644e-05
-0.00335017
0.00421534
-0.00422397
2.77761e-05
0.00421351
-1.9941e-05
3.24875e-05
-2.80498e-05
0.00418113
4.18843e-05
0.0041682
1.33745e-05
-0.00347069
5.14718e-05
-0.00344277
-1.62082e-05
-0.00350491
9.04702e-05
-0.00342128
0.000130355
-0.00340713
0.000170808
-0.00332476
-0.000171459
0.000169455
-0.00328887
-0.000236589
-0.0032908
-0.00346825
-0.00371608
0.00357429
-0.000410775
-0.000507021
0.000595047
-0.00384827
0.00383903
-0.00395761
-0.000388438
-0.000451697
-0.00346778
0.00355221
-0.000299655
-0.000294462
-0.00364753
0.00371251
-0.000203283
-0.000229436
-0.00373548
0.00375788
-0.000221156
-0.000228576
-0.00377952
0.00380055
-0.000204933
-0.00021247
-0.00382076
0.0038403
-0.000188685
-0.000196246
-0.00385902
0.00387705
-0.00017264
-0.000180115
-0.00389425
0.00391077
-0.00015701
-0.0001643
-0.00392646
0.00394148
-0.000141968
-0.000148994
-0.00395571
0.00396929
-0.000127661
-0.000134356
-0.00398212
0.00399434
-0.000114199
-0.000120512
-0.00400585
0.00401679
-0.000101663
-0.000107559
-0.00402707
0.00403683
-9.01027e-05
-9.5559e-05
-0.00404597
0.00405464
-7.9536e-05
-8.45462e-05
-0.00406275
0.00407042
-6.99564e-05
-7.45256e-05
-0.00407759
0.00408437
-6.13366e-05
-6.54783e-05
-0.0040907
0.00409668
-5.36329e-05
-5.73686e-05
-0.00410225
0.0041075
-4.67887e-05
-5.01455e-05
-0.0041124
0.00411702
-4.07392e-05
-4.37477e-05
-0.00412132
0.00412538
-3.54146e-05
-3.81072e-05
-0.00412916
0.00413272
-3.07434e-05
-3.31536e-05
-0.00413604
0.00413917
-2.66534e-05
-2.88146e-05
-0.00414209
0.00414486
-2.30709e-05
-2.50181e-05
-0.00417676
0.00419409
8.6121e-06
-2.16916e-05
3.34831e-05
1.17918e-05
-3.96451e-05
0.00421196
-2.20653e-05
-9.32151e-06
0.00421792
0.00420121
-5.17359e-06
3.08522e-06
0.0041702
0.00415541
-9.79368e-07
-1.14597e-06
0.00416913
0.00415471
3.26251e-06
-5.37297e-06
0.00416879
0.00415459
-4.14988e-05
2.72056e-05
0.00421404
0.00415504
0.00420979
0.00421275
-0.00421322
1.09374e-05
-0.0042056
0.00418891
4.87245e-05
3.98359e-05
0.00417867
-0.00414489
-2.3584e-05
-2.24257e-05
0.00414213
-0.00413916
-2.68776e-05
-2.5469e-05
0.00413603
-0.00413266
-3.06409e-05
-2.89562e-05
0.00412909
-0.00412525
-3.49397e-05
-3.29406e-05
0.00412119
-0.00411682
-3.98469e-05
-3.74935e-05
0.00411219
-0.00410721
-4.54366e-05
-4.26884e-05
0.00410194
-0.00409627
-5.17837e-05
-4.86e-05
0.00409028
-0.00408385
-5.89618e-05
-5.53028e-05
0.00407705
-0.00406976
-6.70402e-05
-6.28688e-05
0.00406206
-0.00405381
-7.60805e-05
-7.1364e-05
0.00404512
-0.00403582
-8.61324e-05
-8.08453e-05
0.00402603
-0.00401559
-9.72271e-05
-9.1354e-05
0.00400461
-0.00399292
-0.000109374
-0.000102912
0.00398065
-0.00396762
-0.000122553
-0.000115515
0.00395398
-0.00393953
-0.000136718
-0.000129132
0.00392443
-0.00390848
-0.000151785
-0.000143698
0.00389187
-0.00387437
-0.000167639
-0.000159115
0.00385619
-0.00383711
-0.000184129
-0.000175252
0.00381733
-0.00379666
-0.000201075
-0.000191944
0.0037753
-0.00375304
-0.000218265
-0.000208997
0.00373013
-0.00370635
-0.000235462
-0.000226184
0.00368194
-0.00365669
-0.000252393
-0.000243255
0.00363086
-0.00360425
-0.000268824
-0.000259946
0.00353159
-0.0034599
-0.000284454
-0.000275981
0.00341552
-0.00339533
-0.000256783
-0.000254473
-0.00036351
0.000144615
-0.00328389
-0.00338626
-0.000205536
0.000206326
-0.00329159
-0.00331947
-0.000281393
2.23071e-05
-0.00334718
3.50952e-05
0.00416909
0.0042258
4.98975e-06
0.000319463
-0.00389624
-0.000380832
1.46975e-05
-0.00343392
0.000394228
-0.00392304
2.29969e-05
-0.00338938
5.32841e-05
-0.00340558
5.17678e-05
-0.00341206
9.31127e-05
-0.00338404
0.000133954
-0.00337028
0.000175273
-0.00333057
0.00018183
-0.00326438
-0.000238785
0.000207987
-0.00326079
-0.000262473
-0.00329578
-0.00343124
-0.00395219
0.0038228
-0.000259047
-0.000475502
-0.00380597
0.000385229
0.00402821
-0.00389899
-0.000604718
-0.000304817
-0.00374219
0.00368655
-0.000355133
-0.000371091
-0.00367472
0.00365046
-0.000275399
-0.000282628
-0.00368768
0.00374355
-0.000259157
-0.000266654
-0.00376486
0.00378559
-0.000241889
-0.000249883
-0.00380559
0.00382499
-0.000224336
-0.000232465
-0.00384364
0.00386168
-0.000206728
-0.000214895
-0.00387897
0.00389564
-0.00018931
-0.000197398
-0.00391155
0.00392684
-0.000172307
-0.000180211
-0.0039414
0.00395535
-0.000155918
-0.000163545
-0.00396857
0.00398122
-0.000140307
-0.000147582
-0.00399317
0.00400458
-0.000125603
-0.000132468
-0.00401533
0.00402556