/*--------------------------------*- C++ -*----------------------------------*\
  =========                 |
  \\      /  F ield         | OpenFOAM: The Open Source CFD Toolbox
   \\    /   O peration     | Website:  https://openfoam.org
    \\  /    A nd           | Version:  10
     \\/     M anipulation  |
\*---------------------------------------------------------------------------*/
FoamFile
{
    format      ascii;
    class       surfaceScalarField;
    location    "7";
    object      phi;
}
// * * * * * * * * * * * * * * * * * * * * * * * * * * * * * * * * * * * * * //

dimensions      [0 3 -1 0 0 0 0];

internalField   nonuniform List<scalar> 
81299
(
0.0320829
0.0267821
-0.0400294
-0.0188356
0.0512486
-0.0310591
0.0118935
-0.0529725
-0.024961
0.019784
0.0581495
-0.00924457
0.0299984
-0.0737264
0.075596
-0.0794413
-0.00539925
0.0585203
-0.00788533
0.0830066
-0.00470223
-0.043673
0.0342866
0.0675358
0.0447599
-0.0584344
-0.05837
-0.0313225
0.0112807
0.0784119
0.00128016
-0.0346354
-0.0250148
0.036988
-0.00791593
-0.0277919
-0.0175777
0.0232432
-0.0427233
-0.000233232
0.0542372
-0.0209325
0.00989104
-0.0316818
-0.0287858
-0.126004
0.0310707
0.110063
-0.0151304
-0.00871033
0.0183384
-0.0193678
0.0201365
0.0254851
-0.0199471
-0.0256745
0.000898731
0.0534708
-0.034233
-0.0379582
-0.0348694
-0.0113045
0.00335342
0.0155768
-0.0076257
-0.0177819
-0.00143852
0.000108921
-0.0383004
-0.0788619
0.0271028
0.0828298
0.0363984
-0.0477245
0.0799512
0.014239
-0.0670873
0.0750244
-0.00678605
0.0117128
-0.0605308
0.0338409
0.0461938
-0.0195039
-0.0088017
-0.0908718
0.0391427
0.0733657
-0.00714298
-0.014828
0.00138693
0.0131718
0.000968471
-0.0155272
0.0103561
0.00139095
-0.0103601
-0.00258161
0.00710324
0.00583444
0.00989031
0.000699887
0.0304377
-0.029944
-0.0109318
0.0104382
5.89984e-05
0.0327713
-0.00239262
0.00383383
-0.018748
-0.0150299
-0.024223
0.0260909
0.00196586
0.000775801
-0.0254367
0.000437909
0.00329833
-0.0212705
-0.0245487
0.0128171
0.00174797
-0.0257205
-0.00146415
0.00562496
-0.0251475
-0.0225414
0.00361768
-0.034369
-0.0343757
0.0219492
0.0467955
-0.030908
0.018587
-0.0220481
0.0203011
-0.0431764
-0.00803262
-0.0367146
0.02264
-0.0417984
0.0263052
0.0381848
-0.0226916
0.0222204
-0.0420696
0.0898364
0.018428
-0.0534852
-0.0547793
-0.00417182
0.0263059
0.0677023
-0.063705
0.0575992
0.00193395
0.0110277
-0.0563046
0.0221256
-0.0417698
0.0630247
-0.0716102
0.0915983
-0.0459773
0.0174036
0.0594082
0.0584961
-0.0432831
0.0371739
0.0378832
-0.0317739
0.0282943
-0.0452722
0.0488526
0.0239121
-0.0444704
0.0177719
0.0682546
0.000898181
-0.000429193
-0.00160753
0.00113854
-0.00105385
0.00195203
-0.00148304
-0.00021783
0.000153383
0.000832566
-0.00076812
0.000143871
-0.000361701
0.000297255
8.19137e-06
0.000590954
0.000621867
-0.00122101
0.000349905
-0.000341714
0.000940859
0.048789
0.0014414
-0.00874248
-0.0414879
0.0373175
-0.0271746
0.038646
-0.0353477
-0.0179577
-0.0159487
0.00714368
-0.0127321
-0.0068852
0.0124736
-0.0437913
0.0167094
0.0271409
-0.0204855
-0.0161621
-0.0197076
0.036417
0.00993612
-0.0241128
0.0300799
-0.0159032
-0.0286846
-0.00455573
-0.00135295
-0.00132039
-0.0260112
-0.00118826
-0.0242775
-0.0211685
-0.023101
0.0279833
0.0162862
-0.00658711
0.0174605
-0.0320419
0.00563996
-0.0353281
0.0648656
0.0438302
-0.0187704
-0.0899255
0.021112
-0.115398
0.103236
-0.00895047
0.0908811
-0.00490345
0.00750196
-0.0618541
-0.0610455
0.0442936
-0.0789348
-0.00961665
0.0442578
0.0118261
0.0305884
-0.0185857
-0.0241005
0.0120979
-0.0279731
0.0556627
0.00289875
-0.012886
-0.0238295
-0.00433851
-0.0271332
-0.0286465
0.000207443
0.117947
0.00172789
-0.0476098
0.0455117
0.0716951
0.000740663
0.00057246
0.00111194
-0.000849921
-0.000834483
0.000317599
0.00232086
-0.002066
-0.00497137
0.00470752
-0.00202566
0.00228951
-0.00685066
0.00287835
-0.000999056
0.0278349
0.0219999
-0.0307881
-0.0190467
0.0212002
0.015398
0.0012935
-0.0121939
-0.00449766
0.00284235
0.00595218
0.00660351
-0.00286712
-0.00674088
0.00898902
0.000618973
0.010854
-0.00383085
-0.0147021
0.037434
0.0227798
0.0185174
0.00916827
-0.00689769
-0.020788
-0.0202649
-0.00270559
0.0241817
-0.01276
0.0213497
0.0163666
0.034956
-0.0242008
-0.00424984
0.0284506
-0.0104863
-0.0137145
-0.0234587
0.0339443
-0.0209718
0.00469996
-0.0115521
-0.0166065
-0.00096619
-0.0042947
0.00526089
-0.00655926
-0.00724139
0.0128345
-0.00901456
0.00275055
-0.00271895
-0.0251791
-0.0216398
0.0018489
-0.0186002
-0.018128
0.0031455
0.00964778
-0.0051356
-0.00451218
-0.00830989
0.0340952
0.00248234
0.00264107
0.033888
-0.0382128
0.0035478
0.0337161
0.000948938
-0.0284062
0.00293414
-0.0127407
0.0303912
0.013404
-0.0256272
-0.018168
0.0245097
0.0258385
-0.0328878
0.0161128
0.0363803
0.0512431
0.0184257
0.00254786
0.0308897
-0.000203816
-0.0332338
0.0367258
-0.0344762
0.000298208
-0.00364028
0.00379631
0.0365698
-0.00644849
0.0336979
0.0275009
-0.0203097
-0.00495857
-0.00223263
0.0309474
-0.00365029
-0.00682011
-0.000637442
0.00143164
0.00602592
-0.00606879
0.000654218
-0.00140554
-0.00403423
-0.00397395
0.00193939
-0.00361197
0.00293885
0.00129499
-0.00059977
-0.000789677
0.000168435
-0.00136939
0.0163004
-0.0164598
0.0308921
0.0532699
0.0451755
-0.00403604
-7.42477e-05
0.00129912
0.00348266
-0.000900789
0.000885445
-5.89033e-05
-0.00255994
-0.000366512
0.000144401
0.00204016
-0.000620087
-0.0036003
-0.00263028
-0.00243903
-0.000741002
-0.00446952
-0.00156981
-0.00562178
0.00790614
-0.00142942
-0.00085494
-0.0111418
0.00722096
-0.00170096
-0.0123272
0.00187084
-0.000685443
-0.00102816
0.000952275
0.019044
0.000661129
-0.031899
0.0239192
0.00107692
-0.0268949
-0.00180835
0.0526224
-0.0425629
0.0195111
0.0367316
0.00114521
-0.0299707
0.00714387
-0.00861584
-0.000336385
-0.000837088
0.00799487
-1.39123e-05
0.0239934
-0.00810225
0.000563331
-0.0334264
-0.017102
0.0234708
0.0270576
-0.00493822
0.0236578
0.016121
-0.00496984
-0.034809
-0.014592
0.00902331
0.0292265
0.0219293
-0.0204003
0.000310262
0.00124475
0.000734497
0.00227412
0.000914492
-0.00914526
0.0066289
0.00187891
-0.00865152
0.000160482
0.0635798
-0.00265609
-0.0490976
0.024695
-0.00709247
0.0247077
0.00808891
-0.00265469
-0.030142
-0.0154205
0.00263634
0.0374919
0.0218911
-0.0292226
-0.0180768
-0.0163106
0.0224002
0.0119871
0.00380493
0.00219058
-0.0240723
0.0150533
-0.027559
0.0221959
-0.0416255
0.017907
-0.038274
0.00321093
0.00318714
0.00626435
-0.0126624
-0.000961335
0.00406174
0.000110527
-0.00263745
0.00064796
-0.00394798
0.0469758
0.0139502
-0.0275116
-0.0334144
0.0115954
0.0732636
-0.027492
0.000364568
0.0387228
-0.0246498
0.0111079
-0.00422828
3.63955e-05
0.00088801
0.00330387
-7.40104e-05
-0.00383667
0.00178858
-0.00186259
0.00182497
-0.0273047
0.0318898
-0.00194881
0.00105253
-0.0310119
-0.00336188
0.000637157
0.00160135
-0.013503
-0.00404708
-0.00192292
-0.0167407
0.0382283
-0.00521765
-0.0477127
0.0183138
0.0238864
-0.00397191
0.0482815
0.0354952
0.038127
-0.0222517
-0.0513705
0.0297012
0.035835
-0.030041
-0.025253
0.0263477
0.0286066
-0.0202557
0.0331296
0.0590517
0.0236985
-0.0110551
-0.00690758
0.0437076
0.0168536
-0.0175215
0.0239535
-0.0281372
0.0210373
-0.0267479
-0.00169158
0.00148034
-0.0265829
-0.00164529
-0.00295839
0.0385215
0.0127183
-0.0254922
0.0162101
0.00928214
0.0218441
0.0226883
-0.0181847
-0.00456906
0.00046025
0.00549976
-0.0379019
0.0112546
0.00104623
0.0256011
-0.033778
0.00546057
-0.00958451
0.00422671
-0.000800262
-0.00303125
-0.000395201
0.0035184
-0.000141608
0.039316
-0.0229635
0.0145395
0.00272519
-0.00509498
-0.0019171
0.00428688
-0.005081
0.00309073
0.00471546
0.00152631
0.00253671
-0.00914402
0.0018532
-0.00542187
-0.00495264
0.00239342
0.000642128
0.00612499
-0.00614246
0.00337089
0.00412408
0.000800212
5.42453e-06
-0.000805637
0.000198403
0.000601809
0.0175222
0.0128368
-0.00815633
-0.0222027
0.0170841
-0.0270735
-0.0205103
0.0129447
-0.010346
0.0026725
0.0355849
-0.00660436
-0.0335363
-0.0042967
0.031849
-0.033192
0.00526379
0.0236315
-0.0107601
-0.0290362
0.0196675
0.0336167
-0.0131393
-0.0401449
0.0262668
-0.0398398
0.0332404
-0.0192192
0.00557336
0.0399127
0.0419594
-0.0275619
9.82302e-06
-0.0179165
0.00172308
0.0161836
-0.0132987
-0.00700123
-0.0199605
-0.00304161
-5.78405e-05
0.00129238
-0.00487462
0.00054064
0.00131009
-7.55554e-05
0.000944794
-0.00121577
-0.0064699
-0.0024938
0.0034386
-0.00370957
0.00167025
0.000177324
0.00221417
-0.00092513
0.00259538
-0.000747806
-0.01486
-0.0103146
0.0158282
0.0093464
0.00318445
0.00577741
-0.0238218
0.0176351
-0.0247652
-0.00140488
-0.0089917
0.00602912
0.00436746
0.0154649
-0.0302852
0.0367114
-0.0412558
0.00410575
0.0506337
-0.0134836
-0.033279
0.000452749
0.0328276
-1.3913e-06
0.0028051
0.033798
-0.0331096
-0.00349349
0.00238572
0.0351589
-0.0347396
0.0027648
0.0352132
-0.0355923
0.00257716
0.0355728
-0.0353852
0.00142116
0.0353731
-0.0342171
0.00325158
0.0347995
-0.0366299
0.00503811
0.0335558
-0.0353424
0.00497336
0.0348214
-0.0347566
0.00634749
0.0333168
-0.0346909
0.00627458
0.034419
-0.034346
0.0074703
0.0331116
-0.0343073
0.00739862
0.034066
-0.0339944
0.00843359
0.0329451
-0.03398
0.00836464
0.0337627
-0.0336937
0.00925554
0.0328106
-0.0337015
0.00919044
0.0335042
-0.0334391
0.011204
0.0314524
-0.033466
0.010516
0.0339179
-0.0332299
0.0105492
0.0332449
-0.033278
0.0104943
0.0331119
-0.033057
0.0110537
0.0325655
-0.0331248
0.0110054
0.0329739
-0.0329256
0.011485
0.0325324
-0.033012
0.0114432
0.0328734
-0.0328316
0.0118564
0.0325234
-0.0329366
0.0118217
0.0328099
-0.0327752
0.0121807
0.0325401
-0.0328991
0.0121536
0.0327841
-0.0327569
0.0124693
0.0325849
-0.0329007
0.0124506
0.0327976
-0.0327789
0.0127332
0.0326616
-0.0329442
0.0127239
0.0328536
-0.0328443
0.0129799
0.0327762
-0.0330322
0.00976259
0.0361736
-0.0329563
0.0113111
0.0316203
-0.0331687
0.0213035
0.0272642
-0.0372567
-0.0124256
0.00348431
0.0302448
-0.038301
0.0294232
-0.036158
-0.0048772
0.005746
0.0352892
-0.00461656
0.0024181
-0.0339596
-0.00602605
0.0359139
-0.0345044
0.0360251
-0.00739114
-0.03466
0.00568875
-0.00644072
0.036777
0.0367254
-0.00622824
0.00357657
0.0364497
0.0350341
-0.0355163
-0.00315563
0.0023868
0.0359821
0.0355799
-0.00197132
0.00188236
0.035462
0.0359883
-0.00216111
0.00218725
0.0335297
0.0345207
-0.00202323
0.00187001
0.03347
0.0349854
-0.00171607
0.00157185
0.0332558
0.0345729
-0.00142977
0.00129697
0.0330779
0.0342081
-0.00116657
0.00104376
0.0329334
0.0338931
-0.00150885
-0.000439871
0.0334012
0.0330391
-7.78644e-05
0.000592974
0.0327298
0.0334001
-0.000488768
0.000389089
0.0326651
0.0332161
-0.000291508
0.00019773
0.0326262
0.0330715
-0.000105661
1.66596e-05
0.0326124
0.0329655
7.07889e-05
-0.000155665
0.0326249
0.0328973
0.000239215
-0.000320634
0.0326663
0.0328676
0.000400896
-0.000479351
0.03274
0.0328779
0.000556686
-0.000391385
0.0326109
0.032931
-0.00323565
0.00189736
0.0329586
0.0325466
0.0326459
0.00161891
0.00257873
-0.0373072
-0.0349728
0.0390098
-0.00340343
0.00301772
-0.0352066
-0.0355643
-0.00255235
0.0042268
-0.0358915
-0.0349198
-0.00400653
0.00307078
-0.0344066
-0.0364096
-0.0020817
0.00190829
-0.0345175
-0.0337675
-0.00174346
0.00158981
-0.0341537
-0.0341812
-0.00144083
0.00130085
-0.03384
-0.0338454
-0.00116524
0.00103699
-0.0335732
-0.0335581
-0.000912703
0.000795838
-0.0333492
-0.0333148
-0.000679065
0.000568768
-0.0331677
-0.0331131
-0.000463399
0.000361282
-0.0330227
-0.0329517
-0.000261639
0.000165003
-0.0329154
-0.0328259
-7.09514e-05
-2.06979e-05
-0.0328449
-0.0327376
0.000110063
-0.000197572
-0.0328115
-0.0326858
0.000283019
-0.000367088
-0.0328166
-0.0326715
0.000449284
-0.000530244
-0.0328632
-0.0326967
0.000608602
-0.000683543
-0.0329573
-0.032766
0.000755314
0.000560962
-0.034485
-0.0328845
0.00253372
-0.00770083
-0.0331338
-0.034162
-0.00754548
-0.036858
0.0379628
-0.0377607
-0.00796556
0.0381807
0.0082979
-0.00952585
-0.0365327
-0.0359513
-0.037908
-0.0115576
0.0415
-0.0369609
-0.010473
-0.0133354
-0.038062
-0.00304903
0.0017633
0.0315305
-0.00445636
0.0308305
-0.00105325
-0.0350538
0.00512004
-0.00657977
-0.0330447
0.00444815
-0.0332877
-0.00703726
-0.0342025
-0.00912599
0.00786403
-0.0352708
-0.0358172
-0.0102697
-0.0467464
-0.00743843
0.0410456
-0.0104214
-0.0430589
0.000492194
0.0383216
-0.00525631
0.00555128
0.0378858
0.0367359
-0.00540627
0.00463602
0.0375473
0.0381078
-0.00443764
0.00286901
0.0368579
0.0369238
-0.00228722
0.00235545
0.0363814
0.0356159
-0.00231041
0.00260993
0.0356825
0.0356249
-0.00238993
0.00260574
0.0352462
0.0362083
-0.00296907
0.00210702
0.0343917
0.0341574
-0.00194028
0.00178663
0.0336237
0.0351521
-0.00163844
0.00149755
0.0333967
0.0347211
-0.00136118
0.00123126
0.0332078
0.0343445
-0.00110585
0.000986186
0.033053
0.0340185
-0.000630917
0.000757738
0.0332743
0.0333944
-0.000650581
0.000547445
0.0328329
0.0335073
-0.000446758
0.000349307
0.0327626
0.0333168
-0.000254771
0.000163055
0.0327179
0.033166
-7.38307e-05
-1.31282e-05
0.0326993
0.0330547
9.79382e-05
-0.000180797
0.0327078
0.0329821
0.000261862
-0.000341311
0.0327458
0.0329487
0.000419269
-0.000495844
0.0328166
0.0329558
0.000570823
-0.000884959
0.032925
0.0330059
0.000813192
-0.00109469
0.0332401
0.0324748
0.0333145
-0.0030763
0.032336
-0.0345877
-0.00423629
0.0377707
-0.03449
0.0365326
-0.00109364
-0.00652588
-0.02503
-0.0040349
0.00291122
-0.0361836
-0.0345595
-0.00279983
0.00280143
-0.0352082
-0.0354529
-0.00354873
0.00314119
-0.035484
-0.0356671
-0.00164471
0.00157908
-0.034341
-0.0349131
-0.00219505
0.00202139
-0.0343438
-0.0343835
-0.0018587
0.00170193
-0.0339969
-0.0340185
-0.00155375
0.00141035
-0.0336966
-0.0336972
-0.00127449
0.0011427
-0.0334414
-0.0334223
-0.00101765
0.000896478
-0.033228
-0.0331898
-0.000780915
0.000667101
-0.0330539
-0.0329975
-0.000558298
0.000452214
-0.0329166
-0.0328429
-0.000350525
0.000250671
-0.0328155
-0.0327243
-0.000154569
5.98759e-05
-0.0327502
-0.0326415
3.15687e-05
-0.000121978
-0.0327211
-0.0325943
0.000209547
-0.000296384
-0.0327298
-0.0325839
0.000380744
-0.000464843
-0.0327791
-0.0326123
0.000547879
-0.000632767
-0.0328724
-0.0326829
0.000715515
-0.0015798
-0.0336207
-0.0328018
0.00260498
-0.00153462
-0.0342042
-0.0331368
0.00255025
-0.0344294
-0.00270858
-0.0340382
-0.0351245
0.00545884
-0.00585968
-0.0326438
0.00456307
-0.0323919
-0.00670377
-0.0333584
-0.00701005
0.00669701
-0.0349577
-0.00682316
-0.0360041
-0.00252896
0.00227753
-0.0341779
-0.0340898
0.0351109
-0.0037297
-0.00227853
-0.0343402
-0.0126358
-0.0445319
-0.0386751
-0.00985986
0.000350877
0.0331054
-0.0387069
-0.0102379
-0.0329919
6.378e-05
-0.00847179
0.00870811
0.0417231
-0.0451848
-0.00350947
0.0449443
-0.0430577
0.00221911
-0.000836122
0.0413235
0.00445701
0.0413258
-0.00768321
0.00684036
0.0391645
0.0409376
-0.00488612
0.00434594
0.038426
0.0386901
-0.00455944
0.00505518
0.0370516
0.0378943
-0.00339948
0.00437439
0.0358829
0.0385795
-0.00222122
0.00329307
0.0353096
0.037769
-0.00186696
0.00272084
0.0348287
0.037051
-0.00252684
0.0033571
0.034416
0.0364023
-0.00168884
0.00201091
0.0340697
0.0358256
-0.00185063
0.00169907
0.0337752
0.0353124
-0.00155547
0.0014177
0.0335345
0.0348647
-0.00128657
0.00115996
0.0333344
0.0344756
-0.00103931
0.000922492
0.0331699
0.0341392
-0.000465098
0.000702276
0.0330372
0.0338518
-0.000598407
0.000497341
0.032934
0.0336112
-0.000400448
0.000305637
0.0328574
0.0334137
-0.000214435
0.000125066
0.0328073
0.0332572
-3.88843e-05
-4.58602e-05
0.0327841
0.0331409
0.000127883
-0.000208611
0.0327885
0.0330642
0.000287096
-0.000364488
0.0328232
0.0330272
0.000440029
-0.000514749
0.0328913
0.0330314
0.000588277
-0.000660896
0.0329977
0.0330795
0.00111886
-0.00127421
0.0333954
0.0329328
0.000941572
-0.00211066
0.0326996
0.0329819
0.00287597
-0.00255809
0.0320181
0.0315958
0.0310001
0.0318444
-0.0342519
-0.00411835
-0.00224113
-0.00337731
-0.00402177
0.00337933
-0.0355411
-0.0340182
-0.00350622
0.00364127
-0.0353432
-0.0355798
-0.00304083
0.00251669
-0.0349599
-0.0350667
-0.00221439
0.0024149
-0.0345415
-0.0346108
-0.00223154
0.00205187
-0.0341642
-0.0342001
-0.00188327
0.00172175
-0.0338354
-0.0338499
-0.0015699
0.0014231
-0.0335498
-0.0335453
-0.00128445
0.00114996
-0.0333069
-0.0332836
-0.00102266
0.000898558
-0.0331039
-0.0330625
-0.00078056
0.000665186
-0.0329386
-0.0328795
-0.000555417
0.000447701
-0.0328089
-0.0327331
-0.00034475
0.000243175
-0.032714
-0.0326213
-0.000145802
4.93695e-05
-0.0326538
-0.0325441
4.33425e-05
-0.000135531
-0.0326289
-0.0325016
0.000224418
-0.000313122
-0.0326411
-0.032495
0.00039886
-0.000484643
-0.0326933
-0.0325266
0.000567354
-0.000649191
-0.0327906
-0.0326002
0.000728626
-0.00140887
-0.0329405
-0.0327223
0.00146914
-0.00194889
-0.0337244
-0.0330766
-0.0337096
-0.0351312
-0.00806601
-0.0374641
0.00535704
-0.00544527
-0.0325556
0.00550818
-0.032543
-0.0350666
0.0340049
-0.00266801
-0.0348042
-0.00254089
-0.00502014
-0.0337835
-0.0503532
-0.00746743
0.00486357
0.00202997
0.0259341
-0.0306218
0.0202976
0.0151878
-0.000681659
-0.0458855
-0.012969
-0.0399498
-0.0404362
-0.0170647
-0.0052188
0.00517589
0.0413664
-0.0382236
-0.00926762
0.0422724
0.0127922
-0.0465588
-0.0385862
-0.0116015
-0.00812149
-0.0385307
-0.00504738
0.00607099
0.0406995
0.0414543
-0.00679358
0.0060853
0.0398727
0.040215
-0.00469587
0.00548646
0.0376354
0.0400796
-0.00364736
0.00388479
0.0368141
0.0397334
-0.00364341
0.00340788
0.0361185
0.0388209
-0.00318597
0.00296915
0.0355264
0.0379909
-0.00277212
0.00258091
0.0350199
0.0372481
-0.00240203
0.0022259
0.0345921
0.0365812
-0.00206225
0.00190034
0.0342316
0.0359893
-0.00175135
0.00160327
0.0339233
0.0354614
-0.00146727
0.00133207
0.0336697
0.0350007
-0.00120762
0.00108356
0.0334584
0.0346001
-0.000968928
0.000854411
0.0332844
0.0342538
-0.000747938
0.000641969
0.0331431
0.0339582
-0.000543214
0.000444385
0.0330328
0.0337099
-0.000351743
0.000259163
0.03295
0.0335063
-0.000171869
8.46311e-05
0.0328945
0.0333445
-1.73004e-06
-8.06936e-05
0.0328665
0.0332238
0.000159477
-0.000238157
0.0328672
0.033143
0.000313727
-0.000389149
0.0328986
0.0331027
0.000462039
-0.000534859
0.0329641
0.0331043
0.000605768
-0.000676652
0.0330685
0.0331504
0.000989275
-0.000815334
0.0332215
0.0332454
0.00123452
-0.00134832
0.0328134
0.0334011
0.00256387
-0.00203482
0.0314891
0.0328114
0.0309953
0.0322069
-0.0320156
-0.000127563
0.00158366
0.0322241
-0.0334582
-0.00288424
-0.00203264
-0.00283057
-0.00472064
0.00384476
-0.0346653
-0.0332307
-0.0035828
0.00333726
-0.0350977
-0.0353178
-0.00310559
0.00288084
-0.0347351
-0.034835
-0.00267125
0.00247381
-0.0343441
-0.0344012
-0.00229016
0.00211209
-0.0339861
-0.0340165
-0.00194431
0.00178107
-0.0336721
-0.0336822
-0.00162812
0.0014791
-0.0334008
-0.0333924
-0.00133923
0.00120243
-0.0331701
-0.0331438
-0.00107382
0.000947472
-0.0329776
-0.0329339
-0.000828435
0.000710804
-0.0328209
-0.0327605
-0.00059962
0.000489413
-0.0326987
-0.0326219
-0.000385116
0.000281217
-0.0326101
-0.032517
-0.000182595
8.387e-05
-0.0325551
-0.0324455
1.00894e-05
-0.000104582
-0.0325345
-0.0324077
0.000194751
-0.000285841
-0.03255
-0.0324049
0.000373049
-0.000461654
-0.0326047
-0.0324394
0.000546919
-0.000634121
-0.0327034
-0.032515
0.000718496
-0.000805459
-0.0328535
-0.032638
0.00106649
-0.00172791
-0.033063
-0.0328155
0.00171615
-0.00209608
-0.033798
-0.0337213
0.0408215
0.0259679
-0.0539972
-0.0112941
0.0428479
-0.0382405
-0.0137972
0.00081593
-0.0451556
0.00207895
-0.0344847
-0.00239853
-0.0343573
0.00596405
-0.00671565
-0.0342061
-0.0341873
0.00610567
-0.00674786
-0.0368219
-0.0366141
-0.0397979
-0.0065641
0.0391466
-0.0244728
-0.00179679
-0.0513844
-0.000902959
-0.0449343
0.0102524
-0.0107909
0.0396851
0.00895518
0.0441451
-0.00390704
0.00428332
-0.0329193
-0.00296631
-0.0334964
-0.0503582
-0.0170597
0.0372776
-0.0566061
-0.00514429
-0.0102534
0.0367401
-0.00760585
-0.0376727
-0.0023646
0.00211049
-0.0342306
-0.0348693
0.0351094
-0.00263865
-0.00221533
-0.0350186
-0.0496247
-0.00877821
-0.00202704
-0.0513259
-0.0119803
-0.0403071
-0.00710482
0.00602043
0.0424508
0.0441228
-0.00629991
0.00620719
0.0407922
0.0411748
-0.00439362
0.00538397
0.0388824
0.0420286
-0.00445089
0.00417463
0.0379116
0.0410126
-0.00392941
0.00367171
0.0370718
0.0399786
-0.00345354
0.00321893
0.0363531
0.0390391
-0.0030201
0.0028066
0.0357399
0.0381898
-0.00262655
0.00243243
0.035214
0.0374281
-0.00226983
0.00209356
0.0347684
0.0367438
-0.00194434
0.00178339
0.0343925
0.0361385
-0.00164668
0.00149974
0.0340702
0.0355981
-0.00137473
0.00124045
0.033804
0.0351257
-0.00112538
0.0010022
0.0335816
0.0347152
-0.00089575
0.000782283
0.0333978
0.0343602
-0.00068332
0.000578305
0.0332481
0.0340572
-0.000485788
0.000388302
0.0331303
0.0338024
-0.000301226
0.000210049
0.0330412
0.0335934
-0.000127669
4.19902e-05
0.0329802
0.0334269
3.63188e-05
-0.000117376
0.0329476
0.0333021
0.000192337
-0.000269382
0.0329443
0.0332179
0.000341477
-0.000415217
0.0329723
0.0331748
0.000484973
-0.000556044
0.0330352
0.033174
0.000624035
-0.000693152
0.0331377
0.0332184
0.000759999
-0.000827204
0.0332887
0.0333122
0.000892443
-0.00120422
0.0331252
0.0334663
0.00179166
-0.00296523
0.0326627
0.0333988
0.00648967
0.039742
0.0345197
0.0329535
-0.0325825
-0.000498588
-0.0317419
0.0413576
0.00557213
0.0027953
0.0329774
-0.0340417
-0.00181994
-0.00163778
0.0348685
-0.0352186
-0.00231796
-0.00200368
-0.00265004
-0.00454776
0.00390668
-0.0340242
-0.0334951
-0.00364241
0.00339345
-0.0348487
-0.0350535
-0.00315756
0.00292908
-0.0345066
-0.0345991
-0.00271884
0.00251536
-0.0341406
-0.034191
-0.00232768
0.00214389
-0.0338023
-0.0338288
-0.00197412
0.00180735
-0.0335054
-0.0335124
-0.00165339
0.00150143
-0.0332489
-0.0332384
-0.00136095
0.0012215
-0.0330307
-0.0330033
-0.00109244
0.000963559
-0.0328487
-0.0328048
-0.000844123
0.000724168
-0.032701
-0.0326411
-0.000612902
0.000500471
-0.0325863
-0.0325106
-0.000396023
0.000289828
-0.0325039
-0.0324126
-0.000190999
8.99169e-05
-0.032454
-0.0323466
4.32237e-06
-0.000101264
-0.0324375
-0.0323134
0.00019181
-0.000285456
-0.0324564
-0.0323143
0.000373093
-0.000464129
-0.0325137
-0.0323518
0.000549382
-0.000638356
-0.0326144
-0.0324297
0.000722244
-0.000810386
-0.0327654
-0.0325541
0.000893006
-0.000980052
-0.032976
-0.0327329
0.00172472
-0.00160936
-0.0339134
-0.0329766
-0.0338562
-0.0040465
-0.0327033
0.00508197
-0.00540744
-0.0338806
-0.0331519
0.00619745
-0.00718481
-0.0358345
-0.0358241
-0.0247783
-0.0393771
0.00572583
-0.0084218
0.0423811
0.00653666
0.0433343
-0.0336711
0.0324411
-0.0437853
-0.000587933
0.00298715
0.0373428
0.00310904
0.0376606
-0.0371327
-0.0102711
-0.00908474
-0.0357728
-0.0353654
0.0354952
-0.00276838
-0.0350433
-0.00253742
-0.0241645
-0.0374406
0.0110834
-0.0580448
-0.0106018
0.0389202
-0.0485359
-0.0198497
-0.032566
0.0152829
-0.0286581
0.0459412
0.00331922
-0.00386352
-0.0329521
0.0037576
-0.0333577
-0.00694584
0.00657757
0.042819
0.0437136
-0.00551485
0.00491629
0.0413908
0.0422375
-0.0046954
0.00440748
0.0391703
0.0422495
-0.00419829
0.00391717
0.0381928
0.0412218
-0.00371345
0.00345008
0.0373352
0.0401823
-0.00326286
0.00302135
0.0365946
0.0392263
-0.00285128
0.00263167
0.0359595
0.0383599
-0.00247754
0.00227695
0.0354146
0.0375822
-0.00213627
0.00195406
0.0349506
0.0368845
-0.00182552
0.00165971
0.0345583
0.036267
-0.00154108
0.00138986
0.0342215
0.0357167
-0.00128076
0.00114307
0.0339417
0.0352348
-0.00104185
0.000915923
0.0337075
0.0348164
-0.000821464
0.000705952
0.0335133
0.0344547
-0.000617364
0.000510958
0.0333546
0.0341458
-0.000427362
0.000328993
0.0332287
0.033886
-0.000249692
0.000158147
0.0331327
0.0336727
-8.2493e-05
-3.18897e-06
0.0330659
0.0335025
7.56598e-05
-0.000156238
0.0330281
0.0333745
0.000226107
-0.000302434
0.0330206
0.0332878
0.000370074
-0.000442849
0.0330451
0.0332425
0.000508676
-0.000578565
0.0331051
0.0332398
0.000643015
-0.000710718
0.0332054
0.0332828
0.000774347
-0.000840224
0.0333545
0.0333759
0.000902821
-0.00133622
0.0335585
0.0335289
0.00168279
-0.00272123
0.0337011
0.0337454
0.0347856
0.0335288
-0.0335481
-0.000479226
-0.035022
0.0379193
0.00267485
0.00130204
0.0338205
-0.0342555
-0.00138493
-0.0013654
0.0348614
-0.0353595
-0.00181986
-0.00139775
-0.00251441
-0.00383634
0.00396629
-0.0341541
-0.0335739
-0.00369084
0.0034346
-0.0345925
-0.0347781
-0.00319746
0.00296648
-0.0342756
-0.034362
-0.0027571
0.00254978
-0.0339333
-0.0339816
-0.00236323
0.00217663
-0.0336157
-0.0336422
-0.00200853
0.00183878
-0.0333356
-0.0333443
-0.00168607
0.0015309
-0.0330937
-0.0330857
-0.00139156
0.00124889
-0.032888
-0.0328639
-0.00112093
0.000988858
-0.0327166
-0.0326768
-0.000870538
0.000747388
-0.0325778
-0.0325228
-0.000637144
0.000521452
-0.0324706
-0.0324004
-0.000417976
0.000308496
-0.0323944
-0.0323091
-0.0002106
0.000106182
-0.0323496
-0.0322487
-1.27992e-05
-8.75733e-05
-0.0323371
-0.03222
0.000177376
-0.000274598
-0.0323591
-0.0322245
0.000361696
-0.00045664
-0.0324187
-0.0322647
0.000541886
-0.000635449
-0.0325208
-0.0323445
0.000719669
-0.000812539
-0.0326725
-0.0324698
0.000896181
-0.000988181
-0.032884
-0.0326493
0.00107083
-0.00181794
-0.0331663
-0.032894
0.00172765
-0.00195956
-0.0339986
-0.0339465
-0.0515984
-0.000965084
0.0031268
0.0379015
-0.036819
-0.00939843
-0.00322217
-0.0396149
0.00215559
-0.0347397
-0.00245922
-0.0348226
-0.0533881
0.0119388
-0.0101288
0.0274165
0.00832862
-0.00951187
-0.0345895
-0.00366274
-0.0329041
-0.00423967
-0.0325749
-0.00490745
-0.0332129
-0.00675059
-0.0339809
-0.0342565
-0.0580313
-0.0628346
-0.0262043
0.0129866
-0.00694354
0.00624745
0.0440304
-0.00622255
0.0416601
-0.00366112
0.00337818
-0.0330748
-0.00358203
-0.0330311
0.0373062
-0.0361057
0.00147432
0.0385914
0.00184161
-0.0342223
-0.0121086
0.0207407
-0.00894019
0.0116916
-0.0435719
-0.00209288
0.00220349
-0.0348503
-0.0353299
0.0353897
-0.00251906
-0.0348734
-0.00254937
-0.00528192
0.00515119
0.0429498
0.0446791
-0.0049061
0.00415487
0.042142
0.0424826
-0.00503866
0.00411692
0.040092
0.0413657
-0.00396293
0.00365402
0.0385017
0.0413758
-0.00350674
0.00321756
0.0376244
0.0403296
-0.00308196
0.00281491
0.0368616
0.0393619
-0.0026912
0.00244744
0.0362033
0.0384836
-0.00233526
0.00211313
0.0356367
0.0376944
-0.00200979
0.00180799
0.0351524
0.0369878
-0.00171276
0.0015299
0.0347412
0.0363623
-0.00144065
0.00127457
0.0343875
0.035806
-0.00119098
0.00104066
0.034092
0.0353184
-0.00096162
0.000825163
0.033844
0.0348954
-0.000749823
0.000625663
0.0336375
0.03453
-0.000553437
0.000440091
0.0334679
0.034218
-0.000370476
0.000266633
0.0333325
0.0339556
-0.00019925
0.000103557
0.0332284
0.0337401
-3.80424e-05
-5.06006e-05
0.0331545
0.033568
0.000114499
-0.00019716
0.0331108
0.0334384
0.000259693
-0.000337291
0.0330982
0.0333503
0.000398671
-0.000472058
0.0331185
0.0333038
0.000532519
-0.000602475
0.0331751
0.0333003
0.000662277
-0.000729612
0.0332727
0.0333426
0.000789208
-0.000854397
0.0334197
0.0334355
0.000913632
-0.000978114
0.033623
0.0335881
0.00103744
-0.00122534
0.033889
0.0338047
0.000942161
0.000532994
0.0358676
0.0345025
-0.00261594
0.0028542
0.0376633
0.0355776
0.0349521
-0.0344356
-0.000995787
0.00014848
0.0344028
-0.0343662
-0.00142157
-0.00139813
0.0343248
-0.034679
-0.00146557
-0.00143917
0.035059
-0.0354506
-0.00237679
-0.00213442
-0.00259834
-0.00410165
0.00400347
-0.0340559
-0.0342973
-0.00372125
0.00346152
-0.0343328
-0.0344959
-0.00322543
0.00298914
-0.0340393
-0.0341259
-0.00278272
0.00256965
-0.0337202
-0.0337752
-0.0023861
0.0021935
-0.0334231
-0.0334587
-0.00202862
0.00185349
-0.0331605
-0.0331794
-0.00170436
0.00154412
-0.0329334
-0.0329366
-0.0014084
0.00126077
-0.0327404
-0.0327282
-0.00113643
0.000999435
-0.0325796
-0.0325525
-0.000884694
0.000756628
-0.0324498
-0.032408
-0.000649947
0.000529325
-0.0323499
-0.0322937
-0.000429329
0.000314827
-0.0322799
-0.0322091
-0.000220296
0.000110743
-0.03224
-0.0321542
-2.05937e-05
-8.50538e-05
-0.0322315
-0.0321299
0.000171775
-0.000274434
-0.0322565
-0.0321378
0.00035858
-0.000459067
-0.0323182
-0.0321805
0.00054138
-0.000640463
-0.0324217
-0.0322621
0.000721703
-0.000820071
-0.0325741
-0.0323886
0.000900754
-0.000998954
-0.0327858
-0.0325686
0.00107928
-0.00117731
-0.0330683
-0.0328137
0.00153777
-0.00188198
-0.0336544
-0.033586
-0.0345011
0.0209547
-0.0567288
0.0381582
-0.00397244
-0.0325137
-0.00433807
-0.0322093
-0.0052736
-0.0322773
-0.00654787
-0.0327067
-0.00760777
-0.0331966
-0.00949787
-0.0326994
0.00348978
0.0379558
0.00639296
0.0328115
-0.00738127
0.0252132
-0.0322286
-0.0114915
0.00553314
-0.00775979
-0.03097
0.00498297
-0.0321565
-0.0377792
-0.0112341
-0.00585913
0.0192186
0.0185416
-0.0179872
0.0156864
-0.00608491
-0.00271531
0.00218556
-0.0343206
-0.00216633
-0.0354224
-0.0355338
0.0357357
-0.00272098
-0.0355039
-0.00257931
-0.00565613
0.00531292
0.0443736
0.0423969
-0.00516424
0.00479493
0.0433191
0.0448278
-0.00463801
0.00473456
0.0420455
0.0426395
-0.00465562
0.00382324
0.0409244
0.0414446
-0.00376626
0.00338418
0.0388837
0.0414328
-0.0033321
0.00297469
0.0379818
0.0403817
-0.00292858
0.00259823
0.037192
0.039408
-0.00255636
0.00225405
0.0365056
0.0385254
-0.00221566
0.00194068
0.0359117
0.0377328
-0.00190363
0.00165456
0.0354015
0.0370249
-0.00161797
0.00139347
0.0349657
0.0363989
-0.00135582
0.00115349
0.0345899
0.0358437
-0.00111465
0.000933149
0.0342735
0.0353572
-0.000892753
0.000729882
0.0340069
0.0349358
-0.000687656
0.000541397
0.0337838
0.0345723
-0.000497339
0.000365743
0.0335995
0.0342621
-0.000319949
0.000201246
0.0334512
0.0340014
-0.000153907
4.6304e-05
0.033336
0.0337874
2.45601e-06
-0.000100396
0.0332525
0.0336168
0.000150233
-0.000240091
0.0332007
0.0334883
0.000290915
-0.000373905
0.0331812
0.0334011
0.000425532
-0.000502808
0.0331958
0.0333555
0.000555136
-0.000627745
0.0332477
0.0333526
0.000680737
-0.000749694
0.0333417
0.0333956
0.000803529
-0.000869527
0.0334857
0.0334893
0.000923802
-0.000987731
0.033687
0.0336424
0.00104202
-0.00110182
0.0339488
0.033859
0.000731101
0.000579718
0.0345568
0.0341317
-0.000379764
0.00257816
0.0354649
0.0357776
0.0380275
-0.0367072
0.00216944
-0.00326888
0.0039343
0.0373621
0.0372651
0.0371159
-0.0354962
-0.000145363
0.0022503
0.0347389
-0.0343552
-0.0013795
-0.000608811
0.0343528
-0.0343461
-0.00142825
-0.00140055
0.0343336
-0.034316
-0.00148317
-0.00145164
0.0349417
-0.0354417