/*--------------------------------*- C++ -*----------------------------------*\
  =========                 |
  \\      /  F ield         | OpenFOAM: The Open Source CFD Toolbox
   \\    /   O peration     | Website:  https://openfoam.org
    \\  /    A nd           | Version:  10
     \\/     M anipulation  |
\*---------------------------------------------------------------------------*/
FoamFile
{
    format      ascii;
    class       volVectorField;
    location    "7";
    object      U;
}
// * * * * * * * * * * * * * * * * * * * * * * * * * * * * * * * * * * * * * //

dimensions      [0 1 -1 0 0 0 0];

internalField   nonuniform List<vector> 
40874
(
(0.709727 -0.24765 0)
(0.608296 -0.218436 3.61563e-19)
(1.08365 -0.592704 -3.69085e-20)
(1.02134 -0.528516 1.45561e-19)
(1.02482 -0.758512 9.347e-20)
(1.01709 -0.767365 4.88479e-20)
(1.04824 -0.762918 -8.81565e-21)
(1.16174 -0.528134 9.75254e-21)
(1.06239 -0.473337 -2.78316e-21)
(0.765156 -0.668824 1.11466e-19)
(0.757712 -0.494149 -1.64772e-19)
(0.457305 -0.658202 1.5337e-19)
(0.848228 -0.69869 1.17687e-20)
(0.84048 -0.432959 9.26713e-20)
(0.844453 -0.332484 -9.03355e-20)
(0.786394 -0.308952 8.79257e-20)
(1.00051 -0.668469 -3.69576e-21)
(1.14922 -0.735729 0)
(0.958353 -0.760617 -2.59814e-19)
(0.992712 -0.326347 -7.64062e-20)
(0.986085 -0.390986 -4.98055e-21)
(0.974942 -0.477258 -1.36589e-19)
(0.606098 -0.567357 1.01612e-20)
(0.57726 -0.691233 4.57197e-20)
(0.924456 -0.379202 1.23577e-19)
(1.14716 -0.505712 -3.80921e-21)
(1.17591 -0.511809 1.46998e-20)
(1.15715 -0.444473 6.54093e-21)
(1.19128 -0.465104 0)
(1.28848 -0.486837 -1.31406e-20)
(1.28416 -0.514972 -2.39579e-21)
(1.2269 -0.458035 3.64661e-21)
(1.1736 -0.510998 0)
(-0.233043 -0.0902345 5.77164e-20)
(-0.153824 -0.1103 0)
(-0.0881939 -0.134719 0)
(-0.143982 -0.126527 -2.26646e-21)
(0.762549 0.0192058 -5.64128e-22)
(0.719257 0.0184194 3.37438e-24)
(0.788861 0.0208457 5.05274e-21)
(0.862696 0.0189924 0)
(0.867856 0.0162732 1.06193e-21)
(0.813614 0.0186757 -1.55457e-21)
(0.73991 0.0199527 -1.01157e-21)
(0.865277 0.0169668 -1.07142e-21)
(0.802713 0.0170787 6.90549e-22)
(0.718057 0.0184086 0)
(0.8723 0.569546 -2.43565e-20)
(0.759002 0.559818 4.94189e-20)
(0.751392 0.424481 -1.47529e-20)
(0.858449 0.443995 0)
(1.02451 0.574468 0)
(0.971425 0.523678 4.35079e-21)
(1.36691 -0.450056 4.96056e-20)
(1.42191 -0.402402 0)
(1.34228 -0.364532 0)
(1.31049 -0.386046 0)
(1.29075 -0.451327 -6.13573e-21)
(1.43144 -0.470711 -2.55783e-20)
(1.23938 -0.339881 1.06608e-19)
(1.40019 -0.329418 -1.43082e-19)
(1.1888 0.559031 0)
(1.09107 0.551085 0)
(1.11427 0.500001 2.14025e-21)
(1.23511 0.546489 -1.78256e-21)
(-0.0583564 -0.0365411 6.46282e-20)
(-0.0827288 -0.0338021 -5.16338e-20)
(-0.0559639 -0.0330476 -4.86759e-20)
(-0.0358768 0.029428 0)
(-0.0140789 0.0108839 -9.48096e-20)
(-0.013101 0.0102312 -9.79606e-20)
(0.0290867 -0.079514 2.43316e-19)
(0.00923522 -0.027567 4.21692e-20)
(0.0168289 -0.0471463 4.01237e-20)
(0.603339 -0.0632467 -2.44266e-21)
(0.673477 -0.0214702 1.20977e-20)
(0.430851 0.0313547 -3.94998e-21)
(0.288639 -0.0314228 -7.29898e-22)
(0.359963 0.0265468 -3.96715e-22)
(0.567013 0.0251117 0)
(0.545714 0.0218827 5.06035e-22)
(0.269916 0.0177527 -7.53053e-23)
(0.816972 0.33816 7.08215e-20)
(0.769137 0.322455 7.52105e-20)
(0.790814 0.243848 -3.81398e-20)
(0.831794 0.244246 1.68155e-19)
(1.26291 0.297666 -5.55622e-24)
(1.2606 0.307264 -3.93796e-21)
(1.24581 0.289742 1.41187e-22)
(1.32349 0.357317 4.09845e-21)
(1.44041 0.365522 4.36249e-20)
(1.39377 0.313599 -3.51541e-21)
(1.49212 0.446425 4.26519e-20)
(1.26347 -0.710079 0)
(1.29063 -0.476487 -4.0303e-20)
(0.891681 -0.0261308 4.71025e-22)
(0.828857 -0.035463 -1.14167e-21)
(0.772262 -0.037163 1.63796e-21)
(0.851397 -0.03013 -1.44545e-21)
(0.908772 -0.0256873 -1.82815e-22)
(0.995496 -0.0386034 0)
(0.98891 -0.0315995 3.30427e-22)
(-0.0328446 0.0189743 -3.90034e-21)
(0.0292107 0.00389667 -2.60087e-20)
(-0.0773998 -0.0797267 0)
(-0.0670652 -0.0951349 0)
(0.900842 0.323072 0)
(0.877633 0.367244 -6.89367e-20)
(0.213399 -0.144979 5.62592e-19)
(0.191593 -0.233525 -8.57825e-19)
(-0.10236 -0.120262 0)
(-0.109077 -0.143785 1.84878e-20)
(0.994111 -0.0362642 -2.64069e-20)
(0.726386 -0.0225683 -2.20118e-21)
(0.68035 -0.0129867 8.82624e-21)
(0.76233 0.0134072 -8.09666e-22)
(0.670557 0.0107049 7.09311e-22)
(0.491564 0.550677 8.86139e-21)
(0.438135 0.605557 -2.53201e-20)
(0.622268 0.725842 4.65294e-21)
(0.376827 0.606687 1.13369e-19)
(0.177977 -0.30197 -9.47511e-20)
(0.327489 -0.645023 9.41286e-20)
(0.217376 0.515043 -2.32734e-20)
(0.792182 0.0161178 0)
(0.707483 0.0156165 0)
(0.6805 0.0217772 -7.09528e-22)
(0.609319 0.018633 0)
(0.149075 -0.0118766 0)
(0.200974 -0.0099899 1.38042e-21)
(1.00305 -0.015709 -6.74076e-20)
(0.837454 0.0190246 -1.04616e-21)
(1.11648 -0.0349112 0)
(1.11609 -0.0351668 -8.14852e-22)
(0.666672 -0.0542696 0)
(1.28777 0.306308 2.55929e-21)
(1.28826 0.296863 -4.20745e-21)
(1.32396 0.329398 -4.59841e-21)
(1.11396 0.111468 2.5388e-20)
(1.28908 0.125916 -2.32349e-20)
(1.27994 0.112669 1.20062e-20)
(1.09912 0.101293 4.16676e-20)
(0.921007 0.0994276 -1.36072e-22)
(0.919583 0.0949285 -7.64319e-21)
(0.206007 -0.109975 -6.9008e-20)
(0.129183 -0.118372 8.58717e-20)
(0.0678757 -0.125837 -6.90153e-20)
(0.0700663 -0.169504 -2.05471e-19)
(0.0348667 -0.0697799 -2.79293e-19)
(0.0914793 -0.147693 1.76562e-19)
(1.15177 -0.646061 0)
(1.427 -0.373401 -1.35357e-20)
(1.36589 -0.339619 4.63768e-20)
(-0.0808589 -0.0685697 1.36503e-19)
(-0.0545745 -0.0435987 0)
(-0.0648336 -0.0615342 0)
(-0.0696197 -0.0485671 0)
(-0.0761778 -0.100345 -2.43691e-20)
(-0.0721597 -0.0731617 4.81577e-20)
(-0.08613 -0.0944086 0)
(0.0668036 0.0524731 6.94903e-20)
(0.237924 0.0632989 -1.47278e-19)
(0.330579 0.0839659 -4.96573e-20)
(0.06937 -0.0331087 0)
(0.374794 -0.237939 -2.04653e-21)
(0.327813 -0.442292 2.73119e-19)
(0.464333 -0.516038 -2.56285e-20)
(0.625169 -0.353346 -3.13221e-19)
(1.04055 0.480162 -4.70933e-21)
(0.634485 0.0746301 0)
(0.108067 -0.42523 -9.75467e-20)
(0.116982 -0.478306 -1.82681e-19)
(0.480752 -0.579653 -1.11449e-19)
(0.120959 -0.375056 9.32076e-20)
(0.888275 -0.0241177 0)
(0.829869 -0.0254694 -4.98696e-21)
(1.14815 0.180619 8.55337e-20)
(1.09451 0.152807 -4.62901e-20)
(0.930072 0.12916 -6.47828e-20)
(-0.0225399 -0.0660803 -7.15564e-20)
(0.0151062 -0.0728419 3.21412e-20)
(0.291772 -0.0953142 1.78944e-20)
(0.239999 -0.0967824 2.5278e-20)
(1.16151 -0.406396 6.71248e-20)
(1.02818 -0.297268 1.89404e-20)
(1.05749 -0.00708462 3.6699e-24)
(1.05732 -0.00718826 0)
(1.05747 -0.00734384 0)
(0.891049 0.263366 4.33153e-20)
(0.886729 0.237073 -1.05711e-19)
(0.905627 0.245167 -8.33152e-22)
(0.949703 0.441361 2.34194e-20)
(1.00949 0.426188 5.22462e-21)
(0.260343 0.106093 3.47348e-19)
(0.082611 0.124928 0)
(0.0624275 0.0378499 0)
(0.209198 0.0142657 0)
(1.14632 0.699907 -3.93101e-21)
(1.26617 0.648387 4.71587e-20)
(1.22094 0.66306 -2.19246e-20)
(1.02012 0.636709 -1.41617e-20)
(-0.0947054 0.04379 -3.61949e-20)
(-0.100376 0.0402017 -1.35399e-19)
(-0.060451 0.0351572 -2.53458e-20)
(-0.0670214 0.0349485 0)
(1.05725 -0.00693108 4.69997e-24)
(1.05743 -0.00688948 2.71428e-24)
(-0.101964 0.0465356 2.78588e-19)
(0.519624 -0.000119495 5.15489e-21)
(0.576145 -0.00506169 0)
(1.01381 -0.0336578 -2.32333e-20)
(1.018 -0.0366645 5.32287e-20)
(0.799835 0.717412 -1.31564e-19)
(1.09959 -0.0938244 -5.80873e-20)
(1.01881 -0.117124 0)
(1.08455 -0.118387 -3.91012e-20)
(1.08869 -0.100996 3.1983e-20)
(1.0187 -0.0768866 1.03459e-20)
(1.01017 -0.0955939 1.76747e-20)
(0.622288 -0.124709 -2.3352e-19)
(0.479396 -0.0198798 1.39436e-19)
(0.406948 -0.123366 -4.07107e-19)
(0.861468 0.0163048 0)
(0.857531 0.0152536 3.53036e-22)
(0.843277 0.752284 1.26094e-19)
(0.439757 0.45736 -1.02581e-20)
(0.501156 0.508403 0)
(1.03389 -0.127696 0)
(-0.0654619 -0.109846 0)
(1.16055 0.139159 0)
(1.13072 0.143619 2.54802e-21)
(-0.0824709 0.0466249 7.96837e-20)
(-0.0819904 0.0426759 3.29242e-20)
(1.42271 -0.332786 0)
(-0.0937374 0.108207 -6.42546e-20)
(-0.076598 0.114353 8.70339e-20)
(-0.12759 0.107146 -1.9584e-19)
(-0.126247 0.0944157 1.79312e-19)
(-0.0835566 0.0894812 -2.67041e-20)
(0.544832 -0.3221 0)
(0.673868 -0.413318 -4.04376e-20)
(-0.0302783 0.0261578 2.74173e-20)
(-0.0274715 0.0241658 -3.04771e-20)
(0.872726 0.660128 0)
(1.03209 0.69365 5.45379e-21)
(0.890926 0.585732 -2.34892e-20)
(0.656942 0.491958 0)
(0.676244 0.283071 -1.15992e-19)
(0.613303 0.385632 8.11578e-20)
(0.467704 0.262341 -2.9978e-19)
(0.587941 0.167778 3.67411e-20)
(1.36434 0.212358 -1.26604e-20)
(1.35093 0.198301 1.69932e-20)
(1.3665 0.195864 6.65361e-21)
(1.38186 0.210743 0)
(1.01341 0.111098 1.47781e-20)
(0.910871 0.106507 -1.27522e-20)
(1.01099 0.119329 0)
(-0.0960812 0.0802932 0)
(-0.114331 0.0380177 2.72496e-20)
(-0.0652315 0.0490946 3.22511e-20)
(-0.106994 -0.105373 1.44339e-20)
(-0.0612463 -0.0564829 -5.77393e-20)
(-0.0663377 -0.0565799 1.52308e-19)
(0.0922404 0.222487 -4.97723e-19)
(0.0238366 0.136077 -2.99091e-19)
(0.0161207 0.0840425 -4.17378e-20)
(0.757702 -0.00824779 5.6644e-20)
(0.780513 -0.0242184 -1.10305e-19)
(0.774485 0.0134491 0)
(0.148512 0.0860114 2.19854e-20)
(1.05749 -0.00750868 1.33338e-26)
(1.40793 0.218101 0)
(1.13249 -0.0394553 -2.53967e-21)
(1.22181 0.119655 0)
(1.21173 0.111706 -3.94188e-22)
(1.20186 0.104499 1.00922e-22)
(1.19233 0.0975325 5.26549e-23)
(1.18266 0.0915601 -8.14434e-22)
(1.17391 0.0852567 1.51076e-21)
(1.16635 0.0773687 2.77636e-21)
(1.15919 0.0720346 -1.77601e-22)
(1.15204 0.0666288 1.38907e-22)
(1.14558 0.0613248 2.02587e-29)
(1.13939 0.0561711 3.43923e-24)
(1.13386 0.0513444 2.76516e-22)
(1.12856 0.0466538 -3.14011e-22)
(1.12382 0.042226 -2.4541e-26)
(1.11931 0.0379069 6.38892e-23)
(1.1153 0.0338246 -1.36421e-21)
(1.11155 0.0298495 1.29322e-21)
(1.10836 0.0261992 0)
(1.1052 0.0224191 -2.00631e-22)
(1.10246 0.018813 0)
(1.10005 0.015353 -2.00771e-21)
(1.09801 0.0120427 1.98277e-21)
(1.09623 0.0087914 1.28805e-22)
(1.0948 0.00566202 -6.49799e-26)
(1.09364 0.0025844 0)
(1.09283 -0.000389288 -2.33753e-21)
(1.09231 -0.00331991 2.17516e-21)
(1.09212 -0.00616208 -2.40812e-21)
(1.09225 -0.00896733 4.81541e-21)
(1.09274 -0.0116966 -4.85791e-21)
(1.09357 -0.0143943 2.42248e-21)
(1.09478 -0.0170325 0)
(1.09638 -0.0196756 2.57236e-21)
(1.0986 -0.0225314 -4.47387e-21)
(1.10134 -0.0248998 2.68921e-21)
(1.10484 -0.0275841 0)
(1.10784 -0.0293236 1.90727e-21)
(1.11121 -0.0323638 0)
(1.25075 0.134705 2.51258e-22)
(1.23997 0.138709 6.74549e-22)
(1.25211 0.148057 3.25087e-22)
(1.26438 0.158242 0)
(1.2759 0.152997 6.69557e-22)
(1.26286 0.143172 7.95567e-22)
(1.22923 0.117096 0)
(1.23975 0.124892 6.4916e-21)
(1.2082 0.101579 -2.16696e-22)
(1.21844 0.108809 1.10524e-21)
(1.18833 0.0882502 0)
(1.19807 0.0942561 0)
(1.17083 0.0754196 0)
(1.17881 0.0824998 -1.60273e-21)
(1.15605 0.0648333 -1.4895e-23)
(1.16321 0.0701693 -8.71778e-27)
(1.14315 0.0546818 1.19516e-23)
(1.14941 0.059707 1.81991e-26)
(1.13204 0.0453487 1.11682e-23)
(1.13742 0.049965 -6.78074e-27)
(1.12255 0.0367541 -1.97456e-23)
(1.12713 0.0410062 7.40624e-27)
(1.11467 0.0287514 -1.88192e-22)
(1.1184 0.0327969 -2.34548e-23)
(1.1079 0.0214936 6.62443e-23)
(1.11111 0.025107 1.83263e-22)
(1.10261 0.0145723 -2.89452e-23)
(1.1051 0.0179915 3.10867e-26)
(1.09861 0.00810521 -4.26782e-23)
(1.10046 0.0113152 0)
(1.09585 0.00199746 4.02721e-26)
(1.09708 0.00503234 1.65544e-26)
(1.09435 -0.00381132 4.90777e-23)
(1.09495 -0.000921297 -1.55832e-26)
(1.09415 -0.009364 0)
(1.09408 -0.00659946 0)
(1.09531 -0.0146954 -2.4023e-26)
(1.09455 -0.0120407 -2.02654e-26)
(1.098 -0.0198883 3.24903e-22)
(1.09644 -0.0172719 4.59393e-26)
(1.10282 -0.0247225 -4.73302e-22)
(1.09998 -0.0226265 0)
(1.10586 -0.027584 0)
(1.2149 0.122813 0)
(1.22818 0.132009 0)
(1.19551 0.107606 0)
(1.20502 0.115076 2.6927e-22)
(1.17704 0.0942404 1.02362e-21)
(1.18611 0.100212 -5.12567e-23)
(1.1611 0.077732 -1.50167e-21)
(1.16882 0.0866371 1.55926e-22)
(1.1472 0.0665171 0)
(1.15415 0.0721878 0)
(1.13472 0.05549 1.16503e-26)
(1.14069 0.0608158 -6.16809e-30)
(1.12412 0.0456449 -3.83439e-26)
(1.12919 0.0504249 -1.17377e-26)
(1.11517 0.0366622 0)
(1.11944 0.0410351 0)
(1.10775 0.0284675 0)
(1.11126 0.0324457 0)
(1.10168 0.02077 0)
(1.10453 0.0245015 0)
(1.097 0.0137221 -2.56513e-27)
(1.09918 0.0171788 0)
(1.09358 0.00709352 -2.34559e-26)
(1.09513 0.0103504 0)
(1.09142 0.000823893 0)
(1.09235 0.00390805 2.49729e-26)
(1.09053 -0.0051379 -2.74703e-26)
(1.09082 -0.00219923 0)
(1.09095 -0.0108423 -2.89307e-26)
(1.09057 -0.00802593 2.80145e-26)
(1.09279 -0.0163325 -2.98729e-26)
(1.09169 -0.0136161 2.90474e-26)
(1.09613 -0.0216146 -2.91051e-26)
(1.0943 -0.0190215 2.97496e-26)
(1.10063 -0.0263207 0)
(1.09806 -0.0238398 2.9967e-26)
(1.10783 -0.0314028 0)
(1.1046 -0.0294071 0)
(1.28979 0.163534 4.57949e-23)
(1.30462 0.174275 0)
(1.29115 0.180259 3.20997e-22)
(1.27738 0.168859 2.4536e-21)
(1.32091 0.185575 -2.97641e-21)
(1.30554 0.192345 4.29666e-22)
(1.33701 0.19355 6.95243e-21)
(1.11048 -0.0298281 -1.35858e-21)
(1.1143 -0.0327427 -4.03284e-22)
(1.1114 -0.0336496 0)
(1.24111 0.153111 -2.04906e-22)
(1.23001 0.144913 -6.47612e-22)
(1.25246 0.163078 6.96438e-25)
(1.27784 0.185105 1.0138e-21)
(1.29152 0.19739 -2.73399e-21)
(1.38049 0.225055 8.18081e-21)
(1.35065 0.215837 4.47964e-21)
(1.3504 0.186633 -1.07178e-20)
(1.31658 0.166165 -9.28252e-22)
(1.33239 0.175415 1.95008e-21)
(1.28659 0.14698 8.92361e-23)
(1.3012 0.157025 -1.21397e-21)
(1.26 0.129212 2.52691e-22)
(1.27292 0.137665 -1.22057e-21)
(1.23646 0.112426 2.38306e-22)
(1.24815 0.119677 -5.99859e-22)
(1.21444 0.0983389 -8.7739e-22)
(1.22526 0.104799 -1.08337e-21)
(1.19428 0.084714 1.79517e-22)
(1.20417 0.090916 -4.09906e-23)
(1.17704 0.0727969 0)
(1.18523 0.0792307 2.91956e-22)
(1.16191 0.0620026 6.83141e-23)
(1.16917 0.0673327 -9.2385e-26)
(1.1487 0.0521368 1.32553e-23)
(1.15511 0.0570105 4.46938e-26)
(1.13717 0.0430931 0)
(1.14274 0.0475729 7.00521e-27)
(1.12728 0.0347567 0)
(1.13204 0.0388885 -1.62098e-26)
(1.11893 0.027037 0)
(1.12296 0.0308729 2.44963e-23)
(1.11197 0.019904 6.46612e-26)
(1.11528 0.0234417 -6.35539e-26)
(1.10636 0.0131975 9.0927e-24)
(1.109 0.0165238 0)
(1.10208 0.00690413 -2.64662e-23)
(1.10406 0.0100329 0)
(1.09907 0.000961835 -6.636e-26)
(1.10042 0.00391908 2.97994e-26)
(1.09735 -0.00469174 0)
(1.09805 -0.00187389 -2.49932e-26)
(1.09694 -0.010095 3.86618e-23)
(1.09698 -0.00739954 7.20021e-26)
(1.09791 -0.0152816 0)
(1.09724 -0.012696 1.23184e-25)
(1.10041 -0.0203522 -4.00231e-22)
(1.09895 -0.0177752 3.50708e-26)
(1.1048 -0.0251797 3.85775e-22)
(1.10229 -0.0229984 -5.05069e-23)
(1.10762 -0.027714 1.06868e-22)
(1.11889 -0.0351755 3.91059e-22)
(1.11731 -0.0367304 0)
(1.1223 -0.036906 -2.06367e-21)
(1.12092 -0.0370752 5.07612e-22)
(1.20844 0.12715 4.11015e-23)
(1.21886 0.136101 -7.44745e-23)
(1.18847 0.110123 0)
(1.19799 0.117981 7.83257e-23)
(1.17111 0.095871 -3.95124e-22)
(1.17948 0.102997 -5.51639e-23)
(1.15605 0.0814666 -1.59424e-23)
(1.16323 0.0879297 4.11226e-23)
(1.14322 0.0701878 0)
(1.14938 0.0756278 0)
(1.13157 0.0592874 0)
(1.13723 0.064643 -1.7669e-28)
(1.12143 0.0493443 2.37685e-26)
(1.12632 0.0542062 -1.66284e-28)
(1.11276 0.040241 0)
(1.11692 0.0447029 0)
(1.10545 0.031853 5.55747e-26)
(1.10894 0.0359714 0)
(1.0995 0.0241067 -6.50201e-27)
(1.10233 0.0279322 -4.41657e-26)
(1.09471 0.0168138 3.51327e-27)
(1.09696 0.0203977 0)
(1.09115 0.00999832 0)
(1.09278 0.0133572 0)
(1.08879 0.00355725 9.79015e-28)
(1.08982 0.00673799 0)
(1.08763 -0.00257214 -2.2594e-28)
(1.08806 0.000459327 0)
(1.08772 -0.00844144 2.60747e-28)
(1.08751 -0.00553449 0)
(1.08916 -0.0141015 -6.47644e-26)
(1.08826 -0.0112918 0)
(1.09214 -0.0196351 -4.85133e-28)
(1.09043 -0.0168743 6.50035e-26)
(1.09722 -0.0254017 1.35124e-22)
(1.0944 -0.0224782 0)
(1.10468 -0.0312228 6.31969e-22)
(1.10058 -0.028262 -5.06547e-22)
(1.11429 -0.0367366 -4.86157e-22)
(1.10943 -0.0342102 -1.25228e-22)
(1.26477 0.173543 -1.01074e-21)
(1.22976 0.156997 -1.86847e-22)
(1.2197 0.147706 1.03798e-23)
(1.2405 0.167085 2.85957e-22)
(1.26409 0.189787 3.99573e-22)
(1.277 0.202897 -7.23766e-22)
(1.11135 -0.0366934 0)
(1.1201 -0.0393737 6.04034e-22)
(1.117 -0.0393156 -1.2752e-22)
(1.36809 0.229757 2.40139e-21)
(1.32086 0.206034 -3.83679e-21)
(1.12366 -0.0366651 -6.37592e-22)
(1.30649 0.209672 2.40168e-21)
(1.12983 -0.0391243 -1.53623e-21)
(1.39574 0.199386 -9.62867e-21)
(1.40036 0.234103 -3.62731e-22)
(1.42869 0.229888 -2.09354e-20)
(1.43456 0.217376 4.27691e-21)
(1.41505 0.207118 3.31513e-21)
(1.35933 0.179565 -1.00626e-20)
(1.3765 0.187766 5.56672e-21)
(1.32697 0.158574 6.75578e-22)
(1.34291 0.168861 -3.25979e-21)
(1.29646 0.14049 5.33068e-23)
(1.3113 0.149409 3.67933e-22)
(1.26835 0.123636 -3.26743e-22)
(1.28216 0.13167 0)
(1.24373 0.107452 0)
(1.2558 0.114807 6.42223e-22)
(1.22078 0.0939775 8.32241e-22)
(1.23222 0.100154 0)
(1.20064 0.0810595 3.18484e-22)
(1.21044 0.0871358 3.92298e-25)
(1.18287 0.0694498 0)
(1.19157 0.075506 -3.16124e-22)
(1.16713 0.0590032 1.19745e-23)
(1.17467 0.0642065 6.37362e-25)
(1.15349 0.0494073 1.1453e-23)
(1.1601 0.0541413 3.78741e-26)
(1.14158 0.0406494 -2.49407e-23)
(1.14733 0.044986 0)
(1.13134 0.0325871 1.3347e-23)
(1.13626 0.0365839 1.62103e-26)
(1.12265 0.0250959 -3.38737e-24)
(1.12684 0.0287916 0)
(1.11547 0.018186 5.15973e-24)
(1.11889 0.0216275 0)
(1.10963 0.0116936 2.06854e-23)
(1.11238 0.0149161 0)
(1.10515 0.00559391 2.64656e-23)
(1.10723 0.00862897 0)
(1.10198 -0.000170824 -1.02933e-25)
(1.1034 0.00270119 1.01981e-25)
(1.10011 -0.00565876 -6.01584e-26)
(1.10088 -0.00292171 1.24508e-25)
(1.09958 -0.0109052 -7.07648e-23)
(1.09968 -0.00828486 1.12602e-25)
(1.10045 -0.0159506 0)
(1.09983 -0.0134309 -2.08148e-25)
(1.10283 -0.0208463 0)
(1.10143 -0.0183711 -2.22677e-25)
(1.10709 -0.0256344 1.257e-22)
(1.10468 -0.0234029 7.68889e-23)
(1.11298 -0.0301783 -3.9083e-22)
(1.10993 -0.0279518 -8.52387e-23)
(1.12157 -0.0353031 0)
(1.11698 -0.0329115 3.66935e-22)
(1.12633 -0.0369503 1.77469e-22)
(1.12608 -0.0394334 1.11452e-22)
(1.12853 -0.0394749 1.63556e-21)
(1.12282 -0.0389579 0)
(1.19985 0.129456 -1.34888e-22)
(1.20998 0.138547 0)
(1.18119 0.112997 0)
(1.19021 0.120819 5.12256e-23)
(1.16452 0.0975669 9.53152e-25)
(1.17258 0.105314 5.17807e-23)
(1.14975 0.0835908 1.46317e-23)
(1.15707 0.0903823 2.48826e-24)
(1.13657 0.07128 0)
(1.14289 0.077351 0)
(1.12533 0.0600307 7.82538e-26)
(1.13074 0.0655191 7.31224e-28)
(1.11565 0.0498333 0)
(1.1203 0.0548061 2.42925e-28)
(1.10744 0.0405336 -1.91396e-25)
(1.11137 0.0450797 0)
(1.10058 0.0319914 -1.17837e-26)
(1.10384 0.0361734 1.92179e-25)
(1.09499 0.0240676 6.50209e-27)
(1.09763 0.0279518 1.94828e-28)
(1.09063 0.0166996 1.1893e-25)
(1.09266 0.0203211 0)
(1.08744 0.00978366 1.28791e-25)
(1.08889 0.0131894 -1.22941e-25)
(1.08543 0.00324233 1.18884e-28)
(1.08629 0.00646966 -1.29316e-25)
(1.08462 -0.00298795 1.38385e-25)
(1.08487 9.1355e-05 0)
(1.08505 -0.00896225 1.41137e-25)
(1.08467 -0.0060045 -1.38665e-25)
(1.08683 -0.0147273 1.42952e-25)
(1.08576 -0.0118693 -1.41684e-25)
(1.09007 -0.0202791 -5.86592e-28)
(1.08827 -0.017535 -1.4356e-25)
(1.09499 -0.0257175 -1.37717e-22)
(1.09227 -0.0229626 0)
(1.10184 -0.0311477 0)
(1.09818 -0.028479 0)
(1.10617 -0.0339055 0)
(1.2519 0.177885 -3.91071e-22)
(1.29178 0.216038 3.45076e-22)
(1.21863 0.160422 -3.79901e-23)
(1.20929 0.150922 -7.77918e-23)
(1.12618 -0.0418286 -5.83234e-22)
(1.12333 -0.0420241 0)
(1.22858 0.170381 0)
(1.38704 0.243305 -9.28019e-21)
(1.13265 -0.0391823 4.37192e-21)
(1.13907 -0.0400897 -4.09356e-21)
(1.41782 0.239959 0)
(1.33747 0.219899 1.43304e-21)
(1.35423 0.237531 -1.85965e-20)
(1.44222 0.206345 9.86419e-22)
(1.4724 0.220413 -2.87357e-22)
(1.45775 0.228519 1.0485e-20)
(1.3227 0.224101 3.60785e-21)
(1.30789 0.229891 7.94325e-22)
(1.4058 0.187877 3.39675e-21)
(1.42288 0.196137 -4.76579e-21)
(1.3712 0.171004 -3.60006e-22)
(1.388 0.178266 7.23294e-22)
(1.33661 0.151369 -3.11e-22)
(1.35353 0.161156 1.16641e-21)
(1.30538 0.133309 0)
(1.32082 0.142114 -3.98685e-24)
(1.27644 0.117383 -6.32472e-24)
(1.29058 0.125132 9.245e-24)
(1.25073 0.102259 0)
(1.26316 0.109422 0)
(1.22751 0.0891105 0)
(1.2389 0.0953371 0)
(1.20678 0.0768322 -3.35471e-24)
(1.21682 0.0827282 2.81037e-24)
(1.18842 0.0657402 -8.30156e-23)
(1.19737 0.0714296 -2.21567e-24)
(1.17204 0.055707 -5.39823e-23)
(1.1799 0.0606999 2.35403e-25)
(1.15792 0.0464725 -3.83905e-23)
(1.16475 0.0510338 -2.60958e-25)
(1.14563 0.0380295 6.06086e-23)
(1.15156 0.0422101 -8.26014e-25)
(1.13506 0.0302589 9.77181e-24)
(1.14014 0.0341099 -3.19601e-25)
(1.12611 0.0230418 3.23732e-24)
(1.1304 0.0266134 1.57427e-25)
(1.11869 0.016361 -5.15943e-24)
(1.12221 0.0196853 0)
(1.11266 0.0100936 -4.75371e-24)
(1.1155 0.0132067 0)
(1.10801 0.00419888 1.05512e-25)
(1.11017 0.00713347 -1.04322e-25)
(1.10471 -0.00137275 1.50005e-25)
(1.10619 0.00140679 -1.48626e-25)
(1.10273 -0.00668578 0)
(1.10355 -0.0040371 0)
(1.1021 -0.0117657 3.19264e-23)
(1.10224 -0.00922655 1.75338e-25)
(1.1029 -0.0166609 0)
(1.10232 -0.0142124 3.42238e-25)
(1.10524 -0.0213936 0)
(1.10387 -0.0190102 1.40395e-25)
(1.10945 -0.0260452 -3.84181e-23)
(1.10706 -0.0238239 -7.61217e-23)
(1.11545 -0.0305105 -1.77472e-22)
(1.1123 -0.02831 7.28115e-23)
(1.12387 -0.0352765 1.2902e-22)
(1.11944 -0.0330194 3.80056e-22)
(1.12832 -0.0371302 -1.59653e-22)
(1.13587 -0.0411381 0)
(1.13779 -0.0406289 5.7582e-22)
(1.13164 -0.041623 -4.34563e-22)
(1.13415 -0.0415663 0)
(1.12898 -0.0415937 -3.34197e-22)
(1.19102 0.132695 5.73053e-23)
(1.20018 0.141812 -5.71238e-23)
(1.17304 0.115168 -1.02578e-24)
(1.18179 0.123675 -4.83082e-26)
(1.15742 0.0997011 -4.34953e-25)
(1.16496 0.107214 2.19317e-26)
(1.14334 0.0856889 0)
(1.15018 0.0924609 0)
(1.13116 0.0733075 8.9814e-26)
(1.13701 0.0793093 0)
(1.12057 0.0620439 -1.81435e-25)
(1.12569 0.067556 -5.54522e-28)
(1.11137 0.0517466 0)
(1.11579 0.0567779 0)
(1.10352 0.0423296 0)
(1.10728 0.0469373 0)
(1.09694 0.0336628 2.34009e-25)
(1.10008 0.0379107 0)
(1.09159 0.0256374 0)
(1.09412 0.0295794 -2.51646e-25)
(1.08737 0.0181389 0)
(1.08934 0.0218267 0)
(1.08429 0.0110989 0)
(1.08569 0.0145668 0)
(1.08234 0.00443916 -1.09794e-27)
(1.08318 0.00772644 0)
(1.08155 -0.00190913 -2.82344e-28)
(1.0818 0.00123021 0)
(1.08196 -0.00800407 -6.04056e-28)
(1.0816 -0.00498464 0)
(1.08369 -0.0139011 3.13103e-25)
(1.08265 -0.0109737 0)
(1.08691 -0.0196667 3.14428e-25)
(1.08509 -0.0167939 -3.14069e-25)
(1.0919 -0.0253861 -2.53955e-27)
(1.08918 -0.0225374 -3.14463e-25)
(1.09898 -0.0311262 0)
(1.09513 -0.0282499 0)
(1.10847 -0.0368391 3.09022e-22)
(1.10343 -0.0340205 0)
(1.52623 0.259448 2.96539e-21)
(1.52074 0.241969 0)
(1.33886 0.239388 -1.03706e-21)
(1.45812 0.246003 7.83184e-21)
(1.12051 -0.0423432 -3.07684e-22)
(1.11421 -0.0396292 -3.00767e-22)
(1.25078 0.193932 -4.00823e-22)
(1.23943 0.181375 0)
(1.2767 0.22182 1.02365e-21)
(1.26275 0.20807 5.94984e-22)
(1.32571 0.244794 2.21538e-21)
(1.50068 0.224963 2.79843e-20)
(1.52305 0.268027 2.53336e-20)
(1.43921 0.252728 -1.46351e-20)
(1.47922 0.207149 -1.63258e-20)
(1.51513 0.222636 0)
(1.19862 0.152936 2.56461e-23)
(1.20756 0.162922 -2.49175e-23)
(1.37238 0.255957 1.70213e-20)
(1.44287 0.219625 -3.07711e-20)
(1.39812 0.199047 0)
(1.29192 0.237496 4.81037e-22)
(1.1176 -0.0426708 5.96414e-22)
(1.12719 -0.0450044 -5.68198e-22)
(1.12434 -0.0454758 5.75973e-22)
(1.46578 0.234197 6.99901e-21)
(1.40927 0.252694 4.9329e-21)
(1.52392 0.296849 0)
(1.45179 0.196904 1.05397e-21)
(1.48246 0.210028 0)
(1.41525 0.177988 -1.54864e-21)
(1.43127 0.186617 1.86348e-21)
(1.38167 0.161163 3.51224e-22)
(1.39839 0.168497 0)
(1.34621 0.143111 5.89589e-22)
(1.36382 0.152304 -1.02444e-23)
(1.31381 0.126087 -5.14041e-22)
(1.32958 0.134524 -1.17528e-23)
(1.28422 0.110828 1.38567e-23)
(1.29867 0.118291 -1.63572e-23)
(1.25765 0.0966507 -3.65873e-22)
(1.27052 0.10349 5.93843e-24)
(1.23385 0.0839982 1.50656e-22)
(1.24546 0.0901044 -4.93021e-24)
(1.21254 0.0723286 0)
(1.22287 0.0780011 0)
(1.19366 0.0617545 8.56194e-23)
(1.20284 0.0671044 0)
(1.1768 0.0521541 0)
(1.18492 0.0569252 0)
(1.16223 0.0433304 -1.84251e-24)
(1.16926 0.0476936 3.25998e-24)
(1.14958 0.0352391 -3.65062e-23)
(1.15567 0.039248 2.44236e-24)
(1.1387 0.027782 -5.4868e-23)
(1.14392 0.0314781 0)
(1.12947 0.0208604 0)
(1.13389 0.0242915 0)
(1.12182 0.0144303 2.92894e-25)
(1.12546 0.0176275 -5.30884e-25)
(1.11561 0.00840221 7.62381e-24)
(1.11854 0.011399 -1.05459e-25)
(1.1108 0.00272638 -9.60392e-26)
(1.11303 0.00555294 8.23776e-26)
(1.10735 -0.00264669 -1.9081e-25)
(1.10891 3.43203e-05 7.56231e-26)
(1.10526 -0.00777024 0)
(1.10614 -0.00521373 -1.9904e-25)
(1.10455 -0.0126752 -1.93784e-23)
(1.10473 -0.0102224 -1.84714e-25)
(1.10528 -0.017408 0)
(1.10472 -0.0150381 1.167e-25)
(1.10757 -0.0219827 0)
(1.10622 -0.0196844 3.74813e-25)
(1.11171 -0.0264801 0)
(1.10936 -0.0242821 2.48532e-25)
(1.11774 -0.0308326 6.81852e-23)
(1.11453 -0.0286725 0)
(1.12614 -0.0353721 -2.86917e-22)
(1.12167 -0.0331365 -2.91036e-23)
(1.13671 -0.0398943 1.35923e-21)
(1.13117 -0.0376254 0)
(1.14134 -0.0427429 -3.56487e-22)
(1.14352 -0.0410069 8.15328e-22)
(1.14345 -0.042598 -5.67608e-22)
(1.13741 -0.04355 -4.10885e-22)
(1.13973 -0.0432978 7.54188e-22)
(1.1326 -0.0442041 9.64172e-22)
(1.13514 -0.0438743 1.06635e-21)
(1.12998 -0.0445923 2.7911e-22)
(1.18151 0.134605 2.43493e-23)
(1.19002 0.143608 -3.66621e-23)
(1.16486 0.117159 3.25677e-24)
(1.173 0.125682 0)
(1.14995 0.101353 1.31136e-25)
(1.1572 0.109073 -2.19208e-26)
(1.13665 0.0871817 -1.04097e-25)
(1.1431 0.0940719 3.04555e-25)
(1.12494 0.0744756 8.80487e-25)
(1.13059 0.0806693 0)
(1.11481 0.0629919 -2.50518e-26)
(1.11969 0.0685925 -8.52643e-25)
(1.10609 0.0525581 -1.02732e-24)
(1.11028 0.0576529 0)
(1.09868 0.043027 0)
(1.10223 0.0476887 1.0314e-24)
(1.09249 0.034261 5.9466e-25)
(1.09543 0.0385562 0)
(1.08746 0.0261384 6.13457e-25)
(1.08983 0.0301253 -5.80307e-25)
(1.08355 0.018563 0)
(1.08536 0.0222884 -6.05913e-25)
(1.08073 0.0114426 6.46103e-25)
(1.082 0.0149511 0)
(1.07901 0.00469833 -1.34036e-27)
(1.07973 0.00802803 -6.46004e-25)
(1.07842 -0.00173928 6.69805e-25)
(1.07857 0.00144526 0)
(1.07902 -0.00793017 6.77401e-25)
(1.07857 -0.00486215 -6.72093e-25)
(1.08091 -0.0139263 6.80785e-25)
(1.0798 -0.01095 -6.79743e-25)
(1.08424 -0.0197665 6.78732e-25)
(1.08238 -0.0168633 -6.83458e-25)
(1.08922 -0.0255136 6.77297e-25)
(1.0865 -0.0226448 -6.82732e-25)
(1.09613 -0.0311805 -6.70218e-25)
(1.09242 -0.028357 -6.77343e-25)
(1.10554 -0.0369735 -3.13194e-22)
(1.1005 -0.0340587 6.5845e-25)
(1.11126 -0.0398454 3.06824e-22)
(1.21713 0.173375 2.12704e-22)
(1.23713 0.196713 3.91125e-22)
(1.227 0.184366 -3.61855e-22)
(1.26087 0.226528 -3.15347e-22)
(1.24827 0.211611 -3.05726e-22)
(1.35743 0.262645 2.55131e-22)
(1.46284 0.191554 -5.27107e-21)
(1.51346 0.205401 -5.07351e-21)
(1.26034 0.181948 5.87861e-21)
(1.30437 0.207838 -1.3492e-20)
(1.13889 -0.0396872 7.09483e-22)
(1.14506 -0.0410189 -3.42982e-22)
(1.30864 0.255563 2.87489e-22)
(1.27449 0.242465 -1.34594e-21)
(1.13391 -0.0475085 -8.40077e-22)
(1.13129 -0.0480803 5.60627e-22)
(1.47013 0.266306 -3.86152e-20)
(1.42733 0.263602 -4.16714e-20)
(1.35811 0.179922 1.73521e-20)
(1.3972 0.268876 -3.18387e-20)
(1.34578 0.274326 0)
(1.19691 0.165607 -8.00725e-25)
(1.18831 0.155309 0)
(1.46386 0.187419 -3.19956e-21)
(1.49342 0.198235 -1.37978e-22)
(1.42433 0.168264 0)
(1.44183 0.177219 0)
(1.39073 0.151127 0)
(1.4073 0.15906 -2.54638e-23)
(1.35516 0.134321 6.75769e-22)
(1.37297 0.14284 1.01734e-23)
(1.32185 0.118476 1.09907e-21)
(1.33805 0.126387 0)
(1.29161 0.103989 -4.77019e-22)
(1.30636 0.111122 0)
(1.26434 0.090653 1.4152e-22)
(1.27759 0.0971539 1.77657e-23)
(1.23985 0.0786248 -3.3656e-22)
(1.25177 0.0844988 3.54403e-23)
(1.21799 0.0675618 1.36178e-22)
(1.22859 0.0729808 0)
(1.19864 0.0575309 0)
(1.20804 0.062564 0)
(1.18138 0.0483874 7.8399e-23)
(1.1897 0.0529294 1.07098e-23)
(1.16641 0.039992 7.09247e-23)
(1.17363 0.044146 -1.04054e-24)
(1.15341 0.0322801 -5.49441e-23)
(1.15968 0.0361035 -7.96412e-25)
(1.14224 0.0251599 3.20704e-23)
(1.14761 0.0286907 0)
(1.13276 0.0185484 0)
(1.1373 0.0218293 -1.07161e-24)
(1.12488 0.0123903 1.91082e-23)
(1.12863 0.015452 2.42807e-25)
(1.11849 0.0066151 -2.87e-24)
(1.12151 0.00948818 5.53607e-25)
(1.11352 0.00117076 0)
(1.11583 0.00388278 -1.8635e-25)
(1.10993 -0.0039932 -1.66781e-25)
(1.11155 -0.0014158 2.78771e-25)
(1.10772 -0.00891756 -9.02815e-24)
(1.10865 -0.00645842 3.66116e-25)
(1.10691 -0.0136391 1.96151e-23)
(1.10714 -0.0112771 -2.37244e-25)
(1.10757 -0.0181991 0)
(1.10705 -0.0159141 -3.28586e-25)
(1.1098 -0.0226146 1.70311e-25)
(1.10848 -0.0203981 -5.44522e-25)
(1.11388 -0.0269544 -2.16736e-23)
(1.11157 -0.0248068 0)
(1.11994 -0.0312028 0)
(1.11667 -0.0290743 0)
(1.12835 -0.0355687 -9.80849e-23)
(1.12387 -0.0333894 2.94977e-23)
(1.13328 -0.0376502 2.12374e-22)
(1.14611 -0.044346 -1.4621e-22)
(1.14848 -0.0431443 -1.28097e-21)
(1.14765 -0.0438244 1.32592e-22)
(1.14277 -0.0452874 -2.37088e-26)
(1.14459 -0.0448327 0)
(1.13877 -0.0463893 -1.33722e-22)
(1.14087 -0.0458214 -4.38687e-22)
(1.13645 -0.0469449 -7.60508e-22)
(1.17203 0.136444 -2.44369e-23)
(1.18008 0.145678 3.64758e-23)
(1.15646 0.118663 -2.60409e-24)
(1.16413 0.127423 0)
(1.14243 0.102686 -9.80161e-25)
(1.14923 0.110431 3.73074e-25)
(1.12997 0.0884277 2.19769e-24)
(1.13601 0.0953583 6.46651e-26)
(1.11904 0.0756569 -1.17266e-25)
(1.12432 0.0818681 -1.9663e-24)
(1.10952 0.064127 -2.31357e-24)
(1.11412 0.0697531 -1.32278e-26)
(1.10129 0.0536308 -8.03683e-26)
(1.10525 0.0587587 2.29711e-24)
(1.09428 0.0440299 4.17555e-26)
(1.09764 0.048727 0)
(1.08842 0.0351928 2.15563e-26)
(1.09121 0.0395237 2.66364e-27)
(1.08366 0.027002 1.15429e-27)
(1.0859 0.0310237 1.37137e-27)
(1.07997 0.0193522 0)
(1.08168 0.0231153 0)
(1.07733 0.0121553 2.57116e-28)
(1.07852 0.0157023 -3.58602e-28)
(1.07574 0.00533183 -1.22577e-28)
(1.0764 0.00870163 0)
(1.07525 -0.00118994 -3.40409e-28)
(1.07536 0.00203763 0)
(1.07592 -0.00747234 -1.46897e-24)
(1.07543 -0.00435744 0)
(1.07784 -0.0135743 -1.47289e-24)
(1.07671 -0.0105425 1.47445e-24)
(1.0812 -0.0195544 6.91568e-28)
(1.07933 -0.0165756 1.47839e-24)
(1.08624 -0.0254654 -1.45586e-24)
(1.0835 -0.0225172 0)
(1.09328 -0.0313396 5.4227e-27)
(1.08948 -0.0284073 1.4613e-24)