/*--------------------------------*- C++ -*----------------------------------*\
  =========                 |
  \\      /  F ield         | OpenFOAM: The Open Source CFD Toolbox
   \\    /   O peration     | Website:  https://openfoam.org
    \\  /    A nd           | Version:  10
     \\/     M anipulation  |
\*---------------------------------------------------------------------------*/
FoamFile
{
    format      ascii;
    class       surfaceScalarField;
    location    "8.5";
    object      phi;
}
// * * * * * * * * * * * * * * * * * * * * * * * * * * * * * * * * * * * * * //

dimensions      [0 3 -1 0 0 0 0];

internalField   nonuniform List<scalar> 
12623
(
0.390025
0.100428
-0.156194
-0.334259
0.301903
-0.146349
0.234471
0.430329
0.0629751
-0.406986
-0.0863174
0.075893
0.408815
-0.0543788
-0.391004
-0.0772827
0.106236
0.36205
-0.403195
0.0880841
-0.0464989
0.199993
-0.221826
0.0683314
-0.277058
0.230559
0.366751
-0.000237374
-0.366513
0.191763
-0.0102705
0.185258
0.361802
-0.17037
-0.191432
-0.245543
0.193171
0.414173
-0.204986
-0.147824
0.149908
0.202902
0.0193436
0.0330666
-0.257396
-0.194702
0.0662217
0.0318378
0.030056
-0.0953348
0.033441
0.0648848
-0.0923006
0.0592536
-0.0330935
0.128034
0.0124414
-0.0410417
-0.0204063
0.0490066
-0.110279
0.0504203
0.0722999
-0.119936
-0.0313843
-0.0559306
0.0655875
0.0341074
-0.0437643
0.0259229
-0.114059
0.0322058
-0.111687
0.203197
-0.272477
0.0243819
0.281162
0.0395472
-0.303527
-0.00849708
-0.309832
0.0224422
0.311772
-0.179305
0.0866627
-0.0875858
0.180228
-0.183159
-0.125119
0.128973
-0.193387
0.197512
-0.0386944
0.0345688
-0.188505
0.0817807
-0.404901
-0.0260837
0.0610379
0.369947
0.0531126
-0.412449
-0.0455644
0.384645
-0.376759
-0.00576104
0.0258861
0.356634
0.0171559
-0.381838
-0.0120766
-0.405357
0.0460832
0.37643
-0.400496
-0.030945
0.353491
-0.0189306
-0.379865
0.0453044
-0.0024957
0.0503247
0.305662
-0.366041
0.00170017
0.34541
-0.373363
0.00156138
-0.0108675
0.00421076
0.204169
-0.354355
-0.0870032
0.0989666
0.342392
0.0670891
-0.351076
-0.0703684
0.0757838
-0.416004
-0.376248
0.113084
0.351248
-0.387468
-0.0395618
-0.275542
0.0266652
0.288439
0.2166
0.0345398
-0.290701
-0.226453
0.0719328
0.371119
-0.0889335
0.35134
-0.289316
0.0269095
-0.280846
0.29246
0.057974
-0.0578291
-0.292605
0.0480272
0.273356
-0.0289228
-0.0286329
0.017559
0.314149
-0.303075
-0.325204
0.322398
-0.0258268
0.31163
-0.0507996
0.0581737
-0.319004
0.214454
-0.216012
-0.210314
0.211872
-0.214892
0.216292
0.213054
-0.210069
-0.197484
0.191541
-0.209754
-0.166676
0.166361
-0.207564
-0.123873
0.121684
-0.213736
-0.0625153
0.0686872
-0.22239
0.00691174
0.00174195
-0.235414
0.082192
-0.0691682
-0.252802
0.148097
-0.130709
0.193414
-0.266957
-0.179259
0.21748
-0.227193
-0.205178
-0.206298
0.205712
0.216878
0.211924
-0.200742
-0.230344
-0.207163
-0.234587
-0.193241
-0.230463
-0.1708
-0.23401
-0.120327
-0.239337
-0.0571888
-0.249481
0.0170565
-0.263465
0.0961762
-0.273913
0.158545
-0.289882
0.209383
0.194206
0.202198
-0.18448
0.198959
0.200959
0.217992
-0.281242
-0.203706
-0.294524
0.222633
0.17803
0.193407
-0.16924
0.185805
0.191185
0.222503
-0.28533
-0.218415
-0.300333
0.228312
0.156316
0.183875
-0.146783
0.158962
0.215379
-0.291027
-0.209682
-0.292411
0.207457
0.18036
-0.121605
-0.0902885
0.183063
0.199764
-0.21156
-0.279231
0.197905
-0.290552
0.19544
-0.204429
-0.137794
-0.181121
0.181149
-0.0903163
-0.107286
0.218677
-0.230702
-0.172455
-0.154992
0.24315
-0.253202
-0.195126
-0.188294
0.26073
-0.261647
-0.192325
-0.199635
0.26765
-0.269026
-0.118951
-0.164796
0.277311
-0.284387
0.0241324
-0.0489036
0.293207
-0.297339
0.162676
0.104996
0.297145
-0.304751
0.23024
0.20919
0.300422
-0.293631
0.200666
0.223983
-0.283272
0.187546
-0.284437
0.264864
-0.198842
0.2808
-0.21465
-0.27771
-0.21332
-0.254262
0.232606
-0.157603
-0.193105
-0.223416
0.206723
-0.0524752
-0.121518
-0.202075
0.201041
0.0697218
0.00638938
-0.200247
0.209043
0.157564
0.122478
-0.209477
0.217733
0.203616
0.191107
-0.215444
0.216871
0.215451
0.215343
-0.204629
0.202065
0.193749
0.213201
-0.188014
0.128482
0.173012
0.0443204
-0.0493393
0.188082
0.185854
-0.0413904
0.1732
-0.186084
-0.269504
0.172316
-0.206648
-0.269988
-0.284873
0.27857
-0.208347
-0.221108
0.217645
-0.274247
-0.289464
-0.216517
0.159295
-0.181362
-0.247437
-0.272383
0.287196
0.157503
0.142287
-0.255374
0.226421
-0.217315
0.0254632
0.185457
-0.203373
-0.0724005
0.189521
-0.0454539
0.227596
-0.0120428
-0.268233
0.211111
-0.226036
-0.122868
-0.0995487
0.24192
-0.254275
-0.160099
-0.139108
0.270811
-0.279689
-0.186249
-0.171759
0.289381
-0.296573
-0.185134
-0.189942
0.302586
-0.309242
-0.112295
-0.158782
0.313404
-0.3199
0.0306278
-0.0447414
0.320528
-0.322043
0.164191
0.105625
0.318115
-0.309496
0.221622
0.205262
0.299635
-0.296609
0.19764
0.214122
0.178133
-0.265394
0.254524
-0.187972
-0.200144
-0.23661
0.224466
-0.145459
-0.175191
-0.206292
0.204165
-0.0503479
-0.103344
-0.202253
0.204662
0.0673125
0.00830148
-0.216392
0.21723
0.156726
0.110748
-0.232796
0.230611
0.205801
0.175542
-0.239436
0.229911
0.224977
0.206518
-0.227729
0.219314
0.202164
0.215382
-0.214504
0.210266
0.13272
0.177822
0.0747313
0.00106188
0.0128089
0.174211
0.191127
-0.00593476
0.186998
0.00845734
0.180074
0.232134
-0.232316
-0.289283
0.222133
-0.264246
-0.205972
-0.245378
-0.277308
0.285948
0.148862
-0.259173
0.124153
-0.14717
0.12565
-0.233854
-0.169336
-0.225271
-0.307949
0.300413
-0.22478
-0.235617
0.225653
-0.279319
-0.315167
-0.228398
-0.0426138
0.0494757
0.197307
0.228802
-0.0438193
0.0313716
-0.0380383
0.193665
0.196853
-0.192357
0.00396116
0.206388
0.0218363
-0.259647
-0.0158651
0.263469
-0.249647
0.0154629
-0.252072
0.202046
-0.210948
-0.0634991
-0.0357644
0.224042
-0.242144
-0.104767
-0.0864543
0.252541
-0.268971
-0.143669
-0.128711
0.285251
-0.29762
-0.17388
-0.155479
0.313259
-0.323379
-0.175014
-0.174303
0.337255
-0.34609
-0.10346
-0.144906
0.354043
-0.360893
0.0374775
-0.0367881
0.359077
-0.358335
0.163448
0.103809
0.342659
-0.329532
0.208494
0.189586
0.311163
-0.301536
0.188013
0.195753
0.162545
-0.293605
0.279619
-0.19436
-0.209709
-0.264297
0.25071
-0.174385
-0.184822
-0.231258
0.220956
-0.135158
-0.155739
-0.208249
0.204294
-0.0463924
-0.0906366
-0.205254
0.211909
0.0606572
0.00734136
-0.221067
0.231358
0.146434
0.10159
-0.24056
0.247612
0.198748
0.16634
-0.252098
0.252819
0.224256
0.202032
-0.255644
0.242687
0.215122
0.212557
-0.243805
0.24485
0.131676
0.176703
0.0699345
-0.0481646
0.0442499
0.178126
0.192438
0.186286
-0.242922
0.109399
0.214733
-0.253326
-0.192913
-0.221801
0.214589
-0.217956
-0.3118
0.205859
-0.270589
-0.124203
0.101741
-0.211392
-0.146524
-0.20295
0.064268
-0.0729055
0.202302
0.0516625
0.218994
-0.0827371
0.0934194
0.186625
-0.0788337
0.224899
0.27799
-0.279225
0.0166975
-0.0322933
0.294418
0.214657
-0.208385
-0.00231144
0.220378
0.0161159
-0.22665
0.0854686
-0.0707077
0.0506167
-0.206559
-0.0886817
-0.193418
0.265208
-0.0455578
-0.230253
0.215144
-0.228291
-0.0503525
-0.0290047
0.242032
-0.250765
-0.0960338
-0.0727135
0.268262
-0.281936
-0.129995
-0.111214
0.298234
-0.315852
-0.156262
-0.13918
0.33416
-0.352629
-0.156544
-0.155995
0.368548
-0.38137
-0.0906378
-0.128988
0.38988
-0.393531
0.0411287
-0.0282781
0.390946
-0.381679
0.154181
0.101224
0.367844
-0.34968
0.19033
0.175751
0.33096
-0.312022
0.169076
0.177033
0.297875
-0.277603
0.12859
0.148397
0.264692
-0.25001
0.094716
0.111242
0.230972
-0.217843
0.0374875
0.0664313
-0.330661
0.314537
-0.208657
0.341389
-0.351952
-0.207392
-0.217669
-0.301157
0.287458
-0.180661
-0.196329
-0.26743
0.254149
-0.161103
-0.164794
-0.237233
0.224893
-0.122818
-0.138823
-0.21648
0.21279
-0.0427027
-0.0822238
-0.214575
0.221416
0.0538158
0.00555689
-0.230798
0.242276
0.134957
0.0922082
-0.252889
0.262944
0.188694
0.155727
-0.270313
0.27601
0.218559
0.194662
-0.276619
0.284565
0.207176
0.211949
-0.280153
0.280115
0.131714
0.181116
0.0708243
-0.0969752
0.0857977
0.189303
0.188882
0.199178
-0.176863
0.170626
-0.305564
-0.357033
-0.171783
0.0120925
-0.0237546
-0.194897
-0.208342
0.00259168
0.189098
-0.236565
-0.17003
-0.198295
0.0469293
0.225111
-0.0688319
0.255206
0.326585
-0.323214
0.0133264
0.331521
-0.0372294
0.159653
-0.259616
-0.108189
-0.183443
0.092378
-0.0926743
-0.356736
0.0886135
-0.3018
-0.0360425
-0.18113
-0.0382149
0.0331939
-0.189876
-0.0359882
-0.210569
0.308828
-0.0599676
-0.211185
0.235094
-0.233858
-0.00354732
-0.232924
0.240597
0.0392562
0.0182858
0.240184
-0.246568
-0.0439688
-0.0226784
0.253566
-0.264315
-0.0852848
-0.0657149
0.278458
-0.293438
-0.115015
-0.0970707
0.310647
-0.330486
-0.136423
-0.121971
0.351871
-0.373964
-0.134451
-0.134611
0.393225
-0.408772
-0.0750904
-0.109727
0.418425
-0.421822
0.0445257
-0.0186251
0.41791
-0.406469
0.14274
0.0973119
0.38963
-0.368866
0.169567
0.158912
0.34767
-0.325866
0.147272
0.155836
0.30233
-0.285824
0.112084
0.124861
0.265608
-0.247994
0.0771022
0.0910266
0.235208
-0.227389
0.0296688
0.0536449
0.224064
-0.226757
-0.0332952
-0.000733799
-0.390672
0.376052
-0.192772
0.40233
-0.408003
-0.087001
-0.160125
-0.354088
0.333997
-0.188566
-0.195705
-0.309859
0.294672
-0.165474
-0.172191
-0.275679
0.259059
-0.144483
-0.145801
-0.244648
0.232944
-0.111114
-0.124413
-0.226387
0.224341
-0.0406565
-0.0756669
-0.227009
0.23424
0.0465848
0.00288901
-0.244024
0.256475
0.122506
0.0824241
-0.268539
0.281088
0.176145
0.143663
-0.291781
0.302182
0.208158
0.183969
-0.313613
0.315465
0.205323
0.200517
-0.322287
0.325272
0.128729
0.174294
0.072882
0.0216753
-0.0224616
-0.35595
-0.406495
0.0201671
-0.0714913
0.0812929
-0.220371
-0.23413
-0.0641184
0.307085
-0.0795223
-0.124528
0.129671
0.250062
0.281524
-0.148067
0.135273
0.199418
0.206503
-0.129683
0.12053
0.198457
0.194472
-0.109332
0.0970591
0.214575
0.210376
-0.0854152
0.0753126
0.235213
0.230638
0.0664177
0.249492
0.142681
-0.219594
-0.125378
-0.181106
0.0783423
-0.249344
-0.047282
-0.172204
-0.0231496
-0.301112
0.0296679
-0.177604
-0.137611
0.130367
-0.399251
-0.138414
-0.355147
0.0898271
-0.19841
0.100054
-0.0881036
-0.24608
0.11692
-0.237236
0.251666
-0.247439
0.0350297
0.262318
0.0557649
-0.193881
0.245698
-0.247104
-0.00214147
0.0165447
0.252727
-0.255887
-0.0408097
-0.0170549
0.266249
-0.276187
-0.0753468
-0.055352
0.289914
-0.304789
-0.10014
-0.0833438
0.323036
-0.343639
-0.11582
-0.103725
0.366236
-0.389286
-0.111401
-0.112013
0.409482
-0.425285
-0.0592881
-0.0895312
0.434102
-0.4358
0.046224
-0.0098079
0.430432
-0.418104
0.130413
0.0919433
0.399864
-0.378125
0.147828
0.140671
0.355276
-0.332301
0.124297
0.132987
0.311101
-0.290444
0.0914278
0.10366
0.272251
-0.255803
0.0606539
0.0728333
0.243756
-0.236632
0.0225451
0.041598
0.232882
-0.236923
-0.0292539
-0.0044842
0.245879
-0.259251
-0.0747323
-0.055162
-0.44673
0.440156
-0.0804262
0.444418
-0.436616
0.122565
0.0178548
-0.420192
0.395413
-0.167993
-0.140161
-0.366094
0.343647
-0.166119
-0.166386
-0.319631
0.300098
-0.145941
-0.148175
-0.283078
0.266091
-0.127496
-0.128781
-0.252278
0.241475
-0.100311
-0.1106
-0.236315
0.236036
-0.0403766
-0.0705072
-0.240085
0.248098
0.0385714
-0.00116018
-0.258522
0.271754
0.109274
0.0720002
-0.285543
0.300585
0.161103
0.129874
-0.314643
0.329558
0.193243
0.169911
-0.342532
0.355974
0.191882
0.187543
-0.368948
0.36686
0.130817
0.16132
-0.363708
0.364312
0.0127224
0.0760341
-0.368568
0.371425
-0.0823786
-0.0414856
-0.0864116
-0.156914
0.17464
0.232337
0.129606
0.32587
0.254216
-0.169965
0.163662
0.205722
0.211178
-0.156907
0.144542
0.210821
0.201227
-0.136737
0.119157
0.232155
0.218181
-0.109563
0.0941756
0.250601
0.240232
0.2105
-0.221464
-0.388287
-0.424937
0.198822
-0.101144
0.119064
-0.264001
-0.272412
-0.0879825
-0.0862102
0.0781464
0.270382
0.257457
0.0678475
-0.2091
-0.0571426
-0.171245
-0.0234575
-0.249036
0.026987
-0.169523
-0.135668
-0.303858
0.0970888
-0.184866
-0.226184
-0.350427
0.135553
-0.217043
-0.248072
0.232755
-0.409621
-0.265253
-0.371105
0.140891
-0.259063
0.112356
-0.282921
-0.101847
0.130713
-0.282357
-0.409245
0.433803
0.208197
0.229207
-0.251649
-0.387179
-0.382996
0.202958
-0.109985
0.128493
-0.301428
-0.281364
0.263751
-0.0842351
-0.301314
-0.090035
0.284853
-0.276105
0.0693984
0.0851583
-0.10507
0.290294
0.291688
0.0783237
-0.183176
0.263461
-0.265573
0.0371425
0.0431203
0.26206
-0.263618
-0.000583651
0.013031
0.264926
-0.268524
-0.0372124
-0.015746
0.277764
-0.287707
-0.0654034
-0.0461122
0.301908
-0.317002
-0.0850462
-0.0691423
0.334965
-0.35472
-0.0960652
-0.0857621
0.37565
-0.39718
-0.0898706
-0.091083
0.416256
-0.431375
-0.0441683
-0.070456
0.438917
-0.438119
0.0454257
-0.00226586
0.429795
-0.415336
0.115954
0.0836194
0.396888
-0.375664
0.126605
0.122223
0.353616
-0.331625
0.102306
0.110939
0.31088
-0.291695
0.0722435
0.082915
0.274258
-0.258768
0.0451638
0.0553962
0.246362
-0.237132
0.0133146
0.029192
0.234557
-0.236907
-0.0269038
-0.00705907
0.242717
-0.254434
-0.063016
-0.0493514
-0.0786648
-0.450566
0.465675
0.107456
0.182059
-0.469328
0.458529
-0.0696265
0.0142018
-0.433014
0.407353
-0.142333
-0.114647
-0.379028
0.354052
-0.141143
-0.138061
-0.332949
0.313578
-0.12657
-0.127072
-0.296333
0.278409
-0.109573
-0.111535
-0.263436
0.251545
-0.0884197
-0.0956269
-0.245843
0.246017
-0.0405508
-0.0648058
-0.251394
0.260877
0.0290883
-0.00653638
-0.272611
0.286912
0.0949728
0.060266
-0.301889
0.318941
0.14405
0.114897
-0.335322
0.353648
0.174917
0.153531
-0.370443
0.387463
0.174862
0.170748
-0.400839
0.408733
0.122922
0.147944
-0.411574
0.407033
0.0172627
0.0731932
-0.399702
0.395378
-0.0780545
-0.0341538
-0.107038
-0.136837
0.179335
0.283372
0.320648
-0.183745
0.18387
0.232212
0.249806
-0.181997
0.178566
0.209153
0.213051
-0.174127
0.168741
0.216206
0.205666
-0.162333
0.155467
0.239021
0.22459
-0.143214
0.124479
0.269335
0.252485
0.276867
-0.0245681
-0.207989
0.0262554
-0.170513
-0.130056
-0.254648
0.104914
-0.177348
-0.223762
-0.30628
0.154216
-0.203528
-0.273134
-0.342547
0.167232
-0.243385
-0.271148
-0.351606
0.154459
-0.282809
-0.204231
0.175534
-0.354299
-0.233797
-0.357613
0.14228
-0.296144
0.113335
-0.322101
-0.0925473
0.134611
-0.322705
-0.322095
0.35295
0.144679
0.142676
-0.178981
-0.317995
-0.289605
0.110186
-0.0975642
0.112843
-0.33738
-0.335632
0.329039
-0.0859545
-0.347468
-0.0857287
0.0921283
-0.11352
0.311685
0.07273
0.311086
0.293641
-0.286038
0.0617952
0.305488
0.0664767
-0.181489
0.28001
-0.274738
0.0318697
0.0370926
0.274816
-0.272151
-0.00324939
0.0131098
0.275733
-0.279247
-0.0336989
-0.0121634
0.289324
-0.299714
-0.055013
-0.0360349
0.313255
-0.327795
-0.070506
-0.0556018
0.343345
-0.360847
-0.0785631
-0.0702128
0.378333
-0.397328
-0.0708755
-0.0735968
0.41431
-0.428411
-0.0300674
-0.0534742
0.434771
-0.432784
0.043439
0.00409447
0.423244
-0.407718
0.100427
0.0740793
0.389139
-0.367976
0.105442
0.103644
0.34667
-0.325108
0.0807437
0.0896332
0.305368
-0.287565
0.0544402
0.063175
0.27332
-0.262233
0.0340773
0.0411511
0.255872
-0.254244
0.0116867
0.0228311
0.257597
-0.262919
-0.0215816
-0.00370664
0.275002
-0.285412
-0.0526063
-0.0372682
0.301706
-0.31555
-0.0703908
-0.062371
-0.0765458
-0.386438
0.411188
0.183447
0.16947
-0.441174
0.462811
0.0858187
0.152073
-0.471513
0.459504
-0.0576171
0.00549928
-0.436122
0.408062
-0.114273
-0.0912647
-0.383311
0.360518
-0.11835
-0.11331
-0.341999
0.324606
-0.109177
-0.108553
-0.309013
0.292007
-0.0925669
-0.0959421
-0.276278
0.262878
-0.0750198
-0.0798978
-0.255574
0.254836
-0.0398129
-0.0575013
-0.259932
0.270368
0.0186522
-0.0116323
-0.283097
0.29928
0.0787899
0.0475369
-0.31538
0.334351
0.12508
0.0987962
-0.3525
0.373168
0.154249
0.135382
-0.392523
0.411856
0.155528
0.151393
-0.427574
0.438685
0.111812
0.132226
-0.443303
0.438623
0.0219424
0.0685759
-0.43314
0.419556
-0.0644706
-0.0286705
-0.0944684
-0.0894993
0.126086
0.325464
0.356183
-0.156101
0.172427
0.267046
0.290632
-0.179912
0.184157
0.227967
0.242321
-0.185675
0.185383
0.209446
0.211532
-0.183521
0.180236
0.219491
0.207528
-0.175259
0.165
0.24928
0.229567
-0.149553
0.132779
0.286109
0.267932
0.296126
-0.122494
-0.215551
0.114046
-0.179645
-0.215282
-0.263128
0.170967
-0.194099
-0.273434
-0.30598
0.191017
-0.227313
-0.283835
-0.329859
0.181896
-0.270821
-0.254747
-0.330655
0.160547
-0.301077
-0.208643
-0.327951
0.155292
-0.316825
-0.109442
0.0823017
-0.262464
-0.147852
-0.279585
0.139667
-0.349529
0.0995562
-0.0846223
-0.362402
0.115252
-0.353076
0.116587
0.261631
-0.189937
0.298188
-0.290562
0.0541684
-0.278316
0.168772
0.226131
0.0863492
0.292955
-0.282092
0.021006
0.0394864
0.283438
-0.281166
-0.00552155
0.0144558
0.284507
-0.29073
-0.0274765
-0.00882188
0.298803
-0.309442
-0.0443733
-0.0279619
0.319669
-0.33258
-0.0575955
-0.0453748
0.345411
-0.360911
-0.0630628
-0.0573819
0.376093
-0.392086
-0.0548823
-0.0584146
0.405652
-0.415434
-0.0202863
-0.039908
0.418804
-0.415135
0.0397699
0.00746521
0.406238
-0.391383
0.0855725
0.0651819
0.374575
-0.354207
0.0850738
0.0868356
0.3349
-0.31521
0.0610539
0.0703264
0.299264
-0.285639
0.0408144
0.0472294
0.2768
-0.270405
0.0276826
0.0323119
0.26712
-0.265036
0.00960319
0.0195458
0.265721
-0.267526
-0.0197759
-0.00302192
0.272266
-0.278383
-0.0464893
-0.0325287
0.284675
-0.294571
-0.0604948
-0.0560793
0.304698
-0.322262
-0.0683897
-0.0664188
0.33847
-0.354367
-0.0687253
-0.0695214
-0.304065
0.331485
0.117259
0.281824
-0.272715
0.0731922
0.0879449
-0.357555
0.398924
0.142079
0.1434
-0.437195
0.46119
0.0618245
0.113801
-0.464797
0.450546
-0.0433661
0.00189223
-0.427802
0.401288
-0.0877585
-0.068521
-0.379015
0.358931
-0.0982664
-0.091037
-0.342395
0.326876
-0.0936581
-0.0920163
-0.313894
0.300666
-0.0793396
-0.0829598
-0.287093
0.273838
-0.0617643
-0.0663248
-0.264777
0.262219
-0.037255
-0.0484404
-0.265706
0.276029
0.00832888
-0.0151189
-0.288876
0.306194
0.0614723
0.03469
-0.323426
0.343696
0.10481
0.0815637
-0.363506
0.385358
0.132396
0.115572
-0.405965
0.426282
0.135211
0.130787
-0.443179
0.455556
0.0994347
0.115329
-0.4617
0.456924
0.0267186
0.0624318
-0.446926
0.434186
-0.0517309
-0.0186723
-0.413859
0.402715
-0.0751739
-0.0741414
-0.0641124
-0.101814
0.133584
0.293693
0.0716353
0.344394
0.326005
-0.152987
0.163644
0.256389
0.27123
-0.172645
0.178806
0.221806
0.23332
-0.182364
0.184144
0.207665
0.207974
-0.184643
0.18373
0.220404
0.20703
-0.180725
0.172064
0.25794
0.232571
-0.162257
0.146998
0.301369
0.277739
-0.118199
0.0902381
0.339647
0.324924
-0.0278216
0.458225
0.373503
0.059967
-0.0760626
-0.246368
-0.265385
0.0526372
-0.0736163
0.0945378
-0.383323
-0.367197
-0.0607855
-0.202648
-0.228185
0.187428
-0.196107
-0.404985
-0.0410749
-0.266145
-0.270417
0.214272
-0.217354
0.418346
-0.305228
0.113013
0.100372
-0.0628961
0.420749
0.0987331
0.419985
-0.287456
-0.302359
0.208098
-0.253515
-0.271425
-0.313182
0.18705
-0.297324
-0.230776
-0.308523
0.173311
-0.319096
-0.181856
-0.293948
0.16705
-0.344208
-0.111857
-0.243791
0.142588
-0.376865
-0.0421164
0.0390945
-0.262363
-0.0462155
-0.242269
0.117873
-0.376411
-0.0679673
0.0855145
-0.40087
-0.0552381
-0.379927
-0.205157
0.308252
-0.302474
0.0483906
0.0893728
0.295005
-0.292515
0.0185157
0.0320173
0.289574
-0.291575
-0.00352028
0.0115152
0.293838
-0.300712
-0.0206027
-0.00655881
0.30569
-0.313988
-0.036075
-0.0229842
0.321405
-0.331748
-0.0472525
-0.0379584
0.342831
-0.35586
-0.0500335
-0.0462987
0.369124
-0.382722
-0.0412835
-0.0451512
0.393889
-0.400959
-0.0132157
-0.0287416
0.401641
-0.39497
0.0330987
0.00814659
0.383531
-0.368514
0.0705554
0.0537432
0.353372
-0.337224
0.0689263
0.0716936
0.323223
-0.310029
0.0478597
0.0563249
0.300449
-0.292731
0.0330967
0.03765
0.287701
-0.283325
0.0233074
0.027281
0.279811
-0.276933
0.00672476
0.0160318
0.275181
-0.27662
-0.0183364
-0.00477421
0.280827
-0.287402
-0.0399146
-0.0283213
0.298539
-0.306123
-0.0529111
-0.0449421
0.317643
-0.327561
-0.0584709
-0.0548993
0.337428
-0.350116
-0.0560373
-0.0596545
0.359436
-0.370482
-0.0441924
-0.0514655
-0.282028
0.294419
0.0608011
0.27785
-0.274707
0.0359515
0.0484594
-0.304801
0.323895
0.0981653
0.0775624
-0.361153
0.394959
0.108273
0.106142
-0.429097
0.448146
0.0427754
0.0796633
-0.4488
0.435006
-0.0295714
0.00123805
-0.415655
0.39313
-0.0652327
-0.0491709
-0.372549
0.352945
-0.0786627
-0.070456
-0.336499
0.321552
-0.0787109
-0.07557
-0.309782
0.300251
-0.0698087
-0.0711897
-0.291351
0.282071
-0.0524838
-0.0574253
-0.273446
0.269085
-0.032894
-0.039816
-0.27009
0.278359
5.95755e-05
-0.0161232
-0.290654
0.307594
0.044532
0.0223951
-0.325617
0.345995
0.084431
0.0635414
-0.36658
0.388273
0.110703
0.0949869
-0.409311
0.429719
0.114803
0.109749
-0.446662
0.458753
0.0873438
0.098386
-0.465201
0.462868
0.0290518
0.0559842
-0.452085
0.434758
-0.0344042
-0.00788942
-0.416643
0.405934
-0.0644644
-0.0560266
-0.0631636
-0.0598753
0.083629
0.320641
0.34244
-0.112844
0.12499
0.281546
0.29679
-0.1373
0.148292
0.245397
0.25892
-0.157075
0.163908
0.214972
0.224537
-0.168951
0.172711
0.203905
0.202931
-0.175206
0.176177
0.219433
0.204535
-0.174782
0.170527
0.262196
0.233966
-0.163103
0.150493
0.313979
0.285163
-0.132699
0.106596
0.365749
0.342718
0.417203
0.0245529
-0.0255699
-0.261346
-0.270963
0.0208096
-0.0437771
0.0565663
-0.392716
-0.379768
-0.0344914
-0.253036
-0.241295
0.235342
-0.217177
0.387562
-0.345392
0.0708431
0.404132
0.0821626
-0.28413
-0.273742
0.234306
-0.243562
-0.279234
-0.29455
0.212361
-0.278826
-0.251442
-0.292515
0.194619
-0.318632
-0.207058
-0.283321
0.190695
-0.34274
-0.149561
-0.256243
0.17278
-0.374401
-0.0689876
-0.221019
0.148783
-0.407774
-0.0214437
-0.246395
0.113611
-0.404508
-0.00462331
0.00285003
-0.26919
-0.00397053
-0.261999
0.0711741
-0.415478
-0.277061
0.275293
0.00461787
0.00832073
-0.276477
-0.00890409
0.0145724
-0.275442
0.0290883
0.329246
-0.0274494
0.040985
-0.406251
-0.0263957
-0.380821
-0.222851
0.320324
-0.309695
0.0377615
0.0643042
0.303721
-0.2997
0.0144943
0.0260442
0.296378
-0.29848
-0.00141865
0.00819324
0.299114
-0.303141
-0.0165755
-0.00592477
0.305839
-0.31164
-0.0302736
-0.0202864
0.318059
-0.327519
-0.0377932
-0.0315389
0.338012
-0.350454
-0.0375916
-0.0358058
0.362821
-0.374987
-0.0291168
-0.032784
0.384075
-0.389179
-0.00811236
-0.0196538
0.388312
-0.381153
0.0259392
0.00728023
0.368892
-0.353633
0.0552963
0.0414831
0.339387
-0.326796
0.0563349
0.0574474
0.317507
-0.310057
0.0404099
0.0470363
0.304781
-0.299926
0.0282416
0.0323733
0.295496
-0.290757
0.0185683
0.0228515
0.286374
-0.283183
0.00353418
0.0116485
0.282161
-0.284137
-0.0163601
-0.00579687
0.288057
-0.294204
-0.0337673
-0.0244016
0.30057
-0.307713
-0.0457678
-0.038576
0.315067
-0.321913
-0.0516249
-0.047546
0.33164
-0.338847
-0.0488306
-0.0499268
0.345878
-0.354784
-0.0352865
-0.0444346
0.362292
-0.366886
-0.0218017
-0.0269828
-0.27904
0.28507
0.0299207
0.0170629
-0.293756
0.303434
0.0511236
0.0397736
-0.31792
0.338077
0.0780083
0.063076
-0.363034
0.391587
0.0797202
0.0811845
-0.415435
0.426058
0.032153
0.0558149
-0.424322
0.414048
-0.0192977
0.00297408
-0.401158
0.386103
-0.0501778
-0.0362806
-0.37081
0.354257
-0.0621101
-0.0551629
-0.33893
0.324041
-0.063822
-0.0602424
-0.311309
0.301065
-0.059564
-0.0584583
-0.293279
0.286938
-0.0461429
-0.0496401
-0.280601
0.275906
-0.0281989
-0.0334789
-0.274534
0.279128
-0.00453393
-0.0147513
-0.288895
0.303857
0.0295698
0.0126281
-0.321387
0.34143
0.0643877
0.046011
-0.361871
0.383453
0.0891216
0.0745459
-0.403949
0.423483
0.0952689
0.0892527
-0.439068
0.450467
0.0759447
0.082801
-0.456706
0.456411
0.029347
0.0497455
-0.448962
0.433544
-0.0189857
-0.000441061
-0.414771
0.395064
-0.0447574
-0.0372535
-0.380803
0.380553
-0.0408253
-0.0489027
-0.0322297
-0.0539546
0.0759174
0.298678
0.317574
-0.093441
0.107128
0.26786
0.279267
-0.118909
0.128963
0.235343
0.247139
-0.136767
0.143184
0.208555
0.216732
-0.148663
0.153528
0.19904
0.197452
-0.157418
0.159782
0.217069
0.200646
-0.159768
0.156651
0.265313
0.23398
-0.150276
0.136001
0.328254
0.291537
-0.127294
0.10686
0.386182
0.351426
-0.120241
0.102204
0.438786
0.403822
-0.0669655
-0.0125112
0.483609
0.455223
-0.273495
-0.25193
0.256609
-0.23948
0.0152912
-0.0156259
-0.366552
0.0153894
-0.38092
0.394112
-0.416827
0.0102036
-0.0493629
0.25605
0.276922
0.349539
-0.0047897
-0.349074
0.343341
-0.0160683
-0.347211
-0.017489
-0.280516
-0.27246
0.238523
-0.269724
-0.264318
-0.281675
0.216666
-0.300873
-0.231732
-0.267841
0.21108
-0.339018
-0.179837
-0.253045
0.203176
-0.373137
-0.104418
-0.220813
0.177566
-0.403184
-0.0243954
-0.218067
0.143406
-0.437568
0.000147042
-0.250513
0.10111
-0.434444
-0.0203985
-0.282534
0.026455
-0.288924
0.283351
-0.0148249
0.0276905
-0.294635
-0.0219799
-0.29104
0.0361968
0.0195322
-0.266959
0.0520808
-0.426574
-0.282377
0.0333902
0.0872617
-0.18627
0.355057
-0.366099
-0.0193408
-0.0129546
0.377139
-0.239736
0.371217
-0.347895
0.0475215
0.0365523
0.326833
-0.314841
0.0257699
0.0432418
0.308235
-0.306497
0.0127569
0.0194378
0.304161
-0.30603
0.000449649
0.00585711
0.306313
-0.310229
-0.0126596
-0.0056413
0.313671
-0.32029
-0.0236547
-0.0168443
0.326923
-0.33509
-0.0296262
-0.0249054
0.342859
-0.350911
-0.0295396
-0.0280368
0.358652
-0.366001
-0.021768
-0.025043
0.37215
-0.375836
-0.00442641
-0.0135051
0.375917
-0.370722
0.0207438
0.0073618
0.361179
-0.348247
0.0423643
0.0319405
0.335666
-0.324784
0.0454531
0.0448658
0.317075
-0.31145
0.0347849
0.0393272
0.307113
-0.302994
0.0241226
0.0280366
0.29878
-0.294575
0.0143631
0.0186377
0.290847
-0.288517
0.00120415
0.00792061
0.287761
-0.289402
-0.0147189
-0.00655278
0.292468
-0.297429
-0.0288059
-0.0213364
0.303051
-0.310027
-0.0387913
-0.0329541
0.317159
-0.3246
-0.0441841
-0.0404141
0.331458
-0.336264
-0.0440244
-0.0430693
0.340627
-0.342425
-0.0334877
-0.0400717
-0.0260673
-0.282217
0.283266
0.00356886
-0.00776997
-0.287742
0.293866
0.0237967
0.0125862
-0.301099
0.310316
0.0419063
0.032541
-0.320626
0.339295
0.0593385
0.0527664
-0.360367
0.382071
0.0580165
0.0601128
-0.396788
0.403656
0.0252858
0.0410972
-0.402219
0.394727
-0.0118055
0.0044108
-0.384256
0.372256
-0.0381773
-0.0258103
-0.361314
0.35093
-0.0517263
-0.0442207
-0.341794
0.332329
-0.0543573
-0.0511064
-0.32281
0.312775
-0.0495286
-0.0489391
-0.304182
0.296872
-0.0388332
-0.0410472
-0.29109
0.286062
-0.0231712
-0.0276965
-0.283124
0.283695
-0.0051046
-0.0118134
-0.288943
0.299489
0.0190239
0.00737997
-0.313896
0.331964
0.0463199
0.0316041
-0.351179
0.371868
0.0684325
0.0553305
-0.391258
0.409596
0.0769303
0.0698632
-0.424561
0.436181
0.0643251
0.0678363
-0.442427
0.441381
0.0303925
0.0434997
-0.433666
0.419038
-0.00435753
0.00727354
-0.402116
0.383664
-0.0263048
-0.0203315
-0.370331
0.365133
-0.0356273
-0.0355697
-0.0331963
-0.0170386
0.0361039
0.31018
0.325876
-0.0564514
0.0707982
0.284331
0.297226
-0.0800011
0.0877525
0.260108
0.270064
-0.094523
0.100866
0.229
0.240368
-0.10674
0.112517
0.202779
0.210859
-0.117942
0.123016
0.193966
0.192027
-0.127294
0.130306
0.214058
0.196367
-0.131269
0.129753
0.266829
0.233017
-0.125628
0.118882
0.335
0.295662
-0.109461
0.101144
0.394499
0.360848
-0.0971791
0.109407
0.426559
0.407788
0.378361
0.0161542
-0.407016
0.335766
0.00081834
-0.00352412
0.00126941
-0.364297
-0.352286
0.00155062
-0.273796
-0.258649
0.259926
-0.260883
-0.269455
-0.267323
0.239213
-0.292272
-0.249953
-0.263454
0.229985
-0.319777
0.000778495
-0.380429
-0.208156
-0.239522
0.228767
-0.364608
-0.139241
-0.218221
0.208596
-0.404166
-0.0447137
-0.200495
0.179338
-0.439116
-0.0277947
-0.301909
0.0350687
-0.302891
0.295807
-0.0207104
0.0317075
-0.310172
-0.0244273
-0.31022
0.0400181
0.0111055
-0.229025
0.129058
-0.465516
-0.3013
0.0453291
0.0252866
-0.256267
0.0806125
-0.462976
-0.290882
0.0447016
0.0414986
-0.275067
0.0281132
-0.438533
-0.0125699
-0.0163515
0.364687
0.23592
-0.381918
0.196323
0.0225189
-0.0105322
0.293675
0.00644504
-0.0112229
-0.359519
-0.353781
0.00793988
-0.0455721
0.304011
-0.253606
0.361765
-0.375354
0.0237926
-0.345692
-0.00307884
0.349589
0.0112832
0.359139
-0.340614
0.0289963
0.0203372
0.325747
-0.318829
0.018851
0.0283756
0.312553
-0.310469
0.0106725
0.0131626
0.30904
-0.30926
0.000669583
0.00442791
0.30981
-0.312325
-0.010145
-0.00509093
0.315226
-0.319979
-0.0189015
-0.0139432
0.324904
-0.330933
-0.0235967
-0.0199806
0.33697
-0.343605
-0.0229047
-0.0220003
0.350123
-0.356468
-0.0154231
-0.0185246
0.361609
-0.364745
-0.00128982
-0.00836422
0.364721
-0.361001
0.0170236
0.00733778
0.353882
-0.344121
0.0326034
0.0248214
0.334003
-0.324764
0.0362143
0.0347472
0.317612
-0.312143
0.0293154
0.0321756
0.30781
-0.303943
0.0202556
0.0237041
0.300301
-0.296969
0.0110309
0.0149959
0.294293
-0.292795
-0.0002938
0.00524399
0.29268
-0.294176
-0.0132226
-0.00666735
0.296771
-0.300677
-0.0249006
-0.0187416
0.305154
-0.310527
-0.0334186
-0.0284767
0.316178
-0.322518
-0.0378436
-0.0347631
0.32872
-0.334923
-0.0378214
-0.0368671
0.339833
-0.342486
-0.0308346
-0.0351619
0.342929
-0.339946
-0.0190511
-0.0256249
0.342752
-0.341234
3.33111e-05
-0.0146831
0.00200626
-0.34055
-0.0152366
0.334173
-0.335937
0.00377069
0.000878463
-0.292563
0.291051
-0.0133138
-0.0187353
-0.290456
0.291612
0.00241311
-0.00717491
-0.294267
0.298203
0.0198607
0.00993171
-0.304672
0.312584
0.033994
0.026072
-0.323615
0.338028
0.0449247
0.0417358
-0.353015
0.368045
0.0429865
0.0451258
-0.37829
0.383878
0.0196976
0.0308525
-0.383952
0.380506
-0.00835945
0.00433716
-0.373922
0.364886
-0.0291404
-0.0192269
-0.354924
0.344178
-0.0409796
-0.0342595
-0.33443
0.32507
-0.044998
-0.0413583
-0.317384
0.309864
-0.0420079
-0.0412532
-0.304
0.298536
-0.0333689
-0.0351839
-0.295067
0.291802
-0.0199066
-0.0242274
-0.29022
0.289544
-0.00442842
-0.0102308
-0.292074
0.298235
0.0128631
0.00484988
-0.307999
0.322064
0.0322552
0.0218394
-0.337646
0.355949
0.0501295
0.0397484
-0.372734
0.389918
0.059746
0.0530784
-0.403065
0.413867
0.0535225
0.0546896
-0.417718
0.416441
0.0316688
0.0396494
-0.409061
0.399128
0.00557554
0.0146536
-0.387431
0.375466
-0.0143398
-0.00863487
-0.365242
0.353077
-0.0234617
-0.0253456
-0.350297
0.353004
-0.0220475
-0.0304162
-0.0252998
-0.0206707
0.0348913
0.29596
0.294673
-0.0415944
0.047285
0.278641
0.290523
-0.0530188
0.059071
0.254056
0.26433
-0.0645111
0.0694295
0.224082
0.234928
-0.0738797
0.0781506
0.198508
0.206409