/*--------------------------------*- C++ -*----------------------------------*\
  =========                 |
  \\      /  F ield         | OpenFOAM: The Open Source CFD Toolbox
   \\    /   O peration     | Website:  https://openfoam.org
    \\  /    A nd           | Version:  10
     \\/     M anipulation  |
\*---------------------------------------------------------------------------*/
FoamFile
{
    format      ascii;
    class       volVectorField;
    location    "8.5";
    object      U;
}
// * * * * * * * * * * * * * * * * * * * * * * * * * * * * * * * * * * * * * //

dimensions      [0 1 -1 0 0 0 0];

internalField   nonuniform List<vector> 
6397
(
(4.25589 -0.895183 1.53051e-19)
(4.28616 -0.735913 -7.06334e-19)
(5.13617 1.53671 0)
(4.87439 1.66719 3.10056e-20)
(4.34143 1.93102 -1.13057e-20)
(4.57602 1.9389 -4.99916e-20)
(3.41979 -2.65366 -4.29089e-19)
(1.56289 -3.98934 1.39222e-18)
(1.00844 -3.47931 7.04106e-19)
(-0.566377 -3.42715 -2.3199e-19)
(1.98191 2.52083 1.34694e-18)
(3.4853 3.10478 -1.35784e-19)
(3.70761 0.11162 -2.73897e-20)
(3.6882 0.102407 -1.08595e-20)
(2.5611 0.115218 1.97558e-20)
(0.834877 -0.381813 -2.20882e-18)
(1.76 -1.65483 -8.80048e-19)
(-0.450075 -1.46913 1.05325e-18)
(1.12634 -0.496307 8.30177e-19)
(2.16238 -0.947662 -2.57368e-18)
(1.60823 -0.526495 -1.32826e-18)
(-0.843444 -1.5473 -3.2449e-18)
(-1.73923 -0.110241 1.78363e-19)
(2.60601 -0.736475 -2.64926e-18)
(4.05099 0.14596 0)
(4.31386 0.0889959 -1.20962e-21)
(4.42269 0.145269 -2.33797e-21)
(2.35711 -1.03706 2.45369e-19)
(2.43913 -1.6007 -7.28527e-20)
(2.38479 -0.370629 1.85882e-19)
(2.44199 -1.04243 -2.54332e-19)
(4.57283 1.34848 7.00128e-20)
(4.77216 1.34032 5.58242e-21)
(4.59397 1.65335 2.24818e-20)
(4.33576 0.704989 3.86028e-20)
(4.44649 0.72398 0)
(4.42327 0.947188 -2.51865e-20)
(4.64711 1.05004 -3.96156e-20)
(4.27526 0.35235 7.96787e-20)
(4.25323 0.299856 -4.13483e-20)
(4.22592 0.475212 0)
(4.37884 0.522068 0)
(2.38966 0.307665 -1.03747e-19)
(3.92807 2.08285 -1.57357e-19)
(4.07219 1.72906 2.10763e-19)
(4.83341 1.80413 -2.58563e-19)
(4.19218 2.1539 -1.24496e-19)
(4.41984 2.00585 4.12919e-19)
(4.14408 0.0435563 7.8494e-20)
(4.22603 0.0360294 -1.20783e-20)
(4.26539 -0.0341057 1.33797e-19)
(4.32353 -0.0456546 -4.89065e-20)
(4.24281 -0.0202595 -3.65169e-19)
(4.15473 0.830264 -1.32742e-19)
(3.65 0.43955 8.59881e-20)
(4.03773 0.0497637 5.55267e-20)
(4.05422 0.0645558 5.35791e-20)
(4.44357 0.0930872 -4.65747e-20)
(3.12497 -2.66939 -9.44769e-20)
(3.1065 -2.71251 9.44157e-20)
(3.09893 -2.51619 1.2602e-19)
(3.02112 -2.1926 -1.24206e-19)
(2.95796 -1.65894 -1.71705e-19)
(2.89803 -0.89463 1.68789e-19)
(2.90581 0.0189971 0)
(2.94342 0.95691 1.7387e-19)
(3.06488 1.77983 -1.81379e-19)
(3.18839 2.38906 0)
(3.21933 -2.67825 -7.57034e-20)
(3.02218 -2.67677 -4.45232e-22)
(3.10722 -2.59815 7.18484e-20)
(3.27582 -2.6858 0)
(3.27807 -2.55797 0)
(3.2367 -2.23749 0)
(3.20626 -1.66449 -8.29504e-22)
(3.18454 -0.845099 9.85294e-23)
(3.21957 0.141386 0)
(3.26804 1.1377 -2.91689e-23)
(3.36932 1.99091 0)
(3.45832 2.60444 0)
(2.9611 -2.4559 -6.74182e-20)
(2.89932 -2.55114 5.26037e-21)
(3.33209 2.74775 0)
(3.55282 2.91529 0)
(2.79694 -2.25205 -2.48461e-22)
(2.74313 -2.34626 0)
(3.45386 2.87996 0)
(3.603 2.9963 0)
(2.62695 -1.93383 1.32934e-19)
(2.57197 -2.03426 -3.0807e-20)
(3.54588 2.86117 0)
(3.61897 2.90978 0)
(2.50499 -1.52192 -1.16091e-19)
(2.41638 -0.98869 -5.20975e-20)
(3.57586 2.79317 0)
(3.58065 2.75539 1.00753e-20)
(2.7613 -1.79512 0)
(2.54724 -0.907245 6.89449e-20)
(2.6235 -1.40856 4.25698e-21)
(3.11053 -2.33505 -4.85835e-20)
(2.9292 -2.10803 0)
(3.41082 -2.60893 -4.2295e-20)
(3.26557 -2.5057 4.81386e-20)
(3.5528 -2.52987 7.9944e-20)
(3.49671 -2.63883 3.17915e-20)
(3.58868 -1.57625 8.30793e-22)
(3.56142 -2.18996 -8.49327e-20)
(3.66752 0.298402 -1.13245e-22)
(3.60005 -0.710539 -1.44407e-19)
(3.77434 2.12985 -1.05131e-19)
(3.7039 1.30133 2.30315e-19)
(3.79432 2.97329 0)
(3.76974 2.6973 0)
(3.71529 2.8545 0)
(3.7581 2.99353 0)
(3.60502 2.67068 -1.79786e-20)
(3.37338 2.70964 -8.55025e-20)
(3.60172 2.73997 -5.02387e-20)
(3.52216 2.73401 8.44722e-20)
(3.01418 2.16917 1.05032e-19)
(3.20161 2.53759 -1.02674e-19)
(2.76963 0.765405 1.24741e-21)
(2.87344 1.55102 4.54812e-21)
(2.75912 -0.936362 0)
(2.74314 -0.117154 0)
(2.92296 -2.11385 9.52545e-20)
(2.8309 -1.6166 1.19338e-20)
(3.06569 -2.62302 1.46841e-20)
(3.01603 -2.43565 -9.49736e-20)
(3.02642 -2.70608 4.97348e-20)
(3.07187 -2.71397 -4.99863e-21)
(2.80377 -2.45685 -1.31946e-19)
(2.93403 -2.63594 -4.59605e-20)
(2.52265 -1.67444 0)
(2.65429 -2.132 1.40299e-19)
(2.40558 -0.424387 -8.29745e-20)
(2.2992 -0.407088 1.72702e-21)
(2.55748 -0.396579 7.99884e-21)
(3.4586 2.49734 -2.69865e-20)
(3.46932 2.63753 6.74147e-21)
(3.70853 2.68265 -6.01097e-22)
(3.60617 2.78988 5.03759e-20)
(3.76475 2.81015 0)
(3.24092 2.34258 1.71441e-20)
(3.49366 2.28732 -2.00216e-20)
(3.25427 2.08281 1.9906e-20)
(2.67878 -0.281435 1.08903e-19)
(2.70671 -0.822891 -1.83183e-20)
(2.70866 -0.356804 -7.66106e-21)
(2.65837 0.445949 1.01885e-19)
(3.52854 2.75156 2.80418e-21)
(2.92219 -1.64259 0)
(2.80857 -1.26305 2.13265e-21)
(3.27434 -2.15268 -2.51459e-22)
(3.09037 -1.93132 0)
(3.62511 -2.47402 -4.98673e-21)
(3.46447 -2.33789 1.41297e-20)
(3.86164 -2.44545 0)
(3.75914 -2.54176 7.8347e-21)
(4.05107 -1.49144 0)
(3.96848 -2.11371 5.66324e-21)
(4.21054 0.372852 0)
(4.14315 -0.627896 1.60714e-20)
(4.26463 2.17121 -1.13853e-21)
(4.25078 1.35904 1.2193e-20)
(4.13699 2.93526 4.6936e-21)
(4.1937 2.70401 -1.01799e-20)
(3.87665 2.74119 -4.75259e-22)
(4.006 2.90841 -1.24802e-21)
(3.67836 2.51948 7.7835e-21)
(3.37091 2.51626 8.95828e-22)
(3.5716 2.60443 1.21069e-21)
(2.96019 1.94836 -9.27919e-23)
(3.16527 2.3217 0)
(2.68725 0.670673 0)
(2.80654 1.38917 -1.02274e-21)
(2.70342 -0.859385 0)
(2.67434 -0.11407 0)
(2.91104 -1.97954 -5.27706e-23)
(2.80626 -1.49834 -1.21109e-20)
(3.09439 -2.55766 -9.17532e-21)
(3.02538 -2.33049 0)
(3.13318 -2.75269 -4.93955e-20)
(3.13947 -2.69013 0)
(2.98289 -2.55411 4.12489e-21)
(3.07109 -2.70467 4.95238e-20)
(2.80186 -1.67558 2.23597e-22)
(2.88282 -2.22183 1.97831e-20)
(2.71695 -0.995241 -1.03186e-19)
(2.37077 0.164375 1.7318e-20)
(2.30729 0.23041 0)
(2.66435 0.152032 -1.61186e-21)
(2.50821 0.15751 -5.13424e-21)
(3.75194 2.95204 0)
(3.51252 2.86654 0)
(3.27944 2.55536 -1.32126e-20)
(3.56995 2.0644 -2.35108e-21)
(3.35063 1.85655 0)
(3.01889 1.86676 -3.57077e-21)
(2.9868 2.15734 6.07064e-22)
(3.97795 2.90197 0)
(3.68646 2.98508 0)
(4.05201 2.95886 -1.11496e-19)
(2.42166 0.917332 7.05934e-20)
(2.66565 1.09143 0)
(2.72939 0.62356 3.28302e-21)
(2.83579 0.124187 1.27062e-22)
(2.89698 0.574197 -4.85408e-20)
(3.11484 0.508603 0)
(3.18417 -0.249952 -1.23726e-19)
(3.37862 2.7518 0)
(2.85997 -0.749403 -2.81914e-21)
(2.87908 -0.333889 0)
(3.07547 -1.46203 -9.92402e-23)
(2.98151 -1.14448 4.3181e-21)
(3.44146 -1.97001 -7.72032e-22)
(3.27513 -1.74654 0)
(3.83615 -2.32565 3.09612e-23)
(3.66964 -2.16865 -1.8179e-21)
(4.19683 -2.33551 -9.78915e-23)
(4.05121 -2.41723 -5.26103e-21)
(4.51913 -1.39038 2.77527e-20)
(4.40646 -2.00209 0)
(4.73163 0.449012 0)
(4.67649 -0.529677 -2.82816e-20)
(4.72638 2.14294 -6.5376e-21)
(4.78458 1.3945 3.90378e-21)
(4.45209 2.77871 0)
(4.6171 2.60379 -6.42343e-22)
(4.01575 2.54269 -1.8069e-21)
(4.23152 2.72968 3.56896e-21)
(3.77511 2.30421 2.46249e-21)
(3.75454 2.55096 -7.12791e-21)
(3.87872 2.73204 4.10856e-23)
(3.37643 2.31478 -2.94194e-21)
(3.58589 2.42347 1.08981e-20)
(2.96947 1.77014 -2.06516e-22)
(3.16623 2.12994 -5.56458e-21)
(2.71158 0.608672 0)
(2.8213 1.25763 6.96005e-21)
(2.74239 -0.779802 0)
(2.68893 -0.0921377 0)
(2.98837 -1.87021 7.672e-23)
(2.85385 -1.38301 0)
(3.22686 -2.5081 0)
(3.11356 -2.24286 0)
(3.33762 -2.78995 0)
(3.29675 -2.68843 0)
(3.29848 -2.66679 4.47975e-20)
(3.3236 -2.79234 0)
(3.2335 -1.74548 -2.21522e-22)
(3.24829 -2.29452 -4.58128e-20)
(3.17077 -1.02616 1.45088e-19)
(2.42456 0.743647 2.09889e-20)
(2.35554 0.823926 -6.61436e-20)
(2.56128 0.675059 1.7826e-20)
(3.12756 1.64727 2.34133e-21)
(3.3631 2.85219 0)
(3.02855 2.41934 1.63559e-20)
(4.10237 2.77454 1.20457e-19)
(3.59892 2.76142 0)
(2.76202 1.56624 4.12448e-21)
(2.71778 1.85118 1.98845e-20)
(2.8228 1.06264 5.98468e-21)
(3.01454 0.9821 5.32542e-21)
(2.47498 1.45827 5.62303e-20)
(2.66193 1.60989 8.41969e-20)
(3.7801 -0.241599 1.39058e-19)
(3.68431 0.547453 0)
(3.02844 0.101177 -7.52101e-21)
(3.07335 0.516046 -2.63638e-20)
(2.88347 1.34714 -2.34784e-21)
(2.68051 0.894534 -1.69775e-21)
(2.54229 1.0896 -2.40702e-20)
(3.09738 1.18032 -2.57713e-20)
(3.1645 2.67883 0)
(3.04152 -0.663689 -6.00722e-21)
(3.01737 -0.307763 2.51892e-20)
(3.25042 -1.29762 4.58603e-21)
(3.1418 -1.02303 -1.0817e-20)
(3.61031 -1.75243 0)
(3.4412 -1.56031 0)
(4.03013 -2.10343 -2.03733e-23)
(3.84549 -1.94868 -6.45202e-28)
(4.51932 -2.11026 9.70117e-23)
(4.30609 -2.18661 0)
(4.97116 -1.21666 0)
(4.80214 -1.80307 -6.75742e-27)
(5.21144 0.513694 0)
(5.15894 -0.404298 0)
(5.12629 2.06561 0)
(5.24235 1.38437 0)
(4.73074 2.58454 0)
(4.9725 2.46345 0)
(4.2291 2.31263 0)
(4.48004 2.5035 0)
(3.76805 1.84165 1.57242e-22)
(3.98459 2.07315 0)
(3.27902 1.38419 0)
(3.53118 1.61822 8.62185e-22)
(2.81011 0.62337 0)
(3.03138 1.0538 4.40248e-21)
(4.21829 2.79674 -1.71723e-20)
(4.59213 2.7526 -4.30768e-20)
(4.40993 2.8836 1.72447e-20)
(3.85007 2.40524 2.04614e-21)
(4.029 2.60094 -4.1071e-23)
(3.4426 2.12247 -1.09865e-21)
(3.65362 2.26035 -2.77907e-21)
(3.04395 1.60949 -2.46602e-23)
(3.22973 1.93374 0)
(2.82228 0.553027 0)
(2.90337 1.13749 0)
(2.86633 -0.72103 0)
(2.80573 -0.0917126 0)
(3.12095 -1.7647 -2.34998e-23)
(2.97718 -1.28724 0)
(3.40373 -2.42715 0)
(3.2652 -2.13678 0)
(3.60073 -2.77577 0)
(3.51845 -2.63412 0)
(3.70368 -2.67885 1.72155e-20)
(3.65897 -2.80585 -1.79135e-20)
(3.76327 -1.77941 3.50234e-20)
(3.7257 -2.34486 -3.32361e-21)
(3.74032 -1.04509 -1.91078e-19)
(2.49902 1.26039 -1.95037e-20)
(2.43361 1.35164 -5.94534e-20)
(2.6407 1.15815 0)
(4.09514 2.20823 0)
(4.7271 2.22736 3.99255e-20)
(2.51077 0.287705 3.38113e-21)
(2.67074 0.0707814 0)
(3.18973 2.59148 0)
(2.74941 2.12342 0)
(3.2168 0.892527 0)
(3.00514 1.70663 -2.45667e-19)
(4.41369 -0.238834 1.13971e-19)
(4.31183 0.537038 0)
(3.48906 2.1632 9.78205e-21)
(2.47039 1.33754 -2.38877e-20)
(4.81436 1.17712 4.18995e-20)
(4.06875 1.13961 -1.29455e-20)
(2.38379 0.416908 2.59746e-20)
(2.45671 -0.425984 -8.71954e-22)
(2.65127 -0.525807 0)
(3.65363 1.23709 2.70733e-19)
(2.91259 2.39797 0)
(3.23148 0.0879988 2.7726e-20)
(3.41479 0.789948 2.25865e-20)
(3.24253 0.469688 6.72657e-20)
(3.22808 -0.599015 1.06127e-20)
(3.16582 -0.257949 -2.68476e-20)
(3.42142 -1.15619 0)
(3.28266 -0.907177 -6.68912e-21)
(3.76897 -1.56328 -2.10995e-27)
(3.58237 -1.38325 2.19404e-27)
(4.21421 -1.87516 -1.94654e-23)
(3.99017 -1.74338 0)
(4.78392 -1.85578 0)
(4.51329 -1.93499 0)
(5.32362 -1.03915 -9.76168e-23)
(5.10135 -1.57327 6.75788e-27)
(5.58901 0.564751 9.01839e-27)
(5.52533 -0.284674 -9.36394e-27)
(5.46679 1.93346 0)
(5.60857 1.34567 0)
(4.99603 2.34734 3.04455e-23)
(5.28254 2.26564 0)
(4.43782 2.05895 1.40058e-23)
(4.73255 2.25115 0)
(3.89651 1.58247 6.64397e-22)
(4.16877 1.82157 0)
(3.36684 1.11292 -1.11448e-20)
(3.6246 1.35328 -1.78251e-21)
(2.95168 0.477168 -1.2557e-20)
(3.1283 0.818742 6.68834e-21)
(2.86813 -0.386301 -2.56923e-20)
(2.86182 0.0502961 1.25327e-20)
(5.06568 2.56994 2.92774e-20)
(5.46762 1.14684 -7.10824e-21)
(5.29911 2.11906 -3.33448e-20)
(4.50445 2.55382 1.86399e-20)
(4.78919 2.65089 -1.33967e-20)
(3.98951 2.19535 -1.99896e-21)
(4.22692 2.38487 -3.92116e-21)
(3.53148 1.91687 0)
(3.75387 2.04409 2.80564e-21)
(3.14522 1.4575 1.10618e-23)
(3.31511 1.74158 2.88125e-28)
(2.96574 0.511319 0)
(3.01992 1.03584 0)
(3.03445 -0.646476 2.52776e-23)
(2.96515 -0.0708475 0)
(3.29682 -1.63572 -1.71735e-24)
(3.14764 -1.17952 0)
(3.61889 -2.30988 0)
(3.46411 -2.01283 0)
(3.90899 -2.69764 0)
(3.78004 -2.53869 0)
(4.1592 -2.64383 0)
(4.03259 -2.74342 0)
(4.3547 -1.75818 0)
(4.23867 -2.31418 1.76078e-21)
(4.3569 -1.04544 -7.52602e-20)
(4.82081 -0.319674 -5.36618e-20)
(5.50558 -0.269268 0)
(2.76471 -1.07836 -4.73459e-21)
(2.97083 -0.816446 3.12648e-20)
(3.4972 1.76547 0)
(4.27011 1.22727 -6.17285e-20)
(3.00288 2.09859 -8.02372e-20)
(3.437 2.12779 8.12416e-20)
(2.53169 1.91203 2.90676e-20)
(2.68915 2.02354 -2.35699e-21)
(2.58664 1.68042 2.11888e-21)
(2.5072 1.78554 -2.48975e-20)
(2.9291 1.46045 4.26419e-22)
(2.73814 1.57292 3.12138e-21)
(3.30584 1.25991 0)
(3.12432 1.36051 -1.05983e-20)
(3.48674 1.14388 -3.48706e-20)
(3.01135 1.98841 -9.86284e-21)
(2.49953 1.55799 -1.61222e-26)
(3.38511 1.12363 1.2999e-20)
(2.30106 0.586714 0)
(4.04218 -0.316881 0)
(2.3165 -0.40948 0)
(5.39946 -1.76804 8.93749e-21)
(4.76124 -1.86766 8.18071e-22)
(2.50257 -1.11225 -2.94688e-21)
(3.13135 -1.15422 -5.15508e-21)
(2.99621 -1.52458 -9.79936e-21)
(3.57243 0.720402 -3.02105e-20)
(3.69687 1.00141 2.82449e-20)
(2.67765 1.80789 -3.0039e-26)
(3.39434 0.0792856 8.21611e-22)
(3.4259 0.394293 1.65009e-20)
(3.39384 -0.544727 6.89662e-21)
(3.32144 -0.242736 0)
(3.59458 -1.02416 -3.48826e-27)
(3.42864 -0.793084 -7.90457e-21)
(3.93267 -1.36977 0)
(3.72127 -1.19263 0)
(4.3975 -1.60024 9.12627e-24)
(4.13316 -1.48881 0)
(4.9936 -1.5639 0)
(4.6854 -1.62616 0)
(5.54685 -0.848967 1.50377e-22)
(5.30254 -1.31775 0)
(5.78615 0.596142 7.00073e-23)
(5.73047 -0.170911 0)
(5.62526 1.75151 0)
(5.77358 1.26947 0)
(5.13036 2.03243 -2.80159e-23)
(5.42884 1.99167 0)
(4.52513 1.74207 1.70037e-23)
(4.85128 1.9246 0)
(3.96326 1.29703 -4.97269e-23)
(4.24885 1.51912 2.54719e-27)
(3.48446 0.874201 -1.08552e-23)
(3.71793 1.08098 0)
(3.14406 0.321029 7.14089e-22)
(3.28833 0.620559 -7.70133e-21)
(3.05466 -0.473475 1.59392e-20)
(3.05919 -0.0665162 2.53619e-20)
(3.29342 -1.17706 -3.1732e-20)
(3.13961 -0.872537 -4.973e-21)
(5.95993 1.04875 1.15891e-20)
(5.87542 -1.67946 -9.70226e-21)
(6.02106 -0.254145 0)
(5.39277 2.30207 -3.07196e-21)
(5.7253 1.91633 8.88637e-21)
(4.6737 2.25918 -1.03611e-21)
(5.03351 2.358 -2.64541e-22)
(4.08595 1.95438 -1.92676e-24)
(4.35505 2.11331 -3.02823e-22)
(3.62512 1.69975 0)
(3.8484 1.81796 0)
(3.2485 1.325 -1.58331e-23)
(3.41384 1.55883 2.97683e-27)
(3.10693 0.500333 -3.63669e-27)
(3.14207 0.966917 3.84942e-27)
(3.21087 -0.549901 1.65925e-23)
(3.13357 -0.0244983 0)
(3.48847 -1.47126 0)
(3.33838 -1.04307 0)
(3.85906 -2.1431 -1.24154e-23)
(3.67693 -1.841 0)
(4.2499 -2.55375 0)
(4.05275 -2.38448 0)
(4.62829 -2.52559 1.11736e-22)
(4.41555 -2.61923 0)
(4.92368 -1.72984 -4.05798e-22)
(4.75003 -2.24338 1.5464e-21)
(5.02749 -0.23971 -1.05908e-19)
(4.96172 -1.04145 0)
(4.83968 1.2056 -3.94417e-19)
(4.9287 0.523574 3.19842e-19)
(4.62424 1.69298 6.63836e-21)
(2.98629 2.32825 0)
(3.76052 2.25338 -6.75715e-20)
(3.3293 2.34152 -1.53549e-20)
(2.61378 2.20775 0)
(2.73712 2.28198 0)
(2.68122 2.01601 -9.47689e-21)
(2.59826 2.10973 -3.70042e-27)
(3.03398 1.81236 -1.55482e-21)
(2.82797 1.92399 1.31001e-20)
(3.50015 1.55111 0)
(3.26699 1.6852 5.19809e-21)
(5.22438 -2.89237 -1.56439e-22)
(5.63892 -2.76099 4.89853e-21)
(3.36618 -1.39331 2.38027e-20)
(3.48532 -1.41026 5.47829e-20)
(3.86423 1.27421 2.40136e-20)
(3.69868 1.40905 -1.48702e-20)
(2.85208 0.983507 -7.54506e-25)
(2.31772 0.699056 0)
(3.33214 -0.271939 0)
(2.23494 -0.336435 -3.7357e-25)
(4.04226 -1.80917 -1.52754e-22)
(2.35937 -1.26488 -6.11865e-21)
(4.67522 -3.0321 2.44611e-22)
(2.71527 -1.65433 0)
(5.36187 -3.25925 2.7741e-20)
(5.00132 -3.45188 -1.12737e-22)
(3.28425 -1.79968 1.78031e-20)
(3.65948 -1.56977 -5.9022e-20)
(3.60301 -1.58688 -1.3268e-20)
(5.46557 -2.95926 -2.07427e-20)
(5.06694 -3.27417 -2.76971e-20)
(5.11869 -2.916 -2.81217e-21)
(3.85115 -1.66416 -2.86e-20)
(3.56419 -1.09525 8.49572e-20)
(3.82572 -1.20593 1.26739e-20)
(4.04384 1.09943 1.32595e-20)
(4.05833 1.50065 0)
(4.22805 1.3204 -1.52354e-20)
(2.49262 0.875817 -3.61817e-26)
(3.71951 0.58675 8.66925e-21)
(3.83972 0.904909 3.43696e-20)
(3.52661 0.0226694 -1.64048e-20)
(3.55921 0.358486 -8.57066e-21)
(3.54003 -0.498139 0)
(3.46315 -0.205931 0)
(3.75095 -0.8939 0)
(3.58054 -0.670999 0)
(4.09701 -1.18095 0)
(3.87278 -1.01337 0)
(4.55655 -1.35042 0)
(4.29329 -1.25818 0)
(5.10998 -1.27401 -1.41623e-27)
(4.82308 -1.34174 1.47174e-27)
(5.6284 -0.649995 -5.27577e-23)
(5.39626 -1.0486 -2.89922e-27)
(5.83201 0.599317 -7.0008e-23)
(5.80094 -0.0692886 0)
(5.59913 1.59415 0)
(5.77613 1.18226 0)
(5.0953 1.76181 -2.30368e-23)
(5.38851 1.7568 0)
(4.51022 1.4574 1.33052e-23)
(4.82663 1.6245 0)
(3.96885 1.05394 4.97304e-23)
(4.24923 1.24792 0)
(3.51154 0.674353 1.24646e-22)
(3.7438 0.855573 3.972e-27)
(3.17083 0.226734 7.63842e-21)
(3.32439 0.465355 0)
(3.08838 -0.318691 -9.48042e-21)
(3.09002 -0.0509153 -9.90096e-21)
(3.24832 -0.768133 3.82614e-20)
(3.14868 -0.56247 -2.42619e-20)
(3.38159 -0.949295 -7.54983e-20)
(6.04522 -1.54201 -1.61172e-20)
(5.76644 -2.53675 3.25286e-20)
(6.21492 0.914751 -5.49449e-23)
(6.25685 -0.231226 -1.7899e-21)
(5.55016 1.93935 -1.20944e-20)
(5.94634 1.63619 1.29215e-20)
(4.82757 1.88987 -2.85081e-24)
(5.18293 1.96977 2.68701e-22)
(4.25992 1.68619 1.92644e-24)
(4.53144 1.79349 1.71788e-27)
(3.79145 1.4805 0)
(4.03346 1.58011 0)
(3.38118 1.18216 9.37888e-27)
(3.57579 1.36654 -9.92631e-27)
(3.22805 0.505324 0)
(3.27398 0.896415 0)
(3.36722 -0.438596 1.12286e-23)
(3.27851 0.0432583 0)
(3.68493 -1.30173 0)
(3.51902 -0.896284 0)
(4.09839 -1.93735 1.24155e-23)
(3.8783 -1.64576 0)
(4.55715 -2.33711 0)
(4.29859 -2.17428 0)
(5.02824 -2.32688 -3.03324e-23)
(4.75267 -2.41361 -2.0001e-26)
(5.41486 -1.61834 3.94315e-22)
(5.20601 -2.08686 0)
(5.52901 -0.254589 0)
(5.48408 -1.0007 2.3167e-23)
(5.29752 1.10764 8.31624e-20)
(5.45878 0.455852 1.834e-22)
(5.10259 1.53642 4.65894e-20)
(3.69381 2.28835 -6.82632e-20)
(4.01985 2.17226 3.88121e-20)
(3.02938 2.43537 0)
(3.33925 2.40548 0)
(2.70469 2.38236 -2.36641e-24)
(2.81072 2.41825 -5.31773e-27)
(2.77867 2.25538 -1.53629e-24)
(2.69508 2.32465 -3.65372e-27)
(3.12318 2.09841 -2.71402e-22)
(2.92303 2.18864 -3.08576e-27)
(3.59511 1.83751 1.05736e-21)
(3.35162 1.97861 -5.00428e-22)
(3.83455 1.6747 -4.25304e-21)
(2.77446 -0.320773 1.36766e-24)
(2.25115 -0.361879 -1.22609e-25)
(3.35723 -1.7243 0)
(2.27131 -1.29005 4.49198e-25)
(4.03782 -2.977 1.70145e-22)
(2.54424 -1.9608 6.12926e-21)
(4.56017 -3.63286 -6.46889e-22)
(3.02071 -2.00206 -4.66435e-22)
(4.73281 -3.52405 -5.86435e-22)
(3.59956 -1.91517 0)
(4.71274 -2.62399 2.1084e-21)
(4.76807 -3.01392 0)
(3.8197 -1.81203 -9.49044e-21)
(4.121 -1.31185 5.79507e-20)
(4.11249 -1.6635 2.529e-20)
(4.35505 -2.10834 -1.07111e-21)
(4.2677 -2.21704 -1.95402e-20)
(3.90348 -1.67192 -2.68429e-22)
(4.36186 -1.41921 -9.37476e-21)
(4.36262 -1.19222 7.14037e-20)
(4.49605 -1.23767 5.99914e-20)
(4.24366 1.6644 0)
(4.40491 1.49772 -3.7817e-20)
(4.07637 1.07699 2.80952e-20)
(4.43731 0.990554 -2.94707e-20)
(2.41334 -0.307231 1.99466e-25)
(3.75954 0.586262 -1.67257e-20)
(4.01388 0.629695 -1.57444e-20)
(3.60788 0.0283136 2.27188e-21)
(3.71402 0.198121 -8.82078e-21)
(3.65962 -0.448711 -3.52334e-23)
(3.61811 -0.21751 3.53242e-26)
(3.89104 -0.776714 0)
(3.74644 -0.557982 0)
(4.23352 -0.990998 0)
(4.04385 -0.824263 0)
(4.6454 -1.10115 4.99082e-23)
(4.43483 -1.01705 0)
(5.1209 -1.01175 0)
(4.89085 -1.0675 0)
(5.58929 -0.464928 0)
(5.38452 -0.804321 0)
(5.76477 0.56849 0)
(5.75072 0.0230631 0)
(5.50473 1.38061 0)
(5.69143 1.0456 0)
(4.9968 1.48646 2.06071e-23)
(5.28425 1.50084 0)
(4.42339 1.16881 9.87991e-24)
(4.73066 1.32982 1.15381e-26)
(3.89708 0.797718 0)
(4.17269 0.957604 0)
(3.51537 0.475098 5.16172e-24)
(3.70935 0.613027 -3.97204e-27)
(3.35021 0.117826 7.10898e-23)
(3.41926 0.300453 1.85748e-26)
(3.4287 -0.381589 1.03603e-20)
(3.37312 -0.11532 9.34327e-24)
(3.70165 -0.903049 -5.32892e-21)
(3.5516 -0.658951 -5.23186e-21)
(4.08462 -1.10784 -3.23186e-20)
(3.89407 -1.04508 2.23058e-20)
(4.24244 -1.1286 -8.03211e-20)
(5.20205 -2.56524 -9.73777e-22)
(4.80142 -2.44968 -3.70394e-23)
(6.05169 -1.24765 3.84706e-22)
(5.6344 -2.16886 0)
(6.24013 0.805655 5.43379e-23)
(6.30472 -0.119275 1.81281e-21)
(5.57159 1.61721 0)
(5.96074 1.37269 0)
(4.89721 1.62778 1.14847e-23)
(5.223 1.66993 0)
(4.39133 1.47348 0)
(4.64181 1.56166 0)
(3.96745 1.26101 0)
(4.19627 1.36683 0)
(3.54035 1.02983 -5.50491e-23)
(3.7575 1.16492 0)
(3.34874 0.507741 0)
(3.41271 0.819633 0)
(3.4914 -0.303672 -5.30994e-23)
(3.38836 0.12429 0)
(3.84864 -1.10332 -5.63176e-23)
(3.64248 -0.721448 0)
(4.30359 -1.70848 -3.98008e-23)
(4.0388 -1.43433 3.22916e-27)
(4.80878 -2.08964 -4.96239e-24)
(4.50507 -1.94345 -3.68257e-27)
(5.33822 -2.09848 -3.18997e-23)
(5.02748 -2.16706 0)
(5.77475 -1.49619 0)
(5.54411 -1.8893 0)
(5.9174 -0.302377 0)
(5.87084 -0.940499 -2.3203e-23)
(5.66415 0.919303 -5.5874e-20)
(5.83955 0.366508 -1.80047e-22)
(5.44656 1.32538 4.88327e-20)
(4.1542 1.86133 0)
(4.39625 1.62377 1.53671e-20)
(3.53936 2.20063 3.33304e-20)
(3.84983 2.07901 3.19213e-21)
(2.98907 2.41212 3.58739e-24)
(3.23377 2.33507 7.86163e-27)
(2.73958 2.4482 4.45674e-24)
(2.82138 2.44583 8.88603e-27)
(2.84249 2.39226 -7.46788e-27)
(2.74661 2.43173 7.59328e-27)
(3.24005 2.27645 -1.69294e-21)
(3.00823 2.34727 4.87967e-27)
(3.79573 2.02083 -1.05298e-21)
(3.51199 2.17099 1.72529e-21)
(4.04278 1.84461 -4.60291e-21)
(2.80836 -1.6532 0)
(2.30367 -1.45469 4.64223e-26)
(3.41813 -2.87302 0)
(2.43485 -2.11279 -1.42738e-24)
(4.01911 -3.62641 -1.9213e-22)
(2.82766 -2.38563 -4.34569e-24)
(4.40652 -3.74329 4.1994e-22)
(3.38695 -2.20854 2.83389e-24)
(4.47237 -3.28737 7.92573e-22)
(3.8765 -1.96568 -4.59476e-24)
(4.44776 -2.65506 0)
(4.02858 -2.02111 -4.56161e-21)
(3.51201 -1.23977 -3.66289e-20)
(3.79773 -1.73875 4.7015e-20)
(4.43933 -1.65923 7.36273e-22)
(4.67739 -1.21467 -6.41848e-20)
(4.55992 -1.4928 -4.97171e-20)
(4.48053 1.36933 -8.61754e-21)
(2.44912 -1.52084 -3.77081e-25)
(4.23252 0.745276 -3.46798e-20)
(4.73931 1.042 1.56959e-19)
(4.36812 0.977333 -1.02208e-19)
(3.87368 0.330433 4.26418e-21)
(3.99894 0.650242 3.22246e-20)
(3.71688 -0.092639 -2.26908e-21)
(3.77364 0.25977 4.45479e-21)
(3.78469 -0.410876 -9.09615e-21)
(3.73863 -0.105356 8.12337e-21)
(4.00707 -0.623659 -6.9407e-23)
(3.89989 -0.394677 3.55414e-26)
(4.29482 -0.80135 -6.47046e-23)
(4.16775 -0.64178 -3.31983e-26)
(4.65332 -0.898692 7.22634e-24)
(4.4902 -0.836254 0)
(5.0729 -0.802064 0)
(4.88285 -0.879741 0)
(5.44526 -0.316706 -3.82837e-23)
(5.29521 -0.622222 0)
(5.53579 0.532245 1.35836e-26)
(5.54701 0.0802447 -1.41033e-26)
(5.28737 1.1687 1.61196e-26)
(5.45133 0.911745 -1.67289e-26)
(4.82089 1.18337 -2.08742e-26)
(5.07382 1.23143 2.16546e-26)
(4.28887 0.868232 -1.15313e-22)
(4.55393 1.02223 2.79741e-26)
(3.84872 0.572909 6.92304e-23)
(4.05384 0.691878 3.31431e-26)
(3.6019 0.378166 3.52821e-24)
(3.71139 0.459651 0)
(3.50662 0.15545 7.91818e-23)
(3.55285 0.283602 3.87574e-26)
(3.51394 -0.203003 7.97965e-23)
(3.50569 0.00394127 0)
(3.63307 -0.556624 5.53171e-21)
(3.55897 -0.379505 0)
(3.85325 -0.836319 2.32185e-20)
(3.73806 -0.681424 -2.55942e-20)
(4.1448 -1.03656 0)
(3.98326 -0.95535 2.56783e-21)
(4.56243 -1.02683 7.35186e-20)
(4.35061 -1.03497 -7.01959e-20)
(4.11604 -1.64325 1.78811e-21)
(3.5691 -0.945264 2.08152e-20)
(3.79905 -1.24529 -2.01698e-20)
(4.97091 -2.09147 5.17572e-22)
(4.50229 -1.98846 4.27593e-23)
(5.98934 -0.916076 0)
(5.5193 -1.70346 0)
(6.1157 0.644752 -5.73365e-24)
(6.20912 -0.033194 0)
(5.47338 1.26114 0)
(5.83738 1.06014 0)
(4.86402 1.35024 -8.63491e-24)
(5.15007 1.34941 0)
(4.41168 1.26529 0)
(4.63597 1.32302 0)
(4.06218 1.05977 0)
(4.23605 1.17717 0)
(3.69901 0.846721 -5.88445e-24)
(3.88956 0.951445 0)
(3.46503 0.487297 0)
(3.54132 0.704897 0)
(3.57562 -0.170774 -6.10271e-26)
(3.4639 0.180843 6.46062e-26)
(3.94264 -0.883573 5.62586e-23)
(3.7071 -0.549713 6.29038e-26)
(4.42347 -1.44796 8.85899e-23)
(4.13196 -1.2063 4.81178e-26)
(4.96324 -1.80766 -1.6957e-23)
(4.64152 -1.68091 0)
(5.51978 -1.83829 -4.95616e-23)
(5.20553 -1.89274 2.11032e-26)
(5.98029 -1.33635 -6.98279e-26)
(5.74825 -1.66423 7.40836e-26)
(6.13173 -0.330515 0)
(6.09177 -0.864993 0)
(5.87446 0.720071 7.95333e-21)
(6.05449 0.26341 -1.14314e-20)
(5.32128 1.2465 0)
(5.62315 1.10554 1.17444e-21)
(5.05073 1.37702 0)
(3.92918 1.70219 0)
(4.32239 1.21274 6.19646e-21)
(4.14616 1.47161 -1.98647e-20)
(3.44124 2.08199 -2.00426e-21)
(3.68745 1.92417 -1.90303e-21)
(2.95732 2.32677 -1.25398e-24)
(3.18392 2.23397 0)
(2.72461 2.41198 -2.09383e-24)
(2.79429 2.38654 0)
(2.86315 2.4221 0)
(2.74941 2.42953 0)
(3.30117 2.35844 5.2252e-25)
(3.04824 2.40495 0)
(3.91814 2.13819 0)
(3.59437 2.27442 0)
(4.5135 1.72247 0)
(4.24127 1.94368 3.53399e-21)
(4.79164 1.22671 0)
(4.70736 1.5089 1.93541e-21)
(3.226 -0.846358 7.56043e-20)
(3.46188 -0.702231 0)
(4.91231 -1.12187 2.92443e-21)
(4.7525 -1.02201 4.66065e-21)
(2.92533 -2.73289 8.31479e-24)
(2.46775 -2.36685 0)
(4.84035 1.01818 0)
(3.50465 -3.53725 2.57716e-23)
(2.69591 -2.65791 9.98062e-25)
(4.68192 0.922025 4.20194e-20)
(4.9521 1.24937 0)
(4.93188 1.02234 0)
(3.98442 -3.79058 4.81037e-23)
(3.16758 -2.56381 8.70955e-24)
(4.22564 -3.55386 0)
(3.76541 -2.30653 1.34178e-23)
(4.1923 -2.94887 0)
(4.07886 -2.14875 0)
(4.06595 -2.25457 0)
(4.34515 -2.08567 3.76554e-21)
(3.31033 -1.23014 4.85642e-21)
(4.77442 -1.72439 1.15998e-21)
(3.43008 -0.520409 0)
(3.12629 -0.543687 -4.10359e-20)
(4.80516 -1.52268 -1.97456e-20)
(5.13998 -1.0291 4.749e-20)
(4.90393 -0.961618 -6.67975e-20)
(2.60141 -2.53268 2.43834e-25)
(4.22498 0.629215 1.7311e-20)
(4.40575 0.767833 0)
(3.93383 0.269041 -4.4188e-21)
(4.02752 0.469053 -7.95271e-21)
(3.83892 -0.059687 0)
(3.84621 0.158265 4.34841e-21)
(3.92043 -0.306148 0)
(3.86715 -0.110278 1.15389e-21)
(4.08164 -0.518655 6.93735e-23)
(4.01769 -0.350271 0)
(4.29658 -0.685085 1.31577e-22)
(4.21181 -0.575888 0)
(4.60482 -0.730252 5.34012e-24)
(4.46896 -0.706118 0)
(4.96987 -0.613022 -5.66715e-23)
(4.80013 -0.687384 -5.57027e-26)
(5.27743 -0.216809 3.8237e-23)
(5.14914 -0.448355 4.89245e-26)
(5.29215 0.45972 -5.30691e-23)
(5.3316 0.110925 4.41225e-26)
(4.98052 0.982493 -4.92537e-26)
(5.1583 0.78679 4.7636e-26)
(4.56767 0.950404 -5.97461e-23)
(4.77108 1.03273 5.53349e-26)
(4.18023 0.657367 1.26875e-22)
(4.35988 0.80587 0)
(3.91304 0.445504 2.68689e-24)
(4.02399 0.530465 7.01725e-26)
(3.77344 0.316255 -1.51585e-22)
(3.83087 0.379118 0)
(3.67765 0.0917262 -7.91417e-23)
(3.72178 0.229047 -8.0572e-26)
(3.63648 -0.278442 0)
(3.64252 -0.0744735 0)
(3.75552 -0.602944 1.06325e-20)
(3.67453 -0.446184 -1.11388e-20)
(3.99599 -0.747538 0)
(3.86602 -0.685564 -5.22552e-27)
(4.30827 -0.797252 3.2662e-21)
(4.15461 -0.76571 -5.0994e-21)
(4.5446 -0.831817 3.96049e-20)
(4.43949 -0.819839 -3.95285e-20)
(4.81819 -0.727012 0)
(4.67191 -0.790186 -4.64018e-21)
(3.78345 -0.8153 1.15782e-20)
(3.6275 -0.468531 -1.88482e-21)
(3.70057 -0.626815 -2.24898e-20)
(4.16396 -1.3408 2.22322e-20)
(3.93137 -1.0421 -1.14074e-20)
(4.97553 -1.57252 1.02337e-20)
(4.51204 -1.57233 -3.28045e-20)
(5.86473 -0.610809 -3.09447e-23)
(5.48558 -1.20266 3.08762e-22)
(5.88606 0.45461 5.73368e-24)
(5.99595 0.00328063 0)
(5.34746 0.929804 6.7638e-26)
(5.64363 0.75473 -7.15313e-26)
(4.78616 1.11324 -8.45989e-26)
(5.06059 1.05589 8.94843e-26)
(4.34088 1.10029 -2.84606e-23)
(4.55446 1.12728 0)
(4.02868 0.94882 1.11159e-25)
(4.16524 1.04359 -1.17616e-25)
(3.79761 0.711555 6.08138e-23)
(3.91018 0.823425 1.28104e-25)
(3.5796 0.449494 0)
(3.65768 0.58534 0)
(3.6223 -0.0387778 6.66932e-23)
(3.531 0.219423 -4.32559e-27)
(3.96361 -0.659983 -1.25499e-25)
(3.72887 -0.374525 1.32883e-25)
(4.45124 -1.18448 6.3005e-24)
(4.15765 -0.966103 0)
(5.00053 -1.52027 2.19228e-23)
(4.68484 -1.39819 0)
(5.56213 -1.5613 -5.38988e-24)
(5.25456 -1.59461 0)
(6.01872 -1.16284 -6.44267e-26)
(5.79885 -1.4118 6.83206e-26)
(6.16509 -0.353178 0)
(6.1295 -0.777206 0)
(5.92354 0.529122 7.64251e-22)
(6.09868 0.151815 -5.71271e-21)
(5.38225 0.95336 3.46092e-21)
(5.68852 0.850841 3.46615e-21)
(5.12249 1.05945 0)
(4.1723 1.15094 -6.52696e-21)
(4.28466 0.913367 3.27342e-20)
(3.76904 1.56044 0)
(3.99891 1.36979 6.40807e-21)
(3.24941 1.89004 1.63911e-24)
(3.50626 1.74852 0)
(2.82049 2.11908 -2.33146e-24)
(3.00759 2.02461 -9.85966e-27)
(2.67139 2.24548 0)
(2.70414 2.19715 0)
(2.86607 2.31004 0)
(2.72219 2.29086 0)
(3.39657 2.28819 -5.19503e-25)
(3.09579 2.31539 0)
(4.07258 2.11902 0)
(3.73538 2.22606 0)
(4.66798 1.74572 2.76756e-21)
(4.39451 1.95127 -3.41315e-21)
(4.87848 1.52893 -4.47492e-21)
(3.41967 -0.297102 0)
(3.57229 -0.250068 1.61329e-20)
(5.06472 -0.806845 5.30926e-20)
(4.94227 -0.64924 -7.89619e-20)
(3.0816 -3.39904 -4.94329e-25)
(2.7107 -2.96045 6.72707e-25)
(4.58837 0.657266 -6.88698e-20)
(4.74659 0.794175 3.95701e-20)
(3.56545 -3.7452 -1.3211e-22)
(3.03209 -2.91351 0)
(3.91888 -3.64948 -2.2117e-22)
(3.5117 -2.61106 -2.0403e-23)
(3.98377 -3.26525 0)
(4.08347 -2.43772 0)
(3.88822 -2.60684 2.70608e-22)
(4.32682 -2.37492 -2.09986e-22)
(3.58464 -1.76727 0)
(4.70509 -2.09069 7.26476e-22)
(2.93418 -0.712901 -2.97417e-20)
(5.13494 -1.80037 0)
(3.16181 -0.290801 3.338e-20)
(5.12887 -1.49404 1.6777e-20)
(3.55974 -0.0218843 -3.65821e-20)
(3.42981 -0.0268023 3.51456e-20)
(5.34601 -0.965672 -3.35312e-20)
(3.68129 -0.0197762 -1.00996e-20)
(3.70726 0.15835 -8.63317e-21)
(3.59148 0.200508 4.44702e-20)
(4.16804 0.610843 -7.41836e-20)
(5.22146 -0.61113 -3.76979e-21)
(5.01273 -0.547233 1.80596e-19)
(2.80833 -3.18955 0)
(4.19442 0.431248 -7.39626e-21)
(4.35519 0.632864 2.4765e-20)
(3.96803 0.189168 0)
(4.06149 0.371713 0)
(3.91766 -0.0314734 0)
(3.93883 0.132324 0)
(3.97042 -0.223953 0)
(3.95629 -0.0661029 0)
(4.06552 -0.405426 6.95896e-23)
(4.03364 -0.265319 4.4423e-27)
(4.25063 -0.519041 -6.69735e-23)
(4.16824 -0.434345 1.39141e-25)
(4.54116 -0.539378 -6.2604e-23)
(4.4046 -0.518048 1.33335e-25)
(4.88187 -0.437162 5.66052e-23)
(4.72127 -0.502535 1.24957e-25)
(5.13282 -0.131084 0)
(5.03248 -0.31539 -3.89812e-27)
(5.11247 0.370093 5.30236e-23)
(5.16097 0.0986517 3.28958e-27)
(4.7838 0.791328 0)
(4.9682 0.615562 3.47869e-27)
(4.39962 0.785499 -6.31958e-24)
(4.57253 0.841372 0)
(4.14496 0.547152 -1.35152e-22)
(4.24851 0.668692 0)
(3.99769 0.382124 -7.21546e-23)
(4.0583 0.451318 1.45158e-25)
(3.87693 0.26288 1.54925e-22)
(3.93528 0.327304 0)
(3.75995 0.0650811 0)
(3.81225 0.181056 0)
(3.73337 -0.207552 0)
(3.72849 -0.0605987 0)
(3.84446 -0.450914 0)