/*--------------------------------*- C++ -*----------------------------------*\
  =========                 |
  \\      /  F ield         | OpenFOAM: The Open Source CFD Toolbox
   \\    /   O peration     | Website:  https://openfoam.org
    \\  /    A nd           | Version:  10
     \\/     M anipulation  |
\*---------------------------------------------------------------------------*/
FoamFile
{
    format      ascii;
    class       surfaceScalarField;
    location    "26.5";
    object      phi;
}
// * * * * * * * * * * * * * * * * * * * * * * * * * * * * * * * * * * * * * //

dimensions      [0 3 -1 0 0 0 0];

internalField   nonuniform List<scalar> 
57492
(
-0.0253829
0.00298052
0.0055902
0.0168121
-0.00142762
-0.0209276
-0.00302763
-0.00359745
0.011965
0.0341587
-0.0425263
0.0989053
0.0723679
-0.0163799
-0.154893
-0.20991
0.0849842
0.223831
0.0525154
-0.0515138
-0.0268911
0.0258894
-0.0960213
0.0234445
-0.0139672
0.086544
0.0172562
-0.060762
0.0229762
-0.101519
0.0963913
-0.0178486
0.021078
0.0927958
-0.0908976
0.00306787
-0.00763457
0.0192331
-0.0146664
-0.00982593
-0.00809862
0.0209924
-0.00856815
0.00302034
-0.00427812
-0.00161902
-0.0145837
0.100625
-0.0853902
-0.0374971
0.0222625
0.00231816
0.0757875
0.0225191
-0.000768247
0.0120746
0.0860004
-0.0973068
-0.0108609
0.0851093
-0.0750166
0.0169844
-0.0353456
0.0183611
-0.0951843
0.0640616
0.0481071
-0.114751
0.0149444
0.0841354
0.0156708
0.018949
-0.116404
-0.0172959
0.000190834
0.00545877
-0.0248454
0.0191958
0.0112014
-0.0122905
0.00127989
-0.165073
0.174706
0.0160918
-0.0257243
-0.190193
0.0706001
-0.0454799
-0.0750637
0.0264476
0.0384053
0.0102109
-0.0509897
-0.0272702
0.00319622
-0.0283904
-0.0754525
0.0954652
0.00837775
-0.0356637
0.0128449
-0.00557163
0.0591757
-0.0375164
-0.0360376
0.0143783
-0.0473249
0.0393353
0.0671652
-0.0716641
-0.123885
0.0721959
0.123353
-0.124355
-0.0399821
0.0926732
-0.058971
-0.00951686
0.0684878
-0.0163195
-0.0426515
-0.0743659
0.0920633
-0.0340169
0.0156695
-0.0484823
-0.041553
-0.0500506
0.0734951
-0.026982
-0.113248
0.0549645
0.0582833
-0.20464
0.0913919
0.0874078
-0.019091
0.0114459
-0.0797627
0.0628995
0.00120174
0.0233066
-0.0162782
0.0864107
-0.0892236
0.0954544
0.0153257
-0.0935239
0.0933615
-0.0118743
0.104389
-0.0362792
-0.0765263
0.00841648
0.117975
0.00173951
0.078587
-0.0435594
0.0583339
0.0288995
0.136232
-0.0999697
-0.012409
0.0109454
0.101433
-0.103271
-0.00562766
0.00892889
0.0141783
0.0988712
-0.0976564
-0.0153931
0.00690924
-0.0942499
-0.11222
0.119098
0.126737
-0.133615
-0.0190913
0.126461
-0.21959
0.00229188
0.00653553
-0.000934855
-0.00789255
0.00205327
0.00325895
-0.000438587
0.00747828
-0.00498643
0.00672051
-0.000623566
-0.0051514
0.00421655
0.000273862
-0.00542526
0.257688
0.0854942
-0.17962
-0.163562
0.0685821
-0.0494097
0.238516
-0.218864
0.0664518
0.220994
0.0346863
-0.168056
0.0298411
-0.0800373
0.0638632
-0.0136669
0.0689751
-0.0810113
0.0418772
0.00348463
-0.0016074
0.00110328
0.00716278
0.00191205
0.0197836
0.00419132
-0.0883541
0.161066
0.0724441
-0.145156
0.096132
-0.115511
0.052636
0.15266
-0.0442295
0.361953
-0.0308584
-0.111615
-0.21948
0.0989867
0.19834
0.064627
0.0554437
-0.135826
0.179369
0.00752338
-0.0111208
0.0194884
0.0605646
0.0885698
-0.0425894
-0.106545
0.0818008
0.0129226
0.00918919
-0.00348296
-0.00570622
0.0166691
-0.00747991
-0.187687
0.093545
-0.0726099
0.166752
-0.158455
-0.0907432
0.0615104
-0.0883083
0.0871526
-0.157299
0.105388
-0.00221429
-0.0523066
-0.0508671
-0.0466644
0.118858
0.0331942
-0.0574538
-0.00682843
0.0176178
-0.0507548
-0.00891327
-0.0196451
-0.0834163
-0.0172874
0.0091556
0.00284669
0.00528511
0.004746
-0.0273201
0.00528668
-0.0222824
-0.00746624
0.0344946
-0.0158853
0.00275848
-0.0166814
0.00364287
-0.0526117
0.0329666
0.00639557
-0.0590072
0.00701878
0.00965032
0.117887
0.0764619
-0.00868144
0.0422576
-0.13428
-0.0153716
0.0956242
-0.0671858
-0.0130668
-0.0228996
0.100797
-0.0932692
0.0837741
0.047244
-0.012869
-0.118149
-0.0269873
0.0121768
0.0985846
0.106241
-0.0859847
-0.0332266
-0.0712273
0.0211351
0.0833188
-0.0343416
0.0821719
-0.0810569
0.00255039
-0.108119
-0.0118968
-0.0128494
-0.000666454
-0.0356381
0.0255142
0.0086962
0.0199339
-0.00777388
-0.0477981
-0.0140616
0.0130679
-0.0146747
0.0228939
0.0059476
-0.0141668
0.0432013
-0.0387255
-0.0191505
-0.022763
0.0527108
0.0132534
-0.0117169
0.0118478
-0.161135
0.0924615
0.162219
0.173233
-0.0645657
-0.19941
-0.0779417
0.090039
-0.00675575
-0.056981
-0.0117158
-0.0431466
0.000727178
0.00188532
-0.0132743
0.00541621
0.0059728
-0.0122768
0.00799697
0.00616517
-0.0202776
-0.00527359
-0.0183267
-0.0295376
0.00471777
-0.047206
-0.0281017
-0.0490428
-0.0516081
0.0626314
0.0380195
0.00342237
0.0222251
-0.0746903
-0.0688597
0.020674
-0.131917
0.0477705
-0.0110377
-0.127608
0.0115338
-0.0158431
-0.00523775
-0.0859311
0.0791664
0.0120025
-0.000455314
-0.0891381
0.0843557
-0.00972372
-0.280847
-0.0779257
0.0947813
0.0880923
-0.118248
0.100346
-0.0177995
0.0246505
-0.0321168
0.0238175
0.000833067
0.0257997
-0.00579424
0.101189
-0.0620197
-0.0416542
0.00248541
0.0860945
-0.00118411
0.150674
-0.0134112
-0.156354
0.0325993
0.112253
0.0058215
0.00864385
-0.0908958
0.114851
0.00305724
0.0207602
0.0335745
-0.110595
-0.105601
0.0705588
0.135452
0.0593401
-0.003432
-0.0618913
0.00598326
0.0187164
-0.00670126
-0.0757346
0.0135832
0.101487
0.0100096
-0.0670278
-0.0094806
-0.000768611
-0.00579526
-0.00159887
0.00854046
-0.00114633
0.00280817
-0.000355374
-0.00824806
0.0237362
0.0105302
-0.0314582
-0.0242709
0.0524271
-0.0211374
0.189532
-0.14819
-0.065613
-0.00302623
-0.0943904
0.111
-0.230721
-0.00888202
-0.177225
-0.0950103
0.041514
0.0807626
0.0616339
-0.127452
0.0457921
0.120757
-0.0857861
0.0431998
-0.0813675
0.0486915
-0.0105238
0.0472541
-0.0786443
0.07459
0.112419
0.03335
0.109096
-0.00499567
-0.108784
0.00468357
0.120171
-0.0142675
0.0031926
0.122566
-0.013378
-0.00499749
-0.10419
0.0876786
-0.0239619
0.0588493
0.100099
-0.0249402
0.0192485
-0.0944076
0.0219937
0.101776
-0.0236705
-0.0913361
-0.0311188
0.0975147
0.0172066
-0.0874077
-0.0327024
0.0849025
-0.0428562
-0.0775094
0.0373727
0.0829929
-0.0446535
-0.0790742
0.0808715
0.0411059
0.0751059
-0.0236475
-0.0925643
0.0742999
-0.0778475
-0.0480085
0.0483978
0.0739107
-0.0378484
0.0649457
-0.0980379
0.0865906
-0.0122002
-0.126566
0.00925819
0.127373
-0.0100652
0.0316459
0.0715342
0.0375564
-0.0171963
-0.0918943
0.0463232
0.0482922
-0.0230812
0.0084705
-0.0200727
-0.00245942
-0.0671718
-0.0973894
0.0588826
-0.00372124
0.00336587
0.00055979
-0.00428103
-0.0131131
-0.114362
0.0839152
-0.0951584
-0.0114487
0.093494
0.00826056
-0.0993914
-0.00402756
0.017196
0.0281767
-0.0150562
-0.0303165
0.0179525
0.0368631
-0.0376197
0.0389816
0.00714758
0.00029006
-0.00403877
-0.00910067
-0.00580166
0.00609172
-0.00984042
0.0017012
-0.00197421
0.00699352
-0.00161877
0.00331997
-0.00359298
0.00455727
-0.00153291
0.00817705
-0.00524829
0.00980555
-0.0067812
0.0077722
-0.000923135
-0.018566
-0.00313345
0.0109057
-0.00405659
0.0345665
0.0823424
-0.104732
0.0339672
-0.108997
0.109597
0.11828
-0.00197018
-0.0339249
-0.0642857
0.0337214
0.0644892
-0.0159512
0.0683516
-0.0863254
0.00663771
-0.0868746
0.0805632
-0.0823047
-0.0728082
0.0745497
0.0801455
-0.0710054
0.0714231
-0.0742771
-0.0826672
0.0746396
0.0797836
-0.0690387
0.0694006
0.0799873
-0.0645024
0.0642987
-0.0602272
0.0811358
0.0590787
0.0756002
-0.0766781
-0.0591494
-0.0573292
0.0834536
0.0550115
0.0729244
-0.0546534
-0.076316
-0.0648645
-0.0779488
-0.067406
-0.0794846
-0.0694696
-0.0819816
-0.0703111
-0.0820629
-0.0741959
-0.04987
0.0868463
0.0464772
0.0690672
-0.0460128
-0.0751708
-0.0825541
0.0750577
-0.0844649
-0.0727688
-0.0754533
-0.0863554
0.0792546
-0.0372179
0.0870202
0.0370441
0.068529
-0.0366797
-0.0881511
-0.0717671
0.087741
-0.026599
0.0258782
-0.0149649
0.088529
0.0141769
0.0684793
-0.0265492
0.0686834
-0.0151691
-0.0754858
-0.0864556
0.075586
-0.0885837
-0.0750531
-0.00300535
0.0896283
0.00190609
0.0692537
-0.00357565
-0.0765186
-0.0864813
0.0765443
-0.0893387
-0.0757636
0.00889022
0.0909841
-0.010246
0.0701777
0.00796624
-0.0776822
-0.0858545
0.0770554
-0.0893204
-0.0777005
0.020327
0.0923256
-0.0216686
0.0712831
0.0192216
-0.0790581
-0.0853274
0.078531
-0.0896048
-0.0787736
0.030767
0.0939623
-0.0324038
0.0727919
0.0292583
-0.0802129
-0.0842379
0.0791234
-0.0892394
-0.0805783
0.040256
0.0951314
-0.0414251
0.0742964
0.0387515
-0.0806166
-0.0836489
0.0800276
-0.0890715
-0.0807845
0.0482131
0.0965176
-0.0495992
0.0763332
0.0461763
-0.0801241
-0.0806493
0.0771246
-0.0874416
-0.081754
0.0552062
0.0968789
-0.0555675
0.0773303
0.0542091
-0.0788035
-0.0795529
0.0777071
-0.0874219
-0.0788233
0.0607418
0.0970191
-0.060882
0.0781495
0.0599226
-0.0746282
-0.0773462
0.0724215
-0.085327
-0.0767231
0.0691244
0.0918337
-0.063939
0.0823145
0.0649594
-0.068699
-0.0769168
0.0682697
-0.0850569
-0.0689692
0.0716841
0.0870991
-0.0669495
0.084921
0.0690777
-0.0601143
0.0592934
-0.076096
-0.0858198
-0.0593514
0.0702591
-0.0705035
0.0873435
0.0858691
0.069311
-0.0700588
0.0726889
0.0656395
-0.0689126
0.0581473
-0.0480211
0.048914
-0.0769889
-0.0493548
-0.0844861
-0.0738847
0.0753311
0.0762607
0.0712258
-0.0750478
0.0767031
0.0783723
0.0774078
-0.0781067
0.0792595
0.0773782
0.0777198
-0.0801245
0.0807376
0.0759311
0.0761904
-0.0811615
0.0851734
0.0752427
0.0751621
-0.0854689
0.0837701
0.0763384
0.0747622
-0.0863225
0.0851338
0.0726117
0.0719973
-0.0829541
0.0819932
0.0652596
0.0715804
-0.0797928
0.0796374
0.0551668
0.0612791
-0.079596
0.0797327
0.0369074
0.0465186
-0.0800506
0.080515
0.0137125
0.0255603
-0.0811224
0.0818136
-0.0109372
0.00129876
-0.0825536
0.0832938
-0.0331439
-0.0224086
-0.0839925
0.0846247
-0.0502314
-0.0421238
-0.0851754
0.085646
-0.0613527
-0.0561182
-0.0865906
0.0873102
-0.0676691
-0.0648835
0.0862943
-0.0694876
0.0710723
-0.0697609
0.086032
0.0702938
0.0866475
0.0808709
-0.0767483
0.0608368
-0.0836956
0.0852612
0.0677454
0.066253
0.0747334
-0.0717652
0.0512409
0.0579076
0.0699501
-0.0682759
0.0370772
0.0443612
0.0668239
-0.0656266
0.0180244
0.0278063
0.0647635
-0.0643442
-0.00399497
0.00710316
0.0643256
-0.0647428
-0.026132
-0.0151877
0.0656683
-0.0669331
-0.0447479
-0.0357543
0.0700268
-0.0713831
-0.057793
-0.0515598
0.0744736
-0.0755811
-0.0662985
-0.061774
0.0771611
-0.0786265
-0.0688457
-0.0678896
0.0813217
-0.0830918
-0.0709986
-0.0715007
0.0824512
-0.0835887
-0.0739156
-0.0724078
0.0846021
-0.0854718
-0.0768308
-0.0747502
0.0862099
-0.0868629
-0.0799253
-0.0780355
0.0874592
-0.0889708
-0.0802424
-0.0801882
0.0900004
-0.0924138
-0.0743096
-0.0777938
0.0935161
-0.0927278
-0.0601397
-0.0678669
-0.093222
-0.0488607
-0.0686461
0.0486475
0.0873026
-0.0707692
0.0676118
0.0879432
-0.0354495
0.0363409
-0.0853775
-0.0352315
-0.09344
-0.0365792
0.0367901
-0.0688571
-0.0772271
-0.0636949
0.064998
0.0643364
0.0622214
-0.0614172
0.0478434
0.0566738
-0.0669249
0.0696866
0.073499
0.0692989
-0.0720275
0.0742571
0.0761428
0.0750669
-0.0762392
0.0779434
0.075674
0.0757377
-0.0793301
0.0804631
0.0747981
0.0748037
-0.0813467
0.081939
0.0746505
0.0742785
-0.0824734
0.0844402
0.0743715
0.0742278
-0.0831026
0.083355
0.0723594
0.0733348
-0.0853234
0.0840245
0.0665586
0.0696119
-0.0841597
0.0845183
0.0548082
0.0611439
-0.0849347
0.085424
0.0364181
0.0461023
-0.0859718
0.0865541
0.0131302
0.0250124
-0.0871425
0.0877014
-0.0114962
0.000710334
-0.0881999
0.0886282
-0.0335722
-0.0229071
-0.0889575
0.0891769
-0.0504508
-0.0424531
-0.0892817
0.0892862
-0.0613573
-0.056223
-0.0889626
0.0882118
-0.0669183
-0.0645599
-0.071373
0.0715117
0.0858934
-0.0701222
0.0860518
-0.0868433
0.0862014
-0.0701274
-0.068119
0.0833482
-0.0809398
0.065337
0.0849818
0.0659783
-0.0690665
0.069859
0.0871507
0.0890927
0.0782121
-0.0744432
0.057068
0.0635252
0.0708896
-0.0686958
0.0490471
0.054354
0.0666712
-0.0648059
0.0352119
0.0423366
0.06322
-0.0619613
0.0167656
0.0262204
0.0611282
-0.0607162
-0.00440699
0.00627012
0.0608846
-0.061535
-0.0254816
-0.0150193
0.0626857
-0.0643148
-0.0431188
-0.0346036
0.0662393
-0.0684373
-0.055595
-0.0496353
0.0707232
-0.0737762
-0.0632455
-0.059488
0.0763564
-0.0775249
-0.0676772
-0.0653094
0.0805054
-0.0814181
-0.0700859
-0.0685203
0.0832093
-0.0848702
-0.0722546
-0.0706166
0.0863656
-0.0877673
-0.075429
-0.0732549
0.0891082
-0.0904406
-0.0785929
-0.0766947
0.0917805
-0.0931791
-0.0788438
-0.0788483
0.0946175
-0.0961383
-0.0727888
-0.0763554
0.0976135
-0.0990638
-0.0586894
-0.0663917
0.0998083
-0.0997814
-0.0352585
-0.0481161
-0.061102
0.0364749
-0.0216426
0.020553
-0.0923504
-0.0998432
-0.0215808
0.0198172
-0.0846416
-0.0699331
0.0860124
0.0865162
0.0683247
0.0244859
-0.0228982
-0.0704448
0.0247101
-0.0613262
-0.00689924
0.00504006
-0.0904913
-0.0073818
-0.0993606
-0.0803082
0.0888345
-0.0907168
-0.0682451
0.0868977
-0.0679964
0.0704492
-0.0698809
0.0865824
0.0673414
0.0896239
-0.0543058
0.0549815
0.0240344
0.0101394
-0.00931999
-0.0621456
0.0562398
0.00173856
0.00471819
-0.0626965
0.0120734
-0.0557462
0.0571109
0.0464786
0.0357102
-0.0586808
0.0611905
0.0618267
0.0551039
-0.063769
0.0667651
0.0705029
0.0667204
-0.069661
0.0723759
0.0734278
0.072171
-0.0748293
0.0770068
0.0734965
0.0732843
-0.0788623
0.0804432
0.0732172
0.0729482
-0.081771
0.0829019
0.0735195
0.0729507
-0.0838939
0.0847486
0.0735168
0.0732359
-0.0855949
0.0863811
0.0715732
0.0724886
-0.0871255
0.0879668
0.0657172
0.0688675
-0.0888093
0.0896653
0.0539521
0.0603015
-0.0905168
0.0913341
0.0356009
0.0452508
-0.0920798
0.0927426
0.0124674
0.0242667
-0.0932859
0.0937137
-0.0119239
0.000166991
-0.0940075
0.0941517
-0.0337164
-0.0232009
-0.0941219
0.0939124
-0.0502414
-0.0424233
-0.0935418
0.09304
-0.0608555
-0.0558524
-0.0924212
0.0910241
-0.0655212
-0.0639411
-0.0678116
-0.0696969
0.0682879
0.0873024
0.0698074
-0.0701737
0.0863786
0.0861622
0.0874997
0.0813896
-0.0781486
0.062096
-0.0840738
0.0868762
0.0655222
0.0632941
0.0736441
-0.0719494
0.0553733
0.0590207
0.0686715
-0.0662514
0.046627
0.0510761
0.064031
-0.062013
0.0331939
0.0401162
0.0603363
-0.0590438
0.0154731
0.0245437
0.0582389
-0.0579536
-0.00469237
0.00546529
0.0582268
-0.0591202
-0.0245882
-0.0147461
0.060524
-0.0624198
-0.041223
-0.0331999
0.064651
-0.0671532
-0.0530929
-0.047404
0.0697575
-0.0723473
-0.0606556
-0.0568837
0.0748882
-0.0773953
-0.0651701
-0.0627684
0.0797596
-0.0820582
-0.0677873
-0.066156
0.0842324
-0.0862989
-0.0701881
-0.0684424
0.0882534
-0.0901617
-0.0735206
-0.0713005
0.0920519
-0.0939912
-0.0766536
-0.0748046
0.0959793
-0.0980599
-0.0767633
-0.0768601
0.100208
-0.102409
-0.0705879
-0.0742077
0.10452
-0.106484
-0.0567257
-0.0642799
0.107798
-0.107393
-0.035664
-0.0468021
0.107309
-0.107861
-0.00683008
-0.0216642
0.00868038
-0.00885591
-0.0991851
-0.10712
0.00793978
-0.00775454
-0.0720102
0.007196
-0.0867976
-0.0684126
0.0851366
0.0890884
0.0651293
0.00649063
-0.0668977
-0.00664575
-0.0927014
0.0316929
-0.0472986
0.0545873
-0.0237965
0.0224427
-0.105766
-0.0252031
-0.0977785
-0.0333033
0.0515693
-0.0111183
-0.0176505
-0.030709
-0.0808667
-0.0488605
0.0505067
0.00307199
-0.00540045
0.00810926
-0.0498008
0.0501417
0.0236935
0.0127793
-0.0510379
0.0527978
0.0447187
0.034814
-0.0554612
0.0582005
0.0590874
0.0524405
-0.0613756
0.0647171
0.0671614
0.0635452
-0.0679823
0.07108
0.0703301
0.0689059
-0.073902
0.0764512
0.0709473
0.0704623
-0.0786931
0.080672
0.0712383
0.0707062
-0.0824337
0.0840351
0.0719181
0.071189
-0.0855017
0.0868985
0.07212
0.0717694
-0.0882418
0.0895632
0.0702518
0.0711452
-0.0908909
0.0922451
0.064363
0.0675398
-0.093592
0.0949106
0.0526335
0.0589546
-0.0961496
0.0972602
0.0344902
0.0440118
-0.0981803
0.0989156
0.0117321
0.0233466
-0.0994369
0.0997394
-0.0122264
-0.000354308
-0.099803
0.099617
-0.0335304
-0.0232645
-0.0991848
0.0985199
-0.0495765
-0.0419911
-0.0976717
0.0966792
-0.059863
-0.0550041
-0.0952923
0.0948071
-0.065036
-0.0625543
-0.0929029
0.090847
-0.0661891
-0.0659074
-0.089486
0.0862732
-0.0651998
-0.0666354
-0.0677468
0.0685385
0.0855869
0.0689261
-0.068208
0.0855551
0.0863158
-0.0681935
0.069059
0.0864369
0.0865073
-0.0690664
0.0676965
0.0879524
0.0874923
-0.0674897
0.0655679
0.0910101
0.0898307
0.0862055
-0.0829712
0.0622879
-0.0909411
0.0886543
0.0678546
0.0603938
0.0796356
-0.0765794
0.0590398
0.0599585
0.072423
-0.0696889
0.0526392
0.0548643
0.0670099
-0.0644293
0.0440464
0.0483971
0.062063
-0.059941
0.0310719
0.0377499
0.0582142
-0.0569208
0.0141798
0.0228169
0.0561707
-0.0560039
-0.00485908
0.00471512
0.0564323
-0.0575141
-0.0235064
-0.0143177
0.0591418
-0.0612597
-0.0391052
-0.0315721
0.0637427
-0.0664604
-0.0503752
-0.044921
0.0692579
-0.072084
-0.0578296
-0.0540862
0.0748545
-0.0775866
-0.062438
-0.0599979
0.0802346
-0.0828405
-0.0651814
-0.063508
0.0853442
-0.0877777
-0.0677546
-0.0659387
0.0901457
-0.0925306
-0.0711358
-0.0689324
0.0949482
-0.0974624
-0.0741394
-0.072387
0.100065
-0.102795
-0.0740334
-0.0742571
0.105603
-0.108455
-0.0677357
-0.0713998
0.111205
-0.113726
-0.0542046
-0.0615303
0.115867
-0.117603
-0.033928
-0.044661
0.117719
-0.11618
-0.00836836
-0.0215484
0.116034
-0.11477
0.0211788
0.00779324
0.036553
-0.0376584
-0.104661
-0.112886
0.034669
0.00731522
-0.0728348
-0.00681616
-0.0866272
0.0241558
-0.0593606
-0.021735
-0.0961695
0.0906105
-0.0917685
-0.0640418
0.0870193
-0.0646167
0.0671423
-0.0674221
0.0912899
0.063149
0.0926476
0.0373928
-0.0478282
-0.0358716
-0.0995653
0.0114793
-0.0594462
-0.0359532
0.0424999
-0.017665
0.0507242
-0.0501151
-0.10527
0.0474545
-0.109616
-0.0310958
-0.0355664
-0.0803677
-0.0442134
0.0447668
0.00251856
-0.00711395
-0.0453483
0.0458787
0.0231631
0.0121978
-0.0475444
0.0499997
0.0422634
0.0331484
-0.0529111
0.0562415
0.0557569
0.0495292
-0.0597633
0.063397
0.0635277
0.0600235
-0.0669463
0.0703301
0.0669464
0.0653566
-0.0734381
0.076278
0.0681074
0.0673542
-0.0788339
0.0811579
0.0689144
0.0681503
-0.0832988
0.0853194
0.0698975
0.0690481
-0.0872416
0.0891213
0.0702404
0.0698471
-0.0909607
0.0928124
0.0684001
0.0693058
-0.0946546
0.0965117
0.0625059
0.0656976
-0.0983362
0.10007
0.0509001
0.0571301
-0.101654
0.10304
0.0331034
0.0424279
-0.104122
0.10492
0.0109347
0.0222646
-0.105401
0.105551
-0.0123764
-0.000835829
-0.105369
0.104862
-0.0330228
-0.0230826
-0.104055
0.102971
-0.048493
-0.0411842
-0.101678
0.100218
-0.0584028
-0.0537108
-0.098685
0.0971209
-0.063472
-0.0610214
-0.0951934
0.0934055
-0.0644013
-0.0639799
-0.0649984
-0.0674521
0.0667209
0.0863181
0.0664788
-0.0666515
0.0857279
0.0853425
-0.0671072
0.0669475
0.0865967
0.086121
-0.0678707
0.0685718
0.0872513
0.086569
0.0909804
0.0852255
-0.0818835
0.0589458
-0.0859819
0.0918388
0.0619978
0.0596374
0.0787273
-0.0744132
0.0547257
0.0568024
0.0715882
-0.0687333
0.0497843
0.0520393
0.0659246
-0.0632343
0.0413561
0.0455884
0.0607765
-0.0586109
0.0289063
0.0352922
0.0568756
-0.0556187
0.0129229
0.0210815
0.0549418
-0.0548911
-0.00490974
0.00403819
0.0554754
-0.0566917
-0.0222901
-0.0137334
0.0585009
-0.0607891
-0.036817
-0.0297628
0.0634202
-0.0662806
-0.0475147
-0.04229
0.0692079
-0.0721822
-0.0548552
-0.0511589
0.0751139
-0.0780411
-0.0595107
-0.0570663
0.0809152
-0.0837632
-0.0623333
-0.060634
0.0865325
-0.0892748
-0.0650123
-0.0631694
0.0919934
-0.0947778
-0.0683513
-0.0662139
0.0976356
-0.100626
-0.0711488
-0.0695292
0.103724
-0.106966
-0.0707914
-0.0711591
0.110282
-0.113641
-0.064377
-0.0680839
0.116896
-0.119936
-0.0511652
-0.0582747
0.122557
-0.124648
-0.0318377
-0.0420394
0.126204
-0.127275
-0.00729762
-0.0199924
0.125314
-0.122855
0.018719
0.00583319
0.11901
-0.11541
0.043855
0.0308242
0.0599643
-0.0594673
-0.110113
-0.111086
0.0556397
0.0218997
-0.0705787
-0.0211888
-0.0871734
-0.064475
0.0848428
0.0930883
0.0618995
0.0372677
-0.0592355
0.0348675
-0.0610079
0.0429996
-0.0559602
-0.0357615
-0.0962795
-0.0480951
-0.101585
-0.0452811
-0.045261
0.0528408
-0.048913
-0.0492088
0.0445598
-0.0527269
-0.0603389
-0.104399
0.0655629
-0.069974
-0.105702
0.0646973
-0.11022
-0.0796568
-0.0398219
0.040827
-0.0186702
0.0441406
-0.0499452
-0.0394564
-0.0312477
-0.0413121
0.0415478
0.00228291
-0.00759902
-0.0421627
0.0436452
0.0216806
0.0115829
-0.0457959
0.0485433
0.039516
0.0309977
-0.0517194
0.0552471
0.0522292
0.046353
-0.0589537
0.0627477
0.0597336
0.056317
-0.0664636
0.0700364
0.0633736
0.0616407
-0.0733616
0.0764417
0.0650273
0.0640289
-0.0792683
0.0819008
0.0662818
0.0653237
-0.084377
0.0867703
0.0675043
0.0665719
-0.0890955
0.0914049
0.0679309
0.0675219
-0.0937004
0.0960237
0.0660768
0.0670104
-0.0983384
0.100644
0.0602005
0.0633829
-0.102877
0.104999
0.048778
0.0548971
-0.106867
0.108467
0.0315032
0.0405601
-0.109738
0.110554
0.0101192
0.0209933
-0.11099
0.110993
-0.0123792
-0.00127197
-0.11058
0.109764
-0.0322068
-0.0226699
-0.108589
0.107093
-0.0469968
-0.0400096
-0.105373
0.103485
-0.0565148
-0.0519904
-0.10153
0.0995307
-0.0614728
-0.0590664
-0.0975667
0.0959333
-0.0627679
-0.0620159
-0.093299
0.0909805
-0.0617233
-0.0623641
-0.0877468
0.0851706
-0.0618988
-0.061383
-0.0644395
0.0656768
0.0844906
0.0653198
-0.0619129
0.0817637
0.0857231
-0.0660652
0.0667334
0.08565
0.0849541
-0.0671002
0.067086
0.0866108
0.0857542
-0.0666867
0.0658849
0.0880531
0.0869684
-0.0665531
0.0658528
0.0919902
0.0903122
-0.0641364
0.0619032
0.0953215
0.0943641
0.0911503
-0.0873457
0.0581932
-0.0938218
0.0949012
0.0608239
0.0592279
0.0840374
-0.0809522
0.0558606
0.0563291
0.0769693
-0.0740888
0.0518451
0.0528195
0.0711821
-0.0682405
0.0468427
0.0491326
0.0653734
-0.0626397
0.0386225
0.0427213
0.0601562
-0.058002
0.0267521
0.0328086
0.0562987
-0.0551106
0.0117348
0.0193782
0.0545305
-0.0545623
-0.00487792
0.00345809
0.0552821
-0.0566312
-0.020941
-0.0130136
0.058548
-0.0609365
-0.0344284
-0.0278461
0.0636296
-0.0665469
-0.0445975
-0.0395969
0.0695284
-0.0725712
-0.0518124
-0.0481774
0.0756052
-0.0786738
-0.0564422
-0.0540323
0.0817209
-0.0847659
-0.0592884
-0.0575868
0.0877546
-0.0907502
-0.0620166
-0.0601808
0.0937657
-0.0968939
-0.0652231
-0.0631984
0.10013
-0.103533
-0.0677463
-0.0662927
0.107062
-0.110746
-0.0671072
-0.0676298
0.114498
-0.118272
-0.0606029
-0.0643323
0.121904
-0.125285
-0.0477841
-0.0546427
0.128223
-0.130604
-0.0294564
-0.0391019
0.132303
-0.13325
-0.00635025
-0.0182935
0.133503
-0.133037
0.0182526
0.00608592
0.131746
-0.127747
0.0398553
0.029534
0.122851
-0.115561
0.0574074
0.050744
0.0674387
-0.0712274
-0.106432
-0.111703
0.0635809
0.0358847
-0.0691957
-0.0518207
-0.0470376
0.0463859
-0.0626219
0.0865616
-0.0900466
-0.0584138
0.0837684
-0.0591196
0.0647105
-0.0648658
0.0954767
0.0621149
0.0974968
-0.035306
-0.0876289
-0.0481227
-0.096252
0.0501953
-0.0615957
-0.0583871
-0.103537
-0.0654525
-0.10892
-0.0691987
-0.107731
0.0712822
-0.0722159
-0.105498
0.06558
-0.106001
-0.0790781
-0.051459
0.047049
-0.0350463
-0.0517152
0.0606416
-0.060747
0.0564166
-0.0619471
-0.0461847
-0.04208
-0.0421358
0.0412453
-0.0177796
-0.0263346
-0.0410956
0.0411189
0.00225961
-0.00744939
-0.0415636
0.0429802
0.0202639
0.0111382
-0.0452318
0.0481308
0.036617
0.0287461
-0.051453
0.0550888
0.0485935
0.0430309
-0.0588698
0.0627177
0.0558857
0.0525359
-0.0664968
0.0701599
0.0597105
0.0578616
-0.0736203
0.0768823
0.0617653
0.0605685
-0.0799357
0.0828395
0.063378
0.0622704
-0.0856158
0.0883383
0.0647818
0.0637956
-0.0910153
0.0937056
0.0652407
0.0648449
-0.0963964
0.0991228
0.0633503
0.0643195
-0.101845
0.104528
0.0575177
0.0606605
-0.107109
0.109537
0.0463504
0.052316
-0.111659
0.113441
0.0297216
0.0384376
-0.114793
0.115689
0.00922366
0.0196412
-0.116049
0.115904
-0.0122343
-0.00163239
-0.115263
0.114151
-0.0310938
-0.0220293
-0.112637
0.110777
-0.0451367
-0.0384957
-0.10869
0.106435
-0.0542605
-0.0499034
-0.104126
0.101781
-0.0591274
-0.0567576
-0.0994687
0.0971922
-0.0604914
-0.0597036
-0.0945996
0.0925484
-0.0596721
-0.0597715
-0.0588812
-0.0642196
0.0648236
0.0838866
0.0609055
-0.061004
0.0818623
0.082409
-0.0659798
0.0668643
0.0847655
0.0837979
-0.0673541
0.0674318
0.0865331
0.0852643
-0.0671
0.0663597
0.0887935
0.0873002
-0.0669042
0.0659658
0.0929287
0.0897677
0.095464
0.0907584
-0.088012
0.0554468
-0.0933683
0.0964508
0.0577414
0.056618
0.083913
-0.0798816
0.0518292
0.0522301
0.0770467
-0.0741088
0.0489073
0.0499847
0.0711602
-0.0681903
0.0438728
0.046184
0.0653238
-0.0626025
0.0359012
0.0398548
0.0601547
-0.0580559
0.0246534
0.0303607
0.0564213
-0.0553216
0.0106351
0.0177436
0.0548314
-0.0549771
-0.00473214
0.00296787
0.0557868
-0.0572214
-0.0195065
-0.012204
0.0591793
-0.0615977
-0.0320101
-0.0258882
0.0642898
-0.0671907
-0.0416966
-0.0369048
0.0701691
-0.0732333
-0.0487482
-0.045199
0.0763256
-0.0794845
-0.0532832
-0.05094
0.0826419
-0.0858148
-0.0561154
-0.0544295
0.0889556
-0.0921364
-0.0588358
-0.05704
0.0953698
-0.0987488
-0.0618441
-0.059965
0.102256
-0.105942
-0.0640608
-0.0627851
0.109752
-0.11371
-0.0631496
-0.0638197
0.117728
-0.121779
-0.0565519
-0.0603145
0.1257
-0.129372
-0.0441128
-0.0507209
0.132574
-0.135172
-0.0268582
-0.0359
0.137
-0.137987
-0.00536374
-0.0164649
0.138178
-0.137491
0.0175659
0.00627683
0.135933
-0.133558
0.0374803
0.0279763
0.127963
-0.122161
0.0516058
0.0451483
0.116576
-0.112162
0.0611655
0.0579962
-0.0622542
0.0522738
-0.0427466
-0.0508214
0.0692262
-0.0711563
-0.104071
-0.105038
0.0621022
0.0469282
-0.0697379
-0.0584426
0.0812069
0.10032
0.0582456
0.0544446
-0.0659148
-0.050477
-0.0477173
-0.0880343
0.062432
-0.0687344
0.0545025
-0.0669292
-0.0585391
-0.0961
0.0586558
-0.0679777
-0.0664173
-0.102572
-0.0709533
-0.107165
-0.072255
-0.107692
-0.0727357
-0.103918
0.0677348
-0.0708138
-0.100992
0.0640456
-0.101349
-0.0798672
-0.062925
0.0573028
-0.0405625
-0.0552289
-0.0694986
0.0588127
0.0676141
-0.0694888
-0.0533542
-0.0457879
-0.0523679
0.0484349
-0.0311134
-0.0371451
-0.0451689
0.0426668
-0.0152775
-0.0230686
-0.0418766
0.0419406
0.00219571
-0.00665923
-0.042372
0.0436718
0.0189642
0.0107068
-0.0458061
0.0486403
0.0337828
0.0266117
-0.0519487
0.0555865
0.0449557
0.0397225
-0.0593697
0.0632135
0.0520419
0.0487527
-0.066995
0.0706807
0.0560248
0.0540801
-0.0742021
0.0775754
0.058392
0.0570471
-0.0807887
0.0839023
0.0602643
0.0590572
-0.0869237
0.0899239
0.0617816
0.0607743
-0.0929025
0.0959196
0.0622236
0.0618663
-0.0989452
0.10201
0.0602854
0.0612939
-0.105054
0.108057
0.0545149
0.0576161
-0.110907
0.11356
0.0436983
0.0494658
-0.115905
0.117813
0.0278136
0.0360924
-0.119243
0.120142
0.00832404
0.018211
-0.120435
0.120144
-0.0119432
-0.00192485
-0.119296
0.117924
-0.029722
-0.0211814
-0.116119
0.113948
-0.0429652
-0.0366905
-0.111548
0.108986
-0.0516982
-0.0475038
-0.10638
0.103747
-0.0564945
-0.0541523
-0.101163
0.0985954
-0.0579242
-0.0571187
-0.0961071
0.0936576
-0.0572226
-0.0572832
-0.0912051
0.0883267
-0.0555354
-0.0564287
-0.0843002
0.0813834
-0.0555258
-0.0550931
-0.0596734
0.0612916
0.0802441
0.0588851
-0.0552524
0.0777508
0.0804185
-0.0627866
0.0647887
0.0818846
0.080914
-0.0661685
0.0671664
0.0837675
0.0824181
-0.0677463
0.0678972
0.0863822
0.0846845
-0.0676118
0.0669108
0.0894944
0.0875856
-0.0658011
0.0658491
0.0928806
0.0908774
-0.0646087
0.0626422
0.0974432
0.0967045
-0.0598821
0.0581742
0.102028
0.100257
0.0972502
-0.0936495
0.0541407
-0.100468
0.103321
0.0553212
0.0550281
0.0903724
-0.0857969
0.0508712
0.0533409
0.0830626
-0.080229
0.0489956
0.0494958
0.0773813
-0.0744228
0.0459488
0.0471369
0.0714849
-0.0685395
0.0409273
0.0432461
0.0657242
-0.0630648
0.0332418
0.0370395
0.0607005
-0.0586924
0.0226453
0.0279964
0.0571573
-0.0561595
0.00963726
0.0162085
0.0557654
-0.0560076
-0.00448999
0.00257383
0.0568683
-0.0583424
-0.0180323
-0.0113432
0.0603008
-0.062675
-0.0296359
-0.0239298
0.0653027
-0.0681289
-0.0388703
-0.0342771
0.0710497
-0.0740893
-0.0457086
-0.0422782
0.0771956
-0.0803989
-0.0500799
-0.0478338
0.0836204
-0.0868746
-0.0528611
-0.051208
0.0901182
-0.0934349
-0.0555192
-0.0537964
0.0968353
-0.100408
-0.0582716
-0.0565646
0.104127
-0.108036
-0.0601515
-0.0590662
0.112064
-0.116214
-0.0589993
-0.0597918
0.120381
-0.124545
-0.0523886
-0.0561472
0.128565
-0.132343
-0.040335
-0.0467006
0.135655
-0.138348
-0.0241647
-0.032588
0.14025
-0.141302
-0.00431262
-0.0145629
0.141354
-0.140514
0.0167265
0.00632885
0.1388
-0.136236
0.0349162
0.0262625
0.133075
-0.129361
0.0478916
0.0419869
0.123174
-0.116676
0.0546679
0.0518093
0.110537
-0.103243
0.0567513
0.0559631
-0.078615
0.0638918
-0.0280234
-0.0670044
0.0651358
-0.0676197
-0.0988648
-0.0998001
0.0616931
0.0570667
-0.072302
-0.0580996
-0.0884738
0.0573266
-0.0732561
-0.0535592
-0.074161
0.061989
0.0591469
-0.0690685
0.0614491
-0.0697225
-0.0666706
-0.0958467
0.0830734
-0.0862246
-0.0523746
0.0792998
-0.0514789
0.0582891
-0.0602148
0.103954
0.0563424
0.105267
0.064815
-0.0689009
-0.0720399
-0.101486
-0.0742065
-0.105214
-0.0735348
-0.106893
-0.0708006
-0.103932
-0.0696392
-0.0989726
-0.0544284
-0.0763906
0.0575628
-0.0788579
0.0759238
-0.0514944
0.055095
-0.0833291
-0.0506237
0.0630399
-0.0932416
-0.068663
0.058276
-0.0950362
-0.0808734
0.0595778
-0.0809002
-0.069459
0.0630417
-0.0469369
-0.0470944
-0.0605438
0.0578659
-0.0378846
-0.04329
-0.0533976
0.0493614
-0.0270773
-0.0326768
-0.0468018
0.0448784
-0.0133541
-0.020509
-0.0438319
0.0436273
0.00240025
-0.00561266
-0.0441328
0.0453666
0.0177305
0.0102013
-0.0473361
0.0499809
0.031138
0.0246422
-0.0531272
0.0566375
0.0414454
0.0365761
-0.0603283
0.0641055
0.0482648
0.0450619
-0.0678444
0.0715142
0.0523551
0.0503411
-0.0750524
0.0784847
0.0549597
0.0535089
-0.0817985
0.0850561
0.0570067
0.0557434
-0.0882585
0.0914737
0.0585664
0.0575719
-0.0946926
0.0979691
0.058947
0.0586473
-0.101261
0.104592
0.0569543
0.0580023
-0.107884
0.11113
0.0512691
0.0543235
-0.114183
0.117012
0.0408694
0.0464131
-0.11948
0.121511
0.0257823
0.0336246
-0.122963
0.123831
0.00745523
0.0167593
-0.124048
0.123622
-0.0115172
-0.00214187
-0.122592
0.120998
-0.0281279
-0.0201513
-0.118949
0.116526
-0.0405427
-0.0346411
-0.113887
0.111096
-0.0489074
-0.0448642
-0.108275
0.10543
-0.0536496
-0.0513312
-0.102637
0.0998649
-0.0551523
-0.0543258
-0.0971645
0.0945007
-0.0545588
-0.0545828
-0.0915308
0.0890619
-0.0530666
-0.0534588
-0.0522558
-0.0594799
0.0609495
0.0787745
0.0564656
-0.0554683
0.0767536
0.0774042
-0.0630796
0.0649172
0.080047