/*--------------------------------*- C++ -*----------------------------------*\
  =========                 |
  \\      /  F ield         | OpenFOAM: The Open Source CFD Toolbox
   \\    /   O peration     | Website:  https://openfoam.org
    \\  /    A nd           | Version:  10
     \\/     M anipulation  |
\*---------------------------------------------------------------------------*/
FoamFile
{
    format      ascii;
    class       volScalarField;
    location    "24";
    object      p;
}
// * * * * * * * * * * * * * * * * * * * * * * * * * * * * * * * * * * * * * //

dimensions      [0 2 -2 0 0 0 0];

internalField   nonuniform List<scalar> 
33313
(
-0.00230339
-0.00354717
-0.00412266
-0.00670058
0.00435138
0.00399961
0.00240617
0.0120798
0.0114725
-0.00223344
0.00162744
-0.457485
-0.477142
-0.453564
0.0450964
0.0346118
0.048078
-0.302598
-0.421083
-0.339682
-0.242601
0.808357
0.72625
0.873155
0.879414
0.261361
0.266663
0.269029
0.272454
0.263396
0.274852
0.284528
0.306885
-0.585052
-0.601552
-0.5885
-0.566035
0.0713773
0.0678544
-0.21981
-0.202015
0.30941
0.295917
-0.561505
-0.429237
-0.450394
0.756633
0.841967
0.00748975
0.0120158
0.271379
0.299995
0.28829
0.335181
0.117905
0.139948
0.415115
0.542789
0.500968
0.40668
0.420681
0.875195
0.940418
0.968621
0.010147
-0.00665644
-0.142901
-0.122986
-0.119195
-0.269885
-0.229406
-0.163236
-0.533407
-0.252536
-0.411435
-0.389769
-0.398813
-0.362513
-0.122427
-0.176898
0.584188
0.573316
0.595767
-0.314488
-0.34688
-0.392029
-0.502505
-0.481687
-0.477964
0.957386
-0.456475
-0.470118
-0.471451
-0.455912
-0.44555
0.259562
0.248767
0.0134632
0.0114399
-0.208285
-0.197968
-0.268113
-0.275226
-0.285089
-0.321385
-0.608683
-0.656542
-0.642611
-0.602782
-0.0740268
0.127833
0.0773915
-0.0703865
-0.815207
-0.944505
-0.751599
0.945306
0.897712
-0.268514
-0.246862
-0.519463
-0.5216
-0.511878
0.0101209
0.0111211
-0.00545208
0.335273
0.0156207
0.0198821
-0.475401
-0.524591
-0.433914
-0.448272
0.0984869
0.0882839
-0.0482219
0.0222176
-0.0908523
0.00529095
0.230058
0.116377
0.352882
0.0205502
0.0188043
0.011292
0.10369
0.100595
0.0991144
0.0965079
0.335556
0.315956
0.346345
0.330711
0.464253
0.468808
0.439433
0.443581
-0.356868
-0.359526
-0.325298
-0.459709
0.0770126
0.117588
0.260938
0.131459
-0.495368
-0.480541
-0.472974
-0.490966
0.000126838
0.0011871
0.117648
0.116267
0.109852
0.108359
0.261813
0.245198
-0.428236
-0.464782
0.0139426
0.0105076
0.0781762
0.0748596
0.186456
0.187732
-0.0500209
-0.0160804
-0.509802
-0.558167
-0.513066
-0.43186
0.571222
0.546404
-0.608518
-0.649846
0.449166
0.466486
0.46606
0.380262
0.400999
0.390043
0.593592
0.570127
0.216598
0.222311
-0.411186
-0.404372
-0.191695
-0.31986
0.235774
0.230915
0.00287938
0.00585197
0.00291096
0.000811842
0.0342195
-0.535189
-0.510418
0.380594
0.384232
0.364648
0.359326
-0.220038
-0.209944
-0.191483
0.210571
0.231821
0.203478
-0.443703
-0.440837
-0.443401
-0.103724
-0.0680523
0.119757
0.112104
0.110305
-0.60212
0.269649
-0.130108
-0.117358
-0.105152
-0.0956765
-0.0867659
-0.0799046
-0.0744008
-0.0701482
-0.0672032
-0.0654974
-0.0649904
-0.0655954
-0.0672965
-0.0700692
-0.0739506
-0.078985
-0.0852613
-0.0928586
-0.101828
-0.112152
-0.123669
-0.136113
-0.149021
-0.161837
-0.17391
-0.184467
-0.193047
-0.199221
-0.202302
-0.202536
-0.1998
-0.194465
-0.141176
-0.152482
-0.157887
-0.14372
-0.179121
-0.187238
-0.193295
-0.179006
-0.187946
-0.195412
-0.195824
-0.186005
-0.19198
-0.1675
-0.177582
-0.143985
-0.156072
-0.120028
-0.131784
-0.0993759
-0.109131
-0.0837655
-0.0909121
-0.0732481
-0.0779033
-0.067336
-0.069742
-0.0658212
-0.0660256
-0.068947
-0.0667746
-0.0772741
-0.0724241
-0.091737
-0.0836158
-0.112335
-0.101034
-0.125584
-0.167181
-0.175169
-0.168265
-0.157221
-0.163563
-0.165506
-0.181574
-0.190799
-0.159413
-0.179022
-0.170827
-0.166385
-0.206178
-0.183402
-0.195283
-0.13234
-0.158261
-0.145463
-0.108811
-0.119697
-0.0886864
-0.0985867
-0.0740253
-0.0804294
-0.0655631
-0.0691506
-0.0620682
-0.0632193
-0.0631341
-0.0620611
-0.0684592
-0.0652698
-0.0781762
-0.0727446
-0.0928289
-0.0848473
-0.112851
-0.102177
-0.137439
-0.124707
-0.163668
-0.150625
-0.18694
-0.17602
-0.20231
-0.19627
-0.206223
-0.205756
-0.198104
-0.203653
-0.190235
-0.151958
-0.153676
-0.153642
-0.17169
-0.154023
-0.163528
-0.184193
-0.178988
-0.186904
-0.186959
-0.178466
-0.184139
-0.160959
-0.170576
-0.13856
-0.150091
-0.115713
-0.126926
-0.0960704
-0.105337
-0.0813451
-0.0880661
-0.0715901
-0.0758791
-0.0663474
-0.068428
-0.0654641
-0.0653542
-0.0692426
-0.0667391
-0.0783399
-0.0730762
-0.0938221
-0.0851988
-0.116757
-0.104251
-0.145961
-0.13077
-0.181198
-0.163147
-0.215357
-0.199132
-0.148405
-0.169622
-0.218886
-0.229305
-0.141473
-0.152808
-0.139632
-0.193669
-0.14617
-0.143155
-0.136193
-0.178749
-0.206928
-0.144127
-0.162473
-0.154419
-0.120205
-0.132225
-0.0992323
-0.109086
-0.0811206
-0.0899803
-0.0680007
-0.0736828
-0.0608072
-0.0637867
-0.0583166
-0.0589989
-0.0601652
-0.0587222
-0.0661251
-0.062633
-0.0763671
-0.0706845
-0.0914408
-0.0832621
-0.111756
-0.100954
-0.13651
-0.123709
-0.162893
-0.149762
-0.186477
-0.175375
-0.202154
-0.195752
-0.206457
-0.205948
-0.198163
-0.203789
-0.178706
-0.189676
-0.166125
-0.1403
-0.14179
-0.132451
-0.137088
-0.162752
-0.155225
-0.173854
-0.169188
-0.176393
-0.176443
-0.168802
-0.173862
-0.152528
-0.16153
-0.131456
-0.142314
-0.10995
-0.120502
-0.0915135
-0.100201
-0.0777898
-0.0840362
-0.0688446
-0.0727494
-0.0642773
-0.0660328
-0.0639972
-0.0635913
-0.068356
-0.0655625
-0.0780788
-0.0724898
-0.0942736
-0.0852892
-0.118205
-0.105224
-0.149303
-0.133004
-0.186033
-0.167133
-0.222628
-0.204967
-0.240112
-0.249538
-0.237754
-0.185387
-0.168086
-0.201663
-0.229066
-0.126416
-0.257164
-0.247316
-0.129495
-0.127068
-0.149872
-0.189145
-0.170454
-0.136268
-0.216032
-0.144239
-0.15108
-0.148904
-0.127989
-0.137182
-0.107157
-0.117763
-0.0882713
-0.0973317
-0.0721636
-0.0798702
-0.0610035
-0.0658344
-0.0551177
-0.0574882
-0.0536057
-0.0538367
-0.0561677
-0.0543957
-0.0626417
-0.0589144
-0.0732323
-0.0673946
-0.0885002
-0.0802436
-0.108864
-0.0980537
-0.133588
-0.120804
-0.159994
-0.146834
-0.183676
-0.172508
-0.199611
-0.19296
-0.203932
-0.203408
-0.195575
-0.201274
-0.176089
-0.187106
-0.163531
-0.129217
-0.130234
-0.122684
-0.126627
-0.136699
-0.119252
-0.127893
-0.152192
-0.144944
-0.162289
-0.158091
-0.164659
-0.164643
-0.157633
-0.162282
-0.142629
-0.15095
-0.123034
-0.133143
-0.102994
-0.112825
-0.085864
-0.0939239
-0.0732176
-0.0789553
-0.0651232
-0.0686283
-0.0612303
-0.0626667
-0.0615066
-0.060834
-0.0663506
-0.0633205
-0.0765405
-0.0707166
-0.0932318
-0.0839925
-0.117657
-0.104437
-0.149925
-0.132863
-0.188189
-0.168607
-0.226533
-0.207954
-0.255194
-0.242625
-0.260229
-0.266642
-0.263328
-0.117436
-0.169629
-0.150182
-0.206312
-0.235203
-0.123219
-0.264909
-0.269999
-0.267973
-0.189397
-0.25011
-0.258276
-0.16624
-0.111006
-0.111142
-0.103904
-0.146653
-0.221423
-0.131028
-0.126443
-0.13018
-0.125122
-0.129216
-0.110874
-0.118904
-0.0930507
-0.102112
-0.0762155
-0.0843209
-0.0624017
-0.0688559
-0.0531431
-0.0571465
-0.0485199
-0.0503026
-0.0479552
-0.0477504
-0.0511839
-0.0491098
-0.0580964
-0.0541759
-0.0689277
-0.0629932
-0.0842499
-0.0759892
-0.104494
-0.0937633
-0.128978
-0.116323
-0.1551
-0.14208
-0.178524
-0.167467
-0.194395
-0.187702
-0.198878
-0.198208
-0.190662
-0.19633
-0.17141
-0.182199
-0.145407
-0.158969
-0.118108
-0.131537
-0.118118
-0.111074
-0.115315
-0.119128
-0.119408
-0.113982
-0.117246
-0.103843
-0.109446
-0.12626
-0.118586
-0.140241
-0.133629
-0.149533
-0.145675
-0.151621
-0.151576
-0.145247
-0.149479
-0.1315
-0.139134
-0.113458
-0.122774
-0.0949867
-0.104046
-0.079253
-0.0866442
-0.0677381
-0.0729449
-0.0605097
-0.063612
-0.0572712
-0.0584029
-0.0580447
-0.0571405
-0.0632652
-0.0600599
-0.0737449
-0.0677847
-0.0906726
-0.0813204
-0.115301
-0.101974
-0.148056
-0.130692
-0.187345
-0.167141
-0.227123
-0.207767
-0.257674
-0.244231
-0.266521
-0.257956
-0.260766
-0.105581
-0.14015
-0.120213
-0.207013
-0.237614
-0.0974473
-0.185719
-0.24827
-0.159377
-0.251487
-0.248691
-0.246301
-0.130991
-0.111762
-0.0991024
-0.112055
-0.222935
-0.105999
-0.0926399
-0.100548
-0.110343
-0.109408
-0.105242
-0.108894
-0.0932475
-0.0999493
-0.0780298
-0.0857762
-0.0635293
-0.070499
-0.052021
-0.0573282
-0.0445184
-0.0477384
-0.0411267
-0.0423352
-0.0414815
-0.0408549
-0.0453424
-0.0429851
-0.0526406
-0.048556
-0.0636322
-0.0576454
-0.0788855
-0.0706889
-0.0988189
-0.0882733
-0.122777
-0.110406
-0.148274
-0.135565
-0.171176
-0.160348
-0.186818
-0.180178
-0.191455
-0.190663
-0.183569
-0.189062
-0.164583
-0.175276
-0.138994
-0.152297
-0.125333
-0.100155
-0.0875629
-0.0943872
-0.107938
-0.104754
-0.110119
-0.109795
-0.106343
-0.108892
-0.0977566
-0.10256
-0.0920591
-0.101891
-0.0902619
-0.0957807
-0.115136
-0.10846
-0.127414
-0.121558
-0.135798
-0.132288
-0.137678
-0.137654
-0.131928
-0.135747
-0.119443
-0.126385
-0.102988
-0.111489
-0.0861357
-0.0943964
-0.0718435
-0.0785453
-0.0614843
-0.0661512
-0.0551203
-0.0578241
-0.0525054
-0.0533518
-0.05371
-0.0526122
-0.0591947
-0.0558771
-0.0697866
-0.0637884
-0.086684
-0.0773647
-0.111187
-0.0979221
-0.143929
-0.126549
-0.183417
-0.163069
-0.223981
-0.20412
-0.255488
-0.241505
-0.268712
-0.264804
-0.259328
-0.266809
-0.23266
-0.230919
-0.246999
-0.101091
-0.0829185
-0.203617
-0.235467
-0.211734
-0.213782
-0.178358
-0.241621
-0.149653
-0.240134
-0.0776794
-0.0800615
-0.0700109
-0.119301
-0.230692
-0.0892029
-0.0855694
-0.0725115
-0.220198
-0.0732917
-0.0558159
-0.064656
-0.0853869
-0.0803394
-0.0893399
-0.0884009
-0.0853765
-0.0882637
-0.0754208
-0.0809897
-0.0626718
-0.0691608
-0.0505646
-0.0563688
-0.0411677
-0.0454633
-0.0352901
-0.037764
-0.0330933
-0.0337468
-0.0343238
-0.0332976
-0.0387693
-0.0361538
-0.0463916
-0.0421765
-0.0574522
-0.0514635
-0.0724959
-0.0644412
-0.091913
-0.0816638
-0.115089
-0.103134
-0.139709
-0.127434
-0.161882
-0.151381
-0.177151
-0.170639
-0.18186
-0.180978
-0.174383
-0.179639
-0.155936
-0.166335
-0.130815
-0.143887
-0.104226
-0.117467
-0.0915552
-0.0905222
-0.0845672
-0.0990662
-0.0954016
-0.102248
-0.101359
-0.0999117
-0.101735
-0.0928321
-0.0969042
-0.0823245
-0.0784402
-0.0819615
-0.087777
-0.0920011
-0.0869105
-0.103326
-0.0975954
-0.114039
-0.108917
-0.121446
-0.118326
-0.123124
-0.123106
-0.117978
-0.121401
-0.10673
-0.112991
-0.0918566
-0.0995437
-0.0766367
-0.0840912
-0.0637993
-0.0698061
-0.0545952
-0.0587248
-0.049075
-0.0513931
-0.047041
-0.0476265
-0.0486048
-0.0473535
-0.0542413
-0.0508735
-0.0647737
-0.0588322
-0.0813874
-0.0722386
-0.105417
-0.0924041
-0.137659
-0.120521
-0.176818
-0.1566
-0.217484
-0.197491
-0.249912
-0.235423
-0.263903
-0.259641
-0.255272
-0.262429
-0.226171
-0.242846
-0.190932
-0.185597
-0.206667
-0.062329
-0.0472402
-0.193056
-0.169676
-0.164246
-0.196391
-0.228755
-0.168064
-0.230529
-0.0691524
-0.0613999
-0.137268
-0.224764
-0.106286
-0.212142
-0.0778911
-0.0755205
-0.0393987
-0.0533037
-0.171631
-0.148662
-0.1434
-0.032893
-0.0263299
-0.0716926
-0.0617275
-0.0207712
-0.213272
-0.0397894
-0.0327536
-0.0542414
-0.0471031
-0.0649707
-0.0603982
-0.0687657
-0.0677755
-0.0659276
-0.0681551
-0.0578347
-0.0623758
-0.0473992
-0.0527106
-0.037523
-0.0422479
-0.0300186
-0.0334123
-0.0256461
-0.0274187
-0.0245745
-0.024708
-0.0266117
-0.0252196
-0.0315763
-0.0287355
-0.0394474
-0.0351413
-0.0504784
-0.0445409
-0.0651783
-0.0573373
-0.0839081
-0.0740448
-0.106108
-0.0946684
-0.129644
-0.117908
-0.150888
-0.140814
-0.165635
-0.159321
-0.170351
-0.1694
-0.16333
-0.168313
-0.145572
-0.155606
-0.121119
-0.133857
-0.0952623
-0.108162
-0.0830291
-0.0823449
-0.0761779
-0.0914899
-0.0874965
-0.0956825
-0.0942273
-0.0947402
-0.0958404
-0.0890246
-0.0924319
-0.0794371
-0.0846626
-0.135365
-0.123638
-0.115539
-0.0735392
-0.0737611
-0.0685108
-0.07075
-0.081627
-0.0774192
-0.0911166
-0.0862597
-0.100344
-0.0959174
-0.106795
-0.104069
-0.108263
-0.108251
-0.103684
-0.106734
-0.0936272
-0.0992299
-0.0802991
-0.0871882
-0.066689
-0.0733472
-0.0552886
-0.0606096
-0.0472149
-0.0508208
-0.042503
-0.0444547
-0.0409986
-0.0413511
-0.0428472
-0.0414832
-0.0485264
-0.0451683
-0.0588387
-0.0530421
-0.0749343
-0.0660836
-0.0981507
-0.0855772
-0.129396
-0.112768
-0.167635
-0.147845
-0.207808
-0.187988
-0.240468
-0.225763
-0.255389
-0.250634
-0.247292
-0.254245
-0.218776
-0.235251
-0.178117
-0.199278
-0.156484
-0.185724
-0.217792
-0.0530908
-0.155001
-0.21563
-0.123644
-0.206457
-0.0940516
-0.191581
-0.0678898
-0.0456406
-0.0162965
-0.0273811
-0.150499
-0.128619
-0.0971513
-0.105123
-0.0671221
-0.0129619
-0.00588547
-0.0609953
-0.0602289
-0.00322964
-0.202507
-0.0139401
-0.0095823
-0.0244043
-0.0189147
-0.0361707
-0.0302774
-0.0455043
-0.041415
-0.0492385
-0.0481286
-0.0472426
-0.0489135
-0.0408326
-0.0444496
-0.0324615
-0.0367261
-0.0245712
-0.028333
-0.0187666
-0.0213483
-0.0157647
-0.0168963
-0.0157167
-0.015379
-0.0184733
-0.0167572
-0.0238794
-0.0208516
-0.0319202
-0.0275636
-0.0428308
-0.0369919
-0.0570767
-0.0495073
-0.0749859
-0.0655782
-0.0960497
-0.0852091
-0.118323
-0.107217
-0.138472
-0.128905
-0.152573
-0.14651
-0.157241
-0.15624
-0.150699
-0.155387
-0.133735
-0.143345
-0.110122
-0.122447
-0.0851415
-0.0975353
-0.0627013
-0.073497
-0.0443871
-0.0529207
-0.0619336
-0.0456447
-0.0540562
-0.0755064
-0.0691397
-0.0852804
-0.0809336
-0.0904748
-0.0884738
-0.0907907
-0.0912433
-0.0863939
-0.0891448
-0.0780279
-0.0826518
-0.0667222
-0.0726678
-0.0647018
-0.0625354
-0.0708742
-0.0675116
-0.0787414
-0.0746885
-0.0865648
-0.0827944
-0.0921103
-0.0897599
-0.0933694
-0.093369
-0.0893069
-0.0920109
-0.0803776
-0.0853556
-0.0685317
-0.0746527
-0.0564811
-0.0623666
-0.0464742
-0.0511308
-0.0394865
-0.0425912
-0.035534
-0.0371445
-0.0345019
-0.0346516
-0.0365613
-0.0351242
-0.0421818
-0.0388882
-0.05213
-0.0465567
-0.067501
-0.0590607
-0.0896038
-0.0776344
-0.119419
-0.103534
-0.156192
-0.137111
-0.195345
-0.17595
-0.227772
-0.213077
-0.243212
-0.238129
-0.236059
-0.242478
-0.208351
-0.22443
-0.167968
-0.189039
-0.125135
-0.146253
-0.0869196
-0.105116
-0.080456
-0.0703681
-0.0370012
-0.172275
-0.203331
-0.0602647
-0.140733
-0.197897
-0.110339
-0.186395
-0.0828036
-0.170232
-0.0588381
-0.0390521
-0.023192
-0.00136794
-0.0103904
-0.130529
-0.110071
-0.0882056
-0.065547
-0.0555601
-0.000159187
0.00718625
-0.0354195
-0.0281354
0.00793231
-0.188623
0.00377136
0.00584878
-0.0019618
0.0012393
-0.00986604
-0.00566959
-0.0192437
-0.0145277
-0.0272336
-0.0236607
-0.0308045
-0.0296401
-0.0295675
-0.0307492
-0.0246232
-0.027441
-0.0180358
-0.0213948
-0.011886
-0.0147991
-0.00759171
-0.00945171
-0.00580583
-0.00636894
-0.00666189
-0.00590939
-0.0100407
-0.00804694
-0.0158052
-0.0126308
-0.0239385
-0.0195697
-0.034649
-0.0289495
-0.0483503
-0.0410997
-0.0653308
-0.0564352
-0.0851317
-0.0749552
-0.106008
-0.0955992
-0.124939
-0.115938
-0.138304
-0.132534
-0.142866
-0.141839
-0.136804
-0.141188
-0.120712
-0.12985
-0.0981449
-0.109926
-0.0741729
-0.086062
-0.0528385
-0.0630384
-0.0436321
-0.0393654
-0.0219294
-0.0306833
-0.0558771
-0.0478807
-0.0698823
-0.0632541
-0.0803772
-0.0756237
-0.0865719
-0.0840457
-0.0880599
-0.0879091
-0.0849026
-0.0870403
-0.0776781
-0.0817451
-0.0672955
-0.072827
-0.0441091
-0.0424466
-0.0309775
-0.0612062
-0.0530621
-0.0534146
-0.0528705
-0.0552937
-0.0538772
-0.0600059
-0.0573739
-0.0663925
-0.0630746
-0.0729179
-0.0697559
-0.077619
-0.0756201
-0.0786708
-0.0786883
-0.075079
-0.0774648
-0.0671966
-0.0715918
-0.0567515
-0.0621444
-0.0461881
-0.0513357
-0.03751
-0.0415341
-0.0315475
-0.0341811
-0.0282958
-0.0295943
-0.027675
-0.0276531
-0.029874
-0.0284012
-0.0353447
-0.0321644
-0.0448045
-0.0395218
-0.0592749
-0.0513411
-0.0800022
-0.0687813
-0.107999
-0.0930689
-0.142786
-0.12469
-0.180361
-0.161662
-0.212169
-0.197648
-0.22797
-0.222603
-0.221797
-0.22769
-0.195166
-0.210678
-0.155749
-0.176397
-0.113418
-0.134407
-0.0752577
-0.0935652
-0.0588037
-0.157241
-0.186445
-0.126283
-0.178598
-0.0975896
-0.165867
-0.0168564
-0.013164
-0.00817175
-0.0723701
-0.149388
-0.0511238
-0.0337484
-0.0198201
-0.00868472
0.00801523
0.000352588
-0.112268
-0.093255
-0.0730583
-0.0521556
-0.0192782
-0.0305897
-0.0546967
0.00749072
0.0152849
-0.0461795
-0.0478476
0.0145077
-0.172687
0.0151153
0.015451
0.0132361
0.0144212
0.00952834
0.0116515
0.0036906
0.00684718
-0.0036494
0.000113056
-0.0103084
-0.00726154
-0.0136627
-0.0124834
-0.0130534
-0.0138279
-0.00934422
-0.0114878
-0.00427577
-0.00686068
0.000369624
-0.00180722
0.00335099
0.00211758
0.00408583
0.00401359
0.00245358
0.00356097
-0.00144526
0.000777608
-0.00748282
-0.0042027
-0.0156334
-0.0112893
-0.0260715
-0.0205476
-0.0391527
-0.0322593
-0.0551229
-0.046781
-0.0735769
-0.0641067
-0.092973
-0.0833029
-0.110604
-0.10221
-0.123157
-0.117716
-0.127578
-0.126549
-0.121967
-0.126056
-0.106795
-0.115428
-0.0853973
-0.0965739
-0.0626251
-0.0739047
-0.0423531
-0.0520336
-0.0259859
-0.0337143
-0.0191347
-0.0342626
-0.0255575
-0.0508848
-0.0427618
-0.0654273
-0.0584972
-0.0767218
-0.071542
-0.0838989
-0.0808618
-0.0865059
-0.0857828
-0.0845143
-0.0860716
-0.078332
-0.0818928
-0.0687748
-0.0739144
-0.0568081
-0.0630315
-0.0447433
-0.0451585
-0.0458007
-0.0449724
-0.0491906
-0.0472266
-0.0542357
-0.0515808
-0.0595856
-0.056976
-0.0635106
-0.061837
-0.0643599
-0.0644005
-0.0611923
-0.0632909
-0.0542705
-0.0581286
-0.0451313
-0.0498433
-0.0359671
-0.0404199
-0.0285372
-0.0319682
-0.0235264
-0.0257247
-0.0209097
-0.0219284
-0.0206379
-0.0204756
-0.0229104
-0.021436
-0.0281531
-0.0251272
-0.0370241
-0.0320856
-0.0504567
-0.043104
-0.069607
-0.0592457
-0.0954809
-0.081673
-0.127843
-0.110966
-0.163309
-0.145575
-0.194059
-0.179903
-0.210085
-0.20446
-0.205021
-0.210292
-0.179851
-0.194597
-0.141856
-0.161846
-0.100498
-0.121044
-0.0627791
-0.0809328
-0.031747
-0.0464314
-0.00686232
-0.0186625
-0.00858708
0.00380381
-0.141577
-0.168239
-0.112128
-0.158991
-0.0127298
-0.00402599
-0.0857884
-0.145904
-0.0633178
-0.129957
-0.0447106
-0.029617
-0.0174267
-0.00764152
0.000104489
-0.0501952
0.0130802
0.00628035
-0.096157
-0.0784607
-0.0597729
-0.040217
-0.0197871
0.00115495
0.0134025
0.0110372
0.0195648
-0.00437075
0.000359835
0.0174438
-0.155728
0.0220576
0.0210815
0.0228755
0.0226595
0.0223085
0.0227516
0.0201704
0.0214499
0.0161718
0.0184003
0.010598
0.0135084
0.00517736
0.00771586
0.00210345
0.0032548
0.0022205
0.00177468
0.00490364
0.00332257
0.00869362
0.00676185
0.0120631
0.0105114
0.0139315
0.0132285
0.0137812
0.0141216
0.0115031
0.0129041
0.00718888
0.00959118
0.000964476
0.0043091
-0.00713003
-0.00284592
-0.0172306
-0.0119139
-0.0296327
-0.0231251
-0.0445417
-0.0367777
-0.0616064
-0.0528628
-0.0794833
-0.0705713
-0.09577
-0.0880057
-0.107469
-0.102378
-0.111681
-0.110697
-0.106507
-0.110303
-0.0922752
-0.100385
-0.0721356
-0.0826558
-0.0507179
-0.0613196
-0.0316334
-0.0407523
-0.016337
-0.0235773
-0.00998195
-0.0302059
-0.0214983
-0.0470765
-0.038782
-0.0621707
-0.0549277
-0.0742549
-0.0686557
-0.0824024
-0.0788602
-0.0860971
-0.084822
-0.0852044
-0.0862171
-0.079973
-0.0830944
-0.0711683
-0.0759567
-0.0596849
-0.0657083
0.0262869
0.0221677
0.0349151
-0.053243
-0.038635
-0.0432633
-0.0406527
-0.0362352
-0.0371612
-0.0362866
-0.0359633
-0.0385508
-0.0371692
-0.0424099
-0.0403424
-0.0467139
-0.0445968
-0.0499394
-0.0485606
-0.0505973
-0.0506636
-0.0478027
-0.049646
-0.0417529
-0.0451211
-0.0338185
-0.0379002
-0.0259549
-0.0297616
-0.019681
-0.0225641
-0.0155398
-0.0173423
-0.0134882
-0.0142604
-0.013504
-0.0132312
-0.0157902
-0.0143442
-0.0207404
-0.0179022
-0.0289466
-0.0243924
-0.0412424
-0.0345241
-0.058671
-0.0492494
-0.0821939
-0.0696357
-0.11178
-0.0963156
-0.144677
-0.128147
-0.173942
-0.160347
-0.190017
-0.184181
-0.186182
-0.190732
-0.16275
-0.176577
-0.12652
-0.145677
-0.0864063
-0.106413
-0.0494514
-0.0672558
-0.0188312
-0.0333114
0.00603034
-0.00580917
0.016586
-0.125979
-0.149823
0.00443796
-0.0988769
-0.140103
-0.0754247
-0.127403
-0.0557575
-0.112546
-0.0396241
-0.0264994
-0.0159408
-0.00747871
-0.000805641
0.00429619
0.0146581
0.00828976
-0.0821374
-0.065682
-0.0481655
-0.0295641
-0.0100469
0.0099489
0.0428589
0.0301131
-0.0465162
0.0112909
0.020765
-0.0361144
-0.0395266
0.0174941
-0.138678
0.0256839
0.023497
0.0287045
0.0273782
0.0303433
0.0296543
0.0307377
0.0306839
0.0298586
0.0304679
0.0273998
0.0288379
0.0234499
0.0255682
0.0191959
0.0212434
0.0164679
0.017549
0.0162159
0.0160296
0.0180552
0.0169391
0.0207838
0.0193946
0.023094
0.022061
0.0240423
0.0237769
0.0231679
0.0238446
0.0203736
0.0220069
0.0157486
0.0182807
0.00942264
0.0127913
0.00145415
0.00564497
-0.00825242
-0.00316962
-0.0199341
-0.013831
-0.0337587
-0.0265819
-0.0494279
-0.0414122
-0.0657874
-0.0576325
-0.0807263
-0.0735953
-0.0915173
-0.0868162
-0.0954777
-0.0944605
-0.0907234
-0.0942418
-0.0774272
-0.0850104
-0.0586071
-0.0684321
-0.0386502
-0.0485181
-0.0208976
-0.0293783
-0.00665224
-0.0133508
0.00435469
-0.000796834
0.0127068
0.00880643
-0.00935399
0.00788446
-0.000583208
-0.0270368
-0.0182013
-0.0443095
-0.0357866
-0.0600257
-0.0524477
-0.072918
-0.0668903
-0.0820516
-0.0779984
-0.0868213
-0.0850051
-0.0869811
-0.0874761
-0.0826707
-0.0853587
-0.0745271
-0.0790044
-0.0634341
-0.0692622
-0.0504546
-0.0571391
-0.0308273
-0.0332171
-0.0277332
-0.0290165
-0.026911
-0.0270375
-0.0281953
-0.0273169
-0.031027
-0.0294701
-0.0344165
-0.032731
-0.0370224
-0.0359061
-0.0375026
-0.0375965
-0.0350316
-0.0366511
-0.029766
-0.0326914
-0.022934
-0.0264373
-0.0162669
-0.0194793
-0.0110491
-0.0134332
-0.00768967
-0.0091383
-0.00613172
-0.00669133
-0.00637647
-0.00602147
-0.00862455
-0.00723245
-0.0132325
-0.0106068
-0.0207228
-0.0165788
-0.0318231
-0.0257701
-0.0474487
-0.0390118
-0.0684821
-0.0572531
-0.0950424
-0.0811325
-0.124985
-0.109865
-0.152352
-0.139514
-0.16826
-0.162286
-0.16567
-0.169482
-0.144298
-0.157074
-0.110121
-0.12828
-0.0716075
-0.0909001
-0.0356501
-0.0530138
-0.00565654
-0.0198408
0.0187907
0.00717146
0.0388955
0.0293447
0.055552
0.0476001
0.0499631
0.0627131
0.0160754
-0.111222
-0.132186
-0.0435264
-0.0870869
-0.122718
-0.0666177
-0.110907
-0.0496399
-0.0972843
-0.0357309
-0.0244417
-0.0153402
-0.00819017
-0.00263895
0.0016149
0.00472732
0.0135373
0.00711298
-0.070109
-0.0547186
-0.0380322
-0.0201537
-0.00144334
0.0177913
0.0372113
0.0563131
0.0692059
0.00899414
0.0197021
0.0206837
0.0239539
0.0154055
-0.122442
0.0266256
0.0233755
0.0316528
0.029344
0.0350862
0.0335148
0.0373059
0.0363367
0.0384484
0.0380002
0.0385455
0.0386333
0.0373917
0.0381427
0.0348841
0.0362883
0.0317461
0.0333085
0.0294321
0.0304003
0.0289267
0.028937
0.0300822
0.0293456
0.031942
0.0309966
0.0333897
0.0327781
0.0335974
0.0336829
0.0321518
0.0330918
0.0289669
0.0307729
0.0241334
0.0267469
0.0177881
0.0211418
0.0100104
0.0140777
0.000744937
0.0055727
-0.0101906
-0.00450184
-0.0229312
-0.016338
-0.0372306
-0.0299274
-0.0521109
-0.0446937
-0.0657323
-0.0592217
-0.07564
-0.0713116
-0.0793156
-0.0783839
-0.0748959
-0.0781712
-0.0625061
-0.0695698
-0.0450379
-0.054145
-0.0266079
-0.0357098
-0.0102419
-0.0180568
0.00289673
-0.00326277
0.0129959
0.00828161
0.0170764
0.0108168
0.0267986
0.0189483
-0.00660436
0.00225227
-0.0246388
-0.0155856
-0.0424816
-0.0336561
-0.0588967
-0.05095
-0.0726665
-0.0661762
-0.0828326
-0.0782496
-0.088687
-0.0863289
-0.0898757
-0.0898691
-0.0864508
-0.0887198
-0.0788754
-0.08313
-0.068108
-0.0738423
-0.0552
-0.0618691
0.0814525
0.0748618
0.0872441
-0.048259
-0.0287559
-0.0364651
-0.0323463
-0.022947
-0.0256171
-0.019291
-0.0208457
-0.0177693
-0.018269
-0.018219
-0.0177693
-0.0201746
-0.0190538
-0.0227776
-0.0214644
-0.0248427
-0.0239569
-0.0251595
-0.0252824
-0.0229678
-0.0243915
-0.018403
-0.0209307
-0.0125733
-0.0155494
-0.00699662
-0.00966818
-0.00273072
-0.00466699
-6.30705e-05
-0.00120054
0.00107188
0.000691912
0.000652783
0.00106439
-0.00151346
-0.000195945
-0.00574386
-0.00334735
-0.0124903
-0.00876959
-0.0223734
-0.016996
-0.0361725
-0.0287332
-0.0546654
-0.0447974
-0.0780625
-0.0657912
-0.104763
-0.0912174
-0.129845
-0.11796
-0.145325
-0.139311
-0.144112
-0.147051
-0.124972
-0.136579
-0.0930849
-0.110131
-0.0564302
-0.0748665
-0.0217212
-0.0385348
0.00759379
-0.00631318
0.0315326
0.0201503
0.0512439
0.0418386
0.0677777
0.0599251
0.0750936
-0.097941
-0.116065
-0.0769357
-0.107298
-0.0593757
-0.0965543
0.0289642
0.034046
0.0362782
-0.0448564
-0.0841097
-0.0329745
-0.0233853
-0.0157758
-0.00983226
-0.00538848
-0.00209451
0.000367065
0.00214194
0.0105897
0.00370009
-0.0598646
-0.0453069
-0.029298
-0.0120773
0.00600565
0.0247056
0.0435575
0.0620875
0.0921439
0.079845
-0.0411228
0.00508979
0.0170573
-0.0292032
-0.0339128
0.012046
-0.107705
0.0254943
0.021481
0.0322268
0.0290752
0.0373624
0.0349962
0.0410737
0.0393776
0.0437074
0.0425111
0.0454034
0.0446616
0.0462723
0.0459425
0.0461819
0.0463646
0.0449278
0.0456994
0.0428527
0.0439377
0.0410189
0.0418312
0.0403746
0.0405207
0.0409882
0.0405565
0.0421454
0.0415587
0.0429035
0.0426274
0.0425321
0.04289
0.0406568
0.0417921
0.0372003
0.0391223
0.0322558
0.0349045
0.0259692
0.0292715
0.0184415
0.022358
0.00965548
0.0142119
-0.000522089
0.00475021
-0.0122002
-0.00617539
-0.0251827
-0.0185623
-0.0386522
-0.0319382
-0.0510145
-0.0450981
-0.0600646
-0.0561019
-0.0634202
-0.062587
-0.0592634
-0.0623316
-0.0477387
-0.0542969
-0.031634
-0.0400121
-0.0147677
-0.0230857
0.000167076
-0.00696376
0.0121973
0.00655169
0.0214539
0.0171459
0.0284513
0.0251571
0.0314086
0.0130743
0.0212767
-0.00448099
0.00446978
-0.0230182
-0.0136718
-0.0415275
-0.0323581
-0.0587337
-0.0503687
-0.0734818
-0.0664809
-0.0847494
-0.0796069
-0.0917221
-0.0888096
-0.0939381
-0.0934355
-0.0913587
-0.0932319
-0.0843471
-0.088367
-0.0737927
-0.0794318
-0.0608265
-0.0675233
-0.0465599
-0.0537931
-0.0212492
-0.0250143
-0.0151276
-0.0179382
-0.011031
-0.0128174
-0.00893666
-0.00973951
-0.00869578
-0.00860214
-0.00991801
-0.00916309
-0.0118551
-0.0108584
-0.0134539
-0.0127683
-0.0136222
-0.013774
-0.0116703
-0.012924
-0.0077308
-0.00990168
-0.00280856
-0.00530672
0.00178372
-0.000400879
0.00520316
0.00366309
0.00726891
0.00640032
0.0080488
0.00781714
0.00750481
0.00795027
0.00545564
0.0066826
0.0016246
0.00378277
-0.00437149
-0.00107523
-0.0130489
-0.00833897
-0.025051
-0.0185929
-0.0410328
-0.0325133
-0.0612406
-0.0506333
-0.0845283
-0.0726652
-0.106987
-0.096237
-0.12172
-0.115804
-0.121825
-0.123884
-0.105159
-0.115469
-0.0758338
-0.0916394
-0.0412128
-0.0587155
-0.0078753
-0.0240828
0.020679
0.00708042
0.0440914
0.0329762
0.0632977
0.0541335
0.0795548
0.0717618
0.0931037
0.0866752
0.103817
0.0987675
0.0965494
0.108314
-0.0864182
-0.101862
-0.0684771
-0.093988
0.0308005
0.038063
-0.0535793
-0.0842899
-0.0413243
-0.0728886
-0.0313504
-0.0234004
-0.0172469
-0.0126073
-0.00917005
-0.00678059
-0.00506831
-0.00365585
-0.00246048
-0.0391045
0.00653979
-0.00114713
-0.0512169
-0.0373474
-0.0219519
-0.00527825
0.0124074
0.030673
0.0489868
0.0669415
0.0841332
0.040876
0.0429885
0.000266224
0.0136696
0.100348
0.112282
0.00811421
-0.0948165
0.023187
0.0187127
0.0310902
0.0273439
0.0376217
0.0345114
0.0427272
0.0403282
0.046598
0.0447912
0.0495061
0.0481607
0.051624
0.0506528
0.0530902
0.0524358
0.0538407
0.0535692
0.0536433
0.0538707
0.0525578
0.0531827
0.0512658
0.0518792
0.0505996
0.0508203
0.050802
0.0506086
0.0513974
0.0510977
0.0516124
0.0515985
0.050803
0.0513639
0.0486252
0.0498942
0.0450069
0.0469922
0.0400428
0.0426832
0.0338878
0.0371045
0.0266633
0.0304049
0.0183865
0.02266
0.00896573
0.0138266
-0.00168918
0.00379177
-0.0134302
-0.00745115
-0.0255817
-0.019524
-0.0367643
-0.0314061
-0.0449877
-0.0413842
-0.047988
-0.0472721
-0.0440246
-0.0469215
-0.0333211
-0.0393897
-0.0185781
-0.0262242
-0.00328969
-0.0108162
0.0101995
0.00375911
0.0210921
0.0159744
0.029504
0.0255886
0.0358527
0.0329099
0.038499
0.0147259
0.0230051
-0.00316648
0.00597505
-0.0222209
-0.0125917
-0.0414243
-0.0318854
-0.059529
-0.050687
-0.0753679
-0.0678029
-0.0878229
-0.0820815
-0.0959689
-0.0924786
-0.0992292
-0.0982275
-0.0974651
-0.0989639
-0.0909797
-0.0947771
-0.0805207
-0.0861784
-0.0673506
-0.074188
-0.0526587
-0.0601443
0.122524
0.115596
0.125736
-0.0449917
-0.0218361
-0.0316465
-0.0265049
-0.0137079
-0.0175823
-0.00743169
-0.0103464
-0.00302597
-0.00499397
-0.00047812
-0.00152304
0.000319186
0.000124606
-0.000301951
0.00015188
-0.00168398
-0.000952381
-0.00288469
-0.00237154
-0.00291936
-0.00309929
-0.0011737
-0.00227936
0.00220697
0.000356583
0.00631
0.00424327
0.0100219
0.00827091
0.0126995
0.0115045
0.0142506
0.0136102
0.0147391
0.0146268
0.014114
0.0145736
0.0122089
0.0133338
0.00878678
0.0107042
0.00352929
0.00640997
-0.00398203
8.41463e-05
-0.0142604
-0.00874249
-0.0278313
-0.0206086
-0.0449288
-0.035954
-0.0647558
-0.0546232
-0.0843294
-0.0748724
-0.097947
-0.0923089
-0.099186
-0.100421
-0.0851545
-0.0940049
-0.0587176
-0.0731192
-0.0263779
-0.0428416
0.00548018
-0.010081
0.033182
0.0199494
0.0560199
0.0451782
0.0747333
0.0658153
0.0904914
0.0829362
0.103618
0.0973507
0.114304
0.10925
0.118725
-0.0767196
-0.0897007
0.044838
-0.0616156
-0.082722
-0.0491547
-0.0739561
-0.0389969
-0.0634402
-0.0308905
-0.024592
-0.0198786
-0.0165278
-0.0142143
-0.0126036
-0.0115427
-0.0106122
-0.00951306
-0.00827366
0.00205262
-0.0065966
-0.0440877
-0.0308224
-0.0159584
0.000283213
0.0176151
0.0355098
0.0534361
0.0710657
0.0878891
0.103851
0.128205
0.118483
-0.0373106
-0.00434304
0.0101206
-0.0241525
-0.0296346
0.00458629
-0.0838723
0.0203373
0.0154036
0.0290701
0.0249181
0.0364896
0.032909
0.0426901
0.0397467
0.0476738
0.0453176
0.0516176
0.0497666
0.0547087
0.0532559
0.057144
0.0559978
0.0590643
0.0581637
0.0604588
0.0598373
0.0611177
0.0608955
0.0609224
0.0611184
0.0602177
0.0605941
0.0596507
0.0598819
0.0595688
0.0595515
0.0597235
0.0596505
0.059516
0.0597039
0.0583867
0.0590922
0.056017
0.0573657
0.0523355
0.0543365
0.0474358
0.0500279
0.0414794
0.0445792
0.0346049
0.0381511
0.0268586
0.0308422
0.0181815
0.0226423
0.00849497
0.0134648
-0.00209745
0.00329059
-0.0130411
-0.00758431
-0.023137
-0.0182951
-0.0305671
-0.0273158
-0.033175
-0.0326006
-0.0293391
-0.0320972
-0.0194179
-0.0250114
-0.00602667
-0.0129441
0.00769244
0.000952303