/*--------------------------------*- C++ -*----------------------------------*\
  =========                 |
  \\      /  F ield         | OpenFOAM: The Open Source CFD Toolbox
   \\    /   O peration     | Website:  https://openfoam.org
    \\  /    A nd           | Version:  10
     \\/     M anipulation  |
\*---------------------------------------------------------------------------*/
FoamFile
{
    format      ascii;
    class       volVectorField;
    location    "24";
    object      U;
}
// * * * * * * * * * * * * * * * * * * * * * * * * * * * * * * * * * * * * * //

dimensions      [0 1 -1 0 0 0 0];

internalField   nonuniform List<vector> 
33313
(
(0.283521 0.0125788 -1.14308e-21)
(0.412664 0.00712975 6.97922e-22)
(0.358189 0.0271556 0)
(0.160423 0.0101929 0)
(0.722827 0.0241229 5.855e-22)
(0.677009 0.0256048 0)
(0.561254 0.0295832 -5.11885e-22)
(0.596086 0.019442 0)
(0.694602 0.017472 4.83125e-22)
(0.569752 0.017527 4.47676e-23)
(0.641503 0.0238285 0)
(-0.0306015 0.0175448 -2.73594e-20)
(-0.000272867 -0.00420285 -9.97399e-20)
(-0.0017128 0.00149756 -1.95564e-19)
(0.441533 -0.357346 -6.86639e-22)
(0.171962 -0.126212 9.04045e-21)
(0.153178 -0.119786 9.12973e-21)
(1.44393 -0.357771 0)
(1.49582 -0.225432 0)
(1.43129 -0.173645 0)
(1.44036 -0.261606 3.12016e-20)
(0.541323 0.0602938 0)
(0.456041 0.363023 -1.30152e-19)
(0.308722 0.320555 3.94322e-19)
(0.413312 0.0489563 -8.47735e-20)
(1.00476 -0.0202754 -6.89342e-20)
(1.00452 -0.0395382 4.77812e-20)
(1.00486 -0.0788355 0)
(0.962975 0.105301 -6.45412e-20)
(1.03595 0.100649 5.13421e-20)
(1.01586 0.0818181 3.34408e-20)
(0.996702 -0.019272 -4.25242e-20)
(0.881921 0.0570259 -2.43161e-20)
(-0.0120837 -0.0634028 1.01522e-19)
(-0.0644595 -0.0430073 -2.097e-19)
(-0.0704676 -0.042664 1.30863e-19)
(-0.0894079 -0.0574896 1.79862e-20)
(1.11834 -0.0287739 -2.28452e-22)
(1.12342 -0.0296025 -6.94688e-21)
(1.53972 0.223087 -1.46848e-20)
(1.51462 0.198851 2.72579e-20)
(1.01567 -0.168147 -5.93784e-20)
(1.02217 -0.164657 -4.94858e-21)
(-0.0706163 -0.0407097 -8.58599e-20)
(-0.0954623 0.0773927 3.2409e-20)
(-0.105885 0.0759716 -1.31055e-19)
(0.207905 0.541124 9.25551e-20)
(0.186935 0.399655 3.47732e-20)
(0.385653 -0.0351251 -3.98668e-21)
(0.498194 -0.0164152 2.35456e-21)
(1.04196 0.0684831 -4.51081e-20)
(1.0597 0.0629017 2.38913e-20)
(1.06386 -0.0978284 -5.98461e-20)
(1.01893 -0.0609283 1.58466e-19)
(0.494349 0.578076 1.09083e-19)
(0.429447 0.640667 -4.43013e-20)
(0.657076 0.786991 -8.86569e-20)
(0.390426 0.725279 2.10764e-19)
(0.219104 -0.360262 4.81899e-20)
(0.353039 -0.664428 -3.69629e-21)
(0.222059 0.574436 -5.52267e-20)
(0.396943 -0.223259 2.43173e-19)
(0.227713 -0.163116 -7.32296e-20)
(0.0989097 -0.118819 0)
(0.0867478 -0.00381488 0)
(0.114256 -0.0125659 3.38957e-21)
(1.42649 -0.104992 2.9903e-20)
(1.34679 -0.222874 0)
(1.3409 -0.218567 0)
(-0.212063 0.392089 2.02236e-20)
(-0.23034 0.35252 0)
(-0.117618 0.320043 0)
(0.369311 0.0342222 1.24383e-20)
(1.563 0.278414 5.62522e-20)
(-0.266943 0.48094 7.96986e-20)
(-0.201989 0.442055 5.45187e-20)
(0.310941 0.283891 0)
(0.201909 0.318517 2.75322e-20)
(1.44116 0.325241 4.48219e-20)
(1.48249 0.265672 -2.7954e-20)
(0.823573 -0.0347595 1.53979e-19)
(0.839128 -0.01781 -5.13995e-20)
(0.798483 -0.068841 0)
(1.4103 0.184765 1.5504e-20)
(1.26248 0.217676 -3.47317e-21)
(0.645707 0.0822098 -1.37825e-20)
(0.0363577 0.0387001 0)
(-0.0665787 0.0755464 1.573e-20)
(-0.0844202 0.0675444 8.84935e-20)
(0.0375492 -0.122237 2.92686e-19)
(-0.158635 0.277068 7.61252e-21)
(-0.155949 0.233241 -3.07089e-21)
(-0.0919189 0.111257 -5.47003e-19)
(-0.0768276 0.172492 0)
(-0.0648056 0.227171 5.27967e-20)
(1.04207 0.063316 0)
(1.01552 0.0608991 -5.56311e-21)
(0.455261 -0.0363953 6.93945e-21)
(0.588905 -0.0179331 -5.0793e-21)
(1.42991 -0.189223 0)
(1.43287 -0.233302 -6.84949e-20)
(1.44427 -0.158752 0)
(1.43993 -0.0839222 3.00033e-20)
(1.45994 -0.100039 4.85442e-21)
(1.42785 -0.0848627 -3.31926e-20)
(0.367463 0.0129817 -3.30339e-21)
(0.252461 -0.0283184 -1.12279e-19)
(0.00391516 -0.0422416 -7.91773e-20)
(0.0197383 -0.0389844 -3.98989e-22)
(0.921503 -0.61021 1.26607e-21)
(1.10569 -0.749123 1.28642e-20)
(0.93323 -0.714196 4.27617e-20)
(0.731854 -0.506704 0)
(0.819878 -0.222439 9.06758e-20)
(0.318446 -0.0385036 4.51696e-20)
(0.743497 -0.087287 -4.09993e-20)
(0.216821 0.100483 -4.48603e-19)
(0.181523 0.248604 5.1044e-20)
(1.44362 -0.095747 1.41243e-21)
(1.42907 -0.0825946 0)
(-0.060338 -0.0401697 0)
(-0.0545824 -0.0422362 1.30018e-19)
(-0.0611114 -0.0471527 0)
(0.324009 -0.0112477 2.13637e-21)
(0.383284 -0.00449141 -2.13446e-21)
(0.202189 -0.0300869 -4.4631e-21)
(0.804349 0.773482 1.55183e-19)
(1.15192 -0.118491 -1.54696e-22)
(1.14272 -0.121874 0)
(0.0567171 0.466185 2.6111e-20)
(0.148704 0.405335 -3.94019e-20)
(-0.029332 0.0274581 -1.80031e-19)
(-0.0375161 -0.000477096 3.35044e-19)
(0.923719 0.723012 2.59371e-20)
(1.08614 0.735115 3.98471e-20)
(0.94748 0.678319 0)
(0.785117 0.616891 0)
(0.506637 -0.35107 -6.68018e-21)
(0.628154 -0.441617 0)
(0.855079 -0.727048 -1.14024e-19)
(0.860847 -0.704036 -4.56941e-20)
(0.725829 -0.735939 1.27104e-19)
(1.14923 -0.107909 -5.89346e-22)
(1.15404 -0.103745 -3.69061e-21)
(1.1604 -0.116335 2.22249e-23)
(1.07692 -0.0080055 0)
(1.08034 -0.00808728 -5.70221e-21)
(1.08191 -0.0109325 8.73741e-21)
(1.08492 -0.0128954 5.54594e-21)
(0.998139 -0.206182 4.44259e-20)
(1.01177 -0.210606 0)
(0.995508 -0.166783 -7.68313e-20)
(1.00292 -0.180369 4.40286e-20)
(0.943275 0.107499 3.15197e-20)
(0.93696 0.128058 -4.88286e-20)
(0.957214 0.135589 3.01093e-20)
(0.951715 0.147205 1.75203e-19)
(-0.0698805 0.384897 1.94394e-20)
(-0.273312 0.4549 0)
(-0.191594 0.429193 -2.57455e-20)
(-0.0435967 -0.0205895 -2.88137e-19)
(0.457638 0.379215 7.4232e-21)
(0.488497 0.451356 -9.90225e-21)
(0.887996 0.756988 -3.81965e-20)
(0.49766 0.509854 -4.47035e-20)
(-0.0989182 0.247323 0)
(-0.0980201 0.163947 9.8143e-20)
(-0.112533 0.324224 -6.61118e-20)
(0.427139 0.0866121 0)
(0.74708 0.0199606 0)
(0.805828 0.0203105 8.30765e-23)
(1.06315 0.00294979 5.9347e-21)
(1.06383 -0.000284387 -3.7566e-21)
(1.08642 0.0156842 1.73849e-21)
(1.09036 0.0198748 -2.99448e-24)
(1.01281 -0.0921352 1.45362e-20)
(1.02462 -0.0766791 -6.38744e-20)
(0.506468 0.178768 1.08204e-19)
(0.482392 0.211255 -9.15132e-20)
(1.33809 0.251605 0)
(1.35633 0.239342 0)
(1.11357 -0.00560733 -6.89836e-22)
(1.11897 -0.0035802 -9.2198e-21)
(1.11348 0.188574 -3.91009e-20)
(1.10774 0.180993 1.35025e-20)
(0.482547 0.207361 0)
(0.418036 0.190239 -1.01232e-21)
(0.513296 0.193112 2.46303e-20)
(0.574391 0.162379 3.20436e-20)
(0.320733 0.298944 2.43464e-22)
(-0.320215 0.45872 -2.15287e-19)
(0.842599 0.0606331 -5.52071e-20)
(0.872071 0.0565119 2.35344e-20)
(0.331021 0.307447 1.06079e-20)
(0.360191 0.260041 0)
(0.935629 0.261135 0)
(0.911854 0.30009 -5.01795e-21)
(0.887159 0.397635 -6.02383e-20)
(0.963823 -0.252387 2.6929e-20)
(0.935837 -0.276807 0)
(0.929934 -0.428689 3.23949e-20)
(0.817336 0.0197923 -4.62469e-20)
(0.846115 0.0236806 5.62327e-20)
(1.04005 -0.0693288 5.83535e-21)
(1.03331 -0.0621801 -1.27393e-20)
(-0.135011 0.142612 0)
(-0.12111 0.0892243 -4.63333e-20)
(1.25932 -0.632828 -2.37754e-20)
(1.20191 -0.648611 1.12638e-20)
(1.02869 -0.0582207 -4.3772e-20)
(1.03361 -0.0672726 5.19901e-20)
(0.690936 0.0246511 -9.89548e-24)
(0.758443 0.0221692 1.14558e-23)
(0.757414 0.0222682 3.47909e-22)
(0.700859 0.0235844 2.40156e-22)
(0.56917 -0.432033 6.3931e-21)
(-0.0116977 0.0339105 1.16833e-19)
(-0.00121953 0.00906489 -5.45183e-20)
(0.989802 0.199315 1.34392e-20)
(0.987341 0.180731 -6.31937e-21)
(0.999021 0.178969 6.34625e-21)
(1.00347 0.198119 0)
(1.42238 -0.0893146 -2.09344e-20)
(1.41335 -0.0744871 1.19227e-21)
(1.40117 -0.0713264 2.03942e-20)
(1.12556 0.300278 0)
(1.10691 0.296895 -3.7594e-20)
(1.12717 0.296759 0)
(-0.0714147 0.0474109 -5.28075e-20)
(-0.0248275 0.015595 -1.19109e-19)
(-0.0312085 0.0202265 0)
(0.204203 -0.140115 -3.60154e-20)
(0.172832 -0.122281 1.27482e-20)
(1.06172 0.00442651 4.05135e-21)
(1.07365 -0.00981855 -7.5124e-21)
(1.07591 -0.00734926 -3.57838e-21)
(1.39478 -0.385469 0)
(1.0371 -0.170667 0)
(0.976959 -0.587645 -3.7702e-21)
(0.991404 -0.608149 -2.97695e-21)
(1.00503 -0.619106 3.7707e-21)
(1.01405 -0.62117 -2.69115e-22)
(1.02218 -0.61775 0)
(1.02738 -0.610395 -1.56452e-21)
(1.03107 -0.600951 1.56433e-21)
(1.03346 -0.590611 1.39331e-21)
(1.03495 -0.580254 -1.39245e-21)
(1.03575 -0.570411 -1.32375e-21)
(1.03601 -0.561516 1.32287e-21)
(1.03581 -0.553916 1.3482e-21)
(1.03515 -0.548059 -1.34724e-21)
(1.03408 -0.544348 0)
(1.03251 -0.543067 0)
(1.03056 -0.543936 0)
(1.02821 -0.546059 1.80581e-21)
(1.02574 -0.547549 -1.80734e-21)
(1.0231 -0.546082 0)
(1.02063 -0.538746 0)
(1.01807 -0.523135 0)
(1.01586 -0.496922 2.89329e-21)
(1.01331 -0.459203 2.60912e-22)
(1.01144 -0.408983 -6.56481e-21)
(1.00841 -0.34784 3.4104e-21)
(1.00732 -0.274743 -3.82873e-21)
(1.00258 -0.196356 1.22393e-20)
(1.00102 -0.106919 3.46246e-23)
(0.99778 -0.018043 0)
(0.99737 0.0772891 1.32363e-21)
(0.997957 0.172539 0)
(0.999637 0.263043 -2.59589e-21)
(1.00888 -0.608191 0)
(0.975876 -0.565867 8.51124e-21)
(1.0019 -0.580191 2.6577e-21)
(0.954743 -0.554358 1.68086e-21)
(1.00786 0.417201 -2.44778e-21)
(1.00332 0.351764 2.36396e-21)
(0.968029 0.173167 0)
(0.973259 0.345178 -1.18687e-21)
(0.969311 0.261804 -1.21279e-21)
(0.967378 -0.0141041 0)
(0.966699 0.0807104 0)
(0.970633 -0.194706 0)
(0.967803 -0.106988 0)
(0.977259 -0.347719 -3.33699e-25)
(0.973672 -0.27551 0)
(0.986014 -0.458415 0)
(0.981527 -0.408888 0)
(0.995964 -0.52091 -6.67946e-24)
(0.990904 -0.495518 0)
(1.00659 -0.542497 0)
(1.00124 -0.535794 0)
(1.01705 -0.542097 -4.68049e-24)
(1.01192 -0.543628 0)
(1.02611 -0.539912 -4.10718e-24)
(1.02183 -0.540272 0)
(1.03309 -0.546137 -3.7919e-24)
(1.02986 -0.541817 -4.82746e-28)
(1.03822 -0.560679 0)
(1.03586 -0.552558 0)
(1.04161 -0.580661 0)
(1.04016 -0.570141 0)
(1.04238 -0.603345 0)
(1.04242 -0.5919 0)
(1.03878 -0.623521 0)
(1.04123 -0.614213 0)
(1.02729 -0.629897 1.60721e-21)
(1.03393 -0.629052 3.33636e-22)
(1.01776 -0.623041 3.3707e-23)
(0.958535 -0.522181 -9.68956e-23)
(0.985209 -0.537524 1.44006e-21)
(0.973234 0.418256 0)
(0.933047 -0.505649 -7.43159e-21)
(0.99726 0.489987 0)
(1.01395 0.489477 2.76105e-21)
(0.938696 -0.464357 8.30721e-23)
(0.969099 -0.481948 -1.56167e-21)
(0.97835 0.48382 -4.77891e-21)
(1.03521 0.426619 0)
(0.910304 -0.444556 -1.24868e-21)
(1.03836 0.491862 -2.40697e-21)
(0.947768 -0.409288 -1.77954e-21)
(0.888242 -0.370609 1.44557e-21)
(0.917052 -0.391422 0)
(0.931298 -0.536509 -2.98104e-22)
(0.885442 -0.425636 2.31917e-21)
(0.908983 -0.487493 4.74512e-21)
(0.970123 -0.593105 8.9897e-23)
(0.953152 -0.57156 -1.70999e-21)
(0.995651 -0.609538 -2.63557e-24)
(0.983852 -0.605002 -3.00778e-21)
(1.01377 -0.602875 0)
(1.00568 -0.608278 0)
(1.02521 -0.586103 0)
(1.02021 -0.595064 0)
(1.03222 -0.567934 0)
(1.02912 -0.576864 0)
(1.03665 -0.552856 0)
(1.03469 -0.559791 0)
(1.03924 -0.544544 0)
(1.03815 -0.547634 0)
(1.04034 -0.545204 0)
(1.03994 -0.543843 0)
(1.04068 -0.549347 0)
(1.04053 -0.547654 0)
(1.04112 -0.540586 0)
(1.04082 -0.547903 0)
(1.04181 -0.498717 0)
(1.04137 -0.52489 0)
(1.04216 -0.410843 -1.02485e-26)
(1.04175 -0.460857 0)
(1.04189 -0.277164 2.21603e-26)
(1.04085 -0.349037 0)
(1.03736 -0.106595 -6.79753e-22)
(1.03746 -0.194027 -9.51407e-21)
(1.03205 0.080737 -2.6177e-21)
(1.03299 -0.0132923 4.73432e-21)
(1.03186 0.26589 2.61914e-21)
(1.0316 0.174678 -1.33801e-21)
(1.03256 0.349109 0)
(0.99974 0.540269 -6.05571e-22)
(1.04056 0.545504 -3.98604e-23)
(1.01764 0.54256 0)
(0.947377 0.340475 -1.44824e-22)
(0.957824 0.476863 4.65196e-21)
(0.951415 0.413245 0)
(0.940699 0.171803 0)
(0.942918 0.259876 6.01176e-22)
(0.940174 -0.0128122 -6.70938e-22)
(0.939233 0.0792371 0)
(0.944911 -0.190878 0)
(0.941852 -0.104176 6.72588e-22)
(0.953615 -0.342028 -4.24544e-25)
(0.948763 -0.270785 0)
(0.965378 -0.451813 0)
(0.959204 -0.402705 0)
(0.979075 -0.51404 6.68918e-24)
(0.97205 -0.488731 0)
(0.993817 -0.535802 0)
(0.986386 -0.52896 0)
(1.00833 -0.536038 4.68803e-24)
(1.00121 -0.537189 0)
(1.02113 -0.534856 4.11372e-24)
(1.01502 -0.534692 0)
(1.03164 -0.542045 3.79808e-24)
(1.02666 -0.537272 4.83527e-28)
(1.04037 -0.557352 0)
(1.03619 -0.548861 0)
(1.04764 -0.57825 0)
(1.0442 -0.567224 0)
(1.05278 -0.602474 0)
(1.05056 -0.590157 0)
(1.0542 -0.625041 5.30751e-24)
(1.05408 -0.614459 0)
(1.04957 -0.635472 0)
(1.05279 -0.632585 0)
(1.037 -0.618218 0)
(1.04438 -0.631524 0)
(1.01532 -0.55247 -7.80004e-22)
(1.02748 -0.592404 -3.03037e-21)
(0.982779 -0.427627 -1.15565e-21)
(1.00067 -0.496981 4.73465e-21)
(0.982845 0.535562 1.71377e-21)
(0.862366 -0.350688 -2.55478e-21)
(0.929443 -0.326871 1.84591e-21)
(0.965234 -0.343814 -2.63177e-21)
(1.04233 0.584093 1.19603e-21)
(1.06182 0.54327 1.78062e-21)
(1.06163 0.582554 8.22063e-22)
(0.867218 -0.286637 0)
(0.939857 0.468803 2.0967e-21)
(0.964876 0.528847 5.21772e-22)
(0.948424 0.519911 2.23787e-21)
(0.840485 -0.266167 -6.43511e-23)
(0.896881 -0.307275 0)
(0.862176 -0.403771 -5.8395e-22)
(0.817046 -0.24643 -3.06717e-21)
(0.839219 -0.330175 1.20549e-21)
(0.908744 -0.515207 -2.071e-21)
(0.885826 -0.465797 0)
(0.950674 -0.576249 4.14206e-23)
(0.930894 -0.551822 8.30048e-22)
(0.981107 -0.597004 -1.52271e-22)
(0.967095 -0.590267 1.95084e-22)
(1.00349 -0.594449 0)
(0.993186 -0.59787 0)
(1.01913 -0.580623 0)
(1.01207 -0.588279 0)
(1.02991 -0.564281 0)
(1.02497 -0.572409 0)
(1.03783 -0.55038 0)
(1.03415 -0.556777 0)
(1.04388 -0.542964 0)
(1.04105 -0.545629 0)
(1.04869 -0.544204 -2.1275e-24)
(1.04639 -0.542599 0)
(1.05314 -0.54843 0)
(1.05089 -0.546742 0)
(1.05798 -0.539472 0)
(1.05548 -0.546873 0)
(1.06298 -0.497604 0)
(1.06044 -0.523694 0)
(1.06709 -0.410224 5.21975e-26)
(1.06499 -0.459842 0)
(1.06936 -0.277305 -4.6362e-26)
(1.06787 -0.348699 0)
(1.06866 -0.107963 -1.03374e-22)
(1.06844 -0.195392 0)
(1.0656 0.0802435 -3.43277e-22)
(1.06676 -0.014397 -2.8354e-21)
(1.06287 0.265722 6.95579e-22)
(1.06413 0.175233 3.54913e-22)
(1.06206 0.426091 -6.41432e-22)
(1.06177 0.350875 -1.34354e-21)
(1.06174 0.490696 6.51618e-22)
(1.00333 0.579101 -6.953e-22)
(1.02136 0.582197 0)
(0.971962 0.568427 1.37358e-21)
(0.987496 0.574663 -2.95181e-22)
(0.92579 0.336245 6.65275e-23)
(0.932313 0.407386 0)
(0.917107 0.169861 1.37369e-22)
(0.920146 0.255658 -2.41859e-22)
(0.915594 -0.0123533 1.02914e-23)
(0.915335 0.0792653 1.57957e-22)
(0.921 -0.187125 0)
(0.917517 -0.101977 0)
(0.931512 -0.336342 -5.19788e-25)
(0.92567 -0.266003 0)
(0.945963 -0.444842 -7.2188e-24)
(0.938315 -0.396342 0)
(0.963219 -0.506168 0)
(0.954316 -0.481273 0)
(0.981986 -0.52756 0)
(0.972519 -0.520814 0)
(1.00044 -0.528293 0)
(0.991382 -0.529083 0)
(1.0168 -0.528252 -3.80498e-24)
(1.00895 -0.527481 0)
(1.03067 -0.536517 0)
(1.02401 -0.531252 0)
(1.04282 -0.552546 0)
(1.0369 -0.543725 0)
(1.05381 -0.574183 0)
(1.04846 -0.562751 0)
(1.06319 -0.599674 0)
(1.05876 -0.586628 0)
(1.06963 -0.62443 -5.35018e-24)
(1.0669 -0.612628 0)
(1.07103 -0.63825 0)
(1.07111 -0.633597 0)
(1.06429 -0.624504 1.15779e-21)
(1.0689 -0.635939 0)
(1.04704 -0.563607 -2.5986e-23)
(1.05685 -0.601297 -1.21205e-21)
(1.01977 -0.440884 -1.68606e-22)
(1.03484 -0.510407 3.20612e-21)
(0.945785 -0.24815 -3.71082e-21)
(0.985299 -0.260058 0)
(1.00334 -0.356888 -2.60329e-21)
(0.819556 -0.171427 7.1764e-21)
(0.796515 -0.153396 -3.80895e-21)
(0.846462 -0.19158 3.39419e-21)
(0.909354 -0.23189 0)
(0.957511 0.559761 -2.2011e-21)
(0.96687 -0.154411 0)
(0.927863 -0.142589 8.53383e-21)
(1.04248 0.610835 -5.69841e-22)
(1.06024 0.609186 6.77799e-22)
(1.08471 0.5419 2.57333e-21)
(0.801862 -0.0709132 0)
(0.778621 -0.0545914 -1.90913e-21)
(1.0822 0.580233 0)
(0.876476 -0.212991 0)
(0.795921 -0.227016 2.49646e-21)
(0.758144 -0.0404196 1.96659e-21)
(0.775328 -0.136159 -2.04545e-21)
(0.841529 -0.382171 -3.44754e-22)
(0.818174 -0.309221 1.10504e-21)
(0.888774 -0.492871 -1.25647e-21)
(0.865222 -0.443121 1.89278e-22)
(0.933103 -0.55729 -2.3699e-22)
(0.911869 -0.530958 0)
(0.967909 -0.582462 -2.66078e-25)
(0.951738 -0.573619 1.53141e-22)
(0.994332 -0.584013 0)
(0.982035 -0.585442 0)
(1.01383 -0.573296 0)
(1.00486 -0.579557 0)
(1.02819 -0.558896 0)
(1.0215 -0.566176 0)
(1.03946 -0.546167 0)
(1.03412 -0.552045 0)
(1.04883 -0.539486 1.71744e-24)
(1.04433 -0.541828 0)
(1.05721 -0.541013 2.1275e-24)
(1.05308 -0.539326 0)
(1.06562 -0.545035 0)
(1.06135 -0.54349 0)
(1.07472 -0.535787 0)
(1.07008 -0.543294 0)
(1.08399 -0.494159 0)
(1.07937 -0.520019 0)
(1.09196 -0.407816 1.10716e-25)
(1.08814 -0.456821 0)
(1.09713 -0.276253 -1.12965e-25)
(1.09478 -0.347111 0)
(1.09865 -0.108675 -5.5958e-24)
(1.09826 -0.195874 0)
(1.09679 0.0785827 -1.16535e-23)
(1.09805 -0.0162829 0)
(1.09296 0.264781 -7.17223e-22)
(1.09499 0.173284 0)
(1.0889 0.425438 -6.66441e-22)
(1.09042 0.349701 1.38214e-21)
(1.0861 0.490013 -9.39785e-22)
(1.00725 0.607032 1.32889e-22)
(1.0241 0.609836 4.90953e-22)
(0.979052 0.59694 1.86439e-21)
(0.992662 0.602885 2.33758e-22)
(0.924139 0.459458 -2.5066e-21)
(0.944812 0.549163 1.7489e-21)
(0.9342 0.509607 -2.56314e-22)
(0.907096 0.329676 6.34743e-25)
(0.915075 0.399511 5.213e-22)
(0.896269 0.166459 -6.01077e-22)
(0.900566 0.250921 0)
(0.893911 -0.0113019 -8.96199e-24)
(0.894047 0.0782689 0)
(0.899389 -0.182828 0)
(0.895762 -0.0990633 0)
(0.911273 -0.32946 -5.9628e-25)
(0.904611 -0.260343 0)
(0.928193 -0.436015 7.21879e-24)
(0.919188 -0.388409 0)
(0.948766 -0.496121 0)
(0.938122 -0.471741 0)
(0.971259 -0.517199 0)
(0.959911 -0.510483 0)
(0.993346 -0.518651 0)
(0.982508 -0.518965 0)
(1.01305 -0.519901 3.80497e-24)
(1.00356 -0.518466 0)
(1.03011 -0.52923 0)
(1.02185 -0.523497 0)
(1.04558 -0.545857 0)
(1.03797 -0.536778 0)
(1.0602 -0.568013 0)
(1.05299 -0.5563 0)
(1.07377 -0.594417 0)
(1.06716 -0.580837 0)
(1.08519 -0.620972 5.23113e-24)
(1.07986 -0.608124 0)
(1.0923 -0.638 0)
(1.08948 -0.63156 0)
(1.09169 -0.628696 3.54305e-26)
(1.09318 -0.637912 0)
(1.08055 -0.572923 0)
(1.08754 -0.607777 0)
(1.05803 -0.453703 8.52814e-22)
(1.0707 -0.521609 0)
(1.02625 -0.272395 -6.91538e-21)
(1.04314 -0.369834 4.57836e-22)
(0.949385 -0.0431291 -7.98493e-21)
(0.990022 -0.052552 8.14937e-21)
(1.00819 -0.165493 -6.77733e-22)
(0.96642 0.58858 -1.14055e-22)
(0.764105 0.0444736 0)
(0.744971 0.0557405 -1.31981e-22)
(0.829146 -0.0918598 -3.34687e-21)
(0.891702 -0.128962 -1.85321e-21)
(1.07917 0.605821 -1.92164e-21)
(0.97285 0.0623744 1.2341e-22)
(1.0328 -0.0631251 7.87497e-21)
(1.0141 0.0534262 -1.60648e-20)
(0.787384 0.0304108 -3.32045e-21)
(0.910649 -0.0324151 -3.77717e-21)
(0.933283 0.07074 7.72509e-21)
(0.754271 0.142123 0)
(0.934152 0.537829 -1.63669e-21)
(0.955419 0.578475 -3.0827e-22)
(0.946222 0.567269 -1.60571e-21)
(0.736483 0.151166 2.41921e-21)
(0.858792 -0.111339 1.76261e-21)
(0.741149 -0.0264381 1.02281e-21)
(0.721858 0.158992 0)
(0.729307 0.0669528 -3.25644e-21)
(0.777094 -0.206706 4.81774e-22)
(0.757263 -0.118699 -4.86921e-22)
(0.82274 -0.358658 4.39697e-22)
(0.799203 -0.287042 -9.54569e-22)
(0.871424 -0.469542 0)
(0.847075 -0.419517 0)
(0.917633 -0.536546 0)
(0.895204 -0.508399 0)
(0.956098 -0.566187 -3.54545e-24)
(0.937984 -0.555143 0)
(0.986243 -0.571738 0)
(0.972127 -0.571244 0)
(1.00929 -0.564146 0)
(0.998562 -0.56898 0)
(1.02704 -0.551787 0)
(1.01869 -0.55817 0)
(1.0415 -0.540279 0)
(1.03458 -0.545625 0)
(1.05403 -0.534263 -1.71744e-24)
(1.04793 -0.536334 0)
(1.06579 -0.535901 0)
(1.05993 -0.534228 0)
(1.07799 -0.539556 0)
(1.07178 -0.538229 0)
(1.09119 -0.52999 0)
(1.08448 -0.537602 0)
(1.10461 -0.488745 0)
(1.09796 -0.514299 0)
(1.11637 -0.40368 1.66515e-25)
(1.1108 -0.45197 0)
(1.12455 -0.273921 -1.77557e-25)
(1.12096 -0.34394 0)
(1.12807 -0.108457 5.59531e-24)
(1.12692 -0.194747 0)
(1.12688 0.077032 0)
(1.12799 -0.0170446 0)
(1.12226 0.262284 0)
(1.1248 0.171155 0)
(1.11579 0.422964 1.29146e-21)
(1.11872 0.347654 0)
(1.10771 0.537995 -2.81393e-21)
(1.11095 0.487467 5.6803e-22)
(1.09805 0.600304 3.6574e-21)
(1.10275 0.575768 -1.18805e-22)
(1.0423 0.626962 -4.6868e-22)
(1.07546 0.620015 4.03724e-22)
(1.05847 0.624471 0)
(1.01084 0.625083 0)
(1.02604 0.627092 0)
(0.9858 0.615803 -2.34235e-22)
(0.997633 0.621326 8.66353e-22)
(0.965811 0.599049 1.01639e-21)
(0.975074 0.608256 -1.61906e-21)
(0.910578 0.449324 -6.92492e-24)
(0.922107 0.498598 -1.95683e-21)
(0.890918 0.321754 7.01653e-25)
(0.900136 0.390354 0)
(0.878333 0.162796 -1.69159e-23)
(0.883536 0.245137 0)
(0.874832 -0.0105068 7.64563e-25)
(0.875373 0.0766599 0)
(0.880224 -0.178218 0)
(0.87651 -0.0962413 0)
(0.893165 -0.321748 -6.57468e-25)
(0.885841 -0.254089 0)
(0.912229 -0.425924 0)
(0.90203 -0.379414 0)
(0.935809 -0.484476 0)
(0.923577 -0.460757 0)
(0.961734 -0.505114 0)
(0.948653 -0.498457 0)
(0.987164 -0.507373 0)
(0.974691 -0.507149 0)
(1.00992 -0.510033 0)
(0.998936 -0.507885 0)
(1.02996 -0.520425 -3.11886e-24)
(1.02021 -0.51424 0)
(1.04857 -0.537542 0)
(1.03937 -0.52827 0)
(1.06666 -0.560005 -3.48131e-24)
(1.05766 -0.548133 0)
(1.08425 -0.586962 0)
(1.07554 -0.573048 0)
(1.10056 -0.614832 -5.23113e-24)
(1.09266 -0.601188 0)
(1.11348 -0.634625 0)
(1.10765 -0.626577 0)
(1.11935 -0.630019 1.70642e-25)
(1.11756 -0.636664 0)
(1.1144 -0.579136 0)
(1.11841 -0.611743 0)
(1.09667 -0.464095 3.27121e-23)
(1.10713 -0.530182 0)
(1.06823 -0.284585 -2.91788e-21)
(1.08338 -0.381134 -1.33043e-21)
(1.05087 -0.177045 2.47657e-21)
(0.95684 0.175373 7.62911e-21)
(0.996343 0.168177 8.4102e-21)
(1.09206 0.613593 0)
(0.732439 0.240975 -6.58811e-21)
(0.719148 0.243062 2.3126e-21)
(0.813588 0.0129881 3.13005e-21)
(0.87515 -0.0194994 9.00645e-22)
(0.957991 0.58827 -1.40377e-21)
(0.776223 0.130839 0)
(0.895938 0.0800848 0)
(0.748784 0.235706 -2.79797e-21)
(0.919205 0.182525 0)
(0.979606 0.277524 0)
(0.942777 0.282579 -7.70574e-21)
(0.733867 0.321429 7.60515e-21)
(1.11708 0.592843 -6.8331e-21)
(1.10843 0.605544 1.82235e-21)
(0.722821 0.319769 3.48689e-23)
(0.842774 -0.00447476 7.42752e-22)
(0.709944 0.163306 -1.59613e-21)
(0.714354 0.315327 -6.86841e-22)
(0.709411 0.243727 1.63708e-21)
(0.72702 -0.0123926 9.62799e-25)
(0.716082 0.0769104 -4.19686e-22)
(0.761266 -0.186239 -2.74666e-24)
(0.742298 -0.101196 4.0976e-22)
(0.806805 -0.334792 0)
(0.783119 -0.264509 0)
(0.856363 -0.445164 0)
(0.831476 -0.395132 0)
(0.90422 -0.514449 0)
(0.880821 -0.484767 0)
(0.945664 -0.548268 2.95627e-24)
(0.925938 -0.535111 0)
(0.979123 -0.557724 0)
(0.963357 -0.555343 0)
(1.00547 -0.553285 0)
(0.993092 -0.556663 0)
(1.02642 -0.543071 0)
(1.01649 -0.548503 0)
(1.0439 -0.53286 -1.19671e-24)
(1.03549 -0.537646 0)
(1.05942 -0.527483 1.40868e-24)
(1.05182 -0.529312 0)
(1.07438 -0.529101 0)
(1.06688 -0.527519 0)
(1.09012 -0.532233 0)
(1.08209 -0.5312 0)
(1.10716 -0.522249 0)
(1.0985 -0.530007 0)
(1.12448 -0.481392 0)
(1.11591 -0.506625 0)
(1.13985 -0.397789 2.18682e-25)
(1.13256 -0.445237 0)
(1.151 -0.270344 -2.36397e-25)
(1.14606 -0.339168 0)
(1.1565 -0.107634 -5.16875e-24)
(1.15451 -0.192568 0)
(1.1561 0.0753821 0)
(1.15699 -0.0175519 0)
(1.15087 0.25895 0)
(1.15396 0.16852 0)
(1.14222 0.418889 -9.53683e-24)
(1.14677 0.343457 0)
(1.13096 0.532618 -3.07893e-23)
(1.1362 0.482976 0)
(1.12356 0.569539 -8.86995e-22)
(1.06959 0.62578 -4.00775e-22)
(1.09904 0.609078 2.82462e-22)
(1.08434 0.618323 0)
(1.04069 0.63454 0)
(1.05486 0.631144 -3.74743e-22)
(1.01354 0.634697 0)
(1.02669 0.635798 0)
(0.991864 0.626899 1.17214e-21)
(1.00201 0.631699 0)
(0.97539 0.611873 1.60416e-21)
(0.982987 0.620263 -8.79686e-22)
(0.969082 0.601987 -2.74029e-22)
(0.925218 0.5252 -1.97228e-22)
(0.95169 0.57619 1.14543e-22)
(0.938605 0.554731 1.38007e-21)
(0.89927 0.43807 6.50699e-25)
(0.911919 0.48634 1.95253e-22)
(0.877246 0.312911 7.41989e-25)
(0.887528 0.379902 0)
(0.862987 0.15837 7.95655e-25)
(0.868983 0.238421 0)
(0.85843 -0.0100525 8.07526e-25)
(0.859438 0.0746998 0)
(0.863567 -0.173437 0)
(0.85985 -0.0935609 0)
(0.877303 -0.313293 -7.02399e-25)
(0.869451 -0.247378 0)
(0.898214 -0.41458 -5.52691e-24)
(0.886969 -0.369409 0)
(0.924494 -0.471239 0)
(0.910829 -0.448319 0)
(0.953515 -0.491379 0)
(0.938873 -0.484776 0)
(0.98193 -0.494576 0)
(0.967998 -0.493739 0)
(1.00744 -0.498734 -2.95937e-24)
(0.995094 -0.495846 0)
(1.03021 -0.510147 3.11886e-24)
(1.01907 -0.503546 0)
(1.05174 -0.527626 0)
(1.04104 -0.518234 0)
(1.07308 -0.550184 3.48131e-24)
(1.06241 -0.538273 0)
(1.09449 -0.577341 0)
(1.08379 -0.563288 0)
(1.11549 -0.606043 -4.78076e-24)
(1.10512 -0.591858 0)
(1.13417 -0.628134 0)
(1.12532 -0.618694 0)
(1.14678 -0.628086 1.63244e-23)
(1.14153 -0.632146 0)
(1.14862 -0.58385 0)
(1.14932 -0.612948 0)
(1.13641 -0.475309 1.25696e-23)
(1.14435 -0.53836 0)
(1.11066 -0.299566 -1.00817e-21)
(1.12497 -0.395205 -9.20183e-22)
(1.07562 -0.0766247 -3.72878e-21)
(1.09374 -0.191793 5.9664e-21)
(1.03602 0.1591 -7.83841e-21)
(1.05607 0.0418489 7.80288e-21)
(0.964567 0.377136 -6.32433e-21)
(0.999722 0.369691 0)
(1.01657 0.270061 0)
(0.729921 0.383414 4.02713e-21)
(0.723143 0.3718 -2.22632e-21)
(0.801117 0.11773 -3.26493e-21)
(0.861254 0.0916117 0)
(0.98331 0.458049 0)
(0.951926 0.463618 6.68712e-21)
(0.768766 0.228601 -7.29973e-23)
(0.883187 0.19113 8.80657e-22)
(0.748116 0.321196 -2.3034e-21)
(0.907101 0.288766 1.14264e-22)
(1.08828 0.606478 -9.20132e-22)
(1.11327 0.598035 -8.27223e-23)
(1.10077 0.594538 0)
(0.739411 0.390505 -2.08975e-21)
(0.930465 0.380369 -4.37779e-22)
(0.74348 0.431224 1.36746e-21)
(0.964121 0.590767 -1.03432e-22)
(0.739302 0.415702 0)
(0.829341 0.104255 1.81586e-23)
(0.708594 0.306863 -7.73057e-22)
(0.737927 0.397994 0)
(0.71988 0.359415 1.42454e-21)
(0.70142 0.167247 3.1036e-22)
(0.702186 0.242489 -3.17123e-22)
(0.715938 0.000250632 0)
(0.706096 0.0851777 0)
(0.748788 -0.16624 2.71726e-24)
(0.730446 -0.0844041 0)
(0.793604 -0.310661 1.89857e-24)
(0.770134 -0.24218 0)
(0.843607 -0.420166 0)
(0.818364 -0.370187 0)
(0.892786 -0.491391 0)
(0.868616 -0.460422 0)
(0.936562 -0.528889 -3.13301e-25)
(0.915553 -0.51381 0)
(0.972903 -0.542119 0)
(0.955666 -0.537891 0)
(1.00228 -0.540845 0)
(0.988379 -0.542748 0)
(1.02623 -0.532857 0)
(1.01481 -0.537294 0)
(1.04658 -0.524011 1.19671e-24)
(1.03675 -0.52821 0)
(1.06492 -0.519251 -1.40868e-24)
(1.05591 -0.520865 0)
(1.08285 -0.520722 -1.53492e-24)
(1.07384 -0.519306 0)
(1.10185 -0.52316 0)
(1.09215 -0.522508 0)
(1.1224 -0.512633 0)
(1.11197 -0.52059 0)
(1.1433 -0.472177 0)
(1.13295 -0.497057 0)
(1.16204 -0.390269 2.64703e-25)
(1.15311 -0.436719 0)
(1.17603 -0.265576 -2.88185e-25)
(1.16976 -0.332938 0)
(1.18351 -0.106131 5.16875e-24)
(1.18065 -0.18942 0)
(1.18402 0.0738383 1.0001e-23)
(1.18459 -0.0176486 0)
(1.17851 0.255071 0)
(1.18191 0.16572 0)
(1.16825 0.413169 8.55687e-24)
(1.17384 0.338646 0)
(1.15388 0.52515 -4.62771e-22)
(1.16121 0.476158 0)
(1.13575 0.583341 4.78944e-21)
(1.1445 0.561181 1.13421e-21)
(1.12475 0.595307 -1.38508e-21)
(1.06295 0.624907 0)
(1.07559 0.616665 0)
(1.03793 0.635669 0)
(1.05016 0.631272 3.7173e-22)
(1.01513 0.637876 0)
(1.02615 0.63791 0)
(0.997116 0.632025 -5.52121e-22)
(1.00545 0.635836 0)
(0.983996 0.618893 -5.17215e-22)
(0.989966 0.626322 4.59405e-22)
(0.946869 0.563146 2.47599e-21)
(0.96055 0.578347 -1.22905e-21)
(0.97582 0.599562 1.18972e-21)
(0.979354 0.609983 5.26248e-22)
(0.918083 0.511589 -4.98835e-24)
(0.93271 0.541333 -7.56824e-22)
(0.890012 0.425349 1.16885e-23)
(0.903774 0.473084 0)
(0.866083 0.303245 7.66567e-25)
(0.877238 0.368427 0)
(0.850287 0.153285 8.216e-25)
(0.857004 0.23093 0)
(0.844673 -0.00999854 7.39044e-24)
(0.846157 0.0721911 0)
(0.849444 -0.168585 0)
(0.845802 -0.0910502 0)
(0.863749 -0.304255 -7.32042e-25)
(0.855487 -0.240342 0)
(0.886227 -0.402173 5.52691e-24)
(0.874079 -0.35857 0)
(0.914894 -0.456621 -4.06687e-24)
(0.899958 -0.434631 0)
(0.94665 -0.476208 0)
(0.930634 -0.469653 0)
(0.977666 -0.480453 0)
(0.962466 -0.478942 0)
(1.00558 -0.486168 3.58359e-25)
(0.992045 -0.482526 0)
(1.03081 -0.498537 0)
(1.01843 -0.491564 0)
(1.05502 -0.516248 0)
(1.04295 -0.506807 0)
(1.07936 -0.538686 0)
(1.06713 -0.526859 0)
(1.10431 -0.565686 0)
(1.09175 -0.551692 0)
(1.1297 -0.594707 4.78075e-24)
(1.11701 -0.580254 0)
(1.1539 -0.618481 0)
(1.14214 -0.607963 0)
(1.17318 -0.622395 -1.56149e-23)
(1.16448 -0.624154 0)
(1.18207 -0.584554 0)
(1.17929 -0.610191 0)
(1.1757 -0.483427 -1.25714e-23)
(1.18097 -0.542815 0)
(1.15313 -0.313038 0)
(1.16631 -0.406219 0)
(1.11832 -0.0926722 -4.84396e-22)
(1.13682 -0.207161 4.83603e-22)
(1.07702 0.143637 1.43877e-21)
(1.09804 0.0259627 -1.86516e-21)
(1.03568 0.357923 -3.47581e-21)
(1.056 0.255152 3.50129e-21)
(0.969781 0.529184 -5.47082e-21)
(0.999182 0.519763 5.30289e-21)
(1.01558 0.447532 0)
(0.760698 0.444249 2.25199e-21)
(0.761377 0.42315 0)
(0.94094 0.534757 0)
(0.958532 0.583515 5.13557e-21)
(0.984282 0.574976 -4.68899e-21)
(0.791989 0.220007 1.49838e-21)
(0.849592 0.200998 0)
(0.765758 0.318657 3.99348e-21)
(0.872776 0.296712 -8.73338e-22)
(1.07701 0.599555 -7.18169e-22)
(1.08781 0.586849 1.00149e-21)
(0.751595 0.39516 0)
(0.897101 0.386311 0)
(0.750487 0.444169 -1.87305e-21)
(0.920686 0.465488 3.91754e-22)
(0.762508 0.463826 -2.46088e-21)
(0.973397 0.588067 -1.20196e-21)
(0.788202 0.436818 1.8424e-21)
(0.785724 0.460383 5.04544e-23)
(0.932916 0.587806 5.0731e-21)
(0.950017 0.620364 4.53994e-21)
(0.972717 0.61259 -4.12547e-21)
(0.815155 0.444062 -7.39289e-22)
(0.792697 0.412619 -5.25315e-22)
(1.12735 0.585133 -2.21276e-21)
(1.11308 0.580979 1.28265e-22)
(0.82036 0.419672 3.02904e-22)
(0.818756 0.211029 8.04129e-22)
(0.739872 0.378712 -5.31561e-22)
(0.764571 0.400685 7.014e-22)
(0.706282 0.297442 2.39046e-22)
(0.71962 0.344443 -8.57759e-22)
(0.69601 0.168787 0)
(0.698126 0.23806 0)
(0.708247 0.0118658 1.68183e-24)
(0.699482 0.0921265 0)
(0.739261 -0.146812 -1.6127e-24)
(0.721752 -0.068658 0)
(0.783091 -0.28661 -1.89857e-24)
(0.759992 -0.220039 0)
(0.833103 -0.394869 0)
(0.807731 -0.345117 0)
(0.883181 -0.467595 0)
(0.85846 -0.435586 0)
(0.928739 -0.508295 -3.18979e-25)
(0.906729 -0.491492 0)
(0.967526 -0.52511 0)
(0.949013 -0.519104 0)
(0.999629 -0.526955 0)
(0.984348 -0.527391 0)
(1.02636 -0.521232 0)
(1.01356 -0.524647 0)
(1.04941 -0.513801 0)
(1.03824 -0.517392 0)
(1.0704 -0.509638 0)
(1.06006 -0.511058 0)
(1.09106 -0.510857 1.53492e-24)
(1.08066 -0.509669 0)
(1.113 -0.512464 0)
(1.10181 -0.512261 0)
(1.13669 -0.501304 0)