/*--------------------------------*- C++ -*----------------------------------*\
  =========                 |
  \\      /  F ield         | OpenFOAM: The Open Source CFD Toolbox
   \\    /   O peration     | Website:  https://openfoam.org
    \\  /    A nd           | Version:  10
     \\/     M anipulation  |
\*---------------------------------------------------------------------------*/
FoamFile
{
    format      ascii;
    class       volScalarField;
    location    "15";
    object      p;
}
// * * * * * * * * * * * * * * * * * * * * * * * * * * * * * * * * * * * * * //

dimensions      [0 2 -2 0 0 0 0];

internalField   nonuniform List<scalar> 
28942
(
-2.73056
-2.76781
-3.47478
0.74657
0.795894
-0.0635915
-0.053777
-0.0632339
-0.526438
-0.46176
-6.37858
-6.35186
-6.25782
-6.26866
-0.0320555
-0.0209816
2.59992
2.7036
-1.15321
-0.0462971
2.13232
2.12362
-6.63932
-6.6228
-6.8546
-6.28242
3.68015
4.01066
-1.86646
-1.84948
-0.149329
-0.145562
0.0255004
-0.0407585
1.47142
1.77193
3.19001
3.81631
-0.0810688
3.00439
1.75398
1.71381
0.13493
0.16066
0.200436
-0.0480541
-0.0424362
-0.034373
-0.0347329
-0.0316213
-0.0178347
-0.0445031
-0.0554863
-0.523075
-0.445495
-4.59045
-3.82427
-6.41228
-6.29437
-6.39215
-6.44266
-6.44566
-6.44554
-2.6728
-3.20167
-2.03457
-1.62019
1.89571
1.70342
-2.67217
-2.73609
-2.83827
1.6631
1.6606
1.5869
-1.08365
-1.08183
-0.627196
-3.32824
-3.94503
-3.00445
-4.07588
-2.76474
-2.82738
0.229692
0.727714
1.17612
1.07696
0.689809
0.815272
1.03061
1.28558
-6.60469
-6.466
-6.23537
-6.25534
-6.36449
1.17863
1.36348
-2.96869
0.839429
0.85466
0.911633
0.844208
0.103326
0.103329
0.0776824
1.29155
1.33054
1.33744
-6.38865
-6.37406
-3.04107
-2.99916
-2.78255
5.02428
4.67441
4.57301
4.8617
0.387847
1.20944
0.847469
-1.33331
-1.5821
5.18756
5.2784
5.05983
-1.45961
-1.09803
-0.034843
-0.0290214
-0.0393841
1.43704
2.28993
1.43472
1.39984
1.60362
-0.305706
0.847433
2.60719
-7.12366
-6.98345
-1.14223
0.253225
0.257658
-3.24518
-3.31884
-2.97845
-6.83997
1.66828
1.51982
0.391823
-0.104173
-0.115966
-0.110277
-0.107307
2.10588
1.43154
-5.3394
-4.42201
-4.15575
-2.43626
-2.1619
-0.0757132
-5.83821
-5.6719
2.26816
2.37054
2.54822
2.45255
2.13296
0.673258
0.657767
-0.263203
-0.297975
1.17257
1.11201
1.21157
1.26398
1.25703
1.31771
1.38758
1.58251
1.47702
1.38671
1.50442
1.70175
2.03626
2.10401
-2.04242
-1.16337
-2.8473
-0.0469138
-0.0295512
-4.81146
-4.29924
-0.0269865
-0.0206001
-0.0224776
-0.0316237
-1.31772
-1.37654
-1.36568
-6.37477
-6.51453
-6.68798
-6.52502
-6.52792
-6.50019
-6.73131
-6.99013
-6.80529
4.97503
4.82072
5.01815
0.138073
0.173007
0.144285
2.30529
2.20642
2.27378
-2.34251
-2.12288
-2.59653
-1.94132
-1.79775
-1.69103
-1.67312
-1.61722
-1.591
-1.78748
-1.94047
-2.13229
-2.36496
-2.63078
-1.57483
-1.53857
-2.88019
-2.93305
-3.19097
-1.56028
-1.51435
-3.2564
-1.57121
-1.60858
-1.51643
-1.54429
-3.49452
-3.57502
-1.67266
-1.59735
-3.78134
-3.87571
-1.76351
-1.67582
-4.03173
-4.13863
-1.8786
-1.77727
-4.22414
-4.34203
-2.0141
-1.89834
-4.34277
-4.46846
-2.16215
-2.03181
-4.37737
-4.50918
-2.31427
-2.17006
-4.32887
-4.45055
-2.45743
-2.30126
-4.19326
-4.30575
-2.58046
-2.41711
-3.98354
-4.08228
-2.67037
-2.50626
-3.71062
-3.79385
-2.72586
-2.55934
-3.40426
-3.46814
-2.73145
-2.56914
-3.5472
-3.26281
-3.08071
-3.1312
-3.98965
-3.79668
-4.16193
-4.11491
-4.01594
-4.12789
-3.59844
-3.83465
-3.03432
-3.32651
-2.50096
-2.76062
-2.06564
-2.26485
-1.76951
-1.9002
-1.60981
-1.6738
-1.5711
-1.57674
-1.63999
-1.59198
-1.81995
-1.71611
-2.09715
-1.94873
-2.41934
-2.2573
-2.69957
-2.57091
-2.84523
-2.79409
-2.84567
-2.68437
-2.5318
-2.31773
-2.37345
-2.3636
-2.13161
-2.237
-1.88465
-2.0102
-1.65732
-1.76454
-1.50248
-1.56894
-1.44033
-1.45951
-1.47652
-1.44575
-1.62195
-1.5347
-1.90033
-1.74361
-2.3329
-2.09668
-2.91152
-2.60793
-3.55542
-3.22894
-4.13486
-3.86455
-4.47627
-4.34481
-4.45998
-4.5178
-4.08382
-4.31313
-3.45848
-3.79167
-3.11074
-2.96283
-2.79436
-2.34358
-2.79855
-2.77439
-2.67205
-2.76445
-3.31011
-2.78043
-3.05063
-3.71687
-3.53902
-3.87491
-3.83117
-3.74578
-3.84769
-3.36122
-3.57885
-2.85006
-3.11172
-2.35824
-2.59647
-1.96646
-2.14864
-1.70653
-1.81753
-1.57467
-1.62591
-1.55706
-1.55249
-1.64647
-1.58814
-1.84659
-1.73295
-2.13939
-1.98392
-2.47289
-2.30556
-2.76144
-2.62923
-2.90873
-2.85811
-2.5887
-2.69316
-2.85329
-2.90708
-2.15427
-2.13056
-2.26653
-2.44613
-2.10281
-2.14459
-1.93443
-2.03036
-1.71494
-1.82594
-1.51783
-1.60996
-1.38858
-1.44321
-1.34389
-1.35524
-1.39174
-1.35568
-1.54467
-1.45394
-1.82659
-1.66802
-2.25657
-2.02238
-2.82742
-2.52948
-3.46633
-3.14435
-4.04235
-3.77289
-4.38534
-4.25227
-4.37131
-4.42981
-4.00005
-4.22489
-3.38443
-3.71213
-2.70509
-3.03828
-2.52566
-2.46907
-2.40043
-2.49863
-2.75125
-2.0687
-2.41758
-2.30583
-2.20613
-2.13695
-2.47995
-2.86332
-2.75927
-2.15885
-1.97854
-2.13534
-2.1152
-1.74928
-1.94412
-2.54568
-2.32859
-3.01906
-2.78299
-3.39041
-3.2279
-3.53562
-3.49387
-3.42234
-3.51229
-3.0803
-3.27384
-2.62817
-2.85912
-2.18901
-2.40103
-1.84229
-2.00177
-1.61897
-1.71426
-1.51503
-1.55319
-1.51823
-1.50377
-1.62494
-1.55845
-1.83728
-1.71829
-2.13839
-1.97893
-2.48013
-2.30883
-2.77353
-2.63957
-2.92005
-2.87036
-2.91919
-2.45745
-2.60783
-2.55433
-2.32199
-1.92271
-1.85585
-1.90369
-1.86998
-1.91135
-1.72176
-1.80605
-1.53163
-1.62727
-1.36454
-1.44207
-1.25923
-1.30286
-1.23093
-1.23497
-1.28818
-1.24825
-1.44455
-1.35282
-1.72216
-1.5668
-2.14124
-1.91338
-2.69136
-2.40301
-3.30888
-2.9981
-3.86592
-3.60513
-4.20067
-4.06974
-4.18892
-4.2504
-3.82922
-4.04528
-3.24432
-3.55547
-2.59813
-2.91778
-2.04246
-2.30262
-1.91503
-1.82321
-2.21235
-2.24292
-2.61406
-1.77998
-1.93074
-1.98483
-1.55396
-1.64414
-1.73407
-1.29964
-1.25976
-2.24955
-1.54538
-1.40298
-1.91551
-1.72658
-2.28003
-2.09308
-2.69142
-2.4847
-3.02341
-2.87804
-3.15649
-3.11742
-3.06073
-3.13755
-2.76587
-2.93286
-2.37404
-2.57463
-1.99344
-2.17676
-1.69626
-1.8318
-1.51045
-1.58919
-1.43225
-1.45865
-1.45316
-1.43059
-1.57212
-1.5002
-1.79164
-1.66953
-2.0985
-1.93622
-2.44317
-2.27107
-2.7348
-2.60205
-2.87768
-2.82984
-2.81949
-2.87546
-2.57058
-2.71461
-2.43681
-2.39863
-2.44028
-2.30186
-2.38922
-2.03439
-2.17987
-1.68788
-1.86946
-1.62853
-1.49324
-1.56962
-1.67974
-1.66588
-1.6316
-1.66943
-1.5009
-1.57347
-1.34025
-1.4207
-1.20258
-1.26594
-1.11999
-1.15332
-1.10592
-1.10387
-1.16978
-1.12746
-1.32522
-1.23493
-1.59323
-1.44379
-1.99168
-1.77585
-2.50998
-2.23831
-3.09065
-2.79842
-3.61527
-3.36967
-3.92986
-3.80694
-3.92039
-3.97731
-3.58269
-3.78567
-3.0393
-3.32713
-2.44555
-2.7395
-1.92482
-2.17185
-1.5368
-1.71195
-1.50308
-1.39798
-2.03653
-2.03766
-1.74601
-1.80608
-2.484
-2.3187
-1.58692
-1.40935
-1.46353
-1.59134
-1.27961
-1.20017
-1.39345
-1.28985
-1.18993
-2.0617
-1.36498
-1.25229
-1.68121
-1.51454
-2.00561
-1.84393
-2.35125
-2.17665
-2.63739
-2.51068
-2.75566
-2.72047
-2.67721
-2.74103
-2.42957
-2.57002
-2.09863
-2.26824
-1.77824
-1.93224
-1.53163
-1.6434
-1.38202
-1.44453
-1.32763
-1.34342
-1.36368
-1.33438
-1.49216
-1.4161
-1.71667
-1.59257
-2.02406
-1.86223
-2.36333
-2.1945
-2.64767
-2.51843
-2.7852
-2.73938
-2.72446
-2.78054
-2.6228
-2.25327
-2.21172
-2.25288
-2.13692
-2.21433
-1.90261
-2.03159
-1.75312
-1.39806
-1.29448
-1.35208
-1.43784
-1.42724
-1.39206
-1.42512
-1.28106
-1.34227
-1.14874
-1.21455
-1.03835
-1.08875
-0.975923
-1.00024
-0.973637
-0.966712
-1.04126
-0.998067
-1.19193
-1.10518
-1.44478
-1.30436
-1.8148
-1.61504
-2.29178
-2.04202
-2.8243
-2.55637
-3.30531
-3.08013
-3.58954
-3.48027
-3.57956
-3.6231
-3.277
-3.46069
-2.78164
-3.04392
-2.24765
-2.51111
-1.7758
-2.00049
-1.41416
-1.57986
-1.17148
-1.27915
-1.20758
-1.09094
-1.86588
-1.86581
-2.13464
-1.2234
-1.5892
-1.32745
-1.40134
-1.66733
-1.4831
-1.19435
-1.19932
-1.2993
-1.31223
-1.15145
-1.03275
-1.89582
-1.09423
-1.08135
-1.08729
-1.19978
-1.12524
-1.45329
-1.31521
-1.73009
-1.59286
-2.01339
-1.87076
-2.25058
-2.14467
-2.35147
-2.32113
-2.2891
-2.34073
-2.08635
-2.20152
-1.8146
-1.95388
-1.55274
-1.67829
-1.35404
-1.44356
-1.23816
-1.28555
-1.20556
-1.21167
-1.25523
-1.21994
-1.39136
-1.31221
-1.61683
-1.49319
-1.91748
-1.75991
-2.2448
-2.08232
-2.51675
-2.39353
-2.64653
-2.60358
-2.58713
-2.64082
-2.35622
-2.48986
-2.02341
-2.19741
-2.02391
-1.84648
-1.94857
-2.07079
-2.06508
-1.97624
-2.03917
-1.7734
-1.88694
-1.4853
-1.6375
-1.15247
-1.32264
-1.09132
-0.980869
-1.03704
-1.17392
-1.13938
-1.20091
-1.19617
-1.15991
-1.18851
-1.06799
-1.11825
-0.961715
-1.01423
-0.87578
-0.914562
-0.830976
-0.847499
-0.838193
-0.827532
-0.907052
-0.864287
-1.04995
-0.968305
-1.28366
-1.15444
-1.61988
-1.43897
-2.04834
-1.82445
-2.52442
-2.28499
-2.95399
-2.75298
-3.20414
-3.1097
-3.19323
-3.22262
-2.92969
-3.09129
-2.4887
-2.72301
-2.01216
-2.24649
-1.59654
-1.794
-1.27189
-1.42223
-1.04373
-1.14544
-0.908057
-0.965487
-0.994332
-0.86689
-1.70093
-1.0866
-1.49282
-1.88467
-1.72114
-1.08341
-0.928034
-1.72512
-1.56019
-1.37826
-1.40253
-1.25541
-1.11333
-0.970989
-0.841002
-1.74661
-0.948702
-1.11224
-0.982019
-0.954946
-0.96975
-0.958472
-1.04275
-0.992162
-1.23494
-1.12737
-1.46055
-1.34826
-1.68706
-1.57363
-1.87792
-1.79216
-1.96105
-1.93577
-1.91279
-1.95345
-1.75121
-1.84311
-1.53427
-1.6454
-1.3263
-1.42576
-1.171
-1.24045
-1.08552
-1.11927
-1.07249
-1.06994
-1.13375
-1.09358
-1.27404
-1.19379
-1.49516
-1.37478
-1.78358
-1.63294
-2.09389
-1.94031
-2.34889
-2.23365
-2.46925
-2.42961
-2.41254
-2.46348
-2.19369
-2.32026
-2.04526
-1.84521
-1.67683
-1.77422
-1.89753
-1.8877
-1.82628
-1.87601
-1.65035
-1.75054
-1.38891
-1.5279
-1.2395
-0.896372
-0.813794
-0.855159
-0.959892
-0.933193
-0.97693
-0.974921
-0.941047
-0.965234
-0.86695
-0.907065
-0.783957
-0.824658
-0.719289
-0.748095
-0.68907
-0.699227
-0.703308
-0.690086
-0.771283
-0.730006
-0.904066
-0.828749
-1.11593
-0.999314
-1.41532
-1.25483
-1.7916
-1.59552
-2.20667
-1.99809
-2.58085
-2.40573
-2.79912
-2.71656
-2.78916
-2.81773
-2.56063
-2.70044
-2.17845
-2.3819
-1.75877
-1.96566
-1.39557
-1.56724
-1.1134
-1.24456
-0.909005
-1.0014
-0.77953
-0.83624
-0.707781
-0.737331
-1.31197
-1.22047
-0.826818
-0.69035
-1.58096
-1.56339
-0.773161
-1.02979
-1.61488
-1.15826
-1.44835
-1.4806
-1.38196
-1.34949
-1.22226
-1.09445
-0.961834
-0.824521
-0.681099
-1.62752
-0.848349
-1.09619
-0.958714
-0.895413
-0.816862
-0.823727
-0.830717
-0.820339
-0.888508
-0.851684
-1.02872
-0.948705
-1.20661
-1.11737
-1.38296
-1.29523
-1.53155
-1.46446
-1.59787
-1.57737
-1.56116
-1.59243
-1.43589
-1.50722
-1.26746
-1.3537
-1.10691
-1.18347
-0.989538
-1.04148
-0.930524
-0.952402
-0.934103
-0.924339
-1.00365
-0.960363
-1.14395
-1.06473
-1.35663
-1.24151
-1.62878
-1.48719
-1.91765
-1.77507
-2.15271
-2.0467
-2.26245
-2.22671
-2.20854
-2.25619
-2.00794
-2.12321
-1.7239
-1.87098
-1.43085
-1.57582
-1.52444
-1.29482
-1.41689
-1.68384
-1.61417
-1.74249
-1.72712
-1.69039
-1.7299
-1.5366
-1.62526
-1.30229
-1.42733
-1.02434
-1.1662
-0.736515
-0.879813
-0.65188
-0.595627
-0.622624
-0.714642
-0.683517
-0.759162
-0.739938
-0.769754
-0.769732
-0.739432
-0.759255
-0.681297
-0.712487
-0.618498
-0.649014
-0.571639
-0.592158
-0.55323
-0.558316
-0.57235
-0.557574
-0.637681
-0.598722
-0.758896
-0.690616
-0.947591
-0.844208
-1.20922
-1.06957
-1.53264
-1.36469
-1.88575
-1.70855
-2.20366
-2.05478
-2.39091
-2.3195
-2.38271
-2.40932
-2.18737
-2.30631
-1.86371
-2.03569
-1.50379
-1.68247
-1.18776
-1.33715
-0.9447
-1.05728
-0.768756
-0.848872
-0.649663
-0.702897
-0.576762
-0.60813
-0.541612
-0.555186
-1.36286
-1.27428
-0.681614
-0.535751
-1.51197
-1.53487
-1.03725
-1.18023
-1.22325
-1.43363
-1.42937
-1.28633
-1.16325
-0.705633
-0.574633
-1.40805
-1.3201
-1.2092
-1.09232
-0.967283
-0.83315
-1.13394
-0.976926
-1.08471
-0.693331
-0.538462
-1.2549
-1.54723
-0.817375
-0.889094
-0.718446
-0.75957
-0.684808
-0.694945
-0.693296
-0.684619
-0.738055
-0.710466
-0.83777
-0.780402
-0.972828
-0.904235
-1.10653
-1.04052
-1.21866
-1.16778
-1.2699
-1.25379
-1.24253
-1.266
-1.14796
-1.20185
-1.0207
-1.08583
-0.900257
-0.957482
-0.814848
-0.852054
-0.777829
-0.789909
-0.794346
-0.77917
-0.868646
-0.823983
-1.00576
-0.9291
-1.20708
-1.09872
-1.45961
-1.32874
-1.72393
-1.59382
-1.93715
-1.84125
-2.03556
-2.00384
-1.98582
-2.0292
-1.80527
-1.90892
-1.54964
-1.68275
-1.41616
-1.38972
-1.17166
-1.28773
-1.54285
-1.47537
-1.60809
-1.588
-1.57042
-1.60209
-1.43661
-1.51444
-1.22808
-1.33986
-0.975607
-1.10509
-0.841198
-0.500859
-0.462688
-0.479913
-0.545882
-0.52444
-0.577142
-0.564061
-0.582286
-0.583592
-0.557481
-0.573244
-0.513269
-0.536732
-0.467421
-0.489475
-0.434962
-0.448846
-0.425628
-0.426898
-0.447768
-0.432277
-0.509177
-0.473123
-0.618041
-0.557106
-0.783593
-0.693313
-1.00853
-0.889036
-1.28109
-1.14019
-1.57449
-1.42759
-1.83773
-1.71438
-1.99443
-1.93413
-1.98857
-2.01157
-1.82517
-1.92432
-1.55566
-1.6987
-1.25559
-1.40529
-0.985359
-1.11394
-0.775883
-0.872596
-0.625659
-0.694148
-0.520098
-0.568185
-0.448571
-0.480426
-0.405927
-0.423705
-0.392923
-0.396677
-1.28578
-0.549297
-0.713508
-0.56699
-0.404513
-0.396018
-1.43522
-1.33916
-1.48051
-1.48576
-1.05159
-0.450075
-1.30878
-1.43909
-1.40488
-1.46186
-1.31397
-1.21604
-1.10853
-0.988384
-0.855856
-1.21743
-1.02184
-1.16473
-0.257279
-0.266332
-0.42141
-1.38669
-1.40282
-1.41856
-0.74655
-0.592578
-1.50347
-0.818341
-0.908749
-0.682099
-0.743237
-0.595072
-0.633438
-0.55606
-0.569136
-0.557947
-0.553048
-0.591218
-0.570449
-0.662552
-0.621761
-0.761988
-0.710896
-0.860929
-0.812441
-0.942764
-0.905545
-0.980838
-0.968704
-0.960949
-0.978125
-0.891334
-0.931031
-0.797657
-0.84555
-0.70991
-0.751381
-0.650411
-0.675699
-0.630791
-0.635221
-0.656623
-0.637754
-0.732805
-0.6881
-0.864383
-0.79146
-1.05196
-0.951566
-1.28258
-1.16351
-1.52075
-1.40388
-1.71109
-1.62567
-1.79833
-1.77026
-1.7539
-1.79255
-1.59426
-1.68577
-1.37026
-1.48656
-1.13679
-1.25157
-0.926433
-1.02665
-1.06759
-0.837578
-0.953282
-1.27518
-1.17618
-1.42501
-1.35861
-1.49431
-1.47117
-1.46835
-1.49322
-1.35334
-1.421
-1.1677
-1.26785
-0.936349
-1.05613
-0.68478
-0.811301
-0.442468
-0.561737
-0.339257
-0.331337
-0.333215
-0.364035
-0.349588
-0.393731
-0.378974
-0.414413
-0.405962
-0.415875
-0.417892
-0.396213
-0.408349
-0.363809
-0.38079
-0.331688
-0.346947
-0.310469
-0.319222
-0.307862
-0.306379
-0.331487
-0.315953
-0.388141
-0.355322
-0.484538
-0.430912
-0.62782
-0.550043
-0.818518
-0.71773
-1.04441
-0.928287
-1.28296
-1.16393
-1.49556
-1.39595
-1.62277
-1.57357
-1.61887
-1.63768
-1.48554
-1.56631
-1.26535
-1.38251
-1.02008
-1.14249
-0.795078
-0.903009
-0.615745
-0.698904
-0.485894
-0.545254
-0.392869
-0.43569
-0.324992
-0.356218
-0.277903
-0.298716
-0.254729
-0.26323
-0.253019
-1.52876
-1.42311
-0.440242
-0.278525
-1.47417
-1.46585
-1.41854
-1.46934
-1.40595
-0.801606
-0.721757
-0.443531
-0.334323
-1.54545
-1.331
-1.24388
-1.14367
-1.02738
-0.894177
-1.33682
-1.10231
-1.26704
-1.53553
-1.59027
-1.58578
-1.58326
-0.791654
-0.630061
-0.294725
-0.46642
-1.48931
-0.83698
-0.956132
-0.667341
-0.744031
-0.549747
-0.602905
-0.476808
-0.50825
-0.439913
-0.454393
-0.432602
-0.432687
-0.453507
-0.43957
-0.503275
-0.474726
-0.574562
-0.537612
-0.646139
-0.611259
-0.704144
-0.677817
-0.731272
-0.722569
-0.717103
-0.729384
-0.667102
-0.695631
-0.599909
-0.634209
-0.537975
-0.567013
-0.498778
-0.514764
-0.492341
-0.491077
-0.5244
-0.503255
-0.600164
-0.556499
-0.724209
-0.656007
-0.896266
-0.804644
-1.10389
-0.997115
-1.31549
-1.21198
-1.483
-1.40798
-1.55937
-1.53462
-1.5211
-1.55469
-1.38281
-1.46192
-1.18984
-1.29002
-0.986625
-1.08738
-0.890636
-0.980777
-0.759842
-0.872
-1.18041
-1.08474
-1.32866
-1.26277
-1.40084
-1.37535
-1.38592
-1.40425
-1.28834
-1.34675
-1.12215
-1.21259
-0.909818
-1.02021
-0.674503
-0.793213
-0.557379
-0.226685
-0.227621
-0.224832
-0.24085
-0.232609
-0.258969
-0.249989
-0.271371
-0.266436
-0.27056
-0.272845
-0.255568
-0.26455
-0.232847
-0.244587
-0.211472
-0.221475
-0.198691
-0.203633
-0.200832
-0.197473
-0.224773
-0.209696
-0.276165
-0.246745
-0.360456
-0.313827
-0.483103
-0.416823
-0.643008
-0.558947
-0.827657
-0.733379
-1.01783
-0.923413
-1.18551
-1.10699
-1.28595
-1.24707
-1.28288
-1.29801
-1.1764
-1.24099
-1.00012
-1.09415
-0.802236
-0.900954
-0.619255
-0.707529
-0.468389
-0.539154
-0.354918
-0.407255
-0.271285
-0.310069
-0.207537
-0.237373
-0.159372
-0.181453
-0.12868
-0.141544
-0.122502
-0.121791
-0.134983
-0.127324
-0.312075
-0.158379
-0.145833
-1.65444
-1.54106
-1.49351
-1.47348
-0.651151
-0.233307
-1.55878
-1.52967
-1.43236
-1.65902
-1.37147
-1.29395
-1.19876
-1.08326
-0.946232
-1.43867
-1.15018
-1.29049
-0.0267919
-0.0373756
-0.170161
-1.61098
-1.74487
-1.81308
-1.80785
-1.78707
-0.845549
-0.670309
-0.494638
-0.329255
-1.50288
-0.874772
-1.00797
-0.659171
-0.75412
-0.522963
-0.585153
-0.427574
-0.470914
-0.364035
-0.392198
-0.32765
-0.342463
-0.317703
-0.319652
-0.329717
-0.321143
-0.362541
-0.343528
-0.411402
-0.385859
-0.46127
-0.437006
-0.501037
-0.483066
-0.519459
-0.513567
-0.509401
-0.51803
-0.4744
-0.494362
-0.427594
-0.451427
-0.385516
-0.405
-0.361734
-0.370703
-0.364849
-0.359556
-0.400544
-0.37831
-0.473909
-0.432231
-0.588848
-0.526085
-0.744433
-0.661961
-0.928911
-0.834419
-1.11447
-1.02394
-1.26003
-1.19494
-1.32627
-1.30483
-1.2942
-1.32251
-1.17733
-1.24422
-1.01402
-1.09893
-0.841526
-0.927047
-0.680484
-0.758937
-0.546536
-0.609227
-0.696832
-0.491274
-0.591106
-0.911396
-0.804978
-1.1055
-1.01261
-1.25173
-1.18633
-1.32766
-1.29933
-1.32403
-1.33592
-1.24204
-1.29238
-1.0922
-1.17453
-0.895556
-0.99819
-0.67476
-0.786785
-0.45039
-0.5614
-0.244759
-0.344211
-0.13256
-0.153323
-0.140986
-0.126244
-0.127768
-0.132238
-0.128591
-0.141377
-0.136684
-0.147627
-0.145258
-0.14555
-0.147779
-0.134666
-0.140985
-0.119618
-0.127258
-0.106322
-0.112429
-0.0996124
-0.101844
-0.104904
-0.100367
-0.128275
-0.114018
-0.174235
-0.148202
-0.247122
-0.207015
-0.35109
-0.295132
-0.484132
-0.41454
-0.633795
-0.557974
-0.782997
-0.709488
-0.912055
-0.851728
-0.989366
-0.959405
-0.986483
-0.99862
-0.90276
-0.953596
-0.763943
-0.838021
-0.605936
-0.685065
-0.458692
-0.52987
-0.334289
-0.393347
-0.235441
-0.281738
-0.158881
-0.194766
-0.0984662
-0.126984
-0.050872
-0.0730796
-0.0171695
-0.0320259
-0.00302553
-0.00717528
-0.00802305
-0.00353547
-0.0166253
-1.81499
-1.69071
-0.178631
-0.0440917
-1.53943
-1.50743
-1.73359
-1.62039
-1.48463
-0.44562
-0.39593
-0.262607
-0.172074
-1.80736
-1.43696
-1.36712
-1.27425
-1.15545
-1.01076
-1.41391
-1.0835
-1.15736
-1.49909
-1.75588
-1.94346
-2.04952
-2.06129
-2.03001
-0.902825
-0.710695
-0.519466
-0.342548
-0.0452493
-0.182642
-1.54242
-0.881461
-0.989047
-0.672828
-0.774976
-0.504263
-0.580763
-0.393409
-0.443674
-0.314521
-0.350624
-0.260455
-0.284609
-0.227431
-0.241565
-0.212765
-0.217859
-0.216102
-0.212185
-0.236698
-0.224379
-0.269695
-0.252298
-0.303647
-0.287193
-0.330117
-0.318259
-0.341988
-0.338264
-0.33486
-0.340827
-0.311086
-0.324612
-0.279677
-0.2956
-0.252526
-0.26485
-0.240073
-0.24394
-0.249724
-0.241781
-0.286896
-0.264569
-0.356295
-0.317321
-0.461153
-0.404233
-0.600029
-0.526742
-0.761977
-0.679328
-0.922783
-0.84453
-1.04783
-0.991997
-1.10505
-1.08642
-1.07932
-1.1024
-0.983014
-1.03821
-0.847572
-0.918097
-0.702772
-0.775044
-0.564326
-0.632368
-0.501789
-0.647851
-0.444713
-0.544935
-0.858399
-0.753498
-1.04812
-0.957396
-1.19327
-1.12769
-1.27486
-1.24279
-1.28264
-1.28834
-1.21417
-1.25766
-1.07785
-1.15352
-0.893232
-0.990044
-0.683008
-0.790092
-0.465557
-0.573772
-0.36126
-0.0480713
-0.0721091
-0.0578022
-0.0381276
-0.0416597
-0.0372306
-0.0368879
-0.0401195
-0.0384641
-0.0420791
-0.0414801
-0.0394413
-0.0414195
-0.032052
-0.0361971
-0.0228528
-0.0274204
-0.0153472
-0.0186983
-0.0128054
-0.0132
-0.0200408
-0.0148472
-0.0422284
-0.0290249
-0.082804
-0.0600406
-0.145214
-0.111042
-0.232604
-0.185744
-0.342606
-0.285312
-0.463413
-0.402684
-0.579481
-0.522875
-0.676781
-0.631543
-0.734486
-0.712153
-0.731299
-0.741125
-0.666351
-0.705687
-0.558435
-0.616103
-0.43366
-0.496586
-0.314864
-0.372462
-0.212896
-0.261659
-0.127828
-0.16837
-0.0576146
-0.0910202
0.000158371
-0.0273019
0.0467292
0.0248531
0.0809141
0.0655732
0.0991007
0.0922048
0.100619
0.101881
0.0872682
0.0954578
0.0722757
0.0782815
-0.0446157
0.067749
0.0691876
-2.01406
-1.8792
-1.61477
-1.56905
-0.353097
-0.0887072
-1.94971
-1.74671
-1.56451
-1.99409
-1.52896
-1.46442
-1.36983
-1.24267
-1.08434
-1.18753
-0.878013
-0.862632
0.161686
0.156211
0.0666814
-1.16885
-1.5276
-1.8492
-2.10822
-2.27089
-2.32498
-2.30897
-0.958468
-0.745763
-0.538643
-0.34848
-0.182151
-0.0421936
-1.61046
-0.806233
-0.855188
-0.641375
-0.726374
-0.486198
-0.562024
-0.361112
-0.418384
-0.274
-0.313724
-0.21042
-0.239893
-0.164508
-0.185329
-0.134848
-0.147762
-0.11991
-0.125643
-0.118021
-0.117396
-0.128594
-0.12179
-0.148966
-0.137982
-0.170859
-0.160266
-0.187622
-0.180158
-0.194778
-0.192593
-0.189785
-0.193812
-0.174238
-0.183037
-0.1542
-0.164276
-0.138019
-0.145098
-0.133672
-0.133936
-0.147498
-0.137985
-0.184489
-0.162823
-0.24887
-0.213045
-0.343217
-0.292273
-0.465711
-0.401348
-0.606331
-0.534808
-0.744216
-0.677296
-0.850771
-0.80324
-0.900242
-0.883792
-0.880936
-0.899039
-0.803581
-0.848036
-0.693385
-0.750948
-0.572883
-0.633434
-0.455615
-0.513289
-0.351302
-0.400895
-0.268883
-0.307226
-0.41048
-0.236688
-0.319587
-0.611437
-0.508649
-0.818842
-0.716024
-1.00597
-0.916208
-1.15294
-1.08569
-1.24223
-1.20567
-1.26107
-1.26105
-1.20424
-1.24193
-1.07893
-1.14925
-0.903146
-0.995869
-0.699651
-0.803534
-0.488657
-0.594032
-0.286441
-0.384944
-0.109988
-0.194562
0.00183026
-0.0343647
-0.014665
0.0257094
0.0151157
0.0389746
0.0332738
0.0445394
0.0424129
0.0459903
0.0455299
0.0468167
0.0462865
0.0495086
0.0478545
0.0541084
0.0516745
0.0590421
0.0566409
0.0626251
0.0611188
0.0624662
0.0632471
0.0541833
0.0596443
0.0335917
0.0455989
-0.00180593
0.0178828
-0.0547701
-0.0259013
-0.127732
-0.088732
-0.218393
-0.171329
-0.315921
-0.26726
-0.405895
-0.362569
-0.478157
-0.444846
-0.519874
-0.503914
-0.51601
-0.524115
-0.466135
-0.496246
-0.382612
-0.427391
-0.284904
-0.334421
-0.188842
-0.235849
-0.10412
-0.144859
-0.0311514
-0.0663631
0.032565
0.00178367
0.0875629
0.0611898
0.132873
0.111526
0.166501
0.151317
0.186014
0.178108
0.190905
0.190268
0.183432
0.188335
0.172019
0.177671
0.166437
-2.25381
-2.11039
0.0628807
0.148785
-1.72475
-1.66058
-2.20532
-1.91156
-1.67419
-0.190616
-0.160214
-0.13577
-0.0581616
-2.22273
-1.64908
-1.58585
-1.48355
-1.34076
-1.16191
-0.803785
-0.555686
-0.486618
-0.723241
-1.09932
-1.49174
-1.87485
-2.20907
-2.44582
-2.5741
-2.59924
-1.0062
-0.771539
-0.548465
-0.34723
-0.176912
-0.0416064
0.138607
0.0562914
-1.71068
-0.610644
-0.594852
-0.557164
-0.599167
-0.433332
-0.495101
-0.326853
-0.378396
-0.23775
-0.279697
-0.169141
-0.201025
-0.117515
-0.141484
-0.0794047
-0.0969055
-0.052933
-0.0648161
-0.0368783
-0.043644
-0.0307032
-0.0325651
-0.0343549
-0.0313331
-0.0459847
-0.0394745
-0.0595236
-0.0529585
-0.0694922
-0.0651354
-0.0735219
-0.0723223
-0.0701965
-0.0727952
-0.0605837
-0.0659778
-0.0487551
-0.0546056
-0.0405028
-0.0437975
-0.0418619
-0.039632
-0.0581452
-0.0478463
-0.0938152
-0.0733124
-0.15259
-0.120137
-0.236444
-0.191386
-0.343343
-0.287396
-0.464262
-0.402952
-0.581521
-0.524738
-0.671924
-0.631548
-0.714902
-0.700216
-0.701758
-0.7152
-0.641415
-0.676314
-0.553286
-0.599618
-0.45395
-0.504242
-0.354659
-0.403711
-0.26411
-0.307641
-0.224931
-0.386343
-0.210224
-0.29544
-0.585653
-0.483455
-0.790534
-0.688998
-0.978187
-0.887589
-1.13059
-1.06001
-1.22928
-1.18769
-1.25866
-1.25335
-1.21197
-1.2447
-1.09553
-1.16164
-0.925959
-1.01598
-0.725996
-0.828341
-0.517896
-0.621881
-0.315864
-0.415018
-0.22214
0.0664631
0.0324849
0.0509791
0.0900069
0.0789355
0.105319
0.0985925
0.113965
0.110263
0.118321
0.116479
0.120853
0.119668
0.123252
0.121999
0.125745
0.124535
0.127794
0.126839
0.128913
0.128537
0.127089
0.128595
0.118387
0.123839
0.0996379
0.110382
0.0690756
0.0859442
0.0245079
0.0486909
-0.0359247
-0.00371264
-0.110363
-0.0717829
-0.189522
-0.150224
-0.259831
-0.226482
-0.312881
-0.288817
-0.341802
-0.331004
-0.337724
-0.344226
-0.298912
-0.322328
-0.234182
-0.268951
-0.157305
-0.1964
-0.079669
-0.118087
-0.00809855
-0.0428546
0.055378
0.0245494
0.112656
0.0846999
0.164055
0.139184
0.207462
0.186934
0.239982
0.225256
0.259451
0.251401
0.265792
0.264185
0.262136
0.264812
0.254264
0.258796
0.240693
0.248337
0.219235
0.230339
0.123852
0.190347
0.20594
-2.5338
-2.38783
-1.87271
-1.78484
-0.135048
0.010266
-2.49506
-2.12025
-1.81615
-2.49385
-1.79743
-1.72913
-1.6106
-1.44348
-1.23639
-0.412406
-0.239468
-0.163427
-0.332876
-0.62246
-0.986068
-1.40159
-1.82709
-2.23324
-2.55915
-2.78099
-2.87171
-1.03993
-0.783647
-0.546439
-0.340479
-0.171423
-0.0450425
0.0441145
0.247197
0.173316
0.230507
-1.84661
-0.345824
-0.302378
-0.380098
-0.374214
-0.342478
-0.369857
-0.263438
-0.304312
-0.190399
-0.225595
-0.12652
-0.157212
-0.0744191
-0.0988721
-0.0339946
-0.0529269
-0.00283743
-0.0173429
0.0199771
0.00957076
0.0351795
0.0284767
0.0436146
0.0402077
0.0452263
0.0452993
0.0404376
0.0434837
0.0331072
0.0367603
0.0278307
0.0300383
0.0258873
0.0266855
0.027781
0.0262863
0.0331447
0.0301772
0.0391081
0.0362823
0.0416688
0.0410896
0.0363373
0.0402653
0.0187848
0.0293402
-0.0148824
0.00417945
-0.0678636
-0.0388143
-0.141637
-0.102177
-0.234092
-0.18588
-0.337249
-0.285103
-0.436408
-0.38845
-0.512907
-0.478659
-0.55068
-0.537292
-0.543206
-0.552474
-0.497604
-0.524279
-0.428139
-0.465018
-0.346631
-0.388304
-0.262557
-0.304335
-0.184171
-0.222218
-0.11928
-0.150007
-0.0688899
-0.0915686
-0.192101
-0.0498069
-0.116388
-0.369547
-0.277107
-0.568649
-0.467356
-0.77295
-0.671242
-0.965016
-0.871571
-1.12611
-1.05077
-1.23544
-1.18847
-1.27512
-1.26476
-1.23761
-1.26596
-1.12822
-1.19112
-0.962495
-1.05105
-0.763118
-0.865536
-0.553858
-0.658407
-0.350753
-0.451015
-0.16653
-0.255195
-0.0142581
-0.086748
0.0903151
0.0486948
0.0708648
0.121793
0.107317
0.145287
0.134466
0.161761
0.154356
0.172247
0.167627
0.178381
0.175723
0.181886
0.180351
0.183831
0.183024
0.184775
0.184364
0.185129
0.18501
0.184866
0.18513
0.182064
0.183988
0.173401
0.178647
0.156629
0.166099
0.130494
0.144821
0.0932641
0.113378
0.0435369
0.0699742
-0.017323
0.014201
-0.0818425
-0.0498671
-0.137762
-0.111579
-0.176967
-0.159641
-0.19626
-0.1894
-0.191241
-0.196968
-0.160885
-0.179124
-0.110282
-0.137512
-0.0489572
-0.0803309
0.0144341
-0.017175
0.0753963
0.045405
0.131684
0.104176
0.183333
0.158034
0.230488
0.207549
0.271054
0.251794
0.301798
0.287838
0.320566
0.312716
0.327755
0.325473
0.326578
0.327933
0.31951
0.32399
0.303668
0.312888
0.27837
0.291687
0.263214
-2.83923
-2.69995
0.107155
-2.06444
-1.94565
-2.80252
-2.37545
-1.99066
-0.0088423
0.00944223
-0.0429739
0.0234424
-2.79957
-1.97169
-1.88826
-1.74282
-1.54148
-1.29987
-0.0859111
0.0417528
0.103002
0.156185
0.212675
-0.00657135
-0.231213
-0.514868
-0.858781
-1.26932
-1.72216
-2.17972
-2.59084
-2.91638
-3.09497
-1.05457
-0.779479
-0.534104
-0.328865
-0.169269
-0.0544712
0.0276013
-2.02339
-0.0811793
-0.0222758
-0.164199
-0.130733
-0.187312
-0.183918
-0.165766
-0.180068
-0.122356
-0.145863
-0.0748677
-0.0981599
-0.0312097
-0.0525363
0.00703795
-0.0112514
0.0384706
0.0235777
0.0637871
0.0518411
0.0835718
0.0743492
0.0981208
0.091482
0.107864
0.10356
0.112805
0.110974
0.112772
0.113369
0.109829
0.111415
0.107627
0.108448
0.106869
0.107647
0.107685
0.106976
0.110018
0.10878
0.111794
0.111131
0.110281
0.111642
0.102219
0.107281
0.0841575
0.094649
0.052789
0.0703206
0.00542981
0.0312239
-0.0590058
-0.0246935
-0.138431
-0.0971562
-0.22595
-0.181827
-0.309551
-0.269137
-0.374282
-0.345184
-0.407934
-0.395509
-0.405397
-0.411072
-0.37212
-0.391967
-0.317907
-0.347079
-0.250976
-0.285573
-0.179524
-0.215285
-0.11226
-0.144892
-0.0549118
-0.0823631
-0.0302443
-0.1806
-0.0344204
-0.103771
-0.359158
-0.265832
-0.559084
-0.457474
-0.766613
-0.662667
-0.967023
-0.868859
-1.13948
-1.05825
-1.26054
-1.20779
-1.31084
-1.29535
-1.28202
-1.30635
-1.17805
-1.2387
-1.01371
-1.10209
-0.812013
-0.916018
-0.597956
-0.704996
-0.391386
-0.493094
-0.202423
-0.293405
-0.117957
0.14036
0.10311
0.123047
0.169364
0.155495
0.192398
0.181709
0.209242
0.201569
0.220658
0.215567
0.227731
0.224658
0.231624
0.230002
0.233163
0.232657
0.233151
0.233253
0.232666
0.232929
0.231736
0.232329
0.228423
0.230552
0.220106
0.225012
0.205324
0.213568
0.183169
0.19524
0.152309
0.168906
0.111721
0.133244
0.0622689
0.0878952
0.00953279
0.0357187
-0.0359416
-0.0147977
-0.0657766
-0.0530192
-0.0781179
-0.0742106
-0.0717605
-0.077267
-0.0474238
-0.0618478
-0.00729753
-0.0289469
0.0423108
0.0167398
0.0950914
0.0686095
0.147424
0.121422
0.197756
0.172935
0.244796
0.221738
0.287679
0.266832
0.324618
0.307059
0.352877
0.339987
0.370743
0.363123
0.378808
0.375884
0.37881
0.379765
0.370611
0.375562
0.352775
0.362904
0.327066
0.340655
0.295938
0.311998
0.261533
0.279143
0.219827
0.194106
0.24176
-3.15004
-3.03006
0.0906079
-2.30223
-2.14388
0.0247587
0.0808688
-3.09764
0.139426
-2.67462
-2.19554
0.176915
-3.12587
-2.16457
-2.05319
-1.86838
-1.62427
-1.34393
0.161555
0.0720582
-0.129825
-0.400018
-0.722755
-1.11668
-1.57208
-2.06072
-2.53994
-2.95672
-3.23781
-1.04727
-0.759743
-0.513895
-0.317581
-0.171918
-0.067537
0.0116538
-2.24261
0.245155
0.218447
0.34265
0.288968
0.152632
0.202687
0.0521919
0.100326
-0.00846272
0.0166508
-0.0312708
-0.0243304
-0.0274775
-0.0315872
-0.00729189
-0.0192237
0.0217209
0.0068607
0.0511395
0.036572
0.0784205
0.0651671
0.102148
0.0907566
0.122212
0.11262
0.138795
0.130935
0.151976
0.145801
0.162046
0.157367
0.169101
0.165996
0.172524
0.171283
0.172849
0.172932
0.172438
0.172583
0.172349
0.172791
0.172587
0.172394
0.172785
0.172769
0.171582
0.172459
0.167176
0.169911
0.157251
0.163064
0.139117
0.149381
0.110054
0.126105
0.0678759
0.0906948
0.0118155
0.0415319
-0.0561491
-0.0209453
-0.130203
-0.092946
-0.200641
-0.1666
-0.255668
-0.230739
-0.285865
-0.274317
-0.287441
-0.290102
-0.26406
-0.278476
-0.221823
-0.244944
-0.166529
-0.195406
-0.105715
-0.136288
-0.0476632
-0.075981
0.00251947
-0.021472
0.0438997
0.0242858
0.0754985
0.0610247
-0.0243554
0.087456