/*--------------------------------*- C++ -*----------------------------------*\
  =========                 |
  \\      /  F ield         | OpenFOAM: The Open Source CFD Toolbox
   \\    /   O peration     | Website:  https://openfoam.org
    \\  /    A nd           | Version:  10
     \\/     M anipulation  |
\*---------------------------------------------------------------------------*/
FoamFile
{
    format      ascii;
    class       surfaceScalarField;
    location    "15";
    object      phi;
}
// * * * * * * * * * * * * * * * * * * * * * * * * * * * * * * * * * * * * * //

dimensions      [0 3 -1 0 0 0 0];

internalField   nonuniform List<scalar> 
57492
(
-0.0194248
0.00247464
0.00423624
0.0127139
-0.00383256
-0.0160828
0.000490574
-0.0036722
0.012348
0.0357458
-0.0444216
0.0989099
0.0723724
-0.0163851
-0.154897
-0.209938
0.0849977
0.22385
0.0525307
-0.0515672
-0.0268944
0.0259309
-0.0961995
0.0235908
-0.0141423
0.086751
0.0171226
-0.0607914
0.0227638
-0.104105
0.0990836
-0.0177423
0.0208089
0.0952647
-0.0933098
0.0255803
0.00277393
0.00132068
-0.0296749
-0.00665299
0.00736287
0.0248705
-0.0195186
0.0148421
-0.00197647
0.00418513
-0.0209298
0.101082
-0.085994
-0.03759
0.0225016
0.00249838
0.0761235
0.0224605
0.00195699
0.00945458
0.0851445
-0.0965561
-0.00799077
0.0839529
-0.0740052
0.0196837
-0.0397532
0.0200694
-0.104282
0.0709614
0.0530045
-0.112319
0.0170327
0.0826065
0.0126798
0.0161966
-0.114291
-0.0142242
-0.000488759
0.0121405
-0.016615
0.00496324
0.0168548
-0.0187189
0.00137528
-0.164519
0.182214
0.00782381
-0.0255185
-0.196376
0.0803407
-0.0484837
-0.0880742
0.0324475
0.0440678
0.0115589
-0.0609416
-0.0306847
0.00355223
-0.0304596
-0.0813843
0.101598
0.0102459
-0.0379995
0.0133534
-0.00581353
0.0600669
-0.0380691
-0.0365518
0.014554
-0.0479719
0.0399311
0.0681077
-0.0723429
-0.125425
0.0727675
0.125001
-0.125561
-0.0401288
0.0933468
-0.0526129
-0.0101835
0.0627964
-0.0159308
-0.0366821
-0.0624333
0.0811192
-0.0346167
0.0143229
-0.0381298
-0.0386264
-0.0500054
0.0735962
-0.0223592
-0.113275
0.0549741
0.058301
-0.204673
0.0913983
0.108239
-0.0386932
0.0291324
-0.098678
0.0796374
0.0192382
0.0093632
-0.0340817
0.101859
-0.106471
0.0955539
0.0151833
-0.0936146
0.0934289
-0.0120173
0.10443
-0.0361833
-0.0765464
0.00829937
0.118009
0.00160441
0.0788585
-0.0437638
0.0583341
0.0287165
0.136893
-0.0992409
-0.0144916
0.0138244
0.0999081
-0.102555
-0.00789662
0.0112105
0.0142474
0.101597
-0.10013
-0.0157144
0.00658117
-0.0964389
-0.115338
0.128425
0.133904
-0.146991
-0.0182724
0.134889
-0.231955
0.0027901
0.0140994
-0.000365722
-0.0165237
0.0110616
0.00657058
-0.00475297
0.010176
0.00563864
0.0104273
-0.00108091
-0.00600908
0.00564336
-0.00164992
-0.00435916
0.270798
0.0936993
-0.187569
-0.176929
0.0761895
-0.0559981
0.250607
-0.229485
0.0733561
0.232318
0.0397035
-0.175489
0.0336939
-0.0803038
0.0632497
-0.0166398
0.0684943
-0.0811014
0.046301
0.00262747
-0.00100872
0.000855893
0.00563873
0.00122498
0.0155875
0.00276512
-0.0884478
0.162427
0.0787177
-0.152697
0.102076
-0.122029
0.0609363
0.157936
-0.0564457
0.338852
-0.0311019
-0.100857
-0.206893
0.0911655
0.185876
0.0618107
0.0517245
-0.128331
0.167772
0.00762478
-0.011297
0.0199727
0.0626743
0.0947018
-0.0450519
-0.112324
0.0852124
0.0132077
0.00550876
-0.00200836
-0.0035004
0.0117894
-0.00628059
-0.177149
0.0832573
-0.0653221
0.159213
-0.145819
-0.0912072
0.059878
-0.0794757
0.0825259
-0.14887
0.0977957
-0.00135181
-0.0478117
-0.0486322
-0.0435069
0.110005
0.0312972
-0.0539905
-0.00642272
0.0169063
-0.0472322
-0.00811011
-0.0179403
-0.0771037
0.0749772
0.00120127
-0.037949
-0.0382294
-0.00107687
0.0216994
0.0543547
-0.0729461
-0.0143024
0.0861716
-0.0636179
-0.00812686
-0.0916404
-0.00992656
-0.0500782
0.0321379
0.00521908
-0.0552973
0.00665626
0.0051331
0.117896
0.0764575
-0.0086856
0.0422615
-0.134303
-0.0153618
0.0956085
-0.0671785
-0.0130682
-0.0228842
0.100796
-0.0932732
0.0810639
0.0405444
-0.00706673
-0.114542
-0.0299997
0.016727
0.0943367
0.0977999
-0.0872552
-0.0319983
-0.0703598
0.0197161
0.0826419
-0.0348622
0.0809607
-0.0780967
0.00141322
-0.106635
-0.0201501
-0.0172186
0.00125357
-0.021434
0.0159826
0.00161875
0.0284867
-0.0165113
-0.0334094
-0.00272311
0.015127
-0.0143767
0.0167085
0.00492976
-0.00726156
0.0344542
-0.0220326
-0.0267983
-0.0148216
0.0431333
0.00614247
-0.00748945
0.00937642
-0.155303
0.0838472
0.154713
0.161666
-0.0655157
-0.187358
-0.0769766
0.0833402
-0.00811983
-0.062512
-0.0107525
-0.0467029
0.000583618
0.00481978
-0.00747643
-0.00113942
0.00379607
-0.0114654
0.0116227
0.00466252
-0.026811
0.00786916
-0.0191028
-0.0324472
0.00484709
-0.0501479
-0.031467
-0.0490607
-0.0515485
0.0626859
0.0379233
0.00349518
0.0220864
-0.0746423
-0.0687932
0.0207399
-0.146484
0.0548167
-0.0126149
-0.143983
0.0156037
-0.0181043
-0.0052871
-0.0859437
0.0791767
0.0120541
-0.000492272
-0.0891772
0.0843824
-0.00974822
-0.280869
-0.0819645
0.102778
0.0973734
-0.124521
0.0900565
-0.0191208
0.0119843
-0.0262867
0.00971459
0.00226967
0.0281398
-0.00660233
0.12211
-0.0730009
-0.0417134
-0.00739567
0.101002
-0.0129737
0.160651
-0.0129965
-0.165927
0.0351926
0.120564
0.0048953
0.00897007
-0.0967805
0.123003
0.000815192
0.0088994
0.0290179
-0.100902
-0.09909
0.0665861
0.125945
0.0601625
-0.00343511
-0.0627703
0.00604291
0.0190153
-0.00682467
-0.0766507
0.0138053
0.102776
0.0102055
-0.0678409
-0.00749913
-0.00334677
-0.0444097
-0.00432398
0.0495712
-0.000837433
-0.00620484
0.0014994
-0.0397043
-0.0336348
-0.0370186
0.0644485
-0.0308782
0.0609957
-0.0234613
0.178207
-0.14583
-0.0632551
-0.00296245
-0.0953525
0.11212
-0.239912
-0.0124622
-0.183892
-0.0974666
0.0414468
0.0822389
0.0577078
-0.122914
0.0404343
0.118591
-0.0767861
0.0389545
-0.0804409
0.0495132
-0.00802683
0.0430136
-0.0780239
0.0739649
0.110509
0.0298052
0.109247
-0.00305296
-0.108762
0.00256787
0.120768
-0.0123103
0.00078921
0.125033
-0.0128239
-0.00616451
-0.106044
0.0896366
-0.0235756
0.0589719
0.0986859
-0.0235457
0.0180908
-0.093231
0.0207418
0.100164
-0.0222202
-0.0902456
-0.029505
0.0962049
0.015938
-0.0864675
-0.0304458
0.0835828
-0.039629
-0.0763649
0.0345313
0.0814626
-0.0412683
-0.0779409
0.0795803
0.0376937
0.0737062
-0.0206627
-0.0907371
0.0730543
-0.0766289
-0.0440799
0.0445793
0.0725549
-0.0345353
0.0641616
-0.0956561
0.0841452
-0.00915179
-0.123244
0.00527809
0.122588
-0.00462117
0.027699
0.0130785
-0.0329674
0.0353736
-0.0154846
0.0114566
-0.0207578
0.0223798
0.0135052
-0.0333965
0.0171682
-0.067112
-0.0973512
0.0587281
-0.0137985
0.0152979
-0.000455535
-0.013343
-0.0133177
-0.114435
0.0839887
-0.0952312
-0.0117014
0.0936149
0.00844279
-0.0994403
-0.00423372
0.0410427
0.0477922
-0.0375498
-0.0512852
0.0163961
0.0780886
-0.053442
0.0784597
-0.0142714
0.00217657
-0.00123443
-0.0181607
-0.000929017
0.00310559
-0.00216345
0.00199237
-0.00262492
0.0110599
-0.00193753
0.0039299
-0.00456245
0.00605941
-0.00172641
0.0125218
-0.00609573
0.0121551
-0.00782213
0.00576569
-0.000465453
-0.0127897
-0.00221356
0.00797925
-0.00267901
0.0372832
0.0790192
-0.0995754
0.0278545
-0.102135
0.111564
0.115937
-0.00906324
-0.0329304
-0.0651803
0.0325938
0.0655169
-0.0173296
0.0702473
-0.0858481
0.00487429
-0.0873841
0.082734
-0.0830777
-0.0781273
0.0784711
0.0837224
-0.0786852
0.0776967
-0.0764235
-0.0820375
0.0753833
0.0846735
-0.079145
0.078194
0.0859811
-0.0770074
0.0756999
-0.0764647
0.0879651
0.0744806
0.0883861
-0.0886033
-0.0762475
-0.0791999
0.0907933
0.0763717
0.0862406
-0.0770544
-0.086809
-0.0788017
-0.087258
-0.0786961
-0.0875708
-0.0783724
-0.0892131
-0.076485
-0.087842
-0.0777946
-0.0786867
0.0943259
0.0751542
0.0821288
-0.0745749
-0.0725927
-0.0806759
0.0712311
-0.0892101
-0.0712246
-0.0669034
-0.0838212
0.0700487
-0.0742837
0.0935429
0.0750667
0.0809424
-0.0730974
-0.0926575
-0.063456
0.093259
-0.0737189
0.0740028
-0.072621
0.092136
0.0737439
0.0800255
-0.072802
0.0785719
-0.0711674
-0.0588667
-0.0830808
0.0581263
-0.0926164
-0.0589078
-0.0716413
0.0916153
0.072162
0.0774161
-0.0704854
-0.0494475
-0.0829172
0.0492839
-0.0928952
-0.0491687
-0.0697348
0.0903581
0.070992
0.0757844
-0.0681031
-0.0384158
-0.0827622
0.0382608
-0.0929677
-0.0383433
-0.0674488
0.089853
0.0679539
0.0745513
-0.0662157
-0.0260198
-0.0829755
0.0262331
-0.0933327
-0.0256548
-0.0636601
0.0888346
0.0646785
0.0730059
-0.0621148
-0.0126747
-0.0833354
0.0130347
-0.0936998
-0.0123076
-0.0588467
0.0886759
0.0590055
0.0720088
-0.0578496
0.00121426
-0.0841456
-0.00040413
-0.0940549
0.00156932
-0.0521134
0.0882015
0.0525878
0.0709081
-0.0510127
0.0153474
-0.0827542
-0.0167388
-0.0929837
0.0142762
-0.0441029
0.088453
0.0438514
0.0705717
-0.0437666
0.0288758
-0.0843895
-0.0272405
-0.0926558
0.0285479
-0.034345
0.0884078
0.0343902
0.070012
-0.0337853
0.0422611
-0.0821797
-0.0444709
-0.090235
0.0398404
-0.0203926
0.0854591
0.0233413
0.0723272
-0.0227078
0.0539322
-0.0828845
-0.0532274
-0.0893407
0.0530379
-0.00908524
0.0792874
0.015257
0.0739765
-0.0107346
0.0645329
-0.0642763
-0.0831411
-0.0888766
0.0640687
0.00029902
1.46468e-05
0.0789737
0.0741709
0.000104613
-0.0759885
0.0752043
-0.0524432
-0.0793005
-0.0609644
0.073632
-0.0717887
-0.0849844
0.0718274
-0.087072
-0.0715713
0.071635
-0.0273042
-0.0408379
-0.0683453
0.0683143
-0.000373197
-0.013449
-0.0685482
0.0690592
0.025722
0.0128009
-0.0698295
0.070786
0.0483274
0.0374905
-0.0718552
0.0770295
0.0648745
0.0570571
-0.0784623
0.0782733
0.0755723
0.0697982
-0.0824644
0.0828424
0.0773187
0.07428
-0.0822891
0.08248
0.0755089
0.0787473
-0.0809449
0.0813473
0.0759693
0.0760157
-0.0814988
0.0815052
0.0750603
0.0750027
-0.0813872
0.0811545
0.0739766
0.0741208
-0.080843
0.0805001
0.0713348
0.0724736
-0.0801922
0.0799521
0.0649186
0.0682618
-0.07982
0.0798053
0.0526025
0.0591375
-0.0799129
0.0801767
0.0341265
0.0437437
-0.079812
0.082409
0.01266
0.023706
0.0826275
-0.000203854
0.0122483
-0.0117618
0.0784872
0.01157
0.0748492
0.0677709
-0.066901
-0.0235777
-0.0690435
0.0698139
-0.000665803
-0.0120072
0.0673464
-0.0683573
-0.0427557
-0.0333398
0.0696157
-0.0711753
-0.05629
-0.0497543
0.0729239
-0.0747614
-0.0643781
-0.0603662
0.0766004
-0.0783852
-0.0687007
-0.0662641
0.0800675
-0.0816614
-0.0712081
-0.069485
0.0831415
-0.0844438
-0.0732726
-0.0716173
0.0876277
-0.0880909
-0.0757842
-0.0738705
0.090426
-0.0901998
-0.0789223
-0.0764667
0.0906896
-0.0912726
-0.075902
-0.0778826
0.0933044
-0.0945368
-0.0699922
-0.0757628
0.0928295
-0.0934667
-0.0582707
-0.0651632
0.0939358
-0.0942649
-0.0380142
-0.0486996
0.0945103
-0.094714
-0.012104
-0.0254094
0.0949013
-0.0961249
0.0154997
0.00175667
0.0960564
-0.097031
0.040815
0.0284794
0.0951962
-0.0936376
0.0625101
0.0512031
-0.0909532
0.069143
-0.0832386
-0.0678506
0.0834882
-0.0126225
0.0100947
0.0712893
0.0778183
-0.0769197
-0.0879706
0.0760908
-0.0892256
0.0753941
-0.0720054
-0.0866273
-0.0865101
-0.0691879
0.0655661
-0.0488214
0.0733824
-0.0775185
-0.0637145
-0.0567699
-0.0628612
0.0618041
-0.0262471
-0.038133
-0.0612918
0.0611885
-0.000269899
-0.0129367
-0.0615162
0.0622513
0.0249869
0.0124732
-0.0633495
0.0647268
0.0469502
0.0363923
-0.0663458
0.0683251
0.0628952
0.0554381
-0.0702233
0.0737018
0.0720939
0.0679
-0.0740422
0.0758511
0.0755099
0.0739395
-0.0791216
0.0788722
0.0757583
0.0754768
-0.0799401
0.080828
0.0750815
0.0749478
-0.0814887
0.081987
0.074562
0.0743419
-0.0823553
0.0826288
0.0737031
0.0737525
-0.082842
0.0830407
0.0711361
0.0722604
-0.0832546
0.0835302
0.064643
0.068048
-0.083873
0.0842868
0.0521888
0.0587947
-0.0847831
0.0853368
0.0335728
0.0432474
-0.0859433
0.087243
0.0113602
0.0230995
-0.0251682
0.0244748
0.0791806
-0.0253073
0.0836274
-0.0871913
0.0879442
-0.0133754
-0.000152158
0.0653741
-0.0644665
-0.0015734
0.0662321
0.00923657
-0.0227736
0.0223551
0.0717078
0.0765504
0.0641053
-0.0640802
-0.0236029
-0.0123684
0.0645955
-0.0658499
-0.0415013
-0.0328246
0.0674889
-0.0694298
-0.0543491
-0.0481153
0.0715655
-0.0737986
-0.062145
-0.0582305
0.0759914
-0.078135
-0.0665571
-0.0640713
0.0801619
-0.0821178
-0.0692521
-0.0674582
0.0839723
-0.0857518
-0.0714932
-0.0697628
0.0874068
-0.0889947
-0.0741963
-0.0722155
0.0905287
-0.0930517
-0.0763993
-0.0749327
0.0949347
-0.09517
-0.0756667
-0.0759997
0.0979754
-0.0983015
-0.0696661
-0.0729574
0.0996331
-0.100853
-0.0570507
-0.0638316
0.10185
-0.102639
-0.0372259
-0.0477024
0.103193
-0.103527
-0.0117702
-0.0248546
0.103693
-0.103669
0.0154757
0.00192217
0.103441
-0.102947
0.0403219
0.0282514
0.10216
-0.0988349
0.0591851
0.0504156
0.0968091
-0.0932814
0.072563
0.0671172
-0.0818495
-0.0676744
0.078857
-0.0803833
-0.0876993
-0.0908558
0.0764314
-0.0803794
-0.0879744
-0.02508
0.0877168
0.0680292
0.0205581
-0.0734323
0.0750892
-0.0882841
-0.0702628
-0.085019
0.0784682
-0.0815354
-0.0846321
0.0770598
-0.0894474
-0.0918003
0.0939837
-0.0938605
-0.0134985
0.092756
-0.0238522
0.0331401
-0.0336653
0.072233
0.0301687
0.0710006
-0.0798192
0.0768452
-0.0672888
-0.074306
0.0760296
-0.0867425
0.0874962
0.073904
-0.0541781
-0.107222
-0.066629
-0.0730034
0.0686008
-0.0593119
-0.0638326
-0.0644897
0.0603767
-0.0447084
-0.0526588
-0.0578357
0.0557816
-0.024193
-0.0355921
-0.0551454
0.0550069
-0.000131448
-0.0123005
-0.0554136
0.0563519
0.0240485
0.0120665
-0.0577582
0.0595641
0.0451442
0.0349861
-0.0616841
0.0640518
0.0605275
0.0533181
-0.0665098
0.0690534
0.0695503
0.065442
-0.0714583
0.0737483
0.0732199
0.0715347
-0.0758555
0.0777025
0.0739113
0.0733696
-0.0792754
0.0806208
0.073736
0.073375
-0.0817571
0.0827354
0.0735837
0.0732056
-0.0835865
0.0843597
0.0729299
0.0729014
-0.0850817
0.0857993
0.0704185
0.0715384
-0.0865399
0.0873327
0.0638502
0.0673074
-0.0881621
0.089023
0.0513279
0.0579653
-0.0898835
0.0907145
0.0327419
0.0423868
-0.0917703
0.092614
0.0105166
0.0220436
-0.00139871
-0.0348967
0.0336047
0.0804726
0.0352643
-0.0361336
0.0885861
0.083995
0.0764898
0.0622591
-0.0614111
-0.00242134
-0.0635686
0.0654227
0.018704
0.00792704
0.0607874
-0.0613317
-0.0230586
-0.012992
0.0624574
-0.0640218
-0.039937
-0.0316989
0.0659675
-0.068248
-0.0520686
-0.0461695
0.0706729
-0.0732055
-0.0596124
-0.0558056
0.0756909
-0.0781411
-0.0641069
-0.0615859
0.0805017
-0.0828032
-0.0669506
-0.0650976
0.0850074
-0.0871567
-0.0693439
-0.0675586
0.089234
-0.0913049
-0.0721255
-0.0701382
0.0933755
-0.0955001
-0.0742747
-0.072862
0.0976629
-0.0998897
-0.0734399
-0.0738369
0.102127
-0.104264
-0.0675297
-0.0707196
0.106239
-0.107997
-0.0552926
-0.0618565
0.109453
-0.110624
-0.0360552
-0.0462464
0.111471
-0.111974
-0.0112672
-0.0240072
0.112184
-0.111988
0.0152792
0.00213216
0.111435
-0.110547
0.0394346
0.0276981
0.109302
-0.107751
0.0576345
0.0491704
0.104058
-0.0993805
0.0678855
0.0634238
0.0953379
-0.0924262
0.0741481
0.0723889
0.0765075
-0.0784379
-0.0875169
-0.0901597
0.0742409
0.0774527
-0.0897073
-0.078355
-0.0911549
-0.0350421
0.0916645
0.0678536
0.0277377
0.07679
-0.0896285
-0.0747811
-0.088289
0.0908235
-0.0643257
0.0519619
-0.0755469
0.0734542
-0.088067
-0.0777168
-0.085347
-0.0506805
0.0815253
-0.0451161
-0.0239114
-0.0643189
-0.0927026
-0.0786352
0.0812532
-0.0567961
-0.0523702
0.0552603
-0.0758551
0.070833
-0.0622667
-0.061231
-0.0666815
0.0619241
-0.0545544
-0.0596812
-0.0581253
0.0552411
-0.0418242
-0.0488599
-0.052458
0.0509698
-0.0227049
-0.032809
-0.0501689
0.0500038
3.36145e-05
-0.0114996
-0.0504794
0.0515829
0.022945
0.011591
-0.0532433
0.0553922
0.0429952
0.0333258
-0.0578839
0.0606587
0.0577527
0.0508264
-0.0635679
0.0665398
0.0665784
0.0625328
-0.069417
0.0721484
0.0704885
0.0686575
-0.0746619
0.0769257
0.0716474
0.070856
-0.0789131
0.0806834
0.0719657
0.0713876
-0.0822553
0.0836859
0.0721531
0.0716338
-0.0849979
0.0862532
0.0716746
0.0715895
-0.0874783
0.088718
0.0691788
0.0703132
-0.0899841
0.0912893
0.0625451
0.0660413
-0.092586
0.0938541
0.0500599
0.0566686
-0.0950491
0.0961271
0.0316639
0.0411918
-0.0975404
0.0987343
0.0093227
0.0206304
-0.0988713
0.0987503
-0.0133775
-0.0015358
-0.0987252
0.0970996
-0.0334165
-0.0238271
-0.0435437
0.0438693
0.0882605
0.0448038
-0.0446722
0.0969681
0.0929246
-0.0429821
0.0430363
0.0804184
0.0848822
-0.0420805
0.0400868
0.0742267
0.0774455
-0.0386743
0.0360963
0.0704317
0.0724131
0.0633078
-0.0612119
0.0166081
-0.067047
0.0665496
0.0365937
0.0239985
0.0598086
-0.0590958
-0.00313417
0.00652376
0.0589608
-0.0596795
-0.0223399
-0.013127
0.0609763
-0.0628086
-0.0381047
-0.0304021
0.0649995
-0.0675247
-0.0495433
-0.0439786
0.0701849
-0.0729375
-0.0568598
-0.0531454
0.075657
-0.0783505
-0.0614135
-0.0588664
0.0809718
-0.0835699
-0.0643524
-0.0624763
0.086098
-0.0886044
-0.0668375
-0.0650305
0.0910635
-0.0935568
-0.0696322
-0.0676791
0.0960858
-0.0987151
-0.0716453
-0.070333
0.101414
-0.104213
-0.070641
-0.0711379
0.107013
-0.109761
-0.0647818
-0.0679198
0.11232
-0.114619
-0.0529939
-0.0592968
0.116547
-0.118073
-0.0345293
-0.0443182
0.119152
-0.119768
-0.0106506
-0.0229286
0.119969
-0.119636
0.0149461
0.00233311
0.11881
-0.117501
0.0381252
0.0268723
0.115799
-0.113714
0.0555495
0.0474681
0.111408
-0.108942
0.0654192
0.0611181
0.103973
-0.0986624
0.0688374
0.0674203
0.0950781
-0.0922729
0.070649
0.0706567
0.0721305
-0.0738569
-0.0863407
-0.0899021
0.0697598
0.0776564
-0.0905736
-0.075988
-0.089948
0.0794835
-0.0782884
-0.0739028
-0.0921029
0.103872
-0.104327
-0.0329616
0.101587
-0.0423878
0.0444214
-0.0459
0.0719103
0.0404262
0.0705449
0.0787414
-0.0649785
-0.0717596
-0.0874443
0.0211771
-0.0963737
-0.0580555
0.0703523
-0.0574129
0.07268
-0.0719827
-0.087038
0.0690141
-0.0862363
-0.0505378
-0.0718365
-0.0910342
-0.0738271
0.0728596
-0.0558286
-0.055845
-0.0709353
0.0663288
-0.0576601
-0.0593066
-0.0613515
0.0577756
-0.0509786
-0.0547039
-0.0544008
0.0514532
-0.0388765
-0.0454851
-0.0491031
0.0474098
-0.0210116
-0.030459
-0.0464902
0.0463005
0.000223245
-0.0105799
-0.0468241
0.0480439
0.0217252
0.0110675
-0.0498848
0.0522779
0.0406022
0.0314848
-0.0550605
0.0581619
0.0546513
0.0480438
-0.0614109
0.0647285
0.0632608
0.0592838
-0.0679611
0.0710384
0.0674112
0.0654248
-0.0738852
0.0764957
0.0690369
0.0680093
-0.0788409
0.0809876
0.069819
0.0690424
-0.0829498
0.0847956
0.0703073
0.0696716
-0.0865492
0.0882689
0.0699549
0.0698359
-0.0899778
0.0917274
0.0674292
0.0686043
-0.0934786
0.095252
0.0607716
0.0642901
-0.0969867
0.0986311
0.0484155
0.0549339
-0.100132
0.101458
0.030338
0.0396906
-0.102514
0.103308
0.00852824
0.0195745
-0.10459
0.104256
-0.0130435
-0.00281716
-0.023898
-0.0510351
0.0497498
0.0895458
0.050892
-0.0510476
0.0971237
0.0927815
-0.0497046
0.0487006
0.0814224
0.0849275
-0.048545
0.0480361
0.0747356
0.0776011
0.0745492
0.0613924
-0.0595256
0.0147413
-0.0623753
0.0669485
0.0320204
0.0230156
0.0583353
-0.0574404
-0.00402909
0.00533356
0.0577569
-0.0587163
-0.0213806
-0.0128105
0.0601989
-0.0622134
-0.0360901
-0.0289195
0.0646012
-0.0673028
-0.0468418
-0.0415908
0.0701441
-0.0730632
-0.0539406
-0.0503041
0.0759474
-0.0788251
-0.0585357
-0.0559822
0.0816447
-0.0844701
-0.061527
-0.0596567
0.0872495
-0.090043
-0.064044
-0.0622511
0.0928265
-0.0956854
-0.0667733
-0.0648956
0.0986152
-0.101686
-0.0685743
-0.0674032
0.10485
-0.108127
-0.0673638
-0.0679746
0.111412
-0.114659
-0.0615349
-0.0646347
0.1177
-0.120454
-0.0502394
-0.0562558
0.122784
-0.124645
-0.0326684
-0.0419882
0.125951
-0.126677
-0.00992518
-0.0216224
0.126789
-0.126322
0.0144789
0.00244547
0.125242
-0.123565
0.0364476
0.0257924
0.121435
-0.118882
0.0529972
0.0453383
0.116064
-0.113098
0.0624533
0.0582995
0.11015
-0.107184
0.0658714
0.0644724
0.102167
-0.0969113
0.0653931
0.0656398
0.0914612
-0.0877982
0.0653511
0.0643098
0.0701989
-0.0696039
-0.0868312
-0.0839027
0.0663033
0.0755241
-0.0866143
-0.0740199
-0.089831
-0.0493121
0.0998517
0.0689458
0.0384289
0.0771136
-0.0766607
0.0572151
-0.0894799
0.0688903
-0.0766537
-0.0725705
-0.091292
-0.070213
-0.089214
-0.0750141
-0.0718975
0.0705779
-0.0676696
-0.0779225
0.0580422
-0.0769442
-0.0705749
-0.086067
0.0672602
-0.0710075
-0.0830839
0.0668326
-0.0834751
-0.08953
-0.0692044
0.070838
-0.0590465
0.0768509
-0.0839892
-0.0647592
-0.06419
-0.0714241
0.0705876
-0.0549921
-0.0564312
-0.0671475
0.0635253
-0.054038
-0.0558665
-0.0597564
0.0560089
-0.0472311
-0.050935
-0.0525189
0.0494188
-0.0357764
-0.0419952
-0.0469356
0.0451641
-0.01924
-0.0279758
-0.0441494
0.0439293
0.000443366
-0.00956526
-0.0444741
0.0457601
0.0204391
0.0105227
-0.0477101
0.0502543
0.038058
0.0295348
-0.0532317
0.0565527
0.0513304
0.0450664
-0.0600369
0.0635962
0.0597015
0.0557996
-0.0670773
0.0704118
0.0640767
0.0619437
-0.0735176
0.0764064
0.0661481
0.0649035
-0.0790531
0.0815258
0.0673463
0.0663957
-0.0838368
0.0860616
0.0680825
0.0673606
-0.0882177
0.0903705
0.0678021
0.0676798
-0.0925213
0.0947169
0.0652336
0.0664536
-0.0969187
0.0991092
0.0585812
0.0620882
-0.10122
0.103231
0.0464049
0.0528232
-0.104991
0.10651
0.0288194
0.0379303
-0.107707
0.108485
0.00775021
0.0183776
-0.108932
0.109809
-0.0139208
-0.00326475
-0.109172
0.108208
-0.0319979
-0.0232605
-0.105388
0.10355
-0.0474748
-0.0395671
-0.0549501
0.0557849
0.0962889
0.0562669
-0.0534279
0.100711
0.101168
-0.0556476
0.0558036
0.0893897
0.0929188
-0.0552531
0.0542865
0.082389
0.085478
-0.052951
0.051308
0.0763786
0.0789365
-0.0507749
0.0490842
0.0736009
0.0750823
-0.0466047
0.0438046
0.0717459
0.0730243
0.0652997
-0.0620124
0.0287331
-0.068083
0.0699294
0.0419582
0.0356456
0.0598607
-0.0582105
0.0130911
0.0208639
0.0569798
-0.0568311
-0.00417776
0.00410282
0.0573088
-0.0584001
-0.0202893
-0.0123329
0.0600327
-0.062173
-0.0339498
-0.0272869
0.0646913
-0.0674952
-0.0440379
-0.0390725
0.0704213
-0.0734305
-0.0509315
-0.047378
0.076416
-0.0794312
-0.0555206
-0.0529967
0.0824174
-0.0854324
-0.058512
-0.0566704
0.0884182
-0.0914382
-0.061024
-0.0592653
0.0944759
-0.0976239
-0.0636253
-0.0618579
0.100868
-0.104277
-0.0651654
-0.0641594
0.107797
-0.111454
-0.0637066
-0.0644543
0.115137
-0.1188
-0.0578717
-0.0609522
0.122255
-0.125397
-0.0470972
-0.052801
0.128052
-0.130162
-0.0305582
-0.0393329
0.13164
-0.13246
-0.00910516
-0.0201452
0.13249
-0.131906
0.0138952
0.00247607
0.130602
-0.128642
0.0344871
0.0244884
0.126129
-0.123206
0.0500748
0.0428251
0.119999
-0.116641
0.0590955
0.0550918
0.113254
-0.109875
0.0624926
0.0610857
0.106627
-0.103512
0.062278
0.0623918
0.100496
-0.0958355
0.0606905
0.0612937
0.0912975
-0.0853979
0.0609331
0.0617652
0.0642258
-0.0669574
-0.0807436
-0.08275
0.0615779
0.0745108
-0.0840115
-0.0848735
-0.0667853
0.0727038
-0.0804741
0.108167
-0.11119
-0.0444522
0.105572
-0.0508324
0.0502598
-0.0514147
0.0729007
0.0472651
0.0729241
-0.0728929
-0.0895085
-0.0710325
-0.0904725
0.0648899
-0.0835014
-0.069182
-0.0906069
-0.06721
-0.0898645
-0.0652249
-0.0848163
0.0646059
-0.0651207
-0.0802288
0.0604456
-0.0785897
-0.087912
-0.0872653
0.0823393
-0.0598332
-0.06554
0.0748688
-0.0942023
0.0926393
-0.0979482
-0.0602312
-0.0614112
-0.0751541
0.0731469
-0.0570392
-0.0570048
-0.0718335
0.0699891
-0.0531477
-0.0551178
-0.0664637
0.0627673
-0.0503416
-0.052341
-0.0590229
0.0552641
-0.0434723
-0.0471905
-0.0517128
0.0485658
-0.0326294
-0.0384439
-0.046009
0.0441783
-0.0174093
-0.025419
-0.0431065
0.042846
0.000703911
-0.00849349
-0.0433817
0.0446879
0.0191329
0.00998705
-0.0466837
0.0492951
0.0354465
0.027539
-0.052365
0.055794
0.0479013
0.0419965
-0.0594018
0.0630945
0.0560088
0.0521919
-0.0667221
0.0702276
0.0605712
0.058316
-0.0735227
0.0766307
0.0630401
0.0616084
-0.0795267
0.0822787
0.0645943
0.0634997
-0.0848991
0.0874577
0.0655238
0.0647402
-0.089968
0.0925008
0.0652693
0.0651695
-0.0950365
0.0976223
0.0626479
0.0639178
-0.100207
0.102769
0.0560191
0.0595037
-0.105207
0.107489
0.0441235
0.0503846
-0.109503
0.111167
0.0271556
0.0359156
-0.112428
0.113277
0.00690093
0.0171172
-0.113626
0.113532
-0.0138266
-0.00361387
-0.11339
0.112611
-0.0312184
-0.0231187
-0.0381466
-0.0592657
0.0592318
0.0963229
0.0563929
-0.056698
0.101016
0.0982957
-0.0598805
0.0598833
0.089387
0.0922701
-0.059438
0.0585757
0.0832513
0.0859233
-0.0573167
0.0556963
0.077999
0.0801956
-0.0551691
0.0533648
0.0754052
0.0756096
0.0749745
0.0643188
-0.0619933
0.0264076
-0.0669007
0.0700327
0.0388262
0.0330637
0.0594428
-0.0575478
0.0111961
0.0183135
0.0569159
-0.0569015
-0.00419209
0.00347091
0.0574875
-0.0586682
-0.0191086
-0.0117469
0.0604113
-0.0626397
-0.0317215
-0.0255438
0.0652164
-0.0680654
-0.0411888
-0.0364958
0.0710167
-0.0740596
-0.0478885
-0.0444267
0.0770974
-0.080188
-0.0524301
-0.0499589
0.083278
-0.086419
-0.055371
-0.0535804
0.0895549
-0.0927497
-0.0578291
-0.0561295
0.0959855
-0.0993571
-0.0602538
-0.0586221
0.10284
-0.106497
-0.0615081
-0.0606766
0.110265
-0.114174
-0.0597974
-0.0606868
0.118115
-0.122055
-0.0539323
-0.0570108
0.125802
-0.129245
-0.0436551
-0.0490531
0.13217
-0.134486
-0.0282421
-0.0364077
0.136082
-0.136936
-0.00825155
-0.0185489
0.136963
-0.136223
0.0131548
0.00250323
0.13477
-0.132602
0.0323196
0.0230355
0.129843
-0.126616
0.0468472
0.0400662
0.123124
-0.119446
0.0554174
0.0516001
0.115739
-0.112062
0.0588155
0.0573785
0.108528
-0.105129
0.0588789
0.0588584
0.101883
-0.0987731
0.0575802
0.058048
0.0936482
-0.0890876
0.0563724
0.0566404
0.0849991
-0.0819906
0.0574371
0.0574894
-0.0743775
0.060739
-0.0633056
-0.0774312
0.0620401
-0.0633485
-0.0772813
-0.0767274
0.0567769
0.0717547
-0.0830624
-0.0539299
0.102804
0.0738962
0.0434016
0.0633486
-0.100345
-0.0609516
-0.0715029
-0.0890382
0.0709912
-0.101845
0.0689948
-0.084579
-0.070046
-0.0896084
0.0662074
-0.0889698
-0.0686155
-0.0892014
-0.0669982
-0.0880913
-0.0652032
-0.0847338
-0.0645896
-0.0789877
0.0603579
-0.0628538
-0.0747854
0.0575743
-0.0739438
-0.0876602
-0.0988375
0.0928735
-0.0542672
-0.0648247
-0.101566
0.0660456
0.103116
-0.103075
-0.064866
-0.0566728
-0.0876451
0.0833862
-0.0555743
-0.0561828
-0.0795049
0.0752813
-0.0528155
-0.0531236
-0.0721006
0.0698026
-0.0508497
-0.0519372
-0.066326
0.0626747
-0.0466904
-0.0488644
-0.0589643
0.0552963
-0.0398042
-0.0434802
-0.0518148
0.0486996
-0.0295143
-0.0349624
-0.0461443
0.0442928
-0.0155578
-0.0228636
-0.0432222
0.0429301
0.000995993
-0.0074229
-0.0434381
0.0447214
0.0178496
0.00947911
-0.046702
0.0493049
0.0328437
0.0255584
-0.0523762
0.0558138
0.0444637
0.0389252
-0.0594429
0.0631705
0.0522812
0.0485628
-0.0668524
0.0704451
0.0569785
0.0546341
-0.0738609
0.0771283
0.0597727
0.0581926
-0.0802197
0.0832029
0.061611
0.0604083
-0.0860812
0.0889264
0.0626786
0.061862
-0.0917398
0.0945892
0.0624199
0.0623561
-0.0974595
0.100371
0.0597367
0.0610476
-0.103266
0.106135
0.0531497
0.0566085
-0.108836
0.111341
0.041619
0.0476833
-0.113526
0.115326
0.0253557
0.0337306
-0.116639
0.117469
0.00607111
0.0158044
-0.117746
0.117481
-0.0135614
-0.00389143
-0.11673
0.11598
-0.0304687
-0.0223674
-0.114645
0.112216
-0.0420231
-0.0368114
-0.108018
0.105203
-0.0511144
-0.0466349
-0.0580469
0.0594916
0.0995717
0.0576736
-0.0541475
0.101677
0.10243
-0.0604895
0.0620364
0.094776
0.0972978
-0.062628
0.062748
0.089267
0.0916784
-0.0624257
0.0616704
0.0840066
0.0862456
-0.0605017
0.0589599
0.0795409
0.0813642
-0.0570997
0.0562587
0.0762463
0.0774697
-0.0543358
0.0518868
0.0753498
0.0768973
-0.0489453
0.0467559
0.0760856
0.0758656
0.0699908
-0.0666367
0.0354721
-0.0732271
0.0761551
0.0438279
0.0401653
0.0637941
-0.0606165
0.0232299
0.0302211
0.0590224
-0.0579434
0.0101171
0.0167194
0.0574565
-0.0575193
-0.0041293
0.0029841
0.0582018
-0.0594681
-0.0178423
-0.0110644
0.0612632
-0.0635248
-0.0294599
-0.0237488
0.0660996
-0.0689245
-0.0383639
-0.033921
0.071847
-0.0748691
-0.0448665
-0.0415042
0.0779168
-0.0810465
-0.0493004
-0.0469112
0.0841991
-0.0874173
-0.0521528
-0.0504278
0.0906417
-0.0939447
-0.0545262
-0.0529051
0.0973084
-0.100826
-0.0567366
-0.0552584
0.104461
-0.108275
-0.0576949
-0.0570407
0.112194
-0.116253
-0.0557387
-0.0567675
0.120344
-0.124443
-0.0498338
-0.0529194
0.128361
-0.131982
-0.0400341
-0.0451347
0.135076
-0.137532
-0.0257863
-0.0333132
0.139216
-0.140094
-0.00737328
-0.0168654
0.140116
-0.139268
0.012307
0.00252499
0.13769
-0.135386
0.0300149
0.021458
0.132475
-0.129073
0.0434447
0.0371554
0.125371
-0.12149
0.0515364
0.0478989
0.117571
-0.113689
0.0549333
0.0534591
0.109951
-0.10637
0.0552975
0.0551207
0.102971
-0.0997425
0.0543513
0.0546498
0.0967221
-0.0937976
0.053448
0.0536199
0.0892631
-0.0847249
0.0528989
0.052955
0.080369
-0.0748785
0.0520837
0.052421
-0.0865349
0.0683051
-0.0450758
-0.0929748
0.0580151
-0.0601718
-0.071787
-0.0720169
0.0551535
0.0705387
-0.0846063
-0.0704567
-0.0886275
0.0666022
-0.105983
-0.0636943
-0.104041
0.0690776
0.0629383
-0.0987377
0.0674575
-0.0858291
-0.0695891
-0.0886348
0.10902
-0.111928
-0.0482066
0.104971
-0.0500992
0.0496575
-0.0517559
0.078184
0.0475402
0.0782724
0.0677304
-0.0883951
-0.0684643
-0.0877353
-0.0671298
-0.0861647
-0.0654328
-0.0838906
-0.0630592
-0.0787824
-0.0621665
-0.0727907
-0.0644385
-0.108095
0.0665507
-0.111272
0.109924
-0.0630905
0.0661917
-0.115633
-0.0618307
0.055499
-0.0667089
-0.0605772
0.0512829
-0.0678008
-0.112527
0.0706238
-0.0875782
-0.102728
0.0958222
-0.0579605
-0.0564981
-0.0948371
0.093375
-0.0528051
-0.0556877
-0.0888133
0.0841518
-0.0509129
-0.0516211
-0.0809522
0.0774433
-0.0493067
-0.049924
-0.0737798
0.070169
-0.0472388
-0.0482737
-0.0666189
0.0630381
-0.0431096
-0.0453143
-0.0594729
0.0559704
-0.0363018
-0.0399149
-0.0526573
0.0496509
-0.0265078
-0.0316493
-0.0471797
0.0453527
-0.0137308
-0.0203925
-0.0442945
0.0439981
0.00129238
-0.00636465
-0.0444775
0.045709
0.0166181
0.00899967
-0.0476214
0.0501462
0.0303189
0.023646
-0.0531394
0.0565021
0.0411011
0.0359319
-0.0600684
0.0637513
0.0485983
0.0449965
-0.0674132
0.0710219
0.0533698
0.0509722
-0.0744946
0.0778608
0.0564065
0.05472
-0.081091
0.0842506
0.0584515
0.0571781
-0.0873325
0.0904124
0.0595987
0.0587801
-0.0934739
0.0965864
0.0593074
0.0592945
-0.0997182
0.102896
0.0565587
0.0579158
-0.106034
0.10912
0.0500638
0.0534707
-0.112038
0.114695
0.0389616
0.0447658
-0.116993
0.118876
0.0234727
0.0314324
-0.120221
0.121008
0.00528412
0.0144596
-0.121212
0.120824
-0.013173
-0.00409561
-0.11987
0.118407
-0.0290059
-0.0214138
-0.116599
0.114538
-0.0399626
-0.035003
-0.044024
-0.0600491
0.0608939
0.0987268
0.0573376
-0.0568307
0.10117
0.0997189
-0.0626146
0.0637132
0.0936775
0.0955771
-0.0643741
0.0646007