/*--------------------------------*- C++ -*----------------------------------*\
  =========                 |
  \\      /  F ield         | OpenFOAM: The Open Source CFD Toolbox
   \\    /   O peration     | Website:  https://openfoam.org
    \\  /    A nd           | Version:  10
     \\/     M anipulation  |
\*---------------------------------------------------------------------------*/
FoamFile
{
    format      ascii;
    class       surfaceScalarField;
    location    "25.5";
    object      phi;
}
// * * * * * * * * * * * * * * * * * * * * * * * * * * * * * * * * * * * * * //

dimensions      [0 3 -1 0 0 0 0];

internalField   nonuniform List<scalar> 
57492
(
0.000245699
-1.11457e-05
-4.56299e-05
-0.000188923
-0.000170957
0.000279972
0.000136685
-2.90521e-05
8.17669e-05
0.000326696
-0.000379411
0.00315946
0.00338652
-0.000271926
-0.00627405
-0.00862818
0.00404533
0.00774231
0.00102016
-0.00094604
-0.000495196
0.000421076
-0.00183111
0.000343324
-0.000132781
0.00162057
0.000379932
-0.00119088
0.00151562
-0.0046288
0.00442391
-0.00131073
0.00128409
0.0042494
-0.00401787
-0.00066174
-0.00022188
0.000735897
0.000147722
-0.000126895
-0.000881528
0.000346683
0.000250965
-0.000347648
-3.02116e-05
-5.74649e-05
8.65499e-05
0.00232662
-0.00222989
-0.000838309
0.000741581
0.000320289
0.00187374
0.000132592
-0.00032401
0.000787483
0.00333847
-0.00380194
-0.000661146
0.00326428
-0.00292715
0.000135715
-0.000289472
0.000153757
-0.00167008
0.00122434
0.000581458
-0.00466921
0.000196253
0.00334495
0.00112801
0.00122258
-0.00473801
-0.00115378
-0.000135026
-0.000213462
-0.000725877
0.00107436
-0.000298707
0.000186399
-2.27181e-05
-0.0026153
0.00221198
0.000760272
-0.000356951
-0.0031051
0.000916884
-0.000427087
-0.00112675
0.000595171
0.00045703
7.45499e-05
-0.000778627
-0.00036169
1.35653e-05
-0.000369217
-0.00114044
0.00129998
0.000209676
-0.000418507
0.000117238
-6.79478e-05
0.00106391
-0.000710019
-0.000660911
0.000307023
-0.000919381
0.000722678
0.00126061
-0.00124829
-0.0023942
0.00226264
0.00137984
-0.00278511
-0.000680597
0.00221741
-0.000711049
-0.000153238
0.000864287
-0.000272757
-0.000438292
-0.0013811
0.00190131
-0.000792962
0.000204074
-0.000771176
-0.000814001
-0.000821956
0.00116528
-0.000234218
-0.00190169
0.00115074
0.000750942
-0.00432134
0.00241965
0.00475571
-0.000993353
0.000526081
-0.00428843
0.00352173
8.4126e-05
0.00114985
-0.000892514
0.00463897
-0.00473981
0.00198534
0.000415842
-0.00202125
0.00199038
-0.000137824
0.00238675
-0.000892864
-0.0017717
0.000277817
0.0026742
0.000128386
0.00126113
-0.000775101
0.00150436
0.00117176
0.00170993
-0.00468465
-0.000658179
0.00058453
0.0047583
-0.00481817
-0.00033125
0.000464766
0.00115154
0.0045124
-0.00443585
-0.00122808
0.000820374
-0.00429764
-0.00292521
0.0025901
0.00263699
-0.00230188
-0.000371388
0.00327801
-0.00583183
1.46555e-05
-0.000124885
-7.27316e-07
0.000110956
-0.000339522
6.5297e-06
7.1844e-05
-0.000142857
-0.000268509
-6.03489e-05
7.30823e-06
1.27292e-05
-1.34565e-05
9.6203e-06
3.10886e-06
0.00738992
0.00378468
-0.00593463
-0.00523998
0.0023219
-0.000690502
0.00575853
-0.00792402
0.00307048
0.00717544
0.00226499
-0.00640432
0.00161712
-0.00287192
0.00214142
-0.000886617
0.0023657
-0.00292159
0.00217301
-3.10806e-05
2.26664e-05
-2.73146e-06
-7.29666e-05
-3.74392e-06
-0.000231423
-3.04668e-05
-0.00295133
0.00536977
0.00338777
-0.00580621
0.00435871
-0.00494433
0.00297695
0.00476956
-0.00237674
0.0102448
-0.00157247
-0.00175874
-0.00691355
0.00217613
0.00553138
0.00253726
0.00155992
-0.00511492
0.00573113
4.73055e-05
-7.63576e-05
0.000129072
0.000825996
0.00177042
-0.000631008
-0.00196541
0.00105172
0.000100975
-9.96548e-05
2.75929e-05
7.20619e-05
-0.000307505
0.000207851
-0.00665543
0.00342264
-0.00202084
0.00525362
-0.00577313
-0.00253626
0.00165396
-0.00263823
0.00210719
-0.00524209
0.00196671
-2.63226e-05
-0.000950533
-0.00098985
-0.000716815
0.00224378
0.000439743
-0.000841055
-8.58009e-05
0.000210041
-0.000777215
-9.01627e-05
-0.000273139
-0.00145461
-0.000280837
-6.87064e-05
2.47729e-05
0.000324771
-0.000236746
-0.000591826
0.000547734
0.000156102
1.948e-05
-0.000412327
9.18587e-05
-4.46332e-06
0.000119451
-2.81968e-06
-0.000645415
0.000372276
8.36636e-05
-0.000729078
0.000175742
-0.000483248
0.00427351
0.00333168
-0.000178478
0.00212875
-0.00648342
-1.02284e-05
0.00226373
-0.00179739
-0.000456116
0.000292001
0.00316387
-0.00346609
0.00327734
0.00193552
-0.000596083
-0.00461678
-0.000971441
0.000419208
0.00382957
0.00408718
-0.0031231
-0.00163285
-0.00303847
0.00123114
0.00344018
-0.0012015
0.00351236
-0.00394372
0.000404711
-0.00464468
9.03652e-05
3.79645e-05
-5.0643e-06
0.00109251
-0.000640281
-0.000623187
8.46808e-05
-0.000354027
0.00136186
0.000384149
-1.94961e-05
-0.000187458
0.000333654
6.85764e-05
-0.000214773
0.000996808
-0.00122255
3.82827e-05
-0.000359761
0.000835101
0.000521468
-0.000125896
9.979e-05
-0.00617341
0.00364255
0.00595349
0.00774639
-0.00203692
-0.00824573
-0.00289121
0.0044642
-9.71944e-05
-0.00087855
-0.000164699
-0.000524973
9.27154e-06
4.71624e-05
-0.000130914
3.86963e-05
4.50554e-05
-0.00012997
0.000143621
3.35111e-05
-0.000297838
3.69538e-05
-0.000266922
-0.000314233
5.61809e-05
-0.000808246
-0.000337226
-0.00112329
-0.00120819
0.00138625
0.00094523
4.72661e-05
0.00058891
-0.00175947
-0.00157997
0.000419051
-0.0029438
0.0013333
-5.958e-05
-0.00351055
0.000807488
-0.000240736
0.000876307
-0.00334717
0.00256383
-9.29657e-05
0.000679269
-0.00272792
0.00292495
0.00252853
-0.010197
-0.00177567
0.00219176
0.00303003
-0.0034724
0.0020721
-0.000324032
-9.12365e-07
2.03923e-05
-5.0267e-06
4.11435e-06
0.000285653
-4.1422e-05
0.00528433
-0.00319218
-0.0021998
0.000107656
0.00453757
-0.000145749
0.00476949
5.74204e-05
-0.0051983
0.00131527
0.003396
5.8212e-05
0.000495522
-0.00302951
0.00384926
5.75751e-06
-1.07842e-05
0.000762632
-0.00213358
-0.00286545
0.00124354
0.00310743
0.00119593
-6.71208e-05
-0.0012577
0.000128889
0.000392338
-0.000115788
-0.00153312
0.000322054
0.00193374
0.000271723
-0.0014125
-0.000135209
7.37335e-05
-6.66545e-06
1.17855e-05
-4.66382e-06
-4.56213e-07
1.18136e-05
-2.80758e-07
-1.81983e-05
5.02456e-05
-0.000109884
7.14522e-05
-0.00177245
0.00272818
-0.000779993
0.00295518
-0.00386617
-0.00086145
6.27629e-07
-0.00208051
0.00240193
-0.00404617
0.000250567
-0.00276997
-0.00186301
0.000586817
0.00270624
0.00291177
-0.00542176
0.00260226
0.00431279
-0.00420881
0.00223952
-0.00308909
0.00161075
-0.000761181
0.00245364
-0.00302853
0.0028144
0.00438576
0.00187096
0.00494499
-0.000263984
-0.00491643
0.000235423
0.00546996
-0.00068552
0.00016055
0.00552498
-0.000856029
2.95382e-05
-0.00469849
0.00396932
-0.00132776
0.00288342
0.00431441
-0.00138167
0.0011167
-0.00404943
0.00124257
0.00439669
-0.00132485
-0.00388411
-0.0016465
0.00414894
0.00104535
-0.00369832
-0.00183535
0.00362903
-0.00235968
-0.00325116
0.00213212
0.00347871
-0.00237989
-0.00328045
0.00330067
0.00222236
0.00306073
-0.00146355
-0.00381954
0.00303521
-0.00319275
-0.0025768
0.00259686
0.00301516
-0.0020327
0.00251663
-0.00408147
0.0036279
-0.00100997
-0.00508401
0.00104204
0.00539396
-0.00135199
0.00190402
-0.00034018
0.0011067
-0.00116893
0.000402401
-0.000170654
0.00140704
-0.00157657
-5.57576e-05
0.000322589
0.000117317
-0.00152786
-0.00234418
0.00151771
-7.20286e-08
-2.08731e-07
2.79814e-07
-3.51841e-07
-0.000149701
-0.00260964
0.00198424
-0.00229739
-0.000103445
0.00225113
7.32579e-05
-0.00240824
3.75967e-05
-0.000394419
0.00191766
0.000422947
-0.00194619
0.00204155
0.000455258
-0.00289123
0.00191598
0.00204323
-2.84246e-06
7.8205e-07
4.00249e-05
-4.7979e-06
1.95543e-06
-4.01585e-06
-5.97341e-06
4.84784e-06
-5.92233e-05
1.3004e-06
-7.27381e-06
6.14824e-06
-4.59529e-05
2.22008e-05
-0.000274955
2.34727e-05
-6.94257e-05
4.56735e-05
5.34957e-05
-5.38374e-06
-0.000174008
-1.7007e-05
7.05027e-05
-2.23908e-05
0.00136202
0.00329991
-0.00424271
0.00141683
-0.00453275
0.00447794
0.00470703
9.70092e-06
-0.00118462
-0.00244496
0.00116047
0.00246911
-0.000708859
0.00272111
-0.00319687
0.000159668
-0.00331348
0.00413535
-0.00417341
-1.32904e-05
5.13435e-05
0.00413452
3.71445e-05
-3.63128e-05
-2.60793e-05
-0.00416603
1.87023e-05
0.00416636
-1.56633e-06
-3.02711e-05
0.00424126
6.02829e-05
-0.000135181
2.94537e-05
0.00434766
-0.00013586
0.00429537
-0.00426922
3.3016e-06
-0.000202593
0.00455143
-1.17056e-06
0.00417653
-8.37515e-05
-0.0041377
-7.12361e-05
-0.00412261
-1.66582e-05
-0.00411593
3.04649e-05
-0.0042032
7.39827e-05
-0.00413337
-9.59106e-05
-0.000196543
0.00474936
-1.38771e-06
0.003982
-2.01574e-06
-2.0839e-05
-0.00412977
-1.54229e-05
-0.00416581
1.16009e-05
-2.94906e-05
-0.00436679
0.000266514
-5.297e-07
0.00475081
-9.26394e-07
0.00398387
-2.39487e-06
-0.00431731
0.000122011
0.00475232
-3.44232e-07
-1.15957e-06
-4.73847e-07
0.00475349
-7.00897e-07
0.00398534
-1.81939e-06
0.00398709
-2.22081e-06
-2.49028e-05
-0.00433885
-3.04009e-06
-0.00433877
-3.44595e-06
-2.22322e-07
0.00475467
-9.55617e-07
0.00398852
-1.64645e-06
-4.21649e-07
-0.00433542
-3.00998e-06
-0.00433512
-4.07502e-06
-2.28056e-07
0.0047554
-5.01213e-07
0.00399035
-2.06521e-06
-2.77319e-07
-0.00433158
-3.56131e-06
-0.00433154
-3.85894e-06
2.69351e-07
0.00475591
-7.7501e-07
0.00399211
-1.49223e-06
-3.70394e-07
-0.00432766
-3.55021e-06
-0.00432741
-4.50032e-06
7.49787e-07
0.00475548
-3.23941e-07
0.00399479
-1.92737e-06
-1.98373e-07
-0.00432334
-4.11703e-06
-0.00432328
-4.3228e-06
2.22909e-06
0.00475387
-6.15215e-07
0.00399837
-1.35296e-06
9.75836e-06
-0.00432895
-4.14671e-06
-0.00430854
-4.98655e-06
4.66742e-06
0.00474937
-1.67154e-07
0.00400484
-1.79846e-06
2.79961e-05
-0.00420289
-0.000154065
-0.00423107
-4.94751e-05
1.006e-05
0.00473978
-4.73725e-07
0.00399759
1.73111e-05
2.77499e-05
-0.00421902
-1.16117e-05
-0.00419556
-7.75651e-06
2.02345e-05
0.00471957
-2.61633e-08
0.00397017
4.7655e-05
5.98527e-05
-0.00406642
-0.000212461
-0.00407055
-6.51607e-05
0.000201856
0.00451806
-3.41517e-07
0.00409154
8.04808e-05
6.89229e-05
-0.00404404
-9.13014e-05
-0.00402196
2.03414e-05
0.000178205
0.00418551
0.00015434
0.00415956
0.000110183
0.000109906
-0.000159336
-0.00399461
-0.00400191
8.98503e-05
1.19886e-05
4.0369e-05
0.00413315
0.00413303
3.85238e-05
-0.00405897
0.00412687
-0.000159204
-0.0040776
-0.000140703
0.000187602
-0.000167774
-0.00401444
9.01117e-05
-0.00390442
-0.00404222
0.0040812
-5.05923e-05
-0.000127808
-0.00393644
0.00394074
-8.45152e-06
-9.30866e-06
-0.00394477
0.00394858
-7.3549e-06
-8.14439e-06
-0.00395214
0.00395552
-6.3867e-06
-7.12571e-06
-0.0039587
0.00423077
-5.54717e-06
-6.22596e-06
-0.00422079
0.00416472
7.47703e-05
-5.44899e-06
-0.00430042
0.00426825
-4.14364e-06
-8.43538e-05
-0.00413296
0.00407386
-7.60747e-05
0.000105017
-0.0039783
0.00398018
-3.05039e-06
-4.03074e-05
-0.00398195
0.00398362
-2.60076e-06
-3.1505e-06
-0.0039852
0.00398669
-2.19892e-06
-2.7347e-06
-0.0039881
0.00398944
-1.84205e-06
-2.36516e-06
-0.00399071
0.00399191
-1.5253e-06
-2.0377e-06
-0.00399304
0.00399412
-1.24417e-06
-1.74804e-06
-0.00399514
0.0039961
-9.91569e-07
-1.49069e-06
-0.00397337
0.00406746
6.02475e-05
2.23901e-05
0.00405782
5.00093e-05
-2.5313e-05
7.99713e-05
0.0040785
-4.35977e-06
0.00411208
0.0040826
-0.00401472
1.25987e-05
-0.0041229
0.00411462
4.6801e-05
6.98838e-05
0.00401366
-0.00399411
-2.24048e-06
4.66008e-05
0.00399304
-0.0039919
-2.49309e-06
-2.86807e-06
0.00399071
-0.00398944
-2.76545e-06
-3.12103e-06
0.0039881
-0.00398668
-3.06898e-06
-3.39907e-06
0.00398519
-0.0039836
-3.41055e-06
-3.71192e-06
0.00398193
-0.00398015
-3.79702e-06
-4.06522e-06
0.00405943
-0.00405189
-4.2371e-06
-4.46712e-06
0.00411821
-0.00407187
-6.29983e-05
-4.92045e-06
0.00404339
-0.00401497
4.5558e-05
1.99098e-06
0.00406318
-0.00408734
3.57642e-05
-4.77004e-05
0.00395865
-0.00395547
-6.62986e-06
-6.67868e-06
0.00395211
-0.00394852
-7.44924e-06
-7.43269e-06
0.00394473
-0.00394067
-8.38068e-06
-8.29316e-06
0.00393638
-0.00397641
-9.4461e-06
-9.27642e-06
0.00397376
-0.00402825
-1.06688e-05
-1.04027e-05
0.0039962
-0.00393412
2.77625e-05
-1.17099e-05
-0.00388704
4.30317e-05
-0.00410445
-0.000140924
0.00407085
6.69467e-05
-9.4865e-07
0.00411121
0.000143194
-0.000133249
-0.00391436
0.000108545
-0.00385239
0.000141828
-0.000137544
-0.00410873
-0.00400586
-0.00403601
0.00397447
-9.76653e-05
0.00407801
-0.00410777
-0.000111159
-9.87007e-05
-0.0039278
0.00393248
-5.52682e-05
-8.11428e-05
-0.00393701
0.00394128
-1.27267e-05
-1.38406e-05
-0.00394528
0.00394906
-1.11306e-05
-1.21415e-05
-0.00395259
0.00395594
-9.7329e-06
-1.06613e-05
-0.00395908
0.00396204
-8.50929e-06
-9.36464e-06
-0.00396482
0.00404704
-7.44218e-06
-8.23369e-06
-0.00396992
0.00397227
-6.49393e-06
-7.24047e-06
-0.00408366
0.00401325
-5.66068e-06
-6.37076e-06
-0.00397853
0.00398039
-4.91889e-06
-5.5853e-06
-0.00398215
0.00398381
-4.26612e-06
-4.90368e-06
-0.00398538
0.00398687
-3.68783e-06
-4.29927e-06
-0.00398827
0.0039896
-3.17507e-06
-3.76471e-06
-0.00399085
0.00399205
-2.7203e-06
-3.29133e-06
-0.00399317
0.00399424
-2.31673e-06
-2.87233e-06
-0.00399525
0.00399622
-1.95427e-06
-2.50029e-06
-0.00399682
0.0040298
2.72708e-05
2.17872e-05
9.48738e-06
-1.8528e-05
0.00408754
1.78173e-06
0.00407855
-0.0040183
0.00405861
2.66328e-05
6.15052e-05
0.00406049
-0.00406092
4.72258e-05
0.0040283
3.12502e-05
-1.41448e-06
4.65819e-05
0.00406604
0.00409213
0.00406098
-0.00403072
-1.76675e-05
6.99489e-05
0.00399525
-0.00399423
-3.26016e-06
1.1136e-05
0.00399317
-0.00399203
-3.62652e-06
-3.9331e-06
0.00399085
-0.00398959
-4.02943e-06
-4.30648e-06
0.00398826
-0.00398685
-4.48092e-06
-4.72291e-06
0.00398537
-0.00398379
-4.98939e-06
-5.19198e-06
0.00398213
-0.00398037
-5.56308e-06
-5.72172e-06
0.00397851
-0.00397654
-6.21338e-06
-6.32207e-06
0.00397446
-0.00403051
-6.94666e-06
-7.00031e-06
0.00402075
-0.00396741
-7.77589e-06
-7.77053e-06
0.00400647
-0.00396198
-8.72398e-06
-8.64166e-06
0.00395903
-0.00395587
-9.79186e-06
-9.63484e-06
0.00395253
-0.00394897
-1.10138e-05
-1.07668e-05
0.0039452
-0.00394117
-1.24093e-05
-1.20587e-05
0.00393691
-0.00393235
-1.40092e-05
-1.35382e-05
0.00392751
-0.00392233
-1.58479e-05
-1.52371e-05
0.00391685
-0.00387112
-1.79642e-05
-1.71977e-05
0.00384331
-0.00378496
5.019e-05
1.52249e-05
-0.00413184
-0.000113479
9.37981e-05
-0.000158409
-0.00378778
-0.00375529
6.41273e-05
-0.000221373
-0.0038514
2.55036e-05
0.00403489
0.00403486
4.00138e-05
-7.2524e-05
9.20642e-05
-0.00412827
-7.45386e-05
-0.00412982
6.70527e-05
-0.000155969
-0.00369886
3.67468e-05
-0.00372498
-0.00413516
0.00406902
-0.00405655
1.41558e-05
0.00402782
6.67054e-05
7.07706e-05
-3.01698e-05
0.00402544
4.55143e-05
0.00406012
-0.00408355
0.00413303
-0.00012402
-0.000131068
0.000105248
-0.004104
0.0041693
-6.82396e-05
0.000308117
-0.00440917
-4.53216e-05
-0.00413296
0.00410473
-8.29275e-05
-0.000113404
-0.00405581
0.00399521
-3.70617e-05
-4.97885e-05
-0.00396931
0.0039334
-1.9359e-05
-5.52453e-05
-0.00393788
0.0039421
-1.6947e-05
-1.83143e-05
-0.00394604
0.00394977
-1.48568e-05
-1.60864e-05
-0.00395326
0.00395656
-1.3034e-05
-1.41501e-05
-0.00395965
0.00396258
-1.14395e-05
-1.24591e-05
-0.00396533
0.00396793
-1.00417e-05
-1.09801e-05
-0.00397037
0.00397269
-8.81133e-06
-9.68285e-06
-0.00397486
0.00397692
-7.72707e-06
-8.54008e-06
-0.00397887
0.00398071
-6.76488e-06
-7.52884e-06
-0.00398245
0.0039841
-5.91482e-06
-6.63724e-06
-0.00398564
0.00398712
-5.16202e-06
-5.84798e-06
-0.0039885
0.00398982
-4.49514e-06
-5.15016e-06
-0.00399107
0.00399225
-3.90407e-06
-4.53254e-06
-0.00399336
0.00399443
-3.37997e-06
-3.98595e-06
-0.00399543
0.00399638
-2.91159e-06
-3.50128e-06
-0.00400831
0.00401583
1.97489e-05
9.86132e-06
2.0791e-05
2.64844e-05
-9.96636e-06
0.00407102
-4.24865e-05
1.10827e-05
0.0040663
0.00406255
0.004052
0.00404925
-0.00404437
4.23464e-05
-0.00404397
0.00402243
6.15541e-05
3.65364e-05
0.00399727
-0.0040111
-3.84084e-06
2.28458e-05
0.00399542
-0.00399441
-4.27096e-06
-4.54541e-06
0.00399335
-0.00399223
-4.7483e-06
-4.98646e-06
0.00399106
-0.00398981
-5.28016e-06
-5.47958e-06
0.0039885
-0.0039871
-5.87764e-06
-6.03253e-06
0.00398564
-0.00398408
-6.55082e-06
-6.65577e-06
0.00398244
-0.00398069
-7.31046e-06
-7.35953e-06
0.00397886
-0.0039769
-8.17e-06
-8.15573e-06
0.00397484
-0.00397265
-9.14219e-06
-9.0572e-06
0.00397034
-0.00396787
-1.02425e-05
-1.00792e-05
0.00396527
-0.0039625
-1.14943e-05
-1.12394e-05
0.00395958
-0.00395646
-1.29155e-05
-1.25585e-05
0.00395316
-0.00394964
-1.45367e-05
-1.40621e-05
0.00394592
-0.00394194
-1.63897e-05
-1.57796e-05
0.00393773
-0.00393322
-1.85145e-05
-1.77475e-05
0.00392845
-0.00392334
-2.09576e-05
-2.00082e-05
0.00391793
-0.00391211
-2.37749e-05
-2.2614e-05
0.00387126
-0.00379402
-2.70523e-05
-2.56271e-05
0.00374672
-0.00374865
3.86792e-05
1.68268e-05
5.07088e-05
-5.5505e-05
-0.00372018
-0.0037243
2.6354e-05
0.000126777
-0.0041498
-9.69067e-05
-0.00391046
3.86168e-05
0.00400029
0.00403673
3.12138e-05
0.000156696
-0.00432894
1.03192e-05
-0.00376468
0.000867007
-0.00346845
0.00451743
-4.51752e-05
1.58457e-05
-0.00369497
-8.74245e-05
-0.00367794
-0.00274028
0.00417693
0.000606587
-0.00212836
-0.000188968
-0.00410529
-0.00396642
0.00413875
0.000135784
0.000318757
-0.000108252
-0.00410293
0.00406981
-9.08945e-05
-9.50255e-06
-0.0040405
0.00398911
-3.15361e-05
-8.40944e-05
-0.00396891
0.00395935
-2.75042e-05
-2.95875e-05
-0.00392998
0.00393467
-2.4047e-05
-2.58754e-05
-0.00393905
0.00394318
-2.10816e-05
-2.26956e-05
-0.00394705
0.00395071
-1.85131e-05
-1.9955e-05
-0.00395413
0.00395738
-1.62756e-05
-1.7575e-05
-0.00396041
0.00396329
-1.43187e-05
-1.54983e-05
-0.00396599
0.00396855
-1.2602e-05
-1.36803e-05
-0.00397096
0.00397324
-1.10918e-05
-1.20846e-05
-0.00397538
0.00397741
-9.76014e-06
-1.06803e-05
-0.00397932
0.00398114
-8.58221e-06
-9.4401e-06
-0.00398285
0.00398447
-7.53949e-06
-8.34463e-06
-0.003986
0.00398745
-6.61588e-06
-7.3748e-06
-0.00398882
0.00399012
-5.79753e-06
-6.51676e-06
-0.00399135
0.00399251
-5.07244e-06
-5.75735e-06
-0.00399361
0.00399466
-4.42982e-06
-5.0853e-06
-0.00399565
0.0039966
-3.85864e-06
-4.49016e-06
-0.00401042
0.00403352
-3.35337e-06
-3.96264e-06
-0.00402449
0.00402269
1.5959e-05
2.98246e-05
-0.00403907
0.00403502
4.26591e-05
5.03278e-05
5.55123e-05
-3.1004e-05
0.00404179
-3.36141e-05
6.20735e-06
0.00406243
0.00402219
3.94766e-05
1.57698e-05
0.00401577
0.00407102
-2.67978e-05
1.77304e-05
0.00403451
0.00404097
-2.19335e-05
1.29409e-06
0.00405737
0.00405592
0.00405969
-0.00404489
4.6747e-05
-0.00412287
0.00401337
0.000110792
-3.1963e-05
0.00403433
-0.0040253
3.33175e-05
2.59753e-05
0.00399746
-0.00399656
-4.73917e-06
-4.98944e-06
0.00399563
-0.00399463
-5.26673e-06
-5.4796e-06
0.00399359
-0.00399249
-5.85457e-06
-6.02514e-06
0.00399133
-0.0039901
-6.51345e-06
-6.63639e-06
0.00398881
-0.00398743
-7.25445e-06
-7.32367e-06
0.00398599
-0.00398445
-8.0898e-06
-8.09861e-06
0.00398283
-0.00398111
-9.03261e-06
-8.97371e-06
0.0039793
-0.00397738
-1.00988e-05
-9.96339e-06
0.00397535
-0.00397319
-1.13052e-05
-1.10841e-05
0.00397091
-0.00396848
-1.26723e-05
-1.23544e-05
0.00396592
-0.00396319
-1.42249e-05
-1.37964e-05
0.00396032
-0.00395724
-1.59899e-05
-1.54363e-05
0.003954
-0.00395053
-1.80024e-05
-1.73046e-05
0.00394687
-0.00394296
-2.03027e-05
-1.94389e-05
0.00393882
-0.0039344
-2.29397e-05
-2.18835e-05
0.00392972
-0.0039247
-2.59718e-05
-2.46916e-05
0.00391939
-0.00391369
-2.94703e-05
-2.79278e-05
0.00390765
-0.00390117
-3.35297e-05
-3.16718e-05
0.00384832
-0.00377137
-3.82718e-05
-3.60274e-05
0.00376862
-0.00374827
-4.4962e-06
2.36045e-05
2.26455e-05
-2.63132e-05
-0.0036913
-0.00371573
-9.89922e-06
0.000122905
-0.00411601
-2.87611e-05
-0.00387138
0.000315161
-0.00377709
1.11078e-05
-0.00386322
0.00403665
-0.00404208
4.80944e-05
0.00402297
1.98857e-05
4.83517e-05
-3.26449e-05
0.00404166
1.06557e-05
0.00405107
0.000311061
-0.00332426
2.15946e-05
-0.00372584
-0.00197016
-0.00210439
-0.0032493
0.0037422
0.000113683
4.92509e-05
-3.10927e-05
-0.00370946
1.72463e-05
-0.00368372
-0.00301488
-0.000423385
-0.00401115
-0.00390981
0.0039663
7.92862e-05
0.000151152
-0.00400274
0.00395463
-4.27903e-05
-4.5937e-05
-0.00391058
0.00391636
-3.73116e-05
-4.00444e-05
-0.00392178
0.0039269
-3.26268e-05
-3.50068e-05
-0.00393171
0.00393625
-2.8591e-05
-3.06817e-05
-0.00394051
0.00394453
-2.51059e-05
-2.69526e-05
-0.0039483
0.00395187
-2.20808e-05
-2.37256e-05
-0.00395522
0.00395838
-1.94433e-05
-2.09196e-05
-0.00396136
0.00396417
-1.71355e-05
-1.84697e-05
-0.00396682
0.00396932
-1.51097e-05
-1.63236e-05
-0.00397168
0.00397391
-1.33272e-05
-1.44386e-05
-0.00397601
0.00397801
-1.17549e-05
-1.27793e-05
-0.00397988
0.00398166
-1.03651e-05
-1.13146e-05
-0.00398334
0.00398493
-9.13448e-06
-1.00202e-05
-0.00398643
0.00398786
-8.04406e-06
-8.87424e-06
-0.00398921
0.00399049
-7.0778e-06
-7.85974e-06
-0.00399169
0.00399284
-6.22137e-06
-6.96157e-06
-0.00399392
0.00399495
-5.46271e-06
-6.1666e-06
-0.00399593
0.00399686
-4.79021e-06
-5.46306e-06
-0.00399773
0.00399857
-4.19331e-06
-4.84014e-06
-0.00403269
0.00401936
2.92855e-05
-4.28956e-06
2.76097e-05
4.24161e-05
-6.85881e-05
0.00406796
-1.67662e-05
2.93491e-05
0.00404985
0.00404784
2.20246e-09
-6.39982e-07
0.00401641
0.00400244
-3.79388e-05
5.6504e-05
0.00401595
0.00400239
0.00407978
0.00406213
-0.0040496
3.4223e-05
-0.00401214
0.00405325
6.96847e-05
1.80184e-05
0.00403691
-0.00399853
-5.06625e-06
1.32827e-05
0.0039977
-0.00399681
-5.62204e-06
-5.81965e-06
0.00399589
-0.00399492
-6.24438e-06
-6.39842e-06
0.0039939
-0.00399281
-6.94168e-06
-7.04571e-06
0.00399167
-0.00399046
-7.72507e-06
-7.77311e-06
0.00398919
-0.00398784
-8.60702e-06
-8.5921e-06
0.00398642
-0.00398491
-9.60124e-06
-9.51582e-06
0.00398333
-0.00398163
-1.07237e-05
-1.05589e-05
0.00397986
-0.00397797
-1.19926e-05
-1.17384e-05
0.00397598
-0.00397385
-1.34285e-05
-1.30738e-05
0.00397162
-0.00396924
-1.50556e-05
-1.45871e-05
0.00396673
-0.00396405
-1.69025e-05
-1.63044e-05
0.00396123
-0.00395822
-1.90025e-05
-1.82569e-05
0.00395504
-0.00395165
-2.13958e-05
-2.04808e-05
0.00394807
-0.00394424
-2.41302e-05
-2.30201e-05
0.0039402
-0.00393587
-2.72634e-05
-2.5927e-05
0.0039313
-0.00392641
-3.08641e-05
-2.92644e-05
0.00392123
-0.00391568
-3.50161e-05
-3.3108e-05
0.0039098
-0.00390351
-3.9824e-05
-3.75511e-05
0.00389683
-0.00388969
-4.54146e-05
-4.27067e-05
0.00381737
-0.00376995
-5.19166e-05
-4.8711e-05
0.00372412
-0.00368778
-1.90938e-05
-5.5727e-05
5.57628e-05
-2.77757e-05
-0.00371171
-0.00365934
2.73248e-05
9.2403e-05
-0.00389325
1.91259e-06
-0.00386219
4.73803e-05
0.00400494
0.00403851
2.53997e-05
0.000185353
-0.00365139
-0.000463605
-0.00439779
-5.49345e-05
-0.00373293
1.19312e-05
-0.00385355
2.31645e-05
-0.0037801
-0.00433045
-0.000788823
0.000188391
-0.000491973
-0.00402687
-0.00029112
-0.00391828
-2.94599e-05
-0.00370777
1.3311e-05
-8.00262e-05
-0.003645
4.69886e-05
-0.00369302
-0.00391684
-0.00355016
0.00371496
-5.11192e-05
0.00372734
-0.00409594
-0.000420226
-0.000246203
-0.00383542
0.00389499
1.97117e-05
3.06996e-05
-0.00390145
0.00390762
-4.89537e-05
-5.24012e-05
-0.00391344
0.00391897
-4.28414e-05
-4.58692e-05
-0.00392417
0.0039291
-3.75546e-05
-4.02078e-05
-0.00393373
0.00393811
-3.29757e-05
-3.53107e-05
-0.00394223
0.00394613
-2.90024e-05
-3.10676e-05
-0.00394978
0.00395325
-2.55441e-05
-2.73817e-05
-0.0039565
0.00395958
-2.25242e-05
-2.41697e-05
-0.00396247
0.00396521
-1.98789e-05
-2.13617e-05
-0.00396779
0.00397023
-1.75551e-05
-1.88997e-05
-0.00397253
0.00397471
-1.55091e-05
-1.67355e-05
-0.00397676
0.00397871
-1.37038e-05
-1.48292e-05
-0.00398054
0.00398229
-1.21078e-05
-1.31464e-05
-0.00398392
0.00398548
-1.06945e-05
-1.16586e-05
-0.00398695
0.00398835
-9.4419e-06
-1.03413e-05
-0.00398966
0.00399092
-8.33147e-06
-9.17455e-06
-0.0039921
0.00399322
-7.34717e-06
-8.14119e-06
-0.00399428
0.0039953
-6.47495e-06
-7.22622e-06
-0.00399625
0.00399716
-5.70226e-06
-6.41648e-06
-0.00399802
0.00399885
-5.01808e-06
-5.70013e-06
-0.00399962
0.00403332
-4.41041e-06
-5.06574e-06
-0.0040369
0.00404681
3.81841e-05
2.40314e-05
-0.00399324
0.00401075
2.98758e-05
7.34468e-05
6.63377e-05
-4.90007e-05
0.00403251
-1.2985e-05
-1.04799e-05
0.00403421
0.00405829
4.96219e-05
5.77552e-07
0.00401776
0.00404846
2.61414e-08
-6.36631e-07
0.00401702
0.00400304
1.2423e-06
-1.84999e-06
0.00401655
0.004003
-2.76184e-05
2.13388e-05
0.00404794
0.00405031
-1.42627e-05
1.91627e-05
0.00403361
0.00405815
0.0040669
-0.00402055
2.33306e-05
-0.00404852
0.0040252
4.24777e-05
4.37835e-05
0.00402816
-0.00401889
2.49506e-05
2.56314e-05
0.00399956
-0.00399878
-5.84555e-06
-6.03956e-06
0.00399797
-0.00399711
-6.48511e-06
-6.63257e-06
0.00399621
-0.00399525
-7.20144e-06
-7.29773e-06
0.00399425
-0.00399319
-8.00613e-06
-8.045e-06
0.00399208
-0.00399089
-8.91126e-06
-8.88605e-06
0.00398965
-0.00398832
-9.93077e-06
-9.83371e-06
0.00398694
-0.00398546
-1.10803e-05
-1.09027e-05
0.00398391
-0.00398225
-1.23779e-05
-1.21099e-05
0.00398052
-0.00397866
-1.38446e-05
-1.34746e-05
0.00397672
-0.00397464
-1.5504e-05
-1.5019e-05
0.00397246
-0.00397013
-1.73837e-05
-1.67688e-05
0.00396768
-0.00396507
-1.95166e-05
-1.87538e-05
0.00396232
-0.00395938
-2.1941e-05
-2.10095e-05
0.00395628
-0.00395298
-2.47024e-05
-2.35775e-05
0.00394949
-0.00394576
-2.78556e-05
-2.65078e-05
0.00394183
-0.00393763
-3.14657e-05
-2.986e-05
0.00393319
-0.00392844
-3.56109e-05
-3.37052e-05
0.00392342
-0.00391805
-4.03855e-05
-3.81292e-05
0.00391236
-0.00390628
-4.5904e-05
-4.32359e-05
0.00389984
-0.00389295
-5.23022e-05
-4.91494e-05
0.00388565
-0.00387783
-5.97343e-05
-5.60152e-05
0.00386955
-0.00382024
-6.8398e-05
-6.40129e-05
0.00377171
-0.0036961
-2.863e-05
-2.12026e-05
-1.11574e-05
-3.12216e-05
-0.00365064
-0.00368651
-2.07398e-05
6.27832e-05
-0.00377068
-0.00414253
-0.000445384
3.43838e-05
-0.0037407
0.00406258
-0.00407224
3.95437e-05
0.00405942
-7.32506e-06
4.08522e-05
-3.4915e-05
0.00402767
5.12213e-05
0.00401483
2.11704e-06
-0.00385237
1.28239e-05
-0.00384321
-9.26843e-05
-0.00393136
2.48058e-05
-0.00383437
3.82212e-05
-0.00382602
5.31788e-05
-0.0037294
3.40369e-06
2.11556e-05
-0.0036752
-4.89136e-05
-0.0036342
-0.00385193
-0.00401213
0.00382982
-0.000237918
-0.000377535
0.000491326
-0.00425632
0.00417458
-0.00433359
-0.000218524
-0.000282934
-0.00369886
0.00376965
-0.000121901
-0.000115248
-0.00385053
0.0038988
-2.85556e-05
-5.01878e-05
-0.00390504
0.00391096
-5.48742e-05
-5.86404e-05
-0.00391654
0.00392184
-4.814e-05
-5.14499e-05
-0.00392683
0.00393155
-4.22841e-05
-4.51942e-05
-0.003936
0.00394022
-3.71925e-05
-3.97579e-05
-0.00394418
0.00394794
-3.27596e-05
-3.50303e-05
-0.00395147
0.00395482
-2.88912e-05
-3.09112e-05
-0.00395796
0.00396094
-2.55073e-05
-2.73139e-05
-0.00396375
0.00396641
-2.25392e-05
-2.41642e-05
-0.00396891
0.00397128
-1.99295e-05
-2.13994e-05
-0.00397351
0.00397563
-1.76301e-05
-1.89671e-05
-0.00397763
0.00397952
-1.56e-05
-1.68229e-05
-0.00398131
0.003983
-1.38047e-05
-1.49293e-05
-0.0039846
0.00398612
-1.22145e-05
-1.32544e-05
-0.00398755
0.00398891
-1.08048e-05
-1.17711e-05
-0.00399019
0.00399142
-9.55457e-06
-1.04569e-05
-0.00399257
0.00399367
-8.44599e-06
-9.2923e-06
-0.0039947
0.00399569
-7.46333e-06
-8.26071e-06
-0.00399662
0.00399751
-6.59278e-06
-7.34746e-06
-0.00399835
0.00399915
-5.82195e-06
-6.53957e-06
-0.00399991
0.00400064
-5.13763e-06
-5.82478e-06
-0.00402986
0.00404489
2.31559e-05
-5.19145e-06
4.60938e-05
1.82072e-05
-4.35881e-05
0.00405789
-2.93301e-05
7.2182e-07
0.00406282
0.00404717
-1.09685e-06
5.21823e-07
0.00401834
0.00400377
5.4716e-08
-6.36654e-07
0.0040176
0.00400362
1.21627e-06
-1.79603e-06
0.00401713
0.00400358
-4.4856e-05
3.25887e-05
0.00406021
0.00400366
0.00405582
0.00406121
-0.00406328
2.53977e-05
-0.00405284
0.00403551
5.98083e-05
5.21567e-05
0.00403148
-0.00400056
-5.96874e-06
-6.16547e-06
0.00399985
-0.00399908
-6.60762e-06
-6.75663e-06
0.00399829
-0.00399745
-7.3267e-06
-7.42431e-06
0.00399657
-0.00399564
-8.13515e-06
-8.17495e-06
0.00399467
-0.00399363
-9.04452e-06
-9.01988e-06
0.00399254
-0.00399138
-1.00681e-05
-9.97163e-06
0.00399017
-0.00398888
-1.12214e-05
-1.10445e-05
0.00398753
-0.00398609
-1.25219e-05
-1.22548e-05
0.00398458
-0.00398297
-1.39897e-05
-1.36213e-05
0.00398128
-0.00397947
-1.56481e-05
-1.51658e-05
0.00397758
-0.00397556
-1.7524e-05
-1.69129e-05
0.00397343
-0.00397117
-1.96482e-05
-1.88916e-05
0.00396879
-0.00396625
-2.20572e-05
-2.11352e-05
0.00396357
-0.00396072
-2.47939e-05
-2.36833e-05
0.00395772
-0.00395451
-2.79091e-05
-2.65824e-05
0.00395113
-0.00394752
-3.14634e-05
-2.98879e-05
0.00394372
-0.00393965
-3.55289e-05
-3.36659e-05
0.00393536
-0.00393078
-4.01919e-05
-3.7995e-05
0.00392594
-0.00392077
-4.55558e-05
-4.29698e-05
0.0039153
-0.00390946
-5.17447e-05
-4.87033e-05
0.00390328
-0.00389668
-5.89051e-05
-5.53304e-05
0.00388969
-0.00388221
-6.72083e-05
-6.30097e-05
0.0038743
-0.00386584
-7.68552e-05
-7.19283e-05
0.00380476
-0.0037453
-8.80848e-05
-8.22851e-05
0.0037139
-0.00371007
-5.27469e-05
-5.21429e-05
-0.000259673
6.48563e-05
-0.00372346
-0.00379522
-1.04328e-05
3.47911e-05
-0.00365855
-0.00364195
-7.85499e-05
8.11448e-06
-0.00374441
4.49575e-05
0.00401519
0.00406978
1.69546e-05
0.00016864
-0.00429083
-0.000211401
2.38313e-06
-0.00384193
0.000275138
-0.00436282
-2.0734e-05
-0.00381265
1.37493e-05
-0.00383216
-1.89019e-05
-0.0038476
2.65743e-05
-0.00382272
4.10024e-05
-0.00381385
5.71249e-05
-0.00376537
3.4586e-05
-0.003675
-4.84642e-05
3.69591e-05
-0.00364705
-5.54105e-05
-0.003635
-0.00384144
-0.0042679
0.00410316
-5.37811e-05
-0.000316497
-0.00421854
0.000244213
0.00437884
-0.00426536
-0.000429978
-0.000100455
-0.00399439
0.00391305
-0.000156579
-0.000174166
-0.00388202
0.00383886
-7.87441e-05
-8.4216e-05
-0.00386233
0.00390279
-6.9016e-05
-7.36628e-05
-0.00390881
0.0039145
-6.05663e-05
-6.46571e-05
-0.00391986
0.00392493
-5.32149e-05
-5.68017e-05
-0.0039297
0.00393423
-4.68138e-05
-4.99688e-05
-0.0039385
0.00394254
-4.12361e-05
-4.40193e-05
-0.00394634
0.00394995
-3.63685e-05
-3.88333e-05
-0.00395335
0.00395657
-3.21126e-05
-3.43049e-05
-0.0039596
0.00396247
-2.83831e-05
-3.03426e-05
-0.00396517
0.00396774
-2.51078e-05
-2.68681e-05
-0.00397016
0.00397245
-2.22252e-05
-2.38147e-05
-0.00397461
0.00397667
-1.96831e-05