/*--------------------------------*- C++ -*----------------------------------*\
  =========                 |
  \\      /  F ield         | OpenFOAM: The Open Source CFD Toolbox
   \\    /   O peration     | Website:  https://openfoam.org
    \\  /    A nd           | Version:  10
     \\/     M anipulation  |
\*---------------------------------------------------------------------------*/
FoamFile
{
    format      ascii;
    class       volScalarField;
    location    "17";
    object      p;
}
// * * * * * * * * * * * * * * * * * * * * * * * * * * * * * * * * * * * * * //

dimensions      [0 2 -2 0 0 0 0];

internalField   nonuniform List<scalar> 
40874
(
0.620107
0.700386
0.154445
0.233153
0.14306
0.0543809
-0.058239
0.124472
0.211205
0.352599
0.539668
0.488547
0.344007
0.457478
0.473434
0.535949
-0.141169
-0.114483
0.240826
0.331701
0.330089
0.299012
0.203314
0.40045
0.385377
0.0847714
0.110753
0.11504
0.0660595
-0.107764
-0.0872186
0.0169416
0.000165481
-0.344916
-0.34433
-0.350348
-0.345657
8.23314e-05
0.00117742
-0.00237527
-0.000210704
-0.000416847
0.000278341
-0.00362787
-0.00156654
-0.00157704
-0.00399936
0.346906
0.454146
0.525207
0.429755
0.18947
0.282719
-0.158241
-0.19763
-0.0907266
-0.0610469
-0.0825018
-0.209368
-0.337749
-0.313432
0.0158988
0.138252
0.112284
0.00862693
-0.460361
-0.4983
-0.458881
-0.34837
-0.349547
-0.347763
0.924416
0.92924
0.9159
-0.00177646
0.0220298
0.0270353
-0.0231684
-0.000527416
0.00436029
-0.000259354
0.00152279
0.499492
0.54963
0.55583
0.519444
-0.0114028
-0.00377318
0.00835305
-0.0864103
-0.219405
-0.160137
-0.166589
-0.319175
-0.251392
0.00182902
0.00379747
-0.00423964
-0.00222012
0.000859806
0.215745
0.200955
-0.344521
-0.353288
-0.378469
-0.373925
0.429434
0.436502
0.908892
0.892173
-0.354229
-0.351878
0.18864
-0.00866575
-0.00639488
0.00272666
0.00553829
0.160004
0.195469
0.466553
0.612035
0.562913
0.453226
0.479351
-0.00341097
-0.00392301
0.00109814
-0.00460718
-0.0121264
-0.021292
0.200584
-0.000879408
0.0297494
0.0303922
0.682525
-0.0286291
-0.0360468
-0.0785736
-0.343333
-0.331645
-0.340677
-0.35343
-0.337509
-0.346306
-0.356617
-0.361376
-0.365359
0.899603
0.930797
0.92346
-0.168547
-0.195598
-0.112845
-0.37845
-0.377256
-0.371673
-0.38351
-0.368874
-0.366927
-0.365093
-0.475978
-0.485408
-0.46705
0.902737
0.831459
0.729603
0.631144
0.665165
0.225957
-0.377376
0.763545
0.706966
0.579275
0.804854
0.00734616
0.0120771
-0.315329
-0.316777
-0.328657
-0.388455
-0.378985
-0.355713
-0.362849
-0.434682
-0.427328
-0.000711111
-0.000614686
-0.000739362
0.455527
0.46575
0.443993
0.338647
0.27766
0.872006
0.892811
0.907371
0.863786
-0.0403336
-0.128958
-0.238097
-0.144534
-0.390976
-0.384377
-0.377725
-0.393578
-0.000572457
-0.000637722
-0.371328
-0.00847505
-0.0142027
0.180387
0.176224
0.346468
0.223869
0.22308
0.185453
0.185101
0.210925
0.202478
0.706303
0.802468
0.820516
-0.00273654
-0.00378941
0.23524
0.134023
0.169744
0.177669
-0.337226
-0.318938
-0.316264
-0.350993
-0.351233
-0.178473
-0.340435
-0.337608
-0.343831
-0.342378
-0.341252
0.120798
0.183706
-0.34592
-0.346844
0.0238015
0.0118673
-0.097319
-0.0737884
0.635314
0.645928
0.760693
0.720097
-0.128146
-0.12044
-0.133459
-0.144975
-0.340292
-0.33761
-0.328726
-0.343156
-0.341607
-0.346808
-0.348467
-0.341056
-0.337077
0.869463
0.831454
0.883798
0.622293
0.600228
0.605575
-0.330946
-0.000727222
-0.172621
0.0241909
-0.0325568
-0.0276274
-0.0228949
-0.0182068
-0.0132489
-0.00893615
-0.00592478
-0.00296282
0.000342779
0.00322763
0.00596229
0.00833194
0.0106342
0.0126625
0.0146337
0.0163799
0.0180431
0.0194632
0.0209727
0.0222971
0.0235096
0.0245858
0.0256145
0.0265199
0.0273708
0.028109
0.0287911
0.0293699
0.0298906
0.0303129
0.0306716
0.0309288
0.0311378
0.0312563
0.0312002
0.0306269
0.0296766
0.0301626
-0.0508809
-0.0392455
-0.0460373
-0.0528973
-0.0647499
-0.0573598
-0.0398271
-0.0453734
-0.0296687
-0.0345787
-0.0194991
-0.0246436
-0.0107668
-0.0143407
-0.0040789
-0.00742186
0.00182596
-0.000983724
0.00678594
0.0043971
0.0110523
0.00899518
0.0145766
0.0129548
0.0179574
0.0163416
0.0206528
0.0193592
0.0229627
0.0218507
0.0249119
0.0239798
0.0265149
0.0257541
0.0277916
0.0271921
0.0287546
0.0283103
0.0293553
0.0291111
0.0292619
0.0294684
0.0292204
-0.0250781
-0.0315664
-0.0159069
-0.0202182
-0.00720148
-0.0116008
-0.00152732
-0.00397253
0.00368631
0.000957823
0.00886146
0.00635026
0.0132664
0.0111388
0.0170574
0.0152205
0.0203505
0.0187543
0.0231251
0.0217729
0.025578
0.024398
0.0276427
0.0266503
0.0293763
0.0285467
0.0307966
0.0301226
0.0319154
0.0313917
0.0327307
0.0323615
0.033228
0.0330133
0.0335072
0.0334303
0.0327523
0.0330787
-0.0729839
-0.0822864
-0.0687546
-0.0603545
-0.0933502
-0.0783219
-0.105101
0.0275769
0.0275259
0.0328348
-0.0344713
-0.0284836
-0.0405967
-0.0551742
-0.0640069
-0.141861
-0.114576
-0.118303
-0.0950876
-0.106029
-0.0760966
-0.0849667
-0.0609614
-0.0681195
-0.0480117
-0.0546603
-0.0363995
-0.0420901
-0.0261507
-0.0312823
-0.0175239
-0.0213806
-0.0107382
-0.0140906
-0.00453209
-0.00752217
0.000868505
-0.00173183
0.00555565
0.00330228
0.00962236
0.00764744
0.0132046
0.0114692
0.0162844
0.014809
0.0189224
0.0176557
0.02117
0.0200944
0.0230535
0.0221565
0.024598
0.0238679
0.0258264
0.0252496
0.0266961
0.0263227
0.0271485
0.0269422
0.0274041
0.0274134
0.0326503
0.0283566
0.029493
-0.0175295
-0.0230712
-0.00851176
-0.0127099
-0.00117747
-0.0045198
0.00474307
0.00168969
0.00990711
0.00753379
0.0144543
0.0122398
0.0184035
0.0165098
0.0217999
0.0201649
0.0247322
0.0233248
0.0272437
0.0260357
0.0294213
0.0283747
0.0312654
0.0303841
0.0328053
0.0320726
0.0340563
0.0334668
0.0350239
0.0345757
0.0357025
0.0354003
0.0361149
0.0359362
0.0361537
0.0362088
0.035917
0.0359855
0.0353814
0.0357176
-0.047443
-0.0227112
-0.0178352
-0.0282307
-0.0411623
-0.0494102
0.0381571
0.0349457
0.0376848
-0.129141
-0.0889731
0.0268087
-0.0742613
0.0259501
-0.160065
-0.162202
-0.192367
-0.200919
-0.180932
-0.126848
-0.142577
-0.106377
-0.116566
-0.0865163
-0.0960484
-0.0697948
-0.0779356
-0.0561389
-0.0628629
-0.0435421
-0.0498406
-0.0331295
-0.0381814
-0.0240659
-0.0284474
-0.0166096
-0.0202184
-0.00999156
-0.013189
-0.0041873
-0.00698862
0.000878705
-0.00156188
0.00529275
0.00314262
0.00913082
0.00727136
0.0124787
0.0108703
0.0153538
0.013973
0.017808
0.0166323
0.0198757
0.0188882
0.0215864
0.0207756
0.0229663
0.0223148
0.0240248
0.0235478
0.0246688
0.0243443
0.025098
0.0249688
0.0247714
0.025044
0.0244861
0.029699
0.02772
0.0322758
-0.00886399
-0.0133467
-0.000584852
-0.0044806
0.00576095
0.00281853
0.0114376
0.00858025
0.0161419
0.0139536
0.0200815
0.0181649
0.023541
0.0218759
0.0265291
0.0250889
0.0291165
0.0278706
0.0313415
0.0302711
0.033269
0.0323405
0.0349109
0.0341255
0.0362811
0.0356291
0.0373911
0.0368685
0.0382415
0.0378492
0.0388231
0.0385669
0.0391197
0.0390099
0.0390516
0.0391317
0.0387555
0.0389453
0.0384962
-0.0342028
-0.0595638
-0.0111077
-0.00690537
0.0344277
0.0370809
-0.0158329
-0.149192
0.0219636
0.0209831
-0.181711
-0.100835
-0.114259
-0.20598
-0.224794
-0.220335
-0.0862809
-0.0712567
-0.171398
-0.188303
-0.140056
-0.155017
-0.11635
-0.127591
-0.0961982
-0.106132
-0.0784779
-0.0870052
-0.0637697
-0.0707293
-0.0510016
-0.0572146
-0.039975
-0.0452329
-0.0303109
-0.0349655
-0.0221156
-0.0260615
-0.0149995
-0.0184274
-0.00879935
-0.0117914
-0.00338381
-0.00599651
0.00131616
-0.00094903
0.00541814
0.00343773
0.00897845
0.0072654
0.0120454
0.0105717
0.0146658
0.01341
0.0168774
0.0158201
0.018712
0.0178415
0.0201949
0.0194951
0.021356
0.0208223
0.022096
0.0217486
0.0226076
0.0223884
0.0223588
0.0226173
0.0220426
0.0251688
0.023092
0.0294323
0.0272471
0.0318293
0.000776358
-0.00307726
0.00792464
0.00456882
0.0134668
0.0108218
0.018417
0.016008
0.0225177
0.0205813
0.02594
0.0242899
0.0289108
0.0274797
0.0314783
0.0302411
0.0336996
0.0326297
0.0356188
0.0346947
0.0372726
0.0364771
0.03868
0.0380067
0.0398496
0.039294
0.0407863
0.0403472
0.041486
0.0411664
0.0419377
0.0417436
0.042124
0.0420666
0.0420069
0.0421009
0.0416558
0.0418645
0.0409809
0.0413813
-0.244973
-0.244483
-0.0993317
-0.207715
0.0398031
0.0404626
-0.0270327
-0.0211512
-0.0432757
-0.0340249
-0.0861121
-0.270051
-0.235073
-0.198305
-0.275306
-0.251171
0.00420344
0.000583607
-0.133268
-0.288269
-0.290331
-0.054502
0.0425964
0.0390338
0.0417914
-0.281982
-0.173356
-0.22097
-0.21201
-0.229344
-0.181737
-0.196228
-0.152306
-0.166898
-0.126567
-0.138773
-0.105293
-0.115472
-0.086927
-0.0957738
-0.0713294
-0.0787377
-0.0580184
-0.0644492
-0.046392
-0.0519592
-0.0362211
-0.0411175
-0.0274857
-0.0316985
-0.0198988
-0.0235504
-0.0133092
-0.0164867
-0.00756167
-0.0103347
-0.00256855
-0.00497254
0.00178346
-0.000316208
0.00555683
0.0037407
0.00881216
0.00724737
0.0115969
0.0102623
0.0139551
0.0128281
0.0159157
0.0149843
0.0175048
0.0167553
0.0187584
0.0181751
0.0196081
0.0192238
0.0201984
0.0199418
0.0201852
0.0203097
0.0197754
0.019917
0.024448
0.0198405
0.022373
0.028904
0.0266515
0.0337673
0.0312757
0.0363563
0.0106206
0.0074908
0.0166381
0.0137713
0.0214258
0.0191525
0.0255054
0.0235431
0.0289181
0.0272947
0.0317772
0.0304025
0.0342505
0.0330577
0.0363954
0.035361
0.0382573
0.0373593
0.0398709
0.0390932
0.0412645
0.040594
0.042452
0.0418837
0.0434372
0.0429698
0.0442192
0.043854
0.0447894
0.0445317
0.0451319
0.0449904
0.0452195
0.0452101
0.045029
0.0451578
0.0445712
0.0448361
0.0438288
0.0442297
0.043274
-0.00361952
-0.0128328
-0.00801948
-0.0265009
-0.0188294
-0.119601
-0.280733
-0.260655
-0.304017
-0.303113
0.0176493
0.0176155
-0.0685378
-0.0356816
0.0381369
0.0408077
-0.262332
-0.195867
-0.29579
-0.161246
-0.1085
0.0123058
0.0154028
-0.22188
-0.239643
-0.191407
-0.20634
-0.162746
-0.176793
-0.136331
-0.148967
-0.114089
-0.124696
-0.095083
-0.104227
-0.0787504
-0.0865647
-0.0647239
-0.071477
-0.052536
-0.0583909
-0.0419034
-0.0470199
-0.0327216
-0.0371511
-0.0247221
-0.0285752
-0.0177632
-0.0211182
-0.0116962
-0.0146226
-0.00641483
-0.00895955
-0.00181463
-0.00403303
0.00217713
0.000255361
0.00562512
0.00396733
0.00857912
0.00716322
0.0110898
0.00988978
0.0131845
0.0121879
0.0148919
0.0140859
0.0162453
0.0156124
0.0172212
0.0167754
0.0178957
0.0175994
0.01812
0.0180931
0.0179899
0.0238324
0.0194655
0.0216325
0.0282239
0.0260102
0.0329845
0.0305554
0.0355185
0.0207664
0.0181705
0.0255185
0.0232266
0.0294087
0.0275629
0.0326547
0.0311003
0.0353831
0.0340799
0.0376814
0.0365785
0.0396599
0.0387062
0.0413786
0.0405494
0.0428755
0.042153
0.044179
0.0435503
0.0453072
0.0447644
0.046269
0.0458089
0.0470643
0.0466879
0.0476868
0.047398
0.0481231
0.0479294
0.0483537
0.0482657
0.0483513
0.0483836
0.0480913
0.0482544
0.0475544
0.0478601
0.0466982
0.0471684
0.0454309
0.046147
-0.307878
0.0176146
-0.0460051
-0.083048
0.0435624
0.0445793
-0.21901
-0.31687
-0.307998
-0.0168522
0.00902255
0.00538521
0.00131547
-0.0036971
-0.00958757
-0.140472
-0.293793
-0.190645
-0.270987
-0.288536
0.0266551
0.0242764
0.0192385
0.0174275
-0.0255802
-0.321667
-0.0998365
0.0464197
0.0424218
0.0452044
-0.233905
-0.251969
-0.201258
-0.217165
-0.171858
-0.185982
-0.145343
-0.158072
-0.122504
-0.133456
-0.102837
-0.112288
-0.0858625
-0.0940089
-0.0711819
-0.0782453
-0.0584516
-0.0645694
-0.0473684
-0.0527022
-0.037764
-0.0423946
-0.0293874
-0.033424
-0.0220845
-0.0256055
-0.0157133
-0.0187858
-0.0101588
-0.0128362
-0.00531875
-0.00765209
-0.00111426
-0.00313882
0.00252242
0.000773659
0.00564378
0.00414533
0.00830297
0.00703123
0.0105312
0.0094698
0.0123592
0.0114947
0.0138169
0.0131335
0.0149046
0.0144041
0.0156643
0.0153268
0.0160083
0.0159034
0.0157946
0.0159715
0.0158482
0.0158113
0.0232329
0.0211487
0.027508
0.0253607
0.0320948
0.0297402
0.0371156
0.0345638
0.0397247
0.0309267
0.0289495
0.0344705
0.0327594
0.0374083
0.0360168
0.0398271
0.0386727
0.0418557
0.0408863
0.0435711
0.042748
0.0450511
0.0443374
0.0463444
0.0457196
0.0474798
0.046931
0.0484767
0.0479952
0.0493461
0.0489275
0.0500907
0.0497346
0.0507055
0.0504153
0.0511791
0.0509613
0.0514935
0.0513579
0.0516246
0.0515842
0.0515405
0.0516119
0.0512098
0.0514082
0.0505972
0.0509415
0.0496596
0.0501721
0.0483277
0.0490548
0.0474461
-0.237845
-0.323044
-0.302724
0.0216966
0.0188845
0.0155885
0.0117589
0.00723828
0.00156329
0.0156835
-0.308874
-0.315757
-0.00471084
0.0235053
0.0271838
-0.0584115
-0.318603
-0.339562
-0.325444
-0.129828
0.0493507
0.0481336
0.0411336
0.0438565
-0.28129
-0.29782
-0.244803
-0.262812
-0.21078
-0.227436
-0.180576
-0.195125
-0.15376
-0.166602
-0.13044
-0.14166
-0.110163
-0.119908
-0.0925967
-0.101032
-0.0773535
-0.0846852
-0.0641162
-0.0704774
-0.0525919
-0.0581373
-0.0425783
-0.0474022
-0.033843
-0.0380512
-0.0262188
-0.0298936
-0.0195613
-0.0227707
-0.0137516
-0.0165516
-0.00868591
-0.0111271
-0.00428118
-0.00640192
-0.000465046
-0.00230075
0.00281353
0.00123622
0.00561334
0.00427378
0.00796835
0.00684563
0.00991167
0.00899118
0.0114714
0.0107389
0.0126566
0.0121093
0.0134906
0.0131189
0.0139245
0.0137649
0.0139835
0.0139893
0.0140817
0.0140224
0.0153317
0.0136052
0.0139343
0.0188225
0.0170966
0.0226515
0.0206979
0.0267849
0.0247029
0.0311648
0.0289298
0.0359803
0.0335354
0.0385162
0.0157038
0.0194795
0.0344522
0.0300342
0.0324343
0.0381284
0.0363365
0.0410854
0.0396582
0.0434413
0.0423057
0.0453985
0.044473
0.0469954
0.0462367
0.0483297
0.0476929
0.0494631
0.0489198
0.0504466
0.0499724
0.0513159
0.0508954
0.0520909
0.0517156
0.0527828
0.052448
0.0533951
0.0531
0.0539247
0.0536717
0.0543618
0.0541567
0.0546902
0.0545418
0.0548872
0.0548076
0.0549249
0.0549289
0.0547676
0.0548738
0.0543763
0.0546046
0.0537049
0.0540796
0.0526969
0.0532479
0.0512976
0.0520427
0.0503919
-0.0100369
-0.0341903
-0.321364
0.0125462
-0.326872
-0.329051
0.015105
0.0130081
0.0466638
0.0397614
0.042355
-0.0694802
-0.322256
-0.32125
-0.322559
-0.324734
-0.320148
-0.324078
-0.291248
-0.308582
-0.254342
-0.272466
-0.220027
-0.236796
-0.18917
-0.204135
-0.161774
-0.174883
-0.137895
-0.149378
-0.117051
-0.127065
-0.0989339
-0.10763
-0.0831843
-0.0907522
-0.0694818
-0.0760637
-0.057541
-0.0632825
-0.0471443
-0.0521472
-0.0380716
-0.0424384
-0.0301479
-0.0339637
-0.0232244
-0.0265593
-0.0171782
-0.0200903
-0.0119031
-0.0144435
-0.00731252
-0.00952163
-0.00333315
-0.00524615
9.67028e-05
-0.00154978
0.00302762
0.00162487
0.00550161
0.00432163
0.00755321
0.00658031
0.00921072
0.00843111
0.0104878
0.00989611
0.011404
0.0109917
0.0119442
0.0117241
0.0121584
0.0120832
0.0122213
0.0122227
0.0120447
0.0121808
0.018353
0.0166285
0.0220326
0.0201559
0.0260305
0.0240188
0.030237
0.0281039
0.0347996
0.0324673
0.0372129
0.0256992
0.0356622
0.0327546
0.0405356
0.0382274
0.0446758
0.0427834
0.0474733
0.0461739
0.0495198
0.0485367
0.0511575
0.0504025
0.0523826
0.0518039
0.0533558
0.0529007
0.05413
0.0537668
0.05477
0.0544669
0.0553189
0.0550566
0.0558078
0.055572
0.0562572
0.0560391
0.0566767
0.0564727
0.0570689
0.0568784
0.0574305
0.0572559
0.0577524
0.057599
0.0580198
0.0578958
0.058212
0.0581286
0.0583017
0.0582731
0.0582567
0.0583001
0.058036
0.0581726
0.0575931
0.0578471
0.0568728
0.0572729
0.0558067
0.0563895
0.0543252
0.0551217
0.0523614
0.0534202
0.0115934
0.0450772
0.0496372
0.0511068
0.00978067
-0.33024
-0.33197
-0.320584
-0.336358
0.00977256
0.0479226
-0.330145
0.741307
0.192245
0.193363
-0.020522
0.678437
-0.338981
-0.337995
-0.337419
-0.340836
-0.332683
-0.300807
-0.317656
-0.263506
-0.282061
-0.228782
-0.245693
-0.197444
-0.212685
-0.169419
-0.182854
-0.144922
-0.156691
-0.123526
-0.1338
-0.104889
-0.113832
-0.0886657
-0.0964559
-0.0745332
-0.0813195
-0.062207
-0.0681305
-0.0514593
-0.0566274
-0.0420746
-0.0465888
-0.0338738
-0.0378206
-0.0267046
-0.0301559
-0.0204397
-0.0234557
-0.0149709
-0.0176034
-0.0102079
-0.0124993
-0.00607489
-0.00806147
-0.00250684
-0.00421907
0.000547428
-0.000914825
0.00313328
0.00189929
0.00528704
0.00426456
0.00703848
0.00621321
0.00840618
0.00777006
0.00941143
0.00895435
0.0100584
0.00978135
0.0103684
0.0102526
0.0104501
0.0104417
0.0102964
0.0103823
0.00891691
0.00999821
-0.019093
-0.0163331
-0.0189207
-0.0186502
-0.018472
-0.0184687
-0.018454
-0.0184554
-0.0184419
-0.0184159
-0.0183732
-0.0183128
-0.0182336
-0.0181351
-0.0180171
-0.0178794
-0.0177221
-0.0175456
-0.0173502
-0.0171364
-0.016905
-0.0166567
-0.0163923
-0.0161129
-0.0158195
-0.0155132
-0.0151952
-0.014867
-0.0145299
-0.0141852
-0.0138346
-0.0134795
-0.0131216
-0.0127623
-0.0124034
-0.0120464
-0.011693
-0.0113448
-0.0110032
-0.0106699
-0.0103464
-0.0100341
-0.00973434
-0.00944848
-0.00917773
-0.00892324
-0.00868607
-0.00846715
-0.00826733
-0.00808734
-0.0079278
-0.00778921
-0.00767194
-0.00757625
-0.00750225
-0.00744994
-0.00741919
-0.00740973
-0.00742118
-0.00745301
-0.00750457
-0.00757509
-0.00766365
-0.00776924
-0.00789075
-0.0080269
-0.00817596
-0.00833592
-0.00850606
-0.00868865
-0.00888259
-0.00906256
-0.00918536
-0.00932785
-0.00985523
-0.0107563
-0.00957546
-0.0102628
-0.0103138
-0.0105537
-0.0106812
-0.0108286
-0.0109399
-0.0110385
-0.0111117
-0.0111627
-0.0111872
-0.0111847
-0.0111527
-0.0110897
-0.0109938
-0.0108634
-0.0106969
-0.0104926
-0.0102492
-0.00996529
-0.00963945
-0.00927048
-0.0088572
-0.00839855
-0.00789351
-0.00734117
-0.00674066
-0.00609108
-0.00539147
-0.00464107
-0.00384001
-0.00298854
-0.00208172
-0.00110156
-2.61663e-05
0.00111143
0.00214317
0.00299912
0.00505347
0.0066773
0.0080315
0.00704377
0.0110904
0.0102428
0.0146525
0.013719
0.0177901
0.0162793
0.0213963
0.0195725
0.0252518
0.0233133
0.0293017
0.0272523
0.0336281
0.0314226
0.0382881
0.0359233
0.0433481
0.0407765
0.0509166
0.0489026
0.0460554
0.177183
0.0519144
0.0550671
0.0582566
0.0616142
0.065172
0.0690282
0.0731777
0.0776674
0.0824914
0.0878186
0.0937379
0.100276
0.107477
0.11537
0.123726
0.132522
0.142788
0.157275
-0.331152
-0.432093
-0.359196
-0.385834
0.0526959
0.0541883
0.0554269
0.0565108
0.0574636
0.0582925
0.0590024
0.0596028
0.0601047
0.0605199
0.0608578
0.0611283
0.0613388
0.0614979
0.0616116
0.0616871
0.0617295
0.0617453
0.061738
0.0617137
0.0616747
0.0616262
0.0615703
0.0615111
0.0614501
0.0613906
0.0613337
0.0612819
0.0612357
0.0611973
0.0611663
0.0611445
0.0611309
0.0611268
0.0611302
0.0611417
0.0611584
0.0611805
0.0612044
0.0612294
0.0612502
0.0612652
0.0612694
0.0612585
0.0612171
0.0611058
0.0610051
0.0608401
0.0606454
0.0602809
0.0596624
0.0587997
0.0577028
0.0570727
0.0557114
0.0535688
0.046916
0.0319559
-0.000116779
-0.0824177
0.0540209
0.0572643
0.0605944
0.064073
0.0677592
0.0716989
0.0759077
0.0804243
0.0852657
0.0904187
0.0961325
0.102298
0.108927
0.11591
0.123048
0.130188
0.13899
0.151546
0.166219
0.175867
0.179245
-0.0190826
0.178601
-0.333708
0.158422
0.145104
0.134089
0.123546
0.113752
0.104914
0.0972071
0.0903938
0.0843553
0.0789998
0.0741959
0.0698123
0.0658083
0.0620974
0.0587116
0.0554545
0.0526657
0.0497013
0.0468666
0.0441573
0.0416531
0.0392033
0.0369015
0.0346667
0.03249
0.0303943
0.0283668
0.0263997
0.0244789
0.0226203
0.0207919
0.0190622
0.0173262
0.0158943
0.0146038
0.0129518
0.010759
0.00922032
0.00825022
0.00671161
0.0058651
0.00451901
0.00310744
0.00199255
0.000992767
-3.22915e-05
-0.00103942
-0.00199173
-0.00288658
-0.00372997
-0.00452441
-0.00526985
-0.00596622
-0.00661402
-0.007214
-0.00776696
-0.0082737
-0.00873507
-0.009152
-0.00952551
-0.00985669
-0.0101467
-0.0103968
-0.0106083
-0.0107827
-0.0109213
-0.0110258
-0.0110978
-0.0111389
-0.0111509
-0.0111358
-0.0110945
-0.0110309
-0.0109424
-0.0108402
-0.0107042
-0.0105835
-0.0103625
-0.0103079
-0.00979752
-0.0106224
-0.00962313
-0.00928997
-0.00924817
-0.00915048
-0.00898281
-0.00880125
-0.00862813
-0.00846435
-0.00830924
-0.00816446
-0.00803218
-0.00791408
-0.00781144
-0.00772541
-0.007657
-0.00760713
-0.00757658
-0.00756599
-0.00757589
-0.00760667
-0.00765861
-0.00773185
-0.00782641
-0.00794218
-0.00807893
-0.0082363
-0.00841382
-0.00861088
-0.00882677
-0.00906068
-0.00931169
-0.00957876
-0.00986078
-0.0101565
-0.0104648
-0.0107841
-0.0111132
-0.0114505
-0.0117945
-0.0121437
-0.0124965
-0.0128513
-0.0132066
-0.0135607
-0.013912
-0.0142591
-0.0146004
-0.0149344
-0.0152597
-0.0155749
-0.0158787
-0.0161699
-0.0164473
-0.0167099
-0.0169567
-0.0171867
-0.0173993
-0.0175937
-0.0177694
-0.0179259
-0.018063
-0.0181804
-0.0182782
-0.0183565
-0.0184158
-0.0184571
-0.0184809
-0.0184913
-0.0184806
-0.0184848
-0.018345
-0.0188148
-0.0190222
0.17865
-0.402516
-0.40738
-0.452173
-0.421489
-0.460887
-0.454218
-0.461165
-0.399716
0.00778671
0.00836548
0.00856149
0.00870074
0.00877739
0.00875524
0.00865211
0.0084908
0.00824793
0.00792056
0.00750482
0.0070025
0.00641148
0.00573031
0.00495576
0.00408463
0.00311463
0.00204291
0.000864953
-0.000422675
-0.00182503
-0.00334651
-0.00499343
-0.00677138
-0.0086874
-0.0107476
-0.0129609
-0.015335
-0.0178803
-0.020606
-0.0235241
-0.0266456
-0.0299851
-0.0335557
-0.0373741
-0.0414562
-0.0458216
-0.0504891
-0.0554826
-0.0608238
-0.0665392
-0.0726575
-0.0792076
-0.0862159
-0.0937248
-0.101765
-0.110379
-0.119604
-0.129492
-0.14008
-0.151416
-0.163543
-0.176511
-0.190351
-0.205121
-0.220789
-0.237236
-0.25456
-0.272799
-0.291711
-0.310474
-0.327039
-0.35727
-0.342936
-0.348981
-0.358104
-0.344872
-0.350707
-0.357387
-0.344057
-0.350264
-0.356323
-0.342853
-0.348252
-0.356196
-0.339011
-0.343841
-0.359496
-0.353773
0.00660331
0.00603971
0.00699995
0.00583264
0.00712745
0.00582181
0.00721009
0.0058463
0.00723641
0.00578659
0.00716323
0.0056495
0.00701401
0.00545019
0.00680229
0.00518916
0.0065113
0.00485216
0.00613812
0.00443584
0.00567952
0.00393666
0.00513508
0.00335263
0.00450244
0.00268078
0.00377926
0.00191835
0.00296269
0.00106225
0.00204907
0.00010883
0.00103589
-0.000945065
-8.06996e-05
-0.00210341
-0.00130463
-0.0033705
-0.00264047
-0.00475098
-0.00409267
-0.00624979
-0.00566687
-0.00787256
-0.00736836
-0.00962512
-0.00920404
-0.0115141
-0.0111802
-0.0135464
-0.0133048
-0.0157302
-0.0155852
-0.0180734
-0.0180312
-0.0205857
-0.0206514
-0.0232764
-0.0234576
-0.026157
-0.0264598
-0.0292385
-0.0296718
-0.0325345
-0.0331057
-0.0360582
-0.0367781
-0.0398254
-0.0407027
-0.0438517
-0.0448995
-0.048156
-0.0493845
-0.0527566
-0.0541813
-0.0576756
-0.0593092
-0.0629349
-0.064796
-0.0685608
-0.0706631
-0.0745781
-0.076945
-0.0810183
-0.0836653
-0.0879098
-0.0908601
-0.0952869
-0.098562
-0.103186
-0.106813
-0.111646
-0.115646
-0.120706
-0.125111
-0.130413
-0.135245
-0.140809
-0.146103
-0.151945
-0.157719
-0.163864
-0.170152
-0.176617
-0.183431
-0.190242
-0.19761
-0.204776
-0.212703
-0.220233
-0.228689
-0.236613
-0.24556
-0.253954
-0.263361
-0.272277
-0.282076
-0.291485
-0.301343
-0.311207
-0.32016
-0.330451
-0.336935
-0.347636
-0.350656
-0.361216
-0.360842
-0.370871
-0.364516
-0.376039
-0.366292
-0.377953
-0.365014
-0.376389
-0.364308
-0.37446
-0.364059
-0.372123
-0.362608
-0.369822
-0.357185
-0.36742
-0.36667
-0.354958
-0.367096
-0.358377
-0.355191
-0.351492
-0.0160631
-0.016051
-0.0166315
-0.0165146
-0.0165506
-0.0160435
-0.0159708
-0.0156014
-0.0155307
-0.015248
-0.0148516
-0.0146755
-0.0144199
-0.0141207
-0.0138277
-0.0135372
-0.0132386
-0.0129417
-0.0126453
-0.0123484
-0.0120509
-0.0117528
-0.0114545
-0.0111562
-0.0108563
-0.0105501
-0.0102278
-0.00988715
-0.00960326
-0.00929266
-0.00912326
-0.0085887
-0.00837111
-0.00821498
-0.00799772
-0.00771819
-0.00740368
-0.00730961
-0.00710325
-0.00684717
-0.00647821
-0.00634853
-0.00618668
-0.0059675
-0.00574055
-0.00582111
-0.00540851
-0.0053105
-0.00522699
-0.00529844
-0.00494443
-0.00503227
-0.00487111
-0.00464947
-0.00472635
-0.00474909
-0.00469634
-0.00459641
-0.00465089
-0.00460945
-0.00476353
-0.00481572
-0.00463314
-0.00492453
-0.00482751
-0.00477561
-0.00495823
-0.00493693
-0.00481412
-0.00475569
-0.0045103
-0.00472446
-0.00429228
0.00504267
0.00273618
0.0018735
0.000973528
-0.000108403
-0.00118368
-0.00217258
-0.00308611
-0.00394417
-0.00475236
-0.00550938
-0.0062142
-0.00686733
-0.00746982
-0.0080227
-0.00852693
-0.00898352
-0.00939356
-0.00975824
-0.0100788
-0.0103567
-0.0105931
-0.0107898
-0.0109481
-0.0110698
-0.0111566
-0.0112101
-0.0112323
-0.0112247
-0.0111899
-0.0111287
-0.011045
-0.0109365
-0.0108136
-0.0106601
-0.0105137
-0.0103022
-0.0101808
-0.0099121
-0.00997966
-0.00969701
-0.0093223
-0.00910766
-0.00895006
-0.00876848
-0.00857177
-0.00838185
-0.00820452
-0.00803867
-0.00788438
-0.0077433
-0.0076172
-0.00750743
-0.00741508
-0.00734116
-0.00728656
-0.00725205
-0.00723826
-0.0072457
-0.00727477
-0.0073257
-0.00739864
-0.00749356
-0.00761033
-0.00774869
-0.00790826
-0.00808852
-0.00828884
-0.00850847
-0.00874656
-0.00900215
-0.00927416
-0.00956145
-0.00986277
-0.0101768
-0.0105021
-0.0108373
-0.0111809
-0.0115312
-0.0118868
-0.0122459
-0.0126071
-0.0129686
-0.0133288
-0.0136861
-0.014039
-0.0143858
-0.0147252
-0.0150556
-0.0153756
-0.015684
-0.0159796
-0.016261
-0.0165274
-0.0167777
-0.017011
-0.0172267
-0.017424
-0.0176025
-0.0177617
-0.0179015
-0.0180217
-0.0181224
-0.018204
-0.0182671
-0.0183128
-0.0183425
-0.0183597
-0.0183674
-0.0183771
-0.0183972
-0.0183691
-0.0184639
-0.0175703
-0.0182295
-0.0172128
-0.0165964
-0.0162721
-0.0162283
-0.0161724
-0.0159723
-0.0158113
-0.0155518
-0.0151574
-0.0150301
-0.014809
-0.0144874
-0.0142311
-0.0139654
-0.0136826
-0.0133956
-0.0131095
-0.0128153
-0.0125175
-0.0122204
-0.0119226
-0.0116235
-0.0113235
-0.0110227
-0.010721
-0.0104175
-0.0101105
-0.00980457
-0.00948869
-0.00915972
-0.00892163
-0.00863276
-0.00835559
-0.00813904
-0.00790195
-0.00766003
-0.00738735
-0.00717355
-0.00704038
-0.0068202
-0.00642825
-0.00617414
-0.00607037
-0.0059606
-0.00576315
-0.00564176
-0.00544767
-0.00529024
-0.00520146
-0.00515287
-0.00499965
-0.00488465
-0.0047991
-0.00469162
-0.00465747
-0.00467156
-0.00462641
-0.00463726
-0.00442935
-0.00462678
-0.00465789
-0.0046443
-0.00460775
-0.00467595
-0.00468003
-0.00465923
-0.00470254
-0.00471626
-0.00458945
-0.00447354
-0.00435205
-0.00442057
0.0046586
0.0031362
0.00195679
0.000902646
-0.000187782
-0.00126682
-0.00227687
-0.00321324
-0.00408904
-0.00491077
-0.00567864
-0.00639205
-0.00705154
-0.00765829
-0.0082135
-0.00871828
-0.00917378
-0.0095812
-0.00994186
-0.0102571
-0.0105285
-0.0107574
-0.0109456
-0.0110947
-0.0112063
-0.0112824
-0.0113248
-0.0113354
-0.011316
-0.011269
-0.0111956
-0.0110994
-0.0109795
-0.0108435
-0.0106831
-0.0105204
-0.010326
-0.0101649
-0.00995168
-0.00978401
-0.00959938
-0.00932411
-0.00907863
-0.00887856
-0.00868346
-0.00848264
-0.00828612
-0.0081007
-0.00792745
-0.00776661
-0.0076194
-0.00748744
-0.0073721
-0.00727452
-0.00719566
-0.00713642
-0.00709755
-0.00707969
-0.00708333
-0.00710885
-0.00715649
-0.00722637
-0.00731846
-0.00743262
-0.00756858
-0.00772595
-0.00790421
-0.00810271
-0.00832072
-0.00855736
-0.00881167
-0.00908259
-0.00936895
-0.00966951
-0.00998293
-0.0103078
-0.0106427
-0.0109862
-0.0113365
-0.0116923
-0.0120517
-0.0124133
-0.0127754
-0.0131363
-0.0134945
-0.0138484
-0.0141963
-0.0145369
-0.0148686
-0.01519
-0.0155
-0.0157971
-0.0160802
-0.0163483
-0.0166005
-0.0168357
-0.0170534
-0.0172528
-0.0174334
-0.0175948
-0.0177368
-0.0178593
-0.0179624
-0.0180464
-0.0181118
-0.0181596
-0.018191
-0.0182081
-0.0182124
-0.0182066
-0.0181854
-0.0181448
-0.0180106
-0.017819
-0.0176825
-0.0172072
-0.0165298
-0.0162078
-0.0160682
-0.0159804
-0.0158209
-0.0156148
-0.0153932
-0.0150857
-0.0148906
-0.0146838
-0.0143658
-0.0140866
-0.0138199
-0.0135409
-0.0132521
-0.0129609
-0.0126688
-0.0123765
-0.0120784
-0.0117801
-0.0114808
-0.0111799
-0.0108778
-0.0105745
-0.0102718
-0.00996807
-0.0096677
-0.00935354
-0.00906789
-0.00879248
-0.00858951
-0.00834083
-0.00806936
-0.00782363
-0.0075851
-0.0073533
-0.00709627
-0.00694364
-0.00670323
-0.00636964
-0.00605728
-0.00600497
-0.00592746
-0.00574252
-0.00556994
-0.00541549
-0.00526509
-0.00514375
-0.00505407
-0.00493807
-0.0048502
-0.00475208
-0.00465155
-0.00460767
-0.00458181
-0.00453078
-0.00452365
-0.00440331
-0.00463012
-0.00452406
-0.00448107
-0.00448017
-0.00449817
-0.00449984
-0.00448526
-0.00446078
-0.00442473
-0.00431035
-0.00421624
-0.00412748
-0.00394038
-0.0032037
-0.0024094
-0.00157093
-0.000939862
-0.000435505
-0.000808025
0.00459946
0.00327278
0.00197809
0.000802577
-0.000315222
-0.00139596
-0.00242004
-0.00337723
-0.00427127
-0.00510708
-0.00588624
-0.00660895
-0.00727578
-0.00788782
-0.00844634
-0.00895255
-0.00940772
-0.00981318
-0.0101703
-0.0104807
-0.0107458
-0.0109674
-0.0111472
-0.0112868
-0.0113883
-0.0114535
-0.0114844
-0.011483
-0.0114513
-0.0113917
-0.0113058
-0.0111967
-0.0110648
-0.0109157
-0.0107464
-0.0105692
-0.0103722
-0.0101814
-0.00996397
-0.00976288
-0.00956316
-0.00931756
-0.00906693
-0.00884157
-0.00863047
-0.00842214
-0.00821852
-0.00802483
-0.00784348
-0.00767532
-0.00752136
-0.00738299
-0.00726153
-0.00715813
-0.00707373
-0.00700921
-0.00696528
-0.00694256
-0.00694154
-0.00696256
-0.00700585
-0.00707151
-0.0071595
-0.00726967
-0.00740174
-0.0075553
-0.00772983
-0.00792469
-0.00813913
-0.00837227
-0.00862316
-0.00889073
-0.00917382
-0.00947121
-0.00978156
-0.0101035
-0.0104356
-0.0107762
-0.011124
-0.0114773
-0.0118345
-0.0121939
-0.012554
-0.0129132
-0.0132698
-0.0136222
-0.013969
-0.0143085
-0.0146394
-0.0149603
-0.0152698
-0.0155668
-0.01585
-0.0161183
-0.0163709
-0.0166068
-0.0168253
-0.0170257
-0.0172075
-0.0173702
-0.0175137
-0.0176378
-0.0177425
-0.017828
-0.0178947
-0.0179431
-0.0179739
-0.0179879
-0.0179847
-0.0179634
-0.0179191
-0.0178422
-0.0177298
-0.0175198
-0.01729
-0.0169296
-0.0164639
-0.0161457
-0.0159774
-0.0158386
-0.0156561
-0.0154363
-0.0152042
-0.0149537
-0.0147171
-0.014475
-0.0141996
-0.0139236
-0.013653
-0.0133765
-0.0130925
-0.012805
-0.0125141
-0.0122202
-0.0119276
-0.0116324
-0.0113353
-0.0110366
-0.0107369
-0.0104369
-0.0101386
-0.00984197
-0.00955175
-0.0092536
-0.00897496
-0.00870967
-0.00850377
-0.00824939
-0.00798243
-0.00773388
-0.00749433
-0.00726466
-0.00702211
-0.00684718
-0.00660444
-0.0063103
-0.00604445
-0.00596975
-0.00584944
-0.00567341
-0.00550349
-0.00535155
-0.00521137
-0.00508665
-0.00498222
-0.00487604
-0.00477991
-0.00468775
-0.00460138
-0.00454121
-0.00449904
-0.00445334
-0.00442634
-0.0043959
-0.00441559
-0.00438465
-0.00435383
-0.00433847
-0.00433002
-0.00431192
-0.00427649
-0.00422582
-0.00415747
-0.00405446
-0.00392664
-0.00374976
-0.00346879
-0.00291405