/*--------------------------------*- C++ -*----------------------------------*\
  =========                 |
  \\      /  F ield         | OpenFOAM: The Open Source CFD Toolbox
   \\    /   O peration     | Website:  https://openfoam.org
    \\  /    A nd           | Version:  10
     \\/     M anipulation  |
\*---------------------------------------------------------------------------*/
FoamFile
{
    format      ascii;
    class       volVectorField;
    location    "17";
    object      U;
}
// * * * * * * * * * * * * * * * * * * * * * * * * * * * * * * * * * * * * * //

dimensions      [0 1 -1 0 0 0 0];

internalField   nonuniform List<vector> 
40874
(
(0.708314 -0.234686 0)
(0.607891 -0.203737 3.67441e-19)
(1.07808 -0.579869 -3.98328e-20)
(1.01521 -0.516881 1.53744e-19)
(1.01973 -0.743716 9.98679e-20)
(1.01279 -0.754067 4.91269e-20)
(1.04478 -0.750814 -1.20145e-21)
(1.155 -0.516075 1.05488e-20)
(1.05631 -0.461457 -3.11892e-21)
(0.760484 -0.654818 1.18211e-19)
(0.753312 -0.478056 -1.69334e-19)
(0.45518 -0.642773 1.5826e-19)
(0.842681 -0.688482 1.28164e-20)
(0.837013 -0.418962 9.52935e-20)
(0.841138 -0.319472 -9.29402e-20)
(0.783741 -0.29521 9.00545e-20)
(0.997373 -0.660162 -3.02354e-21)
(1.14486 -0.723941 0)
(0.953154 -0.744706 -2.77572e-19)
(0.989275 -0.315851 -7.94735e-20)
(0.981478 -0.380234 -4.88184e-21)
(0.96999 -0.465521 -1.43315e-19)
(0.601104 -0.557249 1.14975e-20)
(0.571165 -0.675092 4.88288e-20)
(0.919588 -0.368358 1.27933e-19)
(1.14052 -0.495216 -5.10359e-21)
(1.16956 -0.499752 1.61224e-20)
(1.15044 -0.433086 7.32744e-21)
(1.1842 -0.452854 0)
(1.28134 -0.473679 -1.24838e-20)
(1.2781 -0.502966 -1.82867e-21)
(1.21984 -0.445486 2.78339e-21)
(1.16941 -0.499113 0)
(-0.145438 0.111355 5.31422e-20)
(-0.144773 0.106868 0)
(-0.10179 0.0649536 0)
(-0.11177 0.0690985 -3.2546e-22)
(0.536664 0.0106316 -4.1055e-22)
(0.500684 0.0100645 2.01476e-22)
(0.564158 0.014111 1.25642e-21)
(0.637638 0.0122719 0)
(0.643572 0.00986879 1.7494e-22)
(0.584571 0.0124776 -1.83677e-22)
(0.518563 0.013314 -3.59442e-22)
(0.640767 0.0108431 -1.76259e-22)
(0.575963 0.0109892 7.04971e-23)
(0.498342 0.0116296 0)
(0.879007 0.583881 -2.43479e-20)
(0.765954 0.574925 4.94517e-20)
(0.755971 0.438817 -1.47888e-20)
(0.864088 0.457009 0)
(1.03297 0.58659 0)
(0.978263 0.536594 4.38681e-21)
(1.35795 -0.434205 4.71734e-20)
(1.41022 -0.384036 0)
(1.33068 -0.349145 0)
(1.30018 -0.371655 0)
(1.28271 -0.437902 -6.17361e-21)
(1.42478 -0.455196 -2.45168e-20)
(1.2449 -0.323316 1.05794e-19)
(1.39955 -0.309791 -1.41168e-19)
(1.19852 0.570466 0)
(1.09854 0.562758 0)
(1.12146 0.511587 2.22395e-21)
(1.24286 0.557153 -1.85219e-21)
(-0.0498572 -0.033165 6.60215e-20)
(-0.0792195 -0.0321548 -5.26385e-20)
(-0.0533012 -0.0319184 -4.96826e-20)
(-0.0305644 0.0233848 0)
(-0.00991728 0.00739029 -9.67135e-20)
(-0.00970552 0.00747388 -9.87435e-20)
(0.0286262 -0.0716176 2.45878e-19)
(0.00896624 -0.0243666 4.26502e-20)
(0.0163289 -0.0432067 4.06067e-20)
(0.409434 -0.0478378 -9.22731e-22)
(0.460121 -0.00477057 8.98863e-21)
(0.281225 0.0293829 -2.87324e-21)
(0.191599 -0.0254703 -4.04797e-22)
(0.22739 0.0163825 6.82994e-23)
(0.375201 0.0144613 0)
(0.361388 0.0140085 2.72882e-23)
(0.172295 0.00942963 -8.68986e-22)
(0.820448 0.350526 7.14887e-20)
(0.773373 0.335346 7.58393e-20)
(0.793285 0.255869 -3.86659e-20)
(0.8346 0.255498 1.70105e-19)
(1.2705 0.306557 -1.17303e-24)
(1.26823 0.316315 -2.89109e-21)
(1.25296 0.298389 2.81657e-22)
(1.33237 0.367454 3.66304e-21)
(1.44872 0.377245 4.26677e-20)
(1.40313 0.324116 -3.42507e-21)
(1.5028 0.457809 4.16082e-20)
(1.26479 -0.701007 0)
(1.29178 -0.461883 -4.0127e-20)
(0.67237 -0.0196983 6.06258e-22)
(0.611245 -0.025363 -4.46934e-22)
(0.55048 -0.0274734 2.40081e-22)
(0.630127 -0.0231546 -5.07947e-22)
(0.695137 -0.0191189 9.67657e-23)
(0.995492 -0.0385964 0)
(0.988907 -0.0315883 3.4101e-22)
(-0.0413545 0.0224688 -3.82545e-21)
(0.0200231 0.00715634 -2.53795e-20)
(-0.0727887 -0.0539617 0)
(-0.0665043 -0.0460543 0)
(0.904885 0.334158 0)
(0.882315 0.379539 -6.95846e-20)
(0.212508 -0.126742 5.69573e-19)
(0.190621 -0.215878 -8.68616e-19)
(-0.0729836 -0.0163887 0)
(-0.0898819 0.0149417 1.78827e-20)
(0.99411 -0.0362435 -2.72823e-20)
(0.509903 -0.014363 -1.18729e-21)
(0.468008 -0.00981646 3.34604e-21)
(0.539021 0.00470884 -1.3056e-21)
(0.450604 0.000815535 8.16286e-22)
(0.496852 0.56252 8.23589e-21)
(0.443355 0.619588 -2.40417e-20)
(0.629266 0.744368 4.4995e-21)
(0.381161 0.624068 1.12988e-19)
(0.175434 -0.295139 -9.78868e-20)
(0.324175 -0.629655 1.00307e-19)
(0.21957 0.527713 -2.3007e-20)
(0.565311 0.0102185 0)
(0.488282 0.00928873 0)
(0.46285 0.0129943 1.13724e-22)
(0.410505 0.0108177 0)
(0.0929246 -0.00743027 0)
(0.125693 -0.00799898 7.27233e-22)
(1.00305 -0.0157035 -6.95173e-20)
(0.612909 0.0111687 -1.09613e-22)
(1.11646 -0.0331674 0)
(1.11605 -0.0334931 -1.03026e-21)
(0.666631 -0.0414321 0)
(1.29587 0.315612 1.87883e-21)
(1.29636 0.305881 -3.83775e-21)
(1.33287 0.339275 -4.39604e-21)
(1.12028 0.122934 2.51949e-20)
(1.29903 0.135439 -2.33966e-20)
(1.29202 0.121463 1.21018e-20)
(1.10776 0.112485 4.18743e-20)
(0.921484 0.112138 -1.34679e-22)
(0.922324 0.107939 -7.6363e-21)
(0.147386 0.0351997 -6.49686e-20)
(0.0795089 0.0301055 7.89613e-20)
(0.0345264 0.0153834 -6.57804e-20)
(0.0692572 -0.157319 -2.07989e-19)
(0.034728 -0.0593102 -2.82266e-19)
(0.0909108 -0.132944 1.78727e-19)
(1.1533 -0.636694 0)
(1.41292 -0.355438 -1.24045e-20)
(1.35243 -0.323923 4.16436e-20)
(-0.0763345 -0.0513873 1.38595e-19)
(-0.0532532 -0.0383912 0)
(-0.0603341 -0.044791 0)
(-0.06914 -0.0436547 0)
(-0.0735322 -0.0434283 -2.42441e-20)
(-0.0624847 -0.0444119 4.78628e-20)
(-0.069605 -0.0425743 0)
(0.0585312 0.0567575 6.85018e-20)
(0.229784 0.067736 -1.45194e-19)
(0.323836 0.0878232 -4.88294e-20)
(0.0695543 -0.0187103 0)
(0.373555 -0.220071 -2.22373e-21)
(0.327519 -0.42336 2.78068e-19)
(0.461954 -0.497573 -2.62422e-20)
(0.621298 -0.340248 -3.18522e-19)
(1.0473 0.492075 -4.74823e-21)
(0.626538 0.0787263 0)
(0.107305 -0.410032 -9.92237e-20)
(0.115831 -0.463581 -1.87372e-19)
(0.475788 -0.561588 -1.15341e-19)
(0.119767 -0.358979 9.5142e-20)
(0.676786 -0.0160608 0)
(0.610349 -0.0165831 -4.33729e-21)
(1.14488 0.189382 8.3605e-20)
(1.09131 0.162201 -4.53638e-20)
(0.922543 0.138512 -6.32979e-20)
(-0.00399612 -0.0456525 -7.34923e-20)
(0.0327842 -0.0367124 3.3345e-20)
(0.248093 0.0245887 1.64586e-20)
(0.211884 0.0179577 2.4094e-20)
(1.16838 -0.394415 6.68761e-20)
(1.03986 -0.285644 1.91907e-20)
(1.06443 -0.0059249 -2.37475e-23)
(1.06428 -0.00636591 0)
(1.06439 -0.00626985 0)
(0.894204 0.273676 4.38886e-20)
(0.889407 0.247095 -1.07086e-19)
(0.908435 0.254743 -8.0492e-22)
(0.955756 0.453349 2.36551e-20)
(1.0153 0.437411 5.30133e-21)
(0.260133 0.122757 3.50113e-19)
(0.0837336 0.138523 0)
(0.0618026 0.0525545 0)
(0.207878 0.0317372 0)
(1.15553 0.710987 -3.57064e-21)
(1.2743 0.659077 4.69298e-20)
(1.22607 0.669968 -2.15456e-20)
(1.02514 0.642857 -1.37573e-20)
(-0.0985052 0.0449638 -3.54958e-20)
(-0.104002 0.0412317 -1.32731e-19)
(-0.0608995 0.0351563 -2.48444e-20)
(-0.0676241 0.0351291 0)
(1.06443 -0.00627212 -1.41978e-23)
(1.06452 -0.005806 -8.643e-24)
(-0.104672 0.0469996 2.73218e-19)
(0.338544 0.0034396 2.78611e-21)
(0.389491 -0.000725416 0)
(1.01381 -0.0336385 -2.4022e-20)
(1.018 -0.0366401 5.50429e-20)
(0.809091 0.734684 -1.29376e-19)
(1.0996 -0.0938061 -5.95209e-20)
(1.01884 -0.117105 0)
(1.08458 -0.11835 -4.0371e-20)
(1.0887 -0.100957 3.30217e-20)
(1.0187 -0.0768685 1.06603e-20)
(1.01018 -0.0955606 1.8207e-20)
(0.622238 -0.111068 -2.37018e-19)
(0.478789 -0.00407901 1.41522e-19)
(0.407159 -0.105029 -4.12199e-19)
(0.635836 0.0109731 0)
(0.631352 0.0104042 1.41725e-22)
(0.852537 0.767584 1.24e-19)
(0.442608 0.464577 -9.61959e-21)
(0.505295 0.517445 0)
(1.03393 -0.127664 0)
(-0.112845 0.112223 0)
(1.16235 0.149978 0)
(1.13053 0.154871 2.51922e-21)
(-0.08519 0.0453771 7.83651e-20)
(-0.0842507 0.0418628 3.23386e-20)
(1.40638 -0.315689 0)
(-0.0915103 0.147046 -6.44294e-20)
(-0.0804906 0.149887 8.54983e-20)
(-0.0903831 0.181043 -1.9135e-19)
(-0.0961024 0.169887 1.77539e-19)
(-0.0820658 0.124115 -2.8275e-20)
(0.54122 -0.319013 0)
(0.66921 -0.408698 -4.40559e-20)
(-0.0250514 0.032871 3.04319e-20)
(-0.0199297 0.0212867 -3.03362e-20)
(0.879584 0.669665 0)
(1.04072 0.704442 5.12529e-21)
(0.895193 0.591222 -2.41901e-20)
(0.659611 0.495915 0)
(0.679254 0.297246 -1.16986e-19)
(0.616552 0.40068 8.16933e-20)
(0.469667 0.278119 -3.01895e-19)
(0.590547 0.183467 3.70358e-20)
(1.37505 0.220647 -1.22934e-20)
(1.36132 0.206018 1.64694e-20)
(1.37752 0.203736 6.46627e-21)
(1.39325 0.219207 0)
(1.01378 0.123015 1.46369e-20)
(0.909662 0.118839 -1.26335e-20)
(1.00974 0.13121 0)
(-0.0829334 0.138319 0)
(-0.0796281 0.140169 2.76566e-20)
(-0.0573029 0.0932331 3.39994e-20)
(-0.0580352 -0.00282354 1.40393e-20)
(-0.0319891 -0.0120085 -5.59231e-20)
(-0.0307635 -0.00170404 1.46425e-19)
(0.0935343 0.235852 -4.99837e-19)
(0.0242207 0.142061 -2.99797e-19)
(0.0165479 0.0885261 -4.18738e-20)
(0.757953 0.0028144 5.74703e-20)
(0.780769 -0.0136064 -1.1197e-19)
(0.775043 0.0243013 0)
(0.136157 0.102766 2.13199e-20)
(1.06445 -0.00645363 -1.20581e-23)
(1.41979 0.227142 0)
(1.13243 -0.0375235 -3.51938e-21)
(1.22813 0.12442 0)
(1.21769 0.116228 -3.35521e-22)
(1.20747 0.1088 8.67356e-23)
(1.1976 0.101626 4.08689e-23)
(1.18757 0.09547 -5.74076e-22)
(1.17851 0.0889769 1.10771e-21)
(1.17066 0.0808833 1.40831e-21)
(1.16322 0.0754169 -3.99991e-23)
(1.15579 0.069874 3.56394e-23)
(1.14908 0.064439 -1.1038e-28)
(1.14264 0.0591593 3.81342e-23)
(1.13688 0.0542201 5.54059e-22)
(1.13135 0.0494217 -6.27142e-22)
(1.12641 0.0448966 -4.14529e-26)
(1.1217 0.0404839 9.90804e-23)
(1.11751 0.0363168 -1.93023e-21)
(1.11358 0.032261 1.82982e-21)
(1.11024 0.0285415 0)
(1.10692 0.0246879 -2.70161e-22)
(1.10403 0.0210146 0)
(1.10148 0.0174923 -2.59048e-21)
(1.09931 0.0141256 2.55828e-21)
(1.0974 0.0108202 1.65197e-22)
(1.09586 0.00764157 -8.27778e-26)
(1.09459 0.00451705 0)
(1.09367 0.00150124 -2.92842e-21)
(1.09305 -0.00146892 2.72447e-21)
(1.09277 -0.00434704 -3.00131e-21)
(1.09282 -0.00718587 5.99669e-21)
(1.09322 -0.0099449 -6.04151e-21)
(1.09397 -0.0126697 3.01112e-21)
(1.09511 -0.0153312 0)
(1.09664 -0.0179973 3.19708e-21)
(1.0988 -0.0208543 -5.56405e-21)
(1.10149 -0.0232324 3.34588e-21)
(1.10493 -0.0259364 0)
(1.10792 -0.0275884 2.43766e-21)
(1.11123 -0.0306662 0)
(1.25807 0.140034 2.34122e-22)
(1.24693 0.144055 5.97223e-22)
(1.25948 0.153721 2.96331e-22)
(1.27214 0.164251 0)
(1.28407 0.158964 6.35157e-22)
(1.2706 0.148794 7.54929e-22)
(1.2358 0.121874 0)
(1.24668 0.129912 5.89303e-21)
(1.214 0.105888 -1.92193e-22)
(1.22462 0.113335 9.996e-22)
(1.19341 0.0921711 0)
(1.2035 0.0983517 0)
(1.17526 0.0789762 0)
(1.18354 0.0862509 -1.19835e-21)
(1.1599 0.0681187 -1.52712e-23)
(1.16734 0.0735864 -4.06923e-27)
(1.14649 0.0577251 -8.3111e-24)
(1.15299 0.0628689 8.94936e-27)
(1.13492 0.0481821 2.17506e-23)
(1.14052 0.0529012 2.80666e-27)
(1.12501 0.0394048 -3.06202e-23)
(1.1298 0.0437465 1.25094e-26)
(1.11678 0.0312451 -2.7977e-22)
(1.12068 0.0353673 -4.4616e-23)
(1.10968 0.0238462 8.91988e-23)
(1.11305 0.0275288 2.72441e-22)
(1.1041 0.0168007 -4.05661e-23)
(1.10673 0.0202809 4.22669e-26)
(1.09983 0.0102244 -5.47353e-23)
(1.10182 0.0134877 0)
(1.09684 0.00402065 5.21994e-26)
(1.09818 0.00710259 2.2311e-26)
(1.09514 -0.00186918 6.16677e-23)
(1.09583 0.00106001 -2.15368e-26)
(1.09475 -0.00749297 0)
(1.09477 -0.00469433 0)
(1.09574 -0.0128823 -3.03613e-26)
(1.09506 -0.0102 -2.64948e-26)
(1.09829 -0.0181205 4.16567e-22)
(1.0968 -0.0154829 5.87077e-26)
(1.10299 -0.0229556 -6.05535e-22)
(1.10021 -0.0208567 0)
(1.10597 -0.0258294 0)
(1.221 0.127587 0)
(1.23477 0.137121 0)
(1.20093 0.111902 0)
(1.21078 0.119602 2.30399e-22)
(1.1818 0.0981233 6.3609e-22)
(1.19119 0.104284 -3.97842e-23)
(1.16524 0.081179 -7.30928e-22)
(1.17326 0.0903016 5.95393e-23)
(1.15079 0.0696743 0)
(1.15801 0.0754911 0)
(1.13782 0.0583714 2.20986e-26)
(1.14403 0.0638278 3.36102e-29)
(1.12678 0.0482955 -5.96953e-26)
(1.13206 0.0531851 -2.22277e-26)
(1.11744 0.039115 0)
(1.1219 0.0435821 0)
(1.10968 0.0307526 0)
(1.11335 0.0348099 0)
(1.1033 0.0229046 0)
(1.1063 0.0267072 0)
(1.09835 0.0157322 -3.30594e-27)
(1.10065 0.0192483 0)
(1.09469 0.00899559 -2.91783e-26)
(1.09636 0.0123041 0)
(1.09231 0.00263361 0)
(1.09334 0.00576162 3.10993e-26)
(1.09122 -0.00340548 -3.37366e-26)
(1.0916 -0.000430227 0)
(1.09147 -0.00917375 -3.54123e-26)
(1.09118 -0.00632728 3.44055e-26)
(1.09316 -0.0147147 -3.65093e-26)
(1.09213 -0.0119747 3.55551e-26)
(1.09637 -0.0200343 -3.5572e-26)
(1.09459 -0.0174248 3.63614e-26)
(1.10076 -0.0247604 0)
(1.09824 -0.0222713 3.6626e-26)
(1.10785 -0.0298344 0)
(1.10468 -0.0278401 0)
(1.2984 0.169878 4.3682e-23)
(1.31368 0.181026 0)
(1.29972 0.187035 3.20067e-22)
(1.28555 0.175237 2.30113e-21)
(1.33045 0.192776 -2.83803e-21)
(1.31451 0.199549 4.34243e-22)
(1.34695 0.20109 6.66196e-21)
(1.11056 -0.0279784 -1.72959e-21)
(1.11432 -0.0308983 -5.21917e-22)
(1.11138 -0.0320813 0)
(1.2481 0.158798 -1.84868e-22)
(1.23664 0.150316 -5.75763e-22)
(1.25981 0.169101 6.1408e-25)
(1.28596 0.19188 9.31695e-22)
(1.30002 0.204575 -2.56464e-21)
(1.39153 0.233924 7.93484e-21)
(1.36085 0.224052 4.3076e-21)
(1.36102 0.194134 -1.03666e-20)
(1.32609 0.172776 -8.97211e-22)
(1.34239 0.182392 1.89059e-21)
(1.29514 0.152859 9.06233e-23)
(1.31023 0.163275 -1.16375e-21)
(1.26762 0.134471 2.34737e-22)
(1.281 0.143212 -1.15081e-21)
(1.24325 0.117154 2.1998e-22)
(1.25535 0.124632 -5.63896e-22)
(1.22043 0.102648 -8.02561e-22)
(1.23164 0.109299 -9.87111e-22)
(1.19951 0.0886449 1.54674e-22)
(1.20977 0.095016 -3.60695e-23)
(1.18163 0.0764168 0)
(1.19012 0.0830152 2.31401e-22)
(1.1659 0.0653618 4.87271e-23)
(1.17345 0.0708164 -7.46462e-26)
(1.15217 0.0552737 1.35946e-23)
(1.15884 0.0602561 3.58108e-26)
(1.14017 0.0460376 0)
(1.14597 0.0506118 -2.89977e-27)
(1.12987 0.037532 0)
(1.13483 0.041747 3.78722e-27)
(1.12114 0.029664 0)
(1.12535 0.0335729 4.65941e-23)
(1.11385 0.0223967 1.09259e-25)
(1.11732 0.0259997 -1.07388e-25)
(1.10794 0.0155712 9.23625e-24)
(1.11072 0.0189565 0)
(1.10339 0.0091701 -3.86351e-23)
(1.1055 0.0123518 0)
(1.10014 0.00313052 -9.06649e-26)
(1.1016 0.0061357 4.18596e-26)
(1.09821 -0.00260479 0)
(1.09901 0.00025295 -3.71963e-26)
(1.0976 -0.00808314 5.17801e-23)
(1.09773 -0.00535177 9.71712e-26)
(1.0984 -0.0133316 0)
(1.09782 -0.0107164 1.61821e-25)
(1.10075 -0.0184516 -5.11157e-22)
(1.09935 -0.0158516 4.8218e-26)
(1.10499 -0.0233014 4.92835e-22)
(1.10255 -0.0211085 -6.53744e-23)
(1.10775 -0.0258551 1.38249e-22)
(1.11887 -0.0333088 5.097e-22)
(1.11726 -0.0351403 0)
(1.12225 -0.035128 -2.63417e-21)
(1.12086 -0.035378 6.8932e-22)
(1.21435 0.131962 2.94917e-23)
(1.22511 0.141202 -6.34475e-23)
(1.19367 0.11439 0)
(1.20353 0.122498 6.08002e-23)
(1.17569 0.0997002 -1.67755e-22)
(1.18436 0.107043 -9.64905e-24)
(1.16006 0.0848848 -3.8971e-23)
(1.16751 0.09153 -5.25495e-23)
(1.14674 0.0733055 0)
(1.15314 0.0788907 0)
(1.13463 0.0621234 0)
(1.14052 0.0676157 -2.58545e-28)
(1.12407 0.0519383 3.43289e-26)
(1.12916 0.0569168 -2.08857e-28)
(1.11502 0.0426276 0)
(1.11937 0.0471896 0)
(1.10737 0.034061 6.96281e-26)
(1.11103 0.0382658 0)
(1.10112 0.0261636 -7.93831e-27)
(1.1041 0.0300623 -5.55004e-26)
(1.09607 0.0187385 4.24729e-27)
(1.09844 0.022386 0)
(1.09227 0.0118111 0)
(1.09402 0.0152238 0)
(1.08969 0.0052753 1.17016e-27)
(1.09083 0.00850148 0)
(1.08833 -0.000933134 -2.74613e-28)
(1.08885 0.00213604 0)
(1.08825 -0.00686716 3.10235e-28)
(1.08813 -0.00392945 0)
(1.08954 -0.0125788 -7.76832e-26)
(1.08872 -0.00974485 0)
(1.09239 -0.0181522 -5.87251e-28)
(1.09075 -0.0153726 7.79752e-26)
(1.09736 -0.0239468 1.61149e-22)
(1.09459 -0.0210118 0)
(1.10471 -0.0297733 7.62154e-22)
(1.10066 -0.0268134 -6.10704e-22)
(1.11424 -0.0352816 -5.90043e-22)
(1.10942 -0.0327566 -1.51217e-22)
(1.2725 0.179925 -9.28887e-22)
(1.23636 0.162669 -1.64512e-22)
(1.22598 0.153068 7.48973e-24)
(1.24744 0.173088 2.41346e-22)
(1.27174 0.196538 3.54969e-22)
(1.285 0.210065 -6.55115e-22)
(1.1113 -0.0353377 0)
(1.12003 -0.0379041 7.32021e-22)
(1.11693 -0.0379541 -1.53656e-22)
(1.37863 0.238524 2.31818e-21)
(1.33023 0.213733 -3.68521e-21)
(1.12362 -0.0347907 -8.33363e-22)
(1.31538 0.217277 2.25399e-21)
(1.12979 -0.0372726 -2.00678e-21)
(1.40768 0.207729 -9.43059e-21)
(1.41186 0.243554 -3.53011e-22)
(1.44108 0.239548 -2.05168e-20)
(1.44733 0.226814 4.19573e-21)
(1.4274 0.21601 3.2515e-21)
(1.37033 0.186899 -9.78395e-21)
(1.38795 0.195506 5.44691e-21)
(1.33691 0.165013 6.51339e-22)
(1.35338 0.1757 -3.16701e-21)
(1.30537 0.14624 5.14407e-23)
(1.32071 0.155492 3.54201e-22)
(1.27626 0.128802 -3.11602e-22)
(1.29057 0.137107 0)
(1.25074 0.112117 0)
(1.26326 0.119695 6.10905e-22)
(1.22693 0.0982622 7.61266e-22)
(1.23881 0.104612 0)
(1.20604 0.0850049 2.83638e-22)
(1.21621 0.0912363 3.61521e-25)
(1.18759 0.0731198 0)
(1.19663 0.0793202 -2.81538e-22)
(1.17124 0.0624418 1.24835e-23)
(1.17908 0.0677579 5.13158e-25)
(1.15707 0.0526452 1.1833e-23)
(1.16394 0.0574772 1.86437e-26)
(1.14468 0.0437135 -1.48746e-23)
(1.15066 0.0481355 0)
(1.13401 0.0354971 2.85776e-24)
(1.13914 0.0395699 -3.78735e-27)
(1.12494 0.0278667 7.48915e-24)
(1.12931 0.0316311 0)
(1.11742 0.0208308 1.64854e-23)
(1.121 0.0243346 0)
(1.11128 0.0142232 3.24995e-23)
(1.11417 0.0175029 0)
(1.10652 0.00801694 3.86343e-23)
(1.10873 0.0111048 0)
(1.1031 0.00215402 -1.51345e-25)
(1.10464 0.0050737 1.49945e-25)
(1.10101 -0.0034186 -8.50168e-26)
(1.10189 -0.000639222 1.73718e-25)
(1.10028 -0.00874437 -9.70528e-23)
(1.10048 -0.00608614 1.63149e-25)
(1.10097 -0.0138567 0)
(1.10044 -0.0113049 -2.85543e-25)
(1.10319 -0.0188083 0)
(1.10187 -0.0163066 -3.01711e-25)
(1.1073 -0.0236337 1.68863e-22)
(1.10496 -0.0213829 1.05012e-22)
(1.11307 -0.0282046 -5.23087e-22)
(1.11007 -0.0259739 -1.13768e-22)
(1.12155 -0.0333078 0)
(1.11701 -0.0309384 4.90201e-22)
(1.12627 -0.0349324 2.40142e-22)
(1.126 -0.0377465 1.42776e-22)
(1.12846 -0.0376935 2.14134e-21)
(1.12274 -0.0373773 0)
(1.20547 0.134223 -9.18461e-23)
(1.21594 0.14361 0)
(1.18616 0.11724 0)
(1.1955 0.12531 3.0122e-23)
(1.1689 0.101337 3.71154e-24)
(1.17725 0.109318 4.06274e-24)
(1.15358 0.0869576 3.57671e-23)
(1.16117 0.0939424 4.51954e-23)
(1.1399 0.0743036 0)
(1.14647 0.0805415 0)
(1.12821 0.0627573 9.97679e-26)
(1.13384 0.0683882 9.8056e-28)
(1.11814 0.0523072 0)
(1.12298 0.0574011 3.26407e-28)
(1.10956 0.0427922 -2.35888e-25)
(1.11367 0.0474416 0)
(1.10239 0.0340667 -1.45931e-26)
(1.10581 0.0383366 2.36853e-25)
(1.09651 0.0259857 7.9384e-27)
(1.09929 0.0299452 2.39399e-28)
(1.0919 0.0184852 1.4187e-25)
(1.09405 0.0221701 0)
(1.08848 0.0114575 1.52937e-25)
(1.09004 0.0149166 -1.46712e-25)
(1.08627 0.00482295 1.19315e-28)
(1.08722 0.00809465 -1.53559e-25)
(1.08527 -0.00148382 1.63457e-25)
(1.08561 0.00163169 0)
(1.08554 -0.00751947 1.66552e-25)
(1.08524 -0.00453287 -1.6379e-25)
(1.08718 -0.0133318 1.68719e-25)
(1.08618 -0.0104518 -1.67203e-25)
(1.09029 -0.0189177 -6.88045e-28)
(1.08855 -0.0161582 -1.69432e-25)
(1.09511 -0.0243744 -1.6424e-22)
(1.09244 -0.0216129 0)
(1.10187 -0.0298055 0)
(1.09825 -0.0271374 0)
(1.10616 -0.0325589 0)
(1.25919 0.184246 -3.47417e-22)
(1.30016 0.223642 3.23906e-22)
(1.22487 0.166057 -3.83929e-23)
(1.21523 0.156253 -5.12628e-23)
(1.12609 -0.0403504 -7.14143e-22)
(1.12325 -0.0406516 0)
(1.23513 0.17634 0)
(1.39785 0.252657 -8.99378e-21)
(1.13252 -0.0370815 6.10432e-21)
(1.13902 -0.0379845 -5.95677e-21)
(1.42961 0.24973 0)
(1.34723 0.228074 1.38197e-21)
(1.36432 0.246315 -1.79157e-20)
(1.4557 0.215613 9.71331e-22)
(1.4866 0.230432 -2.8272e-22)
(1.471 0.238568 1.0289e-20)
(1.33195 0.232195 3.42913e-21)
(1.31666 0.237943 7.48543e-22)
(1.41824 0.195947 3.34623e-21)
(1.4358 0.204805 -4.69775e-21)
(1.38268 0.178122 -3.53619e-22)
(1.39993 0.185783 7.08449e-22)
(1.34696 0.157616 -3.05793e-22)
(1.36444 0.167801 1.13753e-21)
(1.31462 0.138879 0)
(1.33061 0.148007 -3.89206e-24)
(1.28462 0.122421 -6.10096e-24)
(1.29928 0.13042 8.9361e-24)
(1.25794 0.106851 0)
(1.27084 0.114218 0)
(1.23385 0.0933585 0)
(1.24566 0.0997428 0)
(1.21233 0.0807881 -3.10121e-24)
(1.22275 0.0868207 2.59914e-24)
(1.19327 0.0694595 -7.48726e-23)
(1.20256 0.0752701 -1.99266e-24)
(1.17626 0.0592269 -4.47439e-23)
(1.18443 0.0643174 2.01417e-25)
(1.16158 0.0498181 -2.87445e-23)
(1.16868 0.0544648 -2.27797e-25)
(1.1488 0.0412223 4.05612e-23)
(1.15497 0.0454784 -6.03908e-25)
(1.1378 0.0333138 9.79496e-24)
(1.14309 0.0372332 -1.62768e-25)
(1.12846 0.0259691 -7.50556e-24)
(1.13294 0.0296039 -6.79349e-27)
(1.12069 0.0191698 -1.64845e-23)
(1.12438 0.022553 0)
(1.11436 0.012791 -1.64228e-23)
(1.11735 0.0159596 0)
(1.10943 0.00679167 1.99229e-25)
(1.11172 0.00977803 -1.96983e-25)
(1.10587 0.00111825 2.46757e-25)
(1.10748 0.00394477 -2.44489e-25)
(1.10367 -0.0042825 0)
(1.1046 -0.00158686 0)
(1.10284 -0.00944666 4.50193e-23)
(1.10308 -0.0068672 2.7683e-25)
(1.10346 -0.014415 0)
(1.10296 -0.0119312 4.97635e-25)
(1.10562 -0.0192098 0)
(1.10433 -0.016797 1.9316e-25)
(1.10968 -0.0239092 -5.23329e-23)
(1.10737 -0.0216634 -1.03982e-22)
(1.11554 -0.0284058 -2.50204e-22)
(1.11245 -0.0261956 1.01203e-22)
(1.12384 -0.0331654 1.92818e-22)
(1.11947 -0.0309204 5.30597e-22)
(1.12823 -0.0349857 -2.24934e-22)
(1.13573 -0.0392339 0)
(1.13768 -0.0386912 8.18419e-22)
(1.13155 -0.0399265 -5.54319e-22)
(1.13404 -0.0397702 0)
(1.12889 -0.0400076 -4.18653e-22)
(1.19635 0.137441 1.19541e-23)
(1.20582 0.14685 -1.13204e-23)
(1.17776 0.119359 -1.70995e-24)
(1.18682 0.128135 4.63038e-26)
(1.16158 0.103418 -6.05971e-25)
(1.16939 0.111158 3.26396e-26)
(1.14699 0.0889914 0)
(1.15408 0.0959618 0)
(1.13435 0.0762609 1.11504e-25)
(1.14042 0.0824297 0)
(1.12334 0.0646965 -2.24896e-25)
(1.12866 0.0703537 -7.22e-28)
(1.11376 0.0541402 0)
(1.11837 0.059296 0)
(1.10557 0.0445021 0)
(1.1095 0.049216 0)
(1.09869 0.035647 2.77075e-25)
(1.10197 0.0399853 0)
(1.09306 0.027462 0)
(1.09572 0.0314805 -2.97771e-25)
(1.0886 0.0198285 0)
(1.09068 0.0235809 0)
(1.08529 0.0126754 0)
(1.0868 0.0161973 0)
(1.08315 0.0059221 -1.28952e-27)
(1.08408 0.00925387 0)
(1.08218 -0.000502253 -3.31046e-28)
(1.08251 0.00267301 0)
(1.08244 -0.00665772 -7.02948e-28)
(1.08215 -0.00360985 0)
(1.08402 -0.0126009 3.64601e-25)
(1.08306 -0.0096521 0)
(1.08713 -0.0183998 3.66642e-25)
(1.08537 -0.0155119 -3.65724e-25)
(1.09201 -0.0241404 -2.94806e-27)
(1.08934 -0.0212827 -3.66683e-25)
(1.09901 -0.0298861 0)
(1.0952 -0.0270089 0)
(1.10843 -0.0355904 3.60958e-22)
(1.10342 -0.032778 0)
(1.54034 0.270688 3.00846e-21)
(1.53529 0.253005 0)
(1.34842 0.247974 -9.37651e-22)
(1.47111 0.256567 7.65912e-21)
(1.12044 -0.0410736 -3.58548e-22)
(1.11415 -0.0383707 -3.52159e-22)
(1.258 0.200639 -3.30328e-22)
(1.24632 0.18769 0)
(1.28463 0.229374 9.05635e-22)
(1.27031 0.215194 5.27308e-22)
(1.33484 0.253338 2.12424e-21)
(1.51269 0.235679 2.76315e-20)
(1.53608 0.279769 2.49164e-20)
(1.45146 0.263249 -1.43041e-20)
(1.49059 0.217537 -1.61043e-20)
(1.52968 0.233287 0)
(1.20421 0.158198 -2.32761e-23)
(1.21344 0.168499 2.72771e-23)
(1.38273 0.265328 1.64618e-20)
(1.45063 0.230238 -3.03247e-20)
(1.40486 0.209375 0)
(1.30021 0.245516 4.33207e-22)
(1.11753 -0.0414988 7.0038e-22)
(1.12712 -0.0437234 -6.69841e-22)
(1.12428 -0.0442925 6.78716e-22)
(1.47442 0.244824 6.87691e-21)
(1.42043 0.262593 4.80046e-21)
(1.53734 0.308764 0)
(1.466 0.205908 1.04301e-21)
(1.49734 0.219844 0)
(1.42826 0.185745 -1.52183e-21)
(1.4448 0.194969 1.83509e-21)
(1.3936 0.167965 3.44992e-22)
(1.41085 0.17571 0)
(1.35694 0.1491 5.76922e-22)
(1.37516 0.158679 -1.00952e-23)
(1.32334 0.131448 -5.03372e-22)
(1.33969 0.140184 -1.14955e-23)
(1.29264 0.11571 1.34634e-23)
(1.30763 0.123397 -1.58881e-23)
(1.26505 0.101148 -3.53081e-22)
(1.27841 0.108165 5.75627e-24)
(1.24033 0.0882013 1.4377e-22)
(1.25239 0.094444 -4.73337e-24)
(1.2182 0.0762909 0)
(1.22893 0.0820773 0)
(1.19861 0.065523 7.72128e-23)
(1.20814 0.0709711 0)
(1.1811 0.0557593 0)
(1.18953 0.0606107 0)
(1.16596 0.0467916 -1.55927e-24)
(1.17327 0.0512259 2.78416e-24)
(1.15281 0.0385711 -2.63802e-23)
(1.15915 0.0426444 1.93711e-24)
(1.14149 0.0309937 -3.44486e-23)
(1.14693 0.03475 0)
(1.13188 0.0239572 0)
(1.13648 0.0274458 0)
(1.12387 0.0174163 -5.25718e-26)
(1.12768 0.0206689 -2.40202e-26)
(1.11735 0.0112803 7.68364e-24)
(1.12043 0.0143312 6.95834e-26)
(1.11226 0.00549924 -2.82958e-25)
(1.11463 0.00837832 8.45222e-26)
(1.10857 2.51349e-05 -3.84241e-25)
(1.11024 0.00275404 7.7315e-26)
(1.10624 -0.00519345 0)
(1.10723 -0.00258757 -3.956e-25)
(1.10532 -0.010188 -3.26232e-23)
(1.1056 -0.00769186 -2.85809e-25)
(1.10586 -0.0150011 0)
(1.1054 -0.0125924 2.21433e-25)
(1.10798 -0.0196454 0)
(1.10671 -0.0173142 5.88368e-25)
(1.11196 -0.0241981 0)
(1.10969 -0.0219733 3.56748e-25)
(1.11784 -0.0285903 9.69959e-23)
(1.1147 -0.026415 0)
(1.12611 -0.0331439 -4.11635e-22)
(1.12171 -0.030908 -4.38451e-23)
(1.1366 -0.0377056 1.92879e-21)
(1.13109 -0.0353814 0)
(1.14125 -0.0408028 -4.75414e-22)
(1.14347 -0.0388367 1.21997e-21)
(1.14338 -0.0405149 -8.0399e-22)
(1.13733 -0.0418453 -5.2692e-22)
(1.13965 -0.0414832 9.90564e-22)
(1.13253 -0.0427166 1.17488e-21)
(1.13506 -0.0422796 1.33834e-21)
(1.12991 -0.0432094 3.30271e-22)
(1.18654 0.139284 3.59285e-23)
(1.19533 0.148572 -6.06212e-23)
(1.16933 0.121293 4.64405e-24)
(1.17774 0.130081 0)
(1.15388 0.105004 2.15318e-25)
(1.1614 0.112958 -3.26232e-26)
(1.1401 0.0904135 -1.26097e-25)
(1.14679 0.0975051 3.91569e-25)
(1.12795 0.0773469 1.05677e-24)
(1.13382 0.0837142 0)
(1.11743 0.0655532 -2.54557e-26)
(1.1225 0.0713028 -1.02848e-24)
(1.10835 0.0548541 -1.20743e-24)
(1.11272 0.0600763 0)
(1.10061 0.0450971 0)
(1.10432 0.0498672 1.21223e-24)
(1.09413 0.0361392 6.90353e-25)
(1.09722 0.0405263 0)
(1.08884 0.0278541 7.09253e-25)
(1.09134 0.0319187 -6.73492e-25)
(1.0847 0.0201423 0)
(1.08663 0.0239328 -7.00606e-25)
(1.08167 0.0129086 7.43857e-25)
(1.08305 0.0164711 0)
(1.07977 0.00607129 -1.53301e-27)
(1.08058 0.00944511 -7.43761e-25)
(1.07901 -0.000441155 7.70111e-25)
(1.07924 0.00277855 0)
(1.07946 -0.00669091 7.79009e-25)
(1.07908 -0.00359533 -7.72744e-25)
(1.08122 -0.0127309 7.83517e-25)
(1.08017 -0.00973443 -7.81701e-25)
(1.08444 -0.0186014 7.82288e-25)
(1.08264 -0.0156848 -7.86593e-25)
(1.08933 -0.0243649 7.82324e-25)
(1.08665 -0.0214896 -7.86898e-25)
(1.09616 -0.0300356 -7.76291e-25)
(1.09248 -0.0272117 -7.82362e-25)
(1.10551 -0.0358196 -3.65831e-22)
(1.10049 -0.0329107 7.62695e-25)
(1.1112 -0.0386831 3.59252e-22)
(1.22331 0.179283 1.13652e-22)
(1.24392 0.203345 2.93232e-22)
(1.23349 0.190622 -2.14099e-22)
(1.26834 0.234027 -3.18073e-22)
(1.25538 0.218668 -2.09229e-22)
(1.36727 0.271826 2.53669e-22)
(1.47405 0.201534 -5.22863e-21)
(1.52826 0.215513 -5.03818e-21)
(1.26182 0.192019 5.77073e-21)
(1.30611 0.217961 -1.32266e-20)
(1.1388 -0.0373778 1.09058e-21)
(1.14501 -0.0387174 -5.48143e-22)
(1.31728 0.264073 2.64574e-22)
(1.28232 0.250401 -1.20291e-21)
(1.13387 -0.0462188 -9.92777e-22)
(1.13124 -0.046887 6.63413e-22)
(1.47927 0.277159 -3.78768e-20)
(1.43881 0.274262 -4.07329e-20)
(1.36424 0.19006 1.71041e-20)
(1.40774 0.278831 -3.08947e-20)
(1.35511 0.283453 0)
(1.20246 0.171131 -3.88004e-24)
(1.19359 0.160514 0)
(1.4788 0.196082 -3.17e-21)
(1.50893 0.207676 -1.41299e-22)
(1.43792 0.17563 0)
(1.45604 0.18519 0)
(1.40311 0.157536 0)
(1.42027 0.165895 -2.52671e-23)
(1.36624 0.13999 6.67944e-22)
(1.38471 0.148861 1.00253e-23)
(1.33165 0.123586 1.07918e-21)
(1.34847 0.131763 0)
(1.30023 0.108686 -4.67022e-22)
(1.31555 0.116013 0)
(1.27189 0.095037 1.35072e-22)
(1.28566 0.101683 1.72516e-23)
(1.24646 0.082776 -3.22659e-22)
(1.25883 0.0887589 3.41287e-23)
(1.22376 0.0715288 1.2933e-22)
(1.23477 0.0770357 0)
(1.20367 0.0613523 0)
(1.21343 0.066459 0)
(1.18575 0.0520857 7.13076e-23)
(1.19439 0.0566889 9.72602e-24)
(1.17021 0.0435795 6.21957e-23)
(1.17771 0.0477888 -9.07966e-25)
(1.15671 0.0357639 -4.56105e-23)
(1.16321 0.0396397 -6.55009e-25)
(1.14509 0.0285423 2.19576e-23)
(1.15067 0.0321246 0)
(1.13522 0.0218291 0)
(1.13995 0.0251615 -7.59236e-25)
(1.12699 0.0155679 8.07915e-24)
(1.13091 0.0186817 7.57494e-26)
(1.12028 0.00968804 8.73579e-24)
(1.12345 0.0126141 3.08463e-26)
(1.11503 0.00413698 0)
(1.11748 0.00690295 3.60439e-25)
(1.1112 -0.00112817 -5.53431e-25)
(1.11294 0.0014988 8.52001e-25)
(1.10875 -0.00615576 -2.21381e-23)
(1.1098 -0.00364491 7.61061e-25)
(1.10773 -0.0109736 3.30645e-23)
(1.10806 -0.00856454 -4.41901e-25)
(1.10819 -0.0156224 0)
(1.10777 -0.0132943 -5.37081e-25)
(1.11025 -0.0201163 2.78397e-25)
(1.10901 -0.0178624 -8.6578e-25)
(1.11415 -0.0245203 -3.5905e-23)
(1.11193 -0.022342 0)
(1.12006 -0.028817 0)
(1.11687 -0.0266683 0)
(1.12834 -0.0332115 -1.59222e-22)
(1.12393 -0.0310235 4.45236e-23)
(1.13322 -0.0352934 3.36513e-22)
(1.14611 -0.0424193 -2.03986e-22)
(1.14852 -0.0409815 -1.92352e-21)
(1.14767 -0.0417697 1.74331e-22)
(1.14274 -0.0435846 -3.06392e-26)
(1.14457 -0.043019 0)
(1.13873 -0.0448974 -1.59813e-22)
(1.14083 -0.0442248 -5.47875e-22)
(1.1364 -0.0455554 -9.14828e-22)
(1.17677 0.141059 -3.60578e-23)
(1.18508 0.150583 6.03132e-23)
(1.16066 0.122727 -3.39635e-24)
(1.1686 0.131757 0)
(1.14614 0.106263 -1.15974e-24)
(1.15318 0.114242 4.62164e-25)
(1.13323 0.0915826 2.59858e-24)
(1.13949 0.0987167 7.59309e-26)
(1.12189 0.0784484 -1.39415e-25)
(1.12737 0.0848343 -2.32405e-24)
(1.112 0.0666062 -2.67565e-24)
(1.11678 0.0723826 -1.53465e-26)
(1.10343 0.055842 -9.18397e-26)
(1.10756 0.0610987 2.66018e-24)
(1.09611 0.0460124 4.75537e-26)
(1.09962 0.0508192 0)
(1.08998 0.036981 2.44906e-26)
(1.0929 0.0414051 3.02954e-27)
(1.08498 0.0286266 1.1663e-27)
(1.08734 0.0327266 1.55663e-27)
(1.08106 0.0208396 0)
(1.08289 0.0246682 0)
(1.07822 0.0135291 2.58811e-28)
(1.07951 0.0171301 -4.06152e-28)
(1.07646 0.00661286 -1.2313e-28)
(1.07721 0.0100266 0)
(1.07581 1.70986e-05 -3.89236e-28)
(1.07599 0.00327926 0)
(1.07634 -0.00632325 -1.67208e-24)
(1.07592 -0.00318121 0)
(1.07814 -0.0124678 -1.67812e-24)
(1.07707 -0.00941636 1.67832e-24)
(1.0814 -0.0184772 7.92574e-28)
(1.07957 -0.0154853 1.68439e-24)
(1.08634 -0.0244048 -1.66448e-24)
(1.08364 -0.0214498 0)
(1.09331 -0.0302838 6.24266e-27)
(1.08955 -0.0273505 1.6707e-24)
(1.10264 -0.0361323 2.57412e-26)