/*--------------------------------*- C++ -*----------------------------------*\
  =========                 |
  \\      /  F ield         | OpenFOAM: The Open Source CFD Toolbox
   \\    /   O peration     | Website:  https://openfoam.org
    \\  /    A nd           | Version:  10
     \\/     M anipulation  |
\*---------------------------------------------------------------------------*/
FoamFile
{
    format      ascii;
    class       volScalarField;
    location    "17.5";
    object      p;
}
// * * * * * * * * * * * * * * * * * * * * * * * * * * * * * * * * * * * * * //

dimensions      [0 2 -2 0 0 0 0];

internalField   nonuniform List<scalar> 
14667
(
0.264224
0.273908
-0.00842469
-0.00725054
-0.00407112
0.22808
0.215343
-0.00771933
0.00192002
0.000310949
0.231551
0.245294
0.326719
0.258648
-0.00986169
0.21256
0.219701
0.0208118
0.0117462
0.22136
0.218156
0.298392
0.234405
0.225998
-0.518046
-0.535659
-0.565409
-0.529853
-0.502574
0.561073
0.525205
0.512768
-0.36684
-0.396518
-0.399682
-0.347002
-0.365769
0.00513912
-0.00541744
0.00509561
0.0145857
0.0238331
0.688908
0.711045
0.807774
0.776835
0.674655
-0.463581
-0.469677
-0.526465
-0.494296
0.632247
0.578655
0.536488
-0.160133
-0.197165
-0.289826
-0.26411
-0.429401
-0.417747
-0.505444
-0.477254
0.248685
0.311398
0.415979
0.345919
0.207835
0.344068
0.226226
0.486067
0.469746
0.463989
0.882374
0.816929
-0.553102
-0.546386
-0.493385
-0.487488
0.479829
0.489019
0.00936516
0.00545752
0.00473068
-0.00462378
-0.00371477
-0.425586
-0.420587
-0.46387
-0.45584
-0.449973
-0.438036
0.125279
0.12088
-0.0961728
-0.0815247
-0.178054
-0.210058
-0.0530574
-0.0683491
-0.0546672
-0.0676258
-0.339855
-0.259351
0.427479
0.461403
0.444315
0.418355
0.408669
0.398661
-0.012074
-0.0146715
-0.0114489
-0.0107735
-0.00494836
-0.00873928
-0.0302968
-0.0418637
-0.0356945
-0.00795892
-0.0117153
-0.00791287
-0.0905073
-0.0776162
-0.0719682
-0.0674936
-0.0753565
-0.0826101
-0.0637555
-0.0623825
-0.0702103
-0.0719886
-0.0620945
-0.0632811
-0.070112
-0.0694925
-0.065903
-0.0701429
-0.075641
-0.0720739
-0.0760924
-0.0841023
-0.0885893
-0.0810634
-0.0945594
-0.10796
-0.111002
-0.0984902
-0.124537
-0.144471
-0.143995
-0.12624
-0.167958
-0.195234
-0.18539
-0.163842
-0.224651
-0.247047
-0.225334
-0.207663
-0.264373
-0.274116
-0.246518
-0.237597
-0.276747
-0.271459
-0.2407
-0.247857
-0.227526
-0.259509
-0.10007
-0.0848105
-0.240884
-0.11551
-0.118393
-0.102454
-0.0664564
-0.0689757
-0.287116
-0.300277
-0.298052
-0.276512
-0.293154
-0.222674
-0.253379
-0.168911
-0.194884
-0.125735
-0.145718
-0.0948446
-0.108839
-0.0746744
-0.0835529
-0.0627676
-0.0678648
-0.0566033
-0.059089
-0.0553908
-0.0553483
-0.0596881
-0.0571136
-0.0628114
-0.0707049
-0.0866055
-0.103772
-0.110463
-0.086939
-0.0950957
-0.078422
-0.0819126
-0.0761528
-0.0765082
-0.079803
-0.0772205
-0.0903785
-0.0841073
-0.109634
-0.0988485
-0.137783
-0.122729
-0.171101
-0.154168
-0.201205
-0.187543
-0.21666
-0.211431
-0.207559
-0.215005
-0.194676
-0.102483
-0.118128
-0.269097
-0.189062
-0.0551369
-0.0557289
-0.0709005
-0.158403
-0.312259
-0.319577
-0.320742
-0.287725
-0.307826
-0.233087
-0.261183
-0.177606
-0.205102
-0.129232
-0.151899
-0.0940539
-0.109999
-0.0706878
-0.081066
-0.0562669
-0.0625382
-0.0481633
-0.0515607
-0.0447552
-0.045924
-0.0458105
-0.0447185
-0.0512056
-0.0481433
-0.0535211
-0.0867193
-0.133418
-0.131389
-0.134166
-0.118691
-0.126092
-0.100002
-0.109224
-0.0868001
-0.0925893
-0.0804946
-0.0827997
-0.0805611
-0.0797535
-0.087245
-0.0830076
-0.101639
-0.0934304
-0.123808
-0.111854
-0.150591
-0.136988
-0.17403
-0.163459
-0.183973
-0.181276
-0.173892
-0.181239
-0.146416
-0.161935
-0.138979
-0.111336
-0.128515
-0.294662
-0.218531
-0.166992
-0.06984
-0.122685
-0.098391
-0.0547805
-0.147602
-0.0408605
-0.0416386
-0.141923
-0.12888
-0.270829
-0.246049
-0.291705
-0.331298
-0.31532
-0.333536
-0.337629
-0.297119
-0.319433
-0.239109
-0.269613
-0.177574
-0.207694
-0.126504
-0.150234
-0.0900231
-0.106527
-0.0656572
-0.0765427
-0.0500724
-0.056955
-0.0404999
-0.0446764
-0.0352115
-0.0373565
-0.0341806
-0.0341202
-0.0372535
-0.0352859
-0.0392636
-0.0999512
-0.0849111
-0.11479
-0.147555
-0.149567
-0.133867
-0.14216
-0.112779
-0.123462
-0.095077
-0.103152
-0.0844959
-0.0889139
-0.0803201
-0.0816601
-0.0824125
-0.0805342
-0.0914848
-0.0860591
-0.107277
-0.0986319
-0.127154
-0.117013
-0.144352
-0.136689
-0.149642
-0.148953
-0.13922
-0.146338
-0.11432
-0.128248
-0.085351
-0.0992433
-0.0692887
-0.0752475
-0.194119
-0.243184
-0.26249
-0.121385
-0.132933
-0.147507
-0.0895793
-0.110748
-0.0850673
-0.0413082
-0.0672571
-0.219884
-0.231639
-0.244267
-0.306991
-0.276927
-0.344925
-0.330431
-0.342858
-0.349274
-0.30205
-0.326532
-0.238915
-0.271906
-0.174801
-0.205851
-0.122747
-0.146927
-0.0853394
-0.102305
-0.0600646
-0.0714079
-0.0435162
-0.0508877
-0.0329369
-0.0376254
-0.0263866
-0.029229
-0.0233759
-0.024395
-0.0243522
-0.0233199
-0.0274232
-0.025874
-0.0286128
-0.0283764
-0.0399528
-0.0684646
-0.0518178
-0.0952731
-0.0815479
-0.108729
-0.142869
-0.16097
-0.153623
-0.162682
-0.164016
-0.148068
-0.157128
-0.124372
-0.136607
-0.10238
-0.112677
-0.0875451
-0.0940307
-0.079338
-0.0827166
-0.0769255
-0.0773846
-0.0807686
-0.0780574
-0.0904115
-0.0849645
-0.103414
-0.0967522
-0.114326
-0.109595
-0.116019
-0.116661
-0.104354
-0.111691
-0.0827521
-0.0944786
-0.0607015
-0.0707188
-0.0504417
-0.0537453
-0.0502799
-0.0281263
-0.171744
-0.214911
-0.132487
-0.211979
-0.202903
-0.103516
-0.150767
-0.135921
-0.129802
-0.0841499
-0.0726133
-0.0168699
-0.0170341
-0.0586116
-0.194681
-0.183592
-0.184796
-0.250977
-0.216507
-0.314993
-0.285008
-0.350805
-0.337711
-0.344646
-0.353191
-0.299385
-0.326092
-0.233221
-0.267394
-0.168224
-0.199538
-0.116284
-0.140334
-0.0791873
-0.0960101
-0.0539966
-0.0653397
-0.0371629
-0.0447236
-0.0259859
-0.0310039
-0.0185622
-0.0218863
-0.0141638
-0.0159642
-0.0132621
-0.0132314
-0.0151712
-0.0140125
-0.0162423
-0.0382212
-0.0169836
-0.0271317
-0.0634459
-0.0501447
-0.0887731
-0.0762313
-0.111814
-0.100767
-0.121562
-0.172398
-0.163351
-0.176044
-0.176679
-0.160795
-0.170485
-0.1344
-0.148222
-0.108285
-0.120731
-0.0891389
-0.0977335
-0.0769887
-0.0823181
-0.0703938
-0.0730187
-0.0693552
-0.0691775
-0.0733741
-0.070831
-0.0801878
-0.076655
-0.0853704
-0.083341
-0.0830806
-0.0855054
-0.0714148
-0.0785398
-0.0525951
-0.0624185
-0.0369425
-0.043636
-0.0324182
-0.0331427
-0.0384059
-0.034177
-0.0450377
-0.153909
-0.189879
-0.115548
-0.120107
-0.122295
-0.17867
-0.100029
-0.157498
-0.1604
-0.0867905
-0.0807471
-0.00682558
-0.0804101
-0.067436
-0.0160024
-0.00695611
-0.173609
-0.135589
-0.125202
-0.181833
-0.151005
-0.252496
-0.216459
-0.316191
-0.286954
-0.348825
-0.337505
-0.338486
-0.349133
-0.289733
-0.317951
-0.222536
-0.256908
-0.158497
-0.18916
-0.108191
-0.131425
-0.0723145
-0.0886122
-0.0477
-0.0588273
-0.0309439
-0.0385186
-0.0195098
-0.0246874
-0.0115966
-0.0151994
-0.00626666
-0.00861247
-0.00379767
-0.00462786
-0.00433711
-0.00372124
-0.00609697
-0.00523564
-0.00681178
-0.0357736
-0.0255465
-0.0583506
-0.0467698
-0.0809303
-0.069831
-0.100883
-0.091371
-0.109051
-0.122826
-0.156061
-0.139669
-0.180737
-0.17032
-0.186652
-0.186354
-0.171336
-0.18138
-0.142487
-0.157806
-0.112461
-0.126951
-0.0891534
-0.0998002
-0.0731563
-0.0803761
-0.0626514
-0.0672801
-0.0571602
-0.0592848
-0.0561966
-0.0561989
-0.0577734
-0.05686
-0.058257
-0.0584291
-0.0533132
-0.0566871
-0.0412392
-0.0481385
-0.0252615
-0.0332213
-0.015203
-0.0189809
-0.0157781
-0.0141696
-0.0248958
-0.0193734
-0.0423056
-0.0325129
-0.084328
-0.0704024
-0.0546587
-0.140505
-0.169745
-0.11606
-0.159395
-0.100926
-0.14239
-0.0936429
-0.104371
-0.118214
-0.0927397
-0.0977163
-0.0913293
-0.105885
0.00186744
-0.114839
-0.123204
-0.0148258
-0.00654801
-0.106169
-0.106254
-0.107296
0.00138308
-0.156798
-0.0875691
-0.0674086
-0.111692
-0.0874845
-0.174472
-0.140803
-0.247816
-0.211022
-0.310107
-0.281928
-0.338968
-0.329716
-0.324595
-0.337236
-0.273638
-0.302565
-0.207371
-0.240926
-0.146137
-0.175288
-0.0986811
-0.120567
-0.0648061
-0.0802239
-0.0413142
-0.051976
-0.0250355
-0.0324384
-0.0136435
-0.0188415
-0.00552056
-0.0092542
0.000339492
-0.0023328
0.00392299
0.00245677
0.00471669
0.00467178
0.00332085
0.00417792
0.00235489
-0.0329618
-0.0236265
-0.0528765
-0.0427642
-0.0725557
-0.0629031
-0.0895402
-0.0815522
-0.101198
-0.0961213
-0.104576
-0.158564
-0.141121
-0.185634
-0.173805
-0.193838
-0.192666
-0.178942
-0.189055
-0.148198
-0.164746
-0.114635
-0.13101
-0.0874582
-0.100013
-0.0679359
-0.0768765
-0.053945
-0.0603502
-0.0445342
-0.0486816
-0.0392703
-0.0414505
-0.0365398
-0.0377502
-0.0333393
-0.0352222
-0.0262554
-0.0304492
-0.0142018
-0.0207367
-0.00155884
-0.00741463
0.00345101
0.00223308
-0.0011072
0.00214148
-0.0123928
-0.0059868
-0.0304973
-0.0204855
-0.0586678
-0.0430374
-0.0796784
-0.131415
-0.154185
-0.0910347
-0.0904614
-0.0943665
-0.114604
-0.145042
-0.106008
-0.128587
-0.104581
-0.104536
-0.109893
-0.0508803
-0.073593
-0.120139
-0.131766
-0.135419
0.00124392
-0.144566
-0.0366724
-0.00903271
-0.045187
-0.0258097
-0.095513
-0.0680683
-0.163213
-0.127616
-0.237667
-0.200867
-0.297272
-0.270813
-0.321819
-0.314808
-0.303609
-0.317917
-0.252033
-0.280761
-0.188733
-0.22046
-0.131913
-0.158834
-0.0882954
-0.108406
-0.0570056
-0.0712883
-0.0350051
-0.0450351
-0.0194801
-0.026579
-0.00837225
-0.0134737
-0.000263038
-0.00401392
0.00581223
0.00299259
0.0100746
0.00819659
0.0119939
0.0113652
0.0114836
0.0120079
0.00984545
0.0107691
0.00847277
0.00909755
0.00132376
-0.0134582
-0.00587897
-0.0298579
-0.0214752
-0.0472755
-0.0384991
-0.0641639
-0.0559145
-0.0784744
-0.0717844
-0.0878748
-0.0839271
-0.0901506
-0.0884236
-0.121465
-0.10416
-0.157288
-0.139488
-0.186501
-0.173481
-0.197013
-0.194717
-0.18305
-0.19294
-0.151095
-0.16852
-0.114577
-0.132577
-0.0839284
-0.0982029
-0.0613187
-0.0717427
-0.0444567
-0.0523091
-0.0318583
-0.0376552
-0.0230692
-0.0270338
-0.0168731
-0.0197787
-0.0107843
-0.0140035
-0.00206843
-0.00686769
0.00934968
0.00350539
0.0183073
0.0146071
0.0188638
0.019767
0.0116782
0.0159936
-0.000566297
0.00615883
-0.01885
-0.00887918
-0.0455021
-0.0306996
-0.0654915
0.00798667
-0.1269
-0.143012
0.00565824
-0.0243399
-0.117405
-0.134642
-0.11555
-0.118242
-0.120627
-0.093784
-0.132543
-0.0622253
-0.148196
-0.161521
-0.12821
-0.159946
-0.163889
0.0151707
-0.0851839
-0.0719707
0.0143242
-0.0748883
-0.136726
0.0188056
0.050008
0.0186043
0.0351607
-0.0222247
-0.000277108
-0.0782318
-0.048031
-0.149156
-0.112364
-0.222805
-0.186855
-0.278438
-0.254232
-0.298007
-0.293537
-0.27658
-0.292054
-0.22617
-0.253723
-0.167716
-0.196728
-0.116562
-0.140714
-0.0774544
-0.0955075
-0.0491307
-0.0621093
-0.0288885
-0.0381624
-0.0143326
-0.0210239
-0.00370104
-0.00861244
0.00422391
0.000539494
0.0102936
0.00745217
0.0148744
0.0127776
0.0176421
0.0165242
0.0181919
0.0182121
0.0165482
0.0177154
0.0159914
-0.013525
0.0309527
0.0635408
0.00141892
0.0133663
0.00754356
-0.0120199
-0.00517313
-0.0266866
-0.0192342
-0.041824
-0.0342592
-0.0561501
-0.0491892
-0.0680363
-0.062509
-0.0756509
-0.0724997
-0.0777556
-0.0773637
-0.076846
-0.116984
-0.100313
-0.152547
-0.134749
-0.183095
-0.169225
-0.195847
-0.192396
-0.183299
-0.192658
-0.150888
-0.168803
-0.112124
-0.131419
-0.0785045
-0.0942729
-0.0532612
-0.0649291
-0.0341773
-0.0431214
-0.0192345
-0.0262451
-0.00778138
-0.0131076
0.00112427
-0.00311601
0.009505
0.00522761
0.0192764
0.0141796
0.029257
0.0245146
0.034272
0.0327194
0.0312578
0.0337005
0.0225045
0.0274019
0.0096706
0.016636
-0.00790096
0.0014842
-0.0324359
-0.0189096
-0.0762562
-0.0510141
-0.128057
-0.104557
-0.140852
-0.186685
-0.161407
-0.126754
-0.136036
-0.0634294
-0.0608933
-0.124704
-0.127729
-0.130315
-0.110991
-0.142995
-0.0857694
-0.161199
-0.0530436
-0.182521
-0.197141
-0.1984
-0.207287
-0.00401853
0.0762134
0.0425028
0.0877867
0.018624
-0.2155
0.012347
-0.181758
0.0173665
-0.133248
0.102867
0.113146
0.0767582
0.0905629
0.0432142
0.0610821
-0.00165541
0.0225197
-0.061545
-0.0297118
-0.133375
-0.0965309
-0.204231
-0.17012
-0.254369
-0.233086
-0.268378
-0.266262
-0.244896
-0.260791
-0.197584
-0.222975
-0.145545
-0.171155
-0.100857
-0.121925
-0.0665909
-0.0824551
-0.0414087
-0.0530038
-0.0230674
-0.0315154
-0.00961777
-0.0158328
0.00039702
-0.00425365
0.00800306
0.00445076
0.0139199
0.0111374
0.0185578
0.0163921
0.0218093
0.0203852
0.0232602
0.0227837
0.0231903
0.0233437
0.0209794
0.0220849
0.0198068
0.00136962
0.00699581
-0.0106808
-0.00452069
-0.0236321
-0.0170811
-0.0367057
-0.0302155
-0.0487858
-0.0429508
-0.058567
-0.0540485
-0.0647193
-0.0621821
-0.0662613
-0.0660609
-0.0653192
-0.0577208
-0.0806658
-0.0683513
-0.110276
-0.0946308
-0.144528
-0.127164
-0.175473
-0.161181
-0.190034
-0.185593
-0.179524
-0.188011
-0.147501
-0.165466
-0.10729
-0.127504
-0.071247
-0.0882674
-0.0437779
-0.0564856
-0.0230169
-0.0327508
-0.00649632
-0.0143164
0.0068015
0.000515452
0.0177261
0.0124759
0.0277735
0.0227624
0.0376643
0.0327908
0.0453515
0.0420968
0.0465689
0.0469104
0.0410371
0.0444767
0.0314223
0.0366239
0.0183754
0.0253796
0.00135268
0.0103604
-0.021507
-0.00892686
-0.0584805
-0.0379074
-0.0960787
-0.0798557
-0.129187
-0.111385
-0.199076
-0.166817
-0.149405
-0.131206
-0.132978
-0.137322
-0.124536
-0.15104
-0.106928
-0.171894
-0.0802903
-0.19761
-0.0456926
-0.222419
-0.23497
-0.239935
-0.250289
-0.242229
-0.176529
-0.219872
0.131603
0.00495067
0.0537729
0.097796
0.0112864
0.023153
-0.054112
-0.0459533
-0.0489185
0.0217454
0.0160145
-0.1341
0.132798
0.134047
0.119955
0.127959
0.0960252
0.109215
0.0615543
0.0802343
0.0144309
0.0397363
-0.0466421
-0.014461
-0.116866
-0.0812428
-0.18257
-0.151456
-0.226049
-0.207956
-0.234334
-0.234599
-0.210302
-0.225712
-0.167938
-0.1903
-0.123358
-0.145164
-0.0854286
-0.103327
-0.0560277
-0.0697016
-0.0339983
-0.0441997
-0.0176088
-0.0252006
-0.00534455
-0.0110413
0.00395809
-0.000382394
0.0111437
0.00777379
0.0168066
0.0141357
0.021328
0.0191972
0.0247457
0.0231896
0.0267386
0.0259396
0.0270902
0.0271107
0.0255397
0.0264641
0.0243579
0.00122545
0.00632885
-0.00951887
-0.00405546
-0.0208534
-0.0151513
-0.0320647
-0.0265268
-0.0422175
-0.0373405
-0.0502449
-0.0465627
-0.0551923
-0.0531567
-0.056384
-0.0562805
-0.0539048
-0.0554963
-0.0515863
-0.0747413
-0.0636276
-0.101754
-0.0875132
-0.133739
-0.11738
-0.164
-0.149782
-0.180025
-0.174612
-0.171781
-0.179145
-0.141055
-0.158583
-0.1003
-0.121008
-0.0624255
-0.0804491
-0.0330468
-0.0466525
-0.0109581
-0.0212852
0.00658199
-0.00174308
0.0210385
0.0141418
0.0332694
0.0273709
0.0440966
0.0388354
0.0527269
0.0488904
0.0576014
0.0560498
0.0556102
0.0574046
0.0485095
0.0525255
0.0384121
0.0437864
0.02538
0.0323039
0.00900288
0.0176157
-0.0123876
-0.000734329
-0.0434532
-0.0269385
-0.0754688
-0.0600515
-0.105083
-0.0901234
-0.142452
-0.12169
-0.140707
-0.134208
-0.0416036
-0.0390652
-0.155797
-0.125286
-0.178612
-0.106176
-0.207811
-0.0772715
-0.240119
-0.0397453
-0.265297
-0.277377
-0.284444
-0.284269
-0.267094
-0.183489
-0.236697
-0.190838
-0.147227
0.124008
0.130957
0.12543
0.0141326
0.0646378
0.105767
0.126012
0.020255
-0.139697
0.135404
0.134838
0.126917
0.132747
0.106059
0.118046
0.072533
0.0909127
0.02569
0.0508513
-0.0339007
-0.00271582
-0.0998139
-0.0667899
-0.158024
-0.130951
-0.19281
-0.17914
-0.197414
-0.199194
-0.174806
-0.188724
-0.138866
-0.157593
-0.102145
-0.120064
-0.0707991
-0.0856468
-0.0460321
-0.0576218
-0.0270293
-0.0358858
-0.0125615
-0.0193028
-0.00150849
-0.00666916
0.00702675
0.00302683
0.0137208
0.0105698
0.0190567
0.0165345
0.0233556
0.021323
0.0267166
0.0251584
0.0289737
0.0279939
0.0296861
0.0295143
0.0287594
0.0293908
0.0266087
0.0277892
0.0236524
0.0251954
0.0186329
0.010163
0.0146
0.000951297
0.00559043
-0.00859881
-0.00376841
-0.0184374
-0.0135149
-0.0279907
-0.023292
-0.036493
-0.0324285
-0.0430788
-0.0400773
-0.047035
-0.0454206
-0.0479514
-0.0478851
-0.045839
-0.0472415
-0.043899
-0.0363525
-0.0498122
-0.0425474
-0.0680587
-0.0582533
-0.0919946
-0.0793147
-0.120861
-0.106003
-0.149304
-0.135724
-0.166094
-0.159967
-0.160336
-0.166373
-0.131842
-0.14842
-0.0915744
-0.112281
-0.0525603
-0.0712981
-0.0215488
-0.035953
0.00171413
-0.00912155
0.0199477
0.0113108
0.0349934
0.0278006
0.04769
0.0416034
0.0581514
0.0532384
0.0653798
0.0622382
0.066291
0.0664905
0.0619763
0.0647155
0.0540352
0.0583379
0.0437441
0.0491716
0.0309707
0.0376908
0.0154143
0.0235619
-0.0042791
0.00628483
-0.0301445
-0.0165941
-0.0573505
-0.0439416
-0.0844639
-0.0705542
-0.123622
-0.101604
-0.140906
0.0219002
-0.155801
-0.140085
-0.180636
-0.130057
-0.212931
-0.108368
-0.250101
-0.0758449
-0.285247
-0.0343842
-0.309377
-0.320505
-0.323991
-0.312937
-0.286855
-0.246914
-0.154643
-0.200242
-0.117631
-0.156779
-0.1192
0.114123
0.116038
0.101556
0.10982
0.097839
0.0237972
0.0745807
0.110154
0.122373
0.0260071
-0.0333453
-0.0286558
0.0241774
-0.0310581
-0.150483
0.126348
0.119337
0.132066
0.130657
0.126347
0.130689
0.108442
0.119015
0.077301
0.0945777
0.0328544
0.0567102
-0.0227056
0.00615051
-0.0816485
-0.0524993
-0.130912
-0.108361
-0.158378
-0.147925
-0.1598
-0.162289
-0.140492
-0.152055
-0.111747
-0.126624
-0.0826094
-0.096859
-0.0573028
-0.0693673
-0.0367686
-0.046449
-0.0205802
-0.0281775
-0.0079495
-0.0138706
0.00190547
-0.00271951
0.00965003
0.00600557
0.0158091
0.0129007
0.0207675
0.0184195
0.0247823
0.0228818
0.0279558
0.0264753
0.0301846
0.0292036
0.031166
0.0308517
0.0306779
0.0311014
0.0288601
0.0299237
0.0275253
0.0168626
0.0221076
0.0199587
0.00894325
0.0130772
0.000528268
0.00473667
-0.00793958
-0.00369365
-0.0164207
-0.0121985
-0.0245129
-0.0205499
-0.0315963
-0.0282247
-0.0369871
-0.0345435
-0.0401429
-0.0388691
-0.0408257
-0.0407941
-0.0390725
-0.0402436
-0.0355327
-0.0374736
-0.0333805
-0.0451944
-0.0388057
-0.0609831
-0.0525477
-0.0815908
-0.0706497
-0.106695
-0.0937147
-0.132269
-0.119889
-0.148869
-0.142434
-0.145661
-0.150148
-0.12024
-0.135344
-0.0816315
-0.101761
-0.0423556
-0.0614257
-0.0100985
-0.0251665
0.0142413
0.00293454
0.0329736
0.0241542
0.0480663
0.0409009
0.0602382
0.0545155
0.0690447
0.0651332
0.0732446
0.0717896
0.0718775
0.073184
0.0662116
0.0694505
0.057914
0.0623233
0.0476428
0.0530238
0.0352871
0.0417365
0.0206127
0.0282682
0.0026395
0.01214
-0.019193
-0.0079226
-0.0417133
-0.0305982
-0.0655604
-0.052997
-0.0945029
-0.0803831
-0.111047
-0.103349
-0.115706
-0.17671
-0.150629
-0.0266465
-0.024602
-0.211676
-0.138358
-0.252895
-0.112605
-0.295422
-0.0750566
-0.331006
-0.0286653
-0.352258
-0.35971
-0.354817
-0.333168
-0.298468
-0.250375
-0.199451
-0.116101
-0.151776
-0.087803
-0.109835
-0.083131
0.103358
0.0841432
0.0867354
0.0808174
0.0666693
0.0683959
0.0342593
0.0828352
0.110469
0.114035
0.023369
0.0198933
0.0211577
-0.166524
0.104184
0.0928715
0.119679
0.113058
0.125977
0.124025
0.121958
0.125316
0.106471
0.115756
0.0783463
0.0940268
0.0379622
0.0595829
-0.0113765
0.0140325
-0.0616437
-0.0370652
-0.101842
-0.0836593
-0.123352
-0.115351
-0.123852
-0.126007
-0.109154
-0.117886
-0.0875052
-0.0987299
-0.0651522
-0.0761609
-0.0451278
-0.054758
-0.0283368
-0.0363193
-0.0146987
-0.0211463
-0.00378237
-0.00893166
0.00491873
0.000814415
0.011875
0.00858851
0.0174793
0.0148253
0.0220292
0.0198714
0.0257242
0.0239749
0.0286521
0.0272837
0.0307526
0.0298161
0.0318012
0.0314218
0.0315762
0.0318486
0.0300311
0.0309454
0.027318
0.0287867
0.0254365
0.0148999
0.0178221
0.00755619
0.0113778
-0.000117653
0.00368556
-0.00755063
-0.0038546
-0.0148098
-0.0112126
-0.0216157
-0.0182976
-0.0274738
-0.0246974
-0.031859
-0.0298809
-0.0343657
-0.033365
-0.0348478
-0.0348557
-0.0334143
-0.0343602
-0.0304446
-0.0320559
-0.0286065
-0.0225326
-0.0302481
-0.0261354
-0.0404326
-0.034993
-0.0538074
-0.0466647
-0.0710765
-0.0619265
-0.0920778
-0.0811996
-0.113952
-0.103252
-0.12931
-0.123067
-0.128412
-0.131338
-0.106618
-0.119789
-0.0709273
-0.0898316
-0.0325308
-0.0514098
0.000315818
-0.0151527
0.0254725
0.0137957
0.0444603
0.0356037
0.0590423
0.0522332
0.0698072
0.0649116
0.0763063
0.0736355
0.0779693
0.0777507
0.0750347
0.0770044
0.0687949
0.0722513
0.0604331
0.0648327
0.0503682
0.0556124
0.038554
0.044685
0.0248067
0.0319477
0.00848263
0.0170142
-0.0104062
-0.000741908
-0.0298358
-0.0201644
-0.0503981
-0.0397241
-0.0710249
-0.0616057
-0.085259
-0.0786175
-0.0905808
-0.0890984
-0.0903162
-0.203124
-0.165298
-0.247705
-0.149088
-0.295897
-0.117553
-0.340768
-0.073696
-0.373506
-0.0216007
-0.389783
-0.390217
-0.374271
-0.342924
-0.299046
-0.245713
-0.192248
-0.142141
-0.0756048
-0.0996517
-0.0570569
-0.0667272
-0.0507321
0.0509848
0.0506049
0.0353927
0.0342511
0.0880114
0.0700101
0.0512774
0.0446052
0.087928
0.105727
0.102058
0.0174055
0.0240564
-0.0204115
-0.0176588
-0.0194246
0.0218412
0.0186033
-0.187356
0.0774963
0.064729
0.098145
0.0891029
0.112269
0.106052
0.1188
0.116585
0.116121
0.118709
0.102893
0.11091
0.0782705
0.0920155
0.0431161
0.0618618
0.00120944
0.0226306
-0.0402375
-0.0201171
-0.0727475
-0.0580837
-0.0901995
-0.0835632
-0.0917107
-0.0927299
-0.0819296
-0.0878692
-0.0665509
-0.0746213
-0.049907
-0.0581995
-0.0343365
-0.0419048
-0.0207746
-0.0272812
-0.0094019
-0.0148197
-5.50828e-05
-0.00449185
0.00755728
0.00394832
0.0137471
0.0108115
0.0187949
0.0163984
0.0229227
0.0209627
0.0262801
0.0246914
0.0289321
0.0276933
0.03081
0.0299823
0.0318438
0.0314593
0.0317387
0.0319345
0.0304072
0.0312119
0.0278284
0.0292537
0.0259805
0.0127355
0.0154811
0.00591569
0.0094567
-0.000993324
0.00239433
-0.00744126
-0.00425867
-0.0135936
-0.0105591
-0.0192587
-0.0165094
-0.0240522
-0.0217905
-0.0275785
-0.0259961
-0.0295431
-0.0287687
-0.029851
-0.0298994
-0.0286324
-0.0294205
-0.0261396
-0.027518
-0.0229221
-0.0245998
-0.0211844
-0.0270893
-0.0235376
-0.0356824
-0.0310997
-0.0468084
-0.0408992
-0.0608901
-0.0534675
-0.0777767
-0.0690454
-0.0954766
-0.0867697
-0.10855
-0.103075
-0.108586
-0.110718
-0.0912579
-0.10215
-0.059674
-0.0766919
-0.0235219
-0.0415452
0.00888735
-0.00652775
0.0342821
0.0224795
0.0531417
0.0444357
0.0667836
0.0605541
0.075806
0.0718656
0.0802165
0.0785865
0.0802028
0.0807296
0.0764824
0.0787369
0.0700826
0.0735905
0.0618427
0.0661533
0.0521212
0.0571633
0.0409293
0.0467111
0.0281488
0.034755
0.013433
0.0210487
-0.00297313
0.00536744
-0.0198747
-0.0114031
-0.0374154
-0.0285313
-0.0535166
-0.0460134
-0.0648836
-0.0598159
-0.0699061
-0.068342
-0.0660156
-0.0687455
-0.0618546
-0.233868
-0.182925
-0.0167591
-0.0152787
-0.286386
-0.160657
-0.338524
-0.121611
-0.381786
-0.0705083
-0.408963
-0.0125962
-0.417305
-0.407574
-0.380649
-0.339798
-0.288842
-0.232279
-0.177079
-0.12743
-0.0868504
-0.0437522
-0.0339934
-0.0364535
-0.0286875
-0.00838111
0.0194228
-0.0565574
0.00279672
0.0165459
0.0705336
0.0515438
0.0329495
0.053556
0.0880786
0.0959234
0.0869433
0.0193666
-0.211812
0.0221229
0.00717112
0.0497067
0.0362811
0.0732413
0.0620369
0.0917698
0.0833212
0.104903
0.0990682
0.111438
0.109088
0.109886
0.111771
0.0989797
0.105665
0.0782183
0.0898154
0.0487611
0.0644176
0.0142063
0.0317966
-0.0195298
-0.00318775
-0.0461333
-0.0340532
-0.0612932
-0.0553088
-0.0645885
-0.0642682
-0.0591608
-0.0627232
-0.0488673
-0.054401
-0.036815
-0.0429161
-0.024903
-0.0307646
-0.0140767
-0.019322
-0.00468517
-0.00919469
0.00324682
-0.000542473
0.00984914
0.00670323
0.0153082
0.0127095
0.0198116
0.0176686
0.0235171
0.0217561
0.0265321
0.0251065
0.028901
0.027797
0.0305868
0.029836
0.0314904
0.0311505
0.0314138
0.0315823
0.0302177
0.0309615
0.027821
0.0291718
0.0243473
0.0262268
0.019882
0.0222305
0.0167151
0.0147057
0.0159169
0.0103447
0.0128719
0.00405786
0.00729651
-0.00208061
0.000900216
-0.00761074
-0.0049031
-0.0127497
-0.0102288
-0.0173914
-0.0151491
-0.0212501
-0.0194382
-0.0240319
-0.0227919
-0.025528
-0.0249493
-0.025678
-0.0257672
-0.0246013
-0.0252809
-0.022525
-0.0236692
-0.0197739
-0.0212076
-0.0182739
-0.0137932
-0.0182776
-0.0159034
-0.023938
-0.0209476
-0.0311199
-0.0273135
-0.04019
-0.035404
-0.0513567
-0.0455104
-0.0643979
-0.0576926
-0.0778671
-0.0712492
-0.0879418
-0.0836753
-0.0883858
-0.0897722
-0.0745545
-0.083364
-0.0477338
-0.0623893
-0.0151784
-0.0316388
0.0154872
0.000740711
0.0402278
0.0286877
0.0584786
0.0501199
0.0710273
0.0654116
0.0785783
0.0753946
0.0816127
0.0806285
0.0807004
0.0816034
0.0766664
0.0790114
0.0703367
0.0738049
0.0623702
0.0665222
0.0530948
0.0578908
0.0425658
0.0479861
0.0307304
0.0368207
0.0174508
0.0242695
0.00306682
0.0103426
-0.0116684
-0.00427591
-0.0265073
-0.0191266
-0.0396046
-0.0334401
-0.0489377
-0.0448326
-0.0530879
-0.0517708
-0.0506257
-0.0526706
-0.0434208
-0.0474852
-0.0388116
0.0173391
-0.266759
-0.201702
-0.324336
-0.171035
-0.376374
-0.123126
-0.414516
-0.0644513
-0.43314
-0.0019469
-0.431477
-0.410448
-0.373195
-0.324507
-0.268783
-0.211444
-0.156762
-0.109405
-0.0723962
-0.0459811
-0.0237506
-0.029397
-0.00296134
-0.0167945
-0.0242648
-0.0192204
-0.0194913
-0.0162583
-0.0145919
-0.00207162
0.0509426
0.0313827
0.0134189
0.0589108
0.08237
0.0819
0.068857
0.0202539
-0.0123621
-0.0107819
0.0178983
-0.0119932
-0.237895
0.0238323
0.0107128
0.0479058
0.036227
0.0688113
0.0588141
0.0856149
0.077801
0.0977589
0.0923177
0.104186
0.101776
0.103559
0.104834
0.0948828
0.100269
0.0779334
0.0874147
0.0538802
0.0666527
0.025767
0.0400697
-0.00172753
0.0116113
-0.0237268
-0.0136616
-0.0377311
-0.0319435
-0.0426521
-0.0412213
-0.0405904
-0.0423327
-0.0341802
-0.0377716
-0.0257103
-0.0300879
-0.0167499
-0.0212214
-0.00820933
-0.0123909
-0.000528441
-0.00424703
0.00614453
0.00293591
0.0118228
0.00910358
0.0165962
0.0143157
0.0205776
0.018679
0.0238709
0.0223049
0.0265482
0.0252837
0.0286371
0.0276664
0.0301087
0.0294545
0.030869
0.0305875
0.0307749
0.0309382
0.0296895
0.0303664
0.0275333
0.0287521
0.024361
0.0260787
0.0224051
0.0137589
0.0154841
0.0146594
0.0116942
0.012848
0.00768812
0.00999762
0.00202937
0.00492665
-0.00336325
-0.000764196
-0.00804515
-0.00577665
-0.0122486
-0.0102009
-0.0159606
-0.0141765
-0.0189867
-0.0175737
-0.0211129
-0.020174
-0.022193
-0.0217893
-0.0221926
-0.0223245
-0.0212095
-0.0218136
-0.0194365
-0.0204069
-0.0171013
-0.0183258
-0.0145196
-0.0158061
-0.0132422
-0.0161803
-0.0141555
-0.0209319
-0.0184255
-0.0268279
-0.0237183
-0.0340675
-0.0302742
-0.0426747
-0.0382087
-0.0523307
-0.0474164
-0.0618941
-0.057246
-0.0687024
-0.0658781
-0.068483
-0.0697662
-0.0571355
-0.0643294
-0.0349758
-0.047177
-0.00686716
-0.0212495
0.0208469
0.00737364
0.0439518
0.033113
0.061108
0.0532721
0.0726064
0.0675204
0.0791337
0.0764473
0.0813637
0.0807423
0.080014
0.0810854
0.0758907
0.0782499
0.0697723
0.0729818
0.0622161
0.0661576
0.0534545
0.0579747
0.0436123
0.0486651
0.0326985
0.0382919
0.0207107
0.026829
0.00799405
0.0144043
-0.00491442
0.00154398
-0.0175325
-0.0113262
-0.0284535
-0.0233014
-0.0362841
-0.0328347
-0.0398577
-0.0386609
-0.0386519
-0.0398254
-0.0335463
-0.0365688
-0.0264624
-0.0302185
-0.022676
-0.298631
-0.219168
-0.0104337
-0.00938952
-0.357431
-0.178058
-0.405453
-0.120742
-0.435239
-0.0553445
-0.443704
0.00913127
-0.430975
-0.398698
-0.353291
-0.298518
-0.240464
-0.183927
-0.132446
-0.0894079
-0.0572239
-0.0356991
-0.0304852
-0.0222146
-0.0337526
-0.0434731
-0.0230044
-0.0399335
-0.0140836
-0.0161458
-0.0324195
-0.0213836
-0.0119498
-0.0128406
-0.0112778
0.0291924
0.00964409
-0.00723023
0.0585801
0.0709365
0.0641018
0.0483368
0.0161549
0.0130091
0.0139537
-0.262777
0.00175638
-0.0103086
0.0250855
0.0136568
0.0460529
0.0358641
0.0645821
0.0556563
0.079821
0.0726776
0.0910089
0.0859696
0.0971835
0.0947994
0.0972683
0.0980458
0.0905582
0.0947896
0.0769844
0.0846007
0.0575626
0.0678884
0.0347391
0.0463699
0.0121399
0.0231594
-0.00580817
0.00221765
-0.019371
-0.0137241
-0.0253639
-0.0231861
-0.0256722
-0.0261197
-0.0221106
-0.0242624
-0.0163804
-0.0194256
-0.00977072
-0.0131236
-0.00311964
-0.00641366
0.00309925
6.23588e-05
0.00866369
0.00597023
0.0135064
0.0111756
0.0176447
0.0156607
0.0211332
0.0194664
0.0240316
0.022653
0.0263828
0.025274
0.0282
0.0273588
0.0294542
0.0289013
0.0300682
0.0298486
0.0299331
0.0301021
0.0289366
0.0295496
0.0270118
0.0280914
0.0241614
0.0256962
0.0204433
0.0223892
0.0183206
0.0107704
0.011894
0.00843819
0.00966198
0.00477641
0.00684384
-0.000173854
0.00235561
-0.00484096
-0.00260617
-0.00872588
-0.00686904
-0.0120573
-0.0104496
-0.0149143
-0.0135497
-0.0171872
-0.0161337
-0.0187256
-0.0180565
-0.019429
-0.0191853
-0.0192801
-0.0194583
-0.0183557
-0.018907
-0.0168084
-0.0176478
-0.0148249
-0.0158607
-0.0126197
-0.0137229
-0.0115082
-0.00839433
-0.010951
-0.00960014
-0.0141575
-0.012467
-0.0180878
-0.0160228
-0.0228521
-0.0203595
-0.0285023
-0.025569
-0.0349338
-0.0316364
-0.0417504
-0.0383369
-0.0479856
-0.0450329
-0.0517336
-0.0503299
-0.0501259
-0.0517952
-0.0402346
-0.046315
-0.021847
-0.0319552
0.00179137
-0.0103889
0.0258794
0.0140638
0.0465903
0.0368093
0.0622214
0.0550711
0.07264
0.0680549
0.0783606
0.0760451
0.080068
0.0796687
0.0785225
0.0796509
0.0744989
0.0767752
0.0686866
0.0717607
0.0615529
0.0652678
0.0533401
0.05757
0.0441856
0.048875
0.0341507
0.0392757
0.0233192
0.0288211
0.0120124
0.0176959
0.00066277
0.00631904
-0.0101774
-0.00487895
-0.0194632
-0.0150811
-0.026166
-0.0231983
-0.029392
-0.02825
-0.0290293
-0.0296146
-0.0257637
-0.027723
-0.0205881
-0.0232914
-0.0154215
-0.0178945
-0.0133747
-0.325816
-0.232565
-0.38193
-0.179863
-0.422464
-0.113916
-0.442234
-0.0439268
-0.439684
0.0184617
-0.416795
-0.375076
-0.3223
-0.263667
-0.205664
-0.152203
-0.105684
-0.0687429
-0.0439701
-0.0341127
-0.0422988
-0.0528535
-0.0423663
-0.0552011
-0.0262695
-0.0546473
-0.0177954
-0.0502934
-0.0139605
-0.0412491
-0.0113962
-0.0126664
0.00543889
-0.0133066
-0.0289683
0.0514462
0.0544802
0.0430488
0.0252578
0.0105236
0.0166176
-0.00742859
-0.01231
-0.00970994
-0.0105003
-0.00649771
-0.00731078
0.0146394
0.0117259
-0.283308
-0.0150922
-0.0250601
0.00557988
-0.00476554
0.0256473
0.0157788
0.0441727
0.0351561
0.0606966
0.0527167
0.0744881
0.0679935
0.0847218
0.080099
0.0905587
0.0882487
0.0911848
0.0915664
0.086092
0.0893718
0.0752781
0.0813742
0.0595985
0.0679521
0.0409956
0.0505036
0.0221707
0.0314367
0.00529514
0.0134664
-0.00552465
-0.000504812
-0.0119309
-0.00935088
-0.0137936
-0.0133676