/*--------------------------------*- C++ -*----------------------------------*\
  =========                 |
  \\      /  F ield         | OpenFOAM: The Open Source CFD Toolbox
   \\    /   O peration     | Website:  https://openfoam.org
    \\  /    A nd           | Version:  10
     \\/     M anipulation  |
\*---------------------------------------------------------------------------*/
FoamFile
{
    format      ascii;
    class       volVectorField;
    location    "17";
    object      U;
}
// * * * * * * * * * * * * * * * * * * * * * * * * * * * * * * * * * * * * * //

dimensions      [0 1 -1 0 0 0 0];

internalField   nonuniform List<vector> 
28942
(
(0.00502728 -0.00261292 -2.83696e-22)
(0.00679446 -0.00284702 -4.9223e-23)
(0.0183519 -0.0126535 -1.00707e-21)
(0.103305 0.0182363 -5.8381e-21)
(0.102343 0.0222781 1.9062e-21)
(0.0255068 0.000980967 0)
(0.0303999 0.000651141 2.30684e-23)
(0.0348424 0.00125414 -2.04713e-23)
(0.134443 -0.0152294 -3.51759e-22)
(0.132933 -0.0137167 9.93501e-22)
(0.0120705 0.00606187 -4.68852e-22)
(0.0189399 0.00792027 1.53766e-22)
(0.00863633 0.00441457 0)
(0.00598397 0.00317582 0)
(0.0719132 0.00251426 -2.91036e-23)
(0.069711 0.00356277 -9.48859e-24)
(0.0895135 0.0158292 7.29288e-22)
(0.0871962 0.0138399 1.17062e-21)
(0.0122727 -0.0152277 3.35149e-21)
(0.0296094 -0.0306919 -8.83836e-22)
(0.0986688 0.0370391 1.05521e-21)
(0.0977763 0.0340954 0)
(0.0204879 0.00565144 1.04576e-21)
(0.00872027 0.00282472 4.72278e-22)
(0.0400358 0.00833528 8.15131e-22)
(0.0602982 0.00389489 -7.43099e-22)
(0.00769841 -0.0184992 9.10332e-21)
(0.00673596 -0.0165577 -3.34017e-21)
(0.0360556 -0.0256205 6.99593e-22)
(0.019583 -0.0138522 2.44427e-22)
(0.0260908 -0.00253244 0)
(0.0326058 -0.00247824 -2.38248e-23)
(0.0406065 0.00635366 5.23352e-22)
(0.0563827 0.0022662 -9.83365e-23)
(0.0190658 0.0182121 1.46139e-21)
(0.0159089 0.0193299 -1.5048e-21)
(0.0325421 0.0380055 -3.31318e-21)
(0.0188694 0.0308682 -1.13597e-21)
(0.0143775 0.000316639 -1.88148e-23)
(0.00874797 0.0163777 -2.80673e-21)
(0.0306483 -0.00620304 0)
(0.0513418 -0.0109692 0)
(0.106227 -0.0106451 -5.12733e-23)
(0.106144 -0.010011 1.51053e-22)
(0.107028 -0.0106358 1.31487e-22)
(0.0480652 0.000725258 2.25051e-23)
(0.0448923 -0.000345758 -3.75969e-23)
(0.0619048 -0.000409614 -1.54015e-22)
(0.0596136 -0.000459049 4.3135e-23)
(0.0495405 -0.00376707 -3.82678e-22)
(0.0380574 -0.00490419 2.43279e-22)
(0.12465 0.00278827 -5.86577e-22)
(0.124415 0.00227193 -5.32774e-22)
(0.134088 -0.0182407 -4.07384e-24)
(0.132378 -0.0166419 1.85667e-22)
(0.0880574 0.0101133 5.94989e-22)
(0.107395 0.00311653 1.68322e-22)
(0.00375961 0.00216324 -4.57765e-22)
(0.0104506 0.00480916 0)
(0.00945112 0.00409957 2.03772e-22)
(0.00346253 0.00190639 3.92975e-22)
(0.000530616 0.000352978 -3.28955e-22)
(0.000348531 0.000245961 -3.0348e-22)
(0.11234 -0.0423774 0)
(0.108148 -0.0249448 8.01211e-23)
(0.124772 -0.0317776 -1.68478e-23)
(0.125761 -0.0427916 0)
(0.0904582 -0.0324375 -6.99284e-22)
(0.0939909 -0.0348493 -4.61601e-22)
(0.00216238 -0.00128357 9.32441e-22)
(0.00285426 -0.00226603 -2.96502e-22)
(0.00550213 -0.00356139 7.38543e-22)
(0.0853937 -0.0454762 0)
(0.091663 -0.0392429 2.38418e-21)
(0.0811409 -0.0528488 6.47126e-22)
(0.118641 0.00982918 1.32916e-22)
(0.117836 0.00343079 -1.52583e-22)
(0.129446 0.00692208 -2.90375e-24)
(0.00479095 -0.00292563 -6.45861e-23)
(0.00648526 -0.00452334 5.9007e-22)
(0.0521456 -0.0316018 1.77525e-22)
(0.0339904 -0.0209658 -2.91322e-22)
(0.00233571 -0.000728594 3.02878e-21)
(0.00559336 -0.00232723 -1.18353e-21)
(0.103209 0.0483705 4.466e-23)
(0.098831 0.0554543 -8.96725e-22)
(0.0821142 0.0544629 8.28633e-22)
(0.0480388 0.0349663 -3.10106e-21)
(0.0452616 0.0320683 2.1978e-21)
(0.0300177 0.0209118 -1.36391e-22)
(0.0332697 0.0235873 -7.27652e-22)
(0.0385802 0.0287387 9.91912e-22)
(0.00667382 0.00479581 -2.19662e-23)
(0.0107005 0.00672973 -8.358e-24)
(0.00461032 0.00342589 1.67484e-23)
(0.00311235 0.00287145 -2.01549e-22)
(0.00263023 0.00276745 2.32145e-22)
(0.0159916 0.0117101 -3.71599e-21)
(0.0177579 0.0138167 8.59215e-22)
(0.00941871 -0.00418841 0)
(0.101389 0.00515983 0)
(0.0984001 0.0156837 -4.30109e-21)
(0.0604418 0.0104755 2.22532e-21)
(0.0886824 0.0178805 0)
(0.134022 -0.0116314 0)
(0.133245 -0.0127173 0)
(0.132578 -0.0133026 -6.99206e-22)
(0.115253 0.0254658 -2.48615e-22)
(0.114398 0.0269393 2.43908e-21)
(0.113526 0.0244132 1.30905e-21)
(0.00297494 0.00187469 8.23136e-22)
(0.00211194 0.00128338 -9.2389e-22)
(0.0212283 -0.00677647 -4.45701e-22)
(0.0229756 -0.00688389 3.57164e-22)
(0.0106116 -0.00389882 6.73442e-22)
(0.00652931 0.0113101 1.56844e-21)
(0.019109 0.0184023 3.68191e-21)
(0.0135897 0.023072 2.75058e-22)
(0.00496653 0.0144809 -9.16951e-21)
(0.119354 0.0473134 7.1365e-23)
(0.109469 0.0580583 1.28112e-21)
(0.120139 0.054374 -2.21173e-21)
(0.0396053 -0.02971 8.34052e-22)
(0.0243181 -0.0174553 -5.54095e-22)
(0.00534312 -0.000657722 -4.35691e-21)
(0.00455651 -0.00352779 0)
(0.01256 -0.00155423 2.13984e-21)
(0.0222208 -0.0162944 8.72038e-22)
(0.0346516 -0.0280328 -2.22409e-21)
(0.0590151 0.000206375 1.12838e-22)
(0.0622526 0.000360764 -7.49298e-23)
(0.0558053 0.000436853 -3.4459e-24)
(0.0283116 -0.0421813 0)
(0.0298573 -0.0429966 0)
(0.0896264 -0.0186503 -5.33663e-22)
(0.0995946 -0.0220864 3.58868e-21)
(0.0870341 -0.0252783 0)
(0.0476518 -0.0404721 0)
(0.0587991 -0.0516151 -8.84134e-22)
(0.0418349 0.0397411 2.26659e-21)
(0.000335257 0.00055949 3.03671e-22)
(6.26923e-05 0.000403329 -1.78914e-22)
(0.0225554 -0.0194097 -8.9117e-22)
(0.108046 -0.0110336 7.62325e-22)
(0.107814 -0.0105201 -1.41802e-22)
(0.120536 -0.00112755 -3.01116e-23)
(0.114102 0.00663856 4.01287e-23)
(0.12274 0.00583581 -2.04936e-23)
(0.0003407 0.000498499 1.31503e-22)
(0.0444316 0.0348326 3.58297e-21)
(0.0628898 0.0467862 -8.88162e-22)
(0.0604759 0.0398869 -3.64658e-24)
(0.0399733 -0.00144566 9.37214e-24)
(0.0394439 -0.00158992 5.21473e-23)
(0.0425638 -0.00170191 2.989e-24)
(0.0471747 -0.00130334 -2.61315e-23)
(0.0460684 0.0385014 1.37294e-22)
(0.0192245 0.0162521 0)
(0.000441948 -0.000250045 1.94448e-22)
(0.000792001 -0.000650424 -2.16133e-22)
(0.00288829 -0.00187058 1.26569e-22)
(0.0388666 -0.00879114 -1.69846e-21)
(0.0682093 -0.00327334 -6.69766e-22)
(0.0539052 -0.000948823 -1.82627e-24)
(0.0771173 -0.00717564 2.51965e-22)
(0.0729309 -0.0157151 -4.51638e-23)
(0.0948851 0.0396647 2.36653e-21)
(0.0920758 0.045278 9.86269e-23)
(0.0891123 0.0289592 1.33234e-21)
(0.0918592 0.0306303 -9.65532e-22)
(0.0993236 0.0407305 0)
(0.123327 -0.00145712 2.0496e-22)
(0.123719 -0.00192443 3.96712e-22)
(0.126937 -0.0100293 -3.94618e-22)
(0.12824 -0.00961096 6.80209e-22)
(0.117216 0.0228393 3.0999e-22)
(0.11929 0.0236236 -8.80379e-22)
(0.117345 0.0248823 0)
(0.11535 0.0237189 1.79729e-22)
(0.117 0.0268631 0)
(0.117801 0.0349776 -6.45522e-22)
(0.116401 0.0371369 -3.48114e-22)
(0.112108 0.0411922 -6.1945e-22)
(0.114468 0.0392023 0)
(0.117312 0.0421204 2.08141e-21)
(0.114616 0.0441824 4.7302e-23)
(0.109141 0.0435361 -3.43692e-22)
(0.100499 0.0499651 -1.44952e-21)
(0.0991426 0.0451658 -2.54447e-22)
(0.0335741 -0.0152231 -6.78834e-23)
(0.0423608 -0.0172587 2.54066e-23)
(0.00764502 -0.00357426 -5.09248e-22)
(0.0532184 0.000169356 -7.68423e-23)
(0.0659393 -0.000197728 0)
(0.000108179 -0.000140358 2.51494e-22)
(0.000109501 -0.000134195 1.27805e-22)
(0.0603828 -0.00239669 3.35801e-23)
(0.0695199 -0.0022863 1.19278e-23)
(0.0688905 -0.00144178 0)
(0.0586663 -0.00084746 1.43399e-23)
(0.107723 0.000598138 -1.65728e-22)
(0.107699 0.000528044 7.94632e-22)
(0.107794 0.000541296 3.86901e-22)
(0.00110451 0.00064922 2.85259e-22)
(-7.81169e-05 -5.43928e-05 -4.40652e-22)
(-0.000138704 -0.000116136 3.47665e-22)
(0.00181175 0.000825911 0)
(0.000144643 0.000143513 1.01588e-21)
(0.000255985 6.53939e-06 -6.91996e-22)
(0.00816542 0.00406341 -8.85343e-22)
(0.00166471 0.000900397 -1.10047e-21)
(0.00193171 0.000971953 0)
(0.00158624 0.00764083 0)
(0.000582731 0.00332281 0)
(0.000316236 0.00200296 0)
(0.134031 -0.0116825 1.33465e-22)
(0.134093 -0.0114214 0)
(0.133225 -0.0128391 -1.53093e-22)
(0.0882653 -0.0146498 4.82207e-21)
(0.0902641 -0.0150465 -1.75114e-21)
(0.0891726 -0.0126899 0)
(0.109277 1.00339e-05 -9.65615e-24)
(0.109315 9.01991e-06 1.93273e-23)
(0.109236 1.17705e-05 -6.53024e-24)
(0.109352 8.24994e-06 0)
(0.109386 8.05227e-06 -1.23332e-23)
(0.109419 7.34704e-06 0)
(0.109418 -2.75836e-05 0)
(0.10945 5.85616e-06 4.57773e-23)
(0.109449 -2.81293e-05 0)
(0.109386 -2.81983e-05 -1.24126e-23)
(0.109352 -2.90559e-05 0)
(0.109315 -2.99909e-05 6.46532e-24)
(0.109276 -3.10856e-05 -9.65413e-24)
(0.109236 -3.21427e-05 6.52207e-24)
(0.109479 4.67022e-06 -4.38051e-23)
(0.109478 -2.80742e-05 -1.53364e-24)
(0.109194 1.3453e-05 8.43638e-28)
(0.109194 -3.27378e-05 -9.9729e-24)
(0.109148 1.5234e-05 5.30401e-23)
(0.109507 4.17284e-06 4.09704e-26)
(0.109506 -2.7159e-05 -1.53541e-24)
(0.109148 -3.3532e-05 1.96549e-23)
(0.109533 3.52776e-06 4.12731e-23)
(0.109558 2.99693e-06 -4.12392e-23)
(0.109533 -2.62903e-05 3.09118e-24)
(0.109558 -2.53545e-05 6.11273e-24)
(0.109101 1.87099e-05 -5.16054e-23)
(0.109101 -3.49205e-05 -1.29366e-23)
(0.109582 2.41943e-06 0)
(0.109582 -2.4512e-05 -6.02922e-24)
(0.109051 2.10047e-05 6.38188e-27)
(0.109052 -3.5784e-05 -6.39788e-27)
(0.109605 1.98511e-06 0)
(0.109605 -2.35847e-05 0)
(0.108999 2.31511e-05 0)
(0.108999 -3.69407e-05 0)
(0.109626 1.56784e-06 0)
(0.109627 -2.26926e-05 2.89954e-24)
(0.108943 2.54928e-05 -2.67838e-23)
(0.108943 -3.79813e-05 -6.53597e-27)
(0.109647 1.18479e-06 1.52028e-25)
(0.109647 -2.17665e-05 -3.09675e-24)
(0.108884 2.78817e-05 2.69118e-23)
(0.108884 -3.91794e-05 0)
(0.109667 7.24121e-07 0)
(0.109667 -2.09336e-05 0)
(0.108822 3.0645e-05 -1.70348e-24)
(0.108821 -4.01957e-05 2.92374e-23)
(0.109685 2.16521e-07 1.88199e-23)
(0.109685 -2.00279e-05 0)
(0.108756 3.3242e-05 -1.47466e-25)
(0.108756 -4.16423e-05 -2.76727e-23)
(0.109703 -4.35257e-07 -2.81547e-23)
(0.109703 -1.93061e-05 -8.17362e-24)
(0.108686 3.47637e-05 2.8227e-23)
(0.108686 -4.31031e-05 0)
(0.10972 -1.16978e-06 9.27667e-24)
(0.10972 -1.85444e-05 5.45157e-24)
(0.108611 3.72063e-05 -1.4292e-23)
(0.108612 -4.53049e-05 2.89863e-23)
(0.109736 -1.91052e-06 -3.70912e-23)
(0.109736 -1.72613e-05 4.18052e-23)
(0.108531 3.74654e-05 1.47498e-23)
(0.108532 -4.76279e-05 4.66933e-25)
(0.109752 -2.67787e-06 0)
(0.109752 -1.64571e-05 1.9942e-23)
(0.108445 3.8389e-05 -2.96868e-23)
(0.108446 -5.10875e-05 5.93961e-23)
(0.109767 -2.87664e-06 0)
(0.109767 -1.64371e-05 0)
(0.108534 0.000121232 -1.45949e-23)
(0.108449 0.000127426 -5.91272e-23)
(0.108353 3.86897e-05 0)
(0.108356 -5.61018e-05 -3.0287e-23)
(0.108689 0.000108605 -9.16518e-24)
(0.108614 0.000115102 1.79918e-24)
(0.108826 9.58686e-05 0)
(0.108759 0.000102351 -2.95597e-23)
(0.108947 8.42085e-05 -5.70187e-26)
(0.108888 8.99065e-05 0)
(0.109055 7.3447e-05 0)
(0.109002 7.87392e-05 0)
(0.109153 6.30027e-05 0)
(0.109105 6.82045e-05 0)
(0.109239 5.49287e-05 1.29008e-23)
(0.109196 5.89885e-05 3.2512e-24)
(0.109317 4.80323e-05 -1.24399e-23)
(0.109279 5.137e-05 -1.28866e-23)
(0.109388 4.20778e-05 2.20944e-23)
(0.109353 4.45246e-05 2.82565e-23)
(0.109452 3.70541e-05 0)
(0.109421 3.96524e-05 0)
(0.109509 3.22799e-05 -9.72092e-26)
(0.109481 3.46075e-05 0)
(0.10956 2.82806e-05 0)
(0.109535 3.02031e-05 0)
(0.109607 2.47819e-05 0)
(0.109584 2.6498e-05 0)
(0.109649 2.15334e-05 0)
(0.109628 2.31215e-05 0)
(0.109687 1.85793e-05 0)
(0.109668 2.00365e-05 0)
(0.109721 1.58474e-05 0)
(0.109704 1.71986e-05 0)
(0.109753 1.24651e-05 -1.51759e-23)
(0.109737 1.45174e-05 0)
(0.109768 1.08255e-05 -4.90938e-24)
(0.109782 -3.45954e-06 4.79e-24)
(0.109782 -1.61894e-05 -4.75014e-24)
(0.109737 -3.29111e-05 0)
(0.109768 -3.0165e-05 -1.94872e-23)
(0.109752 -3.123e-05 -1.00218e-23)
(0.109704 -3.66863e-05 2.73892e-24)
(0.109721 -3.4689e-05 -1.07317e-23)
(0.109668 -4.02751e-05 8.86699e-26)
(0.109686 -3.86069e-05 0)
(0.109627 -4.37017e-05 0)
(0.109648 -4.19487e-05 0)
(0.109583 -4.75057e-05 0)
(0.109606 -4.55281e-05 0)
(0.109534 -5.18106e-05 0)
(0.109559 -4.96145e-05 1.16492e-29)
(0.10948 -5.65027e-05 9.82117e-26)
(0.109508 -5.4112e-05 0)
(0.10942 -6.17307e-05 0)
(0.10945 -5.92068e-05 0)
(0.109353 -6.63389e-05 0)
(0.109387 -6.41156e-05 0)
(0.109279 -7.16795e-05 0)
(0.109317 -6.86903e-05 -6.53425e-24)
(0.109196 -7.82303e-05 1.71551e-24)
(0.109239 -7.54507e-05 -8.42733e-24)
(0.109105 -8.60891e-05 0)
(0.109152 -8.15906e-05 -6.85712e-24)
(0.109002 -9.41452e-05 0)
(0.109055 -9.00537e-05 0)
(0.108887 -0.0001032 0)
(0.108946 -9.85122e-05 0)
(0.108759 -0.000113642 0)
(0.108825 -0.000108293 0)
(0.108615 -0.000125248 -7.48557e-24)
(0.108689 -0.000119013 0)
(0.108453 -0.000139648 -3.03942e-23)
(0.108536 -0.000131676 -7.53471e-24)
(0.108363 -0.000148877 3.09627e-23)
(0.108357 0.00013415 5.86332e-23)
(0.109783 9.5418e-06 9.61053e-24)
(0.109782 -2.93578e-05 -1.87892e-23)
(0.108257 -6.25168e-05 0)
(0.108266 -0.000160259 0)
(0.10826 0.000141193 0)
(0.108254 3.80606e-05 0)
(0.108543 0.000203642 0)
(0.108369 0.000228364 1.46991e-23)
(0.108459 0.000215447 1.48262e-23)
(0.108697 0.000180663 1.8832e-23)
(0.108623 0.000191964 -3.76378e-24)
(0.108833 0.000159666 5.81996e-26)
(0.108767 0.000169691 0)
(0.108953 0.00014126 0)
(0.108895 0.000150233 0)
(0.109061 0.00012469 0)
(0.109009 0.000132751 0)
(0.109158 0.000110138 0)
(0.109111 0.000117094 0)
(0.109244 9.66609e-05 0)
(0.109202 0.000103226 0)
(0.109322 8.54349e-05 -5.21725e-26)
(0.109284 9.11273e-05 1.34531e-23)
(0.109392 7.56879e-05 -5.01227e-26)
(0.109358 8.01026e-05 -2.62802e-23)
(0.109455 6.69266e-05 0)
(0.109424 7.11067e-05 0)
(0.109512 5.93631e-05 4.85599e-26)
(0.109485 6.30209e-05 0)
(0.109563 5.27895e-05 0)
(0.109538 5.59598e-05 0)
(0.10961 4.69676e-05 0)
(0.109587 4.97908e-05 0)
(0.109651 4.17163e-05 0)
(0.109631 4.4263e-05 0)
(0.109689 3.68995e-05 0)
(0.109671 3.92467e-05 0)
(0.109723 3.22807e-05 0)
(0.109707 3.45674e-05 0)
(0.109755 2.7164e-05 1.03647e-23)
(0.109739 2.97963e-05 0)
(0.109796 -4.32157e-06 0)
(0.109796 8.4801e-06 9.41132e-24)
(0.109784 2.22368e-05 0)
(0.10977 2.45315e-05 1.01076e-23)
(0.109768 -4.43573e-05 2.01152e-23)
(0.109783 -4.27716e-05 4.94757e-24)
(0.109795 -2.84717e-05 3.85841e-23)
(0.109795 -1.58423e-05 0)
(0.109738 -4.91174e-05 0)
(0.109754 -4.64767e-05 -3.03614e-23)
(0.109706 -5.4239e-05 8.63062e-26)
(0.109722 -5.16017e-05 1.0797e-23)
(0.109669 -5.91762e-05 -8.86695e-26)
(0.109688 -5.66664e-05 0)
(0.109629 -6.45692e-05 0)
(0.10965 -6.18027e-05 0)
(0.109585 -7.05953e-05 0)
(0.109608 -6.7489e-05 0)
(0.109537 -7.73438e-05 0)
(0.109562 -7.38852e-05 -1.16492e-29)
(0.109483 -8.47549e-05 -1.96393e-25)
(0.10951 -8.09732e-05 0)
(0.109423 -9.31181e-05 0)
(0.109454 -8.87679e-05 0)
(0.109357 -0.000101996 3.29972e-24)
(0.109391 -9.74567e-05 0)
(0.109283 -0.000111503 0)
(0.109321 -0.000106476 -3.28595e-24)
(0.109201 -0.000122434 6.8744e-24)
(0.109243 -0.000116904 6.82917e-24)
(0.10911 -0.000134536 0)
(0.109157 -0.000128395 0)
(0.109008 -0.000148084 0)
(0.10906 -0.000141101 0)
(0.108894 -0.00016349 0)
(0.108952 -0.000155533 0)
(0.108766 -0.00018106 0)
(0.108832 -0.000172012 0)
(0.108623 -0.000200974 1.20067e-25)
(0.108697 -0.0001907 0)
(0.108463 -0.000224068 -1.21928e-25)
(0.108546 -0.000212051 0)
(0.108281 -0.000253743 -3.1915e-23)
(0.108375 -0.000238208 3.19003e-23)
(0.108273 0.000242057 2.99116e-23)
(0.108164 -0.000173628 0)
(0.10818 -0.000272238 -6.50432e-23)
(0.108154 -6.94897e-05 0)
(0.109797 2.07233e-05 0)
(0.109797 -4.09435e-05 -4.80413e-24)
(0.108156 0.00014853 7.58561e-23)
(0.108172 0.000256832 3.03415e-23)
(0.108055 -0.00018794 1.64305e-23)
(0.108072 -0.000292399 8.21978e-23)
(0.10815 3.78076e-05 0)
(0.109786 3.62515e-05 3.95897e-23)
(0.109799 3.33563e-05 -1.95633e-23)
(0.109809 -2.78847e-05 -9.5152e-24)
(0.10981 -3.9208e-05 4.73291e-23)
(0.108196 0.000363026 1.06296e-22)
(0.108062 0.000273159 -5.97535e-23)
(0.107972 0.000414071 -2.70621e-22)
(0.108088 0.00038661 -6.06964e-23)
(0.108388 0.000321344 2.96145e-23)
(0.108295 0.000341555 -9.04764e-23)
(0.108558 0.000284409 -3.02564e-23)
(0.108476 0.000302412 -2.28306e-23)
(0.10871 0.000251818 -7.53418e-24)
(0.108636 0.000267751 -7.54955e-24)
(0.108844 0.000223176 -5.81996e-26)
(0.108779 0.000236954 0)
(0.108963 0.000197959 0)
(0.108905 0.000210208 0)
(0.10907 0.000175503 0)
(0.109018 0.000186404 0)
(0.109166 0.000155602 0)
(0.109119 0.000165238 0)
(0.109251 0.00013789 0)
(0.10921 0.00014641 0)
(0.109329 0.000122229 0)
(0.109291 0.000129756 0)
(0.109398 0.00010852 7.08322e-30)
(0.109364 0.000115276 0)
(0.109461 9.66594e-05 0)
(0.10943 0.000102322 0)
(0.109517 8.62327e-05 4.85528e-26)
(0.109489 9.12911e-05 0)
(0.109568 7.70303e-05 0)
(0.109543 8.14865e-05 0)
(0.109613 6.88572e-05 0)
(0.109591 7.2827e-05 0)
(0.109655 6.15115e-05 0)
(0.109635 6.50887e-05 0)
(0.109692 5.48131e-05 0)
(0.109674 5.80885e-05 0)
(0.109726 4.85357e-05 0)
(0.10971 5.16391e-05 0)
(0.109757 4.22322e-05 5.28322e-24)
(0.109742 4.53627e-05 -2.65778e-24)
(0.109772 3.91755e-05 -2.01869e-23)
(0.109809 -4.61003e-06 -4.50547e-24)
(0.109811 1.92406e-05 1.88552e-23)
(0.109809 7.12583e-06 -1.43983e-23)
(0.109809 -1.55809e-05 0)
(0.10977 -5.90154e-05 -1.49938e-23)
(0.109798 -5.33867e-05 -4.33307e-23)
(0.109784 -5.59799e-05 3.48611e-23)
(0.109741 -6.54111e-05 0)
(0.109756 -6.22209e-05 0)
(0.109708 -7.13771e-05 -5.38864e-32)
(0.109725 -6.82243e-05 0)
(0.109672 -7.79871e-05 0)
(0.10969 -7.45952e-05 0)
(0.109633 -8.53531e-05 -9.10419e-26)
(0.109653 -8.15696e-05 0)
(0.109589 -9.35856e-05 0)
(0.109611 -8.93544e-05 0)
(0.109541 -0.000102764 0)
(0.109565 -9.80557e-05 0)
(0.109487 -0.000112917 9.81952e-26)
(0.109515 -0.000107719 0)
(0.109428 -0.000124183 1.00588e-25)
(0.109458 -0.000118385 0)
(0.109363 -0.000136545 0)
(0.109396 -0.000130206 0)
(0.10929 -0.000150273 0)
(0.109327 -0.000143271 0)
(0.109209 -0.000165482 0)
(0.10925 -0.000157573 0)
(0.109118 -0.000182449 0)
(0.109165 -0.000173739 0)
(0.109017 -0.000201613 -1.1268e-25)
(0.109069 -0.000191734 0)
(0.108904 -0.000223342 0)
(0.108962 -0.000212134 0)
(0.108778 -0.000248022 0)
(0.108843 -0.000235297 0)
(0.108636 -0.00027602 -1.03967e-29)
(0.108709 -0.000261585 0)
(0.108478 -0.000307908 1.52031e-29)
(0.108559 -0.000291444 0)
(0.108299 -0.000345805 1.26445e-25)
(0.108391 -0.000325698 0)
(0.108095 -0.000393579 -6.66443e-23)
(0.108201 -0.000368241 1.63726e-23)
(0.107958 -0.000313438 1.6772e-23)
(0.107985 -0.0004212 3.32785e-23)
(0.108046 0.000156061 -2.96544e-23)
(0.108043 -7.76769e-05 -3.18485e-23)
(0.109812 3.10923e-05 4.7981e-24)
(0.109811 -5.12647e-05 3.40618e-23)
(0.107943 0.000288319 3.64217e-24)
(0.107938 -0.000203787 0)
(0.107829 0.00042787 4.13274e-22)
(0.107867 -0.000450434 5.14045e-23)
(0.107839 -0.000336416 6.8549e-23)
(0.10785 0.000594538 -6.96671e-22)
(0.10775 0.000646649 1.2396e-22)
(0.10804 3.78282e-05 0)
(0.108026 0.000526929 6.84409e-23)
(0.107932 0.000565337 3.56383e-23)
(0.108228 0.000464807 6.16657e-23)
(0.108127 0.000494122 -9.41321e-23)
(0.108414 0.000410628 -3.06889e-23)
(0.108324 0.000437196 -1.53372e-23)
(0.10858 0.000363158 1.53772e-23)
(0.108499 0.000385923 1.55828e-23)
(0.108727 0.000321828 0)
(0.108655 0.000341806 -3.7987e-26)
(0.108859 0.000285775 0)
(0.108795 0.000303238 0)
(0.108976 0.000253894 5.69658e-26)
(0.108919 0.000269356 0)
(0.109082 0.000225611 0)
(0.10903 0.000239335 0)
(0.109176 0.000200511 0)
(0.10913 0.000212683 0)
(0.109261 0.000178269 0)
(0.10922 0.000189038 0)
(0.109337 0.000158591 5.2134e-26)
(0.1093 0.000168093 0)
(0.109406 0.000141249 5.63693e-30)
(0.109372 0.000149696 0)
(0.109467 0.000126097 0)
(0.109437 0.0001334 0)
(0.109523 0.00011274 -9.71009e-26)
(0.109496 0.000119218 0)
(0.109573 0.000100927 0)
(0.109549 0.000106654 0)
(0.109618 9.04259e-05 0)
(0.109596 9.55287e-05 0)
(0.109659 8.10033e-05 0)
(0.109639 8.55927e-05 0)
(0.109696 7.24659e-05 0)
(0.109678 7.66352e-05 0)
(0.10973 6.46081e-05 0)
(0.109714 6.84707e-05 0)
(0.109761 5.71654e-05 -2.63985e-24)
(0.109746 6.07466e-05 0)
(0.109788 5.02624e-05 0)
(0.109775 5.3701e-05 -5.12652e-24)
(0.109814 4.31836e-05 2.35272e-27)
(0.109802 4.66545e-05 0)
(0.109823 1.76967e-05 -1.91171e-23)
(0.109826 4.02901e-05 1.15563e-24)
(0.109824 2.93137e-05 9.37286e-24)
(0.109821 -4.64361e-06 6.87749e-24)
(0.109822 6.27111e-06 -4.74722e-24)
(0.109821 -2.74574e-05 -2.38952e-24)
(0.109821 -1.57241e-05 2.38569e-24)
(0.109823 -4.98377e-05 0)
(0.109822 -3.81421e-05 -2.16808e-23)
(0.1098 -6.68479e-05 -9.74439e-24)
(0.109824 -6.1891e-05 -1.86519e-23)
(0.109812 -6.41011e-05 4.29216e-23)
(0.109773 -7.34478e-05 -5.10429e-24)
(0.109787 -6.99612e-05 0)
(0.109744 -8.09346e-05 0)
(0.109759 -7.71832e-05 0)
(0.109711 -8.8334e-05 -1.22947e-30)
(0.109728 -8.45831e-05 0)
(0.109676 -9.66292e-05 0)
(0.109694 -9.23616e-05 0)
(0.109637 -0.000105919 9.10419e-26)
(0.109657 -0.000101145 0)
(0.109594 -0.000116307 0)
(0.109616 -0.00011097 0)
(0.109546 -0.000127887 0)
(0.10957 -0.000121944 0)
(0.109493 -0.000140744 0)
(0.10952 -0.000134151 0)
(0.109435 -0.000155012 -4.42905e-30)
(0.109465 -0.000147693 0)
(0.10937 -0.00017079 0)
(0.109403 -0.000162698 0)
(0.109298 -0.000188344 0)
(0.109335 -0.000179347 0)
(0.109218 -0.000207909 0)
(0.109259 -0.000197822 0)
(0.109129 -0.000229839 0)
(0.109175 -0.000218557 0)
(0.109029 -0.000254569 1.1268e-25)
(0.10908 -0.00024183 0)
(0.108917 -0.000282555 0)
(0.108975 -0.000268127 0)
(0.108793 -0.000314291 0)
(0.108857 -0.000297927 0)
(0.108653 -0.000350296 -1.20045e-25)
(0.108725 -0.000331727 0)
(0.108497 -0.000391169 1.22524e-25)
(0.108577 -0.00037009 0)
(0.108322 -0.000437841 -1.25016e-25)
(0.108412 -0.000413689 0)
(0.108124 -0.000493249 1.64767e-23)
(0.108226 -0.000463886 -3.24791e-23)
(0.107902 -0.000561042 -1.665e-23)
(0.108016 -0.000525498 3.37935e-23)
(0.107742 -0.00048155 6.69152e-25)
(0.10778 -0.000598853 3.42883e-23)
(0.107929 0.000162648 -3.05247e-23)
(0.107927 -8.50455e-05 0)
(0.10782 0.000301692 -2.96213e-22)
(0.107816 -0.000216975 0)
(0.109817 5.66211e-05 -4.80624e-24)
(0.109829 5.32866e-05 3.52093e-24)
(0.109835 -4.82506e-05 -1.83699e-23)
(0.109836 -5.96724e-05 -2.08212e-23)
(0.107695 0.000430024 -2.90829e-22)
(0.107711 -0.000360728 -6.92197e-23)
(0.107646 0.000653952 0)
(0.107886 0.000712029 -8.05894e-23)
(0.107609 -0.000515028 -3.3987e-23)
(0.10765 -0.000639457 5.21289e-23)
(0.10777 0.000747554 1.61643e-22)
(0.107924 3.77188e-05 0)
(0.108076 0.000633084 0)
(0.107981 0.000673559 -7.16516e-23)
(0.108267 0.000561143 0)
(0.108172 0.000596179 0)
(0.108446 0.000496074 0)
(0.108358 0.000527537 1.58896e-23)
(0.108605 0.000439777 0)
(0.108528 0.000466959 0)
(0.108749 0.000390512 0)
(0.108679 0.000414312 0)
(0.108878 0.0003472 0)
(0.108815 0.000368193 0)
(0.108993 0.000308892 -5.69658e-26)
(0.108937 0.000327465 0)
(0.109096 0.000274932 0)
(0.109046 0.000291408 0)
(0.109189 0.000244791 0)
(0.109144 0.000259413 0)
(0.109272 0.000218053 0)
(0.109232 0.000231018 0)
(0.109347 0.00019439 -6.75294e-30)
(0.109311 0.000205853 0)
(0.109415 0.000173504 6.21236e-30)
(0.109382 0.000183631 0)
(0.109476 0.000155118 0)
(0.109446 0.000164014 0)
(0.109531 0.000138885 5.43212e-30)
(0.109504 0.000146756 0)
(0.10958 0.000124506 0)
(0.109556 0.000131481 0)
(0.109625 0.00011171 0)
(0.109603 0.000117928 0)
(0.109665 0.000100245 0)
(0.109645 0.000105826 0)
(0.109701 8.9899e-05 0)
(0.109684 9.49441e-05 0)
(0.109734 8.05061e-05 0)
(0.109718 8.50917e-05 0)
(0.109764 7.20206e-05 0)
(0.10975 7.61784e-05 0)
(0.109792 6.36363e-05 5.09251e-24)
(0.109778 6.76685e-05 5.20436e-24)
(0.109805 5.99118e-05 -9.78151e-24)
(0.109835 1.63756e-05 -9.38939e-24)
(0.109838 3.82307e-05 0)
(0.109836 2.76223e-05 -9.48224e-24)
(0.109833 -4.8808e-06 0)
(0.109834 5.85448e-06 9.58248e-24)
(0.109833 -2.7139e-05 1.43019e-23)
(0.109833 -1.60445e-05 -4.83338e-24)
(0.109834 -3.73751e-05 -2.81045e-23)
(0.109802 -8.02877e-05 4.91545e-24)
(0.109827 -7.30984e-05 1.83304e-23)
(0.109815 -7.71799e-05 0)
(0.109776 -8.79293e-05 -1.01707e-23)
(0.109789 -8.39283e-05 1.02042e-23)
(0.109747 -9.61542e-05 0)
(0.109762 -9.20963e-05 0)
(0.109715 -0.000105039 -2.01261e-30)
(0.109732 -0.000100485 0)
(0.10968 -0.000115017 0)
(0.109698 -0.000109884 0)
(0.109642 -0.000126198 0)
(0.109662 -0.000120452 0)
(0.1096 -0.000138701 0)
(0.109621 -0.000132278 0)
(0.109553 -0.000152645 0)
(0.109577 -0.000145487 0)
(0.109501 -0.000168156 9.81837e-26)
(0.109527 -0.000160197 0)
(0.109443 -0.000185404 -1.00584e-25)
(0.109473 -0.000176554 0)
(0.10938 -0.000204561 0)
(0.109412 -0.00019473 0)
(0.109309 -0.000225903 0)
(0.109345 -0.000214945 0)
(0.10923 -0.000249765 0)
(0.10927 -0.00023749 0)
(0.109142 -0.00027655 0)
(0.109187 -0.000262767 0)
(0.109044 -0.000306735 0)
(0.109094 -0.000291188 0)
(0.108934 -0.000340856 0)
(0.108991 -0.000323271 0)
(0.108812 -0.000379499 -1.17554e-25)
(0.108875 -0.000359578 0)
(0.108675 -0.00042331 1.20017e-25)
(0.108745 -0.000400717 0)
(0.108522 -0.000473052 -1.22492e-25)
(0.1086 -0.000447394 0)
(0.10835 -0.000529641 0)
(0.108438 -0.000500424 0)
(0.108157 -0.000594288 0)
(0.108256 -0.000560848 0)
(0.107941 -0.000669964 1.31614e-25)
(0.108052 -0.000630195 1.66454e-23)
(0.107697 -0.000761121 -8.73419e-23)
(0.107823 -0.000713551 0)
(0.107512 -0.000684891 -5.16727e-23)
(0.107563 -0.000813006 -6.7594e-25)
(0.107807 0.000169216 9.55213e-23)
(0.107804 -9.18316e-05 0)
(0.10984 4.96964e-05 -1.83033e-23)
(0.109838 -7.01898e-05 -3.52947e-23)
(0.107682 0.000305995 -5.09066e-23)
(0.107584 0.000568123 6.91833e-25)
(0.107554 0.000436946 1.48324e-22)
(0.107688 -0.000230568 0)
(0.107576 -0.000383636 1.74243e-23)
(0.107635 0.000781096 -1.48147e-22)
(0.107506 0.000793703 1.28445e-22)
(0.107469 0.000628071 -1.27233e-22)
(0.107468 -0.000549584 -5.23948e-23)
(0.107366 -0.000731822 3.51181e-23)
(0.107421 -0.000870989 3.44002e-23)
(0.107801 3.72531e-05 0)
(0.107922 0.000825303 4.49897e-24)
(0.107669 0.000925465 -7.33606e-25)
(0.107799 0.000873289 3.4873e-23)
(0.108123 0.000735018 3.44458e-23)
(0.108026 0.000779052 -3.46248e-23)
(0.108309 0.000652422 6.30927e-26)
(0.108217 0.000692889 0)
(0.108481 0.00057891 0)
(0.108397 0.000614445 0)
(0.108635 0.000514321 0)
(0.10856 0.000545596 0)
(0.108775 0.000457422 0)
(0.108707 0.000484965 0)
(0.1089 0.000407198 5.81632e-26)
(0.108839 0.000431544 0)
(0.109012 0.000362737 0)
(0.108958 0.000384299 0)
(0.109113 0.000323293 0)
(0.109064 0.000342432 0)
(0.109204 0.00028826 0)
(0.10916 0.00030526 0)
(0.109286 0.000257151 0)
(0.109246 0.000272242 0)
(0.10936 0.000229577 -5.21272e-26)
(0.109324 0.000242945 0)
(0.109426 0.000205189 7.08989e-30)
(0.109394 0.000217011 0)
(0.109486 0.000183649 0)
(0.109457 0.000194084 0)
(0.109539 0.000164597 9.70793e-26)
(0.109513 0.000173837 0)
(0.109588 0.000147696 0)
(0.109564 0.000155898 0)
(0.109632 0.000132644 0)
(0.10961 0.000139958 0)
(0.109671 0.000119168 0)
(0.109652 0.000125726 0)
(0.109707 0.000107041 0)
(0.10969 0.00011295 0)
(0.109739 9.60886e-05 0)
(0.109724 0.000101427 0)
(0.109769 8.62282e-05 8.28789e-26)
(0.109755 9.10356e-05 0)
(0.109796 7.70573e-05 -5.11476e-24)
(0.109783 8.16641e-05 0)
(0.10982 6.80922e-05 4.87048e-24)
(0.109808 7.24943e-05 0)
(0.109843 6.02491e-05 4.65908e-24)
(0.109832 6.40874e-05 -4.75815e-24)
(0.109849 3.62271e-05 9.20779e-24)
(0.109854 5.63649e-05 0)
(0.109851 4.70245e-05 1.37048e-23)
(0.109846 1.56405e-05 0)
(0.109847 2.57537e-05 0)
(0.109844 -5.31605e-06 0)
(0.109845 5.398e-06 0)
(0.109844 -2.69511e-05 0)
(0.109844 -1.61467e-05 0)
(0.109846 -4.71157e-05 1.87219e-23)
(0.109845 -3.68956e-05 4.65502e-24)
(0.109849 -6.77402e-05 4.60853e-24)
(0.109847 -5.74767e-05 3.6714e-23)
(0.109829 -8.4845e-05 2.3896e-23)
(0.109851 -7.83201e-05 4.59138e-24)
(0.10984 -8.13318e-05 -9.31741e-24)
(0.109806 -9.30009e-05 4.9106e-24)
(0.109818 -8.87382e-05 -2.94351e-23)
(0.10978 -0.000101953 2.71237e-30)
(0.109793 -9.74007e-05 0)
(0.109752 -0.000111102 0)
(0.109766 -0.000106392 0)
(0.10972 -0.00012146 -2.80882e-30)
(0.109736 -0.000116133 0)
(0.109686 -0.000133096 0)
(0.109704 -0.000127112 0)
(0.109648 -0.000146135 0)
(0.109668 -0.000139434 0)
(0.109607 -0.000160713 0)
(0.109628 -0.000153224 0)
(0.109561 -0.000176978 0)
(0.109584 -0.000168627 0)
(0.10951 -0.000195094 -1.96361e-25)
(0.109536 -0.000185795 0)
(0.109453 -0.000215269 0)
(0.109482 -0.000204913 0)
(0.109391 -0.000237737 0)
(0.109423 -0.0002262 0)
(0.109321 -0.000262812 0)
(0.109357 -0.00024993 0)
(0.109244 -0.000290884 0)
(0.109284 -0.000276447 0)
(0.109158 -0.000322412 -1.10214e-25)
(0.109202 -0.000306188 0)
(0.109062 -0.000357928 0)
(0.109111 -0.000339639 0)
(0.108954 -0.000398038 0)
(0.109009 -0.000377372 0)
(0.108835 -0.000443409 1.17554e-25)
(0.108896 -0.000420025 0)
(0.108701 -0.0004948 -1.92436e-29)
(0.108769 -0.000468304 0)
(0.108551 -0.000553105 2.44962e-25)
(0.108628 -0.000523031 0)
(0.108383 -0.000619386 0)
(0.108469 -0.00058518 0)
(0.108196 -0.00069487 0)
(0.108292 -0.000655886 0)
(0.107985 -0.000781029 -3.7329e-29)
(0.108094 -0.000736522 0)
(0.10775 -0.000880373 0)
(0.107871 -0.000828856 0)
(0.107483 -0.00100127 -5.22808e-23)
(0.107621 -0.000937599 0)
(0.10727 -0.00093184 -6.73573e-25)
(0.107337 -0.00107176 8.91174e-23)
(0.107673 0.000173603 0)
(0.10754 0.000962993 2.021e-22)
(0.10754 0.000311169 3.48776e-23)
(0.109846 7.06811e-05 -4.65032e-24)
(0.109857 6.69068e-05 0)
(0.10986 -6.57092e-05 4.49481e-24)
(0.109862 -7.54463e-05 -8.90862e-24)
(0.107675 -9.80311e-05 0)
(0.107552 -0.000245108 0)
(0.10742 0.00047265 0)
(0.107433 -0.000407668 -1.71614e-23)
(0.107318 -0.000587213 -3.47515e-23)
(0.10721 -0.000784064 0)
(0.107109 -0.000997452 8.99789e-23)
(0.107182 -0.0011459 -7.18739e-23)
(0.10767 3.72939e-05 0)
(0.10772 0.00105598 -1.67844e-26)
(0.107397 0.00100416 6.41648e-23)
(0.107453 0.00116982 -2.29559e-22)
(0.10759 0.00111284 6.66001e-23)
(0.107965 0.000935995 -2.17186e-23)
(0.107845 0.000993389 -3.45762e-23)
(0.10817 0.00083321 0)
(0.108072 0.000882982 0)
(0.108353 0.000740964 -6.30869e-26)
(0.108263 0.000785911 0)
(0.108519 0.000659008 0)
(0.108438 0.000698726 0)
(0.108669 0.000586485 0)
(0.108596 0.000621639 0)
(0.108804 0.000522356 0)
(0.108738 0.000553437 0)
(0.108925 0.000465592 -5.81632e-26)
(0.108866 0.00049312 0)
(0.109035 0.000415249 0)
(0.108981 0.000439674 0)
(0.109133 0.000370529 0)
(0.109085 0.000392233 0)
(0.109222 0.000330769 0)
(0.109179 0.000350068 0)