/*--------------------------------*- C++ -*----------------------------------*\
  =========                 |
  \\      /  F ield         | OpenFOAM: The Open Source CFD Toolbox
   \\    /   O peration     | Website:  https://openfoam.org
    \\  /    A nd           | Version:  10
     \\/     M anipulation  |
\*---------------------------------------------------------------------------*/
FoamFile
{
    format      ascii;
    class       surfaceScalarField;
    location    "15.5";
    object      phi;
}
// * * * * * * * * * * * * * * * * * * * * * * * * * * * * * * * * * * * * * //

dimensions      [0 3 -1 0 0 0 0];

internalField   nonuniform List<scalar> 
12623
(
0.388559
0.0870024
-0.144009
-0.331553
0.299998
-0.123793
0.212355
0.284194
-0.0735686
-0.264046
0.0534204
-0.0971823
0.29422
0.0871565
-0.266772
0.108112
-0.11081
0.26947
-0.260682
-0.103272
-0.0101565
0.178346
-0.19956
0.0313705
-0.231583
0.221426
-0.273627
0.00155852
0.272069
-0.176144
-0.064764
-0.0327194
0.408302
-0.16883
-0.239471
-0.274866
0.226106
0.457062
-0.203548
-0.146219
0.149714
0.200053
0.018799
0.0340304
-0.256378
-0.192317
0.0648965
-0.002035
-0.0693753
-0.00597271
0.077383
-0.0125071
-0.00881867
0.0192908
-0.120591
0.0387084
-0.0103166
-0.0520125
0.0128188
0.0495103
-0.0995494
0.0150165
0.0742163
-0.0850898
-0.0664721
0.0308214
0.0933949
-0.101765
-0.0224514
-0.0167943
0.0317427
0.015873
-0.202776
0.279376
-0.272634
0.0260213
0.280643
0.0409674
-0.304112
-0.00948938
-0.310329
0.024589
0.311761
-0.258133
-0.133408
0.140569
0.250972
-0.263314
0.164578
-0.159397
-0.247944
0.232527
0.1046
-0.0891833
-0.249098
-0.132254
-0.321471
0.12264
-0.121277
0.320109
-0.108458
-0.304528
0.0915146
0.293874
-0.377828
0.113255
-0.121481
0.386054
-0.117703
-0.351461
0.0913362
-0.346523
-0.120445
0.349264
-0.326566
0.102683
0.401709
-0.109473
-0.404289
0.112054
-0.0903613
0.123078
0.368992
-0.397093
-0.117828
0.405448
-0.376384
0.0925467
-0.0589467
0.0687996
0.222674
-0.230291
0.0800355
-0.0755517
0.225807
-0.049484
-0.226563
0.0457561
-0.0772751
-0.256976
-0.242687
-0.0989341
0.238349
-0.239926
-0.0164337
-0.351848
-0.0022783
0.37056
0.264189
0.0591928
-0.339816
-0.248832
0.0747677
0.438253
-0.118423
0.382942
-0.308523
0.0440037
-0.308062
0.300552
0.0628944
-0.07098
-0.292466
0.0703412
0.277697
-0.0474863
-0.0286167
0.0175648
0.314069
-0.303017
-0.325122
0.322285
-0.0257796
0.306016
-0.0326564
0.0383567
-0.311716
0.229377
-0.213132
0.141578
-0.157824
0.169332
0.241175
-0.18113
-0.198619
0.103971
-0.118484
-0.182786
0.0549965
-0.0708296
-0.174331
-0.00100634
-0.00744886
-0.175073
-0.0596376
0.0603797
-0.179933
-0.114217
0.119077
-0.193523
-0.158903
0.172492
-0.203629
-0.192095
0.202201
-0.213441
-0.21403
0.223842
0.246863
-0.229461
0.151929
0.18676
0.254684
-0.200269
0.260231
0.173393
-0.213842
0.125959
-0.195839
0.0859684
-0.182791
0.0419488
-0.177077
-0.00672081
-0.177715
-0.0589994
-0.186483
-0.105449
-0.196459
-0.148927
-0.211603
-0.17695
-0.221634
-0.203411
-0.190838
0.26705
0.184019
0.260377
-0.196531
-0.226684
-0.223733
0.236387
-0.238471
-0.209847
-0.19149
0.270036
0.188504
0.268836
-0.19995
-0.230464
-0.231767
0.238499
-0.244549
-0.224387
-0.183689
0.272718
0.181007
-0.178167
-0.230465
-0.231419
0.230117
-0.252938
-0.222076
0.271351
0.165945
0.14828
0.26364
-0.224639
0.220486
-0.227266
-0.221719
-0.255857
0.272214
-0.279121
0.187913
-0.254068
0.258725
0.143623
0.184092
0.274654
-0.263006
0.172371
0.184037
0.247216
-0.23022
0.134933
0.157603
0.214679
-0.19972
0.0710098
0.110418
0.191037
-0.186965
-0.010792
0.0332652
0.19176
-0.198566
-0.098642
-0.0542053
0.214529
-0.227267
-0.164212
-0.132965
0.245791
-0.25707
-0.198567
-0.184887
0.272659
-0.278114
-0.216621
-0.208798
-0.284555
-0.215278
-0.223874
0.227614
0.234758
0.226408
0.214825
-0.220746
0.23265
-0.218237
0.212994
0.229086
0.245764
-0.198154
0.191699
0.178948
0.21704
-0.184641
0.185129
0.0598923
0.126135
-0.19625
0.203441
-0.0780207
-0.0185697
-0.22794
0.232968
-0.162852
-0.142983
-0.251768
0.244775
-0.193277
-0.199929
-0.255477
0.248602
-0.193075
-0.207233
-0.257254
-0.151241
-0.186819
-0.113035
0.117005
0.25967
0.242538
0.131729
0.244001
0.199972
-0.286876
-0.197651
0.196098
-0.251983
-0.223231
0.235637
0.202418
0.187713
-0.195025
-0.213434
-0.211139
0.175621
-0.153511
0.152958
-0.286324
-0.324199
0.314063
-0.187515
-0.145363
-0.332347
0.231361
-0.232859
-0.087685
0.275409
-0.287253
0.155467
0.27875
0.128387
0.218845
-0.0464304
-0.226193
0.279801
-0.275555
0.183668
0.176639
0.268359
-0.258363
0.162375
0.176841
0.247447
-0.230727
0.118214
0.146687
0.215165
-0.205695
0.0615396
0.0948556
0.199665
-0.198928
-0.011529
0.0272354
0.202601
-0.212244
-0.0889992
-0.0505329
0.225116
-0.242176
-0.147151
-0.120093
0.259614
-0.276321
-0.18186
-0.167449
0.29226
-0.305407
-0.203474
-0.19286
-0.206622
-0.247114
0.247639
0.234234
0.221173
-0.249321
0.238431
0.239976
0.244082
-0.23008
0.215083
0.193945
0.225392
-0.210707
0.207496
0.0631034
0.130511
-0.204876
0.218539
-0.0916841
-0.0159498
-0.217723
0.24216
-0.187289
-0.142167
-0.23545
0.250231
-0.208058
-0.193219
-0.241188
0.238012
-0.189899
-0.19819
-0.231336
0.243383
-0.163287
-0.180143
-0.12173
-0.0782718
0.109077
0.228864
0.233066
-0.101823
0.277196
0.103377
0.251255
-0.143683
0.129152
-0.196608
-0.14904
-0.208077
0.151137
-0.250162
-0.365731
0.347264
-0.169048
-0.377409
-0.133685
0.0779816
-0.0712692
-0.339059
0.0811165
-0.289459
-0.200919
0.215867
0.114205
0.0698091
-0.0718106
-0.194607
-0.193229
0.0621195
-0.0137409
0.0331892
0.203226
0.20788
-0.0027764
0.0374559
-0.0433204
0.283061
0.30782
-0.303126
0.0986823
0.317871
0.0274055
-0.229095
-0.0375477
0.220213
-0.225091
-0.0916897
-0.224095
0.299555
-0.297082
0.152994
0.124816
0.294612
-0.2874
0.176457
0.174169
0.281755
-0.271499
0.152119
0.171195
0.253669
-0.245016
0.109561
0.128856
0.230382
-0.222532
0.0536895
0.0802219
0.215749
-0.213808
-0.0134698
0.0204522
0.217286
-0.224945
-0.0813397
-0.0470549
0.239072
-0.253251
-0.132973
-0.105966
0.274285
-0.290826
-0.165318
-0.146416
0.311892
-0.326498
-0.188868
-0.171794
-0.185857
-0.235733
0.249854
0.188297
0.155755
-0.260805
0.266962
0.228077
0.210222
-0.274001
0.263035
0.250942
0.237042
-0.263078
0.253204
0.203819
0.225349
-0.246468
0.240855
0.0687163
0.137246
-0.239183
0.240995
-0.0934958
-0.0142775
-0.244964
0.250379
-0.192704
-0.146136
-0.25352
0.253543
-0.20808
-0.196361
-0.24467
0.245131
-0.190359
-0.189317
-0.233446
0.222781
-0.152622
-0.168459
-0.12404
-0.0432444
0.0465901
0.225519
0.22301
0.254525
-0.387347
-0.0613315
-0.0772013
-0.202687
0.0804806
-0.249526
0.0027812
-0.00218272
-0.193828
0.00343946
-0.195265
-0.0140474
0.0184003
-0.343412
-0.00938672
-0.294119
-0.0129078
0.00995052
0.286018
-0.0204555
0.325418
0.0286705
-0.0159925
0.190548
0.0339181
0.202633
0.213023
-0.22266
-0.0820521
-0.0427272
0.218202
0.346422
-0.333539
0.0857999
0.350663
0.0231646
-0.397428
0.0284815
-0.112817
0.110486
-0.395097
-0.109964
-0.346264
0.212312
0.0051238
-0.220816
0.329607
-0.331777
0.155165
0.120883
0.321938
-0.313628
0.168146
0.16433
0.29326
-0.281415
0.140274
0.150828
0.268204
-0.255376
0.0967329
0.115646
0.244572
-0.235128
0.0442453
0.0694176
0.22926
-0.227569
-0.0151604
0.0145844
0.231257
-0.239943
-0.072653
-0.0433676
0.251944
-0.26765
-0.117268
-0.0939646
0.285625
-0.305792
-0.145151
-0.128441
0.326097
-0.348519
-0.166446
-0.151489
0.370184
-0.389804
-0.149428
-0.164192
0.406615
-0.422157
-0.04579
-0.116873
0.423774
-0.423465
0.110177
0.0300983
-0.215868
0.229991
0.100082
0.204072
-0.201043
-0.00521203
0.0503238
-0.247195
0.265448
0.170045
0.13855
-0.281789
0.285059
0.224807
0.19388
-0.29426
0.297494
0.247709
0.227841
-0.29771
0.295418
0.20611
0.225133
-0.291794
0.287798
0.0727124
0.14087
-0.285239
0.283474
-0.0917308
-0.0117187
-0.281801
0.279361
-0.190264
-0.144462
-0.275833
0.269663
-0.20191
-0.192833
-0.263581
0.249079
-0.175857
-0.183235
-0.239961
0.228313
-0.140974
-0.159341
-0.118387
0.000646062
-0.00348313
0.228356
0.207664
0.260993
-0.0680916
0.0748169
-0.200553
-0.206357
-0.0627777
0.183443
-0.183505
-0.395035
-0.407935
0.167912
0.0055427
-0.20479
-0.00771568
-0.251197
-0.0170698
0.347277
0.043745
0.202486
0.226089
-0.229313
-0.0788273
0.222462
-0.0391008
0.0829408
-0.203389
-0.105985
-0.298098
0.122339
-0.110882
-0.217814
0.136389
-0.214603
-0.188584
-0.341185
0.206374
-0.229842
-0.371566
0.1951
-0.396661
0.219287
0.00403845
-0.222989
0.387183
-0.37802
0.0766371
-0.378125
0.378011
-0.0169565
0.0322232
0.376599
-0.36241
0.140976
0.119461
0.347586
-0.330619
0.151179
0.149506
0.313884
-0.297541
0.123931
0.134094
0.282173
-0.268291
0.0828504
0.100278
0.256283
-0.247234
0.0351965
0.0574092
0.241988
-0.241486
-0.0156628
0.00933852
0.245351
-0.254044
-0.0639601
-0.0395023
0.26647
-0.283265
-0.100472
-0.0815384
0.301945
-0.321829
-0.125267
-0.109761
0.342234
-0.364713
-0.143966
-0.131084
0.389557
-0.407138
-0.131847
-0.139348
0.429606
-0.43637
-0.0390256
-0.0944061
0.442437
-0.438739
0.106479
0.0361658
0.424925
-0.401663
0.171838
0.154099
-0.211546
0.216951
-0.0106164
0.215202
-0.227063
-0.0990216
-0.0591214
-0.227694
0.245214
0.0825618
0.0395804
-0.264456
0.276405
0.158096
0.119309
-0.294119
0.308746
0.210181
0.176165
-0.320715
0.330877
0.237547
0.215872
-0.337837
0.341583
0.202364
0.218173
-0.341595
0.338602
0.0757055
0.140859
-0.334477
0.328879
-0.0861332
-0.00759433
-0.32169
0.311896
-0.18047
-0.137272
-0.301584
0.289928
-0.190255
-0.182521
-0.275454
0.264777
-0.16518
-0.168761
-0.250867
0.2396
-0.129707
-0.145431
-0.108101
-0.143016
0.160786
-0.235585
-0.245275
-0.124804
0.192834
-0.22243
-0.367064
-0.375666
0.166836
0.213548
-6.23334e-05
0.0715565
-0.0682688
0.199198
0.209553
0.0556839
-0.0612678
0.196132
0.190048
0.0583198
-0.0566489
0.226685
0.204716
0.0564236
-0.0580708
0.287666
0.260767
0.0588725
-0.0562245
0.344629
0.32622
-0.049446
0.371233
0.0900896
-0.211939
-0.0980906
-0.259092
0.147735
-0.214735
-0.184462
-0.302221
0.175391
-0.229207
-0.233588
-0.337439
0.156443
-0.132806
-0.268911
0.175584
-0.254727
-0.239323
-0.354674
-0.173355
0.149779
-0.35209
-0.204367
-0.336051
0.395782
-0.401185
-0.0115528
0.388561
-0.0422254
-0.23099
0.403495
-0.402482
0.0756248
0.0345324
0.394391
-0.383942
0.130526
0.111371
0.364098
-0.34454
0.131621
0.129662
0.325626
-0.307861
0.106166
0.115179
0.291199
-0.277416
0.0690678
0.083616
0.265842
-0.258495
0.0278499
0.0458345
0.254234
-0.25461
-0.0152865
0.00507757
0.25856
-0.267711
-0.0548094
-0.0355526
0.280651
-0.29696
-0.084164
-0.0685976
0.314279
-0.332543
-0.107003
-0.0924419
0.35246
-0.374754
-0.121672
-0.111167
0.39826
-0.420303
-0.109803
-0.115842
0.437296
-0.445241
-0.0310797
-0.0774139
0.444285
-0.437596
0.0997895
0.035209
0.424871
-0.407596
0.154563
0.141375
0.383651
-0.360741
0.126869
0.142891
-0.240206
0.228559
-0.0873744
0.260496
-0.282747
-0.110555
-0.104513
-0.224526
0.229097
-0.0151873
-0.0550891
-0.241985
0.255299
0.0692474
0.026693
-0.274447
0.293731
0.138811
0.100161
-0.311302
0.329048
0.192434
0.158595
-0.345354
0.361439
0.221462
0.199566
-0.374363
0.384381
0.192346
0.205248
-0.389037
0.388331
0.076412
0.136202
-0.383033
0.373573
-0.0766737
-0.00229602
-0.360695
0.343814
-0.163589
-0.124394
-0.32667
0.308776
-0.17236
-0.165376
-0.292911
0.277013
-0.149282
-0.152896
-0.260118
0.249766
-0.119355
-0.128536
-0.23957
0.231573
-0.0708302
-0.0979042
-0.231488
0.23394
-0.00251446
-0.0390156
0.0397695
0.0944483
-0.0971725
0.201922
-0.0948607
0.221734
0.209141
0.0995029
-0.100945
0.197574
0.192378
0.101862
-0.105777
0.230601
0.205632
0.10054
-0.103849
0.290974
0.25553
0.0943145
-0.0940464
0.344361
0.316685
-0.13719
0.15791
-0.28963
-0.300436
-0.119502
0.130962
-0.154836
-0.328216
-0.33588
0.106101
0.0815553
-0.066346
0.373352
0.358742
0.161407
-0.225611
-0.173876
-0.269678
0.191999
-0.231343
-0.233413
-0.302395
0.194445
-0.248068
-0.252173
-0.324589
0.178933
-0.27575
-0.229307
-0.329734
0.145265
-0.131006
-0.314696
0.162608
-0.306973
-0.182098
-0.308789
-0.110605
-0.310643
0.0853673
-0.137099
-0.301722
-0.322398
0.30436
-0.112967
-0.137509
0.154552
-0.331739
-0.339528
-0.12038
0.0775375
-0.105035
-0.283145
-0.292117
0.314165
0.063319
-0.272246
0.0576669
0.389294
-0.399784
-0.0558564
-0.0889381
0.100642
0.361648
0.35469
-0.054334
-0.24346
0.408297
-0.423568
0.00371869
-0.0337128
0.425705
-0.422978
0.0728974
0.0366691
0.409028
-0.389894
0.111392
0.0974206
0.370532
-0.350007
0.111097
0.110301
0.330556
-0.312948
0.0885576
0.0957277
0.296873
-0.284795
0.0569905
0.067541
0.274095
-0.268326
0.0220807
0.035134
0.263888
-0.265079
-0.0140953
0.000639948
0.268794
-0.277894
-0.045709
-0.0318382
0.28885
-0.30199
-0.0710236
-0.057642
0.316253
-0.333214
-0.090043
-0.0781785
0.35334
-0.375974
-0.0990383
-0.0910401
0.39836
-0.418713
-0.0894495
-0.0934566
0.433262
-0.438951
-0.0253907
-0.0628653
0.433566
-0.420336
0.0865589
0.0298245
0.401719
-0.379934
0.132778
0.122758
0.359815
-0.336551
0.103605
0.122772
0.0837149
-0.289436
0.273308
-0.0944273
-0.104578
-0.252438
0.239756
-0.0746924
-0.0836439
-0.234127
0.23843
-0.0194906
-0.0494601
-0.248841
0.264762
0.0533265
0.0162827
-0.28272
0.303489
0.118042
0.0822024
-0.323983
0.345858
0.170558
0.138102
-0.366464
0.387506
0.200419
0.178961
-0.405408
0.420428
0.177326
0.187347
-0.42873
0.430266
0.074876
0.1279
-0.423942
0.410684
-0.0634157
0.00402794
-0.393297
0.371879
-0.142171
-0.107007
-0.351006
0.329731
-0.151086
-0.144504
-0.311212
0.292384
-0.130454
-0.134377
-0.276466
0.263547
-0.106437
-0.112618
-0.251352
0.245239
-0.0647169
-0.0857094
-0.242276
0.244931
-0.00516895
-0.0360527
0.0277244
0.116283
-0.120297
0.225748
0.243822
0.12533
-0.129869
0.206461
0.214174
0.13376
-0.136335
0.200148
0.196269
0.137577
-0.136196
0.229219
0.206875
0.13172
-0.122533
0.281788
0.251054
0.115268
-0.109202
0.338296
0.30942
0.350181
0.207967
-0.241578
-0.22189
-0.281201
0.211788
-0.248686
-0.250704
-0.303864
0.197749
-0.266885
-0.241626
-0.31227
0.181668
-0.29481
-0.209657
-0.302175
0.172773
-0.325194
-0.161861
-0.284027
0.141842
-0.120971
-0.360399
0.162396
-0.352292
-0.122991
-0.283765
-0.0670664
-0.25849
0.0533105
-0.0932225
-0.256989
-0.34634
0.329538
-0.104169
-0.125721
0.144619
-0.379296
-0.365292
-0.106769
0.045777
-0.0578887
-0.246379
-0.278294
0.285854
0.0457506
-0.270515
0.0379978
-0.114518
0.120377
0.355789
-0.104018
0.34419
0.392434
-0.409744
-0.0385461
0.385218
-0.0471173
-0.257383
0.420134
-0.430135
0.0137197
-0.0233235
0.43086
-0.424561
0.0665983
0.0373942
0.408512
-0.390564
0.093445
0.0813717
0.371141
-0.351325
0.0912801
0.0908777
0.33317
-0.316385
0.0717731
0.0775723
0.302113
-0.290305
0.0451822
0.0532691
0.281051
-0.275196
0.016226
0.0258802
0.272383
-0.273964
-0.0125142
-0.00217385
0.278839
-0.286074
-0.0384744
-0.0269629
0.294686
-0.304113
-0.0615963
-0.0490297
0.316065
-0.3309
-0.0752077
-0.0662268
0.348576
-0.368859
-0.0787554
-0.0733646
0.390201
-0.411718
-0.0679331
-0.0721139
0.427114
-0.431481
-0.0210233
-0.0474693
0.421133
-0.398937
0.0643635
0.0194762
0.372276
-0.351452
0.111953
0.0960964
0.329849
-0.309791
0.0835474
0.101169
0.294734
-0.291436
0.0600207
0.0686581
0.0520854
-0.310765
0.295952
-0.0981532
-0.101608
-0.283699
0.273788
-0.0845166
-0.0923246
-0.259808
0.247431
-0.0623153
-0.0696643
-0.242284
0.24649
-0.0236963
-0.0443132
-0.25681
0.271906
0.0382304
0.00596249
-0.288773
0.308994
0.0978212
0.0653357
-0.33015
0.354338
0.14637
0.116946
-0.378053
0.403044
0.175428
0.155247
-0.424994
0.443558
0.158762
0.165396
-0.454522
0.457378
0.0720197
0.116937
-0.451534
0.436367
-0.0482494
0.00987197
-0.416879
0.392553
-0.117846
-0.0875185
-0.369631
0.346252
-0.127707
-0.121581
-0.326608
0.307193
-0.111039
-0.114733
-0.290682
0.275198
-0.0909528
-0.0961067
-0.265128
0.258182
-0.0577709
-0.0756389
-0.257426
0.257166
-0.00490834
-0.0352971
0.0208443
0.123377
-0.124469
0.270561
0.295974
0.134055
-0.145133
0.236826
0.253407
0.150319
-0.154198
0.210341
0.21936
0.157776
-0.159928
0.2023
0.199847
0.160294
-0.158037
0.226962
0.207242
0.152598
-0.145811
0.275002
0.245614
0.138991
-0.129146
0.328451
0.302599
0.341412
0.227769
-0.257559
-0.24062
-0.291286
0.214455
-0.265391
-0.24385
-0.30164
0.199065
-0.284281
-0.220997
-0.30093
0.191676
-0.313713
-0.186362
-0.277674
0.185211
-0.34801
-0.14358
-0.263438
0.171266
-0.37894
-0.116419
-0.260569
0.12513
-0.103642
-0.38678
0.14749
-0.401656
-0.0797453
-0.235133
-0.0308992
0.0247949
-0.264411
-0.0385359
-0.238742
0.0101285
0.271071
-0.270234
0.384489
-0.405526
-0.0175087
-0.350814
0.272441
0.0885018
-0.0134425
0.424213
-0.427267
0.0167734
-0.00463681
0.427258
-0.417748
0.0570881
0.037386
0.405096
-0.386399
0.074748
0.0687193
0.368231
-0.348859
0.0719079
0.0727103
0.332396
-0.315572
0.054949
0.0611095
0.303215
-0.291144
0.0331111
0.040912
0.284365
-0.27881
0.0106716
0.0191009
0.27908
-0.280139
-0.011455
-0.00190399
0.284952
-0.289681
-0.0337455
-0.0221502
0.296938
-0.306159
-0.052375
-0.0417727
0.318231
-0.33306
-0.0603784
-0.0541552
0.348713
-0.366706
-0.0607625
-0.0577116
0.384729
-0.402939
-0.0497231
-0.054091
0.415929
-0.420878
-0.0160749
-0.0344793
0.413237
-0.393238
0.0443643
0.0118362
0.367253
-0.341535
0.0862358
0.0701108
0.323484
-0.311108
0.0711714
0.0831178
0.302873
-0.296692
0.0538397
0.0604236
0.293558
-0.289359
0.0415518
0.0489508
0.281356
-0.273835
0.017274
0.0299951
-0.346019
0.326907
-0.0850568
0.362932
-0.389615
-0.0769594
-0.0898553
-0.310747
0.296069
-0.0834751
-0.085448
-0.283086
0.274455
-0.075885
-0.0793417
-0.265696
0.255745
-0.0523638
-0.0609059
-0.24897
0.249478
-0.0242044
-0.0375384
-0.258159
0.273661
0.0227284
-0.00271801
-0.291576
0.312704
0.0766929
0.0474208
-0.334032
0.358256
0.122146
0.0956184
-0.382375
0.408323
0.14948
0.131127
-0.431488
0.451421
0.138829
0.142231
-0.464539
0.469438
0.0671202
0.103819
-0.464868
0.448981
-0.0323628
0.0144426
-0.427906
0.401956
-0.091896
-0.0664435
-0.378246
0.354844
-0.104305
-0.0978708
-0.336056
0.318166
-0.0931491
-0.0959446
-0.302527
0.287723
-0.0761489
-0.0804678
-0.275662
0.269247
-0.051356
-0.0635781
-0.266799
0.272539
-0.0106489
-0.032849
-0.277036
0.288597
0.0418598
0.0163473
0.0712258
0.13381
-0.146668
0.283419
-0.125533
0.325197
0.304252
0.15553
-0.164466
0.245762
0.262269
0.168349
-0.170818
0.21281
0.223243
0.172549
-0.173118
0.202868
0.201578
0.171865
-0.16815
0.223247
0.20599
0.161406
-0.15402
0.267615
0.23887
0.14005
-0.125018
0.313419
0.288629
0.120049
-0.111939
0.347679
0.336444
0.136391
0.407121
0.368642
-0.0933096
0.120093
-0.413563
-0.406887
-0.0760378
0.0072549
-0.0111117
-0.260554
-0.270396
0.00381603
0.228196
-0.271301
-0.238036
-0.2971
-0.314142
0.0790908
0.214134
-0.28046
-0.228674
-0.293963
0.412514
-0.34854
0.0245278
-0.0550664
0.0957543
0.366433
-0.0141067
0.371554
0.208808
-0.301413
-0.203218
-0.284075
0.207476
-0.335977
-0.169989
-0.251265
0.198774
-0.375518
-0.132977
-0.246881
0.181702
-0.413153
-0.10634
-0.233974
0.151379
-0.432943
-0.0522686
-0.2214
0.0840921
-0.0672395
-0.42374
0.112125
-0.441596
-0.0118565
-0.237997
-0.0123739
0.010016
-0.258196
-0.0107758
-0.271994
-0.280073
0.38031
-0.398854
0.00103509
0.0183275
0.410744
-0.417401
0.0234297
0.00725347
0.415384
-0.406895
0.0485993
0.0353696
0.391436
-0.376402
0.0597134
0.0532601
0.359649
-0.342336
0.0545948
0.0559579
0.327184
-0.312854
0.0406192
0.0459572
0.302846
-0.294242
0.024507
0.0309039
0.290748
-0.288639
0.00856294
0.0156067
0.290414
-0.292858
-0.00901077
-0.000129132
0.297575
-0.303925
-0.0273961
-0.0174328
0.31213
-0.322815
-0.0416898
-0.0335675
0.33311
-0.344098
-0.0493901
-0.0438605
0.353706
-0.36485
-0.0496186
-0.0481032
0.375911
-0.388075
-0.0375587
-0.0430305
0.398126
-0.404192
-0.0100085
-0.0244287
0.402004
-0.389431
0.0317922
0.00964738
0.36967
-0.347822
0.0643874
0.0503494
0.329247
-0.319371
0.0612949
0.0645434
0.31055
-0.303094
0.0463836
0.0516025
0.294224
-0.286015
0.033343
0.0400811
0.281702
-0.278832
0.0144037
0.0256826
0.276518
-0.278307
-0.0089865
0.00150143
-0.370409
0.364022
-0.0705722
0.384957
-0.400249
-0.0519477
-0.0614898
-0.349261
0.341406
-0.0772019
-0.0750949
-0.329876
0.320068
-0.0736669
-0.0739183
-0.306629
0.293473
-0.0627293
-0.0659021
-0.283051
0.273237
-0.0425504
-0.0504836
-0.264523
0.259431
-0.0191123
-0.0288244
-0.261479
0.271983
0.012224
-0.00476569
-0.288133
0.309639
0.0551869
0.0312714
-0.332254
0.357548
0.0968522
0.0730031
-0.382176
0.407779
0.123878
0.106499
-0.430777
0.451047
0.118559
0.119233
-0.464923
0.470087
0.0619562
0.0899429
-0.46508
0.448893
-0.0161755
0.0194495
-0.427847
0.402982
-0.0670307
-0.045398
-0.380372
0.358893
-0.082826
-0.0752608
-0.341356
0.325886
-0.0776795
-0.0784078
-0.312046
0.299022
-0.0631257
-0.0666269
-0.286665
0.280764
-0.0454559
-0.0512202
-0.275874
0.277386
-0.0121611
-0.0279584
-0.281284
0.292636
0.0305086
0.012449
0.0497192
0.131773
-0.139817
0.33324
0.359556
0.150541
-0.164841
0.29772
0.314977
0.172217
-0.176858
0.250402
0.269645
0.179206
-0.179783
0.213387
0.225591
0.178905
-0.176936
0.200899
0.200701
0.173274
-0.167397
0.21737
0.202328
0.159088
-0.148002
0.25653
0.230561
0.13511
-0.121731
0.30004
0.275736
0.10576
-0.0960679
0.337987
0.320473
0.368328
-0.0477158
0.0621137
-0.438138
-0.411727
-0.036237
-0.0219273
0.0258437
-0.275911
-0.282963
-0.0172708
0.224207
-0.281374
-0.229424
-0.296349
0.389515
-0.374943
0.00995571
0.368006
0.00740176
0.222302
-0.293954
-0.218168
-0.279013
0.226273
-0.32021
-0.194026
-0.260037
0.224295
-0.361498
-0.158338
-0.225904
0.213695
-0.407511
-0.120225
-0.232996
0.187311
-0.449085
-0.0810637
-0.205179
0.145156
-0.465974
-0.0100605
-0.223196
0.0898363
-0.469318
0.017994
-0.245975
0.0273883
-0.0215931
-0.417523
0.0365383
-0.447288
0.0306454
-0.262998
-0.393477
0.389241
-0.0173575
-0.00245764
-0.386684
-0.0043351
0.000366749
-0.420347
-0.116857
0.385083
-0.0277074
0.0352925
-0.283496
-0.0251464
-0.285524
-0.28529
0.375734
-0.386803
0.012104
0.0191191
0.396534
-0.397863
0.0247581
0.0169846
0.395028
-0.3873
0.0408711
0.0325351
0.376361
-0.362674
0.0460261
0.042321
0.348455
-0.334518
0.0406577
0.0417397
0.322459
-0.31221
0.0303699
0.0338982
0.30511
-0.299858
0.0192548
0.0238041
0.297375
-0.295799
0.00698656
0.0131237
0.295859
-0.296692
-0.00817752
-6.91655e-05
0.298704
-0.302453
-0.0236466
-0.0154211
0.307394
-0.314274
-0.0348095
-0.0286264
0.321628
-0.33092
-0.0400981
-0.0365068
0.340755
-0.352423
-0.0379502
-0.0382688
0.3636
-0.374554
-0.0266053
-0.031853
0.382702
-0.387451
-0.00525952
-0.0162803
0.386655
-0.379217
0.0243544
0.00885129
0.366063
-0.349612
0.0479364
0.0371947
0.33479
-0.322825
0.04933
0.0497216
0.314192
-0.306467
0.0386579
0.0429701
0.298066
-0.29115
0.0264276
0.0316802
0.283238
-0.278489
0.00965493
0.0177699
0.277201
-0.280603
-0.00558516
0.000213807
0.285349
-0.289815
-0.0206799
-0.0125248
-0.384411
0.375116
-0.0426527
-0.0314061
-0.366344
0.353106
-0.0573342
-0.0527187
-0.338673
0.325922
-0.0644514
-0.0606609
-0.314953
0.305296
-0.0640106
-0.0629489
-0.29598
0.288134
-0.0548827
-0.0565859
-0.282063
0.277435
-0.0379226
-0.0444131
-0.273394
0.269887
-0.0156044
-0.0247835
-0.268838
0.27337
0.00769176
-0.00371725
-0.28394
0.301541
0.037586
0.0207018
-0.322822
0.34793
0.0717444
0.0517214
-0.372936
0.398524
0.0982892
0.0814935
-0.420973
0.43987
0.0996623
0.0967843
-0.451432
0.454249
0.0591392
0.078381
-0.448829
0.43504
-0.00238668
0.0248692
-0.417675
0.397318
-0.0466735
-0.028033
-0.378112
0.359563
-0.0642774
-0.0560547
-0.343539
0.330095
-0.0642356
-0.0623832
-0.318186
0.307745
-0.0526851
-0.0547178
-0.297124
0.2895
-0.0378325
-0.0405986
-0.284996
0.287182
-0.0143476
-0.0234539
-0.293713
0.305307
0.0189139
0.00591859
-0.308213
0.332191
0.0551128
0.0468132
0.0834129
0.127951
-0.144781
0.35007
0.370651
0.161141
-0.173042
0.30962
0.331337
0.18062
-0.184
0.253783
0.277224
0.184327
-0.182154
0.211214
0.225917
0.178346
-0.173838
0.19639
0.196894
0.168304
-0.161054
0.21012
0.196794
0.151865
-0.139646
0.24431
0.221372
0.125165
-0.111904
0.28678
0.261255
0.0920455
-0.0778154
0.323757
0.300614
0.0420821
-0.0330852
0.357436
0.332595
0.040974
-0.0719345
0.398967
0.379443
0.228435
-0.287507
-0.227625
-0.286892
0.0306981
-0.0272939
-0.29322
0.0353728
-0.290199
0.366642
-0.399047
-0.0395296
-0.0940078
0.264656
0.228319
0.321308
-0.0486746
-0.288262
0.282105
-0.0145232
-0.289826
-0.0257295
0.238198
-0.305879
-0.216107
-0.256933
0.243823
-0.339739
-0.186535
-0.23184
0.240596
-0.388398
-0.141981
-0.204148
0.221484
-0.441683
-0.0952499
-0.21881
0.180343
-0.484272
-0.0354554
-0.179784
0.121048
-0.497186
0.0310666
-0.236269
0.0514124
-0.484193
0.0407472
-0.256077
0.00802877
-0.381476
-0.0132375
-0.369442
0.372701
0.00476996
-0.019482
-0.362924
0.0129639
-0.374536
-0.0264214
0.000388822
-0.44731
0.0471234
-0.274829
-0.410782
-0.0228025
0.0297885
-0.061261
0.296128
-0.358027
0.0729784
-0.0618085
0.319916
-0.28448
0.380865
-0.378309
0.00739967
-0.0107796
0.374559
-0.372841
0.010386
0.015369
0.375197
-0.374395
0.0239562
0.0193409
0.371822
-0.365517
0.0345659
0.029962
0.358164
-0.348076
0.0359384
0.0349676
0.338641
-0.328813
0.0308289
0.0323049
0.320983
-0.314253
0.0236394
0.026069
0.3095
-0.305903
0.0156576
0.0190513
0.303393
-0.301865
0.00545836
0.0106142
0.301051
-0.301883
-0.0073455
-0.000883773
0.303901
-0.308059
-0.0194888
-0.0134026
0.313031
-0.319705
-0.0281353
-0.0236544
0.32665
-0.334895
-0.0318531
-0.0295617
0.34284
-0.350976
-0.0298145
-0.0303239
0.357813
-0.363937
-0.020482
-0.0250153
0.368379
-0.370951
-0.00268779
-0.0118378
0.370283
-0.365346
0.0194183
0.0081828
0.356561
-0.344864
0.0362396
0.0284092
0.333223
-0.322636
0.0387432
0.0380802
0.314214
-0.306917
0.0313609
0.034548
0.300686
-0.294884
0.0206255
0.0254498
0.290411
-0.28665
0.00589359
0.0132966
0.283917
-0.282047
-0.00745444
-0.00251908
-0.0124669
-0.376111
0.375057
-0.0163035
-0.00774536
-0.371943
0.365662
-0.036372
-0.028292
-0.357313
0.350064
-0.0500857
-0.0443692
-0.341723
0.332372
-0.0551002
-0.0523194
-0.323137
0.313418
-0.0542914
-0.0537142
-0.304576
0.296154
-0.0464608
-0.0477443
-0.28931
0.284206
-0.0328181
-0.037569
-0.281098
0.279285
-0.0137913
-0.0216762
-0.278677
0.280378
0.00599039
-0.00310875
-0.285807
0.296755
0.0266386
0.0152727
-0.312186
0.332303
0.0516274
0.0362903
-0.353588
0.375724
0.0761532
0.0602076
-0.395054
0.411131
0.0835848
0.0774551
-0.421495
0.425731
0.0549031
0.0680173
-0.423566
0.415543
0.00563617
0.0270339
-0.403448
0.388218
-0.0314429
-0.0159381
-0.372972
0.357212
-0.0485179
-0.0408086
-0.343105
0.330635
-0.0517658
-0.0482762
-0.320282
0.312146
-0.0445489
-0.0443644
-0.303996
0.297677
-0.0315133
-0.0324489
-0.292393
0.292168
-0.0141227
-0.0181696
-0.295451
0.300349
0.0140162
0.00263506
-0.315504
0.328672
0.0419447
0.0316577
0.0540588
0.106045
-0.11975
0.398789
0.421131
0.13343
-0.151049
0.367689
0.384331
0.164565
-0.17407
0.319124
0.344853
0.179536
-0.180903
0.25515
0.28269
0.178921
-0.174454
0.206747
0.223935
0.168529
-0.161796
0.189658
0.190969
0.1544
-0.146059
0.201779
0.189397
0.136812
-0.125725
0.233223
0.212125
0.113325
-0.0997733
0.273228
0.248856
0.0857304
-0.0685698
0.306596
0.286571
0.0490326
-0.0180753
0.326479
0.313058
0.300107
0.0408834
-0.289007
0.297461
-0.0379607
-0.0264191
0.0316464
-0.298447
-0.299485
-0.0167599
0.240601
-0.28991
-0.233514
-0.269486
0.252872
-0.314928
-0.2132
-0.230268
0.257124
-0.356267
-0.169802
-0.204018
0.039488
-0.298041
0.246707
-0.413622
-0.111228
-0.18817
0.208515
-0.469855
-0.0495235
-0.204742
0.146275
-0.509499
0.0235089
-0.172226
0.0186028
-0.355203
-0.0263238
-0.348936
0.352674
0.014865
-0.0213833
-0.344696
0.0171427
-0.34923
-0.0273563
0.0683257
-0.514099
0.0663724
-0.261894
-0.366526
-0.0343341
-0.000739585
-0.483064
0.0587436
-0.267697
-0.395678
-0.0415251
-0.0351297
-0.434982
0.0609985
-0.294944
0.0296427
-0.0461931
0.314011
0.270045
-0.415722
0.268755
0.101563
-0.115614
0.383043
-0.0261676
0.0317799
-0.304059
-0.307873
-0.0177801
-0.0121252
0.383734
-0.277392
0.348906
-0.375727
-0.0127089
-0.324709
-0.0332379
0.319986
-0.0244775
0.374692
-0.369353
0.00206014
-0.0118144
0.365496
-0.364046
0.00893634
0.0115119
0.360786
-0.358389
0.0215589
0.0160808
0.35462
-0.34931
0.0292556
0.0261938
0.343643
-0.337121
0.0294168
0.0293003
0.331074
-0.325157
0.0249122
0.0262578
0.320117
-0.315729
0.0192511
0.0210286
0.312001
-0.308993
0.0126498
0.0153234
0.306474
-0.304941
0.00392507
0.0080949
0.30443
-0.305351
-0.00642486
-0.00139399
0.307352
-0.310785
-0.0160556
-0.0114014
0.314899
-0.319993
-0.0230414
-0.0195407
0.325215
-0.331027
-0.0260415
-0.0243397
0.336746
-0.342956
-0.023605
-0.024604
0.348797
-0.354227
-0.0150525
-0.0191741
0.357885
-0.359318
-0.00125393
-0.00817991
0.357968
-0.353672
0.0151231
0.00683208
0.346988
-0.338393
0.0276449
0.0217244
0.329578
-0.321074
0.0302391
0.0292651
0.313854
-0.307525
0.0250322
0.0273276
0.302262
-0.297686
0.0160497
0.0201872
0.294349
-0.292419
0.00396283
0.0099596
0.292102
-0.29169
-0.00786614
-0.00283575
0.291497
-0.290114
-0.0159069
-0.0126597
0.295454
-0.298235
-0.0139788
-0.0203895
-0.0281587
-0.304217
0.0245028
0.296847
-0.30456
-0.0204456
-0.0191682
-0.358922
0.364497
-0.00080519
0.00671617
-0.366493
0.36645
-0.0162608
-0.00974123
-0.363737
0.357867
-0.0305017
-0.0255792
-0.352117
0.344132
-0.0421009
-0.038619
-0.33591
0.326717
-0.0459065
-0.0440974
-0.319496
0.312001
-0.0467958
-0.0464939
-0.305514
0.29912
-0.0400667
-0.0412578
-0.293857
0.289374
-0.0283355
-0.032306
-0.286758
0.285483
-0.0125168
-0.0190595
-0.285619
0.287158
0.00445131
-0.00324446
-0.290363
0.296468
0.0205338
0.0120676
-0.305346
0.318051
0.0389224
0.0274121
-0.332307
0.348737
0.0597232
0.0459519
-0.36412
0.379366
0.0683392
0.0620715
-0.390677
0.398291
0.047289
0.0567064
-0.399908
0.396639
0.00890519
0.0254168
-0.389379
0.37899
-0.0210539
-0.0086779
-0.367771
0.355222
-0.035969
-0.0295893
-0.343821
0.332123
-0.0400677
-0.0368752
-0.323213
0.31493
-0.0362658
-0.0354546
-0.309152
0.303504
-0.0258655
-0.0266712
-0.299533
0.29735
-0.0119394
-0.0141987
-0.299051
0.305109
0.00795826
0.000933866
-0.315589
0.327046
0.0304879
0.0211776
-0.339008
0.364921
0.0470659
0.0420964
0.0531781
0.0923194
-0.101999
0.408468
0.397837
0.121812
-0.138728
0.384605
0.404143
0.150962
-0.160425
0.328587
0.357087
0.165808
-0.166977
0.256319
0.288072
0.164144
-0.158459
0.201062