/*--------------------------------*- C++ -*----------------------------------*\
  =========                 |
  \\      /  F ield         | OpenFOAM: The Open Source CFD Toolbox
   \\    /   O peration     | Website:  https://openfoam.org
    \\  /    A nd           | Version:  10
     \\/     M anipulation  |
\*---------------------------------------------------------------------------*/
FoamFile
{
    format      ascii;
    class       volScalarField;
    location    "82.5";
    object      p;
}
// * * * * * * * * * * * * * * * * * * * * * * * * * * * * * * * * * * * * * //

dimensions      [0 2 -2 0 0 0 0];

internalField   nonuniform List<scalar> 
28942
(
-0.003759
-0.00313363
0.00203976
0.00949587
0.00979577
7.81047e-05
0.00026482
1.81113e-05
0.00271992
0.00280778
-0.0023014
-0.00257005
-0.00295242
-0.00286997
0.000177267
0.000470423
0.00988676
0.0101568
0.00559066
0.00715053
0.00815857
0.00815022
-0.00520533
-0.00503086
-0.00355972
-0.00378372
0.0138853
0.0138343
0.00354441
0.00348705
1.35065e-05
4.68926e-05
0.000714884
0.00028868
0.00714947
0.00835515
0.0108929
0.0128514
-1.2074e-05
0.015046
0.00909605
0.011594
0.00174008
0.00165098
0.00171451
0.000267826
0.000138465
0.00021259
0.000246299
0.00034526
0.000667402
0.00279056
0.0028618
0.00285265
0.00300754
-0.00233116
-0.00102944
-0.00335892
-0.00320471
-0.00347523
-0.00354839
-0.00354906
-0.00344722
-9.65835e-05
-0.00179544
-0.000343329
0.00098655
0.00943093
0.00893459
-0.00335113
-0.00356071
-0.00329602
0.00899692
0.00884839
0.0091408
-0.00146429
-0.00107684
-0.000738915
0.00237318
0.00277246
0.00186429
0.000770289
-0.00629843
-0.00752599
0.00109181
0.00381669
0.00485795
0.00564508
0.00402991
0.00415249
0.00611908
0.00549841
-0.00138557
-0.00167467
-0.00195213
-0.00179164
-0.00161837
0.00534049
0.00663121
-0.00783734
0.0112931
0.010494
0.00578799
0.00938479
0.000907459
0.000813192
0.000724599
0.00547826
0.005671
0.00566512
-0.00320267
-0.00312348
-0.00311631
-0.00259991
-0.00272313
0.0158385
0.0138339
0.0132751
0.014906
0.00165168
0.00473039
0.00342908
0.00508295
0.00475986
0.0155116
0.0158066
0.0144653
0.00592425
0.007003
0.000173866
0.000269421
9.66314e-05
0.0105078
0.0110105
0.0076734
0.00732549
0.0127826
0.00670881
0.00799874
0.00905789
-0.00189044
-0.00239786
0.00736827
0.00165728
0.00174642
-0.00115583
-0.00141804
-0.00096144
-0.00249732
0.00660051
0.00572794
0.00372228
0.000247519
0.00019507
7.36755e-05
0.000196479
0.00753683
0.00680028
-0.00185061
-0.00196776
-0.00186284
-0.00412412
-0.00366989
5.54187e-05
-0.0028341
-0.000482091
0.00840077
0.00850973
0.0096039
0.00913919
0.0077169
0.00308467
0.00300199
0.00325927
0.00313497
0.0050479
0.00482575
0.00516091
0.0053814
0.00531946
0.0053907
0.00560191
0.00615601
0.00585001
0.00544802
0.00577817
0.00648384
0.00723775
0.00752971
-0.000568171
-0.000548931
-0.00245877
0.000197775
5.04402e-05
-0.00198125
-0.00206952
0.000268985
0.000330908
0.00029546
0.000228901
0.00175798
0.0017091
0.00169139
-0.00290139
-0.00308786
-0.00275284
-0.00431868
-0.00480015
-0.00411261
-0.00469919
-0.00646339
-0.0051628
0.0160322
0.0167424
0.0165098
0.000940582
0.00108537
0.000974291
0.0103587
0.00993081
0.0100111
0.00140637
0.00139077
0.00142216
0.00137472
0.00135955
0.00134379
0.00134401
0.00132786
0.00132805
0.00135986
0.0013752
0.00139061
0.00140634
0.00142271
0.00131244
0.00131165
0.00143744
0.00143753
0.00145206
0.00129664
0.00129578
0.00145255
0.00128041
0.00126431
0.00128019
0.00126443
0.00146899
0.00146912
0.00124835
0.00124852
0.00148416
0.00148453
0.00123237
0.00123263
0.00149944
0.00149983
0.00121643
0.00121667
0.00151468
0.00151515
0.00120043
0.00120074
0.00152988
0.00153038
0.00118443
0.00118476
0.00154515
0.00154565
0.00116833
0.00116883
0.00156072
0.00156105
0.0011523
0.00115252
0.0015754
0.00157592
0.00113611
0.001136
0.00159149
0.00159161
0.00111953
0.00111924
0.00160599
0.00160605
0.00110189
0.00110244
0.00162126
0.00162108
0.00108498
0.00108581
0.00160532
0.0016206
0.00163658
0.00163624
0.00157358
0.00159025
0.00154314
0.0015589
0.00151345
0.00152842
0.00148296
0.00149828
0.00145152
0.00146753
0.00142089
0.00143763
0.00139041
0.00140611
0.00135871
0.00137342
0.00132627
0.00134268
0.00129487
0.00131067
0.0012632
0.00127909
0.0012314
0.00124734
0.00119952
0.0012155
0.00116754
0.00118358
0.00113549
0.00115156
0.00110202
0.00111931
0.00108512
0.00106813
0.00106854
0.00111922
0.00108537
0.00110207
0.00115219
0.0011355
0.00118421
0.00116836
0.00121607
0.00120017
0.00124791
0.00123203
0.00127968
0.00126384
0.00131117
0.00129553
0.00134299
0.00132734
0.001375
0.00135912
0.00140539
0.00139
0.00143722
0.0014225
0.00146846
0.00145242
0.00149916
0.00148388
0.00152958
0.00151446
0.00155985
0.00154466
0.00159023
0.00157469
0.00161963
0.00160514
0.00163482
0.00163651
0.00106785
0.00106849
0.00165078
0.00164901
0.0016521
0.00165147
0.00160363
0.00163516
0.00161909
0.00157197
0.00158821
0.00154189
0.00155659
0.00151196
0.00152703
0.00148146
0.00149677
0.00145057
0.00146607
0.00141914
0.00143525
0.00138831
0.00140466
0.00135778
0.00137204
0.00132513
0.00134149
0.00129359
0.00130938
0.00126195
0.0012778
0.00123019
0.00124609
0.00119835
0.00121429
0.00116646
0.00118243
0.00113462
0.00115053
0.00110152
0.00111823
0.00105096
0.00105112
0.00106715
0.00108432
0.00108464
0.00106812
0.00105123
0.00105126
0.00111891
0.00110137
0.00115128
0.00113473
0.00118303
0.00116717
0.00121486
0.00119896
0.00124665
0.00123077
0.00127842
0.00126255
0.00131012
0.00129431
0.00134169
0.00132595
0.00137348
0.00135746
0.00140437
0.00138883
0.0014356
0.00142075
0.00146689
0.00145134
0.00149768
0.00148234
0.00152817
0.00151299
0.00155833
0.00154331
0.00158811
0.00157328
0.00161749
0.00160279
0.00164599
0.00163218
0.00165087
0.00166366
0.00166083
0.00166474
0.00105041
0.00105075
0.00166595
0.00166481
0.00167809
0.00167579
0.00166586
0.00106677
0.00104914
0.00103401
0.00103352
0.00166348
0.00168071
0.00170427
0.0016855
0.00163257
0.00164842
0.00160089
0.00161642
0.00156976
0.00158584
0.00153975
0.00155428
0.00150985
0.00152493
0.00147938
0.00149467
0.00144857
0.00146403
0.0014175
0.00143308
0.00138639
0.00140207
0.00135516
0.00137066
0.00132353
0.00133946
0.00129188
0.0013077
0.00126022
0.00127607
0.00122849
0.00124437
0.00119671
0.00121261
0.00116488
0.00118081
0.00113314
0.001149
0.00110037
0.00111677
0.00108343
0.00103427
0.00103347
0.00103389
0.00103435
0.00108377
0.00104983
0.00106725
0.00111776
0.00110071
0.0011496
0.0011334
0.00118133
0.00116547
0.00121309
0.00119722
0.00124482
0.00122897
0.00127652
0.00126069
0.00130818
0.00129237
0.00133976
0.00132399
0.00137119
0.00135553
0.00140252
0.00138686
0.00143364
0.00141821
0.00146471
0.00144923
0.00149549
0.00148015
0.00152595
0.00151077
0.00155606
0.00154108
0.00158564
0.00157096
0.00161458
0.00160013
0.00164311
0.00162888
0.0016721
0.00165694
0.00168907
0.00168594
0.00168022
0.00167879
0.0010324
0.00103296
0.00169233
0.0016917
0.0016959
0.0016995
0.00170189
0.00162956
0.00170482
0.00168041
0.00168774
0.00168486
0.00166286
0.00168019
0.00162822
0.0016454
0.00159736
0.00161224
0.0015669
0.00158275
0.00153712
0.00155192
0.00150707
0.00152217
0.00147663
0.0014919
0.00144589
0.00146131
0.00141495
0.00143045
0.00138383
0.00139942
0.00135252
0.00136819
0.00132109
0.00133687
0.00128952
0.00130531
0.0012579
0.00127373
0.00122623
0.00124209
0.00119451
0.00121039
0.00116276
0.00117865
0.00113108
0.00114691
0.00109875
0.00111487
0.00106566
0.0010821
0.00103136
0.00104831
0.00101675
0.00101429
0.00101566
0.00101767
0.00101722
0.00101762
0.00101778
0.00101635
0.00101711
0.00104871
0.00101476
0.00103266
0.0010823
0.00106586
0.00111576
0.00109944
0.00114738
0.00113153
0.00117911
0.00116326
0.0012108
0.00119497
0.00124246
0.00122665
0.00127408
0.00125829
0.00130566
0.00128989
0.00133717
0.00132144
0.00136855
0.00135291
0.00139984
0.00138421
0.00143095
0.00141544
0.00146191
0.00144647
0.00149263
0.00147733
0.00152304
0.00150789
0.00155306
0.00153812
0.00158256
0.00156792
0.0016113
0.00159704
0.00163931
0.00162544
0.00166748
0.00165313
0.00169531
0.00168048
0.0017124
0.00170826
0.00169313
0.001693
0.00170942
0.00170261
0.00103001
0.00101354
0.000999476
0.000998476
0.00170157
0.00171493
0.00174045
0.00165615
0.00172297
0.00172005
0.00169945
0.00169345
0.00167566
0.00167196
0.00165773
0.0016716
0.0016232
0.00164032
0.00159365
0.00160835
0.00156368
0.00157884
0.00153372
0.00154868
0.00150363
0.00151873
0.00147324
0.00148849
0.00144257
0.00145795
0.0014117
0.00142718
0.00138064
0.00139621
0.00134942
0.00136505
0.00131806
0.00133378
0.00128658
0.00130233
0.00125504
0.00127083
0.00122345
0.00123926
0.00119181
0.00120765
0.00116013
0.00117598
0.00112843
0.00114429
0.00109673
0.00111257
0.00106352
0.00108017
0.0010466
0.00100011
0.000997802
0.000999489
0.00100156
0.00100103
0.0010011
0.00100159
0.0010004
0.00104717
0.0010129
0.00103179
0.00108073
0.00106411
0.00111311
0.00109736
0.00114476
0.00112894
0.0011764
0.0011606
0.001208
0.00119222
0.00123958
0.00122381
0.00127111
0.00125537
0.0013026
0.00128688
0.00133403
0.00131834
0.00136535
0.00134972
0.00139655
0.00138098
0.00142761
0.00141213
0.00145849
0.00144309
0.00148914
0.00147387
0.00151947
0.00150437
0.0015494
0.00153451
0.00157882
0.00156421
0.00160753
0.00159329
0.00163538
0.0016216
0.00166272
0.00164927
0.00168905
0.00167444
0.00171567
0.00170388
0.00173087
0.00172605
0.00170713
0.00170453
0.00099574
0.000996649
0.00171077
0.00167337
0.00169547
0.00171546
0.00172487
0.00174901
0.00173019
0.00173728
0.00173391
0.00174161
0.0017391
0.00170529
0.00167256
0.00173832
0.00170886
0.00166623
0.001666
0.00164936
0.00166366
0.00161853
0.0016337
0.00158915
0.00160386
0.00155944
0.00157436
0.00152957
0.00154452
0.00149954
0.00151461
0.00146923
0.00148443
0.00143865
0.00145399
0.00140786
0.0014233
0.00137688
0.00139241
0.00134575
0.00136135
0.00131448
0.00133015
0.00128311
0.00129882
0.00125167
0.00126741
0.00122017
0.00123594
0.00118862
0.00120441
0.00115703
0.00117284
0.00112541
0.00114124
0.00109376
0.00110959
0.0010616
0.00107794
0.0010277
0.00104476
0.000994128
0.00101109
0.000981354
0.000977212
0.000979443
0.000984343
0.000982845
0.000985734
0.000985318
0.000985406
0.000985728
0.000983346
0.000984579
0.000980328
0.000981931
0.00101169
0.000978517
0.000994882
0.00104528
0.00102907
0.00107856
0.0010622
0.0011101
0.00109436
0.00114169
0.00112591
0.00117323
0.00115748
0.00120473
0.001189
0.0012362
0.00122049
0.00126764
0.00125194
0.00129903
0.00128336
0.00133035
0.00131472
0.00136158
0.001346
0.00139271
0.00137718
0.00142368
0.00140824
0.00145448
0.00143913
0.00148503
0.00146981
0.00151527
0.00150022
0.00154511
0.00153027
0.00157443
0.00155987
0.00160308
0.00158887
0.00163092
0.00161713
0.00165784
0.00164461
0.0016839
0.00167066
0.0017086
0.00169708
0.00173281
0.00171875
0.00175145
0.00174639
0.00171422
0.00172997
0.00171354
0.000991682
0.000975485
0.000963712
0.000961623
0.00171558
0.00172637
0.00172254
0.00173544
0.00174385
0.00175481
0.00176198
0.00175776
0.00171516
0.00172575
0.00173769
0.00173129
0.00173007
0.00167835
0.00170334
0.00165944
0.00166484
0.0016415
0.00165476
0.00161271
0.00162703
0.00158382
0.00159835
0.00155443
0.0015692
0.00152476
0.00153964
0.00149483
0.00150985
0.00146462
0.00147978
0.00143415
0.00144944
0.00140346
0.00141885
0.00137259
0.00138806
0.00134156
0.00135711
0.0013104
0.00132601
0.00127914
0.0012948
0.00124781
0.0012635
0.00121641
0.00123213
0.00118498
0.00120072
0.0011535
0.00116926
0.00112198
0.00113776
0.00109041
0.00110621
0.001059
0.0010747
0.0010255
0.00104249
0.00100833
0.000965471
0.000960559
0.000963566
0.000968702
0.000967233
0.000969828
0.000969458
0.000969471
0.000969833
0.000967262
0.000968574
0.000965592
0.00100997
0.000976259
0.000992914
0.00104309
0.00102681
0.00107525
0.00105953
0.00110673
0.001091
0.00113821
0.0011225
0.00116963
0.00115394
0.00120102
0.00118535
0.00123237
0.00121672
0.00126369
0.00124806
0.00129497
0.00127936
0.00132618
0.0013106
0.00135731
0.00134178
0.00138833
0.00137286
0.0014192
0.00140381
0.0014499
0.0014346
0.00148035
0.00146518
0.00151048
0.00149548
0.00154021
0.00152543
0.00156942
0.00155492
0.00159798
0.00158382
0.00162576
0.001612
0.00165261
0.00163936
0.00167845
0.00166565
0.00170248
0.0016909
0.00172695
0.00171346
0.00175047
0.00173781
0.00175423
0.00174315
0.00176811
0.00176234
0.00172105
0.000958355
0.000959594
0.00173496
0.00172629
0.00174608
0.00172818
0.00173743
0.00174716
0.00174743
0.00175702
0.00176479
0.00177197
0.00177869
0.00177384
0.00172475
0.00172148
0.00175427
0.00175412
0.00172913
0.00171419
0.00172394
0.00167824
0.00169403
0.00165405
0.00166387
0.00163373
0.00164615
0.00160622
0.00162009
0.00157784
0.00159215
0.00154879
0.0015634
0.00151933
0.00153412
0.00148955
0.0015045
0.00145946
0.00147456
0.00142911
0.00144434
0.00139854
0.00141387
0.00136779
0.0013832
0.00133688
0.00135236
0.00130584
0.00132139
0.0012747
0.0012903
0.00124349
0.00125912
0.00121222
0.00122788
0.00118091
0.00119659
0.00114955
0.00116525
0.00111816
0.00113387
0.00108671
0.00110246
0.00105529
0.001071
0.00102319
0.00103961
0.000989254
0.00100602
0.000956121
0.000973292
0.000944742
0.000939491
0.000942305
0.000949677
0.00094706
0.000952741
0.000951582
0.000953882
0.000953484
0.000953549
0.000953902
0.000951572
0.000952811
0.00094831
0.00094978
0.000943635
0.000946266
0.000973865
0.000940998
0.000957473
0.00100799
0.000990201
0.00104008
0.00102453
0.00107159
0.00105588
0.001103
0.00108732
0.00113434
0.0011187
0.00116563
0.00115001
0.00119689
0.00118128
0.00122811
0.00121252
0.0012593
0.00124373
0.00129045
0.00127491
0.00132154
0.00130603
0.00135255
0.00133708
0.00138345
0.00136804
0.00141421
0.00139888
0.00144479
0.00142956
0.00147512
0.00146002
0.00150514
0.0014902
0.00153475
0.00152003
0.00156384
0.00154939
0.00159229
0.00157818
0.00161997
0.00160626
0.00164673
0.00163351
0.00167246
0.00165975
0.0016966
0.00168482
0.00171995
0.00170832
0.00174231
0.00173032
0.00176575
0.00175503
0.0017567
0.00175679
0.00177969
0.00177086
0.0017331
0.00173767
0.00176009
0.00176615
0.00175601
0.00174433
0.00174893
0.000953856
0.00093675
0.000926988
0.000924724
0.00175835
0.00175887
0.00176765
0.00177421
0.00178116
0.00178503
0.00176428
0.00176325
0.00176702
0.00178802
0.00178601
0.00177918
0.00173639
0.0017509
0.00174942
0.00171445
0.00172724
0.00170303
0.00171353
0.00167281
0.00168641
0.0016491
0.00166039
0.00162602
0.0016383
0.00159929
0.00161288
0.00157133
0.00158545
0.00154259
0.00155705
0.00151334
0.00152803
0.00148372
0.00149859
0.00145378
0.00146881
0.00142357
0.00143873
0.00139313
0.0014084
0.00136251
0.00137786
0.00133173
0.00134715
0.00130083
0.00131631
0.00126983
0.00128536
0.00123875
0.00125432
0.00120762
0.00122321
0.00117645
0.00119206
0.00114523
0.00116086
0.00111397
0.00112962
0.00108267
0.00109834
0.00105131
0.00106701
0.00102005
0.00103569
0.00098658
0.00100356
0.000970353
0.000929516
0.000923759
0.000927008
0.000934052
0.000931756
0.000936731
0.000935615
0.000937919
0.000937507
0.000937607
0.00093795
0.000935885
0.000936917
0.000932244
0.000934299
0.000929845
0.000971419
0.000938358
0.000954854
0.00100526
0.000988164
0.00103636
0.00102082
0.00106768
0.00105204
0.00109893
0.00108334
0.00113012
0.00111456
0.00116127
0.00114572
0.00119238
0.00117685
0.00122346
0.00120795
0.00125451
0.00123901
0.00128552
0.00127004
0.00131647
0.00130103
0.00134735
0.00133195
0.00137812
0.00136278
0.00140875
0.00139348
0.0014392
0.00142403
0.0014694
0.00145436
0.00149928
0.00148441
0.00152876
0.00151411
0.00155772
0.00154334
0.00158605
0.001572
0.00161361
0.00159997
0.00164027
0.0016271
0.0016659
0.00165325
0.00169017
0.00167826
0.00171325
0.00170191
0.00173529
0.00172431
0.00175519
0.00174611
0.00177832
0.00176215
0.00176946
0.00178978
0.00179894
0.00179708
0.00179208
0.00177761
0.00176263
0.00176354
0.0017465
0.0017493
0.000920844
0.000922157
0.00177772
0.00175763
0.00176022
0.00176649
0.00176971
0.00177765
0.00178449
0.00178776
0.00179005
0.00177422
0.00176659
0.00177028
0.00178261
0.00179311
0.00180115
0.00177936
0.00178602
0.00178952
0.00179949
0.00180433
0.00174857
0.00175977
0.00175666
0.00173738
0.00174232
0.00171015
0.00172384
0.00169244
0.00170251
0.00166666
0.00167958
0.00164256
0.00165441
0.00161839
0.00163081
0.00159198
0.0016054
0.00156433
0.0015783
0.00153586
0.0015502
0.00150684
0.00152143
0.0014774
0.00149218
0.00144762
0.00146257
0.00141756
0.00143264
0.00138727
0.00140246
0.00135679
0.00137207
0.00132616
0.00134151
0.0012954
0.00131081
0.00126455
0.00128001
0.00123363
0.00124912
0.00120265
0.00121816
0.00117162
0.00118716
0.00114055
0.00115611
0.00110945
0.00112502
0.0010783
0.0010939
0.00104709
0.00106272
0.00101587
0.00103148
0.00098383
0.00100024
0.000951336
0.00096726
0.000918044
0.000934026
0.000907694
0.000902247
0.000904791
0.000913854
0.00091066
0.000918167
0.000916375
0.000920749
0.00091962
0.000921935
0.000921527
0.000921632
0.00092197
0.00091989
0.000920935
0.000916103
0.000918328
0.000911282
0.000913694
0.000906111
0.000908787
0.000935347
0.000902636
0.000920136
0.000969239
0.000951821
0.00100124
0.00098565
0.00103233
0.00101678
0.00106348
0.00104793
0.00109456
0.00107905
0.00112558
0.0011101
0.00115657
0.0011411
0.00118752
0.00117207
0.00121845
0.00120301
0.00124934
0.00123393
0.0012802
0.00126481
0.00131101
0.00129564
0.00134174
0.00132641
0.00137237
0.0013571
0.00140285
0.00138766
0.00143315
0.00141806
0.00146321
0.00144825
0.00149295
0.00147816
0.00152228
0.0015077
0.0015511
0.00153679
0.0015793
0.00156532
0.00160674
0.00159316
0.00163329
0.00162017
0.00165881
0.00164622
0.00168309
0.00167115
0.00170614
0.0016948
0.00172791
0.00171723
0.00174727
0.00173809
0.0017657
0.00175656
0.001768
0.00177591
0.00178341
0.00180475
0.00179879
0.00175925
0.00176072
0.00177472
0.00176791
0.00177106
0.000914951
0.000899569
0.000890179
0.000886791
0.00177807
0.00177999
0.00178743
0.00179296
0.00179703
0.00180156
0.00178004
0.00177311
0.00178947
0.00179059
0.00179568
0.00178774
0.00179481
0.00180861
0.00180578
0.00180194
0.00180983
0.00176037
0.00176253
0.00175132
0.00174639
0.00175554
0.00172491
0.00173536
0.00170412
0.00171499
0.00168364
0.00169426
0.00165941
0.00167176
0.00163517
0.00164724
0.00161054
0.00162307
0.00158429
0.00159761
0.00155689
0.00157073
0.00152867
0.00154289
0.00149987
0.00151436
0.00147062
0.00148531
0.00144101
0.00145587
0.00141111
0.00142611
0.00138099
0.0013961
0.00135067
0.00136587
0.00132019
0.00133547
0.0012896
0.00130493
0.00125891
0.00127428
0.00122815
0.00124355
0.00119733
0.00121276
0.00116646
0.00118192
0.00113556
0.00115103
0.00110462
0.00112011
0.00107364
0.00108915
0.0010426
0.00105815
0.0010115
0.00102707
0.000980442
0.000995994
0.00094811
0.000964036
0.000931034
0.000891987
0.000886165
0.000889527
0.000898299
0.000895209
0.000902195
0.000900459
0.000904767
0.000903648
0.00090593
0.000905529
0.000905653
0.000905972
0.000903979
0.00090498
0.00090103
0.000902691
0.000895722
0.000898593
0.000892674
0.000932392
0.000899621
0.000917369
0.000966258
0.000949121
0.000997072
0.000981673
0.00102805
0.00101258
0.001059
0.00104356
0.0010899
0.00107448
0.00112075
0.00110535
0.00115156
0.00113618
0.00118235
0.00116698
0.00121311
0.00119776
0.00124384
0.00122851
0.00127454
0.00125922
0.00130518
0.0012899
0.00133576
0.00132051
0.00136623
0.00135103
0.00139656
0.00138144
0.0014267
0.00141169
0.0014566
0.00144172
0.00148618
0.00147147
0.00151536
0.00150086
0.00154403
0.0015298
0.00157209
0.00155818
0.0015994
0.00158588
0.00162583
0.00161277
0.00165124
0.0016387
0.00167545
0.00166354
0.00169841
0.00168713
0.00171997
0.00170941
0.00173945
0.00173007
0.00175666
0.00174856
0.00177089
0.00176338
0.00179033
0.0017821
0.00180634
0.00180005
0.00178793
0.00178482
0.00178298
0.00177002
0.0017716
0.000882821
0.000883901
0.00179279
0.00177837
0.00178141
0.00178855
0.00178974
0.00179645
0.00180156
0.00180544
0.00180739
0.00179335
0.00178254
0.00178206
0.00179066
0.00179029
0.0018046
0.00179258
0.0018054
0.00179624
0.00180395
0.00179448
0.00181381
0.00181469
0.00181268
0.00180922
0.00177128
0.00177086
0.00178118
0.00175098
0.00174672
0.00173411
0.00174661
0.00171639
0.0017255
0.00169613
0.00170654
0.00167495
0.0016858
0.0016514
0.00166339
0.00162722
0.00163936
0.00160237
0.00161497
0.00157624
0.00158948
0.00154906
0.00156279
0.00152107
0.00153517
0.00149247
0.00150686
0.00146342
0.00147802
0.00143399
0.00144877
0.00140428
0.00141919
0.00137432
0.00138934
0.00134417
0.00135929
0.00131387
0.00132906
0.00128344
0.00129869
0.00125293
0.00126821
0.00122234
0.00123766
0.00119169
0.00120704
0.001161
0.00117637
0.00113028
0.00114566
0.00109951
0.00111492
0.00106871
0.00108413
0.00103786
0.00105331
0.00100695
0.00102243
0.000975983
0.00099148
0.000945158
0.000960455
0.000911568
0.000928065
0.000879982
0.000895978
0.000870206
0.000862919
0.000866875
0.000877117
0.000873448
0.000882555
0.000880288
0.000886258
0.000884531
0.00088877
0.000887683
0.000889909
0.000889514
0.000889655
0.000889956
0.000888042
0.000889012
0.000885234
0.00088678
0.000881121
0.000883381
0.000874274
0.000877816
0.000868038
0.000871159
0.000896791
0.00086505
0.000881441
0.000929259
0.000913753
0.0009622
0.000946061
0.000992751
0.000977418
0.00102353
0.00100817
0.00105428
0.00103893
0.00108498
0.00106966
0.00111565
0.00110034
0.00114628
0.00113099
0.00117689
0.00116161
0.00120747
0.00119221
0.00123803
0.00122278
0.00126856
0.00125333
0.00129903
0.00128383
0.00132943
0.00131427
0.00135973
0.00134463
0.0013899
0.00137487
0.00141988
0.00140494
0.00144961
0.00143481
0.00147902
0.00146439
0.00150804
0.00149362
0.00153655
0.0015224
0.00156445
0.00155062
0.00159162
0.00157817
0.00161792
0.00160493
0.00164322
0.00163074
0.00166735
0.00165547
0.00169019
0.00167897
0.00171157
0.00170112
0.00173106
0.00172162
0.00174837
0.00174008
0.00176363
0.00175602
0.00177766
0.00177188
0.00177796
0.00179516
0.00179712
0.00180875
0.00180323
0.00178044
0.001782
0.00179951
0.00178841
0.00179122
0.000876678
0.00085999
0.000852517
0.000849732
0.0017985
0.00179888
0.00180497
0.00180958
0.00181264
0.00181411
0.00178169
0.00177436
0.0017743
0.00178466
0.00179412
0.00180407
0.0018115
0.00180261
0.00180727
0.00181979
0.00181844
0.00181354
0.00181171
0.00179444
0.00179938
0.00178174
0.00177484
0.00176911
0.00175701
0.0017712
0.00173956
0.00174608
0.00172536
0.00173393
0.0017075
0.00171665
0.00168738
0.00169768
0.00166601
0.00167692
0.00164287
0.00165464
0.00161878
0.00163093
0.00159387
0.00160648
0.00156785
0.00158102
0.00154086
0.00155449
0.00151308
0.00152708
0.0014847
0.00149898
0.00145584
0.00147034
0.00142661
0.00144129
0.00139707
0.0014119
0.0013673
0.00138224
0.00133733
0.00135236
0.00130721
0.00132231
0.00127697
0.00129212
0.00124663
0.00126183
0.00121623
0.00123146
0.00118577
0.00120102
0.00115526
0.00117054
0.00112472
0.00114002
0.00109415
0.00110946
0.00106354
0.00107887
0.00103289
0.00104824
0.00100219
0.00101756
0.000971435
0.000986829
0.00094099
0.000956132
0.000908345
0.000924901
0.000891839
0.000855276
0.000847383
0.000851952
0.000862175
0.000858734
0.000866695
0.000864579
0.000870329
0.000868644
0.00087276
0.000871706
0.000873871
0.000873484
0.000873633
0.000873921
0.000872063
0.000873012
0.000869235
0.000870799
0.000865264
0.000867408
0.00085901
0.000862445
0.00085561
0.000894105
0.000861765
0.000878851
0.000926217
0.000910025
0.000957651
0.000942349
0.000988202
0.000972919
0.00101878
0.00100352
0.00104932
0.00103408
0.00107983
0.0010646
0.0011103
0.00109509
0.00114075
0.00112555
0.00117117
0.00115598
0.00120157
0.0011864
0.00123194
0.00121679
0.00126228
0.00124715
0.00129258
0.00127747
0.0013228
0.00130773
0.00135292
0.00133791
0.00138291
0.00136797
0.00141271
0.00139787
0.00144227
0.00142756
0.00147151
0.00145697
0.00150035
0.00148602
0.0015287
0.00151463
0.00155644
0.00154269
0.00158346
0.00157009
0.00160963
0.0015967
0.0016348
0.00162238
0.00165883
0.001647
0.00168156
0.0016704
0.00170281
0.00169242
0.00172225
0.00171281
0.00173963
0.00173126
0.0017551
0.00174751
0.00176789
0.00176225
0.00177775
0.00177257
0.00179145
0.00178007
0.00179822
0.00179035
0.00178424
0.00180386
0.00180538
0.0017904
0.00179189
0.000844175
0.000846055
0.00180404
0.00179804
0.00180046
0.00180744
0.00180748
0.00181297
0.00181685
0.00181923
0.00182005
0.00177806
0.0017688
0.00176357
0.00178234
0.00177666
0.00178723
0.00177696
0.00178956
0.00179408
0.00180626
0.00181042
0.00181619
0.00181253
0.00182405
0.00182078
0.001815
0.0018096
0.00180114
0.00179512
0.00179168
0.00177471
0.00177522
0.00176326
0.00175271
0.00174451
0.00176024
0.00173102
0.00173722
0.00171609
0.00172419
0.0016981
0.00170734
0.00167818
0.00168838
0.00165681
0.00166771
0.00163391
0.00164555
0.00160994
0.00162206
0.00158505
0.00159764
0.00155914
0.00157224
0.00153232
0.00154586
0.00150475
0.00151864
0.00147657
0.00149075
0.00144792
0.00146232
0.00141888
0.00143347
0.00138954
0.00140427
0.00135996
0.0013748
0.00133018
0.00134512
0.00130025
0.00131526
0.0012702
0.00128526
0.00124006
0.00125516
0.00120985
0.00122498
0.00117958
0.00119474
0.00114927
0.00116445
0.00111893
0.00113413
0.00108856
0.00110377
0.00105815
0.00107337
0.0010277
0.00104295
0.000997221
0.00101248
0.000966698
0.000981979
0.000936244
0.000951449
0.000905089
0.000921011
0.000873384
0.000888473
0.000841131
0.00085714
0.000832546
0.000825161
0.000829297
0.000840145
0.00083599
0.000846353
0.000843691
0.00085082
0.000848668
0.000854377
0.000852742
0.000856736
0.000855712
0.00085782
0.000857441
0.000857594
0.000857871
0.000856072
0.000856992
0.0008533
0.000854839
0.000849405
0.000851475
0.000844551
0.000847171
0.000837535
0.000841092
0.000830727
0.000834001
0.000858814
0.000827629
0.000843116
0.000891021
0.000874667
0.000922598
0.000906617
0.000953027
0.00093785
0.000983452
0.000968261
0.00101383
0.000998667
0.00104417
0.00102902
0.00107447
0.00105934
0.00110474
0.00108963
0.00113499
0.00111989
0.00116521
0.00115013
0.00119542
0.00118034
0.0012256
0.00121054
0.00125575
0.00124071
0.00128586
0.00127084
0.00131589
0.00130091
0.00134583
0.0013309
0.00137563
0.00136078
0.00140524
0.00139049
0.00143461
0.00141999
0.00146367
0.00144922
0.00149234
0.00147809
0.00152051
0.00150653
0.00154809
0.00153442
0.00157496
0.00156166
0.00160099
0.00158812
0.00162603
0.00161367
0.00164995
0.00163817
0.00167258
0.00166147
0.00169372
0.00168338
0.00171311
0.00170369
0.00173052
0.00172212
0.00174593
0.00173846
0.00175877
0.00175286
0.00176848
0.00176403
0.00177627
0.00177262
0.00177446
0.00181159
0.00181274
0.00179104
0.00178526
0.00179986
0.0018012
0.00181187
0.00180693
0.00180913
0.000837928
0.000821679
0.000815209
0.00081168
0.00181551
0.0018155
0.00182027
0.00182347
0.0018251
0.00182531
0.00176895
0.00176323
0.00175157
0.00175716
0.00178387
0.00178682
0.00180086
0.00179872
0.00181235
0.0018167
0.00181911
0.00182705
0.00182244
0.00181659
0.00180605
0.00180214
0.00179336
0.0017773
0.0017833
0.00180106
0.00176365
0.00174728
0.00176386
0.00176932
0.00174953
0.00174681
0.0017354
0.00174639
0.00172187
0.00172837
0.0017064
0.00171458
0.00168844
0.00169768
0.00166866
0.00167879
0.00164735
0.00165821
0.00162461
0.00163616
0.00160075
0.00161282
0.00157592
0.00158848
0.00155014
0.00156317
0.00152349
0.00153694
0.00149611
0.00150991
0.00146814
0.00148221
0.00143969
0.00145399
0.00141085
0.00142534
0.00138172
0.00139634
0.00135233
0.00136707
0.00132275
0.00133758
0.00129302
0.00130792
0.00126317
0.00127813
0.00123323
0.00124823
0.00120322
0.00121825
0.00117316
0.00118821
0.00114306
0.00115813
0.00111292
0.00112801
0.00108275
0.00109786
0.00105256
0.00106768
0.00102233
0.00103746
0.000992065
0.00100722
0.000961771
0.000976937
0.000931462
0.000946625
0.000901203
0.000916358
0.000869554
0.000885057
0.000853763
0.000817933
0.000809743
0.00081445
0.000824949
0.000821299
0.000830454
0.000827893
0.000834947
0.000832812
0.000838407
0.000836819
0.0008407
0.000839704
0.000841757
0.000841387
0.000841543
0.000841809
0.000840071
0.000840962
0.000837391
0.000838879
0.000833583
0.000835617
0.000828832
0.000831349
0.000822154
0.000825726
0.000818535
0.000855722
0.000824777
0.000839988
0.000887691
0.000871436
0.000917984
0.000902765
0.000948297
0.000933165
0.000978527
0.000963441
0.0010087
0.000993638
0.00103882
0.00102378
0.00106891
0.00105389
0.00109898
0.00108397
0.00112902
0.00111403
0.00115904
0.00114406
0.00118905
0.00117408
0.00121903
0.00120407
0.00124899
0.00123404
0.00127889
0.00126397
0.00130873
0.00129385
0.00133847
0.00132364
0.00136807
0.00135332
0.0013975
0.00138284
0.00142668
0.00141215
0.00145555
0.00144119
0.00148403
0.00146988
0.00151203
0.00149813
0.00153944
0.00152585
0.00156616
0.00155293
0.00159204
0.00157924
0.00161696
0.00160466
0.00164076
0.00162904
0.00166329
0.00165223
0.00168435
0.00167406
0.00170371
0.0016943
0.00172114
0.00171272
0.00173651
0.00172911
0.0017494
0.00174338
0.00175945
0.00175478
0.00176635
0.00176353
0.00176948
0.00176798
0.00177578
0.00176695
0.00176937
0.00176457
0.0017693
0.00181852
0.0018186
0.00180866
0.00180992
0.000806399
0.000808383
0.00181898
0.00181505
0.00181717
0.00182289
0.00182283
0.00182688
0.00182932
0.00183021
0.00182948
0.00174251
0.00174637
0.00174529
0.00176085
0.00176551
0.00177346
0.00179344
0.00179432
0.00180696
0.00180928
0.00181671
0.00182088
0.00182898
0.00182342
0.00181593
0.0018087
0.00179888
0.00178702
0.00177489
0.00175781
0.00176883
0.00175804
0.00180982
0.00176127
0.00173723
0.0017511
0.00174752
0.00175039
0.00175389
0.0017374
0.00174273
0.00172649
0.00173336
0.00171235
0.00171944
0.00169655
0.00170478
0.00167861
0.00168783
0.00165889
0.00166898
0.00163764
0.00164847
0.00161502
0.00162651
0.00159127
0.0016033
0.00156654
0.00157904
0.00154088
0.00155384
0.00151439
0.00152775
0.0014872
0.0015009
0.00145943
0.0014734
0.00143118
0.00144538
0.00140255
0.00141693
0.00137361
0.00138814
0.00134443
0.00135907
0.00131506
0.00132979
0.00128554
0.00130033
0.00125589
0.00127075
0.00122616
0.00124106
0.00119636
0.00121129
0.00116651
0.00118146
0.00113663
0.00115159
0.0011067
0.00112169
0.00107676
0.00109175
0.00104678
0.00106179
0.00101677
0.0010318
0.000986739
0.00100178
0.000956675
0.000971724
0.000926588
0.000941647
0.00089659
0.000911574
0.000865568
0.000880981
0.000834714
0.000850239
0.000803372
0.000818604
0.000794986
0.000787394
0.000791669
0.000802893