/*--------------------------------*- C++ -*----------------------------------*\
  =========                 |
  \\      /  F ield         | OpenFOAM: The Open Source CFD Toolbox
   \\    /   O peration     | Website:  https://openfoam.org
    \\  /    A nd           | Version:  10
     \\/     M anipulation  |
\*---------------------------------------------------------------------------*/
FoamFile
{
    format      ascii;
    class       surfaceScalarField;
    location    "82.5";
    object      phi;
}
// * * * * * * * * * * * * * * * * * * * * * * * * * * * * * * * * * * * * * //

dimensions      [0 3 -1 0 0 0 0];

internalField   nonuniform List<scalar> 
57492
(
0.000235209
-1.05746e-05
-4.36197e-05
-0.000181014
-0.000162096
0.000266867
0.000130437
-2.87435e-05
8.08013e-05
0.000323165
-0.000375222
0.0031599
0.00338639
-0.000272137
-0.00627414
-0.00862825
0.00404526
0.00774289
0.000663532
-0.000609775
-0.000319928
0.000266171
-0.00118106
0.000200925
-6.80596e-05
0.00104819
0.00025472
-0.000772245
0.0015927
-0.00463289
0.0044251
-0.00138492
0.00134415
0.00424848
-0.00399993
-0.000610387
-0.00020605
0.000682696
0.00013374
-0.000122147
-0.000830577
0.000342337
0.000231367
-0.000324599
-2.89149e-05
-5.31362e-05
7.84533e-05
0.00158391
-0.0015301
-0.000573293
0.000519483
0.000229078
0.0012787
7.61326e-05
-0.000324907
0.000788764
0.00333523
-0.00379909
-0.000661034
0.00326113
-0.002925
0.000135389
-0.000288417
0.000153029
-0.0016626
0.00121943
0.000578563
-0.00465977
0.000189139
0.00333541
0.00113521
0.00122861
-0.00472994
-0.00115845
-0.000132868
-0.000195853
-0.000701044
0.00102977
-0.000286545
0.000175672
-2.19955e-05
-0.00254242
0.00215817
0.000733442
-0.000349194
-0.0030461
0.00092568
-0.000421997
-0.00112673
0.000595833
0.000456426
7.44741e-05
-0.000778349
-0.000361914
1.35289e-05
-0.000366977
-0.00113291
0.00128967
0.000210219
-0.000415705
0.000116279
-6.75511e-05
0.00069095
-0.000459593
-0.000428315
0.000196958
-0.000595917
0.000481145
0.000805722
-0.000817649
-0.00156749
0.00152481
0.000860335
-0.00186945
-0.000444968
0.00149677
-0.000707288
-0.000151973
0.000859261
-0.0002712
-0.000436088
-0.00137457
0.00189189
-0.000788523
0.000203038
-0.00076735
-0.000810259
-0.00052172
0.000722645
-0.00023305
-0.00190189
0.00115086
0.000751032
-0.00432178
0.00241989
0.00486528
-0.000803216
0.000333809
-0.00439587
0.00357595
-9.55039e-05
0.00138483
-0.000710895
0.00488327
-0.00497559
0.0013002
0.000281911
-0.00132739
0.00131253
-8.039e-05
0.00159258
-0.000597167
-0.00118664
0.000191226
0.00178282
9.16655e-05
0.000807694
-0.00050367
0.00100851
0.000791259
0.00106463
-0.0047571
-0.000632642
0.00054326
0.00484649
-0.00489037
-0.000296151
0.000429413
0.00122043
0.00451244
-0.00443724
-0.00129563
0.000892266
-0.00430473
-0.00277306
0.00252619
0.00253068
-0.00228381
-0.000270491
0.0031999
-0.00570247
1.48022e-05
-0.000116389
-7.97911e-07
0.000102385
-0.000320402
1.06055e-05
6.68554e-05
-0.000135648
-0.00025161
-5.61822e-05
6.64852e-06
1.10978e-05
-1.18957e-05
8.82719e-06
2.2706e-06
0.00729868
0.00378499
-0.00587623
-0.00520744
0.00233721
-0.000701984
0.00566346
-0.00784896
0.00309916
0.00708701
0.00229328
-0.00635726
0.00162384
-0.00286529
0.00213318
-0.000891731
0.00235568
-0.00291385
0.00218201
-2.97806e-05
2.17591e-05
-2.55317e-06
-7.00102e-05
-3.39e-06
-0.000222125
-2.89002e-05
-0.00293753
0.0053462
0.00339227
-0.00580093
0.00436237
-0.00494423
0.00298389
0.00474591
-0.00238361
0.0100796
-0.00147808
-0.00179147
-0.00681009
0.00224497
0.00541575
0.00241892
0.00160745
-0.00500197
0.00563948
4.67588e-05
-7.55023e-05
0.00012756
0.000815485
0.00175644
-0.000625923
-0.001946
0.00103911
9.95411e-05
-9.54968e-05
2.62278e-05
6.92689e-05
-0.000297456
0.000201959
-0.00660277
0.00342358
-0.00201298
0.00519217
-0.00574045
-0.0024947
0.00163239
-0.00262457
0.00208745
-0.00520333
0.00195102
-2.66193e-05
-0.000943912
-0.000980487
-0.000711306
0.00222663
0.000435696
-0.000834254
-8.52154e-05
0.000208163
-0.000771228
-8.96449e-05
-0.000271379
-0.00144376
-0.000237822
-6.23639e-05
1.89631e-05
0.000281223
-0.000214875
-0.000521167
0.000498221
0.000137699
1.69425e-05
-0.000369517
7.95185e-05
-4.18364e-06
0.000101091
-2.60953e-06
-0.000640866
0.000369487
8.34519e-05
-0.000724318
0.000172164
-0.00046962
0.00427364
0.00333161
-0.000178532
0.00212861
-0.00648322
-1.04151e-05
0.00226403
-0.0017975
-0.000456112
0.00029166
0.00316422
-0.00346629
0.00326813
0.00183827
-0.000497305
-0.0046091
-0.00103428
0.000502959
0.00379946
0.00398559
-0.0031816
-0.00164298
-0.00303446
0.00125204
0.0034254
-0.00118428
0.0035047
-0.0039634
0.000424073
-0.00464281
8.22971e-05
3.37297e-05
-4.56882e-06
0.001043
-0.000615197
-0.000589895
7.62932e-05
-0.000322944
0.00128965
0.000362303
-1.91425e-05
-0.000187116
0.000331899
6.83231e-05
-0.000213107
0.000991913
-0.00121574
3.67089e-05
-0.000357763
0.000830971
0.000518705
-0.000125163
9.92994e-05
-0.00611109
0.00365191
0.00588276
0.00772172
-0.00200518
-0.00821124
-0.00285424
0.00446488
-9.70706e-05
-0.000873823
-0.000162021
-0.000521895
9.11914e-06
4.77385e-05
-0.000130053
3.74701e-05
4.48446e-05
-0.000129929
0.000144282
3.33855e-05
-0.000298971
3.89888e-05
-0.000265127
-0.000312567
5.57996e-05
-0.000803208
-0.000335743
-0.00074897
-0.000803172
0.000917303
0.000634839
3.0649e-05
0.000396841
-0.00117646
-0.00104695
0.000274432
-0.00293282
0.00133017
-5.99547e-05
-0.00350131
0.000809225
-0.000240728
0.000875902
-0.00334739
0.00256424
-9.27481e-05
0.000678948
-0.00272858
0.00292553
0.00252812
-0.0101973
-0.00176486
0.00218108
0.00302052
-0.0034552
0.00206062
-0.000320696
2.715e-07
1.6671e-05
-3.50055e-06
3.77205e-06
0.000284098
-4.12782e-05
0.00557881
-0.00340943
-0.00249459
0.000325209
0.00483036
3.75529e-05
0.00463756
0.000169357
-0.00507741
0.00138011
0.00329321
-3.57604e-05
0.000551418
-0.00290901
0.0037377
5.31831e-06
-8.81886e-06
0.000759151
-0.00211946
-0.0028459
0.00123141
0.00308266
0.000779246
-4.46779e-05
-0.000819121
8.45535e-05
0.000259282
-7.59531e-05
-0.00100376
0.00022352
0.00126139
0.000183057
-0.000927536
-0.000134943
7.61005e-05
-7.03314e-06
1.03312e-05
-2.9663e-06
-3.31796e-07
1.09374e-05
-2.55031e-07
-1.77155e-05
4.67695e-05
-0.000103293
6.74611e-05
-0.00171446
0.00264719
-0.00076057
0.0029155
-0.00378067
-0.000849298
6.83908e-06
-0.00138179
0.00159848
-0.00398898
0.000240894
-0.00273469
-0.00182976
0.000575478
0.00269069
0.0029117
-0.00541326
0.00260575
0.00429246
-0.00420752
0.00224079
-0.00308399
0.00160584
-0.000762638
0.00245606
-0.00302312
0.00280785
0.00437011
0.00187701
0.0050025
-0.000229142
-0.00496799
0.000194641
0.00554364
-0.000657665
0.000116519
0.00552838
-0.000906511
8.61727e-05
-0.00470804
0.00396781
-0.00137857
0.00293914
0.00430746
-0.00140603
0.00114302
-0.00404445
0.00127179
0.00438737
-0.0013517
-0.00387569
-0.00166744
0.00413711
0.00106859
-0.00369223
-0.00186186
0.00361981
-0.00238033
-0.00323864
0.0021563
0.00346267
-0.00239616
-0.00326666
0.00328249
0.00223596
0.00304542
-0.00147543
-0.00380595
0.00301917
-0.00317937
-0.00259027
0.00261496
0.00299448
-0.00204154
0.0024967
-0.0040685
0.00361455
-0.00102148
-0.00506484
0.00105435
0.00537421
-0.00136373
0.00191102
-0.000263236
0.000988854
-0.00105461
0.000328994
-0.000106999
0.00126776
-0.001424
-5.29111e-05
0.00030478
0.000110434
-0.00100726
-0.00158195
0.00103016
-1.51577e-07
-1.03454e-07
3.08297e-07
-4.59875e-07
-9.2166e-05
-0.00174429
0.00133279
-0.00155773
-6.17573e-05
0.00152732
4.18591e-05
-0.00163255
3.29701e-05
-0.000244787
0.00152902
0.000270319
-0.00155455
0.00157652
0.000432509
-0.00225382
0.00155531
0.00155023
-2.44903e-06
5.09151e-07
3.56696e-05
-4.74725e-06
2.29822e-06
-4.2381e-06
-5.53525e-06
4.22452e-06
-5.48715e-05
1.02266e-06
-6.55791e-06
5.24718e-06
-4.38722e-05
2.12608e-05
-0.000263933
2.21397e-05
-6.60119e-05
4.34005e-05
5.32159e-05
-5.34404e-06
-0.000173035
-1.69141e-05
7.013e-05
-2.22582e-05
0.00142769
0.00327801
-0.00420273
0.00132285
-0.00446111
0.00456594
0.00471325
-0.000112389
-0.00118219
-0.00244411
0.00115806
0.00246824
-0.000710344
0.00272148
-0.00319332
0.000157397
-0.00331185
0.00360474
-0.00361793
-1.06337e-05
2.38248e-05
0.00362379
3.31535e-05
-5.2203e-05
-2.14039e-05
-0.00359152
-5.0052e-06
0.00367158
-9.66324e-07
-4.68322e-05
0.00375795
5.35868e-05
-0.000139957
2.62113e-05
0.00387284
-0.000141095
0.0038256
-0.00378229
-1.71061e-05
-0.000181748
0.00407565
-2.10694e-05
0.00373937
-9.55174e-05
-0.00364616
-8.25371e-05
-0.00361321
-3.39139e-05
-0.00358756
7.49713e-06
-0.00364344
4.52508e-05
-0.00356286
-0.000101985
-0.000178219
0.00427477
-2.08941e-05
0.00358396
-2.28083e-05
-1.63557e-05
-0.00354006
-3.51032e-05
-0.00357064
-8.58074e-06
-2.33972e-05
-0.00372271
0.000206052
-2.8692e-06
0.00429798
-2.03463e-05
0.00360419
-2.30963e-05
-0.00367967
8.56381e-05
0.00432113
-3.0869e-06
-2.00626e-05
-3.50301e-06
0.00434404
-1.94009e-05
0.00362408
-2.29731e-05
0.00364392
-2.33518e-05
-1.89391e-05
-0.00367789
-2.58857e-05
-0.00367684
-2.17752e-05
-3.59413e-06
0.00436676
-1.91244e-05
0.00366355
-2.32234e-05
2.25797e-06
-0.00365378
-2.63676e-05
-0.00365263
-2.19468e-05
-3.8519e-06
0.00438907
-1.84592e-05
0.00368329
-2.35883e-05
2.64132e-06
-0.0036294
-2.70186e-05
-0.00362833
-2.16592e-05
-3.68001e-06
0.00441096
-1.82094e-05
0.00370305
-2.34355e-05
2.82038e-06
-0.00360483
-2.73928e-05
-0.00360366
-2.18502e-05
-3.44931e-06
0.00443196
-1.75511e-05
0.00372337
-2.37718e-05
3.16875e-06
-0.00358005
-2.79522e-05
-0.0035789
-2.15866e-05
-2.31947e-06
0.00445161
-1.7333e-05
0.00374463
-2.35786e-05
1.16215e-05
-0.00356341
-2.82554e-05
-0.00354553
-2.1753e-05
-1.8733e-07
0.00446848
-1.66855e-05
0.0037683
-2.38591e-05
2.67722e-05
-0.00343859
-0.000151593
-0.00346073
-5.80293e-05
4.70018e-06
0.00448028
-1.64966e-05
0.00377933
-6.32661e-06
2.65414e-05
-0.00343097
-3.41636e-05
-0.00341082
-2.33634e-05
1.43083e-05
0.00448184
-1.58669e-05
0.00377093
2.27054e-05
5.25588e-05
-0.00328567
-0.000197862
-0.00328855
-6.97133e-05
0.00018753
0.00431
-1.56928e-05
0.00390416
5.43026e-05
5.94067e-05
-0.00324664
-9.84309e-05
-0.0032288
-3.49074e-07
0.000166242
0.00401156
0.000132196
0.0039873
8.30947e-05
9.16068e-05
-0.000152382
-0.00318587
-0.00319211
5.49167e-05
7.47572e-06
2.41923e-05
0.00397989
0.00397997
1.48122e-05
-0.00326939
0.00334537
-0.000174404
-0.00326345
-0.000158324
0.000152191
-0.000157966
-0.00318009
5.3951e-05
-0.00309387
-0.00329702
0.00334962
-8.67645e-05
-0.000149511
-0.00324993
0.00327287
-5.11988e-05
-5.19067e-05
-0.00329546
0.00331789
-4.98318e-05
-5.05343e-05
-0.00334001
0.00336203
-4.83895e-05
-4.91339e-05
-0.0033838
0.00363686
-4.70074e-05
-4.76554e-05
-0.00364812
0.00361948
2.3633e-05
-4.63595e-05
-0.0037577
0.00374977
-4.42639e-05
-0.000114401
-0.00364975
0.00361676
-0.000106968
5.31846e-05
-0.00355086
0.00357119
-4.13925e-05
-7.51979e-05
-0.00359113
0.00361096
-4.01794e-05
-4.08368e-05
-0.00363052
0.00365005
-3.89329e-05
-3.96237e-05
-0.00366932
0.00368855
-3.76934e-05
-3.83855e-05
-0.00370751
0.00372644
-3.64815e-05
-3.71673e-05
-0.00374509
0.00376371
-3.53036e-05
-3.59814e-05
-0.00378203
0.0038003
-3.41347e-05
-3.48261e-05
-0.00379613
0.00390329
2.50322e-05
-1.15181e-05
0.00391144
1.60399e-05
-2.86971e-05
6.33313e-05
0.00394526
-2.66768e-05
0.00397795
0.00390024
-0.00381833
-2.76083e-05
-0.0039566
0.00396646
4.95655e-06
2.6731e-05
0.00379981
-0.00376409
-4.20456e-05
4.18418e-06
0.00374561
-0.00372679
-4.24024e-05
-4.23376e-05
0.00370797
-0.00368882
-4.25855e-05
-4.25894e-05
0.00366967
-0.0036502
-4.27006e-05
-4.27339e-05
0.00363071
-0.0036109
-4.27905e-05
-4.28339e-05
0.00359106
-0.00357096
-4.29124e-05
-4.29307e-05
0.0036234
-0.00359752
-4.2984e-05
-4.30745e-05
0.00363699
-0.0035767
-9.42059e-05
-4.30712e-05
0.0035325
-0.00348869
1.44254e-06
-3.66985e-05
0.00351107
-0.00351237
-7.27398e-06
-7.96115e-05
0.00338313
-0.00336129
-4.36148e-05
-4.36045e-05
0.00333936
-0.00331706
-4.39564e-05
-4.38808e-05
0.00329467
-0.00327191
-4.43477e-05
-4.42415e-05
0.003249
-0.00326222
-4.48097e-05
-4.46582e-05
0.00324041
-0.0032647
-4.54184e-05
-4.51794e-05
0.00321911
-0.00314908
-1.51122e-05
-4.59405e-05
-0.00309208
-3.04816e-06
-0.00326358
-0.000157839
0.00394195
3.28264e-05
-4.0733e-05
0.00398052
9.45958e-05
-0.000107343
-0.00308112
4.77428e-05
-0.00304523
0.000135797
-0.000154007
-0.00324537
-0.00315164
-0.00327224
0.0032422
-0.000144366
0.00328627
-0.00328957
-0.000154541
-0.000144293
-0.00322344
0.00324652
-0.000109849
-0.000130748
-0.00326921
0.00329176
-7.37541e-05
-7.45878e-05
-0.00331396
0.00333603
-7.18994e-05
-7.27346e-05
-0.00335777
0.00337942
-7.00368e-05
-7.08764e-05
-0.00340079
0.00342201
-6.82284e-05
-6.90255e-05
-0.00344292
0.00353307
-6.65173e-05
-6.72693e-05
-0.00348423
0.00350474
-6.47657e-05
-6.55655e-05
-0.00362183
0.00357798
-6.31172e-05
-6.39078e-05
-0.0035649
0.00358483
-6.13278e-05
-6.21186e-05
-0.00360445
0.00362399
-5.97195e-05
-6.04521e-05
-0.00364324
0.00366246
-5.81528e-05
-5.88774e-05
-0.00368141
0.00370032
-5.66115e-05
-5.73291e-05
-0.00371897
0.00373758
-5.50982e-05
-5.58079e-05
-0.00375592
0.00377422
-5.36104e-05
-5.43152e-05
-0.00379223
0.00381019
-5.20926e-05
-5.28361e-05
-0.00382761
0.00387561
-2.29675e-05
-2.89331e-05
-4.26078e-06
-2.23524e-05
0.00397187
-2.87715e-05
0.00396646
-0.00388119
0.00393689
-2.28793e-05
1.04592e-05
0.00392262
-0.00390598
-1.168e-05
0.00390824
-2.63507e-05
2.05009e-05
5.29669e-06
0.00395472
0.00397609
0.00388902
-0.0038436
-7.30351e-05
9.76954e-06
0.00379317
-0.00377494
-6.02762e-05
-4.62384e-05
0.00375674
-0.0037382
-6.09367e-05
-6.05433e-05
0.00371968
-0.00370083
-6.1438e-05
-6.11106e-05
0.00368198
-0.00366281
-6.1873e-05
-6.1578e-05
0.00364364
-0.00362415
-6.22823e-05
-6.20021e-05
0.00360467
-0.00358488
-6.2695e-05
-6.24168e-05
0.00356512
-0.00354502
-6.30899e-05
-6.28364e-05
0.00352486
-0.00355553
-6.3533e-05
-6.32314e-05
0.00352852
-0.00346309
-6.39869e-05
-6.37113e-05
0.00347847
-0.00342114
-6.46081e-05
-6.42237e-05
0.00339991
-0.00337833
-6.5197e-05
-6.48308e-05
0.00335669
-0.0033347
-6.59462e-05
-6.55192e-05
0.00331262
-0.00329016
-6.68055e-05
-6.63259e-05
0.00326757
-0.00324458
-6.78002e-05
-6.72479e-05
0.00322143
-0.00319785
-6.89954e-05
-6.8334e-05
0.00317412
-0.00311879
-7.04446e-05
-6.96679e-05
0.00307762
-0.00301304
-1.68403e-05
-4.42181e-05
-0.0032881
-0.000155472
3.43208e-05
-0.000104727
-0.00297482
-0.00297141
-7.30814e-06
-0.000174619
-0.00301123
-2.31183e-05
0.00393124
0.00393199
-1.84578e-05
-0.000101525
9.47136e-05
-0.00323856
-0.000124077
-0.00326555
1.22884e-05
-0.000100674
-0.00288644
-3.02029e-05
-0.00292892
-0.00323154
0.00395899
-0.0039312
-5.06732e-05
0.00393526
6.1739e-07
2.95795e-05
-7.52775e-06
0.00393267
-1.12011e-05
0.00397277
-0.00326506
0.00332468
-0.0001837
-0.000169436
0.00012667
-0.00322279
0.00331655
1.39633e-05
0.000171815
-0.00350232
-0.000117946
-0.00334466
0.00334132
-0.000151196
-0.000175457
-0.00332067
0.00328923
-0.000112923
-0.000123646
-0.00328678
0.00327508
-9.8148e-05
-0.000128301
-0.00329724
0.00331924
-9.57507e-05
-9.67518e-05
-0.00334088
0.00336238
-9.34029e-05
-9.43714e-05
-0.00338357
0.00340465
-9.11237e-05
-9.20616e-05
-0.00342545
0.00344614
-8.89254e-05
-8.98188e-05
-0.00346654
0.00348684
-8.68129e-05
-8.76681e-05
-0.00350686
0.00352684
-8.47425e-05
-8.55883e-05
-0.00354649
0.00356611
-8.27387e-05
-8.35615e-05
-0.00358552
0.0036049
-8.07093e-05
-8.15244e-05
-0.00362401
0.00364307
-7.8782e-05
-7.95583e-05
-0.00366186
0.00368061
-7.69077e-05
-7.76638e-05
-0.00369909
0.00371755
-7.50702e-05
-7.58126e-05
-0.00373574
0.0037539
-7.32616e-05
-7.39941e-05
-0.00377179
0.00378965
-7.14705e-05
-7.22009e-05
-0.00380722
0.00382476
-6.96368e-05
-7.04085e-05
-0.00385252
0.00387554
-4.5983e-05
-5.66906e-05
-4.5204e-05
1.2839e-05
-1.40507e-05
0.00397308
-1.10463e-05
-3.67077e-05
0.00397899
0.00396825
0.00395452
0.00392507
-0.00390438
-3.23735e-05
-0.00393594
0.00393042
-1.29405e-05
-3.72203e-05
0.00384351
-0.00383954
-7.69989e-05
-5.11004e-05
0.00380849
-0.00379068
-7.8089e-05
-7.72886e-05
0.0037729
-0.0037548
-7.90361e-05
-7.83194e-05
0.00373672
-0.00371831
-7.98482e-05
-7.91963e-05
0.00369991
-0.00368119
-8.05938e-05
-7.99786e-05
0.00366247
-0.00364345
-8.13103e-05
-8.07158e-05
0.00362442
-0.0036051
-8.20226e-05
-8.1438e-05
0.00358577
-0.00356612
-8.27388e-05
-8.21617e-05
0.00354645
-0.00352647
-8.35101e-05
-8.29027e-05
0.00350647
-0.00348612
-8.43329e-05
-8.37168e-05
0.00346575
-0.00344508
-8.52734e-05
-8.45992e-05
0.00342433
-0.00340324
-8.62845e-05
-8.5581e-05
0.00338209
-0.00336059
-8.74478e-05
-8.66745e-05
0.00333899
-0.00331703
-8.87672e-05
-8.79209e-05
0.00329494
-0.00327247
-9.02743e-05
-8.93344e-05
0.00324984
-0.00322681
-9.20272e-05
-9.09616e-05
0.00320361
-0.00317998
-9.40734e-05
-9.28657e-05
0.00312912
-0.00304946
-9.65068e-05
-9.50775e-05
0.00299471
-0.00297985
-4.50679e-05
-6.20564e-05
-1.95764e-05
-1.77906e-06
-0.00290756
-0.00294351
-5.59136e-05
0.000120648
-0.00323253
-7.53877e-05
-0.00303651
-2.60129e-05
0.00392456
0.00396069
-4.1471e-05
0.000164253
-0.00337308
2.93278e-05
-0.00291754
0.000738643
-0.00270143
0.0035181
2.49798e-05
-6.51805e-05
-0.00290331
-2.54708e-05
-0.00285711
-0.00217953
0.00333298
0.000396781
-0.00166023
-0.000248978
-0.00318628
-0.00318373
0.0033389
1.66412e-05
0.000165023
-1.57778e-05
-0.0033266
0.00331752
-0.000174619
-0.000105645
-0.0033122
0.0032873
-0.000126299
-0.00017013
-0.00328796
0.003298
-0.000122959
-0.000124312
-0.00329073
0.00331241
-0.000119822
-0.000121034
-0.00333373
0.00335492
-0.000116936
-0.000118076
-0.00337579
0.00339654
-0.000114158
-0.000115241
-0.003417
0.00343736
-0.000111489
-0.000112519
-0.00345745
0.00347744
-0.000108923
-0.0001099
-0.00349716
0.0035168
-0.000106454
-0.000107383
-0.00353616
0.00355548
-0.000104058
-0.000104954
-0.00357452
0.00359351
-0.000101732
-0.0001026
-0.00361227
0.003631
-9.94394e-05
-0.000100282
-0.00364947
0.00366791
-9.7221e-05
-9.80301e-05
-0.00368609
0.00370424
-9.50574e-05
-9.58415e-05
-0.00372213
0.00373999
-9.29346e-05
-9.37008e-05
-0.00375759
0.00377517
-9.08404e-05
-9.15952e-05
-0.00379248
0.00380977
-8.87572e-05
-8.95114e-05
-0.00382678
0.00384377
-8.66313e-05
-8.74204e-05
-0.00387234
0.00391082
-8.44593e-05
-8.52589e-05
-0.00391754
0.00393079
-6.39247e-05
-5.19212e-05
-0.00396224
0.00397208
-3.58461e-05
-3.08374e-05
8.27006e-06
-9.65091e-07
0.00397169
3.08763e-05
-7.42214e-05
0.00401542
0.00396371
2.61889e-05
1.09546e-05
0.00393594
0.00399348
-4.71865e-06
-2.08041e-05
0.00395819
0.00396075
3.4083e-05
-7.10305e-05
0.00399764
0.00398605
0.00398345
-0.00395373
-4.2662e-05
-0.00406008
0.00397032
1.87281e-05
-0.000118102
0.00392833
-0.00390383
-5.68718e-05
-6.26166e-05
0.00386223
-0.00384529
-9.39351e-05
-9.27042e-05
0.00382836
-0.00381112
-9.53361e-05
-9.42184e-05
0.0037939
-0.00377637
-9.6567e-05
-9.55377e-05
0.00375885
-0.00374102
-9.76806e-05
-9.67146e-05
0.00372319
-0.00370506
-9.87271e-05
-9.78023e-05
0.00368693
-0.0036685
-9.97423e-05
-9.88428e-05
0.00365007
-0.00363134
-0.000100754
-9.98667e-05
0.0036126
-0.00359356
-0.000101784
-0.000100898
0.00357449
-0.00355513
-0.000102875
-0.000101967
0.00353574
-0.00351603
-0.000104043
-0.00010311
0.00349628
-0.00347623
-0.000105324
-0.000104341
0.00345612
-0.00343569
-0.000106722
-0.000105691
0.00341518
-0.00339434
-0.00010829
-0.000107181
0.00337341
-0.00335212
-0.000110049
-0.000108852
0.00333073
-0.00330897
-0.000112037
-0.00011073
0.00328707
-0.00326479
-0.000114305
-0.00011286
0.00324236
-0.00321954
-0.000116897
-0.000115295
0.00319655
-0.0031732
-0.000119859
-0.000118067
0.00311403
-0.00303589
-0.000123215
-0.000121219
0.00301872
-0.00298638
-9.75194e-05
-7.30816e-05
-6.00106e-05
4.05709e-05
-0.00288387
-0.00294413
-0.000102258
0.000115799
-0.00318408
-2.1232e-05
-0.00298595
0.000284593
-0.00291903
3.04605e-05
-0.00297348
0.00399579
-0.00398533
-4.63018e-05
0.00399535
-7.37894e-05
-2.38376e-05
2.24185e-05
0.00399906
-7.52103e-05
0.00402169
0.000299765
-0.00256869
5.84664e-05
-0.00287501
-0.00146117
-0.00175362
-0.00261472
0.00303279
-2.12878e-05
-4.08258e-05
3.68467e-05
-0.00287989
-8.01932e-05
-0.00290476
-0.00240132
-0.000462379
-0.00309172
-0.00318665
0.0032486
-4.53035e-05
1.11578e-05
-0.00329671
0.0032738
-0.000151712
-0.000153758
-0.00325286
0.0032742
-0.000147637
-0.000149187
-0.00329527
0.00331624
-0.000143928
-0.000145381
-0.00333697
0.00335759
-0.000140441
-0.000141768
-0.00337792
0.00339815
-0.000137166
-0.000138409
-0.0034181
0.00343796
-0.000134015
-0.000135191
-0.00345754
0.00347704
-0.00013099
-0.000132102
-0.00349628
0.00351544
-0.000128085
-0.000129135
-0.00353434
0.00355318
-0.000125289
-0.000126283
-0.00357175
0.00359028
-0.000122586
-0.000123532
-0.00360855
0.00362678
-0.000119963
-0.000120871
-0.00364478
0.00366274
-0.000117402
-0.000118275
-0.00368046
0.00369815
-0.000114911
-0.000115748
-0.00371559
0.00373301
-0.000112475
-0.000113284
-0.00375018
0.00376732
-0.000110081
-0.00011087
-0.00378422
0.00380109
-0.000107713
-0.00010849
-0.00381771
0.0038343
-0.000105353
-0.000106128
-0.00385064
0.00386697
-0.000102962
-0.000103759
-0.00388305
0.00389909
-0.000100502
-0.000101337
-0.00394603
0.00394836
-6.62574e-05
-9.88558e-05
-6.78062e-05
-3.6422e-06
-3.88717e-05
0.0040142
4.44689e-05
-4.96346e-05
0.00402059
0.00400454
-1.18699e-05
-5.0415e-06
0.00395285
0.00394273
-1.64114e-05
1.78529e-05
0.00395675
0.0039393
0.00402632
0.00400645
-0.00397981
-6.93011e-05
-0.00397301
0.00402491
-3.3171e-05
-8.46684e-05
0.00395251
-0.00390101
-0.000108371
-8.99097e-05
0.00388504
-0.00386876
-0.000110211
-0.000108678
0.00385251
-0.00383596
-0.000111888
-0.000110469
0.00381943
-0.00380259
-0.000113405
-0.000112072
0.00378576
-0.00376863
-0.00011481
-0.000113543
0.00375151
-0.00373409
-0.000116148
-0.000114925
0.00371667
-0.00369896
-0.000117453
-0.000116259
0.00368125
-0.00366325
-0.000118757
-0.000117578
0.00364523
-0.00362693
-0.000120091
-0.00011891
0.0036086
-0.00358999
-0.000121492
-0.00012029
0.00357134
-0.0035524
-0.000122984
-0.000121752
0.00353343
-0.00351415
-0.0001246
-0.000123317
0.00349482
-0.00347518
-0.000126363
-0.000125019
0.00345548
-0.00343545
-0.000128314
-0.000126887
0.00341535
-0.00339491
-0.000130484
-0.000128958
0.00337437
-0.0033535
-0.000132913
-0.000131266
0.00333251
-0.00331117
-0.000135643
-0.000133853
0.0032897
-0.00326789
-0.000138711
-0.000136761
0.00324594
-0.00322365
-0.000142141
-0.000140017
0.00320125
-0.00317853
-0.000145932
-0.000143626
0.00310395
-0.00305142
-0.000150054
-0.00014766
0.00300175
-0.0029588
-0.000123149
-0.000151926
-5.14091e-05
5.62266e-05
-0.00290958
-0.00292393
-8.62718e-05
9.02911e-05
-0.00298978
3.26547e-06
-0.00295876
-4.66844e-05
0.0039924
0.00402608
-7.63753e-05
0.000180807
-0.00280007
-0.000288029
-0.00342696
1.25088e-05
-0.00286923
3.15937e-05
-0.0029466
5.95669e-05
-0.00289773
-0.00341751
-0.000737424
0.000241811
-0.000494322
-0.003165
-0.000153895
-0.00303125
3.80184e-05
-0.00286168
-8.33297e-05
1.68293e-05
-0.00284308
-7.11958e-05
-0.00293607
-0.00299816
-0.00291691
0.00306808
-0.000172455
0.00304653
-0.00331848
-0.000465479
-0.00033276
-0.00318326
0.00324922
-0.000111262
-0.000104023
-0.00326982
0.00329036
-0.000172254
-0.000174359
-0.00331067
0.00333086
-0.000167819
-0.000169498
-0.0033508
0.00337065
-0.000163782
-0.00016532
-0.00339026
0.00340979
-0.000159963
-0.000161383
-0.00342905
0.00344822
-0.000156338
-0.000157669
-0.00346714
0.00348598
-0.000152855
-0.00015411
-0.00350457
0.00352308
-0.000149509
-0.000150691
-0.00354136
0.00355956
-0.000146293
-0.000147406
-0.00357753
0.00359544
-0.000143198
-0.000144247
-0.00361311
0.00363073
-0.000140208
-0.000141201
-0.00364811
0.00366546
-0.000137311
-0.000138255
-0.00368258
0.00369966
-0.00013449
-0.000135392
-0.00371652
0.00373335
-0.000131741
-0.000132604
-0.00374995
0.00376652
-0.000129048
-0.000129881
-0.00378286
0.00379917
-0.000126397
-0.000127207
-0.00381525
0.00383131
-0.00012377
-0.000124567
-0.00384712
0.00386292
-0.000121147
-0.000121942
-0.00387847
0.003894
-0.000118496
-0.000119307
-0.00390929
0.00392458
-0.000115787
-0.00011663
-0.0039396
0.00398636
-0.00011302
-0.00011388
-0.00400307
0.00402625
-6.94826e-05
-8.45162e-05
-0.00398704
0.00401724
-7.68872e-05
-3.4573e-05
-1.03136e-05
1.17116e-05
0.00401919
8.06411e-05
-0.000115689
0.00405229
0.00406273
5.07628e-06
2.81368e-05
0.00398099
0.00402132
-1.16267e-05
-5.09587e-06
0.00396957
0.00395924
2.17353e-05
-3.82369e-05
0.00397325
0.00395594
2.57577e-05
-4.84368e-05
0.00402174
0.00401384
7.11948e-05
-8.07235e-05
0.0040356
0.00404445
0.00406161
-0.00400173
-9.30537e-05
-0.00405619
0.00404808
-7.26158e-05
-7.09531e-05
0.00399679
-0.00397371
-9.23816e-05
-8.96083e-05
0.00394197
-0.00392678
-0.000123555
-0.000121651
0.00391159
-0.00389611
-0.000125692
-0.000123874
0.00388064
-0.00386489
-0.000127642
-0.000125931
0.00384915
-0.00383312
-0.000129438
-0.000127814
0.00381709
-0.00380078
-0.000131125
-0.000129568
0.00378447
-0.00376787
-0.000132742
-0.000131235
0.00375128
-0.0037344
-0.000134327
-0.000132852
0.00371753
-0.00370037
-0.000135915
-0.000134455
0.0036832
-0.00366576
-0.000137539
-0.000136077
0.00364829
-0.00363055
-0.000139235
-0.000137754
0.00361278
-0.00359473
-0.000141035
-0.000139519
0.00357664
-0.00355827
-0.00014297
-0.000141403
0.00353986
-0.00352115
-0.000145073
-0.000143437
0.00350238
-0.00348331
-0.00014738
-0.000145656
0.00346417
-0.00344473
-0.000149928
-0.000148097
0.0034252
-0.00340536
-0.000152752
-0.000150796
0.00338542
-0.00336517
-0.000155892
-0.000153789
0.00334482
-0.00332416
-0.000159374
-0.000157113
0.00330339
-0.00328232
-0.000163213
-0.000160788
0.00326113
-0.00323965
-0.000167413
-0.000164815
0.0032181
-0.00319624
-0.000171912
-0.000169206
0.00317429
-0.00312063
-0.000176814
-0.000173875
0.00306905
-0.00299784
-0.00014241
-0.000137845
-0.000115658
6.81887e-05
-0.0028886
-0.00297783
-0.000135671
6.58026e-05
-0.00287477
-0.00332994
-0.000482858
6.22172e-05
-0.00284978
0.00409118
-0.00408925
-7.88181e-05
0.00410092
-0.000125426
-6.03266e-05
4.91173e-05
0.00404681
-6.30905e-05
0.00405085
4.21638e-06
-0.00293138
3.24847e-05
-0.00291952
-1.80749e-05
-0.00300505
6.04346e-05
-0.00292014
8.85e-05
-0.00293335
0.000116677
-0.00289157
-0.000103159
0.000107535
-0.00289297
-0.000156275
-0.00292471
-0.00292814
-0.00333241
0.0032032
-0.000336265
-0.000420448
0.000497665
-0.00340716
0.00344487
-0.00355448
-0.000310844
-0.000370399
-0.00310597
0.00317864
-0.000245129
-0.000235528
-0.00326094
0.00331675
-0.000167075
-0.000186319
-0.00333627
0.0033557
-0.000191679
-0.00019388
-0.00337487
0.00339392
-0.000186867
-0.000188676
-0.00341271
0.00343139
-0.000182466
-0.000184103
-0.00344983
0.00346819
-0.000178317
-0.000179827
-0.0034863
0.00350433
-0.000174371
-0.000175781
-0.00352213
0.00353986
-0.000170584
-0.000171909
-0.00355736
0.0035748
-0.000166945
-0.00016819
-0.00359201
0.00360916
-0.000163447
-0.000164615
-0.00362609
0.00364297
-0.000160078
-0.000161176
-0.00365963
0.00367624
-0.000156824
-0.000157859
-0.00369264
0.003709
-0.000153671
-0.000154651
-0.00372514
0.00374125
-0.000150605
-0.000151535
-0.00375715
0.00377302
-0.000147613
-0.000148501
-0.00378868
0.00380431
-0.000144679
-0.000145534
-0.00381972
0.0038351
-0.000141785
-0.000142616
-0.00385027
0.00386541
-0.000138914
-0.000139731
-0.00388033
0.00389522
-0.000136042
-0.000136857
-0.00390988
0.00392453
-0.000133141
-0.00013397
-0.00393894
0.00395333
-0.000130181
-0.000131041
-0.00396749
0.0039816
-0.000127127
-0.000128037
-0.00402204
0.0040501
-9.75471e-05
-0.000124953
-7.37266e-05
-5.59618e-05
1.52277e-05
0.00405992
5.74631e-05
-0.000102856
0.00409768
0.00406423
-4.37217e-05
2.76651e-05
0.00399705
0.00399283
-1.13658e-05
-5.12134e-06
0.00398606
0.00397554
2.15332e-05
-3.78369e-05
0.00398955
0.00397235
7.40213e-06
-3.56135e-05
0.00404995
0.00398341
0.00405795
0.00408162
-0.00407055
-0.000104119
-0.00408584
0.00407966
-6.64315e-05
-7.51787e-05
0.00402713
-0.00398421
-0.000135306
-0.000133026
0.00397019
-0.00395586
-0.000137881
-0.000135671
0.00394155
-0.00392696
-0.000140284
-0.000138188
0.00391238
-0.00389752
-0.000142501
-0.000140511
0.00388267
-0.00386754
-0.000144567
-0.000142666
0.00385241
-0.00383701
-0.000146523
-0.000144693
0.00382162
-0.00380595
-0.000148409
-0.000146632
0.00379028
-0.00377435
-0.000150263
-0.000148521
0.0037584
-0.0037422
-0.000152121
-0.000150396
0.00372598
-0.0037095
-0.000154021
-0.000152295
0.003693
-0.00367624
-0.000155998
-0.000154253
0.00365945
-0.0036424
-0.000158086
-0.000156305
0.00362532
-0.00360797
-0.000160321
-0.000158486
0.00359057
-0.00357291
-0.000162736
-0.00016083
0.00355519
-0.0035372
-0.00016537
-0.000163372
0.00351915
-0.00350082
-0.000168257
-0.000166149
0.00348242
-0.00346374
-0.000171432
-0.000169197
0.00344498
-0.00342594
-0.000174929
-0.000172549
0.00340682
-0.00338743
-0.000178771
-0.000176235
0.00336794
-0.00334819
-0.000182967
-0.000180272
0.00332834
-0.00330823
-0.00018752
-0.000184663
0.00328803
-0.00326754
-0.000192401
-0.000189408
0.00324694
-0.00322607
-0.000197678
-0.000194482
0.00316398
-0.00310324
-0.000203144
-0.000199938
0.00306722
-0.0030535
-0.000169993
-0.000171694
-0.000296861
0.000114946
-0.00284933
-0.00296419
-0.00012461
0.000131439
-0.00293154
-0.00298921
-0.000188903
2.25682e-05
-0.00283513
-7.27265e-05
0.00407079
0.00412675
-0.000110185
0.000250076
-0.00350311
-0.000301441
5.04114e-06
-0.00290394
0.000319464
-0.00347655
1.92405e-05
-0.00288709
3.30509e-05
-0.00289214
3.89123e-05
-0.00292901
6.13106e-05
-0.00289295
8.9899e-05
-0.00290657
0.000118502
-0.00290254
0.000116236
-0.00287777
-0.000152071
0.000130684
-0.00291015
-0.000167952
-0.00297333
-0.00290053
-0.00360072
0.00347809
-0.00018821
-0.000384752
-0.00342561
0.000307248
0.00367574
-0.00356052
-0.000499974
-0.000226428
-0.00340201
0.00334888
-0.000283134
-0.000294322
-0.00333528
0.00331057
-0.000220413
-0.000221929
-0.00334196
0.00339056
-0.000215678
-0.000217711
-0.00340877
0.00342693
-0.000209834
-0.000212093
-0.00344485
0.00346264
-0.000204664
-0.000206594
-0.00348019
0.00349763
-0.000199908
-0.000201648
-0.00351484
0.00353196
-0.000195439
-0.000197037
-0.00354886
0.00356568
-0.000191192
-0.000192677
-0.00358229
0.00359883
-0.000187125
-0.000188514
-0.00361516
0.00363143
-0.00018322
-0.00018452
-0.0036475