/*--------------------------------*- C++ -*----------------------------------*\
  =========                 |
  \\      /  F ield         | OpenFOAM: The Open Source CFD Toolbox
   \\    /   O peration     | Website:  https://openfoam.org
    \\  /    A nd           | Version:  10
     \\/     M anipulation  |
\*---------------------------------------------------------------------------*/
FoamFile
{
    format      ascii;
    class       volScalarField;
    location    "12";
    object      p;
}
// * * * * * * * * * * * * * * * * * * * * * * * * * * * * * * * * * * * * * //

dimensions      [0 2 -2 0 0 0 0];

internalField   nonuniform List<scalar> 
6397
(
5.24314
5.1517
-2.28241
-2.94906
-4.28707
-3.59647
8.58527
5.9924
-6.43817
-5.30184
2.32596
-1.49971
-0.255917
-0.201928
-0.259705
-20.9996
-18.5879
-19.5896
11.8414
12.1336
11.2148
-4.23542
-4.08925
-2.97622
-0.151522
-0.119061
-0.0675446
-2.38092
-2.76976
-1.82679
-1.92222
-2.89677
-2.55701
-3.4925
-0.948678
-1.02826
-2.01129
-1.85925
0.549184
0.702125
0.0176939
-0.135457
-1.74834
-3.22622
-2.48268
-2.84174
-3.94557
-3.14361
1.29253
1.28065
1.34398
1.27916
1.29882
3.21643
2.4866
3.73629
3.76729
2.51766
-3.11842
-3.54301
-2.66701
-2.27359
-2.00485
-1.88876
-1.92541
-2.10776
-2.42274
-2.89712
-4.28319
-3.77162
-4.66132
-3.68185
-3.03586
-2.46915
-2.04047
-1.77366
-1.67209
-1.69914
-1.84079
-2.0778
-4.68701
-3.73324
-3.48079
-2.39398
-4.45165
-3.52933
-4.0311
-2.68968
-3.94317
-3.18638
-4.35172
-2.89479
-3.31599
-2.69719
-4.32036
-2.86394
-4.43398
-2.81041
-3.63867
-5.26987
-5.04111
-4.71819
-5.21786
-3.13868
-3.95384
-1.87057
-2.42539
-1.26438
-1.4862
-1.17864
-1.17445
-1.38762
-1.26203
-1.63396
-1.54196
-1.62295
-5.39198
-5.82738
-5.89868
-3.68172
-4.57553
-2.38717
-2.93049
-1.83453
-2.02549
-1.90716
-1.79575
-2.39541
-2.12081
-2.7834
-2.64386
-2.56744
-2.7146
-2.09164
-2.3115
-2.1533
-2.06255
-2.0794
-1.53479
-2.65771
-7.17611
-5.22118
-6.36896
-1.44007
-0.640438
-0.650693
-1.50662
-2.71502
-1.85186
-1.62264
-3.92854
-4.55092
-3.63359
-5.67593
-5.26529
-4.78068
-5.40541
-2.95486
-3.8967
-1.50446
-2.1401
-0.760226
-1.05434
-0.51827
-0.593818
-0.568768
-0.516807
-0.657301
-0.633174
-0.649333
-6.63282
-7.25744
-4.35585
-5.54294
-2.54325
-3.3253
-1.65041
-2.0063
-1.41992
-1.46996
-1.59862
-1.4966
-1.7746
-1.73701
-1.64003
-1.75237
-1.42221
-1.51051
-1.43733
-1.69601
-1.79106
-1.17605
-1.4637
-5.18263
-4.3628
-2.38225
0.0427027
-0.00527328
-0.708181
-1.38776
-5.71782
-4.03421
-4.23904
-1.70725
-1.80058
-0.650377
-0.836967
-0.301338
-1.48592
-1.19233
-3.38747
-2.42041
-1.55087
-4.28857
-3.36023
-5.30355
-4.98051
-4.45986
-5.09185
-2.60486
-3.57524
-1.07486
-1.74887
-0.275041
-0.599276
0.0338787
-0.0777514
0.0735065
0.0702109
0.06341
0.0589456
0.0575312
-8.1553
-7.18734
-7.48624
-8.2629
-4.73377
-6.1677
-2.52458
-3.486
-1.38368
-1.85436
-0.917593
-1.08492
-0.858316
-0.860277
-0.88729
-0.879917
-0.810633
-0.868969
-0.86126
-0.81038
-0.982871
-1.31779
-1.56672
-0.99394
-0.0975369
-3.55073
-2.14075
-3.07491
-3.13682
-0.848589
-1.43888
-0.257171
0.0967904
-1.74958
-2.06275
-0.883319
-1.32516
-0.482259
0.0181386
-0.271822
-0.545706
-1.10873
-1.86794
-2.89776
-1.95162
-1.13718
-3.68165
-2.83443
-4.59393
-4.33568
-3.78573
-4.37436
-2.09019
-2.96325
-0.652579
-1.29022
0.130142
-0.18923
0.463303
0.339099
0.553495
0.526387
0.566158
0.561528
0.5441
0.563618
0.400986
0.498257
-0.00736283
0.239235
-5.82006
-2.80143
-4.1692
-8.47235
-7.41775
-7.71066
-8.59686
-4.68261
-6.25554
-2.28015
-3.32635
-1.01078
-1.5378
-0.418575
-0.653096
-0.203001
-0.281906
-0.121634
-0.154464
-0.117413
-0.10283
-0.319112
-0.175985
-0.545403
-1.05059
-1.42264
-0.645462
-2.28193
-1.85056
-0.957812
-0.369768
-2.94467
-2.02532
0.402382
-2.33082
-0.527955
-1.06869
-2.5365
-1.63208
-1.24216
-1.79069
-1.53432
-1.56051
-0.894008
-1.87719
-2.56081
-0.127426
0.659477
0.317393
-1.37636
-0.690196
-2.86006
-2.12193
-3.62716
-3.40425
-2.90496
-3.42342
-1.43096
-2.17827
-0.204581
-0.74945
0.479502
0.196756
0.790562
0.66936
0.901149
0.859403
0.929744
0.920198
0.918192
0.929514
0.777946
0.865809
0.429543
0.634762
-0.257898
0.138368
-2.34685
-0.656068
-1.32938
-5.34522
-3.72834
-7.93239
-6.89189
-7.19285
-8.10329
-4.19377
-5.73633
-1.84623
-2.86956
-0.578579
-1.11024
0.0537097
-0.205619
0.341724
0.224447
0.47982
0.42454
0.478968
0.499189
0.186399
0.37768
-0.11377
-0.866336
-0.232214
-1.62338
-0.761183
-2.4958
-1.73846
-2.79761
-3.10517
-1.87675
-2.36383
-0.855725
-1.35429
0.0510919
-0.378121
0.710213
0.417802
0.926019
-2.59149
-2.08265
-2.20918
-2.01191
-1.5125
-2.18203
0.0253154
-0.655786
-2.42725
-1.42737
-2.58174
0.862287
1.07392
-2.43375
0.210782
0.571053
-0.773441
-0.244342
-1.94283
-1.3704
-2.52945
-2.35933
-1.95865
-2.36677
-0.769094
-1.3757
0.222306
-0.216235
0.77527
0.546516
1.03052
0.928062
1.13626
1.09108
1.17721
1.16078
1.17573
1.18218
1.07508
1.14201
0.817221
0.964107
0.356767
0.620366
-0.457027
0.00719899
-0.0673653
0.632172
0.357992
-1.64782
-0.71829
-4.26209
-2.86872
-6.58037
-5.63257
-5.96164
-6.73511
-3.34657
-4.69334
-1.28158
-2.18548
-0.141775
-0.624972
0.459186
0.206456
0.761305
0.632242
0.927643
0.858696
0.929473
0.958631
0.632235
0.824973
-0.160321
0.30193
-1.50042
-0.75222
-2.32473
-3.26156
-3.97994
-3.73595
-1.99492
-2.66195
-0.702658
-1.31802
0.28835
-0.166209
0.935682
0.65394
0.16327
0.778179
-2.28931
-0.997974
1.24739
1.12819
-2.47618
-2.34765
-2.10075
-2.63102
-1.40911
-3.1389
-0.58313
-3.62874
0.819345
0.205325
-3.75016
-1.45741
-3.11386
1.23703
0.786573
1.23929
-1.60753
-0.130041
-0.163025
1.30281
1.35487
1.37973
-2.52469
1.00579
1.16709
0.502458
0.769975
-0.222443
0.16167
-1.06476
-0.652422
-1.48555
-1.36194
-1.07054
-1.3653
-0.189529
-0.640658
0.564924
0.230352
0.992936
0.815424
1.19121
1.11021
1.28995
1.24233
1.35839
1.32827
1.38509
1.37791
1.29988
1.35849
1.08523
1.20562
0.742358
0.92657
0.310772
0.540211
0.0786966
1.09043
1.20421
0.516076
0.87102
-0.778901
-0.0297342
-2.89928
-1.77501
-4.7403
-3.98089
-4.31703
-4.8376
-2.28724
-3.34814
-0.643964
-1.36513
0.274555
-0.118868
0.793374
0.569155
1.07241
0.951604
1.23969
1.16663
1.25952
1.27664
0.971329
1.16321
0.200339
0.654403
-1.17309
-0.404865
-2.02313
-4.72466
-4.72181
-3.78358
-4.40384
-2.12807
-2.97824
-0.58486
-1.30864
0.486983
0.0152705
1.10443
0.846081
1.26748
-2.57358
-2.85339
-2.18596
-3.57172
-1.45697
-4.4507
-0.60874
-5.10811
0.185962
-4.85319
1.22155
0.745178
-3.39032
0.128508
-1.22981
1.52143
1.19402
1.46548
0.684973
1.09433
1.44542
1.44892
1.44911
1.3176
1.38649
-2.8434
1.09596
1.23153
0.734885
0.930871
0.234608
0.502046
-0.325592
-0.0553007
-0.604913
-0.530343
-0.334123
-0.53822
0.274975
-0.0476222
0.813172
0.567065
1.13315
0.995778
1.2896
1.2228
1.38602
1.33597
1.45529
1.44875
1.4577
1.46422
1.37374
1.42479
1.2383
1.30866
1.09641
1.16557
0.874461
0.997533
0.743207
0.762113
0.837962
1.52767
1.53647
1.41183
1.4943
0.983014
1.24707
0.0189233
0.585119
-1.52517
-0.713269
-2.8151
-2.29241
-2.58263
-2.82845
-1.20523
-1.94225
-0.0189345
-0.546468
0.662804
0.369525
1.068
0.890112
1.3002
1.20163
1.44428
1.38266
1.47286
1.48346
1.22325
1.39345
0.526618
0.941632
-0.724967
-0.0354048
-1.5182
-4.8699
-3.9802
-5.35269
-5.34874
-4.21129
-4.94623
-2.28292
-3.26897
-0.536257
-1.34978
0.624014
0.126912
1.21983
0.977169
1.37224
-2.89414
-3.66224
-2.44688
-4.86795
-1.61447
-6.02604
-0.672633
-6.45367
0.155191
-5.29441
0.720855
-2.92369
1.37296
1.12922
-0.444195
1.79217
1.26744
1.40671
-3.42692
1.31834
1.3888
1.37875
1.14953
1.25591
0.89592
1.0378
0.56852
0.746496
0.235448
0.390482
0.0697782
0.111919
0.212537
0.0916363
0.603457
0.382134
0.979274
0.80129
1.21132
1.10824
1.33737
1.28272
1.41635
1.38177
1.47356
1.42749
1.48864
1.48884
1.4638
1.47976
1.41462
1.44476
1.32099
1.3717
1.22534
1.26754
1.26731
1.21744
1.57516
1.39357
2.02427
1.81242
1.6463
1.49885
1.58323
1.69297
1.68566
1.62412
1.67571
1.32925
1.51194
0.658723
1.04761
-0.321446
0.179848
-1.09258
-0.774145
-1.0568
-1.18252
-0.25722
-0.698065
0.511779
0.160169
0.993851
0.785573
1.29154
1.16064
1.47063
1.39799
1.57487
1.53464
1.59702
1.60841
1.39735
1.53847
0.832007
1.16553
-0.225808
0.357402
-1.55546
-0.896981
-2.12065
-5.16964
-3.13577
-4.3019
-5.63469
-5.62387
-4.40156
-5.19439
-2.36114
-3.4044
-0.524941
-1.37759
0.696459
0.170248
1.28359
1.05748
1.4742
1.41095
1.44095
1.47897
1.25045
1.40744
2.02936
2.14974
-3.44082
-4.79228
-1.61493
-2.82294
-6.38571
1.37549
1.41993
1.38857
-1.77622
-7.46619
-0.673078
-7.0346
0.161603
-4.79472
0.687909
-1.89471
1.00602
0.387753
1.299
1.09586
1.71542
2.16685
2.18489
-4.27899
1.29679
1.35348
1.17493
1.25065
1.0083
1.10019
0.796999
0.902324
0.604195
0.687918
0.513444
0.539252
0.578832
0.521405
0.805522
0.676004
1.06931
0.943728
1.25118
1.17246
1.3644
1.31553
1.45068
1.4104
1.518
1.50722
1.55427
1.542
1.53915
1.55544
1.47528
1.5113
1.42663
1.44457
1.43082
1.42082
1.53855
1.46257
1.78798
1.64558
2.04963
1.93557
2.10326
2.10464
1.67401
1.47295
1.58892
1.78422
1.73954
1.81784
1.80691
1.77169
1.80649
1.56867
1.69467
1.1257
1.37302
0.622698
0.859624
0.218875
0.412911
0.0844021
0.0852733
0.478664
0.243839
0.935804
0.721413
1.25348
1.11484
1.46093
1.36947
1.59292
1.54037
1.65776
1.63619
1.66309
1.67494
1.51121
1.61602
1.07771
1.32901
0.264231
0.705705
-0.799283
-0.268767
-1.27492
-3.14886
-2.00234
-5.00007
-4.25189
-5.44651
-5.42648
-4.26272
-5.02927
-2.28747
-3.29695
-0.503328
-1.33464
0.704411
0.177707
1.30925
1.07635
1.49033
1.43399
1.4837
1.17552
1.34933
2.15838
2.05654
-4.11489
-6.10509
1.31962
1.30599
-3.15068
-7.73586
-1.80714
-8.1317
-0.581491
-6.4884
0.177145
-3.54195
0.592183
-0.826614
0.834177
1.04536
0.91686
2.01485
1.23827
1.05371
2.21611
1.46282
1.38167
1.13147
-0.728069
2.11364
1.97324
-5.28166
1.27339
1.31283
1.19012
1.24526
1.07331
1.14206
0.930925
1.00244
0.817822
0.863341
0.772936
0.786047
0.800829
0.773915
0.9302
0.854097
1.11315
1.0232
1.26293
1.1965
1.36367
1.31974
1.42932
1.4023
1.48266
1.43428
1.52086
1.50836
1.53087
1.5282
1.53691
1.53527
1.53734
1.53714
1.55088
1.54086
1.64367
1.58086
1.83853
1.73261
1.99546
1.9341
1.97825
2.00931
1.8197
1.91376
1.60798
1.53421
1.75163
1.68716
1.84696
1.80387
1.88513
1.87572
1.85326
1.87504
1.71914
1.8037
1.45481
1.5918
1.26188
1.34061
1.04577
1.17252
0.870007
0.923355
1.00019
0.908859
1.22651
1.11322
1.43076
1.33709
1.57949
1.5141
1.67498
1.63807
1.70931
1.70204
1.69334
1.70919
1.57754
1.65061
1.25356
1.43718
0.651119
0.976411
-0.131688
0.25879
-0.792908
-0.489235
-0.968708
-2.69905
-1.69476
-4.31103
-3.6029
-4.82458
-4.75317
-3.83508
-4.49437
-2.0874
-2.98558
-0.467195
-1.22984
0.668476
0.169047
1.26391
1.02958
1.44337
1.38995
1.38954
1.44124
1.30835
1.35842
-4.69145
-7.23684
1.68969
1.85914
1.21959
1.23495
1.20124
1.67706
1.54423
-3.23379
-8.36693
-1.63094
-7.56982
-0.450519
-5.04075
0.108491
-2.14957
0.43355
0.0359999
0.625062
1.55539
0.733947
2.17802
1.28031
1.48275
1.43858
1.1883
0.930719
2.23406
1.02453
1.20421
-0.197188
1.15604
-6.1449
1.25803
1.237
1.24917
1.25254
1.18494
1.21543
1.10038
1.14267
1.01398
1.0551
0.949035
0.976843
0.922181
0.930728
0.937043
0.923657
1.01453
0.968412
1.14243
1.07837
1.26449
1.20853
1.35834
1.31623
1.42711
1.3961
1.48591
1.45282
1.5312
1.51276
1.545
1.54199
1.53801
1.54289
1.54988
1.53885
1.60407
1.57249
1.70026
1.64623
1.82086
1.76094
1.90287
1.87355
1.85293
1.89659
1.77835
1.58013
1.53064
1.69495
1.63452
1.82298
1.7626
1.90143
1.86852
1.931
1.92308
1.91181
1.92589
1.83068
1.88102
1.70479
1.76322
1.65861
1.67293
1.5274
1.61511
1.35894
1.42655
1.36298
1.34109
1.45414
1.40569
1.55725
1.50803
1.64484
1.6052
1.71048
1.68374
1.7311
1.72792
1.70308
1.72116
1.60345
1.66119
1.36501
1.49941
0.93808
1.16871
0.38826
0.656832
-0.0810386
0.108249
-0.208148
-0.330413
0.273283
-1.88819
-1.0645
-3.3532
-2.67528
-3.91579
-3.79664
-3.19598
-3.69155
-1.82698
-2.54115
-0.462418
-1.11827
0.564545
0.104901
1.15564
0.910967
1.36814
1.30156
1.35754
1.38783
1.27865
2.04702
1.1154
1.51887
1.37601
-4.88302
-7.72476
-2.98091
-7.80715
-1.33592
-6.02498
1.69669
-0.421025
-3.3064
-0.0764062
-0.940648
0.25452
0.771508
1.40599
1.6029
1.62598
1.41705
0.375413
1.95316
1.14776
0.520955
2.28638
0.937612
0.78089
2.22919
0.999088
0.985108
0.884403
1.29883
1.17917
1.06662
-6.48942
1.14646
1.03997
1.10832
1.18443
1.1701
1.19597
1.19108
1.16574
1.18158
1.11443
1.14192
1.06037
1.08855
1.02166
1.04044
1.01063
1.01329
1.02492
1.0144
1.07651
1.04546
1.16623
1.11966
1.26313
1.21689
1.34585
1.30744
1.41139
1.38097
1.46536
1.43852
1.5067
1.48801
1.53426
1.52158
1.55362
1.54513
1.57099
1.56188
1.6015
1.5827
1.68199
1.63554
1.77364
1.7304
1.80695
1.80042
1.73483
1.78495
1.55623
1.65828
1.27395
1.42818
0.96194
0.905756
1.09777
1.61879
1.60213
1.69776
1.65392
1.78656
1.74166
1.87994
1.83506
1.93937
1.91483
1.96531
1.95637
1.95714
1.96482
1.91718
1.94086
1.87908
1.89314
1.8815
1.88068
1.78943
1.85267
1.65293
1.71412
1.58841
1.60531
1.6086
1.59184
1.65624
1.63164
1.69854
1.67872
1.7287
1.71542
1.7313
1.73392
1.69407
1.71877
1.60166
1.65696
1.42187
1.52619
1.1201
1.28679
0.737245
0.928621
0.437041
0.556
0.37489
0.375017
0.435991
0.174337
0.603516
-1.01065
-0.35842
-2.27182
-1.67967
-2.86219
-2.689
-2.50671
-2.78204
-1.58406
-2.08965
-0.517193
-1.04429
0.368562
-0.0377821
0.930236
0.687983
1.20134
1.10082
1.26284
1.2583
1.17039
1.21547
1.09167
-4.5481
-7.24746
0.714922
0.880254
0.714125
-2.49927
-6.34807
1.91638
-1.12969
-4.15429
-0.570794
-1.76057
1.45301
1.67587
1.83441
1.905
1.75283
-0.317541
0.0565162
1.48207
0.0106668
1.42047
0.727578
1.03016
1.17161
0.0973198
2.24723
0.871298
0.273457
2.38242
0.585108
0.986273
0.94611
0.915436
0.901812
0.901338
1.13545
0.857619
-6.08366
1.08107
1.03802
1.12922
1.111
1.15259
1.14451
1.13946
1.14739
1.10831
1.12443
1.07984
1.09403
1.06354
1.06959
1.06179
1.061
1.07739
1.0673
1.11724
1.09326
1.18432
1.1483
1.26233
1.2237
1.33448
1.30004
1.39698
1.36694
1.44805
1.42336
1.48639
1.46886
1.51218
1.5004
1.53225
1.5223
1.5621
1.54543
1.60153
1.5811
1.65136
1.62502
1.70279
1.67858
1.71267
1.71683
1.63066
1.68468
1.45605
1.55477
1.2002
1.33685
1.04591
1.74269
1.77648
1.74548
1.7348
1.79319
1.76663
1.84932
1.82005
1.91769
1.88317
1.96753
1.94643
1.98967
1.98139
1.98976
1.99219
1.97825
1.98477
1.97719
1.97539
1.98733
1.98598
1.91898
1.96602
1.8186
1.86286
1.72337
1.75692
1.69989
1.70483
1.71143
1.70163
1.73197
1.72116
1.74101
1.73787
1.72733
1.7376
1.68123
1.71015
1.59181
1.64298
1.44278
1.52736
1.21813
1.3452
0.95077
1.09445
0.76541
0.850069
0.750884
0.733304
0.810393
1.07336
1.20974
1.1709
0.65847
0.918852
-0.228831
0.276066
-1.25566
-0.766407
-1.86937
-1.63806
-1.88289
-1.94687
-1.37688
-1.68067
-0.64054
-1.01892
0.0742967
-0.267394
0.617221
0.369105
0.957434
0.818349
1.09171
1.04599
1.04168
1.08446
0.979751
0.512674
0.556054
-3.81434
-5.98519
2.16026
-2.06165
-4.58944
1.97789
2.09267
2.15494
2.04458
-1.16006
-2.53633
1.65682
1.84072
-0.837636
-0.611403
1.57359
-0.619834
0.924074
0.470969
1.11435
1.24738
-0.372057
1.93297
0.730309
0.829306
-0.198321
2.50176
0.359401
0.0098827
0.832223
1.20833
0.293763
0.398012
-5.06727
0.940748
0.813716
0.885551
1.02208
0.983052
1.07623
1.05172
1.10595
1.0946
1.11171
1.11095
1.10093
1.10729
1.08738
1.09441
1.0816
1.08375
1.08815
1.08414
1.10713
1.09605
1.14215
1.12164
1.1956
1.16642
1.25956
1.22693
1.32206
1.2917
1.378
1.35099
1.42607
1.4031
1.46349
1.44596
1.49168
1.47841
1.51321
1.50303
1.53588
1.524
1.56896
1.55057
1.61271
1.59113
1.63727
1.62875
1.62231
1.63664
1.54036
1.59162
1.37637
1.46697
1.14679
1.26847
0.874921
1.01293
0.608331
0.734414
0.242448
0.387552
0.493941
1.95241
2.02161
1.86107
1.89634
1.84567
1.84663
1.86491
1.85216
1.90238
1.88202
1.95126
1.92575
1.98928
1.97243
2.00709
1.99981
2.01315
2.01149
2.01482
2.01396
2.024
2.01827
2.03071
2.03157
1.97277
2.0123
1.84686
1.91823
1.79637
1.82434
1.76269
1.77585
1.75034
1.75454
1.74523
1.74763
1.73558
1.74111
1.71163
1.72483
1.66292
1.68857
1.57757
1.61867
1.44661
1.51261
1.26891
1.36402
1.079
1.17975
0.950772
1.01205
0.935001
0.930705
1.04294
0.970201
1.13261
1.26649
1.30141
1.01952
1.17939
0.404278
0.756403
-0.358271
0.0196947
-1.01761
-0.714469
-1.33621
-1.23446
-1.21952
-1.3215
-0.836831
-1.05329
-0.32741
-0.586029
0.170656
-0.0742594
0.596233
0.403991
0.825592
0.732372
0.847586
0.86408
0.806407
0.825634
0.753633
0.784228
2.40554
-3.06649
-4.47686
0.725215
1.38154
2.20966
2.1053
-1.87735
-3.10564
0.278084
0.112895
1.91593
1.91584
-1.36694
-1.43403
0.0865962
1.6639
-1.22351
0.243233
0.188247
1.25232
1.33356
-1.05968
1.70205
0.394355
0.854806
-0.8954
2.31499
0.732706
0.227903
-0.541726
2.70639
-0.220237
0.192224
0.315068
0.237634
2.2762
2.37618
-3.92484
0.788704
0.642383
0.720169
0.895852
0.847551
0.972392
0.936776
1.03071
1.00498
1.06537
1.05225
1.08014
1.07508
1.08295
1.0826
1.08307
1.08352
1.08958
1.08647
1.10139
1.09471
1.12207
1.11037
1.1547
1.13599
1.20073
1.17565
1.25484
1.22694
1.30924
1.2825
1.35892
1.33489
1.40261
1.3819
1.43725
1.4209
1.46439
1.45161
1.48716
1.47601
1.50984
1.49869
1.53249
1.5209
1.5592
1.54578
1.57133
1.569
1.54329
1.56245
1.46103
1.50985
1.31101
1.39407
1.10858
1.21559
0.873946
0.993408
0.658818
0.760846
0.487879
0.567653
0.402698
2.29974
2.44786
2.35831
2.18578
2.24616
2.05147
2.11734
1.95653
1.99487
1.92527
1.93434
1.92405
1.9208
1.94586
1.93218
1.97762
1.96092
2.0042
1.99228
2.01858
2.01283
2.02682
2.02336
2.03297
2.02992
2.04153
2.03718
2.03886
2.04399
1.99034
2.02135
1.90263
1.94815
1.84072
1.87037
1.79344
1.81458
1.76582
1.77737
1.74888
1.7571
1.72876
1.74009
1.69529
1.71384
1.64001
1.66992
1.55679
1.60008
1.44047
1.50075
1.29734
1.37205
1.15483
1.22409
1.0562
1.09683
1.03563
1.03606
1.0948
1.06141
1.22928
1.1556
1.43233
1.4213
1.31243
1.39876
0.939584
1.16261
0.344997
0.663784
-0.348701
-0.00498122
-0.870245
-0.643006
-1.1283
-1.03163
-1.10954
-1.15589
-0.824553
-0.993715
-0.361121
-0.609768
0.146666
-0.0969665
0.482175
0.337258
0.626713
0.57671
0.698335
0.664453
0.685818
0.710994
0.653403
2.17652
-2.59542
-3.27189
0.15576
0.165776
0.211657
1.30414
0.563771
0.0461277
2.17364
1.98027
-1.93719
-2.16981
-0.0757177
1.74542
-1.72346
-0.727328
-0.0887844
1.46137
1.42179
-1.79468
1.02893
0.0360992
0.968713
-1.67623
2.42523
0.759781
0.312549
0.301933
-1.5404
2.49468
-0.367669
-1.00388
2.58326
2.42469
2.27646
-3.09605
0.748926
0.69219
0.852531
0.805714
0.929776
0.89507
0.988819
0.962494
1.02934
1.0126
1.05277
1.04328
1.06555
1.06023
1.07578
1.07043
1.0873
1.08065
1.10462
1.09492
1.12863
1.11556
1.15995
1.14282
1.20051
1.17869
1.24751
1.22334
1.29528
1.27167
1.33938
1.31821
1.37914
1.36045
1.41103
1.39601
1.4363
1.42449
1.45693
1.4469
1.47654
1.4669
1.49487
1.48598
1.50841
1.50272
1.50712
1.51046
1.47366
1.49517
1.39335
1.43979
1.25892
1.33253
1.08132
1.17439
0.884851
0.982862
0.707841
0.793141
0.545408
0.627104
0.404236
0.475907
0.0849403
0.0983793
0.29219
0.336447
2.36591
2.52006
2.42704
2.2628
2.31668
2.13404
2.20009
2.03231
2.0752
1.99006
2.00593
1.97363
1.97904
1.98118
1.97478
1.99946
1.99
2.01565
2.00821
2.02627
2.02172
2.03317
2.03009
2.03768
2.03589
2.04109
2.03995
2.03317
2.04004
1.99147
2.01733
1.92007
1.95702
1.85644
1.88603
1.80881
1.83014
1.77556
1.79098
1.74824
1.76191
1.71829
1.73395
1.67747
1.69904
1.61912
1.65026
1.53739
1.58159
1.43289
1.49029
1.31339
1.37741
1.20051
1.25455
1.12149
1.15083
1.09968
1.09899
1.13721
1.11178
1.23267
1.17771
1.45773
1.37966
1.57238
1.52784
1.55016
1.58178
1.35111
1.48144
0.898054
1.15785
0.218723
0.575639
-0.50319
-0.14469
-1.12221
-0.836218
-1.46741
-1.33929
-1.43558
-1.49996
-1.00771
-1.2668
-0.37047
-0.692685
0.137824
-0.0922527
0.441145
0.313674
0.58655
0.529556
0.609009
0.612987
0.586672
0.0576158
2.76161
2.04626
-2.43533
-2.58518
0.552932
2.64383
-0.137147
1.82152
-2.18756
-1.64109
0.478687
0.10117
0.283082
-0.285599
2.69174
2.62839
1.59681
1.51401
-2.34951
-0.125778
-0.302409
1.11863
-2.59019
1.85417
0.799906
-0.131678
0.530928
-2.51773
3.22062
0.239081
-0.401254
-2.29168
2.20767
-0.0648707
-0.0803213
-1.56579
-0.0878788
2.30769
2.144
-2.68736
0.715419
0.646212
0.815269
0.771919
0.892498
0.857627
0.952096
0.924973
0.99562
0.976024
1.02544
1.01198
1.04625
1.03646
1.06378
1.05507
1.08152
1.0722
1.10218
1.09112
1.12777
1.1141
1.1593
1.14269
1.19671
1.17714
1.23855
1.21729
1.28061
1.25983
1.32028
1.30107
1.35549
1.33885
1.38446
1.37085
1.40737
1.39664
1.42564
1.4169
1.44104
1.43373
1.45327
1.44761
1.45961
1.45763
1.44968
1.45751
1.41094
1.43428
1.33539
1.37819
1.21637
1.28112
1.06262
1.14225
0.900695
0.981053
0.753961
0.824746
0.612306
0.682945
0.489607
0.548856
0.392807
0.430408
2.78216
2.74313
2.81414
2.57893
2.6903
2.42536
2.48955
2.32259
2.3741
2.19869
2.26235
2.09522
2.14051
2.04313
2.06456
2.01547
2.0268
2.01021
2.01036
2.01702
2.01311
2.02424
2.02102
2.02929
2.0271
2.03274
2.03135
2.03434
2.03396
2.03341
2.03475
2.01979
2.02933
1.97972
2.00301
1.92061
1.95081
1.86388
1.89099
1.81506
1.83813
1.7752
1.79411
1.74099
1.75801
1.70488
1.72367
1.65961
1.68367
1.59984
1.63221
1.52213
1.56465
1.42811
1.47939
1.32598
1.37885
1.2304
1.27503
1.16162
1.18843
1.13646
1.14159
1.15908
1.14123
1.21407
1.18319
1.23702
1.22994
1.49555
1.30473
1.38397
1.66623
1.5937
1.75394
1.72054
1.69105
1.75638
1.3157
1.54403
0.638149
1.00858
-0.255239
0.210946
-1.18411
-0.729625
-1.88243
-1.57988
-2.092
-2.06006
-1.70935
-1.96846
-0.950991
-1.35204
-0.217103
-0.566088
0.289277
0.073234
0.486156
0.420056
0.52023
0.510854
0.492839
0.514119
0.479827
-0.106648
1.90066
-2.53504
-2.26834
0.541566
0.397365
1.24352
-0.368322
-0.313027
-0.303067
2.88148
2.83473
2.14219
1.60484
-2.73538
-1.28014
-0.548849
1.23723
-3.37848
0.44622
0.924956
-0.309078
-0.563776
0.766502
-3.79975
2.68982
-0.311918
-0.262356
-3.71884
3.77466
0.176185
-1.89355
-3.04799
0.151741
2.16062
2.52537
2.40113
-0.0328703
2.00205
-2.59816
0.677019
0.609629
0.780836
0.735722
0.857526
0.822067
0.918663
0.890602
0.965205
0.944
0.999867
0.983961
1.02634
1.01383
1.04936
1.03789
1.07213
1.06044
1.0968
1.08396
1.1239
1.10981
1.15483
1.1388
1.1897
1.17175
1.22771
1.20849
1.26553
1.2469
1.30095
1.28378
1.33205
1.31732
1.35784
1.34574
1.378
1.36863
1.3935
1.38625
1.40521
1.39985
1.41194
1.4093
1.41152
1.41284
1.39666
1.40666
1.3561
1.37985
1.28545
1.32472
1.1807
1.23729
1.04851
1.11674
0.913912
0.980046
0.788218
0.85043
0.669181
0.726825
0.566638
0.616077
0.494272
0.521544
0.423531
0.515876
0.493844
0.309367
2.92993
2.9097
2.83938
2.95703
2.94438
2.62847
2.7284
2.47684
2.54423
2.36845
2.42147
2.25065
2.31113
2.1476
2.19418
2.08713
2.11297
2.05074
2.0669
2.03354
2.03969
2.03079
2.0314
2.02945
2.03033
2.02852
2.02899
2.0287
2.0289
2.0267
2.02832
2.01969
2.02417
2.00164
2.01256
1.96506
1.98547
1.914
1.94015
1.86
1.88637
1.81127
1.83469
1.76987
1.78996
1.73193
1.75085
1.69142
1.71223
1.64293
1.66857
1.58257
1.61524
1.50908
1.54901
1.42385
1.46902
1.33398
1.37901
1.24985
1.28867
1.18664
1.21342
1.15671
1.16753
1.16316
1.15653
1.18569
1.17328
1.19204
1.18981
1.19243
1.31971
1.18856
1.25435
1.51564
1.40041
1.7438
1.63308
1.91281
1.84089
1.90927
1.94272
1.62837
1.80751
0.965658
1.34913
-0.0760135
0.4806
-1.28167
-0.67505
-2.31808
-1.84604
-2.7658
-2.63799
-2.40248
-2.67976
-1.48123
-1.98016
-0.512731
-0.977604
0.144036
-0.130262
0.379667
0.302774
0.426906
0.409508
0.42431
0.43133
0.41975
0.418654
-0.343315
2.77377
2.25198
2.58363
2.68415
1.76131
1.99486
1.69026
-2.97785
-2.22166
-0.666088
1.33744
-3.82396
-1.11939
0.467688
0.553009
1.00118
-0.241268
0.229696
0.067737
2.86256
2.96894
1.18019
1.12555
1.10768
0.418853
0.362846
0.364327
-0.891802
0.941984
-5.09488
0.846978
-0.619747
-0.605066
-0.871499
0.0806345
-5.82742
3.19665
0.143545
-0.494424
2.04922
2.43686
-1.59111
-5.3731
2.50531
-3.55563
1.81048
-2.85642
0.532691
0.475808
0.646776
0.589732
0.747716
0.701304
0.825313
0.788986
0.887932
0.858661
0.937308
0.91438
0.976116
0.957909
1.00746
0.992578
1.03482
1.02137
1.06108
1.04786
1.08826
1.07435
1.11712
1.10232
1.14815
1.13229
1.18121
1.16443
1.21569
1.19837
1.24979
1.23296
1.28152
1.26616
1.30913
1.296
1.33171
1.32117
1.34894
1.34102
1.36146
1.35574
1.36955
1.36609
1.37188
1.37151
1.36663
1.37041
1.34749
1.35933
1.30737
1.33019
1.24256
1.27826
1.15045
1.19974
1.0383
1.09573
0.925454
0.981119
0.816457
0.870787
0.716841
0.764241
0.635279
0.674319
0.583308
0.602237
0.596719
0.581135
0.361999
3.05841
3.01356
3.03617
3.07643
3.0715
3.07536
3.07275
2.66972
2.76105
2.52226
2.59019
2.40755
2.46312
2.29307
2.35097
2.19053
2.23805
2.12371
2.15309
2.07926
2.09968
2.05257
2.06353
2.0406
2.04571
2.03211
2.03618
2.02625
2.02896
2.02177
2.02419
2.01486
2.01893
2.00368
2.00996
1.98326
1.99494
1.94787
1.96721
1.90112
1.925
1.85117
1.87592
1.80446
1.82736
1.76185
1.78289
1.72099
1.74144
1.67746
1.69971
1.62712
1.65358
1.56721
1.59915
1.49752
1.53459
1.41918
1.45961
1.33749
1.37787
1.26122
1.29717
1.2013
1.22839
1.16712
1.18128
1.15742
1.15967
1.15898
1.15674
1.15253
1.1577
1.14158
1.34688
1.26282
1.54923
1.43751
1.80924
1.67563
2.02688
1.92922
2.09723
2.0893
1.86744
2.0306
1.184
1.58663
0.0455814
0.662459
-1.37199
-0.646394
-2.6798
-2.07294
-3.33486
-3.11815
-3.00982
-3.2935
-1.95142
-2.53503
-0.794808
-1.34682
-0.0322915
-0.347511
0.267645
0.161782
0.341707
0.318555
0.354981
0.351468
0.358778
-0.663815
2.97248
1.75203
1.43054
-3.97951
-2.58558
0.626611
0.714368
-0.114172
3.07596
1.07087
1.04616
0.413235
0.362401
-1.06601
1.05258
-5.90474
-1.34682
-0.575961
-1.33744
0.476513
-7.97037
0.845997
-1.02164
-0.96751
-0.0516815
-1.24793
1.77704
2.23176
-0.846503
-8.67558
2.64475
-0.722219
-3.45299
-6.9709
2.9192
2.83904
1.56601
-3.64626
0.519744
0.466213
0.624184
0.573007
0.718303
0.672789
0.796089
0.759196
0.859882
0.829653
0.911688
0.887254
0.953685
0.933774
0.988824
0.971759
1.02005
1.00478
1.04955
1.0349
1.07878
1.06409
1.10854
1.09348
1.13933
1.12373
1.17115
1.15511
1.20317
1.18723
1.23393
1.21881
1.26208
1.24849
1.28639
1.27479
1.30592
1.29686
1.32029
1.31376
1.3299
1.32567
1.33459
1.33291
1.33323
1.33469
1.32468
1.33004
1.30306
1.31594
1.2639
1.28562
1.20515
1.23723
1.12425
1.16718
1.02968
1.07768
0.934721
0.981953
0.840786
0.887462
0.758272
0.79719
0.694424
0.724055
0.658062
0.671451
0.668536
0.657149
0.668976
0.729383
0.693994
0.527025
0.602288
0.319297
0.432458
0.3595
0.0369298
0.187463
3.22324
3.23456
3.22746
3.2077
3.21676
3.18931
3.19737
3.07845
3.17715
3.1821
2.88353
2.97998
2.70534
2.79136
2.56052
2.62883
2.441
2.49913
2.32712
2.38381
2.22585
2.27344
2.15364
2.18638
2.10234
2.12611
2.0675
2.08285
2.04717
2.05611
2.0328
2.03969
2.02126
2.0267
2.0121
2.01666
2.00162
2.00727
1.98691
1.99493
1.96391
1.97657
1.92949
1.94789
1.88642
1.90854
1.84001
1.86326
1.79464
1.81717
1.75155
1.77285
1.70903
1.73034
1.6636
1.68684
1.61241
1.63918
1.55324
1.58439
1.48675
1.52142
1.41338
1.4507
1.33781
1.37514
1.26699
1.30112
1.20889
1.23618
1.16948
1.18711
1.14665
1.1558
1.13406
1.13919
1.11286
1.12645
1.09353
1.1699
1.01964
1.08764
1.37273
1.26681
1.59891
1.48173
1.86689
1.72919
2.10589
1.99536
2.20305
2.18064
2.01938
2.15707
1.35283
1.75666
0.149186
0.81054
-1.42255
-0.609217
-2.92142
-2.21871
-3.71679
-3.44513
-3.40577
-3.69671
-2.27908
-2.90222
-1.04947
-1.6336
-0.223535
-0.569714
0.148322
0.00741413
0.259848
0.224748
0.288429
0.276859
0.30867
0.300128
0.312308
0.312758
-1.09256
3.23785
1.43381
1.14144
-6.0067
-3.59544
-0.48911
-1.60023
0.677007
-9.38517
-2.14958
-0.915733
0.720239
0.772644
3.08367
3.17691
-0.26314
0.984401
0.957101
0.916333
0.307238
0.263641
0.259312
-1.89792
2.73181
-0.128648
-11.654
0.329468
-1.54595
-1.45156
-1.62024
-0.95582
-2.39275
-11.0676
1.36295
1.386
1.91719
-7.32018
-0.136908
0.202646
0.0699155
3.23394
3.22945
1.23751
-5.2896
-0.332626
0.405624
0.356758
0.504855
0.454921
0.603063
0.554857
0.692309
0.649293
0.769609
0.732542
0.834392
0.803478
0.888221
0.862558
0.933057
0.911634
0.971312
0.952775
1.00545
0.988748
1.03742
1.02162
1.06844
1.05298
1.09916
1.0838
1.12967
1.11442
1.16005
1.14485
1.18989
1.1751
1.21794
1.20422
1.24307
1.23092
1.26423
1.25419
1.2807
1.27312
1.29222
1.28706
1.29907
1.29623
1.30061
1.30056
1.29619
1.29909
1.28511
1.29168
1.2624
1.2755
1.22517
1.24555
1.17215
1.2008
1.10176
1.13884
1.02191
1.0622
0.941521
0.981717
0.862356
0.901368
0.794359
0.826342
0.744863
0.767064
0.721637
0.729094
0.733613
0.722147
0.784467
0.754526
0.594131
0.661219
0.423361
0.515397
0.318195
3.43986
3.52136
3.4789
3.3755
3.40519
3.33013
3.34992
3.29486
3.31323
3.27225
3.28187
2.90351
2.99096
2.73757
2.81877
2.59332
2.66272
2.46904
2.5294
2.35525
2.41111
2.25491
2.3027
2.17782
2.21345
2.12066
2.14735
2.07864
2.09778
2.05117
2.06348
2.03074
2.04059
2.01409
2.02187
2.00117
2.00749
1.98728
1.99461
1.96919
1.97876
1.94489
1.95792
1.91152
1.92922
1.87047
1.89172
1.82698
1.849
1.78314
1.80502
1.74019
1.76152
1.69673
1.7186
1.65023
1.674
1.5987
1.62545
1.54057
1.57075
1.47637
1.50934
1.40687
1.44197
1.33588
1.37116
1.26868
1.3015
1.2109
1.23852
1.16616
1.18688
1.13371
1.14824
1.1072
1.1203
1.07454
1.09389
1.02342
1.05058
0.992191
1.15203
1.06417
1.37606
1.25691
1.63365
1.50251
1.90597
1.76816
2.15963
2.03866
2.30153
2.25301
2.13642
2.2755
1.44715
1.86138
0.224969
0.896503
-1.39939
-0.545216
-2.96049
-2.22346
-3.85019
-3.53443
-3.59348
-3.86262
-2.47873
-3.09935
-1.2321
-1.82743
-0.366902
-0.733076
0.0446018
-0.117794
0.184526
0.136424
0.231513
0.212511
0.259594
0.248494
0.264868
-1.64871
3.58091
1.04775
0.758636
-9.47387
-5.4546
-0.811522
-0.0823165
-0.352508
0.820976
3.26586
-0.862673
0.902908
0.858218
0.299755
0.254103
-2.28924
3.22215
0.251015
-13.506
-3.4045
-1.37951
-2.53503
-1.34253
-1.31674
-14.2595
-0.747198
2.52833
-2.17961
-5.97486
-11.0967
-0.252109
-2.18083
3.78036
3.88739
-2.32627
0.185116
0.0921115
0.864395
-8.12097
-0.613052
0.395565
0.347943
0.489545
0.442569
0.583249
0.536957
0.669605
0.627626
0.745799
0.709018
0.81123
0.779821
0.86667
0.840062
0.913905
0.891182
0.954846
0.934969
0.99146
0.973545
1.02539
1.00867
1.05771
1.04171
1.08905
1.07348
1.11941
1.10436
1.14865
1.13416
1.17646
1.16277
1.20198
1.18955
1.22425
1.21354
1.24268
1.23399
1.25631
1.25012
1.26496
1.26121
1.26901
1.26754
1.26785
1.26914
1.261
1.26505
1.24795
1.25545
1.22472
1.23774
1.19
1.20878
1.14249
1.16792
1.08203
1.1136
1.01487
1.04873
0.946591
0.980797
0.880866
0.912873
0.825984
0.851727
0.788461
0.804618
0.775783
0.778751
0.789372