/*--------------------------------*- C++ -*----------------------------------*\
  =========                 |
  \\      /  F ield         | OpenFOAM: The Open Source CFD Toolbox
   \\    /   O peration     | Website:  https://openfoam.org
    \\  /    A nd           | Version:  10
     \\/     M anipulation  |
\*---------------------------------------------------------------------------*/
FoamFile
{
    format      ascii;
    class       volVectorField;
    location    "12";
    object      U;
}
// * * * * * * * * * * * * * * * * * * * * * * * * * * * * * * * * * * * * * //

dimensions      [0 1 -1 0 0 0 0];

internalField   nonuniform List<vector> 
6397
(
(4.1676 -0.757777 2.07646e-19)
(4.08153 -0.454249 -1.01616e-18)
(5.09138 -1.90984 0)
(5.23097 -1.6475 2.45713e-21)
(4.71325 -1.5179 -1.00829e-19)
(4.72567 -1.88609 -1.62424e-19)
(3.1561 -1.82958 -1.0149e-18)
(1.58082 -2.83882 1.91346e-18)
(-0.0845833 -0.0844605 3.09529e-19)
(0.405597 -0.10212 -7.87687e-20)
(2.4727 3.28286 5.78871e-19)
(3.52719 3.98479 4.88434e-20)
(3.665 0.109565 -4.01302e-20)
(3.65641 0.0983603 -1.70889e-20)
(2.52705 0.111938 3.33443e-20)
(1.80107 1.35262 -5.07429e-18)
(2.22263 -0.55583 -2.39858e-18)
(0.0789526 0.27402 2.42278e-18)
(1.07422 0.431192 8.03262e-19)
(2.1794 -0.255453 -2.52482e-18)
(1.68257 0.201671 -1.2999e-18)
(-0.969663 0.668563 -8.82229e-19)
(-0.791431 0.605788 3.52575e-20)
(1.37877 0.221281 -3.95683e-19)
(4.03349 0.135024 0)
(4.29836 0.0790606 5.3193e-21)
(4.41539 0.130427 1.95582e-22)
(2.88564 -2.41419 2.3114e-19)
(2.85844 -2.14456 -4.99545e-20)
(2.86858 -2.50205 9.55586e-20)
(2.80514 -2.36942 -1.36662e-19)
(5.69325 -0.747867 -1.8977e-19)
(5.66455 -1.11976 -1.54468e-19)
(5.25177 -1.331 6.17336e-19)
(5.97787 0.176299 -5.01859e-21)
(6.0444 -0.101106 0)
(5.97693 -0.171573 6.3379e-20)
(5.96418 -0.556148 1.18098e-19)
(5.54124 0.239795 3.96325e-20)
(5.41671 0.313693 -3.4368e-20)
(5.78218 0.400856 0)
(5.8854 0.124344 0)
(2.87158 -2.53368 -4.08916e-20)
(3.62558 -2.43119 -1.56114e-19)
(3.61176 -2.55221 1.22378e-19)
(4.64618 -2.14278 -2.80429e-19)
(4.14917 -2.04631 -1.78008e-19)
(4.13286 -2.30798 4.90021e-19)
(4.68021 0.201206 7.09646e-20)
(4.64537 0.0721824 -1.08983e-20)
(4.54654 0.0502702 1.33213e-19)
(4.52136 -0.0012308 -5.18491e-20)
(4.54451 0.0343962 -3.57938e-19)
(4.48175 1.19315 -7.58777e-20)
(3.71773 0.69474 4.84327e-20)
(4.03921 0.0445364 8.3186e-20)
(4.05553 0.0610267 7.9809e-20)
(4.48438 -0.141937 -1.60274e-19)
(3.00454 2.0369 -1.55726e-19)
(2.89791 1.41021 1.57395e-19)
(3.11385 2.45552 1.10835e-19)
(3.19833 2.67046 -1.09389e-19)
(3.26135 2.73445 -8.88987e-20)
(3.26306 2.7075 8.73755e-20)
(3.23191 2.63075 0)
(3.11691 2.53625 1.00709e-19)
(2.95793 2.37164 -1.0623e-19)
(2.73555 2.08272 0)
(3.1955 1.57052 -2.00051e-19)
(2.81975 0.619153 2.60771e-21)
(3.13732 0.754768 1.90667e-19)
(3.28529 2.18012 0)
(3.35215 2.57393 0)
(3.40024 2.75893 0)
(3.41018 2.77819 -3.4936e-22)
(3.37594 2.69585 4.02673e-23)
(3.29719 2.56689 0)
(3.15212 2.40694 -7.87749e-24)
(2.95653 2.18953 0)
(2.71299 1.85645 0)
(3.08489 -0.135315 -2.213e-19)
(2.77673 -0.235408 1.32365e-20)
(2.53323 1.57612 0)
(2.48976 1.35113 0)
(3.04945 -0.978805 1.73391e-20)
(2.78777 -1.05106 0)
(2.36738 0.836755 0)
(2.31088 0.659081 0)
(3.0448 -1.66952 3.69278e-19)
(2.79659 -1.69215 -3.22804e-20)
(2.3188 -0.0995312 0)
(2.27298 -0.178628 0)
(3.05517 -2.14116 -2.47617e-19)
(3.08023 -2.39197 -1.30645e-19)
(2.378 -1.07146 0)
(2.32566 -1.03021 1.28878e-20)
(3.4353 -1.54557 0)
(3.3823 -2.29179 2.54698e-19)
(3.36996 -2.03124 1.98978e-20)
(3.51617 0.0748554 -2.32122e-19)
(3.44709 -0.820962 0)
(3.61408 1.76766 -9.11452e-20)
(3.56779 0.974307 2.33452e-19)
(3.6691 2.68318 6.3344e-20)
(3.64708 2.35537 7.45487e-20)
(3.61905 2.76253 3.50005e-22)
(3.66563 2.80158 -6.61063e-20)
(3.41311 2.43644 3.53623e-21)
(3.53532 2.62162 -3.45474e-20)
(3.03337 1.9753 -2.43899e-20)
(3.24133 2.22773 5.14392e-20)
(2.57473 1.15389 0)
(2.79674 1.63842 0)
(2.3685 -0.214657 0)
(2.42383 0.52286 0)
(2.40426 -0.945427 -1.96093e-20)
(2.59046 0.998092 -2.55069e-19)
(2.60081 -1.10034 -1.26602e-19)
(2.54839 -0.0122041 2.50949e-19)
(2.88945 2.28164 1.87761e-19)
(2.71886 1.79154 -1.83547e-19)
(3.18429 2.62265 7.91449e-22)
(3.06571 2.52296 3.71902e-21)
(3.24048 2.68871 0)
(3.25317 2.66386 0)
(3.08959 2.53998 8.99184e-20)
(3.19639 2.65807 9.13422e-21)
(2.83627 1.8251 1.89569e-20)
(2.97909 2.26111 -8.93583e-20)
(2.66985 0.457664 7.05398e-20)
(2.72893 1.21053 -8.54944e-21)
(2.65798 -1.06918 -1.14071e-19)
(2.62138 -0.331859 -6.33175e-20)
(2.76215 -2.0888 0)
(2.67729 -1.66589 1.33604e-19)
(3.12052 -2.4492 -9.60807e-20)
(2.95174 -2.50222 -9.4234e-21)
(3.35049 -2.36486 5.04134e-20)
(2.55949 -1.61484 -2.95096e-20)
(2.47679 -1.78998 7.2949e-21)
(2.99097 -1.13667 -2.71947e-21)
(2.73245 -2.06975 1.26807e-19)
(3.08789 -2.19008 0)
(2.79016 -2.1312 1.73504e-20)
(2.70722 -1.45045 -1.50398e-20)
(2.90833 -1.9171 1.49556e-20)
(2.88212 -2.4604 4.11151e-20)
(3.72339 -2.20048 -1.35997e-19)
(3.62306 -2.26512 -4.83627e-20)
(2.89685 -2.53606 4.01795e-20)
(2.53152 -1.93004 4.36182e-21)
(3.89845 -1.39245 0)
(3.79369 -1.90666 -4.14126e-20)
(4.05048 0.175695 7.92994e-21)
(3.96583 -0.667352 0)
(4.112 1.77844 -4.01023e-20)
(4.08691 1.0319 7.26926e-20)
(4.02685 2.61776 0)
(4.07194 2.30977 8.24613e-21)
(3.85825 2.63605 0)
(3.95489 2.70376 3.2813e-21)
(3.58307 2.25348 0)
(3.72856 2.47118 3.64137e-21)
(3.19171 1.74069 -1.34177e-21)
(3.389 2.02032 2.29171e-21)
(2.74872 0.939878 7.74207e-22)
(2.94552 1.39999 -1.46891e-21)
(2.51734 -0.254618 3.72083e-23)
(2.58227 0.373864 -4.68133e-22)
(2.54573 -0.872955 6.58284e-21)
(2.99116 1.19993 5.05349e-21)
(2.9491 0.0783266 4.63071e-21)
(3.18308 2.49448 -1.78606e-22)
(3.06315 2.0208 0)
(3.35456 2.69248 0)
(3.28233 2.67502 -2.37794e-21)
(3.28446 2.60739 0)
(3.34357 2.65957 0)
(3.05237 2.3717 -5.19097e-23)
(3.18627 2.53095 -9.26304e-21)
(2.76566 1.6692 -1.12599e-20)
(2.92134 2.10412 0)
(2.58012 0.408939 -3.97808e-20)
(2.65726 1.10484 0)
(2.60899 -1.00196 3.06497e-21)
(2.56268 -0.315796 3.98743e-20)
(2.76589 -1.9995 5.21335e-23)
(2.66385 -1.56828 1.09354e-20)
(2.84106 -2.29332 -3.99636e-20)
(3.08191 -2.43779 2.61108e-20)
(2.94207 -2.501 0)
(3.49918 -2.23394 1.15661e-20)
(3.27744 -2.34536 -1.30882e-20)
(3.2216 -2.94038 0)
(2.92532 -2.77991 0)
(2.72967 -2.37578 -1.30797e-20)
(2.87451 -1.27466 -5.62589e-22)
(3.03965 -1.69436 0)
(3.15751 -2.25115 -3.0455e-21)
(3.06452 -2.4871 4.87565e-22)
(3.68128 -3.0246 0)
(3.3715 -3.33433 0)
(3.71816 -3.4093 -8.34627e-20)
(2.83601 -2.49308 4.05587e-20)
(2.85967 -2.54477 0)
(3.34365 -2.09834 -1.77047e-20)
(3.73948 -2.09163 -1.16436e-22)
(3.57402 -1.94679 8.83337e-21)
(3.03518 -2.54504 0)
(3.0065 -2.41485 -2.31438e-20)
(2.7686 -2.58995 0)
(4.08395 -2.05116 1.78939e-20)
(3.93341 -2.11288 0)
(4.39944 -1.27658 7.3148e-22)
(4.23847 -1.77169 6.04713e-21)
(4.61047 0.274633 -1.57305e-20)
(4.50791 -0.556975 0)
(4.6203 1.8078 1.83509e-22)
(4.61953 1.10392 -1.51964e-20)
(4.41222 2.56089 -1.04612e-22)
(4.51669 2.29469 -1.08109e-20)
(4.10867 2.50348 4.76136e-21)
(4.25747 2.60149 0)
(3.74419 2.06457 0)
(3.9316 2.30456 -4.85354e-21)
(3.31404 1.50209 -3.45556e-22)
(3.53028 1.80037 2.43534e-22)
(2.89458 0.752753 0)
(3.07322 1.16477 -4.01353e-23)
(2.71152 -0.224814 6.02328e-22)
(2.7364 0.289507 -1.78675e-22)
(2.73493 -0.759675 -2.91863e-22)
(3.55769 -1.18876 -4.35362e-20)
(3.6166 -2.28343 1.61893e-22)
(3.52164 1.24609 -1.6603e-20)
(3.52328 0.0812963 6.86753e-20)
(3.56538 2.57148 7.82237e-21)
(3.5291 2.0903 -3.10489e-20)
(3.60101 2.68914 0)
(3.58894 2.72083 2.61832e-20)
(3.44689 2.51808 0)
(3.54695 2.60194 0)
(3.1377 2.24186 7.9624e-23)
(3.29165 2.41987 0)
(2.81638 1.5387 0)
(2.96871 1.96307 0)
(2.6109 0.369413 0)
(2.68614 1.0084 0)
(2.63995 -0.930402 9.21465e-21)
(2.59726 -0.296173 0)
(2.845 -1.90667 -5.16449e-23)
(2.73562 -1.48674 -9.42016e-21)
(2.9436 -2.21475 2.67149e-20)
(3.00531 -2.33611 1.90251e-20)
(2.90713 -2.43532 -3.79261e-20)
(3.15447 -2.227 2.99565e-20)
(3.27848 -1.9872 4.27844e-21)
(3.14251 -3.17863 0)
(3.01338 -2.72864 1.58121e-20)
(3.75754 -3.47399 8.85595e-20)
(3.49433 -3.41705 0)
(3.41258 -2.44566 3.36443e-21)
(3.33349 -2.68823 1.46714e-20)
(3.25142 -1.91141 5.04759e-21)
(3.4504 -1.7553 3.98865e-21)
(2.78206 -2.38735 3.51569e-20)
(2.83266 -2.48422 5.24966e-20)
(3.20171 -2.35883 1.46388e-20)
(3.25639 -2.52796 0)
(4.00182 -1.8953 6.07834e-21)
(3.84561 -1.75901 -1.27524e-20)
(3.52491 -2.19325 -4.29207e-21)
(3.76949 -2.37932 -2.41563e-21)
(3.65709 -2.60863 -2.85916e-20)
(3.00159 -2.58287 1.12498e-20)
(3.03683 -2.98267 0)
(4.44105 -1.85513 7.14892e-21)
(4.24048 -1.93949 -2.6508e-20)
(4.86512 -1.10674 -1.94522e-20)
(4.66691 -1.58605 4.46525e-20)
(5.124 0.334802 0)
(5.01784 -0.434149 0)
(5.07381 1.7384 -3.43167e-23)
(5.11759 1.09782 -1.14477e-26)
(4.76569 2.42002 1.03695e-22)
(4.91782 2.18421 0)
(4.3324 2.32421 0)
(4.53363 2.43938 -2.85641e-27)
(3.86268 1.84541 0)
(4.09542 2.09503 0)
(3.4024 1.27016 0)
(3.63304 1.56092 0)
(3.04549 0.60403 0)
(3.20845 0.954435 0)
(2.90498 -0.240959 0)
(2.93999 0.20949 0)
(3.03031 -1.16412 1.3132e-21)
(2.92117 -0.720394 0)
(3.43191 -1.77088 0)
(3.20281 -1.51561 4.69596e-22)
(3.95278 -2.10463 0)
(3.68789 -1.95449 2.51089e-21)
(4.21971 -3.09255 -2.83465e-20)
(4.04835 -3.4325 -1.7532e-20)
(4.15211 -3.42036 2.84685e-20)
(4.25087 -1.24155 1.83422e-20)
(4.24651 -2.35636 -1.61871e-22)
(4.16867 1.24463 -1.06773e-20)
(4.21655 0.0455252 -2.58304e-20)
(4.03603 2.56829 -1.17128e-23)
(4.10192 2.09728 0)
(3.87922 2.64358 0)
(3.95785 2.70815 0)
(3.61757 2.36343 0)
(3.76764 2.49967 0)
(3.24453 2.0646 -2.10429e-23)
(3.42459 2.23786 0)
(2.92243 1.39758 0)
(3.06501 1.79293 0)
(2.72786 0.317641 0)
(2.79815 0.90212 0)
(2.76687 -0.890526 6.17066e-22)
(2.71633 -0.289596 -6.41943e-22)
(2.98528 -1.80499 2.55912e-21)
(2.8652 -1.39758 7.28418e-23)
(3.10872 -2.12257 -2.00864e-20)
(2.9165 -2.17846 -1.81536e-20)
(2.81425 -2.29251 -3.7605e-20)
(3.06636 -2.05012 0)
(3.7398 -3.31719 0)
(3.926 -3.23332 1.44556e-20)
(4.03059 -2.55616 2.97372e-20)
(4.2581 -2.24421 0)
(3.31925 -3.30607 0)
(3.2745 -2.90862 0)
(3.65153 -1.57592 0)
(2.99197 -2.53922 -1.0527e-19)
(3.45093 -2.25946 5.98619e-21)
(3.52905 -2.44212 0)
(3.55715 -3.31288 3.70865e-21)
(3.58407 -2.81423 -1.79431e-20)
(3.77892 -2.92422 4.73616e-21)
(3.66436 -3.05657 -2.89866e-21)
(3.87105 -2.79288 3.12558e-20)
(4.32016 -2.70438 1.73987e-20)
(4.5645 -2.40104 0)
(3.27586 -2.61554 9.35022e-20)
(3.26981 -3.14404 0)
(4.24563 -1.66372 -8.66608e-21)
(3.83247 -1.38225 1.81464e-20)
(4.08685 -1.56129 1.43722e-20)
(4.75244 -1.63402 -1.58488e-20)
(4.53458 -1.72615 1.58009e-20)
(5.24974 -0.930087 0)
(5.04117 -1.39474 1.01909e-20)
(5.5211 0.395434 9.46377e-27)
(5.44214 -0.317414 -9.84103e-27)
(5.41487 1.6294 -4.03332e-23)
(5.51324 1.07364 0)
(5.00986 2.19289 0)
(5.21857 2.01112 0)
(4.47857 2.07422 3.91584e-25)
(4.72353 2.20437 2.85614e-27)
(3.9564 1.61455 -9.05018e-28)
(4.19444 1.85575 9.39497e-28)
(3.51384 1.08589 0)
(3.72133 1.34724 0)
(3.19628 0.497261 -4.5057e-23)
(3.35296 0.80102 0)
(3.05397 -0.229402 4.66172e-23)
(3.1156 0.152086 0)
(3.16701 -0.980785 1.05669e-21)
(3.08761 -0.619977 0)
(3.53565 -1.4968 -8.17592e-21)
(3.34034 -1.27369 -1.99141e-21)
(4.07463 -1.79385 -3.32012e-21)
(3.79933 -1.65629 5.62163e-21)
(4.70136 -2.07976 1.18795e-20)
(4.39145 -1.93458 3.31248e-21)
(4.40512 -3.33626 1.04558e-20)
(3.93917 -2.76454 3.22591e-22)
(4.17603 -3.10257 -1.15216e-20)
(4.78769 -3.05201 4.66227e-20)
(4.61263 -3.35708 -2.58064e-20)
(4.96562 -1.27536 -3.93519e-20)
(4.90648 -2.354 -1.5254e-20)
(4.83829 1.14564 0)
(4.94045 -0.0154202 4.83112e-20)
(4.50384 2.43739 -3.55928e-22)
(4.6831 1.9844 -1.39687e-26)
(4.16561 2.49732 0)
(4.32444 2.56952 0)
(3.82517 2.17797 -1.56103e-23)
(4.00888 2.3349 0)
(3.3953 1.88702 -7.90458e-24)
(3.60882 2.04782 0)
(3.05962 1.27462 0)
(3.20218 1.6395 0)
(2.89412 0.278145 0)
(2.94908 0.811273 0)
(2.93608 -0.823203 0)
(2.88785 -0.283526 0)
(3.16678 -1.7044 0)
(3.04133 -1.3152 1.44111e-22)
(3.31329 -2.01142 -3.83768e-21)
(3.57215 -2.59989 -6.10199e-21)
(3.69051 -2.38949 0)
(4.88313 -2.55141 4.02657e-21)
(5.03367 -2.19522 -1.90936e-20)
(3.24428 -2.60978 0)
(3.62979 -2.54776 -1.96406e-20)
(2.92639 -2.39813 -6.02315e-20)
(3.22616 -2.44919 8.32451e-20)
(2.68297 -2.19891 2.15199e-20)
(2.74151 -2.33389 8.55522e-21)
(2.77623 -1.95116 1.98464e-21)
(2.69327 -2.07174 -1.87638e-20)
(3.08144 -1.67343 8.14932e-22)
(2.91407 -1.80941 2.85198e-21)
(3.50683 -1.37454 0)
(3.27932 -1.52442 -9.85195e-21)
(3.71777 -1.22511 -3.0641e-20)
(3.45351 -3.25867 -3.73842e-21)
(3.49568 -2.98151 -1.04122e-26)
(3.55527 -3.13127 2.9097e-21)
(3.76769 -2.9529 0)
(3.50883 -2.77803 0)
(4.0974 -2.97103 0)
(3.41683 -1.99732 -5.08089e-22)
(3.33452 -2.24413 3.46044e-23)
(4.59643 -2.82869 -4.43385e-20)
(5.3678 -2.19557 1.19293e-20)
(5.18552 -2.54632 6.37478e-20)
(4.01596 -1.17411 -1.92097e-20)
(3.91313 -1.06014 2.57394e-20)
(3.4616 -3.1583 -1.38855e-26)
(4.45158 -1.40727 -4.50826e-22)
(4.29224 -1.34607 4.85867e-21)
(4.9843 -1.34812 -5.42282e-21)
(4.75886 -1.46598 0)
(5.51969 -0.723321 4.44673e-27)
(5.30447 -1.14846 6.2701e-21)
(5.78954 0.427746 0)
(5.72923 -0.207325 0)
(5.63123 1.48861 -1.07366e-22)
(5.77153 1.00452 0)
(5.15608 1.93321 0)
(5.41482 1.7999 0)
(4.58042 1.77979 -1.77837e-23)
(4.84823 1.92381 0)
(4.0605 1.35886 -3.90782e-23)
(4.28186 1.5895 0)
(3.6505 0.891208 0)
(3.82385 1.13383 0)
(3.35166 0.36349 -8.59827e-24)
(3.487 0.640595 0)
(3.2158 -0.276159 9.48222e-24)
(3.26958 0.0591003 0)
(3.33263 -0.928326 -5.66711e-23)
(3.25528 -0.612766 3.30223e-27)
(3.69782 -1.32817 -1.15786e-23)
(3.50694 -1.17019 0)
(4.15445 -1.49011 1.69423e-21)
(3.9448 -1.42213 -5.19286e-21)
(4.65541 -1.68805 -1.47676e-21)
(4.39638 -1.58457 1.04215e-20)
(5.43199 -1.77542 5.24957e-21)
(5.02014 -1.77659 -1.0363e-20)
(4.08965 -2.50983 4.71273e-22)
(3.51147 -1.73276 4.79412e-22)
(3.7912 -2.12942 0)
(4.73341 -3.10249 -1.05528e-21)
(4.39876 -2.86359 1.22815e-21)
(5.29162 -2.91851 -3.38502e-21)
(5.03048 -3.15958 -4.16834e-22)
(5.58793 -1.27943 1.22854e-22)
(5.48918 -2.28132 -2.28269e-21)
(5.4351 1.01827 0)
(5.57837 -0.0881502 0)
(4.95472 2.24382 1.63502e-22)
(5.21532 1.81151 -2.26287e-26)
(4.45372 2.33433 9.24192e-27)
(4.6964 2.38611 -9.78433e-27)
(4.0352 1.98114 1.84875e-23)
(4.24802 2.16887 0)
(3.56699 1.67663 0)
(3.80774 1.8265 0)
(3.21194 1.15414 -3.97166e-23)
(3.36143 1.47124 0)
(3.0746 0.257825 0)
(3.10735 0.744666 0)
(3.14831 -0.754627 -4.73742e-23)
(3.07145 -0.248868 0)
(3.38681 -1.59177 7.16833e-23)
(3.22688 -1.20523 -2.18788e-22)
(3.72866 -2.14689 -7.58178e-21)
(3.50672 -1.90797 0)
(4.01516 -2.42278 -1.28498e-19)
(3.83369 -2.33059 6.03267e-20)
(4.09718 -2.41493 -2.44104e-20)
(2.77616 -2.09115 0)
(3.56525 -2.15299 -9.52379e-20)
(3.10886 -2.18944 1.09544e-20)
(2.50627 -1.88648 0)
(2.57023 -2.02235 0)
(2.63823 -1.63204 -5.07448e-21)
(2.53573 -1.75319 -2.83182e-27)
(2.98584 -1.38473 -1.66855e-21)
(2.79998 -1.50605 5.55925e-21)
(3.3473 -1.12015 0)
(3.1724 -1.25797 1.13096e-20)
(3.13566 -1.54332 -4.80936e-24)
(3.25497 -1.28593 -1.44664e-21)
(5.71396 -1.96417 -6.02681e-20)
(5.84081 -1.61965 -5.31482e-20)
(3.67684 -0.838947 3.0934e-20)
(3.50718 -0.980106 -1.52873e-20)
(3.50253 -3.14263 -2.25434e-25)
(3.64197 -3.05352 0)
(3.46899 -2.93657 0)
(3.89741 -3.10424 -4.95125e-25)
(3.27311 -2.48791 -2.2357e-23)
(4.30998 -3.0588 -2.24326e-20)
(3.05553 -1.79073 1.65136e-23)
(4.84958 -2.7782 0)
(3.00488 -0.723642 -9.42003e-21)
(2.87811 -0.961041 5.6223e-23)
(5.45898 -2.22866 -9.10258e-20)
(6.08355 -1.18875 5.89111e-20)
(5.94085 -1.33998 2.58105e-20)
(3.0635 -0.446131 1.22298e-20)
(2.80376 -0.0373652 9.44898e-21)
(2.85162 0.146429 1.4591e-20)
(6.09714 -0.399633 3.57146e-20)
(6.00035 -0.946025 5.34405e-22)
(6.13454 -0.422959 -6.17707e-22)
(3.8433 -0.70104 1.73732e-20)
(3.64889 -0.669213 0)
(3.78959 -0.57248 -2.05751e-20)
(3.56211 -3.14339 -1.61813e-26)
(4.16438 -0.979647 5.42833e-21)
(4.06235 -0.900705 3.08648e-20)
(4.59243 -1.17394 -4.16115e-21)
(4.43607 -1.15377 -5.36644e-21)
(5.11266 -1.08202 0)
(4.89602 -1.23556 0)
(5.63552 -0.51119 0)
(5.42429 -0.910237 0)
(5.89944 0.44337 0)
(5.84375 -0.0883075 0)
(5.72992 1.28916 0)
(5.88285 0.907021 0)
(5.23117 1.62767 2.26146e-27)
(5.5125 1.53928 -2.34931e-27)
(4.65195 1.47588 1.739e-23)
(4.92946 1.62199 2.20938e-27)
(4.15145 1.11463 3.90781e-23)
(4.36824 1.32955 0)
(3.7513 0.713627 0)
(3.91572 0.940293 0)
(3.45454 0.260058 -5.52332e-24)
(3.57363 0.507348 0)
(3.33666 -0.246297 6.15142e-24)
(3.36442 0.0154535 0)
(3.4957 -0.697215 5.66641e-23)
(3.3873 -0.488548 0)
(3.85706 -0.999181 1.11743e-22)
(3.6767 -0.863929 3.89792e-27)
(4.26094 -1.26133 5.02381e-21)
(4.06771 -1.14042 0)
(4.77452 -1.41796 -3.75285e-21)
(4.51427 -1.37469 -6.37953e-21)
(5.39311 -1.32841 9.95549e-21)
(5.08609 -1.40308 -5.37304e-21)
(5.72561 -1.21394 6.57524e-22)
(3.66379 -1.46054 6.83659e-21)
(3.35832 -1.00332 -1.93625e-20)
(4.24034 -2.18776 1.64335e-23)
(3.94024 -1.84137 7.60938e-22)
(4.91853 -2.73775 -2.02591e-21)
(4.56557 -2.5024 2.31211e-21)
(5.60172 -2.63973 -4.80133e-23)
(5.289 -2.81335 4.23253e-22)
(6.00514 -1.21915 -1.22747e-22)
(5.85701 -2.11055 -4.87331e-26)
(5.86303 0.848441 0)
(6.01392 -0.143175 0)
(5.28755 1.95443 -2.99876e-26)
(5.60046 1.56261 3.17414e-26)
(4.64227 2.06841 0)
(4.95507 2.09278 0)
(4.14727 1.76078 1.74353e-23)
(4.3726 1.93849 0)
(3.70442 1.46173 0)
(3.92809 1.59946 0)
(3.3575 1.03832 3.97167e-23)
(3.49774 1.29488 0)
(3.2532 0.250557 0)
(3.25648 0.681022 0)
(3.35976 -0.669004 -1.17767e-23)
(3.24669 -0.20895 1.42098e-26)
(3.61867 -1.45795 -6.96736e-23)
(3.42445 -1.08905 0)
(3.95871 -2.02449 0)
(3.73646 -1.78216 -4.49753e-24)
(4.34141 -2.30492 3.9108e-20)
(4.15576 -2.20458 1.01715e-23)
(4.576 -2.26265 8.48281e-20)
(3.55755 -1.69118 -2.30951e-19)
(4.13156 -1.63198 1.21153e-19)
(2.69416 -1.61465 0)
(3.06617 -1.72203 0)
(2.35755 -1.42679 -3.10338e-24)
(2.45456 -1.53735 -7.16054e-27)
(2.49004 -1.2025 -9.05421e-25)
(2.38212 -1.31183 -2.66001e-27)
(2.84325 -1.01931 9.80584e-22)
(2.65173 -1.10413 1.40576e-27)
(3.26969 -0.845833 1.41767e-20)
(3.04617 -0.93271 -5.50082e-21)
(3.47829 -0.757819 1.56112e-21)
(3.44508 -3.05997 4.52559e-25)
(3.69907 -3.16427 -9.794e-26)
(3.27637 -2.72253 0)
(3.99399 -3.16714 5.55789e-25)
(2.98935 -2.07321 3.99687e-23)
(4.47923 -2.92951 2.24745e-20)
(2.78653 -1.16869 -6.8036e-23)
(5.06799 -2.37049 6.49452e-21)
(2.68379 -0.227539 1.79818e-23)
(5.62457 -1.40022 0)
(2.82103 0.62954 -1.65396e-20)
(2.69879 0.636602 0)
(5.91006 -0.257953 3.82167e-20)
(5.94214 0.350703 1.92464e-20)
(5.77772 0.706395 -3.36899e-20)
(3.15636 0.503453 -3.10347e-22)
(2.99792 0.90296 -2.72784e-20)
(3.38938 0.705378 -2.78686e-22)
(5.46015 1.12289 2.67892e-20)
(5.85363 0.180814 4.53025e-20)
(5.57531 0.711251 7.15862e-20)
(3.50125 -0.379865 0)
(3.65865 -0.340809 -7.34875e-20)
(3.96981 -0.554707 3.41256e-20)
(3.91623 -0.461781 -3.57752e-20)
(3.55133 -3.14754 1.00311e-25)
(4.26559 -0.773179 -1.45609e-20)
(4.16534 -0.743236 -1.53831e-20)
(4.65433 -0.910876 1.1803e-21)
(4.509 -0.955202 -6.00813e-21)
(5.14557 -0.796722 -8.86749e-24)
(4.94056 -0.992325 8.32119e-27)
(5.62995 -0.308304 0)
(5.44055 -0.683175 0)
(5.85794 0.474067 0)
(5.8178 0.0141066 0)
(5.6887 1.12393 -2.68404e-24)
(5.83822 0.818024 0)
(5.22513 1.34736 0)
(5.49349 1.29023 0)
(4.67127 1.19942 0)
(4.94884 1.33428 0)
(4.17667 0.878576 0)
(4.40548 1.08629 0)
(3.78122 0.520442 0)
(3.95075 0.742048 0)
(3.54187 0.138582 5.91777e-23)
(3.62714 0.359981 0)
(3.52988 -0.257462 2.53211e-24)
(3.5031 -0.0419106 1.62667e-26)
(3.74123 -0.66496 0)
(3.62105 -0.458554 0)
(4.03139 -1.00155 3.62831e-24)
(3.89254 -0.858202 -3.89788e-27)
(4.3698 -1.12633 5.14367e-23)
(4.20203 -1.10122 1.42749e-26)
(4.7696 -1.13563 5.9877e-21)
(4.57171 -1.14942 5.95847e-24)
(5.24957 -1.04029 -2.75249e-21)
(5.01235 -1.11941 -3.35128e-21)
(5.73504 -0.668425 -1.22468e-20)
(5.50849 -0.908894 9.37714e-21)
(5.89383 -0.314291 -4.73206e-20)
(3.10297 -0.18358 1.99737e-21)
(3.02909 0.219854 -3.24069e-22)
(3.70102 -1.12843 -2.21878e-22)
(3.35626 -0.660541 0)
(4.40058 -1.87922 -1.62436e-23)
(4.06127 -1.52663 -7.7065e-22)
(5.09538 -2.39265 0)
(4.74928 -2.16732 0)
(5.79721 -2.35873 2.79701e-23)
(5.46552 -2.48663 0)
(6.24775 -1.14812 0)
(6.0733 -1.91696 0)
(6.11211 0.665172 0)
(6.26033 -0.210129 0)
(5.48188 1.65018 3.17057e-23)
(5.81664 1.30013 0)
(4.76086 1.77507 0)
(5.10013 1.77526 0)
(4.21336 1.5514 -2.03127e-23)
(4.43794 1.68956 0)
(3.81525 1.26526 -5.11183e-23)
(3.99155 1.39931 0)
(3.48849 0.929776 -6.0014e-23)
(3.60953 1.12754 3.64098e-27)
(3.39818 0.269412 -6.53471e-23)
(3.38171 0.633667 -3.16529e-26)
(3.53157 -0.559631 -7.30635e-24)
(3.41298 -0.155334 0)
(3.80356 -1.29687 0)
(3.64009 -0.967893 0)
(4.17133 -1.85233 0)
(3.99749 -1.61192 4.50518e-24)
(4.63285 -2.12122 -2.62346e-20)
(4.45474 -2.01422 -9.98925e-24)
(4.94089 -2.04905 2.04922e-20)
(4.79416 -0.977199 0)
(5.31146 -0.864103 -2.79113e-19)
(3.58914 -1.06289 1.27471e-19)
(4.19838 -1.0456 4.19302e-20)
(2.6193 -0.986636 1.21213e-23)
(3.0389 -1.04947 2.5667e-26)
(2.26475 -0.862563 6.36985e-24)
(2.36655 -0.934575 1.55723e-26)
(2.39899 -0.717853 -5.21385e-27)
(2.2854 -0.790303 5.30127e-27)
(2.77933 -0.596576 2.35722e-21)
(2.57371 -0.65011 -2.10217e-27)
(3.15785 -0.496666 -1.41209e-20)
(2.97683 -0.550294 -2.40184e-21)
(3.33103 -0.434032 -1.66495e-20)
(3.29089 -2.93217 0)
(3.69481 -3.17869 3.64956e-26)
(3.00927 -2.35452 0)
(4.05753 -2.98632 -4.03388e-24)
(2.70613 -1.42426 -4.79549e-23)
(4.56798 -2.4318 -6.38727e-23)
(2.57596 -0.347116 5.87715e-23)
(5.17088 -1.41504 2.87349e-22)
(2.58976 0.581596 -6.25243e-23)
(5.59478 -0.0781895 5.67601e-22)
(2.77834 1.11074 0)
(5.56845 1.1146 2.86371e-20)
(3.59434 0.915776 -3.09285e-20)
(3.23961 1.06725 5.24374e-20)
(5.20813 1.7215 8.73503e-23)
(5.13734 1.09481 -7.61227e-20)
(4.85673 1.6044 -4.66685e-20)
(3.79306 -0.318059 1.87644e-21)
(3.44689 -3.09844 -2.42894e-25)
(4.09921 -0.396909 -3.33914e-20)
(3.89474 -0.146384 2.26445e-19)
(3.98365 -0.388593 -1.39241e-19)
(4.36172 -0.62994 3.17905e-21)
(4.1782 -0.599236 3.09493e-20)
(4.71131 -0.755005 -1.17885e-21)
(4.45948 -0.753985 3.11208e-21)
(5.14371 -0.629576 -3.73252e-21)
(4.85683 -0.727318 3.20666e-21)
(5.53442 -0.197575 -1.85271e-23)
(5.29769 -0.416778 7.04956e-27)
(5.71236 0.428636 -1.28674e-23)
(5.62151 0.156937 -2.04493e-27)
(5.5502 0.928349 2.01537e-23)
(5.65051 0.767444 0)
(5.1158 1.0673 0)
(5.35007 1.09566 0)
(4.58203 0.916675 -4.52585e-23)
(4.8526 1.06938 0)
(4.10493 0.644922 2.50097e-26)
(4.33861 0.836588 -2.59629e-26)
(3.76266 0.370889 2.8272e-26)
(3.92038 0.546244 -2.93406e-26)
(3.60685 0.118352 -3.02072e-26)
(3.66794 0.267507 3.13402e-26)
(3.61166 -0.145137 -1.30998e-22)
(3.60376 0.0021305 3.24918e-26)
(3.68172 -0.450463 6.7301e-23)
(3.65056 -0.297529 3.33578e-26)
(3.84202 -0.695407 3.6614e-24)
(3.75108 -0.595641 0)
(4.15173 -0.858529 6.39515e-23)
(3.98424 -0.791465 3.20418e-26)
(4.57023 -0.935538 5.35436e-23)
(4.35187 -0.92464 0)
(5.03318 -0.829299 3.80126e-21)
(4.80058 -0.911492 0)
(5.45885 -0.457875 1.60399e-20)
(5.25808 -0.688612 -1.79093e-20)
(5.57971 0.145007 0)
(5.57376 -0.165097 2.22138e-21)
(5.15654 0.72892 8.87584e-20)
(5.4318 0.464154 -8.53368e-20)
(3.32797 0.323906 2.30151e-21)
(3.47557 0.750949 1.82805e-20)
(3.41187 0.539185 -1.76725e-20)
(3.20322 -0.104882 6.32529e-22)
(3.23373 0.124265 7.23993e-23)
(3.57764 -0.764376 0)
(3.32274 -0.399257 0)
(4.32954 -1.47145 -3.14562e-23)
(3.94047 -1.12647 0)
(5.13925 -1.99597 0)
(4.74049 -1.76789 0)
(5.85404 -2.0409 2.0036e-23)
(5.52112 -2.11278 0)
(6.24975 -1.06181 0)
(6.09944 -1.69859 0)
(6.11771 0.470861 0)
(6.24768 -0.273817 0)
(5.52861 1.29928 -3.6507e-23)
(5.83202 1.00043 0)
(4.87021 1.43329 0)
(5.17358 1.40543 0)
(4.31093 1.3241 -3.75302e-26)
(4.53693 1.39472 3.97438e-26)
(3.92446 1.08838 5.10669e-23)
(4.0725 1.20107 5.48677e-26)
(3.60963 0.817083 1.26307e-22)
(3.72014 0.964295 6.05953e-26)
(3.50708 0.288827 -4.62278e-24)
(3.49269 0.587993 0)
(3.65883 -0.445837 6.65261e-23)
(3.54296 -0.0741964 -7.18302e-26)
(3.96468 -1.13582 6.21033e-26)
(3.81223 -0.806747 -6.58721e-26)
(4.37056 -1.65235 0)
(4.19969 -1.39924 0)
(4.89027 -1.88397 -6.93581e-22)
(4.66256 -1.77882 3.77106e-22)
(5.40564 -1.67254 0)
(5.17379 -1.8168 8.95936e-22)
(5.57344 -1.42253 0)
(4.77506 -0.352751 0)
(5.71102 -0.280934 -7.13714e-21)
(5.31862 -0.304896 9.31443e-20)
(3.55048 -0.339898 -1.60324e-20)
(4.16325 -0.358885 -3.24943e-20)
(2.61112 -0.249757 7.25362e-26)
(3.01958 -0.28727 0)
(2.25 -0.202713 -3.27474e-24)
(2.35773 -0.226524 0)
(2.36181 -0.170381 0)
(2.25948 -0.186251 0)
(2.73182 -0.129489 -2.48376e-25)
(2.52549 -0.148417 0)
(3.19917 -0.148074 0)
(2.96445 -0.131108 0)
(3.56682 -0.13487 0)
(3.40557 -0.151891 -8.65083e-21)
(3.82932 -0.133362 0)
(3.69435 -0.110302 1.8585e-20)
(3.78338 1.11468 5.83965e-20)
(3.58604 0.90918 0)
(4.74067 1.19882 5.54222e-21)
(4.84477 0.861442 6.33993e-21)
(3.08219 -2.60743 5.41712e-24)
(3.64691 -2.93369 0)
(5.92217 -0.869315 0)
(2.72723 -1.69021 7.75149e-24)
(4.03835 -2.40826 2.91476e-24)
(3.98633 -0.171322 5.31138e-20)
(3.82105 0.0154067 0)
(3.90566 -0.00360645 0)
(2.50074 -0.515305 2.8255e-23)
(4.58622 -1.38862 8.94588e-23)
(2.47741 0.578963 0)
(5.12368 0.0299383 -5.46317e-22)
(2.65206 1.25848 0)
(5.34188 1.44426 0)
(3.02065 1.31705 0)
(5.09766 2.26663 -2.02622e-20)
(3.42866 1.25686 -3.45571e-21)
(4.5857 2.22811 1.21468e-21)
(3.73182 1.02829 0)
(4.02337 1.21962 -2.87371e-20)
(4.36726 1.62586 -4.92978e-20)
(4.46891 1.09235 1.0308e-19)
(4.60581 0.832988 -1.02546e-19)
(3.29653 -2.81051 1.72651e-25)
(4.15074 -0.38952 1.66361e-20)
(4.05372 -0.239537 0)
(4.35804 -0.550836 -3.21817e-21)
(4.22185 -0.455974 -7.45327e-21)
(4.66232 -0.577029 0)
(4.47942 -0.574939 3.51537e-21)
(5.01407 -0.422563 0)
(4.82795 -0.524607 5.96043e-22)
(5.29796 -0.0377372 1.85205e-23)
(5.1604 -0.262305 0)
(5.41178 0.462737 4.12544e-23)
(5.37306 0.214726 0)
(5.27046 0.794591 1.29866e-23)
(5.36918 0.666799 0)
(4.89985 0.837134 -3.82999e-23)
(5.1062 0.864962 -3.31381e-26)
(4.43821 0.675609 4.52145e-23)
(4.67828 0.795262 4.50483e-26)
(4.05196 0.464231 -5.56137e-23)
(4.24483 0.596625 5.09513e-26)
(3.83096 0.281396 -5.7837e-26)
(3.93853 0.393569 5.63349e-26)
(3.76175 0.0891787 -6.37505e-23)
(3.79678 0.207562 6.40891e-26)
(3.76527 -0.188503 1.32555e-22)
(3.7673 -0.0284978 0)
(3.86085 -0.508231 6.46138e-25)
(3.80113 -0.350457 6.93723e-26)
(4.10136 -0.702545 -1.34419e-22)
(3.96886 -0.628565 0)
(4.38397 -0.742929 -6.39186e-23)
(4.24448 -0.736765 -6.6936e-26)
(4.65452 -0.724167 0)
(4.51845 -0.739877 0)
(4.93388 -0.6096 7.96067e-21)
(4.78932 -0.687523 -8.32803e-21)
(5.18863 -0.341995 0)
(5.0737 -0.49466 -4.2038e-27)
(5.2451 0.0970841 3.2073e-21)
(5.2472 -0.144431 -4.68944e-21)
(5.00163 0.526284 4.67794e-20)
(5.16252 0.341358 -4.66868e-20)
(4.58265 0.608053 0)
(4.78716 0.613859 -6.31355e-21)
(3.64801 0.66879 9.92504e-21)
(3.96376 0.841464 -8.35319e-22)
(3.8031 0.771943 -1.79275e-20)
(3.48112 0.294032 2.07114e-20)
(3.5436 0.502928 -9.77899e-21)
(3.41171 -0.101741 1.00433e-20)
(3.44447 0.0871975 -3.12165e-20)
(3.55089 -0.511693 -3.9368e-23)
(3.43354 -0.282245 3.32525e-22)
(4.12431 -1.05122 3.14557e-23)
(3.79418 -0.770031 0)
(4.9094 -1.56363 1.06222e-25)
(4.51139 -1.32485 -1.12271e-25)
(5.57542 -1.73862 -6.31074e-26)
(5.26855 -1.73292 6.67186e-26)
(5.9837 -0.965882 -1.37176e-23)
(5.80682 -1.49382 0)
(5.95797 0.304051 7.18796e-27)
(6.03204 -0.317658 -7.6052e-27)
(5.45608 1.02242 4.77072e-24)
(5.72178 0.748908 3.20838e-26)
(4.89227 1.15958 0)
(5.14485 1.12595 0)
(4.3938 1.10683 5.8168e-23)
(4.60149 1.13805 -3.43424e-27)
(4.02881 0.929009 -1.19655e-25)
(4.16509 1.0201 1.26737e-25)
(3.72867 0.705707 4.42607e-24)
(3.84401 0.820462 0)
(3.59133 0.30598 6.99993e-23)
(3.60726 0.544263 0)
(3.73815 -0.319666 -7.26623e-23)
(3.6319 0.0240059 0)
(4.07992 -0.952398 1.32292e-25)
(3.9133 -0.620088 -1.40273e-25)
(4.52362 -1.42145 0)
(4.32272 -1.16572 0)
(5.05238 -1.62808 -2.89116e-21)
(4.79815 -1.52508 2.82756e-21)
(5.58729 -1.42219 1.26572e-20)
(5.33082 -1.56527 -1.2515e-20)
(5.78173 -1.16999 0)
(5.6854 0.237503 2.2443e-20)
(5.93134 0.219524 -3.59706e-20)
(4.78613 0.354806 0)
(5.30777 0.309755 -2.20412e-20)
(3.56683 0.4539 6.25033e-23)
(4.18942 0.426617 0)
(2.5994 0.505889 -1.21165e-23)
(3.01459 0.494671 -1.04169e-25)
(2.2465 0.4501 0)
(2.34778 0.485041 0)
(2.37637 0.377826 0)
(2.26455 0.41359 0)
(2.75509 0.334687 2.46939e-25)
(2.55154 0.351677 0)
(3.14534 0.276333 0)
(2.95553 0.312464 0)
(3.52733 0.172113 -1.77665e-20)
(3.34066 0.224266 8.35788e-21)
(3.68779 0.110424 6.70994e-23)
(3.89669 1.15571 0)
(4.13116 0.888743 1.21554e-20)
(4.43806 0.7544 7.72158e-20)
(4.41945 0.562909 -9.63335e-20)
(2.86038 -1.93669 -4.42985e-25)
(3.54085 -2.30247 1.71727e-24)
(4.07883 -0.0492501 -8.38973e-20)
(4.00458 -0.0382238 5.33163e-20)
(2.50348 -0.694925 -1.01493e-22)
(3.97241 -1.31094 0)
(2.39885 0.554528 -1.57716e-22)
(4.51458 0.111968 -2.63413e-22)
(2.53739 1.42549 0)
(4.94631 1.60458 0)
(2.91777 1.61716 1.83993e-22)
(5.05337 2.60233 -1.04226e-21)
(3.26831 1.43497 0)
(4.67037 2.76602 -7.92737e-21)
(3.60721 1.42825 -2.00478e-20)
(4.08035 2.09847 0)
(4.25519 1.29291 1.69737e-20)
(4.05495 1.36863 4.36272e-20)
(4.29773 0.91347 -2.74174e-20)
(4.09728 1.23577 2.2783e-20)
(4.31254 0.961223 -7.74358e-20)
(4.20216 0.872057 -8.67081e-21)
(4.3459 0.870605 -7.19719e-21)
(4.45476 0.936849 3.40528e-20)
(5.86592 0.5331 4.30952e-20)
(4.28055 0.660057 1.55526e-21)
(4.28275 0.488894 2.12958e-19)
(3.12155 -2.14082 0)
(4.20881 -0.254745 -7.21038e-21)
(4.07736 -0.234985 2.82516e-20)
(4.39595 -0.390164 0)
(4.22359 -0.371099 0)
(4.65828 -0.411414 0)
(4.46681 -0.417567 0)
(4.92968 -0.291987 0)
(4.76323 -0.357083 0)
(5.10545 0.0270593 3.89734e-23)
(5.01829 -0.136652 2.5771e-27)
(5.10325 0.436698 -2.84528e-23)
(5.11775 0.252534 6.98745e-26)
(4.93585 0.679603 -3.05239e-23)
(5.03379 0.606057 7.05438e-26)
(4.64588 0.658606 3.82542e-23)
(4.80184 0.712463 7.98906e-26)
(4.32176 0.505056 0)
(4.48581 0.605546 -2.94289e-27)
(4.07267 0.358736 5.55604e-23)
(4.19488 0.445766 3.31737e-27)
(3.93365 0.242207 0)
(4.00594 0.317422 3.69036e-27)
(3.85746 0.0882699 5.21144e-25)
(3.90202 0.185281 0)
(3.83394 -0.130955 -1.32047e-22)
(3.84109 -0.0100381 0)
(3.90667 -0.347993 -6.81769e-23)
(3.85511 -0.244341 1.3574e-25)