/*--------------------------------*- C++ -*----------------------------------*\
  =========                 |
  \\      /  F ield         | OpenFOAM: The Open Source CFD Toolbox
   \\    /   O peration     | Website:  https://openfoam.org
    \\  /    A nd           | Version:  10
     \\/     M anipulation  |
\*---------------------------------------------------------------------------*/
FoamFile
{
    format      ascii;
    class       surfaceScalarField;
    location    "59";
    object      phi;
}
// * * * * * * * * * * * * * * * * * * * * * * * * * * * * * * * * * * * * * //

dimensions      [0 3 -1 0 0 0 0];

internalField   nonuniform List<scalar> 
57492
(
0.000235891
-1.06013e-05
-4.37527e-05
-0.000181537
-0.000162682
0.000267652
0.00013092
-2.87645e-05
8.08653e-05
0.000323404
-0.000375505
0.00315979
0.00338642
-0.000272089
-0.00627413
-0.00862823
0.00404528
0.00774275
0.000744736
-0.000685761
-0.000359604
0.000300629
-0.00132804
0.000231175
-8.10337e-05
0.0011779
0.000284137
-0.000867444
0.00158826
-0.00463345
0.00442589
-0.00138071
0.00134064
0.00424939
-0.00400176
-0.000611969
-0.000206681
0.000684755
0.000133895
-0.00012254
-0.000832726
0.000343297
0.000231912
-0.000325422
-2.90309e-05
-5.33033e-05
7.85346e-05
0.00176186
-0.00169949
-0.000637193
0.000574821
0.000252621
0.00142152
8.77181e-05
-0.000324398
0.000788255
0.00333525
-0.00379911
-0.00066058
0.00326112
-0.00292494
0.000135463
-0.00028857
0.000153106
-0.00166343
0.00122004
0.000578858
-0.00465991
0.000189774
0.00333571
0.00113443
0.0012279
-0.00473005
-0.00115777
-0.000133036
-0.000196587
-0.000702315
0.00103194
-0.00028713
0.000176128
-2.20346e-05
-0.00254637
0.00216123
0.000734792
-0.000349647
-0.00304957
0.000925543
-0.000422347
-0.00112758
0.000596353
0.00045671
7.45195e-05
-0.000778875
-0.000362239
1.35318e-05
-0.000367169
-0.00113354
0.00129045
0.000210254
-0.000415934
0.00011635
-6.75855e-05
0.000775457
-0.000516185
-0.000480898
0.000221626
-0.00066918
0.000537195
0.000907443
-0.000916427
-0.00175636
0.00169854
0.000974242
-0.00208476
-0.000499014
0.00166735
-0.000707315
-0.000152041
0.000859355
-0.000271242
-0.000436072
-0.00137441
0.00189188
-0.000788712
0.000203055
-0.000767155
-0.000810305
-0.000588726
0.000819901
-0.000233017
-0.00190185
0.00115083
0.000751014
-0.00432168
0.00241984
0.00489091
-0.000836813
0.000362471
-0.00441657
0.00359925
-6.78213e-05
0.00135948
-0.000744228
0.0048976
-0.00499019
0.00145762
0.000313888
-0.00148737
0.00146918
-9.25917e-05
0.00177908
-0.000666869
-0.00132469
0.000212478
0.00199184
0.000101134
0.000910041
-0.000565859
0.001125
0.000881132
0.00120681
-0.00475356
-0.000636777
0.000548902
0.00484143
-0.00488666
-0.000300801
0.0004339
0.00121651
0.00451322
-0.00443784
-0.00129188
0.000888031
-0.00430497
-0.00278074
0.0025303
0.0025362
-0.00228576
-0.000275085
0.00320444
-0.0057101
1.48654e-05
-0.000116697
-8.06689e-07
0.000102639
-0.000321202
1.0646e-05
6.70182e-05
-0.00013598
-0.000252241
-5.63432e-05
6.66413e-06
1.11332e-05
-1.19399e-05
8.85866e-06
2.2745e-06
0.00730463
0.00378573
-0.00588025
-0.00521012
0.00233696
-0.000701614
0.00566928
-0.00785421
0.00309834
0.00709283
0.00229229
-0.00636077
0.00162402
-0.00286574
0.0021336
-0.000891877
0.00235623
-0.00291436
0.00218215
-2.98761e-05
2.18398e-05
-2.56505e-06
-7.02109e-05
-3.41791e-06
-0.00022274
-2.90077e-05
-0.00293834
0.00534786
0.00339289
-0.00580241
0.00436308
-0.00494519
0.00298444
0.00474779
-0.00238437
0.0100871
-0.00148277
-0.00178963
-0.00681475
0.00224154
0.00542112
0.00242449
0.00160508
-0.00500731
0.00564376
4.67953e-05
-7.55598e-05
0.000127661
0.000816166
0.00175749
-0.000626303
-0.00194735
0.00103994
9.96312e-05
-9.57429e-05
2.63162e-05
6.94266e-05
-0.000298004
0.000202261
-0.00660464
0.00342292
-0.00201307
0.00519479
-0.0057412
-0.00249682
0.00163337
-0.00262477
0.00208822
-0.00520465
0.00195156
-2.65905e-05
-0.000944101
-0.000980866
-0.00071149
0.00222719
0.000435854
-0.000834492
-8.52334e-05
0.000208235
-0.000771426
-8.96569e-05
-0.000271424
-0.0014441
-0.000236924
-6.25958e-05
1.85355e-05
0.000280984
-0.000215563
-0.000521837
0.000500476
0.000137481
1.68507e-05
-0.000369895
7.91343e-05
-4.24907e-06
0.000100326
-2.6565e-06
-0.000641007
0.000369582
8.34398e-05
-0.000724447
0.000172335
-0.000470339
0.00427361
0.00333162
-0.00017852
0.00212864
-0.00648327
-1.03676e-05
0.00226396
-0.00179748
-0.000456113
0.000291748
0.00316413
-0.00346624
0.00326991
0.00184329
-0.000502025
-0.00461118
-0.00103198
0.000499387
0.00380251
0.00399173
-0.00318042
-0.00164227
-0.00303458
0.00125069
0.00342616
-0.00118533
0.003505
-0.00396194
0.000422834
-0.00464274
8.24663e-05
3.37501e-05
-4.58711e-06
0.00104554
-0.000616515
-0.00059171
7.69409e-05
-0.000324583
0.00129319
0.000363688
-1.90943e-05
-0.000187222
0.000331752
6.8323e-05
-0.000212854
0.000991596
-0.00121492
3.61041e-05
-0.000357558
0.000830799
0.000518355
-0.000125081
9.92746e-05
-0.00611375
0.00365083
0.00588584
0.00772183
-0.00200687
-0.00821178
-0.00285606
0.00446415
-9.71069e-05
-0.000874272
-0.000162159
-0.000522168
9.12733e-06
4.79122e-05
-0.00012994
3.7203e-05
4.48251e-05
-0.000130015
0.000144548
3.33785e-05
-0.00029946
3.95053e-05
-0.000265271
-0.000312727
5.583e-05
-0.00080363
-0.000335913
-0.000836828
-0.000898026
0.00102636
0.000708497
3.42654e-05
0.000442846
-0.00131394
-0.00117131
0.000307547
-0.00293425
0.00133082
-6.00048e-05
-0.00350301
0.000809657
-0.000240895
0.000876
-0.00334735
0.00256415
-9.27994e-05
0.000679027
-0.00272842
0.0029254
0.00252821
-0.0101972
-0.00176575
0.00218216
0.00302184
-0.00345677
0.00206077
-0.000320935
4.16271e-07
1.64345e-05
-3.39517e-06
3.81143e-06
0.000284244
-4.12992e-05
0.00559742
-0.00341558
-0.00248152
0.000299674
0.00484257
1.0628e-05
0.00464544
0.000164129
-0.00508466
0.00137781
0.00329928
-3.16469e-05
0.000549116
-0.00291571
0.00374441
5.36293e-06
-8.7581e-06
0.000759162
-0.00211983
-0.00284647
0.00123189
0.00308352
0.000874177
-4.97071e-05
-0.000919089
9.46197e-05
0.000290122
-8.5126e-05
-0.00112497
0.000247584
0.00141459
0.000204192
-0.00103904
-0.000134909
7.58526e-05
-7.35418e-06
1.03135e-05
-2.64072e-06
-3.18598e-07
1.0921e-05
-2.40425e-07
-1.80347e-05
4.65026e-05
-0.000104186
6.86046e-05
-0.00171743
0.00265132
-0.000761546
0.00291721
-0.00378481
-0.000849837
6.34278e-06
-0.00154451
0.00178575
-0.00399258
0.000241393
-0.00273698
-0.00183173
0.000576135
0.00269165
0.00291118
-0.00541305
0.00260489
0.00429329
-0.00420654
0.0022401
-0.00308414
0.00160622
-0.000762177
0.0024553
-0.0030233
0.0028081
0.00437067
0.00187621
0.00500017
-0.000232818
-0.00496594
0.000198589
0.00554042
-0.000661159
0.000120913
0.0055293
-0.000903366
8.2342e-05
-0.00470827
0.0039688
-0.0013755
0.002936
0.00430775
-0.0014045
0.00114139
-0.00404464
0.00127
0.00438779
-0.00135004
-0.00387607
-0.00166609
0.00413766
0.00106712
-0.00369249
-0.00186012
0.0036202
-0.00237882
-0.00323917
0.00215464
0.00346336
-0.00239487
-0.00326726
0.00328331
0.00223481
0.00304606
-0.00147443
-0.00380644
0.00301987
-0.00317993
-0.00258909
0.00261354
0.00299542
-0.00204068
0.00249764
-0.00406887
0.00361494
-0.0010205
-0.00506543
0.00105323
0.00537465
-0.00136245
0.00191014
-0.000265761
0.000992519
-0.00105849
0.000331731
-0.000108821
0.00127241
-0.00142935
-5.30426e-05
0.000305681
0.000111049
-0.00112789
-0.00176359
0.00114739
-1.77122e-07
-6.33031e-08
3.10785e-07
-4.87907e-07
-0.000104847
-0.00194762
0.00148661
-0.00173471
-7.06507e-05
0.00170052
4.83757e-05
-0.00181822
3.51268e-05
-0.000246743
0.00161947
0.000271712
-0.00164444
0.00166297
0.000472147
-0.00238186
0.00165767
0.00162477
-2.45504e-06
4.93157e-07
3.57119e-05
-4.76764e-06
2.3126e-06
-4.27449e-06
-5.55353e-06
4.24412e-06
-5.50338e-05
1.0316e-06
-6.58513e-06
5.27572e-06
-4.39718e-05
2.13045e-05
-0.000264462
2.22002e-05
-6.61719e-05
4.35046e-05
5.31932e-05
-5.33748e-06
-0.000172936
-1.6905e-05
7.00982e-05
-2.22425e-05
0.00142524
0.00328049
-0.00420635
0.00132784
-0.00446653
0.00456393
0.00471532
-0.000106982
-0.00118219
-0.00244433
0.00115803
0.00246848
-0.000710497
0.00272177
-0.00319346
0.000157238
-0.00331206
0.00394574
-0.00395925
-1.6618e-05
3.01341e-05
0.00396703
3.17741e-05
-5.30693e-05
-2.88737e-05
-0.00392894
-1.43999e-06
0.00401929
-5.02789e-06
-4.72331e-05
0.00411317
5.51934e-05
-0.00014907
2.57232e-05
0.00423773
-0.000150282
0.00418595
-0.00413969
-2.0535e-05
-0.000201221
0.00445791
-1.89617e-05
0.00408991
-0.000105186
-0.00399134
-9.3159e-05
-0.00395539
-4.09789e-05
-0.0039269
3.28482e-06
-0.00398709
4.35742e-05
-0.00389762
-0.000118344
-0.000196719
0.00467334
-1.8708e-05
0.00391781
-2.46203e-05
-2.38359e-05
-0.00387083
-3.42697e-05
-0.00390437
-1.70871e-05
-3.19284e-05
-0.00406799
0.000229079
-4.39077e-06
0.0046957
-1.79748e-05
0.00393731
-2.38823e-05
-0.00402119
8.48955e-05
0.00471737
-4.07197e-06
-1.75901e-05
-3.99128e-06
0.00473809
-1.67289e-05
0.0039559
-2.26705e-05
0.00397397
-2.20591e-05
-2.73969e-05
-0.00401625
-2.43347e-05
-0.00401526
-3.33279e-05
-3.57169e-06
0.004758
-1.6341e-05
0.00399125
-2.08469e-05
-4.67075e-06
-0.00398672
-2.48631e-05
-0.00398569
-3.4245e-05
-3.36182e-06
0.00477682
-1.54546e-05
0.00400816
-2.02765e-05
-4.61213e-06
-0.00395651
-2.55964e-05
-0.00395557
-3.47342e-05
-2.69197e-06
0.00479459
-1.50777e-05
0.00402454
-1.90657e-05
-4.75005e-06
-0.00392577
-2.59902e-05
-0.00392478
-3.55396e-05
-1.99777e-06
0.00481076
-1.41756e-05
0.00404108
-1.85403e-05
-4.66919e-06
-0.00389448
-2.66249e-05
-0.00389351
-3.59358e-05
-3.25265e-07
0.0048249
-1.38164e-05
0.00405809
-1.73319e-05
4.25769e-06
-0.00387178
-2.69549e-05
-0.00385267
-3.65815e-05
2.3487e-06
0.00483545
-1.2899e-05
0.00407728
-1.68482e-05
2.04219e-05
-0.00373146
-0.00016074
-0.00375577
-7.64748e-05
8.01986e-06
0.00483999
-1.2555e-05
0.00408218
3.12446e-06
1.98554e-05
-0.00371807
-3.3245e-05
-0.00369669
-3.92237e-05
1.86761e-05
0.00483294
-1.16318e-05
0.00406574
3.51123e-05
4.77558e-05
-0.00355562
-0.000210207
-0.00355916
-8.978e-05
0.000205403
0.00463884
-1.1297e-05
0.00420139
6.97543e-05
5.48601e-05
-0.0035081
-0.000102381
-0.00348928
-1.50181e-05
0.000182125
0.00430875
0.000147963
0.00428227
0.000101247
8.9255e-05
-0.000160367
-0.00343699
-0.00344427
4.42471e-05
1.15084e-05
3.17405e-05
0.0042655
0.00426538
2.83991e-05
-0.00352855
0.00361587
-0.000189696
-0.00351669
-0.000172226
0.000154169
-0.00016606
-0.0034251
4.26649e-05
-0.00333277
-0.00356857
0.00363033
-9.50012e-05
-0.00016291
-0.00352667
0.00355577
-5.60533e-05
-5.70898e-05
-0.00358422
0.00361225
-5.40222e-05
-5.50668e-05
-0.00363961
0.00366657
-5.18238e-05
-5.29614e-05
-0.00369292
0.00397155
-4.95544e-05
-5.06774e-05
-0.00398577
0.00395598
2.83554e-05
-4.84923e-05
-0.004108
0.00409977
-4.48381e-05
-0.000121893
-0.0039905
0.00395374
-0.000112311
6.20425e-05
-0.00388053
0.00390118
-3.96153e-05
-7.70717e-05
-0.00392093
0.00394006
-3.70966e-05
-3.84601e-05
-0.00395838
0.00397614
-3.44832e-05
-3.59169e-05
-0.0039931
0.00400948
-3.18419e-05
-3.33022e-05
-0.00402509
0.00404013
-2.92132e-05
-3.06834e-05
-0.0040544
0.00406813
-2.66213e-05
-2.80921e-05
-0.00408111
0.00409355
-2.40685e-05
-2.5544e-05
-0.00408132
0.00418843
4.0857e-05
9.32318e-07
0.00418853
3.16348e-05
-2.69719e-05
7.35286e-05
0.00421894
-1.53062e-05
0.00425371
0.00419307
-0.00411253
-1.07873e-05
-0.00424531
0.00424708
2.66312e-05
4.90063e-05
0.00409985
-0.00406801
-2.87179e-05
2.24352e-05
0.00405439
-0.00403998
-3.17406e-05
-3.04693e-05
0.00402505
-0.0040093
-3.48138e-05
-3.34775e-05
0.00399301
-0.00397588
-3.79722e-05
-3.65664e-05
0.00395821
-0.00393968
-4.12012e-05
-3.97355e-05
0.00392059
-0.00390071
-4.45025e-05
-4.29698e-05
0.00395962
-0.00393242
-4.77306e-05
-4.62735e-05
0.0039762
-0.00391045
-0.000106734
-4.93774e-05
0.00386174
-0.00381295
-5.22281e-06
-4.54213e-05
0.00383619
-0.00383579
-1.74856e-05
-9.50977e-05
0.00369256
-0.00366622
-5.96666e-05
-5.83422e-05
0.00363946
-0.00361197
-6.22271e-05
-6.10042e-05
0.00358409
-0.00355552
-6.45057e-05
-6.34123e-05
0.00352657
-0.00353655
-6.64989e-05
-6.55311e-05
0.00350839
-0.00352991
-6.82583e-05
-6.73854e-05
0.00347582
-0.00339489
-3.66887e-05
-6.91037e-05
-0.00332837
-2.38582e-05
-0.00351115
-0.000171605
0.00421187
5.01931e-05
-2.13556e-05
0.00425313
8.60218e-05
-0.000105511
-0.00331328
3.01614e-05
-0.0032725
0.000141971
-0.000167385
-0.00348573
-0.00338864
-0.00352382
0.00349642
-0.000162293
0.00353373
-0.00353184
-0.000173498
-0.000162312
-0.00348086
0.0035104
-0.000124536
-0.000147357
-0.0035393
0.00356789
-8.46397e-05
-8.59943e-05
-0.00359582
0.00362335
-8.1556e-05
-8.29986e-05
-0.00365022
0.00367668
-7.82823e-05
-7.9829e-05
-0.00370248
0.00372778
-7.4857e-05
-7.6473e-05
-0.00375232
0.00385203
-7.13593e-05
-7.3033e-05
-0.00379963
0.00382246
-6.76713e-05
-6.94892e-05
-0.00395027
0.0039019
-6.39357e-05
-6.57666e-05
-0.00388668
0.00390696
-5.98877e-05
-6.18583e-05
-0.00392639
0.00394523
-5.59343e-05
-5.78934e-05
-0.00396326
0.00398073
-5.19517e-05
-5.39514e-05
-0.00399741
0.00401353
-4.79619e-05
-4.99836e-05
-0.00402888
0.00404367
-4.40078e-05
-4.60318e-05
-0.00405772
0.00407122
-4.01251e-05
-4.21362e-05
-0.004084
0.00409625
-3.63154e-05
-3.83228e-05
-0.00410754
0.00415139
-2.99045e-06
-1.0362e-05
1.30311e-06
-1.99585e-05
0.0042376
-1.55616e-05
0.00422873
-0.0041492
0.00420008
-6.8021e-07
3.38214e-05
0.00419272
-0.00418324
1.71514e-05
0.00416872
2.64228e-06
8.47772e-06
2.88722e-05
0.00421578
0.00424223
0.00417292
-0.00413138
-5.23205e-05
3.86784e-05
0.00408401
-0.00407108
-4.16527e-05
-2.49327e-05
0.00405766
-0.00404347
-4.59251e-05
-4.38895e-05
0.00402878
-0.00401328
-5.03094e-05
-4.81748e-05
0.00399726
-0.00398042
-5.48138e-05
-5.25878e-05
0.00396305
-0.00394484
-5.94044e-05
-5.71073e-05
0.00392612
-0.00390658
-6.4039e-05
-6.1695e-05
0.00388656
-0.00386568
-6.86113e-05
-6.62931e-05
0.00384427
-0.00387788
-7.31296e-05
-7.07874e-05
0.00384809
-0.00377587
-7.74395e-05
-7.52054e-05
0.00379149
-0.0037273
-8.1681e-05
-7.94816e-05
0.00370214
-0.00367623
-8.55741e-05
-8.35008e-05
0.00364994
-0.00362292
-8.92385e-05
-8.72972e-05
0.00359554
-0.00356746
-9.2585e-05
-9.07967e-05
0.00353902
-0.00350991
-9.56101e-05
-9.39726e-05
0.00348045
-0.00345036
-9.83489e-05
-9.68433e-05
0.00342
-0.00335587
-0.00010082
-9.9465e-05
0.00330654
-0.0032322
-4.41718e-05
-7.31884e-05
-0.00352471
-0.000174517
1.5303e-05
-9.66165e-05
-0.00319119
-0.00318234
-3.45634e-05
-0.000177614
-0.00323228
-1.38345e-07
0.00418465
0.0041847
1.28988e-05
-0.000111065
9.7827e-05
-0.0034725
-0.000141034
-0.00349474
-8.22607e-06
-9.19554e-05
-0.00309101
-5.92354e-05
-0.00313133
-0.00346842
0.00421321
-0.00419162
-2.22696e-05
0.00417924
3.38293e-05
5.53165e-05
-2.19136e-05
0.00418238
2.09642e-05
0.00421905
-0.00348425
0.00355344
-0.000210224
-0.000189732
0.000138087
-0.00344309
0.00353379
2.46139e-05
0.000168432
-0.00372683
-0.000140193
-0.00358018
0.00358186
-0.000175177
-0.000201263
-0.00356483
0.00353584
-0.000133309
-0.000145275
-0.00353785
0.00352968
-0.00011637
-0.000149363
-0.00355785
0.00358565
-0.000112439
-0.000114167
-0.00361281
0.00363957
-0.000108322
-0.000110153
-0.00366569
0.00369141
-0.000103998
-0.000105946
-0.00371646
0.00374107
-9.94701e-05
-0.000101526
-0.00376497
0.00378838
-9.47708e-05
-9.69267e-05
-0.00381105
0.00383326
-8.98797e-05
-9.21597e-05
-0.00385469
0.00387559
-8.48421e-05
-8.71977e-05
-0.0038958
0.0039155
-7.95903e-05
-8.2066e-05
-0.00393443
0.00395279
-7.43034e-05
-7.68153e-05
-0.00397038
0.00398742
-6.89921e-05
-7.15407e-05
-0.0040037
0.00401943
-6.36905e-05
-6.62568e-05
-0.0040344
0.00404884
-5.84479e-05
-6.10086e-05
-0.00406255
0.00407574
-5.33109e-05
-5.58455e-05
-0.00408822
0.0041002
-4.82939e-05
-5.08048e-05
-0.00412281
0.00414013
-2.03138e-05
-3.29691e-05
-1.76725e-05
1.9582e-05
-1.10651e-05
0.00422908
-2.75106e-05
-1.36703e-05
0.00422583
0.00422081
0.00420925
0.00418397
-0.00416959
2.76935e-06
-0.00418742
0.00417338
2.6944e-05
-8.08803e-07
0.00411159
-0.0041149
-4.9015e-05
-1.93185e-05
0.00408819
-0.00407555
-5.42915e-05
-5.1643e-05
0.00406245
-0.0040486
-5.97742e-05
-5.69934e-05
0.00403425
-0.00401913
-6.54312e-05
-6.25203e-05
0.0040035
-0.00398708
-7.12381e-05
-6.82167e-05
0.00397014
-0.00395241
-7.71421e-05
-7.40407e-05
0.00393417
-0.00391513
-8.30779e-05
-7.99337e-05
0.0038956
-0.00387526
-8.89551e-05
-8.58197e-05
0.00385443
-0.00383282
-9.47371e-05
-9.16193e-05
0.00381073
-0.00378785
-0.000100324
-9.72903e-05
0.00376456
-0.00374053
-0.00010571
-0.000102774
0.00371605
-0.00369086
-0.000110772
-0.000107975
0.00366528
-0.003639
-0.000115517
-0.000112877
0.00361236
-0.00358505
-0.000119899
-0.000117436
0.00355739
-0.00352909
-0.000123914
-0.000121629
0.00350046
-0.00347122
-0.00012759
-0.00012547
0.00344169
-0.00341156
-0.000130953
-0.000128995
0.00335251
-0.00326255
-0.000134134
-0.000132232
0.00319927
-0.00317864
-7.9864e-05
-9.78447e-05
-4.75969e-05
1.95554e-05
-0.00310329
-0.00313467
-9.15671e-05
0.000125586
-0.00345999
-7.09192e-05
-0.00325332
6.75892e-06
0.00415882
0.00419644
-2.09452e-06
0.000178211
-0.00359669
4.66786e-05
-0.00311813
0.000795132
-0.00286773
0.00373026
5.32502e-05
-0.000101344
-0.00308658
-5.95985e-06
-0.00304408
-0.00229952
0.00352524
0.000399046
-0.00174464
-0.000283169
-0.00341376
-0.00337426
0.0035449
-2.20691e-06
0.000154417
-3.43252e-06
-0.00353699
0.00353233
-0.00020556
-0.000132287
-0.00353169
0.00350999
-0.000153469
-0.00020063
-0.00351545
0.00353091
-0.000148773
-0.000150735
-0.00352752
0.00355512
-0.000143971
-0.000145973
-0.00358215
0.00360883
-0.000139125
-0.000141193
-0.00363493
0.00366067
-0.000134062
-0.00013625
-0.0036858
0.00371055
-0.000128747
-0.000131073
-0.00373466
0.00375836
-0.000123171
-0.000125638
-0.00378139
0.00380397
-0.000117351
-0.000119952
-0.00382584
0.00384726
-0.000111297
-0.000114034
-0.00386795
0.00388815
-0.000105041
-0.000107893
-0.00390764
0.00392665
-9.8593e-05
-0.000101559
-0.00394491
0.00396266
-9.205e-05
-9.50805e-05
-0.00397966
0.00399614
-8.54701e-05
-8.85429e-05
-0.00401188
0.0040271
-7.89086e-05
-8.19975e-05
-0.00404159
0.00405557
-7.24268e-05
-7.55031e-05
-0.00406885
0.00408162
-6.60829e-05
-6.91204e-05
-0.00409371
0.00410533
-5.99122e-05
-6.29003e-05
-0.00412922
0.00416284
-5.39366e-05
-5.68543e-05
-0.00416254
0.00416903
-2.87571e-05
-1.73714e-05
-0.00419425
0.00419704
3.97182e-06
8.60752e-06
3.44243e-05
-1.69093e-05
0.00420832
-3.1683e-06
-3.32375e-05
0.00423344
0.00419007
3.37603e-05
1.56979e-05
0.00417962
0.00423766
-1.91187e-05
1.79527e-06
0.0041997
0.00420583
2.10649e-06
-3.16007e-05
0.00422593
0.00422295
0.00421544
-0.00419192
3.42303e-06
-0.00428851
0.00418331
7.35933e-05
-7.51639e-05
0.00417251
-0.00415397
-1.57755e-05
-2.02119e-05
0.00411631
-0.0041052
-6.01318e-05
-5.69754e-05
0.00409363
-0.0040814
-6.65305e-05
-6.32042e-05
0.0040687
-0.00405529
-7.31848e-05
-6.96853e-05
0.00404141
-0.00402677
-8.00648e-05
-7.64073e-05
0.00401165
-0.00399577
-8.71205e-05
-8.33356e-05
0.0039794
-0.00396226
-9.4283e-05
-9.04096e-05
0.00394464
-0.00392625
-0.000101472
-9.75549e-05
0.00390738
-0.00388774
-0.000108598
-0.000104686
0.00386763
-0.00384677
-0.000115596
-0.000111724
0.00382547
-0.00380341
-0.000122379
-0.000118596
0.00378095
-0.00375777
-0.000128889
-0.000125233
0.0037342
-0.00370992
-0.000135048
-0.000131554
0.00368528
-0.00365997
-0.000140826
-0.000137517
0.00363432
-0.00360803
-0.00014619
-0.000143085
0.00358142
-0.0035542
-0.000151137
-0.000148239
0.00352668
-0.00349858
-0.000155689
-0.000152987
0.00347021
-0.00344128
-0.000159882
-0.000157363
0.00341211
-0.00338246
-0.000163787
-0.000161406
0.00331511
-0.00322749
-0.000167488
-0.00016519
0.0032048
-0.00316555
-0.000140595
-0.000114257
-9.54714e-05
6.96612e-05
-0.00306076
-0.00311567
-0.000145349
0.000120295
-0.00340208
-1.30912e-05
-0.00319355
0.000306212
-0.00310777
4.76125e-05
-0.00317171
0.00420412
-0.00420169
1.54492e-06
0.00419619
-2.53094e-05
1.94418e-05
-1.0777e-05
0.00421727
-2.63659e-05
0.00422912
0.000327208
-0.00272279
8.27172e-05
-0.00305713
-0.00152579
-0.00186328
-0.00274809
0.00319522
-4.80826e-05
-7.53018e-05
6.5157e-05
-0.00305062
-0.000121458
-0.00306951
-0.00251885
-0.000512415
-0.00330655
-0.00336354
0.00343419
-7.28577e-05
-1.38968e-05
-0.00349014
0.00347055
-0.000185967
-0.000188245
-0.00345272
0.00347997
-0.000180724
-0.000182795
-0.00350687
0.0035336
-0.000175498
-0.000177635
-0.00355994
0.00358605
-0.000170083
-0.000172313
-0.00361167
0.00363701
-0.000164465
-0.000166816
-0.00366182
0.00368631
-0.000158553
-0.000161059
-0.00371024
0.00373381
-0.000152324
-0.000154999
-0.00375679
0.00377939
-0.000145771
-0.000148618
-0.00380136
0.00382292
-0.000138909
-0.000141922
-0.00384382
0.00386429
-0.000131762
-0.000134934
-0.00388407
0.0039034
-0.000124368
-0.00012768
-0.00392204
0.00394022
-0.000116768
-0.000120202
-0.0039577
0.00397469
-0.000109041
-0.000112558
-0.00399097
0.00400677
-0.000101262
-0.00010483
-0.00402186
0.00403645
-9.35051e-05
-9.70894e-05
-0.00405036
0.00406378
-8.58443e-05
-8.94107e-05
-0.00407653
0.00408879
-7.83511e-05
-8.1867e-05
-0.00410042
0.00411159
-7.10817e-05
-7.45238e-05
-0.00412215
0.00413228
-6.40669e-05
-6.74212e-05
-0.0041755
0.00417029
-2.35469e-05
-6.05899e-05
-2.27905e-05
2.23598e-05
-5.72411e-05
0.0042432
1.14256e-05
-6.39647e-06
0.00422841
0.00422386
-6.67147e-06
-1.32497e-06
0.00418762
0.00417374
-3.14722e-05
4.32463e-05
0.00418793
0.00417303
0.00425542
0.00422229
-0.00420157
-1.72933e-05
-0.00417839
0.00422682
2.51609e-05
-3.12686e-05
0.0041801
-0.00413218
-6.36935e-05
-4.16857e-05
0.00412209
-0.0041114
-7.08202e-05
-6.70622e-05
0.0041003
-0.00408855
-7.82832e-05
-7.43065e-05
0.00407636
-0.00406348
-8.60605e-05
-8.18741e-05
0.00405015
-0.00403612
-9.41039e-05
-8.97358e-05
0.00402162
-0.00400639
-0.000102346
-9.78347e-05
0.00399071
-0.00397429
-0.000110702
-0.000106095
0.00395741
-0.0039398
-0.000119081
-0.000114429
0.00392175
-0.00390296
-0.000127388
-0.000122743
0.00388373
-0.00386379
-0.000135537
-0.000130946
0.00384344
-0.00382238
-0.000143438
-0.000138953
0.00380093
-0.0037788
-0.000151016
-0.00014668
0.00375631
-0.00373315
-0.000158199
-0.00015405
0.00370966
-0.00368554
-0.000164946
-0.00016101
0.0036611
-0.00363607
-0.000171226
-0.000167521
0.00361074
-0.00358485
-0.000177032
-0.000173565
0.00355869
-0.00353199
-0.000182384
-0.000179147
0.00350506
-0.00347763
-0.000187314
-0.000184295
0.00344999
-0.0034219
-0.000191871
-0.000189046
0.00339366
-0.00336505
-0.000196097
-0.000193438
0.00328174
-0.00322236
-0.000199974
-0.000197561
0.00316639
-0.00311674
-0.000171106
-0.00020132
-9.1308e-05
9.05022e-05
-0.00306871
-0.00307586
-0.000132194
9.30421e-05
-0.00318891
1.27975e-05
-0.00315873
5.52439e-06
0.00418427
0.00421874
-1.82876e-05
0.000195299
-0.00297586
-0.000292113
-0.00361554
2.13376e-05
-0.00303624
4.84468e-05
-0.00313743
8.34521e-05
-0.00307543
-0.00358488
-0.000797253
0.000274781
-0.000541513
-0.00331814
-0.000149905
-0.00319085
6.58599e-05
-0.00302598
-0.000123662
4.87931e-05
-0.00299384
-0.000116143
-0.00308338
-0.00320071
-0.00305575
0.0032193
-0.000211624
0.00318837
-0.0034693
-0.000516322
-0.000379801
-0.00334531
0.00341965
-0.000147194
-0.000139911
-0.00344543
0.00347125
-0.000211781
-0.000214033
-0.00349686
0.00352237
-0.000206234
-0.000208404
-0.00354756
0.00357262
-0.000200553
-0.00020283
-0.0035973
0.0036218
-0.000194579
-0.000197001
-0.00364586
0.00366968
-0.000188283
-0.000190876
-0.00369302
0.00371608
-0.000181612
-0.000184399
-0.00373862
0.00376085
-0.000174553
-0.000177542
-0.00378253
0.00380386
-0.000167103
-0.000170297
-0.00382461
0.00384498
-0.000159282
-0.000162673
-0.00386475
0.00388411
-0.000151123
-0.000154698
-0.00390284
0.00392115
-0.000142674
-0.000146411
-0.00393881
0.00395603
-0.000133992
-0.000137865
-0.0039726
0.00398872
-0.000125158
-0.000129129
-0.00400418
0.00401917
-0.000116257
-0.000120287
-0.00403351
0.00404738
-0.000107378
-0.000111427
-0.00406061
0.00407337
-9.86085e-05
-0.000102635
-0.0040855
0.00409718
-9.00318e-05
-9.39983e-05
-0.00410825
0.00411889
-8.172e-05
-8.55944e-05
-0.00412896
0.00413861
-7.37258e-05
-7.74851e-05
-0.00414773
0.00419027
-6.60848e-05
-6.97104e-05
-0.00420106
0.00421824
-1.56356e-05
-3.35769e-05
-0.00416931
0.00419353
-1.86941e-05
2.36226e-05
3.51918e-05
-2.3993e-05
0.00421721
2.80613e-05
-5.76667e-05
0.00422313
0.00424752
3.16499e-05
1.36737e-05
0.00419788
0.00423151
-6.22448e-06
-1.31261e-06
0.00419516
0.00418119
8.81341e-06
-1.62631e-05
0.00419538
0.00418054
-7.3538e-06
-6.30775e-06
0.00423093
0.0042318
2.05507e-05
-2.17825e-05
0.00421998
0.00424336
0.00424571
-0.00419059
-2.99615e-05
-0.00423261
0.00421499
-4.15914e-06
-5.18757e-06
0.00419205
-0.0041749
-3.44474e-05
-2.98068e-05
0.00414771
-0.00413847
-7.29261e-05
-6.88779e-05
0.00412887
-0.00411869
-8.09995e-05
-7.66658e-05
0.00410812
-0.00409693
-8.94742e-05
-8.48781e-05
0.00408532
-0.00407307
-9.8313e-05
-9.34776e-05
0.00406039
-0.00404705
-0.000107451
-0.000102414
0.00403327
-0.00401881
-0.000116807
-0.000111613
0.00400391
-0.00398833
-0.000126283
-0.000120987
0.00397233
-0.00395563
-0.000135778
-0.000130436
0.00393852
-0.00392072
-0.000145186
-0.000139856
0.00390252
-0.00388365
-0.000154408
-0.000149146
0.00386439
-0.00384449
-0.000163347
-0.000158207
0.00382422
-0.00380332
-0.000171917
-0.000166948
0.00378208
-0.00376023
-0.000180046
-0.000175288
0.00373807
-0.00371534
-0.000187684
-0.000183168
0.00369231
-0.00366874
-0.0001948
-0.000190545
0.0036449
-0.00362055
-0.000201386
-0.0001974
0.00359596
-0.00357089
-0.000207456
-0.000203734
0.00354561
-0.00351989
-0.000213038
-0.000209571
0.00349399
-0.0034677
-0.000218169
-0.000214942
0.00344125
-0.00341446
-0.000222891
-0.000219881
0.00338759
-0.00336037
-0.000227188
-0.000224433
0.00333311
-0.00327301
-0.000231208
-0.000228582
0.00321508
-0.00313722
-0.000194
-0.000190127
-0.000161372
0.000106804
-0.00302881
-0.00311202
-0.000186566
6.70134e-05
-0.00306062
-0.00347719
-0.000533624
6.87958e-05
-0.00302332
0.00425136
-0.00425598
-1.4077e-05
0.0042538
-6.01064e-05
2.50003e-06
-3.40531e-06
0.00422088
7.75246e-06
0.00420974
1.34832e-05
-0.00312377
4.90196e-05
-0.003103
-1.13848e-05
-0.00317476
8.38482e-05
-0.00309342
0.000118282
-0.00309547
0.000152249
-0.00303928
-0.000147413
0.000146891
-0.00302829
-0.000206682
-0.00305276
-0.00312022
-0.00346933
0.00333895
-0.000385943
-0.000467323
0.000546608
-0.00355647
0.00358249
-0.00369236
-0.000357445
-0.00042047
-0.00324053
0.00332033
-0.000291416
-0.000281383
-0.00341071
0.00347351
-0.000209987
-0.000230296
-0.00349767
0.00352178
-0.000235891
-0.000238199
-0.00354564
0.00356938
-0.000229977
-0.000232261
-0.00359281
0.00361609
-0.000223837
-0.000226255
-0.00363903
0.00366179
-0.000217341
-0.000219939
-0.00368416
0.00370632
-0.000210439
-0.000213245
-0.00372804
0.00374952
-0.00020309
-0.000206124
-0.00377053
0.00379126
-0.000195283
-0.000198553
-0.00381149
0.00383141
-0.000187022
-0.000190527
-0.0038508
0.00386985
-0.000178331
-0.000182062
-0.00388834
0.00390646
-0.000169248
-0.000173189
-0.00392401
0.00394117
-0.000159831
-0.000163956
-0.00395773
0.00397389
-0.000150151
-0.000154428
-0.00398944
0.00400458
-0.000140294
-0.000144683
-0.00401911
0.0040332
-0.000130356
-0.000134812
-0.00404669
0.00405975
-0.000120437
-0.000124915
-0.00407221
0.00408423
-0.000110636
-0.00011509
-0.00409567
0.00410669
-0.00010105
-0.000105436
-0.00411714
0.00412718
-9.17625e-05
-9.60418e-05
-0.00413668
0.0041458
-8.28427e-05
-8.6985e-05
-0.00415441
0.00416266
-7.43342e-05
-7.83221e-05
-0.00419917
0.00422158
-3.80531e-05
-7.00867e-05
-1.07726e-05
-1.24471e-05
-2.04651e-05
0.00425013
6.02749e-06
-4.29723e-05
0.00426008
0.0042411
-1.97131e-05
1.27938e-05
0.0042048
0.00419134
-5.78428e-06
-1.30179e-06
0.00420224
0.0041882
8.35759e-06
-1.53768e-05
0.0042024
0.00418759
-2.69119e-05
7.51295e-06
0.00425033
0.00418952
0.00424747
0.00424486
-0.00424051
-3.43143e-05
-0.00424212
0.00422914
8.82751e-06
-2.45136e-06
0.00420132
-0.00416258
-7.31942e-05
-6.899e-05
0.00415437
-0.00414565
-8.16465e-05
-7.70835e-05
0.00413659
-0.00412698
-9.06086e-05
-8.57275e-05
0.004117
-0.00410644
-0.000100033
-9.48553e-05
0.0040955
-0.00408395
-0.000109863
-0.000104421
0.00407201
-0.00405944
-0.000120019
-0.000114358
0.00404647
-0.00403287
-0.000130408
-0.00012458
0.00401887
-0.00400423
-0.000140922
-0.000134986
0.0039892
-0.00397353
-0.000151447
-0.000145467
0.00395748
-0.0039408
-0.000161869
-0.000155907
0.00392375
-0.00390608
-0.000172077
-0.000166196
0.00388806
-0.00386945
-0.000181965
-0.000176224
0.0038505
-0.00383098
-0.000191441
-0.000185892
0.00381115
-0.00379077
-0.000200429
-0.000195116
0.00377011
-0.00374892
-0.000208873
-0.000203829
0.00372747
-0.00370553
-0.000216741
-0.000211988
0.00368336
-0.00366073
-0.000224022
-0.000219568
0.00363789
-0.00361462
-0.000230726
-0.000226571
0.00359118
-0.00356734
-0.000236879
-0.000233014
0.00354335
-0.00351901
-0.000242515
-0.000238928
0.00349454
-0.00346975
-0.000247678
-0.000244349
0.00344487
-0.00341967
-0.00025239
-0.000249319
0.00339437
-0.00336881
-0.000256767
-0.000253874
0.00330084
-0.00323412
-0.000260716
-0.000258102
0.00319337
-0.00317558
-0.000224469
-0.000227323
-0.000332845
0.000133477
-0.00299148
-0.00310438
-0.000173077
0.00017564
-0.00305532
-0.00310583
-0.000242828
2.10538e-05
-0.00301288
-2.76595e-06
0.0042136
0.00427041
-3.35234e-05
0.000289966
-0.00363539
-0.000346943
1.40879e-05
-0.00308884
0.000358893
-0.0036254
2.30221e-05
-0.00305773
4.92096e-05
-0.00306836
4.91964e-05
-0.00309048
8.41675e-05
-0.0030593
0.000118964
-0.00306218
0.000153228
-0.00304562
0.000154793
-0.00300744
-0.000199963
0.000173426
-0.00302878
-0.000220215
-0.00308558
-0.00308508
-0.00372378
0.00360122
-0.000234879
-0.000432502
-0.00355138
0.0003485
0.00379664
-0.00367458
-0.000554564
-0.00027409
-0.00352583
0.0034743
-0.000334408
-0.000345086
-0.00346373
0.00344162
-0.000269312
-0.00027081
-0.00347764
0.00353204
-0.00026439
-0.000266312
-0.00355436
0.00357661
-0.000258144
-0.000260521
-0.0035986
0.00362046
-0.000251836
-0.000254244
-0.00364201
0.00366342
-0.000245249
-0.000247808
-0.00368451
0.00370543
-0.000238265
-0.000241026
-0.003726
0.00374638
-0.000230818
-0.000233814
-0.00376638
0.00378615
-0.000222866
-0.000226117
-0.00380551
0.00382462
-0.000214394
-0.00021791
-0.00384328
0.00386167
-0.000205409