/*--------------------------------*- C++ -*----------------------------------*\
  =========                 |
  \\      /  F ield         | OpenFOAM: The Open Source CFD Toolbox
   \\    /   O peration     | Website:  https://openfoam.org
    \\  /    A nd           | Version:  10
     \\/     M anipulation  |
\*---------------------------------------------------------------------------*/
FoamFile
{
    format      ascii;
    class       volVectorField;
    location    "59";
    object      U;
}
// * * * * * * * * * * * * * * * * * * * * * * * * * * * * * * * * * * * * * //

dimensions      [0 1 -1 0 0 0 0];

internalField   nonuniform List<vector> 
28942
(
(0.00444255 -0.00226431 -3.43465e-22)
(0.0060123 -0.00234959 -6.38434e-23)
(0.0179484 -0.0123945 -8.21112e-22)
(0.103305 0.0182371 -5.25242e-21)
(0.102343 0.0222793 1.71979e-21)
(0.0155694 0.000492624 0)
(0.0185125 6.61404e-05 1.23193e-23)
(0.021443 0.000635955 -1.09462e-23)
(0.135255 -0.0183323 -2.53934e-22)
(0.133905 -0.0166964 7.22919e-22)
(0.00982399 0.00402069 -6.77587e-22)
(0.0161127 0.00564236 2.57123e-22)
(0.00715708 0.00315921 0)
(0.00472068 0.0020719 0)
(0.0482029 0.00210386 -1.67118e-23)
(0.046295 0.00272733 -6.4779e-24)
(0.0893182 0.0158747 6.66738e-22)
(0.0870061 0.0138434 1.07307e-21)
(0.0121697 -0.015119 2.90694e-21)
(0.0293431 -0.0304805 -7.65021e-22)
(0.0981249 0.0373751 9.50528e-22)
(0.0973025 0.0344122 0)
(0.0187743 0.00464092 1.17022e-21)
(0.00787969 0.00237008 5.52071e-22)
(0.0378508 0.00723083 9.47567e-22)
(0.0576009 0.00293006 -8.63836e-22)
(0.00764931 -0.0185019 8.49699e-21)
(0.00669463 -0.0165655 -3.12983e-21)
(0.0355278 -0.0253336 5.69168e-22)
(0.0193098 -0.013688 1.96414e-22)
(0.0159655 -0.00147484 0)
(0.0199621 -0.0012973 -1.50978e-23)
(0.0253142 0.00452014 3.0958e-22)
(0.0363669 0.00198652 -5.0161e-23)
(0.0188275 0.0180098 1.31142e-21)
(0.0157211 0.0191188 -1.30136e-21)
(0.0321725 0.0376138 -3.04803e-21)
(0.0186708 0.0305309 -1.06735e-21)
(0.00856162 1.58685e-05 -1.03311e-23)
(0.00864935 0.0161956 -2.61127e-21)
(0.0306486 -0.00620324 0)
(0.0513417 -0.0109696 0)
(0.112357 -0.0125842 -2.72795e-23)
(0.111879 -0.01262 8.06379e-23)
(0.116277 -0.0124908 7.00981e-23)
(0.0301833 0.000231358 1.2847e-23)
(0.0281095 -0.000597362 -2.07582e-23)
(0.0400517 -0.000507769 -9.35042e-23)
(0.0383927 -0.000575849 2.65914e-23)
(0.0312571 -0.00285142 -2.28299e-22)
(0.0233205 -0.0034482 1.47822e-22)
(0.128593 0.00145626 -3.99149e-22)
(0.127915 0.000977371 -3.72775e-22)
(0.134577 -0.0211096 -3.78157e-24)
(0.133024 -0.0193821 1.38053e-22)
(0.0826275 0.00640621 7.19661e-22)
(0.101887 -0.000706986 2.51847e-22)
(0.0030668 0.00162428 -5.67701e-22)
(0.00896543 0.00368768 0)
(0.0082769 0.0032967 2.38205e-22)
(0.0028904 0.00149166 4.89913e-22)
(0.000363533 0.00022694 -4.07266e-22)
(0.000193572 0.00012293 -3.91491e-22)
(0.109849 -0.042612 0)
(0.104993 -0.025606 1.27951e-22)
(0.121865 -0.0330962 -4.42023e-23)
(0.123496 -0.0437568 0)
(0.0901209 -0.0328073 -6.37441e-22)
(0.0936262 -0.0352721 -4.18902e-22)
(0.00189162 -0.00113347 1.13561e-21)
(0.00249728 -0.00202319 -3.57828e-22)
(0.00488699 -0.00316513 8.87824e-22)
(0.084898 -0.0457691 0)
(0.0912215 -0.0396283 2.16337e-21)
(0.08057 -0.0530384 5.84362e-22)
(0.11423 0.0123572 2.40202e-22)
(0.112841 0.00684407 -2.66332e-22)
(0.125201 0.0109355 -1.14969e-22)
(0.00468697 -0.00286399 -5.32421e-23)
(0.0063434 -0.00442916 4.43895e-22)
(0.0510461 -0.0311643 1.24505e-22)
(0.0331811 -0.0205513 -2.56708e-22)
(0.00211658 -0.000599283 3.21316e-21)
(0.00516715 -0.00207842 -1.252e-21)
(0.101029 0.0482443 1.2579e-23)
(0.0970657 0.0552113 -7.6192e-22)
(0.0807475 0.0540126 6.94969e-22)
(0.0472199 0.0345159 -2.67238e-21)
(0.0444489 0.0316133 1.89252e-21)
(0.0295015 0.0206005 -1.13039e-22)
(0.0327222 0.0232532 -6.39566e-22)
(0.0379641 0.0283626 8.6686e-22)
(0.00442118 0.0027138 -5.95558e-23)
(0.00778838 0.00397209 -1.71679e-23)
(0.00319608 0.00201654 3.44025e-23)
(0.00192401 0.00163592 -4.60059e-22)
(0.00144892 0.00155595 5.64274e-22)
(0.0157464 0.0115461 -3.24538e-21)
(0.0174991 0.0136376 7.43174e-22)
(0.00881846 -0.00385472 0)
(0.101389 0.00515974 0)
(0.0984002 0.0156839 -3.95415e-21)
(0.0604397 0.0104757 1.93772e-21)
(0.0886791 0.0178816 0)
(0.135545 -0.00128069 0)
(0.134986 -0.0020019 0)
(0.133311 -0.00248913 -2.46281e-22)
(0.114978 0.0265686 -2.11418e-22)
(0.114071 0.0279735 2.09044e-21)
(0.113271 0.0254345 1.12177e-21)
(0.00230022 0.00130153 1.05906e-21)
(0.00151517 0.000777615 -1.18869e-21)
(0.0190902 -0.00555519 -5.52729e-22)
(0.0201787 -0.00508859 4.72247e-22)
(0.00912666 -0.00294224 9.33315e-22)
(0.00647682 0.0111416 1.47704e-21)
(0.0189693 0.0181486 3.4523e-21)
(0.013466 0.022792 2.7219e-22)
(0.00492102 0.0143007 -8.6116e-21)
(0.117036 0.0477336 5.51578e-23)
(0.107893 0.0582235 1.06405e-21)
(0.118358 0.0548548 -1.83506e-21)
(0.0391071 -0.0294284 7.28299e-22)
(0.0240189 -0.0172714 -4.65011e-22)
(0.00532239 -0.000749973 -4.09753e-21)
(0.00453933 -0.00360007 0)
(0.0124978 -0.00168378 1.99992e-21)
(0.0219726 -0.0161363 7.75673e-22)
(0.0342683 -0.0277942 -1.94749e-21)
(0.0379043 -1.58071e-05 6.53307e-23)
(0.0402786 0.00014754 -4.70111e-23)
(0.0356146 0.000175226 -2.01846e-24)
(0.0280648 -0.0419646 0)
(0.0296136 -0.042857 0)
(0.0896208 -0.0186539 -4.62122e-22)
(0.0995886 -0.0220919 3.14017e-21)
(0.0870336 -0.0252789 0)
(0.0471349 -0.0402019 0)
(0.0581981 -0.0514005 -7.80062e-22)
(0.0413169 0.0393362 2.0815e-21)
(-4.65173e-06 0.000211401 5.17778e-22)
(-0.000196755 0.000128997 -3.41488e-22)
(0.0223349 -0.0192476 -7.88257e-22)
(0.120529 -0.0123317 3.95386e-22)
(0.119918 -0.0123092 -7.6469e-23)
(0.115586 -0.00564933 -6.7666e-23)
(0.108529 0.00105579 9.01745e-23)
(0.117791 -0.000223347 1.85988e-22)
(8.10743e-05 0.000258395 1.99704e-22)
(0.043754 0.0344216 3.19602e-21)
(0.0618894 0.0463098 -7.85886e-22)
(0.059329 0.0393709 -3.00503e-24)
(0.0248181 -0.000907357 6.23071e-24)
(0.0244546 -0.000902939 3.3046e-23)
(0.026521 -0.000696032 1.42613e-24)
(0.0295964 -0.000671176 -1.62426e-23)
(0.0454268 0.0380904 1.33811e-22)
(0.0189645 0.01606 0)
(0.000144355 -3.95155e-05 3.71727e-22)
(0.000428679 -0.000264267 -4.12402e-22)
(0.00187102 -0.00102852 2.87935e-22)
(0.0366006 -0.00774176 -1.84974e-21)
(0.0649325 -0.00212447 -7.55114e-22)
(0.0343612 -0.000267516 -2.28225e-24)
(0.0745474 -0.00763721 2.72347e-22)
(0.0707498 -0.0157317 6.52302e-23)
(0.0943119 0.0398988 2.13902e-21)
(0.091414 0.0454349 9.92765e-23)
(0.0887531 0.0290701 1.21338e-21)
(0.0914786 0.0307861 -8.79322e-22)
(0.0987049 0.0410579 0)
(0.126071 -0.000437846 1.4875e-22)
(0.126837 -0.000876839 2.80931e-22)
(0.128089 -0.0122436 -2.93648e-22)
(0.129553 -0.0120423 5.02544e-22)
(0.117057 0.0241066 2.59201e-22)
(0.119115 0.0250035 -7.33956e-22)
(0.117104 0.0261202 0)
(0.115138 0.0248611 1.52838e-22)
(0.116677 0.0280443 0)
(0.117184 0.0360674 -5.49607e-22)
(0.115722 0.0381216 -3.00121e-22)
(0.111349 0.0419394 -5.39205e-22)
(0.113743 0.0400691 0)
(0.116435 0.043043 1.78302e-21)
(0.113713 0.0449686 4.73882e-23)
(0.108343 0.0441526 -3.02968e-22)
(0.0996424 0.0502613 -1.28402e-21)
(0.0984298 0.0454733 -2.2625e-22)
(0.0250431 -0.00853684 6.07605e-23)
(0.0329239 -0.00940177 -2.42491e-23)
(0.00630598 -0.00250215 -6.97324e-22)
(0.0337352 -7.52455e-05 -4.22134e-23)
(0.0431042 -0.000290171 0)
(-1.54946e-06 -4.20077e-05 4.36697e-22)
(1.43447e-05 -4.83486e-05 2.2243e-22)
(0.0390355 -0.00193187 1.94518e-23)
(0.046027 -0.00187844 7.83618e-24)
(0.0455434 -0.0012848 0)
(0.0377718 -0.000869515 8.57326e-24)
(0.0906066 0.00413698 -1.16938e-22)
(0.0899537 0.00372267 5.53146e-22)
(0.0908682 0.00386684 2.56021e-22)
(0.000671429 0.000270664 3.96047e-22)
(-0.000160124 -0.000129922 -5.73441e-22)
(-0.000202014 -0.000169801 4.89206e-22)
(0.00150449 0.000619497 0)
(8.06609e-05 8.83407e-05 1.14516e-21)
(0.000172885 -3.8681e-05 -8.26428e-22)
(0.00746203 0.00368031 -9.96804e-22)
(0.00145552 0.000783386 -1.18905e-21)
(0.00172444 0.000862612 0)
(0.00157202 0.00754008 0)
(0.000576972 0.00327966 0)
(0.000313299 0.00197574 0)
(0.136703 -0.00130451 5.53435e-23)
(0.137699 -0.00114771 0)
(0.136081 -0.00209652 -6.45593e-23)
(0.0881166 -0.0148597 4.41765e-21)
(0.0901232 -0.0152678 -1.60359e-21)
(0.0890381 -0.0128841 0)
(0.105862 0.000228784 -6.9106e-24)
(0.106531 0.000224299 1.38314e-23)
(0.105179 0.000234389 -4.68167e-24)
(0.107181 0.000222613 0)
(0.107816 0.00022864 -8.79582e-24)
(0.108429 0.000228547 0)
(0.108424 -0.000417524 0)
(0.109021 0.000216243 3.25434e-23)
(0.109007 -0.000419061 0)
(0.107817 -0.000428261 -8.85886e-24)
(0.107183 -0.000444225 0)
(0.106532 -0.000459788 4.62607e-24)
(0.105861 -0.000478981 -6.91075e-24)
(0.105181 -0.000495478 4.67582e-24)
(0.109587 0.000202007 -3.11414e-23)
(0.109573 -0.000413535 -1.08781e-24)
(0.104475 0.000244664 4.74879e-28)
(0.104472 -0.000504888 -7.15336e-24)
(0.103747 0.000253747 3.80723e-23)
(0.11013 0.000194984 2.90366e-26)
(0.110129 -0.000398604 -1.08508e-24)
(0.103749 -0.00052209 1.41044e-23)
(0.11066 0.000187093 2.91729e-23)
(0.11117 0.00018142 -2.91489e-23)
(0.110662 -0.000384426 2.18861e-24)
(0.111174 -0.000368708 4.31105e-24)
(0.103028 0.000277044 -3.70425e-23)
(0.103023 -0.000537537 -9.28533e-24)
(0.111662 0.000174167 0)
(0.111666 -0.000354141 -4.25212e-24)
(0.102275 0.000288215 4.58374e-27)
(0.102273 -0.000545114 -4.59523e-27)
(0.112134 0.000168657 0)
(0.112138 -0.000338449 0)
(0.101507 0.000295292 0)
(0.101505 -0.000555852 0)
(0.112587 0.000161415 0)
(0.112591 -0.000324102 2.0316e-24)
(0.100724 0.000302811 -1.92311e-23)
(0.100722 -0.000564098 -4.69333e-27)
(0.11302 0.000155719 1.06394e-25)
(0.113025 -0.000308792 -2.16963e-24)
(0.0999261 0.000308397 1.9323e-23)
(0.0999245 -0.000573199 0)
(0.113435 0.000148308 0)
(0.113439 -0.000294731 0)
(0.0991157 0.000315058 -1.22214e-24)
(0.0991142 -0.00057846 2.09697e-23)
(0.113831 0.000142395 1.30932e-23)
(0.113835 -0.000279511 0)
(0.0982946 0.000319473 -1.0405e-25)
(0.0982916 -0.000582812 -1.98471e-23)
(0.114209 0.000134877 -1.95724e-23)
(0.114214 -0.000265584 -5.67503e-24)
(0.0974455 0.000315374 2.02276e-23)
(0.0974463 -0.000585902 0)
(0.11457 0.000129246 6.43881e-24)
(0.114576 -0.000248598 3.78366e-24)
(0.096589 0.000320167 -1.0228e-23)
(0.09659 -0.000591406 2.07379e-23)
(0.114911 0.0001251 -2.56474e-23)
(0.114924 -0.000227261 2.89069e-23)
(0.0956926 0.000306636 1.05362e-23)
(0.0957036 -0.000601642 3.33298e-25)
(0.11524 0.000122121 0)
(0.115252 -0.000207989 1.3753e-23)
(0.094784 0.00029492 -2.11751e-23)
(0.0948022 -0.000619431 4.2355e-23)
(0.115564 0.000113835 0)
(0.115567 -0.000193997 0)
(0.0958918 0.00120945 -1.04255e-23)
(0.0949818 0.00120837 -4.21376e-23)
(0.0938454 0.000276283 0)
(0.0938816 -0.00064981 -2.15542e-23)
(0.0976425 0.0011996 -6.55494e-24)
(0.0967725 0.00120625 1.28708e-24)
(0.0993012 0.00116706 0)
(0.0984721 0.00118378 -2.11843e-23)
(0.100899 0.00112638 -4.09319e-26)
(0.100107 0.00114747 0)
(0.102437 0.0010801 0)
(0.101676 0.0011039 0)
(0.103918 0.00102185 0)
(0.103184 0.00105378 0)
(0.105307 0.000963152 9.23956e-24)
(0.104615 0.000991557 2.33199e-24)
(0.106644 0.000914826 -8.90256e-24)
(0.10599 0.000938479 -9.22902e-24)
(0.107905 0.000870286 1.57623e-23)
(0.107279 0.000886437 2.01667e-23)
(0.109106 0.000827381 0)
(0.108514 0.000852565 0)
(0.110217 0.00077793 -6.8866e-26)
(0.109673 0.00080279 0)
(0.111248 0.000724732 0)
(0.110742 0.000751558 0)
(0.112202 0.00067028 0)
(0.111734 0.000697491 0)
(0.11308 0.000615866 0)
(0.11265 0.000642963 0)
(0.113883 0.000562 0)
(0.113491 0.000588804 0)
(0.114615 0.000508847 0)
(0.114258 0.00053527 0)
(0.115283 0.000446641 -1.04577e-23)
(0.114954 0.000482154 0)
(0.115597 0.000416224 -3.37015e-24)
(0.115867 0.000102914 3.28744e-24)
(0.115869 -0.000183249 -3.26008e-24)
(0.114962 -0.000559805 0)
(0.1156 -0.000496341 -1.33894e-23)
(0.115289 -0.000526491 -6.91455e-24)
(0.114258 -0.000629994 1.90309e-24)
(0.114617 -0.000595367 -7.435e-24)
(0.113489 -0.000697525 6.18781e-26)
(0.113882 -0.000664479 0)
(0.112647 -0.000764402 0)
(0.113077 -0.000730685 0)
(0.11173 -0.000833163 0)
(0.112198 -0.000798496 0)
(0.110734 -0.00090366 0)
(0.111242 -0.000868138 8.21937e-30)
(0.10966 -0.00097628 6.96862e-26)
(0.110207 -0.000939548 0)
(0.108515 -0.00104226 0)
(0.109094 -0.00101118 0)
(0.107289 -0.00110461 0)
(0.107908 -0.00107348 0)
(0.105984 -0.00117083 0)
(0.106645 -0.00113503 -4.67316e-24)
(0.104609 -0.00124015 1.23337e-24)
(0.105303 -0.00121001 -6.03726e-24)
(0.103175 -0.00130872 0)
(0.103905 -0.00127237 -4.91768e-24)
(0.10167 -0.00136486 0)
(0.102431 -0.00133789 0)
(0.100102 -0.00141315 0)
(0.100893 -0.00138991 0)
(0.0984728 -0.00145184 0)
(0.0992959 -0.00143377 0)
(0.0967819 -0.00148162 -5.36039e-24)
(0.0976368 -0.00146602 0)
(0.0950352 -0.00152414 -2.16684e-23)
(0.0959168 -0.00149742 -5.38251e-24)
(0.0941292 -0.0015545 2.20351e-23)
(0.0940532 0.00120929 4.1758e-23)
(0.115897 0.000388701 6.58615e-24)
(0.115898 -0.000467511 -1.28449e-23)
(0.0929326 -0.000691733 0)
(0.0932092 -0.00160018 0)
(0.0931078 0.0012108 0)
(0.0928894 0.00024985 0)
(0.0962965 0.00209357 0)
(0.0945127 0.00213759 1.04553e-23)
(0.0954123 0.00211359 1.05761e-23)
(0.0980175 0.00204234 1.34573e-23)
(0.0971651 0.00207024 -2.68905e-24)
(0.0996474 0.00197541 4.1636e-26)
(0.0988408 0.00200986 0)
(0.101217 0.00190369 0)
(0.10044 0.00194014 0)
(0.102728 0.00182719 0)
(0.10198 0.00186604 0)
(0.104178 0.00174765 0)
(0.10346 0.00178717 0)
(0.105558 0.00166306 0)
(0.104876 0.00170703 0)
(0.106867 0.00158035 -3.72906e-26)
(0.106218 0.0016235 9.62723e-24)
(0.1081 0.00149204 -3.56958e-26)
(0.107497 0.00153452 -1.87563e-23)
(0.109273 0.00139928 0)
(0.108694 0.00144527 0)
(0.110366 0.00130827 3.43872e-26)
(0.10983 0.00135371 0)
(0.111381 0.00121627 0)
(0.110883 0.0012624 0)
(0.112319 0.00112375 0)
(0.111859 0.00116998 0)
(0.113183 0.00103191 0)
(0.11276 0.00107767 0)
(0.113973 0.000941612 0)
(0.113587 0.000986525 0)
(0.114693 0.000852793 0)
(0.114342 0.000897119 0)
(0.11535 0.000758031 7.1446e-24)
(0.115028 0.000806671 0)
(0.116155 9.4632e-05 0)
(0.11618 0.000362604 6.41798e-24)
(0.115952 0.000668055 0)
(0.115658 0.000712123 6.9497e-24)
(0.115661 -0.000794608 1.38453e-23)
(0.115952 -0.000749901 3.39161e-24)
(0.11618 -0.000442828 2.64451e-23)
(0.116155 -0.000171898 0)
(0.115031 -0.000891678 0)
(0.115353 -0.000842029 -2.09084e-23)
(0.11434 -0.000993757 5.99058e-26)
(0.114694 -0.000941401 7.48022e-24)
(0.113583 -0.0010953 -6.18778e-26)
(0.11397 -0.0010444 0)
(0.112755 -0.00119921 0)
(0.113179 -0.00114686 0)
(0.111853 -0.00130606 0)
(0.112313 -0.00125229 0)
(0.110874 -0.00141524 0)
(0.111373 -0.00136039 -8.21934e-30)
(0.10982 -0.00152597 -1.3929e-25)
(0.110356 -0.00147047 0)
(0.108693 -0.00163463 0)
(0.109265 -0.00158095 0)
(0.107487 -0.00174121 2.3563e-24)
(0.108099 -0.001688 0)
(0.106212 -0.00184248 0)
(0.106858 -0.00178982 -2.34647e-24)
(0.104865 -0.00194514 4.92641e-24)
(0.105542 -0.00189556 4.89157e-24)
(0.103449 -0.00203892 0)
(0.104166 -0.00199296 0)
(0.10197 -0.00212598 0)
(0.102718 -0.00208343 0)
(0.10043 -0.0022048 0)
(0.101208 -0.00216644 0)
(0.0988303 -0.00227518 0)
(0.0996374 -0.00224093 0)
(0.0971739 -0.00233833 8.5613e-26)
(0.0980093 -0.00230747 0)
(0.0954629 -0.00239602 -8.66592e-26)
(0.0963263 -0.00236805 0)
(0.0936945 -0.00248047 -2.26366e-23)
(0.0945839 -0.00243584 2.26263e-23)
(0.0935952 0.0021611 2.12339e-23)
(0.09228 -0.00165666 0)
(0.092791 -0.00253754 -4.59164e-23)
(0.0919816 -0.000739156 0)
(0.116229 0.000629675 0)
(0.11623 -0.000706919 -3.28526e-24)
(0.0921529 0.00121435 5.37356e-23)
(0.0926684 0.00218577 2.14755e-23)
(0.0913325 -0.00171339 1.16164e-23)
(0.0918751 -0.00260021 5.80214e-23)
(0.0919177 0.000220982 0)
(0.116032 0.000945869 2.71296e-23)
(0.116302 0.00089033 -1.33895e-23)
(0.116445 -0.000417588 -6.49514e-24)
(0.116492 -0.000664419 3.22719e-23)
(0.0934508 0.00312415 7.53452e-23)
(0.0917161 0.00221055 -4.2318e-23)
(0.0915901 0.00320679 -1.8827e-22)
(0.0925211 0.00315873 -4.30034e-23)
(0.0952126 0.00303845 2.10245e-23)
(0.0943391 0.00308326 -6.41533e-23)
(0.0969133 0.00294859 -2.15303e-23)
(0.0960713 0.00299431 -1.6213e-23)
(0.0985693 0.00285879 -5.38023e-24)
(0.09775 0.002906 -5.37621e-24)
(0.100157 0.00276438 -4.1636e-26)
(0.0993723 0.00281271 0)
(0.101683 0.0026633 0)
(0.100927 0.00271452 0)
(0.103151 0.00255679 0)
(0.102424 0.00261074 0)
(0.10456 0.00244534 0)
(0.103863 0.00250153 0)
(0.105903 0.00233026 0)
(0.10524 0.00238814 0)
(0.107178 0.0022102 0)
(0.106549 0.00227097 0)
(0.108384 0.00208684 6.52447e-29)
(0.107791 0.00214923 0)
(0.10952 0.00195756 0)
(0.10896 0.0020224 0)
(0.110585 0.00182802 3.43027e-26)
(0.110062 0.0018928 0)
(0.111574 0.00169803 0)
(0.111089 0.00176308 0)
(0.11249 0.0015682 0)
(0.112041 0.00163302 0)
(0.113333 0.00143975 0)
(0.11292 0.00150373 0)
(0.114104 0.00131383 0)
(0.113727 0.00137642 0)
(0.114807 0.0011906 0)
(0.114464 0.00125199 0)
(0.115447 0.00106559 3.63945e-24)
(0.115135 0.00112814 -1.83242e-24)
(0.115747 0.00100492 -1.38504e-23)
(0.116422 8.90683e-05 -3.07685e-24)
(0.116491 0.000591222 1.28515e-23)
(0.116445 0.000340758 -9.84715e-24)
(0.116421 -0.000165525 0)
(0.115748 -0.0010874 -1.02858e-23)
(0.116303 -0.000966094 -2.96084e-23)
(0.116032 -0.00102621 2.38908e-23)
(0.115134 -0.00121877 0)
(0.115449 -0.00115122 0)
(0.114461 -0.00134945 -5.82088e-29)
(0.114806 -0.00128212 0)
(0.113722 -0.00148533 0)
(0.1141 -0.00141695 0)
(0.112914 -0.00162534 -6.37036e-26)
(0.113327 -0.00155481 0)
(0.112034 -0.00176921 0)
(0.112483 -0.00169687 0)
(0.11108 -0.00191572 0)
(0.111566 -0.00184223 0)
(0.110053 -0.00206333 6.96137e-26)
(0.110575 -0.00198952 0)
(0.108953 -0.00220935 7.14409e-26)
(0.109512 -0.00213672 0)
(0.10778 -0.00235315 0)
(0.108376 -0.00228153 0)
(0.106537 -0.00249222 0)
(0.107168 -0.0024233 0)
(0.105227 -0.00262652 0)
(0.105889 -0.00256028 0)
(0.10385 -0.00275222 0)
(0.104546 -0.00269016 0)
(0.102411 -0.0028701 -8.05688e-26)
(0.103138 -0.00281229 0)
(0.100912 -0.00297862 0)
(0.101669 -0.00292557 0)
(0.0993567 -0.00307761 0)
(0.100141 -0.00302927 0)
(0.097747 -0.00316782 -1.97428e-28)
(0.0985584 -0.00312374 0)
(0.0960862 -0.00325022 2.22344e-28)
(0.0969231 -0.00320999 0)
(0.0943781 -0.00333661 8.92651e-26)
(0.0952355 -0.00328984 0)
(0.0926252 -0.00345036 -4.68129e-23)
(0.0935057 -0.00338908 1.15282e-23)
(0.0909492 -0.00265954 1.17756e-23)
(0.0917478 -0.00351701 2.34185e-23)
(0.0911856 0.00121116 -2.10629e-23)
(0.09101 -0.00078874 -2.24949e-23)
(0.116559 0.000836603 3.26973e-24)
(0.11656 -0.000911214 2.32617e-23)
(0.0907193 0.00221289 2.61828e-24)
(0.0903743 -0.00177692 0)
(0.0904127 0.00309749 2.88419e-22)
(0.0908648 -0.00358213 3.5868e-23)
(0.0900295 -0.00272114 4.79223e-23)
(0.091715 0.00433389 -4.76021e-22)
(0.0912606 0.00449398 8.7147e-23)
(0.0909542 0.000196858 0)
(0.0928474 0.00414654 4.8247e-23)
(0.0921752 0.00426794 2.46024e-23)
(0.0944583 0.00400922 4.36144e-23)
(0.0936149 0.00406522 -6.64207e-23)
(0.0961227 0.00389109 -2.17597e-23)
(0.095301 0.00395322 -1.08355e-23)
(0.0977327 0.00377234 1.09216e-23)
(0.0969334 0.00383125 1.10479e-23)
(0.0993029 0.00365039 0)
(0.0985208 0.00371088 -1.66902e-26)
(0.100822 0.00352679 0)
(0.100069 0.00358932 0)
(0.102289 0.00339763 4.06247e-26)
(0.101562 0.00346293 0)
(0.103701 0.0032623 0)
(0.103002 0.0033308 0)
(0.105057 0.00312052 0)
(0.104386 0.00319217 0)
(0.106352 0.002973 0)
(0.105712 0.00304747 0)
(0.107582 0.00281963 3.70811e-26)
(0.106975 0.00289705 0)
(0.108746 0.0026612 7.31065e-29)
(0.108173 0.00274108 0)
(0.109842 0.00249774 0)
(0.109302 0.0025799 0)
(0.11087 0.00233214 -6.85439e-26)
(0.110365 0.0024151 0)
(0.111826 0.00216578 0)
(0.111357 0.002249 0)
(0.112712 0.00199994 0)
(0.112278 0.00208271 0)
(0.113528 0.00183611 0)
(0.113128 0.00191768 0)
(0.114275 0.00167576 0)
(0.11391 0.00175543 0)
(0.114956 0.00151953 0)
(0.114623 0.00159719 0)
(0.115576 0.00136657 -1.81696e-24)
(0.115273 0.00144177 0)
(0.116139 0.00121741 0)
(0.115864 0.00129108 -3.51595e-24)
(0.116648 0.00107595 -1.14325e-27)
(0.116401 0.00114558 0)
(0.116737 0.000554854 -1.303e-23)
(0.116884 0.00101217 7.85071e-25)
(0.116802 0.000787062 6.36919e-24)
(0.116671 8.16666e-05 4.68524e-24)
(0.116694 0.000319022 -3.23403e-24)
(0.116694 -0.000393741 -1.62852e-24)
(0.116671 -0.00015702 1.62522e-24)
(0.116801 -0.000860252 0)
(0.116738 -0.000628673 -1.48068e-23)
(0.116401 -0.00122327 -6.6586e-24)
(0.116883 -0.0010891 -1.27209e-23)
(0.116649 -0.00115382 2.92224e-23)
(0.115864 -0.00137373 -3.50521e-24)
(0.116139 -0.00129728 0)
(0.115271 -0.0015327 0)
(0.115574 -0.00145163 0)
(0.114619 -0.00169544 -7.44952e-29)
(0.114953 -0.00161326 0)
(0.113904 -0.00186458 0)
(0.114269 -0.00177928 0)
(0.113121 -0.00203946 6.37036e-26)
(0.113521 -0.00195136 0)
(0.11227 -0.002219 0)
(0.112704 -0.00212876 0)
(0.111348 -0.00240148 0)
(0.111817 -0.00231001 0)
(0.110355 -0.00258484 0)
(0.11086 -0.0024932 0)
(0.109293 -0.00276669 -1.31899e-28)
(0.109833 -0.00267612 0)
(0.108161 -0.00294544 0)
(0.108735 -0.00285657 0)
(0.106962 -0.00311878 0)
(0.10757 -0.00303285 0)
(0.105698 -0.00328536 0)
(0.106338 -0.00320314 0)
(0.104371 -0.00344275 0)
(0.105042 -0.00336517 0)
(0.102985 -0.00359045 8.05688e-26)
(0.103685 -0.00351791 0)
(0.101542 -0.00372741 0)
(0.10227 -0.00366031 0)
(0.100045 -0.00385354 0)
(0.1008 -0.00379181 0)
(0.098498 -0.0039695 -8.54074e-26)
(0.0992778 -0.00391273 0)
(0.0969029 -0.00407613 8.68714e-26)
(0.0977063 -0.00402396 0)
(0.0952629 -0.00417629 -8.82565e-26)
(0.0960879 -0.00412669 0)
(0.0935895 -0.00428113 1.15708e-23)
(0.0944267 -0.00422473 -2.28388e-23)
(0.0919101 -0.00440887 -1.16224e-23)
(0.0927473 -0.00434123 2.36346e-23)
(0.0899701 -0.00364123 2.62034e-25)
(0.0910603 -0.00447295 2.37684e-23)
(0.0901993 0.00118715 -2.15276e-23)
(0.0900395 -0.000823394 0)
(0.0897228 0.00215622 -2.07445e-22)
(0.0894141 -0.00181721 0)
(0.116761 0.00131313 -3.26023e-24)
(0.116986 0.0012329 2.38834e-24)
(0.117028 -0.000811484 -1.24579e-23)
(0.117106 -0.0010232 -1.41102e-23)
(0.0893047 0.00300248 -2.02192e-22)
(0.0891006 -0.00277674 -4.8391e-23)
(0.0902987 0.00443065 0)
(0.0928947 0.00514799 -5.5058e-23)
(0.0890758 -0.00369874 -2.37328e-23)
(0.0902023 -0.00453128 3.58708e-23)
(0.0921476 0.00513095 1.10657e-22)
(0.0899766 0.00017186 0)
(0.0941469 0.00497225 0)
(0.0934919 0.00506763 -4.91509e-23)
(0.095651 0.00482469 0)
(0.09488 0.00489704 0)
(0.0971999 0.00468415 0)
(0.0964276 0.00475293 1.12257e-23)
(0.0987102 0.00454512 0)
(0.0979586 0.00461516 0)
(0.10019 0.00440174 0)
(0.0994541 0.00447355 0)
(0.10163 0.00425434 0)
(0.100916 0.0043289 0)
(0.103025 0.00409996 -4.06247e-26)
(0.102333 0.00417807 0)
(0.10437 0.0039378 0)
(0.103704 0.0040199 0)
(0.105662 0.00376756 0)
(0.105023 0.00385368 0)
(0.106897 0.00358966 0)
(0.106287 0.00367955 0)
(0.108073 0.00340461 -9.41929e-29)
(0.107492 0.00349802 0)
(0.109185 0.00321333 8.66416e-29)
(0.108637 0.00330969 0)
(0.110234 0.00301669 0)
(0.109718 0.00311555 0)
(0.111217 0.00281696 7.35843e-29)
(0.110734 0.00291709 0)
(0.112134 0.00261607 0)
(0.111684 0.00271656 0)
(0.112983 0.00241584 0)
(0.112566 0.00251577 0)
(0.113765 0.00221818 0)
(0.113382 0.00231658 0)
(0.114483 0.00202487 0)
(0.114132 0.00212089 0)
(0.115137 0.00183724 0)
(0.114818 0.00193032 0)
(0.115732 0.00165599 0)
(0.115442 0.00174578 0)
(0.116272 0.0014801 3.47994e-24)
(0.116009 0.00156592 3.56934e-24)
(0.116523 0.00139442 -6.66499e-24)
(0.116967 0.000520363 -6.37927e-24)
(0.117107 0.000951881 0)
(0.117028 0.000737596 -6.44353e-24)
(0.116904 7.5179e-05 0)
(0.116924 0.000299431 6.51046e-24)
(0.116926 -0.000372639 9.71938e-24)
(0.116904 -0.000149557 -3.28549e-24)
(0.116968 -0.000593098 -1.91088e-23)
(0.116522 -0.00147337 3.35228e-24)
(0.116987 -0.00130644 1.24132e-23)
(0.116761 -0.00139164 0)
(0.116007 -0.00164976 -6.96604e-24)
(0.116272 -0.00156057 6.98906e-24)
(0.115438 -0.00183591 0)
(0.11573 -0.00174235 0)
(0.114813 -0.00202904 -9.03747e-29)
(0.115133 -0.00193142 0)
(0.114126 -0.00223026 0)
(0.114477 -0.00212871 0)
(0.113375 -0.00243849 0)
(0.113758 -0.00233361 0)
(0.112558 -0.00265206 0)
(0.112975 -0.00254475 0)
(0.111674 -0.00286886 0)
(0.112124 -0.00276022 0)
(0.110724 -0.00308645 6.92545e-26)
(0.111208 -0.00297773 0)
(0.109707 -0.00330233 -7.1309e-26)
(0.110224 -0.00319477 0)
(0.108625 -0.00351434 0)
(0.109174 -0.00340898 0)
(0.107479 -0.00372004 0)
(0.10806 -0.0036181 0)
(0.106272 -0.0039175 0)
(0.106883 -0.00381998 0)
(0.105007 -0.0041047 0)
(0.105647 -0.00401245 0)
(0.103685 -0.00428059 0)
(0.104353 -0.00419415 0)
(0.10231 -0.0044443 0)
(0.103004 -0.00436401 0)
(0.100886 -0.0045957 -8.33679e-26)
(0.101604 -0.00452153 0)
(0.0994149 -0.00473534 8.48788e-26)
(0.100156 -0.00466694 0)
(0.0979006 -0.00486416 -8.63099e-26)
(0.098663 -0.00480107 0)
(0.0963471 -0.00498364 0)
(0.0971284 -0.00492494 0)
(0.0947587 -0.00509548 0)
(0.0955564 -0.00504019 0)
(0.093154 -0.00520549 9.12136e-26)
(0.09396 -0.00514984 1.16128e-23)
(0.0915359 -0.00532655 -6.01233e-23)
(0.0923413 -0.00526377 0)
(0.0893554 -0.00459742 -3.56693e-23)
(0.0907294 -0.00539036 -2.45876e-25)
(0.0892148 0.00115897 6.71954e-23)
(0.0890613 -0.00085033 0)
(0.117202 0.00115739 -1.2386e-23)
(0.117201 -0.00123144 -2.39411e-23)
(0.0886419 0.0020813 -3.54487e-23)
(0.0892394 0.00387082 8.12357e-25)
(0.0883017 0.00292251 1.00908e-22)
(0.0884576 -0.00184431 0)
(0.0881605 -0.00280916 1.20711e-23)
(0.0910064 0.00508031 -1.02749e-22)
(0.0899727 0.0049584 8.80498e-23)
(0.0886334 0.00399938 -8.68463e-23)
(0.0881714 -0.00374235 -3.61929e-23)
(0.0884924 -0.00465271 2.4078e-23)
(0.0899321 -0.00546544 2.36575e-23)
(0.0889903 0.000147274 0)
(0.0942092 0.00587183 3.07914e-24)
(0.0924588 0.00589045 3.73808e-25)
(0.0933858 0.00586856 2.39748e-23)
(0.0955498 0.00573214 2.38076e-23)
(0.0948859 0.00581054 -2.39312e-23)
(0.0969717 0.00557246 4.41163e-26)
(0.0962438 0.00565115 0)
(0.0984121 0.00542206 0)
(0.0976949 0.00549652 0)
(0.0998276 0.00526901 0)
(0.0991229 0.00534642 0)
(0.101215 0.00510904 0)
(0.100525 0.00518978 0)
(0.102567 0.00494147 4.11661e-26)
(0.101896 0.00502639 0)
(0.103879 0.00476462 0)
(0.103229 0.00485425 0)
(0.105147 0.00457797 0)
(0.104519 0.00467255 0)
(0.106365 0.00438142 0)
(0.105762 0.00448093 0)
(0.107532 0.00417544 0)
(0.106955 0.00427958 0)
(0.108644 0.00396084 -3.69869e-26)
(0.108095 0.00406917 0)
(0.109697 0.00373883 1.00139e-28)
(0.109178 0.00385069 0)
(0.11069 0.00351082 0)
(0.110201 0.00362546 0)
(0.111623 0.003279 6.82503e-26)
(0.111164 0.00339526 0)
(0.112492 0.00304562 0)
(0.112065 0.00316238 0)
(0.113299 0.00281296 0)
(0.112903 0.00292907 0)
(0.114043 0.00258328 0)
(0.113679 0.00269762 0)
(0.114726 0.00235875 0)
(0.114392 0.00247026 0)
(0.115349 0.00214117 0)
(0.115045 0.00224902 0)
(0.115916 0.00193178 5.68088e-26)
(0.115639 0.00203539 0)
(0.11643 0.00173051 -3.49514e-24)
(0.116179 0.00183041 0)
(0.116894 0.00153666 3.31748e-24)
(0.116668 0.00163216 0)
(0.117314 0.00135473 3.14969e-24)
(0.117109 0.00144459 -3.2288e-24)
(0.117313 0.00089223 6.22783e-24)
(0.117507 0.00126972 0)
(0.117404 0.00108573 9.27121e-24)
(0.11718 0.000488162 0)
(0.117238 0.000692059 0)
(0.117121 6.90482e-05 0)
(0.11714 0.00027968 0)
(0.117142 -0.000352278 0)
(0.117121 -0.000142324 0)
(0.117239 -0.000765363 1.26967e-23)
(0.117182 -0.000560811 3.15242e-24)
(0.117401 -0.00115995 3.11426e-24)
(0.117313 -0.000964789 2.48519e-23)
(0.11711 -0.00152191 1.62234e-23)
(0.117505 -0.00134957 3.09478e-24)
(0.117313 -0.00143305 -6.30189e-24)
(0.116667 -0.00171243 3.33675e-24)
(0.116893 -0.00161536 -2.0007e-23)
(0.116177 -0.00191442 -8.02622e-29)
(0.116428 -0.00181168 0)
(0.115635 -0.00212594 0)
(0.115912 -0.00201875 0)
(0.115039 -0.00234806 -1.06007e-28)
(0.115344 -0.00223574 0)
(0.114386 -0.0025798 0)
(0.11472 -0.00246284 0)
(0.113671 -0.00281959 0)
(0.114036 -0.00269883 0)
(0.112895 -0.00306532 0)
(0.113291 -0.00294188 0)
(0.112056 -0.00331449 0)
(0.112483 -0.00318966 0)
(0.111155 -0.00356438 -1.3834e-25)
(0.111613 -0.00343954 0)
(0.110191 -0.00381223 0)
(0.110681 -0.00368875 0)
(0.109167 -0.00405543 0)
(0.109687 -0.00393459 0)
(0.108083 -0.00429137 0)
(0.108632 -0.00417446 0)
(0.106942 -0.00451778 0)
(0.10752 -0.00440593 0)
(0.105747 -0.00473268 -7.81764e-26)
(0.106351 -0.00462678 0)
(0.104501 -0.00493476 0)
(0.10513 -0.00483541 0)
(0.103206 -0.00512314 0)
(0.103859 -0.00503071 0)
(0.101865 -0.00529764 8.33679e-26)
(0.102541 -0.00521213 0)
(0.100483 -0.00545867 -3.26338e-28)
(0.101179 -0.0053798 0)
(0.0990614 -0.00560707 1.72277e-25)
(0.0997765 -0.0055344 0)
(0.0976057 -0.00574391 0)
(0.0983376 -0.00567689 0)
(0.0961195 -0.00587017 0)
(0.096866 -0.00580815 0)
(0.0946083 -0.00598549 -4.00303e-28)
(0.0953673 -0.00592985 0)
(0.0930761 -0.00609524 0)
(0.0938435 -0.00604029 0)
(0.0915601 -0.00622145 -3.56056e-23)
(0.0923148 -0.00615552 0)
(0.0891219 -0.00553145 -2.29138e-25)
(0.0908092 -0.00629402 6.02739e-23)
(0.0881872 0.00111388 0)
(0.0915361 0.00587229 1.38931e-22)
(0.0876185 0.00200976 2.42211e-23)
(0.117443 0.00154657 -3.14377e-24)
(0.117626 0.00145273 0)
(0.117589 -0.00109308 3.02781e-24)
(0.117686 -0.00126794 -6.00751e-24)
(0.0880818 -0.000872444 0)
(0.0874932 -0.00186147 0)
(0.0874459 0.00299871 0)
(0.0872161 -0.00283144 -1.1889e-23)
(0.0872609 -0.00378609 -2.38265e-23)
(0.0876249 -0.00471143 0)
(0.0883023 -0.00559688 6.10479e-23)
(0.0900441 -0.00636346 -4.86133e-23)
(0.0879917 0.00012059 0)
(0.0941804 0.00664752 -1.15159e-26)
(0.0905589 0.00581481 4.3494e-23)
(0.0925066 0.00669635 -1.54897e-22)
(0.0933439 0.00668838 4.54593e-23)
(0.0957324 0.0065643 -1.48542e-23)
(0.0949675 0.00658882 -2.37705e-23)
(0.0970731 0.00643731 0)
(0.0964178 0.00651184 0)
(0.0984134 0.00627085 -4.41123e-26)
(0.0977338 0.00635284 0)
(0.0997551 0.00611058 0)
(0.0990876 0.00619079 0)
(0.101071 0.00594461 0)
(0.100416 0.00602868 0)
(0.10236 0.00576946 0)
(0.10172 0.00585823 0)
(0.103618 0.00558399 -4.11661e-26)
(0.102993 0.00567813 0)
(0.104839 0.00538703 0)
(0.104233 0.00548698 0)
(0.10602 0.00517825 0)
(0.105435 0.00528413 0)
(0.107157 0.00495773 0)
(0.106594 0.00506944 0)
(0.108248 0.00472608 0)
(0.107709 0.00484325 0)
(0.109287 0.00448433 3.67571e-26)
(0.108774 0.0046064 0)
(0.110274 0.00423396 1.12529e-28)
(0.109788 0.00436013 0)
(0.111206 0.00397678 0)
(0.110747 0.0041061 0)
(0.112081 0.00371512 -9.56608e-29)
(0.11165 0.00384637 0)
(0.112898 0.00345151 0)
(0.112497 0.00358341 0)