/*--------------------------------*- C++ -*----------------------------------*\
  =========                 |
  \\      /  F ield         | OpenFOAM: The Open Source CFD Toolbox
   \\    /   O peration     | Website:  https://openfoam.org
    \\  /    A nd           | Version:  10
     \\/     M anipulation  |
\*---------------------------------------------------------------------------*/
FoamFile
{
    format      ascii;
    class       volScalarField;
    location    "80";
    object      p;
}
// * * * * * * * * * * * * * * * * * * * * * * * * * * * * * * * * * * * * * //

dimensions      [0 2 -2 0 0 0 0];

internalField   nonuniform List<scalar> 
28942
(
-0.00376539
-0.00313995
0.00203355
0.00949024
0.00979015
7.9887e-05
0.000268464
1.91339e-05
0.00271406
0.00280192
-0.00230767
-0.00257634
-0.00295875
-0.0028763
0.000179637
0.000475123
0.00988091
0.0101509
0.00558453
0.00714446
0.00815274
0.00814439
-0.00521183
-0.00503734
-0.00356619
-0.00379018
0.0138794
0.0138285
0.00353827
0.00348091
1.42948e-05
4.79154e-05
0.000722995
0.00029252
0.00714371
0.00834939
0.0108871
0.0128456
-1.12171e-05
0.0150402
0.00909054
0.0115885
0.00173537
0.00164641
0.00170978
0.000271346
0.00014104
0.000215528
0.000249606
0.000349694
0.000674793
0.00278492
0.00285613
0.00284678
0.00300169
-0.00233753
-0.00103576
-0.00336529
-0.00321107
-0.00348161
-0.00355477
-0.00355545
-0.0034536
-0.000102857
-0.00180182
-0.000349562
0.000980393
0.00942504
0.00892869
-0.00335745
-0.00356706
-0.00330235
0.00899098
0.00884246
0.00913485
-0.00147051
-0.00108305
-0.000745042
0.002367
0.00276629
0.00185808
0.000764023
-0.00630491
-0.00753254
0.00108579
0.00381074
0.00485203
0.0056392
0.00402399
0.00414662
0.00611323
0.00549253
-0.00139167
-0.00168084
-0.00195834
-0.00179782
-0.00162453
0.00533468
0.00662542
-0.00784387
0.0112875
0.0104884
0.00578237
0.00937918
0.000901593
0.000807423
0.000718752
0.00547247
0.00566521
0.00565933
-0.00320902
-0.00312983
-0.00312265
-0.00260623
-0.0027294
0.0158327
0.0138281
0.0132693
0.0149002
0.00164569
0.0047245
0.00342315
0.00507685
0.00475375
0.0155057
0.0158008
0.0144595
0.00591816
0.00699693
0.00017659
0.00027294
9.86516e-05
0.0105018
0.0110045
0.00766789
0.00731998
0.0127771
0.00670273
0.00799271
0.00905209
-0.00189672
-0.00240419
0.00736221
0.00165254
0.00174163
-0.00116214
-0.00142438
-0.000967691
-0.00250364
0.00659467
0.00572208
0.00371632
0.000250474
0.000197571
7.52309e-05
0.000199055
0.00753101
0.00679451
-0.00185675
-0.00197391
-0.00186901
-0.00413055
-0.00367622
5.68619e-05
-0.00284052
-0.000488453
0.00839493
0.00850389
0.00959806
0.00913335
0.00771106
0.00307912
0.00299645
0.00325346
0.00312917
0.00504212
0.00481998
0.00515512
0.00537562
0.00531367
0.00538488
0.00559608
0.00615017
0.00584418
0.00544218
0.00577232
0.006478
0.0072319
0.00752387
-0.00057418
-0.00055495
-0.00246503
0.000200594
5.21455e-05
-0.00198732
-0.00207561
0.000272577
0.000334653
0.000298995
0.000232139
0.00175879
0.00171006
0.00169217
-0.0029077
-0.00309421
-0.00275918
-0.00432512
-0.00480662
-0.00411903
-0.00470565
-0.00646994
-0.00516929
0.0160264
0.0167366
0.016504
0.000934836
0.00107963
0.000968514
0.0103529
0.00992493
0.0100052
0.00141099
0.00139549
0.00142667
0.00137954
0.00136442
0.00134873
0.00134898
0.00133286
0.00133308
0.00136474
0.00137999
0.00139532
0.00141094
0.00142718
0.00131749
0.00131672
0.00144181
0.00144188
0.00145632
0.00130171
0.00130087
0.00145677
0.0012855
0.0012694
0.00128529
0.00126953
0.0014731
0.00147319
0.00125342
0.0012536
0.0014881
0.00148845
0.00123741
0.00123768
0.00150321
0.00150358
0.00122142
0.00122167
0.00151829
0.00151873
0.00120536
0.00120568
0.00153332
0.00153377
0.0011893
0.00118961
0.00154841
0.00154886
0.00117312
0.00117357
0.00156378
0.00156407
0.00115698
0.00115718
0.00157827
0.00157874
0.00114067
0.00114056
0.00159415
0.00159422
0.00112399
0.00112367
0.00160845
0.00160846
0.00110624
0.00110676
0.0016235
0.00162328
0.00108916
0.00108998
0.00160779
0.00162286
0.0016386
0.00163822
0.00157647
0.00159291
0.00154641
0.00156197
0.00151706
0.00153186
0.0014869
0.00150206
0.00145577
0.00147161
0.0014254
0.00144199
0.00139513
0.00141071
0.00136358
0.00137825
0.00133128
0.00134762
0.00129994
0.00131572
0.00126828
0.00128417
0.00123642
0.0012524
0.00120443
0.00122047
0.00117229
0.00118841
0.00114001
0.00115619
0.0011063
0.0011237
0.00108927
0.00107215
0.00107255
0.00112365
0.00108955
0.0011064
0.00115685
0.00114005
0.00118907
0.00117312
0.00122107
0.00120511
0.00125298
0.00123707
0.00128476
0.00126892
0.0013162
0.0013006
0.00134792
0.00133231
0.00137976
0.00136397
0.00140992
0.00139467
0.00144151
0.0014269
0.00147244
0.00145657
0.00150282
0.00148771
0.00153289
0.00151795
0.00156277
0.00154778
0.00159276
0.00157742
0.00162174
0.00160745
0.00163672
0.00163855
0.00107186
0.0010725
0.00165254
0.00165069
0.00165393
0.00165328
0.00160607
0.00163719
0.00162133
0.00157483
0.00159085
0.00154512
0.00155963
0.00151554
0.00153044
0.00148536
0.00150052
0.00145478
0.00147013
0.00142361
0.00143958
0.00139297
0.00140922
0.0013626
0.00137682
0.0013301
0.00134639
0.00129861
0.00131438
0.00126698
0.00128284
0.00123517
0.0012511
0.00120322
0.00121922
0.00117116
0.00118722
0.00113909
0.00115513
0.00110576
0.00112257
0.0010548
0.00105495
0.00107114
0.00108844
0.00108883
0.00107214
0.0010551
0.00105511
0.00112332
0.00110571
0.00115593
0.00113928
0.00118788
0.00117192
0.00121983
0.00120388
0.00125169
0.00123579
0.00128346
0.0012676
0.0013151
0.00129933
0.00134655
0.00133087
0.00137816
0.00136225
0.00140886
0.00139343
0.00143981
0.00142509
0.00147079
0.0014554
0.00150125
0.00148608
0.00153137
0.00151637
0.00156115
0.00154633
0.00159053
0.0015759
0.00161949
0.001605
0.00164757
0.00163398
0.00165268
0.00166512
0.00166219
0.00166628
0.00105423
0.00105462
0.00166757
0.00166642
0.00167933
0.00167693
0.00166746
0.00107071
0.00105297
0.00103771
0.00103724
0.00166501
0.00168213
0.00170537
0.00168683
0.00163453
0.00165017
0.00160327
0.0016186
0.00157256
0.00158842
0.00154292
0.00155727
0.00151337
0.00152828
0.00148323
0.00149836
0.0014527
0.00146802
0.0014219
0.00143735
0.00139099
0.00140657
0.00135992
0.00137536
0.00132842
0.00134429
0.00129684
0.00131264
0.00126519
0.00128105
0.00123342
0.00124933
0.00120153
0.0012175
0.00116954
0.00118555
0.00113757
0.00115355
0.00110456
0.00112108
0.00108751
0.00103793
0.00103711
0.00103754
0.00103803
0.00108796
0.00105373
0.00107127
0.00112216
0.00110502
0.00115423
0.00113794
0.00118615
0.00117021
0.00121803
0.00120212
0.00124982
0.00123395
0.00128151
0.00126569
0.00131309
0.00129733
0.00134454
0.00132884
0.00137579
0.00136023
0.0014069
0.00139135
0.00143774
0.00142245
0.00146849
0.00145317
0.00149893
0.00148377
0.00152902
0.00151403
0.00155874
0.00154396
0.00158792
0.00157344
0.00161645
0.00160221
0.00164456
0.00163054
0.00167311
0.00165817
0.00168999
0.00168673
0.00168163
0.00168012
0.00103605
0.0010367
0.0016936
0.00169274
0.00169657
0.00170008
0.0017026
0.0016302
0.00170554
0.0016818
0.0016888
0.00168575
0.00166429
0.00168143
0.0016301
0.00164706
0.00159966
0.00161433
0.0015696
0.00158525
0.0015402
0.00155482
0.0015105
0.00152543
0.00148039
0.0014955
0.00144993
0.00146521
0.00141925
0.00143463
0.00138835
0.00140383
0.00135721
0.0013728
0.0013259
0.00134162
0.0012944
0.00131017
0.0012628
0.00127863
0.0012311
0.00124697
0.00119928
0.00121521
0.00116737
0.00118334
0.00113547
0.00115142
0.0011029
0.00111915
0.00106955
0.00108614
0.001035
0.00105209
0.0010202
0.00101777
0.00101913
0.00102113
0.00102068
0.00102111
0.00102124
0.00101989
0.00102062
0.00105262
0.00101837
0.00103637
0.00108648
0.00106989
0.00112014
0.00110371
0.00115201
0.00113605
0.0011839
0.00116798
0.0012157
0.00119982
0.0012474
0.00123157
0.00127899
0.00126322
0.00131048
0.00129477
0.00134186
0.0013262
0.00137304
0.00135751
0.00140409
0.00138859
0.00143491
0.00141955
0.00146556
0.00145028
0.00149592
0.0014808
0.00152596
0.001511
0.00155559
0.00154085
0.00158468
0.00157024
0.001613
0.00159895
0.0016406
0.00162694
0.00166835
0.00165422
0.00169575
0.00168113
0.00171278
0.00170849
0.00169435
0.00169413
0.0017103
0.00170344
0.00103364
0.00101698
0.00100282
0.00100185
0.00170235
0.00171543
0.00174088
0.00165694
0.00172314
0.00172007
0.00169996
0.00169463
0.00167663
0.0016728
0.00165906
0.00167272
0.00162498
0.00164187
0.00159584
0.00161034
0.00156627
0.00158123
0.00153668
0.00155146
0.00150694
0.00152187
0.00147688
0.00149197
0.00144651
0.00146174
0.00141589
0.00143124
0.00138505
0.00140051
0.001354
0.00136955
0.00132277
0.00133843
0.00129136
0.00130709
0.00125986
0.00127564
0.00122823
0.00124407
0.00119651
0.00121239
0.00116468
0.00118062
0.00113278
0.00114875
0.00110083
0.0011168
0.00106739
0.00108416
0.00105036
0.00100334
0.00100107
0.00100272
0.00100478
0.00100426
0.00100438
0.00100483
0.0010037
0.00105109
0.00101655
0.00103547
0.00108487
0.00106813
0.0011175
0.00110162
0.00114936
0.00113344
0.00118115
0.00116528
0.00121284
0.00119702
0.00124444
0.00122867
0.00127594
0.00126022
0.00130733
0.00129166
0.0013386
0.00132299
0.00136971
0.0013542
0.00140066
0.00138522
0.00143142
0.00141609
0.00146198
0.00144675
0.00149226
0.00147718
0.00152221
0.0015073
0.00155175
0.00153706
0.00158076
0.00156635
0.00160905
0.00159502
0.00163649
0.00162291
0.00166341
0.00165017
0.00168932
0.00167493
0.00171552
0.00170394
0.0017307
0.00172571
0.00170812
0.00170544
0.000999053
0.00100009
0.00171156
0.00167372
0.00169606
0.0017161
0.00172518
0.00174893
0.00173032
0.0017374
0.00173389
0.00174124
0.00173856
0.00170627
0.00167312
0.00173823
0.00170911
0.00166709
0.00166671
0.00165058
0.00166467
0.00162017
0.00163514
0.0015912
0.00160572
0.00156189
0.00157662
0.0015324
0.00154717
0.00150272
0.00151761
0.00147273
0.00148778
0.00144245
0.00145764
0.00141192
0.00142723
0.00138117
0.00139659
0.00135022
0.00136572
0.00131908
0.00133469
0.00128779
0.00130346
0.00125638
0.00127211
0.00122487
0.00124065
0.00119324
0.00120908
0.00116153
0.00117741
0.00112971
0.00114564
0.00109782
0.00111378
0.00106541
0.00108188
0.0010313
0.00104847
0.000997409
0.00101453
0.0009844
0.000980315
0.00098252
0.000987329
0.00098587
0.000988712
0.000988286
0.000988423
0.000988723
0.000986449
0.000987633
0.000983556
0.000985096
0.00101532
0.000981796
0.000998359
0.00104917
0.00103278
0.00108268
0.00106619
0.00111448
0.00109861
0.00114626
0.0011304
0.00117793
0.00116213
0.00120951
0.00119375
0.00124099
0.00122528
0.00127236
0.00125671
0.00130364
0.00128803
0.00133479
0.00131925
0.00136581
0.00135034
0.00139666
0.00138127
0.00142733
0.00141204
0.00145779
0.00144261
0.00148797
0.00147294
0.00151783
0.00150297
0.00154726
0.00153263
0.00157616
0.00156181
0.0016044
0.0015904
0.00163182
0.00161824
0.00165833
0.0016453
0.00168399
0.00167096
0.0017083
0.00169698
0.00173212
0.00171826
0.00175072
0.00174549
0.00171503
0.00172985
0.00171415
0.000994984
0.000978596
0.000966734
0.000964721
0.0017163
0.0017268
0.00172287
0.00173555
0.00174363
0.00175424
0.00176106
0.00175668
0.00171595
0.00172558
0.0017374
0.00173083
0.00172975
0.00167871
0.00170344
0.00166017
0.00166539
0.00164259
0.00165564
0.00161421
0.00162832
0.00158573
0.00160006
0.00155674
0.00157131
0.00152744
0.00154213
0.00149787
0.00151271
0.00146798
0.00148298
0.00143781
0.00145295
0.00140738
0.00142264
0.00137673
0.0013921
0.00134589
0.00136135
0.00131487
0.00133042
0.00128371
0.00129932
0.00125242
0.00126809
0.00122102
0.00123675
0.00118952
0.0012053
0.00115793
0.00117375
0.00112624
0.00114211
0.00109445
0.00111037
0.00106276
0.00107861
0.00102904
0.00104613
0.00101178
0.000968254
0.000963492
0.000966405
0.000971421
0.000969984
0.000972563
0.000972181
0.000972246
0.000972584
0.000970136
0.000971391
0.000968533
0.00101358
0.000979579
0.000996404
0.00104695
0.00103052
0.00107937
0.00106351
0.00111109
0.00109524
0.00114274
0.00112695
0.00117428
0.00115854
0.00120572
0.00119003
0.00123706
0.00122142
0.00126831
0.00125272
0.00129945
0.00128392
0.00133048
0.00131501
0.00136138
0.00134597
0.00139212
0.00137679
0.00142268
0.00140745
0.00145302
0.0014379
0.0014831
0.00146812
0.00151284
0.00149804
0.00154216
0.00152758
0.00157095
0.00155665
0.00159909
0.00158514
0.00162645
0.0016129
0.00165289
0.00163985
0.00167834
0.00166573
0.00170198
0.00169059
0.00172607
0.00171278
0.00174923
0.00173675
0.00175419
0.00174303
0.00176685
0.00176091
0.00172165
0.000961334
0.000962729
0.00173434
0.00172681
0.0017456
0.00172857
0.00173765
0.00174727
0.00174735
0.00175662
0.00176404
0.00177088
0.00177726
0.00177224
0.00172532
0.00172086
0.00175344
0.00175309
0.00172834
0.00171389
0.00172346
0.00167841
0.00169399
0.00165461
0.00166425
0.00163467
0.0016469
0.00160757
0.00162124
0.0015796
0.00159371
0.00155094
0.00156536
0.00152185
0.00153646
0.00149242
0.0015072
0.00146266
0.0014776
0.00143261
0.00144769
0.00140231
0.00141751
0.00137179
0.00138709
0.00134107
0.00135647
0.00131018
0.00132566
0.00127915
0.0012947
0.001248
0.0012636
0.00121674
0.00123239
0.00118537
0.00120108
0.00115392
0.00116967
0.00112237
0.00113817
0.00109073
0.00110657
0.00105905
0.00107489
0.00102668
0.00104322
0.000992561
0.00100943
0.000959106
0.000976404
0.000947436
0.000942301
0.000945053
0.000952225
0.000949702
0.00095522
0.00095407
0.000956371
0.000955966
0.000956074
0.000956405
0.00095418
0.000955364
0.000951032
0.00095245
0.000946513
0.00094905
0.000977216
0.000943978
0.00096065
0.00101156
0.000993715
0.00104395
0.00102823
0.00107572
0.00105988
0.00110734
0.00109156
0.00113884
0.00112312
0.00117022
0.00115456
0.00120151
0.0011859
0.00123271
0.00121714
0.00126381
0.00124829
0.00129481
0.00127935
0.0013257
0.00131029
0.00135646
0.00134112
0.00138707
0.00137181
0.00141751
0.00140234
0.00144773
0.00143267
0.00147768
0.00146276
0.00150729
0.00149256
0.00153648
0.00152197
0.00156516
0.00155092
0.00159318
0.00157929
0.00162045
0.00160695
0.0016468
0.00163379
0.00167214
0.00165962
0.00169589
0.00168431
0.00171889
0.00170743
0.00174089
0.00172909
0.001764
0.00175344
0.00175654
0.00175645
0.00177794
0.00176895
0.00173348
0.00173798
0.00175888
0.00176511
0.00175533
0.00174448
0.00174896
0.000956838
0.000939634
0.000929687
0.000927498
0.00175826
0.00175859
0.00176706
0.00177328
0.0017799
0.00178344
0.00176291
0.0017617
0.0017653
0.00178611
0.00178393
0.00177762
0.00173675
0.00174966
0.00174805
0.00171367
0.00172625
0.00170261
0.00171291
0.00167282
0.00168621
0.0016495
0.0016606
0.00162681
0.00163889
0.00160048
0.00161387
0.00157292
0.00158684
0.00154456
0.00155884
0.00151569
0.0015302
0.00148643
0.00150112
0.00145682
0.00147168
0.00142691
0.00144192
0.00139674
0.00141187
0.00136636
0.00138159
0.00133578
0.00135111
0.00130504
0.00132045
0.00127415
0.00128963
0.00124315
0.00125868
0.00121204
0.00122762
0.00118083
0.00119646
0.00114953
0.00116521
0.00111814
0.00113386
0.00108665
0.00110242
0.00105507
0.00107088
0.00102352
0.00103931
0.000989863
0.00100692
0.00097348
0.00093191
0.000926318
0.000929475
0.000936333
0.000934105
0.000938971
0.000937867
0.000940158
0.000939743
0.000939881
0.000940202
0.000938222
0.000939218
0.000934732
0.000936692
0.000932443
0.000974782
0.000941419
0.000958084
0.00100882
0.000991645
0.00104023
0.00102455
0.0010718
0.00105605
0.00110325
0.00108756
0.00113458
0.00111895
0.0011658
0.00115022
0.00119692
0.00118139
0.00122796
0.00121247
0.0012589
0.00124346
0.00128975
0.00127436
0.00132049
0.00130516
0.0013511
0.00133584
0.00138157
0.00136638
0.00141186
0.00139677
0.00144194
0.00142696
0.00147175
0.00145691
0.00150123
0.00148656
0.00153029
0.00151584
0.00155883
0.00154466
0.00158673
0.0015729
0.00161388
0.00160044
0.00164014
0.00162717
0.00166537
0.00165292
0.00168927
0.00167754
0.00171199
0.00170082
0.0017337
0.00172288
0.00175328
0.00174435
0.00177609
0.00176009
0.00176825
0.00178756
0.00179687
0.00179472
0.00178956
0.00177524
0.00176233
0.00176301
0.00174667
0.00174941
0.000923502
0.000925006
0.00177679
0.00175758
0.00176004
0.00176621
0.00176924
0.00177687
0.00178339
0.00178634
0.00178831
0.00177233
0.00176454
0.00176807
0.00177996
0.00179032
0.00179849
0.00177731
0.00178428
0.0017881
0.00179728
0.00180183
0.00174872
0.00175804
0.00175479
0.00173602
0.00174079
0.0017092
0.00172268
0.00169188
0.00170175
0.00166651
0.00167922
0.00164279
0.00165445
0.00161902
0.00163124
0.00159301
0.00160623
0.00156575
0.00157952
0.00153767
0.00155182
0.00150902
0.00152343
0.00147993
0.00149455
0.00145049
0.00146527
0.00142073
0.00143567
0.00139072
0.00140578
0.00136049
0.00137565
0.00133006
0.00134532
0.00129948
0.00131481
0.00126876
0.00128415
0.00123791
0.00125337
0.00120697
0.00122247
0.00117592
0.00119147
0.00114479
0.00116038
0.00111357
0.00112921
0.00108226
0.00109794
0.00105084
0.00106658
0.00101936
0.00103511
0.000987084
0.00100359
0.000954329
0.00097041
0.000920786
0.000936956
0.000910061
0.000904763
0.000907245
0.000916014
0.000912942
0.000920204
0.000918446
0.000922743
0.000921632
0.000923922
0.000923513
0.000923655
0.00092397
0.000921986
0.000922989
0.000918368
0.000920489
0.000913732
0.000916063
0.000908745
0.000911319
0.000938462
0.00090538
0.000922981
0.000972565
0.000955082
0.00100485
0.000989102
0.00103622
0.00102053
0.0010676
0.00105194
0.00109885
0.00108326
0.00112999
0.00111445
0.00116103
0.00114555
0.00119198
0.00117654
0.00122285
0.00120745
0.00125362
0.00123827
0.0012843
0.001269
0.00131488
0.00129963
0.00134533
0.00133015
0.00137564
0.00136054
0.00140578
0.00139077
0.00143571
0.00142081
0.00146537
0.00145061
0.0014947
0.00148011
0.00152361
0.00150924
0.001552
0.00153791
0.00157978
0.00156601
0.00160681
0.00159342
0.00163295
0.00162003
0.00165808
0.00164568
0.00168199
0.00167023
0.00170469
0.00169352
0.00172612
0.00171561
0.00174518
0.00173615
0.00176333
0.00175433
0.00176549
0.00177537
0.00178266
0.00180196
0.00179587
0.00175921
0.00176062
0.00177364
0.00176766
0.00177069
0.000917746
0.000902135
0.000892586
0.000889301
0.00177758
0.00177933
0.00178647
0.00179169
0.00179545
0.00179967
0.00177765
0.00177057
0.00178675
0.00178804
0.00179343
0.00178583
0.0017932
0.00180627
0.00180316
0.0017989
0.00180693
0.00176032
0.0017603
0.00174898
0.00174452
0.00175349
0.00172343
0.00173368
0.00170302
0.00171369
0.00168293
0.00169335
0.0016591
0.00167124
0.00163525
0.00164712
0.00161101
0.00162335
0.00158516
0.00159828
0.00155815
0.0015718
0.00153032
0.00154434
0.00150188
0.00151619
0.00147299
0.00148751
0.00144371
0.00145841
0.00141413
0.00142898
0.00138428
0.00139926
0.00135421
0.00136929
0.00132396
0.00133913
0.00129354
0.00130879
0.00126299
0.0012783
0.00123232
0.00124769
0.00120155
0.00121697
0.00117069
0.00118615
0.00113974
0.00115524
0.0011087
0.00112424
0.00107757
0.00109316
0.00104635
0.00106199
0.00101501
0.0010307
0.000983679
0.000999373
0.000951108
0.000967175
0.00093398
0.000894115
0.000888484
0.000891719
0.000900201
0.000897236
0.000903997
0.0009023
0.000906514
0.000905418
0.000907665
0.000907264
0.000907421
0.000907718
0.000905819
0.00090678
0.000902973
0.000904572
0.000897902
0.000900644
0.000894974
0.000935544
0.000902461
0.000920253
0.000969571
0.000952375
0.00100071
0.000985155
0.00103195
0.00101636
0.00106311
0.00104757
0.00109416
0.00107867
0.00112511
0.00110967
0.00115596
0.00114057
0.00118673
0.00117138
0.00121741
0.0012021
0.001248
0.00123274
0.00127851
0.00126329
0.00130891
0.00129375
0.00133919
0.00132409
0.00136934
0.00135431
0.00139931
0.00138438
0.00142908
0.00141425
0.00145857
0.00144389
0.00148774
0.00147323
0.00151649
0.0015022
0.00154474
0.00153072
0.00157237
0.00155867
0.00159926
0.00158595
0.00162529
0.00161243
0.00165032
0.00163797
0.00167417
0.00166243
0.00169678
0.00168567
0.00171801
0.00170761
0.00173719
0.00172796
0.00175413
0.00174616
0.0017681
0.00176072
0.00178729
0.00177917
0.00180319
0.00179678
0.00178478
0.00178408
0.00178204
0.00176979
0.0017713
0.000885255
0.000886496
0.0017915
0.00177791
0.00178085
0.00178786
0.00178889
0.00179531
0.00180012
0.0018037
0.00180534
0.00179048
0.00177954
0.00177892
0.00178727
0.00178681
0.00180122
0.00178957
0.00180267
0.00179383
0.00180184
0.00179271
0.00181133
0.00181195
0.00180967
0.00180596
0.00177103
0.00176815
0.00177831
0.00174862
0.00174422
0.00173212
0.00174442
0.00171477
0.00172369
0.00169489
0.00170511
0.00167409
0.00168475
0.00165093
0.00166272
0.00162714
0.00163909
0.00160268
0.00161508
0.00157695
0.00158999
0.00155015
0.00156369
0.00152255
0.00153646
0.00149433
0.00150853
0.00146563
0.00148005
0.00143654
0.00145115
0.00140714
0.0014219
0.00137747
0.00139235
0.00134758
0.00136257
0.0013175
0.00133258
0.00128726
0.00130242
0.00125689
0.00127211
0.00122641
0.00124168
0.00119583
0.00121115
0.00116515
0.00118052
0.00113439
0.0011498
0.00110355
0.001119
0.00107262
0.00108811
0.0010416
0.00105714
0.00101048
0.00102607
0.000979263
0.000994888
0.000948136
0.000963603
0.000914398
0.000930999
0.000882428
0.000898614
0.000872329
0.000865266
0.000869114
0.000878952
0.000875441
0.000884212
0.000882003
0.000887821
0.000886139
0.00089027
0.000889209
0.000891392
0.000890999
0.000891169
0.000891449
0.00088963
0.000890559
0.000886923
0.000888415
0.000882956
0.000885129
0.000876449
0.000879806
0.000870434
0.00087344
0.000899679
0.000867565
0.000884098
0.000932417
0.00091671
0.000965546
0.000949295
0.000996415
0.000980936
0.00102744
0.00101196
0.00105838
0.00104294
0.00108922
0.00107383
0.00111997
0.00110463
0.00115062
0.00113533
0.00118119
0.00116594
0.00121168
0.00119647
0.00124208
0.00122691
0.0012724
0.00125728
0.00130262
0.00128755
0.00133272
0.00131772
0.00136269
0.00134776
0.00139249
0.00137764
0.00142208
0.00140734
0.0014514
0.00143681
0.0014804
0.00146598
0.00150899
0.00149478
0.00153707
0.00152313
0.00156455
0.00155093
0.00159131
0.00157806
0.00161721
0.00160441
0.00164212
0.00162983
0.00166589
0.00165419
0.00168839
0.00167734
0.00170945
0.00169915
0.00172864
0.00171935
0.00174569
0.00173753
0.00176069
0.00175321
0.0017745
0.00176882
0.0017747
0.00179422
0.00179597
0.00180527
0.00179964
0.00178
0.00178151
0.00179803
0.00178776
0.00179048
0.000879185
0.000862424
0.000854672
0.000851993
0.00179761
0.00179786
0.00180366
0.00180798
0.00181074
0.00181192
0.00177841
0.00177096
0.00177078
0.00178124
0.00179096
0.00180119
0.00180891
0.00180034
0.0018053
0.00181719
0.00181558
0.00181042
0.00180836
0.00179076
0.00179582
0.00178129
0.00177171
0.00176586
0.0017542
0.00176822
0.0017371
0.00174345
0.00172324
0.00173164
0.00170574
0.00171471
0.001686
0.00169611
0.00166501
0.00167573
0.00164225
0.00165383
0.00161856
0.00163051
0.00159403
0.00160645
0.00156841
0.00158138
0.0015418
0.00155524
0.00151441
0.00152821
0.0014864
0.00150049
0.0014579
0.00147222
0.001429
0.00144352
0.00139979
0.00141445
0.00137031
0.0013851
0.0013406
0.0013555
0.00131071
0.0013257
0.00128067
0.00129573
0.00125049
0.00126561
0.00122021
0.00123538
0.00118982
0.00120504
0.00115935
0.00117461
0.00112879
0.0011441
0.00109815
0.0011135
0.00106743
0.00108282
0.00103663
0.00105206
0.00100573
0.00102121
0.000974747
0.000990261
0.000943998
0.000959307
0.00091117
0.000927808
0.000894566
0.0008571
0.000849515
0.00085391
0.000863716
0.000860415
0.000868123
0.000866058
0.000871651
0.000870016
0.000874014
0.000872989
0.000875106
0.000874722
0.000874897
0.000875165
0.000873405
0.00087431
0.000870694
0.000872196
0.000866876
0.000868936
0.000860917
0.00086418
0.000857648
0.000897008
0.000864369
0.000881542
0.000929372
0.000913061
0.000961062
0.000945609
0.000991894
0.000976478
0.0010227
0.00100733
0.00105342
0.00103809
0.00108404
0.00106876
0.00111458
0.00109934
0.00114503
0.00112984
0.00117539
0.00116024
0.00120568
0.00119057
0.00123589
0.00122082
0.00126601
0.00125099
0.00129604
0.00128107
0.00132596
0.00131104
0.00135574
0.00134089
0.00138535
0.0013706
0.00141476
0.00140011
0.0014439
0.00142939
0.00147272
0.00145838
0.00150113
0.00148701
0.00152905
0.00151519
0.00155637
0.00154282
0.00158298
0.0015698
0.00160875
0.00159601
0.00163354
0.00162131
0.00165721
0.00164556
0.0016796
0.00166861
0.00170054
0.00169031
0.00171969
0.00171039
0.0017368
0.00172856
0.00175203
0.00174456
0.0017646
0.00175907
0.00177426
0.00176918
0.00178776
0.00177649
0.00179446
0.00178649
0.00178047
0.00180273
0.00180404
0.00178976
0.00179121
0.00084644
0.00084844
0.00180238
0.00179718
0.00179953
0.00180635
0.00180628
0.0018115
0.00181509
0.00181718
0.00181773
0.0017744
0.00176503
0.00175969
0.0017784
0.00177265
0.00178329
0.00177316
0.001786
0.00179077
0.00180322
0.00180767
0.00181374
0.00181038
0.00182132
0.00181781
0.00181179
0.00180615
0.00179749
0.00179128
0.00179104
0.00177118
0.00177156
0.00176003
0.00174937
0.00174161
0.00175716
0.00172845
0.00173449
0.00171386
0.00172179
0.00169623
0.00170529
0.00167667
0.00168669
0.00165569
0.00166639
0.00163316
0.00164461
0.00160958
0.0016215
0.00158507
0.00159747
0.00155956
0.00157246
0.00153313
0.00154647
0.00150593
0.00151964
0.00147813
0.00149212
0.00144983
0.00146406
0.00142114
0.00143555
0.00139212
0.00140669
0.00136284
0.00137753
0.00133333
0.00134813
0.00130364
0.00131852
0.00127379
0.00128875
0.00124382
0.00125884
0.00121374
0.00122881
0.00118356
0.00119868
0.00115329
0.00116845
0.00112295
0.00113815
0.00109253
0.00110777
0.00106203
0.0010773
0.00103145
0.00104676
0.00100078
0.00101614
0.000970044
0.000985437
0.000939324
0.000954669
0.000907925
0.000923951
0.000875963
0.000891252
0.000843449
0.00085962
0.000834431
0.000827303
0.000831306
0.000841727
0.000837764
0.000847687
0.000845108
0.000852023
0.000849938
0.000855464
0.000853882
0.000857748
0.000856756
0.000858809
0.000858435
0.000858612
0.000858868
0.000857171
0.000858045
0.000854525
0.000855996
0.000850788
0.000852776
0.000846116
0.000848629
0.000839411
0.000842806
0.000832896
0.000836041
0.000861454
0.00082989
0.000845582
0.000893912
0.000877452
0.000925768
0.000909671
0.000956493
0.000941171
0.000987172
0.000971858
0.00101776
0.0010025
0.00104825
0.00103304
0.00107866
0.00106349
0.00110898
0.00109385
0.00113921
0.00112413
0.00116937
0.00115432
0.00119945
0.00118444
0.00122945
0.00121448
0.00125937
0.00124445
0.0012892
0.00127433
0.00131892
0.0013041
0.00134851
0.00133376
0.00137793
0.00136327
0.00140714
0.00139259
0.0014361
0.00142169
0.00146473
0.00145049
0.00149296
0.00147893
0.00152071
0.00150694
0.00154787
0.0015344
0.00157432
0.00156122
0.00159995
0.00158728
0.00162462
0.00161245
0.00164818
0.00163659
0.00167048
0.00165954
0.00169132
0.00168113
0.00171043
0.00170114
0.00172757
0.0017193
0.00174274
0.0017354
0.00175538
0.00174956
0.00176489
0.00176054
0.0017725
0.00176893
0.00177061
0.00181027
0.00181121
0.00178702
0.00178116
0.00179903
0.00180033
0.00181002
0.00180588
0.00180802
0.000840314
0.000823966
0.000817176
0.00081379
0.00181423
0.00181413
0.00181863
0.00182156
0.00182291
0.00182285
0.00176493
0.00175913
0.00174736
0.00175304
0.00177993
0.00178312
0.0017974
0.00179554
0.00180944
0.00181408
0.00181679
0.00182421
0.00181936
0.00181328
0.00180252
0.00179841
0.00178944
0.00177314
0.00177922
0.00180023
0.00175978
0.00174332
0.00176025
0.00176556
0.00174622
0.00174337
0.00173241
0.00174323
0.00171921
0.00172554
0.00170407
0.00171209
0.00168647
0.00169552
0.00166704
0.00167699
0.0016461
0.00165678
0.00162374
0.0016351
0.00160026
0.00161214
0.00157582
0.00158818
0.00155043
0.00156326
0.00152416
0.00153742
0.00149716
0.00151077
0.00146956
0.00148345
0.00144147
0.00145559
0.00141298
0.00142729
0.00138417
0.00139863
0.00135509
0.00136968
0.00132578
0.00134048
0.0012963
0.00131108
0.00126666
0.00128152
0.0012369
0.00125181
0.00120703
0.001222
0.00117707
0.00119208
0.00114702
0.00116207
0.0011169
0.00113199
0.0010867
0.00110182
0.00105643
0.00107159
0.00102608
0.00104128
0.000995651
0.00101089
0.000965154
0.000980424
0.000934604
0.000949892
0.00090407
0.000919365
0.000872206
0.000887853
0.000856289
0.000819538
0.000811685
0.000816203
0.000826285
0.000822787
0.000831593
0.000829118
0.000835929
0.00083387
0.000839263
0.000837732
0.000841476
0.000840514
0.000842505
0.000842142
0.00084232
0.000842565
0.000840931
0.000841775
0.000838381
0.000839799
0.000834742
0.000836688
0.000830186
0.000832598
0.000823813
0.000827219
0.000820352
0.000858428
0.000827145
0.000842557
0.000890626
0.00087428
0.000921228
0.00090587
0.000951808
0.000936545
0.000982274
0.000967073
0.00101263
0.000997484
0.0010429
0.0010278
0.00107308
0.00105802
0.00110318
0.00108816
0.00113319
0.00111822
0.00116313
0.00114819
0.001193
0.0011781
0.00122279
0.00120793
0.0012525
0.00123768
0.00128213
0.00126736
0.00131164
0.00129693
0.00134103
0.00132638
0.00137025
0.00135569
0.00139927
0.00138482
0.00142803
0.00141371
0.00145647
0.00144233
0.00148452
0.00147058
0.00151209
0.00149841
0.00153909
0.0015257
0.00156539
0.00155236
0.00159088
0.00157828
0.00161542
0.00160331
0.00163888
0.00162733
0.00166108
0.00165018
0.00168184
0.00167169
0.00170091
0.00169163
0.00171808
0.00170979
0.00173323
0.00172594
0.00174591
0.00173998
0.00175577
0.00175119
0.0017625
0.00175975
0.00176547
0.00176405
0.00177161
0.00176287
0.00176515
0.00176028
0.00176507
0.00181702
0.00181689
0.00180764
0.00180886
0.000808494
0.000810639
0.00181694
0.00181381
0.00181588
0.00182142
0.00182129
0.00182508
0.00182726
0.00182789
0.00182689
0.0017382
0.00174198
0.00174079
0.00175639
0.00176124
0.0017694
0.00178959
0.00179072
0.00180362
0.00180622
0.00181393
0.00181839
0.00182603
0.00182023
0.00181252
0.00180508
0.00179507
0.00178303
0.00177074
0.00175346
0.00176446
0.00175363
0.0018088
0.00175708
0.00173297
0.00174717
0.00174347
0.00174672
0.00175009
0.00173403
0.00173921
0.00172342
0.00173014
0.0017096
0.00171653
0.00169413
0.00170219
0.00167653
0.00168558
0.00165717
0.00166708
0.00163629
0.00164693
0.00161404
0.00162534
0.00159067
0.0016025
0.00156632
0.00157863
0.00154105
0.00155381
0.00151494
0.00152811
0.00148813
0.00150164
0.00146073
0.00147452
0.00143284
0.00144686
0.00140456
0.00141876
0.00137595
0.00139031
0.00134708
0.00136157
0.00131799
0.00133258
0.00128872
0.00130339
0.0012593
0.00127404
0.00122975
0.00124456
0.0012001
0.00121496
0.00117037
0.00118526
0.00114055
0.00115548
0.00111065
0.00112562
0.00108068
0.00109569
0.00105065
0.00106569
0.00102053
0.00103561
0.00099035
0.00100546
0.000960097
0.000975245
0.000929785
0.00094496
0.000899519
0.000914643
0.000868275
0.000883813
0.000837162
0.000852818
0.000805528
0.000820972
0.000796707
0.0007894
0.000793531
0.000804284