/*--------------------------------*- C++ -*----------------------------------*\
  =========                 |
  \\      /  F ield         | OpenFOAM: The Open Source CFD Toolbox
   \\    /   O peration     | Website:  https://openfoam.org
    \\  /    A nd           | Version:  10
     \\/     M anipulation  |
\*---------------------------------------------------------------------------*/
FoamFile
{
    format      ascii;
    class       volScalarField;
    location    "24.5";
    object      p;
}
// * * * * * * * * * * * * * * * * * * * * * * * * * * * * * * * * * * * * * //

dimensions      [0 2 -2 0 0 0 0];

internalField   nonuniform List<scalar> 
25879
(
0.0842351
0.0872464
0.0872552
0.0847747
-0.00296951
-0.0011055
-0.108013
-0.093344
-0.0681569
-0.0738758
-0.204906
-0.163519
-0.253
-0.27458
-0.276329
0.219192
0.124034
0.00878627
-0.119471
0.811387
0.803445
0.22492
0.349179
0.211608
0.213077
0.219201
0.21685
0.206233
0.210729
0.206265
0.205447
-0.335568
-0.332168
-0.321931
0.114543
0.101557
0.0934679
0.0653729
0.0605901
-0.403145
-0.347429
-0.273383
0.400673
0.411352
0.414235
-0.0839574
-0.100579
-0.588309
-0.561979
-0.580445
0.140396
0.168673
-0.905713
-0.685509
0.0215981
0.0207826
0.0278432
0.509294
0.521563
0.482058
0.463401
0.422062
0.421178
0.00323428
0.00602923
0.00578235
-0.337117
-0.343896
-0.325929
-0.411803
-0.376905
0.267679
0.27121
0.275858
0.315802
0.459167
0.383769
0.0939274
0.0950809
0.0915956
0.429907
0.418115
0.848257
0.782344
0.769991
0.226648
0.235366
0.222527
0.0581739
0.0632829
-0.528483
-0.490429
-0.556129
0.201481
0.201068
0.00899472
0.00314793
0.00604575
0.111492
0.117106
0.110005
0.111889
0.0587081
0.0555071
0.0529577
0.199696
0.197028
0.157402
0.2061
0.085102
0.0762949
0.0628193
0.0628503
0.0872883
0.0883107
0.198856
0.184647
-0.179014
-0.0464888
-0.00321627
0.00532977
-0.139714
-0.143541
-0.260764
-0.257196
-0.488767
-0.465659
-0.374888
-0.346774
-0.321917
-0.359772
-0.334782
0.5232
0.508076
0.495917
0.506971
0.0886417
0.0912199
-0.0931096
0.0108909
-0.172079
-0.173751
-0.162104
-0.153258
-0.13932
-0.123577
-0.109209
-0.0959726
-0.0845916
-0.074949
-0.0670324
-0.0607238
-0.0558872
-0.0523954
-0.0501793
-0.0491907
-0.0494809
-0.0510442
-0.0540296
-0.0584339
-0.0644895
-0.0721575
-0.0816809
-0.0928797
-0.105846
-0.120072
-0.13529
-0.150521
-0.165077
-0.17766
-0.187366
-0.192861
-0.193657
-0.187922
-0.178922
-0.16675
-0.152164
-0.161464
-0.148057
-0.181436
-0.168871
-0.17734
-0.181751
-0.166152
-0.20365
-0.193794
-0.20894
-0.209266
-0.193268
-0.20352
-0.163971
-0.179816
-0.130568
-0.147306
-0.100535
-0.114854
-0.0775144
-0.0880881
-0.0620586
-0.0688938
-0.0533561
-0.0569364
-0.0504484
-0.0512278
-0.0527146
-0.0509483
-0.0600676
-0.0557197
-0.0731371
-0.0658052
-0.0927775
-0.0820931
-0.118225
-0.10495
-0.143529
-0.131705
-0.156741
-0.141604
-0.173694
-0.158782
-0.111765
-0.126413
-0.0862437
-0.0981287
-0.0674268
-0.0759929
-0.0551327
-0.0605162
-0.0483255
-0.0510694
-0.046405
-0.0467118
-0.0494682
-0.0472072
-0.0580411
-0.052907
-0.072796
-0.0644538
-0.0939539
-0.0824084
-0.120099
-0.106354
-0.146935
-0.133552
-0.167279
-0.158168
-0.172505
-0.171939
-0.169568
-0.18362
-0.187981
-0.182683
-0.147295
-0.136737
-0.155334
-0.128957
-0.135323
-0.130936
-0.143144
-0.130589
-0.170324
-0.183585
-0.180491
-0.190807
-0.19137
-0.191022
-0.174565
-0.215747
-0.204973
-0.222146
-0.221866
-0.205572
-0.216413
-0.173708
-0.190882
-0.137262
-0.155416
-0.104705
-0.120127
-0.079913
-0.0912349
-0.0632672
-0.0706037
-0.0537172
-0.057667
-0.0501223
-0.0512204
-0.0517544
-0.0503021
-0.058419
-0.054438
-0.070554
-0.063749
-0.088759
-0.0788957
-0.11208
-0.0999655
-0.137396
-0.124609
-0.161481
-0.150201
-0.174312
-0.169544
-0.141295
-0.156787
-0.111703
-0.126399
-0.0862147
-0.09828
-0.0665765
-0.0755097
-0.0532822
-0.0591696
-0.0453624
-0.0486969
-0.0421787
-0.0432025
-0.0437118
-0.0423645
-0.0503942
-0.0464196
-0.0628589
-0.055939
-0.081402
-0.0714893
-0.104878
-0.0928171
-0.129423
-0.117534
-0.148258
-0.140243
-0.153762
-0.153166
-0.150973
-0.125334
-0.187266
-0.120686
-0.176395
-0.164071
-0.166101
-0.111857
-0.116738
-0.116463
-0.101151
-0.113032
-0.191076
-0.185581
-0.194637
-0.194955
-0.158397
-0.118481
-0.137834
-0.196734
-0.178479
-0.223837
-0.212273
-0.230057
-0.230139
-0.212279
-0.223901
-0.178189
-0.196557
-0.139552
-0.158747
-0.105441
-0.121557
-0.0796944
-0.0914391
-0.062437
-0.0700556
-0.0524154
-0.056596
-0.0483656
-0.0496961
-0.0494784
-0.048298
-0.0554874
-0.0518555
-0.0667296
-0.0604058
-0.0836976
-0.0744907
-0.105613
-0.0941727
-0.129666
-0.117462
-0.151484
-0.141188
-0.159269
-0.163352
-0.180939
-0.173825
-0.136584
-0.150567
-0.108089
-0.122281
-0.0830745
-0.0949711
-0.0636093
-0.0725848
-0.049966
-0.056088
-0.0414005
-0.0450879
-0.0373259
-0.03881
-0.0376778
-0.0369298
-0.0428074
-0.0396101
-0.0532808
-0.0473449
-0.069378
-0.0606519
-0.0900527
-0.0793133
-0.111719
-0.101126
-0.128179
-0.121102
-0.132993
-0.132313
-0.123374
-0.130283
-0.100939
-0.113336
-0.100344
-0.101124
-0.190837
-0.109784
-0.17599
-0.164922
-0.104154
-0.0960225
-0.0878412
-0.0855618
-0.171337
-0.0855065
-0.0859287
-0.184499
-0.175098
-0.073899
-0.0975056
-0.191153
-0.184952
-0.194371
-0.194522
-0.184085
-0.190725
-0.117202
-0.0832815
-0.0991525
-0.158279
-0.137236
-0.198368
-0.179169
-0.226483
-0.214668
-0.232484
-0.232737
-0.213766
-0.225949
-0.178385
-0.197415
-0.138626
-0.158335
-0.103824
-0.120236
-0.0776954
-0.0896074
-0.0601653
-0.0679177
-0.0498527
-0.0541868
-0.0454272
-0.0469596
-0.0460252
-0.0451232
-0.0513126
-0.0480716
-0.0615528
-0.0557678
-0.0772168
-0.0686926
-0.0976283
-0.0869514
-0.119972
-0.108776
-0.139686
-0.130464
-0.151543
-0.146926
-0.151972
-0.153871
-0.153979
-0.164064
-0.128482
-0.141751
-0.101328
-0.114833
-0.0771959
-0.0887031
-0.0583467
-0.0670743
-0.0448923
-0.0509778
-0.0361416
-0.0399676
-0.0315563
-0.0333365
-0.0310659
-0.0307808
-0.0349537
-0.0324275
-0.0436696
-0.038674
-0.0573921
-0.0499193
-0.0751036
-0.065889
-0.0935679
-0.0845463
-0.107412
-0.10147
-0.111252
-0.110819
-0.102954
-0.108699
-0.0848934
-0.0943464
-0.0614737
-0.0735759
-0.0727331
-0.0697093
-0.0606461
-0.0497236
-0.0943497
-0.0720463
-0.174687
-0.0893359
-0.147708
-0.137066
-0.133414
-0.0822283
-0.0728838
-0.050526
-0.0614468
-0.057988
-0.0404847
-0.0835215
-0.17212
-0.160983
-0.18735
-0.181046
-0.190198
-0.190429
-0.179911
-0.186646
-0.0786674
-0.0522523
-0.0645399
-0.113698
-0.0948629
-0.155312
-0.134098
-0.196637
-0.176834
-0.225011
-0.213226
-0.230668
-0.231127
-0.211299
-0.223848
-0.17515
-0.194548
-0.134923
-0.154815
-0.100017
-0.116445
-0.0739489
-0.0858246
-0.0564499
-0.064199
-0.046041
-0.0504426
-0.0413505
-0.0430386
-0.0414832
-0.0408415
-0.0460571
-0.043208
-0.0552652
-0.0500409
-0.0695315
-0.0617514
-0.088238
-0.0784411
-0.108649
-0.0984752
-0.126424
-0.118135
-0.136747
-0.132783
-0.137987
-0.159172
-0.163036
-0.162992
-0.142322
-0.152061
-0.118126
-0.130741
-0.0924012
-0.105176
-0.0694247
-0.0803895
-0.0513708
-0.0597409
-0.038338
-0.0442613
-0.0296313
-0.0334811
-0.0247331
-0.0267149
-0.023565
-0.0236671
-0.0263616
-0.0244387
-0.0334716
-0.0293513
-0.0449671
-0.0386889
-0.0598621
-0.0521143
-0.0753008
-0.0677742
-0.0866892
-0.0818338
-0.0894845
-0.0893803
-0.0818106
-0.08695
-0.0662111
-0.0745953
-0.0473851
-0.0568667
-0.0304879
-0.0384094
-0.0481645
-0.0419788
-0.0334724
-0.0243374
-0.170546
-0.0811304
-0.0609358
-0.141455
-0.127583
-0.0769923
-0.0428511
-0.0706808
-0.0624573
-0.0521679
-0.149238
-0.0282307
-0.0399734
-0.033295
-0.0193162
-0.159355
-0.146188
-0.0713911
-0.165127
-0.154193
-0.17984
-0.173924
-0.182475
-0.182736
-0.172379
-0.178788
-0.152156
-0.163221
-0.0448095
-0.0249525
-0.0340732
-0.0719536
-0.0572812
-0.107717
-0.0887141
-0.149838
-0.128248
-0.191339
-0.171481
-0.219469
-0.207849
-0.224566
-0.225318
-0.204668
-0.217471
-0.168282
-0.187737
-0.128335
-0.148027
-0.0940212
-0.110136
-0.0685333
-0.0801368
-0.0514103
-0.0590028
-0.0411201
-0.0454952
-0.0362919
-0.0380811
-0.0360269
-0.0356182
-0.03991
-0.0374471
-0.0480685
-0.043419
-0.0608805
-0.0538792
-0.0777799
-0.0689254
-0.0961566
-0.0870236
-0.112127
-0.104647
-0.120863
-0.117511
-0.12127
-0.12184
-0.112943
-0.118106
-0.144831
-0.148692
-0.128766
-0.137862
-0.106198
-0.117985
-0.0821192
-0.0940661
-0.060524
-0.0708394
-0.0433921
-0.0513554
-0.0308452
-0.0365762
-0.0222361
-0.026083
-0.017074
-0.019233
-0.0152717
-0.0157396
-0.0170235
-0.015679
-0.0226076
-0.0193167
-0.0320296
-0.0268589
-0.0443632
-0.0379435
-0.057108
-0.0509081
-0.0663338
-0.0624405
-0.0681993
-0.0683785
-0.0611117
-0.0657462
-0.0473793
-0.0548115
-0.0318976
-0.0394474
-0.0197197
-0.0253623
-0.00981282
-0.0144219
-0.0154872
-0.00734437
-0.0260198
-0.0170597
-0.0700017
-0.0521065
-0.139345
-0.066573
-0.0364555
-0.10613
-0.0975611
-0.0918736
-0.0612717
-0.023578
-0.0538941
-0.0129513
-0.0445469
-0.0332523
-0.0202365
-0.0105503
-0.0614849
-0.133381
-0.120156
-0.155697
-0.145397
-0.16942
-0.163852
-0.171684
-0.172112
-0.161904
-0.168115
-0.142184
-0.153119
-0.015182
0.000284594
-0.00687121
-0.0357546
-0.0246941
-0.0634787
-0.0486537
-0.0993812
-0.0803816
-0.141538
-0.119998
-0.182383
-0.162898
-0.209811
-0.198525
-0.214263
-0.215314
-0.194099
-0.206962
-0.158124
-0.17728
-0.119205
-0.138326
-0.0861184
-0.101624
-0.0616649
-0.0727913
-0.045219
-0.0525209
-0.0352416
-0.0395042
-0.0303979
-0.0322345
-0.0298096
-0.0296016
-0.0330439
-0.0309497
-0.0401667
-0.0360889
-0.0515046
-0.045296
-0.0665517
-0.0586618
-0.0829186
-0.0747912
-0.0968389
-0.0904494
-0.104811
-0.101633
-0.10489
-0.105613
-0.102105
-0.133857
-0.125643
-0.131405
-0.128752
-0.132801
-0.113791
-0.122287
-0.0929868
-0.103853
-0.070795
-0.0818055
-0.0507939
-0.060363
-0.034736
-0.0422297
-0.0227492
-0.0282585
-0.0142756
-0.0181033
-0.00887903
-0.0112005
-0.00647857
-0.00729256
-0.00724014
-0.0064432
-0.011391
-0.00887614
-0.0189019
-0.0147464
-0.0289278
-0.0236981
-0.0392921
-0.0342596
-0.0466418
-0.0435792
-0.0477457
-0.0481355
-0.0413744
-0.0454542
-0.0296183
-0.0359442
-0.0169356
-0.0230398
-0.00735503
-0.0117694
-0.000310496
-0.00334741
0.000567688
-0.00547805
0.00626305
-0.129637
-0.060719
-0.0451948
-0.0984812
-0.0850987
-0.0581636
-0.0321054
-0.0536497
-0.0213404
-0.0471662
-0.0124234
-0.0387016
-0.0282806
-0.0159788
-0.00437043
-0.109879
-0.00182597
0.0107186
-0.116601
-0.102013
-0.0534898
-0.123942
-0.111546
-0.144558
-0.13496
-0.156866
-0.15196
-0.15863
-0.15922
-0.149197
-0.155204
-0.1302
-0.140767
-0.105155
-0.117997
0.0121375
0.0239265
0.0186466
-0.00429056
0.00439293
-0.02549
-0.0140589
-0.0532948
-0.0384295
-0.0889928
-0.070196
-0.130373
-0.109304
-0.169989
-0.151101
-0.196406
-0.185592
-0.200151
-0.201494
-0.180004
-0.19274
-0.145033
-0.163566
-0.107837
-0.126044
-0.0765672
-0.0911901
-0.0535644
-0.0640268
-0.0380692
-0.0449587
-0.0285816
-0.032653
-0.0238378
-0.0256702
-0.0230031
-0.0229612
-0.0256416
-0.0238921
-0.0317649
-0.0282426
-0.0416519
-0.0362255
-0.0548711
-0.0479314
-0.0692665
-0.062124
-0.081419
-0.0758491
-0.0882933
-0.0856682
-0.088189
-0.0891922
-0.0820994
-0.085856
-0.0713784
-0.0770957
-0.116502
-0.114686
-0.111571
-0.115368
-0.0978296
-0.105622
-0.0788629
-0.0887504
-0.0586697
-0.0686897
-0.0403786
-0.0491464
-0.0255082
-0.0324781
-0.0141721
-0.0194184
-0.00590179
-0.00967873
-0.000331547
-0.00278504
0.0025962
0.00147383
0.00272722
0.00302983
-0.00013121
0.00168452
-0.00593074
-0.00268222
-0.0139128
-0.00973415
-0.022192
-0.0181792
-0.0279217
-0.0255727
-0.0283975
-0.028944
-0.0227255
-0.0262818
-0.0128858
-0.0181128
-0.00282727
-0.00762296
0.00480042
0.00129294
0.00909969
0.00759929
0.00732858
0.00872036
0.0135815
0.0277006
-0.00109931
0.00560509
-0.0534235
-0.0400131
-0.0914649
-0.0516367
-0.0294301
-0.0653132
-0.0576122
-0.0526065
-0.0479752
-0.0214288
-0.0423745
-0.0131201
-0.0347837
-0.00751781
-0.025181
-0.0135778
-0.000124036
0.0299506
0.0147718
-0.00564535
0.00183026
-0.0472852
-0.0905632
-0.0780126
-0.113944
-0.102692
-0.132485
-0.123983
-0.143274
-0.139023
-0.14437
-0.145159
-0.135156
-0.140865
-0.116863
-0.126957
-0.0926423
-0.105334
0.0374277
0.0449293
0.041854
0.0245983
0.0315961
0.00759619
0.0165645
-0.0140025
-0.0025524
-0.0417187
-0.0269722
-0.0766591
-0.0583088
-0.116704
-0.0963559
-0.154732
-0.136624
-0.179826
-0.169623
-0.18277
-0.18441
-0.162899
-0.175331
-0.129507
-0.147101
-0.0946735
-0.111656
-0.0657216
-0.0792339
-0.0445053
-0.0541543
-0.0301783
-0.0365583
-0.0213251
-0.02514
-0.0167819
-0.018564
-0.0157759
-0.0158648
-0.0178812
-0.016446
-0.0230634
-0.0200676
-0.0315568
-0.0268838
-0.0430137
-0.0369893
-0.0555338
-0.0493223
-0.0660624
-0.0612484
-0.0718537
-0.069686
-0.0718939
-0.0724959
-0.066472
-0.0696098
-0.0623216
-0.0933295
-0.0773005
-0.0866334
-0.0984859
-0.0971973
-0.0937744
-0.0972731
-0.0812893
-0.0883283
-0.0642238
-0.0731092
-0.0460609
-0.055078
-0.0295069
-0.0374613
-0.0158637
-0.0222882
-0.00523432
-0.0101885
0.00276786
-0.000925137
0.00843695
0.00589043
0.0117982
0.0104174
0.0126966
0.0125723
0.0109596
0.0121683
0.00664408
0.00910656
0.000427176
0.00369913
-0.00606207
-0.00292294
-0.0104144
-0.0086699
-0.0103978
-0.0110516
-0.00542554
-0.00847569
0.00258739
-0.00160019
0.0102786
0.00665761
0.0159241
0.0133695
0.018236
0.0176934
0.0162021
0.0174676
0.0178391
0.0161499
0.0134505
0.016816
-0.0033959
0.00471663
0.0100731
-0.0793706
0.0309338
0.0469516
-0.0480228
-0.0366104
-0.0594406
-0.0476548
-0.0470423
-0.028738
-0.0442945
-0.0216897
-0.0396609
-0.0149909
-0.0329993
-0.0124514
-0.0242459
-0.0113873
-0.0132878
-0.000307277
0.014464
0.0126699
0.0308876
-0.061981
-0.0659278
-0.0518913
0.0480107
0.0070355
-0.00138566
-0.00985066
-0.042907
-0.0828177
-0.0712402
-0.104036
-0.0937762
-0.120443
-0.113042
-0.129536
-0.126034
-0.129734
-0.130846
-0.120526
-0.126299
-0.103134
-0.112754
-0.0798024
-0.0921449
-0.0540673
-0.0671016
0.0594696
0.0644175
0.0623132
0.0508598
0.0557773
0.0374341
0.0446801
0.0200848
0.0291947
-0.00171553
0.00967921
-0.0289204
-0.0145076
-0.0626937
-0.0449974
-0.101066
-0.0816054
-0.137205
-0.120037
-0.160743
-0.15123
-0.162735
-0.164691
-0.143394
-0.155346
-0.112119
-0.128487
-0.0801864
-0.095689
-0.0539416
-0.0661691
-0.0347621
-0.0434868
-0.0217652
-0.027563
-0.0136585
-0.0171655
-0.00940018
-0.0110924
-0.0082932
-0.00847875
-0.00993342
-0.00877803
-0.0142492
-0.0117414
-0.0214342
-0.0174705
-0.0312291
-0.0260671
-0.0420024
-0.0366534
-0.0510446
-0.0469198
-0.0559783
-0.0541318
-0.0558752
-0.0565654
-0.0512355
-0.054033
-0.044085
-0.0478839
-0.0359882
-0.040023
-0.0757622
-0.0700582
-0.0802121
-0.0791295
-0.0758095
-0.0790198
-0.0645879
-0.0708871
-0.0494125
-0.057304
-0.033264
-0.0412886
-0.0184304
-0.0255799
-0.00601103
-0.0118899
0.00389218
-0.000757111
0.0115827
0.00799845
0.0172819
0.0146801
0.0209788
0.0193925
0.0225106
0.0220315
0.0217156
0.0224133
0.0186524
0.0204513
0.013925
0.016432
0.00894163
0.0113465
0.00573866
0.00698117
0.00612434
0.00540848
0.0103912
0.00783611
0.0166901
0.0134631
0.0223055
0.0197068
0.0260813
0.0244458
0.0270005
0.0270096
0.0254926
0.0262502
0.0245841
0.0253233
0.0207683
0.0235135
0.0174474
0.0484827
0.0658805
-0.00879637
0.00025294
-0.0443926
-0.0349314
-0.0409379
-0.0443359
-0.0289348
-0.032316
-0.0245894
-0.0216789
-0.042658
-0.0232213
-0.0391323
-0.0196344
-0.0335301
-0.0188211
-0.0256174
-0.0182864
-0.015208
-0.0180135
-0.00220313
0.0129048
0.0298943
-0.0174643
0.0483706
0.066759
-0.00753635
-0.0402366
-0.0541646
-0.0431491
-0.0755471
-0.0650709
-0.0946561
-0.0855868
-0.108983
-0.102579
-0.116411
-0.113673
-0.115656
-0.117129
-0.106379
-0.112089
-0.089756
-0.0988385
-0.0675295
-0.0791711
-0.0425123
-0.0551987
0.0797368
0.0832097
0.0816796
0.073521
0.076975
0.0640394
0.069458
0.0502585
0.0577225
0.0325951
0.0418976
0.0112442
0.0225009
-0.0151737
-0.00124683
-0.0475486
-0.0306166
-0.0840457
-0.065574
-0.118049
-0.101962
-0.139499
-0.131022
-0.140703
-0.142946
-0.122169
-0.133458
-0.0934905
-0.108386
-0.0648746
-0.0787081
-0.0416006
-0.0524292
-0.0246128
-0.0323456
-0.0130464
-0.0182164
-0.00576207
-0.00892533
-0.00185353
-0.00342421
-0.000708622
-0.000959041
-0.00195415
-0.00104186
-0.00548987
-0.00342446
-0.0114717
-0.00816241
-0.0197274
-0.0153641
-0.0288975
-0.0243366
-0.0366123
-0.0330958
-0.0407928
-0.0392368
-0.0406541
-0.0412627
-0.0368829
-0.0391333
-0.0307403
-0.0339635
-0.0276027
-0.0300913
-0.0462592
-0.0278846
-0.0376965
-0.0582204
-0.0531291
-0.0621095
-0.0612177
-0.0580797
-0.0609937
-0.0480971
-0.0536834
-0.0347344
-0.0416744
-0.020524
-0.0275929
-0.00735662
-0.0137255
0.00386364
-0.00147843
0.0130364
0.00869758
0.0203829
0.0169272
0.0260502
0.0234281
0.0299874
0.0282477
0.0320198
0.0312574
0.031991
0.0322713
0.0299587
0.0312103
0.0264635
0.0283373
0.0227271
0.0245243
0.0204653
0.0213004
0.0210992
0.0203704
0.0246379
0.0225761
0.0293434
0.0269916
0.0331611
0.0314385
0.0353843
0.0344925
0.0354922
0.0357309
0.0343492
0.0349406
0.0322072
0.0335353
0.0279909
0.0304738
0.0204213
0.0246509
0.00916811
0.0152148
-0.0165507
-0.00543
0.00246846
0.0675391
0.0849035
-0.0425864
-0.0347075
-0.0291895
-0.0192492
-0.0436778
-0.0305242
-0.043239
-0.0272432
-0.0409569
-0.0260768
-0.0364427
-0.0266892
-0.0292508
-0.0272316
-0.0189997
-0.0277703
-0.00576745
-0.0280519
0.0101759
0.0282533
0.0480025
0.0685473
0.00531155
-0.0271549
-0.0180541
-0.0143524
-0.00239809
0.0865014
-0.0392715
-0.0496395
-0.0394012
-0.0692039
-0.0596432
-0.0862752
-0.0782461
-0.0986033
-0.0931599
-0.104451
-0.102441
-0.102732
-0.104592
-0.0933036
-0.0989726
-0.0771165
-0.085971
-0.0560061
-0.0670982
-0.0322295
-0.0443419
-0.00883234
-0.0202351
0.0982345
0.101764
0.100096
0.093707
0.0961768
0.0868326
0.0906781
0.076549
0.082213
0.0626263
0.0701223
0.0453112
0.0544056
0.0245213
0.035407
-0.000874281
0.0124929
-0.031765
-0.0156392
-0.0662727
-0.0488549
-0.0979486
-0.0830438
-0.117294
-0.109784
-0.117372
-0.119928
-0.0999291
-0.110377
-0.0742487
-0.0874773
-0.0492243
-0.0612731
-0.0290518
-0.0384297
-0.0143171
-0.0210319
-0.00422325
-0.00874526
0.00219778
-0.000600867
0.0057106
0.00428523
0.00683921
0.00655242
0.00591904
0.00662538
0.00307021
0.0047432
-0.00182693
0.000890086
-0.00868016
-0.00504547
-0.0163972
-0.0125477
-0.0229374
-0.0199543
-0.026468
-0.0251597
-0.0263312
-0.0268518
-0.0231177
-0.0250405
-0.0182693
-0.0208047
-0.0133151
-0.0156693
-0.00951339
-0.0112482
-0.0147185
0.00243015
-0.00604251
-0.0304188
-0.0230569
-0.0411225
-0.0365755
-0.0445755
-0.0438237
-0.040926
-0.0435487
-0.0321188
-0.0370305
-0.0204508
-0.0265025
-0.00805197
-0.0142265
0.00354261
-0.00208675
0.0136104
0.00878761
0.0220571
0.0180312
0.02903
0.0257215
0.0346048
0.0319966
0.0386895
0.0368471
0.0410945
0.0401174
0.0416661
0.041617
0.0404606
0.0412715
0.0379671
0.0393248
0.0352505
0.0365507
0.0337423
0.0342568
0.0344991
0.0338112
0.0372759
0.035709
0.0405172
0.0389513
0.0427878
0.0418136
0.0437411
0.0434398
0.0432429
0.0436639
0.0418986
0.0426956
0.0393616
0.0408117
0.0349246
0.0374536
0.0279363
0.031811
0.0180447
0.0233204
0.0119929
0.0880881
0.103482
-0.0247127
-0.0109509
-0.0427966
-0.0361464
-0.0452477
-0.0341704
-0.000516419
0.0100966
-0.00824312
-8.24775e-05
0.000681322
-0.0462471
-0.0334093
-0.0453053
-0.0347159
-0.0418294
-0.0365999
-0.0351725
-0.0384051
-0.0247636
-0.0399713
-0.0107633
-0.0405057
0.00655114
-0.0394299
0.0264127
0.0480662
0.0698119
-0.035909
0.0899691
0.104704
-0.019979
-0.040221
-0.0269555
-0.0175031
-0.0460042
-0.0365338
-0.0639281
-0.0551522
-0.0791096
-0.0720181
-0.089628
-0.0850651
-0.0940055
-0.0926743
-0.0913548
-0.0936003
-0.0816757
-0.0873761
-0.0658991
-0.0744686
-0.0457572
-0.0563215
-0.0232115
-0.034636
-0.0116198
0.116387
0.105118
0.116144
0.114897
0.116061
0.111414
0.113386
0.106421
0.109172
0.0988635
0.103003
0.0883158
0.094003
0.0745639
0.0818485
0.0577937
0.0665449
0.0378133
0.0482671
0.0134952
0.026286
-0.0159011
-0.000589507
-0.04834
-0.0320312
-0.0774656
-0.0638709
-0.0943931
-0.0880153
-0.0934022
-0.0962111
-0.0773691
-0.0867953
-0.0549944
-0.0664222
-0.0336836
-0.043909
-0.0166145
-0.0245489
-0.00410824
-0.0098171
0.00452422
0.000647197
0.0100728
0.00764582
0.0131625
0.0118983
0.0142303
0.0139317
0.0135696
0.0141061
0.0113124
0.0126448
0.00737395
0.00956507
0.00177947
0.00475874
-0.00463271
-0.00142047
-0.0101396
-0.00762164
-0.0131244
-0.0120186
-0.0130147
-0.0134492
-0.0103617
-0.011941
-0.00657972
-0.00847544
-0.00273616
-0.00452303
-0.00121716
-0.0014402
0.0134277
0.00615223
-0.0151078
-0.00858888
-0.0247558
-0.0206576
-0.0278758
-0.0272004
-0.02462
-0.0269581
-0.0168929
-0.0211866
-0.00676828
-0.0120114
0.00397704
-0.00137972
0.0141203
0.00917643
0.0231011
0.0187719
0.0308361
0.0271218
0.0374095
0.0342658
0.0428327
0.040272
0.0469752
0.0450788
0.0496325
0.0485048
0.0506526
0.0503541
0.0500926
0.0505567
0.0484012
0.0493437
0.0465087
0.0474077
0.0455832
0.0458587
0.0463335
0.0457433
0.0483215
0.0472438
0.0502577
0.0493735
0.0512623
0.0508906
0.0512625
0.0513883
0.0503238
0.0508965
0.0486062
0.0495942
0.0459043
0.0474732
0.0415862
0.0439879
0.0352057
0.0386946
0.026537
0.0312141
0.0153195
0.0212464
0.00181824
0.00890478
-0.0296402
-0.0136155
-0.005722
-0.0452208
-0.0395999
0.0202447
-0.00761464
0.000879352
-0.0492985
-0.0401903
-0.0519096
-0.0422771
-0.0523549
-0.0457074
-0.0497769
-0.0492123
-0.0432946
-0.0523531
-0.0322587
-0.0546017
-0.0167224
-0.0550545
0.00274883
-0.0530342
0.0250475
-0.0479015
0.0489369
0.0716319
0.0913307
0.104728
0.000752023
-0.0399342
-0.0218655
-0.00567401
-0.0432998
-0.0254912
-0.0164933
-0.0433238
-0.0344961
-0.0597814
-0.0518162
-0.0732954
-0.0670276
-0.0822145
-0.0784341
-0.0852536
-0.084545
-0.081721
-0.0843395
-0.0717367
-0.0775106
-0.0562488
-0.0646075
-0.03687
-0.0469264
-0.015313
-0.0261186
0.00644943
-0.00440915
0.0263234
0.0167458
0.120653
0.117616
0.125198
0.123726
0.125402
0.125785
0.122705
0.124405
0.117401
0.120342
0.109635
0.113859
0.0991661
0.104758
0.0858831
0.0928767
0.0698509
0.0782158
0.0507254
0.0607376
0.0274427
0.0396815
-0.000481094
0.0140183
-0.0307414
-0.0156201
-0.0570464
-0.0449165
-0.0713084
-0.0661425
-0.069423
-0.0723569
-0.0551496
-0.0633805
-0.0362683
-0.0458341
-0.0186394
-0.0270771
-0.00455967
-0.0111096
0.00581575
0.00106895
0.0130425
0.00978792
0.0177368
0.0156765
0.0203927
0.0192982
0.0213647
0.0210747
0.0209032
0.0213037
0.019144
0.0201872
0.016036
0.0177691
0.0115544
0.013952
0.00630507
0.00894976
0.00170473
0.00381815
-0.000825879
0.000116522
-0.000767666
-0.00111332
0.00135884
9.81249e-05
0.00443463
0.00284203
0.00734969
0.00599097
0.00907618
0.00845047
0.00921223
0.0093944
0.0240293
0.0353496
0.0298688
0.0114758
0.0178635
-0.000591442
0.00522017
-0.00930104
-0.00557805
-0.0121905
-0.0115449
-0.00934658
-0.0113885
-0.00259775
-0.00633868
0.00615663
0.00163099
0.0154274
0.0108021
0.0242568
0.0199368
0.0322275
0.0283611
0.0392724
0.0358651
0.0454249
0.0424614
0.0506414
0.0481596
0.0547578
0.0528528
0.0575575
0.0563374
0.0588918
0.0584138
0.0588223
0.0590194
0.0577661
0.0583777
0.0565294
0.057111
0.0560236
0.0561401
0.056635
0.0562003
0.0578233
0.0572176
0.058631
0.0583194
0.058635
0.0587309
0.0579357
0.0583682
0.0566238
0.0573523
0.0546858
0.0557486
0.0518828
0.0534315
0.0477652
0.0500191
0.0420643
0.0451298
0.0344853
0.0385461
0.0248151
0.0298871
0.013584
0.0193921
0.00729636
-0.0301286
-0.0117175
-0.0501284
-0.045465
-0.0560989
-0.0490144
0.0314949
0.0401492
0.00861397
0.0171934
0.0163793
-0.0604692
-0.0539292
-0.062239
-0.0595374
-0.060227
-0.0647585
-0.0533249
-0.0692104
-0.0408606
-0.0716197
-0.022895
-0.0716116
-0.00065947
-0.068211
0.0244459
-0.0610853
0.0501561
-0.0509299
0.0739134
0.0923797
0.103757
-0.0373588
-0.0169575
0.104027
0.107291
-0.0488207
-0.0077316
0.0005313
-0.0248189
-0.0162472
-0.0416214
-0.0333332
-0.0568191
-0.0495188
-0.0688917
-0.0633479
-0.0764073
-0.073315
-0.0782429
-0.0780994
-0.0738758
-0.0768556
-0.0635311
-0.069421
-0.0481721
-0.0564064
-0.0292605
-0.0390641
-0.00858279
-0.0190222
0.0121767
0.0018704
0.0222298
0.125095
0.121613
0.131139
0.128532
0.13329
0.132746
0.131524
0.132846
0.126644
0.129436
0.119119
0.123216
0.109018
0.114395
0.0963685
0.103015
0.081121
0.0890881
0.0628007
0.0724058
0.0404815
0.0521994
0.0140498
0.0277088
-0.0138173
-1.79961e-05
-0.0369841
-0.026472
-0.0484883
-0.0445225
-0.0460385
-0.0488982
-0.0338667
-0.0407593
-0.0185218
-0.0262438
-0.00440001
-0.0111518
0.00689806
0.00163271
0.0152963
0.0114433
0.0212069
0.0185373
0.025087
0.0233788
0.0273125
0.0263901
0.0281632
0.027898
0.0278474
0.0281425
0.0264974
0.0273007
0.0240938
0.0254362
0.0205805
0.022469
0.01636
0.0185014
0.0125564
0.0143167
0.010405
0.0112157
0.0103963
0.0101384
0.0120842
0.0110806
0.0145082
0.0132658
0.0166384
0.0156747
0.0176577
0.0173238
0.0176502
0.0342428
0.043881
0.0391642
0.0236219
0.0290441
0.0130002
0.0181549
0.0051203
0.00852009
0.0023527
0.00301949
0.00476431
0.00299357
0.0106457
0.00738942
0.0182124
0.0143085
0.0261981
0.0222124
0.03386
0.0300982
0.0409039
0.0374669
0.0472844
0.0441776
0.0529981
0.0502284
0.0579574
0.0555834
0.0619714
0.0600989
0.0648163
0.0635547
0.0663511
0.0657524
0.0666459
0.0666405
0.0660889
0.0664388
0.065359
0.0656999
0.0651114
0.0651494
0.065458
0.0652299
0.0658714
0.0657006
0.06575
0.0658956
0.0650032
0.0654436
0.0638021
0.0644543
0.0621948
0.0630521
0.0600921
0.0612169
0.0572739
0.0587967
0.0534114
0.055484
0.0483551
0.0510412
0.0416929
0.0452579
0.0335483
0.0378703
0.0241641
0.0290494
0.0137656
0.0190164
0.00412659
0.00865687
-0.0217155
-0.00295985
0.000253022
-0.0578256
-0.0541219
0.0479686
0.00748521
0.0150698
-0.0659352
-0.0608616
0.105565
0.101804
0.0996087
-0.0721043
-0.0686972
-0.074928
-0.0765863
-0.0728664
-0.0835559
-0.0646412
-0.0889264
-0.0497049
-0.091265
-0.0285037
-0.0899419
-0.0028855
-0.0845734
0.0251526
-0.0743492
0.0525466
-0.0606032
0.0759968
-0.043411
0.0924211
0.100252
0.10341
0.0985429
0.01281
-0.0251662
-0.00518803
0.0113801
-0.0571314
-0.008492
-0.000419116
-0.0249457
-0.016713
-0.0409006
-0.0330638
-0.0550302
-0.0482894
-0.0658921
-0.0609654
-0.0721832
-0.069695
-0.0729351
-0.0733062
-0.067768
-0.0711036
-0.0570044
-0.0630517
-0.0416291
-0.0498212
-0.0230908
-0.032655
-0.00307862
-0.0131702
0.0169191
0.00699422
0.0356721
0.0265003
0.0515517
0.0439585
0.117031
0.111676
0.127809
0.122935
0.134611
0.1316
0.138113
0.136845
0.13771
0.138389
0.133843
0.13618
0.127024
0.130787
0.117576
0.12262
0.105655
0.111928
0.0911567
0.0987539
0.0735684
0.0828028
0.0522042
0.0633895
0.0274395
0.040142
0.00231434
0.0146063
-0.017466
-0.00864699
-0.0263583
-0.0234512
-0.0238231
-0.0263628
-0.0140212
-0.0194923
-0.00209701
-0.00807225
0.00881102
0.00359175
0.0176022
0.0134931
0.0242145
0.0211707
0.0289225
0.0267897
0.0320443
0.0306662
0.0338544
0.0331011
0.0345669
0.0343386
0.0343502
0.0345671
0.0333282
0.0339373
0.0315085
0.0325248
0.0288225
0.0302728
0.0255048
0.0272023
0.0224051
0.0238544
0.0205759
0.0212782
0.0204951
0.0203194
0.0218083
0.0210229
0.0236666
0.0227291
0.0251604
0.0245129
0.0256142
0.0255492
0.0247023
0.0253495
0.0223011
0.0237282
0.0517457
0.0584538
0.0552381
0.0439315
0.0480835
0.0348274
0.0394819
0.0255586
0.0300878
0.0184377
0.0215518
0.0157093
0.016438
0.0176604
0.0161658
0.0227662
0.0199334
0.0293242
0.0259468
0.0362154
0.0327763
0.0428605
0.039589
0.0490655
0.0460221
0.0548105
0.0519963
0.0600704
0.0575067
0.0647268
0.0624867
0.068571
0.066767
0.0713792
0.0701185
0.0730238
0.0723507
0.0735853
0.0734273
0.0734157
0.0735626
0.0730507
0.0732262
0.0728913
0.0729373
0.0728806
0.072891
0.0725883
0.0727944
0.0717465
0.0722356
0.0704663
0.0711478
0.0689142
0.0697215
0.0670878
0.0680412
0.0648726
0.0660394
0.0620892
0.0635664
0.0584876
0.0604245
0.0539443
0.0563776
0.0482715
0.0512646
0.0414519
0.0450085
0.0336415
0.0376586
0.0252804
0.0296213
0.0176288
0.0212945
0.0149962
-0.00635115
0.0107582
-0.0686383
-0.0658993
0.0954111
-0.0790384
-0.0760645
0.0544466
0.0611775
0.0205153
0.0291641
0.0273184
-0.0868242
-0.0868191
-0.0901126
-0.0969985
-0.0870344
-0.105538
-0.0763158
-0.11114
-0.0577936
-0.112528
-0.03265
-0.109553
-0.00331859
-0.101012
0.0273328
-0.0872835
0.0554117
-0.0695712
0.0773048
-0.0492161
0.0899016
-0.0274257
0.0961371
0.0955335
0.0924639
-0.00607921
0.0118327
-0.0685839
0.0058646
0.0133313
-0.00991173
-0.00199752
-0.0258891
-0.0179151
-0.0411647
-0.0336964
-0.0544157
-0.0481367
-0.0642618
-0.0598569
-0.0694862
-0.0675297
-0.0692513
-0.0700974
-0.0633034
-0.0669959
-0.0520596
-0.0583047
-0.0365443
-0.0447623
-0.0181984
-0.0276284
0.00138499
-0.00846578
0.0207752
0.0111823
0.0388874
0.0300322
0.0470734
0.10741
0.0898429
0.118339
0.11265
0.128997
0.123932
0.136411
0.133161
0.140672
0.138944
0.141463
0.141524
0.138778
0.14054
0.13297
0.136247
0.124403
0.129018
0.113287
0.119167
0.099522
0.106761
0.0826845
0.0915269
0.0624461
0.0729884
0.0397163
0.0512564
0.0177455
0.0283396
0.00154431
0.00859111
-0.00536742
-0.00320579
-0.003295
-0.00527414
0.00401353
-3.79314e-05
0.0127839
0.00839032
0.0208548
0.0169808
0.0274519
0.0243553
0.0324896
0.0301616
0.0361218
0.0344715
0.0385522
0.0374771
0.0399704
0.0393791
0.040535
0.0403524
0.0403787
0.0405406
0.0396121
0.0400681
0.0382646
0.0390154
0.0362703
0.037351
0.0337361
0.035045
0.031262
0.032434
0.0297154
0.0303246
0.0295638
0.0294626
0.0305499
0.0299538
0.0319366
0.0312469
0.0329292
0.0325282
0.0329444
0.0330875
0.0316991
0.0324875
0.0306169
0.0593308
0.0648012
0.062092
0.0527564
0.0561588
0.0450284
0.0490038
0.0370202
0.0409596
0.0306212
0.033467
0.0278844
0.0287015
0.0293417
0.0281331
0.0337358
0.0312793
0.0394457
0.0365067
0.0454264
0.0424434
0.0512052
0.0483552
0.0566627
0.053975
0.0618059
0.059274
0.0666023
0.0642539
0.070917
0.0688331
0.0745354
0.0728294
0.077243
0.0760157
0.0789307
0.0782169
0.0796842
0.0794128
0.0798005
0.0798001
0.0796551
0.0797429
0.0794354
0.0795567
0.0790085
0.0792655
0.0781219
0.0786301
0.0767609
0.0774902
0.0751228
0.0759648
0.0733339
0.074247
0.0713594
0.0723761
0.0690879
0.07027
0.0663731
0.0677967
0.0630476
0.0648012
0.0589832
0.0611227
0.0540895
0.0566432
0.048405
0.0513432
0.0420834
0.045306
0.0354805
0.0388043
0.0296854
0.0323273
0.026151
0.0276176
0.0250178
0.0251489
0.0141699
0.0285977
0.0261817
-0.0828519
-0.0811465
0.067158
0.018284
0.0251187
-0.0954705