/*--------------------------------*- C++ -*----------------------------------*\
  =========                 |
  \\      /  F ield         | OpenFOAM: The Open Source CFD Toolbox
   \\    /   O peration     | Website:  https://openfoam.org
    \\  /    A nd           | Version:  10
     \\/     M anipulation  |
\*---------------------------------------------------------------------------*/
FoamFile
{
    format      ascii;
    class       volScalarField;
    location    "22.5";
    object      p;
}
// * * * * * * * * * * * * * * * * * * * * * * * * * * * * * * * * * * * * * //

dimensions      [0 2 -2 0 0 0 0];

internalField   nonuniform List<scalar> 
28942
(
-6.98767
-6.92821
0.0574778
1.55257
1.59795
-0.0816938
-0.0688922
-0.080452
0.769814
0.793397
-2.38322
-2.14195
-2.29962
-2.46052
-0.00351419
0.000624901
2.17905
2.36208
1.88997
2.41674
1.16399
1.19662
-1.90617
-1.8677
-1.98419
-1.96693
4.70227
4.86841
1.05513
1.12106
-0.104281
-0.10344
0.0484444
-0.00881158
-1.58693
-1.23772
1.52135
2.28873
-0.0983721
0.628986
0.986997
0.945067
0.332385
0.290539
0.383912
-0.0652312
-0.0583719
-0.0522174
-0.0516508
-0.0465875
-0.0319257
0.718214
0.729527
0.819319
0.844841
-1.42673
-0.954141
-2.17239
-2.16128
-1.99779
-2.06224
-2.15267
-2.24195
0.106786
-0.315891
0.278651
0.558211
2.75695
2.64158
-7.04528
-7.05434
-7.04215
2.8316
2.70307
2.8972
-3.67347
-3.6206
-2.94094
0.13062
-0.194054
0.274904
-0.328095
-7.69864
-8.14585
-2.21894
-1.59383
-1.06483
-1.49999
-2.04905
-2.02048
-1.71321
-1.28601
-3.77865
-3.08632
-3.04222
-3.63682
-4.21219
-1.71163
-1.51721
-8.03177
1.64528
1.65881
1.70665
1.64103
-1.20374
-1.13979
-1.25949
0.180424
0.215937
0.253412
-2.29872
-2.41625
-6.94408
-6.55183
-6.70153
4.63362
4.20151
3.68946
4.15555
-1.77366
-0.641877
-1.01712
1.44915
1.33475
5.34652
5.56127
5.16063
1.46048
1.67372
-0.0549245
-0.0498265
-0.0600509
3.34787
3.81375
0.664838
0.629324
0.831629
2.11488
2.77188
0.716357
-3.61177
-3.277
1.75155
0.476253
0.436576
-0.635777
-0.693737
-0.555887
-3.06931
-0.707642
-0.749304
-2.37019
-0.0515563
-0.0671974
-0.0692742
-0.0590416
-0.0211716
-1.51102
-7.62845
-7.52971
-7.10835
-7.63271
-6.50912
-0.0340494
-1.59188
-1.33654
1.28493
1.30555
1.86781
1.71417
1.09668
-0.16006
-0.158015
0.873895
0.83464
0.0520099
-0.0430472
0.0795493
0.164424
0.114279
0.0758129
0.136828
0.334728
0.225276
0.0389767
0.165003
0.453968
0.769196
0.976396
-7.21451
-6.5473
-6.80829
-0.0655462
-0.0486529
-8.56336
-8.14572
-0.0412735
-0.0343973
-0.0382662
-0.0475488
-1.81818
-1.88019
-1.94496
-2.55765
-2.53106
-2.74031
-1.93052
-1.90676
-1.97322
-1.93271
-2.08959
-1.91254
4.39921
4.00521
4.47891
-1.04351
-0.928285
-0.972182
2.76024
2.69377
2.70639
-1.47855
-1.43197
-1.55165
-1.4113
-1.41502
-1.44283
-1.42434
-1.49456
-1.47777
-1.39323
-1.38338
-1.39665
-1.43511
-1.49806
-1.56915
-1.55624
-1.65581
-1.58976
-1.79376
-1.66967
-1.66519
-1.71175
-1.80313
-1.96958
-1.80468
-1.9756
-1.95712
-1.86008
-2.16577
-2.17477
-2.15448
-2.03726
-2.38547
-2.39688
-2.37728
-2.23846
-2.62109
-2.6351
-2.616
-2.45532
-2.86197
-2.87949
-2.85518
-2.67321
-3.09482
-3.11598
-3.07745
-2.87645
-3.30303
-3.32734
-3.26317
-3.04616
-3.47192
-3.49823
-3.39643
-3.16883
-3.58695
-3.61474
-3.46305
-3.2296
-3.63732
-3.6643
-3.45067
-3.21941
-3.6133
-3.64102
-3.36258
-3.14056
-3.51427
-3.54701
-3.60518
-3.51606
-3.20521
-2.99982
-3.5396
-3.61015
-3.20169
-3.39983
-2.71722
-2.96879
-2.22674
-2.46468
-1.83458
-2.01436
-1.57812
-1.69149
-1.4411
-1.4947
-1.40948
-1.41323
-1.47457
-1.43018
-1.63524
-1.54184
-1.91472
-1.75922
-2.30961
-2.09995
-2.76872
-2.53607
-3.19651
-2.99424
-3.47014
-3.35951
-3.5031
-3.51937
-3.41235
-3.35218
-3.38364
-3.6204
-3.5048
-3.59751
-3.46037
-3.57355
-3.08115
-3.29168
-2.59853
-2.84424
-2.13801
-2.35949
-1.76992
-1.9402
-1.51703
-1.629
-1.37647
-1.43335
-1.32851
-1.34239
-1.36581
-1.33552
-1.49659
-1.41964
-1.73384
-1.60069
-2.06784
-1.89056
-2.44939
-2.25822
-2.77676
-2.62729
-2.93807
-2.88393
-2.86392
-2.93131
-2.74417
-3.35169
-3.25672
-3.34504
-2.80863
-2.58211
-3.13115
-2.9958
-3.67454
-3.43052
-3.59196
-3.598
-3.67439
-3.25419
-3.45357
-2.75826
-3.01632
-2.25224
-2.49827
-1.84452
-2.03209
-1.57254
-1.69234
-1.42346
-1.48425
-1.37985
-1.38939
-1.43184
-1.39426
-1.57874
-1.49274
-1.83628
-1.6927
-2.20518
-2.00872
-2.63722
-2.41815
-3.04121
-2.84976
-3.30311
-3.19636
-3.33769
-3.35279
-3.13755
-3.05635
-3.11498
-3.25558
-3.39413
-3.24069
-3.12918
-3.16229
-3.51251
-3.48747
-3.35928
-3.46804
-2.99338
-3.1968
-2.5234
-2.76373
-2.06947
-2.28805
-1.70697
-1.87478
-1.45436
-1.56704
-1.3076
-1.36824
-1.25112
-1.26949
-1.27493
-1.2528
-1.3824
-1.3186
-1.58548
-1.47149
-1.87367
-1.72086
-2.20087
-2.03712
-2.48015
-2.35287
-2.61645
-2.57093
-2.56114
-2.61322
-2.32932
-2.46035
-3.20487
-2.40396
-2.17983
-2.59899
-2.92972
-3.03348
-2.8825
-2.94547
-2.22364
-2.02386
-2.76013
-2.92769
-2.76386
-2.87969
-2.79061
-2.93411
-2.67828
-2.42964
-2.66607
-3.42227
-3.19794
-3.65348
-3.57738
-3.57586
-3.65169
-3.23417
-3.43209
-2.73928
-2.99699
-2.23207
-2.47916
-1.81907
-2.00975
-1.53971
-1.66294
-1.38266
-1.44733
-1.32859
-1.34363
-1.36741
-1.3368
-1.49766
-1.42062
-1.73088
-1.60064
-2.0682
-1.88804
-2.46706
-2.26451
-2.84097
-2.66362
-3.08542
-2.98548
-3.11947
-3.13192
-3.04869
-2.89169
-2.7167
-2.82597
-2.91033
-3.22574
-2.88142
-3.07766
-3.34469
-3.31836
-3.20071
-3.30335
-2.85366
-3.04632
-2.40821
-2.63625
-1.97293
-2.18335
-1.62166
-1.78472
-1.37336
-1.4848
-1.22313
-1.28661
-1.15779
-1.1809
-1.16737
-1.15335
-1.25194
-1.20019
-1.41798
-1.32465
-1.65783
-1.53025
-1.93163
-1.79446
-2.16647
-2.05922
-2.28252
-2.24343
-2.23801
-2.28068
-2.05581
-2.16024
-1.8059
-1.93466
-1.87333
-1.68073
-2.62903
-2.39105
-2.57143
-2.65187
-2.42205
-2.04568
-2.1387
-1.5668
-1.73702
-1.96011
-1.75473
-2.53284
-2.378
-2.17621
-2.86749
-2.60551
-3.33546
-3.12459
-3.54645
-3.47669
-3.47634
-3.54728
-3.14641
-3.33868
-2.66506
-2.91577
-2.16907
-2.41129
-1.76083
-1.94992
-1.48071
-1.60468
-1.31968
-1.38673
-1.2579
-1.27733
-1.28376
-1.26027
-1.3963
-1.32885
-1.60299
-1.48741
-1.90416
-1.74294
-2.26358
-2.08065
-2.60265
-2.44161
-2.82645
-2.73455
-2.86103
-2.87057
-2.69825
-2.80246
-2.3905
-2.55654
-2.49374
-2.2082
-2.36524
-2.63767
-2.5847
-2.61606
-2.64922
-2.40856
-2.53354
-2.68402
-2.24583
-2.47353
-3.00745
-2.86669
-3.12877
-3.09751
-2.99218
-3.08741
-2.66996
-2.84903
-2.25497
-2.46743
-1.84727
-2.04488
-1.51475
-1.66956
-1.27632
-1.38397
-1.12625
-1.19096
-1.05335
-1.08084
-1.04907
-1.04302
-1.11107
-1.07164
-1.24205
-1.16803
-1.43521
-1.33211
-1.65812
-1.54617
-1.8508
-1.7626
-1.94775
-1.91456
-1.91418
-1.9475
-1.77251
-1.85317
-1.5785
-1.67988
-1.38588
-1.4783
-1.46689
-1.30531
-2.38824
-2.19762
-2.18914
-1.88733
-2.17396
-2.02113
-2.16473
-2.01466
-1.93295
-1.61695
-1.71901
-1.81409
-1.38768
-1.24257
-1.65511
-2.32083
-2.23092
-2.007
-2.7325
-2.4735
-3.16964
-2.97676
-3.36585
-3.29812
-3.30715
-3.37059
-2.99562
-3.17798
-2.53893
-2.77685
-2.06588
-2.29742
-1.67208
-1.85515
-1.39817
-1.51988
-1.2372
-1.30489
-1.16987
-1.19285
-1.18416
-1.16717
-1.2782
-1.22103
-1.45723
-1.35672
-1.72121
-1.5796
-2.03866
-1.87683
-2.3398
-2.19666
-2.53971
-2.45732
-2.57577
-2.57991
-2.43848
-2.52822
-2.31739
-2.2757
-2.02613
-2.16605
-2.39227
-2.35223
-2.35843
-2.39595
-2.28017
-2.45454
-2.05265
-2.26182
-2.7528
-2.6215
-2.86875
-2.83536
-2.74435
-2.83031
-2.45203
-2.61486
-2.07262
-2.26716
-1.69726
-1.8796
-1.38818
-1.53235
-1.16436
-1.26582
-1.01902
-1.08265
-0.941641
-0.972346
-0.925174
-0.926169
-0.966571
-0.93863
-1.06587
-1.00917
-1.2164
-1.13581
-1.39213
-1.30368
-1.54541
-1.47504
-1.62413
-1.5967
-1.60082
-1.62532
-1.49268
-1.55461
-1.34367
-1.42056
-1.1994
-1.26913
-1.08984
-1.13797
-1.20117
-1.06123
-2.17305
-2.01848
-1.86222
-1.83773
-1.97579
-1.7372
-1.76757
-1.75364
-1.52247
-1.54963
-1.45726
-1.60117
-1.33659
-1.18757
-1.05376
-2.12435
-1.61761
-1.35282
-1.48259
-2.01419
-1.79249
-2.52309
-2.26549
-2.93674
-2.75478
-3.1287
-3.06131
-3.07775
-3.13534
-2.79166
-2.95928
-2.37031
-2.59022
-1.92957
-2.14594
-1.55808
-1.73139
-1.29597
-1.41298
-1.13861
-1.2054
-1.06793
-1.09341
-1.07215
-1.06109
-1.14831
-1.10113
-1.29971
-1.21439
-1.52557
-1.40412
-1.79984
-1.65971
-2.06237
-1.93735
-2.23833
-2.16528
-2.27362
-2.27522
-2.16102
-2.23398
-1.94007
-2.06047
-1.67628
-1.80981
-1.85765
-1.54822
-1.71113
-2.07597
-1.98067
-2.1683
-2.13882
-2.12
-2.1618
-1.93536
-2.04457
-1.63838
-1.79676
-1.83792
-1.46783
-1.64867
-2.20255
-2.02773
-2.4712
-2.35448
-2.56737
-2.54375
-2.46896
-2.54171
-2.21052
-2.35532
-1.87048
-2.04514
-1.53121
-1.69648
-1.24811
-1.38059
-1.04084
-1.13506
-0.90342
-0.964187
-0.825083
-0.85738
-0.799157
-0.805868
-0.822706
-0.804841
-0.894278
-0.852708
-1.00734
-0.946552
-1.14123
-1.07368
-1.25933
-1.20489
-1.32174
-1.2995
-1.3076
-1.32424
-1.22904
-1.27457
-1.11814
-1.17515
-1.01005
-1.06238
-0.932835
-0.965074
-0.916164
-0.916156
-1.06714
-0.931709
-1.97986
-1.25464
-1.80825
-1.47476
-1.36839
-1.4553
-1.30205
-1.86387
-1.64431
-1.6496
-1.45841
-1.31258
-1.19641
-1.10021
-0.965645
-1.94585
-1.16593
-1.19391
-0.993533
-1.06494
-1.42704
-1.29427
-1.7941
-1.5887
-2.27645
-2.03313
-2.6641
-2.49246
-2.84782
-2.78363
-2.80212
-2.85407
-2.54725
-2.6965
-2.16833
-2.36679
-1.76662
-1.96446
-1.42375
-1.58428
-1.1782
-1.28831
-1.02767
-1.09211
-0.955909
-0.98287
-0.951525
-0.94571
-1.01098
-0.973264
-1.1359
-1.06511
-1.32514
-1.22313
-1.55712
-1.43837
-1.7813
-1.67421
-1.93339
-1.86987
-1.96697
-1.96644
-1.87559
-1.93537
-1.69281
-1.79324
-1.58486
-1.7089
-1.43147
-1.58098
-1.8975
-1.81592
-1.9686
-1.94925
-1.90789
-1.95395
-1.72916
-1.83342
-1.60002
-1.61749
-1.28944
-1.44994
-1.93922
-1.78359
-2.17672
-2.07365
-2.25353
-2.23948
-2.17968
-2.23942
-1.95615
-2.08219
-1.65705
-1.81104
-1.35605
-1.50304
-1.10128
-1.22111
-0.911234
-0.998018
-0.78275
-0.839979
-0.705767
-0.738385
-0.673284
-0.684242
-0.682202
-0.672709
-0.730392
-0.701621
-0.811751
-0.76768
-0.910224
-0.86036
-0.998561
-0.957615
-1.0472
-1.02933
-1.0406
-1.05084
-0.986249
-1.01821
-0.906689
-0.947886
-0.827135
-0.865359
-0.776605
-0.796297
-0.77604
-0.770302
-0.828282
-0.79507
-1.50012
-1.38093
-1.01792
-0.877362
-1.8227
-1.27255
-1.14044
-0.949153
-1.73732
-1.14861
-1.69232
-1.56549
-1.56832
-1.42533
-1.31694
-1.22838
-1.15505
-1.09123
-0.943263
-1.79931
-0.828974
-0.930603
-0.754703
-0.779129
-1.00905
-0.908362
-1.26271
-1.13071
-1.59389
-1.41385
-2.01471
-1.80169
-2.36406
-2.20754
-2.53359
-2.4741
-2.49625
-2.54049
-2.27623
-2.40537
-1.94381
-2.11867
-1.58559
-1.76268
-1.27536
-1.42118
-1.04972
-1.15138
-0.908459
-0.969412
-0.837467
-0.865032
-0.826232
-0.824785
-0.870667
-0.841563
-0.970972
-0.913776
-1.1257
-1.04205
-1.31763
-1.21912
-1.50518
-1.41527
-1.63432
-1.58011
-1.66557
-1.66338
-1.59276
-1.64102
-1.44458
-1.52517
-1.26701
-1.35608
-1.10806
-1.1835
-1.33564
-1.0443
-1.19297
-1.58262
-1.4682
-1.74289
-1.6747
-1.79439
-1.78364
-1.72465
-1.77396
-1.55106
-1.64978
-1.29703
-1.43057
-1.00754
-1.15346
-1.10811
-0.861315
-0.979198
-1.39692
-1.24917
-1.67481
-1.54034
-1.88154
-1.79157
-1.95346
-1.93715
-1.8897
-1.9402
-1.69866
-1.80665
-1.44028
-1.57366
-1.17756
-1.3062
-0.952421
-1.05883
-0.780686
-0.859666
-0.661454
-0.714979
-0.586884
-0.61912
-0.550135
-0.564079
-0.547634
-0.544768
-0.576829
-0.558505
-0.632329
-0.601872
-0.702051
-0.666516
-0.766285
-0.73626
-0.803846
-0.789469
-0.803095
-0.808342
-0.767842
-0.789053
-0.712768
-0.741627
-0.657084
-0.68353
-0.626155
-0.63701
-0.636365
-0.62601
-0.690425
-0.657882
-0.795646
-0.73593
-1.43401
-1.3348
-1.032
-0.874206
-1.70703
-1.64459
-0.741159
-0.926946
-1.12681
-1.61044
-1.51929
-0.938832
-0.888284
-0.892122
-0.759133
-1.50657
-1.42064
-1.34497
-1.28404
-1.23395
-1.18908
-0.743376
-0.573984
-0.575681
-1.14857
-0.974859
-0.76193
-1.69182
-0.608027
-0.581936
-0.693614
-0.642789
-0.861861
-0.768402
-1.09571
-0.972508
-1.3855
-1.23154
-1.73919
-1.55888
-2.04721
-1.90754
-2.20269
-2.14697
-2.17726
-2.2125
-1.99203
-2.10131
-1.70705
-1.85761
-1.39414
-1.54956
-1.11857
-1.24863
-0.914934
-1.00712
-0.784781
-0.841376
-0.716258
-0.74357
-0.699766
-0.701905
-0.731041
-0.709546
-0.809312
-0.764314
-0.932812
-0.865829
-1.08802
-1.00811
-1.24147
-1.16765
-1.34899
-1.30357
-1.37735
-1.37406
-1.3209
-1.35882
-1.2029
-1.26726
-1.06235
-1.13325
-0.997232
-1.26075
-0.992961
-1.13216
-1.47789
-1.37753
-1.61271
-1.55692
-1.64611
-1.64299
-1.57039
-1.62136
-1.40065
-1.49588
-1.16229
-1.28762
-1.02857
-0.93392
-0.72072
-0.822138
-1.18063
-1.05555
-1.41901
-1.30397
-1.5957
-1.51853
-1.66145
-1.6445
-1.60747
-1.64994
-1.4467
-1.5378
-1.2271
-1.34072
-1.00125
-1.11219
-0.805185
-0.898207
-0.652675
-0.723315
-0.543501
-0.592969
-0.472139
-0.503514
-0.432765
-0.448751
-0.421575
-0.423827
-0.435758
-0.425716
-0.470807
-0.451107
-0.517924
-0.493633
-0.56329
-0.541806
-0.592093
-0.580531
-0.595519
-0.597125
-0.574432
-0.587658
-0.53744
-0.557155
-0.500132
-0.517427
-0.484401
-0.488488
-0.501718
-0.488728
-0.555122
-0.523764
-0.650274
-0.596679
-0.804778
-0.719518
-0.937822
-1.10148
-1.29341
-1.25991
-1.0465
-0.912761
-1.40149
-1.29784
-1.63089
-1.58575
-0.84995
-0.630758
-1.12239
-1.56195
-1.503
-1.47516
-1.44194
-1.39809
-1.36587
-1.34121
-1.31907
-0.588162
-0.411521
-0.425789
-0.84439
-0.978247
-1.21081
-0.61841
-0.791013
-0.967628
-1.47694
-1.45
-1.62371
-0.422613
-0.410859
-0.47232
-0.442221
-0.556942
-0.510082
-0.70026
-0.620777
-0.905484
-0.795644
-1.16175
-1.02721
-1.46371
-1.30979
-1.73091
-1.60884
-1.87251
-1.82035
-1.8575
-1.88456
-1.70592
-1.7957
-1.46806
-1.59449
-1.19994
-1.33394
-0.959053
-1.07323
-0.778217
-0.860444
-0.660303
-0.711951
-0.595482
-0.62192
-0.575239
-0.580144
-0.595443
-0.580437
-0.654519
-0.620188
-0.750469
-0.69822
-0.872913
-0.809653
-0.995587
-0.936371
-1.08327
-1.04593
-1.10831
-1.10447
-1.06577
-1.09477
-0.974128
-1.02424
-0.865177
-0.919596
-0.76939
-0.814059
-0.70494
-0.731581
-0.958284
-0.689899
-0.824369
-1.20529
-1.08694
-1.39602
-1.30912
-1.50747
-1.46291
-1.52393
-1.52806
-1.4425
-1.49493
-1.27616
-1.36862
-1.04874
-1.16838
-0.796383
-0.923052
-0.551708
-0.672087
-0.586621
-0.440511
-0.509812
-0.770629
-0.674058
-0.976665
-0.871975
-1.17727
-1.08033
-1.32652
-1.26114
-1.38466
-1.3686
-1.34022
-1.37532
-1.20696
-1.28258
-1.02322
-1.11856
-0.831815
-0.926149
-0.663106
-0.743475
-0.529542
-0.591767
-0.431233
-0.476199
-0.364081
-0.394073
-0.323497
-0.340735
-0.305899
-0.312007
-0.308508
-0.304867
-0.327784
-0.316373
-0.357598
-0.3419
-0.388593
-0.373614
-0.410542
-0.401241
-0.416749
-0.415856
-0.405583
-0.41317
-0.381886
-0.394739
-0.358624
-0.369007
-0.353501
-0.352987
-0.374818
-0.360735
-0.424848
-0.396021
-0.509654
-0.462266
-0.64098
-0.568823
-0.731574
-1.38437
-1.28358
-1.3963
-1.13194
-1.58717
-1.56025
-1.13303
-1.53838
-1.51642
-0.5623
-0.554652
-0.486952
-0.380658
-1.47144
-1.49075
-1.47995
-1.47825
-1.4826
-1.48422
-0.448322
-0.261115
-0.282388
-0.483177
-0.659171
-0.832777
-1.00899
-1.70085
-1.67728
-1.30553
-1.60604
-1.58901
-0.2505
-0.249486
-0.281264
-0.26226
-0.332707
-0.303727
-0.411226
-0.368273
-0.535107
-0.466408
-0.716713
-0.618715
-0.945165
-0.826057
-1.20213
-1.07262
-1.4275
-1.32361
-1.5538
-1.50606
-1.54834
-1.56742
-1.42972
-1.50071
-1.23531
-1.33964
-1.00873
-1.1227
-0.801245
-0.899965
-0.64322
-0.715391
-0.538059
-0.584466
-0.477824
-0.502885
-0.455209
-0.462135
-0.466319
-0.456711
-0.509168
-0.483879
-0.58158
-0.541955
-0.675614
-0.626844
-0.771264
-0.724914
-0.841034
-0.811066
-0.862454
-0.858514
-0.831172
-0.852861
-0.761551
-0.799719
-0.678505
-0.720095
-0.606504
-0.640357
-0.579815
-0.939682
-0.685717
-0.815061
-1.1672
-1.0586
-1.33647
-1.26051
-1.42707
-1.39259
-1.42748
-1.43877
-1.33896
-1.39368
-1.17492
-1.26516
-0.957488
-1.07129
-0.717868
-0.837994
-0.599712
-0.463076
-0.337216
-0.396506
-0.618121
-0.537608
-0.788848
-0.702236
-0.954763
-0.874486
-1.07895
-1.02438
-1.12892
-1.11453
-1.09356
-1.12184
-0.984499
-1.0465
-0.83288
-0.911763
-0.672801
-0.751997
-0.529242
-0.597967
-0.413339
-0.467634
-0.325923
-0.366242
-0.263793
-0.291937
-0.223296
-0.241063
-0.201315
-0.210162
-0.19535
-0.196481
-0.202821
-0.197612
-0.219749
-0.21044
-0.240075
-0.229928
-0.256765
-0.249277
-0.264358
-0.261997
-0.259572
-0.263511
-0.245012
-0.253031
-0.232073
-0.237333
-0.23461
-0.230877
-0.257729
-0.243541
-0.303423
-0.277489
-0.37742
-0.33642
-0.4883
-0.427485
-0.654181
-0.563047
-0.884266
-0.761721
-1.48446
-1.17253
-1.0239
-1.39304
-1.28958
-1.5751
-1.56484
-0.556434
-0.284162
-1.1631
-1.54481
-1.55943
-1.49381
-1.57014
-1.59481
-1.62747
-1.66367
-1.69074
-0.305244
-0.11588
-0.128714
-0.884667
-0.999516
-1.30784
-0.333037
-0.522009
-0.704657
-0.890936
-1.06433
-1.96495
-1.92717
-1.82199
-1.64386
-1.58499
-0.097654
-0.105092
-0.10629
-0.0970708
-0.14536
-0.123685
-0.19772
-0.169113
-0.274182
-0.23246
-0.387805
-0.325605
-0.54712
-0.461652
-0.744691
-0.642317
-0.957144
-0.851099
-1.14525
-1.05746
-1.25635
-1.21331
-1.26013
-1.27152
-1.17073
-1.22535
-1.01432
-1.09917
-0.825554
-0.921105
-0.649329
-0.733503
-0.513103
-0.575595
-0.42059
-0.46171
-0.365503
-0.388838
-0.34162
-0.349938
-0.345517
-0.340252
-0.375023
-0.357199
-0.427838
-0.398744
-0.497915
-0.461412
-0.570466
-0.535151
-0.624394
-0.601065
-0.64202
-0.638352
-0.619476
-0.635378
-0.567709
-0.596144
-0.5061
-0.536909
-0.454311
-0.477811
-0.425869
-0.436942
-0.431414
-0.423829
-0.695199
-0.446803
-0.569067
-0.937367
-0.819217
-1.14699
-1.04806
-1.29806
-1.23125
-1.37057
-1.34496
-1.35585
-1.37413
-1.25864
-1.31672
-1.09461
-1.18369
-0.885361
-0.994245
-0.656214
-0.771471
-0.43285
-0.541661
-0.239921
-0.332048
-0.242043
-0.156829
-0.196811
-0.350435
-0.293475
-0.479284
-0.413079
-0.619104
-0.548304
-0.754465
-0.688984
-0.856283
-0.811437
-0.898271
-0.885846
-0.870593
-0.892967
-0.782677
-0.832851
-0.658894
-0.723461
-0.526541
-0.592298
-0.40565
-0.46383
-0.305843
-0.352889
-0.22867
-0.264541
-0.171846
-0.197906
-0.132405
-0.150134
-0.107732
-0.118372
-0.0957511
-0.100267
-0.0947407
-0.093995
-0.102399
-0.0976846
-0.115029
-0.108382
-0.127675
-0.121676
-0.135543
-0.132549
-0.134471
-0.136201
-0.126216
-0.130791
-0.120724
-0.122324
-0.12821
-0.122532
-0.151466
-0.137838
-0.19217
-0.169408
-0.25492
-0.220437
-0.346988
-0.296622
-0.479599
-0.407623
-0.657866
-0.562948
-0.766926
-1.42515
-1.31457
-1.40399
-1.08521
-1.59169
-1.59991
-1.21181
-1.58108
-1.63428
-0.310837
-0.327986
-0.204069
-0.124368
-1.54474
-1.68427
-1.74888
-1.81995
-1.88981
-1.94382
-0.143577
0.0414815
0.0312701
-0.158439
-0.358958
-0.560581
-0.760146
-0.957773
-1.13956
-2.25702
-2.18295
-2.01465
-1.76283
-1.12137
-1.44734
-1.61164
0.0464125
0.045803
0.0398894
0.0437607
0.0200437
0.0336836
-0.0235948
0.000184735
-0.0801252
-0.0499017
-0.156191
-0.115438
-0.258267
-0.203564
-0.39346
-0.321319
-0.558609
-0.473503
-0.733559
-0.646067
-0.890873
-0.817224
-0.986582
-0.948585
-0.998492
-1.00302
-0.934074
-0.974779
-0.810055
-0.878255
-0.654176
-0.733589
-0.506038
-0.577025
-0.390059
-0.443475
-0.309746
-0.3457
-0.260108
-0.281476
-0.235952
-0.245087
-0.234299
-0.232447
-0.25309
-0.241279
-0.289989
-0.269468
-0.340395
-0.314
-0.393649
-0.367598
-0.433954
-0.416418
-0.447763
-0.444661
-0.431724
-0.443194
-0.394046
-0.41474
-0.349777
-0.371728
-0.314609
-0.330133
-0.298266
-0.304035
-0.300924
-0.718075
-0.471151
-0.595243
-0.950658
-0.83741
-1.14509
-1.05388
-1.28015
-1.22143
-1.33665
-1.31895
-1.30777
-1.33276
-1.20067
-1.26301
-1.03334
-1.12311
-0.828292
-0.934208
-0.607163
-0.718467
-0.390885
-0.496504
-0.293176
-0.157033
-0.0833896
-0.117733
-0.249322
-0.20084
-0.355079
-0.300779
-0.46863
-0.411362
-0.577592
-0.524911
-0.659832
-0.623518
-0.694389
-0.68399
-0.672916
-0.690476
-0.602933
-0.643027
-0.502853
-0.555238
-0.394333
-0.448465
-0.293393
-0.342229
-0.208104
-0.248577
-0.140353
-0.172093
-0.0887489
-0.112679
-0.050953
-0.0682712
-0.0248449
-0.0365584
-0.00886467
-0.0156625
-0.00204227
-0.00436337
-0.00330758
-0.00176593
-0.0105486
-0.00637352
-0.0200052
-0.0153055
-0.0272646
-0.0242962
-0.0280693
-0.0285471
-0.0240348
-0.0262283
-0.0237953
-0.0228388
-0.0341973
-0.0275325
-0.0564066
-0.0437876
-0.0921157
-0.072383
-0.14461
-0.116033
-0.219085
-0.178632
-0.322583
-0.266899
-0.458724
-0.386381
-0.62781
-0.540209
-0.787971
-0.717056
-1.10881
-0.824143
-0.82693
-1.4834
-1.36284
-1.63921
-1.66733
-0.353315
-0.0526273
-1.28128
-1.6491
-1.74492
-1.62609
-1.8393
-1.94908
-2.06258
-2.16774
-2.2421
0.0244836
0.185007
0.182144
-0.570286
-0.543413
-0.777221
0.0173504
-0.171125
-0.381081
-0.599151
-0.816331
-1.03219
-1.23042
-2.55471
-2.4159
-2.16256
-1.82263
-1.43775
-1.04742
-1.67015
0.187765
0.188577
0.177635
0.18494
0.156057
0.166931
0.126328
0.143672
0.0787987
0.104303
0.020212
0.0508224
-0.0507101
-0.0135319
-0.139364
-0.0922974
-0.253704
-0.193023
-0.39086
-0.320302
-0.536424
-0.463659
-0.665922
-0.605296
-0.748809
-0.7147
-0.767078
-0.766318
-0.72231
-0.751996
-0.624423
-0.679081
-0.496478
-0.561968
-0.373381
-0.432507
-0.275901
-0.320982
-0.207005
-0.238077
-0.162815
-0.182128
-0.139094
-0.148602
-0.133303
-0.134067
-0.143704
-0.136613
-0.168023
-0.154297
-0.202686
-0.18441
-0.240194
-0.221751
-0.269079
-0.256454
-0.279216
-0.276866
-0.267803
-0.276003
-0.240928
-0.255643
-0.21017
-0.225233
-0.187567
-0.197213
-0.181396
-0.182127
-0.198343
-0.186429
-0.2438
-0.217058
-0.508594
-0.279537
-0.390821
-0.753055
-0.631079
-0.977935
-0.869726
-1.16137
-1.07599
-1.28249
-1.23099
-1.32428
-1.3139
-1.28183
-1.31336
-1.16388
-1.23122
-0.990061
-1.0824
-0.784648
-0.889914
-0.568729
-0.676893
-0.359715
-0.462112
-0.17584
-0.263441
-0.0280943
-0.0974661
-0.0167018
0.0323031
0.00981493
-0.0812626
-0.0472042
-0.158987
-0.118659
-0.245936
-0.201596
-0.337392
-0.291533
-0.42403
-0.382223
-0.489407
-0.460514
-0.517219
-0.508732
-0.500863
-0.514536
-0.445411
-0.477247
-0.365177
-0.407333
-0.276707
-0.321017
-0.192886
-0.233659
-0.120427
-0.155038
-0.0612621
-0.0891991
-0.0146443
-0.0364885
0.0211614
0.00449595
0.0477849
0.0355345
0.0662345
0.0579958
0.076825
0.072506
0.0797757
0.0792149
0.0762082
0.0786746
0.0693212
0.072846
0.0632728
0.0658542
0.0618084
0.061895
0.0629784
0.062493
0.0596508
0.0622663
0.0479098
0.054858
0.0274918
0.0388265
-0.00303565
0.0136354
-0.0461195
-0.0228381
-0.10511
-0.0733704
-0.183875
-0.141827
-0.285542
-0.23168
-0.4076
-0.344897
-0.5227
-0.469556
-0.560825
-1.57145
-1.43717
-0.692962
-0.48039
-1.7206
-1.7707
-1.37166
-1.75218
-1.89686
-0.141229
-0.17319
-0.00832003
0.0507594
-1.74143
-2.04203
-2.2028
-2.36119
-2.49625
-2.57339
0.181392
0.311738
0.310465
0.180478
0.0149
-0.178578
-0.398966
-0.635024
-0.872134
-1.11184
-1.33215
-2.82808
-2.59805
-2.24672
-1.82022
-1.37428
-0.950714
-0.392456
-0.585416
-1.76388
0.311469
0.313301
0.299835
0.306134
0.282251
0.292981
0.252539
0.267755
0.215812
0.235735
0.167095
0.192696
0.110773
0.139755
0.0461476
0.0797583
-0.0326512
0.00896884
-0.130497
-0.0791674
-0.244828
-0.186059
-0.364864
-0.305205
-0.471584
-0.421178
-0.543712
-0.513296
-0.565571
-0.561173
-0.535944
-0.557108
-0.458481
-0.502442
-0.353776
-0.407498
-0.252457
-0.301191
-0.171456
-0.209063
-0.113025
-0.139575
-0.0741442
-0.0913793
-0.0514426
-0.0609423
-0.0427827
-0.0454503
-0.0467484
-0.0432941
-0.061371
-0.0528855
-0.0837492
-0.071837
-0.108728
-0.0963692
-0.128266
-0.119717
-0.134998
-0.133494
-0.126715
-0.1326
-0.107853
-0.11811
-0.0872279
-0.0971568
-0.074098
-0.0792577
-0.0753658
-0.0726983
-0.0958525
-0.082825
-0.115153
-0.558482
-0.322217
-0.439493
-0.800381
-0.679529
-1.02006
-0.914594
-1.19588
-1.1149
-1.30504
-1.25993
-1.33281
-1.32954
-1.27672
-1.31491
-1.14696
-1.21992
-0.964183
-1.06057
-0.754338
-0.861115
-0.539853
-0.646555
-0.335825
-0.435806
-0.154576
-0.241379
-0.076631
0.041377
0.0848316
0.0646965
-0.0142504
0.0147676
-0.0796776
-0.0459655
-0.151287
-0.115055
-0.224557
-0.188062
-0.292689
-0.259901
-0.343845
-0.321246
-0.365594
-0.358923
-0.353206
-0.363799
-0.309421
-0.334606
-0.245356
-0.27912
-0.173524
-0.209663
-0.104098
-0.138063
-0.0426995
-0.0722154
0.00882102
-0.0156961
0.050796
0.0309314
0.0844319
0.0685725
0.110872
0.0984983
0.130606
0.121575
0.143418
0.137904
0.148993
0.147104
0.147925
0.149187
0.142698
0.145619
0.138624
0.14051
0.137263
0.137578
0.136381
0.137124
0.130786
0.134377
0.118851
0.125583
0.100618
0.110575
0.0748981
0.088781
0.0401729
0.0587772
-0.00562336
0.0187821
-0.06421
-0.0332308
-0.13722
-0.0988308
-0.222266
-0.178906
-0.300546
-0.264119
-0.338473
-0.327435
-0.292223
-0.329354
-0.293672
-0.153006
-0.229879
-1.69272
-1.53948
-1.8393
-1.91504
-0.212642
0.101526
-1.4842
-1.89431
-2.09705
-1.89459
-2.30017
-2.51558
-2.71452
-2.8628
-2.91336
0.305171
0.401399
0.392408
0.295249
0.179745
0.0196177
-0.18034
-0.410549
-0.664948
-0.928361
-1.19471
-1.44345
-3.04482
-2.70743
-2.25968
-1.76363
-1.2729
-0.83297
-0.467846
-0.0241838
-0.0681669
0.0394327
-1.89765
0.412504
0.409698
0.405987
0.410281
0.388711
0.398132
0.366678
0.379081
0.333486
0.350991
0.293414
0.314385
0.245762
0.270461
0.192094
0.219647
0.13125
0.162764
0.059914
0.0970715
-0.0237489
0.019666
-0.119093
-0.0702455
-0.218038
-0.168908
-0.306872
-0.264729
-0.369118
-0.342215
-0.393614
-0.386502
-0.374093
-0.389645
-0.311531
-0.34736
-0.226161
-0.269898
-0.143789
-0.183434
-0.0773266
-0.108319
-0.0282884
-0.0507492
0.00559469
-0.00962966
0.0269153
0.0176854
0.0374273
0.0334474
0.0382541
0.0389702
0.0309617
0.0354912
0.0178878
0.0249652
0.00262
0.0102278
-0.00942165
-0.0041803
-0.0131365
-0.0124628
-0.00685413
-0.0111654
0.00625095
-0.000784279
0.0194906
0.0133121
0.0256604
0.0238489
0.018998
0.0242117
-0.00359717
0.00975868
-0.0471324
-0.022758
-0.114813
-0.0769536
-0.375065
-0.158671
-0.261985
-0.617431
-0.49496
-0.859993
-0.74019
-1.07806
-0.973432
-1.24883
-1.17109
-1.34783
-1.30835
-1.36206
-1.36584
-1.29157
-1.33689
-1.14873
-1.22799
-0.955091
-1.0566
-0.737463
-0.847631
-0.520045
-0.627521
-0.317894
-0.416526
-0.139298
-0.225141
0.00619224
-0.0618267
0.115451
0.0647447
0.130159
0.158163
0.145331
0.0917129
0.112166
0.044299
0.0691061
-0.0109042
0.0174181
-0.070002
-0.0402533
-0.128633
-0.0996442
-0.18175
-0.156297
-0.22121
-0.2038
-0.23753
-0.232724
-0.227979
-0.236211
-0.193511
-0.213407
-0.142307
-0.169354
-0.0840592
-0.113515
-0.026576
-0.0548598
0.0254685
0.000286983
0.070363
0.048835
0.108141
0.0900949
0.139566
0.124593
0.165311
0.153126
0.185415
0.176093
0.199282
0.193174
0.206334
0.203665
0.207088
0.20739
0.204036
0.205809
0.201292
0.202461
0.200116
0.200607
0.197693
0.199324
0.190862
0.194886
0.179516
0.185717
0.163668
0.172204
0.142474
0.153788
0.115071
0.129614
0.0803463
0.098684
0.0376061
0.0599918
-0.0131563
0.0131799
-0.0691806
-0.0409618
-0.119024
-0.095987
-0.141536
-0.135266
-0.112212
-0.134873
-0.074891
-1.85047
-1.67221
-0.1925
-2.00084
-2.10689
-1.61677
-2.07994
-2.35295
-0.0257486
-0.0641902
0.125633
0.168149
-2.0886
-2.61911
-2.8863
-3.11029
-3.2414
-3.22791
0.378369
0.445391
0.428046
0.0201497
0.110475
0.362366
0.290017
0.176843
0.0254834
-0.173549
-0.412788
-0.685766
-0.975856
-1.27344
-1.55786
-3.18131
-2.73585
-2.20518
-1.65646
-1.14474
-0.706461
-0.358215
-2.07694
0.47252
0.460276
0.483934
0.480496
0.476763
0.481536
0.459671
0.469387
0.435132
0.448431
0.401221
0.419232
0.36043
0.381562
0.313708
0.337799
0.261575
0.288288
0.203972
0.233492
0.140066
0.172892
0.0681165
0.10523
-0.0121282
0.0287782
-0.0943891
-0.0535788
-0.168577
-0.133203
-0.223088
-0.198979
-0.247694
-0.239744
-0.23354
-0.245769
-0.182484
-0.211726
-0.113584
-0.148764
-0.0474753
-0.0793211
0.00647256
-0.0188107
0.0472692
0.028427
0.0765496
0.0632217
0.0962418
0.0874816
0.10779
0.102971
0.112044
0.110774
0.110168
0.111767
0.103974
0.107477
0.0959833
0.100006
0.0897803
0.0924033
0.0886526
0.0886475
0.0937274
0.0904448
0.102819
0.0980504
0.11081
0.107304
0.112071
0.112599
0.102005
0.108671
0.077627
0.0917442
0.0358757
0.058554
0.00786657
-0.436817
-0.207588
-0.319176
-0.685321
-0.559382
-0.931848
-0.810263
-1.15216
-1.04679
-1.32013
-1.24455
-1.41064
-1.37607
-1.41179
-1.42256
-1.32593
-1.37904
-1.16819
-1.2547
-0.961842
-1.06942
-0.73384
-0.848871
-0.50953
-0.619884
-0.305719
-0.404505
-0.128821
-0.213723
0.016027
-0.0517212
0.0754852
0.168889
0.194085
0.182569
0.135486
0.153034
0.0949556
0.116121
0.0483366
0.0722074
-0.000661016
0.023857
-0.0477576
-0.0246935
-0.0889851
-0.0693797
-0.119034
-0.105817
-0.130448
-0.127626
-0.123138
-0.129684
-0.095696
-0.111548
-0.0546226
-0.076392
-0.00723594
-0.0313159
0.0404724
0.0168758
0.0847413
0.0631798
0.123991
0.105022
0.158051
0.141646
0.187305
0.173253
0.211992
0.200222
0.231787
0.222544
0.245865
0.239593
0.253611
0.250528
0.255715
0.255244
0.254506
0.255354
0.253147
0.253699
0.251954
0.252672
0.248393
0.250619
0.241198
0.24522
0.230912
0.236424
0.21742
0.224599
0.200279
0.209325
0.179112
0.190227
0.153529
0.166886
0.123426
0.139029
0.0894653
0.10682
0.054667
0.0718265
0.0261367
0.0390126
0.0159933
0.0177454
0.0415181
0.0233963
0.10375
0.0702246
0.194973
0.145073
0.293574
0.179112
0.247004
-2.04692
-1.83568
-0.0952452
-2.21033
-2.35307
-0.107361
0.203435
-1.76559
0.101148
-2.313
-2.66981
0.240273
-2.32404
-2.99798
-3.30276
-3.52146
-3.59475
-3.4812
0.406365
0.342216
0.279874
0.176326
0.0323974
-0.161117
-0.404878
-0.692267
-1.00873
-1.33986
-1.66573
-3.22744
-2.68471
-2.08985
-1.51075
-0.998844
-0.578181
-0.251997
-2.30831
0.457606
0.381458
0.406427
0.434003
0.493606
0.476768
0.520576
0.508158
0.534248
0.529249
0.53122
0.534643
0.515573
0.524802
0.490422
0.504022
0.456782
0.474611
0.416322
0.437274
0.370489
0.394028
0.320311
0.345865
0.266729
0.293919
0.209384
0.238637
0.146374
0.178668
0.0781349
0.112691
0.00920198
0.0433807
-0.05368
-0.0234891
-0.101421
-0.0800974
-0.123971
-0.116524
-0.112419
-0.122677
-0.0702366
-0.094208
-0.0151041
-0.0430847
0.0372301
0.0120035
0.0804522
0.0600841
0.114022
0.0983796
0.139086
0.12753
0.157008
0.148853
0.168943
0.163669
0.175545
0.172878
0.177549
0.177046
0.176319
0.177237
0.173623
0.175028
0.171663
0.172386
0.172642
0.171838
0.177142
0.174482
0.183504
0.180298
0.187857
0.186202
0.185802
0.187874
0.173615
0.181134
0.14852
0.162773
0.108635
0.130419
0.0532352
0.0827085
-0.0197254
0.0191827
-0.262385
-0.0624328
-0.156505
-0.503406
-0.379473