/*--------------------------------*- C++ -*----------------------------------*\
  =========                 |
  \\      /  F ield         | OpenFOAM: The Open Source CFD Toolbox
   \\    /   O peration     | Website:  https://openfoam.org
    \\  /    A nd           | Version:  10
     \\/     M anipulation  |
\*---------------------------------------------------------------------------*/
FoamFile
{
    format      ascii;
    class       volVectorField;
    location    "22.5";
    object      U;
}
// * * * * * * * * * * * * * * * * * * * * * * * * * * * * * * * * * * * * * //

dimensions      [0 1 -1 0 0 0 0];

internalField   nonuniform List<vector> 
28942
(
(-0.508557 0.344917 -7.03916e-19)
(-0.486664 0.416051 -1.47131e-19)
(1.5626 -1.11208 -3.16176e-20)
(2.53044 0.0482075 -8.4484e-19)
(2.49257 0.0777583 2.80875e-19)
(1.1379 0.0589465 0)
(1.32995 0.0834275 -5.14066e-21)
(1.48473 0.0527998 5.75014e-21)
(2.92067 -0.321222 -7.24644e-20)
(2.89976 -0.292094 2.00525e-19)
(-0.288967 -0.136314 -6.11091e-19)
(-0.369023 -0.0914323 3.12559e-19)
(-0.152577 0.269352 0)
(-0.0474192 0.245702 0)
(2.53184 -0.114302 7.94518e-23)
(2.56652 -0.113948 -2.09861e-23)
(2.37866 0.392747 1.46574e-19)
(2.34252 0.350891 2.41671e-19)
(0.961124 -1.47964 9.56186e-19)
(1.52058 -1.6373 -2.74161e-19)
(2.61276 0.672792 1.40571e-19)
(2.62335 0.663171 0)
(-0.284809 0.495365 4.55382e-19)
(-0.239174 0.257001 2.53102e-19)
(2.08717 -0.80574 5.06148e-19)
(2.81708 -0.996926 -4.57795e-19)
(0.745597 -1.03339 2.95013e-18)
(0.750956 -0.787196 -1.14409e-18)
(1.93534 -1.40385 1.79848e-19)
(1.4198 -0.966004 6.01306e-20)
(1.13689 -0.0448728 0)
(1.54636 -0.077636 7.16831e-21)
(1.91697 -0.120068 2.35015e-20)
(2.26298 -0.102167 6.16951e-21)
(1.59234 2.17178 -3.43974e-19)
(1.14324 2.34267 5.06826e-19)
(1.78492 2.1132 -3.63546e-19)
(1.3668 2.15042 -2.07683e-19)
(0.513366 0.0500735 6.01528e-21)
(0.633213 2.17261 3.36721e-20)
(2.0376 -0.0244486 0)
(2.35919 -0.0748815 0)
(2.9582 0.704125 -5.87232e-21)
(2.96954 0.740762 1.25611e-20)
(3.0882 0.649653 1.54411e-20)
(1.9036 0.0674806 -3.22227e-21)
(1.87099 0.0855208 5.49442e-21)
(2.27034 0.0792635 1.98765e-20)
(2.21343 0.080443 -5.43623e-21)
(1.97461 0.0795351 1.71319e-20)
(1.83093 0.0954373 -9.77733e-21)
(2.79379 -0.00300698 -1.06304e-19)
(2.78995 -0.0195664 -9.53305e-20)
(2.90695 -0.352424 -5.88562e-22)
(2.88258 -0.322957 3.90736e-20)
(3.22812 -0.653068 4.30933e-19)
(3.68693 -0.757874 1.87043e-19)
(0.162719 0.332244 -3.45178e-19)
(-0.180655 0.25808 0)
(-0.0972174 0.274457 1.1316e-19)
(0.153548 0.313736 3.05335e-19)
(0.213856 0.240371 -2.45161e-19)
(0.256839 0.266846 -2.84433e-19)
(3.03995 -1.25506 0)
(3.47403 -1.20881 1.83063e-20)
(3.09158 -1.01482 -5.68526e-22)
(3.00756 -0.922967 0)
(2.26797 -0.376369 -1.80361e-19)
(2.32358 -0.419349 -1.21239e-19)
(-0.290736 0.195796 2.31128e-18)
(-0.383905 0.203462 -7.24109e-19)
(-0.504322 0.335144 1.79767e-18)
(2.27272 -0.519767 0)
(2.26739 -0.470491 6.50054e-19)
(2.10536 -0.783356 1.86206e-19)
(4.05422 0.338698 6.47629e-19)
(4.07902 0.14954 -7.22038e-19)
(3.853 0.0697722 -4.76423e-19)
(0.505023 -0.275834 -4.75959e-21)
(0.764015 -0.459653 -1.58213e-20)
(2.47199 -1.59267 3.60979e-20)
(2.20057 -1.48192 3.97654e-20)
(-0.7505 0.251674 3.71662e-18)
(-0.832214 0.226922 -1.43786e-18)
(3.64607 1.47114 -1.32458e-19)
(3.07148 1.1828 2.24523e-19)
(3.05881 1.83774 -2.6965e-19)
(3.00984 1.9549 9.37246e-19)
(2.98115 2.02648 -6.20501e-19)
(2.5781 1.82292 6.37342e-20)
(2.58527 1.96624 1.80898e-19)
(2.6207 2.07961 -2.27466e-19)
(-0.412023 0.517866 -1.34597e-19)
(-0.798352 0.192174 -2.82028e-20)
(-0.0811534 0.369464 5.67642e-20)
(0.0499707 0.715606 -1.02001e-18)
(-0.218381 1.03711 1.29993e-18)
(1.33958 1.47807 9.79979e-19)
(1.58178 1.71984 -2.73698e-19)
(-0.670544 -0.149882 0)
(2.51613 -0.00128241 0)
(2.43005 0.077516 -5.71405e-19)
(2.40149 0.176916 4.75993e-19)
(2.6085 0.148806 0)
(3.06277 -0.391289 0)
(3.02946 -0.416234 0)
(3.07591 -0.451246 4.75988e-19)
(2.79147 0.367714 -6.63258e-21)
(2.78602 0.40932 8.9643e-20)
(2.7664 0.353748 5.09896e-20)
(0.214609 0.369964 7.8643e-19)
(0.290182 0.409594 -8.84425e-19)
(0.400034 0.192337 -1.24124e-18)
(0.489661 0.00869345 1.18965e-18)
(-0.298499 0.396706 2.39185e-18)
(0.553398 1.02689 4.25838e-19)
(1.066 0.820008 1.07578e-18)
(0.888786 1.60722 1.12464e-19)
(0.419975 1.5423 -2.36981e-18)
(3.62574 1.11269 -2.15713e-20)
(3.22889 1.16903 -2.28445e-19)
(3.21432 1.02874 3.79216e-19)
(2.23225 -1.67497 1.86928e-19)
(1.63825 -1.19878 -1.30922e-19)
(0.665947 0.347629 -1.43706e-18)
(0.665909 0.168212 0)
(1.03625 0.18545 7.7011e-19)
(1.50243 -1.15156 1.83349e-19)
(1.86492 -1.5224 -5.01758e-19)
(2.19311 0.0737247 -1.75792e-20)
(2.2672 0.0711143 7.24403e-21)
(2.05685 0.0671115 5.04704e-22)
(1.19341 -1.56265 0)
(1.30007 -1.06758 0)
(2.57126 -0.166118 -4.90614e-20)
(2.52824 -0.15738 2.68421e-19)
(2.53152 -0.0458459 0)
(1.9423 -1.57152 0)
(1.98911 -1.28985 -2.79607e-19)
(2.53268 2.15602 1.44624e-19)
(0.51574 0.768188 7.74091e-19)
(0.483757 0.60479 -6.23654e-19)
(1.69815 -1.51028 -2.16394e-19)
(3.11047 0.564154 1.10657e-19)
(3.17792 0.547876 -1.77877e-20)
(3.52326 -0.558556 -3.43594e-20)
(3.58902 -0.531922 4.62244e-20)
(3.58057 -0.487267 1.28505e-19)
(0.445684 0.531046 2.42667e-19)
(2.88797 2.11045 -2.56764e-19)
(2.90828 1.85704 4.39486e-20)
(3.53654 2.25795 2.42089e-21)
(1.69461 -0.0579916 -1.10636e-21)
(1.68881 -0.0581832 -1.56847e-20)
(1.90716 -0.0650885 -9.50557e-22)
(1.92044 -0.0837586 3.63968e-21)
(2.44993 2.0345 1.39255e-19)
(1.52603 1.86726 0)
(-0.299723 1.74241 1.43765e-18)
(-0.589757 1.24616 -1.62663e-18)
(-0.891091 1.55024 1.20474e-18)
(3.08301 0.375349 -2.74127e-18)
(4.29584 0.722482 -1.34851e-18)
(2.15036 -0.0895727 1.61522e-21)
(3.20225 -1.51338 6.75702e-20)
(3.12403 -1.4934 1.2138e-19)
(2.60144 0.757509 3.2952e-19)
(2.47447 0.874347 4.4948e-20)
(2.43177 0.577106 2.31236e-19)
(2.48503 0.59385 -1.6606e-19)
(2.65227 0.743922 0)
(2.6817 -0.058846 -7.55608e-21)
(2.67851 -0.0697299 -1.50155e-20)
(2.81367 -0.205385 -7.91118e-20)
(2.83963 -0.216689 1.38147e-19)
(2.80223 0.309021 2.55607e-22)
(2.83904 0.316569 6.25773e-21)
(2.81368 0.340449 0)
(2.7795 0.327261 4.86774e-21)
(2.82047 0.380552 0)
(2.87004 0.523143 -5.82692e-21)
(2.86549 0.593869 -1.0919e-20)
(2.84145 0.690574 -2.68608e-20)
(2.85821 0.659244 0)
(2.94326 0.647968 8.04073e-22)
(2.89982 0.719369 1.7926e-20)
(2.81222 0.759629 -2.63488e-20)
(2.69307 0.9386 -1.12728e-19)
(2.6738 0.795134 -2.61213e-20)
(2.39179 -1.73164 7.12584e-19)
(2.87908 -1.90319 -3.05232e-19)
(-0.23922 0.681573 -1.74369e-18)
(1.99914 0.0712383 1.64608e-20)
(2.35606 0.0757736 0)
(-0.0188696 0.167938 1.86674e-18)
(-0.0340827 0.0328781 8.42343e-19)
(2.24759 0.0888005 -2.77513e-21)
(2.43748 0.0918061 -7.09643e-22)
(2.44031 0.0893854 0)
(2.22577 0.0859129 -1.54071e-21)
(2.55097 -2.10119 1.10288e-19)
(2.49066 -2.1506 -6.03634e-19)
(2.54654 -2.07849 -2.96441e-19)
(0.391883 0.500742 3.76362e-19)
(0.321516 0.314766 -4.67216e-19)
(0.374475 0.389518 4.78943e-19)
(0.09862 0.244309 0)
(0.0616626 0.0861439 4.52119e-19)
(0.110029 0.155645 -4.19432e-19)
(-0.294858 0.0974957 -3.91587e-19)
(-0.324776 -0.10752 -3.81523e-19)
(-0.175081 -0.047569 0)
(0.17357 1.25079 0)
(0.0859783 0.831182 0)
(-0.00321742 0.525778 0)
(2.99201 -0.395974 -5.99239e-20)
(2.94522 -0.36531 0)
(2.95723 -0.395725 6.16616e-20)
(2.31211 -0.0719568 1.18446e-18)
(2.34324 -0.0814416 -4.3528e-19)
(2.33388 -0.0331958 0)
(2.37563 1.97778 6.68075e-21)
(2.3913 1.95818 -1.32577e-20)
(2.35447 1.99777 4.64651e-21)
(2.40287 1.94495 0)
(2.40889 1.94016 8.54729e-21)
(2.41006 1.9416 0)
(2.43292 1.93637 0)
(2.40976 1.94933 -3.51682e-20)
(2.44453 1.94727 0)
(2.42011 1.93039 8.51516e-21)
(2.39985 1.93097 0)
(2.3762 1.93958 -4.1961e-21)
(2.34737 1.95279 6.53988e-21)
(2.31244 1.96628 -4.64314e-21)
(2.40551 1.96212 3.36783e-20)
(2.45649 1.96079 1.26386e-21)
(2.32896 2.01301 7.72805e-23)
(2.27207 1.97557 7.52809e-21)
(2.29748 2.01289 -4.50875e-20)
(2.39558 1.97622 -3.46322e-23)
(2.46383 1.97549 1.49688e-21)
(2.22487 1.96923 -1.56095e-20)
(2.38546 1.98313 -4.06079e-20)
(2.37616 1.97356 4.05795e-20)
(2.47044 1.98312 -2.77779e-21)
(2.47766 1.97363 -6.73214e-21)
(2.26814 1.98751 4.38115e-20)
(2.17626 1.93711 1.05104e-20)
(2.36768 1.93646 0)
(2.48595 1.93542 6.64128e-21)
(2.23121 1.92255 -5.95508e-24)
(2.12157 1.86866 6.0029e-24)
(2.36022 1.86211 0)
(2.49509 1.8591 0)
(2.19629 1.80982 0)
(2.06809 1.75449 0)
(2.35348 1.74224 0)
(2.50459 1.73745 -4.4077e-21)
(2.16237 1.64218 3.17828e-20)
(2.017 1.58814 7.2585e-24)
(2.35004 1.57301 -2.41045e-22)
(2.51666 1.56714 4.71865e-21)
(2.13243 1.41717 -3.19408e-20)
(1.97103 1.36796 0)
(2.34732 1.35456 0)
(2.52897 1.34785 0)
(2.10668 1.13923 2.16629e-21)
(1.93284 1.09854 -3.69296e-20)
(2.34989 1.08944 -3.63894e-20)
(2.54413 1.08417 0)
(2.08613 0.817166 -4.35156e-23)
(1.90275 0.786977 3.49103e-20)
(2.35182 0.784996 5.54406e-20)
(2.55611 0.781233 1.66819e-20)
(2.06377 0.458934 -3.9603e-20)
(1.88029 0.440034 0)
(2.36111 0.451978 -1.8945e-20)
(2.56935 0.447887 -1.12229e-20)
(2.05657 0.0812087 1.98396e-20)
(1.86982 0.0730362 -3.86384e-20)
(2.36296 0.10253 8.00162e-20)
(2.57404 0.0941926 -9.01079e-20)
(2.0417 -0.311786 -2.13644e-20)
(1.86487 -0.306696 -6.06554e-22)
(2.3655 -0.253277 0)
(2.56946 -0.268044 -4.32072e-20)
(2.04706 -0.694376 3.92371e-20)
(1.87539 -0.672114 -7.54651e-20)
(2.36959 -0.611001 0)
(2.57238 -0.624007 0)
(2.24527 -0.299887 2.11435e-20)
(2.24327 -0.683628 8.3799e-20)
(2.0469 -1.0553 0)
(1.89153 -1.01348 3.49649e-20)
(2.26856 0.484409 1.37126e-20)
(2.25852 0.0935678 -2.68374e-21)
(2.29162 1.17584 0)
(2.28175 0.846025 4.17109e-20)
(2.3168 1.68072 6.63466e-23)
(2.30347 1.45597 0)
(2.34784 1.95759 0)
(2.33179 1.84708 0)
(2.3798 2.04018 0)
(2.36512 2.01844 0)
(2.40327 2.01445 -9.29039e-21)
(2.39434 2.03484 -2.505e-21)
(2.41246 1.96313 8.65729e-21)
(2.40998 1.98815 9.35408e-21)
(2.40305 1.93479 -1.52377e-20)
(2.40964 1.94558 -1.91319e-20)
(2.37756 1.93627 0)
(2.39265 1.93142 0)
(2.33272 1.95422 8.06442e-23)
(2.35631 1.94588 0)
(2.28126 1.94141 0)
(2.30747 1.95545 0)
(2.2299 1.82603 0)
(2.25492 1.90166 0)
(2.18833 1.53951 0)
(2.20678 1.70648 0)
(2.16318 1.0687 0)
(2.17278 1.32543 0)
(2.15552 0.45302 0)
(2.15482 0.774561 0)
(2.1711 -0.245217 3.1273e-20)
(2.15539 0.111982 0)
(2.18072 -0.594511 9.65504e-21)
(2.38072 -0.945643 -9.96672e-21)
(2.57518 -0.956674 9.88054e-21)
(2.76967 0.0892975 0)
(2.77039 -0.620853 4.08724e-20)
(2.77162 -0.269173 2.21828e-20)
(2.74625 0.769531 -5.47018e-21)
(2.75883 0.440294 2.19979e-20)
(2.70044 1.32968 -1.5064e-22)
(2.72382 1.06852 0)
(2.64655 1.71577 0)
(2.67307 1.54669 0)
(2.59599 1.91443 0)
(2.62053 1.83702 0)
(2.54997 1.9655 0)
(2.57236 1.95419 -1.16578e-26)
(2.50604 1.94403 -7.38657e-23)
(2.5281 1.95882 0)
(2.45964 1.91431 0)
(2.48279 1.92766 0)
(2.40164 1.90338 0)
(2.43387 1.9054 0)
(2.32637 1.91479 0)
(2.3671 1.90753 4.26098e-21)
(2.22646 1.92648 -1.47849e-21)
(2.28011 1.92213 5.45054e-21)
(2.1042 1.87828 0)
(2.16794 1.91422 4.88102e-21)
(1.96802 1.69713 0)
(2.03535 1.8097 0)
(1.84414 1.32484 0)
(1.90287 1.53644 0)
(1.75687 0.76382 0)
(1.79519 1.06556 0)
(1.7198 0.0739339 1.00773e-20)
(1.73174 0.430036 0)
(1.7338 -0.645604 3.70709e-20)
(1.72008 -0.289398 9.12619e-21)
(1.7601 -0.980919 -3.57438e-20)
(2.23781 -1.03742 -8.07125e-20)
(2.19726 -0.925355 -1.88873e-20)
(2.76409 -0.951058 3.6172e-20)
(1.92236 -1.31058 0)
(1.79971 -1.27606 0)
(2.24129 -1.34709 0)
(2.06242 -1.37096 0)
(2.46269 -0.302013 0)
(2.44033 -1.05348 -2.1944e-20)
(2.45144 -0.691073 -2.23569e-20)
(2.47874 0.485529 -2.83299e-20)
(2.4722 0.0974323 5.71147e-21)
(2.47693 1.17378 -8.08396e-23)
(2.47853 0.84941 0)
(2.46998 1.6783 0)
(2.47369 1.45233 0)
(2.46491 1.96059 0)
(2.46662 1.84765 0)
(2.46379 2.04453 0)
(2.46429 2.02283 0)
(2.45625 2.01458 0)
(2.46152 2.0381 0)
(2.43729 1.95509 3.55728e-23)
(2.44882 1.9842 -9.43641e-21)
(2.40346 1.91762 3.31116e-23)
(2.42197 1.93243 1.77424e-20)
(2.3535 1.91235 0)
(2.38109 1.9113 0)
(2.28643 1.9225 -3.99757e-23)
(2.32209 1.91702 0)
(2.20557 1.91104 0)
(2.24705 1.92343 0)
(2.12334 1.80255 0)
(2.16394 1.87425 0)
(2.05157 1.52526 0)
(2.08504 1.68774 0)
(2.00275 1.0613 0)
(2.02318 1.31508 0)
(1.98172 0.452268 0)
(1.98734 0.771052 0)
(1.99047 -0.229586 -2.12352e-20)
(1.98028 0.115589 0)
(2.39179 -1.23948 0)
(2.21788 -1.22005 -1.64824e-20)
(2.02834 -0.890231 0)
(2.00473 -0.568224 -2.04821e-20)
(2.95826 -0.600729 -4.17541e-20)
(2.94619 -0.922055 -9.63114e-21)
(2.75066 -1.24214 -7.77061e-20)
(2.57236 -1.25388 0)
(2.96319 0.0883036 0)
(2.96601 -0.256715 6.34032e-20)
(2.93109 0.75014 -1.62511e-22)
(2.947 0.427412 -2.21407e-20)
(2.86807 1.30175 1.50637e-22)
(2.89848 1.04408 0)
(2.78847 1.68394 0)
(2.82757 1.5164 0)
(2.70643 1.88129 0)
(2.74614 1.80408 0)
(2.62959 1.93441 0)
(2.6669 1.92175 1.16575e-26)
(2.55787 1.91376 1.43999e-22)
(2.59318 1.92865 0)
(2.48797 1.88064 0)
(2.52282 1.89613 0)
(2.4083 1.86414 -1.98406e-21)
(2.45013 1.86942 0)
(2.31298 1.86547 0)
(2.36382 1.86378 1.97501e-21)
(2.19244 1.86584 -4.56493e-21)
(2.25659 1.86781 -4.36125e-21)
(2.0483 1.80846 0)
(2.12344 1.84701 0)
(1.89246 1.62744 0)
(1.96994 1.73809 0)
(1.7496 1.26833 0)
(1.81714 1.4721 0)
(1.64755 0.728649 0)
(1.69239 1.01896 0)
(1.60376 0.0665654 -1.21994e-22)
(1.61808 0.407438 0)
(1.62452 -0.614241 1.18949e-22)
(1.60595 -0.278205 0)
(1.7095 -1.20158 3.06005e-20)
(1.65799 -0.926637 -3.05848e-20)
(2.42798 -1.3712 -3.81662e-20)
(1.85319 -1.52836 0)
(1.77665 -1.43673 5.36051e-20)
(1.9631 -1.55614 0)
(2.05532 -1.17912 0)
(2.92341 -1.20811 8.89358e-21)
(2.25038 -1.603 -8.30036e-20)
(2.42051 -1.63553 -3.19946e-20)
(1.91664 -1.7287 -1.5913e-20)
(1.85138 -1.62536 -6.78152e-20)
(2.08587 -1.62711 0)
(1.87601 -0.855031 -7.1257e-20)
(1.91216 -1.13526 3.46111e-20)
(2.72658 -1.48132 1.71858e-20)
(2.8882 -1.4518 -8.17682e-20)
(2.60871 -1.59308 -1.23543e-19)
(2.42179 -1.84343 6.60625e-20)
(2.583 -1.93369 2.40121e-19)
(2.59257 -1.79392 6.6769e-20)
(2.65885 -1.01838 -4.17062e-20)
(2.63501 -1.3332 1.11882e-19)
(2.6811 -0.282481 4.47405e-20)
(2.67579 -0.662915 3.12867e-20)
(2.6818 0.486259 1.13397e-20)
(2.68442 0.10609 1.12849e-20)
(2.66229 1.16693 8.08395e-23)
(2.67427 0.844216 0)
(2.62637 1.6716 0)
(2.64591 1.44522 0)
(2.58685 1.95419 0)
(2.60621 1.84121 0)
(2.55024 2.03606 0)
(2.56838 2.01597 0)
(2.51197 2.00025 0)
(2.53182 2.02682 0)
(2.46535 1.93474 0)
(2.48988 1.96704 0)
(2.40707 1.89025 -1.51104e-24)
(2.4378 1.90848 0)
(2.33441 1.87615 0)
(2.37263 1.87994 0)
(2.24353 1.8789 -3.59953e-23)
(2.29138 1.87692 0)
(2.1372 1.85977 0)
(2.19169 1.8759 0)
(2.02799 1.749 0)
(2.08203 1.8207 0)
(1.93098 1.48007 0)
(1.97693 1.63688 0)
(1.86019 1.03343 0)
(1.89114 1.27771 0)
(1.82542 0.445042 0)
(1.83743 0.753393 0)
(1.82888 -0.213597 -9.64424e-21)
(1.82171 0.119077 4.9433e-21)
(1.84684 -0.542541 3.69289e-20)
(2.39734 -1.48655 8.22887e-21)
(2.08982 -1.42854 -3.15227e-20)
(2.23887 -1.4643 2.69584e-20)
(2.56243 -1.50159 0)
(3.13501 -0.581163 2.90909e-20)
(3.08318 -1.17016 7.71935e-20)
(3.11811 -0.889377 -6.55687e-20)
(3.14401 0.0835405 0)
(3.14792 -0.249787 0)
(3.10385 0.724033 9.09784e-24)
(3.12726 0.411097 0)
(3.02523 1.26262 0)
(3.06604 1.01059 0)
(2.9233 1.63885 1.15678e-22)
(2.97478 1.47326 0)
(2.81359 1.83576 0)
(2.86748 1.75828 0)
(2.7084 1.89148 0)
(2.75963 1.87719 0)
(2.61119 1.87274 -7.02156e-23)
(2.65873 1.88702 0)
(2.5183 1.83781 -5.83565e-23)
(2.56459 1.85477 0)
(2.41954 1.81531 0)
(2.47007 1.82425 0)
(2.30584 1.80649 0)
(2.36575 1.80977 0)
(2.16876 1.79349 0)
(2.24095 1.80303 0)
(2.00812 1.72695 0)
(2.0915 1.76943 0)
(1.83771 1.54548 7.69466e-23)
(1.92303 1.65409 0)
(1.68139 1.20003 0)
(1.7555 1.39506 0)
(1.5682 0.686718 0)
(1.61771 0.962516 0)
(1.52019 0.0590998 1.66497e-23)
(1.53545 0.382113 0)
(1.54494 -0.585851 -1.61224e-23)
(1.52342 -0.268174 0)
(1.64317 -1.14445 -9.65621e-23)
(1.58586 -0.880146 0)
(1.79057 -1.56375 4.51579e-20)
(1.7126 -1.37392 -1.16913e-20)
(1.92891 -1.77087 -1.15209e-20)
(1.87015 -1.70965 -2.3502e-20)
(2.2657 -1.80399 3.53026e-20)
(2.01472 -1.75121 2.85549e-20)
(1.95454 -1.37986 -7.57236e-21)
(3.04116 -1.40613 -6.0021e-20)
(2.42286 -1.99145 -3.4752e-21)
(1.9799 -1.873 0)
(2.52713 -2.04553 -3.49343e-19)
(1.9519 -1.81337 -2.99326e-20)
(2.00496 -1.8734 -4.37136e-20)
(2.60995 -2.0912 5.03836e-19)
(2.62506 -2.06905 -8.11153e-20)
(2.12144 -1.82411 0)
(2.7103 -1.9108 -6.61758e-20)
(2.6739 -2.00845 -3.00928e-20)
(2.79174 -1.56381 -6.84667e-20)
(2.74857 -1.76606 9.4205e-20)
(2.86485 -0.99958 4.21042e-20)
(2.83589 -1.30715 1.86837e-20)
(2.88206 -0.277133 -2.23125e-20)
(2.87901 -0.65179 -2.1502e-20)
(2.87924 0.481126 0)
(2.88418 0.105293 -1.66394e-22)
(2.84489 1.14718 0)
(2.8668 0.831848 0)
(2.77959 1.64158 -6.48247e-23)
(2.81476 1.41902 0)
(2.70636 1.92444 0)
(2.74293 1.81035 0)
(2.63649 2.00799 0)
(2.67096 1.98725 0)
(2.56762 1.97147 0)
(2.6023 1.99866 0)
(2.49521 1.90227 -3.18239e-23)
(2.5323 1.93664 0)
(2.41476 1.85166 -1.97507e-24)
(2.45631 1.87323 0)
(2.32175 1.83034 0)
(2.37026 1.83772 0)
(2.21137 1.8243 6.92609e-23)
(2.26895 1.8269 0)
(2.08296 1.80031 0)
(2.14909 1.81776 0)
(1.94835 1.69371 0)
(2.01526 1.7623 0)
(1.82758 1.43499 0)
(1.88494 1.58616 0)
(1.73833 1.00296 0)
(1.77804 1.23942 0)
(1.6919 0.435277 0)
(1.70923 0.73248 0)
(1.69218 -0.197635 4.72916e-21)
(1.686 0.121717 0)
(1.74451 -0.816762 0)
(1.71175 -0.51496 8.30403e-21)
(1.83949 -1.32639 6.11975e-22)
(1.78807 -1.09071 0)
(2.1258 -1.62666 3.19742e-20)
(1.89388 -1.52191 -1.57697e-21)
(2.00277 -1.58305 -1.38332e-20)
(2.40321 -1.68189 -1.16549e-20)
(2.26028 -1.66036 8.02804e-21)
(2.7042 -1.66674 4.16556e-21)
(2.55338 -1.68827 -4.04932e-21)
(2.99406 -1.58672 0)
(2.85286 -1.63982 3.9548e-20)
(3.22996 -1.12006 1.69642e-20)
(3.12438 -1.51821 3.04963e-20)
(3.18537 -1.34141 -6.53643e-20)
(3.29668 -0.559866 9.65425e-21)
(3.2749 -0.852494 0)
(3.30732 0.0738185 0)
(3.3131 -0.245121 0)
(3.26107 0.692162 1.13131e-23)
(3.29174 0.390284 0)
(3.16938 1.21359 0)
(3.22027 0.96954 0)
(3.04738 1.58009 -1.15678e-22)
(3.11088 1.41838 0)
(2.9138 1.77595 0)
(2.98056 1.69829 0)
(2.78417 1.83586 0)
(2.84771 1.81919 0)
(2.66431 1.82118 0)
(2.72297 1.83381 0)
(2.55067 1.78606 5.07003e-24)
(2.6072 1.80376 0)
(2.43445 1.75797 0)
(2.49336 1.77043 0)
(2.30527 1.73979 0)
(2.37232 1.74803 0)
(2.15544 1.71391 0)
(2.23368 1.73007 0)
(1.98398 1.63846 0)
(2.07244 1.68526 0)
(1.80348 1.45705 -7.69466e-23)
(1.89418 1.56381 0)
(1.63835 1.12618 0)
(1.71717 1.31165 0)
(1.51848 0.642198 0)
(1.57086 0.901661 0)
(1.46782 0.0524415 1.05327e-22)
(1.48362 0.355915 0)
(1.49604 -0.553363 -1.03411e-22)
(1.47201 -0.255034 0)
(1.60067 -1.07552 9.54673e-23)
(1.53987 -0.829374 0)
(1.7562 -1.4681 -1.05487e-20)
(1.67465 -1.2899 2.19878e-20)
(1.93119 -1.71078 8.95144e-21)
(1.84261 -1.60942 -1.99864e-20)
(2.03155 -1.8773 2.33838e-21)
(2.01666 -1.77635 -1.6503e-20)
(2.28205 -1.95548 2.80454e-20)
(2.06916 -1.89228 0)
(2.43595 -2.05359 2.45821e-19)
(2.04325 -1.96685 0)
(1.7416 -1.2706 5.90708e-21)
(1.80709 -1.46597 -4.19853e-21)
(2.93699 -1.71748 2.49196e-20)
(3.05469 -1.64837 2.62695e-20)
(2.4662 -2.1049 2.21694e-19)
(2.07268 -1.93228 4.41289e-20)
(2.5882 -2.08112 0)
(2.69721 -2.04582 4.72895e-20)
(2.11041 -1.90375 1.93277e-20)
(2.10286 -1.81451 -2.26753e-20)
(2.68652 -2.02745 -1.04965e-19)
(2.16431 -1.96746 0)
(2.81503 -1.88842 0)
(2.75376 -1.989 5.22899e-20)
(2.94227 -1.54232 0)
(2.87894 -1.74374 0)
(3.03508 -0.981321 0)
(2.99893 -1.28601 -1.93521e-20)
(3.06717 -0.270916 0)
(3.0552 -0.63788 0)
(3.06725 0.46805 0)
(3.07281 0.103854 0)
(3.01467 1.11296 0)
(3.04769 0.807274 0)
(2.92354 1.59879 6.48246e-23)
(2.9719 1.37872 0)
(2.82139 1.88224 0)
(2.8727 1.76753 0)
(2.72098 1.96684 0)
(2.77081 1.94576 0)
(2.62378 1.92961 0)
(2.67203 1.9574 0)
(2.52722 1.85837 2.25361e-24)
(2.57566 1.89404 0)
(2.42622 1.80363 -2.36403e-24)
(2.4777 1.82742 0)
(2.31442 1.77549 0)
(2.37203 1.7869 0)
(2.18592 1.75984 -3.08456e-24)
(2.25267 1.76723 0)
(2.03876 1.72818 0)
(2.11434 1.74897 0)
(1.8845 1.6211 0)
(1.96135 1.68853 0)
(1.74406 1.37417 0)
(1.81113 1.5179 0)
(1.63874 0.963458 0)
(1.686 1.18849 0)
(1.58238 0.421722 0)
(1.60385 0.705171 0)
(1.58203 -0.184278 0)
(1.57467 0.121981 0)
(1.6366 -0.772704 -7.21888e-21)
(1.60323 -0.486691 -8.43109e-21)
(1.68393 -1.03835 1.38518e-20)
(2.16113 -1.77549 1.42829e-20)
(1.95283 -1.67829 0)
(2.05323 -1.73821 1.39984e-20)
(2.40714 -1.8239 0)
(2.27985 -1.80742 -1.45764e-20)
(2.6747 -1.80285 -2.20114e-20)
(2.54032 -1.82291 7.55955e-21)
(2.80927 -1.77392 4.37174e-20)
(3.3628 -1.06576 -7.1521e-21)
(3.23737 -1.44643 -2.0869e-20)
(3.31155 -1.27292 0)
(3.43964 -0.536833 1.67055e-20)
(3.41187 -0.812971 -1.676e-20)
(3.45218 0.0637826 0)
(3.45597 -0.239443 0)
(3.40119 0.655588 1.29704e-23)
(3.43501 0.366869 0)
(3.29791 1.15623 0)
(3.35563 0.921896 0)
(3.15887 1.51044 0)
(3.23186 1.3538 0)
(3.00493 1.70363 0)
(3.08254 1.62628 0)
(2.85436 1.76776 0)
(2.92843 1.7485 0)
(2.71502 1.75879 -5.47579e-23)
(2.78328 1.76881 0)
(2.58381 1.72563 5.32866e-23)
(2.64893 1.74297 0)
(2.45252 1.69383 0)
(2.51875 1.70884 0)
(2.31127 1.66762 0)
(2.38377 1.68038 0)
(2.15228 1.63081 0)
(2.23465 1.65237 0)
(1.97424 1.54686 0)
(2.06564 1.59765 0)
(1.78832 1.36618 0)
(1.88157 1.47115 0)
(1.61935 1.05075 0)
(1.70034 1.22631 0)
(1.4971 0.597043 6.98143e-23)
(1.55081 0.839661 0)
(1.44531 0.0464821 -7.33476e-23)
(1.46142 0.329549 0)
(1.47649 -0.517567 7.24349e-23)
(1.45039 -0.239891 0)
(1.58352 -1.01226 0)
(1.52234 -0.776829 0)
(1.73457 -1.39309 0)
(1.65557 -1.21885 0)
(1.90903 -1.63727 -5.58418e-23)
(1.81946 -1.53361 -8.86252e-21)
(2.0894 -1.73713 3.58339e-20)
(1.99922 -1.70309 0)
(2.18617 -1.83234 2.33449e-20)
(2.18137 -1.75562 -4.70682e-22)
(2.30011 -2.0547 -8.08939e-20)
(2.12156 -1.98679 0)
(1.8724 -1.61933 2.16298e-20)
(3.15706 -1.57357 4.46668e-20)
(2.38797 -2.11783 3.76932e-20)
(2.50723 -2.10165 4.62639e-21)
(2.43108 -2.13318 -9.75181e-20)
(2.10345 -2.01829 0)
(2.13742 -1.9612 -9.69555e-21)
(2.58819 -2.03469 8.06242e-20)
(2.49706 -2.03466 -7.07012e-20)
(2.50504 -2.07074 7.94695e-20)
(2.18453 -1.91049 2.60024e-20)
(2.2649 -1.84633 -1.61486e-20)
(2.2689 -1.77245 -1.26744e-20)
(2.20055 -2.05928 0)
(2.79058 -1.93915 -2.60491e-21)
(2.62847 -1.9388 -7.86785e-21)
(2.74245 -1.93225 -1.81415e-20)
(2.9156 -1.81457 -2.52838e-20)
(2.84754 -1.90313 2.54419e-20)
(3.07328 -1.48178 -5.98766e-23)
(2.99607 -1.67445 0)
(3.18782 -0.941267 0)
(3.13984 -1.23559 0)
(3.23857 -0.257638 0)
(3.21961 -0.610693 0)
(3.23498 0.451316 0)
(3.24467 0.101969 0)
(3.16706 1.07237 -6.65183e-23)
(3.20844 0.777484 0)
(3.05557 1.54461 0)
(3.11492 1.3299 0)
(2.92791 1.82436 0)
(2.99246 1.71045 0)
(2.79998 1.91022 0)
(2.86349 1.88825 0)
(2.67732 1.87497 0)
(2.73799 1.9017 0)
(2.55927 1.80423 2.95703e-23)
(2.61801 1.84001 0)
(2.44011 1.74672 -2.6625e-24)
(2.50033 1.77242 0)
(2.31257 1.71184 0)
(2.37786 1.72693 0)
(2.1699 1.68754 -5.70383e-23)
(2.24353 1.69949 0)
(2.00847 1.6486 0)
(2.09144 1.67232 0)
(1.83786 1.54308 0)
(1.92303 1.60836 0)
(1.68128 1.30833 0)
(1.75628 1.4447 0)
(1.56262 0.919527 0)
(1.61607 1.13259 0)
(1.49819 0.405482 0)
(1.52285 0.674481 0)
(1.49591 -0.169591 -1.05336e-22)
(1.48939 0.120583 0)
(1.55502 -0.729419 7.2508e-21)
(1.5185 -0.455991 0)
(1.66488 -1.20627 -7.11116e-21)
(1.60452 -0.982485 0)
(1.80878 -1.55024 -4.81075e-21)
(1.73431 -1.39558 5.87773e-21)
(2.01265 -1.79373 -1.09626e-20)
(1.88265 -1.66764 0)
(1.94075 -1.73667 -1.57919e-20)
(2.19315 -1.88226 0)
(2.09933 -1.84643 0)
(2.4104 -1.91916 0)
(2.29834 -1.91007 0)
(2.64637 -1.89136 0)
(2.52743 -1.91328 0)
(2.87752 -1.80107 -2.54119e-20)
(2.76482 -1.85865 -6.07822e-21)
(3.0755 -1.65421 -4.76227e-21)
(2.98256 -1.73303 -4.41077e-20)
(3.33336 -1.3678 -2.89401e-20)
(3.15742 -1.56206 -3.67239e-21)
(3.24707 -1.48495 9.44732e-21)
(3.47592 -1.00606 -5.92228e-21)
(3.41101 -1.2065 3.73211e-20)
(3.55991 -0.512006 1.42397e-23)
(3.52601 -0.77283 0)
(3.5745 0.053965 0)
(3.5756 -0.234055 0)
(3.52023 0.615633 1.3998e-23)
(3.55525 0.340847 0)
(3.40778 1.09234 0)
(3.47026 0.86869 0)
(3.25525 1.4323 0)
(3.33521 1.2812 0)
(3.08522 1.62191 0)
(3.17114 1.54494 0)
(2.91745 1.68977 0)
(3.00015 1.66799 0)
(2.76195 1.68696 1.0323e-22)
(2.83809 1.69396 0)
(2.61666 1.65743 0)
(2.68856 1.67347 0)
(2.47352 1.62416 0)
(2.54545 1.64055 0)
(2.32322 1.59156 0)
(2.39986 1.60814 0)
(2.15797 1.54547 0)
(2.24296 1.5717 0)
(1.97672 1.45405 4.04055e-23)
(2.06927 1.50802 0)
(1.79035 1.27512 0)
(1.88336 1.37787 0)
(1.62243 0.975688 0)
(1.70292 1.14135 0)
(1.50085 0.551804 -6.98143e-23)
(1.55465 0.777925 0)
(1.44937 0.0409044 1.43647e-23)
(1.46535 0.3031 0)
(1.48167 -0.481098 -1.30917e-22)
(1.45517 -0.223895 0)
(1.58678 -0.944997 0)
(1.52711 -0.723124 0)
(1.73622 -1.30955 0)
(1.65749 -1.14195 0)
(1.90989 -1.53798 9.32757e-24)
(1.82133 -1.44271 0)
(2.09545 -1.6389 0)
(2.00222 -1.60011 0)
(2.27986 -1.6897 1.81242e-20)
(2.18843 -1.66501 0)
(2.34791 -1.79904 6.05418e-22)
(2.36581 -1.72076 -3.02458e-20)
(2.3261 -2.08693 0)
(2.55917 -1.92148 -1.04537e-19)
(2.37746 -2.12138 -2.48914e-20)
(1.75743 -1.46971 4.80296e-21)
(1.83672 -1.58725 0)
(2.9879 -1.70242 -3.74026e-21)
(3.06064 -1.6117 8.31397e-21)
(2.17085 -2.03827 0)
(2.15894 -2.03456 0)
(2.42556 -2.09124 0)
(2.20011 -1.96894 9.54772e-21)
(2.25288 -1.91539 1.59829e-20)
(2.3364 -1.86857 0)
(2.42228 -1.83568 -3.59119e-20)
(2.44866 -1.75958 2.48192e-20)
(2.22611 -2.10898 0)
(2.68305 -1.8332 7.733e-24)
(2.49685 -1.89685 -2.57801e-20)
(2.51695 -1.79603 8.38733e-20)
(2.60859 -1.81114 -2.86038e-20)
(2.87199 -1.82274 1.13998e-20)
(2.79013 -1.83021 1.80666e-20)
(3.02305 -1.71698 0)
(2.94628 -1.7921 0)
(3.19873 -1.4082 5.98423e-23)
(3.11247 -1.58915 0)
(3.32963 -0.895631 0)
(3.27276 -1.17513 0)
(3.38981 -0.245415 0)
(3.36861 -0.581263 0)
(3.37954 0.427771 0)
(3.39369 0.0956411 0)
(3.29975 1.02071 6.65182e-23)
(3.34762 0.738699 0)
(3.17092 1.47769 0)
(3.23951 1.26876 0)
(3.0224 1.75432 0)
(3.09775 1.64096 0)
(2.87197 1.8419 0)
(2.94678 1.81881 0)
(2.72772 1.80983 0)
(2.79882 1.83496 0)
(2.59114 1.7411 -2.40978e-23)
(2.65872 1.77618 0)
(2.45656 1.68175 -2.86775e-24)
(2.52417 1.70889 0)
(2.31563 1.64199 0)
(2.38737 1.65989 0)
(2.16145 1.60938 3.4533e-24)
(2.24065 1.62587 0)
(1.98948 1.56211 0)
(2.07766 1.58955 0)
(1.80763 1.45632 0)
(1.89863 1.52019 0)
(1.63885 1.23474 0)
(1.71995 1.36285 0)
(1.50979 0.870414 0)
(1.56795 1.0701 0)
(1.4388 0.38687 0)
(1.46624 0.640204 0)
(1.43464 -0.154933 1.95568e-22)
(1.42848 0.118714 0)
(1.49583 -0.682979 8.61221e-23)
(1.45717 -0.424866 0)
(1.60876 -1.13483 -1.16246e-20)
(1.54741 -0.921987 1.104e-20)
(1.68013 -1.31903 -8.99538e-21)
(2.06801 -1.87206 -2.55852e-21)
(1.95401 -1.75052 -5.25054e-22)
(2.00732 -1.81887 7.70232e-21)
(2.22275 -1.95169 0)
(2.14124 -1.91881 0)
(2.41105 -1.97804 9.16716e-26)
(2.31417 -1.97359 0)
(2.61517 -1.94327 0)
(2.51233 -1.96821 0)
(2.81518 -1.84938 -1.0762e-20)
(2.71697 -1.90631 1.18122e-20)
(2.90647 -1.78259 2.68306e-21)
(3.41218 -1.27983 6.76326e-22)
(3.22255 -1.4664 8.39657e-21)
(3.32093 -1.38927 -1.22729e-21)
(3.56206 -0.946751 5.84389e-21)
(3.493 -1.13237 -5.85126e-21)
(3.65311 -0.48633 1.15138e-22)
(3.61655 -0.729162 0)
(3.67124 0.0444657 1.04253e-22)
(3.67243 -0.225085 0)
(3.61541 0.572478 1.43597e-23)
(3.65215 0.314152 0)
(3.49704 1.02312 0)
(3.56321 0.811494 0)
(3.33494 1.34739 0)
(3.4201 1.20276 0)
(3.15332 1.53295 0)
(3.24528 1.45664 0)
(2.97298 1.60467 0)
(3.06215 1.58031 0)
(2.80497 1.60811 -4.84725e-23)
(2.88728 1.61206 0)
(2.6487 1.58282 -3.58729e-23)
(2.72587 1.59723 0)
(2.49656 1.54946 0)
(2.57278 1.56649 0)
(2.33959 1.51192 0)
(2.41927 1.53156 0)
(2.17077 1.45826 0)
(2.25701 1.48838 0)
(1.98987 1.36137 -4.04055e-23)
(2.08165 1.41737 0)
(1.80739 1.18561 3.59249e-23)
(1.898 1.28547 0)
(1.644 0.902042 0)
(1.7222 1.05815 0)
(1.52517 0.507006 0)
(1.57787 0.717128 0)
(1.47546 0.0357064 1.28946e-23)
(1.49072 0.277043 0)
(1.50695 -0.446071 1.044e-22)
(1.48157 -0.208025 0)
(1.60605 -0.881733 0)
(1.54987 -0.67229 0)
(1.74943 -1.23159 0)
(1.67348 -1.06967 0)
(1.92106 -1.45723 8.79759e-24)
(1.83258 -1.36212 0)
(2.10807 -1.55457 0)
(2.01381 -1.51814 0)
(2.29125 -1.60769 -1.05527e-20)
(2.20114 -1.58108 0)
(2.46577 -1.67859 -1.05824e-20)
(2.37837 -1.64087 2.1241e-20)
(2.40779 -2.05769 1.15938e-19)
(2.45729 -1.99753 1.04832e-19)
(2.53105 -1.80483 1.23533e-20)
(2.55308 -1.72178 -1.2353e-20)
(2.32651 -2.11115 0)
(1.91444 -1.67588 -6.73516e-21)
(3.12042 -1.51561 2.74305e-20)
(2.43633 -1.78373 -1.7295e-20)
(2.2128 -2.06342 0)
(2.41434 -1.88804 -5.98594e-21)
(2.35139 -2.13402 0)
(2.21047 -2.03067 0)
(2.42699 -2.06353 0)
(2.25875 -1.97207 0)
(2.31434 -1.93183 0)
(2.40069 -1.90381 3.46337e-21)
(2.49291 -1.88136 1.16037e-20)
(2.61352 -1.85618 0)
(2.64359 -1.76859 2.5906e-20)
(2.25204 -2.11446 0)
(2.54015 -1.70747 -3.54693e-20)
(2.37354 -1.76709 -6.40636e-20)
(2.3862 -1.66577 -3.12566e-20)
(2.46199 -1.68224 3.63117e-20)
(2.73188 -1.74723 -3.00733e-21)
(2.6412 -1.72611 1.34637e-20)
(2.93587 -1.73673 -8.66611e-21)
(2.8353 -1.75153 6.66118e-24)
(3.12006 -1.62799 -3.74473e-23)
(3.03019 -1.70031 0)
(3.3053 -1.33538 -4.68049e-23)
(3.21468 -1.50759 0)
(3.44662 -0.848499 0)
(3.38438 -1.11351 0)
(3.5115 -0.232633 0)
(3.48902 -0.550838 0)
(3.49822 0.405372 0)
(3.51488 0.0908817 0)
(3.40894 0.966391 0)
(3.46219 0.699124 0)
(3.26754 1.40526 0)
(3.34264 1.20349 0)
(3.10367 1.67552 0)
(3.1871 1.56426 0)
(2.93544 1.76358 0)
(3.01932 1.73954 0)
(2.77375 1.73551 0)
(2.85341 1.75844 0)
(2.62169 1.67029 3.0231e-24)
(2.69669 1.70397 0)
(2.47415 1.61083 -2.23162e-23)
(2.54793 1.63853 0)
(2.32277 1.56674 0)
(2.39945 1.58731 0)
(2.16042 1.52651 4.3326e-23)
(2.24341 1.54712 0)
(1.98197 1.47159 0)
(2.0733 1.50246 0)
(1.79314 1.36572 0)
(1.8878 1.42821 0)
(1.61636 1.15702 0)
(1.70151 1.27697 0)
(1.47963 0.817632 0)
(1.54141 1.00351 0)
(1.4032 0.366644 0)
(1.4331 0.603205 0)
(1.39655 -0.140373 -9.02321e-23)
(1.39117 0.115972 0)
(1.45725 -0.636202 -1.3775e-23)
(1.41897 -0.393778 0)
(1.57412 -1.06361 -5.00358e-21)
(1.51029 -0.861041 0)
(1.72405 -1.38753 0)
(1.64576 -1.2402 1.10683e-20)
(1.88949 -1.59759 7.25802e-21)
(1.80666 -1.505 0)
(2.02323 -1.80912 7.80103e-21)
(1.97032 -1.6672 0)
(1.99195 -1.74169 -7.68233e-21)
(2.11791 -1.92131 0)
(2.06656 -1.87115 8.91428e-21)
(2.24786 -1.99078 0)
(2.17932 -1.96248 0)
(2.40787 -2.00809 -7.85616e-27)