/*--------------------------------*- C++ -*----------------------------------*\
  =========                 |
  \\      /  F ield         | OpenFOAM: The Open Source CFD Toolbox
   \\    /   O peration     | Website:  https://openfoam.org
    \\  /    A nd           | Version:  10
     \\/     M anipulation  |
\*---------------------------------------------------------------------------*/
FoamFile
{
    format      ascii;
    class       volScalarField;
    location    "93";
    object      p;
}
// * * * * * * * * * * * * * * * * * * * * * * * * * * * * * * * * * * * * * //

dimensions      [0 2 -2 0 0 0 0];

internalField   nonuniform List<scalar> 
28942
(
-0.00372778
-0.00310264
0.00206989
0.00952452
0.00982441
7.20244e-05
0.000251681
1.48438e-05
0.00274921
0.00283706
-0.00227106
-0.00253966
-0.00292192
-0.00283948
0.000168533
0.000452756
0.00991618
0.0101862
0.00562057
0.00718034
0.00818804
0.00817966
-0.00517442
-0.00500001
-0.0035289
-0.00375295
0.0139147
0.0138637
0.00357439
0.003517
1.10796e-05
4.34996e-05
0.000684592
0.000274618
0.00717887
0.00838451
0.0109223
0.0128807
-1.4906e-05
0.0150753
0.00912453
0.0116225
0.00176624
0.00167677
0.00174072
0.000255213
0.00012927
0.000202327
0.00023451
0.000328895
0.000639607
0.00281929
0.00289061
0.00288198
0.00303682
-0.00230062
-0.00099899
-0.00332834
-0.00317416
-0.00344461
-0.00351777
-0.00351843
-0.00341661
-6.62639e-05
-0.00176487
-0.000313112
0.00101657
0.00946037
0.00896403
-0.00332011
-0.0035296
-0.00326497
0.00902646
0.00887788
0.00917034
-0.00143357
-0.00104614
-0.000708456
0.00240324
0.0028025
0.00189444
0.000800573
-0.00626686
-0.00749425
0.00112193
0.00384661
0.00488778
0.00567481
0.00405976
0.0041822
0.00614868
0.0055281
-0.00135556
-0.00164449
-0.00192189
-0.00176142
-0.00158815
0.00537003
0.00666067
-0.00780562
0.0113218
0.0105227
0.00581663
0.00941339
0.000937175
0.000842612
0.000754262
0.00550761
0.00570035
0.00569447
-0.00317212
-0.00309294
-0.00308524
-0.00256892
-0.00269226
0.0158678
0.0138633
0.0133045
0.0149353
0.00168172
0.00476009
0.00345892
0.00511284
0.00478976
0.015541
0.0158359
0.0144945
0.0059541
0.00703279
0.00016463
0.000257221
8.9976e-05
0.0105374
0.01104
0.0077019
0.00735397
0.0128111
0.00673863
0.00802846
0.00908735
-0.00186003
-0.00236738
0.00739806
0.0016836
0.0017728
-0.00112543
-0.00138755
-0.00093119
-0.00246684
0.0066301
0.00575758
0.00375225
0.00023732
0.000186381
6.83421e-05
0.000187544
0.00756634
0.00682971
-0.00182021
-0.00193729
-0.00183236
-0.00409276
-0.00363878
5.05572e-05
-0.00280341
-0.000451553
0.00843023
0.00853921
0.00963334
0.00916863
0.00774638
0.00311332
0.00303063
0.00328842
0.00316411
0.0050772
0.00485507
0.00519024
0.00541073
0.00534883
0.00542016
0.00563138
0.00618551
0.0058795
0.00547755
0.00580769
0.00651335
0.00726728
0.00755921
-0.000538073
-0.000518774
-0.00242795
0.000188061
4.50417e-05
-0.00195087
-0.00203909
0.000255867
0.000317091
0.000282595
0.000217249
0.00177085
0.00172162
0.00170425
-0.0028709
-0.0030573
-0.00272233
-0.00428792
-0.0047693
-0.00408189
-0.00466836
-0.00643236
-0.00513194
0.0160615
0.0167717
0.016539
0.000969926
0.00111467
0.00100373
0.0103882
0.00996024
0.0100405
0.00140573
0.00138958
0.00142211
0.00137297
0.0013573
0.00134106
0.00134127
0.00132456
0.00132483
0.00135768
0.00137358
0.00138956
0.00140586
0.00142282
0.00130866
0.00130798
0.00143802
0.00143825
0.00145319
0.00129242
0.00129166
0.00145389
0.00127575
0.00125924
0.00127566
0.00125953
0.00147077
0.00147108
0.00124292
0.00124327
0.00148659
0.00148712
0.00122661
0.00122706
0.00150251
0.00150308
0.0012104
0.00121079
0.0015184
0.00151905
0.00119417
0.00119458
0.00153424
0.00153494
0.00117799
0.00117835
0.00155017
0.00155087
0.00116175
0.00116217
0.00156643
0.00156693
0.00114551
0.00114574
0.00158176
0.00158247
0.00112915
0.00112913
0.00159854
0.00159881
0.00111244
0.00111227
0.0016137
0.00161393
0.00109468
0.00109534
0.00162965
0.00162961
0.0010778
0.00107865
0.00161299
0.00162895
0.00164565
0.00164544
0.00157988
0.00159727
0.00154814
0.00156457
0.00151714
0.00153276
0.00148539
0.00150133
0.00145262
0.00146935
0.0014208
0.00143817
0.00138917
0.00140547
0.00135644
0.00137156
0.0013229
0.0013399
0.00129065
0.00130685
0.00125819
0.00127446
0.00122573
0.00124198
0.00119333
0.00120955
0.00116097
0.00117718
0.00112867
0.00114483
0.00109499
0.00111245
0.00107802
0.00106093
0.00106138
0.00111232
0.00107829
0.00109501
0.00114558
0.00112873
0.00117792
0.00116188
0.00121028
0.00119411
0.00124276
0.00122654
0.00127531
0.00125906
0.00130771
0.00129159
0.0013405
0.00132438
0.00137361
0.00135717
0.00140516
0.00138917
0.00143818
0.0014229
0.00147074
0.00145403
0.00150272
0.00148679
0.00153445
0.00151867
0.00156602
0.00155018
0.00159771
0.00158152
0.0016284
0.00161326
0.00164425
0.00164554
0.00106069
0.0010614
0.00166064
0.00165908
0.00166178
0.00166119
0.00161138
0.00164424
0.0016275
0.00157836
0.00159529
0.00154694
0.0015623
0.00151571
0.00153143
0.00148392
0.00149987
0.00145175
0.00146789
0.0014191
0.00143586
0.00138718
0.00140411
0.00135559
0.00137027
0.00132187
0.00133878
0.00128945
0.00130566
0.00125704
0.00127327
0.00122462
0.00124084
0.00119227
0.00120845
0.00116
0.00117614
0.00112796
0.00114394
0.00109465
0.0011115
0.00104383
0.00104405
0.00106011
0.00107732
0.0010776
0.00106113
0.0010441
0.00104411
0.00111218
0.00109441
0.00114483
0.00112808
0.00117691
0.00116086
0.00120925
0.00119308
0.00124172
0.00122549
0.00127429
0.00125801
0.00130692
0.00129063
0.00133951
0.00132326
0.00137241
0.00135583
0.00140443
0.00138831
0.00143692
0.00142149
0.0014695
0.0014533
0.00150158
0.0014856
0.00153337
0.00151754
0.00156484
0.00154917
0.00159591
0.00158044
0.00162656
0.00161122
0.00165634
0.00164189
0.00166061
0.00167437
0.00167182
0.00167524
0.00104341
0.00104369
0.00167626
0.00167518
0.00168943
0.00168739
0.00167623
0.00105996
0.00104228
0.00102694
0.00102646
0.00167403
0.00169165
0.00171625
0.00169668
0.0016418
0.00165833
0.00160878
0.00162497
0.0015763
0.00159307
0.00154495
0.00156014
0.00151375
0.00152948
0.001482
0.00149793
0.00144992
0.001466
0.00141765
0.00143383
0.0013854
0.00140166
0.00135311
0.0013691
0.00132046
0.00133689
0.00128792
0.00130417
0.00125548
0.00127171
0.0012231
0.00123929
0.00119079
0.00120695
0.0011586
0.00117469
0.00112667
0.00114259
0.00109368
0.00111021
0.00107665
0.0010272
0.00102659
0.00102685
0.00102729
0.00107696
0.00104286
0.00106042
0.00111126
0.001094
0.00114332
0.00112694
0.00117543
0.00115936
0.00120775
0.00119159
0.00124018
0.00122397
0.00127271
0.00125645
0.00130532
0.00128902
0.00133794
0.00132164
0.00137051
0.00135427
0.00140301
0.00138675
0.00143539
0.00141934
0.00146773
0.00145161
0.00149981
0.00148382
0.00153158
0.00151575
0.00156299
0.00154736
0.00159384
0.00157853
0.00162403
0.00160897
0.00165381
0.00163895
0.00168403
0.00166825
0.00170128
0.00169847
0.00169115
0.00168991
0.00102558
0.00102603
0.00170365
0.00170365
0.00170895
0.0017126
0.00171468
0.00164281
0.00171797
0.00169138
0.00169971
0.00169731
0.00167367
0.00169161
0.00163768
0.00165555
0.00160548
0.00162102
0.00157367
0.00159022
0.00154256
0.00155802
0.00151121
0.00152696
0.00147949
0.0014954
0.00144749
0.00146353
0.00141534
0.00143144
0.00138309
0.00139924
0.00135071
0.00136689
0.00131827
0.00133455
0.00128581
0.00130203
0.00125341
0.00126961
0.00122108
0.00123725
0.00118883
0.00120496
0.0011567
0.00117276
0.00112482
0.00114072
0.00109231
0.00110851
0.00105911
0.00107558
0.00102467
0.00104157
0.00101007
0.0010077
0.00100897
0.0010108
0.00101027
0.00101073
0.00101091
0.00100953
0.00101024
0.00104193
0.00100792
0.00102596
0.00107568
0.00105922
0.00110949
0.00109301
0.00114134
0.00112533
0.00117349
0.00115741
0.00120577
0.00118963
0.00123817
0.00122197
0.00127065
0.00125442
0.00130321
0.00128694
0.00133579
0.00131951
0.00136832
0.0013521
0.00140081
0.00138458
0.00143318
0.00141704
0.00146543
0.00144934
0.00149745
0.0014815
0.00152916
0.00151337
0.00156048
0.0015449
0.00159126
0.00157597
0.00162123
0.00160636
0.00165044
0.00163598
0.0016798
0.00166485
0.00170878
0.00169338
0.00172607
0.00172228
0.00170465
0.00170471
0.00172184
0.00171512
0.00102359
0.00100726
0.000992791
0.000991884
0.00171448
0.00172829
0.0017543
0.00166913
0.00173718
0.00173461
0.00171317
0.00170505
0.00168791
0.00168466
0.00166884
0.00168333
0.00163295
0.00165076
0.00160208
0.00161744
0.00157076
0.0015866
0.00153948
0.0015551
0.00150808
0.00152383
0.00147641
0.00149229
0.00144449
0.00146049
0.00141241
0.00142849
0.00138021
0.00139635
0.00134792
0.00136408
0.00131556
0.00133177
0.00128318
0.00129937
0.00125085
0.00126702
0.00121859
0.00123473
0.00118641
0.0012025
0.00115433
0.00117037
0.00112238
0.00113835
0.0010906
0.00110645
0.00105718
0.00107392
0.00104017
0.000993577
0.00099142
0.000993073
0.000994978
0.000994434
0.00099442
0.000994955
0.000993696
0.00104056
0.00100612
0.00102544
0.0010744
0.00105767
0.00110705
0.00109121
0.00113899
0.00112299
0.0011711
0.00115505
0.00120334
0.00118722
0.00123569
0.00121952
0.00126812
0.00125191
0.00130061
0.00128438
0.00133314
0.00131689
0.00136563
0.00134941
0.00139806
0.00138187
0.00143039
0.00141427
0.00146257
0.00144652
0.00149452
0.0014786
0.00152615
0.0015104
0.00155738
0.00154185
0.00158806
0.00157282
0.00161799
0.00160315
0.00164702
0.00163266
0.00167548
0.00166148
0.00170293
0.00168775
0.00173064
0.00171832
0.00174596
0.00174154
0.0017193
0.00171683
0.000989407
0.000990058
0.00172359
0.00168743
0.00170897
0.00172852
0.00173877
0.00176414
0.00174495
0.00175191
0.00174865
0.00175721
0.00175509
0.00171748
0.00168614
0.00175358
0.00172326
0.00167882
0.00167908
0.0016608
0.00167574
0.00162864
0.00164448
0.00159794
0.00161332
0.00156689
0.00158249
0.00153571
0.00155132
0.00150437
0.00152009
0.00147278
0.00148862
0.00144095
0.00145691
0.00140895
0.00142499
0.00137684
0.00139293
0.00134463
0.00136075
0.00131236
0.00132852
0.00128007
0.00129623
0.00124783
0.00126396
0.00121565
0.00123175
0.00118354
0.0011996
0.00115153
0.00116754
0.00111963
0.00113558
0.00108786
0.00110373
0.00105564
0.00107203
0.00102154
0.0010387
0.000988088
0.00100498
0.000975238
0.000971283
0.00097343
0.000978172
0.000976647
0.000979486
0.000979136
0.000979091
0.000979435
0.000976981
0.000978227
0.000973927
0.000975533
0.00100521
0.000972199
0.000988413
0.001039
0.00102285
0.00107255
0.00105609
0.00110428
0.00108843
0.00113623
0.00112026
0.00116829
0.00115227
0.00120047
0.00118439
0.00123275
0.00121662
0.00126512
0.00124895
0.00129755
0.00128135
0.00133
0.00131379
0.00136243
0.00134624
0.00139479
0.00137864
0.00142705
0.00141097
0.00145915
0.00144315
0.00149102
0.00147514
0.00152256
0.00150686
0.00155368
0.0015382
0.00158425
0.00156907
0.00161411
0.0015993
0.00164312
0.00162875
0.00167115
0.00165737
0.00169826
0.0016845
0.00172397
0.00171196
0.00174918
0.00173461
0.00176792
0.00176325
0.00172695
0.00174541
0.00172692
0.000985781
0.000969761
0.000957518
0.000955414
0.00172846
0.00174
0.00173671
0.00174986
0.0017591
0.0017709
0.00177891
0.00177508
0.00172792
0.00174129
0.00175363
0.0017477
0.00174606
0.00169247
0.00171816
0.00167242
0.00167836
0.00165332
0.00166721
0.00162322
0.00163819
0.00159302
0.00160821
0.00156231
0.00157774
0.00153132
0.00154686
0.00150009
0.00151576
0.0014686
0.0014844
0.00143688
0.00145279
0.00140499
0.00142097
0.00137297
0.00138901
0.00134086
0.00135694
0.00130869
0.0013248
0.00127651
0.00129261
0.00124436
0.00126045
0.00121227
0.00122833
0.00118026
0.00119627
0.00114833
0.0011643
0.0011165
0.00113242
0.00108477
0.00110064
0.0010534
0.00106905
0.00101971
0.00103681
0.00100242
0.000959795
0.000954756
0.000957886
0.000962974
0.000961511
0.000963936
0.000963641
0.000963502
0.000963895
0.000961189
0.000962549
0.000959453
0.00100383
0.000970066
0.00098667
0.00103715
0.00102081
0.00106947
0.0010537
0.0011012
0.00108532
0.00113308
0.00111715
0.00116508
0.00114909
0.00119718
0.00118114
0.00122939
0.0012133
0.00126168
0.00124555
0.00129402
0.00127787
0.00132639
0.00131023
0.00135874
0.0013426
0.00139102
0.00137492
0.0014232
0.00140715
0.0014552
0.00143925
0.00148697
0.00147115
0.0015184
0.00150276
0.00154941
0.001534
0.00157986
0.00156474
0.00160962
0.00159486
0.00163854
0.00162422
0.00166648
0.00165269
0.00169336
0.00168004
0.00171835
0.0017063
0.00174376
0.0017298
0.00176818
0.00175508
0.00176932
0.00175854
0.00178586
0.00178047
0.00173438
0.000952658
0.000953497
0.00175183
0.00173974
0.00176257
0.00174216
0.00175161
0.00176195
0.00176238
0.00177275
0.00178134
0.00178933
0.00179685
0.00179239
0.0017381
0.00173835
0.00177172
0.0017721
0.0017465
0.00173008
0.00174037
0.00169285
0.00170925
0.00166746
0.00167786
0.00164595
0.001659
0.00161716
0.00163168
0.00158749
0.00160245
0.00155713
0.00157239
0.00152635
0.0015418
0.00149527
0.00151087
0.00146391
0.00147964
0.00143231
0.00144815
0.00140054
0.00141646
0.00136863
0.00138461
0.00133663
0.00135265
0.00130458
0.00132062
0.00127251
0.00128856
0.00124047
0.0012565
0.00120848
0.00122449
0.00117656
0.00119253
0.00114473
0.00116065
0.001113
0.00112887
0.00108135
0.00109718
0.0010499
0.00106559
0.00101779
0.00103425
0.000983594
0.00100043
0.000950655
0.000967836
0.000939329
0.000934167
0.000936964
0.000944369
0.000941614
0.000947393
0.000946319
0.000948383
0.000948048
0.000947976
0.000948357
0.000945928
0.000947228
0.000942633
0.000944077
0.000937899
0.000940607
0.000967837
0.000935204
0.000951512
0.00100225
0.000984143
0.00103438
0.00101888
0.00106604
0.00105025
0.00109777
0.00108192
0.00112957
0.00111368
0.00116148
0.00114554
0.0011935
0.0011775
0.00122562
0.00120957
0.00125781
0.00124173
0.00129007
0.00127396
0.00132234
0.00130623
0.00135459
0.00133849
0.00138677
0.00137072
0.00141885
0.00140286
0.00145074
0.00143485
0.00148239
0.00146663
0.00151371
0.00149813
0.00154459
0.00152924
0.00157491
0.00155986
0.00160454
0.00158985
0.00163335
0.00161909
0.00166118
0.00164744
0.00168792
0.00167471
0.001713
0.00170077
0.00173724
0.00172517
0.00176044
0.00174803
0.00178469
0.00177357
0.00177214
0.00177284
0.00179862
0.00179017
0.00174703
0.00175169
0.00177854
0.00178413
0.00177304
0.00175892
0.00176366
0.000948651
0.00093145
0.000921394
0.000919152
0.00177368
0.00177432
0.00178387
0.0017912
0.00179894
0.00180359
0.00178318
0.00178266
0.00178687
0.00180732
0.00180568
0.00179859
0.00175032
0.00176942
0.00176834
0.00173178
0.00174513
0.00171931
0.00173037
0.00168786
0.00170205
0.00166297
0.00167485
0.00163869
0.00165158
0.00161069
0.00162491
0.00158144
0.00159621
0.00155139
0.00156651
0.00152084
0.00153619
0.00148993
0.00150545
0.00145872
0.00147438
0.00142726
0.00144303
0.00139561
0.00141148
0.00136383
0.00137976
0.00133196
0.00134793
0.00130003
0.00131602
0.00126809
0.00128408
0.00123617
0.00125215
0.0012043
0.00122025
0.00117249
0.0011884
0.00114077
0.00115664
0.00110914
0.00112496
0.00107759
0.00109337
0.00104614
0.00106187
0.00101495
0.00103054
0.000981252
0.000998367
0.000965109
0.000924706
0.000918855
0.000922186
0.000929234
0.000926892
0.000931783
0.000930745
0.000932852
0.000932494
0.00093246
0.000932837
0.000930719
0.000931755
0.000926911
0.000929088
0.000924355
0.000965634
0.000932593
0.000949016
0.000999814
0.000982479
0.00103087
0.00101534
0.00106239
0.00104663
0.00109401
0.00107822
0.00112572
0.00110987
0.00115753
0.00114163
0.00118945
0.0011735
0.00122146
0.00120547
0.00125355
0.00123752
0.00128569
0.00126964
0.00131785
0.0013018
0.00134999
0.00133396
0.00138207
0.00136607
0.00141402
0.00139809
0.0014458
0.00142997
0.00147732
0.00146162
0.0015085
0.00149299
0.00153924
0.00152396
0.00156942
0.00155444
0.00159892
0.0015843
0.0016276
0.0016134
0.00165531
0.00164162
0.00168192
0.00166878
0.00170711
0.00169475
0.00173104
0.00171928
0.00175388
0.0017425
0.00177451
0.00176506
0.00179838
0.00178181
0.00178792
0.00180981
0.00181861
0.00181744
0.0018128
0.00179798
0.00177843
0.00178015
0.00176102
0.00176387
0.000915888
0.000916613
0.00179537
0.0017728
0.00177546
0.00178235
0.00178566
0.00179433
0.00180191
0.00180594
0.00180898
0.00179452
0.00178732
0.00179144
0.00180367
0.00181448
0.00182219
0.0018001
0.00180589
0.00180854
0.00181947
0.00182501
0.00176307
0.00177967
0.00177693
0.00175626
0.00176167
0.00172791
0.00174217
0.00170911
0.00171974
0.00168216
0.00169566
0.00165688
0.00166931
0.0016315
0.00164453
0.00160384
0.0016179
0.00157491
0.00158953
0.00154515
0.00156014
0.00151483
0.00153007
0.0014841
0.00149954
0.00145305
0.00146864
0.00142175
0.00143745
0.00139025
0.00140604
0.00135861
0.00137447
0.00132687
0.00134277
0.00129509
0.001311
0.00126328
0.0012792
0.00123149
0.0012474
0.00119974
0.00121563
0.00116806
0.00118391
0.00113646
0.00115227
0.00110494
0.00112071
0.00107351
0.00108923
0.00104215
0.00105784
0.00101093
0.00102652
0.000978852
0.000995336
0.000946385
0.000962213
0.000913112
0.000928879
0.000903048
0.000897663
0.000900135
0.00090946
0.000906073
0.000913795
0.000912075
0.000916249
0.000915178
0.000917333
0.000916975
0.000916943
0.000917322
0.000915137
0.000916211
0.000911106
0.0009135
0.000906089
0.000908549
0.000900838
0.00090357
0.000929687
0.000897265
0.000914881
0.00096385
0.000946163
0.000995915
0.000980334
0.00102705
0.00101145
0.00105846
0.00104277
0.00108995
0.00107421
0.00112154
0.00110575
0.00115324
0.0011374
0.00118504
0.00116915
0.00121694
0.00120101
0.00124891
0.00123294
0.00128093
0.00126494
0.00131297
0.00129698
0.00134498
0.00132901
0.00137693
0.001361
0.00140875
0.00139289
0.00144039
0.00142463
0.00147177
0.00145615
0.0015028
0.00148737
0.00153339
0.00151819
0.00156343
0.00154852
0.00159278
0.00157823
0.00162132
0.00160719
0.00164889
0.00163527
0.00167537
0.00166231
0.00170055
0.00168817
0.00172443
0.00171269
0.00174696
0.00173591
0.00176703
0.00175751
0.00178611
0.00177665
0.0017887
0.0017923
0.00180062
0.00182608
0.00182044
0.00177432
0.00177582
0.00179284
0.00178364
0.00178681
0.000910128
0.00089511
0.000885231
0.000881759
0.00179448
0.00179642
0.00180457
0.00181081
0.0018156
0.00182084
0.00180163
0.00179512
0.00181193
0.0018126
0.0018169
0.00180806
0.00181431
0.00182891
0.00182673
0.00182386
0.00183144
0.00177542
0.00178373
0.00177285
0.00176666
0.00177629
0.00174415
0.00175512
0.00172229
0.00173369
0.00170072
0.0017119
0.00167534
0.00168827
0.00164993
0.00166259
0.0016241
0.00163724
0.00159661
0.00161055
0.00156795
0.00158243
0.00153845
0.00155331
0.00150835
0.00152349
0.00147782
0.00149316
0.00144695
0.00146244
0.00141581
0.00143143
0.00138447
0.00140018
0.00135298
0.00136876
0.00132139
0.00133722
0.00128975
0.0013056
0.00125809
0.00127394
0.00122644
0.00124229
0.00119484
0.00121065
0.00116329
0.00117908
0.00113182
0.00114756
0.00110043
0.00111613
0.00106913
0.00108479
0.0010379
0.00105352
0.00100673
0.00102232
0.000975761
0.000991254
0.000943401
0.000959269
0.000926106
0.000887788
0.000881868
0.000885378
0.00089442
0.000891131
0.000898264
0.000896579
0.000900751
0.000899675
0.000901825
0.000901469
0.000901458
0.000901821
0.000899712
0.000900743
0.000896721
0.00089842
0.000891034
0.000894118
0.000887814
0.000926894
0.000894213
0.000912282
0.000961174
0.000943762
0.000991887
0.000976512
0.001023
0.00100744
0.00105424
0.00103863
0.0010856
0.00106993
0.00111706
0.00110134
0.00114863
0.00113286
0.00118031
0.00116448
0.00121207
0.00119621
0.00124391
0.00122801
0.0012758
0.00125988
0.0013077
0.00129178
0.00133957
0.00132367
0.00137138
0.00135552
0.00140305
0.00138727
0.00143454
0.00141886
0.00146577
0.00145023
0.00149665
0.00148129
0.00152708
0.00151196
0.00155695
0.00154212
0.00158615
0.00157167
0.00161453
0.00160048
0.00164198
0.00162842
0.00166833
0.00165533
0.00169342
0.00168108
0.00171718
0.00170551
0.00173948
0.00172856
0.00175964
0.00174993
0.00177748
0.00176908
0.00179228
0.00178448
0.0018123
0.00180378
0.00182851
0.00182253
0.00181013
0.00180177
0.0018007
0.00178563
0.00178723
0.000878423
0.000878863
0.00181145
0.00179464
0.00179766
0.0018055
0.00180664
0.00181402
0.00181982
0.00182439
0.00182703
0.00181618
0.00180573
0.00180559
0.00181342
0.00181328
0.00182733
0.00181576
0.00182786
0.00181787
0.00182477
0.00181443
0.00183443
0.00183593
0.00183454
0.00183164
0.00178686
0.00179333
0.00180405
0.00177253
0.00176865
0.0017547
0.00176771
0.00173599
0.0017456
0.00171469
0.00172563
0.00169243
0.00170383
0.00166775
0.0016803
0.0016424
0.00165513
0.00161636
0.00162956
0.00158901
0.00160287
0.00156057
0.00157493
0.00153131
0.00154605
0.00150144
0.00151646
0.00147111
0.00148635
0.00144042
0.00145582
0.00140946
0.00142499
0.00137829
0.00139392
0.00134696
0.00136266
0.00131554
0.00133128
0.00128406
0.00129983
0.00125255
0.00126833
0.00122106
0.00123682
0.0011896
0.00120535
0.0011582
0.00117391
0.00112687
0.00114255
0.00109563
0.00111126
0.00106446
0.00108005
0.00103338
0.00104893
0.00100235
0.00101788
0.000971402
0.000986878
0.000940786
0.000955915
0.000906889
0.000923439
0.000875798
0.000891558
0.000866214
0.00085868
0.000862788
0.000873583
0.000869622
0.00087917
0.000876935
0.000882812
0.000881111
0.000885269
0.000884213
0.000886328
0.000885975
0.000885984
0.000886331
0.000884282
0.000885295
0.000881426
0.000882994
0.000877219
0.000879562
0.00086971
0.000873617
0.000863256
0.00086649
0.000891512
0.00086017
0.000876494
0.000924006
0.000908701
0.000957258
0.000941017
0.000987727
0.000972394
0.00101868
0.00100321
0.00104977
0.00103424
0.00108098
0.00106539
0.0011123
0.00109665
0.00114373
0.00112803
0.00117527
0.00115952
0.00120689
0.0011911
0.00123859
0.00122276
0.00127032
0.00125448
0.00130208
0.00128623
0.0013338
0.00131797
0.00136545
0.00134967
0.00139696
0.00138126
0.00142829
0.00141269
0.00145935
0.00144389
0.00149006
0.00147479
0.00152032
0.00150528
0.00155003
0.00153528
0.00157906
0.00156467
0.00160729
0.00159332
0.00163459
0.0016211
0.00166081
0.00164788
0.00168579
0.0016735
0.00170942
0.00169782
0.00173152
0.00172071
0.00175166
0.00174191
0.00176958
0.001761
0.00178538
0.00177751
0.00179992
0.00179389
0.00180045
0.00181262
0.00181535
0.0018317
0.00182647
0.00179658
0.00179814
0.00181867
0.00180521
0.00180796
0.000872553
0.000855737
0.000848165
0.000845311
0.00181597
0.00181624
0.00182297
0.00182824
0.00183196
0.00183409
0.00180556
0.00179854
0.00179879
0.00180888
0.00181767
0.00182692
0.00183359
0.00182386
0.0018277
0.00184071
0.00183997
0.00183564
0.00183436
0.00181787
0.00182253
0.00179784
0.00179837
0.00179295
0.00177974
0.00179437
0.0017614
0.00176836
0.00174627
0.00175532
0.00172744
0.00173708
0.00170629
0.00171711
0.00168386
0.00169531
0.0016596
0.00167194
0.00163437
0.0016471
0.00160828
0.00162149
0.00158105
0.00159482
0.00155281
0.00156707
0.00152378
0.0015384
0.00149412
0.00150904
0.001464
0.00147913
0.0014335
0.00144881
0.00140273
0.00141817
0.00137173
0.00138728
0.00134059
0.0013562
0.00130934
0.001325
0.00127802
0.00129371
0.00124669
0.00126238
0.00121536
0.00123104
0.00118406
0.00119972
0.00115282
0.00116845
0.00112164
0.00113724
0.00109055
0.00110611
0.00105954
0.00107505
0.00102861
0.00104408
0.000997755
0.00101319
0.000966978
0.00098237
0.000936751
0.000951733
0.000903935
0.000920603
0.000887362
0.000851982
0.000843527
0.000848463
0.000859336
0.000855656
0.000863786
0.000861712
0.000867402
0.000865724
0.000869797
0.000868766
0.000870842
0.000870491
0.00087051
0.000870848
0.000868829
0.000869835
0.000865884
0.000867507
0.00086178
0.000864007
0.000854991
0.000858768
0.000851388
0.000889063
0.000856855
0.000874094
0.000921238
0.000904981
0.000952744
0.000937476
0.000983324
0.000968001
0.00101413
0.000998736
0.00104506
0.0010296
0.00107611
0.0010606
0.00110728
0.00109171
0.00113856
0.00112294
0.00116994
0.00115427
0.00120141
0.0011857
0.00123295
0.0012172
0.00126453
0.00124876
0.00129612
0.00128035
0.00132767
0.00131193
0.00135915
0.00134346
0.0013905
0.00137488
0.00142166
0.00140614
0.00145254
0.00143717
0.00148307
0.00146789
0.00151316
0.00149821
0.00154269
0.00152803
0.00157155
0.00155724
0.00159962
0.00158573
0.00162677
0.00161336
0.00165285
0.00163999
0.00167771
0.00166548
0.00170121
0.00168968
0.00172316
0.00171243
0.00174323
0.00173349
0.0017612
0.00175254
0.00177719
0.00176935
0.00179047
0.00178459
0.00180078
0.00179538
0.00181493
0.00180331
0.00182187
0.00181423
0.0018079
0.00182181
0.00182412
0.00180706
0.00180852
0.00084016
0.000841476
0.00182368
0.00181535
0.00181767
0.00182542
0.00182528
0.00183139
0.0018359
0.00183891
0.00184036
0.0018029
0.00179391
0.00178896
0.00180645
0.00180095
0.0018113
0.00180211
0.00181414
0.001818
0.00182949
0.0018329
0.00183788
0.00183342
0.00184527
0.00184258
0.00183735
0.00183248
0.00182451
0.00181897
0.00180829
0.00179926
0.00180008
0.00178707
0.0017768
0.00176747
0.00178367
0.00175313
0.00175976
0.0017373
0.00174586
0.00171835
0.00172808
0.00169743
0.00170813
0.00167501
0.00168643
0.00165101
0.00166321
0.00162591
0.00163859
0.00159985
0.00161303
0.00157274
0.00158644
0.0015447
0.00155885
0.00151587
0.00153039
0.00148643
0.00150124
0.00145652
0.00147155
0.00142622
0.00144143
0.00139564
0.00141098
0.00136484
0.00138028
0.00133388
0.00134939
0.0013028
0.00131837
0.00127167
0.00128726
0.00124051
0.00125611
0.00120935
0.00122495
0.00117823
0.0011938
0.00114715
0.0011627
0.00111615
0.00113166
0.00108522
0.00110069
0.00105437
0.0010698
0.00102361
0.001039
0.000992933
0.00100828
0.000962347
0.000977646
0.000931995
0.000947123
0.000900898
0.000916851
0.0008693
0.000884092
0.000837199
0.000853023
0.000829234
0.000821474
0.000825851
0.000837376
0.000832805
0.000843937
0.000841237
0.000848402
0.000846239
0.000851987
0.000850342
0.000854334
0.000853322
0.000855363
0.000855017
0.000855041
0.000855371
0.000853388
0.000854378
0.000850457
0.000852079
0.000846395
0.000848545
0.000841375
0.000844123
0.000833791
0.000837643
0.00082652
0.00082996
0.000854058
0.000823382
0.000838551
0.000886273
0.000869842
0.000917815
0.000901771
0.000948178
0.000933018
0.000978708
0.000963448
0.00100936
0.000994043
0.00104013
0.00102475
0.00107102
0.00105558
0.00110202
0.00108653
0.00113314
0.0011176
0.00116435
0.00114876
0.00119565
0.00118002
0.00122702
0.00121136
0.00125843
0.00124275
0.00128985
0.00127417
0.00132123
0.00130557
0.00135253
0.00133692
0.0013837
0.00136817
0.00141467
0.00139924
0.00144537
0.00143009
0.00147571
0.00146062
0.00150562
0.00149076
0.00153497
0.0015204
0.00156366
0.00154944
0.00159157
0.00157775
0.00161856
0.00160522
0.0016445
0.0016317
0.00166923
0.00165706
0.00169261
0.00168114
0.00171444
0.00170377
0.00173445
0.00172472
0.00175242
0.00174374
0.00176834
0.00176063
0.00178166
0.00177551
0.00179179
0.00178713
0.00179998
0.00179613
0.00179835
0.00183002
0.00183198
0.00181531
0.00180975
0.00181702
0.00181832
0.00183197
0.00182474
0.00182679
0.000834022
0.000817759
0.00081135
0.000807598
0.00183399
0.00183373
0.00183909
0.00184288
0.00184512
0.00184594
0.00179464
0.00178915
0.00177772
0.0017831
0.00180936
0.00181173
0.00182515
0.0018223
0.00183523
0.00183881
0.00184044
0.00184855
0.0018445
0.00183918
0.00182915
0.00182573
0.00181739
0.00180196
0.00180775
0.00181817
0.00178901
0.00177284
0.00178863
0.00179442
0.00177353
0.00177114
0.00175859
0.00177001
0.00174423
0.00175115
0.00172788
0.00173651
0.00170898
0.00171869
0.00168821
0.00169883
0.00166586
0.00167724
0.00164204
0.00165414
0.00161706
0.0016297
0.00159109
0.00160422
0.00156411
0.00157774
0.00153625
0.00155031
0.00150763
0.00152205
0.0014784
0.00149311
0.00144869
0.00146362
0.0014186
0.00143371
0.00138822
0.00140347
0.00135762
0.00137296
0.00132685
0.00134227
0.00129597
0.00131144
0.00126502
0.00128052
0.00123404
0.00124955
0.00120307
0.00121857
0.00117212
0.00118761
0.00114123
0.00115669
0.0011104
0.00112583
0.00107965
0.00109503
0.00104898
0.00106432
0.0010184
0.00103369
0.0009879
0.00100315
0.000957501
0.000972706
0.000927222
0.000942355
0.000897138
0.000912194
0.000865471
0.000880864
0.000849742
0.000815312
0.000806428
0.000811573
0.000822757
0.000818828
0.000828449
0.000825834
0.000833043
0.000830857
0.000836571
0.000834955
0.000838879
0.000837883
0.000839893
0.000839552
0.00083958
0.000839903
0.00083796
0.000838931
0.000835091
0.000836678
0.000831065
0.00083321
0.00082608
0.000828736
0.000818834
0.000822735
0.000814927
0.000851024
0.000820462
0.000835362
0.000883067
0.000866687
0.000913186
0.000897998
0.000943516
0.000928363
0.000973906
0.000958725
0.00100439
0.000989158
0.00103499
0.0010197
0.00106571
0.00105036
0.00109654
0.00108113
0.00112748
0.00111202
0.00115852
0.00114301
0.00118964
0.0011741
0.00122083
0.00120526
0.00125205
0.00123647
0.00128329
0.0012677
0.00131448
0.00129892
0.0013456
0.00133008
0.00137657
0.00136114
0.00140735
0.00139203
0.00143786
0.00142268
0.00146802
0.00145302
0.00149773
0.00148297
0.0015269
0.00151243
0.00155542
0.00154128
0.00158316
0.00156943
0.00161
0.00159673
0.0016358
0.00162307
0.00166041
0.0016483
0.00168367
0.00167226
0.0017054
0.00169478
0.00172536
0.00171565
0.00174334
0.00173465
0.00175921
0.00175157
0.00177255
0.00176631
0.00178302
0.00177815
0.0017903
0.00178729
0.00179378
0.00179211
0.00180046
0.00179142
0.0017942
0.00178957
0.00179414
0.00183741
0.00183832
0.00182632
0.00182751
0.000802834
0.000804072
0.00183955
0.00183335
0.00183527
0.00184185
0.00184147
0.00184608
0.00184909
0.00185057
0.00185041
0.00176889
0.00177296
0.00177212
0.00178757
0.00179178
0.00179924
0.00181869
0.00181893
0.00183092
0.00183254
0.00183922
0.00184263
0.00185076
0.00184573
0.00183876
0.00183202
0.00182266
0.00181123
0.0017995
0.00178296
0.00179401
0.00178337
0.00182741
0.00178742
0.00176352
0.00177662
0.00177332
0.00177528
0.00177912
0.00176155
0.00176725
0.00174988
0.00175715
0.00173492
0.00174243
0.00171825
0.00172693
0.00169939
0.00170908
0.0016787
0.00168928
0.00165644
0.00166778
0.00163276
0.00164478
0.0016079
0.00162048
0.00158203
0.00159511
0.00155519
0.00156875
0.0015275
0.00154147
0.00149908
0.0015134
0.00147006
0.00148466
0.00144056
0.00145539
0.00141068
0.00142568
0.0013805
0.00139564
0.00135009
0.00136534
0.00131952
0.00133485
0.00128884
0.00130421
0.00125809
0.00127349
0.0012273
0.00124272
0.00119652
0.00121193
0.00116577
0.00118116
0.00113506
0.00115043
0.00110442
0.00111975
0.00107386
0.00108915
0.00104337
0.00105862
0.00101298
0.00102818
0.000982672
0.000997831
0.000952464
0.000967573
0.000922364
0.000937417
0.00089252
0.000907404
0.000861522
0.000876872
0.00083085
0.000846281
0.000799844
0.000814679
0.000792171
0.000784056
0.000788639