/*--------------------------------*- C++ -*----------------------------------*\
  =========                 |
  \\      /  F ield         | OpenFOAM: The Open Source CFD Toolbox
   \\    /   O peration     | Website:  https://openfoam.org
    \\  /    A nd           | Version:  10
     \\/     M anipulation  |
\*---------------------------------------------------------------------------*/
FoamFile
{
    format      ascii;
    class       volVectorField;
    location    "93";
    object      U;
}
// * * * * * * * * * * * * * * * * * * * * * * * * * * * * * * * * * * * * * //

dimensions      [0 1 -1 0 0 0 0];

internalField   nonuniform List<vector> 
28942
(
(0.00442735 -0.00225549 -3.38221e-22)
(0.00599272 -0.0023384 -6.27178e-23)
(0.017933 -0.0123844 -8.32633e-22)
(0.103306 0.0182353 -5.27384e-21)
(0.102344 0.0222778 1.7266e-21)
(0.0133024 0.000399839 0)
(0.0158018 -1.21242e-05 9.68855e-24)
(0.018344 0.000515513 -8.52616e-24)
(0.135234 -0.0184488 -2.58037e-22)
(0.133891 -0.016815 7.34155e-22)
(0.00979235 0.00401473 -6.62244e-22)
(0.0160638 0.00562786 2.50253e-22)
(0.00713559 0.00315233 0)
(0.00470631 0.00206982 0)
(0.0418425 0.00189964 -1.36626e-23)
(0.0401255 0.00242564 -5.58481e-24)
(0.0893152 0.0158896 6.69689e-22)
(0.0870031 0.0138581 1.07768e-21)
(0.0121629 -0.0151103 2.93156e-21)
(0.0293267 -0.0304629 -7.71608e-22)
(0.0981161 0.0374016 9.55509e-22)
(0.097295 0.0344373 0)
(0.0187347 0.00462533 1.15547e-21)
(0.00786164 0.00236276 5.4412e-22)
(0.0377893 0.00720871 9.31937e-22)
(0.0575192 0.00291031 -8.49587e-22)
(0.00764707 -0.0184876 8.52542e-21)
(0.00669318 -0.0165523 -3.13956e-21)
(0.0355043 -0.0253191 5.77178e-22)
(0.0192974 -0.01368 1.99304e-22)
(0.0136607 -0.0012474 0)
(0.0170768 -0.00106764 -1.2414e-23)
(0.0217235 0.00397822 2.61221e-22)
(0.0313783 0.00181021 -3.9339e-23)
(0.0188246 0.0180092 1.31872e-21)
(0.0157194 0.0191194 -1.31161e-21)
(0.0321682 0.0376175 -3.06082e-21)
(0.0186685 0.0305362 -1.07046e-21)
(0.0072742 -2.27064e-05 -8.065e-24)
(0.00864857 0.0161972 -2.62031e-21)
(0.0306494 -0.00620317 0)
(0.0513427 -0.0109694 0)
(0.111773 -0.0116757 -2.74609e-23)
(0.111263 -0.0116732 8.09616e-23)
(0.115833 -0.0115688 7.05589e-23)
(0.0259043 0.00015355 1.03893e-23)
(0.024113 -0.000592713 -1.666e-23)
(0.0345395 -0.000480854 -7.67055e-23)
(0.0330856 -0.000549673 2.18945e-23)
(0.0268443 -0.0025481 -1.91762e-22)
(0.0199198 -0.0030343 1.24819e-22)
(0.128659 0.00128357 -4.04616e-22)
(0.127973 0.000812696 -3.77855e-22)
(0.134552 -0.0212145 -3.76943e-24)
(0.133005 -0.0194886 1.40091e-22)
(0.0824674 0.00634875 7.06556e-22)
(0.101719 -0.000771146 2.43657e-22)
(0.00305761 0.00162032 -5.58163e-22)
(0.0089401 0.00367844 0)
(0.00825484 0.00328797 2.34714e-22)
(0.0028817 0.00148761 4.81556e-22)
(0.000362077 0.00022616 -4.00554e-22)
(0.000192796 0.000122624 -3.845e-22)
(0.109754 -0.0426053 0)
(0.104883 -0.0256118 1.23479e-22)
(0.121753 -0.0331177 -4.19039e-23)
(0.123402 -0.0437706 0)
(0.0901037 -0.0328029 -6.4043e-22)
(0.0936074 -0.0352702 -4.20975e-22)
(0.00188414 -0.00112903 1.11809e-21)
(0.00248756 -0.00201659 -3.52336e-22)
(0.00487095 -0.00315461 8.74127e-22)
(0.084872 -0.0457588 0)
(0.0911985 -0.0396233 2.17427e-21)
(0.0805403 -0.0530238 5.87569e-22)
(0.114114 0.0124112 2.31362e-22)
(0.112711 0.00691014 -2.56698e-22)
(0.125081 0.0110169 -1.07245e-22)
(0.00468296 -0.0028616 -5.39197e-23)
(0.00633793 -0.00442548 4.53484e-22)
(0.0510034 -0.0311444 1.28172e-22)
(0.033151 -0.0205348 -2.58354e-22)
(0.00211017 -0.000595541 3.18553e-21)
(0.0051555 -0.00207167 -1.24146e-21)
(0.100976 0.0482493 1.49216e-23)
(0.0970255 0.0552168 -7.69789e-22)
(0.080718 0.0540127 7.02937e-22)
(0.0472027 0.0345097 -2.69685e-21)
(0.044431 0.0316055 1.90997e-21)
(0.0294905 0.0205948 -1.14334e-22)
(0.0327111 0.0232476 -6.44306e-22)
(0.0379521 0.0283574 8.73768e-22)
(0.00440722 0.00272982 -5.76966e-23)
(0.007759 0.00398113 -1.66798e-23)
(0.00318789 0.00202205 3.34246e-23)
(0.00192304 0.00164651 -4.46633e-22)
(0.00144993 0.00157089 5.47392e-22)
(0.0157416 0.0115433 -3.2696e-21)
(0.0174944 0.0136351 7.49156e-22)
(0.00880243 -0.00384574 0)
(0.101389 0.00515937 0)
(0.0984003 0.0156832 -3.9668e-21)
(0.0604415 0.0104756 1.9482e-21)
(0.0886813 0.0178811 0)
(0.135443 -0.00106961 0)
(0.134881 -0.00178278 0)
(0.133186 -0.0022777 -2.61881e-22)
(0.114973 0.0266157 -2.13053e-22)
(0.114064 0.0280181 2.10595e-21)
(0.113267 0.0254779 1.13007e-21)
(0.00229338 0.0012991 1.03986e-21)
(0.00151106 0.000777265 -1.16714e-21)
(0.0190417 -0.00553182 -5.43126e-22)
(0.0201204 -0.00505977 4.62907e-22)
(0.00909498 -0.00292525 9.14991e-22)
(0.00647654 0.0111507 1.48114e-21)
(0.0189675 0.0181626 3.46286e-21)
(0.0134648 0.0228015 2.72178e-22)
(0.00492076 0.0143072 -8.63684e-21)
(0.11698 0.0477551 5.60301e-23)
(0.107859 0.0582441 1.07598e-21)
(0.118318 0.0548831 -1.85566e-21)
(0.0390832 -0.0294122 7.34287e-22)
(0.0240045 -0.0172616 -4.70147e-22)
(0.00532071 -0.000740136 -4.10928e-21)
(0.0045378 -0.00359012 0)
(0.0124953 -0.00166949 2.00632e-21)
(0.0219599 -0.0161273 7.81007e-22)
(0.0342484 -0.0277789 -1.96303e-21)
(0.0326492 -3.70686e-05 5.27745e-23)
(0.0347322 0.000117469 -3.9003e-23)
(0.0306465 0.000136276 -1.63247e-24)
(0.0280499 -0.04194 0)
(0.0295994 -0.0428312 0)
(0.0896237 -0.0186527 -4.64584e-22)
(0.0995916 -0.0220903 3.15559e-21)
(0.0870347 -0.0252785 0)
(0.0471081 -0.0401805 0)
(0.0581673 -0.0513749 -7.8591e-22)
(0.0413099 0.0393375 2.09041e-21)
(-2.28543e-06 0.000214496 5.05032e-22)
(-0.000194154 0.000130956 -3.32175e-22)
(0.0223222 -0.0192367 -7.93914e-22)
(0.12026 -0.0114401 3.98115e-22)
(0.119624 -0.0113841 -7.69893e-23)
(0.115409 -0.00572831 -6.4724e-23)
(0.108335 0.000974491 8.62538e-23)
(0.1176 -0.000327777 1.71746e-22)
(8.2241e-05 0.00025902 1.95251e-22)
(0.0437415 0.0344177 3.21601e-21)
(0.0618692 0.0463072 -7.91233e-22)
(0.059303 0.039363 -3.04437e-24)
(0.0212789 -0.000783284 5.24815e-24)
(0.0209641 -0.000760096 2.71718e-23)
(0.0227547 -0.000529938 9.84147e-25)
(0.0254181 -0.000552662 -1.34136e-23)
(0.0454162 0.038089 1.33758e-22)
(0.0189604 0.0160583 0)
(0.000137941 -2.712e-05 3.6218e-22)
(0.000420777 -0.000254705 -4.01832e-22)
(0.00185747 -0.00100687 2.79945e-22)
(0.0365428 -0.0077162 -1.82885e-21)
(0.0648489 -0.00209703 -7.4472e-22)
(0.029587 -0.000171725 -2.13107e-24)
(0.0744622 -0.00764413 2.69562e-22)
(0.0706749 -0.0157263 5.58074e-23)
(0.0943027 0.0399238 2.14993e-21)
(0.0914031 0.0454592 9.92837e-23)
(0.0887477 0.0290903 1.21899e-21)
(0.091473 0.0308072 -8.83391e-22)
(0.0986945 0.0410853 0)
(0.126121 -0.000308065 1.50494e-22)
(0.126891 -0.000740541 2.84379e-22)
(0.128093 -0.0123562 -2.97608e-22)
(0.129557 -0.012162 5.09489e-22)
(0.117054 0.0241606 2.61391e-22)
(0.119111 0.0250623 -7.40298e-22)
(0.117099 0.0261729 0)
(0.115134 0.0249096 1.54019e-22)
(0.116671 0.0280948 0)
(0.117171 0.0361156 -5.54031e-22)
(0.115709 0.0381667 -3.02358e-22)
(0.111335 0.0419781 -5.43039e-22)
(0.113729 0.040111 0)
(0.116417 0.0430866 1.79741e-21)
(0.113695 0.0450085 4.7386e-23)
(0.108329 0.0441884 -3.04915e-22)
(0.0996263 0.0502896 -1.2922e-21)
(0.0984173 0.0455012 -2.27602e-22)
(0.0249391 -0.00846263 5.62241e-23)
(0.0327912 -0.0093186 -2.24189e-23)
(0.00627918 -0.00248469 -6.83831e-22)
(0.0289973 -9.68883e-05 -3.3238e-23)
(0.0372345 -0.0002752 0)
(-3.18675e-06 -3.97608e-05 4.26243e-22)
(1.30095e-05 -4.7127e-05 2.17205e-22)
(0.0336639 -0.00174869 1.59775e-23)
(0.0398473 -0.00170234 6.63683e-24)
(0.0394168 -0.0011777 0)
(0.0325507 -0.000816309 7.03535e-24)
(0.0852839 0.00329939 -1.0951e-22)
(0.0845115 0.00298388 5.17386e-22)
(0.0853662 0.0030627 2.39647e-22)
(0.0006705 0.000271892 3.87952e-22)
(-0.000159413 -0.000129278 -5.62805e-22)
(-0.00020106 -0.000169019 4.79154e-22)
(0.00149964 0.00061714 0)
(7.98364e-05 8.77213e-05 1.13058e-21)
(0.000171813 -3.90277e-05 -8.14009e-22)
(0.0074458 0.0036723 -9.84261e-22)
(0.00145107 0.000781005 -1.17745e-21)
(0.00171995 0.000860326 0)
(0.00157197 0.00754435 0)
(0.000576937 0.00328137 0)
(0.000313305 0.00197697 0)
(0.136619 -0.00108016 5.77393e-23)
(0.137633 -0.000914062 0)
(0.135991 -0.00186399 -6.72546e-23)
(0.0881098 -0.0148525 4.4371e-21)
(0.0901165 -0.015262 -1.61068e-21)
(0.089032 -0.0128772 0)
(0.095453 0.000366704 -6.40309e-24)
(0.0959977 0.000360859 1.28153e-23)
(0.0949056 0.000371821 -4.33286e-24)
(0.0965367 0.000356443 0)
(0.0970738 0.000359704 -8.17005e-24)
(0.0976041 0.000357641 0)
(0.097596 -0.000204813 0)
(0.0981257 0.000344758 3.0317e-23)
(0.0981119 -0.000220863 0)
(0.0970719 -0.000200368 -8.22796e-24)
(0.0965349 -0.000201257 0)
(0.0959947 -0.00020152 4.28508e-24)
(0.0954473 -0.0002059 -6.40087e-24)
(0.0949013 -0.000209567 4.32745e-24)
(0.098634 0.000330132 -2.90109e-23)
(0.0986256 -0.000231479 -1.01424e-24)
(0.0943488 0.000381925 6.57842e-29)
(0.0943392 -0.000207477 -6.61475e-24)
(0.0937814 0.00038993 3.51854e-23)
(0.0991349 0.000321327 2.71007e-26)
(0.0991425 -0.000234894 -1.01476e-24)
(0.0937746 -0.000213148 1.30381e-23)
(0.0996375 0.000311356 2.72873e-23)
(0.100137 0.000303367 -2.72649e-23)
(0.0996496 -0.000239314 2.04363e-24)
(0.100151 -0.000242419 4.03828e-24)
(0.0932298 0.00040799 -3.42336e-23)
(0.0932153 -0.00021733 -8.58234e-24)
(0.100632 0.000293731 0)
(0.100648 -0.000246759 -3.9831e-24)
(0.0926552 0.000416521 4.23595e-27)
(0.0926418 -0.000216644 -4.24657e-27)
(0.101123 0.000285839 0)
(0.101139 -0.000249966 0)
(0.0920741 0.000421662 0)
(0.0920604 -0.000219462 0)
(0.101609 0.00027609 0)
(0.101627 -0.000254546 1.91273e-24)
(0.0914866 0.000426745 -1.77738e-23)
(0.0914721 -0.000221474 -4.33752e-27)
(0.102092 0.000268039 1.0026e-25)
(0.10211 -0.000257941 -2.04279e-24)
(0.0908922 0.000429952 1.78588e-23)
(0.0908774 -0.000225108 0)
(0.102571 0.000258041 0)
(0.102589 -0.000262585 0)
(0.0902918 0.000433616 -1.13016e-24)
(0.0902763 -0.000226745 1.9398e-23)
(0.103046 0.000249785 1.23934e-23)
(0.103064 -0.000265687 0)
(0.0896854 0.00043556 -1.01558e-25)
(0.0896687 -0.000228543 -1.83599e-23)
(0.103517 0.000239752 -1.85367e-23)
(0.103536 -0.00026991 -5.3793e-24)
(0.0890594 0.000431251 1.8721e-23)
(0.0890457 -0.000230852 0)
(0.103986 0.00023246 6.10503e-24)
(0.104006 -0.000269333 3.5875e-24)
(0.0884296 0.000433298 -9.47816e-24)
(0.0884161 -0.000235868 1.92188e-23)
(0.104449 0.000227087 -2.43764e-23)
(0.104477 -0.000262826 2.74745e-23)
(0.0877685 0.000421014 9.77147e-24)
(0.0877642 -0.0002465 3.0928e-25)
(0.104917 0.00022377 0)
(0.10494 -0.000257062 1.30905e-23)
(0.0870988 0.000408983 -1.96583e-23)
(0.0871017 -0.000264046 3.93245e-23)
(0.105398 0.000212063 0)
(0.105406 -0.000257027 0)
(0.0880707 0.00108369 -9.6688e-24)
(0.0873949 0.00108052 -3.91395e-23)
(0.0864046 0.000390711 0)
(0.0864246 -0.00029284 -2.00374e-23)
(0.0893702 0.00108101 -6.06939e-24)
(0.0887245 0.0010832 1.19207e-24)
(0.0905983 0.00106362 0)
(0.0899832 0.00107182 -1.96008e-23)
(0.0917874 0.00104243 -3.78288e-26)
(0.0911968 0.00105355 0)
(0.0929468 0.00101757 0)
(0.0923706 0.00103041 0)
(0.0940789 0.000985849 0)
(0.0935167 0.00100326 0)
(0.0951637 0.000951858 8.55462e-24)
(0.0946183 0.000967923 2.15725e-24)
(0.0962436 0.000927863 -8.2493e-24)
(0.0957101 0.000939845 -8.54309e-24)
(0.0973001 0.000907037 1.46421e-23)
(0.0967682 0.000912079 1.87039e-23)
(0.0983554 0.000888991 0)
(0.0978303 0.000900825 0)
(0.0993713 0.000867315 -6.42716e-26)
(0.0988671 0.000878134 0)
(0.100365 0.000842606 0)
(0.0998705 0.000855194 0)
(0.101342 0.000816401 0)
(0.100856 0.000829534 0)
(0.102302 0.000789703 0)
(0.101824 0.000803016 0)
(0.103246 0.000762934 0)
(0.102776 0.000776234 0)
(0.104175 0.000736373 0)
(0.103712 0.000749577 0)
(0.105095 0.000694779 -9.959e-24)
(0.104635 0.000721998 0)
(0.105558 0.000672269 -3.21544e-24)
(0.10587 0.000196318 3.13947e-24)
(0.105876 -0.000261251 -3.11335e-24)
(0.104649 -0.000723843 0)
(0.105571 -0.000716773 -1.27759e-23)
(0.10511 -0.000718921 -6.58357e-24)
(0.103716 -0.000733567 1.80291e-24)
(0.104183 -0.000729734 -7.05372e-24)
(0.102776 -0.000736586 5.83953e-26)
(0.103247 -0.000736242 0)
(0.10182 -0.000736606 0)
(0.1023 -0.000736461 0)
(0.100847 -0.000737833 0)
(0.101336 -0.000736944 0)
(0.0998555 -0.00074115 0)
(0.100354 -0.000739106 7.69166e-30)
(0.0988442 -0.000747805 6.49331e-26)
(0.0993522 -0.000743897 0)
(0.0978174 -0.000750874 0)
(0.0983305 -0.000750425 0)
(0.0967639 -0.000754912 0)
(0.0972916 -0.000751947 0)
(0.0956884 -0.000766719 0)
(0.0962274 -0.000758032 -4.33079e-24)
(0.0945891 -0.000786324 1.13999e-24)
(0.095141 -0.000779167 -5.5891e-24)
(0.0934777 -0.000810007 0)
(0.0940404 -0.000796509 -4.54787e-24)
(0.0923301 -0.000830114 0)
(0.0929076 -0.000820053 0)
(0.0911531 -0.000850906 0)
(0.0917453 -0.000840382 0)
(0.0899418 -0.000870878 0)
(0.0905529 -0.000861053 0)
(0.08869 -0.000891722 -4.96526e-24)
(0.0893223 -0.000879913 0)
(0.0874018 -0.000931395 -2.01196e-23)
(0.0880505 -0.000906421 -4.99131e-24)
(0.0867345 -0.000961403 2.04844e-23)
(0.0867042 0.00107883 3.88112e-23)
(0.106023 0.000653121 6.29452e-24)
(0.106033 -0.00071515 -1.22938e-23)
(0.0857249 -0.000332461 0)
(0.0860581 -0.00100567 0)
(0.0859994 0.00107681 0)
(0.0856952 0.00036514 0)
(0.0886635 0.00173267 0)
(0.0873332 0.0017626 9.71855e-24)
(0.088004 0.00174571 9.81002e-24)
(0.0899447 0.00170175 1.2464e-23)
(0.0893111 0.00171815 -2.49154e-24)
(0.0911516 0.00166316 3.85224e-26)
(0.0905542 0.00168229 0)
(0.0923223 0.00162468 0)
(0.0917409 0.00164405 0)
(0.093463 0.00158554 0)
(0.0928962 0.00160518 0)
(0.094578 0.00154833 0)
(0.0940233 0.00156598 0)
(0.0956613 0.00150946 0)
(0.0951231 0.0015294 0)
(0.0967227 0.00147474 -3.45679e-26)
(0.0961913 0.00149281 8.91887e-24)
(0.0977521 0.00143799 -3.31601e-26)
(0.0972429 0.00145566 -1.73946e-23)
(0.0987788 0.0013999 0)
(0.0982665 0.00141799 0)
(0.0997789 0.00136516 3.20917e-26)
(0.0992818 0.00138234 0)
(0.100758 0.00133058 0)
(0.100271 0.00134791 0)
(0.101719 0.00129574 0)
(0.101241 0.00131316 0)
(0.102664 0.00126096 0)
(0.102194 0.00127831 0)
(0.103593 0.00122651 0)
(0.10313 0.00124367 0)
(0.104507 0.00119152 0)
(0.104052 0.00120931 0)
(0.105411 0.00114449 6.80228e-24)
(0.10496 0.00117018 0)
(0.106341 0.000185009 0)
(0.106483 0.000634416 6.15328e-24)
(0.106317 0.00109733 0)
(0.105863 0.00112048 6.62597e-24)
(0.105883 -0.00116939 1.31823e-23)
(0.106336 -0.00116417 3.23716e-24)
(0.106496 -0.000717738 2.52711e-23)
(0.106344 -0.000263166 0)
(0.104975 -0.00118319 0)
(0.105429 -0.00117591 -1.99031e-23)
(0.104058 -0.00119655 5.6726e-26)
(0.104518 -0.00118893 7.09662e-24)
(0.103131 -0.00120556 -5.83951e-26)
(0.103596 -0.00120137 0)
(0.102188 -0.00121395 0)
(0.102661 -0.00120961 0)
(0.101229 -0.00122405 0)
(0.101711 -0.0012187 0)
(0.100251 -0.00123681 0)
(0.100742 -0.00123004 -7.69164e-30)
(0.0992556 -0.00125283 -1.29788e-25)
(0.0997556 -0.00124441 0)
(0.0982429 -0.00127032 0)
(0.0987514 -0.00126152 0)
(0.0972049 -0.00129035 2.18498e-24)
(0.0977273 -0.00127963 0)
(0.0961485 -0.00131277 0)
(0.0966776 -0.00129933 -2.17587e-24)
(0.0950681 -0.00134282 4.55731e-24)
(0.0956079 -0.00132747 4.52892e-24)
(0.0939632 -0.00137279 0)
(0.09452 -0.00135778 0)
(0.0928306 -0.00140659 0)
(0.0934003 -0.00138933 0)
(0.0916691 -0.001443 0)
(0.0922536 -0.00142446 0)
(0.0904751 -0.00148219 0)
(0.0910764 -0.00146215 0)
(0.0892451 -0.00152574 7.94277e-26)
(0.089865 -0.00150334 0)
(0.0879756 -0.00157652 -8.05531e-26)
(0.0886164 -0.00155034 0)
(0.0866701 -0.00165916 -2.10705e-23)
(0.0873266 -0.00161436 2.10609e-23)
(0.0866466 0.00177971 1.97821e-23)
(0.085375 -0.00106117 0)
(0.0860053 -0.00171625 -4.28612e-23)
(0.0850222 -0.000378913 0)
(0.10677 0.00107986 0)
(0.10679 -0.00115934 -3.13911e-24)
(0.0852869 0.0010746 5.01004e-23)
(0.0859525 0.00179762 2.00426e-23)
(0.0846748 -0.00111937 1.08355e-23)
(0.085329 -0.00178083 5.41656e-23)
(0.0849717 0.000335291 0)
(0.106752 0.00153721 2.58916e-23)
(0.107191 0.001514 -1.27857e-23)
(0.106951 -0.00071727 -6.21818e-24)
(0.107237 -0.00115263 3.09135e-23)
(0.0869555 0.0024937 7.03096e-23)
(0.0852375 0.00181498 -3.94767e-23)
(0.0855558 0.00255052 -1.76532e-22)
(0.0862528 0.00251916 -4.01711e-23)
(0.0882767 0.00242604 1.95609e-23)
(0.0876229 0.00246104 -5.98122e-23)
(0.0895423 0.0023617 -1.99992e-23)
(0.088917 0.00239355 -1.50915e-23)
(0.0907752 0.00230458 -4.98384e-24)
(0.0901664 0.00233395 -4.9887e-24)
(0.0919549 0.00224989 -3.85224e-26)
(0.091372 0.00227746 0)
(0.0930971 0.00219519 0)
(0.0925299 0.0022224 0)
(0.0942097 0.00214187 0)
(0.0936569 0.00216835 0)
(0.0952958 0.00209079 0)
(0.0947559 0.00211589 0)
(0.0963557 0.00204205 0)
(0.0958288 0.00206581 0)
(0.0973908 0.00199355 0)
(0.0968757 0.00201741 0)
(0.0984031 0.00194671 6.04745e-29)
(0.0979004 0.00197103 0)
(0.0993976 0.00189895 0)
(0.0989021 0.00192231 0)
(0.100373 0.0018536 3.20124e-26)
(0.099888 0.00187608 0)
(0.10133 0.00180942 0)
(0.100854 0.00183141 0)
(0.102269 0.00176596 0)
(0.101802 0.00178761 0)
(0.103192 0.00172317 0)
(0.102733 0.00174448 0)
(0.1041 0.001681 0)
(0.103648 0.00170202 0)
(0.104993 0.00163816 0)
(0.104548 0.00165992 0)
(0.105874 0.00158791 3.46297e-24)
(0.105435 0.00161379 -1.74304e-24)
(0.106314 0.00156277 -1.3211e-23)
(0.1068 0.00017759 -2.94732e-24)
(0.107218 0.00106183 1.23188e-23)
(0.106939 0.000621932 -9.42333e-24)
(0.106803 -0.000272778 0)
(0.106338 -0.00161266 -9.80999e-24)
(0.107216 -0.00159125 -2.82951e-23)
(0.106778 -0.00160246 2.27908e-23)
(0.105455 -0.00163578 0)
(0.105897 -0.0016234 0)
(0.104557 -0.00165043 -8.64836e-29)
(0.105006 -0.0016416 0)
(0.103649 -0.00166656 0)
(0.104105 -0.00165861 0)
(0.102726 -0.0016831 -5.98708e-26)
(0.10319 -0.00167464 0)
(0.101787 -0.00170179 0)
(0.102259 -0.00169212 0)
(0.10083 -0.00172342 0)
(0.101311 -0.00171222 0)
(0.0998561 -0.00174832 6.48646e-26)
(0.100345 -0.00173547 0)
(0.0988635 -0.00177612 6.64129e-26)
(0.0993622 -0.00176186 0)
(0.09785 -0.00180774 0)
(0.0983593 -0.00179132 0)
(0.0968154 -0.00184314 0)
(0.0973357 -0.00182518 0)
(0.0957578 -0.00188313 0)
(0.0962887 -0.00186217 0)
(0.0946757 -0.00192564 0)
(0.0952201 -0.00190382 0)
(0.0935673 -0.00197311 -7.45632e-26)
(0.0941249 -0.00194884 0)
(0.0924306 -0.00202474 0)
(0.0930027 -0.00199841 0)
(0.0912626 -0.00208089 0)
(0.0918507 -0.00205219 0)
(0.0900603 -0.00214279 -1.15957e-28)
(0.0906658 -0.00211106 0)
(0.0888216 -0.00221178 1.32934e-28)
(0.0894458 -0.00217643 0)
(0.0875491 -0.00229711 8.32542e-26)
(0.0881865 -0.00225001 0)
(0.086249 -0.00241629 -4.38051e-23)
(0.0869017 -0.00235161 1.07668e-23)
(0.0846404 -0.00184561 1.10225e-23)
(0.0855982 -0.00248829 2.18962e-23)
(0.084562 0.00106607 -1.96144e-23)
(0.0843012 -0.000428879 -2.09951e-23)
(0.107627 0.00149156 3.12841e-24)
(0.107656 -0.00158561 2.22345e-23)
(0.0844864 0.00181269 2.4757e-24)
(0.0839634 -0.00118434 0)
(0.0846143 0.00246479 2.70612e-22)
(0.08494 -0.00256286 3.36776e-23)
(0.0839557 -0.00191501 4.49438e-23)
(0.0863025 0.00341643 -4.45509e-22)
(0.0860672 0.00356078 8.17034e-23)
(0.0842522 0.000307701 0)
(0.0870423 0.0032544 4.51768e-23)
(0.0865657 0.00335753 2.30741e-23)
(0.0882437 0.00314864 4.07654e-23)
(0.0876061 0.00319146 -6.21721e-23)
(0.0894969 0.00305553 -2.02561e-23)
(0.0888818 0.00310377 -1.01147e-23)
(0.0906957 0.00297063 1.01479e-23)
(0.0901009 0.00301174 1.02837e-23)
(0.0918644 0.00289169 0)
(0.0912816 0.00292949 -1.97282e-26)
(0.0929969 0.00281903 0)
(0.0924347 0.00285523 0)
(0.0940999 0.00274895 3.76106e-26)
(0.0935519 0.00278357 0)
(0.0951756 0.00268198 0)
(0.094641 0.00271512 0)
(0.0962261 0.00261803 0)
(0.0957039 0.00264961 0)
(0.0972522 0.00255686 0)
(0.0967421 0.00258708 0)
(0.0982554 0.0024974 3.43933e-26)
(0.0977564 0.00252678 0)
(0.0992371 0.00243973 6.4648e-29)
(0.098749 0.00246876 0)
(0.1002 0.00238302 0)
(0.0997208 0.00241101 0)
(0.101145 0.00232842 -6.39657e-26)
(0.100675 0.00235552 0)
(0.102073 0.00227536 0)
(0.101611 0.00230172 0)
(0.102984 0.00222362 0)
(0.10253 0.00224935 0)
(0.103879 0.00217302 0)
(0.103433 0.00219819 0)
(0.104759 0.00212335 0)
(0.104321 0.0021481 0)
(0.105625 0.00207334 0)
(0.105194 0.00209858 0)
(0.106481 0.00202197 -1.72938e-24)
(0.106053 0.00204674 0)
(0.107327 0.00196657 0)
(0.106904 0.00199434 -3.34973e-24)
(0.108165 0.00190969 -3.06407e-27)
(0.107749 0.00193879 0)
(0.10766 0.00104484 -1.24899e-23)
(0.108591 0.00188782 7.51788e-25)
(0.108066 0.00147328 6.11193e-24)
(0.107249 0.000166371 4.49622e-24)
(0.107387 0.000608014 -3.10327e-24)
(0.107401 -0.000716803 -1.56339e-24)
(0.107255 -0.0002774 1.5594e-24)
(0.108093 -0.00158009 0)
(0.107682 -0.00115267 -1.41663e-23)
(0.107781 -0.00201935 -6.35803e-24)
(0.10863 -0.00200087 -1.21724e-23)
(0.108206 -0.0020098 2.79527e-23)
(0.106934 -0.00204642 -3.33792e-24)
(0.107359 -0.00203268 0)
(0.106076 -0.0020713 0)
(0.106506 -0.00205828 0)
(0.105206 -0.0020934 -1.0748e-28)
(0.105643 -0.00208252 0)
(0.104324 -0.00211639 0)
(0.104767 -0.0021048 0)
(0.103427 -0.00214078 5.98708e-26)
(0.103877 -0.00212833 0)
(0.102514 -0.00216776 0)
(0.102972 -0.00215391 0)
(0.101584 -0.00219799 0)
(0.102051 -0.00218246 0)
(0.100638 -0.00223181 0)
(0.101113 -0.00221446 0)
(0.0996727 -0.00226939 -1.19411e-28)
(0.100158 -0.00225012 0)
(0.0986881 -0.00231138 0)
(0.0991829 -0.00228979 0)
(0.097683 -0.00235775 0)
(0.0981883 -0.00233409 0)
(0.096656 -0.00240898 0)
(0.0971721 -0.00238265 0)
(0.0956056 -0.00246443 0)
(0.0961339 -0.00243609 0)
(0.0945297 -0.00252527 7.45632e-26)
(0.0950709 -0.0024942 0)
(0.0934268 -0.00259151 0)
(0.0939818 -0.00255772 0)
(0.0922944 -0.00266366 0)
(0.0928644 -0.0026268 0)
(0.0911302 -0.00274283 -7.93041e-26)
(0.0917164 -0.00270231 0)
(0.0899326 -0.00282988 8.08243e-26)
(0.0905357 -0.00278541 0)
(0.0887001 -0.00292639 -8.23135e-26)
(0.0893204 -0.00287673 0)
(0.0874434 -0.00304017 1.08212e-23)
(0.0880702 -0.00297872 -2.13448e-23)
(0.0861873 -0.00318652 -1.09016e-23)
(0.0868128 -0.00310827 2.21645e-23)
(0.0842686 -0.0026343 3.20687e-25)
(0.0855473 -0.00326512 2.23802e-23)
(0.0838179 0.00103993 -2.01182e-23)
(0.0835758 -0.000469084 0)
(0.0837159 0.00176195 -1.94623e-22)
(0.0832429 -0.00123396 0)
(0.108836 0.00232208 -3.11904e-24)
(0.109234 0.00229073 2.2849e-24)
(0.108524 -0.0015757 -1.19672e-23)
(0.109047 -0.00198692 -1.35381e-23)
(0.0836841 0.00241044 -1.89319e-22)
(0.0832604 -0.00198022 -4.53834e-23)
(0.08518 0.00355088 0)
(0.0877467 0.00406689 -5.16231e-23)
(0.0835961 -0.00270638 -2.22813e-23)
(0.0848977 -0.0033417 3.38711e-23)
(0.0871894 0.00406291 1.0363e-22)
(0.0835192 0.000277814 0)
(0.0886292 0.00388854 0)
(0.0881562 0.00398073 -4.59758e-23)
(0.0897691 0.00375769 0)
(0.0891825 0.00381982 0)
(0.0909393 0.00364619 0)
(0.0903573 0.0036992 1.04789e-23)
(0.0920692 0.00354611 0)
(0.091507 0.00359555 0)
(0.0931769 0.00345237 0)
(0.0926258 0.00349778 0)
(0.0942585 0.00336515 0)
(0.0937211 0.00340838 0)
(0.0953146 0.00328171 -3.76106e-26)
(0.0947897 0.00332293 0)
(0.0963461 0.00320216 0)
(0.0958333 0.00324149 0)
(0.0973542 0.00312624 0)
(0.096853 0.00316377 0)
(0.0983399 0.00305356 0)
(0.0978498 0.00308953 0)
(0.0993043 0.00298355 -7.77866e-29)
(0.0988246 0.00301822 0)
(0.100249 0.00291594 7.57048e-29)
(0.0997789 0.00294958 0)
(0.101175 0.00285023 0)
(0.100714 0.00288276 0)
(0.102084 0.00278685 7.13e-29)
(0.101632 0.00281829 0)
(0.102976 0.00272544 0)
(0.102532 0.00275592 0)
(0.103853 0.00266578 0)
(0.103416 0.00269541 0)
(0.104715 0.00260769 0)
(0.104286 0.00263657 0)
(0.105562 0.00255087 0)
(0.10514 0.00257916 0)
(0.106396 0.00249448 0)
(0.105981 0.0025227 0)
(0.10722 0.00243886 0)
(0.106809 0.00246659 0)
(0.108032 0.00238124 3.31824e-24)
(0.107625 0.00240882 3.40059e-24)
(0.108434 0.0023509 -6.36667e-24)
(0.108095 0.00102826 -6.13085e-24)
(0.109014 0.00186651 0)
(0.108492 0.00145083 -6.18326e-24)
(0.107692 0.000157316 0)
(0.107824 0.000596126 6.25692e-24)
(0.107841 -0.000718479 9.3395e-24)
(0.107697 -0.00028204 -3.1582e-24)
(0.108119 -0.00115003 -1.83455e-23)
(0.108475 -0.00243563 3.19643e-24)
(0.109281 -0.00240165 1.1879e-23)
(0.108885 -0.00242354 0)
(0.107661 -0.00246505 -6.63351e-24)
(0.108071 -0.00245097 6.65538e-24)
(0.106835 -0.00249344 0)
(0.107251 -0.00247967 0)
(0.105997 -0.00252215 -1.2665e-28)
(0.106417 -0.00250779 0)
(0.105145 -0.00255202 0)
(0.105573 -0.0025369 0)
(0.10428 -0.00258398 0)
(0.104714 -0.00256769 0)
(0.103399 -0.00261892 0)
(0.103841 -0.00260105 0)
(0.102502 -0.00265746 0)
(0.102953 -0.00263773 0)
(0.101589 -0.00270001 6.4515e-26)
(0.102048 -0.00267823 0)
(0.100659 -0.00274692 -6.62935e-26)
(0.101126 -0.00272291 0)
(0.0997094 -0.00279875 0)
(0.100186 -0.00277221 0)
(0.0987406 -0.00285557 0)
(0.0992276 -0.00282656 0)
(0.0977511 -0.00291775 0)
(0.0982485 -0.00288597 0)
(0.0967393 -0.00298528 0)
(0.0972481 -0.00295082 0)
(0.0957038 -0.00305886 0)
(0.0962246 -0.00302131 0)
(0.0946429 -0.00313883 0)
(0.0951766 -0.00309804 0)
(0.0935548 -0.00322575 -7.74388e-26)
(0.0941023 -0.00318138 0)
(0.0924379 -0.00332053 7.89855e-26)
(0.093 -0.00327211 0)
(0.0912913 -0.00342388 -8.04966e-26)
(0.0918684 -0.00337115 0)
(0.0901145 -0.00353617 0)
(0.0907065 -0.00347888 0)
(0.0889077 -0.0036573 0)
(0.0895143 -0.00359553 0)
(0.0876868 -0.00379219 8.58312e-26)
(0.0883001 -0.00372246 1.08921e-23)
(0.0864538 -0.00395048 -5.67735e-23)
(0.0870661 -0.003868 0)
(0.0842616 -0.00342641 -3.3642e-23)
(0.0858415 -0.00403711 -3.18018e-25)
(0.0830701 0.00101276 6.29027e-23)
(0.0828401 -0.000504647 0)
(0.109641 0.00226354 -1.18789e-23)
(0.109688 -0.00239018 -2.28992e-23)
(0.0828568 0.00169998 -3.32149e-23)
(0.0840301 0.00311634 1.11554e-24)
(0.0829071 0.00235884 9.45818e-23)
(0.0825211 -0.00127413 0)
(0.0825477 -0.0020279 1.13559e-23)
(0.0861686 0.00404327 -9.73521e-23)
(0.0852309 0.00395571 8.30409e-23)
(0.0836371 0.00320978 -8.16998e-23)
(0.0829098 -0.00276888 -3.41092e-23)
(0.0836034 -0.0035057 2.27554e-23)
(0.0852398 -0.00413641 2.23351e-23)
(0.0827757 0.000248264 0)
(0.0893819 0.00463776 2.89201e-24)
(0.087944 0.00466209 4.99516e-25)
(0.0887315 0.00463933 2.26101e-23)
(0.0903787 0.00448011 2.23219e-23)
(0.0898828 0.00456523 -2.24376e-23)
(0.0914701 0.00432605 4.1325e-26)
(0.0909079 0.00439901 0)
(0.0925696 0.00420277 0)
(0.092024 0.00426148 0)
(0.0936417 0.00409054 0)
(0.0931084 0.00414598 0)
(0.094692 0.00398495 0)
(0.0941696 0.00403668 0)
(0.0957185 0.00388542 3.82126e-26)
(0.0952082 0.00393467 0)
(0.096722 0.00379017 0)
(0.096223 0.00383726 0)
(0.0977033 0.00369918 0)
(0.0972153 0.00374417 0)
(0.0986632 0.00361226 0)
(0.0981859 0.00365524 0)
(0.0996026 0.00352904 0)
(0.0991354 0.00357022 0)
(0.100522 0.00344911 -3.43155e-26)
(0.100065 0.00348869 0)
(0.101424 0.00337217 8.78807e-29)
(0.100975 0.00341034 0)
(0.102308 0.00329785 0)
(0.101868 0.00333466 0)
(0.103175 0.0032262 6.36812e-26)
(0.102743 0.00326173 0)
(0.104027 0.00315691 0)
(0.103603 0.00319128 0)
(0.104865 0.00308977 0)
(0.104448 0.00312309 0)
(0.105688 0.00302456 0)
(0.105278 0.00305695 0)
(0.106497 0.00296097 0)
(0.106094 0.0029926 0)
(0.107295 0.00289848 0)
(0.106898 0.00292964 0)
(0.10808 0.00283699 5.3968e-26)
(0.107689 0.00286762 0)
(0.108855 0.00277652 -3.33274e-24)
(0.10847 0.00280714 0)
(0.109617 0.00271137 3.17171e-24)
(0.109237 0.00274435 0)
(0.110374 0.00264375 3.01414e-24)
(0.109995 0.00267754 -3.0897e-24)
(0.109421 0.00184159 5.98238e-24)
(0.110756 0.00261222 0)
(0.110044 0.00223761 8.88824e-24)
(0.10852 0.00101184 0)
(0.108911 0.0014313 0)
(0.108128 0.000149072 0)
(0.108257 0.000582635 0)
(0.108274 -0.000718844 0)
(0.108134 -0.00028621 0)
(0.108947 -0.00157018 1.21965e-23)
(0.108547 -0.00114911 3.03693e-24)
(0.110087 -0.00237762 2.98493e-24)
(0.109461 -0.0019792 2.38681e-23)
(0.110056 -0.00279668 1.54943e-23)
(0.110819 -0.00276247 2.958e-24)
(0.110436 -0.00277826 -6.02356e-24)
(0.109288 -0.00283325 3.1855e-24)
(0.109671 -0.00281377 -1.91016e-23)
(0.108511 -0.00286654 -1.21984e-28)
(0.108901 -0.00284953 0)
(0.10772 -0.00289911 0)
(0.108117 -0.00288225 0)
(0.106918 -0.00293407 -1.46318e-28)
(0.107321 -0.00291647 0)
(0.106103 -0.00297072 0)
(0.106512 -0.00295214 0)
(0.105274 -0.00300994 0)
(0.10569 -0.00298997 0)
(0.104431 -0.00305249 0)
(0.104854 -0.00303077 0)
(0.103572 -0.00309898 0)
(0.104003 -0.00307523 0)
(0.102698 -0.00314988 -1.28866e-25)
(0.103137 -0.00312387 0)
(0.101808 -0.00320565 0)
(0.102255 -0.00317714 0)
(0.100899 -0.00326675 0)
(0.101356 -0.00323552 0)
(0.099973 -0.0033334 0)
(0.100439 -0.00329939 0)
(0.0990271 -0.00340596 0)
(0.0995025 -0.00336894 0)
(0.0980606 -0.00348468 -7.24792e-26)
(0.0985465 -0.00344454 0)
(0.0970721 -0.0035701 0)
(0.0975692 -0.00352654 0)
(0.0960605 -0.00366267 0)
(0.0965693 -0.00361549 0)
(0.0950243 -0.00376294 7.74388e-26)
(0.0955455 -0.00371182 0)
(0.0939626 -0.00387159 -2.0404e-28)
(0.0944967 -0.0038162 0)
(0.0928747 -0.00398909 1.60785e-25)
(0.0934219 -0.00392925 0)
(0.0917605 -0.00411547 0)
(0.0923208 -0.00405121 0)
(0.09062 -0.00425032 0)
(0.0911934 -0.00418171 0)
(0.089455 -0.00439202 -2.39617e-28)
(0.0900409 -0.00432135 0)
(0.088266 -0.00454424 0)
(0.0888623 -0.00446587 0)
(0.0871001 -0.0047248 -3.37739e-23)
(0.0876792 -0.00463074 0)
(0.0846184 -0.00422975 -3.10022e-25)
(0.0865246 -0.00482658 5.73684e-23)
(0.0822813 0.000965969 0)
(0.0871357 0.00467361 1.31204e-22)
(0.0820658 0.00164467 2.26929e-23)
(0.111214 0.00301051 -3.00847e-24)
(0.111578 0.00297967 0)
(0.110487 -0.00236765 2.90102e-24)
(0.111195 -0.00274381 -5.76545e-24)
(0.0821001 -0.000538212 0)
(0.081789 -0.00130561 0)
(0.0822632 0.00243114 0)
(0.0818272 -0.00206846 -1.11846e-23)
(0.0822155 -0.00283308 -2.25177e-23)
(0.0829392 -0.00358876 0)
(0.0839838 -0.00432532 5.80109e-23)
(0.0859284 -0.00492966 -4.62725e-23)
(0.0820194 0.000213664 0)
(0.0900183 0.00525493 -1.08878e-26)
(0.0862911 0.00464164 4.11964e-23)
(0.0885896 0.00534495 -1.46864e-22)
(0.0893016 0.00531698 4.30214e-23)
(0.0912744 0.00517351 -1.39832e-23)
(0.0906652 0.00519631 -2.24174e-23)
(0.0923022 0.0050321 0)
(0.0918011 0.00511419 0)
(0.0933445 0.00486591 -4.13213e-26)
(0.0928132 0.00494443 0)
(0.0943844 0.00472971 0)
(0.0938686 0.00479536 0)
(0.0953969 0.00460546 0)
(0.0948936 0.00466664 0)
(0.0963868 0.00448854 0)
(0.0958946 0.0045461 0)
(0.0973544 0.00437775 -3.82126e-26)
(0.0968733 0.00443253 0)
(0.0983009 0.00427175 0)
(0.0978302 0.00432418 0)
(0.0992272 0.00417035 0)
(0.0987665 0.0042205 0)
(0.100134 0.00407338 0)
(0.099683 0.00412134 0)
(0.101022 0.00398053 0)
(0.10058 0.00402647 0)
(0.101892 0.00389146 3.41232e-26)
(0.101459 0.00393555 0)