/*--------------------------------*- C++ -*----------------------------------*\
  =========                 |
  \\      /  F ield         | OpenFOAM: The Open Source CFD Toolbox
   \\    /   O peration     | Website:  https://openfoam.org
    \\  /    A nd           | Version:  10
     \\/     M anipulation  |
\*---------------------------------------------------------------------------*/
FoamFile
{
    format      ascii;
    class       volVectorField;
    location    "5.5";
    object      U;
}
// * * * * * * * * * * * * * * * * * * * * * * * * * * * * * * * * * * * * * //

dimensions      [0 1 -1 0 0 0 0];

internalField   nonuniform List<vector> 
28942
(
(-0.111119 0.0676394 -4.10568e-20)
(-0.11052 0.0773719 -8.57063e-21)
(0.457338 -0.320297 3.7841e-20)
(1.01575 0.0420063 -1.06152e-19)
(0.994089 0.0518771 3.49276e-20)
(0.44487 0.019775 0)
(0.537487 0.046545 -9.3722e-22)
(0.58804 0.013356 1.14685e-21)
(1.22101 -0.155388 1.69088e-21)
(1.21048 -0.141407 -3.29386e-21)
(-0.0654961 -0.176821 -1.13011e-19)
(-0.0378264 -0.154068 5.18232e-20)
(-0.0782735 -0.126404 0)
(-0.0875686 -0.143753 0)
(0.959839 -0.0237493 1.37511e-22)
(0.959702 -0.0211684 -2.6543e-23)
(0.933219 0.108334 3.02397e-20)
(0.916832 0.0933232 4.85127e-20)
(0.319006 -0.432555 8.41504e-20)
(0.614463 -0.694905 -2.36849e-20)
(0.990621 0.252075 3.97541e-20)
(0.991192 0.236738 0)
(0.0268571 -0.0228602 1.04654e-19)
(-0.0661165 -0.0378577 5.81382e-20)
(0.618923 -0.154993 1.14148e-19)
(0.985691 -0.270378 -1.03749e-19)
(0.188027 -0.430553 4.7343e-19)
(0.195114 -0.356803 -1.82523e-19)
(0.726388 -0.527378 8.5052e-22)
(0.442044 -0.307361 -5.62307e-22)
(0.437201 -0.0238477 0)
(0.573852 -0.0348782 2.06769e-21)
(0.697832 -0.0259473 1.23352e-20)
(0.861985 -0.0279828 1.39265e-21)
(0.447271 0.490829 2.39757e-20)
(0.375379 0.54244 -1.94874e-20)
(0.593872 0.710092 -1.21999e-19)
(0.385347 0.639494 -4.95896e-20)
(0.226797 0.0223477 1.12915e-21)
(0.206491 0.495354 -7.68139e-20)
(0.657347 -0.0597459 0)
(0.856307 -0.0778341 0)
(1.11138 -0.185596 -3.27579e-22)
(1.10463 -0.18122 1.58464e-21)
(1.11184 -0.176945 8.00378e-22)
(0.773189 0.0195862 -5.0944e-22)
(0.742478 0.0344951 8.2401e-22)
(0.899037 0.0214373 3.614e-21)
(0.882165 0.0213763 -1.00215e-21)
(0.790883 0.0224814 -2.92261e-21)
(0.699953 0.0192389 2.01478e-21)
(1.15452 -0.0145204 4.21122e-21)
(1.1519 -0.019765 2.91566e-21)
(1.21565 -0.171085 -1.39952e-22)
(1.20354 -0.15714 1.69677e-23)
(1.25298 -0.219751 9.30925e-20)
(1.48023 -0.30397 5.08852e-20)
(-0.0730715 -0.0725383 -6.8527e-20)
(-0.0688794 -0.0987873 0)
(-0.0658451 -0.0658964 2.47537e-20)
(-0.0669002 -0.0545552 6.00675e-20)
(-0.0324977 -0.0270742 -4.81796e-20)
(-0.0336599 -0.0307996 -5.02344e-20)
(1.31653 -0.57834 0)
(1.45012 -0.512766 1.87272e-20)
(1.34608 -0.451871 -8.0639e-21)
(1.28176 -0.445407 0)
(0.930004 -0.224512 -2.80699e-20)
(0.949219 -0.24545 -1.81832e-20)
(-0.0652077 0.0435962 1.3662e-19)
(-0.0815246 0.0502414 -4.31992e-20)
(-0.108657 0.0766106 1.08528e-19)
(0.923387 -0.308659 0)
(0.940392 -0.273202 9.68246e-20)
(0.872586 -0.4212 2.50598e-20)
(1.43678 0.340071 4.92091e-20)
(1.47015 0.324743 -5.29515e-20)
(1.45342 0.282783 -3.61217e-20)
(0.141442 -0.0804855 1.73157e-21)
(0.20125 -0.127119 -4.18161e-20)
(0.97417 -0.613574 -6.8646e-21)
(0.715965 -0.491296 1.3602e-20)
(-0.0807257 0.0468378 2.29664e-19)
(-0.086839 0.0491628 -8.83471e-20)
(1.25266 0.606849 -5.68098e-21)
(1.18602 0.575798 -1.4605e-20)
(1.08081 0.677237 9.59269e-21)
(0.929904 0.663285 -3.27211e-20)
(0.886281 0.634448 2.25122e-20)
(0.662607 0.458945 -4.6318e-23)
(0.729769 0.55181 -7.89054e-21)
(0.771027 0.636644 1.33362e-20)
(-0.232208 -0.140397 -1.46804e-20)
(-0.151538 -0.178685 -3.83542e-21)
(-0.143314 -0.165294 7.68143e-21)
(-0.180684 -0.143418 -1.00253e-19)
(-0.201465 -0.114954 1.27784e-19)
(0.369811 0.294082 -4.8631e-20)
(0.418227 0.362231 9.6299e-21)
(-0.0275814 0.0233406 0)
(1.0071 0.00419423 0)
(0.965212 0.0531855 -8.07025e-20)
(0.890658 0.135265 5.78362e-20)
(1.08079 0.117872 0)
(1.4274 0.0641576 0)
(1.43005 0.0578352 0)
(1.44835 0.0664961 8.4873e-20)
(1.0876 0.182978 -5.98242e-21)
(1.08396 0.195096 6.43895e-20)
(1.07687 0.172644 3.37829e-20)
(-0.0773661 -0.0883791 1.37637e-19)
(-0.0791794 -0.095787 -1.54423e-19)
(-0.0101268 0.0598446 -7.28403e-20)
(-0.0293017 0.0789161 6.89011e-20)
(-0.106088 0.093921 1.38422e-19)
(0.166922 0.253933 8.02706e-20)
(0.384382 0.251459 1.96003e-19)
(0.295333 0.472475 1.57814e-20)
(0.131931 0.368514 -4.66388e-19)
(1.27489 0.481833 1.06052e-21)
(1.13101 0.460602 2.71379e-20)
(1.16833 0.442589 -4.69049e-20)
(0.800319 -0.622414 1.08761e-20)
(0.543914 -0.39658 -3.91266e-21)
(0.161128 0.00978692 -2.42115e-19)
(0.147081 -0.0669584 0)
(0.309086 -0.0332836 1.30273e-19)
(0.507137 -0.390527 1.34905e-20)
(0.722483 -0.611694 -2.9285e-20)
(0.875751 0.0216781 -3.60437e-21)
(0.904293 0.0191537 1.57733e-21)
(0.835099 0.0199708 1.12788e-22)
(0.500917 -0.750731 0)
(0.528426 -0.583051 0)
(1.06207 -0.132745 -1.28396e-20)
(1.04832 -0.114258 7.36509e-20)
(1.03229 -0.0810114 0)
(0.819354 -0.722451 0)
(0.820596 -0.663989 -2.95387e-20)
(0.745868 0.742375 7.54574e-20)
(-0.0941969 -0.0917299 9.03286e-20)
(-0.0791607 -0.0830448 -6.64437e-20)
(0.548231 -0.505437 -1.54918e-20)
(1.11946 -0.174048 1.41979e-21)
(1.11161 -0.167618 -7.52245e-22)
(1.45897 -0.241752 -1.52818e-20)
(1.46424 -0.225987 2.04404e-20)
(1.47295 -0.207514 7.17824e-20)
(-0.0733736 -0.0762016 3.17243e-20)
(0.855796 0.716643 8.55197e-20)
(0.988837 0.69489 -2.59896e-20)
(1.06363 0.733355 7.21313e-23)
(0.658693 -0.0181198 -4.98089e-22)
(0.658685 -0.0196487 -4.52473e-21)
(0.71927 -0.0232477 -3.96609e-22)
(0.759037 -0.0254406 1.23803e-21)
(0.804151 0.711054 1.74093e-20)
(0.435627 0.419137 0)
(-0.096268 0.0963234 7.18317e-20)
(-0.102338 0.122448 -7.95685e-20)
(-0.177024 0.167524 6.44321e-20)
(0.459665 0.0814631 -1.62465e-19)
(0.99511 0.25611 -7.92438e-20)
(0.832635 -0.0263124 4.94595e-22)
(1.23229 -0.453065 2.131e-20)
(1.19184 -0.529509 5.18935e-20)
(0.971959 0.27712 9.26937e-20)
(0.954328 0.315191 7.71828e-21)
(0.931322 0.195429 5.35636e-20)
(0.948562 0.201929 -3.86917e-20)
(0.996861 0.278021 0)
(1.13867 0.0237679 -2.33255e-22)
(1.14285 0.0199545 -1.3073e-21)
(1.1681 -0.104577 -2.49544e-23)
(1.17929 -0.108334 -6.52128e-22)
(1.09985 0.170859 6.43624e-21)
(1.11326 0.179309 -1.77765e-20)
(1.10038 0.182313 0)
(1.08731 0.17171 4.34845e-21)
(1.09832 0.193931 0)
(1.10333 0.250475 -1.63964e-20)
(1.09672 0.264916 -9.71289e-21)
(1.0737 0.290104 -1.89034e-20)
(1.08675 0.278469 0)
(1.10775 0.299409 5.662e-20)
(1.0907 0.313946 2.88962e-21)
(1.0572 0.307227 -1.16073e-20)
(1.00465 0.363981 -5.15477e-20)
(1.00298 0.305104 -9.17079e-21)
(0.0600385 0.179814 5.04861e-20)
(0.228301 0.164599 -1.94613e-20)
(-0.105026 0.145045 -1.01641e-19)
(0.813796 0.0202154 3.52971e-21)
(0.930285 0.0197439 0)
(-0.0455393 0.035502 7.86778e-20)
(-0.0416571 0.031083 4.03257e-20)
(0.889615 0.0235954 -7.43623e-23)
(0.951987 0.0224198 -5.75728e-23)
(0.950229 0.0223971 0)
(0.878508 0.0252089 -2.21652e-22)
(1.01237 0.0222335 -4.19959e-21)
(1.00661 0.0201599 1.99688e-20)
(1.01159 0.0202266 9.21638e-21)
(-0.0799172 -0.0953964 5.89873e-20)
(-0.0330786 -0.0342717 -7.58912e-20)
(-0.0398808 -0.0414108 7.22806e-20)
(-0.0563598 -0.0381953 0)
(-0.0257055 -0.0156889 1.02241e-19)
(-0.0246013 -0.0171283 -8.88486e-20)
(-0.0649922 -0.0154475 -9.16658e-20)
(-0.092129 -0.0380789 -9.28079e-20)
(-0.0543969 -0.0252463 0)
(0.0568132 0.240287 0)
(0.025974 0.143245 0)
(0.00976893 0.0815601 0)
(1.40988 0.0502793 -1.17145e-20)
(1.39059 0.0376835 0)
(1.41173 0.040562 1.29124e-20)
(0.923161 -0.0909235 1.97035e-19)
(0.936811 -0.0981017 -7.15434e-20)
(0.933665 -0.0793758 0)
(1.04396 0.000465771 -1.65662e-22)
(1.04478 0.000529625 3.31567e-22)
(1.04304 0.000422964 -1.1453e-22)
(1.04552 0.000562152 0)
(1.04618 0.00059706 -2.0525e-22)
(1.04677 0.000626223 0)
(1.04683 3.42568e-06 0)
(1.0473 0.000604403 7.39837e-22)
(1.04735 2.85873e-05 0)
(1.04627 -8.28258e-05 -2.0668e-22)
(1.04562 -0.000165948 0)
(1.04491 -0.000284967 1.11112e-22)
(1.04411 -0.0004427 -1.66355e-22)
(1.04323 -0.000621525 1.14373e-22)
(1.04777 0.000570967 -7.07867e-22)
(1.04782 4.30743e-05 -2.45257e-23)
(1.04201 0.000340505 4.04103e-26)
(1.04222 -0.000799236 -1.78196e-22)
(1.04084 0.00024628 9.63796e-22)
(1.0482 0.000560095 6.50867e-25)
(1.04826 7.18377e-05 -2.3992e-23)
(1.0411 -0.00103397 3.55508e-22)
(1.0486 0.000544573 6.45382e-22)
(1.04896 0.000524814 -6.44848e-22)
(1.04865 9.29437e-05 4.88691e-23)
(1.04901 0.000107232 9.45681e-23)
(1.03957 0.00023194 -9.37827e-22)
(1.03988 -0.00129986 -2.35075e-22)
(1.04929 0.000501981 0)
(1.04933 0.000116401 -9.32726e-23)
(1.03814 0.000109682 1.18528e-25)
(1.0385 -0.0015487 -1.18828e-25)
(1.0496 0.00047935 0)
(1.04963 0.000123694 0)
(1.03656 4.14269e-05 0)
(1.03698 -0.0018118 0)
(1.04988 0.000458037 0)
(1.0499 0.000130008 4.34903e-23)
(1.0348 -2.15398e-05 -5.17263e-22)
(1.0353 -0.0020505 -1.25201e-25)
(1.05013 0.000439178 2.26874e-24)
(1.05016 0.000137213 -4.6434e-23)
(1.03288 -3.6481e-05 5.19725e-22)
(1.03346 -0.00226046 0)
(1.05037 0.000423373 0)
(1.05039 0.000146288 0)
(1.03078 4.70586e-06 -3.37231e-23)
(1.03145 -0.00241856 5.83485e-22)
(1.05058 0.000409141 2.74157e-22)
(1.0506 0.000157764 0)
(1.02851 0.000110644 -8.46258e-24)
(1.02928 -0.00251859 -5.52556e-22)
(1.05079 0.000398672 -4.08871e-22)
(1.0508 0.000173549 -1.18116e-22)
(1.02602 0.000214029 5.73628e-22)
(1.02692 -0.0025218 0)
(1.05097 0.000384665 1.33888e-22)
(1.05098 0.000186305 7.86694e-23)
(1.02338 0.000515824 -2.98312e-22)
(1.02441 -0.00245677 6.0452e-22)
(1.05114 0.000380581 -5.27897e-22)
(1.05115 0.000211751 5.94773e-22)
(1.0205 0.000728417 3.13614e-22)
(1.02167 -0.00225689 1.00252e-23)
(1.05131 0.000366258 0)
(1.05131 0.000237108 2.80998e-22)
(1.01747 0.00121316 -6.43989e-22)
(1.01879 -0.0019986 1.28725e-21)
(1.05147 0.000364361 0)
(1.05147 0.000245078 0)
(1.02079 0.00376091 -3.10327e-22)
(1.01777 0.00440024 -1.28704e-21)
(1.01421 0.00167548 0)
(1.01574 -0.00168446 -6.68798e-22)
(1.02626 0.00284723 -1.87791e-22)
(1.02361 0.0033364 3.7177e-23)
(1.03095 0.00223284 0)
(1.02868 0.00253453 -5.94944e-22)
(1.03493 0.00184835 -1.09138e-24)
(1.03303 0.00201157 0)
(1.03824 0.00164261 0)
(1.03666 0.00173961 0)
(1.04095 0.00148582 0)
(1.03967 0.00160191 0)
(1.04309 0.00141794 2.24578e-22)
(1.04207 0.0014671 5.77652e-23)
(1.04481 0.00134686 -2.13734e-22)
(1.04401 0.00137741 -2.25503e-22)
(1.04619 0.00123298 3.6757e-22)
(1.04554 0.00127633 4.7562e-22)
(1.04732 0.00112062 0)
(1.04679 0.0011871 0)
(1.04822 0.000984423 -1.54371e-24)
(1.04779 0.00105245 0)
(1.04898 0.000861217 0)
(1.04862 0.000920668 0)
(1.04962 0.000754837 0)
(1.04931 0.000805967 0)
(1.05015 0.000666984 0)
(1.0499 0.000708592 0)
(1.05061 0.000598997 0)
(1.05039 0.000631018 0)
(1.051 0.00054839 0)
(1.05081 0.000573446 0)
(1.05134 0.000508984 -2.13256e-22)
(1.05117 0.000533397 0)
(1.05149 0.000492893 -6.81261e-23)
(1.05162 0.000362753 6.62599e-23)
(1.05162 0.000249653 -6.5707e-23)
(1.05118 5.22509e-05 0)
(1.05148 0.000116489 -2.7081e-22)
(1.05133 8.89158e-05 -1.4131e-22)
(1.05083 -1.99595e-05 3.96864e-23)
(1.05101 1.88651e-05 -1.53916e-22)
(1.05043 -7.61853e-05 1.30865e-24)
(1.05064 -4.97465e-05 0)
(1.04996 -0.000128897 0)
(1.0502 -0.000102342 0)
(1.0494 -0.000190103 0)
(1.04969 -0.000157582 0)
(1.04874 -0.000273652 0)
(1.04908 -0.000228119 1.80899e-28)
(1.04794 -0.000400193 1.57665e-24)
(1.04836 -0.00032941 0)
(1.04698 -0.00059537 0)
(1.04748 -0.000494138 0)
(1.04583 -0.000869122 0)
(1.04644 -0.000727079 0)
(1.04441 -0.00129771 0)
(1.04516 -0.0010563 -1.11549e-22)
(1.04265 -0.00186315 3.12491e-23)
(1.04358 -0.00159177 -1.47731e-22)
(1.0405 -0.00264368 0)
(1.04164 -0.00223458 -1.2264e-22)
(1.03786 -0.0034564 0)
(1.03924 -0.00304126 0)
(1.03467 -0.00423593 0)
(1.03634 -0.00385869 0)
(1.03091 -0.00483999 0)
(1.03287 -0.00456929 0)
(1.02653 -0.00511137 -1.54746e-22)
(1.02879 -0.00500806 0)
(1.02155 -0.00497078 -6.57992e-22)
(1.0241 -0.00506608 -1.58348e-22)
(1.01884 -0.00480425 6.83729e-22)
(1.01458 0.00506494 1.28921e-21)
(1.05164 0.000476359 1.32285e-22)
(1.05162 0.00013545 -2.56217e-22)
(1.0125 -0.00127833 0)
(1.01597 -0.00455563 0)
(1.01121 0.00584693 0)
(1.0108 0.00224287 0)
(1.02246 0.00656864 0)
(1.01681 0.00817401 3.15262e-22)
(1.0197 0.00731903 3.13842e-22)
(1.02752 0.00531184 3.84996e-22)
(1.02507 0.00591061 -7.7528e-23)
(1.03188 0.00432917 1.14525e-24)
(1.02978 0.00477394 0)
(1.03561 0.00363892 0)
(1.03382 0.00395753 0)
(1.03875 0.0031278 0)
(1.03725 0.00336868 0)
(1.04131 0.00273648 0)
(1.0401 0.00292422 0)
(1.04337 0.00238689 0)
(1.0424 0.00256962 0)
(1.04503 0.00210976 -8.89752e-25)
(1.04424 0.00224837 2.32434e-22)
(1.04635 0.00183745 -8.32058e-25)
(1.04573 0.00195406 -4.42492e-22)
(1.04744 0.00160506 0)
(1.04692 0.00171983 0)
(1.04832 0.0013917 7.70737e-25)
(1.0479 0.00149586 0)
(1.04906 0.00120554 0)
(1.0487 0.00129482 0)
(1.04968 0.00104788 0)
(1.04938 0.00112337 0)
(1.05021 0.000917365 0)
(1.04996 0.00097921 0)
(1.05066 0.000813938 0)
(1.05045 0.000862416 0)
(1.05105 0.000733922 0)
(1.05087 0.000771227 0)
(1.05139 0.00066334 1.4589e-22)
(1.05122 0.000697775 0)
(1.05175 0.000354186 0)
(1.05177 0.000471013 1.27177e-22)
(1.05167 0.000595996 0)
(1.05153 0.000629266 1.40962e-22)
(1.0515 -2.20744e-05 2.81926e-22)
(1.05163 1.29708e-05 6.83453e-23)
(1.05175 0.000154024 5.31375e-22)
(1.05175 0.000255836 0)
(1.05121 -0.000115968 0)
(1.05136 -6.71175e-05 -4.26029e-22)
(1.05088 -0.000204734 1.24748e-24)
(1.05106 -0.000157563 1.5487e-22)
(1.05049 -0.000288276 -1.30864e-24)
(1.05069 -0.00024438 0)
(1.05004 -0.000378289 0)
(1.05027 -0.000331632 0)
(1.0495 -0.000485271 0)
(1.04978 -0.000428819 0)
(1.04886 -0.000624566 0)
(1.04919 -0.0005499 -1.80898e-28)
(1.0481 -0.000817304 -3.14949e-24)
(1.0485 -0.000712254 0)
(1.0472 -0.00110624 0)
(1.04767 -0.0009468 0)
(1.04611 -0.00151205 5.58628e-23)
(1.04668 -0.00129171 0)
(1.04481 -0.00207386 0)
(1.04549 -0.00176481 -5.56243e-23)
(1.04323 -0.00282485 1.21956e-22)
(1.04405 -0.00243324 1.19526e-22)
(1.04132 -0.00376143 0)
(1.04232 -0.00328495 0)
(1.03903 -0.00480851 0)
(1.04023 -0.00427946 0)
(1.03631 -0.00584026 0)
(1.03772 -0.0053362 0)
(1.03313 -0.00669752 0)
(1.03477 -0.00630115 0)
(1.02948 -0.00723427 2.48245e-24)
(1.03136 -0.00701278 0)
(1.02533 -0.00739346 -2.61503e-24)
(1.02747 -0.00736072 0)
(1.02072 -0.0072469 -7.07134e-22)
(1.02308 -0.00735489 7.06709e-22)
(1.01375 0.00912846 6.71045e-22)
(1.01302 -0.00429722 0)
(1.01828 -0.00714443 -1.50261e-21)
(1.00912 -0.000792512 0)
(1.05179 0.000573948 0)
(1.05176 4.37065e-05 -6.57664e-23)
(1.00771 0.00669578 1.76546e-21)
(1.01058 0.0101747 7.13276e-22)
(1.00984 -0.00396343 3.88377e-22)
(1.01565 -0.00697996 1.90378e-21)
(1.00718 0.00294324 0)
(1.05172 0.000733949 5.46443e-22)
(1.05184 0.000687243 -2.68854e-22)
(1.05187 0.000168713 -1.2922e-22)
(1.05188 7.43464e-05 6.4034e-22)
(1.0154 0.0130869 2.43398e-21)
(1.00733 0.0113607 -1.38953e-21)
(1.01027 0.0157089 -6.42249e-21)
(1.0127 0.0143581 -1.4027e-21)
(1.02056 0.0108678 6.4037e-22)
(1.01804 0.0119364 -2.04043e-21)
(1.02528 0.0090001 -6.43841e-22)
(1.02298 0.00989582 -5.03299e-22)
(1.02962 0.00749256 -1.53447e-22)
(1.02752 0.008213 -1.55741e-22)
(1.03345 0.00626185 -1.14525e-24)
(1.0316 0.00683806 0)
(1.03678 0.00528925 0)
(1.03518 0.00575005 0)
(1.03961 0.00449961 0)
(1.03826 0.00487573 0)
(1.04195 0.00384945 0)
(1.04084 0.00416123 0)
(1.04384 0.00329554 0)
(1.04295 0.00356054 0)
(1.04538 0.00281989 0)
(1.04465 0.00304699 0)
(1.04662 0.00241689 2.27242e-27)
(1.04603 0.00261314 0)
(1.04764 0.00207676 0)
(1.04715 0.00223788 0)
(1.04848 0.00178857 7.67694e-25)
(1.04808 0.00192766 0)
(1.04919 0.00154169 0)
(1.04885 0.00165998 0)
(1.04979 0.001334 0)
(1.0495 0.00143329 0)
(1.0503 0.00116204 0)
(1.05006 0.00124369 0)
(1.05075 0.00102355 0)
(1.05053 0.0010888 0)
(1.05113 0.000912838 0)
(1.05094 0.000964903 0)
(1.05145 0.000818062 7.43598e-23)
(1.05129 0.00086303 -3.75187e-23)
(1.05159 0.000772942 -2.79805e-22)
(1.05187 0.000348051 -6.12348e-23)
(1.05191 0.000551325 2.54761e-22)
(1.05188 0.000451842 -1.96706e-22)
(1.05187 0.000266895 0)
(1.05154 -0.000169228 -2.07704e-22)
(1.05179 -6.91946e-05 -5.91854e-22)
(1.05167 -0.000116262 4.81244e-22)
(1.05127 -0.000277412 0)
(1.05141 -0.000224582 0)
(1.05095 -0.000381736 -2.3827e-27)
(1.05111 -0.0003264 0)
(1.05057 -0.00049369 0)
(1.05077 -0.000435402 0)
(1.05013 -0.000619917 -1.3655e-24)
(1.05036 -0.000554311 0)
(1.04962 -0.000770804 0)
(1.04989 -0.000691392 0)
(1.04901 -0.000962768 0)
(1.04933 -0.000860497 0)
(1.04829 -0.00121887 1.5732e-24)
(1.04867 -0.00108096 0)
(1.04745 -0.00157653 1.64475e-24)
(1.04789 -0.00138228 0)
(1.04645 -0.00207461 0)
(1.04697 -0.00180515 0)
(1.04529 -0.00275333 0)
(1.04589 -0.00239063 0)
(1.04391 -0.00364135 0)
(1.04463 -0.0031683 0)
(1.0423 -0.0047254 0)
(1.04314 -0.00416265 0)
(1.04041 -0.00594306 -2.10289e-24)
(1.04139 -0.00532488 0)
(1.03823 -0.00716417 0)
(1.03936 -0.00656364 0)
(1.03573 -0.00821968 0)
(1.03702 -0.00772365 0)
(1.03289 -0.00895622 -1.47141e-26)
(1.03435 -0.00863495 0)
(1.0297 -0.00931021 1.77569e-26)
(1.03134 -0.00918017 0)
(1.02615 -0.00937095 2.79779e-24)
(1.02796 -0.00936281 0)
(1.02224 -0.00933563 -1.56087e-21)
(1.02424 -0.00934455 3.69627e-22)
(1.01281 -0.00680401 3.98748e-22)
(1.0201 -0.00933741 7.71147e-22)
(1.00407 0.00768964 -6.76059e-22)
(1.00555 -0.000342425 -7.49217e-22)
(1.05195 0.000648647 6.50172e-23)
(1.0519 -2.73062e-05 4.64375e-22)
(1.00383 0.0125772 8.34389e-23)
(1.00649 -0.00360484 0)
(1.0066 0.0175838 1.02616e-20)
(1.01782 -0.00939434 1.26725e-21)
(1.00984 -0.00668034 1.69468e-21)
(1.01599 0.0200831 -1.70277e-20)
(1.01636 0.022419 3.11001e-21)
(1.00349 0.00364439 0)
(1.01758 0.017582 1.59718e-21)
(1.0168 0.0189926 8.52583e-22)
(1.02109 0.0150997 1.40895e-21)
(1.01911 0.0162936 -2.18357e-21)
(1.02508 0.012896 -6.65638e-22)
(1.02314 0.0139805 -3.39123e-22)
(1.02877 0.010939 3.22113e-22)
(1.02695 0.0118777 3.37787e-22)
(1.03227 0.00930185 0)
(1.03055 0.0100929 -1.76702e-24)
(1.03545 0.00791135 0)
(1.0339 0.00857933 0)
(1.03829 0.00672198 1.07633e-24)
(1.03692 0.00729391 0)
(1.04073 0.00570623 0)
(1.03956 0.0061944 0)
(1.04278 0.00484007 0)
(1.0418 0.0052566 0)
(1.04446 0.00410228 0)
(1.04366 0.0044559 0)
(1.04584 0.00347821 8.81834e-25)
(1.04518 0.00377614 0)
(1.04697 0.00295635 2.83516e-27)
(1.04643 0.00320669 0)
(1.04791 0.0025233 0)
(1.04746 0.00272892 0)
(1.04869 0.00216318 -1.53315e-24)
(1.04832 0.00233572 0)
(1.04936 0.00185976 0)
(1.04904 0.00200487 0)
(1.04993 0.00160596 0)
(1.04966 0.00172717 0)
(1.05043 0.0013956 0)
(1.05019 0.00149566 0)
(1.05085 0.00122409 0)
(1.05065 0.00130525 0)
(1.05122 0.00108496 0)
(1.05104 0.00115053 0)
(1.05153 0.000966189 -3.70515e-23)
(1.05138 0.00102255 0)
(1.05179 0.000863378 0)
(1.05166 0.00091305 -7.11757e-23)
(1.052 0.000753896 -7.77022e-26)
(1.0519 0.000808559 0)
(1.05202 0.000524323 -2.58362e-22)
(1.0521 0.000700528 1.54965e-23)
(1.05205 0.000611932 1.25443e-22)
(1.05198 0.000346806 9.25897e-23)
(1.05199 0.000433334 -6.39235e-23)
(1.05198 0.000175786 -3.21795e-23)
(1.05198 0.000270594 3.21183e-23)
(1.052 -4.48067e-07 0)
(1.05199 9.54869e-05 -2.95109e-22)
(1.05183 -0.000187423 -1.33215e-22)
(1.05202 -9.8318e-05 -2.5289e-22)
(1.05193 -0.000140338 5.79036e-22)
(1.0516 -0.000302311 -7.10205e-23)
(1.05172 -0.000243006 0)
(1.05133 -0.000427086 0)
(1.05147 -0.000366586 0)
(1.05102 -0.000551013 -2.94918e-27)
(1.05118 -0.000488031 0)
(1.05067 -0.000690596 0)
(1.05085 -0.000618752 0)
(1.05025 -0.000850981 1.3655e-24)
(1.05047 -0.000767643 0)
(1.04976 -0.00104287 0)
(1.05001 -0.000942148 0)
(1.04918 -0.0012828 0)
(1.04948 -0.00115561 0)
(1.04851 -0.00159503 0)
(1.04886 -0.00142806 0)
(1.04773 -0.00201367 -5.73477e-27)
(1.04813 -0.00178871 0)
(1.04683 -0.0025813 0)
(1.0473 -0.00227601 0)
(1.04581 -0.00334003 0)
(1.04634 -0.00293518 0)
(1.04465 -0.00431755 0)
(1.04525 -0.00380031 0)
(1.04335 -0.0055044 0)
(1.04402 -0.00488799 0)
(1.04189 -0.0068331 2.10289e-24)
(1.04264 -0.00615804 0)
(1.04027 -0.0081745 0)
(1.0411 -0.00751261 0)
(1.03846 -0.00935929 0)
(1.03939 -0.00879749 0)
(1.03645 -0.0102333 -2.4675e-24)
(1.03748 -0.0098423 0)
(1.03422 -0.0107266 2.60988e-24)
(1.03537 -0.0105269 0)
(1.03173 -0.0109059 -2.76613e-24)
(1.03301 -0.0108453 0)
(1.02895 -0.0110115 3.74116e-22)
(1.03036 -0.0109444 -7.35315e-22)
(1.02588 -0.0113332 -3.88051e-22)
(1.02743 -0.0111264 8.05432e-22)
(1.01534 -0.00953504 5.69471e-23)
(1.02411 -0.0116259 8.51014e-22)
(1.00021 0.00872865 -7.3846e-22)
(1.00178 0.000230971 0)
(1.00031 0.0142309 -7.26666e-21)
(1.00278 -0.00311662 0)
(1.05206 0.000863558 -6.42716e-23)
(1.05215 0.000813026 4.70753e-23)
(1.05209 2.86971e-05 -2.43854e-22)
(1.05212 -6.19254e-05 -2.76203e-22)
(1.0005 0.0181412 -7.25524e-21)
(1.00668 -0.00661076 -1.71138e-21)
(1.01294 0.0235932 0)
(1.02283 0.0221514 -2.01592e-21)
(1.01272 -0.00978848 -8.31596e-22)
(1.02226 -0.0120827 1.33719e-21)
(1.02245 0.0241334 3.96576e-21)
(0.999519 0.00446453 0)
(1.02403 0.0193011 0)
(1.02334 0.0207311 -1.71675e-21)
(1.02659 0.0167021 0)
(1.02519 0.0179467 0)
(1.02953 0.014453 0)
(1.02808 0.0155481 3.51335e-22)
(1.03232 0.0125005 0)
(1.03093 0.0134427 0)
(1.03504 0.0107905 0)
(1.0337 0.0116179 0)
(1.0376 0.00927426 0)
(1.03635 0.0100115 0)
(1.03992 0.00792321 -1.07633e-24)
(1.0388 0.00857855 0)
(1.04195 0.00673355 0)
(1.04097 0.00730883 0)
(1.04368 0.00569899 0)
(1.04285 0.00619752 0)
(1.04514 0.00481269 0)
(1.04444 0.00523795 0)
(1.04635 0.00406576 -3.86798e-27)
(1.04577 0.00442252 0)
(1.04736 0.00344497 3.42679e-27)
(1.04688 0.00374083 0)
(1.04821 0.00293333 0)
(1.04781 0.00317662 0)
(1.04894 0.00251081 2.72733e-27)
(1.04859 0.00271246 0)
(1.04956 0.00215814 0)
(1.04926 0.00232663 0)
(1.0501 0.00186353 0)
(1.04984 0.00200425 0)
(1.05057 0.00161832 0)
(1.05034 0.00173521 0)
(1.05097 0.00141609 0)
(1.05078 0.00151224 0)
(1.05132 0.00124973 0)
(1.05115 0.00132886 0)
(1.05162 0.00111274 0)
(1.05148 0.00117745 0)
(1.05186 0.000981542 6.99026e-23)
(1.05174 0.0010465 7.22599e-23)
(1.05197 0.000920635 -1.32751e-22)
(1.05211 0.000494825 -1.25265e-22)
(1.05218 0.000655168 0)
(1.05214 0.00058126 -1.26918e-22)
(1.05208 0.000342622 0)
(1.05209 0.000418124 1.27858e-22)
(1.05207 0.000181104 1.90868e-22)
(1.05208 0.000266248 -6.4513e-23)
(1.05208 0.000110987 -3.76093e-22)
(1.05188 -0.000302671 6.6918e-23)
(1.05206 -0.000189957 2.43266e-22)
(1.05197 -0.000254278 0)
(1.05166 -0.000433014 -1.40411e-22)
(1.05177 -0.000368874 1.40889e-22)
(1.05141 -0.000566218 0)
(1.05154 -0.000500642 0)
(1.05112 -0.00071252 -3.54325e-27)
(1.05127 -0.000638253 0)
(1.05078 -0.000878106 0)
(1.05095 -0.000792654 0)
(1.05038 -0.00107055 0)
(1.05059 -0.000970483 0)
(1.04992 -0.00130034 0)
(1.05016 -0.00118001 0)
(1.04937 -0.00158319 0)
(1.04965 -0.00143395 0)
(1.04875 -0.00194272 1.55802e-24)
(1.04907 -0.00175162 0)
(1.04803 -0.00241132 -1.63901e-24)
(1.0484 -0.00216119 0)
(1.04723 -0.0030294 0)
(1.04764 -0.00269904 0)
(1.04635 -0.00383822 0)
(1.0468 -0.00340795 0)
(1.0454 -0.00486473 0)
(1.04589 -0.00432385 0)
(1.0444 -0.0061 0)
(1.04491 -0.00545911 0)
(1.04335 -0.00747868 0)
(1.04388 -0.00677826 0)
(1.04225 -0.0088742 0)
(1.0428 -0.00818443 0)
(1.04109 -0.0101219 -2.3035e-24)
(1.04168 -0.00952715 0)
(1.03984 -0.0110732 2.42931e-24)
(1.04048 -0.0106414 0)
(1.03847 -0.0116629 -2.5655e-24)
(1.03917 -0.0114126 0)
(1.03694 -0.0119539 0)
(1.03773 -0.0118361 0)
(1.03518 -0.0121545 0)
(1.03609 -0.0120473 0)
(1.0332 -0.0126223 3.09416e-24)
(1.0342 -0.0123246 3.87875e-22)
(1.03095 -0.0135922 -2.18647e-21)
(1.03208 -0.0130386 0)
(1.02043 -0.0127135 -1.30533e-21)
(1.02979 -0.0143338 -5.96016e-23)
(0.996195 0.00986782 2.34485e-21)
(0.997703 0.000911954 0)
(1.05223 0.000749417 -2.42081e-22)
(1.05215 -0.000136389 -4.71314e-22)
(0.995171 0.0147472 -1.28614e-21)
(1.00639 0.0219523 5.56756e-23)
(0.997815 0.0198661 3.8026e-21)
(0.998944 -0.0027849 0)
(1.00309 -0.00653662 4.5228e-22)
(1.01994 0.026354 -3.76615e-21)
(1.01576 0.0269662 3.45593e-21)
(1.0068 0.0244072 -3.29846e-21)
(1.00991 -0.010188 -1.35021e-21)
(1.01837 -0.013504 9.31627e-22)
(1.02869 -0.0152563 8.40121e-22)
(0.995355 0.00533444 0)
(1.02918 0.0236176 1.07303e-22)
(1.02745 0.0271433 -3.19264e-23)
(1.02867 0.0253547 8.50372e-22)
(1.02998 0.0205404 8.02622e-22)
(1.02955 0.0220333 -8.07211e-22)
(1.03161 0.0178811 1.39389e-24)
(1.0307 0.0191691 0)
(1.03363 0.0156497 0)
(1.03261 0.0167149 0)
(1.03567 0.0137117 0)
(1.03464 0.0146548 0)
(1.03771 0.011958 0)
(1.03669 0.0128139 0)
(1.03969 0.0103569 1.11798e-24)
(1.03871 0.0111401 0)
(1.04151 0.00889628 0)
(1.04062 0.00960889 0)
(1.04315 0.00758299 0)
(1.04236 0.00822089 0)
(1.04459 0.00642488 0)
(1.0439 0.00698428 0)
(1.04582 0.00542596 0)
(1.04523 0.00590569 0)
(1.04687 0.00458257 -8.77966e-25)
(1.04637 0.00498552 0)
(1.04777 0.00388251 4.01942e-27)
(1.04734 0.0042158 0)
(1.04854 0.00330627 0)
(1.04817 0.00358035 0)
(1.0492 0.00283136 1.52226e-24)
(1.04888 0.0030577 0)
(1.04977 0.00243626 0)
(1.0495 0.00262499 0)
(1.05028 0.0021057 0)
(1.05003 0.00226372 0)
(1.05072 0.00182907 0)
(1.0505 0.00196122 0)
(1.0511 0.00159848 0)
(1.05091 0.00170852 0)
(1.05143 0.00140628 0)
(1.05127 0.00149816 0)
(1.05171 0.00124369 1.15468e-24)
(1.05157 0.00132235 0)
(1.05194 0.00109914 -7.02059e-23)
(1.05183 0.00117124 0)
(1.05213 0.000955564 6.59153e-23)
(1.05204 0.00102789 0)
(1.05229 0.000819631 6.16545e-23)
(1.05221 0.000885038 -6.36677e-23)
(1.05226 0.000610214 1.214e-22)
(1.05237 0.000750609 0)
(1.05231 0.00069186 1.81277e-22)
(1.05219 0.000472356 0)
(1.05222 0.000542651 0)
(1.05216 0.000333418 0)
(1.05217 0.000406468 0)
(1.05216 0.000179625 0)
(1.05216 0.000259226 0)
(1.05217 5.09058e-05 2.48549e-22)
(1.05216 0.00011979 6.13229e-23)
(1.05222 -9.19819e-05 6.06506e-23)
(1.0522 -2.5156e-05 4.84642e-22)
(1.05211 -0.000275039 3.20414e-22)
(1.05226 -0.000162632 6.014e-23)
(1.05219 -0.000214436 -1.23366e-22)
(1.05194 -0.000411048 6.61058e-23)
(1.05203 -0.000340769 -3.96273e-22)
(1.05174 -0.000553137 -3.36287e-27)
(1.05184 -0.000482699 0)
(1.0515 -0.000699337 0)
(1.05162 -0.000623525 0)
(1.05122 -0.000865148 -4.13674e-27)
(1.05136 -0.000779673 0)
(1.0509 -0.00105553 0)
(1.05107 -0.000956925 0)
(1.05053 -0.00127812 0)
(1.05072 -0.00116232 0)
(1.05009 -0.0015428 0)
(1.05032 -0.00140451 0)
(1.04958 -0.00186379 0)
(1.04984 -0.00169519 0)
(1.049 -0.00226262 -3.10896e-24)
(1.0493 -0.00205189 0)
(1.04835 -0.00276906 0)
(1.04868 -0.00250035 0)
(1.04764 -0.00341982 0)
(1.048 -0.00307408 0)
(1.0469 -0.00425242 0)
(1.04727 -0.00381146 0)
(1.04614 -0.00529187 0)
(1.04652 -0.00474599 0)
(1.0454 -0.00652967 -1.96388e-24)
(1.04577 -0.00588853 0)
(1.0447 -0.00790526 0)
(1.04504 -0.00720661 0)
(1.04405 -0.00929944 0)
(1.04437 -0.00860955 0)
(1.04343 -0.0105563 2.3035e-24)
(1.04374 -0.00995505 0)
(1.04281 -0.0115353 -2.33461e-26)
(1.04312 -0.0110869 0)
(1.04214 -0.0121772 5.10401e-24)
(1.04248 -0.0118974 0)
(1.04138 -0.0125478 0)
(1.04177 -0.0123871 0)
(1.04047 -0.0128387 0)
(1.04094 -0.012687 0)
(1.03942 -0.0133183 -4.44159e-26)
(1.03997 -0.0130377 0)
(1.0382 -0.0142951 0)
(1.03882 -0.0137281 0)
(1.03709 -0.0160154 -1.33746e-21)
(1.03762 -0.015052 0)
(1.02742 -0.0163406 -6.57553e-23)
(1.03658 -0.0171919 2.34656e-21)
(0.991712 0.0108021 0)
(1.02592 0.0288772 5.19402e-21)
(0.991438 0.0164997 8.88559e-22)
(1.05236 0.000886489 -6.15478e-23)
(1.05242 0.000817254 0)
(1.05229 -5.27535e-05 5.85697e-23)
(1.05232 -0.000112611 -1.16273e-22)
(0.993388 0.00160082 0)
(0.994648 -0.00242657 0)
(0.995092 0.0222534 0)
(0.999331 -0.0066665 -4.45413e-22)
(1.00688 -0.010773 -9.22086e-22)
(1.01629 -0.0145293 0)
(1.02612 -0.0176777 2.43709e-21)
(1.03599 -0.0186028 -1.9013e-21)
(0.990912 0.00627929 0)
(1.03458 0.0273202 -4.10908e-25)
(1.02483 0.0308999 1.67444e-21)
(1.03401 0.0311008 -5.97718e-21)
(1.0342 0.0291606 1.69762e-21)
(1.03499 0.0239651 -5.11538e-22)
(1.0348 0.0255799 -8.43198e-22)
(1.03525 0.0211033 0)
(1.03511 0.0224876 0)
(1.03611 0.0185983 -1.39377e-24)
(1.0356 0.0198085 0)
(1.03736 0.0164678 0)
(1.03671 0.0174917 0)
(1.03873 0.0145716 0)
(1.03803 0.0154997 0)
(1.04018 0.0128163 0)
(1.03945 0.0136783 0)
(1.04162 0.0111791 -1.11798e-24)
(1.0409 0.0119838 0)
(1.043 0.00965745 0)
(1.04232 0.0104032 0)
(1.04428 0.00826696 0)
(1.04366 0.00894472 0)
(1.04544 0.00702649 0)
(1.04488 0.0076271 0)
(1.04647 0.00594845 0)
(1.04597 0.00646693 0)
(1.04737 0.00503402 8.68244e-25)
(1.04694 0.00547131 0)
(1.04816 0.00427265 4.59477e-27)
(1.04778 0.00463538 0)
(1.04885 0.00364449 0)
(1.04852 0.00394346 0)
(1.04946 0.00312594 -3.66311e-27)
(1.04917 0.0033731 0)
(1.04999 0.00269425 0)
(1.04973 0.00290053 0)
(1.05046 0.00233211 0)
(1.05023 0.00250541 0)
(1.05087 0.00202727 0)
(1.05067 0.00217319 0)
(1.05123 0.0017706 0)
(1.05106 0.00189347 0)
(1.05154 0.00155391 0)
(1.05139 0.00165782 0)
(1.0518 0.00136844 -2.30528e-24)
(1.05168 0.00145784 0)
(1.05203 0.0012055 -1.0986e-24)
(1.05192 0.00128422 0)
(1.05221 0.00104449 1.33483e-22)
(1.05212 0.0011252 -1.35544e-22)
(1.05228 0.000963168 1.26246e-22)
(1.05233 0.000567511 2.9987e-23)
(1.05243 0.000687624 7.46186e-24)
(1.05238 0.000638915 -9.09345e-23)
(1.05227 0.000450117 0)
(1.05229 0.000507936 0)
(1.05223 0.000320395 -9.32054e-28)
(1.05225 0.000387723 0)
(1.05223 0.000180726 0)
(1.05223 0.000252725 0)
(1.05225 6.83189e-05 1.20626e-22)
(1.05224 0.00012595 -1.23493e-22)
(1.05227 6.29268e-06 -5.94504e-24)
(1.05217 -0.000362843 -1.79461e-25)
(1.0523 -0.000230513 -1.20322e-22)
(1.05223 -0.000295672 3.22647e-25)
(1.05201 -0.000510832 -6.73187e-23)
(1.05209 -0.000434524 6.74333e-23)
(1.05182 -0.000660199 -1.12633e-24)
(1.05192 -0.000585108 0)
(1.05159 -0.000823525 -1.17517e-24)
(1.05171 -0.00073978 0)
(1.05133 -0.00100842 -4.71142e-27)
(1.05147 -0.000912886 0)
(1.05103 -0.00122238 0)
(1.05119 -0.00111136 0)
(1.05068 -0.00147322 0)
(1.05087 -0.00134274 0)
(1.05027 -0.00176982 0)
(1.05049 -0.00161522 0)
(1.0498 -0.00212443 0)
(1.05005 -0.00193897 0)
(1.04927 -0.0025556 1.55095e-24)
(1.04954 -0.00232909 0)
(1.04868 -0.00308926 1.61521e-24)
(1.04898 -0.00280784 0)
(1.04806 -0.00375724 0)
(1.04837 -0.00340448 0)
(1.04743 -0.00459195 0)
(1.04774 -0.00415209 0)
(1.04683 -0.00561527 0)
(1.04713 -0.00507974 0)