/*--------------------------------*- C++ -*----------------------------------*\
  =========                 |
  \\      /  F ield         | OpenFOAM: The Open Source CFD Toolbox
   \\    /   O peration     | Website:  https://openfoam.org
    \\  /    A nd           | Version:  10
     \\/     M anipulation  |
\*---------------------------------------------------------------------------*/
FoamFile
{
    format      ascii;
    class       volScalarField;
    location    "30.5";
    object      p;
}
// * * * * * * * * * * * * * * * * * * * * * * * * * * * * * * * * * * * * * //

dimensions      [0 2 -2 0 0 0 0];

internalField   nonuniform List<scalar> 
25879
(
0.0400346
0.0432923
0.0431736
0.0404041
-0.257074
-0.239849
-0.160077
-0.141096
-0.115604
-0.125054
-0.256497
-0.214668
-0.304082
-0.340381
-0.307575
0.160258
0.0522956
-0.0227786
-0.164169
0.780961
0.779066
0.105152
0.259135
0.18681
0.188334
0.194367
0.191966
0.181456
0.185865
0.181548
0.180792
-0.382306
-0.384225
-0.379566
-0.00596452
-0.00920142
-0.0168257
0.111621
0.115062
-0.442833
-0.387943
-0.315332
0.365195
0.375302
0.378217
-0.115073
-0.128908
-0.574489
-0.559261
-0.594135
0.101502
0.130555
-0.939916
-0.732978
0.00454088
0.00593608
0.00842457
0.465791
0.481268
0.441864
0.422024
0.374844
0.376893
0.00133957
0.00384036
0.0031348
-0.425441
-0.432505
-0.385945
-0.522596
-0.434643
0.24265
0.246211
0.250887
0.27445
0.417838
0.342424
0.0504319
0.0515386
0.0478961
0.395305
0.383399
0.79893
0.736433
0.713595
0.185237
0.193955
0.181109
0.013803
0.018891
-0.669479
-0.683678
-0.625267
0.176849
0.176388
-0.222174
-0.239221
-0.235155
-0.00621797
-0.00319579
-0.0151431
-0.00955112
0.0151189
0.0121795
0.00845519
0.158221
0.155531
0.126329
0.185773
-0.0249129
-0.0328725
0.000265273
0.00341778
0.0303201
0.0308084
0.161881
0.147807
-0.236318
-0.0822737
-0.0380613
-0.0295996
-0.157889
-0.153368
-0.296384
-0.294417
-0.667149
-0.64026
-0.455951
-0.389712
-0.378621
-0.43982
-0.394321
0.486329
0.471745
0.459334
0.470121
0.0446987
0.0475988
-0.146315
0.00720563
-0.0988023
-0.101782
-0.10618
-0.110333
-0.118852
-0.128537
-0.139718
-0.15216
-0.165532
-0.179186
-0.192692
-0.204964
-0.21537
-0.222864
-0.227035
-0.22731
-0.223797
-0.216563
-0.206307
-0.193775
-0.179946
-0.165707
-0.15187
-0.139088
-0.127756
-0.118159
-0.110275
-0.104151
-0.0996064
-0.096648
-0.0952055
-0.0954838
-0.0976146
-0.101563
-0.107426
-0.115302
-0.126709
-0.105671
-0.114963
-0.113948
-0.10362
-0.0989781
-0.0977127
-0.122833
-0.101835
-0.107248
-0.0960864
-0.0979824
-0.0976807
-0.096015
-0.105692
-0.100854
-0.120522
-0.112167
-0.142836
-0.130711
-0.171713
-0.156624
-0.20286
-0.187432
-0.228836
-0.217067
-0.242031
-0.237467
-0.238832
-0.242547
-0.220428
-0.231394
-0.192444
-0.207259
-0.162391
-0.177307
-0.135945
-0.148513
-0.116438
-0.125161
-0.109655
-0.111103
-0.0967285
-0.10367
-0.128874
-0.119373
-0.151299
-0.139764
-0.175473
-0.163147
-0.196444
-0.186466
-0.20829
-0.20356
-0.207131
-0.209318
-0.192724
-0.201178
-0.169688
-0.181791
-0.144246
-0.156804
-0.121901
-0.132387
-0.105602
-0.112899
-0.0957798
-0.0998774
-0.0920667
-0.0931036
-0.0950518
-0.0925876
-0.0992762
-0.0950307
-0.0948591
-0.0957501
-0.135943
-0.14119
-0.129547
-0.150797
-0.142954
-0.127373
-0.102195
-0.111396
-0.0920507
-0.0922986
-0.0886848
-0.0903164
-0.0929403
-0.110723
-0.118752
-0.099322
-0.104312
-0.0943517
-0.0958774
-0.0965138
-0.0946067
-0.10512
-0.0999888
-0.120765
-0.111988
-0.144363
-0.131529
-0.175274
-0.159052
-0.209237
-0.192286
-0.238361
-0.22496
-0.254227
-0.248361
-0.252267
-0.255674
-0.232973
-0.244503
-0.202514
-0.218595
-0.169464
-0.185786
-0.140521
-0.154157
-0.11909
-0.128724
-0.104216
-0.110935
-0.0952463
-0.0989302
-0.102486
-0.0966122
-0.117607
-0.109331
-0.136921
-0.126606
-0.158944
-0.148049
-0.178583
-0.169547
-0.19043
-0.185946
-0.190256
-0.19227
-0.177751
-0.185477
-0.156819
-0.168079
-0.13336
-0.145074
-0.112881
-0.122518
-0.0982937
-0.104799
-0.0898889
-0.0933591
-0.0872867
-0.0878575
-0.0909765
-0.088289
-0.0954716
-0.143278
-0.0867985
-0.156361
-0.0929019
-0.0934974
-0.0908264
-0.167216
-0.157879
-0.123111
-0.138795
-0.142501
-0.0935642
-0.0938851
-0.0897943
-0.0921572
-0.121926
-0.146617
-0.133613
-0.104697
-0.112354
-0.094378
-0.0987281
-0.0906225
-0.0916062
-0.0936288
-0.0913154
-0.103017
-0.0974953
-0.119497
-0.110281
-0.144223
-0.13077
-0.176815
-0.159675
-0.213003
-0.194903
-0.244391
-0.229919
-0.261923
-0.255368
-0.260446
-0.263774
-0.240271
-0.252443
-0.207904
-0.225041
-0.172689
-0.190092
-0.141928
-0.156442
-0.11899
-0.129483
-0.103149
-0.110308
-0.097558
-0.0859992
-0.0823275
-0.0835845
-0.0939607
-0.0894333
-0.106719
-0.0997312
-0.123585
-0.114692
-0.142884
-0.133167
-0.160427
-0.152218
-0.171143
-0.166975
-0.171274
-0.172612
-0.160347
-0.1671
-0.141669
-0.151676
-0.120708
-0.131116
-0.102556
-0.11103
-0.0898727
-0.0954607
-0.0829042
-0.0856888
-0.0813637
-0.0814373
-0.0856353
-0.0827113
-0.096972
-0.0902739
-0.117556
-0.105804
-0.173448
-0.160322
-0.0863931
-0.159742
-0.0919236
-0.0894229
-0.174464
-0.185029
-0.132653
-0.157743
-0.0768859
-0.189621
-0.174038
-0.0821923
-0.0771806
-0.151087
-0.160669
-0.0934505
-0.0932806
-0.0903638
-0.0924429
-0.0831498
-0.0872054
-0.133137
-0.156398
-0.144941
-0.111631
-0.121658
-0.0962498
-0.103073
-0.0874198
-0.0909393
-0.0851982
-0.0854781
-0.0893632
-0.086497
-0.0997458
-0.0937407
-0.117141
-0.107466
-0.142813
-0.128874
-0.176436
-0.158772
-0.213634
-0.195049
-0.245902
-0.231008
-0.264277
-0.257316
-0.263209
-0.266374
-0.242739
-0.255156
-0.209436
-0.22711
-0.173013
-0.191033
-0.14117
-0.156194
-0.11719
-0.128158
-0.100683
-0.108124
-0.0905334
-0.0948783
-0.0858169
-0.087587
-0.0792821
-0.077595
-0.0855195
-0.0818616
-0.0960877
-0.0902654
-0.110422
-0.102857
-0.126837
-0.11854
-0.141909
-0.134822
-0.15125
-0.147578
-0.151494
-0.152614
-0.142097
-0.147926
-0.125789
-0.134539
-0.107421
-0.116536
-0.0916366
-0.0989823
-0.0808221
-0.0855527
-0.0751843
-0.077369
-0.0745253
-0.0742126
-0.0792663
-0.0761562
-0.0906208
-0.0839895
-0.110354
-0.0991871
-0.142036
-0.124468
-0.186392
-0.166412
-0.17242
-0.162678
-0.17912
-0.178822
-0.078392
-0.194194
-0.0851898
-0.0811583
-0.0802393
-0.202901
-0.204395
-0.196292
-0.196496
-0.174924
-0.186347
-0.180925
-0.0921024
-0.0892173
-0.0944213
-0.0938592
-0.0920493
-0.0937872
-0.0853452
-0.0891763
-0.137341
-0.152259
-0.145827
-0.117166
-0.127583
-0.0989563
-0.107417
-0.0858028
-0.0916617
-0.0789031
-0.0815086
-0.0783744
-0.0778611
-0.0838131
-0.0803538
-0.0951824
-0.0887145
-0.113338
-0.10331
-0.139539
-0.125368
-0.173416
-0.155662
-0.210687
-0.192071
-0.243213
-0.228142
-0.262173
-0.254898
-0.26163
-0.264556
-0.241364
-0.253739
-0.207777
-0.22565
-0.170772
-0.1891
-0.138317
-0.153645
-0.113744
-0.124987
-0.0968477
-0.104457
-0.0863547
-0.0908596
-0.0831531
-0.0706108
-0.072739
-0.0712902
-0.0717654
-0.0707709
-0.0766352
-0.0737426
-0.0852265
-0.0804667
-0.097125
-0.0908189
-0.110834
-0.103898
-0.123492
-0.117526
-0.131412
-0.128281
-0.131656
-0.132609
-0.123605
-0.128605
-0.109549
-0.117096
-0.0937322
-0.101571
-0.0802751
-0.086514
-0.0712442
-0.0751614
-0.0668149
-0.068462
-0.0668977
-0.066267
-0.0719856
-0.06875
-0.0832057
-0.0767218
-0.102323
-0.0915796
-0.131645
-0.1156
-0.172694
-0.150542
-0.180055
-0.155784
-0.211598
-0.197949
-0.0806067
-0.200151
-0.201835
-0.0857456
-0.0803858
-0.213892
-0.220995
-0.219611
-0.216419
-0.202604
-0.0663965
-0.237367
-0.1808
-0.155996
-0.224205
-0.0751574
-0.068983
-0.203158
-0.0934653
-0.0901263
-0.0965928
-0.0956309
-0.0949207
-0.0963854
-0.0886953
-0.0923773
-0.0786007
-0.0840992
-0.128384
-0.130655
-0.131078
-0.116654
-0.123866
-0.0995939
-0.108369
-0.0845486
-0.0914617
-0.0739286
-0.0785618
-0.0691908
-0.0707833
-0.0703063
-0.0690389
-0.0768928
-0.0729149
-0.0890269
-0.0822216
-0.10759
-0.0974059
-0.133806
-0.11968
-0.167345
-0.149794
-0.204187
-0.185772
-0.236555
-0.221515
-0.255731
-0.248302
-0.255698
-0.258344
-0.235969
-0.248093
-0.202699
-0.220447
-0.165805
-0.184096
-0.133359
-0.148691
-0.108716
-0.12
-0.0917523
-0.0993421
-0.0810115
-0.0856631
-0.075516
-0.0776995
-0.0741909
-0.0743787
-0.0635854
-0.0645945
-0.0637422
-0.0631898
-0.0672449
-0.0650736
-0.0740318
-0.0702357
-0.0836951
-0.0785504
-0.0949682
-0.0892529
-0.105449
-0.100499
-0.112053
-0.109436
-0.112225
-0.113052
-0.105367
-0.109627
-0.093373
-0.0998129
-0.0799398
-0.0865816
-0.0686677
-0.073867
-0.0612975
-0.0644596
-0.0579601
-0.0591284
-0.0586464
-0.0577717
-0.0638947
-0.0606345
-0.0748125
-0.0685402
-0.0931517
-0.0829014
-0.120657
-0.105677
-0.158908
-0.13819
-0.207202
-0.182211
-0.24662
-0.230042
-0.151992
-0.126483
-0.221718
-0.225957
-0.0725114
-0.232803
-0.245332
-0.074938
-0.0672662
-0.067761
-0.233581
-0.259134
-0.224212
-0.25964
-0.204555
-0.177171
-0.144335
-0.119178
-0.226007
-0.0873578
-0.0815409
-0.0960311
-0.0922098
-0.10011
-0.0987338
-0.099223
-0.100313
-0.0933989
-0.0968817
-0.0832984
-0.0887992
-0.105369
-0.0951412
-0.101697
-0.104373
-0.106233
-0.0951255
-0.100614
-0.0813977
-0.0882868
-0.0691695
-0.074769
-0.0612072
-0.0645635
-0.0585436
-0.0591855
-0.0611182
-0.0591912
-0.0686561
-0.0642617
-0.0813073
-0.0742969
-0.099953
-0.0897859
-0.125784
-0.11191
-0.158534
-0.141419
-0.194425
-0.176483
-0.226066
-0.211335
-0.245101
-0.237651
-0.245603
-0.24791
-0.226795
-0.238436
-0.194463
-0.211757
-0.158349
-0.176273
-0.1265
-0.141559
-0.102255
-0.113367
-0.085449
-0.0929901
-0.0748049
-0.0794092
-0.0690252
-0.071295
-0.0677
-0.0594608
-0.0657463
-0.0622019
-0.055961
-0.0573363
-0.055317
-0.0552651
-0.0575978
-0.0560918
-0.062742
-0.0598192
-0.0703931
-0.066294
-0.079493
-0.074863
-0.088044
-0.0839964
-0.0934592
-0.0913131
-0.093542
-0.0942635
-0.0877195
-0.0913318
-0.0775794
-0.0830169
-0.0663341
-0.0718734
-0.0570758
-0.0613184
-0.0512135
-0.0536945
-0.0488327
-0.0495879
-0.0499927
-0.0489398
-0.0552396
-0.0520438
-0.0656043
-0.0596844
-0.0827118
-0.0731789
-0.108414
-0.0943626
-0.144287
-0.125025
-0.187098
-0.165257
-0.210127
-0.109591
-0.0862508
-0.0770806
-0.242493
-0.249109
-0.0766512
-0.0689822
-0.248833
-0.266438
-0.243542
-0.275355
-0.227156
-0.27168
-0.201371
-0.169264
-0.133547
-0.26155
-0.0584212
-0.0982994
-0.0767832
-0.0702054
-0.0628214
-0.248101
-0.0900641
-0.0837075
-0.0998408
-0.0955167
-0.105077
-0.10311
-0.104983
-0.105734
-0.099433
-0.102874
-0.0892622
-0.0948313
-0.0756521
-0.082729
-0.0715453
-0.0564836
-0.0643213
-0.0808574
-0.077404
-0.0807921
-0.0816635
-0.0732625
-0.0776196
-0.0627471
-0.0681002
-0.0534929
-0.0577322
-0.0480104
-0.0501907
-0.0471942
-0.0469969
-0.0510312
-0.0485386
-0.0593426
-0.0546209
-0.0723112
-0.0652
-0.0907894
-0.0807723
-0.115898
-0.102459
-0.147389
-0.130962
-0.18176
-0.16458
-0.212174
-0.197979
-0.230797
-0.223433
-0.231835
-0.233759
-0.214246
-0.22522
-0.183368
-0.199929
-0.14864
-0.165893
-0.117942
-0.132463
-0.0945215
-0.105267
-0.078218
-0.0855423
-0.0677342
-0.0723236
-0.0618028
-0.0642855
-0.0597802
-0.0603876
-0.060807
-0.0599384
-0.0519945
-0.0547797
-0.0480617
-0.0496715
-0.0467269
-0.0470708
-0.0479251
-0.0470065
-0.0516117
-0.0494632
-0.0574868
-0.054309
-0.064676
-0.0609996
-0.0715316
-0.0682772
-0.0758887
-0.0741654
-0.0758737
-0.0765127
-0.0709427
-0.0739926
-0.0624491
-0.0669913
-0.0531777
-0.0577206
-0.0457315
-0.0491157
-0.041203
-0.0430855
-0.0396353
-0.0400461
-0.041141
-0.0399732
-0.0462539
-0.0431904
-0.0558999
-0.0504244
-0.0714784
-0.0628292
-0.0947932
-0.0820288
-0.127087
-0.10986
-0.16651
-0.145821
-0.218024
-0.191308
-0.0675852
-0.0491144
-0.23837
-0.217742
-0.260281
-0.269637
-0.0680238
-0.260355
-0.282848
-0.0624545
-0.0523888
-0.0536717
-0.247966
-0.284424
-0.224637
-0.278655
-0.193237
-0.257926
-0.157476
-0.120802
-0.0871902
-0.0429036
-0.0594781
-0.224849
-0.20646
-0.267404
-0.0792987
-0.0710393
-0.0939028
-0.0869543
-0.105127
-0.100113
-0.111557
-0.10902
-0.11223
-0.112668
-0.106907
-0.110397
-0.0964806
-0.102291
-0.0822166
-0.0897836
-0.0376514
-0.0276678
-0.0321675
-0.0494639
-0.0436924
-0.0572367
-0.0541863
-0.0578139
-0.0584728
-0.0523863
-0.0556069
-0.0445789
-0.0485522
-0.0379275
-0.0409171
-0.0346207
-0.0357791
-0.0354086
-0.0344823
-0.0403265
-0.0373545
-0.0492482
-0.0442802
-0.0623569
-0.0552373
-0.0804391
-0.0706956
-0.104501
-0.0916728
-0.134309
-0.118791
-0.166715
-0.150516
-0.195524
-0.182044
-0.213476
-0.206305
-0.215012
-0.216541
-0.198855
-0.209025
-0.169859
-0.185452
-0.13704
-0.153357
-0.107975
-0.121729
-0.0857556
-0.095959
-0.070211
-0.0772089
-0.0600798
-0.0645395
-0.0542482
-0.0566582
-0.0518498
-0.052566
-0.0517661
-0.0507391
-0.0599595
-0.0549435
-0.0441825
-0.0470748
-0.0400263
-0.0417963
-0.0381062
-0.0387811
-0.0383788
-0.0379637
-0.0408086
-0.0393278
-0.0451536
-0.0427686
-0.0507002
-0.0478438
-0.0560938
-0.0535248
-0.0595266
-0.0581754
-0.0594012
-0.0599825
-0.055228
-0.0577949
-0.0481814
-0.0519323
-0.0406679
-0.044323
-0.0348231
-0.0374523
-0.0314468
-0.0328167
-0.0305507
-0.0306832
-0.0322872
-0.0310597
-0.0371612
-0.0342819
-0.0459856
-0.041006
-0.0599505
-0.0522223
-0.0806269
-0.0693385
-0.108568
-0.0937583
-0.144708
-0.125092
-0.192405
-0.167935
-0.209484
-0.209913
-0.203799
-0.212401
-0.19121
-0.172149
-0.188729
-0.0740971
-0.037903
-0.0242191
-0.273286
-0.285054
-0.064817
-0.0555034
-0.265906
-0.291708
-0.246142
-0.288528
-0.216506
-0.27335
-0.180843
-0.244002
-0.143286
-0.208802
-0.107628
-0.0771023
-0.0525931
-0.151163
-0.033836
-0.0516325
-0.0656006
-0.0569274
-0.0215875
-0.132245
-0.151667
-0.170043
-0.281742
-0.0828894
-0.0740094
-0.0990539
-0.0913855
-0.111829
-0.105998
-0.119531
-0.116418
-0.121
-0.121104
-0.115936
-0.119282
-0.105123
-0.111214
-0.0900013
-0.0980037
-0.0722297
-0.0812764
-0.0137977
-0.0102222
-0.0116621
-0.0203781
-0.0167342
-0.0291177
-0.0247413
-0.0353252
-0.0328645
-0.0364964
-0.0367101
-0.0327886
-0.035056
-0.0272494
-0.0300558
-0.0228035
-0.0247296
-0.0213262
-0.0216261
-0.0234703
-0.0219271
-0.0292792
-0.0259189
-0.0386407
-0.0335108
-0.0517115
-0.0446753
-0.0691845
-0.059827
-0.0919384
-0.0798574
-0.119768
-0.10531
-0.149905
-0.13484
-0.17681
-0.164191
-0.193884
-0.186986
-0.195862
-0.197008
-0.181254
-0.190534
-0.154447
-0.168898
-0.123949
-0.13912
-0.096912
-0.109709
-0.0762035
-0.0857217
-0.0616381
-0.06821
-0.0520423
-0.0562844
-0.0463248
-0.0487464
-0.0437021
-0.0446429
-0.043857
-0.0434728
-0.046189
-0.0447947
-0.0426978
-0.0467784
-0.0362931
-0.0392097
-0.0319767
-0.0338767
-0.0295811
-0.030533
-0.029079
-0.0290877
-0.0304503
-0.029532
-0.0335073
-0.0317891
-0.037673
-0.035506
-0.0418318
-0.0398431
-0.0444713
-0.0434426
-0.0442317
-0.0447745
-0.0406983
-0.0428526
-0.0349178
-0.0379732
-0.0289522
-0.0318269
-0.0244954
-0.0264742
-0.0220894
-0.0230318
-0.021728
-0.0216455
-0.0235908
-0.022353
-0.0281381
-0.0254854
-0.036065
-0.0316172
-0.0483817
-0.0415847
-0.0664029
-0.0565981
-0.0904519
-0.0776984
-0.122832
-0.105074
-0.160626
-0.142702
-0.174872
-0.17024
-0.175002
-0.179465
-0.166069
-0.0199625
-0.0094917
-0.12951
-0.110858
-0.28
-0.293289
-0.0629731
-0.264909
-0.293456
-0.0480748
-0.0370757
-0.0385555
-0.238267
-0.282429
-0.203676
-0.258993
-0.165633
-0.225098
-0.128376
-0.186828
-0.0953617
-0.146873
-0.0681732
-0.0469697
-0.0310725
-0.105644
-0.0191297
-0.00945733
-0.0878925
-0.289334
-0.0679157
-0.057899
-0.0874547
-0.0778201
-0.105387
-0.0967631
-0.119846
-0.113191
-0.128876
-0.125159
-0.131166
-0.130931
-0.126331
-0.129631
-0.115025
-0.121496
-0.0988894
-0.107525
-0.0796882
-0.089572
0.000329121
-0.000526563
0.000195662
-0.00104064
-5.28254e-05
-0.00477002
-0.00250201
-0.0106218
-0.00749552
-0.0159368
-0.0135606
-0.0170567
-0.016974
-0.0147285
-0.0162273
-0.011019
-0.0128815
-0.0083776
-0.00943147
-0.00839339
-0.00799316
-0.0116377
-0.00959645
-0.018134
-0.0144826
-0.0277586
-0.0225527
-0.0406247
-0.0337552
-0.0573191
-0.0484328
-0.0785928
-0.0673457
-0.104267
-0.0909579
-0.13194
-0.118108
-0.156754
-0.145084
-0.172797
-0.166249
-0.175128
-0.17592
-0.162108
-0.170462
-0.137685
-0.150876
-0.109806
-0.123675
-0.0850903
-0.0967897
-0.0661263
-0.0748513
-0.0527126
-0.0587786
-0.0437724
-0.0477443
-0.0383043
-0.0406479
-0.0356162
-0.0366356
-0.0352539
-0.0351224
-0.0359596
-0.0696197
-0.0430916
-0.0536728
-0.0481146
-0.0346956
-0.0386054
-0.0284657
-0.0313407
-0.0240416
-0.0260373
-0.02127
-0.0224464
-0.020134
-0.0204917
-0.0206333
-0.0201788
-0.0226292
-0.0214602
-0.0256564
-0.0240583
-0.0287905
-0.0272849
-0.0307586
-0.0300056
-0.0304085
-0.0309259
-0.0274187
-0.0292185
-0.0227458
-0.0251911
-0.0181286
-0.0203264
-0.0148513
-0.0162819
-0.0132421
-0.0138374
-0.013292
-0.0130504
-0.0151955
-0.0139862
-0.0193592
-0.0169581
-0.0263616
-0.0224546
-0.0370364
-0.0311656
-0.0524187
-0.0440798
-0.0730159
-0.0620154
-0.101253
-0.0858787
-0.131666
-0.117523
-0.148383
-0.141786
-0.149406
-0.151956
-0.129152
-0.142223
-0.091926
-0.111919
-0.0655025
-0.0488555
-0.0704096
-0.0102015
-0.00177338
-0.279607
-0.293958
-0.0504317
-0.040372
-0.257112
-0.286962
-0.224917
-0.2684
-0.187348
-0.238667
-0.149116
-0.201544
-0.114099
-0.162636
-0.0844945
-0.121961
-0.0608461
-0.0819032
-0.0428806
-0.029414
-0.0191846
-0.0116929
-0.0331164
-0.0438898
-0.0596684
-0.0281383
-0.0136932
-0.00373884
-0.289472
-0.0716033
-0.0609214
-0.0928336
-0.0823258
-0.112712
-0.103101
-0.128941
-0.121439
-0.139384
-0.135015
-0.142559
-0.141959
-0.13792
-0.141222
-0.126126
-0.132867
-0.108772
-0.118071
-0.0880267
-0.0986906
-0.0661706
-0.0770827
0.00786826
0.00376896
0.00612002
0.0100164
0.00917219
0.0105656
0.0105914
0.00900884
0.0100855
0.0053813
0.0074782
0.00167068
0.00339579
0.000359941
0.000655257
0.00165666
0.000753045
0.00392917
0.00280886
0.00514399
0.00478053
0.00395506
0.00490313
-0.000131637
0.00228636
-0.0071087
-0.00326394
-0.0168281
-0.0116261
-0.0293485
-0.0227133
-0.0451452
-0.036787
-0.0648396
-0.0544735
-0.0882745
-0.0761552
-0.113407
-0.100846
-0.136051
-0.12537
-0.150959
-0.144816
-0.153544
-0.154028
-0.142071
-0.149506
-0.12012
-0.131991
-0.0950447
-0.107513
-0.0728438
-0.0833526
-0.0557793
-0.0636388
-0.0436356
-0.0491404
-0.0354452
-0.0391007
-0.0303142
-0.0325372
-0.0276031
-0.0286808
-0.0269528
-0.02703
-0.0281818
-0.0273051
-0.0308247
-0.0293844
-0.04438
-0.0555581
-0.0498051
-0.034587
-0.0392357
-0.0268066
-0.0304687
-0.0207997
-0.0236017
-0.016327
-0.0183815
-0.0132712
-0.0146208
-0.0116326
-0.012269
-0.0114322
-0.0113507
-0.0125736
-0.0118473
-0.0146789
-0.0135422
-0.0169734
-0.0158654
-0.0183783
-0.017859
-0.0179283
-0.0184271
-0.0154097
-0.0169003
-0.0117087
-0.0136195
-0.0082517
-0.00987151
-0.00595437
-0.00693426
-0.00498124
-0.00530314
-0.00533252
-0.00498093
-0.00720646
-0.00605646
-0.0109511
-0.00881472
-0.0170358
-0.01366
-0.0261147
-0.0211445
-0.038927
-0.0320125
-0.056072
-0.0468771
-0.0791535
-0.0668059
-0.103602
-0.0916389
-0.12113
-0.113652
-0.123625
-0.124695
-0.10709
-0.117682
-0.0735014
-0.0920373
-0.0534922
-0.00662476
0.000779879
-0.00926429
0.00483042
-0.271916
-0.286932
-0.243198
-0.272879
-0.073288
-0.0618159
-0.0324045
-0.0217314
-0.0229856
-0.207342
-0.248008
-0.169063
-0.214173
-0.132718
-0.176232
-0.1012
-0.136783
-0.0754809
-0.0974285
-0.0554131
-0.0594352
-0.0402511
-0.0241963
-0.0287997
-0.0203421
-0.0144006
0.00794081
-0.0105453
-0.0031699
0.021643
-0.281987
-0.0531502
-0.0424707
-0.0757811
-0.0643526
-0.0988413
-0.0874241
-0.120689
-0.110079
-0.138773
-0.130374
-0.15074
-0.145666
-0.15486
-0.153877
-0.150402
-0.15372
-0.138004
-0.145125
-0.119347
-0.129383
-0.0969604
-0.108404
-0.085113
0.00409043
-0.00802802
-0.000545987
0.0108769
0.00786474
0.0155956
0.0134547
0.0188309
0.0174555
0.0206861
0.0199381
0.0209599
0.0210482
0.0193895
0.0204009
0.01699
0.0181681
0.015762
0.0161411
0.0163121
0.0158581
0.0174799
0.0169298
0.017606
0.0177679
0.0155418
0.0168947
0.0108607
0.0135381
0.00360047
0.00754576
-0.00606031
-0.00093371
-0.0181195
-0.0117718
-0.0329383
-0.0251436
-0.0510143
-0.0415432
-0.0722153
-0.0612781
-0.0948374
-0.0835312
-0.115317
-0.105631
-0.129054
-0.123339
-0.131779
-0.132022
-0.121746
-0.128306
-0.102268
-0.112802
-0.080081
-0.0911021
-0.0604889
-0.0697615
-0.0454022
-0.0523592
-0.0345935
-0.0395057
-0.0272144
-0.0305226
-0.0224861
-0.0245538
-0.0198469
-0.0209261
-0.0190257
-0.0191955
-0.0197063
-0.0191165
-0.020584
-0.0352413
-0.0453528
-0.0401266
-0.0263419
-0.0305553
-0.0191316
-0.0225436
-0.0133809
-0.016088
-0.00891519
-0.0109947
-0.00566051
-0.00713484
-0.00364056
-0.00449013
-0.00289696
-0.00310613
-0.00336672
-0.00298935
-0.00473795
-0.00397024
-0.00635103
-0.00556777
-0.00728712
-0.00696389
-0.00675597
-0.00723617
-0.00465934
-0.00587346
-0.00181313
-0.00325692
0.000660583
-0.000474964
0.0021639
0.0015448
0.00264498
0.00253121
0.00208648
0.00250649
0.000297556
0.00136511
-0.00301105
-0.00114244
-0.00821264
-0.00534291
-0.0158069
-0.0116693
-0.0263224
-0.0206663
-0.0403424
-0.0328233
-0.0584944
-0.0489632
-0.0780605
-0.0682814
-0.0934626
-0.0863837
-0.0976926
-0.0975577
-0.0852069
-0.0935541
-0.056022
-0.0722777
-0.0189337
-0.0377988
0.0170365
-0.000599676
0.0368421
0.0483169
0.0334006
-0.257612
-0.272647
-0.0507773
-0.0341006
-0.0243601
-0.224519
-0.25246
-0.18729
-0.223277
-0.150478
-0.187808
-0.117573
-0.149957
-0.0902714
-0.11174
-0.0684998
-0.0743361
-0.0516833
-0.0392508
-0.0389256
-0.00656452
-0.0294381
0.0239234
-0.0225861
-0.0182309
-0.015469
-0.0129712
0.0572669
0.0507419
0.0614625
0.0699204
-0.267544
-0.0561076
-0.0447814
-0.0802049
-0.067987
-0.105118
-0.0926624
-0.128936
-0.117333
-0.148944
-0.1396
-0.16252
-0.156703
-0.167621
-0.166243
-0.16334
-0.166677
-0.150277
-0.157834
-0.130178
-0.141061
-0.106057
-0.118538
-0.0805691
-0.0934152
-0.0561725
-0.067955
0.00124161
-0.00420916
0.0104429
0.00607199
0.0172643
0.0141198
0.0225893
0.0201525
0.0265387
0.0247318
0.0293669
0.028081
0.0310413
0.0303753
0.0311718
0.0313127
0.0300879
0.0307041
0.0291835
0.0295283
0.029236
0.0291041
0.0295775
0.0294546
0.0289044
0.0294484
0.0262312
0.0278598
0.0211835
0.0240119
0.0138233
0.0177833
0.0043601
0.00934736
-0.0071423
-0.00112444
-0.0209362
-0.0137216
-0.0374097
-0.0288168
-0.056459
-0.0466556
-0.0766854
-0.0665766
-0.0950854
-0.0863591
-0.107652
-0.102378
-0.110391
-0.110471
-0.101652
-0.107401
-0.0845889
-0.093805
-0.0652873
-0.0748589
-0.0483096
-0.0563432
-0.0352081
-0.0412583
-0.0257508
-0.0300608
-0.019212
-0.0221567
-0.0149318
-0.0168194
-0.0124351
-0.0134782
-0.0114271
-0.0117518
-0.0117018
-0.0113987
-0.0131687
-0.0122779
-0.0152259
-0.0141362
-0.0355439
-0.0449381
-0.0403061
-0.0264611
-0.0308699
-0.018439
-0.0222707
-0.0117622
-0.0149386
-0.0062822
-0.00888228
-0.00187088
-0.00394696
0.00150492
-5.04948e-05
0.00379668
0.00279299
0.00494495
0.00451767
0.00498883
0.00509772
0.00419354
0.00466982
0.00313009
0.00364951
0.00257989
0.00274137
0.00316398
0.00270933
0.00486821
0.00390741
0.00696357
0.00592473
0.00862096
0.00788156
0.00949959
0.00916045
0.00961327
0.00965187
0.00892522
0.00938001
0.00726087
0.00823096
0.00438703
0.00599423
1.68828e-05
0.00241336
-0.00620795
-0.00283547
-0.0146459
-0.0101248
-0.0257384
-0.019815
-0.039661
-0.032406
-0.0545928
-0.0471796
-0.0671087
-0.0613849
-0.0717624
-0.070886
-0.0625855
-0.0691134
-0.038738
-0.0523939
-0.00625283
-0.023119
0.027379
0.0108086
0.0428315
0.0737034
0.0817564
-0.238086
-0.252316
-0.202927
-0.227847
-0.0613129
-0.0493261
-0.016248
-0.0068819
-0.00764906
-0.166635
-0.196508
-0.133063
-0.161316
-0.104533
-0.124862
-0.0815277
-0.0885855
-0.0634252
-0.0538657
-0.0494745
-0.0211697
-0.0389977
0.0096531
-0.0314526
0.0385175
-0.0262742
0.0634427
-0.0229841
-0.020725
-0.0181537
0.0849419
0.0921696
-0.0202213
-0.0130602
-0.247473
-0.0359664
-0.0257277
-0.0589757
-0.0470956
-0.0844769
-0.0714736
-0.11124
-0.0978128
-0.137026
-0.124429
-0.158992
-0.148688
-0.174199
-0.16763
-0.180286
-0.178513
-0.176176
-0.179536
-0.162431
-0.170437
-0.14103
-0.15255
-0.115084
-0.12841
-0.0877096
-0.10153
-0.0742748
0.00586935
0.000396937
0.0162676
0.0117783
0.0231848
0.0199955
0.0287872
0.0261413
0.0332226
0.0311398
0.0367488
0.0350851
0.0394297
0.0382134
0.0409084
0.040345
0.0410746
0.0411242
0.0406789
0.0408828
0.0404723
0.0405425
0.0402215
0.0404089
0.038984
0.0397929
0.0359276
0.0377212
0.0307152
0.0335976
0.0234215
0.0273179
0.0142806
0.0190717
0.00341212
0.00906824
-0.00934015
-0.00270509
-0.0242722
-0.0165163
-0.0413093
-0.0325615
-0.0593187
-0.0503172
-0.0757896
-0.0679561
-0.0871922
-0.0823821
-0.0898106
-0.0898025
-0.0822157
-0.0872234
-0.0674715
-0.0754109
-0.0509823
-0.0591408
-0.0365481
-0.0433771
-0.0253778
-0.0305449
-0.0172453
-0.0209628
-0.0115473
-0.0141249
-0.00773978
-0.00943199
-0.00542481
-0.00641219
-0.00433523
-0.00473553
-0.00431947
-0.00419442
-0.00529349
-0.00468774
-0.00603541
-0.026237
-0.0344314
-0.030412
-0.0181272
-0.0220769
-0.010933
-0.0144054
-0.00476598
-0.00772113
0.000437568
-0.00204928
0.00475492
0.00270597
0.00818262
0.00658465
0.0106496
0.00954358
0.0120834
0.0115
0.012509
0.0124161
0.0121605
0.0124084
0.0115385
0.0118445
0.0112975
0.0113315
0.0118972
0.011482
0.0132258
0.0125006
0.0146684
0.013975
0.0156664
0.0152413
0.0160704
0.0159407
0.0159217
0.0160662
0.0151674
0.01563
0.0136556
0.0145189
0.0112035
0.0125617
0.00759733
0.00956232
0.00259207
0.00528797
-0.00404043
-0.000503449
-0.012553
-0.00804157
-0.0228768
-0.0175331
-0.0338039
-0.0283892
-0.0430984
-0.0388317
-0.0470525
-0.046164
-0.0401274
-0.0451702
-0.0215509
-0.0321828
0.00595974
-0.00841396
0.0361208
0.0211662
0.063834
0.0503952
0.0870541
0.0759914
0.101813
0.105713
0.0967528
-0.215257
-0.227994
-0.0383086
-0.0171906
-0.00838452
-0.180435
-0.201277
-0.00679567
-0.0186007
-0.014871
-0.147043
-0.169825
-0.117851
-0.13612
-0.0939105
-0.101823
-0.074898
-0.0680274
-0.0600721
-0.0356168
-0.0487452
-0.0047177
-0.0405428
0.0244843
-0.0348206
0.0513323
-0.0311462
0.0751722
-0.0288869
0.0952204
-0.0273465
-0.0264742
-0.0245876
-0.026682
0.107439
0.110318
0.113178
0.113974
-0.223736
-0.0376213
-0.0269474
-0.0615382
-0.0491581
-0.0883845
-0.0746452
-0.116841
-0.102535
-0.144531
-0.130963
-0.168402
-0.157165
-0.185181
-0.177889
-0.192219
-0.190064
-0.18827
-0.191655
-0.173866
-0.182302
-0.151193
-0.163389
-0.123599
-0.137774
-0.0946154
-0.109129
-0.0663467
-0.0803549
-0.041869
-0.053601
0.00335307
-0.000919422
0.0117457
0.0070891
0.0216175
0.0171346
0.028503
0.0252934
0.0341954
0.0314675
0.0389501
0.0366844
0.0429557
0.041033
0.0463264
0.04473
0.0488046
0.0477048
0.0500642
0.0495887
0.0503125
0.0502803
0.0500892
0.0502393
0.0494573
0.0498547
0.0478399
0.0488231
0.0445791
0.0464489
0.0393718
0.0422253
0.0322907
0.0360544
0.0235808
0.028127
0.0134049
0.0186773
0.00168536
0.00775515
-0.0118007
-0.00482225
-0.0270061
-0.0192143
-0.0430228
-0.0350153
-0.0577392
-0.0507259
-0.0679826
-0.0636586
-0.0703539
-0.0703309
-0.0637661
-0.0680967
-0.0512296
-0.057948
-0.0374235
-0.0442364
-0.0253985
-0.031088
-0.0160554
-0.0203862
-0.00918617
-0.0123367
-0.00430512
-0.00652332
-0.000976267
-0.0024666
0.00112544
0.000213964
0.00222574
0.00179277
0.00244858
0.00244469
0.00186334
0.00225283
0.000704157
0.00133504
-0.000471599
0.000126931
-0.0248029
-0.0311867
-0.0281118
-0.0175134
-0.0210844
-0.0103452
-0.0138549
-0.00387478
-0.00701332
0.00181027
-0.000933305
0.00673417
0.00436546
0.0109239
0.00892234
0.0143431
0.012736
0.0169026
0.0157382
0.0185228
0.0178345
0.0192237
0.0189825
0.0192195
0.019289
0.0189499
0.019085
0.0189455
0.0188862
0.0195139
0.0191569
0.02048
0.0199738
0.0213673
0.0209608
0.0218514
0.0216663
0.0219094
0.0219298
0.021584
0.0217967
0.0208127
0.0212624
0.0194697
0.0202225
0.0174164
0.0185427
0.0145003
0.0160782
0.0105659
0.0126715
0.00548594
0.00817876
-0.000836035
0.00248392
-0.00820468
-0.00442559
-0.0157641
-0.0120427
-0.0219131
-0.0191658
-0.0240602
-0.0236194
-0.0186491
-0.0223509
-0.0040437
-0.0124728
0.0183356
0.00639388
0.0441798
0.0311789
0.0690224
0.0569042
0.0905532
0.0802953
0.0992856
0.119842
0.119937
-0.191234
-0.201932
-0.0220626
-0.158862
-0.174864
-0.0451884
-0.0338582
-0.00089529
0.00667672
0.00631301
-0.129697
-0.144728
-0.10526
-0.113212
-0.0856389
-0.0813726
-0.0702234
-0.0499795
-0.0583791
-0.0194068
-0.0496656
0.0100052
-0.0436663
0.0377609
-0.0397893
0.0633633
-0.0375766
0.0860421
-0.036584
0.104573
-0.036549
0.11783
-0.0349158
-0.0353648
-0.03404
0.125354
0.124252
-0.198519
-0.0179396
-0.00897518
-0.0389452
-0.027976
-0.0636534
-0.0508336
-0.0916677
-0.0772986
-0.121604
-0.106523
-0.151024
-0.13657
-0.176626
-0.164544
-0.194836
-0.186887
-0.202739
-0.200236
-0.198936
-0.202344
-0.183954
-0.192764
-0.160158
-0.172969
-0.131127
-0.146057
-0.100653
-0.115861
-0.0712171
-0.0857743
-0.0577359
-0.0013288
-0.0290153
0.00917879
0.00457737
0.0176462
0.0133673
0.0263621
0.0222095
0.0331634
0.0299674
0.0388682
0.0361159
0.0438078
0.0414296
0.0481249
0.0460329
0.0519409
0.0500989
0.0550969
0.053625
0.0572236
0.0563082
0.058167
0.0578432
0.0581547
0.0582624
0.057356
0.057864
0.0555139
0.056599
0.052182
0.054062
0.0471103
0.0498702
0.0403608
0.043935
0.0321708
0.0364326
0.0227269
0.0276033
0.0120088
0.0175394
-0.000152402
0.00612115
-0.0137344
-0.00678538
-0.0280017
-0.0208679
-0.0411297
-0.0348716
-0.0502111
-0.0463965
-0.0522255
-0.052247
-0.0465474
-0.0502466
-0.0361024
-0.0416652
-0.0248046
-0.0303646
-0.0150051
-0.019644
-0.00734777
-0.0109062
-0.00165363
-0.0042747
0.00245354
0.000578194
0.00531237
0.00402341
0.00718013
0.00635879
0.00824125
0.0078045
0.00860277
0.00850725
0.00831782
0.00853891
0.00752906
0.00797221
0.00710892
-0.0157505
-0.0214593
-0.0187483
-0.00940457
-0.0125757
-0.0031224
-0.00622553
0.00269799
-0.000142003
0.00793427
0.00539098
0.0125766
0.0103304
0.0166098
0.014673
0.0199688
0.0183807
0.0225522
0.0213655
0.0242795
0.0235268
0.0251733
0.024825
0.0254338
0.0253643
0.0254404
0.0254424
0.0256012
0.0254827
0.0260882
0.025808
0.0267092
0.0264024
0.0271405
0.0269628
0.0272421
0.0272316
0.0270606
0.0271829
0.0266264
0.0268779
0.0258758
0.0262975
0.0247093
0.0253518
0.0230253
0.0239396
0.0207215
0.0219585
0.01771
0.01931
0.0139411
0.0159233
0.00943054
0.0117728
0.00443326
0.00696145
-0.000392773
0.00193994
-0.00389056
-0.00241622
-0.00420776
-0.00458886
0.00083029
-0.00247017
0.0126866
0.00587406
0.0307417
0.0210669
0.0522336
0.0412902
0.0737192