/*--------------------------------*- C++ -*----------------------------------*\
  =========                 |
  \\      /  F ield         | OpenFOAM: The Open Source CFD Toolbox
   \\    /   O peration     | Website:  https://openfoam.org
    \\  /    A nd           | Version:  10
     \\/     M anipulation  |
\*---------------------------------------------------------------------------*/
FoamFile
{
    format      ascii;
    class       surfaceScalarField;
    location    "30.5";
    object      phi;
}
// * * * * * * * * * * * * * * * * * * * * * * * * * * * * * * * * * * * * * //

dimensions      [0 3 -1 0 0 0 0];

internalField   nonuniform List<scalar> 
51391
(
-0.0359879
0.0116323
-0.0102189
0.0345745
0.0145493
-0.0170968
-0.0334404
0.0237975
-0.0157432
0.00649496
0.0358132
-0.000383364
0.052452
-0.020954
0.0175364
-0.0490344
0.0414024
-0.0245954
0.035645
-0.0584873
0.0342757
0.0447199
-0.0205083
0.00541532
-0.0517474
-0.0121553
0.0591765
-0.00263874
-0.0511225
0.0295075
0.038806
-0.00913705
0.0195614
-0.025093
0.0635426
-0.058011
0.0583405
0.017566
-0.0563451
0.0753162
-0.0539884
-0.0464208
-0.00648811
-0.00615815
0.0024559
0.0101904
-0.00454549
-0.00579567
0.00385305
0.0575271
0.0417512
-0.0524228
-0.0468554
0.0830947
0.0234907
-0.0490583
0.101526
-0.061168
-0.0579966
0.0176384
0.0377321
0.0722186
-0.00842437
0.0334537
-0.00397758
-0.0362489
0.00677276
0.00343786
0.0253272
0.00468872
0.0131413
-0.040431
0.0272897
0.0260081
0.013115
-0.0259817
-0.00376506
-0.0427693
-0.000130281
0.0466646
-0.0459132
0.051348
-0.00919992
0.00591519
-0.00723266
-0.0445957
0.00625534
-0.0431094
-0.0439984
0.0106232
0.036362
-0.00298678
9.05265e-05
-0.0442192
0.0260389
0.0312489
0.0203697
0.0255157
-0.0198465
-0.00398379
-0.00198632
0.00597011
-0.000935027
-0.00304877
0.000912525
-0.00856457
0.00566572
-0.0297801
0.0378718
0.0141257
-0.0222174
-0.053507
0.0312544
0.0392599
-0.0170073
-0.0536329
0.0143504
-0.0142246
0.0459552
0.00207657
-0.0437476
-0.0042842
0.0318557
-0.00988847
0.023988
0.0180549
0.0550804
0.0221189
-0.0952543
0.0174393
-0.0584506
0.0590662
0.0614095
0.0178434
-0.0618137
-0.037192
0.00390538
0.00552369
0.0277629
-0.0376253
0.00168832
-0.00125506
-0.00051412
-0.0369259
-0.000185217
0.0637754
0.0230274
-0.0323657
-0.0544371
0.0145236
0.068183
-0.0189312
0.00225181
-0.0102966
0.0112415
-0.00319676
-0.0364092
0.0100817
0.0285793
0.0263535
-0.0341434
-0.0286192
0.0116468
-0.0429554
-0.0512709
0.0825796
-0.0161113
0.0830751
-0.055317
-0.0534418
0.0340992
0.0193426
-0.0348884
-0.0185535
0.0301821
-0.0191208
0.00303588
-0.0140972
0.00438259
0.000772633
0.0250269
0.000104046
-0.023315
0.00409019
-0.0678387
-0.0183538
0.0311593
0.0550332
-0.0165866
-0.0491076
-0.00214453
0.0223667
-0.00129667
-0.0376566
0.0287976
-0.0247846
-0.0529286
0.0297344
-0.0268506
0.0500447
0.0207404
-0.0425097
-0.0172538
0.00843933
-0.0171087
0.0259231
-0.0321355
-0.00784438
0.0227261
-0.0331187
-0.00505234
0.00603559
0.00502005
-0.00180267
-0.00321738
0.00276823
0.00225182
-0.00161044
0.00067541
-0.0198123
-0.0182893
0.0214887
0.016613
-0.00817651
-0.0116358
0.0191222
0.0167529
-0.00620967
-0.0296654
0.0218009
0.0240096
-0.0266884
0.0465604
0.00497538
-0.0297348
-0.0471276
0.0468065
-0.00516549
0.0054866
0.00518724
0.0385628
-0.00643656
-0.00462695
0.00253635
0.0298684
0.00638907
-0.0387938
0.0292611
-0.0371161
0.0103913
0.015608
0.0435215
0.0354243
-0.0358065
0.00207048
0.0234683
0.0158615
-0.0089252
0.015776
-0.0100944
0.00324353
0.0205378
-0.0296852
0.000222171
0.0243495
0.0119643
0.00892277
0.026122
-0.000250786
-0.034794
0.0147007
0.0261114
-0.0318894
0.0259001
0.0149226
0.000755895
-0.00259868
0.03897
-0.0371273
0.0415438
-9.91824e-05
-0.0406888
0.0187049
-0.026834
-0.00834023
0.0164693
-0.0186326
0.0224547
0.0148827
0.00365609
-0.0145509
-0.0159392
-0.00982043
0.0319189
0.00915042
0.0344379
-0.0078963
0.0297436
-0.0357511
0.0240354
-0.0180279
0.0519564
0.0186253
-0.0408381
0.0535145
-0.0225121
0.0562666
-0.0165075
-0.0375543
-0.00220481
0.012614
0.0524703
-0.0088177
0.0530062
0.0119381
-0.0523303
0.0160001
0.00722602
-0.00279671
0.0348671
0.00210024
-0.0341706
0.0272412
0.00219887
-0.0322368
0.0408249
-0.00855645
0.00291031
0.0427757
-0.0125847
-0.0331013
0.00219322
0.0397327
-0.0390156
-0.0500748
-0.0540486
0.0375026
-0.0472916
-0.0402858
-0.0538148
0.0142166
-0.0140347
-0.0134636
-0.0551774
0.0148262
0.00149461
0.0368778
-0.0038269
-0.0345455
0.0367246
-0.0322633
-0.00296669
0.0135945
-0.044336
0.0368689
-0.00612733
-0.0251808
0.000795581
0.0379797
0.0414708
0.0072583
-0.00904285
-0.0396862
0.00796227
-0.007752
0.0412605
0.0185809
0.0570407
-0.0172811
0.0287547
-0.053556
-0.0456316
0.0704329
0.0418398
-0.0726852
0.0596001
0.0189107
-0.0182646
0.0411936
0.0586038
0.010525
-0.0592464
-0.00988246
0.00597759
0.0657612
-0.0131349
0.097975
0.00116715
0.0214821
-0.120624
-0.0164138
0.0559382
-0.0167488
0.0289594
-0.0308432
0.0441282
-0.019016
-0.041861
-0.0164602
0.00765476
-0.0109592
0.0197646
0.00638199
-0.0128482
-0.00999401
0.016115
-0.0162522
0.00651916
-0.00506428
0.028834
-0.0123283
-0.00972858
-0.0339774
0.00813568
0.0355703
-0.0274329
0.0427292
-0.0250249
0.00581503
0.00209873
-0.0353467
0.00542033
-0.0335827
-0.0296421
0.029507
-0.0403499
0.0323322
0.0314511
-0.00221034
-0.0234827
0.00155835
0.0241347
-0.0112033
-0.0352912
0.0111347
0.0353598
-0.0189119
-0.0279791
0.0356876
-0.0327257
-0.0214774
-0.0341893
-0.0225128
0.0239764
-0.0347767
-0.0211931
0.0217805
-0.0344294
-0.0214175
0.0210702
-0.0343119
-0.0215921
0.0214746
-0.0341124
-0.0203731
0.0201737
-0.0337456
-0.0195186
0.0191518
-0.0337588
-0.0174308
0.0174439
-0.0337128
-0.0154394
0.0153934
-0.0340247
-0.0123572
0.0126692
-0.0343739
-0.00926125
0.0096104
-0.0349848
-0.0054802
0.00609116
-0.035685
-0.00167596
0.00237616
-0.0365036
0.00224989
-0.00143129
-0.0374315
0.00621097
-0.00528307
-0.0382842
0.0097092
-0.00885656
-0.0392923
0.0132086
-0.0122005
-0.0400765
0.015728
-0.0149439
-0.0410242
0.0182816
-0.0173338
-0.0416342
0.0195723
-0.0189623
-0.0424223
0.0210404
-0.0202524
-0.0428412
0.0212477
-0.0208288
-0.0434752
0.0218755
-0.0212415
-0.0437625
0.0214747
-0.0211874
-0.0442943
0.0217936
-0.0212618
-0.0445075
0.02136
-0.0211469
-0.044982
0.0218281
-0.0213536
-0.0451355
0.0216421
-0.0214887
-0.0455364
0.02234
-0.021939
-0.0454066
0.0220458
-0.0221757
-0.0468343
0.0224591
-0.0210314
-0.0451905
0.0222266
-0.0238703
-0.0458773
-0.0224653
0.0231521
-0.0455461
-0.0257783
0.0254471
0.029854
-0.0296428
-0.0457572
-0.0440522
0.0455336
-0.0239467
-0.0492477
-0.0205828
-0.0447221
0.0450654
0.0251038
0.0338661
-0.0389289
-0.0229163
0.0192917
0.036848
-0.0222736
0.0177468
0.0372325
-0.0417282
0.02686
-0.0447566
0.0452333
0.0217498
0.0234609
-0.044727
0.0447847
0.0219881
0.0229655
-0.0442468
0.0444312
0.0214577
0.0228779
-0.0438717
0.0440002
0.0212314
0.0223876
-0.0433835
0.043446
0.0214122
0.0224104
-0.0427399
0.0426914
0.0212963
0.0225815
-0.0418612
0.0416328
0.0198007
0.0218706
-0.0406882
0.0402633
0.016153
0.0192262
-0.0393013
0.0387246
0.0102859
0.0141706
-0.0378738
0.0372336
0.00289008
0.00706175
-0.0366308
0.0360427
-0.00489206
-0.00107315
-0.0358138
0.0353981
-0.0119416
-0.00903237
-0.0355817
0.0353637
-0.0172128
-0.0156229
-0.0358436
0.0357153
-0.0202449
-0.0199985
-0.0362942
0.0359063
-0.0210297
-0.0221709
-0.0370658
0.037044
-0.0224911
-0.0223526
-0.0233622
0.0357816
-0.0355863
0.0215853
-0.0402318
0.0166384
0.0347282
0.0195262
0.0353169
-0.0346235
0.0207811
0.0208008
0.0340226
-0.0332129
0.0183421
0.0195729
0.0334299
-0.0330295
0.014993
0.0176609
0.0334203
-0.033585
0.00977506
0.01306
0.0341165
-0.0348848
0.00314447
0.00662272
0.0354244
-0.036712
-0.00399545
-0.000891733
0.0371771
-0.0388284
-0.0105491
-0.00839147
0.0390681
-0.0408519
-0.0155501
-0.0147042
0.0407959
-0.0425372
-0.0185111
-0.0190182
0.0422274
-0.0438637
-0.0196051
-0.0211386
0.0433978
-0.0449437
-0.0197158
-0.0216534
0.0443929
-0.0459005
-0.019846
-0.0216976
0.0452514
-0.0467287
-0.0204617
-0.0221378
0.0457289
-0.0451745
-0.0215858
-0.0231754
-0.0235113
0.0184381
0.0346685
-0.0205792
0.0209689
0.0368428
-0.0210417
0.0373105
-0.0312212
0.0264405
-0.0369474
-0.023426
-0.037438
-0.037004
0.0389873
0.0244573
0.025376
-0.0251941
-0.0371293
-0.0355251
0.023897
-0.019083
-0.0371816
0.00701688
-0.0447961
0.0440431
-0.0231937
-0.0439861
-0.0213927
0.0360374
-0.0381368
0.0187378
0.0177024
0.0354638
0.0347467
0.0189931
-0.0191383
0.0186524
0.0359497
0.0364991
-0.0406081
0.0419072
0.0238048
0.0252391
-0.0425411
0.0422293
0.0220615
0.022827
-0.04181
0.0415103
0.0222877
0.0233848
-0.0417216
0.0414773
0.021702
0.0226667
-0.0416117
0.0413033
0.0215398
0.0222532
-0.0413753
0.0410071
0.0217804
0.0223384
-0.0410227
0.0405983
0.0217207
0.0225659
-0.0405438
0.0400708
0.0202737
0.021925
-0.0399365
0.0394636
0.0166258
0.0193605
-0.0392639
0.0388442
0.0107056
0.0143703
-0.0385861
0.0382606
0.00321563
0.00731986
-0.0379996
0.0378771
-0.00476952
-0.000812189
-0.0377079
0.0378357
-0.0120694
-0.00886319
-0.0377918
0.0381268
-0.0175478
-0.015579
-0.0381579
0.0385832
-0.0206702
-0.0200295
-0.038521
0.0391671
-0.0216758
-0.0221088
-0.0393281
0.0383982
-0.0215612
-0.0225136
-0.0374505
0.036718
-0.0221838
-0.0224145
-0.036435
0.0366665
-0.0212733
-0.0219906
0.0382179
-0.0367391
0.0201065
0.0196073
0.0364722
-0.0353153
0.0196242
0.0205339
0.0352726
-0.034872
0.0179415
0.0195302
0.034244
-0.0338994
0.0146483
0.0170329
0.033538
-0.0333299
0.00956695
0.0126986
0.0333617
-0.0333105
0.00309331
0.00665447
0.0337833
-0.0338648
-0.00391401
-0.000418925
0.034734
-0.034879
-0.0104042
-0.00752221
0.0360234
-0.036152
-0.0154214
-0.0135598
0.0374383
-0.0375138
-0.0184355
-0.017732
0.0388466
-0.0388628
-0.0195889
-0.0198059
0.040167
-0.0401059
-0.019777
-0.0203493
0.0413436
-0.0412011
-0.0199885
-0.0204599
0.0424133
-0.0420524
-0.0208226
-0.0209256
0.0433876
-0.0434189
-0.0215545
-0.0218402
-0.022887
-0.0234127
-0.0387536
0.0387404
0.0166683
0.0367308
-0.024948
-0.0376842
-0.0217492
0.0206168
0.0377989
0.0378773
-0.0377915
-0.021359
0.0373451
-0.0212169
0.0229126
-0.0237056
-0.0363363
0.0228914
-0.0355039
-0.0397542
-0.023315
0.0231039
-0.0234677
-0.0393904
-0.0374905
-0.0202359
0.0198422
0.0372365
0.0376914
-0.018922
0.0176074
0.0372643
0.0374194
-0.0363797
0.0375596
0.0232773
0.0349417
-0.0334981
0.0214478
0.022459
-0.0390915
0.0393976
0.0234987
0.0237073
-0.0390027
0.0383118
0.0227524
0.0232219
-0.0385164
0.0386639
0.0221402
0.0231802
-0.0387739
0.0388464
0.0216295
0.0225566
-0.0388872
0.0388965
0.0215305
0.0222124
-0.03888
0.0388465
0.0218139
0.022355
-0.0388028
0.0387557
0.0217679
0.0226095
-0.0387089
0.0386679
0.0203147
0.0219718
-0.0386383
0.0386183
0.0166458
0.0193901
-0.0386054
0.0385919
0.0107192
0.0143832
-0.0385779
0.038576
0.00321754
0.00733381
-0.0386078
0.0386799
-0.00484164
-0.000843985
-0.0388036
0.0389658
-0.0122317
-0.00898684
-0.0391672
0.0393743
-0.0177549
-0.0157804
-0.0395814
0.0397541
-0.0208429
-0.0202366
-0.0398913
0.0400381
-0.0218226
-0.022246
-0.0400135
0.0399943
-0.021542
-0.022489
-0.0391776
0.038355
-0.0213611
-0.0215978
-0.0214271
0.0366331
-0.0374038
0.0195085
-0.0374314
0.0175895
0.0365102
0.0181948
0.0377408
-0.0371512
0.0195169
0.0199444
0.0365745
-0.0358891
0.0189388
0.0199572
0.0352189
-0.0345374
0.0172599
0.01886
0.0338758
-0.0332586
0.0140311
0.0163714
0.0327204
-0.0322837
0.00913021
0.0121604
0.0319759
-0.031804
0.00292139
0.00634675
0.0317795
-0.0318956
-0.00379789
-0.000443466
0.0321499
-0.0325203
-0.0100337
-0.00726793
0.0329971
-0.0335534
-0.0148651
-0.013083
0.0341852
-0.0348644
-0.0177564
-0.0171002
0.0355778
-0.036293
-0.0188736
-0.0190925
0.0369899
-0.0376485
-0.0191184
-0.0196524
0.038261
-0.0388361
-0.0194134
-0.0198474
0.0394349
-0.0402104
-0.0200471
-0.0203268
0.0409198
-0.0415195
-0.0209548
-0.0211308
0.0422125
-0.0425852
-0.0228211
-0.022194
0.0404358
-0.0412642
-0.0224866
-0.023542
0.0195835
-0.0210525
-0.0340348
-0.0330251
0.0191105
0.0174221
0.0369162
-0.025834
-0.0378676
-0.0206065
0.0207081
0.0376974
-0.020945
0.0376835
-0.0240466
-0.0373432
-0.0220662
-0.0353226
-0.0412516
-0.0234803
-0.0236027
0.0246833
-0.0404709
0.0371903
-0.0377017
0.0181009
0.0174336
-0.0184825
-0.032986
0.0161445
-0.031736
0.0169791
0.0369532
0.0358939
0.0182755
-0.0233857
-0.0414686
-0.0386412
-0.0206184
0.0196916
0.0381633
0.0377811
-0.019115
0.0186996
0.0376797
0.037996
-0.0175655
0.0175835
0.0369352
0.0380503
-0.0324448
0.0336532
0.0202394
0.030654
-0.0302163
0.0157068
0.0173197
-0.0344971
0.0360414
0.0217331
0.0216151
-0.0367316
0.0377036
0.0225267
0.0230171
-0.0376718
0.0380472
0.0223771
0.0232537
-0.0383641
0.038616
0.0218883
0.0228632
-0.0388303
0.0390012
0.0214586
0.0223423
-0.039146
0.0392616
0.0214149
0.0220676
-0.0393646
0.0394562
0.0217222
0.0222521
-0.0395504
0.0396431
0.0216752
0.0225154
-0.0397426
0.0398411
0.0202162
0.0218723
-0.039942
0.0400306
0.0165571
0.0192892
-0.0401043
0.0401556
0.0106679
0.0143095
-0.0401899
0.040217
0.00319039
0.0072995
-0.0402498
0.0402972
-0.00488895
-0.0008768
-0.0403673
0.040455
-0.0123194
-0.00905695
-0.0405579
0.040656
-0.017853
-0.0158833
-0.0407392
0.0407873
-0.020891
-0.0203198
-0.0407937
0.0407558
-0.0217848
-0.0222524
-0.0406667
0.0405365
-0.0214118
-0.0223999
-0.0404255
0.0402222
-0.0211578
-0.0214868
-0.0392826
0.038422
-0.0204984
-0.0204876
-0.0375026
0.037444
-0.0208864
-0.0202976
0.0381221
-0.0376123
0.0189987
0.0186151
0.037298
-0.0367131
0.0189319
0.0196301
0.0360592
-0.0353825
0.0182621
0.0193033
0.0346519
-0.03393
0.0165381
0.0181295
0.0331984
-0.0325313
0.013364
0.0156397
0.0319174
-0.0314212
0.00863409
0.0115465
0.0310362
-0.0308006
0.00268581
0.0059617
0.0307055
-0.0307633
-0.00374007
-0.000538579
0.0309704
-0.0313032
-0.00970101
-0.00706082
0.0317721
-0.0323305
-0.0143068
-0.012614
0.0329978
-0.0337103
-0.0170439
-0.0164329
0.034486
-0.0352458
-0.0181139
-0.0183167
0.0360088
-0.036708
-0.0184192
-0.0188893
0.0373818
-0.0379946
-0.0188006
-0.0191736
0.0385996
-0.0391725
-0.0194742
-0.0197218
0.0397612
-0.0403348
-0.0203812
-0.020542
0.0409331
-0.0422381
-0.0215161
-0.0215958
0.0429306
-0.0426602
-0.022757
-0.0228495
0.0420816
-0.0423168
-0.0231505
-0.024059
0.0131871
-0.0147838
-0.0301392
-0.0289702
0.011941
-0.0227925
0.022905
-0.0415811
-0.0430098
-0.0220995
-0.0241501
-0.0377641
0.0235142
-0.0410801
0.0157726
0.0377048
-0.0227927
-0.0366167
-0.0202245
0.020334
0.0373344
0.0375806
-0.0388651
-0.0196019
0.0368593
-0.0195031
-0.0196458
-0.0341593
-0.0157921
-0.0319777
-0.0221358
0.0226123
-0.0420576
0.00951789
-0.0102948
-0.0293623
0.00849672
-0.027949
-0.0215107
-0.0436349
-0.0392771
-0.020652
0.0208418
0.0375076
0.0373656
-0.0203041
0.0202853
0.0381821
0.0383187
-0.0200916
0.0187707
0.0390006
0.0381897
-0.0191401
0.0174884
0.0385868
0.0376809
-0.0291507
0.0309572
0.0139002
0.0270838
-0.026777
0.00818996
0.00987405
-0.0315936
0.0331248
0.0187083
0.0166833
-0.03475
0.0352744
0.0212087
0.0199898
-0.0360754
0.0367448
0.0218573
0.0222161
-0.0373332
0.0378156
0.0218947
0.0226653
-0.0382402
0.0385942
0.0215344
0.0224386
-0.0389117
0.0391817
0.0211887
0.0220248
-0.0394311
0.0396537
0.0211923
0.0218181
-0.0398754
0.0400907
0.0215068
0.0220304
-0.0403199
0.0405489
0.0214462
0.0222863
-0.0407904
0.0410231
0.0199836
0.0216307
-0.0412522
0.0414509
0.0163584
0.0190601
-0.0416215
0.0417483
0.0105412
0.0141389
-0.04184
0.0418966
0.00313381
0.00720778
-0.0419315
0.0419516
-0.00490906
-0.000911728
-0.041966
0.0419765
-0.0123298
-0.0090713
-0.04198
0.0419671
-0.0178401
-0.0158869
-0.0419249
0.0418463
-0.0208124
-0.0202776
-0.0417203
0.041555
-0.0216195
-0.0221265
-0.0413422
0.0411009
-0.0211705
-0.0221871
-0.0407821
0.040438
-0.0208136
-0.021168
-0.0401268
0.0390121
-0.0193837
-0.0201764
-0.0201505
0.0383144
-0.0381406
0.0179271
-0.0391626
0.0173003
0.0376348
0.0174274
0.0382331
-0.0377687
0.0185343
0.0187076
0.0371695
-0.0365408
0.0183032
0.0190309
0.0358446
-0.0351299
0.0175474
0.0186071
0.0343632
-0.0336113
0.0157862
0.0173628
0.0328508
-0.0321579
0.0126711
0.0148792
0.0315184
-0.0309996
0.00811528
0.010907
0.0305923
-0.030338
0.00243151
0.00555437
0.0302326
-0.0302831
-0.00368953
-0.000643977
0.0304933
-0.0308404
-0.00935385
-0.00685065
0.0313355
-0.031932
-0.0137103
-0.012119
0.032649
-0.0334164
-0.0162765
-0.0157158
0.0342514
-0.0350664
-0.0172988
-0.0174818
0.0358833
-0.0366318
-0.0176707
-0.0180725
0.037357
-0.0380224
-0.0181352
-0.0184483
0.0386859
-0.0393193
-0.0188408
-0.0190584
0.0399733
-0.040613
-0.0197416
-0.019888
0.0412836
-0.0419492
-0.0208504
-0.0209252
0.0426436
-0.0433236
-0.0220769
-0.0221551
0.0440191
-0.0441194
-0.0230502
-0.0233634
0.0430965
-0.0426112
-0.021996
-0.0231224
0.00437087
-0.00523421
-0.0270857
-0.0258623
0.00345621
-0.0225036
0.0220757
-0.0432069
-0.0436441
-0.0214707
0.0172751
0.0379182
-0.0226255
-0.0379313
0.0220587
-0.0405266
-0.0202287
0.0204324
0.0371307
-0.0202503
0.0368809
-0.0207606
-0.0355019
0.0208333
-0.0408152
-0.0167593
-0.0331921
-0.0118769
-0.0303956
-0.00669417
-0.0279024
0.0389982
-0.0383128
0.0166149
-0.0200574
0.0189313
-0.0420809
-0.000393888
-0.00107698
-0.0256148
-0.000824682
-0.0254315
-0.0202594
-0.043442
0.0164913
0.0384186
0.0375544
0.0179352
-0.0398438
-0.0203256
0.0202426
0.0375906
0.0374725
-0.0207938
0.0208672
0.0381087
0.0377675
-0.0195673
0.0200601
0.0385078
0.0394896
-0.0185939
0.0185741
0.0386066
0.0391471
-0.0169086
0.0164209
0.0389063
0.0395837
-0.0263843
0.0283218
0.00625242
0.0252472
-0.0246444
-0.00142749
0.00231919
-0.0283737
0.0297743
0.0124996
0.00982218
-0.0311835
0.0326092
0.0172825
0.0152741
-0.033416
0.0347212
0.0199035
0.019183
-0.0356043
0.0363608
0.0211009
0.0213329
-0.0370442
0.0376226
0.0213163
0.0219819
-0.0381469
0.0385969
0.0210843
0.0219143
-0.0390131
0.0393795
0.0208223
0.0216086
-0.0397312
0.0400584
0.0208651
0.0214664
-0.0403951
0.0407293
0.0211726
0.0216937
-0.0410878
0.041447
0.0210869
0.0219278
-0.0418249
0.0421869
0.0196215
0.0212529
-0.0425416
0.04285
0.01605
0.0187055
-0.0431181
0.043321
0.0103383
0.0138708
-0.043469
0.0435548
0.00304794
0.00705984
-0.0435931
0.0435902
-0.00490613
-0.000949981
-0.0435554
0.0434958
-0.0122702
-0.00903654
-0.043406
0.0432857
-0.0177198
-0.0157971
-0.0431195
0.0429135
-0.0206063
-0.0201114
-0.0426542
0.0423621
-0.0213274
-0.0218672
-0.0420257
0.041673
-0.0208178
-0.0218507
-0.0415325
0.0406109
-0.019892
-0.0210275
-0.0402334
0.0404159
-0.0195662
-0.0197989
-0.0390515
0.0383217
-0.0188721
-0.0187862
-0.0378587
0.0363154
-0.018707
-0.0190401
0.0386923
-0.0386242
0.017859
0.0178069
0.038388
-0.0377367
0.017883
0.0184714
0.0370956
-0.0364312
0.0176389
0.0183898
0.0357024
-0.0349602
0.0168052
0.0178783
0.0341691
-0.0333972
0.0150143
0.0165716
0.0326186
-0.0319095
0.0119619
0.0141006
0.0312534
-0.0307185
0.00758037
0.0102509
0.0302946
-0.0300265
0.00216346
0.00513051
0.0299067
-0.029952
-0.00364427
-0.00076379
0.0301625
-0.030519
-0.00899732
-0.00664017
0.0310341
-0.0316606
-0.0130837
-0.0116039
0.0324177
-0.0332284
-0.0154658
-0.0149588
0.0341078
-0.0349625
-0.0164441
-0.0166024
0.0358164
-0.0365998
-0.0168874
-0.0172186
0.0373635
-0.0380712
-0.0174275
-0.0176846
0.0387847
-0.0394725
-0.018153
-0.0183449
0.0401887
-0.0408951
-0.0190352
-0.0191717
0.0416426
-0.0423876
-0.0201054
-0.0201777
0.0431766
-0.043955
-0.0212984
-0.0213662
0.0447549
-0.0455032
-0.0223019
-0.0225636
0.0453731
-0.0449648
-0.0224044
-0.0232524
0.0439624
-0.0448515
-0.0193703
-0.0224731
-0.0158768
0.013737
-0.0413022
-0.0173891
-0.0433392
-0.00450341
0.00382796
-0.0247561
-0.0241928
-0.00495508
-0.021418
-0.0372739
0.021652
-0.0413453
0.0156279
0.0383474
-0.0175469
-0.0347143
0.0194032
-0.0412871
-0.0193065
0.0194063
0.0362156
0.0372114
-0.0376675
-0.0182509
0.0358166
-0.0179117
-0.0130142
-0.0320548
0.0151275
-0.0434714
-0.00758188
-0.0295079
0.00762352
-0.0566199
0.00769417
-0.00193703
-0.0270423
0.0034808
-0.0252676
-0.00849785
0.00775744
-0.0240157
-0.00830267
-0.0243879
-0.0396098
-0.0200017
0.0200317
0.0371007
0.0362855
-0.0207688
0.0207977
0.0375616
0.0367354
-0.0197883
0.0203802
0.0375168
0.0387769
-0.0203631
0.0200988
0.0387722
0.0395067
-0.0200525
0.0189024
0.0397567
0.0391934
-0.0185525
0.0176144
0.0398444
0.0399335
-0.024636
0.0253119
-0.00210341
0.0237019
-0.0242256
-0.00777894
-0.00588925
-0.0260989
0.0274259
0.00492539
0.00153222
-0.0287632
0.0300267
0.0112361
0.00848491
-0.0310007
0.0322914
0.0159919
0.0143001
-0.033237
0.0342475
0.018893
0.0182374
-0.0352035
0.0360371
0.0202673
0.0203769
-0.036805
0.0374684
0.0206528
0.021214
-0.0380824
0.0386202
0.0205465
0.0213003
-0.0391279
0.0395849
0.0203654
0.0211009
-0.0400334
0.0404596
0.0204389
0.0210179
-0.0409049
0.0413511
0.0207264
0.0212485
-0.0418315
0.0423134
0.020605
0.0214475
-0.0428192
0.0433023
0.0191385
0.020747
-0.0437744
0.0441863
0.0156381
0.0182333
-0.0445472
0.0448234
0.0100621
0.0135099
-0.045027
0.0451451
0.00292978
0.00685627
-0.0451915
0.045173
-0.00488758
-0.000996359
-0.0450977
0.0449757
-0.0121482
-0.00896126
-0.0447991
0.044576
-0.0174967
-0.0156205
-0.0442896
0.0439593
-0.020276
-0.019825
-0.0435699
0.043155
-0.0209125
-0.0214777
-0.0426994
0.0422408
-0.0203592
-0.0213951
-0.0417569
0.0412817
-0.0194169
-0.0205435
-0.0410386
0.039981
-0.0185086
-0.0195558
-0.0398933
0.0387986
-0.0177774
-0.0186985
-0.0179091
0.0390121
-0.0394629
0.0170657
-0.0403118
0.0165403
0.0393993
0.0166355
0.0395171
-0.0389636
0.0173055
0.0178611
0.03836
-0.0377449
0.0172679
0.0178677
0.0370711
-0.0363792
0.0169471
0.0177159
0.0356264
-0.0348654
0.0160443
0.0171254
0.0340592
-0.0332759
0.014231
0.0157654
0.0324877
-0.03177
0.0112443
0.0133124
0.0311046
-0.0305597
0.00703547
0.00958542
0.0301245
-0.0298451
0.00188413
0.00469527
0.0297166
-0.0297553
-0.00360558
-0.000892349
0.0299647
-0.0303278
-0.00863419
-0.00643077
0.0308591
-0.0315103
-0.0124325
-0.0110726
0.0322993
-0.0331427
-0.0146224
-0.0141698
0.0340532
-0.0349333
-0.0155639
-0.0156919
0.0358098
-0.0366147
-0.0160825
-0.016342
0.037404
-0.0381416
-0.0166898
-0.0168953
0.0388914
-0.0396192
-0.0174252
-0.0175952
0.0403817
-0.0411391
-0.0182777
-0.0184093
0.0419481
-0.0427635
-0.01929
-0.0193688
0.0436398
-0.0445165
-0.0204217
-0.0204899
0.0454332
-0.0463019
-0.0214332
-0.0216469
0.0471323
-0.0478338
-0.0217029
-0.0224221
0.0484132
-0.0467032
-0.0210803
-0.0218937
-0.0226899
-0.0107247
0.0111224
-0.0247856
-0.0244749
-0.0104754
0.0160937
0.0398681
-0.0180694
-0.0367513
0.0187931
-0.0407351
-0.0188623
0.0192309
0.0358471
-0.0186815
0.0356358
-0.0136704
-0.0340581
0.0157664
-0.041926
-0.00823034
-0.0314064
0.0112676
-0.0471155
-0.00255661
-0.0288883
0.00812887
-0.0472123
0.00305998
-0.0266215
0.00778991
-0.0253001
0.0117115
-0.0246049
0.010633
-0.0410421
0.039847
-0.0403781
0.0170714
-0.0131258
0.0133913
-0.0250511
-0.0122642
-0.0253365
0.0159086
0.0395844
0.040162
0.0155936
-0.0388862
-0.0192126
0.0196965
0.0366168
0.0363038
-0.0192017
0.020141
0.0366223
0.0372301
-0.0203336
0.0204293
0.0374211
0.0385844
-0.0204313
0.0202739
0.0389296
0.0395046
-0.0201539
0.0197301
0.0401805
0.0393134
-0.0191592
0.0176605
0.0413432
0.0405044
-0.0172485
0.0157291
0.0411037
0.0402801
-0.0244969
0.0251308
-0.00841286
0.0250265
-0.0256604
-0.0116302
-0.00994584
-0.024852
0.0255107
-0.00276205
-0.00561048
-0.026395
0.0273112
0.00400917
0.00064792
-0.0283158
0.029381
0.0101708
0.00748036
-0.0305421
0.0316769
0.014857
0.013139
-0.032822
0.0338734
0.0178415
0.0170924
-0.0348825
0.0357773
0.0193725
0.0193679
-0.0366159
0.0373527
0.0199161
0.0203754
-0.0380453
0.0386613
0.0199304
0.0206077
-0.0392515
0.0397909
0.019826
0.0205107
-0.0403283
0.0408454
0.0199218
0.0204805
-0.0413901
0.0419385
0.0201781
0.0207037
-0.0425296
0.0431223
0.0200123
0.0208564
-0.0437433
0.0443354
0.0185464
0.020126
-0.0449142
0.045421
0.0151313
0.0176545
-0.0458694
0.0462161
0.00971537
0.0130615
-0.0464745
0.0466262
0.00277803
0.00659785
-0.0466866
0.0466603
-0.00486128
-0.00105675
-0.0465543
0.0463797
-0.0119737
-0.00885522
-0.0461257
0.045808
-0.017179
-0.0153665
-0.0454085
0.0449602
-0.0198277
-0.0194255
-0.0444469
0.0439157
-0.0203813
-0.0209644
-0.0433471
0.0427883
-0.0198004
-0.0208265
-0.0422118
0.0416575
-0.0188626
-0.0199671
-0.041091
0.0405455
-0.0179631
-0.0189893
-0.0397607
0.0397265
-0.0177432
-0.0179136
-0.0388975
0.0378104
-0.0171637
-0.0170801
-0.0372305
0.0356767
-0.0171277
-0.0173318
0.0405889
-0.0402549
0.0167317
0.0168463
0.0396569
-0.0390671
0.0167157
0.0172632
0.038432
-0.0377888
0.0166247
0.0172326
0.0370898
-0.0363779
0.0162352
0.017017
0.0356086
-0.0348363
0.0152719
0.0163561
0.0340225
-0.0332347
0.0134433
0.0149516
0.0324437
-0.0317237
0.0105242
0.0125214
0.031055
-0.0305055
0.00648598
0.00891671
0.0300638
-0.0297774
0.00159765
0.00425361
0.0296421
-0.0296761
-0.00357159
-0.0010276
0.0298851
-0.0302545
-0.00826476
-0.00622179
0.0308004
-0.0314724
-0.0117604
-0.0105268
0.032286
-0.0331515
-0.0137569
-0.0133562
0.0340794
-0.034971
-0.0146724
-0.014764
0.0358567
-0.0366721
-0.015267
-0.0154564
0.0374773
-0.0382361
-0.0159311
-0.0160901
0.0390125
-0.0397696
-0.0166682
-0.0168187
0.0405654
-0.0413589
-0.0174842
-0.0176135
0.0422109
-0.0430768
-0.018424
-0.0185168
0.0440186
-0.0449768
-0.0194635
-0.0195482
0.0460023
-0.047005
-0.0204305
-0.0206215
0.0480074
-0.0488929
-0.0208174
-0.0214197
0.049648
-0.048731
-0.0219974
-0.0211386
0.0505745
-0.0216554
-0.0208464
-0.0135877
0.0143759
-0.0261247
-0.0267402
-0.0125079
-0.00125067
0.000502082
-0.0400895
-0.0445287
0.00752694
-0.0141979
-0.0362238
0.0150178
-0.0399865
0.0150532
0.0408379
-0.00870178
-0.0335867
0.011339
-0.0419974
-0.0172475
0.0180167
0.0349075
0.035848
-0.0367045
-0.0162712
0.0348811
-0.0162806
-0.00276574
-0.0311972
0.00680373
-0.0457903
0.00310566
-0.028934
0.00646498
-0.0430443
0.00810171
-0.0269333
0.00149355
-0.0420336
0.0120499
-0.0256384
0.0144727
-0.0256863
0.015655
-0.0263301
0.0146185
-0.0137503
-0.0276085
0.0156658
-0.027172
0.00561397
-0.0040662
-0.0416373
-0.0432151
0.00430035
-0.0380663
-0.0184487
0.0186184
0.0356774
0.0352037
-0.0194588
0.0199702
0.0361054
0.0354634
-0.0197614
0.0200651
0.0363186
0.0374389
-0.0202845
0.0203992
0.0373063
0.038365
-0.0204168
0.0208935
0.0384529
0.039487
-0.0194826
0.0200049
0.0396582
0.0407243
-0.0192626
0.0190369
0.0415689
0.0412467
-0.0174105
0.0168016
0.0417126
0.0419065
-0.0261493
0.0256626
-0.0111435
0.0269518
-0.0280618
-0.0126403
-0.0117054
-0.0252172
0.0253974
-0.00859309
-0.00950042
-0.025569
0.025804
-0.00299706
-0.00578212
-0.026333
0.0270721
0.00327006
0.000118951
-0.0280234
0.0290627
0.0091315
0.00652908
-0.0302095
0.0313464
0.0137201
0.0119923
-0.0325065
0.0335864
0.0167617
0.0159323
-0.0346357
0.0355791
0.018429
0.0183186
-0.0364759
0.0372745
0.0191175
0.0194786
-0.0380346
0.0387186
0.0192465
0.0198476
-0.0393813
0.0399935
0.0192138
0.019848
-0.0406096
0.041207
0.0193244
0.0198643
-0.0418392
0.0424766
0.0195406
0.0200715
-0.0431638
0.0438523
0.0193237
0.0201692
-0.0445731
0.0452603
0.0178591
0.0194053
-0.0459338
0.0465266
0.0145385
0.016981
-0.0470548
0.0474671
0.00930306
0.0125334
-0.0477784
0.0479655
0.00259093
0.00628653
-0.0480458
0.0480208
-0.00483629
-0.00113705
-0.0478952
0.047679
-0.0117575
-0.00872958
-0.0473579
0.0469544
-0.0167755
-0.0150455
-0.0464504
0.0458925
-0.0192698
-0.0189216
-0.0452643
0.0446256
-0.0197426
-0.0203361
-0.0439537
0.0433042
-0.0191509
-0.0201546
-0.0426437
0.0420169
-0.0182357
-0.0193066
-0.0413829
0.0407781
-0.0173583
-0.0183553
-0.0403824
0.0392622
-0.016623
-0.0175179
-0.039016
0.0378908
-0.0160386
-0.0168339
-0.0161455
0.0420858
-0.041206
0.0161917
-0.0420742
0.0157208
0.0414065
0.0156052
0.0410305
-0.0404327
0.0161339
0.0166708
0.0398049
-0.039187
0.0160978
0.0166354
0.0385266
-0.0378622
0.0159603
0.0165722
0.0371449
-0.0364193
0.0155096
0.0162996
0.0356401
-0.0348624
0.0144942
0.0155769
0.0340468
-0.0332601
0.0126565
0.014136
0.0324716
-0.0317544
0.00980699
0.011733
0.0310875
-0.0305382
0.00593665
0.00824985
0.0300947
-0.029805
0.00130799
0.00381011
0.0296663
-0.0296986
-0.00353934
-0.00116628
0.0299099
-0.0302874
-0.00788719
-0.00601051
0.0308479
-0.0315376
-0.0110707
-0.00996631
0.0323682
-0.0332445
-0.0128805
-0.0125256
0.0341759
-0.0350651
-0.0137832
-0.0138326
0.0359472
-0.036763
-0.0144513
-0.0145743
0.037575
-0.0383468
-0.0151593
-0.015278
0.0391413
-0.0399186
-0.0158908
-0.0160241
0.0407372
-0.0415543
-0.016667
-0.016795
0.0424326
-0.0433268
-0.0175298
-0.0176385
0.0443026
-0.0453028
-0.0184633
-0.0185724
0.0463876
-0.0474732
-0.0193449
-0.0195366
0.0485955
-0.0496258
-0.0197871
-0.0202974
0.0505342
-0.051607
-0.0209245
-0.0202302
0.0527644
-0.0560633
-0.0183565
-0.019689
0.0667106
-0.0392727
-0.00340248
-0.0118648
0.0530683
-0.0452099
-0.000331469
-0.00423226
0.00846144
-0.0102389
-0.0414376
0.0445264
0.00702804
-0.043093
0.00361686
0.0153055
0.042334
-0.0140999
0.0150323
-0.0285408
-0.0287046
-0.0134572
-0.00960581
-0.0353198
0.0104882
-0.0391358
-0.0167952
0.0172357
0.0344669
-0.01628
0.0343659
-0.00361531
-0.0327371
0.00632764
-0.0415213
0.00242479
-0.0305164
0.00288261
-0.0422079
0.00801907
-0.0288513
-0.00106253
-0.0404882
0.0126774
-0.0275608
-0.00638131
-0.0397185
0.015642
-0.0268077
-0.0111286
-0.0407476
0.0167514
-0.0267827
0.0167807
-0.027445
0.0164689
-0.0286086
-0.0450045
0.0461609
0.00587162
-0.0144338
0.015243
-0.0293501
0.0425976
-0.0420855
0.0152087
0.0143964
0.0423156
0.0429275
0.0140665
-0.0126168
-0.0305215
-0.0104489
-0.0424743
0.00791869
-0.0118519
-0.04169
-0.0133442
-0.0399454
-0.0371839
-0.0175842
0.0188171
0.0344446
0.0348552
-0.0180707
0.0190966
0.0350794
0.0362098
-0.0195114
0.0198297
0.0360003
0.0370241
-0.020069
0.0202023
0.037173
0.0381257
-0.0202381
0.0201707
0.0385202
0.0394512
-0.0199906
0.0197218
0.039927
0.0409045
-0.019305
0.0187199
0.042154
0.0416635
-0.018008
0.0163192
0.0434014
0.0426184
-0.0158152
0.014805
0.0433258
0.0428381
-0.0288399
0.0277791
-0.0115795
0.0299111
-0.0308859
-0.0116421
-0.012386
-0.0269466
0.0267178
-0.0109146
-0.0108729
-0.0264423
0.025648
-0.00779873
-0.00922495
-0.0256933
0.0258541
-0.00315788
-0.00582739
-0.0262867
0.0269648
0.00259201
-0.000313664
-0.0278626
0.0288662
0.00812787
0.00563129
-0.0299897
0.031117
0.0125928
0.0108688
-0.0322809
0.0333774
0.0156652
0.0147684