/*--------------------------------*- C++ -*----------------------------------*\
  =========                 |
  \\      /  F ield         | OpenFOAM: The Open Source CFD Toolbox
   \\    /   O peration     | Website:  https://openfoam.org
    \\  /    A nd           | Version:  10
     \\/     M anipulation  |
\*---------------------------------------------------------------------------*/
FoamFile
{
    format      ascii;
    class       surfaceScalarField;
    location    "12";
    object      phi;
}
// * * * * * * * * * * * * * * * * * * * * * * * * * * * * * * * * * * * * * //

dimensions      [0 3 -1 0 0 0 0];

internalField   nonuniform List<scalar> 
81299
(
0.0321192
0.0265905
-0.0398834
-0.0188263
0.051006
-0.0308375
0.0119508
-0.052704
-0.0248266
0.0196674
0.0578632
-0.00919153
0.0298674
-0.0733798
0.0751295
-0.0789577
-0.00536333
0.0581449
-0.00784197
0.08249
-0.00467773
-0.043465
0.0340576
0.0672706
0.0446032
-0.0582009
-0.0579721
-0.0310758
0.0111565
0.0778913
0.00138307
-0.0345536
-0.0248015
0.0367109
-0.00779145
-0.0275363
-0.0174456
0.0230807
-0.0425293
-0.000269641
0.0539554
-0.0207521
0.00981052
-0.0315877
-0.0287152
-0.12521
0.0309365
0.109305
-0.0150314
-0.00866204
0.018222
-0.0192884
0.0200737
0.0254197
-0.0198914
-0.025602
0.000903121
0.0532821
-0.0341115
-0.0378097
-0.034667
-0.0112314
0.00333549
0.0154569
-0.00756096
-0.0176133
-0.00140958
8.62664e-05
-0.0381656
-0.0784553
0.0270231
0.0823688
0.0363095
-0.0474943
0.0795919
0.0142451
-0.0668139
0.074671
-0.00681092
0.0117319
-0.0602499
0.0337558
0.0458255
-0.0193313
-0.00869365
-0.0903553
0.038799
0.0730263
-0.00704903
-0.0147974
-0.00313922
0.00735041
0.00418438
-0.00839557
0.00618701
-0.00321081
-0.00611542
0.0021061
0.00391268
0.00016823
0.00696196
0.00249455
0.0250198
-0.0248276
-0.00905754
0.00886532
-0.000145442
0.0270369
-0.0018716
0.00328321
-0.0156616
-0.0124492
-0.020623
0.0221379
0.00176831
0.000605479
-0.0216752
0.00044675
0.00271964
-0.0177758
-0.0201911
0.0104616
0.00142926
-0.0218989
-0.00120551
0.00463899
-0.0209855
-0.0184305
0.00287842
-0.0345319
-0.0342119
0.0221322
0.0466116
-0.030799
0.0184491
-0.022182
0.020507
-0.0430987
-0.00820737
-0.0365099
0.022805
-0.0415643
0.026505
0.0379119
-0.0228526
0.0224286
-0.0418607
0.0892321
0.0184811
-0.0531315
-0.0545817
-0.00396084
0.025877
0.0673159
-0.0633711
0.0573325
0.00207784
0.0111357
-0.0560257
0.0221622
-0.041538
0.0623725
-0.0711287
0.090689
-0.0455173
0.0172008
0.0586353
0.0579307
-0.0429852
0.0375844
0.037356
-0.0319553
0.0285626
-0.0450428
0.0486118
0.0242726
-0.0443217
0.0181802
0.068016
0.00087597
-0.000419372
-0.00154518
0.00108858
-0.00103292
0.00190889
-0.00145229
-0.000153663
0.000127311
0.000642068
-0.000615716
0.000105373
-0.000259037
0.000232684
1.14119e-05
0.000580162
0.000600378
-0.00119195
0.000341449
-0.000330037
0.000921611
0.0393966
0.00149594
-0.00718873
-0.0337038
0.0292238
-0.0226247
0.0327975
-0.0277781
-0.0137938
-0.0124884
0.00561774
-0.00983841
-0.00530422
0.00952489
-0.0347783
0.0130276
0.0216053
-0.0163943
-0.0127663
-0.0150856
0.0281132
0.00970554
-0.0241494
0.0301603
-0.0157165
-0.0286638
-0.00472931
-0.00117017
-0.001489
-0.0260047
-0.0010462
-0.0242733
-0.0214266
-0.0230237
0.0277197
0.0167306
-0.00624053
0.0170511
-0.0322372
0.00607223
-0.0353364
0.0642066
0.0445618
-0.0181263
-0.090642
0.022386
-0.114721
0.102553
-0.0102178
0.090261
-0.00366848
0.00869394
-0.0616117
-0.061803
0.0440073
-0.0783518
-0.009543
0.0438875
0.0116776
0.0262117
-0.0159406
-0.0208899
0.0106188
-0.0235477
0.0471794
0.00258002
-0.0108628
-0.0198736
-0.00371985
-0.0230835
-0.0248655
0.000255734
0.117943
0.00172294
-0.0476003
0.0455046
0.0717056
0.000732715
0.000989466
0.00114985
-0.000830539
-0.00130877
0.000362193
0.00229486
-0.00166759
-0.00496115
0.00472606
-0.00188512
0.00212022
-0.00598202
0.00239704
-0.00137618
0.0276769
0.0221135
-0.0306552
-0.0191352
0.0213273
0.0152209
0.00132382
-0.0121437
-0.00440105
0.00283986
0.00585958
0.00652145
-0.00301704
-0.00440441
0.00674504
0.00067641
0.00516213
-0.00121721
-0.0147131
0.0374444
0.0227734
0.0151231
0.00765287
-0.00569911
-0.0170768
-0.0163852
-0.00219549
0.0195307
-0.0105535
0.0180597
0.0138852
0.0272508
-0.0241359
-0.00419481
0.0283307
-0.0104415
-0.0136944
-0.0235287
0.033998
-0.0209108
0.00467612
-0.0116175
-0.0165874
-0.000964564
-0.00425359
0.00521816
-0.00650113
-0.00719096
0.0127275
-0.00901825
0.00222624
-0.00224804
-0.0209637
-0.0176482
0.00144386
-0.0149903
-0.0145348
0.00242292
0.00738215
-0.00392739
-0.00345476
-0.00641161
0.0340919
0.00248066
0.00235295
0.0286502
-0.0382809
0.00341017
0.0338312
0.0010395
-0.0285424
0.00300267
-0.0127411
0.0301961
0.0134637
-0.0256327
-0.0180271
0.0249604
0.0253771
-0.0332864
0.0165525
0.0361276
0.0509109
0.019028
0.00342314
0.0284737
-0.000813356
-0.0310835
0.0345666
-0.032587
0.00144355
-0.00440131
0.00482361
0.0341443
-0.00652405
0.0305964
0.0247726
-0.0183272
-0.0040085
-0.0024369
0.0276007
-0.00364139
-0.00369559
-0.00139922
0.00159774
0.00349706
-0.00309704
-0.000523726
-7.48154e-05
-0.00180194
-0.00170405
0.000408948
-0.00355778
0.00288164
0.00127652
-0.000609705
-0.000753525
0.000171278
-0.00132762
0.0161554
-0.0161761
0.0308016
0.0526904
0.0450073
-0.00385094
-4.78481e-05
0.00134367
0.00343024
-0.00089161
0.000890484
-4.67225e-05
-0.00245058
-0.000326148
0.000152369
0.00208178
-0.000358987
-0.00286111
-0.00276192
-0.00218551
-0.000624063
-0.00380621
-0.00124041
-0.00504334
0.00746538
-0.00162719
-0.000794847
-0.0105518
0.00718831
-0.00167986
-0.0118056
0.00196902
-0.000715266
-0.00095517
0.000951373
0.0188802
0.000549905
-0.0315737
0.0236465
0.0010932
-0.0267543
-0.00177249
0.0521734
-0.0423967
0.0197825
0.034798
0.000948549
-0.0282811
0.00706494
-0.00851058
-0.000326848
-0.000839343
0.0079141
-9.81614e-06
0.0237977
-0.00797855
0.00056117
-0.0287363
-0.0148725
0.0201298
0.0234789
-0.00418155
0.0225272
0.0147749
-0.0039058
-0.0333963
-0.0141438
0.00926861
0.0274025
0.0201011
-0.0194701
0.000328934
0.00116815
0.000623127
0.00211733
0.000608647
-0.00724082
0.00533533
0.000506275
-0.00687288
-0.000891664
0.0629693
-0.00261728
-0.0486744
0.024452
-0.00700003
0.0251433
0.0083469
-0.00285896
-0.0306312
-0.0155675
0.0025256
0.0381851
0.0224515
-0.0296721
-0.018086
-0.0162387
0.0224614
0.0118633
0.00387807
0.00207926
-0.0240433
0.0151324
-0.0274931
0.0223784
-0.0414341
0.0181249
-0.0381432
0.00318333
0.0029432
0.00634501
-0.0124715
-0.00103432
0.00412651
9.11436e-05
-0.00261673
0.000627241
-0.00407458
0.0468255
0.0137082
-0.027458
-0.0330758
0.0112252
0.0729564
-0.0272344
0.000245994
0.0382135
-0.0244429
0.0109167
-0.00425179
3.85512e-05
0.000896949
0.00331629
-7.14072e-05
-0.00381819
0.00175606
-0.00182747
0.00179461
-0.027767
0.0324451
-0.00215253
0.000913856
-0.0315398
-0.00329901
0.000630664
0.0014662
-0.0106843
-0.00327032
-0.00145586
-0.0134632
0.0382255
-0.00522607
-0.0477126
0.0183222
0.0238867
-0.00398331
0.0482523
0.0355111
0.0381291
-0.0222674
-0.0513728
0.0297033
0.0358523
-0.0300445
-0.0252726
0.0263648
0.0286111
-0.0202779
0.0331344
0.0590596
0.0236908
-0.0110449
-0.00692296
0.0437151
0.0168926
-0.0175339
0.0236975
-0.0279356
0.0211306
-0.0227382
-0.00140879
0.00120351
-0.0225687
-0.00137297
-0.00300651
0.0383871
0.0128717
-0.0253242
0.0161208
0.00920338
0.0218487
0.0227018
-0.0181857
-0.00266321
-0.00169547
0.00114787
-0.0356318
0.00980886
0.0018553
0.0239677
-0.0318704
0.00593979
-0.00970122
0.00417233
-0.00103383
-0.00280378
-0.000334709
0.00346162
-0.000119828
0.0388601
-0.0226716
0.0146131
0.00216587
-0.00430721
-0.0016189
0.00376024
-0.00441309
0.00304774
0.00353121
0.000500298
0.00290984
-0.00782323
0.00111159
-0.0049185
-0.0040595
0.00195364
0.000486958
0.00608714
-0.0061021
0.00335045
0.00409839
0.000546525
2.88078e-05
-0.000575333
0.000130915
0.00041561
0.0174849
0.012692
-0.00812815
-0.0220487
0.0168711
-0.0268441
-0.0203167
0.0127449
-0.010244
0.00261929
0.0355081
-0.00675912
-0.0334783
-0.00444939
0.0317502
-0.0331271
0.00505823
0.0236195
-0.0109411
-0.0289451
0.0202783
0.0334159
-0.0137369
-0.0399573
0.0260785
-0.0394398
0.0336395
-0.0199274
0.00618
0.0398259
0.0417633
-0.0282748
-0.000465559
-0.0167143
0.00212958
0.0150503
-0.0120549
-0.00673796
-0.0189603
-0.00276283
-0.000185083
0.000876237
-0.0031989
-0.000440164
0.000980954
-0.000289799
0.000797148
-0.000675687
-0.00452587
-0.00179321
0.00259036
-0.0024689
0.0016773
0.000172608
0.0022766
-0.000930082
0.00260738
-0.000757473
-0.0148509
-0.010267
0.0158161
0.00930181
0.0032263
0.00571935
-0.0237966
0.0176672
-0.0247078
-0.00104901
-0.00641773
0.00486781
0.00259893
0.0158888
-0.0307546
0.0373173
-0.0412441
0.00337232
0.0505193
-0.0126476
-0.0333818
0.000334439
0.0329178
0.000129594
0.00334204
0.0338961
-0.0331801
-0.00405803
0.00290043
0.0352802
-0.0348386
0.00327385
0.0353567
-0.0357301
0.00305274
0.035753
-0.0355319
0.0018973
0.0355756
-0.0344202
0.00361369
0.0350828
-0.0367991
0.00519926
0.0337269
-0.0353125
0.00513116
0.0350077
-0.0349396
0.00651314
0.0334987
-0.0348807
0.00643624
0.0346164
-0.0345395
0.00763835
0.033303
-0.0345051
0.00756249
0.0342703
-0.0341944
0.00860264
0.0331428
-0.034183
0.00852931
0.0339709
-0.0338975
0.0094241
0.033012
-0.0339068
0.00935437
0.0337137
-0.0336439
0.011393
0.0316323
-0.033671
0.0106888
0.0341381
-0.033434
0.0107128
0.0334578
-0.0334817
0.0106529
0.0333179
-0.0332581
0.0112129
0.0327647
-0.0333246
0.0111596
0.0331758
-0.0331225
0.011639
0.0327277
-0.0332071
0.0115922
0.03307
-0.0330231
0.0120045
0.0327135
-0.0331258
0.0119647
0.0330002
-0.0329604
0.0123222
0.0327241
-0.0330816
0.0122901
0.0329674
-0.0329353
0.012604
0.0327622
-0.0330761
0.0125803
0.0329735
-0.0329498
0.0128607
0.0328315
-0.0331119
0.0128466
0.0330215
-0.0330074
0.0131005
0.0329382
-0.033192
0.0099161
0.0362956
-0.0331113
0.0114664
0.0317693
-0.0333196
0.0214933
0.0273734
-0.0374003
-0.012311
0.00339387
0.0304105
-0.0384522
0.0295513
-0.0362482
-0.00563865
0.00651511
0.0353718
-0.00532283
0.00313077
-0.0340562
-0.00675087
0.0359665
-0.0345384
0.03604
-0.00811865
-0.0346722
0.00643878
-0.00719874
0.0368
0.0367666
-0.00679465
0.00413205
0.0365587
0.0350641
-0.0353437
-0.00371357
0.00289833
0.0361719
0.0356987
-0.00250225
0.00240647
0.0356714
0.0361491
-0.00275062
0.00274603
0.0337315
0.0347386
-0.00256227
0.0023911
0.0336699
0.0351914
-0.00221859
0.00205644
0.0334651
0.0347889
-0.00189609
0.00174581
0.0332931
0.0344306
-0.00159777
0.00145806
0.0331518
0.0341189
-0.00191354
-8.16945e-05
0.0336276
0.0332582
-0.000431678
0.000942356
0.0329471
0.0336248
-0.000822868
0.000708443
0.0328791
0.0334374
-0.00059635
0.000488652
0.0328354
0.0332878
-0.000382942
0.000280878
0.0328156
0.0331757
-0.000180642
8.34933e-05
0.0328212
0.0331004
1.19941e-05
-0.000104839
0.032855
0.0330629
0.000196163
-0.000285208
0.0329205
0.0330648
0.0003728
-0.000210549
0.0327759
0.0331091
-0.00338761
0.00204368
0.0331133
0.0326974
0.032811
0.00114504
0.00310465
-0.0374298
-0.0351259
0.0394017
-0.00393398
0.00351992
-0.035316
-0.0356679
-0.00302884
0.00468579
-0.0360772
-0.0350408
-0.00442326
0.00362408
-0.0345133
-0.0365366
-0.00258939
0.00239722
-0.0346885
-0.0339049
-0.00221467
0.00204383
-0.0343343
-0.034357
-0.00187773
0.00172099
-0.0340263
-0.0340283
-0.00156882
0.00142441
-0.0337624
-0.0337453
-0.00128425
0.00115219
-0.0335389
-0.0335038
-0.0010199
0.000894773
-0.0333566
-0.0333017
-0.000775206
0.000659276
-0.0332087
-0.0331385
-0.0005461
0.000436357
-0.0330974
-0.0330093
-0.000329574
0.00022563
-0.0330219
-0.0329164
-0.000124371
2.53813e-05
-0.0329826
-0.0328591
7.1154e-05
-0.000165906
-0.0329813
-0.0328387
0.000258377
-0.000349161
-0.0330211
-0.0328573
0.000436798
-0.000520404
-0.0331084
-0.0329198
0.000600283
0.000709498
-0.0346294
-0.0330314
0.00239149
-0.00757112
-0.0332726
-0.0342994
-0.0083266
-0.0368565
0.0379844
-0.0377256
-0.00874475
0.0381438
0.0090293
-0.0102518
-0.0365031
-0.0359459
-0.0378139
-0.0123864
0.0414556
-0.0368865
-0.0111792
-0.0139603
-0.0378659
-0.0029109
0.00164049
0.0316809
-0.00433194
0.0309724
-0.000925648
-0.0351879
0.00578929
-0.00726545
-0.0330623
0.00507881
-0.0333457
-0.00771948
-0.0342182
-0.0098137
0.00855195
-0.0352414
-0.0357758
-0.0109244
-0.0465531
-0.00810609
0.0409223
-0.0110235
-0.042894
0.00139744
0.0384221
-0.00609429
0.00636001
0.037878
0.0367587
-0.00620688
0.00541377
0.0375931
0.0381375
-0.0051833
0.0035999
0.0369552
0.0369971
-0.00294206
0.00299806
0.0365027
0.035722
-0.00292299
0.00319717
0.0358977
0.0357738
-0.00294608
0.0031839
0.0354336
0.0364002
-0.00355855
0.00268799
0.0346021
0.034364
-0.00250104
0.00232801
0.0338429
0.0353784
-0.00215988
0.00199995
0.0336251
0.0349571
-0.00184413
0.00169566
0.0334416
0.0345865
-0.00155152
0.00141404
0.0332892
0.034263
-0.00103738
0.00115062
0.0335143
0.0336348
-0.00102625
0.000906806
0.0330666
0.0337491
-0.000789968
0.000677077
0.032992
0.0335543
-0.000567339
0.000461068
0.0329417
0.0333976
-0.000357565
0.000256987
0.0329162
0.0332792
-0.00015885
6.32202e-05
0.0329169
0.0331986
3.02776e-05
-0.000121591
0.0329464
0.0331564
0.000211042
-0.000298615
0.0330081
0.0331542
0.000384188
-0.0007154
0.0331071
0.0331947
0.000663088
-0.000958023
0.0334082
0.0326451
0.0334934
-0.00297
0.0324693
-0.0347139
-0.00411933
0.0379076
-0.0346178
0.0366604
-0.00100309
-0.00644867
-0.0251665
-0.00457952
0.00342264
-0.0362729
-0.0346266
-0.0032952
0.00330129
-0.0353221
-0.0355405
-0.00405995
0.00359347
-0.0356107
-0.0357995
-0.00209306
0.00205695
-0.0344772
-0.0350362
-0.00268504
0.00249613
-0.0344996
-0.034533
-0.00231794
0.00214558
-0.0341619
-0.0341788
-0.00198197
0.00182317
-0.0338675
-0.0338647
-0.00167216
0.00152534
-0.0336156
-0.0335943
-0.00138558
0.00125
-0.0334034
-0.033364
-0.00112042
0.000992556
-0.0332287
-0.0331721
-0.000870077
0.000750639
-0.0330893
-0.033016
-0.000636023
0.000523517
-0.0329849
-0.0328947
-0.000415179
0.000308535
-0.0329152
-0.032808
-0.000205561
0.000103931
-0.032881
-0.0327562
-5.54279e-06
-9.18081e-05
-0.032884
-0.0327404
0.000186271
-0.000280172
-0.0329272
-0.0327629
0.000372717
-0.000467121
-0.033014
-0.0328272
0.000558999
-0.00143249
-0.0337559
-0.0329395
0.00246566
-0.00140441
-0.0343338
-0.0332662
0.00243059
-0.0345512
-0.00259325
-0.0341617
-0.0351134
0.00607601
-0.0064775
-0.0326608
0.00515759
-0.0324273
-0.00733631
-0.0333594
-0.00763791
0.00732937
-0.0349328
-0.00744251
-0.0359712
-0.00241421
0.00215465
-0.0342917
-0.0342082
0.0352383
-0.00362339
-0.0021711
-0.0344513
-0.0132336
-0.044343
-0.0385612
-0.010484
0.000444843
0.0332455
-0.0386297
-0.0108559
-0.0331104
0.000173394
-0.0092518
0.00945051
0.0415646
-0.0449698
-0.00438039
0.0447463
-0.0428469
0.00147301
-9.25007e-05
0.0411491
0.00368972
0.041175
-0.00844853
0.00772129
0.0391493
0.0408279
-0.00577965
0.0052015
0.0384562
0.0387004
-0.00540802
0.0058812
0.0371199
0.037931
-0.00419162
0.00514881
0.035998
0.0386866
-0.00295077
0.0039896
0.0354639
0.03792
-0.00252588
0.00341083
0.0350128
0.0372375
-0.00319571
0.00400508
0.0346242
0.0366153
-0.00231043
0.00261522
0.0342973
0.0360586
-0.00243311
0.00226085
0.0340152
0.0355605
-0.00209594
0.0019379
0.0337831
0.035122
-0.0017861
0.00163983
0.0335879
0.0347383
-0.00149932
0.0013636
0.033425
0.0344035
-0.00088337
0.00110644
0.0332913
0.0341151
-0.000984646
0.000866445
0.0331848
0.0338709
-0.000752601
0.000641615
0.033103
0.0336681
-0.000534506
0.000429943
0.0330462
0.0335047
-0.000328824
0.000229906
0.0330151
0.0333803
-0.000134
4.00213e-05
0.0330109
0.0332945
5.13713e-05
-0.000141079
0.0330361
0.0332478
0.000228542
-0.000314659
0.0330942
0.0332417
0.000399224
-0.000482349
0.0331903
0.0332792
0.000955882
-0.00112821
0.0335805
0.0331187
0.000791185
-0.00197822
0.0328679
0.0331564
0.00275388
-0.00244808
0.0321635
0.031748
0.0311319
0.0319721
-0.0343961
-0.00402466
-0.00214141
-0.0032771
-0.00459982
0.00393686
-0.03561
-0.0340688
-0.00405829
0.00417285
-0.0354367
-0.0356619
-0.00354349
0.00300621
-0.0350734
-0.0351701
-0.00270277
0.00289665
-0.0346711
-0.0347328
-0.00269874
0.00250417
-0.034305
-0.034335
-0.00232053
0.00214409
-0.0339855
-0.0339952
-0.00197754
0.00181613
-0.0337061
-0.0336982
-0.0016631
0.00151437
-0.0334669
-0.0334413
-0.00137315
0.00123527
-0.0332655
-0.0332228
-0.00110381
0.00097519
-0.0331001
-0.0330406
-0.000852552
0.000732232
-0.032969
-0.0328934
-0.000617045
0.000503491
-0.0328713
-0.0327795
-0.000394517
0.000286761
-0.0328075
-0.0326991
-0.000183112
8.02736e-05
-0.0327782
-0.0326525
1.88845e-05
-0.000117567
-0.0327853
-0.0326412
0.000212897
-0.000307977
-0.0328321
-0.0326675
0.000399588
-0.000489925
-0.0329237
-0.0327356
0.000577399
-0.00126554
-0.0330678
-0.032852
0.00133242
-0.00181919
-0.033847
-0.0331993
-0.0338262
-0.0351203
-0.00866946
-0.0374027
0.00593567
-0.00602246
-0.032574
0.00607084
-0.0325625
-0.0351822
0.0341266
-0.00256783
-0.0349126
-0.00244064
-0.00559428
-0.0337876
-0.0499908
-0.00821265
0.00494697
0.00192095
0.0260499
-0.0307529
0.0203138
0.015386
-0.00152837
-0.045699
-0.0135548
-0.0398232
-0.040249
-0.0176488
-0.00609886
0.00606869
0.0411792
-0.0380244
-0.0101247
0.0420503
0.0120427
-0.0463774
-0.0384754
-0.0122038
-0.00870525
-0.0384396
-0.00592463
0.00695954
0.0405297
0.0413191
-0.00765726
0.00697011
0.0398365
0.0401302
-0.00559133
0.00638715
0.0376604
0.0400792
-0.00451421
0.00473415
0.0369
0.0398039
-0.00447264
0.0042174
0.0362532
0.0389481
-0.0039735
0.00373598
0.0357014
0.0381639
-0.00351603
0.00330221
0.0352266
0.0374574
-0.00309954
0.00290062
0.0348231
0.036818
-0.00271285
0.00252842
0.0344817
0.0362464
-0.00235593
0.00218559
0.0341855
0.035733
-0.00202684
0.00187001
0.0339399
0.0352807
-0.00172363
0.0015787
0.0337328
0.0348846
-0.00144308
0.00130856
0.0335595
0.0345392
-0.00118217
0.00105725
0.0334162
0.0342415
-0.000939669
0.000822873
0.0333016
0.0339885
-0.000712507
0.000603003
0.0332125
0.0337785
-0.000499112
0.000396052
0.0331493
0.0336086
-0.000297841
0.000200436
0.0331125
0.0334785
-0.000107173
1.46655e-05
0.0331034
0.0333877
7.42304e-05
-0.000162404
0.0331242
0.0333367
0.000247628
-0.000332235
0.0331788
0.0333269
0.000414505
-0.000496232
0.033272
0.0333615
0.000822402
-0.000655103
0.0334132
0.0334448
0.00108713
-0.00120926
0.03299
0.0335884
0.00244112
-0.00191745
0.0316398
0.0329799
0.0311354
0.0323277
-0.0321338
-2.0508e-05
0.00170448
0.0323438
-0.0335809
-0.00278755
-0.00193144
-0.00273143
-0.00526781
0.00438125
-0.0347234
-0.0332658
-0.00410763
0.00385015
-0.0351792
-0.0353883
-0.00360628
0.00336876
-0.0348359
-0.0349262
-0.00314571
0.00293471
-0.0344601
-0.0345097
-0.00273788
0.00254655
-0.0341137
-0.0341382
-0.00236536
0.0021885
-0.0338086
-0.033814
-0.00202203
0.00185947
-0.0335435
-0.0335317
-0.00170625
0.00155615
-0.0333168
-0.0332881
-0.00141448
0.00127522
-0.0331262
-0.0330811
-0.00114355
0.00101342
-0.03297
-0.032909
-0.00089003
0.000767817
-0.0328467
-0.03277
-0.000651854
0.000536516
-0.032756
-0.0326635
-0.000426801
0.000317221
-0.0326979
-0.0325893
-0.000212761
0.000108016
-0.0326734
-0.0325481
-7.9475e-06
-9.27882e-05
-0.0326846
-0.0325411
0.000189292
-0.00028695
-0.0327344
-0.032571
0.000380951
-0.000476683
-0.0328279
-0.0326416
0.00056931
-0.000664332
-0.0329727
-0.0327594
0.000932202
-0.00160271
-0.0331765
-0.0329314
0.00159659
-0.00198316
-0.0339051
-0.0338324
0.040694
0.0251204
-0.0537717
-0.0117843
0.0423536
-0.0381635
-0.0142892
0.000142729
-0.0450471
0.00197155
-0.0345868
-0.00229737
-0.0344629
0.00655062
-0.00731778
-0.0341657
-0.034164
0.00668901
-0.00731164
-0.0367801
-0.0366
-0.0397219
-0.00714687
0.0383229
-0.0249868
-0.00259673
-0.0510323
-0.00169318
-0.0448823
0.0109835
-0.0114295
0.0387689
0.00980375
0.0435333
-0.00443635
0.00481029
-0.0329364
-0.00350251
-0.0335078
-0.0500218
-0.0176178
0.0360557
-0.05518
-0.00586245
-0.0107965
0.0354228
-0.00815799
-0.0375932
-0.00226601
0.00200704
-0.0343278
-0.0349704
0.0352178
-0.00254473
-0.00212325
-0.0351132
-0.0483902
-0.00938654
-0.00293818
-0.0509734
-0.0124507
-0.0402747
-0.00804859
0.00697211
0.0422557
0.0438054
-0.00729362
0.00716371
0.0406596
0.0409976
-0.00534769
0.00634523
0.0388389
0.0419462
-0.0053986
0.00510665
0.0379523
0.0410258
-0.00484267
0.0045659
0.0371767
0.0400679
-0.0043254
0.00406878
0.0365099
0.0391887
-0.00384564
0.00360866
0.0359384
0.0383871
-0.00340336
0.00318487
0.0354451
0.0376627
-0.00299648
0.00279548
0.0350241
0.0370063
-0.00262061
0.00243532
0.034667
0.0364212
-0.0022735
0.00210266
0.0343564
0.0358948
-0.00195341
0.00179605
0.0340973
0.03543
-0.00165775
0.00151242
0.0338781
0.0350229
-0.00138384
0.00124927
0.033694
0.0346677
-0.00112938
0.00100438
0.0335412
0.0343614
-0.000892136
0.000775807
0.0334179
0.0341008
-0.000670234
0.00056136
0.0333214
0.033884
-0.00046169
0.000359458
0.0332515
0.0337083
-0.000265001
0.000168593
0.0332089
0.033573
-7.87096e-05
-1.26427e-05
0.0331947
0.0334776
9.85592e-05
-0.000185514
0.0332112
0.0334226
0.000268003
-0.000351245
0.0332621
0.0334094
0.000430932
-0.000511216
0.0333523
0.0334412
0.000588703
-0.000666084
0.0334906
0.0335223
0.000741086
-0.00106324
0.0333122
0.0336634
0.00166451
-0.00285445
0.0328297
0.0335811
0.0064091
0.0399546
0.03469
0.0330861
-0.0327107
-0.000395902
-0.0318739
0.0415581
0.00570178
0.00291673
0.0331013
-0.0341638
-0.00172511
-0.00154081
0.0349884
-0.0353329
-0.00222331
-0.00190682
-0.00255575
-0.00506974
0.00441524
-0.0340689
-0.0335253
-0.00414057
0.00388091
-0.0349195
-0.0351136
-0.00363385
0.00339358
-0.0345956
-0.0346792
-0.00317121
0.00295532
-0.0342442
-0.0342873
-0.00275513
0.00255867
-0.0339173
-0.033938
-0.00237622
0.00219666
-0.033629
-0.0336315
-0.00203
0.00186534
-0.0333788
-0.033365
-0.00171231
0.00156037
-0.0331648
-0.0331351
-0.00141903
0.00127796
-0.0329852
-0.0329398
-0.00114658
0.00101482
-0.0328382
-0.0327776
-0.00089204
0.000768265
-0.032723
-0.0326472
-0.00065278
0.000535739
-0.0326389
-0.032548
-0.000426386
0.000314987
-0.0325865
-0.03248
-0.000210762
0.000104056
-0.0325667
-0.0324438
-4.07589e-06
-9.87847e-05
-0.0325817
-0.0324411
0.000195299
-0.000294982
-0.0326348
-0.0324745
0.000388543
-0.000485582
-0.0327309
-0.0325481
0.000577224
-0.000672913
-0.0328771
-0.0326678
0.000762718
-0.000856674
-0.0330826
-0.0328416
0.00160882
-0.0014984
-0.0340155
-0.0330802
-0.0339543
-0.0045873
-0.0327028
0.00562617
-0.00595222
-0.0338396
-0.0331251
0.00674741
-0.00773186
-0.0357956
-0.0358048
-0.0251987
-0.0391123
0.00659459
-0.00905648
0.0412308
0.00746624
0.0426617
-0.0324197
0.0308918
-0.042188
-0.000476965
0.00289436
0.0375372
0.00322956
0.0378515
-0.0370036
-0.0108763
-0.00961908
-0.035706
-0.0354657
0.0356035
-0.00268246
-0.0351376
-0.00245138
-0.0234599
-0.0373811
0.00998635
-0.0578068
-0.0109505
0.0373168
-0.0477838
-0.0208074
-0.0322551
0.0148693
-0.0288734
0.0462592
0.00381665
-0.0043693
-0.0329552
0.00425199
-0.0333717
-0.00793813
0.00762026
0.0425736
0.0433335
-0.00655735
0.00595726
0.0412597
0.0420605
-0.00572684
0.00542696
0.0391388
0.0421766
-0.00520085
0.00490151
0.0382517
0.0412519
-0.00467601
0.00439056
0.0374622
0.0402934
-0.00417855
0.00391236
0.036776
0.0394007
-0.00371559
0.00346985
0.0361841
0.0385838
-0.0032882
0.00306087
0.0356724
0.0378444
-0.00289246
0.00268346
0.0352332
0.0371748
-0.00252751
0.0023354
0.0348591
0.0365772
-0.00219007
0.00201319
0.0345332
0.0360401
-0.00187841
0.00171607
0.0342596
0.0355648
-0.00159036
0.00144091
0.0340276
0.0351486
-0.00132322
0.00118539
0.0338319
0.0347854
-0.00107489
0.000947438
0.0336686
0.0344719
-0.000843255
0.000725118
0.033536
0.0342049
-0.000626568
0.000516521
0.0334314
0.0339826
-0.00042291
0.000320031
0.0333544
0.0338019
-0.000230829
0.000134224
0.0333055
0.0336622
-4.89345e-05
-4.22297e-05
0.0332859
0.0335629
0.000124127
-0.000210577
0.0332976
0.0335045
0.00028952
-0.000371975
0.0333445
0.0334884
0.000448445
-0.000527635
0.0334315
0.0335177
0.000602197
-0.000678554
0.033567
0.0335969
0.000751138
-0.00119679
0.0337578
0.033736
0.00155488
-0.00261022
0.0338851
0.0339392
0.0349742
0.0336707
-0.0336844
-0.000382151
-0.0351816
0.0380975
0.00278589
0.00140582
0.0339508
-0.0343819
-0.001294
-0.00127444
0.034981
-0.0354745
-0.00172979
-0.00130773
-0.00242683
-0.00432461
0.00444777
-0.0341921
-0.0335979
-0.00416316
0.0038972
-0.0346536
-0.034829
-0.00364991
0.00340829
-0.034354
-0.0344319
-0.00318795
0.00296935
-0.0340256
-0.034067
-0.00277142
0.00257327
-0.0337191
-0.0337401
-0.00239359
0.00221207
-0.0334475
-0.0334518
-0.00204765
0.00188068
-0.0332119
-0.0332006
-0.00172966
0.00157531
-0.0330105
-0.032984
-0.00143586
0.00129235
-0.0328416
-0.0328003
-0.00116281
0.00102853
-0.032704
-0.032648
-0.000907416
0.000780974
-0.0325965
-0.0325261
-0.000667036
0.000547243
-0.0325191
-0.0324341
-0.00043934
0.000325081
-0.0324722
-0.0323721
-0.000222174
0.000112459
-0.032457
-0.0323409
-1.3621e-05
-9.24423e-05
-0.0324756
-0.0323423
0.000188063
-0.000291342
-0.0325315
-0.0323789
0.000384615
-0.000486028
-0.0326295
-0.0324548
0.000577801
-0.000678034
-0.0327768
-0.032576
0.00076873
-0.000867564
-0.0329837
-0.0327509
0.000956706
-0.00171074
-0.0332615
-0.0329911
0.00162529
-0.00186336
-0.0340898
-0.0340397
-0.0497367
-0.00183783
0.00323868
0.0380884
-0.03671
-0.00991267
-0.00367949
-0.0394519
0.0020649
-0.0348285
-0.00237402
-0.0349116
-0.0537483
0.0119291
-0.00991989
0.0253932
0.00884926
-0.0100288
-0.0345265
-0.00417682
-0.0328953
-0.00475175
-0.0325502
-0.00541034
-0.033181
-0.00727089
-0.0339443
-0.0342173
-0.0581132
-0.0604511
-0.0266666
0.0116468
-0.00779632
0.00726989
0.0431881
-0.00689591
0.0403304
-0.00413237
0.0038424
-0.0330818
-0.00405697
-0.0330306
0.0374869
-0.0362733
0.0015723
0.0387854
0.00194022
-0.0341487
-0.0125901
0.0188172
-0.00863595
0.0108708
-0.0434237
-0.00200946
0.0021148
-0.0349338
-0.0354186
0.0354851
-0.00244043
-0.0349563
-0.00247185
-0.00637644
0.00626572
0.0426843
0.044227
-0.00601863
0.00525595
0.0420224
0.0423076
-0.00613254
0.00519539
0.040076
0.0413
-0.00502277
0.00469272
0.0385817
0.0414245
-0.00452093
0.00420627
0.0377769
0.0404652
-0.00404321
0.0037483
0.037071
0.0395637
-0.00359551
0.00332265
0.036457
0.0387366
-0.00318076
0.00292913
0.035924
0.0379863
-0.00279613
0.00256506
0.0354642
0.0373078
-0.00244072
0.00222932
0.0350705
0.0367015
-0.00211187
0.00191815
0.034727
0.0361576
-0.00180754
0.00163082
0.0344364
0.0356754
-0.00152612
0.00136461
0.0341891
0.0352534
-0.00126501
0.00111719
0.0339797
0.034885
-0.00102215
0.000886589
0.0338042
0.0345669
-0.000795597
0.000670973
0.0336607
0.0342959
-0.000583647
0.000468581
0.0335465
0.0340699
-0.000384497
0.000277833
0.0334611
0.0338859
-0.000196715
9.73729e-05
0.0334048
0.0337433
-1.88926e-05
-7.40614e-05
0.0333788
0.0336414
0.000150088
-0.000237629
0.0333852
0.0335805
0.00031156
-0.000394494
0.0334274
0.0335623
0.000466616
-0.000545786
0.0335106
0.0335898
0.000616585
-0.000692547
0.0336429
0.0336677
0.000762
-0.000836253
0.0338321
0.0338055
0.000904867
-0.00110396
0.0340842
0.0340078
0.000825325
0.000649434
0.0360625
0.0346956
-0.00273567
0.00296522
0.0378588
0.0357653
0.0351066
-0.0345794
-0.000909363
0.000239077
0.034539
-0.0344949
-0.00133805
-0.0013148
0.0344465
-0.0347933
-0.00138294
-0.00135622
0.0351673
-0.0355526
-0.00229714
-0.00205284
-0.00251896
-0.00456297
0.00445872
-0.0340879
-0.0343184
-0.00416848
0.00390007
-0.0343852
-0.0345388
-0.00365486
0.00340891
-0.034108
-0.0341867
-0.00319254
0.00296914
-0.0338022
-0.0338506
-0.0027751
0.00257176
-0.0335158
-0.0335461
-0.0023961
0.00221002
-0.0332614
-0.0332762
-0.00204999
0.00187873
-0.0330406
-0.0330406
-0.00173213
0.00157356
-0.0328519
-0.0328374
-0.00143847
0.00129072
-0.0326939
-0.0326652
-0.00116544
0.00102688
-0.0325654
-0.0325228
-0.00090997
0.00077919
-0.0324658
-0.0324092
-0.00066932
0.000545044
-0.0323949
-0.0323242
-0.00044104
0.000322132
-0.0323533
-0.0322681
-0.000222942
0.000108387
-0.0323424
-0.0322417
-1.30682e-05
-9.80436e-05
-0.0323645
-0.032247
0.00019032
-0.000298787
-0.032423
-0.0322866
0.000388761
-0.000495347
-0.0325229
-0.0323648
0.000583773
-0.000689163
-0.0326714
-0.0324876
0.000776545
-0.000881279
-0.032879
-0.0326636
0.000967834
-0.00107194
-0.0331574
-0.0329045
0.0014381
-0.00178849
-0.0337394
-0.0336735
-0.0345853
0.0191809
-0.0544151
0.0363607
-0.00445135
-0.0325009
-0.00481783
-0.0321837
-0.00575693
-0.0322419
-0.00703225
-0.0326689
-0.00809392
-0.0331556
-0.00996658
-0.0326538
0.00359615
0.0381544
0.00709845
0.0311176
-0.00730148
0.0229935
-0.0321609
-0.0119544
0.00598766
-0.00820909
-0.0309342
0.00543637
-0.0321177
-0.0376326
-0.0117319
-0.00560582
0.0171215
0.0169036
-0.0171928
0.0139963
-0.00572863
-0.00263431
0.00209921
-0.0343987
-0.00209048
-0.0355001
-0.0356266
0.0358356
-0.00264945
-0.0355892
-0.00250918
-0.00660769
0.0064026
0.0433932
0.0408211
-0.00632626
0.00598188
0.0430287
0.0443033
-0.00582088
0.00591098
0.0419323
0.0424686
-0.00581693
0.00496371
0.0409292
0.0413941
-0.00488576
0.00447881
0.0389887
0.0415025
-0.00439976
0.00401282
0.0381638
0.0405442
-0.00393684
0.0035747
0.0374331
0.0396397
-0.00350163
0.00316657
0.0367921
0.0388097
-0.00309662
0.00278877
0.0362319
0.0380562
-0.00272045
0.00243907
0.0357456
0.0373761
-0.002372
0.00211624
0.0353263
0.0367686
-0.00204922
0.00181685
0.0349593
0.0362246
-0.00174997
0.00153997
0.0346463
0.0357423
-0.00147301
0.00128325
0.0343788
0.0353203
-0.00121597
0.00104448
0.0341512
0.0349523
-0.000976902
0.000821724
0.0339594
0.0346345
-0.000753932
0.000613277
0.0338013
0.0343637
-0.000545445
0.000417484
0.0336745
0.0341377
-0.000349714
0.000232833
0.033578
0.0339537
-0.000165312
5.80537e-05
0.0335121
0.0338108
9.09695e-06
-0.000108082
0.0334778
0.0337085
0.000174709
-0.000266675
0.0334772
0.0336471
0.000332769
-0.000418805
0.0335135
0.0336284
0.000484374
-0.000565542
0.0335918
0.0336554
0.000630803
-0.000707888
0.03372
0.0337329
0.000772539
-0.000846452
0.033906
0.0338701
0.000910101
-0.000978939
0.034153
0.0340715
0.000613482
0.000697838
0.0347512
0.0343301
-0.000488282
0.00268974
0.0356574
0.0359749
0.0382384
-0.036905
0.00226274
-0.0033739
0.00403472
0.0375776
0.0374703
0.0373088
-0.0356719
-6.45137e-05
0.002344
0.034903
-0.0345072
-0.00130515
-0.000529897
0.0344963
-0.0344814
-0.00135295
-0.00132567
0.0344611
-0.0344359
-0.00140812
-0.00137653
0.0350545
-0.035549
-0.00180263
-0.00143429
-0.00223234
0.00929377