/*--------------------------------*- C++ -*----------------------------------*\
  =========                 |
  \\      /  F ield         | OpenFOAM: The Open Source CFD Toolbox
   \\    /   O peration     | Website:  https://openfoam.org
    \\  /    A nd           | Version:  10
     \\/     M anipulation  |
\*---------------------------------------------------------------------------*/
FoamFile
{
    format      ascii;
    class       surfaceScalarField;
    location    "17";
    object      phi;
}
// * * * * * * * * * * * * * * * * * * * * * * * * * * * * * * * * * * * * * //

dimensions      [0 3 -1 0 0 0 0];

internalField   nonuniform List<scalar> 
12623
(
0.390182
0.100435
-0.156409
-0.334207
0.301973
-0.145717
0.233926
0.411191
0.0747484
-0.388209
-0.0977301
0.0823829
0.389423
-0.0606151
-0.370611
-0.0810948
0.108447
0.343258
-0.382721
0.0944933
-0.0463291
0.199811
-0.2217
0.0682173
-0.276635
0.230306
0.367729
0.000511059
-0.36824
0.191182
-0.0110715
0.187619
0.362552
-0.170635
-0.191917
-0.245828
0.193451
0.414929
-0.2058
-0.148347
0.150693
0.203455
0.0193105
0.0334174
-0.258528
-0.195318
0.0662815
0.033768
0.031214
-0.0971944
0.0322125
0.0645883
-0.0931669
0.0623466
-0.0322659
0.128068
0.0122389
-0.0411677
-0.0202464
0.0491752
-0.110079
0.0500124
0.0723052
-0.119589
-0.0316573
-0.0568346
0.0662369
0.0364205
-0.0458228
0.026243
-0.114764
0.0316863
-0.112364
0.204844
-0.273741
0.0247784
0.28238
0.0400009
-0.305015
-0.00872649
-0.311296
0.022895
0.31318
-0.175299
0.0669574
-0.0708287
0.17917
-0.176259
-0.108702
0.109662
-0.187537
0.193903
-0.0206708
0.0143051
-0.179449
0.0588695
-0.388052
-0.0280822
0.0618857
0.354249
0.0580926
-0.395916
-0.050229
0.366421
-0.364899
-0.00636127
0.0257371
0.345524
0.0176193
-0.370938
-0.0115808
-0.391159
0.0469117
0.361867
-0.386482
-0.0327596
0.34618
-0.0215053
-0.372798
0.0481227
-0.00262251
0.0503882
0.298415
-0.356704
-0.00106871
0.336268
-0.36391
0.000844518
-0.028495
0.0193229
0.203075
-0.334597
-0.0979229
0.108124
0.324396
0.0828708
-0.33121
-0.0862577
0.0872183
-0.395191
-0.355804
0.117983
0.332315
-0.366509
-0.0346627
-0.273687
0.0207736
0.287576
0.216642
0.0373651
-0.28867
-0.223122
0.0669262
0.372838
-0.0935003
0.351931
-0.288644
0.0302134
-0.279257
0.292615
0.0580906
-0.0579609
-0.292744
0.0480323
0.273544
-0.0289618
-0.028632
0.0175577
0.314149
-0.303075
-0.325205
0.322399
-0.0258264
0.311411
-0.0509216
0.0583322
-0.318822
0.204759
-0.207213
-0.210953
0.213407
-0.214008
0.206151
0.212616
-0.2023
-0.198878
0.193966
-0.203316
-0.168213
0.169229
-0.202507
-0.125507
0.124697
-0.21016
-0.0641196
0.0717734
-0.22023
0.00584506
0.00422453
-0.234274
0.0812745
-0.0672308
-0.252403
0.147498
-0.129369
0.192748
-0.26709
-0.178061
0.209823
-0.219864
-0.203967
-0.202484
0.195682
0.212953
0.204584
-0.197246
-0.223854
-0.206963
-0.22931
-0.193422
-0.226622
-0.1709
-0.231747
-0.120382
-0.238785
-0.0570814
-0.250069
0.0171289
-0.264921
0.0961272
-0.275815
0.158392
-0.291906
0.208839
0.187296
0.19566
-0.178372
0.189307
0.193671
0.216984
-0.281696
-0.202378
-0.296582
0.22166
0.167189
0.188296
-0.159824
0.177579
0.178917
0.221355
-0.2859
-0.217151
-0.302111
0.226883
0.14204
0.181136
-0.13488
0.14336
0.214539
-0.291623
-0.208816
-0.294153
0.206582
0.180257
-0.107822
-0.0757914
0.185219
0.19854
-0.210262
-0.279901
0.196704
-0.292317
0.194402
-0.201798
-0.127485
-0.181945
0.1845
-0.078347
-0.0953645
0.214626
-0.225828
-0.16717
-0.146996
0.237877
-0.248366
-0.193478
-0.185197
0.256884
-0.259022
-0.191285
-0.198445
0.266565
-0.269633
-0.117314
-0.163357
0.279716
-0.287958
0.0253716
-0.0469988
0.297333
-0.301629
0.162688
0.105502
0.30117
-0.30847
0.22896
0.208379
0.304055
-0.296906
0.199433
0.222469
-0.286231
0.186029
-0.283407
0.263736
-0.197479
0.279917
-0.21299
-0.27719
-0.212306
-0.252655
0.230382
-0.155788
-0.191297
-0.220218
0.202443
-0.0494558
-0.119205
-0.196482
0.194521
0.073734
0.0101857
-0.192256
0.199845
0.16164
0.126962
-0.198811
0.206378
0.205839
0.195
-0.203574
0.204243
0.212285
0.21542
-0.191847
0.188909
0.181855
0.206067
-0.177142
0.107354
0.155127
0.0286878
-0.0362244
0.192756
0.187187
-0.0300188
0.178295
-0.183972
-0.272372
0.170113
-0.204275
-0.272015
-0.282542
0.276075
-0.206523
-0.218511
0.215151
-0.27383
-0.287003
-0.21405
0.15634
-0.178308
-0.250404
-0.275308
0.290268
0.155152
0.139462
-0.258429
0.215074
-0.203428
0.00265946
0.190111
-0.206
-0.0624581
0.196059
-0.035967
0.219502
-0.0329239
-0.269025
0.211825
-0.22517
-0.114141
-0.0895387
0.239933
-0.251744
-0.155359
-0.132233
0.268404
-0.277961
-0.183921
-0.168536
0.288466
-0.296541
-0.18321
-0.187939
0.30393
-0.312171
-0.109073
-0.155968
0.317847
-0.325199
0.0327229
-0.0413222
0.326369
-0.327499
0.163818
0.106672
0.323176
-0.314106
0.219889
0.204057
0.30361
-0.300132
0.195955
0.211973
0.176165
-0.262938
0.252121
-0.186662
-0.199169
-0.233931
0.220881
-0.142738
-0.173107
-0.202169
0.199197
-0.046484
-0.100492
-0.196594
0.197445
0.0728829
0.0127883
-0.20824
0.207428
0.162452
0.116168
-0.222231
0.218825
0.209245
0.180197
-0.226438
0.215419
0.223305
0.207807
-0.21169
0.202574
0.19097
0.209796
-0.197682
0.19559
0.109447
0.160019
0.0510316
-0.0118078
0.0247926
0.179771
0.194703
-0.0157012
0.19529
0.0164704
0.187386
0.229205
-0.229772
-0.286436
0.218969
-0.263594
-0.202749
-0.247573
-0.280903
0.289431
0.146624
-0.263201
0.12176
-0.143987
0.123003
-0.237446
-0.16627
-0.228122
-0.303479
0.296361
-0.222654
-0.2345
0.22376
-0.275696
-0.310046
-0.227933
-0.0555959
0.0609753
0.197695
0.223425
-0.0595185
0.0369814
-0.0452695
0.203578
0.205499
-0.199427
0.0103986
0.216645
0.025835
-0.242159
-0.0386754
0.247911
-0.228472
-0.011028
-0.252805
0.207408
-0.214635
-0.0552314
-0.0279858
0.226273
-0.243112
-0.0973015
-0.0779006
0.252631
-0.268715
-0.139275
-0.122714
0.285032
-0.297959
-0.170994
-0.152219
0.314336
-0.325698
-0.171848
-0.171563
0.340895
-0.351306
-0.0986621
-0.140771
0.36034
-0.367952
0.0403342
-0.0322877
0.366178
-0.364909
0.162549
0.104898
0.348351
-0.334139
0.205677
0.187499
0.315292
-0.305162
0.185826
0.193126
0.160434
-0.289656
0.275777
-0.192643
-0.207346
-0.260529
0.247077
-0.17321
-0.183921
-0.227702
0.21676
-0.131796
-0.153732
-0.203461
0.198879
-0.0419016
-0.0871934
-0.199288
0.205116
0.067055
0.0123794
-0.21315
0.222293
0.153309
0.108134
-0.23022
0.235771
0.203694
0.17227
-0.238382
0.236891
0.224796
0.205196
-0.237413
0.223424
0.204959
0.209274
-0.222775
0.222532
0.10969
0.160668
0.0450921
-0.0588285
0.0533064
0.185293
0.196849
0.195423
-0.247554
0.107356
0.212167
-0.252002
-0.189993
-0.22385
0.216114
-0.220353
-0.305807
0.206445
-0.266026
-0.122402
0.100296
-0.215339
-0.144959
-0.205565
0.0675858
-0.0775078
0.2135
0.0533277
0.230903
-0.0921307
0.101782
0.188043
-0.0894954
0.22079
0.256213
-0.256668
-0.0105726
-0.0570822
0.274619
0.223271
-0.215689
0.00281744
0.230295
0.0188108
-0.231585
0.0843269
-0.0711023
0.0507441
-0.211227
-0.0891278
-0.197314
0.252742
-0.06435
-0.230631
0.221222
-0.233171
-0.0432831
-0.0224528
0.245478
-0.253259
-0.0895206
-0.0655935
0.270056
-0.283545
-0.125786
-0.105917
0.299973
-0.317829
-0.153138
-0.135791
0.336718
-0.356219
-0.152347
-0.152674
0.37341
-0.387606
-0.0844657
-0.123581
0.39702
-0.401368
0.0446827
-0.0228741
0.398558
-0.388621
0.152612
0.102088
0.373906
-0.354917
0.186688
0.172784
0.335488
-0.315967
0.166306
0.173696
0.301518
-0.28119
0.126296
0.145985
0.268523
-0.254382
0.0932152
0.109093
0.235697
-0.222631
0.0376778
0.0656419
-0.32481
0.30926
-0.207104
0.335023
-0.34495
-0.210426
-0.217719
-0.296233
0.282709
-0.179119
-0.194318
-0.262838
0.249853
-0.160224
-0.164051
-0.2332
0.220822
-0.119418
-0.13708
-0.211818
0.207544
-0.0376279
-0.07819
-0.208748
0.215058
0.0607455
0.0111757
-0.223706
0.234365
0.14265
0.0994852
-0.243839
0.252194
0.19534
0.162795
-0.257657
0.260907
0.221545
0.199733
-0.259278
0.264078
0.200158
0.210903
-0.258353
0.257174
0.110869
0.166393
0.045598
-0.104112
0.0917422
0.197663
0.19452
0.209658
-0.183873
0.17634
-0.298274
-0.349356
-0.179468
0.0137842
-0.0262814
-0.198729
-0.212551
0.00370465
0.18871
-0.234267
-0.168895
-0.199914
0.0474864
0.236136
-0.0820309
0.245278
0.304394
-0.300007
-0.01496
0.310261
-0.0629489
0.163969
-0.253656
-0.109129
-0.185564
0.104485
-0.105659
-0.348182
0.099154
-0.292943
-0.0392338
-0.184361
-0.0351243
0.0286892
-0.192294
-0.0339623
-0.213713
0.290947
-0.0806773
-0.210816
0.243818
-0.241403
0.0004029
-0.242359
0.250795
0.0390506
0.0202697
0.246775
-0.251791
-0.0382664
-0.0170816
0.258052
-0.267735
-0.079837
-0.0593331
0.281487
-0.2962
-0.111073
-0.0921655
0.313719
-0.333686
-0.133171
-0.118272
0.355629
-0.378323
-0.129653
-0.13073
0.398539
-0.415083
-0.0679224
-0.103365
0.425547
-0.429003
0.0481386
-0.0124097
0.424785
-0.412621
0.140448
0.0978699
0.394838
-0.373417
0.165267
0.155001
0.351666
-0.329249
0.143889
0.151945
0.3054
-0.288948
0.109844
0.122136
0.269265
-0.252198
0.0761479
0.0894095
0.239903
-0.232023
0.0297972
0.0533477
0.228045
-0.229637
-0.0323703
-0.000272762
-0.383706
0.369335
-0.196055
0.395202
-0.400889
-0.0999721
-0.167972
-0.347805
0.328348
-0.187648
-0.196189
-0.304796
0.289893
-0.164215
-0.170766
-0.270955
0.254551
-0.14382
-0.145113
-0.240535
0.229172
-0.108054
-0.123064
-0.22232
0.21962
-0.0349278
-0.0713388
-0.221845
0.228687
0.0539029
0.00895121
-0.238157
0.249894
0.130912
0.0900157
-0.26092
0.271909
0.18435
0.15177
-0.280756
0.289032
0.213268
0.190887
-0.298078
0.297507
0.20073
0.201857
-0.301983
0.302882
0.10997
0.161917
0.0484726
0.00497694
-0.00687744
-0.346281
-0.399161
0.00324959
-0.0692891
0.0776526
-0.222077
-0.235995
-0.0629317
0.291786
-0.101626
-0.131747
0.13536
0.241665
0.268163
-0.152492
0.139194
0.201341
0.203657
-0.133365
0.123719
0.20731
0.200349
-0.111776
0.0984138
0.226862
0.2216
-0.0855517
0.0742216
0.247466
0.243765
0.06412
0.260897
0.145651
-0.215948
-0.127209
-0.181833
0.0868693
-0.241371
-0.0514104
-0.173388
-0.00943871
-0.290382
0.0237702
-0.179442
-0.124842
0.118228
-0.392548
-0.125495
-0.345628
0.0845195
-0.199161
0.097721
-0.0865041
-0.247212
0.11298
-0.237336
0.260495
-0.256266
0.034821
0.272483
0.0521324
-0.192374
0.253458
-0.254419
0.00136412
0.0174614
0.258873
-0.261509
-0.0356313
-0.0126269
0.270796
-0.27984
-0.0707932
-0.0500455
0.293179
-0.307643
-0.0966087
-0.0788268
0.326073
-0.346903
-0.112341
-0.0998416
0.370154
-0.393758
-0.106049
-0.10748
0.41448
-0.430599
-0.0518028
-0.0826432
0.439869
-0.441706
0.0499751
-0.00313971
0.436104
-0.423111
0.127455
0.0922677
0.40431
-0.38182
0.142777
0.136201
0.358595
-0.335491
0.120785
0.12872
0.314274
-0.293977
0.0895464
0.100919
0.276121
-0.260072
0.0600987
0.0715535
0.24802
-0.240786
0.0225626
0.0412967
0.236691
-0.240493
-0.0285679
-0.004368
0.249247
-0.262379
-0.0733726
-0.0541774
-0.441851
0.434248
-0.0923693
0.44031
-0.432998
0.110916
0.00170813
-0.413816
0.389045
-0.171284
-0.147539
-0.360024
0.338248
-0.165872
-0.167168
-0.314831
0.295685
-0.14507
-0.147349
-0.27876
0.261877
-0.126937
-0.128188
-0.248429
0.238203
-0.0978277
-0.109616
-0.233217
0.23242
-0.0341303
-0.0663531
-0.235951
0.243607
0.0462468
0.00541987
-0.253935
0.266952
0.117896
0.0796875
-0.280031
0.293903
0.170478
0.13869
-0.306507
0.31945
0.200326
0.178283
-0.330568
0.341277
0.190021
0.190739
-0.351261
0.347385
0.113847
0.151933
-0.343318
0.342939
-0.0145812
0.0525392
-0.347565
0.350177
-0.104238
-0.0675743
-0.10259
-0.159292
0.176105
0.224852
0.133298
0.309081
0.242169
-0.17125
0.165078
0.207513
0.208513
-0.158544
0.145919
0.219935
0.206883
-0.137587
0.118687
0.245762
0.229932
-0.108024
0.091279
0.264211
0.254428
0.205226
-0.215559
-0.382214
-0.4216
0.193828
-0.0994058
0.116872
-0.264678
-0.275173
-0.0866121
-0.0828699
0.0747552
0.280598
0.269306
0.0748891
-0.203968
-0.0625704
-0.170673
-0.0113173
-0.239492
0.0200806
-0.169698
-0.123302
-0.292575
0.0902828
-0.185205
-0.21949
-0.341697
0.130437
-0.216618
-0.249901
0.234843
-0.406543
-0.265994
-0.366121
0.137606
-0.25807
0.110461
-0.285224
-0.100409
0.128506
-0.282724
-0.410676
0.43497
0.210549
0.235504
-0.257496
-0.384551
-0.384947
0.209775
-0.108626
0.126624
-0.303223
-0.283641
0.266397
-0.0831652
-0.302958
-0.0893086
0.293427
-0.284085
0.0654137
0.0780647
-0.0989017
0.301435
0.299714
0.0717772
-0.180056
0.271106
-0.27335
0.0370651
0.0391531
0.269204
-0.270732
0.00289289
0.0133148
0.270909
-0.273968
-0.0325729
-0.0124501
0.28194
-0.291154
-0.0615793
-0.0420733
0.304654
-0.319377
-0.081886
-0.0653264
0.337434
-0.357578
-0.0921969
-0.0817841
0.379075
-0.401031
-0.084093
-0.0859825
0.420307
-0.435366
-0.0367434
-0.0633674
0.442887
-0.442035
0.0491233
0.00438131
0.433802
-0.419328
0.11298
0.0840346
0.400831
-0.379281
0.121227
0.117704
0.356951
-0.334865
0.0986988
0.106391
0.314017
-0.294983
0.0705128
0.0800712
0.277591
-0.262306
0.0448131
0.0541613
0.249937
-0.240906
0.0135316
0.028928
0.238295
-0.240479
-0.0263837
-0.00697903
0.245885
-0.257275
-0.0619819
-0.0487717
-0.077491
-0.451538
0.466148
0.0963069
0.17726
-0.466516
0.454237
-0.0800902
0.00133989
-0.427541
0.401842
-0.145585
-0.120844
-0.373953
0.349647
-0.141566
-0.139279
-0.329319
0.310243
-0.125994
-0.12702
-0.292725
0.274822
-0.109034
-0.11067
-0.259791
0.248345
-0.0863814
-0.0945861
-0.243257
0.243911
-0.0347836
-0.0612656
-0.248968
0.258073
0.0371414
0.000363079
-0.269523
0.283729
0.10369
0.0682375
-0.298633
0.314944
0.154167
0.123786
-0.330713
0.347571
0.183467
0.162514
-0.36305
0.377911
0.175161
0.17526
-0.388451
0.39395
0.108348
0.141393
-0.393774
0.387953
-0.0087601
0.0527153
-0.379583
0.375072
-0.0997283
-0.0592037
-0.122708
-0.137489
0.178043
0.268527
0.303273
-0.182164
0.1826
0.224416
0.238048
-0.181294
0.178553
0.210253
0.209819
-0.174436
0.16884
0.225531
0.211
-0.161807
0.153943
0.253626
0.236965
-0.140424
0.119967
0.284668
0.267948
0.290371
-0.0149299
-0.200356
0.0179124
-0.168505
-0.11862
-0.244174
0.0969161
-0.176331
-0.216314
-0.295751
0.147919
-0.202687
-0.272464
-0.335227
0.162992
-0.242004
-0.276214
-0.347403
0.151991
-0.281555
-0.211398
0.183583
-0.357132
-0.240328
-0.35562
0.140212
-0.296311
0.112329
-0.323131
-0.0921566
0.133223
-0.324116
-0.327387
0.35868
0.15229
0.150503
-0.185887
-0.321747
-0.293763
0.116879
-0.0968547
0.112053
-0.338329
-0.336582
0.329505
-0.0850792
-0.348699
-0.0847382
0.0853973
-0.107576
0.323613
0.0652991
0.319813
0.300272
-0.292346
0.0574877
0.312111
0.0599387
-0.177073
0.286609
-0.281553
0.0320091
0.0334161
0.281256
-0.278684
0.000320451
0.0130177
0.281156
-0.284278
-0.0294507
-0.00997766
0.293104
-0.302951
-0.0517318
-0.0332476
0.315683
-0.330204
-0.0673647
-0.0525947
0.345645
-0.363483
-0.0743592
-0.0663433
0.380994
-0.400098
-0.0649887
-0.0684715
0.416876
-0.430854
-0.022765
-0.0465901
0.436987
-0.434859
0.0469959
0.010514
0.425426
-0.409857
0.0974113
0.0746016
0.39143
-0.370166
0.0999626
0.0992769
0.348919
-0.327254
0.0770334
0.0851442
0.307694
-0.290161
0.0529802
0.0605109
0.276203
-0.265517
0.0341274
0.0402031
0.259119
-0.257462
0.0118742
0.0225302
0.260208
-0.264885
-0.0217067
-0.00423263
0.276174
-0.28612
-0.0520354
-0.0374832
0.302041
-0.315825
-0.0693813
-0.0615702
-0.075629
-0.392337
0.417162
0.185724
0.176118
-0.446077
0.465734
0.0766503
0.148345
-0.47087
0.456371
-0.0655908
-0.0037965
-0.431638
0.403477
-0.117424
-0.0961112
-0.37895
0.356669
-0.119285
-0.114751
-0.338599
0.32152
-0.108915
-0.10895
-0.305747
0.28841
-0.0916964
-0.0948969
-0.272619
0.25974
-0.073503
-0.0787948
-0.253346
0.253406
-0.0348435
-0.0548715
-0.259054
0.269369
0.0268264
-0.00528498
-0.282203
0.298017
0.0878764
0.0554031
-0.314412
0.33303
0.135549
0.107391
-0.351104
0.371247
0.163325
0.144439
-0.389462
0.40767
0.156953
0.157045
-0.420945
0.4297
0.0995925
0.128117
-0.430886
0.423954
-0.0018281
0.0515293
-0.415951
0.402416
-0.0861939
-0.0512
-0.108501
-0.0894985
0.124937
0.30782
0.338808
-0.154418
0.170884
0.25206
0.273792
-0.178503
0.183104
0.219816
0.230429
-0.185128
0.185151
0.210231
0.207794
-0.183449
0.179821
0.229158
0.212702
-0.174077
0.162529
0.265174
0.242709
-0.145539
0.127612
0.302596
0.284937
0.310407
-0.11207
-0.206906
0.104932
-0.176521
-0.207405
-0.253083
0.164022
-0.192435
-0.271255
-0.29696
0.186402
-0.226098
-0.286892
-0.324549
0.179104
-0.269117
-0.260463
-0.327269
0.158826
-0.300168
-0.214218
-0.32729
0.153859
-0.316947
-0.115851
0.0867626
-0.264676
-0.153832
-0.283766
0.138938
-0.351
0.0987368
-0.0837398
-0.363696
0.114727
-0.354319
0.111536
0.265874
-0.184211
0.302852
-0.295571
0.0502069
-0.283188
0.17678
0.217944
0.0796028
0.298502
-0.287912
0.0214189
0.0363472
0.289251
-0.286794
-0.00213614
0.0143564
0.289496
-0.295049
-0.023898
-0.00727568
0.30224
-0.312491
-0.0414813
-0.0260563
0.322289
-0.335447
-0.0542069
-0.0427962
0.348096
-0.363629
-0.0588262
-0.0536942
0.37827
-0.393885
-0.0493733
-0.0538313
0.406659
-0.415927
-0.0134972
-0.0338161
0.418944
-0.415529
0.0435807
0.0135318
0.406707
-0.392223
0.0829272
0.0657796
0.375213
-0.355062
0.0798117
0.0822667
0.335894
-0.316551
0.0576904
0.0659763
0.301115
-0.287974
0.0398392
0.0450749
0.279536
-0.273208
0.0277994
0.0317648
0.269825
-0.267464
0.00951374
0.019147
0.267843
-0.269619
-0.0199308
-0.00385415
0.274286
-0.280415
-0.0459058
-0.032816
0.286497
-0.296239
-0.05964
-0.0554884
0.306262
-0.323779
-0.0675618
-0.0656057
0.339794
-0.35557
-0.0679635
-0.0687237
-0.307353
0.336728
0.122915
0.283097
-0.271913
0.0755784
0.0926235
-0.363622
0.405717
0.143628
0.149224
-0.442855
0.464154
0.0553511
0.111207
-0.464693
0.448243
-0.0491412
-0.00433518
-0.424313
0.397597
-0.0907083
-0.0721808
-0.375495
0.355404
-0.099195
-0.092649
-0.338981
0.323669
-0.0936035
-0.0925266
-0.311111
0.297262
-0.0778472
-0.0823389
-0.28371
0.270486
-0.0602784
-0.0652435
-0.262567
0.261017
-0.0332935
-0.0469528
-0.265888
0.276545
0.0161693
-0.0101558
-0.289976
0.307112
0.0707396
0.0419725
-0.324657
0.345227
0.114979
0.0898469
-0.365162
0.387321
0.141166
0.124504
-0.40726
0.427148
0.137065
0.137106
-0.442024
0.452151
0.0894651
0.113241
-0.455092
0.447287
0.00597684
0.0485885
-0.434667
0.419771
-0.0712983
-0.0385797
-0.398179
0.3868
-0.0863506
-0.0869093
-0.0697311
-0.102144
0.1326
0.277364
0.07247
0.32869
0.309134
-0.150572
0.160579
0.242053
0.255821
-0.169269
0.175601
0.213484
0.221739
-0.179848
0.182338
0.207741
0.203547
-0.183241
0.182234
0.230165
0.211799
-0.178602
0.168722
0.275055
0.246341
-0.157441
0.140334
0.319703
0.296217
-0.109518
0.0808222
0.352309
0.341223
-0.0180646
0.460719
0.38257
0.0618838
-0.0805371
-0.246022
-0.263551
0.0535212
-0.0726336
0.0936151
-0.384677
-0.368343
-0.059861
-0.194629
-0.219682
0.179785
-0.192284
-0.3915
-0.0452108
-0.262555
-0.261782
0.209165
-0.215197
0.418697
-0.307381
0.106628
0.0908101
-0.054679
0.424588
0.0901006
0.419407
-0.288944
-0.294907
0.204998
-0.251992
-0.275702
-0.30931
0.185765
-0.296057
-0.235665
-0.305822
0.172446
-0.318755
-0.186036
-0.295086
0.166545
-0.344555
-0.117402
-0.246901
0.142317
-0.37859
-0.0422877
0.039325
-0.260588
-0.0481304
-0.24018
0.117336
-0.37804
-0.0669229
0.0846667
-0.402421
-0.0541038
-0.381162
-0.199055
0.311246
-0.306291
0.045252
0.0834674
0.299826
-0.297515
0.0191082
0.0298818
0.295214
-0.296592
-0.000758448
0.0120554
0.298665
-0.304686
-0.0178771
-0.00520193
0.309299
-0.317548
-0.0332321
-0.0214437
0.324819
-0.33523
-0.0437963
-0.0355251
0.345843
-0.358432
-0.0462378
-0.0430808
0.370989
-0.383823
-0.0365393
-0.0412739
0.393984
-0.399976
-0.00750512
-0.0236553
0.399761
-0.393166
0.0369857
0.0133168
0.382172
-0.367987
0.0687421
0.0547861
0.353525
-0.338002
0.0642886
0.0678047
0.32436
-0.311585
0.0449159
0.0523335
0.302425
-0.294857
0.0322716
0.0359145
0.289881
-0.285228
0.0231472
0.0267885
0.28154
-0.278398
0.00637175
0.0154587
0.276761
-0.278236
-0.0184551
-0.00549143
0.282525
-0.289
-0.0394302
-0.0285276
0.299935
-0.307336
-0.0522384
-0.044554
0.318611
-0.32839
-0.0577826
-0.0543315
0.338279
-0.35114
-0.0551025
-0.058834
0.360506
-0.371476
-0.0431334
-0.0504955
-0.280632
0.293886
0.0623241
0.276507
-0.2737
0.0365174
0.0493966
-0.305569
0.32652
0.101964
0.0809405
-0.365679
0.400207
0.109101
0.110066
-0.433351
0.450331
0.0383713
0.0780631
-0.448686
0.433335
-0.0337901
-0.00269033
-0.413225
0.390186
-0.0676691
-0.052071
-0.36965
0.349798
-0.0793429
-0.0721132
-0.333409
0.318261
-0.0784563
-0.0761375
-0.307192
0.297524
-0.0681791
-0.07127
-0.288735
0.27887
-0.0504139
-0.0564536
-0.270932
0.267603
-0.0299647
-0.0390146
-0.270329
0.280008
0.00649027
-0.0128814
-0.293129
0.310744
0.0531255
0.0288508
-0.328964
0.350204
0.0937387
0.0716261
-0.371003
0.393546
0.118623
0.103706
-0.41457
0.434707
0.116928
0.116082
-0.450246
0.460309
0.0794022
0.0977021
-0.463765
0.458639
0.0111033
0.0451319
-0.444043
0.424588
-0.051843
-0.0239841
-0.405068
0.393056
-0.0743394
-0.0673891
-0.0681751
-0.0583137
0.0806283
0.306376
0.329291
-0.108392
0.120324
0.265432
0.28137
-0.132682
0.14369
0.231044
0.243463
-0.152551
0.159886
0.206148
0.212879
-0.165712
0.17032
0.203133
0.197721
-0.173341
0.174342
0.229164
0.208778
-0.172324
0.167012
0.280367
0.248359
-0.15853
0.144857
0.333376
0.3047
-0.126183
0.0988817
0.37961
0.359897
0.426773
0.0251925
-0.0255893
-0.260191
-0.270242
0.0217346
-0.0424658
0.0552347
-0.393931
-0.380594
-0.0333479
-0.248351
-0.233886
0.230163
-0.213283
0.386136
-0.34541
0.0659019
0.400884
0.0753529
-0.283777
-0.266949
0.230844
-0.241044
-0.281752
-0.288856
0.21127
-0.277496
-0.254951
-0.290023
0.194882
-0.318493
-0.210226
-0.281632
0.190608
-0.342818
-0.153715
-0.258773
0.173008
-0.375245
-0.0735002
-0.221531
0.1484
-0.409654
-0.0215921
-0.244177
0.113058
-0.406431
-0.00560552
0.00370484
-0.268341
-0.00464541
-0.261151
0.0698028
-0.416989
-0.276221
0.274674
0.00525227
0.00776991
-0.275727
-0.00826441
0.013915
-0.274486
0.0265101
0.317945
-0.026026
0.0393881
-0.407293
-0.0250554
-0.381565
-0.217243
0.322198
-0.313027
0.036081
0.0602555
0.308286
-0.304434
0.0152568
0.0251403
0.301382
-0.302778
0.00063822
0.00900277
0.303081
-0.306593
-0.0143646
-0.00489972
0.309118
-0.314862
-0.0274875
-0.0189191
0.321082
-0.330312
-0.0345671
-0.0293052
0.340366
-0.352357
-0.0342465
-0.0330265
0.364186
-0.375574
-0.0251521
-0.0294446
0.383747
-0.387682
-0.00356947
-0.0154824
0.385805
-0.378058
0.0292392
0.0114394
0.366102
-0.351838
0.0544776
0.0428298
0.338824
-0.327345
0.0528098
0.0547906
0.318755
-0.311736
0.0378972
0.0437438
0.306557
-0.301588
0.0273034
0.0307347
0.297024
-0.292029
0.0181523
0.022224
0.287642
-0.284405
0.00313389
0.0110721
0.283561
-0.285543
-0.0164728
-0.00633514
0.289534
-0.295518
-0.0334463
-0.0245371
0.301787
-0.308837
-0.0451893
-0.0382842
0.31617
-0.32306
-0.0508932
-0.046998
0.332627
-0.339727
-0.0480025
-0.0492668
0.346636
-0.355538
-0.0342319
-0.0435863
0.362965
-0.367395
-0.0206248
-0.0259207
-0.278393
0.284348
0.0305623
0.0180157
-0.292783
0.302837
0.0522699
0.0409616
-0.318197
0.339741
0.0804205
0.0655806
-0.366051
0.395116
0.0800357
0.0837558
-0.418331
0.427526
0.0291766
0.0548472
-0.424404
0.413053
-0.0224393
0.00043169
-0.399606
0.383878
-0.0519414
-0.0386238
-0.368414
0.351608
-0.0625375
-0.0566485
-0.336513
0.321353
-0.0632965
-0.0610418
-0.309093
0.298979
-0.0580651
-0.0590102
-0.291613
0.284845
-0.0436463
-0.0490875
-0.278331
0.27414
-0.0257736
-0.0324999
-0.273973
0.280706
-0.000242768
-0.0127151
-0.291769
0.308547
0.0363477
0.0177879
-0.326603
0.347941
0.0724012
0.0535698
-0.368763
0.391328
0.096058
0.0828827
-0.412038
0.4314
0.0975662
0.0953719
-0.446102
0.455812
0.0696922
0.083
-0.459688
0.45566
0.0151321
0.0412557
-0.444766
0.425915
-0.0329928
-0.0130901
-0.405387
0.384008
-0.0529606
-0.0468604
-0.370556
0.369176
-0.0438302
-0.0547235
-0.0345216
-0.0515727
0.0734517
0.284497
0.304228
-0.0899779
0.101746
0.253664
0.264844
-0.111847
0.120844
0.222047
0.233362
-0.128782
0.136319
0.198611
0.204941
-0.143065
0.149208
0.19699
0.190976
-0.154034
0.156706
0.226493
0.203951
-0.156393
0.152477
0.284283
0.248672
-0.144802
0.129045
0.349133
0.312375
-0.119635
0.0990092
0.400236
0.369307
-0.1129
0.0942347
0.443253
0.412882
-0.0591403
-0.0178223
0.477846
0.454501
-0.271589
-0.246074
0.253608
-0.236047
0.0138983
-0.0144513
-0.366842
0.0138251
-0.381492
0.390679
-0.4137
0.00519902
-0.0538233
0.258177
0.273493
0.346398
-0.00954214
-0.349439
0.343831
-0.0150164
-0.347421
-0.0164693
-0.28151
-0.267192
0.237048
-0.266822
-0.266336
-0.277472
0.217135
-0.299748
-0.234208
-0.266041
0.211635
-0.33952
-0.182736
-0.252611
0.203926
-0.373737
-0.109074
-0.2232
0.177834
-0.40468
-0.0270629
-0.21606
0.142944
-0.43954
0.000510124
-0.249332
0.0998896
-0.436518
-0.0201051
-0.281789
0.0261666
-0.288253
0.282696
-0.0145476
0.0274475
-0.294064
-0.0216368
-0.290361
0.0360201
0.0186048
-0.265841
0.0502233
-0.427824
-0.281487
0.0331676
0.082579
-0.178268
0.353865
-0.357623
-0.017868
-0.0179468
0.374019
-0.235224
0.370412
-0.348546
0.0440356
0.0320651
0.32945
-0.318181
0.0248121
0.0411592
0.312572
-0.310534
0.0132194
0.0195312
0.308319
-0.309319
0.00163889
0.00678713
0.309571
-0.31292
-0.0110157
-0.00464835
0.316368
-0.322561
-0.0212953
-0.0154701
0.328926
-0.336729
-0.0267642
-0.0229394
0.344229
-0.352148
-0.0263281
-0.0255264
0.359604
-0.366536
-0.0182207
-0.0219884
0.371916
-0.37465
-0.000836353
-0.0101014
0.37372
-0.36779
0.0233096
0.0105096
0.358159
-0.345862
0.0421805
0.0331987
0.334378
-0.324647
0.0430785
0.0433066
0.317789
-0.312609
0.0327176
0.036886
0.308425
-0.304204
0.0230825
0.0265501
0.299921
-0.29557
0.0138011
0.0179413
0.291922
-0.289572
0.000783854
0.00742461
0.289027
-0.290658
-0.0148418
-0.00688
0.293809
-0.298645
-0.0286104
-0.0213862
0.304244
-0.311088
-0.0383445
-0.0326858
0.318105
-0.325475
-0.0435237
-0.0399812
0.332267
-0.337077
-0.043192
-0.0424748
0.341349
-0.343042
-0.0325385
-0.0393144
-0.0251321
-0.281583
0.282756
0.00407958
-0.00715219
-0.287256
0.29341
0.0244076
0.013516
-0.300676
0.310061
0.0428846
0.0336961
-0.320944
0.340588
0.0607762
0.0546982
-0.362609
0.384526
0.0581183
0.0617349
-0.398842
0.404596
0.0234225
0.0405311
-0.402512
0.394041
-0.0139682
0.00251574
-0.383137
0.370746
-0.0395497
-0.0277199
-0.359741
0.349246
-0.0520426
-0.0456434
-0.340189
0.3305
-0.0536073
-0.0519857
-0.320832
0.310832
-0.0480646
-0.0493423
-0.30247
0.295395
-0.0365716
-0.0407256
-0.289301
0.284505
-0.0209775
-0.0264058
-0.281741
0.284156
-0.00265787
-0.00995124
-0.290811
0.303791
0.0233675
0.0111338
-0.319574
0.339493
0.052482
0.0377867
-0.359782
0.381514
0.074326
0.062594
-0.401359
0.419492
0.0794337
0.0755263
-0.433877
0.443734
0.0598352
0.0686144
-0.447844
0.443278
0.019698
0.037146
-0.43236
0.414563
-0.0151956
-0.00217192
-0.39602
0.376293
-0.0332337
-0.0283178
-0.362461
0.356446
-0.0378154
-0.0408909
-0.0356987
-0.0164524
0.0338854
0.300512
0.317193
-0.0511189
0.0617996
0.273816
0.286995
-0.0684257
0.0755827
0.246507
0.258218
-0.0827815
0.0900309
0.214798
0.226163
-0.0971809
0.104266
0.191526
0.197791
-0.111076
0.117333
0.190733
0.184166
-0.122513
0.126103
0.222903
0.198772
-0.12731
0.12583
0.285762
0.247465
-0.121522
0.114259
0.356397
0.316683
-0.10407
0.0948102
0.409496
0.379495
-0.0903673
0.102415
0.431205
0.417325
0.378649
0.0141204
-0.407588
0.332079
-0.00362815
-0.00230377
-0.000150646
-0.364388
-0.352333
0.00260792
-0.273437
-0.254147
0.258796
-0.257794
-0.270845
-0.262683
0.239896
-0.289583
-0.251652
-0.260028
0.23079
-0.318903
-0.00120911
-0.380433
-0.210874
-0.237903
0.229567
-0.365161
-0.142612
-0.219073
0.209508
-0.405411
-0.0494956
-0.200767
0.17941
-0.441146
-0.02762
-0.301309
0.0348654
-0.302364
0.295304
-0.0205605
0.0315876
-0.309684
-0.0242674
-0.309639
0.0399178
0.0109251
-0.226475
0.128122
-0.467773
-0.300617
0.0451209
0.0246589
-0.255386
0.0785985
-0.464893
-0.290145
0.0446781
0.0412517
-0.273925
0.0256623
-0.439366
-0.00834165
-0.0199867
0.360407
0.231348
-0.376205
0.195245
0.0271598
-0.016539
0.287794
0.00757596
-0.0126398
-0.359324
-0.353635
0.00887778
-0.0415536
0.300061
-0.249865
0.360132
-0.374873
0.0199404
-0.343457
-0.00696173
0.34679
0.00713301
0.3601
-0.342776
0.0267113
0.0172922
0.328934
-0.322304
0.0181821
0.0273177
0.316244
-0.313924
0.0109002
0.0134703
0.312432
-0.312221
0.00142834
0.00529493
0.312849
-0.315113
-0.00875167
-0.00402116
0.318052
-0.322531
-0.0168162
-0.0125305
0.327285
-0.333003
-0.0210466
-0.0181857
0.33874
-0.345017
-0.0200509
-0.0197893
0.351089
-0.356914
-0.0123957
-0.0159163
0.361425
-0.363747
0.00148499
-0.00559004
0.363049
-0.358718
0.0189793
0.00981144
0.351407
-0.341935
0.0327089
0.0258875
0.332524
-0.32414
0.034695
0.033895
0.31776
-0.312745
0.0277017
0.0305061
0.308675
-0.304856
0.0192633
0.022481
0.301249
-0.29788
0.0104321
0.0143343
0.295294
-0.293809
-0.000700896
0.00483804
0.293784
-0.295255
-0.0133707
-0.00690453
0.297895
-0.301775
-0.0247308
-0.0187466
0.306191
-0.311511
-0.0330245
-0.0282694
0.31712
-0.32338
-0.0372637
-0.0343724
0.32951
-0.335612
-0.0370907
-0.0363444
0.340467
-0.343016
-0.0299893
-0.034459
0.343351
-0.340252
-0.0181158
-0.0247973
0.342928
-0.341258
0.000937986
-0.0137925
0.00293491
-0.340249
-0.0163201
0.334106
-0.335706
0.00453575
0.00172492
-0.292032
0.290538
-0.0130538
-0.0183645
-0.289957
0.291173
0.0028636
-0.00657076
-0.293933
0.297917
0.0204235
0.010756
-0.304502
0.312589
0.0347975
0.0271109
-0.324154
0.339066
0.0458645
0.043133
-0.35464
0.369721
0.0430372
0.0461613
-0.379765
0.384753
0.0184348
0.0304869
-0.3843
0.38016
-0.00982896
0.00296884
-0.373093
0.363638
-0.0300948
-0.0206527
-0.353424
0.342568
-0.0411869
-0.0354289
-0.332714
0.32352
-0.0444132
-0.042132
-0.315683
0.308411
-0.040793
-0.0415047
-0.302502
0.297516
-0.0315847
-0.0348171
-0.29402
0.290942
-0.0178992
-0.0229105
-0.289255
0.289262
-0.00266483
-0.00826444
-0.292823
0.300818
0.0153725
0.00757312
-0.312542
0.328687
0.0363367
0.0260627
-0.346113
0.365733
0.054706
0.0451682
-0.383431
0.400758
0.0621068
0.0578282
-0.413503
0.422769
0.0505692
0.0558699
-0.424324
0.419948
0.0240741
0.0355909
-0.409887
0.397161
-0.00246978
0.00788854
-0.383808
0.370322
-0.0197481
-0.0149644
-0.359394
0.346568
-0.0249895
-0.0299625
-0.34398
0.346151
-0.020039
-0.0331111
-0.0258017
-0.012606
0.0250417
0.288076
0.288048
-0.0306608
0.0360684
0.268409
0.281375
-0.0416434
0.0469277
0.241223
0.252643
-0.0513441
0.0562565
0.209886
0.221747
-0.0613901
0.066863
0.186053
0.192657