/*--------------------------------*- C++ -*----------------------------------*\
  =========                 |
  \\      /  F ield         | OpenFOAM: The Open Source CFD Toolbox
   \\    /   O peration     | Website:  https://openfoam.org
    \\  /    A nd           | Version:  10
     \\/     M anipulation  |
\*---------------------------------------------------------------------------*/
FoamFile
{
    format      ascii;
    class       surfaceScalarField;
    location    "20.5";
    object      phi;
}
// * * * * * * * * * * * * * * * * * * * * * * * * * * * * * * * * * * * * * //

dimensions      [0 3 -1 0 0 0 0];

internalField   nonuniform List<scalar> 
57492
(
0.000253877
-1.14992e-05
-4.71924e-05
-0.000195186
-0.000180194
0.000291
0.000143071
-2.92153e-05
8.2275e-05
0.000328559
-0.000381618
0.00315957
0.00338647
-0.000271974
-0.00627406
-0.00862819
0.00404528
0.00774247
0.00111395
-0.00103579
-0.000541924
0.00046377
-0.00200414
0.000385387
-0.00015331
0.00177206
0.000410792
-0.00130099
0.00148655
-0.0046215
0.00441628
-0.00128133
0.00126237
0.00424244
-0.00401826
-0.000711759
-0.000234728
0.000781166
0.000165321
-0.000126904
-0.00092113
0.000336275
0.000271009
-0.000367993
-2.99201e-05
-6.09167e-05
9.71972e-05
0.00250143
-0.00239091
-0.00089989
0.000789367
0.000338122
0.00201322
0.000150095
-0.000323551
0.000786776
0.00334073
-0.00380395
-0.000661365
0.00326651
-0.0029287
0.0001359
-0.000290061
0.000154161
-0.00167422
0.00122706
0.000583054
-0.00467529
0.000200251
0.00335086
0.00112417
0.00121929
-0.00474328
-0.0011513
-0.000135454
-0.000226892
-0.000740749
0.0011031
-0.000306249
0.000193897
-2.3102e-05
-0.00265694
0.00224119
0.000776712
-0.000360958
-0.00313677
0.000909277
-0.000429447
-0.00112664
0.000594688
0.000457361
7.45936e-05
-0.000778744
-0.000361489
1.35904e-05
-0.000370435
-0.0011445
0.00130547
0.000209458
-0.000420021
0.000117751
-6.81648e-05
0.00116315
-0.000776992
-0.000723166
0.000337011
-0.00100539
0.00078372
0.00138482
-0.00135955
-0.00261013
0.0024435
0.00152618
-0.00300987
-0.000741394
0.00239172
-0.000713474
-0.000153975
0.00086745
-0.000273728
-0.000439746
-0.00138546
0.0019074
-0.000795666
0.000204739
-0.000773786
-0.000816413
-0.000904311
0.0012897
-0.000235007
-0.00190173
0.00115077
0.000750959
-0.00432145
0.00241972
0.00467605
-0.000858616
0.000404096
-0.00422153
0.00345654
-3.67586e-05
0.00125627
-0.000761885
0.00455343
-0.00465016
0.00216142
0.000447637
-0.00219827
0.00216265
-0.000154544
0.00258153
-0.000964884
-0.00191377
0.00029712
0.00289353
0.000135639
0.00138139
-0.000844848
0.00162612
0.00126431
0.00188914
-0.00464997
-0.000650913
0.000582149
0.00471873
-0.00478651
-0.00032634
0.000462877
0.00112543
0.004507
-0.00443137
-0.00120107
0.000794992
-0.00429107
-0.00302701
0.00261908
0.00270452
-0.00229659
-0.000444072
0.00331557
-0.00589851
1.30934e-05
-0.000131887
-4.16982e-07
0.00011921
-0.000353967
-9.32261e-07
7.64385e-05
-0.00014756
-0.000282846
-6.34618e-05
8.01354e-06
1.44361e-05
-1.48531e-05
1.01616e-05
4.27447e-06
0.00743687
0.003784
-0.00596439
-0.00525648
0.00231184
-0.00068333
0.00580835
-0.0079609
0.00305383
0.00721891
0.00225071
-0.00642761
0.00161309
-0.00287593
0.00214632
-0.000883482
0.00237153
-0.0029262
0.00216776
-3.21184e-05
2.34836e-05
-2.86435e-06
-7.5282e-05
-4.02889e-06
-0.000238798
-3.16694e-05
-0.00295917
0.00538293
0.00338555
-0.00580931
0.00435676
-0.0049444
0.00297364
0.00478244
-0.00237314
0.0103272
-0.00162978
-0.00172954
-0.00696789
0.00211754
0.00559029
0.00261938
0.00152171
-0.00517563
0.00577145
4.75938e-05
-7.68091e-05
0.000129869
0.000831507
0.00177777
-0.000633706
-0.00197557
0.00105834
0.000101727
-0.000102365
2.85207e-05
7.38446e-05
-0.000313814
0.000211448
-0.00668556
0.00342309
-0.00202568
0.00528814
-0.00579282
-0.00255872
0.00166598
-0.00264673
0.00211853
-0.00526462
0.00197599
-2.61874e-05
-0.000954536
-0.000995263
-0.000720103
0.00225398
0.000442111
-0.000845094
-8.61572e-05
0.000211148
-0.000780793
-9.04885e-05
-0.000274222
-0.00146111
-0.000334313
-7.77832e-05
3.10065e-05
0.000381089
-0.000260966
-0.000672158
0.000598812
0.000181866
2.3961e-05
-0.000466793
0.000109463
-5.38021e-06
0.000144818
-4.34894e-06
-0.000648183
0.000373961
8.38283e-05
-0.000732012
0.000177777
-0.000491591
0.00427354
0.00333167
-0.000178487
0.00212872
-0.00648337
-1.02998e-05
0.00226383
-0.00179742
-0.000456113
0.000291861
0.003164
-0.00346616
0.00324913
0.00198693
-0.000661187
-0.00457488
-0.000913908
0.000354116
0.00380892
0.00411609
-0.00304306
-0.00162785
-0.00304081
0.00122076
0.00344791
-0.00121055
0.00351667
-0.00393398
0.000394676
-0.00464604
9.94519e-05
4.39536e-05
-5.41848e-06
0.00113103
-0.00065777
-0.000653452
9.92113e-05
-0.000389358
0.00142117
0.000408048
-1.7837e-05
-0.000187665
0.00033488
6.87494e-05
-0.000215964
0.00100016
-0.00122732
3.94923e-05
-0.00036117
0.000837895
0.000523432
-0.000126419
0.000100129
-0.0062075
0.00363827
0.00599233
0.00776182
-0.0020538
-0.00826674
-0.00291086
0.00446517
-9.72802e-05
-0.000881133
-0.000166085
-0.000526652
9.35064e-06
4.67415e-05
-0.000131527
3.95796e-05
4.52062e-05
-0.000129991
0.000143131
3.36015e-05
-0.000297017
3.54988e-05
-0.00026789
-0.000315149
5.63872e-05
-0.000810973
-0.00033805
-0.00121526
-0.00130822
0.00150374
0.00101974
5.19678e-05
0.000634074
-0.0019013
-0.00171272
0.000456471
-0.00294992
0.00133508
-5.93757e-05
-0.00351578
0.000806591
-0.000240729
0.000876112
-0.00334724
0.002564
-9.287e-05
0.000679088
-0.00272819
0.00292521
0.00252841
-0.0101971
-0.00178151
0.0021976
0.00303536
-0.00348179
0.00207931
-0.000325893
-5.02402e-06
2.89851e-05
-9.38055e-06
4.35653e-06
0.000286508
-4.15033e-05
0.00512647
-0.00310642
-0.00220667
0.000186617
0.00442099
-5.64042e-05
0.00483821
-2.17191e-05
-0.00526056
0.00125506
0.00344928
0.000133865
0.000449518
-0.00309989
0.00390544
5.7294e-06
-1.51099e-05
0.000764884
-0.00214216
-0.00287711
0.00125055
0.00312196
0.00130529
-7.34193e-05
-0.0013726
0.00014073
0.000425834
-0.000125939
-0.00167055
0.00034403
0.00211024
0.000292526
-0.00153724
-0.000135438
7.25898e-05
-1.04131e-05
1.58203e-05
-4.70127e-06
-7.0591e-07
1.30546e-05
-1.49394e-07
-2.33183e-05
5.01692e-05
-0.000126903
8.9788e-05
-0.00180954
0.00277913
-0.000791809
0.00297477
-0.00391641
-0.000867897
-3.42067e-06
-0.00225539
0.00260284
-0.00407608
0.000255983
-0.00278845
-0.00188051
0.000592876
0.00271535
0.00291241
-0.00542751
0.00260109
0.00432486
-0.0042106
0.00223906
-0.00309246
0.00161384
-0.000760429
0.00245252
-0.00303206
0.0028186
0.00439523
0.00186805
0.00491633
-0.000258614
-0.00489134
0.000233625
0.00543421
-0.000677073
0.000159191
0.00551486
-0.000840961
1.55553e-05
-0.00468946
0.00396213
-0.00131132
0.00286405
0.00431781
-0.00137015
0.00110439
-0.00405204
0.00122941
0.00440096
-0.00131256
-0.00388853
-0.00163648
0.00415486
0.00103392
-0.00370169
-0.00182246
0.00363388
-0.00234985
-0.00325806
0.00212061
0.0034873
-0.00237219
-0.00328815
0.00331049
0.00221592
0.00306936
-0.00145777
-0.00382751
0.00304408
-0.00320035
-0.00257072
0.00258852
0.00302628
-0.00202878
0.00252742
-0.00408928
0.00363579
-0.00100428
-0.00509554
0.00103596
0.00540591
-0.00134633
0.00190078
-0.000438655
0.00121807
-0.00127822
0.000498802
-0.000251831
0.00152704
-0.00171386
-5.69633e-05
0.000335673
0.000129339
-0.00165941
-0.00252543
0.0016314
-7.57818e-07
6.08422e-07
2.63071e-07
-1.02089e-06
-0.000165369
-0.00282164
0.00214216
-0.00247151
-0.000115329
0.00242147
8.26564e-05
-0.00259079
3.66268e-05
-0.000405398
0.00191279
0.000434042
-0.00194143
0.00204418
0.000441551
-0.00289113
0.00190516
0.00205181
-3.2451e-06
1.54304e-06
4.56557e-05
-4.38912e-06
1.14402e-06
-2.84607e-06
-6.25563e-06
5.34052e-06
-6.25467e-05
1.49901e-06
-7.75464e-06
6.83952e-06
-4.71903e-05
2.27957e-05
-0.000281855
2.42705e-05
-7.14608e-05
4.70662e-05
5.36944e-05
-5.41286e-06
-0.0001747
-1.70741e-05
7.07685e-05
-2.2487e-05
0.001302
0.00328082
-0.0042287
0.0014683
-0.00453864
0.00437234
0.00465094
9.81772e-05
-0.00118632
-0.00244545
0.00116216
0.00246962
-0.000707734
0.0027207
-0.00319929
0.000161351
-0.00331454
0.00409444
-0.00413286
-1.30793e-05
5.15022e-05
0.00409292
3.68525e-05
-3.53362e-05
-2.57457e-05
-0.00412635
1.92378e-05
0.00412378
-1.47226e-06
-2.93897e-05
0.00419729
5.97329e-05
-0.000133239
2.92177e-05
0.00430199
-0.000133923
0.00425027
-0.00422497
3.92377e-06
-0.00020036
0.00450303
-6.78841e-07
0.00413214
-8.22307e-05
-0.00409542
-6.98157e-05
-0.00408113
-1.57637e-05
-0.00407522
3.09353e-05
-0.00416238
7.40869e-05
-0.00409402
-9.41023e-05
-0.00019433
0.00469829
-9.31576e-07
0.0039392
-1.38792e-06
-2.05648e-05
-0.00409129
-1.44958e-05
-0.00412701
1.2422e-05
-2.91425e-05
-0.00432704
0.000264896
-4.01702e-07
0.0046992
-5.08662e-07
0.00394059
-1.79799e-06
-0.00427805
0.000121895
0.00470019
-2.12387e-07
-7.77205e-07
-3.37489e-07
0.00470089
-3.57689e-07
0.00394163
-1.24866e-06
0.00394296
-1.67243e-06
-2.46127e-05
-0.00430037
-2.06272e-06
-0.00430034
-2.3269e-06
-7.978e-08
0.00470161
-6.44921e-07
0.003944
-1.11851e-06
-3.58289e-07
-0.00429806
-1.9481e-06
-0.0042978
-2.88904e-06
-7.96253e-08
0.00470192
-2.28033e-07
0.00394548
-1.55439e-06
-2.19957e-07
-0.00429542
-2.41713e-06
-0.00429543
-2.59365e-06
4.13471e-07
0.00470204
-5.30024e-07
0.00394689
-1.00003e-06
-3.19309e-07
-0.00429279
-2.31125e-06
-0.00429259
-3.16025e-06
8.96386e-07
0.00470126
-1.15605e-07
0.00394924
-1.44837e-06
-1.5373e-07
-0.00428986
-2.78411e-06
-0.00428985
-2.89283e-06
2.36626e-06
0.00469932
-4.30905e-07
0.00395249
-8.88332e-07
9.71689e-06
-0.00429687
-2.70418e-06
-0.00427666
-3.47418e-06
4.78222e-06
0.00469456
-1.87173e-08
0.00395862
-1.34486e-06
2.78172e-05
-0.00417326
-0.000151426
-0.0042013
-4.75473e-05
1.01175e-05
0.00468478
-3.43305e-07
0.00395119
1.75401e-05
2.7582e-05
-0.00419092
-9.92299e-06
-0.00416767
-6.04096e-06
2.01765e-05
0.00466453
7.89197e-08
0.00392386
4.75149e-05
5.94849e-05
-0.00404109
-0.000209311
-0.00404522
-6.29654e-05
0.000199671
0.00446511
-2.56368e-07
0.00404359
7.99406e-05
6.85426e-05
-0.00402074
-8.88926e-05
-0.0039988
2.21205e-05
0.000176285
0.00413624
0.000152586
0.00411059
0.000109279
0.000109358
-0.000156457
-0.00397364
-0.00398087
9.14315e-05
1.20214e-05
3.993e-05
0.00408429
0.00408416
3.8449e-05
-0.00403541
0.00410102
-0.000154495
-0.00405596
-0.00013591
0.000186783
-0.000164801
-0.00399563
9.19716e-05
-0.00388606
-0.00401521
0.00405231
-4.70206e-05
-0.000123505
-0.00390719
0.00391014
-5.6567e-06
-6.30529e-06
-0.00391291
0.00391554
-4.94161e-06
-5.55763e-06
-0.00391802
0.00392037
-4.30047e-06
-4.89066e-06
-0.0039226
0.00419124
-3.74108e-06
-4.29348e-06
-0.00418051
0.00412418
7.55661e-05
-3.76877e-06
-0.0042578
0.00422524
-2.77816e-06
-8.21144e-05
-0.00409069
0.0040316
-7.41474e-05
0.000105161
-0.00393649
0.00393784
-2.02795e-06
-3.88158e-05
-0.00393911
0.00394032
-1.71927e-06
-2.20251e-06
-0.00394146
0.00394255
-1.44691e-06
-1.92062e-06
-0.00394358
0.00394456
-1.20832e-06
-1.67419e-06
-0.00394549
0.00394637
-9.98596e-07
-1.45854e-06
-0.00394721
0.00394801
-8.12851e-07
-1.26944e-06
-0.00394876
0.00394948
-6.41144e-07
-1.09982e-06
-0.0039268
0.00401957
5.98112e-05
2.24326e-05
0.00400984
4.96586e-05
-2.48343e-05
7.90419e-05
0.00403008
-3.93223e-06
0.00406326
0.00403474
-0.00396787
1.30717e-05
-0.00407435
0.00406597
4.6829e-05
6.96679e-05
0.00396707
-0.00394799
-1.53935e-06
4.67098e-05
0.00394719
-0.00394635
-1.7306e-06
-2.13778e-06
0.00394547
-0.00394454
-1.93418e-06
-2.32708e-06
0.00394356
-0.00394253
-2.15647e-06
-2.53091e-06
0.00394144
-0.00394029
-2.40156e-06
-2.75622e-06
0.00393908
-0.0039378
-2.67131e-06
-3.00427e-06
0.00401675
-0.00400985
-2.97455e-06
-3.27856e-06
0.00407608
-0.00403085
-6.09911e-05
-3.58629e-06
0.00400334
-0.00397592
4.66604e-05
3.42473e-06
0.00402443
-0.00404921
3.71931e-05
-4.55856e-05
0.00392257
-0.00392034
-4.55211e-06
-4.73994e-06
0.00391801
-0.00391552
-5.08515e-06
-5.22689e-06
0.00391289
-0.0039101
-5.6884e-06
-5.78269e-06
0.00390716
-0.00394833
-6.37465e-06
-6.41584e-06
0.00394723
-0.00400304
-7.15434e-06
-7.13565e-06
0.00397296
-0.0039132
3.16696e-05
-7.96228e-06
-0.00386841
4.71846e-05
-0.00408489
-0.000135872
0.00402252
6.63661e-05
-3.70314e-07
0.00406241
0.000145135
-0.000132866
-0.00389833
0.000112888
-0.00383617
0.000138954
-0.000132266
-0.00409158
-0.00398954
-0.00401224
0.00394929
-9.15386e-05
0.00405594
-0.00408769
-0.000104118
-9.22185e-05
-0.0039013
0.00390444
-5.01512e-05
-7.55227e-05
-0.00390754
0.00391048
-8.59427e-06
-9.4109e-06
-0.00391324
0.00391585
-7.55617e-06
-8.31506e-06
-0.00391831
0.00392064
-6.63483e-06
-7.34812e-06
-0.00392284
0.00392492
-5.81898e-06
-6.49058e-06
-0.00392688
0.00400755
-5.09927e-06
-5.73354e-06
-0.00393049
0.00393217
-4.45143e-06
-5.06002e-06
-0.0040418
0.00397153
-3.87774e-06
-4.47109e-06
-0.00393664
0.00393799
-3.37221e-06
-3.93076e-06
-0.00393925
0.00394046
-2.92521e-06
-3.46819e-06
-0.0039416
0.00394268
-2.53143e-06
-3.05716e-06
-0.0039437
0.00394468
-2.18485e-06
-2.69673e-06
-0.0039456
0.00394648
-1.8789e-06
-2.37976e-06
-0.00394731
0.00394811
-1.60705e-06
-2.10019e-06
-0.00394886
0.00394957
-1.35892e-06
-1.8502e-06
-0.00394995
0.00398233
2.74273e-05
2.20565e-05
9.38094e-06
-1.81301e-05
0.00403883
1.94547e-06
0.00402995
-0.00397078
0.00401043
2.67178e-05
6.12156e-05
0.00401246
-0.00401308
4.74479e-05
0.00398047
3.16226e-05
-1.74865e-06
4.65634e-05
0.0040176
0.00404338
0.00401335
-0.00398365
-1.6629e-05
6.99413e-05
0.00394883
-0.00394807
-2.29858e-06
1.1885e-05
0.00394728
-0.00394644
-2.56865e-06
-2.92833e-06
0.00394557
-0.00394464
-2.86233e-06
-3.20048e-06
0.00394367
-0.00394264
-3.18665e-06
-3.49999e-06
0.00394156
-0.00394042
-3.54596e-06
-3.83251e-06
0.00393922
-0.00393795
-3.94371e-06
-4.20131e-06
0.00393662
-0.0039352
-4.38897e-06
-4.61232e-06
0.00393372
-0.00398983
-4.88189e-06
-5.07075e-06
0.00398082
-0.00392872
-5.43616e-06
-5.58503e-06
0.00396815
-0.00392489
-6.06263e-06
-6.15824e-06
0.00392282
-0.00392061
-6.76332e-06
-6.81221e-06
0.00391828
-0.00391581
-7.56081e-06
-7.55051e-06
0.0039132
-0.00391042
-8.46613e-06
-8.38866e-06
0.0039075
-0.00390438
-9.49621e-06
-9.34261e-06
0.00390108
-0.00389757
-1.06683e-05
-1.04285e-05
0.00389386
-0.00385019
-1.20032e-05
-1.16696e-05
0.00382453
-0.00376854
5.68944e-05
2.15253e-05
-0.00411396
-0.000105997
9.87834e-05
-0.000160682
-0.00377427
-0.00374128
7.15257e-05
-0.000220847
-0.00383817
2.55651e-05
0.00398681
0.00398677
4.02571e-05
-6.72168e-05
8.938e-05
-0.00411374
-6.66668e-05
-0.00411451
7.26602e-05
-0.00015872
-0.00368821
4.50117e-05
-0.00371363
-0.004121
0.00402069
-0.00400854
1.45692e-05
0.0039798
6.64531e-05
7.04369e-05
-3.01495e-05
0.00397731
4.56394e-05
0.00401157
-0.00406752
0.00411435
-0.000113501
-0.000122247
9.94265e-05
-0.00409169
0.00415523
-7.7551e-05
0.000317731
-0.00439541
-3.45289e-05
-0.00411202
0.00408187
-7.39757e-05
-0.000103663
-0.00403135
0.00396945
-2.9638e-05
-4.1695e-05
-0.00394212
0.00390502
-1.305e-05
-4.81936e-05
-0.00390809
0.00391099
-1.15013e-05
-1.24801e-05
-0.00391372
0.00391631
-1.0142e-05
-1.10426e-05
-0.00391874
0.00392105
-8.9422e-06
-9.77806e-06
-0.00392322
0.00392528
-7.88075e-06
-8.66083e-06
-0.00392722
0.00392906
-6.93962e-06
-7.67285e-06
-0.00393079
0.00393245
-6.10347e-06
-6.79718e-06
-0.003934
0.00393548
-5.36189e-06
-6.02091e-06
-0.00393688
0.00393821
-4.70344e-06
-5.3298e-06
-0.00393946
0.00394066
-4.12134e-06
-4.72209e-06
-0.00394179
0.00394286
-3.60698e-06
-4.18396e-06
-0.00394388
0.00394485
-3.15321e-06
-3.71031e-06
-0.00394576
0.00394663
-2.75199e-06
-3.29277e-06
-0.00394745
0.00394824
-2.3955e-06
-2.92373e-06
-0.00394899
0.0039497
-2.07324e-06
-2.5947e-06
-0.00396127
0.0039685
2.01941e-05
1.04869e-05
2.11784e-05
2.61644e-05
-9.67916e-06
0.00402235
-4.21445e-05
1.1286e-05
0.00401766
0.00401397
0.00400355
0.00400132
-0.00399668
4.28127e-05
-0.00399592
0.00397448
6.17027e-05
3.7021e-05
0.00395033
-0.00396422
-2.73916e-06
2.35842e-05
0.00394894
-0.00394819
-3.05233e-06
-3.39271e-06
0.0039474
-0.00394657
-3.39883e-06
-3.71072e-06
0.00394571
-0.00394479
-3.78153e-06
-4.06556e-06
0.00394383
-0.00394281
-4.20639e-06
-4.45932e-06
0.00394174
-0.00394061
-4.67862e-06
-4.8977e-06
0.00393943
-0.00393817
-5.20381e-06
-5.38578e-06
0.00393685
-0.00393545
-5.79114e-06
-5.9307e-06
0.00393398
-0.00393241
-6.44719e-06
-6.54065e-06
0.00393077
-0.00392902
-7.18317e-06
-7.22513e-06
0.00392719
-0.00392524
-8.01381e-06
-7.9949e-06
0.00392318
-0.003921
-8.95033e-06
-8.86544e-06
0.0039187
-0.00391625
-1.00113e-05
-9.85032e-06
0.00391367
-0.00391092
-1.12154e-05
-1.0968e-05
0.00390802
-0.00390493
-1.25842e-05
-1.22389e-05
0.00390168
-0.0038982
-1.41423e-05
-1.36857e-05
0.00389454
-0.00389062
-1.592e-05
-1.53361e-05
0.00385187
-0.00377701
-1.79626e-05
-1.72232e-05
0.00373205
-0.00373624
4.92058e-05
2.65624e-05
5.96535e-05
-6.18018e-05
-0.00371148
-0.00371454
3.79527e-05
0.000123879
-0.00413819
-9.70285e-05
-0.00389986
3.86563e-05
0.00395243
0.00398844
3.16736e-05
0.000150506
-0.00431975
6.8332e-06
-0.00375684
0.000855693
-0.00346465
0.00451412
-5.50318e-05
2.859e-05
-0.0036881
-9.43108e-05
-0.0036722
-0.00273687
0.00416823
0.000620451
-0.00213158
-0.000171244
-0.00409415
-0.00395474
0.00412377
0.000148704
0.000332198
-0.000118707
-0.00408577
0.00405058
-7.83055e-05
3.46166e-06
-0.00401927
0.00396629
-2.09869e-05
-7.23582e-05
-0.00394445
0.00393327
-1.84586e-05
-1.98636e-05
-0.0039026
0.00390582
-1.62641e-05
-1.75229e-05
-0.00390883
0.00391169
-1.43578e-05
-1.54952e-05
-0.00391437
0.00391692
-1.26865e-05
-1.37251e-05
-0.00391931
0.00392158
-1.12139e-05
-1.21699e-05
-0.00392372
0.00392575
-9.91183e-06
-1.07978e-05
-0.00392766
0.00392948
-8.75756e-06
-9.58398e-06
-0.00393119
0.00393282
-7.73316e-06
-8.50831e-06
-0.00393435
0.00393581
-6.82392e-06
-7.55487e-06
-0.00393719
0.00393851
-6.01735e-06
-6.7082e-06
-0.00393974
0.00394093
-5.30245e-06
-5.95986e-06
-0.00394204
0.0039431
-4.66967e-06
-5.297e-06
-0.0039441
0.00394506
-4.1101e-06
-4.7118e-06
-0.00394596
0.00394682
-3.61482e-06
-4.19499e-06
-0.00394764
0.00394842
-3.17483e-06
-3.73768e-06
-0.00394915
0.00394986
-2.78059e-06
-3.33088e-06
-0.00396332
0.00398594
-2.42953e-06
-2.9678e-06
-0.00397682
0.00397487
1.65266e-05
3.02956e-05
-0.00399088
0.00398673
4.27989e-05
5.04423e-05
5.51495e-05
-3.07777e-05
0.00399329
-3.36801e-05
6.76305e-06
0.00401365
0.0039739
3.89922e-05
1.57477e-05
0.00396761
0.00402219
-2.6801e-05
1.79953e-05
0.00398611
0.0039925
-2.23117e-05
2.07584e-06
0.00400868
0.00400726
0.00401125
-0.00399678
4.72351e-05
-0.00407353
0.00396516
0.000110442
-3.06024e-05
0.00398652
-0.00397778
3.40785e-05
2.67549e-05
0.00395046
-0.00394978
-3.41447e-06
-3.73984e-06
0.00394909
-0.00394834
-3.79555e-06
-4.09164e-06
0.00394757
-0.00394675
-4.21845e-06
-4.48306e-06
0.0039459
-0.00394499
-4.68893e-06
-4.9196e-06
0.00394404
-0.00394304
-5.21262e-06
-5.40608e-06
0.00394199
-0.00394087
-5.79625e-06
-5.94879e-06
0.0039397
-0.00393846
-6.4471e-06
-6.55449e-06
0.00393715
-0.00393577
-7.17535e-06
-7.23187e-06
0.00393432
-0.00393278
-7.99101e-06
-7.99126e-06
0.00393116
-0.00392943
-8.90764e-06
-8.84437e-06
0.00392762
-0.00392569
-9.94082e-06
-9.80485e-06
0.00392367
-0.00392151
-1.11072e-05
-1.08903e-05
0.00391925
-0.00391683
-1.24274e-05
-1.21181e-05
0.00391429
-0.00391158
-1.39247e-05
-1.35104e-05
0.00390872
-0.00390568
-1.56258e-05
-1.50923e-05
0.00390248
-0.00389906
-1.7562e-05
-1.68923e-05
0.00389545
-0.0038916
-1.97717e-05
-1.89452e-05
0.00388753
-0.00388318
-2.23062e-05
-2.12937e-05
0.00383263
-0.00375819
-2.52301e-05
-2.3994e-05
0.00375775
-0.00374014
1.09793e-05
3.75098e-05
3.65159e-05
-3.71934e-05
-0.00368742
-0.00371062
7.00086e-06
0.000119978
-0.00410766
-2.9197e-05
-0.00386383
0.000308453
-0.0037725
7.31545e-06
-0.00385847
0.00398827
-0.00399381
4.83374e-05
0.00397461
2.04148e-05
4.85311e-05
-3.28576e-05
0.003993
1.14153e-05
0.00400228
0.000300693
-0.00332379
1.40669e-05
-0.00372346
-0.00198548
-0.00208753
-0.00324547
0.00373342
0.000132508
6.46704e-05
-4.29223e-05
-0.00370917
3.55614e-05
-0.00368151
-0.0030157
-0.00040102
-0.00400337
-0.00389739
0.00395117
9.49312e-05
0.000168221
-0.00398496
0.00393496
-2.83028e-05
-3.03308e-05
-0.00388929
0.00389321
-2.49039e-05
-2.66952e-05
-0.0038969
0.0039004
-2.19595e-05
-2.35529e-05
-0.0039037
0.00390683
-1.93921e-05
-2.08204e-05
-0.00390977
0.00391256
-1.71483e-05
-1.84366e-05
-0.00391518
0.00391767
-1.51779e-05
-1.6349e-05
-0.00392002
0.00392224
-1.34408e-05
-1.45134e-05
-0.00392434
0.00392633
-1.1905e-05
-1.28937e-05
-0.00392821
0.00392999
-1.05434e-05
-1.14605e-05
-0.00393168
0.00393328
-9.33503e-06
-1.01901e-05
-0.00393479
0.00393622
-8.262e-06
-9.06345e-06
-0.00393758
0.00393887
-7.30973e-06
-8.06349e-06
-0.00394009
0.00394125
-6.46479e-06
-7.17769e-06
-0.00394235
0.00394339
-5.71579e-06
-6.39256e-06
-0.00394438
0.00394532
-5.05252e-06
-5.69796e-06
-0.00394621
0.00394706
-4.46459e-06
-5.08355e-06
-0.00394786
0.00394863
-3.94252e-06
-4.53937e-06
-0.00394936
0.00395005
-3.47685e-06
-4.05588e-06
-0.00395071
0.00395134
-3.05992e-06
-3.62481e-06
-0.00398488
0.00397152
2.98771e-05
-3.24101e-06
2.8162e-05
4.21836e-05
-6.78915e-05
0.004019
-1.69852e-05
2.95771e-05
0.00400106
0.0039991
-1.51795e-08
-4.72065e-07
0.00396809
0.00395428
-3.77877e-05
5.62792e-05
0.00396762
0.00395424
0.00403068
0.0040136
-0.00400138
3.50176e-05
-0.00396405
0.00400455
6.99386e-05
1.89471e-05
0.00398901
-0.00395125
-3.68071e-06
1.43841e-05
0.00395062
-0.00394996
-4.07916e-06
-4.36638e-06
0.00394927
-0.00394854
-4.52614e-06
-4.78062e-06
0.00394778
-0.00394697
-5.02502e-06
-5.243e-06
0.00394613
-0.00394524
-5.5816e-06
-5.76e-06
0.00394431
-0.00394332
-6.20258e-06
-6.33749e-06
0.00394228
-0.00394118
-6.89552e-06
-6.98272e-06
0.00394003
-0.00393881
-7.66986e-06
-7.70402e-06
0.00393753
-0.00393617
-8.53692e-06
-8.5117e-06
0.00393474
-0.00393323
-9.50938e-06
-9.41789e-06
0.00393163
-0.00392994
-1.06028e-05
-1.04366e-05
0.00392816
-0.00392626
-1.1835e-05
-1.15841e-05
0.00392428
-0.00392216
-1.32261e-05
-1.28799e-05
0.00391993
-0.00391756
-1.47997e-05
-1.43454e-05
0.00391506
-0.0039124
-1.6583e-05
-1.6006e-05
0.0039096
-0.00390662
-1.86079e-05
-1.78911e-05
0.00390348
-0.00390013
-2.09116e-05
-2.00348e-05
0.0038966
-0.00389283
-2.35393e-05
-2.24784e-05
0.00388885
-0.00388461
-2.65476e-05
-2.52718e-05
0.00388013
-0.00387535
-3.00052e-05
-2.84761e-05
0.00380567
-0.00376071
-3.39826e-05
-3.21676e-05
0.00371728
-0.00368376
2.0456e-06
-3.6433e-05
7.61744e-05
-4.43505e-05
-0.00371334
-0.00365814
5.05505e-05
8.95086e-05
-0.00388872
1.33614e-06
-0.00385785
4.75357e-05
0.00395666
0.00398983
2.61312e-05
0.000178722
-0.00365053
-0.000476967
-0.00439965
-6.51875e-05
-0.00373557
7.80846e-06
-0.00385221
1.50075e-05
-0.00378139
-0.00433545
-0.000767777
0.000168446
-0.000470112
-0.00403379
-0.000305793
-0.00392541
-4.23594e-05
-0.00371116
3.52894e-05
-9.85146e-05
-0.00365011
7.26475e-05
-0.0036955
-0.00391253
-0.003543
0.00370442
-2.89128e-05
0.00372251
-0.00409522
-0.000395063
-0.000221513
-0.00382177
0.00387856
3.81411e-05
5.08734e-05
-0.00388293
0.00388711
-3.24819e-05
-3.46981e-05
-0.00389107
0.00389484
-2.86766e-05
-3.06568e-05
-0.0038984
0.00390179
-2.53454e-05
-2.71139e-05
-0.00390498
0.00390801
-2.24255e-05
-2.4012e-05
-0.00391087
0.00391358
-1.98623e-05
-2.1293e-05
-0.00391614
0.00391857
-1.76061e-05
-1.8904e-05
-0.00392085
0.00392303
-1.56151e-05
-1.67996e-05
-0.00392508
0.00392702
-1.38533e-05
-1.49411e-05
-0.00392886
0.00393061
-1.22909e-05
-1.32957e-05
-0.00393225
0.00393382
-1.09037e-05
-1.18365e-05
-0.0039353
0.00393671
-9.67135e-06
-1.05415e-05
-0.00393804
0.0039393
-8.57677e-06
-9.3918e-06
-0.0039405
0.00394164
-7.60485e-06
-8.37192e-06
-0.00394271
0.00394374
-6.74225e-06
-7.46726e-06
-0.00394471
0.00394563
-5.97734e-06
-6.6657e-06
-0.0039465
0.00394734
-5.29881e-06
-5.9557e-06
-0.00394813
0.00394888
-4.69598e-06
-5.3263e-06
-0.00394959
0.00395027
-4.15902e-06
-4.76724e-06
-0.00395092
0.00395154
-3.67998e-06
-4.26956e-06
-0.00395212
0.00398525
-3.25023e-06
-3.82506e-06
-0.00398863
0.00399827
3.86964e-05
2.47831e-05
-0.0039452
0.00396236
3.03729e-05
7.34818e-05
6.60689e-05
-4.88006e-05
0.00398379
-1.35125e-05
-9.55317e-06
0.00398543
0.00400921
4.9275e-05
4.56712e-07
0.00396927
0.00399957
4.81461e-09
-4.72546e-07
0.00396856
0.00395474
9.36361e-07
-1.40331e-06
0.00396809
0.00395471
-2.78524e-05
2.17912e-05
0.00399906
0.00400142
-1.49381e-05
1.99079e-05
0.00398487
0.00400913
0.00401797
-0.00397231
2.4283e-05
-0.00399968
0.0039765
4.30835e-05
4.44194e-05
0.00397997
-0.00397096
2.60137e-05
2.66018e-05
0.00395202
-0.00395143
-4.27141e-06
-4.55847e-06
0.00395082
-0.00395016
-4.72979e-06
-4.98134e-06
0.00394949
-0.00394877
-5.24253e-06
-5.45617e-06
0.00394803
-0.00394724
-5.81614e-06
-5.98834e-06
0.00394641
-0.00394554
-6.45709e-06
-6.58425e-06
0.00394462
-0.00394365
-7.17318e-06
-7.25083e-06
0.00394264
-0.00394156
-7.97334e-06
-7.99644e-06
0.00394043
-0.00393924
-8.86839e-06
-8.83092e-06
0.00393798
-0.00393665
-9.87146e-06
-9.76614e-06
0.00393525
-0.00393376
-1.09972e-05
-1.0816e-05
0.0039322
-0.00393054
-1.22632e-05
-1.19965e-05
0.0039288
-0.00392694
-1.36895e-05
-1.33264e-05
0.003925
-0.00392292
-1.52995e-05
-1.48275e-05
0.00392074
-0.00391842
-1.71193e-05
-1.65242e-05
0.00391598
-0.00391339
-1.91805e-05
-1.84453e-05
0.00391065
-0.00390774
-2.15188e-05
-2.06244e-05
0.00390468
-0.00390141
-2.41772e-05
-2.31005e-05
0.00389797
-0.0038943
-2.72068e-05
-2.59204e-05
0.00389043
-0.00388631
-3.06697e-05
-2.91404e-05
0.00388196
-0.00387733
-3.46403e-05
-3.28279e-05
0.00387243
-0.00386721
-3.92043e-05
-3.70634e-05
0.00386169
-0.00381517
-4.448e-05
-4.19496e-05
0.00376948
-0.00369644
-3.90451e-07
4.86733e-06
1.64806e-05
-5.51521e-05
-0.00365683
-0.00369027
1.0311e-05
5.98485e-05
-0.00376985
-0.00414659
-0.000418746
2.76826e-05
-0.0037434
0.00401353
-0.0040232
4.00491e-05
0.00401028
-6.30973e-06
4.13078e-05
-3.52931e-05
0.00397885
5.16676e-05
0.00396614
1.45976e-06
-0.0038515
8.34097e-06
-0.00384554
-0.000103511
-0.00393786
1.59832e-05
-0.00383974
2.44851e-05
-0.00383416
3.39267e-05
-0.00373919
3.36611e-05
-4.60125e-06
-0.00368589
-1.53955e-05
-0.00364122
-0.00385122
-0.00400783
0.00382178
-0.00020902
-0.000349892
0.000466094
-0.00426279
0.00417437
-0.004338
-0.000186261
-0.000252197
-0.00368889
0.00375701
-9.70299e-05
-8.86208e-05
-0.00383515
0.00388088
-7.58728e-06
-2.72685e-05
-0.00388513
0.00388917
-3.65261e-05
-3.89478e-05
-0.003893
0.00389664
-3.23173e-05
-3.448e-05
-0.00390007
0.00390334
-2.86154e-05
-3.05507e-05
-0.00390643
0.00390936
-2.53593e-05
-2.70964e-05
-0.00391213
0.00391476
-2.24926e-05
-2.40585e-05
-0.00391724
0.00391959
-1.99641e-05
-2.13827e-05
-0.00392182
0.00392393
-1.77295e-05
-1.90215e-05
-0.00392592
0.00392782
-1.57504e-05
-1.69336e-05
-0.00392961
0.00393131
-1.39943e-05
-1.50837e-05
-0.00393292
0.00393445
-1.24342e-05
-1.34421e-05
-0.00393589
0.00393727
-1.10474e-05
-1.19842e-05
-0.00393856
0.0039398
-9.81462e-06
-1.06891e-05
-0.00394097
0.00394208
-8.71908e-06
-9.53894e-06
-0.00394313
0.00394414
-7.74587e-06
-8.51786e-06
-0.00394508
0.00394599
-6.88189e-06
-7.61206e-06
-0.00394684
0.00394766
-6.1148e-06
-6.80878e-06
-0.00394843
0.00394916
-5.43301e-06
-6.09609e-06
-0.00394986
0.00395053
-4.82603e-06
-5.46299e-06
-0.00395116
0.00395176
-4.28481e-06
-4.89973e-06
-0.00395233
0.00395288
-3.79972e-06
-4.39752e-06
-0.00398161
0.00399631
2.40001e-05
-3.94871e-06
4.65913e-05
1.84755e-05
-4.34201e-05
0.00400873
-2.9575e-05
1.45315e-06
0.00401355
0.00399811
-8.54381e-07
4.12937e-07
0.00396971
0.0039553
2.96084e-08
-4.76754e-07
0.00396901
0.00395518
9.22538e-07
-1.36922e-06
0.00396854
0.00395515
-4.48482e-05
3.28618e-05
0.00401105
0.0039552
0.0040067
0.00401228
-0.00401446
2.64647e-05
-0.00400388
0.00398665
6.03135e-05
5.28201e-05
0.00398318
-0.00395277
-4.39467e-06
-4.68475e-06
0.00395222
-0.00395164
-4.85099e-06
-5.10521e-06
0.00395104
-0.00395041
-5.36546e-06
-5.58135e-06
0.00394974
-0.00394904
-5.94285e-06
-6.11643e-06
0.00394832
-0.00394754
-6.58947e-06
-6.71695e-06
0.00394674
-0.00394588
-7.31277e-06
-7.38992e-06
0.00394499
-0.00394404
-8.12165e-06
-8.14342e-06
0.00394305
-0.003942
-9.02635e-06
-8.98697e-06
0.0039409
-0.00393973
-1.00392e-05
-9.93181e-06
0.0039385
-0.0039372
-1.11747e-05
-1.09913e-05
0.00393583
-0.00393438
-1.24496e-05
-1.21811e-05
0.00393286
-0.00393124
-1.38833e-05
-1.3519e-05
0.00392954
-0.00392773
-1.54982e-05
-1.5026e-05
0.00392583
-0.00392381
-1.73199e-05
-1.67261e-05
0.00392169
-0.00391943
-1.93781e-05
-1.86466e-05
0.00391705
-0.00391453
-2.17073e-05
-2.08196e-05
0.00391187
-0.00390904
-2.43475e-05
-2.32821e-05
0.00390606
-0.00390289
-2.73464e-05
-2.60778e-05
0.00389956
-0.003896
-3.07606e-05
-2.92584e-05
0.00389226
-0.00388827
-3.46578e-05
-3.2886e-05
0.00388406
-0.00387958
-3.91191e-05
-3.70344e-05
0.00387485
-0.00386982
-4.4241e-05
-4.17921e-05
0.0038645
-0.00385884
-5.01419e-05
-4.72666e-05
0.00380039
-0.00374382
-5.69674e-05
-5.35764e-05
0.00371524
-0.00371463
-1.60058e-05
-1.82697e-05
-0.000237846
5.0361e-05
-0.00373793
-0.00380554
2.65906e-05
2.12244e-06
-0.00366993
-0.00364928
-3.87559e-05
5.13818e-06
-0.0037473
4.52895e-05
0.00396645
0.00402039
1.79305e-05
0.000138227
-0.00429928
-0.000176956
1.61987e-06
-0.00384478
0.000248596
-0.00437316
-2.78356e-05
-0.00381908
8.88998e-06
-0.00383845
-3.07538e-05
-0.00385674
1.70267e-05
-0.00383228
2.61281e-05
-0.00382636
3.62706e-05
-0.00378006
6.75014e-06
-0.00369051
-8.67089e-06
1.60091e-06
-0.00366286
-1.17804e-05
-0.00364617
-0.00384446
-0.00426775
0.00409892
-1.74398e-05
-0.000279827
-0.00423159
0.000212136
0.00438377
-0.00427498
-0.000388611
-6.0934e-05
-0.00398693
0.00390264
-0.000124725
-0.000140203
-0.00386914
0.00382381
-5.16948e-05
-5.51289e-05
-0.00384519
0.00388331
-4.57028e-05
-4.8654e-05
-0.00388744
0.00389136
-4.0447e-05
-4.30811e-05
-0.00389506
0.00389857
-3.58317e-05
-3.81763e-05
-0.00390189
0.00390504
-3.17694e-05
-3.38661e-05
-0.00390802
0.00391085
-2.81908e-05
-3.0072e-05
-0.00391352
0.00391606
-2.50342e-05
-2.67291e-05
-0.00391846
0.00392074
-2.22457e-05
-2.37795e-05
-0.00392289
0.00392494
-1.97782e-05
-2.11728e-05
-0.00392687
0.00392871
-1.75908e-05
-1.88653e-05
-0.00393045
0.0039321
-1.56485e-05
-1.68191e-05
-0.00393366
0.00393515
-1.39219e-05