/*--------------------------------*- C++ -*----------------------------------*\
  =========                 |
  \\      /  F ield         | OpenFOAM: The Open Source CFD Toolbox
   \\    /   O peration     | Website:  https://openfoam.org
    \\  /    A nd           | Version:  10
     \\/     M anipulation  |
\*---------------------------------------------------------------------------*/
FoamFile
{
    format      ascii;
    class       volVectorField;
    location    "20.5";
    object      U;
}
// * * * * * * * * * * * * * * * * * * * * * * * * * * * * * * * * * * * * * //

dimensions      [0 1 -1 0 0 0 0];

internalField   nonuniform List<vector> 
28942
(
(0.00478118 -0.00244866 -3.00501e-22)
(0.0064708 -0.00259272 -5.33935e-23)
(0.0182553 -0.012592 -9.59637e-22)
(0.103304 0.0182406 -5.68167e-21)
(0.102342 0.022282 1.85641e-21)
(0.0235424 0.000870465 0)
(0.0280512 0.000499874 2.10141e-23)
(0.0322263 0.00111627 -1.86831e-23)
(0.134892 -0.0159854 -3.24998e-22)
(0.133403 -0.0144084 9.19524e-22)
(0.0111481 0.00509093 -5.3128e-22)
(0.0178503 0.00686592 1.85111e-22)
(0.00803503 0.00381307 0)
(0.00543987 0.0026224 0)
(0.067855 0.00251254 -2.67666e-23)
(0.0656353 0.00347737 -9.0202e-24)
(0.0894542 0.0158448 7.13082e-22)
(0.0871379 0.0138444 1.14534e-21)
(0.0122483 -0.0152015 3.23799e-21)
(0.0295473 -0.0306415 -8.53493e-22)
(0.098532 0.0370999 1.02821e-21)
(0.0976544 0.0341564 0)
(0.0199062 0.00523767 1.07887e-21)
(0.00842451 0.00264107 4.94877e-22)
(0.0393815 0.00793029 8.48011e-22)
(0.059529 0.00354951 -7.73075e-22)
(0.007686 -0.0184967 8.94795e-21)
(0.00672513 -0.0165567 -3.28626e-21)
(0.0359347 -0.0255549 6.66309e-22)
(0.0195202 -0.0138144 2.32178e-22)
(0.0240816 -0.00231152 0)
(0.030104 -0.00221476 -2.24094e-23)
(0.0376498 0.00607444 4.80804e-22)
(0.0527141 0.00228918 -8.86481e-23)
(0.0190073 0.0181618 1.42329e-21)
(0.0158624 0.0192768 -1.45313e-21)
(0.032452 0.0379079 -3.24563e-21)
(0.0188203 0.0307837 -1.11844e-21)
(0.0131984 0.000236401 -1.72737e-23)
(0.00872334 0.0163315 -2.75698e-21)
(0.0306467 -0.00620332 0)
(0.0513395 -0.0109699 0)
(0.10728 -0.0136839 -4.75255e-23)
(0.107089 -0.0129794 1.40418e-22)
(0.108391 -0.0135707 1.21868e-22)
(0.0446798 0.000600993 2.07304e-23)
(0.0416981 -0.000436311 -3.44015e-23)
(0.0579584 -0.000468173 -1.43499e-22)
(0.0557503 -0.000522437 4.03169e-23)
(0.0461012 -0.00364805 -3.5319e-22)
(0.0351783 -0.00467137 2.2529e-22)
(0.125913 0.0024832 -5.36433e-22)
(0.125521 0.00201499 -4.8967e-22)
(0.134421 -0.0189076 -3.99594e-24)
(0.132732 -0.0172359 1.72724e-22)
(0.0864104 0.00860745 6.28488e-22)
(0.105832 0.00157988 1.90123e-22)
(0.00346404 0.00190582 -4.8986e-22)
(0.00987191 0.00428465 0)
(0.00900602 0.00373649 2.13366e-22)
(0.0032276 0.00171431 4.21158e-22)
(0.000451096 0.000288836 -3.52555e-22)
(0.000269014 0.000177555 -3.30108e-22)
(0.111741 -0.0424958 0)
(0.10734 -0.0252167 9.21427e-23)
(0.124083 -0.0322523 -2.38582e-23)
(0.125256 -0.0431106 0)
(0.0903689 -0.0325106 -6.83221e-22)
(0.0938955 -0.0349314 -4.50526e-22)
(0.00204318 -0.00121352 9.90074e-22)
(0.00270235 -0.00216214 -3.13307e-22)
(0.00525406 -0.0033888 7.7858e-22)
(0.0852741 -0.0455244 0)
(0.0915525 -0.0393122 2.32701e-21)
(0.0810086 -0.0528764 6.31046e-22)
(0.117469 0.0108385 1.6077e-22)
(0.116477 0.004812 -1.81729e-22)
(0.128428 0.00849825 -3.29466e-23)
(0.00476631 -0.002911 -6.16955e-23)
(0.00645173 -0.0045011 5.52681e-22)
(0.0518835 -0.0315042 1.63999e-22)
(0.0337928 -0.020868 -2.82389e-22)
(0.00226054 -0.00067602 3.07391e-21)
(0.00545105 -0.00223708 -1.20016e-21)
(0.102682 0.0483745 3.66923e-23)
(0.0984156 0.0554088 -8.62706e-22)
(0.081793 0.0543578 7.9495e-22)
(0.0478435 0.0348585 -2.99281e-21)
(0.045067 0.0319594 2.12073e-21)
(0.0298939 0.0208369 -1.3049e-22)
(0.0331386 0.0235067 -7.05429e-22)
(0.0384327 0.0286477 9.60303e-22)
(0.00558122 0.00387887 -3.38022e-23)
(0.00938962 0.00550932 -1.11033e-23)
(0.00393223 0.00274011 2.22496e-23)
(0.00250213 0.00228388 -2.82024e-22)
(0.00200575 0.00222291 3.35814e-22)
(0.0159322 0.01167 -3.59689e-21)
(0.0176952 0.0137729 8.29844e-22)
(0.00922544 -0.00407597 0)
(0.101389 0.00516059 0)
(0.0983999 0.0156853 -4.20849e-21)
(0.060437 0.0104757 2.14852e-21)
(0.088676 0.017882 0)
(0.135424 -0.00818467 0)
(0.134735 -0.0092179 0)
(0.13376 -0.00971749 -5.56231e-22)
(0.115203 0.025647 -2.38875e-22)
(0.114332 0.0271152 2.34839e-21)
(0.113475 0.024588 1.26009e-21)
(0.00267249 0.00158674 8.92525e-22)
(0.00183065 0.0010133 -1.00177e-21)
(0.020432 -0.00620552 -4.74094e-22)
(0.0218975 -0.00600673 3.88723e-22)
(0.00998386 -0.0033967 7.49208e-22)
(0.00651569 0.0112681 1.54502e-21)
(0.0190731 0.0183398 3.62301e-21)
(0.0135587 0.0230019 2.74309e-22)
(0.00495492 0.0144354 -9.02663e-21)
(0.118809 0.0474693 6.7211e-23)
(0.109108 0.0581019 1.22604e-21)
(0.119737 0.0545086 -2.11609e-21)
(0.0394916 -0.0296451 8.07092e-22)
(0.0242494 -0.0174128 -5.314e-22)
(0.00533704 -0.000679552 -4.29037e-21)
(0.00455145 -0.00354434 0)
(0.0125428 -0.0015845 2.10393e-21)
(0.0221635 -0.0162575 8.47467e-22)
(0.0345636 -0.0279771 -2.15359e-21)
(0.0551576 0.000136647 1.04095e-22)
(0.0582892 0.000298556 -7.018e-23)
(0.0520773 0.000365414 -3.18549e-24)
(0.0282545 -0.0421285 0)
(0.0298007 -0.0429604 0)
(0.0896164 -0.018655 -5.14636e-22)
(0.0995839 -0.0220933 3.46947e-21)
(0.0870313 -0.0252795 0)
(0.0475336 -0.0404084 0)
(0.0586631 -0.0515625 -8.57492e-22)
(0.0417103 0.0396411 2.21946e-21)
(0.000129749 0.000359371 3.69609e-22)
(-0.000105444 0.000236363 -2.28287e-22)
(0.022504 -0.0193714 -8.64917e-22)
(0.109813 -0.0138694 7.02994e-22)
(0.109455 -0.0133234 -1.31441e-22)
(0.119248 -0.00287833 -4.08221e-23)
(0.112605 0.00445665 5.4402e-23)
(0.121546 0.00348721 3.93487e-23)
(0.000182967 0.000353946 1.52585e-22)
(0.04427 0.0347332 3.48487e-21)
(0.0626538 0.0466729 -8.6224e-22)
(0.0602005 0.0397652 -3.48537e-24)
(0.0370409 -0.00133286 8.8661e-24)
(0.0365335 -0.00143848 4.90493e-23)
(0.0394671 -0.00145548 2.69553e-24)
(0.0438225 -0.00115263 -2.44247e-23)
(0.0459156 0.0384012 1.3636e-22)
(0.0191613 0.0162048 0)
(0.000232429 -6.4001e-05 2.47903e-22)
(0.000547871 -0.000380922 -2.75361e-22)
(0.00230907 -0.00134879 1.76962e-22)
(0.0381525 -0.00840336 -1.73224e-21)
(0.0672341 -0.00283096 -6.8906e-22)
(0.0502627 -0.000765627 -2.0206e-24)
(0.0764372 -0.00734944 2.5707e-22)
(0.0723698 -0.0157493 -1.73255e-23)
(0.0947421 0.0397023 2.30802e-21)
(0.0919148 0.0452965 9.88331e-23)
(0.0890147 0.0289812 1.30157e-21)
(0.0917565 0.0306614 -9.43232e-22)
(0.0991715 0.0407854 0)
(0.124163 -0.00140483 1.89805e-22)
(0.124694 -0.00182808 3.65579e-22)
(0.127339 -0.0103833 -3.67114e-22)
(0.128717 -0.0100616 6.3174e-22)
(0.117202 0.0230273 2.96647e-22)
(0.119283 0.0238278 -8.41914e-22)
(0.117311 0.0250749 0)
(0.115315 0.0239007 1.72687e-22)
(0.116944 0.0270548 0)
(0.117676 0.0351717 -6.20638e-22)
(0.116257 0.0373145 -3.35695e-22)
(0.111937 0.0413267 -5.98799e-22)
(0.114308 0.0393591 0)
(0.117125 0.0422951 2.00467e-21)
(0.114417 0.0443295 4.73329e-23)
(0.108958 0.0436451 -3.33216e-22)
(0.100299 0.05001 -1.40715e-21)
(0.0989715 0.0452137 -2.47195e-22)
(0.0302159 -0.0124499 -2.54416e-23)
(0.0388416 -0.0140857 9.12949e-24)
(0.00703238 -0.0029902 -5.63892e-22)
(0.0495827 9.2827e-05 -7.02483e-23)
(0.0618861 -0.000248259 0)
(2.88344e-05 -6.95611e-05 3.04641e-22)
(3.94469e-05 -7.36962e-05 1.56501e-22)
(0.0565143 -0.00235729 3.0955e-23)
(0.0654338 -0.00226356 1.12742e-23)
(0.0648217 -0.00146268 0)
(0.0548575 -0.000893682 1.33255e-23)
(0.108165 0.000797403 -1.55698e-22)
(0.10813 0.000706879 7.45872e-22)
(0.108257 0.000722232 3.62236e-22)
(0.000883058 0.000429557 3.17883e-22)
(-0.000132702 -0.00010892 -4.79777e-22)
(-0.000185222 -0.000164377 3.89586e-22)
(0.00168834 0.00073342 0)
(0.00011754 0.000118747 1.05197e-21)
(0.000220265 -1.57873e-05 -7.31748e-22)
(0.00792965 0.00392551 -9.15817e-22)
(0.00159397 0.000859096 -1.12464e-21)
(0.0018607 0.000933576 0)
(0.00158251 0.00761517 0)
(0.00058122 0.0033116 0)
(0.000315477 0.00199593 0)
(0.135788 -0.00832425 1.09567e-22)
(0.136115 -0.00816309 0)
(0.135064 -0.00944242 -1.26076e-22)
(0.088218 -0.0147027 4.71705e-21)
(0.0902191 -0.0151041 -1.71282e-21)
(0.0891292 -0.0127404 0)
(0.110178 1.43985e-05 -9.00389e-24)
(0.110227 1.2924e-05 1.80218e-23)
(0.110127 1.65701e-05 -6.09129e-24)
(0.110273 1.17198e-05 0)
(0.110317 1.116e-05 -1.14946e-23)
(0.110359 1.00128e-05 0)
(0.110358 -3.37269e-05 0)
(0.110398 7.92909e-06 4.26471e-23)
(0.110396 -3.44452e-05 0)
(0.110317 -3.43323e-05 -1.1569e-23)
(0.110274 -3.52991e-05 0)
(0.110227 -3.64034e-05 6.02885e-24)
(0.110178 -3.77924e-05 -9.00269e-24)
(0.110127 -3.9164e-05 6.08367e-24)
(0.110434 6.12478e-06 -4.08098e-23)
(0.110433 -3.45038e-05 -1.42854e-24)
(0.110073 1.87647e-05 8.31359e-28)
(0.110073 -4.00406e-05 -9.3053e-24)
(0.110015 2.10459e-05 4.95026e-23)
(0.110469 5.12705e-06 3.81594e-26)
(0.110468 -3.36081e-05 -1.42972e-24)
(0.110015 -4.13296e-05 1.83428e-23)
(0.110502 4.00104e-06 3.84333e-23)
(0.110533 3.03894e-06 -3.84017e-23)
(0.110502 -3.27696e-05 2.87887e-24)
(0.110533 -3.18551e-05 5.69123e-24)
(0.109955 2.5244e-05 -4.81637e-23)
(0.109955 -4.32271e-05 -1.2074e-23)
(0.110563 2.04815e-06 0)
(0.110563 -3.10326e-05 -5.61347e-24)
(0.109891 2.80945e-05 5.95846e-27)
(0.109892 -4.45145e-05 -5.9734e-27)
(0.110591 1.2742e-06 0)
(0.110591 -3.00905e-05 0)
(0.109824 3.07452e-05 0)
(0.109824 -4.62096e-05 0)
(0.110618 5.42665e-07 0)
(0.110618 -2.91695e-05 2.69856e-24)
(0.109752 3.36332e-05 -2.50232e-23)
(0.109752 -4.77972e-05 -6.10551e-27)
(0.110643 -5.5955e-08 1.4148e-25)
(0.110643 -2.8158e-05 -2.88209e-24)
(0.109676 3.65698e-05 2.51428e-23)
(0.109676 -4.96113e-05 0)
(0.110668 -7.01353e-07 0)
(0.110668 -2.72066e-05 0)
(0.109596 3.99378e-05 -1.59219e-24)
(0.109595 -5.12209e-05 2.73312e-23)
(0.110691 -1.31677e-06 1.75092e-23)
(0.110691 -2.61428e-05 0)
(0.109511 4.31405e-05 -1.42432e-25)
(0.109511 -5.32702e-05 -2.58688e-23)
(0.110712 -2.04303e-06 -2.61929e-23)
(0.110712 -2.52426e-05 -7.60372e-24)
(0.10942 4.51307e-05 2.63947e-23)
(0.10942 -5.53531e-05 0)
(0.110733 -2.78151e-06 8.62967e-24)
(0.110733 -2.42383e-05 5.07138e-24)
(0.109323 4.83092e-05 -1.33707e-23)
(0.109324 -5.82818e-05 2.71178e-23)
(0.110753 -3.47012e-06 -3.44991e-23)
(0.110753 -2.2674e-05 3.88836e-23)
(0.109218 4.8897e-05 1.38034e-23)
(0.10922 -6.15366e-05 4.37059e-25)
(0.110772 -4.14577e-06 0)
(0.110772 -2.15725e-05 1.85466e-23)
(0.109107 5.02201e-05 -2.77923e-23)
(0.109108 -6.62289e-05 5.56056e-23)
(0.110791 -4.35744e-06 0)
(0.110791 -2.12795e-05 0)
(0.109224 0.000157983 -1.36584e-23)
(0.109112 0.000166313 -5.53564e-23)
(0.108986 5.07406e-05 0)
(0.108989 -7.29769e-05 -2.83645e-23)
(0.109425 0.000141336 -8.57131e-24)
(0.109327 0.000149821 1.68286e-24)
(0.109601 0.000124681 0)
(0.109515 0.000133071 -2.7636e-23)
(0.109757 0.000109496 -5.32622e-26)
(0.109681 0.000116895 0)
(0.109896 9.56555e-05 0)
(0.109828 0.000102437 0)
(0.110021 8.22918e-05 0)
(0.10996 8.89816e-05 0)
(0.110131 7.15767e-05 1.2032e-23)
(0.110077 7.69076e-05 3.03327e-24)
(0.11023 6.23878e-05 -1.15997e-23)
(0.110182 6.68325e-05 -1.20197e-23)
(0.110319 5.4327e-05 2.05921e-23)
(0.110275 5.77342e-05 2.63396e-23)
(0.1104 4.73224e-05 0)
(0.11036 5.09521e-05 0)
(0.110471 4.06413e-05 -9.05382e-26)
(0.110436 4.39008e-05 0)
(0.110535 3.49034e-05 0)
(0.110504 3.76591e-05 0)
(0.110593 2.99554e-05 0)
(0.110565 3.23548e-05 0)
(0.110645 2.55684e-05 0)
(0.11062 2.76895e-05 0)
(0.110692 2.17454e-05 0)
(0.110669 2.36003e-05 0)
(0.110735 1.83945e-05 0)
(0.110714 2.00285e-05 0)
(0.110774 1.44907e-05 -1.41134e-23)
(0.110754 1.68229e-05 0)
(0.110792 1.26394e-05 -4.56505e-24)
(0.110809 -4.96281e-06 4.454e-24)
(0.110809 -2.0855e-05 -4.41694e-24)
(0.110754 -4.18713e-05 0)
(0.110792 -3.8208e-05 -1.81217e-23)
(0.110773 -3.97426e-05 -9.32062e-24)
(0.110714 -4.65414e-05 2.54804e-24)
(0.110734 -4.41156e-05 -9.98266e-24)
(0.110669 -5.09589e-05 8.25079e-26)
(0.110692 -4.88836e-05 0)
(0.110619 -5.51624e-05 0)
(0.110645 -5.30258e-05 0)
(0.110564 -5.97276e-05 0)
(0.110593 -5.73749e-05 0)
(0.110503 -6.47813e-05 0)
(0.110535 -6.22066e-05 1.08467e-29)
(0.110435 -7.02873e-05 9.14879e-26)
(0.11047 -6.74681e-05 0)
(0.11036 -7.64161e-05 0)
(0.110398 -7.34321e-05 0)
(0.110276 -8.22336e-05 0)
(0.110319 -7.93569e-05 0)
(0.110182 -8.92442e-05 0)
(0.11023 -8.53285e-05 -6.09248e-24)
(0.110076 -9.79627e-05 1.60118e-24)
(0.11013 -9.40963e-05 -7.86094e-24)
(0.109959 -0.000108495 0)
(0.11002 -0.00010256 -6.39831e-24)
(0.109828 -0.000119537 0)
(0.109896 -0.000113907 0)
(0.10968 -0.000131946 0)
(0.109756 -0.000125533 0)
(0.109515 -0.00014609 0)
(0.1096 -0.000138839 0)
(0.109328 -0.000161831 -7.0019e-24)
(0.109424 -0.000153423 0)
(0.109117 -0.000181464 -2.84544e-23)
(0.109226 -0.000170603 -7.05016e-24)
(0.108999 -0.000193985 2.89973e-23)
(0.108992 0.000175413 5.49042e-23)
(0.11081 1.11757e-05 8.9359e-24)
(0.110809 -3.68881e-05 -1.74695e-23)
(0.10886 -8.16706e-05 0)
(0.108873 -0.000209455 0)
(0.108864 0.000185089 0)
(0.108857 5.01051e-05 0)
(0.109236 0.000265408 0)
(0.109008 0.000298899 1.37581e-23)
(0.109126 0.000281356 1.38737e-23)
(0.109436 0.000234813 1.76111e-23)
(0.109339 0.00024984 -3.52024e-24)
(0.109611 0.000207035 5.43902e-26)
(0.109526 0.000220351 0)
(0.109766 0.000182785 0)
(0.109691 0.000194567 0)
(0.109904 0.00016117 0)
(0.109837 0.000171666 0)
(0.110027 0.000142186 0)
(0.109967 0.000151287 0)
(0.110138 0.000124748 0)
(0.110084 0.00013328 0)
(0.110236 0.000109957 -4.8643e-26)
(0.110188 0.000117419 1.25456e-23)
(0.110324 9.68261e-05 -4.67122e-26)
(0.110281 0.000102868 -2.44975e-23)
(0.110404 8.48857e-05 0)
(0.110365 9.06218e-05 0)
(0.110475 7.44669e-05 4.52268e-26)
(0.11044 7.95122e-05 0)
(0.110539 6.53771e-05 0)
(0.110508 6.97616e-05 0)
(0.110596 5.74173e-05 0)
(0.110568 6.12631e-05 0)
(0.110648 5.04195e-05 0)
(0.110623 5.37948e-05 0)
(0.110695 4.42404e-05 0)
(0.110672 4.72267e-05 0)
(0.110737 3.85722e-05 0)
(0.110717 4.13518e-05 0)
(0.110776 3.25663e-05 9.63914e-24)
(0.110757 3.56338e-05 0)
(0.110826 -5.7456e-06 0)
(0.110827 9.95315e-06 8.74923e-24)
(0.110811 2.69361e-05 0)
(0.110794 2.9571e-05 9.39918e-24)
(0.110793 -5.55952e-05 1.87066e-23)
(0.11081 -5.33416e-05 4.60034e-24)
(0.110826 -3.57143e-05 3.58773e-23)
(0.110825 -2.0241e-05 0)
(0.110756 -6.16065e-05 0)
(0.110775 -5.83513e-05 -2.82357e-23)
(0.110716 -6.80182e-05 8.02894e-26)
(0.110736 -6.47207e-05 1.00434e-23)
(0.110671 -7.42646e-05 -8.25076e-26)
(0.110694 -7.11002e-05 0)
(0.110622 -8.09874e-05 0)
(0.110647 -7.75505e-05 0)
(0.110567 -8.84062e-05 0)
(0.110595 -8.45954e-05 0)
(0.110507 -9.6648e-05 0)
(0.110538 -9.24262e-05 -1.08467e-29)
(0.110439 -0.000105736 -1.82945e-25)
(0.110474 -0.000101084 0)
(0.110364 -0.000116052 0)
(0.110403 -0.000110694 0)
(0.110281 -0.000127318 3.07627e-24)
(0.110324 -0.000121522 0)
(0.110188 -0.000139697 0)
(0.110235 -0.000133124 -3.06343e-24)
(0.110083 -0.000154182 6.41363e-24)
(0.110137 -0.000146828 6.37004e-24)
(0.109967 -0.000170427 0)
(0.110027 -0.000162128 0)
(0.109836 -0.000188767 0)
(0.109903 -0.000179308 0)
(0.109689 -0.000209636 0)
(0.109765 -0.00019886 0)
(0.109525 -0.000233423 0)
(0.109609 -0.000221161 0)
(0.10934 -0.000260477 1.12318e-25)
(0.109435 -0.000246501 0)
(0.109131 -0.000291795 -1.14135e-25)
(0.109238 -0.000275521 0)
(0.108892 -0.000332183 -2.98928e-23)
(0.109015 -0.000310987 2.98791e-23)
(0.108883 0.000317624 2.80197e-23)
(0.108738 -0.000227643 0)
(0.10876 -0.00035735 -6.09702e-23)
(0.108724 -9.12767e-05 0)
(0.110828 2.51258e-05 0)
(0.110827 -5.10531e-05 -4.46672e-24)
(0.108728 0.000195435 7.11065e-23)
(0.10875 0.000337952 2.84479e-23)
(0.108594 -0.000247259 1.54065e-23)
(0.108618 -0.000385028 7.70543e-23)
(0.108719 4.9803e-05 0)
(0.110814 4.39444e-05 3.68106e-23)
(0.11083 4.06158e-05 -1.81892e-23)
(0.110842 -3.47921e-05 -8.84631e-24)
(0.110843 -4.88433e-05 4.40006e-23)
(0.108784 0.000477534 9.96119e-23)
(0.108606 0.000360479 -5.60114e-23)
(0.108488 0.000547475 -2.53748e-22)
(0.108641 0.000509819 -5.68903e-23)
(0.109035 0.000420551 2.77227e-23)
(0.108913 0.000448134 -8.47613e-23)
(0.109256 0.00037058 -2.83154e-23)
(0.109149 0.000394849 -2.13797e-23)
(0.109453 0.000326929 -7.04525e-24)
(0.109358 0.000348228 -7.06126e-24)
(0.109626 0.000288848 -5.43902e-26)
(0.109542 0.000307173 0)
(0.109779 0.000255523 0)
(0.109705 0.000271671 0)
(0.109916 0.000226076 0)
(0.109849 0.000240349 0)
(0.110038 0.000200068 0)
(0.109978 0.000212659 0)
(0.110147 0.000176958 0)
(0.110094 0.000188106 0)
(0.110244 0.000156413 0)
(0.110197 0.00016634 0)
(0.110332 0.000138237 9.08977e-30)
(0.110289 0.000147167 0)
(0.11041 0.000122216 0)
(0.110372 0.000129918 0)
(0.110481 0.000108059 4.52166e-26)
(0.110446 0.000114926 0)
(0.110544 9.55808e-05 0)
(0.110513 0.000101618 0)
(0.110601 8.46032e-05 0)
(0.110573 8.99162e-05 0)
(0.110653 7.493e-05 0)
(0.110628 7.96132e-05 0)
(0.110699 6.6354e-05 0)
(0.110676 7.05164e-05 0)
(0.110741 5.85679e-05 0)
(0.11072 6.23861e-05 0)
(0.110779 5.0987e-05 4.91329e-24)
(0.11076 5.47324e-05 -2.47176e-24)
(0.110797 4.7378e-05 -1.87706e-23)
(0.110842 -5.97639e-06 -4.18872e-24)
(0.110844 2.33544e-05 1.75286e-23)
(0.110842 8.51719e-06 -1.33867e-23)
(0.110842 -1.98026e-05 0)
(0.110795 -7.34522e-05 -1.39422e-23)
(0.110829 -6.64216e-05 -4.02867e-23)
(0.110812 -6.97599e-05 3.24153e-23)
(0.110759 -8.14075e-05 0)
(0.110777 -7.73931e-05 0)
(0.110719 -8.90454e-05 -1.90218e-30)
(0.110739 -8.5031e-05 0)
(0.110675 -9.74289e-05 0)
(0.110697 -9.314e-05 0)
(0.110626 -0.000106672 -8.47317e-26)
(0.110651 -0.000101935 0)
(0.110572 -0.000116928 0)
(0.1106 -0.000111665 0)
(0.110512 -0.000128333 0)
(0.110543 -0.000122482 0)
(0.110445 -0.00014101 9.14704e-26)
(0.11048 -0.000134506 0)
(0.110371 -0.000155206 9.3728e-26)
(0.110409 -0.000147887 0)
(0.110288 -0.000171056 0)
(0.110331 -0.000162896 0)
(0.110196 -0.000188913 0)
(0.110243 -0.000179754 0)
(0.110093 -0.000209023 0)
(0.110146 -0.00019858 0)
(0.109977 -0.000231691 0)
(0.110037 -0.000220019 0)
(0.109848 -0.000257436 -1.05219e-25)
(0.109914 -0.000244155 0)
(0.109703 -0.000286702 0)
(0.109777 -0.0002716 0)
(0.10954 -0.000320012 0)
(0.109624 -0.000302824 0)
(0.109357 -0.00035794 -1.79447e-29)
(0.109451 -0.000338362 0)
(0.10915 -0.000401307 2.3891e-29)
(0.109257 -0.000378891 0)
(0.108917 -0.000452937 1.18439e-25)
(0.109037 -0.000425557 0)
(0.10865 -0.000518309 -6.2491e-23)
(0.108788 -0.000483602 1.53417e-23)
(0.108467 -0.000414162 1.57308e-23)
(0.108504 -0.000556355 3.11985e-23)
(0.108583 0.000206057 -2.77871e-23)
(0.108578 -0.000102433 -2.98624e-23)
(0.110846 3.79146e-05 4.4605e-24)
(0.110845 -6.36354e-05 3.16684e-23)
(0.108448 0.000381867 3.41649e-24)
(0.10844 -0.00026922 0)
(0.108299 0.000568604 3.87752e-22)
(0.108349 -0.000596917 4.8247e-23)
(0.108309 -0.000446026 6.43387e-23)
(0.108331 0.000794234 -6.53252e-22)
(0.108202 0.000864178 1.16415e-22)
(0.108575 4.99409e-05 0)
(0.108563 0.000697835 6.41603e-23)
(0.108438 0.000751117 3.34112e-23)
(0.108827 0.000611488 5.77839e-23)
(0.108694 0.000652124 -8.8234e-23)
(0.10907 0.000537442 -2.87299e-23)
(0.108953 0.000573603 -1.4363e-23)
(0.109285 0.000473184 1.43865e-23)
(0.109181 0.00050397 1.45879e-23)
(0.109476 0.000417566 0)
(0.109383 0.000444393 -3.63015e-26)
(0.109646 0.000369407 0)
(0.109564 0.000392679 0)
(0.109797 0.000327192 5.31992e-26)
(0.109723 0.000347622 0)
(0.109931 0.00029001 0)
(0.109866 0.000308024 0)
(0.110051 0.000257158 0)
(0.109993 0.00027308 0)
(0.110159 0.000228074 0)
(0.110106 0.000242166 0)
(0.110255 0.000202261 4.85991e-26)
(0.110208 0.000214758 0)
(0.110341 0.000179355 8.21387e-30)
(0.110299 0.000190513 0)
(0.110419 0.000159121 0)
(0.110381 0.000168906 0)
(0.110488 0.000141202 -9.04263e-26)
(0.110455 0.000149894 0)
(0.110551 0.000125375 0)
(0.110521 0.00013304 0)
(0.110607 0.00011142 0)
(0.11058 0.00011818 0)
(0.110658 9.9097e-05 0)
(0.110633 0.00010507 0)
(0.110704 8.81702e-05 0)
(0.110682 9.34747e-05 0)
(0.110745 7.83512e-05 0)
(0.110725 8.31477e-05 0)
(0.110783 6.92635e-05 -2.45493e-24)
(0.110765 7.36282e-05 0)
(0.110817 6.09331e-05 0)
(0.110801 6.50528e-05 -4.76681e-24)
(0.110849 5.26636e-05 2.05028e-27)
(0.110833 5.67113e-05 0)
(0.110859 2.15545e-05 -1.7772e-23)
(0.110863 4.92503e-05 1.0742e-24)
(0.110861 3.57266e-05 8.71258e-24)
(0.110857 -6.01389e-06 6.3935e-24)
(0.110858 7.53824e-06 -4.41314e-24)
(0.110857 -3.40185e-05 -2.22139e-24)
(0.110857 -1.97342e-05 2.21783e-24)
(0.110859 -6.15959e-05 0)
(0.110858 -4.73294e-05 -2.01571e-23)
(0.110831 -8.26536e-05 -9.05991e-24)
(0.110861 -7.61685e-05 -1.73405e-23)
(0.110847 -7.91057e-05 3.9902e-23)
(0.110798 -9.09901e-05 -4.74653e-24)
(0.110815 -8.66402e-05 0)
(0.110763 -0.000100364 0)
(0.110781 -9.56293e-05 0)
(0.110723 -0.000109833 -3.62395e-30)
(0.110743 -0.000105024 0)
(0.11068 -0.00012036 0)
(0.110702 -0.000114956 0)
(0.110632 -0.000132069 8.47317e-26)
(0.110656 -0.00012606 0)
(0.110578 -0.000145108 0)
(0.110606 -0.000138413 0)
(0.110519 -0.000159643 0)
(0.110549 -0.00015218 0)
(0.110453 -0.000175858 0)
(0.110487 -0.000167529 0)
(0.11038 -0.000194012 -8.71697e-30)
(0.110418 -0.000184676 0)
(0.110298 -0.000214347 0)
(0.11034 -0.000203885 0)
(0.110207 -0.000237244 0)
(0.110254 -0.000225467 0)
(0.110105 -0.000263061 0)
(0.110158 -0.000249736 0)
(0.109991 -0.000292235 0)
(0.11005 -0.000277199 0)
(0.109864 -0.000325305 1.05219e-25)
(0.109929 -0.000308253 0)
(0.109721 -0.000362856 0)
(0.109794 -0.000343483 0)
(0.10956 -0.000405572 0)
(0.109643 -0.000383528 0)
(0.10938 -0.000454235 -1.1229e-25)
(0.109473 -0.000429109 0)
(0.109177 -0.000509778 1.14683e-25)
(0.109281 -0.000481089 0)
(0.108948 -0.00057362 -1.171e-25)
(0.109066 -0.000540534 0)
(0.108689 -0.0006497 1.54414e-23)
(0.108823 -0.000609378 -3.04362e-23)
(0.108396 -0.000743255 -1.56119e-23)
(0.108547 -0.000694119 3.16986e-23)
(0.108183 -0.000640363 6.56122e-25)
(0.108235 -0.000795931 3.21883e-23)
(0.108428 0.000215318 -2.86341e-23)
(0.108424 -0.000112415 0)
(0.108284 0.000399776 -2.77912e-22)
(0.108278 -0.000288058 0)
(0.110852 6.86848e-05 -4.46739e-24)
(0.110867 6.46308e-05 3.2727e-24)
(0.110874 -5.94453e-05 -1.70753e-23)
(0.110876 -7.32048e-05 -1.93536e-23)
(0.10812 0.000573862 -2.72957e-22)
(0.108139 -0.000480015 -6.49682e-23)
(0.108062 0.000875576 0)
(0.108382 0.000948267 -7.56313e-23)
(0.108006 -0.000687401 -3.18957e-23)
(0.108064 -0.00085273 4.89672e-23)
(0.10823 0.000998069 1.51632e-22)
(0.108421 4.99991e-05 0)
(0.108631 0.000837604 0)
(0.108507 0.000893853 -6.71845e-23)
(0.10888 0.000737906 0)
(0.108756 0.00078637 0)
(0.109113 0.000648982 0)
(0.109 0.000691851 1.48802e-23)
(0.10932 0.000572575 0)
(0.10922 0.000609399 0)
(0.109506 0.000506187 0)
(0.109416 0.000538207 0)
(0.109671 0.0004483 0)
(0.109591 0.000476292 0)
(0.109819 0.000397524 -5.31992e-26)
(0.109747 0.000422094 0)
(0.10995 0.00035282 0)
(0.109886 0.000374475 0)
(0.110068 0.000313328 0)
(0.110011 0.000332471 0)
(0.110174 0.000278355 0)
(0.110122 0.000295314 0)
(0.110268 0.000247345 -1.0172e-29)
(0.110222 0.000262384 0)
(0.110353 0.00021984 9.31798e-30)
(0.110312 0.000233191 0)
(0.110429 0.000195466 0)
(0.110392 0.00020728 0)
(0.110498 0.00017387 8.01782e-30)
(0.110464 0.000184344 0)
(0.110559 0.000154764 0)
(0.110529 0.000164023 0)
(0.110615 0.000137882 0)
(0.110588 0.000146064 0)
(0.110665 0.000122952 0)
(0.110641 0.000130191 0)
(0.11071 0.000109714 0)
(0.110688 0.000116139 0)
(0.110751 9.79142e-05 0)
(0.110731 0.00010365 0)
(0.110788 8.73904e-05 0)
(0.11077 9.25262e-05 0)
(0.110821 7.72706e-05 4.7346e-24)
(0.110805 8.21281e-05 4.8392e-24)
(0.110837 7.27328e-05 -9.09318e-24)
(0.110873 1.99788e-05 -8.72791e-24)
(0.110878 4.66652e-05 0)
(0.110875 3.36178e-05 -8.81425e-24)
(0.110871 -6.23495e-06 0)
(0.110872 6.98659e-06 8.90739e-24)
(0.110871 -3.33975e-05 1.32946e-23)
(0.110871 -1.98621e-05 -4.49297e-24)
(0.110872 -4.61172e-05 -2.61257e-23)
(0.110835 -9.88215e-05 4.56993e-24)
(0.110864 -8.98117e-05 1.70382e-23)
(0.11085 -9.47813e-05 0)
(0.110803 -0.000108487 -9.45705e-24)
(0.110819 -0.000103465 9.48827e-24)
(0.110767 -0.000118961 0)
(0.110785 -0.00011375 0)
(0.110728 -0.000130298 -4.97759e-30)
(0.110748 -0.00012449 0)
(0.110686 -0.00014296 0)
(0.110708 -0.000136456 0)
(0.110638 -0.000157092 0)
(0.110663 -0.000149834 0)
(0.110586 -0.000172867 0)
(0.110613 -0.000164764 0)
(0.110528 -0.000190482 0)
(0.110557 -0.000181433 0)
(0.110463 -0.000210173 9.14473e-26)
(0.110496 -0.000200053 0)
(0.110391 -0.000232241 -9.37192e-26)
(0.110428 -0.000220893 0)
(0.11031 -0.000257005 0)
(0.110352 -0.000244264 0)
(0.110221 -0.000284872 0)
(0.110267 -0.000270528 0)
(0.110121 -0.000316311 0)
(0.110172 -0.000300112 0)
(0.110009 -0.000351841 0)
(0.110066 -0.000333531 0)
(0.109883 -0.00039208 0)
(0.109948 -0.000371335 0)
(0.109743 -0.000437737 0)
(0.109815 -0.000414187 0)
(0.109586 -0.000489635 -1.09871e-25)
(0.109667 -0.000462855 0)
(0.109409 -0.00054874 1.1224e-25)
(0.1095 -0.000518223 0)
(0.10921 -0.000616222 -1.14627e-25)
(0.109313 -0.000581359 0)
(0.108987 -0.000693528 0)
(0.109102 -0.000653544 0)
(0.108735 -0.000782538 0)
(0.108864 -0.000736406 0)
(0.108451 -0.000887154 1.23435e-25)
(0.108598 -0.0008322 1.56074e-23)
(0.108129 -0.00101366 -8.20129e-23)
(0.108295 -0.000947478 0)
(0.10788 -0.000916503 -4.85246e-23)
(0.107952 -0.00108634 -6.64715e-25)
(0.108266 0.000224538 8.96328e-23)
(0.108261 -0.000121714 0)
(0.110881 6.04236e-05 -1.70117e-23)
(0.110878 -8.61129e-05 -3.28083e-23)
(0.108101 0.00040755 -4.77945e-23)
(0.107976 0.00076517 6.64497e-25)
(0.107933 0.000586438 1.39197e-22)
(0.108108 -0.000307289 0)
(0.107959 -0.000512523 1.63684e-23)
(0.108048 0.00104523 -1.3908e-22)
(0.107877 0.00106711 1.20693e-22)
(0.107822 0.000846371 -1.19417e-22)
(0.107818 -0.000736251 -4.92172e-23)
(0.107685 -0.000982915 3.30064e-23)
(0.107762 -0.0011679 3.22881e-23)
(0.108257 4.97182e-05 0)
(0.108433 0.00109567 4.21923e-24)
(0.108099 0.0012358 -7.1901e-25)
(0.108272 0.00116252 3.27223e-23)
(0.108696 0.000970612 3.22871e-23)
(0.10857 0.00103154 -3.24549e-23)
(0.108938 0.000856934 5.90845e-26)
(0.108818 0.000912498 0)
(0.109161 0.000756472 0)
(0.109052 0.000804954 0)
(0.109361 0.000668871 0)
(0.109264 0.000711202 0)
(0.10954 0.000592276 0)
(0.109453 0.000629288 0)
(0.109701 0.000525179 5.43333e-26)
(0.109623 0.000557637 0)
(0.109845 0.000466226 0)
(0.109775 0.000494764 0)
(0.109973 0.00041427 0)
(0.109911 0.000439442 0)
(0.110088 0.000368347 0)
(0.110032 0.000390611 0)
(0.110191 0.000327663 0)
(0.110141 0.000347395 0)
(0.110284 0.000291578 -4.85889e-26)
(0.110239 0.000309083 0)
(0.110367 0.000259558 1.07032e-29)
(0.110327 0.000275095 0)
(0.110442 0.000231155 0)
(0.110405 0.00024493 0)
(0.110509 0.000205969 9.03943e-26)
(0.110476 0.000218186 0)
(0.110569 0.000183655 0)
(0.11054 0.000194474 0)
(0.110624 0.000163904 0)
(0.110597 0.00017348 0)
(0.110673 0.000146414 0)
(0.110649 0.000154896 0)
(0.110717 0.000130902 0)
(0.110696 0.00013843 0)
(0.110757 0.000117103 0)
(0.110738 0.000123804 0)
(0.110794 0.000104824 7.70629e-26)
(0.110776 0.000110794 0)
(0.110826 9.35608e-05 -4.75529e-24)
(0.11081 9.9175e-05 0)
(0.110856 8.27661e-05 4.52769e-24)
(0.110842 8.80519e-05 0)
(0.110884 7.3278e-05 4.33019e-24)
(0.110871 7.79205e-05 -4.42275e-24)
(0.110891 4.41367e-05 8.55791e-24)
(0.110897 6.86793e-05 0)
(0.110894 5.71252e-05 1.27376e-23)
(0.110887 1.89676e-05 0)
(0.110889 3.13971e-05 0)
(0.110885 -6.64861e-06 0)
(0.110886 6.38556e-06 0)
(0.110885 -3.29137e-05 0)
(0.110885 -1.98065e-05 0)
(0.110887 -5.77693e-05 1.74025e-23)
(0.110886 -4.52254e-05 4.32674e-24)
(0.110891 -8.29052e-05 4.28339e-24)
(0.110889 -7.03945e-05 3.41251e-23)
(0.110868 -0.000104015 2.22133e-23)
(0.110894 -9.56813e-05 4.2672e-24)
(0.110881 -9.95646e-05 -8.66033e-24)
(0.110839 -0.000114241 4.56492e-24)
(0.110854 -0.000108919 -2.73632e-23)
(0.110808 -0.000125488 -4.7995e-31)
(0.110824 -0.000119753 0)
(0.110773 -0.00013721 0)
(0.110791 -0.000131182 0)
(0.110735 -0.000150398 -6.33746e-30)
(0.110754 -0.000143621 0)
(0.110693 -0.000165163 0)
(0.110714 -0.000157575 0)
(0.110646 -0.000181673 0)
(0.11067 -0.00017319 0)
(0.110595 -0.000200129 0)
(0.110621 -0.000190646 0)
(0.110538 -0.000220768 0)
(0.110567 -0.000210162 0)
(0.110474 -0.000243868 -1.82882e-25)
(0.110507 -0.000231993 0)
(0.110404 -0.000269773 0)
(0.11044 -0.000256449 0)
(0.110325 -0.00029887 0)
(0.110365 -0.000283898 0)
(0.110237 -0.000331618 0)
(0.110282 -0.00031476 0)
(0.110139 -0.000368553 0)
(0.11019 -0.000349529 0)
(0.11003 -0.000410282 -1.0284e-25)
(0.110086 -0.000388782 0)
(0.109907 -0.000457509 0)
(0.10997 -0.000433164 0)
(0.10977 -0.000511052 0)
(0.10984 -0.00048344 0)
(0.109616 -0.000571864 1.09871e-25)
(0.109695 -0.000540489 0)
(0.109444 -0.000641072 -3.33489e-29)
(0.109532 -0.000605345 0)
(0.10925 -0.000720037 2.29216e-25)
(0.10935 -0.000679246 0)
(0.109033 -0.000810404 0)
(0.109145 -0.000763688 0)
(0.108788 -0.000914095 0)
(0.108914 -0.000860443 0)
(0.108513 -0.00103337 -6.03797e-29)
(0.108655 -0.000971629 0)
(0.108203 -0.0011718 0)
(0.108362 -0.00109992 0)
(0.107851 -0.00134115 -4.9114e-23)
(0.108033 -0.00125191 0)
(0.107561 -0.00125399 -6.64411e-25)
(0.107657 -0.00144047 8.37682e-23)
(0.108087 0.0002312 0)
(0.107929 0.00129046 1.89797e-22)
(0.107911 0.000416402 3.27501e-23)
(0.110888 8.60048e-05 -4.32204e-24)
(0.110901 8.13752e-05 0)
(0.110904 -8.01689e-05 4.17734e-24)
(0.110907 -9.19709e-05 -8.27961e-24)
(0.108089 -0.000130498 0)
(0.107926 -0.000327738 0)
(0.107755 0.00063575 0)
(0.107769 -0.000546683 -1.61215e-23)
(0.107617 -0.000789702 -3.26618e-23)
(0.107476 -0.00105695 0)
(0.107346 -0.00134719 8.4615e-23)
(0.10745 -0.00154581 -6.75651e-23)
(0.108082 4.98732e-05 0)
(0.108172 0.00140784 -1.57506e-26)
(0.107738 0.00135031 6.02791e-23)
(0.10782 0.0015706 -2.15651e-22)
(0.108002 0.00148863 6.25427e-23)
(0.108494 0.00124024 -2.0365e-23)
(0.108336 0.00132016 -3.24438e-23)
(0.108761 0.00109833 0)
(0.108633 0.00116693 0)
(0.108998 0.00097179 -5.90791e-26)
(0.108882 0.00103335 0)
(0.109213 0.000860028 0)
(0.109108 0.000914104 0)
(0.109406 0.000761823 0)
(0.109312 0.000809337 0)
(0.109579 0.000675591 0)
(0.109495 0.000717311 0)
(0.109735 0.000599801 -5.43333e-26)
(0.109659 0.000636489 0)
(0.109874 0.000533055 0)
(0.109806 0.000565382 0)
(0.109999 0.000474141 0)
(0.109938 0.000502692 0)
(0.110111 0.000422022 0)
(0.110057 0.000447294 0)
(0.110212 0.000375821 0)