/*--------------------------------*- C++ -*----------------------------------*\
  =========                 |
  \\      /  F ield         | OpenFOAM: The Open Source CFD Toolbox
   \\    /   O peration     | Website:  https://openfoam.org
    \\  /    A nd           | Version:  10
     \\/     M anipulation  |
\*---------------------------------------------------------------------------*/
FoamFile
{
    format      ascii;
    class       volVectorField;
    location    "34";
    object      U;
}
// * * * * * * * * * * * * * * * * * * * * * * * * * * * * * * * * * * * * * //

dimensions      [0 1 -1 0 0 0 0];

internalField   nonuniform List<vector> 
8711
(
(1.11831 0.00837994 0)
(1.12164 0.0069515 4.86157e-22)
(1.14309 0.0105072 4.95441e-21)
(1.17011 0.00159391 -4.48903e-21)
(1.17382 -0.00872371 -5.10054e-22)
(1.18858 -0.00459712 -5.28691e-21)
(1.0714 0.0143748 1.73173e-22)
(1.07393 0.0109743 2.9395e-21)
(0.620437 -0.10501 -1.16752e-21)
(0.609886 -0.0101912 9.40524e-21)
(0.844058 -0.554414 0)
(0.4744 -0.796628 -1.34816e-20)
(1.04692 0.561427 1.66524e-21)
(1.03376 0.563473 2.49189e-23)
(0.712483 -0.27809 -2.07065e-21)
(0.688038 -0.258752 0)
(1.11513 0.0596687 -3.14261e-22)
(1.11806 0.0683969 5.40871e-22)
(1.12041 0.0720482 2.84457e-22)
(1.13115 0.0688471 2.1957e-21)
(1.12667 0.0596809 -3.20728e-21)
(1.15563 0.0369309 -1.9216e-21)
(1.15942 0.0433956 0)
(1.15433 0.0115527 -2.05542e-21)
(1.54095 -0.210848 1.08674e-19)
(1.51749 -0.241466 -2.68642e-20)
(1.63393 -0.340685 4.90007e-20)
(1.43405 -0.206066 -8.85607e-20)
(0.824581 -0.0220989 -3.10816e-22)
(0.903055 -0.0217925 4.15561e-22)
(0.983195 -0.0239961 -1.66147e-23)
(1.04592 0.171144 9.69687e-20)
(0.948451 0.204028 2.4293e-20)
(1.35362 0.256908 2.54512e-21)
(1.35502 0.202647 -2.77179e-20)
(1.03849 0.0589966 -3.98517e-20)
(1.04667 0.0711879 1.14922e-20)
(1.03899 -0.0768656 0)
(1.02325 -0.04554 -7.17866e-20)
(1.02826 -0.048616 1.00905e-19)
(1.01551 -0.0337203 0)
(1.00837 -0.0182721 0)
(-0.117878 -0.336461 1.18985e-20)
(-0.12593 -0.300228 1.59228e-19)
(0.481396 0.624943 4.95536e-20)
(0.773454 0.6433 3.46569e-20)
(0.0155012 -0.0312835 -9.8957e-20)
(0.105992 -0.0609452 3.5449e-20)
(-0.034089 -0.126222 -5.03929e-20)
(1.03819 0.0633963 4.82454e-21)
(1.05428 0.0636029 1.05311e-20)
(1.05157 0.0756085 3.47058e-21)
(1.04064 0.0797977 0)
(1.11099 0.0177508 0)
(1.10605 0.0216608 3.09014e-21)
(1.09943 0.0241059 -3.59771e-21)
(0.984575 0.561052 -2.63519e-21)
(0.961282 0.545514 5.7562e-21)
(1.01643 0.573358 0)
(1.0082 0.579445 -6.50235e-21)
(0.972919 -0.409738 2.75157e-21)
(0.996817 -0.411218 1.78965e-21)
(1.01295 -0.448395 -4.4502e-21)
(0.99409 -0.445019 -1.81773e-21)
(1.05877 0.0173544 -5.73625e-21)
(1.06194 0.0158917 0)
(1.0692 0.01857 2.92665e-21)
(1.1649 0.0249788 0)
(1.16448 0.0299112 4.69062e-21)
(1.16658 0.0392336 -2.44794e-22)
(1.03312 -0.511772 -1.05595e-20)
(1.04302 -0.501779 5.16921e-21)
(1.03202 -0.520314 -1.98421e-21)
(1.02219 -0.520252 0)
(1.06 -0.00382701 -9.45128e-21)
(1.06095 -0.0094078 0)
(1.06695 -0.00312997 8.68131e-21)
(1.06687 0.00289126 -6.69639e-21)
(1.15525 0.0291182 -4.42105e-21)
(0.912024 -0.0100346 -6.9801e-23)
(0.910393 -0.0632226 9.12664e-22)
(0.911765 -0.27091 -2.08518e-22)
(0.9227 -0.248748 0)
(1.14785 0.0196275 -1.27087e-21)
(1.15429 0.0190747 -4.79356e-21)
(1.15751 0.01666 6.58775e-21)
(1.09677 0.584251 -5.2279e-21)
(1.06898 0.591432 1.76289e-20)
(1.22023 0.309151 -3.82154e-21)
(1.13171 0.291885 -3.40395e-23)
(1.09244 0.0169168 -4.45902e-21)
(1.09669 0.0149254 2.6814e-21)
(1.09308 0.0278712 1.93798e-21)
(1.20859 -0.0476641 4.26325e-21)
(1.18365 -0.0357932 -4.20064e-21)
(1.0946 0.088473 2.04649e-20)
(1.08077 0.087535 -4.00338e-22)
(1.07306 0.0770783 -8.02034e-21)
(1.0851 0.080116 -3.13566e-21)
(1.11581 0.100314 3.95889e-23)
(1.10562 0.0792272 0)
(1.00007 -0.186631 -5.6289e-21)
(1.00825 -0.25712 1.34719e-20)
(1.02864 0.545954 -1.54625e-21)
(1.01799 0.540883 -7.60689e-22)
(1.00132 0.548465 -8.41858e-23)
(0.979078 0.56088 0)
(0.956287 0.554328 -1.87508e-21)
(0.933512 0.510868 1.96315e-21)
(0.916489 0.41978 1.47651e-22)
(0.906214 0.285707 1.84791e-22)
(0.904921 0.119191 -1.3872e-21)
(0.912074 -0.0537318 1.90204e-21)
(0.929119 -0.21413 6.73785e-22)
(0.949416 -0.346613 1.18626e-21)
(0.971913 -0.438257 -1.50223e-21)
(0.991435 -0.497419 -5.0375e-22)
(1.00583 -0.521337 -8.37801e-22)
(1.0292 -0.530177 1.7866e-21)
(1.01825 -0.530671 -1.46692e-21)
(1.03502 -0.53402 2.66257e-21)
(1.0085 -0.456514 -3.23076e-22)
(1.02114 -0.50987 -9.86651e-22)
(0.97413 -0.234901 9.8558e-23)
(0.990889 -0.367504 -6.56751e-22)
(0.950862 0.112724 -8.44041e-22)
(0.958306 -0.0689697 -3.88007e-22)
(0.955915 0.426156 0)
(0.949097 0.285781 -1.83481e-22)
(0.982999 0.570382 -2.42305e-22)
(0.967131 0.523078 0)
(1.01244 0.562873 4.15515e-23)
(0.997731 0.576842 0)
(1.02533 0.548419 5.83868e-22)
(1.02166 0.548951 7.55167e-23)
(1.02281 0.560437 2.66068e-21)
(1.01928 0.527757 -1.16147e-21)
(1.03568 0.539181 -3.12207e-22)
(0.967191 0.53853 -1.39997e-21)
(0.996141 0.529881 5.73257e-22)
(0.90863 0.492063 2.0733e-21)
(0.936403 0.532295 1.37549e-21)
(0.871516 0.280856 2.31112e-21)
(0.885521 0.40701 -3.40043e-21)
(0.874878 -0.0432895 -3.12533e-21)
(0.868489 0.124996 2.16912e-22)
(0.916683 -0.323663 7.5984e-23)
(0.894257 -0.198812 2.48045e-21)
(0.965577 -0.477898 -8.23807e-22)
(0.941514 -0.414553 1.48419e-21)
(1.00427 -0.520611 0)
(0.985739 -0.506558 0)
(1.01497 -0.518201 6.06661e-22)
(1.03555 0.582414 -5.7832e-21)
(1.02557 -0.5161 -2.47686e-21)
(1.04611 -0.516501 2.58801e-21)
(1.02227 -0.517362 1.84842e-21)
(1.00096 0.574902 3.01403e-21)
(1.05619 0.581079 4.90424e-21)
(1.05655 -0.53287 -1.7844e-21)
(1.05391 -0.531246 -1.3391e-21)
(1.0499 -0.469245 1.15654e-21)
(1.05515 -0.516055 5.34365e-22)
(1.02658 -0.250287 -1.58986e-21)
(1.03773 -0.381698 1.34959e-21)
(1.00499 0.108177 8.35772e-22)
(1.01191 -0.0787307 0)
(1.00282 0.432984 4.34582e-21)
(1.00011 0.285221 -3.06497e-21)
(1.01507 0.582462 -1.49478e-21)
(1.00639 0.531766 -1.31856e-21)
(1.02701 0.570427 -2.00161e-22)
(1.02082 0.588271 1.81668e-21)
(1.02546 0.545666 -1.12924e-21)
(1.02784 0.552716 2.29961e-22)
(1.0014 0.560947 0)
(1.01544 0.553184 1.06819e-21)
(1.01916 -0.511858 7.28494e-21)
(1.02131 -0.519971 -2.36935e-21)
(1.05872 0.548061 -5.88528e-22)
(1.07755 0.569557 4.02538e-21)
(1.01876 0.508172 -5.24897e-22)
(1.04036 0.524127 -2.48877e-22)
(0.95742 0.509431 -1.4505e-22)
(0.991189 0.504291 -7.34036e-23)
(0.889041 0.468871 7.60701e-22)
(0.922243 0.503946 -7.44066e-22)
(0.845503 0.270037 -3.14736e-21)
(0.86233 0.39162 0)
(0.847836 -0.0320898 5.52303e-22)
(0.841802 0.126795 1.91013e-21)
(0.890543 -0.303212 1.02744e-21)
(0.865895 -0.181036 -1.01871e-21)
(0.946379 -0.455796 1.69443e-21)
(0.919435 -0.39344 -1.72159e-21)
(0.994072 -0.505229 7.06966e-23)
(0.971357 -0.488896 4.01007e-23)
(1.0224 -0.513867 2.29236e-21)
(1.01088 -0.509561 1.03315e-21)
(1.0179 -0.487963 1.06603e-20)
(1.01783 -0.497749 -1.17014e-21)
(1.03699 0.590564 0)
(1.02618 -0.521598 0)
(0.934435 0.510534 -6.28716e-21)
(0.982696 0.551487 2.03094e-21)
(0.919045 0.497752 4.67767e-21)
(0.880223 0.440384 -4.35349e-21)
(1.01384 -0.473122 -3.6685e-20)
(1.00032 -0.472915 1.57203e-20)
(1.03512 -0.469152 -5.25094e-21)
(1.07191 0.587252 4.85501e-21)
(1.11192 0.588245 4.82657e-21)
(1.06419 -0.506593 3.54076e-22)
(1.0472 -0.49048 -2.29231e-21)
(1.08674 -0.527831 0)
(1.07429 -0.522496 -3.35498e-22)
(1.09425 -0.471577 -2.08512e-21)
(1.09229 -0.514145 2.49467e-21)
(1.08296 -0.258911 -2.8391e-21)
(1.08946 -0.387765 3.41254e-21)
(1.06547 0.101421 -9.96854e-21)
(1.0724 -0.087585 7.28638e-21)
(1.05415 0.431922 1.32182e-21)
(1.05625 0.282581 1.9134e-21)
(1.04865 0.585357 0)
(1.05 0.534164 1.70774e-22)
(1.0424 0.57081 2.60171e-21)
(1.04609 0.588907 -1.53268e-21)
(1.02745 0.537779 -7.84826e-24)
(1.03607 0.549184 -1.23938e-21)
(0.985208 0.539746 -9.93412e-22)
(1.00895 0.540125 -4.45248e-22)
(0.953678 0.529369 9.09423e-22)
(1.02541 -0.503255 1.06469e-21)
(1.03462 -0.517365 0)
(1.12297 0.567891 -3.33621e-21)
(1.11766 0.571264 3.85119e-22)
(1.16579 0.570788 -7.59706e-21)
(1.14595 0.578937 2.30003e-21)
(1.07074 0.527636 1.08268e-21)
(1.09618 0.551391 -3.874e-21)
(1.02207 0.48494 -8.80505e-22)
(1.04759 0.504455 1.19202e-21)
(0.954415 0.478564 6.32923e-23)
(0.991661 0.477287 3.09836e-23)
(0.87665 0.441822 0)
(0.914053 0.472132 0)
(0.828339 0.259996 0)
(0.847863 0.373892 0)
(0.829801 -0.0194083 0)
(0.822724 0.12722 0)
(0.87086 -0.275064 3.16693e-21)
(0.847631 -0.158846 -3.48657e-21)
(0.9316 -0.428951 1.03156e-23)
(0.899883 -0.36407 0)
(0.987257 -0.484515 -7.25462e-23)
(0.961071 -0.466164 -4.21296e-23)
(1.00917 -0.494681 -2.13957e-21)
(1.00646 -0.512464 0)
(1.00043 -0.495244 -1.20859e-21)
(1.02468 -0.531021 0)
(1.01413 -0.52457 0)
(1.02797 0.575266 -1.09295e-20)
(0.903518 0.455071 0)
(0.852518 0.381317 1.42839e-20)
(0.822266 0.30886 4.26818e-21)
(0.826851 0.307055 -1.50234e-20)
(1.03693 -0.453092 7.31637e-21)
(1.03915 -0.531538 2.35626e-21)
(1.06446 0.557683 -1.64624e-21)
(0.955703 0.501613 0)
(1.20539 0.558103 -1.3294e-21)
(1.17253 0.530328 0)
(1.22522 0.527039 1.13431e-21)
(1.11001 0.516872 9.28997e-22)
(0.86268 0.365959 -1.17564e-21)
(0.754541 0.154743 2.4668e-21)
(0.781381 0.177777 -1.2864e-21)
(0.717032 0.00564714 -7.01701e-21)
(0.706231 -0.0205626 3.9623e-21)
(0.683924 -0.154571 0)
(1.07925 -0.490791 -2.18534e-22)
(1.06029 -0.471232 7.84853e-22)
(1.11686 -0.517566 0)
(1.09802 -0.509448 -3.02711e-22)
(1.14095 -0.473089 0)
(1.13147 -0.509666 0)
(1.14234 -0.269005 -5.73521e-24)
(1.14418 -0.394817 0)
(1.1253 0.0929559 1.1805e-23)
(1.1348 -0.0989624 0)
(1.10462 0.430795 9.81589e-24)
(1.11417 0.279542 0)
(1.0843 0.579446 0)
(1.09417 0.531206 0)
(1.06012 0.562722 -5.53269e-25)
(1.07235 0.582555 0)
(1.03001 0.522547 0)
(1.04648 0.537644 0)
(0.973646 0.510606 0)
(1.00509 0.517596 0)
(0.896509 0.448476 -2.84843e-22)
(0.936409 0.491878 -1.40062e-21)
(0.799207 0.27943 1.42763e-21)
(0.850118 0.378442 1.40373e-21)
(0.73807 0.125187 -1.80471e-21)
(1.14569 0.545512 2.39742e-23)
(1.17589 0.56029 -2.44475e-23)
(1.08312 0.502229 1.7113e-24)
(1.11432 0.525457 0)
(1.02489 0.45847 0)
(1.05333 0.479363 0)
(0.953263 0.441689 0)
(0.992934 0.446663 0)
(0.871385 0.408819 0)
(0.911183 0.435528 0)
(0.81841 0.249825 -1.96761e-24)
(0.839554 0.349097 0)
(0.818119 -0.00811569 0)
(0.811811 0.126382 0)
(0.860761 -0.250089 0)
(0.835238 -0.136668 0)
(0.922894 -0.400925 0)
(0.890238 -0.336947 0)
(0.983839 -0.460631 -9.25209e-23)
(0.954795 -0.438741 0)
(1.03053 -0.488716 -1.96201e-22)
(1.00974 -0.473997 -2.28743e-22)
(1.05584 -0.525432 -2.39294e-21)
(1.04637 -0.504863 1.87121e-21)
(0.980869 -0.472076 -8.72039e-22)
(0.974914 -0.442495 5.74137e-22)
(0.989391 -0.511824 1.75899e-24)
(0.981217 -0.493427 5.39014e-22)
(1.01917 -0.536536 0)
(1.00238 -0.526763 3.39469e-22)
(1.06254 -0.537894 2.71948e-21)
(1.03965 -0.540539 -2.36965e-21)
(1.01011 0.536231 8.27504e-23)
(1.16712 0.437357 -3.81856e-21)
(1.23608 0.446524 3.98407e-21)
(1.07709 -0.508807 0)
(1.0877 -0.527969 0)
(1.04173 0.490098 1.54834e-21)
(0.915689 0.416201 2.5388e-21)
(0.695355 -0.0475711 -3.43411e-21)
(0.673749 -0.166153 6.60338e-21)
(1.09042 0.412102 -2.78794e-21)
(0.814697 0.226918 -2.66252e-21)
(0.732193 0.0205741 1.18494e-21)
(0.679211 -0.152424 3.45632e-21)
(1.04376 -0.429447 -2.30945e-24)
(1.01901 -0.420434 1.97718e-21)
(1.097 -0.468421 0)
(1.07015 -0.45075 0)
(1.14711 -0.498606 -7.46396e-23)
(1.12121 -0.488023 -1.82488e-22)
(1.1866 -0.462621 0)
(1.16859 -0.493786 0)
(1.20077 -0.270625 5.0018e-24)
(1.19719 -0.390336 0)
(1.18462 0.0836078 -2.26286e-23)
(1.19523 -0.105305 0)
(1.15366 0.419252 -9.63258e-24)
(1.16948 0.268973 0)
(1.11745 0.565871 0)
(1.13617 0.519113 0)
(1.07796 0.547048 -7.04392e-24)
(1.09771 0.567699 0)
(1.03382 0.500504 0)
(1.05726 0.519636 0)
(0.968842 0.477476 0)
(1.00384 0.489319 0)
(0.880582 0.405384 4.77021e-23)
(0.92691 0.452201 1.06728e-22)
(0.775897 0.226563 -1.09409e-21)
(0.828253 0.330197 -1.20388e-22)
(0.72858 0.0920107 1.39946e-21)
(1.28129 0.449902 -2.34628e-21)
(1.16424 0.111643 3.07228e-20)
(1.2447 0.158881 0)
(1.27839 0.331745 5.40662e-21)
(1.2381 0.537368 -8.53723e-22)
(1.26468 0.515354 -1.51619e-21)
(1.16676 0.515518 0)
(1.20333 0.533155 0)
(1.09282 0.471803 1.10399e-24)
(1.13033 0.49372 0)
(1.02785 0.429343 -8.05415e-25)
(1.05979 0.450481 0)
(0.955899 0.405668 0)
(0.994484 0.41357 0)
(0.871268 0.373382 0)
(0.913314 0.397176 0)
(0.814451 0.236655 1.96723e-24)
(0.837055 0.321617 0)
(0.81263 0.00248264 0)
(0.806679 0.125979 0)
(0.855449 -0.224412 0)
(0.829555 -0.116984 0)
(0.919254 -0.370624 0)
(0.886092 -0.308083 0)
(0.985381 -0.43372 6.16786e-23)
(0.953472 -0.410408 -1.66622e-25)
(1.03818 -0.466917 4.30013e-22)
(1.01309 -0.451819 2.0094e-23)
(1.05849 -0.491189 -1.87087e-21)
(0.949555 -0.399089 1.6689e-21)
(0.957463 -0.46102 -4.26529e-22)
(0.952059 -0.431623 -8.85231e-22)
(0.970364 -0.501176 -7.36195e-22)
(0.960334 -0.482886 1.34438e-21)
(1.01085 -0.529586 -8.42677e-22)
(0.98798 -0.517678 -4.24791e-22)
(1.06642 -0.535517 0)
(1.03724 -0.53654 1.23106e-21)
(1.09621 -0.530508 0)
(0.974503 0.455261 0)
(0.97436 -0.378324 1.77664e-21)
(0.95359 -0.361649 2.47895e-21)
(1.17036 -0.073701 0)
(0.998645 -0.370694 -3.94404e-21)
(1.0097 0.371593 3.88052e-21)
(0.869008 0.280333 0)
(1.04735 0.251839 -2.17242e-21)
(0.766789 0.0570552 1.60327e-21)
(1.13728 -0.508254 6.63609e-21)
(1.07288 0.0926677 4.83402e-21)
(0.695466 -0.153653 -1.11083e-21)
(1.12824 -0.0728908 -4.213e-20)
(0.676008 -0.29483 0)
(0.955902 -0.342982 -2.98788e-21)
(1.12797 -0.515902 2.58464e-21)
(1.05229 -0.402826 -7.31258e-22)
(1.02543 -0.393996 2.25382e-21)
(1.11138 -0.443341 2.78523e-22)
(1.08193 -0.425154 -3.39203e-22)
(1.1738 -0.474118 6.55604e-23)
(1.14234 -0.461755 9.95888e-23)
(1.22818 -0.447099 0)
(1.20268 -0.472865 0)
(1.25526 -0.270565 -5.00177e-24)
(1.24651 -0.382329 0)
(1.2395 0.0715132 2.02912e-23)
(1.25187 -0.112469 0)
(1.19766 0.402126 -7.46734e-24)
(1.21991 0.253995 0)
(1.14618 0.544296 0)
(1.1726 0.499808 0)
(1.09319 0.524676 5.48314e-24)
(1.11938 0.545751 0)
(1.03839 0.473452 0)
(1.0669 0.495965 0)
(0.965474 0.439078 0)
(1.00441 0.456655 0)
(0.868208 0.358924 -7.89828e-24)
(0.919592 0.409404 -5.51478e-25)
(0.763913 0.177672 -1.37168e-22)
(0.815125 0.281778 1.45465e-22)
(0.697428 -0.0598863 0)
(0.72172 0.0560077 9.55111e-23)
(0.734127 -0.242657 0)
(0.698588 -0.1647 0)
(1.31234 0.166051 -2.60405e-21)
(1.23377 -0.0785592 1.83939e-20)
(1.33333 0.434417 -1.09752e-21)
(1.33684 0.330611 2.5953e-21)
(1.27369 0.50221 3.88243e-21)
(1.31068 0.486836 3.76393e-22)
(1.18457 0.476529 9.88435e-22)
(1.22917 0.495618 -8.0439e-22)
(1.10199 0.437862 -1.08482e-24)
(1.14341 0.457143 -1.53243e-21)
(1.03196 0.399071 8.054e-25)
(1.06571 0.419041 0)
(0.96133 0.369013 -7.36981e-29)
(0.99868 0.381259 8.77492e-29)
(0.876698 0.33803 0)
(0.919654 0.358058 0)
(0.816203 0.222236 0)
(0.840642 0.294883 0)
(0.811914 0.0127871 0)
(0.806874 0.12462 0)
(0.854553 -0.198095 0)
(0.828511 -0.0975164 0)
(0.920282 -0.338786 0)
(0.885491 -0.278557 0)
(0.988161 -0.405255 5.81803e-23)
(0.954697 -0.380125 5.66623e-22)
(1.04538 -0.445447 0)
(1.01912 -0.424535 -5.87776e-22)
(1.09411 -0.497002 9.6108e-22)
(1.07181 -0.46462 0)
(1.11995 -0.502078 -3.32264e-21)
(0.718603 -0.328973 2.0839e-21)
(0.768779 -0.287869 1.02021e-21)
(0.924791 -0.378982 -1.77779e-21)
(0.923639 -0.325008 0)
(0.927499 -0.349932 1.19406e-21)
(0.932979 -0.434162 3.37785e-22)
(0.926224 -0.40615 5.17096e-22)
(0.951983 -0.473672 0)
(0.938866 -0.455369 -3.3567e-22)
(1.00079 -0.502618 1.84899e-21)
(0.973415 -0.490547 -9.24727e-22)
(1.06803 -0.51331 0)
(1.03281 -0.511112 -9.34732e-22)
(1.10539 -0.50862 0)
(0.935022 0.32808 0)
(0.964943 0.20673 1.07157e-21)
(0.818122 0.106634 -1.54024e-21)
(1.15055 -0.470659 -5.80759e-21)
(1.16616 -0.47439 0)
(1.18735 -0.456525 -1.70708e-20)
(0.990139 0.04479 2.18634e-21)
(0.727831 -0.124731 0)
(1.02489 -0.115053 -7.06404e-21)
(0.685138 -0.304474 1.10613e-21)
(0.999955 -0.303125 2.25109e-21)
(0.709477 -0.377194 -2.97176e-21)
(1.1211 -0.285635 -1.2654e-20)
(0.815468 -0.31902 4.28987e-22)
(0.782373 -0.378738 -4.38397e-22)
(0.942217 -0.305359 0)
(0.899516 -0.291387 8.4649e-23)
(0.976085 -0.357424 -7.58365e-23)
(1.00174 -0.345987 -9.22084e-22)
(0.977186 -0.329596 0)
(1.0621 -0.377718 -2.40367e-22)
(1.0354 -0.360135 -1.97671e-22)
(1.12518 -0.414262 1.73226e-27)
(1.09267 -0.395351 1.47902e-22)
(1.19622 -0.44305 -6.28524e-23)
(1.16014 -0.431163 5.51117e-23)
(1.26356 -0.423682 0)
(1.23096 -0.444475 0)
(1.30299 -0.266589 3.6098e-24)
(1.28887 -0.367475 0)
(1.28788 0.056029 -1.73244e-23)
(1.30197 -0.119459 0)
(1.23441 0.378114 7.46742e-24)
(1.26335 0.23317 0)
(1.16942 0.516575 3.3926e-24)
(1.20241 0.473512 0)
(1.10521 0.497658 -9.07233e-25)
(1.13656 0.518345 0)
(1.04281 0.443223 0)
(1.07473 0.468521 0)
(0.963773 0.39778 0)
(1.006 0.421205 0)
(0.862353 0.310785 0)
(0.915024 0.363328 0)
(0.762507 0.13711 -1.05562e-24)
(0.809761 0.233245 0)
(0.712928 -0.0712395 2.36066e-23)
(0.726111 0.0271318 1.16057e-23)
(0.766721 -0.205094 3.31409e-22)
(0.728107 -0.152248 -2.32674e-23)
(0.852783 -0.272628 -2.94579e-22)
(0.81173 -0.238656 0)
(0.865356 -0.341898 0)
(0.927503 -0.339743 2.90898e-21)
(0.891855 -0.30568 -8.16549e-22)
(1.4003 0.223673 1.00573e-20)
(1.23901 -0.171659 -3.68568e-21)
(1.33907 0.0399732 -1.36492e-20)
(1.38301 0.426929 9.82125e-22)
(1.40697 0.353309 -3.28419e-21)
(1.29331 0.461705 0)
(1.34276 0.457935 -9.75973e-23)
(1.19214 0.435843 8.60291e-25)
(1.24215 0.452519 0)
(1.10834 0.402595 0)
(1.14878 0.418881 0)
(1.0365 0.368404 0)
(1.07103 0.386359 0)
(0.968443 0.333817 0)
(1.00375 0.349581 0)
(0.887027 0.301812 0)
(0.929028 0.320252 0)
(0.823347 0.205597 0)
(0.849979 0.266056 0)
(0.815112 0.0223175 0)
(0.811833 0.121702 0)
(0.856649 -0.171629 -8.94654e-25)
(0.830947 -0.0782221 0)
(0.923203 -0.306368 0)
(0.887908 -0.248386 0)
(0.993467 -0.374889 0)
(0.958506 -0.348134 0)
(1.05509 -0.415924 1.31636e-24)
(1.02582 -0.397998 0)
(1.11054 -0.461518 -8.15085e-22)
(1.08655 -0.445289 0)
(1.14187 -0.49345 1.2182e-21)
(0.89985 -0.343083 -1.6226e-22)
(0.901429 -0.317287 -2.66226e-21)
(0.909242 -0.387337 3.59623e-22)
(0.902098 -0.36453 5.40703e-22)
(0.935008 -0.424039 -1.40396e-26)
(0.918483 -0.40686 -3.62277e-22)
(0.990803 -0.451575 3.61811e-27)
(0.959619 -0.439963 0)
(1.06748 -0.465636 -3.75997e-23)
(1.02782 -0.460498 -5.5023e-22)
(1.11211 -0.461641 4.43778e-21)
(0.885145 0.156135 0)
(0.952116 -0.280358 0)
(1.19229 -0.464867 -7.26277e-22)
(1.21957 -0.438791 4.79453e-21)
(0.908865 -0.00151106 1.42135e-22)
(0.774295 -0.0894692 0)
(0.935497 -0.173541 -2.26222e-21)
(0.705219 -0.297985 -1.0935e-21)
(0.953521 -0.329289 0)
(0.701033 -0.419106 3.32007e-21)
(1.03368 -0.38856 -4.35942e-21)
(1.12487 -0.345448 6.84001e-22)
(1.01232 -0.469853 -3.0919e-21)
(0.750322 -0.431633 -1.67878e-21)
(0.834579 -0.388796 0)
(0.900649 -0.376955 5.66311e-22)
(0.94635 -0.389222 2.89032e-23)
(0.950304 -0.303288 0)
(0.991799 -0.321035 -4.5968e-23)
(1.00945 -0.381941 5.37646e-22)
(1.01138 -0.316785 2.50537e-22)
(0.981697 -0.298146 0)
(1.07111 -0.348578 -6.03667e-23)
(1.04074 -0.330897 0)
(1.13696 -0.382208 -2.80197e-27)
(1.10166 -0.36537 6.15069e-23)
(1.21291 -0.408664 0)
(1.17372 -0.397347 1.18847e-28)
(1.29062 -0.394919 0)
(1.25259 -0.411037 0)
(1.34148 -0.259393 -3.61013e-24)
(1.32212 -0.347555 4.22869e-28)
(1.32806 0.0374383 1.72592e-24)
(1.34331 -0.126246 0)
(1.26322 0.347893 4.44073e-24)
(1.29868 0.207037 4.1688e-28)
(1.18703 0.483556 -3.39262e-24)
(1.22513 0.441137 0)
(1.1142 0.46699 -1.41417e-24)
(1.14958 0.48635 -1.00322e-28)
(1.0457 0.410552 6.56381e-25)
(1.08031 0.438174 -2.00695e-30)
(0.962511 0.354662 0)
(1.00683 0.383715 0)
(0.859352 0.260942 0)
(0.912201 0.315388 0)
(0.767585 0.101601 -8.77655e-25)
(0.808939 0.187075 0)
(0.74163 -0.0658568 -4.48718e-22)
(0.74213 0.0114559 4.7766e-22)
(0.807749 -0.163944 -4.87787e-22)
(0.767203 -0.1247 1.14449e-22)
(0.881973 -0.234906 1.01158e-21)
(0.847289 -0.197281 5.32418e-23)
(0.912511 -0.272634 -7.24203e-22)
(1.35317 -0.0693128 -7.15011e-22)
(1.01096 -0.462365 3.09325e-21)
(1.12921 -0.34877 -1.09433e-21)
(1.24576 -0.23282 2.3994e-21)
(1.4573 0.237858 -2.15471e-21)
(1.43029 0.100019 0)
(1.39759 0.382831 6.1595e-23)
(1.4396 0.331532 6.08078e-22)
(1.29513 0.40912 -5.92425e-22)
(1.34885 0.405088 1.51123e-22)
(1.1962 0.393805 -8.47846e-25)
(1.24461 0.404507 6.64729e-22)
(1.11367 0.367146 0)
(1.15341 0.380633 0)
(1.04153 0.337751 0)
(1.07642 0.353438 0)
(0.976332 0.301195 0)
(1.00926 0.31936 0)
(0.900947 0.266153 0)
(0.940364 0.284566 0)
(0.83557 0.186997 2.10932e-26)
(0.864131 0.236293 0)
(0.82208 0.0304104 0)
(0.821439 0.116678 0)
(0.860897 -0.145445 1.01477e-24)
(0.836421 -0.0596885 0)
(0.927359 -0.273734 0)
(0.892326 -0.21783 0)
(0.998714 -0.343036 0)
(0.963712 -0.315785 0)
(1.06314 -0.386646 -1.2978e-24)
(1.03382 -0.369598 0)
(1.12599 -0.434281 -1.05865e-22)
(1.09897 -0.418038 4.63928e-22)
(1.16417 -0.460472 1.20859e-22)
(0.882822 -0.243114 -6.00709e-22)
(0.902894 -0.211193 -3.21339e-22)
(0.892892 -0.227149 4.3898e-22)
(0.880306 -0.284667 8.87473e-22)
(0.882201 -0.264625 1.20416e-21)
(0.889537 -0.319799 0)
(0.8822 -0.301977 0)
(0.920099 -0.350479 1.40391e-26)
(0.901139 -0.33564 0)
(0.980968 -0.374868 3.35085e-27)
(0.946894 -0.364228 0)
(1.06674 -0.389556 -3.61254e-22)
(1.02182 -0.383564 0)
(1.16336 -0.398471 4.38806e-21)
(1.11707 -0.388652 -2.65647e-21)
(1.24002 -0.383846 -6.68204e-21)
(1.20351 -0.393742 1.08467e-20)
(0.835471 -0.0484107 9.66942e-28)
(0.860618 -0.216639 -3.24595e-21)
(0.741272 -0.281578 0)
(0.882647 -0.380517 2.24851e-21)
(0.706561 -0.43709 9.66811e-22)
(1.25514 -0.295718 3.55098e-21)
(1.26884 -0.372044 -9.24511e-22)
(1.28759 -0.292026 -1.68309e-21)
(0.905582 -0.503473 6.31858e-21)
(0.894849 -0.569476 0)
(0.92576 -0.558879 3.16302e-21)
(1.01326 -0.418288 0)
(0.908417 -0.520756 0)
(0.733153 -0.482622 -7.2218e-22)
(0.808253 -0.447329 1.10704e-22)
(0.880372 -0.420797 -1.12528e-21)
(0.929381 -0.419941 -1.64458e-22)
(0.996047 -0.41433 -1.18425e-22)
(0.916026 -0.197341 4.18103e-23)
(1.0248 -0.347941 3.33458e-22)
(1.0527 -0.405506 -5.39573e-22)
(1.06585 -0.366451 0)
(0.887808 -0.159932 -3.37022e-22)
(0.897598 -0.149399 -4.29124e-23)
(0.961927 -0.255562 1.16377e-22)
(0.935599 -0.227077 -1.27262e-22)
(1.01966 -0.288483 -4.05358e-23)
(0.990719 -0.271151 -1.45615e-23)
(1.07847 -0.319654 2.75596e-23)
(1.04846 -0.302621 -2.76209e-23)
(1.1458 -0.348881 1.45939e-27)
(1.1103 -0.334764 0)
(1.22409 -0.371311 3.11417e-28)
(1.18359 -0.361445 0)
(1.30837 -0.360995 0)
(1.2665 -0.37359 0)
(1.36925 -0.248356 0)
(1.34479 -0.322506 0)
(1.35924 0.0162143 6.13021e-24)
(1.37474 -0.132227 0)
(1.28318 0.31198 -4.44113e-24)
(1.3253 0.175645 0)
(1.19672 0.446632 1.28997e-28)
(1.23901 0.40405 -1.51241e-28)
(1.11732 0.432957 0)
(1.15598 0.450732 0)
(1.04194 0.375229 7.37735e-25)
(1.07983 0.404747 0)
(0.955004 0.310399 0)
(1.00066 0.344225 0)
(0.855334 0.213827 2.50029e-24)
(0.905126 0.267712 0)
(0.781143 0.0759449 1.95199e-24)
(0.811628 0.147153 0)
(0.782841 -0.0490408 -6.37366e-25)
(0.770725 0.00747965 0)
(0.84599 -0.128147 1.4813e-22)
(0.812679 -0.0936805 0)
(0.903302 -0.205324 1.53706e-23)
(0.876276 -0.166038 -1.49633e-22)
(0.962614 -0.27224 -4.75255e-22)
(0.93061 -0.242346 4.34068e-22)
(1.03286 -0.31676 0)
(0.998548 -0.29409 -1.41822e-22)
(1.26516 -0.239433 2.81231e-23)
(0.911186 -0.438011 -4.56218e-22)
(1.05333 -0.349115 -1.16263e-21)
(1.15464 -0.314705 2.29586e-22)
(1.44224 0.00595622 8.21309e-22)
(1.36267 -0.130579 0)
(1.48043 0.238694 -1.10946e-22)
(1.48353 0.136909 -9.02487e-22)
(1.39695 0.341138 -5.77926e-23)
(1.44705 0.305045 3.3586e-22)
(1.29046 0.362861 1.00712e-24)
(1.34421 0.358273 1.25408e-28)
(1.19405 0.353583 0)
(1.24024 0.36065 0)
(1.11462 0.33242 1.77009e-25)
(1.15269 0.343547 2.99005e-30)
(1.04503 0.30729 0)
(1.07894 0.32071 0)
(0.983517 0.271362 0)
(1.01381 0.290423 0)
(0.916696 0.232493 0)
(0.951845 0.252124 0)
(0.852494 0.166497 3.20633e-25)
(0.881919 0.206376 0)
(0.832879 0.0361858 0)
(0.835655 0.109011 0)
(0.867068 -0.120212 -1.20114e-25)
(0.844816 -0.0427328 0)
(0.931926 -0.241162 0)
(0.898075 -0.187399 0)
(1.00344 -0.310997 0)
(0.969318 -0.282682 0)
(1.07179 -0.357181 7.46122e-23)
(1.04095 -0.338969 -8.15795e-23)
(1.13859 -0.406896 -1.05971e-22)
(1.1081 -0.386165 -2.31769e-24)
(1.21172 -0.436653 5.4826e-22)
(1.17741 -0.426847 1.003e-22)
(1.24278 -0.417647 0)
(0.870761 -0.182118 0)
(0.879421 -0.171583 3.27735e-22)
(0.865884 -0.208523 0)
(0.868252 -0.195792 0)
(0.875052 -0.232931 0)
(0.867506 -0.220685 0)
(0.908059 -0.255236 0)
(0.887966 -0.244264 0)
(0.972413 -0.27436 -3.74319e-26)
(0.936221 -0.265615 0)
(1.0642 -0.287983 3.33915e-22)
(1.01625 -0.281947 -8.81855e-23)
(1.16802 -0.296194 -3.26305e-21)
(1.11608 -0.288567 0)
(1.21416 -0.297144 -3.72774e-21)
(0.794319 -0.254015 0)
(1.0687 -0.337432 -6.24471e-23)
(1.10177 -0.381765 -4.70219e-22)
(1.10754 -0.353213 -1.69264e-21)
(0.81884 -0.413631 -1.92224e-21)
(0.728077 -0.443909 -6.00864e-28)
(1.26574 -0.179608 -3.76465e-21)
(1.30028 -0.182737 2.95116e-21)
(0.84242 -0.539635 1.8229e-21)
(0.857065 -0.615916 0)
(0.880813 -0.631209 1.30794e-21)
(0.847865 -0.602357 3.8164e-22)
(0.825359 -0.525801 5.39916e-22)
(0.973576 -0.345221 4.41972e-23)
(0.827889 -0.41971 -8.78069e-22)
(0.7862 -0.505208 1.61988e-26)
(0.859074 -0.468152 4.67402e-22)
(0.914381 -0.455804 4.36043e-23)
(0.978017 -0.449784 -2.2848e-22)
(1.03466 -0.444364 0)
(1.09163 -0.427144 -1.09018e-21)
(0.883408 -0.101902 -3.29737e-22)
(0.896371 -0.100173 1.37033e-21)
(0.931243 -0.179841 9.88683e-25)
(1.30933 -0.28151 -3.68808e-21)
(1.28645 -0.350803 1.78536e-21)
(0.90969 -0.141343 -5.84979e-22)
(0.728904 -0.524876 -5.09525e-28)
(0.973567 -0.2293 -1.12167e-22)
(0.947605 -0.201977 1.23753e-22)
(1.02698 -0.26229 0)
(0.999921 -0.243606 1.07505e-22)
(1.0851 -0.291325 1.02827e-28)
(1.0552 -0.275347 1.69601e-24)
(1.15139 -0.315552 -5.4588e-28)
(1.11708 -0.303672 0)
(1.22936 -0.332885 -3.11417e-28)
(1.18909 -0.325205 0)
(1.31632 -0.323877 0)
(1.27269 -0.334116 0)
(1.3853 -0.233167 0)
(1.35624 -0.293189 0)
(1.38208 -0.0067157 0)
(1.39554 -0.136109 0)
(1.2959 0.269264 1.44905e-24)
(1.34537 0.138671 1.83122e-28)
(1.19504 0.406333 0)
(1.2434 0.361593 0)
(1.10845 0.395973 3.41792e-29)
(1.15036 0.412398 -4.00569e-29)
(1.02644 0.337205 -1.39421e-24)
(1.06743 0.368115 1.09237e-28)
(0.939612 0.267085 1.36272e-28)
(0.983772 0.303448 -1.5959e-28)
(0.855178 0.175022 -2.50008e-24)
(0.89521 0.22426 -1.92777e-28)
(0.81088 0.0648579 0)
(0.825372 0.119613 0)
(0.833126 -0.0279122 -4.43855e-25)
(0.8148 0.0146597 -2.10803e-28)
(0.881379 -0.103545 0)
(0.858252 -0.0660078 0)
(0.925446 -0.181741 0)
(0.903205 -0.143999 0)
(0.982206 -0.242563 4.18666e-22)
(0.951492 -0.216325 -2.74177e-22)
(1.04894 -0.284971 -1.8177e-22)
(1.01448 -0.264842 2.97652e-22)
(1.13961 -0.390851 -5.56475e-23)
(1.12885 -0.319915 3.80627e-22)
(1.08564 -0.302851 -6.7707e-22)
(1.19946 -0.273496 3.74895e-22)
(0.90572 -0.324081 -4.39821e-23)
(1.06846 -0.281675 -1.56762e-21)
(1.12934 -0.286125 0)
(1.36919 -0.156239 3.5565e-22)
(1.2856 -0.228936 -3.1763e-22)
(1.48237 0.0466717 -3.82281e-22)
(1.43809 -0.0601596 0)
(1.4679 0.21728 1.13655e-22)
(1.49089 0.143345 -2.51077e-22)
(1.37669 0.294652 0)
(1.42754 0.265589 0)
(1.27625 0.317171 -3.00568e-26)
(1.32545 0.31027 0)
(1.18857 0.315133 6.19311e-31)
(1.2307 0.318211 -7.36867e-31)
(1.11486 0.30006 2.35937e-25)
(1.15028 0.308686 0)
(1.04941 0.278264 4.91058e-29)
(1.08157 0.289974 -5.84525e-29)
(0.991068 0.244678 0)
(1.01939 0.263233 0)
(0.933122 0.20247 6.14614e-25)
(0.963248 0.223936 -7.50097e-29)
(0.87343 0.14472 -3.41726e-25)
(0.902095 0.177771 0)
(0.847795 0.0389379 5.41278e-29)
(0.854369 0.0985179 -6.44935e-29)
(0.875319 -0.0965333 -1.06338e-24)
(0.856049 -0.0283039 0)
(0.937116 -0.208827 0)
(0.90445 -0.158057 0)
(1.0084 -0.278465 -7.96568e-25)
(0.973883 -0.249719 0)
(1.07723 -0.326573 7.78641e-23)
(1.0451 -0.307392 -8.09916e-23)
(1.14813 -0.374255 2.00404e-23)
(1.11504 -0.353635 -8.59548e-24)
(1.22139 -0.400108 -1.59989e-21)
(1.18547 -0.392242 0)
(1.25653 -0.389143 1.02389e-21)
(0.864485 -0.111116 0)
(0.873405 -0.107135 3.6925e-22)
(0.857838 -0.12156 -2.76737e-22)
(0.860007 -0.116837 0)
(0.866497 -0.132513 0)
(0.859424 -0.126661 2.72935e-22)
(0.899981 -0.144003 0)
(0.879623 -0.138175 0)
(0.965925 -0.155545 -4.13515e-26)
(0.928787 -0.150011 0)
(1.06137 -0.164823 -7.37643e-22)
(1.0106 -0.160987 8.90913e-23)
(1.17265 -0.171861 -1.30771e-21)
(1.11666 -0.167274 1.45089e-21)
(1.22207 -0.175551 0)
(0.76595 -0.436385 0)
(1.32453 -0.179919 0)
(0.794572 -0.56055 0)
(0.816608 -0.644665 4.47174e-26)
(0.834113 -0.667795 0)
(0.820968 -0.647278 -1.71946e-21)
(0.798571 -0.589942 -4.8379e-22)
(0.755553 -0.495264 4.63376e-22)
(0.838576 -0.516541 -2.6052e-26)
(0.899527 -0.494487 -2.80331e-25)
(0.958095 -0.489112 3.52943e-22)
(1.01562 -0.482964 -6.63905e-22)
(0.760279 -0.377599 0)
(1.02723 -0.260319 -1.08436e-22)
(0.862773 -0.284684 0)
(1.08099 -0.468271 1.02371e-21)
(1.13844 -0.439227 3.50872e-21)
(1.16307 -0.339301 2.40923e-22)
(0.912965 -0.104911 8.78835e-22)
(0.737403 -0.552012 1.02625e-27)
(1.17662 -0.374993 -3.32971e-22)
(0.772607 -0.557735 8.32712e-28)
(1.36321 -0.000672908 9.55398e-21)
(0.940659 -0.160331 5.31334e-22)
(0.92556 -0.117057 -7.49998e-21)
(0.984097 -0.204565 0)
(0.962492 -0.178772 4.13161e-22)
(1.03468 -0.237021 8.44426e-27)
(1.01052 -0.21855 -2.96184e-23)
(1.09025 -0.263606 -1.72456e-27)
(1.06236 -0.249983 6.90431e-28)
(1.15426 -0.282917 -4.77813e-28)
(1.12155 -0.273541 0)
(1.22929 -0.294742 1.8317e-30)
(1.19053 -0.289849 -2.151e-30)
(1.31494 -0.285008 0)
(1.27157 -0.294198 0)
(1.38927 -0.213405 0)
(1.3564 -0.260489 0)
(1.39742 -0.0290623 -1.18597e-28)
(1.40537 -0.136035 1.39182e-28)
(1.30844 0.218523 -1.44922e-24)
(1.36247 0.0974689 0)
(1.1888 0.359668 1.93045e-29)
(1.24663 0.31063 -2.26323e-29)
(1.0914 0.355919 2.06994e-24)
(1.1373 0.36996 0)
(1.00715 0.298264 -2.69145e-24)
(1.04827 0.329079 0)
(0.930244 0.229466 0)
(0.967446 0.264565 0)
(0.872298 0.150006 3.43382e-24)
(0.897428 0.190867 0)
(0.856577 0.0662679 -2.05264e-28)
(0.858415 0.107241 2.40256e-28)
(0.88 -0.0099647 6.4988e-24)
(0.865755 0.0272536 0)
(0.908406 -0.0873984 1.88128e-28)