/*--------------------------------*- C++ -*----------------------------------*\
  =========                 |
  \\      /  F ield         | OpenFOAM: The Open Source CFD Toolbox
   \\    /   O peration     | Website:  https://openfoam.org
    \\  /    A nd           | Version:  10
     \\/     M anipulation  |
\*---------------------------------------------------------------------------*/
FoamFile
{
    format      ascii;
    class       volVectorField;
    location    "4";
    object      U;
}
// * * * * * * * * * * * * * * * * * * * * * * * * * * * * * * * * * * * * * //

dimensions      [0 1 -1 0 0 0 0];

internalField   nonuniform List<vector> 
28942
(
(-0.116359 0.0751528 -4.69845e-20)
(-0.114781 0.0918136 -9.80181e-21)
(0.464831 -0.324816 3.77612e-20)
(1.01573 0.0420821 -1.16051e-19)
(0.994058 0.0519386 3.81239e-20)
(0.509036 0.0237578 0)
(0.609606 0.0498368 -1.07429e-21)
(0.660518 0.0163418 1.30645e-21)
(1.21599 -0.137988 1.07243e-22)
(1.20494 -0.124546 1.06439e-21)
(-0.0491596 -0.217004 -1.16813e-19)
(-0.0209921 -0.182897 5.41546e-20)
(-0.0732845 -0.147381 0)
(-0.0859582 -0.172895 0)
(0.993608 -0.026227 1.59846e-22)
(0.993791 -0.0238343 -1.82743e-23)
(0.935229 0.110568 3.00805e-20)
(0.918808 0.0959912 4.83465e-20)
(0.319054 -0.431084 8.89226e-20)
(0.614846 -0.691782 -2.49914e-20)
(0.996035 0.251169 3.90159e-20)
(0.995873 0.236505 0)
(0.0325929 -0.0174028 1.07373e-19)
(-0.0673795 -0.0362908 5.98033e-20)
(0.65017 -0.157305 1.17799e-19)
(1.02096 -0.269833 -1.07066e-19)
(0.188103 -0.424328 4.77081e-19)
(0.195071 -0.350841 -1.8359e-19)
(0.730937 -0.528822 1.6658e-21)
(0.445625 -0.309197 -2.44451e-22)
(0.496883 -0.0255334 0)
(0.650989 -0.0377514 2.42598e-21)
(0.772129 -0.0322005 1.35517e-20)
(0.920591 -0.0308607 1.68454e-21)
(0.456028 0.501168 1.95324e-20)
(0.382175 0.554286 -1.31346e-20)
(0.602911 0.72239 -1.17604e-19)
(0.391418 0.652653 -4.89778e-20)
(0.260703 0.0253763 1.30408e-21)
(0.20996 0.506832 -7.27068e-20)
(0.657193 -0.0597658 0)
(0.85616 -0.0778685 0)
(1.05254 -0.0889733 -8.90538e-22)
(1.04959 -0.0855624 2.96777e-21)
(1.05597 -0.0849016 2.24972e-21)
(0.843125 0.022889 -5.94177e-22)
(0.815309 0.0374701 9.62214e-22)
(0.951824 0.0240016 4.04769e-21)
(0.937506 0.0244085 -1.11899e-21)
(0.857367 0.0258192 -2.55613e-21)
(0.780727 0.0240567 1.80211e-21)
(1.1392 -0.0031938 5.69392e-23)
(1.13761 -0.00855019 -5.43584e-22)
(1.21182 -0.154575 -1.55202e-22)
(1.19918 -0.14113 7.3972e-22)
(1.28487 -0.20464 9.50818e-20)
(1.50022 -0.280885 5.15028e-20)
(-0.0728532 -0.0772176 -7.04249e-20)
(-0.0635116 -0.108659 0)
(-0.0636075 -0.0665495 2.53822e-20)
(-0.0664558 -0.0545734 6.17108e-20)
(-0.031791 -0.0263481 -4.97331e-20)
(-0.0336785 -0.0315791 -5.2095e-20)
(1.32512 -0.569154 0)
(1.463 -0.50051 1.86024e-20)
(1.35382 -0.438042 -7.93418e-21)
(1.28655 -0.432072 0)
(0.930678 -0.218607 -2.83971e-20)
(0.949977 -0.239301 -1.84296e-20)
(-0.0686288 0.0464301 1.56406e-19)
(-0.085262 0.0524996 -4.92725e-20)
(-0.112743 0.0805945 1.23561e-19)
(0.924393 -0.302189 0)
(0.941041 -0.266934 9.81133e-20)
(0.873753 -0.414578 2.54835e-20)
(1.46915 0.314106 5.54004e-20)
(1.50563 0.291689 -5.9933e-20)
(1.47619 0.24442 -4.02335e-20)
(0.144052 -0.0817928 1.7072e-21)
(0.205363 -0.129192 -4.19958e-20)
(0.984298 -0.615732 -6.66707e-21)
(0.727233 -0.496873 1.38691e-20)
(-0.0880839 0.0493513 2.61094e-19)
(-0.0946252 0.0510522 -1.00424e-19)
(1.27779 0.604542 -7.13955e-21)
(1.20277 0.572003 -1.07646e-20)
(1.09918 0.682424 5.54238e-21)
(0.94947 0.672813 -1.79778e-20)
(0.906451 0.645443 1.22585e-20)
(0.678959 0.469034 7.97676e-22)
(0.746479 0.563189 -4.99182e-21)
(0.786664 0.648283 9.28285e-21)
(-0.286137 -0.177546 -1.57604e-20)
(-0.178451 -0.227199 -4.11253e-21)
(-0.165251 -0.2045 8.23544e-21)
(-0.220026 -0.17713 -1.06206e-19)
(-0.250481 -0.141494 1.35924e-19)
(0.378359 0.300725 -3.40825e-20)
(0.427455 0.370063 5.92712e-21)
(-0.0277823 0.0211829 0)
(1.0071 0.00420881 0)
(0.965217 0.0532211 -8.66352e-20)
(0.890577 0.135294 6.28016e-20)
(1.08071 0.117919 0)
(1.39655 0.00303081 0)
(1.39562 -0.00624765 0)
(1.4171 -0.00105976 7.77636e-20)
(1.09069 0.175119 -5.85205e-21)
(1.08741 0.187832 6.27747e-20)
(1.07974 0.165467 3.30748e-20)
(-0.0790223 -0.0994025 1.42044e-19)
(-0.0831272 -0.110704 -1.59356e-19)
(0.00525402 0.0717193 -8.31116e-20)
(-0.00357921 0.100051 7.91338e-20)
(-0.105758 0.121703 1.59119e-19)
(0.169007 0.263408 8.00403e-20)
(0.387993 0.259984 1.95749e-19)
(0.298847 0.484315 1.61275e-20)
(0.133789 0.378975 -4.64165e-19)
(1.29573 0.47507 7.51855e-22)
(1.14679 0.457226 2.26248e-20)
(1.18248 0.435678 -3.92844e-20)
(0.804046 -0.622723 1.17178e-20)
(0.547191 -0.398093 -4.60551e-21)
(0.163187 0.0170976 -2.42701e-19)
(0.148119 -0.0606762 0)
(0.311389 -0.0258695 1.3034e-19)
(0.509477 -0.391365 1.42892e-20)
(0.724702 -0.610928 -3.15654e-20)
(0.935235 0.0236846 -4.0119e-21)
(0.957703 0.0210258 1.81296e-21)
(0.900191 0.0222221 1.27307e-22)
(0.501548 -0.745083 0)
(0.529086 -0.576657 0)
(1.06191 -0.132867 -1.34674e-20)
(1.04814 -0.11446 7.75513e-20)
(1.03221 -0.081029 0)
(0.821333 -0.71891 0)
(0.822551 -0.65829 -3.03803e-20)
(0.758535 0.754568 7.19038e-20)
(-0.11242 -0.111326 9.43524e-20)
(-0.0919157 -0.100282 -6.94697e-20)
(0.549418 -0.504994 -1.64907e-20)
(1.06361 -0.0865895 1.10245e-20)
(1.05932 -0.0816283 -2.27645e-21)
(1.47369 -0.215433 -1.51871e-20)
(1.48356 -0.19676 2.03152e-20)
(1.48677 -0.175255 7.03302e-20)
(-0.0837146 -0.0904854 3.30552e-20)
(0.872449 0.727994 7.54144e-20)
(1.00664 0.701891 -2.36314e-20)
(1.08794 0.744856 1.00868e-22)
(0.733044 -0.0200731 -5.74169e-22)
(0.733718 -0.0217513 -5.30907e-21)
(0.797194 -0.0251486 -4.33296e-22)
(0.830299 -0.0287182 1.43003e-21)
(0.817678 0.72146 1.82138e-20)
(0.44442 0.427696 0)
(-0.132639 0.136971 8.01288e-20)
(-0.137926 0.172606 -8.88126e-20)
(-0.2252 0.212689 7.52686e-20)
(0.510612 0.0836651 -1.84463e-19)
(1.05877 0.252828 -9.03712e-20)
(0.897138 -0.0294434 5.66468e-22)
(1.25555 -0.455329 2.18523e-20)
(1.21331 -0.531755 5.28002e-20)
(0.977911 0.277378 9.08326e-20)
(0.961229 0.316178 7.67988e-21)
(0.935055 0.196941 5.29993e-20)
(0.952514 0.20313 -3.82834e-20)
(1.00313 0.277328 0)
(1.12463 0.0117116 5.01003e-22)
(1.12748 0.00754744 3.5437e-22)
(1.16165 -0.0907858 -1.77468e-21)
(1.17228 -0.0935746 2.48957e-21)
(1.10212 0.161327 6.2927e-21)
(1.11573 0.16874 -1.73148e-20)
(1.10323 0.173118 0)
(1.08995 0.163385 4.25385e-21)
(1.10174 0.185259 0)
(1.10928 0.242416 -1.57214e-20)
(1.10309 0.257833 -9.35575e-21)
(1.08087 0.285199 -1.81584e-20)
(1.09353 0.272511 0)
(1.11597 0.292471 5.35292e-20)
(1.09911 0.30817 2.90534e-21)
(1.06478 0.303544 -1.12383e-20)
(1.01333 0.363169 -4.96427e-20)
(1.01026 0.304364 -8.92433e-21)
(0.121183 0.119294 6.15991e-20)
(0.334259 0.0935667 -2.41158e-20)
(-0.108536 0.190709 -1.16787e-19)
(0.881447 0.0232127 3.92258e-21)
(0.97714 0.0219217 0)
(-0.0663248 0.0504424 8.77173e-20)
(-0.0595756 0.0441416 4.56961e-20)
(0.943082 0.0266811 -1.4001e-22)
(0.988793 0.0248642 -8.03625e-23)
(0.98901 0.0247998 0)
(0.93399 0.0280346 -2.64634e-22)
(1.02168 0.0079007 -3.7213e-21)
(1.02103 0.00634848 1.77696e-20)
(1.02252 0.00685264 8.36164e-21)
(-0.0874582 -0.111367 6.0967e-20)
(-0.0354391 -0.0378366 -7.87403e-20)
(-0.0433565 -0.0463574 7.51886e-20)
(-0.0572006 -0.0373456 0)
(-0.0260853 -0.0154045 1.05061e-19)
(-0.0243364 -0.0161567 -9.1451e-20)
(-0.0663335 -0.0156111 -9.42e-20)
(-0.0954128 -0.0396048 -9.55991e-20)
(-0.0564168 -0.0262496 0)
(0.0577903 0.24816 0)
(0.0265183 0.147926 0)
(0.0098884 0.0844449 0)
(1.37406 -0.00960515 -1.01427e-20)
(1.35237 -0.0173085 0)
(1.37233 -0.0195061 1.10468e-20)
(0.92372 -0.0867583 1.98433e-19)
(0.93726 -0.093911 -7.20675e-20)
(0.934049 -0.0752917 0)
(1.03879 0.000407219 -1.70583e-22)
(1.03917 0.000416379 3.41391e-22)
(1.03839 0.000416345 -1.16902e-22)
(1.03954 0.000413675 0)
(1.03987 0.000416898 -2.1394e-22)
(1.04019 0.000419263 0)
(1.04019 7.12322e-05 0)
(1.04049 0.000392689 7.79332e-22)
(1.04047 5.8337e-05 0)
(1.03988 5.16836e-05 -2.15249e-22)
(1.03954 4.33161e-05 0)
(1.03918 2.21758e-05 1.14288e-22)
(1.03879 -8.57503e-06 -1.70966e-22)
(1.03839 -4.09254e-05 1.16742e-22)
(1.04076 0.000361034 -7.45655e-22)
(1.04075 4.3622e-05 -2.59364e-23)
(1.03795 0.000405513 1.39113e-26)
(1.03796 -6.05288e-05 -1.80545e-22)
(1.03748 0.000399818 9.70213e-22)
(1.04101 0.0003472 6.90223e-25)
(1.04102 4.37541e-05 -2.55888e-23)
(1.0375 -9.62997e-05 3.58444e-22)
(1.04126 0.000332555 6.88302e-22)
(1.04148 0.000316485 -6.87734e-22)
(1.04126 4.37388e-05 5.18955e-23)
(1.04149 4.29475e-05 1.01219e-22)
(1.037 0.00043229 -9.44071e-22)
(1.03702 -0.000144275 -2.36567e-22)
(1.04169 0.000299839 0)
(1.0417 4.18548e-05 -9.98338e-23)
(1.03649 0.000417736 1.18255e-25)
(1.03651 -0.000176564 -1.18555e-25)
(1.04189 0.000284241 0)
(1.04189 4.18738e-05 0)
(1.03594 0.00043144 0)
(1.03597 -0.000212375 0)
(1.04208 0.000269794 0)
(1.04208 4.27226e-05 4.70641e-23)
(1.03537 0.000443893 -5.07964e-22)
(1.03538 -0.000238847 -1.23366e-25)
(1.04225 0.000256084 2.45986e-24)
(1.04225 4.46362e-05 -5.02554e-23)
(1.03474 0.000472181 5.10386e-22)
(1.03476 -0.000261008 0)
(1.04241 0.00024313 0)
(1.04241 4.7547e-05 0)
(1.03407 0.000507883 -3.27917e-23)
(1.03411 -0.000281487 5.65473e-22)
(1.04256 0.000229449 2.99768e-22)
(1.04256 5.17769e-05 0)
(1.03336 0.000541968 -5.92964e-24)
(1.03341 -0.000311449 -5.35387e-22)
(1.0427 0.000217721 -4.47528e-22)
(1.04269 5.94003e-05 -1.29453e-22)
(1.03258 0.000545512 5.51975e-22)
(1.03265 -0.000337625 0)
(1.04283 0.000203531 1.46856e-22)
(1.04282 6.51749e-05 8.62643e-23)
(1.03176 0.000583895 -2.83932e-22)
(1.03184 -0.000382228 5.75563e-22)
(1.04295 0.000198979 -5.81629e-22)
(1.04294 8.35945e-05 6.55314e-22)
(1.03087 0.000550742 2.96332e-22)
(1.03096 -0.000414094 9.43459e-24)
(1.04307 0.000188633 0)
(1.04306 0.000104849 3.10501e-22)
(1.0299 0.00057963 -6.03581e-22)
(1.03001 -0.000478013 1.20702e-21)
(1.04319 0.000193461 0)
(1.04318 0.000113256 0)
(1.03087 0.00151985 -2.93227e-22)
(1.02989 0.00162033 -1.20498e-21)
(1.02885 0.000555677 0)
(1.02898 -0.000567176 -6.22445e-22)
(1.0326 0.00134358 -1.80217e-22)
(1.03176 0.00145945 3.55462e-23)
(1.0341 0.00117554 0)
(1.03337 0.0012687 -5.74845e-22)
(1.03539 0.00103831 -1.07589e-24)
(1.03476 0.00110099 0)
(1.03652 0.000941015 0)
(1.03597 0.000989828 0)
(1.03753 0.000857423 0)
(1.03704 0.000914062 0)
(1.03841 0.000830608 2.30012e-22)
(1.03798 0.000850728 5.86706e-23)
(1.0392 0.000801302 -2.20032e-22)
(1.03882 0.000813885 -2.30531e-22)
(1.03989 0.000742594 3.83089e-22)
(1.03955 0.000765704 4.93692e-22)
(1.04051 0.000677556 0)
(1.04021 0.000716401 0)
(1.04103 0.000593501 -1.63767e-24)
(1.04078 0.000636089 0)
(1.0415 0.000518028 0)
(1.04127 0.000554077 0)
(1.04191 0.000454846 0)
(1.04171 0.000485125 0)
(1.04227 0.000400467 0)
(1.04209 0.000426978 0)
(1.04258 0.000351404 0)
(1.04243 0.000375648 0)
(1.04285 0.000311235 0)
(1.04272 0.000330967 0)
(1.04309 0.000288418 -2.36004e-22)
(1.04298 0.00030185 0)
(1.04321 0.000284404 -7.57255e-23)
(1.0433 0.000199912 7.36643e-23)
(1.04328 0.000120408 -7.30496e-23)
(1.04295 -2.91108e-05 0)
(1.04317 2.16226e-05 -3.00544e-22)
(1.04306 -8.35111e-07 -1.56139e-22)
(1.0427 -7.8279e-05 4.34511e-23)
(1.04283 -5.22603e-05 -1.69069e-22)
(1.04242 -0.000107969 1.42378e-24)
(1.04257 -9.49125e-05 0)
(1.04209 -0.000133005 0)
(1.04226 -0.00012058 0)
(1.04171 -0.00015898 0)
(1.04191 -0.000145758 0)
(1.04128 -0.000187443 0)
(1.0415 -0.00017277 1.93317e-28)
(1.04078 -0.000223958 1.66454e-24)
(1.04104 -0.000203659 0)
(1.0402 -0.000276357 0)
(1.04049 -0.000252875 0)
(1.03956 -0.000329624 0)
(1.03989 -0.000306182 0)
(1.03883 -0.000420264 0)
(1.0392 -0.000367061 -1.15048e-22)
(1.038 -0.000520743 3.1413e-23)
(1.03842 -0.000486057 -1.50775e-22)
(1.03708 -0.000673516 0)
(1.03755 -0.000595702 -1.24179e-22)
(1.03603 -0.000804425 0)
(1.03657 -0.000735481 0)
(1.03485 -0.000946051 0)
(1.03546 -0.000872682 0)
(1.03352 -0.00110669 0)
(1.03421 -0.00102469 0)
(1.03198 -0.00129135 -1.47854e-22)
(1.03278 -0.00118812 0)
(1.0302 -0.00151607 -6.17294e-22)
(1.03112 -0.00138532 -1.50341e-22)
(1.0292 -0.00167808 6.36343e-22)
(1.02884 0.00169414 1.20203e-21)
(1.04332 0.000280914 1.47362e-22)
(1.04328 3.71917e-05 -2.86028e-22)
(1.02786 -0.000674748 0)
(1.02811 -0.0018649 0)
(1.0277 0.00176967 0)
(1.02772 0.000526766 0)
(1.03099 0.00244338 0)
(1.02899 0.00277451 2.97349e-22)
(1.03003 0.00260206 2.97282e-22)
(1.03271 0.00213478 3.69891e-22)
(1.03188 0.00228722 -7.4254e-23)
(1.03419 0.00185312 1.11762e-24)
(1.03347 0.00198126 0)
(1.03547 0.00164426 0)
(1.03485 0.00174303 0)
(1.0366 0.00148037 0)
(1.03605 0.00155802 0)
(1.0376 0.00136245 0)
(1.03712 0.00141661 0)
(1.03848 0.00125157 0)
(1.03805 0.00131257 0)
(1.03926 0.00116231 -9.18848e-25)
(1.03888 0.00120983 2.38819e-22)
(1.03994 0.00105424 -8.68615e-25)
(1.03961 0.00109956 -4.59215e-22)
(1.04055 0.000948901 0)
(1.04025 0.00100292 0)
(1.04107 0.000838648 8.1795e-25)
(1.04081 0.000893876 0)
(1.04153 0.000737114 0)
(1.0413 0.000785986 0)
(1.04194 0.000649719 0)
(1.04174 0.00069177 0)
(1.04229 0.000573127 0)
(1.04212 0.000610299 0)
(1.04261 0.000504273 0)
(1.04246 0.000537661 0)
(1.04289 0.000446817 0)
(1.04275 0.000473321 0)
(1.04313 0.000402849 1.61391e-22)
(1.04301 0.000422578 0)
(1.0434 0.000197188 0)
(1.04342 0.000283834 1.42472e-22)
(1.04334 0.000368961 0)
(1.04324 0.000385451 1.56397e-22)
(1.04317 -8.20725e-05 3.1201e-22)
(1.04328 -5.57907e-05 7.5976e-23)
(1.04338 5.18956e-05 5.91414e-22)
(1.04339 0.000127228 0)
(1.04296 -0.000153294 0)
(1.04307 -0.000116951 -4.71253e-22)
(1.04272 -0.000211662 1.36654e-24)
(1.04285 -0.000181289 1.70117e-22)
(1.04244 -0.000259011 -1.42377e-24)
(1.04258 -0.000234093 0)
(1.04211 -0.000306776 0)
(1.04228 -0.000282265 0)
(1.04174 -0.00035849 0)
(1.04193 -0.000331984 0)
(1.04131 -0.000416174 0)
(1.04153 -0.000386506 -1.93316e-28)
(1.04081 -0.000483842 -3.32614e-24)
(1.04107 -0.000448088 0)
(1.04024 -0.000578359 0)
(1.04054 -0.000526741 0)
(1.0396 -0.00068866 5.7796e-23)
(1.03993 -0.000630788 0)
(1.03888 -0.000820122 0)
(1.03925 -0.000747914 -5.75493e-23)
(1.03806 -0.000976328 1.23886e-22)
(1.03848 -0.000898779 1.22065e-22)
(1.03716 -0.00115406 0)
(1.03762 -0.00106997 0)
(1.03613 -0.0013459 0)
(1.03666 -0.00124935 0)
(1.03498 -0.00155659 0)
(1.03557 -0.00144809 0)
(1.03367 -0.00179615 0)
(1.03435 -0.00167277 0)
(1.03217 -0.00207849 2.3734e-24)
(1.03295 -0.00193067 0)
(1.03045 -0.00244093 -2.46441e-24)
(1.03134 -0.00224741 0)
(1.02844 -0.00292485 -6.57725e-22)
(1.02949 -0.00266582 6.57328e-22)
(1.02786 0.00295504 6.21079e-22)
(1.02694 -0.0021051 0)
(1.02731 -0.00325431 -1.37454e-21)
(1.02666 -0.000800708 0)
(1.04344 0.000358534 0)
(1.04338 -3.35145e-05 -7.33131e-23)
(1.02647 0.0018294 1.60865e-21)
(1.02665 0.00314522 6.47517e-22)
(1.02567 -0.00237057 3.51499e-22)
(1.02609 -0.00361072 1.73949e-21)
(1.02648 0.000506448 0)
(1.04338 0.000475927 6.08617e-22)
(1.04347 0.0004452 -2.99861e-22)
(1.04347 5.97887e-05 -1.44423e-22)
(1.04348 -1.34168e-05 7.16432e-22)
(1.0271 0.00441992 2.23389e-21)
(1.02535 0.00336948 -1.26723e-21)
(1.0246 0.00512487 -5.79786e-21)
(1.02584 0.00476078 -1.2826e-21)
(1.02935 0.00383986 6.02147e-22)
(1.02827 0.00411916 -1.88479e-21)
(1.03127 0.00333781 -6.0903e-22)
(1.03035 0.00358239 -4.69374e-22)
(1.03293 0.00291095 -1.47692e-22)
(1.03213 0.00311769 -1.49246e-22)
(1.03437 0.00254248 -1.11762e-24)
(1.03368 0.00271534 0)
(1.03563 0.00224881 0)
(1.03502 0.00238831 0)
(1.03674 0.00201388 0)
(1.0362 0.00212462 0)
(1.03773 0.00183006 0)
(1.03725 0.00191705 0)
(1.03859 0.00167038 0)
(1.03817 0.00174705 0)
(1.03935 0.00151771 0)
(1.03898 0.00159259 0)
(1.04002 0.00136853 1.03663e-27)
(1.03969 0.00144582 0)
(1.04061 0.00122274 0)
(1.04032 0.00129341 0)
(1.04112 0.00108376 8.16637e-25)
(1.04087 0.00115283 0)
(1.04158 0.000954985 0)
(1.04135 0.00101742 0)
(1.04198 0.000842415 0)
(1.04179 0.00089677 0)
(1.04234 0.000743237 0)
(1.04217 0.000791436 0)
(1.04266 0.000654202 0)
(1.0425 0.00069738 0)
(1.04294 0.000578412 0)
(1.0428 0.000613869 0)
(1.04318 0.000519981 8.2319e-23)
(1.04306 0.000546016 -4.14929e-23)
(1.04329 0.000495531 -3.11218e-22)
(1.04349 0.000190691 -6.84743e-23)
(1.04353 0.000340877 2.85492e-22)
(1.04351 0.000267384 -2.19647e-22)
(1.04348 0.000134845 0)
(1.0432 -0.000198143 -2.30687e-22)
(1.0434 -0.000124618 -6.60181e-22)
(1.0433 -0.000158319 5.35035e-22)
(1.04299 -0.000275732 0)
(1.04309 -0.000238982 0)
(1.04274 -0.000342822 -1.80116e-27)
(1.04287 -0.000307596 0)
(1.04246 -0.000409317 0)
(1.04261 -0.000374956 0)
(1.04214 -0.000479946 -1.47723e-24)
(1.04231 -0.000443742 0)
(1.04177 -0.000557587 0)
(1.04196 -0.000517702 0)
(1.04135 -0.000645216 0)
(1.04157 -0.000599984 0)
(1.04086 -0.000747247 1.66198e-24)
(1.04111 -0.000694017 0)
(1.0403 -0.0008731 1.72442e-24)
(1.04059 -0.000806655 0)
(1.03966 -0.00102448 0)
(1.03999 -0.000945145 0)
(1.03895 -0.00120175 0)
(1.03932 -0.00111122 0)
(1.03815 -0.00140565 0)
(1.03856 -0.0012983 0)
(1.03727 -0.00163076 0)
(1.03772 -0.00151612 0)
(1.03627 -0.00188098 -2.09443e-24)
(1.03678 -0.00175297 0)
(1.03514 -0.00216191 0)
(1.03572 -0.0020171 0)
(1.03387 -0.00248399 0)
(1.03452 -0.00231728 0)
(1.03241 -0.00286219 -7.33842e-27)
(1.03316 -0.0026649 0)
(1.03074 -0.00332629 8.70755e-27)
(1.03161 -0.00308146 0)
(1.02883 -0.00393382 2.60628e-24)
(1.02982 -0.00360576 0)
(1.02658 -0.00475991 -1.42119e-21)
(1.02775 -0.00431208 3.41624e-22)
(1.02476 -0.00401465 3.6077e-22)
(1.02533 -0.00526259 7.05075e-22)
(1.02514 0.00191815 -6.21258e-22)
(1.02535 -0.00100126 -6.79748e-22)
(1.04356 0.000413431 7.28468e-23)
(1.04349 -9.70414e-05 5.18303e-22)
(1.02394 0.00358223 7.67411e-23)
(1.02429 -0.00266997 0)
(1.02278 0.00558808 9.15376e-21)
(1.02398 -0.00583966 1.13066e-21)
(1.02333 -0.00449409 1.50903e-21)
(1.02348 0.00702641 -1.52657e-20)
(1.0222 0.00824455 2.76147e-21)
(1.02517 0.000441722 0)
(1.02558 0.00622979 1.45601e-21)
(1.0246 0.00669928 7.70369e-22)
(1.02779 0.00546385 1.29549e-21)
(1.02665 0.00582894 -1.9954e-21)
(1.02989 0.00477589 -6.25365e-22)
(1.02889 0.00511857 -3.16434e-22)
(1.0317 0.00415302 3.06935e-22)
(1.03083 0.00445136 3.17436e-22)
(1.03327 0.00363669 0)
(1.03251 0.0038869 -1.39029e-24)
(1.03464 0.00319908 0)
(1.03398 0.00340919 0)
(1.03586 0.00283054 1.06934e-24)
(1.03527 0.00300642 0)
(1.03694 0.00252868 0)
(1.03642 0.00267186 0)
(1.03789 0.00228149 0)
(1.03743 0.00239969 0)
(1.03873 0.00206775 0)
(1.03832 0.00217142 0)
(1.03946 0.00186899 9.15099e-25)
(1.03911 0.00196674 0)
(1.04011 0.00167791 1.32356e-27)
(1.0398 0.00177384 0)
(1.04069 0.00149517 0)
(1.04041 0.00158455 0)
(1.04119 0.00132457 -1.63222e-24)
(1.04095 0.00140861 0)
(1.04164 0.00116853 0)
(1.04142 0.00124428 0)
(1.04204 0.00103151 0)
(1.04185 0.00109775 0)
(1.0424 0.000910458 0)
(1.04223 0.000969299 0)
(1.04272 0.000801971 0)
(1.04256 0.000854565 0)
(1.04299 0.000709119 0)
(1.04286 0.000752718 0)
(1.04324 0.00063466 -4.1059e-23)
(1.04312 0.000668647 0)
(1.04343 0.000576165 0)
(1.04334 0.000604489 -7.91877e-23)
(1.04359 0.000492975 -1.40859e-26)
(1.04352 0.000538634 0)
(1.04361 0.000308988 -2.89527e-22)
(1.04366 0.000436987 1.74247e-23)
(1.04363 0.000372648 1.41036e-22)
(1.04358 0.000182079 1.0381e-22)
(1.04359 0.000242839 -7.16734e-23)
(1.04356 5.65662e-05 -3.60646e-23)
(1.04357 0.000129911 3.59873e-23)
(1.04358 -8.58673e-05 0)
(1.04357 -4.72709e-06 -3.29586e-22)
(1.04343 -0.000226254 -1.48552e-22)
(1.0436 -0.000173545 -2.82714e-22)
(1.04352 -0.000196985 6.48236e-22)
(1.04323 -0.00030633 -7.87636e-23)
(1.04333 -0.000264329 0)
(1.04302 -0.000393516 0)
(1.04313 -0.000352373 0)
(1.04277 -0.000473023 -2.12649e-27)
(1.0429 -0.0004334 0)
(1.0425 -0.000558106 0)
(1.04264 -0.00051493 0)
(1.04218 -0.000650491 1.47723e-24)
(1.04234 -0.000603197 0)
(1.04181 -0.000753277 0)
(1.042 -0.0007004 0)
(1.0414 -0.000870182 0)
(1.04161 -0.000809732 0)
(1.04092 -0.0010063 0)
(1.04117 -0.000935516 0)
(1.04037 -0.00116695 -3.58155e-27)
(1.04065 -0.00108342 0)
(1.03975 -0.00135572 0)
(1.04007 -0.00125756 0)
(1.03905 -0.00157316 0)
(1.03941 -0.00146146 0)
(1.03827 -0.00181938 0)
(1.03867 -0.00169206 0)
(1.03741 -0.00209454 0)
(1.03785 -0.00195337 0)
(1.03644 -0.00240264 2.09443e-24)
(1.03694 -0.00224418 0)
(1.03534 -0.00275256 0)
(1.03591 -0.00257184 0)
(1.0341 -0.00315584 0)
(1.03474 -0.00294682 0)
(1.03269 -0.00362808 -2.36584e-24)
(1.03342 -0.00338228 0)
(1.03108 -0.00419195 2.46757e-24)
(1.03191 -0.00389686 0)
(1.02925 -0.00488882 -2.57678e-24)
(1.0302 -0.00452 0)
(1.02714 -0.00580955 3.45125e-22)
(1.02823 -0.00531106 -6.78967e-22)
(1.0247 -0.0070523 -3.54613e-22)
(1.02596 -0.00638251 7.28771e-22)
(1.02252 -0.00650435 3.67729e-23)
(1.02335 -0.00780633 7.58429e-22)
(1.02371 0.00199901 -6.62233e-22)
(1.02394 -0.00120156 0)
(1.02239 0.00399238 -6.48361e-21)
(1.02279 -0.00295952 0)
(1.04362 0.000575969 -7.23737e-23)
(1.04369 0.000525961 5.30136e-23)
(1.04366 -7.38826e-05 -2.74338e-22)
(1.04369 -0.000156716 -3.10799e-22)
(1.02068 0.00535714 -6.45387e-21)
(1.02179 -0.0050467 -1.52391e-21)
(1.02082 0.00846766 0)
(1.02415 0.0086668 -1.79872e-21)
(1.02097 -0.00726762 -7.44362e-22)
(1.0219 -0.00869664 1.17705e-21)
(1.0228 0.00966616 3.56692e-21)
(1.02374 0.000374696 0)
(1.02634 0.00749436 0)
(1.02528 0.00806475 -1.55757e-21)
(1.02847 0.00651316 0)
(1.02741 0.00698066 0)
(1.03045 0.00566604 0)
(1.0295 0.00607869 3.27829e-22)
(1.03214 0.00495191 0)
(1.03133 0.00529311 0)
(1.03363 0.00434872 0)
(1.03291 0.00463772 0)
(1.03495 0.00383219 0)
(1.03431 0.00408121 0)
(1.03612 0.00339161 -1.06934e-24)
(1.03555 0.00360235 0)
(1.03716 0.00302501 0)
(1.03666 0.0031998 0)
(1.03808 0.00271841 0)
(1.03763 0.00286547 0)
(1.03888 0.00245187 0)
(1.03849 0.00258146 0)
(1.03959 0.00220777 -1.83526e-27)
(1.03925 0.00232777 0)
(1.04022 0.00197757 1.64189e-27)
(1.03992 0.00209131 0)
(1.04078 0.00176096 0)
(1.04051 0.00186727 0)
(1.04128 0.0015608 1.33168e-27)
(1.04104 0.00165884 0)
(1.04172 0.00137938 0)
(1.04151 0.00146751 0)
(1.04212 0.00121903 0)
(1.04193 0.0012967 0)
(1.04247 0.00107662 0)
(1.0423 0.0011459 0)
(1.04279 0.000948819 0)
(1.04263 0.00101089 0)
(1.04306 0.000838155 0)
(1.04293 0.000890912 0)
(1.04329 0.000750933 0)
(1.04318 0.000791058 0)
(1.04348 0.000666033 7.80857e-23)
(1.04339 0.00070901 8.03939e-23)
(1.04356 0.000622715 -1.48773e-22)
(1.04368 0.000263894 -1.40875e-22)
(1.04372 0.00037806 0)
(1.0437 0.000326602 -1.42695e-22)
(1.04365 0.000163535 0)
(1.04366 0.000213048 1.43792e-22)
(1.04364 4.73864e-05 2.14431e-22)
(1.04364 0.000111118 -7.24798e-23)
(1.04364 -4.75061e-06 -4.22158e-22)
(1.04347 -0.000330706 7.47208e-23)
(1.04365 -0.000259852 2.73672e-22)
(1.04356 -0.000303037 0)
(1.04328 -0.000419471 -1.56092e-22)
(1.04338 -0.000376058 1.56622e-22)
(1.04306 -0.000508528 0)
(1.04318 -0.00046553 0)
(1.04282 -0.000603199 -2.48398e-27)
(1.04294 -0.000555928 0)
(1.04254 -0.000705388 0)
(1.04268 -0.000653345 0)
(1.04223 -0.000818127 0)
(1.04239 -0.000760296 0)
(1.04187 -0.000944861 0)
(1.04205 -0.000879547 0)
(1.04146 -0.00108987 0)
(1.04167 -0.00101482 0)
(1.04099 -0.00125845 1.65225e-24)
(1.04124 -0.00117094 0)
(1.04046 -0.00145458 -1.72084e-24)
(1.04074 -0.00135303 0)
(1.03986 -0.0016803 0)
(1.04017 -0.00156367 0)
(1.03918 -0.00193615 0)
(1.03953 -0.0018046 0)
(1.03842 -0.00222321 0)
(1.03881 -0.00207568 0)
(1.03758 -0.00254472 0)
(1.03801 -0.00237938 0)
(1.03664 -0.00290803 0)
(1.03712 -0.00272066 0)
(1.03558 -0.00332407 0)
(1.03612 -0.00310884 0)
(1.03438 -0.00380557 -2.25328e-24)
(1.035 -0.00355587 0)
(1.03302 -0.00436896 2.34674e-24)
(1.03372 -0.00407594 0)
(1.03147 -0.00503634 -2.44588e-24)
(1.03227 -0.00468813 0)
(1.02971 -0.00584166 0)
(1.03061 -0.00541894 0)
(1.02772 -0.00684657 0)
(1.02874 -0.00631329 0)
(1.02546 -0.0081979 2.82145e-24)
(1.02662 -0.00746074 3.54442e-22)
(1.0229 -0.00998607 -1.94511e-21)
(1.02421 -0.0090337 0)
(1.02039 -0.00972283 -1.15571e-21)
(1.02153 -0.0110909 -3.83883e-23)
(1.02216 0.00208994 2.0906e-21)
(1.02241 -0.00139743 0)
(1.04375 0.000452908 -2.73368e-22)
(1.04373 -0.000227397 -5.2935e-22)
(1.02051 0.00375596 -1.13526e-21)
(1.0198 0.0069732 3.55254e-23)
(1.0189 0.00573901 3.34805e-21)
(1.02118 -0.0033753 0)
(1.02012 -0.00563573 3.95204e-22)
(1.02118 0.0105041 -3.34214e-21)
(1.01943 0.0103252 2.99296e-21)
(1.01848 0.00815974 -2.89282e-21)
(1.01929 -0.00815551 -1.18464e-21)
(1.01878 -0.010869 8.08557e-22)
(1.0201 -0.0123448 7.55584e-22)
(1.02218 0.00028865 0)
(1.02471 0.0103453 9.7811e-23)
(1.02186 0.012098 -2.96657e-23)
(1.02335 0.0112952 7.67773e-22)
(1.02698 0.00876759 7.3687e-22)
(1.02589 0.00950793 -7.41079e-22)
(1.02905 0.00754364 1.30587e-24)
(1.02803 0.0081322 0)
(1.03093 0.0065509 0)
(1.03003 0.00701916 0)
(1.03255 0.00573457 0)
(1.03177 0.00612586 0)
(1.03398 0.00503834 0)
(1.03328 0.00537283 0)
(1.03525 0.00444116 1.10567e-24)
(1.03463 0.00472856 0)
(1.03638 0.0039319 0)
(1.03583 0.00417593 0)
(1.03738 0.00350311 0)
(1.03689 0.00370833 0)
(1.03826 0.00313964 0)
(1.03784 0.00331443 0)
(1.03904 0.0028224 0)
(1.03867 0.00297649 0)
(1.03973 0.00253495 -9.13264e-25)
(1.0394 0.00267577 0)
(1.04034 0.00226859 1.96942e-27)
(1.04004 0.00239944 0)
(1.04088 0.00202107 0)
(1.04062 0.00214245 0)
(1.04138 0.00179375 1.62691e-24)
(1.04114 0.00190487 0)
(1.04182 0.00158805 0)
(1.0416 0.00168812 0)
(1.04221 0.0014047 0)
(1.04202 0.00149373 0)
(1.04256 0.00124074 0)
(1.04239 0.00132059 0)
(1.04286 0.00109313 0)
(1.04271 0.00116494 0)
(1.04313 0.000963497 0)
(1.043 0.00102588 0)
(1.04335 0.000854051 1.2849e-24)
(1.04324 0.000906838 0)
(1.04353 0.000755527 -7.84246e-23)
(1.04344 0.000805873 0)
(1.04366 0.000640994 7.39106e-23)
(1.0436 0.000701829 0)
(1.04377 0.000505464 6.96714e-23)
(1.04371 0.000574754 -7.16716e-23)
(1.04378 0.000311461 1.37188e-22)
(1.04383 0.000425366 0)
(1.0438 0.000377384 2.0477e-22)
(1.04374 0.000217938 0)
(1.04376 0.000264037 0)
(1.04371 0.000134179 0)
(1.04372 0.000179562 0)
(1.0437 2.81914e-05 0)
(1.0437 8.67054e-05 0)
(1.04373 -6.90566e-05 2.79619e-22)
(1.04371 -1.40956e-05 6.91421e-23)
(1.04381 -0.000203242 6.83962e-23)
(1.04377 -0.000138877 5.46053e-22)
(1.04371 -0.000343766 3.59396e-22)
(1.04385 -0.000273764 6.79242e-23)
(1.04378 -0.000304974 -1.38901e-22)
(1.04353 -0.000434319 7.40657e-23)
(1.04362 -0.000386851 -4.43956e-22)
(1.04334 -0.000529873 -2.40084e-27)
(1.04344 -0.000482856 0)
(1.04312 -0.000626044 0)
(1.04323 -0.000575956 0)
(1.04287 -0.000733282 -2.84663e-27)
(1.043 -0.000678483 0)
(1.04259 -0.000851307 0)
(1.04274 -0.000790893 0)
(1.04228 -0.000982907 0)
(1.04244 -0.000915232 0)
(1.04194 -0.00113215 0)
(1.04212 -0.00105508 0)
(1.04154 -0.00130392 0)
(1.04174 -0.00121494 0)
(1.04109 -0.00150342 -3.30011e-24)
(1.04132 -0.00139999 0)
(1.04057 -0.00173388 0)
(1.04083 -0.00161478 0)
(1.03998 -0.00199583 0)
(1.04028 -0.00186101 0)
(1.03932 -0.00228885 0)
(1.03966 -0.0021385 0)
(1.03859 -0.00261495 0)
(1.03896 -0.00244762 0)
(1.03778 -0.00298026 -1.99419e-24)
(1.03819 -0.00279218 0)
(1.03687 -0.00339593 0)
(1.03734 -0.00318111 0)
(1.03585 -0.00387511 0)
(1.03638 -0.00362689 0)
(1.0347 -0.00443112 2.25328e-24)
(1.03529 -0.00414275 0)
(1.03339 -0.0050802 -1.18388e-26)
(1.03406 -0.00474293 0)
(1.0319 -0.00584536 4.87836e-24)
(1.03267 -0.00544665 0)
(1.03022 -0.00675965 0)
(1.03108 -0.00628151 0)
(1.02833 -0.00787295 0)
(1.0293 -0.00728717 0)
(1.02622 -0.00926841 -2.09014e-26)
(1.0273 -0.00852912 0)
(1.02392 -0.0110732 0)
(1.02509 -0.0101101 0)
(1.02142 -0.0134911 -1.18188e-21)
(1.02269 -0.0121996 0)
(1.01861 -0.013692 -4.12872e-23)
(1.02013 -0.0149276 2.05264e-21)
(1.02042 0.00205427 0)
(1.02031 0.01275 4.58857e-21)
(1.01859 0.00402763 7.82153e-22)
(1.0438 0.000556131 -6.95507e-23)
(1.04385 0.000485149 0)
(1.04388 -0.000183167 6.62427e-23)
(1.04392 -0.000242699 -1.31431e-22)
(1.02073 -0.00162553 0)
(1.0194 -0.00383036 0)
(1.01697 0.00654411 0)
(1.0183 -0.00637205 -3.89203e-22)
(1.01749 -0.00917333 -8.00276e-22)
(1.01708 -0.0121749 0)
(1.01708 -0.0151845 2.1034e-21)
(1.01882 -0.0164672 -1.65998e-21)
(1.02047 0.000208613 0)
(1.02283 0.0135592 -3.71036e-25)
(1.01861 0.0136716 1.47559e-21)
(1.01986 0.0155679 -5.28073e-21)
(1.02138 0.0145276 1.50853e-21)
(1.02545 0.0116051 -4.69299e-22)
(1.02418 0.0125752 -7.61319e-22)
(1.02764 0.00988014 0)
(1.02659 0.0106995 0)
(1.02961 0.00850777 -1.30575e-24)
(1.02864 0.00916121 0)
(1.03139 0.00739986 0)
(1.03053 0.00792414 0)
(1.03294 0.00648167 0)
(1.03219 0.00692203 0)
(1.03431 0.00569846 0)
(1.03365 0.00607491 0)
(1.03554 0.00502745 -1.10567e-24)
(1.03494 0.00535017 0)
(1.03663 0.00445356 0)
(1.0361 0.00472915 0)
(1.0376 0.00396504 0)
(1.03713 0.00419957 0)
(1.03845 0.00354662 0)
(1.03804 0.00374823 0)
(1.0392 0.0031808 0)
(1.03884 0.00335826 0)
(1.03987 0.00285257 9.08505e-25)
(1.03955 0.00301278 0)
(1.04047 0.00255267 2.29165e-27)
(1.04018 0.0026995 0)
(1.041 0.00227672 0)
(1.04074 0.00241186 0)
(1.04148 0.00202383 -1.86728e-27)
(1.04125 0.00214745 0)
(1.04192 0.00179413 0)
(1.04171 0.00190609 0)
(1.0423 0.00158746 0)
(1.04212 0.00168806 0)
(1.04264 0.00140123 0)
(1.04248 0.00149204 0)
(1.04294 0.0012329 0)
(1.0428 0.0013149 0)
(1.04319 0.00108298 0)
(1.04307 0.00115555 0)
(1.0434 0.00095197 -2.56756e-24)
(1.0433 0.00101529 0)
(1.04357 0.000834035 -1.23116e-24)
(1.04349 0.000891672 0)
(1.04369 0.000703655 1.49902e-22)
(1.04364 0.000771485 -1.52339e-22)
(1.04375 0.000630503 1.42539e-22)
(1.04384 0.000242813 3.39657e-23)
(1.04389 0.000347548 8.47208e-24)
(1.04386 0.00030402 -1.02957e-22)
(1.04379 0.000168273 0)
(1.04381 0.000201408 0)
(1.04375 9.75539e-05 -1.05364e-27)
(1.04376 0.000134799 0)
(1.04376 1.11168e-05 0)
(1.04375 5.99805e-05 0)
(1.0438 -7.01049e-05 1.36197e-22)
(1.04378 -2.60974e-05 -1.39327e-22)
(1.04384 -0.000126181 -6.05986e-24)
(1.04377 -0.000432896 -1.26084e-25)
(1.0439 -0.000342086 -1.35792e-22)
(1.04384 -0.000387401 2.22008e-25)
(1.04361 -0.000534711 -7.53751e-23)
(1.04369 -0.000481915 7.55035e-23)
(1.04341 -0.000634732 -1.25239e-24)
(1.04351 -0.000584727 0)
(1.04319 -0.000743543 -1.30134e-24)
(1.0433 -0.000687966 0)
(1.04294 -0.000863455 -3.19747e-27)
(1.04307 -0.000802091 0)
(1.04266 -0.000996153 0)
(1.0428 -0.000928098 0)
(1.04236 -0.00114505 0)
(1.04251 -0.00106834 0)
(1.04201 -0.00131509 0)
(1.04219 -0.00122713 0)
(1.04163 -0.00151197 0)
(1.04183 -0.00140988 0)