/*--------------------------------*- C++ -*----------------------------------*\
  =========                 |
  \\      /  F ield         | OpenFOAM: The Open Source CFD Toolbox
   \\    /   O peration     | Website:  https://openfoam.org
    \\  /    A nd           | Version:  10
     \\/     M anipulation  |
\*---------------------------------------------------------------------------*/
FoamFile
{
    format      ascii;
    class       volVectorField;
    location    "18.5";
    object      U;
}
// * * * * * * * * * * * * * * * * * * * * * * * * * * * * * * * * * * * * * //

dimensions      [0 1 -1 0 0 0 0];

internalField   nonuniform List<vector> 
28942
(
(0.00489827 -0.00252553 -2.91849e-22)
(0.00662574 -0.00271134 -5.12436e-23)
(0.018309 -0.0126264 -9.84869e-22)
(0.103304 0.0182387 -5.76438e-21)
(0.102342 0.0222802 1.88273e-21)
(0.0245947 0.000928694 0)
(0.0293095 0.000578568 2.21207e-23)
(0.0336301 0.00118906 -1.96483e-23)
(0.134679 -0.0156211 -3.39075e-22)
(0.133176 -0.0140767 9.58446e-22)
(0.011597 0.00556325 -4.99153e-22)
(0.0183853 0.00737777 1.69066e-22)
(0.008325 0.00410001 0)
(0.00570127 0.00288617 0)
(0.0700702 0.0025183 -2.80283e-23)
(0.0678556 0.00352807 -9.27936e-24)
(0.0894867 0.0158351 7.21716e-22)
(0.0871698 0.0138411 1.15881e-21)
(0.0122628 -0.0152172 3.29864e-21)
(0.0295842 -0.0306719 -8.69705e-22)
(0.0986106 0.0370595 1.0426e-21)
(0.097724 0.0341162 0)
(0.0201945 0.00543651 1.06162e-21)
(0.00856966 0.00272892 4.83241e-22)
(0.0397148 0.00812768 8.30633e-22)
(0.0599256 0.0037176 -7.57231e-22)
(0.00769344 -0.0184991 9.0314e-21)
(0.00673156 -0.0165582 -3.31523e-21)
(0.0360044 -0.0255934 6.84059e-22)
(0.0195565 -0.0138365 2.38707e-22)
(0.0251574 -0.00242906 0)
(0.0314441 -0.00235389 -2.3188e-23)
(0.0392385 0.00622947 5.03598e-22)
(0.0546991 0.00228187 -9.38406e-23)
(0.0190412 0.018191 1.44364e-21)
(0.0158894 0.0193076 -1.48066e-21)
(0.0325045 0.0379646 -3.28179e-21)
(0.0188489 0.0308326 -1.12786e-21)
(0.0138279 0.000277946 -1.81089e-23)
(0.00873762 0.0163582 -2.78366e-21)
(0.0306474 -0.00620319 0)
(0.0513405 -0.0109696 0)
(0.106656 -0.011948 -4.9584e-23)
(0.106528 -0.0112696 1.46238e-22)
(0.107579 -0.0118958 1.27157e-22)
(0.0465039 0.000665762 2.16913e-23)
(0.0434179 -0.000390452 -3.61247e-23)
(0.0600977 -0.000439351 -1.49225e-22)
(0.0578425 -0.000491146 4.1855e-23)
(0.0479559 -0.00371588 -3.69075e-22)
(0.0367233 -0.00479983 2.34996e-22)
(0.125276 0.00260175 -5.63178e-22)
(0.124966 0.00210676 -5.12625e-22)
(0.134268 -0.0185805 -4.03849e-24)
(0.132565 -0.0169442 1.79533e-22)
(0.0872443 0.00934405 6.10834e-22)
(0.106635 0.002331 1.78842e-22)
(0.00360468 0.00202661 -4.73278e-22)
(0.010153 0.00453436 0)
(0.00922344 0.00390931 2.08414e-22)
(0.00333929 0.00180431 4.06564e-22)
(0.000486631 0.000318183 -3.40643e-22)
(0.000302897 0.000206266 -3.15663e-22)
(0.112068 -0.0424479 0)
(0.10777 -0.0250921 8.57406e-23)
(0.124457 -0.0320283 -2.01393e-23)
(0.125538 -0.0429608 0)
(0.0904199 -0.0324648 -6.91788e-22)
(0.09395 -0.0348798 -4.56436e-22)
(0.00209913 -0.00124586 9.60433e-22)
(0.00277419 -0.00221118 -3.04626e-22)
(0.00537301 -0.00347023 7.57846e-22)
(0.0853442 -0.0454943 0)
(0.0916166 -0.0392683 2.35753e-21)
(0.0810868 -0.0528603 6.39658e-22)
(0.118085 0.0103537 1.46349e-22)
(0.117185 0.00414131 -1.66581e-22)
(0.128968 0.00773214 -1.73916e-23)
(0.00478011 -0.00291919 -6.32342e-23)
(0.00647053 -0.00451358 5.72529e-22)
(0.0520291 -0.0315612 1.712e-22)
(0.0339014 -0.0209229 -2.87107e-22)
(0.00229747 -0.000700977 3.05053e-21)
(0.00552181 -0.00228105 -1.19154e-21)
(0.102975 0.0483847 4.09203e-23)
(0.0986509 0.055442 -8.8084e-22)
(0.0819765 0.0544213 8.12899e-22)
(0.0479552 0.0349212 -3.05048e-21)
(0.0451779 0.0320224 2.1618e-21)
(0.0299648 0.02088 -1.33629e-22)
(0.0332138 0.0235532 -7.17287e-22)
(0.0385174 0.0287005 9.77156e-22)
(0.00610995 0.00433607 -2.76936e-23)
(0.0100285 0.00611814 -9.68938e-24)
(0.00425694 0.00307437 1.94164e-23)
(0.00279234 0.00257075 -2.40406e-22)
(0.00230358 0.00249191 2.82221e-22)
(0.0159663 0.0116931 -3.66041e-21)
(0.0177314 0.0137982 8.45501e-22)
(0.00932262 -0.0041317 0)
(0.101389 0.00516024 0)
(0.0984 0.0156846 -4.25745e-21)
(0.0604392 0.0104756 2.18913e-21)
(0.0886789 0.0178813 0)
(0.134726 -0.010018 0)
(0.133991 -0.0110936 0)
(0.133179 -0.0116328 -6.304e-22)
(0.115235 0.0255293 -2.44036e-22)
(0.114373 0.0270017 2.39652e-21)
(0.113507 0.0244743 1.28605e-21)
(0.00281638 0.00172144 8.56623e-22)
(0.00196542 0.00113885 -9.61475e-22)
(0.0208242 -0.00647863 -4.59423e-22)
(0.0224282 -0.00642914 3.72469e-22)
(0.010287 -0.00363432 7.10155e-22)
(0.00652365 0.011292 1.55761e-21)
(0.0190942 0.0183754 3.65463e-21)
(0.0135768 0.0230421 2.74741e-22)
(0.00496169 0.0144615 -9.10338e-21)
(0.119114 0.0474014 6.94144e-23)
(0.109315 0.0580846 1.25537e-21)
(0.119967 0.0544457 -2.16702e-21)
(0.0395578 -0.0296836 8.21502e-22)
(0.0242895 -0.0174378 -5.43515e-22)
(0.00534069 -0.000667483 -4.32613e-21)
(0.0045545 -0.00353536 0)
(0.012553 -0.0015678 2.1232e-21)
(0.0221971 -0.0162793 8.60612e-22)
(0.0346153 -0.0280103 -2.19128e-21)
(0.0572454 0.000172341 1.08822e-22)
(0.060438 0.000330605 -7.27731e-23)
(0.0540923 0.000402415 -3.3264e-24)
(0.0282886 -0.0421611 0)
(0.0298346 -0.0429836 0)
(0.089621 -0.0186528 -5.24673e-22)
(0.0995887 -0.0220902 3.53237e-21)
(0.0870326 -0.025279 0)
(0.0476031 -0.040447 0)
(0.0587434 -0.0515955 -8.71736e-22)
(0.0417828 0.0396994 2.24469e-21)
(0.000225556 0.000454266 3.35323e-22)
(-2.79967e-05 0.000314338 -2.02899e-22)
(0.0225344 -0.0193942 -8.78958e-22)
(0.108759 -0.0122624 7.35655e-22)
(0.108475 -0.0117227 -1.37137e-22)
(0.119916 -0.00202429 -3.52467e-23)
(0.113379 0.00553904 4.6972e-23)
(0.12217 0.00465365 8.70556e-24)
(0.000253584 0.000419934 1.41739e-22)
(0.0443631 0.0347911 3.53725e-21)
(0.0627894 0.0467398 -8.76079e-22)
(0.0603564 0.0398364 -3.57107e-24)
(0.0386163 -0.00139274 9.14406e-24)
(0.0380964 -0.00151847 5.07536e-23)
(0.0411313 -0.00158432 2.85438e-24)
(0.0456269 -0.00123153 -2.53548e-23)
(0.0460041 0.0384598 1.36882e-22)
(0.0191978 0.0162323 0)
(0.000330398 -0.000149252 2.20147e-22)
(0.000661087 -0.000506787 -2.44612e-22)
(0.00258344 -0.00159694 1.50951e-22)
(0.0385142 -0.00859271 -1.71433e-21)
(0.0677354 -0.00304434 -6.78824e-22)
(0.0522291 -0.00086045 -1.92113e-24)
(0.0767966 -0.00726744 2.54372e-22)
(0.0726699 -0.0157379 -3.2145e-23)
(0.0948244 0.0396759 2.33925e-21)
(0.092008 0.0452819 9.8736e-23)
(0.0890699 0.0289653 1.31797e-21)
(0.0918146 0.0306399 -9.55117e-22)
(0.0992593 0.0407485 0)
(0.123746 -0.00139698 1.97845e-22)
(0.124206 -0.00184095 3.82109e-22)
(0.127138 -0.0102149 -3.81619e-22)
(0.128479 -0.00985109 6.57304e-22)
(0.117215 0.0229037 3.03707e-22)
(0.119294 0.0236969 -8.62266e-22)
(0.117336 0.0249503 0)
(0.115339 0.0237815 1.76419e-22)
(0.116981 0.026932 0)
(0.117753 0.0350538 -6.33848e-22)
(0.116344 0.0372066 -3.42296e-22)
(0.112038 0.0412442 -6.09793e-22)
(0.114403 0.0392635 0)
(0.117237 0.042193 2.04549e-21)
(0.114535 0.0442428 4.73238e-23)
(0.109065 0.0435778 -3.38797e-22)
(0.100416 0.0499814 -1.42976e-21)
(0.0990708 0.0451817 -2.51061e-22)
(0.031916 -0.0138839 -4.72861e-23)
(0.040635 -0.015735 1.74895e-23)
(0.00732591 -0.00326826 -5.35738e-22)
(0.0515453 0.000131938 -7.37969e-23)
(0.0640881 -0.000223268 0)
(6.50863e-05 -0.000102474 2.76892e-22)
(7.12143e-05 -0.000101582 1.41603e-22)
(0.0586106 -0.00238182 3.23749e-23)
(0.0676596 -0.00227942 1.16343e-23)
(0.0670375 -0.00145478 0)
(0.0569198 -0.000871681 1.38777e-23)
(0.107942 0.000675754 -1.60996e-22)
(0.107914 0.000597697 7.71672e-22)
(0.108021 0.000611865 3.75345e-22)
(0.000984831 0.000532417 3.01068e-22)
(-0.000108415 -8.11115e-05 -4.60847e-22)
(-0.000167227 -0.00014457 3.67546e-22)
(0.00174691 0.000776464 0)
(0.000130102 0.000130187 1.03328e-21)
(0.000236869 -5.58987e-06 -7.1139e-22)
(0.0080462 0.00399271 -9.00034e-22)
(0.00162871 0.000879157 -1.11215e-21)
(0.00189551 0.000952235 0)
(0.00158467 0.00762981 0)
(0.000582095 0.00331798 0)
(0.000315918 0.00199992 0)
(0.134903 -0.010124 1.22108e-22)
(0.135086 -0.00991702 0)
(0.134134 -0.0112796 -1.40268e-22)
(0.0882438 -0.0146717 4.77302e-21)
(0.0902435 -0.0150707 -1.73324e-21)
(0.0891527 -0.0127112 0)
(0.109678 1.17835e-05 -9.35182e-24)
(0.10972 1.05487e-05 1.87182e-23)
(0.109633 1.37221e-05 -6.32533e-24)
(0.10976 9.56517e-06 0)
(0.109799 9.1808e-06 -1.19422e-23)
(0.109835 8.26018e-06 0)
(0.109834 -3.01967e-05 0)
(0.109869 6.49922e-06 4.43186e-23)
(0.109868 -3.08438e-05 0)
(0.109799 -3.07687e-05 -1.20192e-23)
(0.109761 -3.16289e-05 0)
(0.10972 -3.25914e-05 6.26165e-24)
(0.109677 -3.37669e-05 -9.35015e-24)
(0.109633 -3.49183e-05 6.31742e-24)
(0.109901 5.03848e-06 -4.24092e-23)
(0.1099 -3.0862e-05 -1.48467e-24)
(0.109586 1.56317e-05 8.35514e-28)
(0.109586 -3.56014e-05 -9.66112e-24)
(0.109535 1.76267e-05 5.13875e-23)
(0.109932 4.32134e-06 3.96609e-26)
(0.109931 -2.99765e-05 -1.48619e-24)
(0.109535 -3.65779e-05 1.90419e-23)
(0.109961 3.47151e-06 3.99505e-23)
(0.109989 2.75182e-06 -3.99176e-23)
(0.109961 -2.91371e-05 2.99228e-24)
(0.109988 -2.82313e-05 5.91654e-24)
(0.109483 2.13931e-05 -4.99975e-23)
(0.109483 -3.81602e-05 -1.25336e-23)
(0.110015 1.97645e-06 0)
(0.110015 -2.74261e-05 -5.83571e-24)
(0.109428 2.39054e-05 6.18396e-27)
(0.109428 -3.91907e-05 -6.19947e-27)
(0.11004 1.41457e-06 0)
(0.11004 -2.64866e-05 0)
(0.109369 2.62418e-05 0)
(0.109369 -4.05656e-05 0)
(0.110063 9.34362e-07 0)
(0.110064 -2.55232e-05 2.80601e-24)
(0.109307 2.87848e-05 -2.59601e-23)
(0.109307 -4.1832e-05 -6.33462e-27)
(0.110086 5.15064e-07 1.4712e-25)
(0.110086 -2.45137e-05 -2.99686e-24)
(0.109241 3.13716e-05 2.60842e-23)
(0.109241 -4.32858e-05 0)
(0.110107 1.49363e-08 0)
(0.110107 -2.35937e-05 0)
(0.109172 3.43528e-05 -1.65138e-24)
(0.109171 -4.45494e-05 2.83449e-23)
(0.110128 -5.10304e-07 1.82103e-23)
(0.110128 -2.25863e-05 0)
(0.109099 3.71676e-05 -1.44896e-25)
(0.109098 -4.62448e-05 -2.6828e-23)
(0.110147 -1.1484e-06 -2.72424e-23)
(0.110147 -2.17681e-05 -7.90857e-24)
(0.10902 3.88554e-05 2.73687e-23)
(0.10902 -4.79601e-05 0)
(0.110166 -1.84828e-06 8.97579e-24)
(0.110166 -2.08852e-05 5.27476e-24)
(0.108937 4.15711e-05 -1.38602e-23)
(0.108937 -5.04535e-05 2.81104e-23)
(0.110183 -2.5408e-06 -3.5886e-23)
(0.110184 -1.94687e-05 4.04468e-23)
(0.108847 4.19466e-05 1.4306e-23)
(0.108848 -5.31478e-05 4.5292e-25)
(0.1102 -3.25006e-06 0)
(0.110201 -1.85282e-05 1.92932e-23)
(0.108751 4.30141e-05 -2.87979e-23)
(0.108752 -5.70934e-05 5.76176e-23)
(0.110217 -3.44385e-06 0)
(0.110217 -1.8388e-05 0)
(0.108851 0.000135712 -1.41557e-23)
(0.108755 0.00014272 -5.73579e-23)
(0.108647 4.33883e-05 0)
(0.10865 -6.27881e-05 -2.93845e-23)
(0.109024 0.000121557 -8.88696e-24)
(0.10894 0.000128809 1.74467e-24)
(0.109176 0.000107331 0)
(0.109102 0.000114537 -2.86588e-23)
(0.109311 9.43277e-05 -5.52617e-26)
(0.109245 0.000100674 0)
(0.109432 8.23809e-05 0)
(0.109373 8.82489e-05 0)
(0.10954 7.07815e-05 0)
(0.109487 7.65774e-05 0)
(0.109636 6.16218e-05 1.24953e-23)
(0.109589 6.62086e-05 3.14944e-24)
(0.109722 5.37476e-05 -1.20479e-23)
(0.109681 5.75611e-05 -1.2482e-23)
(0.1098 4.68747e-05 2.13939e-23)
(0.109762 4.97449e-05 2.73625e-23)
(0.109871 4.09894e-05 0)
(0.109837 4.40329e-05 0)
(0.109934 3.54113e-05 -9.41017e-26)
(0.109903 3.81278e-05 0)
(0.109991 3.07296e-05 0)
(0.109963 3.29687e-05 0)
(0.110042 2.67173e-05 0)
(0.110017 2.86793e-05 0)
(0.110088 2.30277e-05 0)
(0.110065 2.48138e-05 0)
(0.110129 1.97764e-05 0)
(0.110109 2.13677e-05 0)
(0.110167 1.68693e-05 0)
(0.110149 1.83003e-05 0)
(0.110202 1.33239e-05 -1.4682e-23)
(0.110185 1.54679e-05 0)
(0.110218 1.16134e-05 -4.74934e-24)
(0.110233 -4.03283e-06 4.63383e-24)
(0.110233 -1.80733e-05 -4.59527e-24)
(0.110184 -3.6567e-05 0)
(0.110218 -3.34164e-05 -1.88526e-23)
(0.110201 -3.46894e-05 -9.69583e-24)
(0.110148 -4.07418e-05 2.65014e-24)
(0.110167 -3.85521e-05 -1.03834e-23)
(0.110108 -4.4713e-05 8.5803e-26)
(0.110129 -4.28538e-05 0)
(0.110065 -4.84845e-05 0)
(0.110087 -4.65679e-05 0)
(0.110016 -5.26033e-05 0)
(0.110041 -5.04545e-05 0)
(0.109962 -5.72552e-05 0)
(0.10999 -5.48983e-05 1.12755e-29)
(0.109902 -6.22387e-05 9.50787e-26)
(0.109933 -5.96989e-05 0)
(0.109836 -6.77605e-05 0)
(0.10987 -6.50883e-05 0)
(0.109763 -7.27744e-05 0)
(0.1098 -7.03289e-05 0)
(0.10968 -7.87063e-05 0)
(0.109723 -7.53839e-05 -6.32814e-24)
(0.109588 -8.60639e-05 1.66209e-24)
(0.109635 -8.28753e-05 -8.16293e-24)
(0.109487 -9.49554e-05 0)
(0.109539 -8.98988e-05 -6.64284e-24)
(0.109373 -0.000104191 0)
(0.109431 -9.94896e-05 0)
(0.109245 -0.000114583 0)
(0.10931 -0.000109207 0)
(0.109102 -0.000126495 0)
(0.109175 -0.000120392 0)
(0.108941 -0.000139727 -7.25891e-24)
(0.109024 -0.00013264 0)
(0.108759 -0.000156169 -2.94841e-23)
(0.108853 -0.000147071 -7.30753e-24)
(0.108658 -0.000166677 3.00401e-23)
(0.108652 0.00015035 5.68831e-23)
(0.110234 1.02647e-05 9.29699e-24)
(0.110233 -3.23767e-05 -1.8176e-23)
(0.10854 -7.00963e-05 0)
(0.10855 -0.000179646 0)
(0.108543 0.000158397 0)
(0.108537 4.27436e-05 0)
(0.108861 0.000228007 0)
(0.108666 0.000256101 1.42578e-23)
(0.108766 0.000241405 1.43796e-23)
(0.109033 0.000202099 1.826e-23)
(0.10895 0.000214834 -3.64967e-24)
(0.109184 0.000178493 5.64167e-26)
(0.109111 0.000189786 0)
(0.109318 0.000157837 0)
(0.109253 0.000167892 0)
(0.109438 0.000139311 0)
(0.10938 0.000148319 0)
(0.109546 0.00012301 0)
(0.109494 0.000130817 0)
(0.109642 0.000107932 0)
(0.109595 0.000115298 0)
(0.109728 9.52271e-05 -5.0526e-26)
(0.109686 0.000101657 1.30296e-23)
(0.109805 8.40537e-05 -4.85326e-26)
(0.109768 8.91569e-05 -2.54488e-23)
(0.109875 7.39534e-05 0)
(0.109841 7.87876e-05 0)
(0.109937 6.5209e-05 4.70073e-26)
(0.109907 6.94365e-05 0)
(0.109994 5.76324e-05 0)
(0.109966 6.12808e-05 0)
(0.110045 5.09954e-05 0)
(0.11002 5.42073e-05 0)
(0.11009 4.5099e-05 0)
(0.110068 4.7946e-05 0)
(0.110132 3.98192e-05 0)
(0.110112 4.23785e-05 0)
(0.110169 3.48324e-05 0)
(0.110151 3.72904e-05 0)
(0.110204 2.94049e-05 1.00274e-23)
(0.110187 3.2191e-05 0)
(0.110248 -4.85359e-06 0)
(0.110249 9.14165e-06 9.10368e-24)
(0.110235 2.42206e-05 0)
(0.11022 2.66427e-05 9.7783e-24)
(0.110219 -4.89205e-05 1.94604e-23)
(0.110234 -4.70414e-05 4.78617e-24)
(0.110248 -3.13874e-05 3.73262e-23)
(0.110248 -1.76065e-05 0)
(0.110186 -5.42151e-05 0)
(0.110203 -5.13135e-05 -2.93732e-23)
(0.11015 -5.98908e-05 8.35078e-26)
(0.110168 -5.69693e-05 1.04465e-23)
(0.11011 -6.53968e-05 -8.58027e-26)
(0.110131 -6.26021e-05 0)
(0.110067 -7.13552e-05 0)
(0.110089 -6.83075e-05 0)
(0.110018 -7.79547e-05 0)
(0.110043 -7.45531e-05 0)
(0.109965 -8.53206e-05 0)
(0.109992 -8.1554e-05 -1.12755e-29)
(0.109906 -9.3371e-05 -1.90127e-25)
(0.109936 -8.92616e-05 0)
(0.10984 -0.000102452 0)
(0.109874 -9.77341e-05 0)
(0.109767 -0.000112207 3.19549e-24)
(0.109804 -0.000107205 0)
(0.109685 -0.000122785 0)
(0.109727 -0.000117177 -3.18215e-24)
(0.109594 -0.000135074 6.65924e-24)
(0.109641 -0.000128844 6.61485e-24)
(0.109493 -0.000148789 0)
(0.109545 -0.000141804 0)
(0.109379 -0.000164225 0)
(0.109438 -0.000156265 0)
(0.109252 -0.000181792 0)
(0.109318 -0.000172721 0)
(0.10911 -0.000201813 0)
(0.109183 -0.000191499 0)
(0.10895 -0.000224523 1.16436e-25)
(0.109033 -0.000212802 0)
(0.108771 -0.000250813 -1.18272e-25)
(0.108863 -0.000237145 0)
(0.108566 -0.000284636 -3.09656e-23)
(0.108672 -0.000266911 3.09513e-23)
(0.108558 0.000271727 2.90232e-23)
(0.108435 -0.000194885 0)
(0.108453 -0.000305711 -6.31287e-23)
(0.108423 -7.81014e-05 0)
(0.11025 2.25908e-05 0)
(0.110249 -4.50427e-05 -4.64733e-24)
(0.108426 0.000166883 7.36235e-23)
(0.108444 0.00028863 2.94511e-23)
(0.108312 -0.000211253 1.5949e-23)
(0.108332 -0.000328777 7.978e-23)
(0.108419 4.24546e-05 0)
(0.110237 3.94602e-05 3.82981e-23)
(0.110252 3.63971e-05 -1.89247e-23)
(0.110263 -3.06752e-05 -9.20439e-24)
(0.110264 -4.3127e-05 4.57825e-23)
(0.108472 0.000407958 1.03155e-22)
(0.108321 0.000307326 -5.79946e-23)
(0.10822 0.000466238 -2.62689e-22)
(0.10835 0.000434873 -5.89076e-23)
(0.108688 0.000360391 2.8727e-23)
(0.108583 0.000383442 -8.77924e-23)
(0.108878 0.000318423 -2.93462e-23)
(0.108786 0.000338847 -2.21496e-23)
(0.109047 0.000281559 -7.30516e-24)
(0.108965 0.000299566 -7.32076e-24)
(0.109197 0.000249269 -5.64167e-26)
(0.109124 0.000264806 0)
(0.10933 0.000220916 0)
(0.109265 0.000234674 0)
(0.109448 0.00019574 0)
(0.109391 0.000207956 0)
(0.109554 0.000173433 0)
(0.109503 0.000184239 0)
(0.10965 0.000153555 0)
(0.109603 0.000163135 0)
(0.109735 0.000135894 0)
(0.109693 0.000144409 0)
(0.109811 0.000120333 7.898e-30)
(0.109774 0.000127992 0)
(0.109881 0.000106745 0)
(0.109847 0.000113253 0)
(0.109943 9.47891e-05 4.69989e-26)
(0.109912 0.000100585 0)
(0.109999 8.42781e-05 0)
(0.109971 8.9361e-05 0)
(0.110049 7.50206e-05 0)
(0.110024 7.95055e-05 0)
(0.110094 6.68067e-05 0)
(0.110072 7.07922e-05 0)
(0.110135 5.94334e-05 0)
(0.110115 6.3025e-05 0)
(0.110173 5.26117e-05 0)
(0.110154 5.59729e-05 0)
(0.110207 4.58421e-05 5.11125e-24)
(0.11019 4.91988e-05 -2.5713e-24)
(0.110222 4.25791e-05 -1.95286e-23)
(0.110263 -5.11749e-06 -4.35829e-24)
(0.110265 2.09909e-05 1.82388e-23)
(0.110263 7.75595e-06 -1.39282e-23)
(0.110262 -1.72707e-05 0)
(0.110221 -6.49082e-05 -1.45051e-23)
(0.110251 -5.87131e-05 -4.19162e-23)
(0.110236 -6.16167e-05 3.37244e-23)
(0.110188 -7.19438e-05 0)
(0.110205 -6.8412e-05 0)
(0.110153 -7.86122e-05 -8.41861e-31)
(0.110171 -7.50969e-05 0)
(0.110114 -8.59703e-05 0)
(0.110134 -8.22001e-05 0)
(0.11007 -9.41193e-05 -8.81052e-26)
(0.110092 -8.99399e-05 0)
(0.110022 -0.000103179 0)
(0.110047 -9.85267e-05 0)
(0.109969 -0.00011325 0)
(0.109997 -0.000108088 0)
(0.109911 -0.000124379 9.50618e-26)
(0.109941 -0.00011868 0)
(0.109846 -0.000136757 9.73905e-26)
(0.109879 -0.000130384 0)
(0.109773 -0.000150438 0)
(0.10981 -0.00014341 0)
(0.109692 -0.00016574 0)
(0.109734 -0.000157913 0)
(0.109602 -0.000182843 0)
(0.109649 -0.000173952 0)
(0.109502 -0.000202039 0)
(0.109554 -0.000192168 0)
(0.109389 -0.000223794 -1.09192e-25)
(0.109447 -0.000212574 0)
(0.109264 -0.000248493 0)
(0.109328 -0.000235751 0)
(0.109123 -0.000276563 0)
(0.109195 -0.000262087 0)
(0.108965 -0.000308441 -1.35228e-29)
(0.109046 -0.000292 0)
(0.108787 -0.000344788 1.87774e-29)
(0.108879 -0.000326015 0)
(0.108587 -0.000387996 1.22686e-25)
(0.10869 -0.000365078 0)
(0.108359 -0.000442559 -6.46912e-23)
(0.108477 -0.000413608 1.58883e-23)
(0.108204 -0.000352939 1.62822e-23)
(0.108234 -0.000474195 3.23007e-23)
(0.108303 0.000175586 -2.87772e-23)
(0.108299 -8.74502e-05 -3.09146e-23)
(0.110266 3.39569e-05 4.64124e-24)
(0.110265 -5.63191e-05 3.29497e-23)
(0.108187 0.000324853 3.53593e-24)
(0.108181 -0.00022947 0)
(0.108059 0.000482768 4.01263e-22)
(0.108102 -0.000507785 4.99176e-23)
(0.108069 -0.000379338 6.65664e-23)
(0.108084 0.000672514 -6.76268e-22)
(0.107973 0.000731444 1.20403e-22)
(0.108296 4.25025e-05 0)
(0.108282 0.000593851 6.64288e-23)
(0.108176 0.00063797 3.45917e-23)
(0.108509 0.000522416 5.98421e-23)
(0.108395 0.000556084 -9.13601e-23)
(0.108717 0.000460578 -2.97698e-23)
(0.108616 0.000490848 -1.488e-23)
(0.108902 0.000406616 1.49128e-23)
(0.108813 0.000432485 1.51161e-23)
(0.109067 0.000359748 0)
(0.108987 0.000382381 -3.71667e-26)
(0.109214 0.000319003 0)
(0.109143 0.000338718 0)
(0.109345 0.000283113 5.52047e-26)
(0.109281 0.000300503 0)
(0.109461 0.000251361 0)
(0.109405 0.00026676 0)
(0.109566 0.000223208 0)
(0.109515 0.000236862 0)
(0.10966 0.000198232 0)
(0.109614 0.000210335 0)
(0.109744 0.000176063 5.04853e-26)
(0.109703 0.000186786 0)
(0.10982 0.000156436 6.69809e-30)
(0.109783 0.000165998 0)
(0.109888 0.000139193 0)
(0.109855 0.000147516 0)
(0.109949 0.000123977 -9.39922e-26)
(0.10992 0.000131353 0)
(0.110005 0.000110562 0)
(0.109978 0.000117058 0)
(0.110054 9.87179e-05 0)
(0.11003 0.000104461 0)
(0.110099 8.81973e-05 0)
(0.110077 9.33066e-05 0)
(0.11014 7.87761e-05 0)
(0.11012 8.33635e-05 0)
(0.110177 7.01958e-05 0)
(0.110159 7.44028e-05 0)
(0.11021 6.21397e-05 -2.55389e-24)
(0.110194 6.60148e-05 0)
(0.110241 5.46881e-05 0)
(0.110226 5.83904e-05 -4.95934e-24)
(0.110269 4.71393e-05 2.21897e-27)
(0.110255 5.084e-05 0)
(0.110278 1.93404e-05 -1.84921e-23)
(0.110282 4.40343e-05 1.1178e-24)
(0.11028 3.20089e-05 9.06611e-24)
(0.110276 -5.15851e-06 6.65262e-24)
(0.110277 6.84612e-06 -4.592e-24)
(0.110276 -3.01131e-05 -2.3114e-24)
(0.110276 -1.73295e-05 2.3077e-24)
(0.110278 -5.4645e-05 0)
(0.110277 -4.18861e-05 -2.09727e-23)
(0.110253 -7.33135e-05 -9.42631e-24)
(0.11028 -6.77392e-05 -1.80425e-23)
(0.110267 -7.02415e-05 4.15185e-23)
(0.110224 -8.06167e-05 -4.938e-24)
(0.110239 -7.67847e-05 0)
(0.110192 -8.88732e-05 0)
(0.110208 -8.47184e-05 0)
(0.110156 -9.71293e-05 -2.24352e-30)
(0.110174 -9.29394e-05 0)
(0.110118 -0.000106349 0)
(0.110138 -0.000101611 0)
(0.110075 -0.000116633 8.81052e-26)
(0.110097 -0.000111353 0)
(0.110028 -0.000128095 0)
(0.110052 -0.00012221 0)
(0.109975 -0.000140852 0)
(0.110002 -0.000134307 0)
(0.109917 -0.000155019 0)
(0.109947 -0.000147752 0)
(0.109853 -0.000170782 -6.24358e-30)
(0.109886 -0.000162688 0)
(0.109782 -0.000188309 0)
(0.109818 -0.000179308 0)
(0.109702 -0.000207925 0)
(0.109743 -0.000197854 0)
(0.109613 -0.000229922 0)
(0.109659 -0.000218573 0)
(0.109514 -0.000254691 0)
(0.109565 -0.000241935 0)
(0.109403 -0.000282702 1.09192e-25)
(0.10946 -0.000268265 0)
(0.109279 -0.000314451 0)
(0.109343 -0.000298079 0)
(0.10914 -0.000350493 0)
(0.109211 -0.000331904 0)
(0.108984 -0.000391438 -1.16411e-25)
(0.109064 -0.000370313 0)
(0.10881 -0.000438009 1.18846e-25)
(0.1089 -0.000413977 0)
(0.108613 -0.000491322 -1.213e-25)
(0.108714 -0.000463718 0)
(0.108391 -0.0005547 1.59903e-23)
(0.108506 -0.000521114 -3.15193e-23)
(0.108141 -0.000632399 -1.61619e-23)
(0.10827 -0.000591631 3.28079e-23)
(0.107961 -0.00054363 6.61852e-25)
(0.108004 -0.000675909 3.32992e-23)
(0.108171 0.000183171 -2.9635e-23)
(0.108168 -9.58386e-05 0)
(0.108048 0.000339901 -2.876e-22)
(0.108043 -0.000244843 0)
(0.110272 6.16315e-05 -4.64883e-24)
(0.110285 5.80042e-05 3.40562e-24)
(0.110291 -5.28351e-05 -1.77685e-23)
(0.110293 -6.52231e-05 -2.01395e-23)
(0.107907 0.000486015 -2.82415e-22)
(0.107925 -0.00040737 -6.72177e-23)
(0.107855 0.000740197 0)
(0.108126 0.000804303 -7.8256e-23)
(0.107811 -0.0005823 -3.30023e-23)
(0.107858 -0.000722702 5.06385e-23)
(0.107996 0.000845226 1.56935e-22)
(0.108165 4.24365e-05 0)
(0.108339 0.000713224 0)
(0.108233 0.000759744 -6.9552e-23)
(0.108553 0.000630617 0)
(0.108446 0.00067082 0)
(0.108753 0.00055634 0)
(0.108656 0.00059221 1.54158e-23)
(0.108932 0.000492254 0)
(0.108845 0.000523173 0)
(0.109092 0.000436344 0)
(0.109014 0.000463335 0)
(0.109235 0.000387371 0)
(0.109165 0.000411083 0)
(0.109363 0.000344215 -5.52047e-26)
(0.109301 0.000365122 0)
(0.109478 0.000306062 0)
(0.109422 0.000324562 0)
(0.109581 0.00027224 0)
(0.109531 0.000288647 0)
(0.109673 0.000242221 0)
(0.109628 0.000256783 0)
(0.109756 0.000215591 -8.16276e-30)
(0.109715 0.000228502 0)
(0.10983 0.000192006 7.49478e-30)
(0.109794 0.000203449 0)
(0.109897 0.000171172 0)
(0.109865 0.00018126 0)
(0.109958 0.000152763 6.50335e-30)
(0.109928 0.000161687 0)
(0.110012 0.000136497 0)
(0.109986 0.00014438 0)
(0.110061 0.000122105 0)
(0.110037 0.000129086 0)
(0.110105 0.000109314 0)
(0.110084 0.000115526 0)
(0.110145 9.78812e-05 0)
(0.110126 0.000103443 0)
(0.110181 8.75866e-05 0)
(0.110164 9.26034e-05 0)
(0.110214 7.83284e-05 0)
(0.110198 8.28587e-05 0)
(0.110244 6.92738e-05 4.9262e-24)
(0.11023 7.36268e-05 5.03465e-24)
(0.110258 6.5227e-05 -9.46169e-24)
(0.110291 1.79105e-05 -9.08209e-24)
(0.110294 4.17559e-05 0)
(0.110292 3.01418e-05 -9.17191e-24)
(0.110289 -5.39689e-06 0)
(0.11029 6.36558e-06 9.26885e-24)
(0.110289 -2.96775e-05 1.38339e-23)
(0.110289 -1.75749e-05 -4.67523e-24)
(0.11029 -4.09436e-05 -2.71852e-23)
(0.110256 -8.78751e-05 4.75489e-24)
(0.110282 -7.99563e-05 1.77302e-23)
(0.110269 -8.43909e-05 0)
(0.110227 -9.6335e-05 -9.83901e-24)
(0.110242 -9.19218e-05 9.87148e-24)
(0.110196 -0.000105476 0)
(0.110212 -0.000100947 0)
(0.110161 -0.000115366 -3.2643e-30)
(0.110179 -0.000110298 0)
(0.110123 -0.000126444 0)
(0.110142 -0.00012075 0)
(0.110081 -0.000138826 0)
(0.110102 -0.000132466 0)
(0.110034 -0.000152646 0)
(0.110058 -0.000145549 0)
(0.109983 -0.000168048 0)
(0.110009 -0.000160142 0)
(0.109926 -0.000185197 9.50454e-26)
(0.109955 -0.000176394 0)
(0.109863 -0.000204316 -9.73842e-26)
(0.109895 -0.000194498 0)
(0.109792 -0.000225646 0)
(0.109828 -0.000214687 0)
(0.109714 -0.000249524 0)
(0.109754 -0.000237248 0)
(0.109626 -0.000276346 0)
(0.109671 -0.000262536 0)
(0.109529 -0.000306564 0)
(0.109579 -0.000291002 0)
(0.10942 -0.000340704 0)
(0.109476 -0.000323112 0)
(0.109298 -0.00037936 0)
(0.109361 -0.000359431 0)
(0.109162 -0.000423196 -1.13958e-25)
(0.109232 -0.00040059 0)
(0.109009 -0.000472973 1.16374e-25)
(0.109087 -0.000447292 0)
(0.108838 -0.000529605 -1.18804e-25)
(0.108926 -0.000500375 0)
(0.108645 -0.000594211 0)
(0.108744 -0.000560831 0)
(0.108429 -0.000668254 0)
(0.10854 -0.000629923 0)
(0.108187 -0.000755054 1.27767e-25)
(0.108312 -0.000709453 1.61573e-23)
(0.107912 -0.000859762 -8.48311e-23)
(0.108053 -0.000805061 0)
(0.107702 -0.000775148 -5.01893e-23)
(0.107761 -0.00091958 -6.69769e-25)
(0.108033 0.000190716 9.27492e-23)
(0.10803 -0.000103605 0)
(0.110297 5.41628e-05 -1.77034e-23)
(0.110295 -7.67329e-05 -3.41396e-23)
(0.107892 0.000345474 -4.94404e-23)
(0.107784 0.00064475 6.78618e-25)
(0.107749 0.000495015 1.4403e-22)
(0.107899 -0.000260607 0)
(0.107772 -0.000433956 1.69265e-23)
(0.107843 0.000883857 -1.43877e-22)
(0.107697 0.000899894 1.2479e-22)
(0.107653 0.000712796 -1.23555e-22)
(0.107652 -0.000622317 -5.08969e-23)
(0.107537 -0.000829498 3.4122e-23)
(0.1076 -0.000986546 3.34056e-23)
(0.108026 4.20173e-05 0)
(0.108168 0.000930953 4.36744e-24)
(0.107883 0.00104629 -7.25418e-25)
(0.10803 0.000986101 3.38609e-23)
(0.108393 0.000827389 3.34316e-23)
(0.108285 0.000877888 -3.36053e-23)
(0.108601 0.000732854 6.12118e-26)
(0.108498 0.000779128 0)
(0.108793 0.000648933 0)
(0.1087 0.000689475 0)
(0.108966 0.000575423 0)
(0.108882 0.000610987 0)
(0.109121 0.000510871 0)
(0.109045 0.000542095 0)
(0.10926 0.000454085 5.63719e-26)
(0.109193 0.000481587 0)
(0.109385 0.00040398 0)
(0.109324 0.00042826 0)
(0.109497 0.000359646 0)
(0.109443 0.000381145 0)
(0.109598 0.000320327 0)
(0.109549 0.000339404 0)
(0.109688 0.000285411 0)
(0.109644 0.000302353 0)
(0.109769 0.000254415 -5.04772e-26)
(0.10973 0.000269451 0)
(0.109842 0.000226931 8.58406e-30)
(0.109807 0.000240263 0)
(0.109908 0.0002026 0)
(0.109876 0.000214393 0)
(0.109967 0.000181068 9.39663e-26)
(0.109939 0.000191508 0)
(0.110021 0.000162005 0)
(0.109995 0.000171248 0)
(0.110069 0.000145109 0)
(0.110045 0.000153306 0)
(0.110112 0.000130086 0)
(0.110091 0.000137382 0)
(0.110152 0.000116671 0)
(0.110132 0.000123194 0)
(0.110187 0.000104638 0)
(0.11017 0.000110494 0)
(0.110219 9.38516e-05 8.01758e-26)
(0.110204 9.91058e-05 0)
(0.110249 8.38656e-05 -4.94772e-24)
(0.110234 8.88666e-05 0)
(0.110275 7.41737e-05 4.71121e-24)
(0.110262 7.89287e-05 0)
(0.1103 6.56625e-05 4.50632e-24)
(0.110288 6.9829e-05 -4.60235e-24)
(0.110307 3.95318e-05 8.90594e-24)
(0.110312 6.1486e-05 0)
(0.110309 5.12309e-05 1.32555e-23)
(0.110303 1.7054e-05 0)
(0.110304 2.81239e-05 0)
(0.110301 -5.83119e-06 0)
(0.110302 5.8407e-06 0)
(0.110301 -2.93751e-05 0)
(0.110301 -1.76193e-05 0)
(0.110303 -5.14861e-05 1.8109e-23)
(0.110302 -4.0302e-05 4.50253e-24)
(0.110307 -7.39812e-05 4.45751e-24)
(0.110305 -6.27855e-05 3.55114e-23)
(0.110285 -9.27191e-05 2.31142e-23)
(0.110309 -8.54717e-05 4.44081e-24)
(0.110297 -8.88314e-05 -9.01218e-24)
(0.11026 -0.000101705 4.74999e-24)
(0.110273 -9.70173e-05 -2.84725e-23)
(0.110231 -0.000111583 1.34228e-30)
(0.110246 -0.000106553 0)
(0.110201 -0.000121777 0)
(0.110216 -0.000116531 0)
(0.110167 -0.000133287 -4.29562e-30)
(0.110184 -0.000127369 0)
(0.110129 -0.000146195 0)
(0.110148 -0.000139559 0)
(0.110088 -0.000160637 0)
(0.110109 -0.000153217 0)
(0.110042 -0.00017677 0)
(0.110066 -0.000168483 0)
(0.109992 -0.00019477 0)
(0.110018 -0.000185527 0)
(0.109936 -0.000214845 -1.90082e-25)
(0.109965 -0.000204536 0)
(0.109874 -0.000237258 0)
(0.109906 -0.000225744 0)
(0.109805 -0.00026231 0)
(0.10984 -0.000249434 0)
(0.109728 -0.000290383 0)
(0.109767 -0.000275947 0)
(0.109642 -0.000321929 0)
(0.109686 -0.000305692 0)
(0.109547 -0.000357467 -1.0677e-25)
(0.109596 -0.000339168 0)
(0.10944 -0.00039759 0)
(0.109495 -0.000376919 0)
(0.109321 -0.000442977 0)
(0.109382 -0.000419584 0)
(0.109187 -0.000494395 1.13958e-25)
(0.109256 -0.000467885 0)
(0.109038 -0.000552736 -2.50782e-29)
(0.109115 -0.000522643 0)
(0.108871 -0.000619069 2.3758e-25)
(0.108957 -0.000584835 0)
(0.108684 -0.000694674 0)
(0.10878 -0.00065563 0)
(0.108473 -0.000781043 0)
(0.108581 -0.000736403 0)
(0.108238 -0.000879936 -4.68822e-29)
(0.108359 -0.000828808 0)
(0.107973 -0.000994282 0)
(0.108109 -0.000934955 0)
(0.107673 -0.00113371 -5.07882e-23)
(0.107827 -0.00106025 0)
(0.10743 -0.00105699 -6.68115e-25)
(0.107508 -0.00121523 8.65936e-23)
(0.107882 0.000195931 0)
(0.107738 0.00109027 1.96303e-22)
(0.107731 0.000351984 3.38751e-23)
(0.110304 7.70389e-05 -4.49784e-24)
(0.110315 7.29142e-05 0)
(0.110318 -7.16699e-05 4.34737e-24)
(0.11032 -8.22648e-05 -8.61647e-24)
(0.107883 -0.000110813 0)
(0.107745 -0.000277415 0)
(0.107598 0.000535866 0)
(0.107611 -0.000461855 -1.66711e-23)
(0.107482 -0.000665974 -3.37658e-23)
(0.10736 -0.000890023 0)
(0.107248 -0.00113306 8.74475e-23)
(0.107333 -0.00130135 -6.98407e-23)
(0.107878 4.20726e-05 0)
(0.107942 0.00119312 -1.62978e-26)
(0.107576 0.00113846 6.23333e-23)
(0.107642 0.00132552 -2.23005e-22)
(0.107797 0.00125906 6.46886e-23)
(0.108217 0.00105499 -2.10823e-23)
(0.108082 0.00112097 -3.35727e-23)
(0.108447 0.000937252 0)
(0.108337 0.000994227 0)
(0.108651 0.00083181 -6.12061e-26)
(0.108551 0.000883159 0)
(0.108837 0.000738331 0)
(0.108746 0.000783606 0)
(0.109004 0.000655842 0)
(0.108922 0.000695796 0)
(0.109154 0.000583116 0)
(0.109081 0.000618337 0)
(0.109289 0.000518942 -5.63719e-26)
(0.109223 0.000550038 0)
(0.10941 0.000462201 0)
(0.109351 0.000489709 0)
(0.109519 0.000411928 0)
(0.109466 0.000436314 0)
(0.109617 0.000367305 0)
(0.10957 0.000388959 0)