/*--------------------------------*- C++ -*----------------------------------*\
  =========                 |
  \\      /  F ield         | OpenFOAM: The Open Source CFD Toolbox
   \\    /   O peration     | Website:  https://openfoam.org
    \\  /    A nd           | Version:  10
     \\/     M anipulation  |
\*---------------------------------------------------------------------------*/
FoamFile
{
    format      ascii;
    class       volScalarField;
    location    "26";
    object      p;
}
// * * * * * * * * * * * * * * * * * * * * * * * * * * * * * * * * * * * * * //

dimensions      [0 2 -2 0 0 0 0];

internalField   nonuniform List<scalar> 
6397
(
0.293379
0.281641
0.0104924
0.0106619
0.000222904
0.00153593
0.520096
0.302012
-0.372036
-0.361408
0.24555
0.133601
4.18787e-05
0.000133975
-0.00629306
-0.550916
-0.550105
-0.528265
0.839562
0.796058
0.753284
-0.401736
-0.348001
-0.330873
0.000764595
0.0003773
0.00141066
-0.0783298
-0.0899716
-0.0691169
-0.0777658
0.017332
0.018024
0.0102259
0.0268107
0.0275496
0.0233652
0.0240167
0.0333851
0.033523
0.0308022
0.0311089
-0.0631897
-0.0196938
-0.0206498
0.00145618
-0.0090574
-0.00858136
0.0345149
0.0347061
0.0344009
0.0349148
0.0350899
0.299578
0.279803
0.221287
0.232493
0.0733309
-0.16343
-0.168335
-0.146967
-0.12447
-0.101171
-0.0821813
-0.0692057
-0.0618322
-0.0592195
-0.0614457
-0.14664
-0.160762
-0.141902
-0.140764
-0.126072
-0.106362
-0.0872237
-0.0722186
-0.0630134
-0.0587012
-0.0588781
-0.0637825
-0.129314
-0.144169
-0.0693175
-0.0744468
-0.113476
-0.12443
-0.0827833
-0.0910341
-0.0978926
-0.105459
-0.101039
-0.113198
-0.0845764
-0.0741223
-0.122214
-0.13995
-0.0857242
-0.0659155
-0.0745882
-0.110347
-0.0985225
-0.120642
-0.118684
-0.102443
-0.114921
-0.0713371
-0.0864981
-0.0542104
-0.0603209
-0.0542193
-0.0522657
-0.0731311
-0.0608359
-0.116805
-0.0917492
-0.147665
-0.0685461
-0.0988479
-0.0820997
-0.0547397
-0.0587953
-0.0615796
-0.05582
-0.0888443
-0.072076
-0.139065
-0.112239
-0.181696
-0.165093
-0.173675
-0.185373
-0.129342
-0.152819
-0.090515
-0.107549
-0.0669243
-0.070119
-0.0601531
-0.180118
-0.166914
-0.0730543
-0.115258
-0.0843483
-0.206066
-0.179193
-0.209108
-0.0640699
-0.0553685
-0.0508663
-0.0577595
-0.143949
-0.0701355
-0.0617104
-0.0875792
-0.0792559
-0.0940789
-0.0933477
-0.0787541
-0.0891063
-0.0548179
-0.0662548
-0.0429988
-0.0469553
-0.0456717
-0.042616
-0.0658671
-0.0530803
-0.111296
-0.0850946
-0.143884
-0.0509149
-0.0610007
-0.0448367
-0.0452474
-0.0579316
-0.0492832
-0.0913126
-0.0716273
-0.146569
-0.1171
-0.190279
-0.173004
-0.178105
-0.191465
-0.128886
-0.155095
-0.0865011
-0.10533
-0.0732947
-0.0626402
-0.0649097
-0.0494939
-0.0571203
-0.0906298
-0.125813
-0.187558
-0.164333
-0.196251
-0.2239
-0.216908
-0.0569793
-0.0868777
-0.050991
-0.0596172
-0.0535177
-0.0512819
-0.0402288
-0.0432379
-0.0491879
-0.0554404
-0.159435
-0.0424751
-0.0404642
-0.0524101
-0.0464337
-0.0655251
-0.0590286
-0.0689919
-0.0695145
-0.0559135
-0.0646207
-0.0377475
-0.0462671
-0.0305066
-0.0326197
-0.0348791
-0.0314035
-0.0543196
-0.042303
-0.0972424
-0.0725433
-0.129086
-0.045431
-0.0525826
-0.0315034
-0.0375117
-0.0325711
-0.029775
-0.0505841
-0.0398488
-0.0870707
-0.0660654
-0.144072
-0.11396
-0.188067
-0.171184
-0.17421
-0.188634
-0.122642
-0.149616
-0.0790339
-0.0986278
-0.0648831
-0.0611705
-0.0621751
-0.0573889
-0.214541
-0.12513
-0.19306
-0.040447
-0.0752958
-0.215653
-0.205294
-0.0560349
-0.0491004
-0.0583959
-0.0515962
-0.044943
-0.0383876
-0.0303047
-0.0342256
-0.209581
-0.181427
-0.185862
-0.0446887
-0.161744
-0.029004
-0.0289367
-0.0347133
-0.0309483
-0.0438249
-0.0397452
-0.045583
-0.0462219
-0.0346034
-0.0413719
-0.0217947
-0.027416
-0.0180525
-0.0187711
-0.0229301
-0.0194133
-0.0402148
-0.0295863
-0.0773976
-0.0559497
-0.137332
-0.105176
-0.188601
-0.168304
-0.16263
-0.1878
-0.0187738
-0.00993901
-0.0168601
-0.0173682
-0.0203342
-0.011163
-0.0135716
-0.0182036
-0.0128068
-0.0389139
-0.0270387
-0.0758955
-0.054849
-0.13281
-0.102815
-0.176142
-0.159778
-0.161159
-0.176007
-0.110327
-0.136742
-0.0677434
-0.0863474
-0.0542218
-0.0628737
-0.0621889
-0.0607749
-0.0286213
-0.00279553
-0.138172
-0.120191
-0.11224
-0.181424
-0.040149
-0.0422375
-0.0327845
-0.0269568
-0.0590712
-0.17543
0.00128246
-0.0199112
-0.143942
-0.0934718
-0.0726142
-0.034094
-0.149059
-0.0195145
-0.0300811
-0.0239315
-0.0154843
-0.0167563
-0.0181292
-0.0159255
-0.024151
-0.02129
-0.0244831
-0.02549
-0.0157656
-0.0208794
-0.00742148
-0.0108215
-0.00614024
-0.00598381
-0.0109168
-0.00770638
-0.0252545
-0.0165574
-0.0548802
-0.0378087
-0.102895
-0.0771768
-0.150113
-0.130306
-0.133767
-0.153771
-0.0465373
-0.0940792
0.0150886
0.0180259
0.017913
0.00799595
0.0110095
0.00763287
0.00641017
0.00820681
0.00874303
-0.00229665
0.00449427
-0.0237957
-0.0117866
-0.0596273
-0.0393694
-0.113984
-0.0853801
-0.154873
-0.139574
-0.139947
-0.154267
-0.092432
-0.116964
-0.0540279
-0.0710039
-0.0415976
0.00132492
0.0154605
-0.0310472
-0.00102288
-0.0316278
-0.0228132
-0.0424813
-0.0313631
-0.0605635
-0.0525555
-0.068172
-0.0658879
-0.0637407
-0.0674347
-0.0484309
-0.0573368
-0.0379002
-0.0918081
-0.153817
-0.044444
-0.136803
-0.0161388
-0.102756
0.0109236
-0.00173491
-0.0564818
0.0354287
0.000675149
-0.0191784
-0.0267479
-0.124677
-0.00817391
-0.0131459
-0.00256351
-0.00478011
-0.00317663
-0.00235114
-0.00667018
-0.00499288
-0.00612871
-0.0072594
0.000221516
-0.00329867
0.00488333
0.00320507
0.00467045
0.00525259
0.000432651
0.00317256
-0.0108243
-0.00412133
-0.0325746
-0.0201578
-0.0676076
-0.0485695
-0.105322
-0.0881157
-0.098573
-0.111207
-0.0216164
-0.0645949
0.0604679
0.0224895
0.030313
0.0210451
0.0262534
0.0335758
0.0329427
0.0306542
0.0323567
0.027921
0.0286825
0.0250356
0.0271815
0.0131381
0.0203146
-0.00749471
0.00382943
-0.040019
-0.0217605
-0.0890804
-0.0631525
-0.126593
-0.112528
-0.112798
-0.125806
-0.0717429
-0.0927259
-0.0387
-0.0533747
-0.0207663
-0.0281853
-0.0118156
-0.0154079
-0.00949959
-0.0458381
-0.0209964
-0.0335163
-0.0666213
-0.0570634
-0.0775501
-0.0736527
-0.0748828
-0.0778728
-0.0596326
-0.0685943
0.00407317
0.0138768
0.063591
0.0909324
-0.0357134
-0.0483914
-0.0710323
-0.120363
-0.0357487
-0.10121
-0.0170496
-0.0708583
-0.00794337
-0.0299222
0.00377813
-0.00642244
0.0241007
0.113553
0.0854617
0.0124341
-0.00959757
0.000851203
0.130563
0.121248
0.135251
-0.022742
-0.0468884
-0.0306823
-0.0973756
-0.0080562
-0.0150915
0.00276681
-0.00220747
0.00872563
0.00628824
0.00963961
0.00968703
0.0079187
0.00874829
0.0089667
0.00784422
0.0131074
0.0109933
0.0150872
0.0145594
0.0141593
0.0148753
0.0106105
0.0128402
0.00224877
0.00712323
-0.0126285
-0.00426531
-0.0352342
-0.0230471
-0.059275
-0.0482516
-0.0521053
-0.0624805
0.00201488
-0.0309375
0.0732098
0.0391136
0.10103
0.0290874
0.0218445
0.039294
0.0346006
0.0460411
0.0430918
0.047139
0.0472356
0.0442289
0.0458116
0.039115
0.042197
0.0273653
0.0341587
0.00909817
0.0189594
-0.0181458
-0.00290235
-0.0607048
-0.0379157
-0.0944014
-0.0816462
-0.0826369
-0.0935622
-0.0495502
-0.066301
-0.0236208
-0.0350834
-0.00894692
-0.0151632
-0.00155123
-0.00458356
0.000586247
-0.0245676
-0.0116199
-0.0512509
-0.0377059
-0.0756175
-0.0641908
-0.0901439
-0.0845126
-0.0895513
-0.0918851
-0.0737565
-0.0834068
-0.0613017
-0.0559993
-0.091285
-0.0333129
-0.0750744
-0.0220079
-0.0489956
-0.0184709
-0.0108247
-0.0215275
0.0428503
-0.0133347
-0.0266468
0.10356
0.142538
0.14276
-0.00215487
-0.0302732
-0.0156992
0.143384
0.132537
0.130904
-0.0600571
-0.0414439
-0.00913811
-0.0165323
-0.0753959
0.0030745
-0.00356098
0.0127211
0.00809148
0.0183319
0.0159454
0.0199888
0.0195629
0.0196145
0.0197821
0.0208683
0.01993
0.023059
0.0220973
0.0233398
0.0234562
0.0222329
0.0229106
0.0193996
0.0211358
0.0135196
0.016867
0.00398411
0.00924094
-0.0090231
-0.00221884
-0.0204844
-0.0156583
-0.0135074
-0.0206385
0.0261973
0.00222783
0.0799521
0.0535583
0.118231
0.102105
0.128429
0.0198196
0.00964793
0.0354076
0.0283285
0.0459266
0.0410289
0.053796
0.0501466
0.058121
0.0564759
0.0569692
0.0581153
0.0515194
0.054737
0.0412905
0.0470242
0.0265425
0.0344209
0.00455815
0.0170254
-0.0323076
-0.0123835
-0.0606634
-0.0503984
-0.052386
-0.0605803
-0.0281
-0.0402995
-0.00922134
-0.0176285
0.0018821
-0.00276616
0.00767907
0.00527732
0.00932393
-0.00212261
0.00882608
-0.0284127
-0.014897
-0.0576789
-0.0426797
-0.0858791
-0.0724462
-0.104441
-0.0968111
-0.106432
-0.107809
-0.0896711
-0.100228
-0.0759546
-0.0488527
-0.071786
-0.0363611
-0.058715
-0.032194
-0.0340784
-0.0351352
0.0039732
-0.0419248
0.058258
-0.048013
0.118354
-0.0307954
-0.0500981
0.148535
0.123537
0.137963
-0.018876
-0.0623974
0.00352713
-0.00724436
-0.00408403
0.0132389
0.00770075
0.0211642
0.0172635
0.0260764
0.0240197
0.0281226
0.0274082
0.0287056
0.0284299
0.0297858
0.0292008
0.0304582
0.0302913
0.0299376
0.0302965
0.0288916
0.0294878
0.0267237
0.0280054
0.0228542
0.0250009
0.0172532
0.0202543
0.0108527
0.0140027
0.00782197
0.00845425
0.01752
0.0104338
0.0467672
0.0302279
0.0846478
0.0659888
0.112194
0.100502
0.120397
0.118834
0.109304
0.117126
0.00716784
-0.0156431
-0.00378059
0.0259146
0.0171541
0.0401855
0.0335324
0.0506291
0.0457483
0.0587149
0.0549146
0.0641844
0.0618912
0.0655691
0.0655417
0.0621687
0.0643806
0.0548748
0.0589578
0.0439703
0.0499108
0.0254175
0.0362374
-0.00678143
0.010415
-0.0298451
-0.0216824
-0.0246538
-0.0300008
-0.00886502
-0.0167868
0.00362767
-0.00198959
0.0114532
0.00807033
0.0156119
0.0138554
0.0179182
0.0169371
0.0183214
-0.00445156
0.016153
0.00684724
-0.0312928
-0.0171262
-0.0636342
-0.0469587
-0.0954397
-0.0801666
-0.117801
-0.108308
-0.122357
-0.122713
-0.104894
-0.116271
-0.0714017
-0.0893851
-0.0219983
-0.0528567
-0.0469384
-0.0275699
0.111223
0.0972334
-0.0486513
-0.0614715
0.0243476
-0.0457261
-0.0496043
0.001714
-0.0242482
-0.00123146
-0.050067
-0.024914
-0.0595062
0.0140921
-0.068782
0.071485
-0.0742241
0.13009
-0.0724814
0.14668
-0.0387627
-0.0628365
0.125738
0.0942628
0.0815065
-0.0576388
0.0140149
0.00956598
0.0218336
0.0182779
0.0281631
0.0251837
0.0324407
0.0305592
0.0345666
0.0337406
0.0355676
0.0351471
0.0361192
0.0359337
0.035883
0.0361162
0.0351422
0.035534
0.0342201
0.0347295
0.0326572
0.0335398
0.0303143
0.0315731
0.0274486
0.0289069
0.025246
0.0261282
0.026887
0.0252977
0.0376277
0.0308329
0.0599983
0.0474052
0.0866265
0.0736702
0.105046
0.0974773
0.108786
0.10902
0.0964622
0.10443
0.070603
0.0849914
-0.00313869
-0.0206188
-0.0122663
0.0150854
0.00609496
0.0309764
0.0233165
0.0437305
0.0376767
0.0537318
0.0490214
0.0617058
0.0579287
0.0676827
0.0650089
0.0706111
0.06963
0.0696663
0.0705699
0.0656978
0.068013
0.0581305
0.0625354
0.0418623
0.0515231
0.0149799
0.0289128
-0.00281071
0.00359704
-0.00124029
-0.00374194
0.00724895
0.00288956
0.0145251
0.0111861
0.0194957
0.0172679
0.0223903
0.0210426
0.0240034
0.0232877
0.0242431
0.0149478
0.0225842
-0.00538834
0.00554021
-0.0331771
-0.0182052
-0.0678867
-0.0500009
-0.102266
-0.0856468
-0.127425
-0.116572
-0.134041
-0.133556
-0.116197
-0.128184
-0.078497
-0.0989918
-0.0560313
-0.0482654
-0.0274983
0.0625684
0.0542813
-0.0558589
-0.058982
0.0193167
0.0151738
-0.0641896
-0.0483074
-0.0782139
-0.0231313
-0.0935432
0.0198732
-0.103715
0.08407
-0.104742
0.13794
-0.0954123
0.136018
-0.0769514
0.106768
-0.0322967
-0.0554038
0.0727873
-0.015199
-0.0173405
-0.0348096
0.0268083
0.0408476
0.0358508
-0.0608438
0.0248961
0.0226657
0.0298347
0.0277821
0.0342786
0.032303
0.0376717
0.0362613
0.0396061
0.0388647
0.0404389
0.0401579
0.0404766
0.0405642
0.0398848
0.0402403
0.0391531
0.0395162
0.0383792
0.0387907
0.0373397
0.037895
0.0361023
0.0367312
0.0350558
0.035509
0.0353345
0.0349214
0.0392019
0.0366454
0.0495037
0.0434446
0.0667282
0.0573138
0.0854352
0.0764759
0.0974617
0.0926469
0.0979806
0.0993757
0.0859254
0.0936235
0.0626291
0.0754445
0.0326442
0.0483259
-0.00654693
-0.0116545
0.00680264
-0.000181086
0.0216102
0.0141783
0.0350394
0.0285549
0.0464121
0.040943
0.0557496
0.0513178
0.0634186
0.0597632
0.0694435
0.0666713
0.0731402
0.0716368
0.073944
0.0738723
0.0723482
0.0734306
0.0670943
0.0704035
0.0535965
0.0615888
0.0330691
0.0434454
0.0191491
0.0247759
0.0169769
0.0169624
0.0199581
0.0182358
0.0233702
0.0217273
0.0260104
0.0248015
0.0276944
0.0269625
0.0287374
0.0282802
0.0288055
0.029041
0.0283515
0.0145699
0.0216764
-0.00522259
0.0055859
-0.0338234
-0.0183732
-0.069294
-0.0510638
-0.104673
-0.0874974
-0.131
-0.119566
-0.138453
-0.137647
-0.120415
-0.132634
-0.0793061
-0.102146
-0.0238201
-0.053006
0.0103776
-0.000410163
-0.0733886
-0.0663704
0.0162292
0.0161575
0.0225178
0.00749508
0.0227191
0.0309932
0.0173039
-0.0947574
-0.0573838
-0.11928
-0.0284951
-0.139337
0.0238801
-0.146904
0.0966531
-0.137863
0.135925
-0.116044
0.121376
-0.0870312
0.0834531
-0.0179336
-0.00437319
-0.00357826
-0.0168611
-0.0589052
0.0471296
-0.035275
0.000985353
0.0316339
0.014514
-0.0747784
0.0315821
0.0282716
0.0352783
0.0344989
0.0375277
0.036714
0.0399537
0.0388982
0.0420874
0.0412045
0.043368
0.0428903
0.0437894
0.0436966
0.0434862
0.0437161
0.0428272
0.0431774
0.0421721
0.0424922
0.0415524
0.0418645
0.0409311
0.0412373
0.040456
0.0406582
0.0405542
0.0403907
0.0421764
0.0410956
0.046852
0.0440326
0.0560466
0.0508591
0.0693053
0.0622852
0.0823714
0.0762105
0.0899366
0.0870925
0.0885887
0.0904784
0.0771335
0.0841271
0.0568946
0.0679808
0.0444436
-0.00225736
-0.00398063
0.00448954
0.000608169
0.0150214
0.0093852
0.0269411
0.020969
0.0383339
0.0327602
0.048394
0.0435318
0.0569668
0.0528603
0.0641993
0.0607348
0.0700611
0.0673274
0.0740712
0.0723249
0.0758555
0.07523
0.0755344
0.0759625
0.0718711
0.0743025
0.0616701
0.0676663
0.0467913
0.0542643
0.0350939
0.0409802
0.0300908
0.0317771
0.0294844
0.0294872
0.0302564
0.0298005
0.0312148
0.0307408
0.0319464
0.0316213
0.0323952
0.0322036
0.0322951
0.0324189
0.0319579
0.0267684
0.0306379
0.0153068
0.0213579
-0.00431491
0.00650942
-0.0327786
-0.0174941
-0.0673945
-0.0496373
-0.101959
-0.0851767
-0.127497
-0.116462
-0.134244
-0.13375
-0.115881
-0.128236
-0.0746816
-0.0976022
-0.0268615
-0.0505022
-0.00485305
0.0171925
0.0245223
-6.6985e-05
0.00382768
-0.103987
-0.0860218
-0.140099
-0.0758333
-0.174817
-0.0370419
-0.0038126
-0.196091
0.0291591
-0.194948
0.104317
-0.16938
0.121244
-0.00176048
0.00902899
0.0114331
0.000958852
-0.131083
0.0944784
-0.014509
-0.0920992
0.0536855
-0.0335124
-0.058845
0.0178544
0.0258934
0.0343464
0.0332023
-0.0159799
-0.00914854
0.0343623
-0.101913
0.0339442
0.0320676
0.0323417
0.0393501
0.036625
0.0429907
0.0418698
0.0439256
0.0436506
0.044715
0.0443805
0.0455289
0.0451844
0.0460363
0.0458639
0.0460425
0.0461147
0.0455785
0.0458586
0.0449468
0.0452658
0.0443752
0.0446493
0.0439075
0.0441274
0.0435991
0.0437264
0.0436292
0.0435547
0.044398
0.0438857
0.0466447
0.0452821
0.0513525
0.0486382
0.0591936
0.0548896
0.0693711
0.0641114
0.0784775
0.0742442
0.0830317
0.0815176
0.0804944
0.082714
0.0700035
0.0762197
0.0525634
0.0619509
0.0305922
0.0419687
0.00778711
0.0190384
-0.0213664
-0.012923
-0.00297281
0.00643641
0.00728165
0.00808648
0.00675698
0.013355
0.0102948
0.0216136
0.0172244
0.0313174
0.0263961
0.0410103
0.0362177
0.0498497
0.0455491
0.0576345
0.0538756
0.0643548
0.0611215
0.0699201
0.0672996
0.0739657
0.0721444
0.0762291
0.0753203
0.0765973
0.0766645
0.0740697
0.0758155
0.0665469
0.0709762
0.0552191
0.0610156
0.0450428
0.0501041
0.0389372
0.0414273
0.036336
0.0373341
0.0354377
0.0357516
0.0352259
0.0352777
0.0352025
0.0352117
0.035099
0.0351809
0.0348042
0.0350171
0.0342384
0.0346411
0.0339547
0.0268668
0.0305477
0.0158225
0.0219863
-0.00295978
0.00755124
-0.0301827
-0.0156566
-0.0627168
-0.046078
-0.0947816
-0.0792883
-0.117696
-0.107961
-0.122465
-0.122798
-0.104056
-0.116132
-0.0668477
-0.0870194
-0.0266037
-0.0465263
0.00276757
-0.00893557
0.0148601
-0.149194
-0.116669
-0.021287
-0.00523702
-0.011764
-0.200727
-0.0985792
-0.00779396
-0.241159
-0.0428764
-0.257009
0.0413295
-0.0237521
0.0145045
0.0235335
0.0274252
0.018349
-0.239296
0.104033
0.00424348
-0.192842
0.0955253
-0.0321354
-0.0312295
-0.0114999
-0.13803
0.0598873
-0.0303122
-0.0909751
0.0184627
-0.0553487
0.0373633
0.0326377
0.0372081
0.0275635
0.0349541
0.0342672
0.0334834
-0.141984
0.0400965
0.0383382
0.0441725
0.041953
0.0474395
0.0461332
0.0481818
0.0481111
0.0480412
0.0481697
0.0479273
0.0479934
0.0478194
0.0478985
0.047525
0.0477066
0.0469991
0.0472863
0.046416
0.0467025
0.0459234
0.0461544
0.0455884
0.0457325
0.0454984
0.0455047
0.04584
0.0455996
0.0469599
0.0462753
0.0494013
0.0479799
0.0537606
0.0513172
0.0602458
0.0567643
0.0678921
0.0640525
0.0743317
0.0714529
0.0768799
0.0762252
0.0736989
0.0760542
0.0642358
0.0697161
0.04926
0.0573336
0.0307887
0.0402999
0.0116643
0.0211098
0.00273058
0.0179012
0.0202734
0.015453
0.016264
0.0165055
0.0155256
0.0204927
0.0181864
0.0269532
0.0234435
0.0349594
0.0308668
0.0431587
0.0390377
0.0509152
0.0471191
0.0579198
0.0545165
0.0640781
0.0611054
0.06927
0.0668078
0.0731728
0.0713836
0.0755949
0.0745762
0.0762908
0.0761771
0.0744485
0.0757675
0.0686146
0.0720608
0.0594493
0.0642328
0.0506679
0.0549062
0.0445982
0.0472793
0.0410761
0.0425774
0.0391989
0.0399857
0.0382055
0.0386266
0.037615
0.0378928
0.03711
0.0373951
0.036615
0.036886
0.0359434
0.0362584
0.0355773
0.0328221
0.0346591
0.0342815
0.0268965
0.0302413
0.0164764
0.0224586
-0.00149848
0.00852628
-0.0269062
-0.0134275
-0.0565746
-0.0414944
-0.0848888
-0.0713552
-0.103864
-0.0960577
-0.105886
-0.107331
-0.0878077
-0.0992338
-0.0552119
-0.072554
-0.0208766
-0.0377727
0.00804547
-0.00501408
0.018111
-0.0281251
-0.0165428
-0.208078
-0.153842
-0.013831
-0.270089
-0.118903
0.0319188
0.0397949
0.0451054
0.0369593
-0.307519
-0.0403817
-0.0335061
0.02282
-0.308665
0.0509399
0.00793368
-0.268673
0.0873262
-0.0415316
-0.0432871
-0.00773014
-0.202437
0.0578626
-0.045266
-0.0266537
-0.135916
0.0173757
-0.0496921
-0.0846755
0.0372892
0.0357126
-0.033304
-0.0198212
-0.192214
0.040362
0.0393074
0.0397407
0.0422806
0.0413723
0.0469722
0.0448607
0.0497036
0.0485797
0.050428
0.050341
0.0499656
0.0502742
0.0493851
0.049668
0.048913
0.0491445
0.0484413
0.0486838
0.0478967
0.0481772
0.0473634
0.0476187
0.0469473
0.0471378
0.0467171
0.0468043
0.0467714
0.0467008
0.0472848
0.0469571
0.0485442
0.0478009
0.0509336
0.0495759
0.0547865
0.0526703
0.0600507
0.0572766
0.0658272
0.0629738
0.0702919
0.0683612
0.0714798
0.0713883
0.0680271
0.0703721
0.0595828
0.06439
0.0468042
0.0536449
0.0313319
0.0392301
0.0154438
0.0232645
0.00175798
0.00809121
-0.00683108
-0.00334529
-0.0217985
-0.00885459
-0.00877875
0.0311415
0.0350982
0.0255937
0.028026
0.0229812
0.023881
0.0233404
0.0228099
0.0262783
0.0245257
0.0314036
0.0285499
0.0379479
0.0345039
0.0449061
0.0413878
0.0516874
0.0483509
0.0579393
0.0548868
0.0635189
0.0608193
0.0682261
0.0660025
0.0719348
0.0702354
0.0743025
0.0732918
0.0750713
0.0749065
0.0735677
0.0746589
0.0687947
0.0716091
0.0609049
0.0651549
0.0534056
0.0558535
0.0480458
0.0505967
0.0442228
0.0459336
0.0418204
0.0428815
0.0403313
0.0409995
0.039339
0.0398097
0.0385677
0.0389434
0.0378405
0.0381506
0.0370373
0.0373515
0.0365563
0.0365694
0.0360332
0.0321434
0.0337505
0.0268218
0.0297972
0.0168101
0.0226348
-0.000402724
0.00911279
-0.0239153
-0.0115313
-0.0504288
-0.0370925
-0.0743847
-0.0631451
-0.0887671
-0.0831927
-0.087672
-0.0903643
-0.0697804
-0.0806362
-0.040654
-0.055993
-0.0104824
-0.0252122
0.0150075
0.00339448
0.0303414
0.0234019
0.0380184
0.0350972
-0.0207321
-0.272726
-0.190596
0.0395041
0.0341561
0.0506053
0.0423929
-0.334504
-0.129848
-0.00749494
-0.0214012
-0.0464636
0.0276164
-0.35767
-0.0330546
-0.0370717
0.011979
-0.335997
0.0487303
-0.0494708
-0.0589181
-0.00400042
-0.275448
0.0502733
-0.0579996
-0.0214959
-0.195429
0.00921872
-0.0617062
-0.0426415
-0.124353
-0.031112
-0.0753178
-0.00453247
0.00656052
0.00875705
0.0564637
0.0637815
-0.24506
0.0402057
0.0398389
0.0401076
0.0419235
0.0409183
0.0446478
0.0432031
0.0481774
0.046425
0.0506051
0.049592
0.0512945
0.0511596
0.0508255
0.0511396
0.0500997
0.0504588
0.0494643
0.0497676
0.0489113
0.0491809
0.0483704
0.0486394
0.0478913
0.0481174
0.0475448
0.0476987
0.0473936
0.0474405
0.0475353
0.0474206
0.0481261
0.0477633
0.049394
0.0486608
0.0516011
0.0503681
0.054908
0.0531199
0.0591318
0.0569405
0.0634727
0.0613637
0.0665238
0.0652565
0.0667991
0.0670732
0.0633125
0.0655553
0.0558585
0.0600577
0.0449852
0.0507759
0.0320837
0.0386492
0.0189498
0.025403
0.00791886
0.013014
0.00154559
0.00406702
0.00088665
0.000302678
0.00326753
0.0576168
0.0700654
0.0632332
0.0465701
0.0520055
0.0378181
0.0417032
0.0321853
0.0345835
0.0293575
0.0303952
0.0289282
0.0287559
0.0310623
0.0296424
0.0350585
0.0328158
0.0404283
0.0376227
0.0463344
0.0433505
0.0522248
0.0493085
0.0577682
0.0550509
0.062778
0.0603486
0.0670614
0.0650225
0.0704309
0.0688767
0.0726148
0.0716809
0.073315
0.0731698
0.0719788
0.0729374
0.0679625
0.0703121
0.0614899
0.0649587
0.0550566
0.057754
0.0500467
0.0524473
0.0462064
0.0479697
0.0435578
0.0447576
0.0417696
0.0425872
0.0404995
0.0410986
0.0394896
0.0399726
0.0385469
0.038986
0.0376255
0.0380281
0.036899
0.0372004
0.035816
0.0364404
0.0314246
0.033095
0.0264863
0.0293118
0.0164687
0.0222972
-0.000177161
0.00892675
-0.0220182
-0.0106219
-0.0454729
-0.0338528
-0.0650255
-0.0561159
-0.074704
-0.0714179
-0.0703656
-0.074378
-0.0522903
-0.0628155
-0.0257978
-0.0395741
0.000643369
-0.0121489
0.0216114
0.0122092
0.0334562
0.0283149
0.0387176
0.0369935
0.0392697
0.0485123
-0.328625
-0.217647
-0.00012264
0.00613496
0.0135634
0.0341407
0.0397534
-0.0174274
-0.0617231
0.0329177
-0.377593
-0.130896
-0.0376785
0.0164646
-0.376798
-0.0289712
-0.0551707
-0.0788849
-0.000318253
-0.331936
0.0232504
-0.0691155
-0.017334
-0.259152
-0.00436054
-0.0827256
-0.0785243
-0.0371335
-0.173158
-0.047922
-0.0645133
-0.107703
0.0794326
0.0650938
0.0557032
-0.287928
0.040449
0.0395948
0.0425039
0.041278
0.0452582
0.0437682
0.0483154
0.046785
0.0505229
0.0495707
0.0512615
0.0510627
0.050931
0.0511776
0.0502463
0.0505986
0.0495818
0.0499027
0.0490135
0.0492854
0.0484988
0.0487484
0.0480756
0.0482729
0.04779
0.047913
0.0476981
0.0477163
0.0478878
0.0477515
0.0484947
0.0481301
0.0496963
0.0490111
0.0516644
0.0505789
0.0544493
0.0529628
0.0578097
0.0560904
0.0610512
0.0595059
0.0630832
0.0622906
0.0627822
0.0632723
0.059441
0.0615073
0.0528902
0.0565376
0.0436702
0.0485536
0.0329205
0.0383843
0.0222268
0.0274475
0.0134437
0.01742
0.00871286
0.0105397
0.00894654
0.00811532
0.0141867
0.0112943
0.000278573
0.0102101
0.0211486
0.0171616
0.0628652
0.0758816
0.0686631
0.0524558
0.057611
0.043637
0.0477542
0.0377381
0.0402751
0.0345745
0.03587
0.0336613
0.0338284
0.0350271
0.034079
0.0381456
0.0364003
0.0425029
0.0402113
0.0474755
0.04495
0.0525661
0.0500297
0.057451
0.0550483
0.0619122
0.0597446
0.0657603
0.0639222
0.0687791
0.0673879
0.0707228
0.0698958
0.0712968
0.0711984
0.0700626
0.0709286
0.0666277
0.0686162
0.0613123
0.0641359
0.0557565
0.0583516
0.0510803
0.0533243
0.0473528
0.0490915
0.044617
0.0458767
0.0426553
0.0435623
0.0411919
0.0418805
0.0399908
0.040563
0.0388662
0.0394076
0.0377667
0.0383246
0.0367532
0.0372959
0.0354926
0.0363546
0.033317
0.0336302
0.0306317
0.0322276
0.0255716
0.0285594
0.0152263
0.0211798
-0.00113463
0.00772097
-0.0216725
-0.0110815
-0.0423779
-0.0323254
-0.0578186
-0.0510947
-0.0630165
-0.0619182
-0.0555163
-0.0608409
-0.0370148
-0.0473646
-0.012815
-0.025184
0.0100192
-0.000888175
0.0269616
0.0195006
0.036132
0.0322733
0.0394684
0.0385257
0.03977
-0.00878599
-0.0833552
0.0386538
-0.361412
-0.227741
0.0384597
0.0848893
-0.0327073
0.021515
-0.387793
-0.126707
0.0360767
0.0193044
0.0287775
-0.0563214
0.0850972
0.0783692
-0.102846
0.00343694
-0.361246
-0.0421075
-0.0770689
-0.014021
-0.30035
-0.0308586
-0.109438
-0.0932942
-0.0322123
-0.225837
-0.0717018
-0.104247
-0.0552096
-0.145945
-0.111696
-0.0094907
0.00116948
-0.0892358
0.0107322
0.0552252
0.0453746
-0.3091
0.0402002
0.0394678
0.0423851
0.041214
0.0450569
0.0438151
0.0477721
0.0464312
0.0498248
0.0489293
0.0506613
0.0503911
0.0505235
0.0506764
0.0499662
0.0502676
0.0493506
0.0496542
0.0488115
0.0490676
0.0483365
0.0485621
0.0479702
0.048139
0.04774
0.0478363
0.0476935
0.0476906
0.0479079
0.0477627
0.0484969
0.0481484
0.0495961
0.048976
0.0513124
0.0503755
0.0536296
0.0524064
0.0562876
0.0549455
0.0586936
0.0575703
0.0599936
0.0595354
0.059338
0.059948
0.0561933
0.0580867
0.0504865
0.0536365
0.0426966
0.0467981
0.0337932
0.0383073
0.0250735
0.0293156
0.018218
0.0212761
0.0148184
0.0159682
0.0157349
0.0146567
0.0206965
0.017961
0.0283855
0.0235853
0.0949556
0.0906173
0.0983757
0.0805329
0.0890313
0.0675153
0.073385
0.0573153
0.0622591
0.0485447
0.0526395
0.0424892
0.0451692
0.0390065
0.0404706
0.0376745
0.0380853
0.0383723
0.037792
0.0407119
0.0393741
0.04421
0.0423497
0.0483695
0.0462402
0.0527455
0.0505529
0.0570203
0.0549108
0.0609634
0.0590442
0.0643805
0.0627477
0.0670558
0.0658194
0.068752
0.0680371
0.0691923
0.0691439
0.0680379
0.0688278
0.0650677
0.0667699
0.0606206
0.0629701
0.055785
0.0581456
0.051465
0.0535479
0.0479046
0.049584
0.0451649
0.046442
0.0431014
0.0440655
0.0414931
0.0422559
0.0401299
0.0407884
0.0388559
0.0394863
0.0376124
0.0382602
0.0363756
0.0370403
0.0351058
0.0356922
0.0340732
0.0346289
0.0324001
0.033375
0.0331232
0.0295478
0.0311601
0.0238491
0.0272405
0.0128397
0.0190725
-0.00362756
0.00519353
-0.0232666
-0.0132923
-0.0415383
-0.0329034
-0.0531607
-0.0484738
-0.0541515
-0.0551133
-0.0436391
-0.0502274
-0.024537
-0.0348418
-0.00226219
-0.0134187
0.017352
0.00813908
0.0311439
0.0251188
0.0381068
0.0353061
0.0400728
0.0396689
0.0390018
0.0398886
0.0375413
-0.0223629
0.0269902
-0.364198
-0.224166
0.0370374
0.0355387
0.0333486
-0.0510113
-0.0122416
-0.0247142
0.0986408
0.0929739
-0.136884
0.00742911
-0.365202
-0.130994
-0.0792863
-0.011258
-0.318521
-0.0842993
-0.142588
-0.000407811
-0.10419
-0.0289755
-0.249514
-0.109662
-0.123151
-0.0483682
-0.177963
-0.150561
-0.136724
-0.0742555
-0.116689
0.0308536
0.0430795
0.0688351
0.0575812
0.0223746
0.033402
-0.30722
0.0394454
0.0382161
0.0417163
0.0405449
0.0442539
0.0427982
0.0468573
0.0455918
0.0488083
0.0479404
0.0497333
0.049396
0.0497816
0.049839
0.049374
0.0496091
0.0488417
0.0491106
0.0483258
0.0485817
0.0479266
0.0481214
0.0476162
0.0477574
0.0474371
0.0475089
0.0474288
0.0474089
0.0476572
0.047509
0.0482151
0.0478895
0.0492034
0.0486512
0.0506828
0.0498827
0.0525982
0.0515974
0.054694
0.0536493
0.0564686
0.0556599
0.0572485
0.0570237
0.0563855
0.0570507
0.0534819
0.0551941
0.0485282
0.0512403
0.0419554
0.0453968
0.034601
0.0383123
0.0275564
0.030963
0.0221872
0.0245729
0.0198069
0.0205573
0.0213682
0.0200588
0.0260153
0.0233978
0.0342769
0.0294048
0.0437589
0.0481738
0.0406682
0.038268
0.105955
0.102664
0.100981
0.110419
0.108435
0.0842691
0.092237
0.0713458
0.0773243
0.0612016
0.066081
0.0526846
0.0567084
0.0465236
0.0492915
0.0427707
0.0443794
0.0410588
0.0416813
0.0411844
0.0409118
0.0428434
0.0418543
0.0456084
0.0441172
0.0490549
0.0472751
0.0527855
0.0509064
0.0564962
0.0546586
0.0599559
0.0582689
0.0629651
0.0615272
0.0653174
0.0642333
0.0667798
0.0661699
0.0671041
0.0670962
0.0660276
0.0667484
0.0634316
0.0649072
0.0596376
0.0616399
0.0553872
0.0575048
0.0514194
0.0533457
0.0480397
0.049649
0.0453314
0.0466073
0.0432016
0.0442066
0.0414745
0.0423006
0.0399718
0.0407043
0.0385676
0.0392688
0.0372125
0.0379078
0.0359156
0.0365691
0.0346975
0.0352886
0.0335303
0.0341117
0.0328405
0.0326859
0.0320879
0.0325807
0.0313986
0.0324425
0.0279855
0.0299166
0.0212399
0.0251889
0.00919801
0.0159186
-0.00788672
0.0011644
-0.0270825
-0.0175161
-0.0432243
-0.035872
-0.0512131
-0.0484813
-0.0481529
-0.0510991
-0.0347108
-0.0425359
-0.0148482
-0.0252361
0.00597747
-0.00423539
0.0230055
0.0151632
0.0342898
0.0294159
0.0394665
0.0374982
0.0402873
0.0404021
0.0381236
0.0394992
0.0351288
0.0366808
-0.0394558
0.0856727
0.043427
0.0646263
0.0762083
-0.178817
0.0283803
0.0120127
-0.340922
-0.217585
-0.0740685
-0.00877663
-0.320343
-0.159706
0.0529722
0.0565271
-0.188932
0.0133594
0.0428317
0.0362528
0.103124
0.111997
0.0313151
0.0313282
0.0305789
0.0334306
0.0342473
0.0323077
-0.1084
-0.0275932
-0.260202
-0.159187
-0.044473
-0.0296475
-0.137723
-0.0449878
-0.190758
-0.206177
-0.17836
-0.160384
0.0245581
0.0492164
-0.0641212
-0.131639
-0.238526
-0.0920651
0.0184494
-0.290032
0.0356412
0.0345543
0.0381573
0.0368445
0.0406689
0.0394153
0.0432575
0.041927
0.0457512
0.0445467
0.0476356
0.0467894
0.0486299
0.0482427
0.0488296
0.0488076
0.0485592
0.0487308
0.048117
0.048346
0.0476711
0.0478898
0.0473074
0.0474796
0.0470457
0.0471621
0.0469134
0.0469625
0.0469415
0.0469052
0.0471834
0.0470322
0.047712
0.0474078
0.0485993
0.0481084
0.049873
0.0491905
0.0514559
0.050637
0.0531081
0.0522955
0.0544078
0.0538328
0.0548206
0.0547562
0.0538496
0.0545289
0.051205
0.0527385
0.0469179
0.0492473
0.041379
0.0442639
0.0353112
0.0383565
0.0296587
0.0323682
0.0255356
0.0273398
0.024026
0.0243975
0.025901
0.0245431
0.0306993
0.0279747
0.039106
0.0343353
0.0518322
0.0449587
0.048436
0.112177
0.103598
0.108216
0.117294
0.115118
0.120188
0.118829
0.0872503
0.0948001
0.0745819
0.0805154
0.064454
0.069285
0.0561384
0.06007
0.0499422
0.0527615
0.0459618
0.0476991
0.0439059
0.0447167
0.0435417
0.043531
0.0446093
0.0439235
0.0467374
0.0455678
0.0495497
0.0480832
0.0526941
0.0511007
0.0558864
0.0542992
0.0588995
0.057427
0.0615343
0.0602747
0.0635888
0.0626445
0.0648512
0.0643313
0.0650882
0.065107
0.0640947
0.0647491
0.0618131
0.0631019
0.058505
0.0602604
0.0547428
0.0566392
0.051098
0.0528817
0.0478871
0.0494297
0.0452147
0.0464864
0.0430278
0.04407
0.041191
0.0420766
0.0395609
0.0403597
0.0380366
0.038797
0.0365871
0.0373166
0.03524
0.0359022
0.0340094
0.034586
0.032741
0.0333808
0.0320551
0.0317063
0.0317337
0.0299084
0.0312006
0.0257212
0.028122
0.0176273
0.0223053
0.00397431
0.0115055
-0.0144341
-0.00480636
-0.0337257
-0.0243297
-0.0479724
-0.0418256
-0.0523073
-0.0515643
-0.045067
-0.0500664
-0.0285086
-0.0376742
-0.00756095
-0.0182244
0.0123851
0.00281011
0.0275322
0.0207
0.0367982
0.0328895
0.0404478
0.0391871
0.0402629
0.0408088
0.0376325
0.0391483
0.0360151
-0.0609137