/*--------------------------------*- C++ -*----------------------------------*\
  =========                 |
  \\      /  F ield         | OpenFOAM: The Open Source CFD Toolbox
   \\    /   O peration     | Website:  https://openfoam.org
    \\  /    A nd           | Version:  10
     \\/     M anipulation  |
\*---------------------------------------------------------------------------*/
FoamFile
{
    format      ascii;
    class       surfaceScalarField;
    location    "26";
    object      phi;
}
// * * * * * * * * * * * * * * * * * * * * * * * * * * * * * * * * * * * * * //

dimensions      [0 3 -1 0 0 0 0];

internalField   nonuniform List<scalar> 
12623
(
0.0955105
0.0216312
-0.0345848
-0.082557
0.0743278
-0.0364159
0.0575987
0.0863232
0.00797511
-0.0803161
-0.0139822
0.00809949
0.0840308
-0.00580717
-0.083995
-0.00799216
0.0123328
0.0796543
-0.0850781
0.00918254
0.000215522
0.0421253
-0.0482821
0.00594132
-0.047143
0.0473585
-0.0212403
-0.00645275
0.0276931
-0.0120491
-0.00818719
-0.00100407
0.0980587
-0.0419433
-0.0561153
-0.0634669
0.0538609
0.107665
-0.0293297
-0.0193083
0.0215519
0.0270861
0.00345729
0.00537612
-0.0381631
-0.0254807
0.00962978
0.00736504
-0.00448259
-0.00770369
0.00482124
-0.00467691
-0.00493715
0.0169791
-0.00730929
-0.00185021
-0.002859
-0.0139447
0.0038581
0.0129456
-0.0255798
0.00386128
0.0188595
-0.0205973
-0.0189272
0.00328733
0.0101999
-0.0129008
-0.000586415
-0.00156088
0.000231918
0.00461629
-0.0190333
0.0276723
-0.0451507
0.00479064
0.0457362
0.00687605
-0.0509111
-0.00111563
-0.0574656
0.00466529
0.0575909
-0.0880017
-0.0280543
0.0272161
0.0888398
-0.0866255
0.0289934
-0.0303695
-0.0946691
0.0929292
0.0272803
-0.0255404
-0.0912019
-0.0315215
-0.083241
-0.000123283
0.00539224
0.0779721
0.00482763
-0.0827324
-0.00533628
0.0808663
-0.0818895
0.00282376
2.40236e-05
0.0790417
-0.000456718
-0.0815706
0.000137848
-0.0848831
0.00396565
0.0804608
-0.0823897
-0.00261673
0.0803204
-0.00779217
-0.0855778
0.0130495
-0.00469705
0.0145629
0.0704546
-0.0817077
-0.00446682
0.0783823
-0.082143
0.00325909
-0.0254299
0.0261494
0.0922097
-0.0899383
-0.0108952
0.0139876
0.0868459
0.0120956
-0.0897611
-0.0122728
0.00926381
-0.0863668
-0.0857501
0.0138494
0.0810833
-0.0873815
-0.00507147
-0.0666183
0.00132692
0.0703628
0.0534473
0.0111787
-0.0696974
-0.0528511
0.0138931
0.0924053
-0.0253244
0.0859109
-0.069819
0.00923252
-0.0669968
0.0742891
0.0168667
-0.0153289
-0.0758269
0.0194897
0.0725603
-0.0177609
-0.0107303
0.00721678
0.0807879
-0.0772744
-0.0830509
0.0827691
-0.0104484
0.0812217
-0.00756055
0.00850518
-0.0821663
0.0705216
-0.0691333
-0.0163116
0.0149232
-0.00190636
0.0737899
-0.00136196
-0.0680616
-0.0289268
0.0278552
-0.0690081
-0.0367812
0.0377278
-0.0697859
-0.0411043
0.0418821
-0.0724728
-0.041563
0.0442499
-0.0734983
-0.0406567
0.0416822
-0.0751951
-0.0397964
0.0414933
-0.0747647
-0.0407859
0.0403556
-0.0427482
-0.073993
0.0419765
0.0698361
-0.0674646
-0.00427787
0.0125032
0.0774094
-0.0161226
0.0738827
0.00845655
-0.0664158
-0.0173603
-0.0671739
-0.0281687
-0.0676456
-0.0363095
-0.0702508
-0.0384992
-0.0722063
-0.0396075
-0.0749024
-0.0379606
-0.0756798
-0.039019
-0.076663
-0.0398028
-0.0764918
-0.0429195
-0.0220554
0.0770571
0.0188811
0.0809318
-0.0255779
-0.0444025
-0.0737128
0.0441223
-0.0781756
-0.0427187
-0.0281839
0.0798541
0.0253869
0.0850934
-0.0323456
-0.0438007
-0.0732247
0.0433126
-0.0775562
-0.0444201
-0.0303316
0.082333
0.0278527
-0.0318637
-0.0415028
-0.0712857
0.0395638
-0.0771453
-0.0419137
0.0841198
0.0272065
0.0265755
0.0847603
-0.0369574
0.0333677
-0.067696
-0.0382316
-0.0758711
0.0761791
-0.0759692
0.0276428
-0.0728237
0.0752937
0.0241056
0.030562
0.0738977
-0.0705256
0.0155089
0.0233154
0.0675086
-0.0656732
-0.00611324
0.00543954
0.0654837
-0.0658558
-0.0277967
-0.0175497
0.0686033
-0.0706638
-0.0364387
-0.033562
0.0743487
-0.076109
-0.0362003
-0.0359226
0.0788791
-0.0795959
-0.039086
-0.036249
0.0816343
-0.0824178
-0.0419352
-0.040881
0.0840857
-0.0831641
-0.0428353
-0.0427522
-0.0820986
-0.0392971
-0.0693426
0.0722433
0.0404119
0.0671589
0.0299717
-0.0637629
0.0373801
-0.073363
0.0749928
0.0403467
0.0430026
-0.0748863
0.0749666
0.041413
0.0404621
-0.073162
0.0729629
0.044449
0.0434868
-0.0713362
0.0721437
0.0369203
0.0435088
-0.073596
0.0754609
0.0130582
0.0264029
-0.0795542
0.0801675
-0.0167359
-0.00545526
-0.084392
0.0856269
-0.0335805
-0.0298023
-0.0901558
-0.0314156
-0.0363926
-0.0268417
0.0258017
0.0858003
0.0892785
0.0290386
0.0720568
0.0295092
-0.0792787
-0.032329
0.0253472
-0.0717091
-0.0612116
0.0653763
0.025807
0.0193342
-0.0225808
-0.0605163
-0.0578558
0.0159784
-0.0209428
0.0161373
-0.0744732
-0.0863346
0.087988
-0.0339824
-0.0244764
-0.082801
0.0954173
-0.0928326
-0.0281251
0.0721953
-0.0752278
0.027138
0.0735813
0.0276526
0.093302
-0.0233146
-0.0649296
0.0725423
-0.0710375
0.026138
0.0278765
0.0691397
-0.0668411
0.0132103
0.0214177
0.0655847
-0.0640588
-0.00763911
0.00418318
0.0642967
-0.0660489
-0.0260445
-0.0173118
0.0686262
-0.0719691
-0.0330958
-0.0309847
0.0748971
-0.0776982
-0.0333992
-0.0329946
0.0795624
-0.0818477
-0.0368007
-0.0343847
0.0839028
-0.0858569
-0.039981
-0.038826
0.0875627
-0.0887366
-0.0416614
-0.0410464
-0.0400457
-0.0697256
0.0726271
0.0375103
0.0330308
-0.0759887
0.0772081
0.0391273
0.0396411
-0.0780459
0.0775221
0.0419368
0.0396243
-0.0786516
0.0767668
0.0463338
0.0423572
-0.0781567
0.0770547
0.0380223
0.0421189
-0.0787572
0.0812432
0.0105722
0.0247004
-0.081375
0.084856
-0.020217
-0.005587
-0.0845239
0.0856144
-0.034671
-0.0294702
-0.0863706
0.0927557
-0.0378006
-0.0371488
-0.0315984
-0.0268734
0.0353267
0.077347
0.0885545
-0.0320333
0.0737312
0.0318835
0.0753502
-0.00557391
0.00232535
-0.0546073
-0.00852142
-0.0575688
0.011782
-0.0673539
-0.0939041
0.0937964
-0.0338747
-0.0909561
-0.0274244
0.00488311
-0.00976726
-0.0779169
0.000253226
-0.0698433
-0.0532141
0.0557419
-0.000202443
-0.0111431
0.00995881
-0.053423
-0.0530113
-0.0113459
-0.0213086
0.0281553
0.085363
0.0905553
-0.0185619
0.028206
-0.0300583
0.0755834
0.0737679
-0.072029
0.0301447
0.0762951
0.0256788
-0.0943105
-0.0219547
0.0929506
-0.0899575
-0.0324782
-0.061669
0.0713754
-0.0710541
0.0268167
0.026999
0.0704657
-0.0691221
0.0247944
0.0272881
0.067201
-0.065477
0.0114863
0.0194966
0.0633281
-0.0629679
-0.00799934
0.00203429
0.0635529
-0.0650472
-0.0245502
-0.0167268
0.068388
-0.071274
-0.0302097
-0.0276439
0.0748913
-0.0771322
-0.0311583
-0.0293773
0.0799864
-0.0821575
-0.0346296
-0.0315305
0.0859376
-0.087965
-0.0379536
-0.0350459
0.0908607
-0.0919869
-0.0405352
-0.0381507
-0.0382362
-0.0602069
0.0641673
0.0218466
0.0115134
-0.0681794
0.0720035
0.0336862
0.0290187
-0.0760413
0.0769843
0.0381843
0.0356032
-0.0794696
0.0798715
0.0415349
0.0371391
-0.0804047
0.08083
0.0459084
0.041824
-0.0813379
0.0821801
0.0371801
0.041611
-0.0833719
0.0849495
0.00899452
0.0235087
-0.0863668
0.0874507
-0.0213008
-0.0070043
-0.0871234
0.0885773
-0.036125
-0.0291428
-0.0874798
0.0864619
-0.0367827
-0.0360513
-0.035094
-0.0313483
0.0315359
0.0771594
0.0853615
0.0768278
-0.0864076
-0.0143158
0.00773378
-0.0553438
-0.00403602
-0.0630646
0.0221965
-0.0205616
-0.0546462
0.0230107
-0.0542372
-0.012834
0.00719684
-0.0722797
-0.017163
-0.0655143
0.0301763
-0.0315389
0.0769461
0.0272045
0.0792669
-0.0233153
0.0308605
0.0778178
-0.0188522
0.0860921
0.0845088
-0.0868148
-0.0301722
-0.0259129
0.088467
0.0756201
-0.0726204
0.0271449
0.077609
0.02369
-0.0812059
0.00199517
-0.02525
0.0183101
-0.0742661
-0.0299856
-0.067544
0.0912963
-0.0169077
-0.0579713
0.0718133
-0.0725334
0.0275368
0.0261919
0.0708517
-0.0689097
0.0228524
0.0256064
0.0658462
-0.063912
0.00955216
0.016433
0.0625856
-0.0622811
-0.00830385
0.000707825
0.063232
-0.0655085
-0.0222738
-0.0157758
0.0686079
-0.0720992
-0.0267184
-0.0245445
0.0751593
-0.0778554
-0.0284622
-0.0263172
0.0803356
-0.0831431
-0.0318221
-0.0290503
0.0861559
-0.0894157
-0.0346938
-0.0320331
0.0926136
-0.0957939
-0.0373549
-0.0349528
0.0979388
-0.0986154
-0.0331981
-0.0360914
0.0975147
-0.0950992
-0.0167313
-0.028525
0.0885491
-0.0823082
0.0120693
-0.00455496
-0.0535282
0.0552917
-0.00196593
0.0533457
-0.0562316
-0.0176757
-0.0115284
-0.0586905
0.0630579
0.0174793
0.00811458
-0.0675185
0.070529
0.0306757
0.024558
-0.0744436
0.0773104
0.0353175
0.0316887
-0.0792695
0.0807818
0.0400226
0.0351799
-0.081972
0.0832072
0.0446733
0.0406338
-0.0844988
0.0861566
0.0355223
0.0403193
-0.0879766
0.0899074
0.0070637
0.0216886
-0.0913274
0.0919997
-0.0219731
-0.00842428
-0.0921537
0.0902848
-0.0342561
-0.0292968
-0.0893132
0.0874556
-0.0349252
-0.0350796
-0.0344532
-0.03599
0.0342678
0.0788816
0.080232
0.0795566
-0.0256347
0.0293367
-0.0583482
-0.0608627
-0.0210035
0.0339765
-0.03858
-0.0696626
-0.0743184
0.0259867
0.0224165
-0.0547496
-0.0207054
-0.0595223
0.0271069
0.0777066
-0.0136667
0.0861109
0.0867705
-0.0866762
-0.0302664
0.0863813
-0.0255238
0.0323784
-0.0572789
-0.03329
-0.0622099
0.0268727
-0.0224631
-0.0652723
0.0319001
-0.0633756
-0.0425412
-0.0635828
0.0409015
-0.0472118
-0.0633522
0.0353907
-0.0688076
0.0906464
-0.019087
-0.0562602
0.0788881
-0.0765784
0.0248351
-0.0777301
0.0795802
0.0252569
0.024848
0.0763376
-0.0738325
0.0250316
0.0259512
0.0711698
-0.0682198
0.0199023
0.0229438
0.0656513
-0.0635377
0.00743861
0.0138645
0.0623705
-0.0623242
-0.00835011
-0.000459462
0.0635777
-0.066126
-0.0197255
-0.0145223
0.0693045
-0.0726641
-0.0233588
-0.021366
0.0754964
-0.0780985
-0.0258601
-0.0234849
0.0806574
-0.0836164
-0.0288631
-0.0264915
0.086723
-0.0901643
-0.0312526
-0.0289264
0.0937507
-0.0976476
-0.0334581
-0.0313664
0.10138
-0.102532
-0.0320461
-0.0323586
0.104128
-0.10087
-0.0199897
-0.0269294
0.0971213
-0.0906693
0.00561736
-0.00830329
0.0829193
-0.0745816
0.027053
0.0182367
-0.0591483
0.0558801
-0.0144074
0.0634882
-0.0672297
-0.0187215
-0.0166636
-0.0542872
0.0555651
-0.00324379
-0.00993555
-0.0584513
0.0618422
0.0140884
0.0052283
-0.0663663
0.0706903
0.0263517
0.0200339
-0.0742956
0.0773778
0.0322354
0.0280833
-0.0796517
0.0816566
0.0380178
0.0329059
-0.0834429
0.085422
0.0426942
0.0388475
-0.0874802
0.0899329
0.0330696
0.0382611
-0.0923802
0.0946648
0.00477909
0.0192414
-0.0960197
0.0962023
-0.0221557
-0.00977919
-0.0948522
0.0937621
-0.0331659
-0.0279468
-0.0914263
0.0890584
-0.0325573
-0.0327438
-0.032071
-0.024866
0.0284548
-0.0688611
-0.0699428
-0.0221529
0.0393145
-0.046087
-0.0620351
-0.0666763
0.0314092
0.0890753
-0.0224668
-0.0213965
0.0254586
0.0820488
0.0816664
-0.0350413
0.0344024
0.0784567
0.0765095
-0.0365269
0.0366541
0.0787544
0.0781074
-0.0353962
0.0330919
0.0792504
0.0808145
-0.0308923
0.0291321
0.0794668
0.0814665
0.027832
0.0808802
0.0338609
-0.0562321
-0.034391
-0.0584213
0.0357844
-0.0611632
-0.0436414
-0.0611098
0.0319628
-0.0668836
-0.0482494
-0.0625453
0.0283023
-0.0250092
-0.0732358
0.0308927
-0.0714516
-0.0488274
-0.0606118
-0.0388937
0.0322876
-0.0600701
-0.0444717
-0.0564572
0.0795861
-0.0791679
0.0248386
0.0816272
0.025791
-0.0567902
0.0782064
-0.0776103
0.024239
0.0238866
0.075961
-0.0742145
0.0232851
0.0243019
0.0711264
-0.0681368
0.0169127
0.0198556
0.0656098
-0.0636329
0.00546166
0.0113376
0.0626685
-0.0629283
-0.00809027
-0.00142384
0.0644972
-0.0672267
-0.016996
-0.0129534
0.070306
-0.0733455
-0.0203193
-0.0182867
0.0758824
-0.078368
-0.0233745
-0.020948
0.0809409
-0.0838868
-0.0259172
-0.0239186
0.0869171
-0.0903125
-0.0278572
-0.0258961
0.093955
-0.0980957
-0.0293174
-0.0277238
0.102175
-0.105888
-0.0283326
-0.0282794
0.108148
-0.10796
-0.0201771
-0.0246703
0.105005
-0.0989495
-0.000438326
-0.0112582
0.0911459
-0.0836792
0.0195863
0.0104331
0.0761622
-0.069774
0.0258994
0.0238922
-0.0688751
0.0665075
-0.016354
0.0713385
-0.0743022
-0.0220455
-0.0196894
-0.0629312
0.0591319
-0.0106081
-0.0130874
-0.0565382
0.0562194
-0.00292499
-0.0073418
-0.0582105
0.06186
0.0104389
0.00323719
-0.0660193
0.0704612
0.0219098
0.0158746
-0.0742207
0.0775134
0.0289426
0.0243239
-0.0800711
0.0824773
0.0356116
0.0303483
-0.084731
0.087307
0.0401181
0.0365938
-0.0900407
0.0932996
0.0298106
0.0355275
-0.096381
0.0989475
0.00221251
0.01616
-0.100089
0.0996855
-0.021752
-0.0109209
-0.0980448
0.0954968
-0.0306178
-0.0263061
-0.0921365
0.0898059
-0.0302267
-0.0293835
-0.0869577
0.0841751
-0.0274838
-0.0292228
-0.0843814
0.0842109
-0.0222963
-0.02573
-0.0154435
-0.0260781
0.0329057
0.0752211
0.0181958
0.0824994
0.0737842
-0.0348414
0.0364052
0.0768929
0.0745738
-0.0375219
0.036232
0.0800443
0.0769907
-0.0363351
0.0327818
0.0828038
0.0807113
-0.0321108
0.0292844
0.0822933
0.0821374
-0.0275728
0.0310564
-0.0767195
-0.0775202
-0.0243549
0.030584
-0.0368658
-0.0537883
-0.0641283
0.0249383
-0.0286665
0.0276026
0.082691
0.0814981
0.0396497
-0.0600974
-0.0424241
-0.0596386
0.0363701
-0.0655706
-0.0476366
-0.0617225
0.0339553
-0.0699462
-0.0495329
-0.0618398
0.0345259
-0.0749211
-0.0474041
-0.0576794
0.0295898
-0.026446
-0.0806639
0.0333359
-0.0804656
-0.0416755
-0.0516476
-0.0259846
-0.059585
0.0214413
-0.0324672
-0.0473057
-0.0814218
0.0779209
-0.0229451
-0.0280754
0.0316875
-0.0842761
-0.0845508
-0.0249464
0.0187994
-0.0218515
-0.056533
-0.0752393
0.0786342
0.0180464
-0.0729257
0.0164859
0.0844038
-0.0823855
0.0255843
0.0247278
-0.0280453
0.0860086
0.0836482
0.0254834
-0.0595646
0.0809044
-0.08145
0.0253843
0.0243098
0.0806745
-0.0796102
0.0231748
0.023111
0.0770548
-0.0741267
0.0203571
0.0217465
0.071262
-0.0683455
0.0139962
0.0169909
0.0659242
-0.0641457
0.00368311
0.00891632
0.0634871
-0.0641245
-0.00745283
-0.00208246
0.0659589
-0.0686735
-0.0142814
-0.0111191
0.0714267
-0.0740051
-0.017741
-0.0155334
0.0762432
-0.078626
-0.0209916
-0.01871
0.0811469
-0.0839531
-0.0231109
-0.0213977
0.0867991
-0.0900095
-0.0246468
-0.0230501
0.0934637
-0.0974167
-0.0253645
-0.0242696
0.10147
-0.105639
-0.0241638
-0.0242256
0.109035
-0.110975
-0.0182373
-0.0212748
0.110406
-0.106589
-0.00425499
-0.0118271
0.100735
-0.0937315
0.0125831
0.00457869
0.0876156
-0.0825767
0.0208605
0.0177763
0.0209958
-0.0750378
0.072879
-0.0198867
-0.0214718
-0.0703665
0.0686844
-0.0146719
-0.017177
-0.0661255
0.0633241
-0.00780675
-0.0105284
-0.0605011
0.0588942
-0.00131803
-0.00451883
-0.0593002
0.0616694
0.0080697
0.00283118
-0.0651012
0.0692215
0.0177895
0.0124427
-0.0729916
0.0765404
0.0253938
0.0205538
-0.079475
0.0823434
0.0327431
0.0274138
-0.0850862
0.0883167
0.0368876
0.033851
-0.0918895
0.0960971
0.0256031
0.0319547
-0.099798
0.102518
-0.00050738
0.0124591
-0.10327
0.102209
-0.0206909
-0.0116735
-0.0999187
0.0967931
-0.0274923
-0.0240154
-0.0936737
0.0907712
-0.0273241
-0.0262641
-0.0868807
0.0845767
-0.0251798
-0.0253323
-0.0823898
0.0817535
-0.02166
-0.0235432
-0.0200567
-0.0176273
0.0268995
0.0732272
0.0757889
-0.0292873
0.0314247
0.0730838
0.0713963
-0.0332292
0.0347378
0.0753844
0.0727693
-0.0358313
0.0365118
0.0793638
0.0758971
-0.0367423
0.0368884
0.0826576
0.0804809
-0.0351824
0.0315814
0.0858943
0.0838434
0.0850341
0.0407806
-0.064508
-0.0447017
-0.0625735
0.0373303
-0.0689455
-0.0472911
-0.0639643
0.0377393
-0.0731596
-0.0477022
-0.0615416
0.0374758
-0.079061
-0.0451401
-0.0542147
0.0356425
-0.0844206
-0.0378514
-0.0462634
0.0296385
-0.0253082
-0.088881
0.033629
-0.0882667
-0.0258023
-0.0433549
-0.0146526
-0.0724022
0.0141291
-0.0153157
-0.0558699
-0.0878158
0.0847748
-0.0222673
-0.0264089
0.030122
-0.0925941
-0.0912571
-0.0229676
0.0113812
-0.0116114
-0.072172
-0.0816653
0.0839997
0.0117947
-0.0797036
0.00941949
0.0197246
-0.0236026
0.0898865
0.0159993
0.0873734
0.0845388
-0.0839797
0.0250252
0.0853392
0.024683
-0.0634857
0.083362
-0.0824638
0.0244861
0.0236922
0.0815974
-0.0797382
0.0213156
0.0222445
0.0771445
-0.0742638
0.0174764
0.0191528
0.0714398
-0.0686515
0.0112079
0.0141669
0.0664471
-0.065038
0.00227407
0.0067119
0.0648227
-0.0658573
-0.00641815
-0.00229781
0.067794
-0.0702213
-0.011854
-0.00918241
0.0724761
-0.0746013
-0.0156157
-0.0132787
0.076622
-0.0789038
-0.0187098
-0.0166893
0.0812866
-0.0838745
-0.020523
-0.0190149
0.0864979
-0.0894572
-0.0216875
-0.0204267
0.0925901
-0.0961206
-0.0218339
-0.0211368
0.099756
-0.103637
-0.0202827
-0.0205902
0.107165
-0.110011
-0.0153914
-0.0177464
0.111185
-0.110091
-0.0053488
-0.0106538
0.106694
-0.101748
0.00763768
0.00118179
0.0965103
-0.0911732
0.0155234
0.0125381
0.0871331
-0.0858892
0.0168025
0.0169558
0.0145963
-0.08157
0.0790685
-0.0204436
-0.0217416
-0.0764586
0.0742377
-0.0176658
-0.0188618
-0.0718632
0.0700812
-0.0128898
-0.0148026
-0.0686554
0.0669594
-0.00611079
-0.00910264
-0.0650308
0.0631753
0.000537416
-0.0025902
-0.0623469
0.0629495
0.00746717
0.0036596
-0.0648262
0.0677539
0.0148618
0.010566
-0.0709209
0.0743385
0.0219761
0.0173868
-0.0775049
0.0808728
0.0293752
0.0242474
-0.0843205
0.0886075
0.0326006
0.0304033
-0.0933484
0.0985974
0.0203541
0.0272137
-0.102721
0.105173
-0.0029599
0.00833594
-0.105317
0.103551
-0.0189256
-0.0118169
-0.100756
0.0973092
-0.0240459
-0.0212197
-0.0940491
0.0907978
-0.0240728
-0.0230041
-0.0880783
0.085076
-0.0221775
-0.0226129
-0.0831597
0.0816069
-0.0201071
-0.0216269
-0.018766
-0.00946764
0.0156408
0.0734812
0.0767909
-0.0208871
0.0241042
0.0700102
0.0705425
-0.0260343
0.0277978
0.0713203
0.0694662
-0.0292886
0.0305517
0.0741213
0.0712786
-0.0315152
0.032188
0.078691
0.0749336
-0.0325033
0.0314717
0.0836892
0.0801657
-0.029103
0.0266831
0.0883142
0.0862121
0.0881146
0.0409294
-0.068107
-0.0443299
-0.0655346
0.0406615
-0.0718677
-0.0465624
-0.0651042
0.0415831
-0.0772669
-0.0464454
-0.0602364
0.0401128
-0.0835313
-0.041868
-0.0501981
0.0382934
-0.089085
-0.0315762
-0.0404895
0.0351144
-0.0932591
-0.0179082
-0.0407625
0.0265504
-0.0229076
-0.0948999
0.030248
-0.0962917
-0.00960689
-0.0578743
-0.0081176
0.00674855
-0.0783345
-0.00803275
-0.0722569
0.0296872
0.0716514
-0.0668862
0.0839368
-0.084321
0.0254094
-0.0772063
0.0474554
0.0594381
0.0314134
0.0852738
-0.0830048
0.022217
0.024645
0.0818337
-0.0793253
0.0188071
0.0210735
0.0771532
-0.0740686
0.0143918
0.0169807
0.0713924
-0.0689345
0.00875002
0.0114907
0.0672169
-0.0664069
0.00146403
0.00499427
0.0667012
-0.0679625
-0.00515682
-0.00200346
0.069705
-0.0716245
-0.00993458
-0.00743992
0.0733768
-0.0751766
-0.013816
-0.0115264
0.0770502
-0.0791872
-0.0165728
-0.0148157
0.0813613
-0.0837019
-0.0181823
-0.0168409
0.0860852
-0.0887483
-0.0190244
-0.0180435
0.0915063
-0.0945537
-0.0187865
-0.0183787
0.0976489
-0.100937
-0.0169944
-0.017495
0.103994
-0.106697
-0.0126881
-0.0146899
0.108381
-0.108675
-0.00505469
-0.0089699
0.107239
-0.104149
0.00454722
-0.000254304
0.100284
-0.0960013
0.0112405
0.00867367
0.0917863
-0.0883879
0.0134041
0.0127408
0.0863495
-0.0848262
0.0102715
0.0125579
0.0828197
-0.0810631
0.00499193
0.00741295
-0.0872822
0.0843477
-0.0193328
0.0893304
-0.0939237
-0.0183143
-0.0209194
-0.0817817
0.0795264
-0.0181883
-0.0191756
-0.0772336
0.0751951
-0.0156273
-0.016569
-0.0732788
0.0716287
-0.0112398
-0.0128862
-0.0704915
0.0695834
-0.00520264
-0.00796541
-0.0687218
0.0677191
0.00154008
-0.0017286
-0.0669203
0.0666389
0.00774854
0.00445843
-0.0671695
0.0686044
0.013427
0.0100354
-0.0706486
0.0733614
0.0192633
0.0153426
-0.0763589
0.080073
0.0256611
0.0212499
-0.0843094
0.0897527
0.0271573
0.0261669
-0.095506
0.101223
0.0146373
0.0214605
-0.105066
0.106702
-0.00459561
0.00449251
-0.106031
0.103649
-0.0165439
-0.0111462
-0.100581
0.0970766
-0.0205414
-0.0181513
-0.0938837
0.0907593
-0.0209484
-0.0198112
-0.0878539
0.0852652
-0.0195888
-0.0197075
-0.0829232
0.0812614
-0.0184453
-0.0192849
-0.079095
0.0791125
-0.0139996
-0.0165996
-0.00942706
-0.0114791
0.0157959
0.0691645
0.0073496
0.0745881
0.0726614
-0.0183011
0.0192634
0.0690478
0.0680373
-0.0205268
0.0216876
0.0701595
0.0682028
-0.0227006
0.0236019
0.0732201
0.0702655
-0.0243343
0.0248988
0.0781266
0.0742012
-0.0252141
0.024329
0.0845743
0.0798503
-0.0239166
0.0223777
0.0898531
0.0866245
-0.0173166
0.0128686
0.0943345
0.0931757
0.000310955
0.118796
0.100553
-0.0214837
0.0256945
-0.0991107
-0.0965336
-0.0188739
0.00409625
-0.00482539
-0.0776054
-0.0800402
0.0030734
0.0432715
-0.0707171
-0.0452371
-0.0668599
-0.0815148
-0.00621113
0.0450372
-0.0753218
-0.0477531
-0.0637964
0.110461
-0.0836971
0.0326739
0.0149018
-0.00250307
0.106397
0.0183783
0.106985
0.0447334
-0.0818874
-0.0458238
-0.0562806
0.0432729
-0.0885107
-0.0374087
-0.0443656
0.0406691
-0.0946397
-0.0231812
-0.0352164
0.0361667
-0.0991777
-0.00900118
-0.0413682
0.0307079
-0.101305
-0.00453428
-0.0613728
0.0208116
-0.0180158
-0.0993293
0.0244884
-0.102788
-0.00431299
-0.0727693
0.000794368
-0.000978412
-0.0774213
0.000502927
-0.0797488
-0.0688518
0.0856614
-0.0861984
0.0259464
0.0333777
0.0844676
-0.0834991
0.0212486
0.0229142
0.080974
-0.0788792
0.0167123
0.0185485
0.0758532
-0.0735434
0.012082
0.0139546
0.0713419
-0.0695498
0.00695792
0.00928918
0.0685322
-0.0683417
0.00127353
0.0039767
0.0689202
-0.0700624
-0.00401459
-0.00142498
0.0713766
-0.0727815
-0.00852968
-0.00612579
0.0741794
-0.0757822
-0.0122132
-0.0101284
0.0775104
-0.0794461
-0.0146371
-0.0130875
0.0813888
-0.0834897
-0.0160814
-0.0148982
0.0856284
-0.0879811
-0.0166717
-0.0159048
0.0903677
-0.0929523
-0.016202
-0.0159921
0.0955197
-0.098185
-0.0143291
-0.0149276
0.100624
-0.102802
-0.0105101
-0.0122506
0.104287
-0.104865
-0.00447708
-0.00748523
0.104252
-0.102379
0.00267338
-0.000866438
0.0993445
-0.0963006
0.00819665
0.0056396
0.0927614
-0.0892262
0.00986886
0.00920163
0.0859483
-0.083499
0.00782213
0.00928006
0.0824497
-0.0818223
0.00436452
0.00636368
0.0809645
-0.0809597
0.000498158
0.00221561
-0.0912102
0.0900305
-0.0171347
0.0942174
-0.0971712
-0.015062
-0.0158666
-0.0865912
0.0846463
-0.0173879
-0.0174801
-0.0818999
0.0800196
-0.016308
-0.0164291
-0.0780185
0.0761056
-0.0137144
-0.0145679
-0.0744901
0.0730608
-0.00981055
-0.0112707
-0.0720802
0.0714768
-0.00459929
-0.00698477
-0.0712182
0.0711093
0.00164896
-0.00146995
-0.0710772
0.0711758
0.00764998
0.0044905
-0.0715381
0.0723645
0.0126006
0.00967303
-0.0736768
0.0757253
0.0172149
0.0140304
-0.078401
0.0822089
0.0218532
0.0185741
-0.0868747
0.0927907
0.0212413
0.0215011
-0.098547
0.10356
0.00962465
0.0157043
-0.106287
0.10674
-0.00504856
0.00176527
-0.105317
0.102608
-0.0138349
-0.00972304
-0.0995662
0.0962717
-0.0172469
-0.0151099
-0.0933218
0.0904413
-0.0180679
-0.0168613
-0.087696
0.0857976
-0.0176903
-0.0169622
-0.0827983
0.0809747
-0.0166218
-0.0162856
-0.0794753
0.0797113
-0.0142357
-0.0151001
-0.0112306
-0.00484084
0.00756034
0.0718686
0.0756439
-0.0111201
0.0113051
0.0689795
0.0691016
-0.0119279
0.0124662
0.0685095
0.0674144
-0.0129605
0.0134339
0.0696862
0.0677085
-0.0138944
0.0143497
0.0727648
0.069805
-0.014752
0.0150805
0.0777981
0.0737989
-0.0152808
0.0153226
0.0845325
0.0796499
-0.0151642
0.0141617
0.0908557
0.0867829
-0.0126992
0.00922706
0.0978066
0.0946383
0.107277
-0.0151985
0.0180598
-0.102191
-0.0992842
-0.0130855
-0.0016519
0.00184095
-0.0799378
-0.0814197
-0.0011919
0.0474873
-0.0731672
-0.0484342
-0.0661787
0.105237
-0.095382
0.0228188
0.106044
0.0175714
0.0485501
-0.0791386
-0.0494956
-0.0601246
0.0479059
-0.0865204
-0.0435405
-0.0501488
0.0462173
-0.0940589
-0.0300058
-0.0375411
0.0422665
-0.10074
-0.0123812
-0.0318363
0.0364398
-0.10491
-0.000283989
-0.0456185
0.0294027
-0.106219
-0.000137819
-0.065548
0.0219233
-0.106651
-0.000180053
-0.0735677
0.0130574
-0.0118182
-0.100523
0.0158825
-0.105016
0.00245245
-0.0780328
-0.0972339
0.0953109
-0.00989517
0.00802496
-0.0969232
-0.00833573
0.0101512
-0.10265
1.53044e-05
0.0745596
-0.00271661
0.00417678
-0.081398
-0.00287692
-0.0812594
-0.0697987
0.0888516
-0.0862527
0.0233474
0.0268474
0.084562
-0.0821781
0.0188646
0.0212236
0.0798079
-0.0775102
0.0144146
0.0161784
0.0753805
-0.0734482
0.0101497
0.0118249
0.0719319
-0.070887
0.00591305
0.00777283
0.070437
-0.0705369
0.00137343
0.00352667
0.0710323
-0.0718114
-0.0032355
-0.000929517
0.072698
-0.0737555
-0.00747223
-0.00523918
0.0749501
-0.0763949
-0.0107684
-0.00893376
0.0779441
-0.0796569
-0.0129242
-0.0115384
0.081381
-0.0832558
-0.0142066
-0.0131741
0.0851526
-0.0872067
-0.0146177
-0.0140079
0.0892539
-0.0914267
-0.0140292
-0.0139449
0.0935319
-0.0956568
-0.0122042
-0.0128224
0.0975474
-0.0991962
-0.00886125
-0.01036
0.10031
-0.100772
-0.00401486
-0.00637175
0.100409
-0.0991477
0.00141187
-0.00122917
0.0971844
-0.094628
0.00564025
0.00367627
0.0919302
-0.0891549
0.00709357
0.00650382
0.0863682
-0.0843105
0.00576447
0.00649338
0.0821635
-0.0807333
0.00293431
0.00421667
0.0799593
-0.0802509
0.000789789
0.00144163
0.0809413
-0.0815017
-0.0023166
-0.000501506
-0.0938365
0.0919674
-0.0131929
-0.0116111
-0.0906983
0.0884821
-0.0149185
-0.0145975
-0.0860447
0.0840538
-0.015397
-0.0150427
-0.0822606
0.0804088
-0.0144561
-0.014636
-0.0785283
0.0768848
-0.0120709
-0.0126874
-0.0755253
0.0743333
-0.00861847
-0.00991127
-0.0735058
0.0730291
-0.00412259
-0.00615728
-0.072985
0.0733134
0.00132059
-0.00142587
-0.0738812
0.0746666
0.00686457
0.00392267
-0.0755585
0.0767085
0.0114505
0.00878118
-0.078102
0.0800911
0.0152258
0.0126368
-0.082689
0.0864397
0.0181025
0.0159763
-0.0909483
0.0962827
0.0159069
0.0169924
-0.10093
0.104375
0.00617983
0.0110566
-0.105707
0.105179
-0.00452006
0.000433405
-0.103393
0.10076
-0.0112017
-0.00793723
-0.0980204
0.0951232
-0.0143497
-0.0123707
-0.0925188
0.0899487
-0.0154978
-0.0142569
-0.0876994
0.08547
-0.0154609
-0.0147129
-0.0834784
0.0814991
-0.0146425
-0.014294
-0.0797454
0.0784566
-0.0129469
-0.0133464
-0.0780008
0.0798552
-0.00806554
-0.0107748
-0.00433214
-0.0030228
0.00465499
0.0702364
0.0726364
-0.00513103
0.00493125
0.0691793
0.0686256
-0.00464781
0.00434575
0.0688116
0.0676979
-0.004085
0.0038857
0.0698855
0.0679693
-0.00376846
0.0037142
0.072819
0.0699222
-0.0037102
0.00371742
0.0777908
0.0738029
-0.00372049
0.00370382
0.0845492
0.0796468
-0.00366058
0.00254683
0.0919694
0.0868261
-0.00341339
0.00215828
0.0990617
0.0937717
-0.00875034
0.00717821
0.107969
0.100685
-0.000796197
-0.013629
0.120469
0.113367
0.0509599
-0.075577
-0.051445
-0.0642293
0.0039956
-0.00374905
-0.0817482
0.00433541
-0.0815992
0.10621
-0.114386
-0.00545322
-0.0250122
0.0772888
0.0681926
0.0936731
-0.0124749
-0.0801148
0.0790751
-0.00127689
-0.0799252
-0.00393873
0.0511298
-0.0823625
-0.0486793
-0.0549858
0.050489
-0.0907921
-0.0373877
-0.042767
0.0475319
-0.0993242
-0.0189808
-0.0309415
0.042304
-0.106604
-0.000307484
-0.0318128
0.0350156
-0.110522
0.00637646
-0.0521328
0.0266673
-0.110963
0.00303328
-0.0687613
0.0184826
-0.109251
0.00437086
-0.0754861
-0.00663241
-0.0976854
0.00739468
-0.0954009
0.094562
-0.0057935
0.00424624
-0.0956127
-0.00403444
-0.0984456
0.00500643
0.0120309
-0.106895
0.00579513
-0.0796512
-0.103364
0.00810856
0.00905059
-0.0224917
0.0907299
-0.0797795
-0.00222565
-0.0193458
0.096589
-0.0702838
0.103992
-0.0975248
0.0163517
0.00717701
0.0909915
-0.0860222
0.0183782
0.0203141
0.0831678
-0.0808647
0.0165615
0.0183692
0.0788469
-0.0770724
0.0126401
0.0141605
0.0755499
-0.0742789
0.00887869
0.0103024
0.0733433
-0.0727326
0.0053024
0.00683722
0.0724638
-0.0724788
0.00138852
0.00325779
0.072715
-0.0731594
-0.00279106
-0.000693382
0.0737802
-0.0746485
-0.00660395
-0.00461836
0.0757015
-0.0769833
-0.00948661
-0.00788074
0.0783446
-0.07985
-0.0114188
-0.0101771
0.0813761
-0.0830365
-0.0125463
-0.011648
0.0847012
-0.08648
-0.0128389
-0.0123432
0.088225
-0.0900417
-0.0122125
-0.0121998
0.0917602
-0.0934475
-0.0105168
-0.0111039
0.0949032
-0.0961293
-0.00763516
-0.00890431
0.096921
-0.0972165
-0.00371936
-0.00558006
0.096914
-0.0959677
0.000465554
-0.0015317
0.0945004
-0.0925661
0.00370593
0.002209
0.0904869
-0.0883062
0.00491284
0.00442468
0.0863405
-0.0845923
0.00401632
0.00452766
0.083234
-0.0819681
0.00166841
0.00285827
0.0807669
-0.0796472
-0.000329857
0.000240467
-0.00107361
-0.0942154
0.0934029
-0.00908275
-0.00798909
-0.0926878
0.0913083
-0.0118134
-0.0108959
-0.0893833
0.0877309
-0.0132661
-0.0126725
-0.0858915
0.0839305
-0.013436
-0.0132033
-0.0821916
0.0804709
-0.0127355
-0.012897
-0.0789735
0.0775647
-0.010662
-0.0111901
-0.0764171
0.0754313
-0.00763273
-0.00876368
-0.0747568
0.0743802
-0.00374601
-0.00548275
-0.0743926
0.0748312
0.000881968
-0.0014382
-0.0756145
0.0767649
0.00571415
0.00313941
-0.0780848
0.0796927
0.00984263
0.00746128
-0.0814488
0.0836958
0.0129787
0.0108807
-0.0863711
0.0899237
0.01455
0.013301
-0.0938152
0.0979529
0.0117692
0.0131009
-0.101116
0.103067
0.00422923
0.00789338
-0.103433
0.102504
-0.00359132
6.72078e-05
-0.100811
0.0985572
-0.00894821
-0.00624374
-0.0962683
0.0938356
-0.0119169
-0.0100819
-0.0916122
0.0893722
-0.0132578
-0.0120335
-0.0873786
0.0853809
-0.0134632
-0.0127193
-0.0835901
0.0817783
-0.0128307
-0.0125032
-0.0799849
0.0783868
-0.0113488
-0.011553
-0.0774777
0.0780822
-0.00867006
-0.00986574
-0.00602941
0.00258462
-0.00105027
0.0730253
0.0762699
-0.000207723
-8.52634e-06
0.0704527
0.0713785
0.000929219
-0.00196982
0.0702199
0.0695463
0.00302035
-0.004047
0.0698382
0.0687484
0.00498338
-0.00581708
0.0707192
0.0689056
0.00649258
-0.00704797
0.0733744
0.0705977
0.00747184
-0.00777636
0.0780954
0.0742268
0.0079548
-0.00800288
0.0845973
0.0798253
0.00791583
-0.00772597
0.0917795
0.0867391
0.00746356
-0.00633785
0.097936
0.0935093
0.0041081
0.00204117
0.10182
0.0984552
0.0929164
0.00514362
-0.0822062
0.087398
-0.0130707
-0.00337694
0.0039571
-0.0823284
-0.0818805
-0.00142166
0.0523381
-0.0767853
-0.0516224
-0.0612862
0.052467
-0.0843405
-0.0436942
-0.0486792
0.0503968
-0.093657
-0.0269084
-0.0348394
0.00514054
-0.0827827
0.0459349
-0.102955
-0.00501332
-0.0262357
0.0393525
-0.110941
0.0113098
-0.0367461
0.0310846
-0.11494
0.0100942
-0.0591937
-0.00240531
-0.0954902
0.0022828
-0.0932524
0.0928689
-0.00202181
0.00086505
-0.0933015
-0.000815964
-0.0954208
0.000795694
0.0222235
-0.114704
0.00747203
-0.0718625
-0.0988741
0.00271129
0.0145945
-0.111815
0.00933729
-0.0790282
-0.103492
0.00513444
0.00891976
-0.107707
0.00865008
-0.0831577
0.0127892
-0.0178293
0.0924381
0.0542815
-0.087676
0.0479574
0.0101928
-0.00916822
0.0694301
-0.00314581
0.003786
-0.0829686
-0.0834426
-0.00158363
-0.00764113
0.0721154
-0.0695681
0.10077
-0.106427
0.000203536
-0.094607
-0.0116246
0.0931609
-0.00631144
0.102868