/*--------------------------------*- C++ -*----------------------------------*\
  =========                 |
  \\      /  F ield         | OpenFOAM: The Open Source CFD Toolbox
   \\    /   O peration     | Website:  https://openfoam.org
    \\  /    A nd           | Version:  10
     \\/     M anipulation  |
\*---------------------------------------------------------------------------*/
FoamFile
{
    format      ascii;
    class       volScalarField;
    location    "24";
    object      p;
}
// * * * * * * * * * * * * * * * * * * * * * * * * * * * * * * * * * * * * * //

dimensions      [0 2 -2 0 0 0 0];

internalField   nonuniform List<scalar> 
28942
(
-0.524063
-0.517991
-0.232941
0.260032
0.270116
0.0182805
0.0154023
0.0153488
0.0370677
0.0430794
-0.422587
-0.412719
-0.437657
-0.439913
0.00356989
0.00760243
0.474701
0.498141
0.120565
0.208452
0.358434
0.361671
-0.459006
-0.462917
-0.460737
-0.494273
0.793005
0.810171
-0.0370082
-0.0258092
-0.00488471
-0.00431153
0.0217492
0.0084568
0.19889
0.252973
0.490275
0.620141
0.0106309
0.517346
0.330601
0.358426
-0.0419182
-0.0353813
-0.0218969
0.0191131
0.0160557
0.0204041
0.0199064
0.0173988
0.021024
0.0499827
0.052268
0.047023
0.0543052
-0.370189
-0.30988
-0.441508
-0.434772
-0.438386
-0.443443
-0.444155
-0.443864
-0.154135
-0.25416
-0.119313
-0.0448581
0.446765
0.418423
-0.526887
-0.533157
-0.534301
0.440086
0.421707
0.433619
-0.295384
-0.288323
-0.213471
-0.207785
-0.264395
-0.180097
-0.316425
-0.604147
-0.651224
-0.0565226
0.04331
0.119174
0.0921814
0.0204149
0.0355076
0.0777225
0.101306
-0.467666
-0.451822
-0.457161
-0.462845
-0.473559
0.106856
0.159936
-0.687567
0.288387
0.290438
0.267665
0.274495
-0.0521536
-0.045481
-0.0580602
0.190799
0.199917
0.201657
-0.440933
-0.442484
-0.537883
-0.511786
-0.498259
0.888095
0.8211
0.76704
0.839987
-0.0136138
0.144939
0.0761828
0.0459542
0.0262316
0.927846
0.93992
0.906258
0.0521384
0.0959518
0.0230539
0.0263134
0.0232912
0.428669
0.540529
0.257284
0.247528
0.327323
0.178435
0.334676
0.367939
-0.508841
-0.4908
0.105016
-0.000218224
-0.00361506
-0.265712
-0.282837
-0.257331
-0.482105
0.181169
0.177871
-0.04504
0.000296387
-0.000708054
-0.000806529
0.000192912
0.260948
0.185855
-0.440331
-0.430583
-0.436015
-0.548949
-0.516137
0.00060851
-0.473857
-0.444958
0.380327
0.392283
0.450795
0.428248
0.349089
0.0796284
0.0773949
0.0668793
0.0585768
0.165209
0.151935
0.172114
0.184546
0.181287
0.188448
0.201015
0.237651
0.217744
0.194511
0.215702
0.259711
0.317274
0.337528
-0.365582
-0.333365
-0.480044
0.0198987
0.0212338
-0.393146
-0.404918
0.0163404
0.0160806
0.0180633
0.017841
-0.235409
-0.23098
-0.242434
-0.444467
-0.449422
-0.467764
-0.449525
-0.450176
-0.448672
-0.477533
-0.53804
-0.497939
0.87647
0.849304
0.890111
-0.0349753
-0.0245779
-0.0302483
0.490673
0.474394
0.482964
-0.0782793
-0.0821634
-0.0757715
-0.0874474
-0.0943185
-0.102775
-0.10533
-0.112762
-0.115563
-0.0965697
-0.0892721
-0.083498
-0.0791545
-0.076281
-0.124267
-0.12766
-0.0746319
-0.0747033
-0.0749303
-0.137301
-0.141772
-0.0745193
-0.151632
-0.166312
-0.156845
-0.172233
-0.0766079
-0.075842
-0.180642
-0.187342
-0.0799301
-0.0786625
-0.19385
-0.201401
-0.0849289
-0.0831215
-0.205295
-0.213657
-0.0917665
-0.0893495
-0.214234
-0.223262
-0.100541
-0.0974217
-0.22021
-0.229628
-0.111314
-0.107394
-0.222731
-0.232345
-0.12402
-0.119187
-0.221795
-0.231333
-0.13882
-0.132795
-0.217336
-0.226466
-0.154746
-0.147491
-0.209768
-0.217951
-0.171782
-0.163044
-0.198898
-0.206496
-0.188416
-0.178148
-0.18557
-0.192786
-0.177173
-0.19537
-0.203835
-0.191777
-0.141937
-0.1591
-0.112987
-0.126607
-0.0923308
-0.101615
-0.0795688
-0.0850231
-0.073692
-0.0758089
-0.073738
-0.0730129
-0.0792406
-0.0758606
-0.0902444
-0.0839709
-0.107382
-0.0980392
-0.130391
-0.118135
-0.157766
-0.143858
-0.183824
-0.171333
-0.202874
-0.194549
-0.210448
-0.208284
-0.204886
-0.209272
-0.187995
-0.197634
-0.176429
-0.171654
-0.177696
-0.223365
-0.197537
-0.21174
-0.237059
-0.231993
-0.235311
-0.238193
-0.218602
-0.228632
-0.191175
-0.205837
-0.159537
-0.175471
-0.129533
-0.144023
-0.105889
-0.116677
-0.0892821
-0.0967459
-0.0785067
-0.083199
-0.0731906
-0.0751954
-0.0734186
-0.0725691
-0.0795846
-0.075716
-0.0923605
-0.0851112
-0.112123
-0.101377
-0.137766
-0.124349
-0.164877
-0.151505
-0.177022
-0.212483
-0.163783
-0.181698
-0.202736
-0.186469
-0.226879
-0.216301
-0.179586
-0.216993
-0.198794
-0.142631
-0.160532
-0.112685
-0.126653
-0.0911988
-0.10088
-0.077726
-0.0835318
-0.0711212
-0.073633
-0.0704145
-0.070066
-0.0750125
-0.0720526
-0.0849392
-0.0793126
-0.100874
-0.092175
-0.122401
-0.110965
-0.147793
-0.134875
-0.172058
-0.160426
-0.189697
-0.182009
-0.196598
-0.194646
-0.191492
-0.195493
-0.176159
-0.184921
-0.157682
-0.151276
-0.154722
-0.165877
-0.199616
-0.183423
-0.1656
-0.162358
-0.226127
-0.214206
-0.239933
-0.234905
-0.23775
-0.24088
-0.220424
-0.230768
-0.19236
-0.207348
-0.16006
-0.176316
-0.129608
-0.144299
-0.105103
-0.116442
-0.0876995
-0.0955707
-0.0764108
-0.0813845
-0.0703222
-0.0727161
-0.0696016
-0.0692775
-0.074551
-0.0713323
-0.0856906
-0.0793215
-0.103183
-0.0936719
-0.125888
-0.114024
-0.149963
-0.138103
-0.168749
-0.160488
-0.232602
-0.19234
-0.173851
-0.209773
-0.143528
-0.166557
-0.236857
-0.243888
-0.194343
-0.175381
-0.224804
-0.144119
-0.134463
-0.150101
-0.150105
-0.246784
-0.249497
-0.257927
-0.254397
-0.217981
-0.234452
-0.178973
-0.19893
-0.140975
-0.159292
-0.110348
-0.124567
-0.0884017
-0.0983098
-0.0744855
-0.0805163
-0.0673729
-0.0701549
-0.0660052
-0.0660227
-0.0697798
-0.0672638
-0.078604
-0.0735455
-0.0931048
-0.0851378
-0.113
-0.102434
-0.136411
-0.124501
-0.158769
-0.148062
-0.174903
-0.167891
-0.181142
-0.17939
-0.1765
-0.180121
-0.162774
-0.170569
-0.153711
-0.14441
-0.132904
-0.139392
-0.147964
-0.198942
-0.165142
-0.182393
-0.225897
-0.213777
-0.239559
-0.234639
-0.237039
-0.240365
-0.219267
-0.229834
-0.190839
-0.205993
-0.15827
-0.17465
-0.127692
-0.142428
-0.102893
-0.11445
-0.0849069
-0.0930805
-0.0729788
-0.0782591
-0.066186
-0.0689619
-0.0644683
-0.0646874
-0.0680975
-0.0655858
-0.0774932
-0.072056
-0.0926948
-0.084404
-0.112507
-0.102176
-0.133477
-0.123155
-0.149729
-0.142675
-0.155156
-0.154146
-0.172938
-0.152512
-0.24143
-0.212591
-0.125227
-0.148199
-0.248692
-0.191923
-0.250683
-0.146485
-0.166417
-0.243921
-0.231469
-0.228568
-0.256463
-0.253329
-0.246221
-0.254475
-0.215131
-0.232573
-0.175231
-0.195478
-0.136957
-0.155465
-0.106141
-0.120452
-0.0840687
-0.0940413
-0.0699514
-0.076098
-0.0624866
-0.0654676
-0.0605766
-0.0608916
-0.0635642
-0.0614808
-0.071333
-0.066835
-0.084321
-0.07715
-0.102446
-0.0928066
-0.123796
-0.112936
-0.144178
-0.134421
-0.158829
-0.152474
-0.164451
-0.162878
-0.160303
-0.163532
-0.148193
-0.155074
-0.132133
-0.140379
-0.116271
-0.123925
-0.123426
-0.109274
-0.116865
-0.132459
-0.128632
-0.135731
-0.134837
-0.132355
-0.134889
-0.16139
-0.12802
-0.14422
-0.195333
-0.178724
-0.22239
-0.210177
-0.235941
-0.231147
-0.233122
-0.236588
-0.215156
-0.225799
-0.186706
-0.20185
-0.154233
-0.170556
-0.123798
-0.13846
-0.0990416
-0.110609
-0.0807854
-0.0891296
-0.0683367
-0.0738982
-0.0608614
-0.0640058
-0.0581721
-0.0589153
-0.0604793
-0.0586797
-0.0681137
-0.0636173
-0.0810421
-0.0739546
-0.0980548
-0.0891871
-0.115948
-0.107171
-0.129788
-0.123718
-0.134282
-0.133575
-0.125979
-0.131711
-0.13727
-0.117545
-0.240843
-0.210854
-0.24439
-0.185782
-0.105892
-0.100369
-0.118066
-0.113085
-0.237779
-0.156485
-0.223064
-0.239092
-0.12537
-0.106897
-0.227535
-0.227312
-0.2516
-0.247641
-0.241378
-0.24977
-0.209
-0.227085
-0.16892
-0.18921
-0.130772
-0.149158
-0.100162
-0.114362
-0.0783193
-0.0881883
-0.064257
-0.0704047
-0.0566061
-0.0597111
-0.0542546
-0.0548228
-0.0565185
-0.0548357
-0.0632298
-0.0593069
-0.0747352
-0.0683572
-0.0910261
-0.0823429
-0.110303
-0.100495
-0.128707
-0.1199
-0.14189
-0.136178
-0.146936
-0.145523
-0.14328
-0.14613
-0.132826
-0.138685
-0.119228
-0.126242
-0.112303
-0.115344
-0.103367
-0.109947
-0.12212
-0.119448
-0.123164
-0.123402
-0.121376
-0.155325
-0.121661
-0.138126
-0.189144
-0.17258
-0.215903
-0.203868
-0.229151
-0.224492
-0.226084
-0.229649
-0.208148
-0.218733
-0.180041
-0.194981
-0.148075
-0.164139
-0.118095
-0.132547
-0.0936053
-0.105067
-0.0753242
-0.0837222
-0.0625261
-0.0682996
-0.054439
-0.0579215
-0.0508329
-0.0520746
-0.051861
-0.0507522
-0.0577736
-0.0541983
-0.0684843
-0.0625681
-0.0828294
-0.0753419
-0.097876
-0.0905186
-0.109214
-0.104303
-0.11252
-0.112099
-0.105293
-0.110273
-0.0881232
-0.0977227
-0.0946709
-0.077542
-0.234369
-0.204395
-0.0956885
-0.106496
-0.233426
-0.219255
-0.220356
-0.176018
-0.144043
-0.212846
-0.195677
-0.20232
-0.112255
-0.0828307
-0.066939
-0.220736
-0.233937
-0.205647
-0.222324
-0.244561
-0.241479
-0.232775
-0.241937
-0.200009
-0.218154
-0.159919
-0.180139
-0.122403
-0.140413
-0.0925679
-0.106391
-0.0713282
-0.0809279
-0.0575626
-0.0636036
-0.0498827
-0.0530416
-0.0471929
-0.0479683
-0.0488034
-0.0474885
-0.0544984
-0.0511328
-0.0645597
-0.0589599
-0.0790127
-0.0712886
-0.0962378
-0.0874654
-0.112707
-0.104827
-0.124482
-0.119385
-0.129
-0.127724
-0.1259
-0.12833
-0.117033
-0.121999
-0.10566
-0.111416
-0.0949525
-0.100075
-0.0870707
-0.0905683
-0.0988429
-0.0845933
-0.0921242
-0.108825
-0.104427
-0.113534
-0.111869
-0.112488
-0.113741
-0.105687
-0.109819
-0.0932906
-0.100138
-0.113531
-0.0852485
-0.0985848
-0.146901
-0.129862
-0.180383
-0.164046
-0.206639
-0.194854
-0.21941
-0.214964
-0.216138
-0.219759
-0.198451
-0.20885
-0.171015
-0.185576
-0.139936
-0.155546
-0.110757
-0.124839
-0.0867642
-0.09802
-0.0686355
-0.0770011
-0.0556426
-0.0615556
-0.0470417
-0.0508203
-0.0425926
-0.0442979
-0.0424103
-0.0419563
-0.0466827
-0.0439853
-0.0552816
-0.0504796
-0.0671162
-0.0609212
-0.0795547
-0.073486
-0.0886858
-0.0847936
-0.0906882
-0.0907651
-0.0838638
-0.088353
-0.0692089
-0.0773043
-0.051427
-0.0602784
-0.0573464
-0.0431694
-0.223878
-0.187255
-0.215902
-0.0776678
-0.0761149
-0.0818531
-0.0736966
-0.193982
-0.162795
-0.2005
-0.12996
-0.098755
-0.0716607
-0.0490421
-0.0363159
-0.210042
-0.197038
-0.165063
-0.155834
-0.177559
-0.225817
-0.213848
-0.234352
-0.232598
-0.220866
-0.230623
-0.187928
-0.206048
-0.148431
-0.168247
-0.112183
-0.129514
-0.083619
-0.0968396
-0.0633029
-0.0724907
-0.0500476
-0.0558851
-0.0424849
-0.0456315
-0.0395588
-0.0404947
-0.0405921
-0.0396093
-0.0453333
-0.0424955
-0.0540054
-0.0491566
-0.0666656
-0.059879
-0.0818983
-0.0741285
-0.0965149
-0.0895192
-0.106964
-0.102442
-0.111011
-0.109846
-0.108476
-0.110492
-0.101107
-0.105228
-0.0917805
-0.0964879
-0.0833531
-0.0873568
-0.0801009
-0.0956942
-0.0831323
-0.0899624
-0.103724
-0.100307
-0.10654
-0.105815
-0.103674
-0.105821
-0.0953064
-0.100179
-0.0891551
-0.103963
-0.076094
-0.0892268
-0.136583
-0.119891
-0.169325
-0.153383
-0.194851
-0.183437
-0.207015
-0.202836
-0.203589
-0.207215
-0.186355
-0.196452
-0.159888
-0.173916
-0.130022
-0.145016
-0.101954
-0.115514
-0.078701
-0.0896408
-0.0608878
-0.0691459
-0.0478321
-0.0538209
-0.0388237
-0.0428486
-0.033624
-0.0357477
-0.0323268
-0.0324779
-0.0350777
-0.0331949
-0.0417206
-0.0379498
-0.0512453
-0.0462367
-0.0613167
-0.056411
-0.0685138
-0.0655022
-0.0695152
-0.0699451
-0.0628654
-0.0671243
-0.0500581
-0.0569832
-0.0356964
-0.0428469
-0.023695
-0.0291678
-0.181296
-0.172819
-0.0307219
-0.0194184
-0.207942
-0.0755679
-0.0645521
-0.134389
-0.179947
-0.142475
-0.195838
-0.147444
-0.181005
-0.115504
-0.0866269
-0.0621837
-0.0423616
-0.0264791
-0.0160376
-0.195055
-0.143406
-0.113335
-0.102004
-0.121996
-0.185291
-0.165274
-0.213865
-0.201937
-0.220852
-0.220222
-0.205731
-0.216036
-0.173028
-0.190858
-0.134844
-0.153899
-0.100439
-0.116827
-0.0735678
-0.0859934
-0.0544579
-0.063108
-0.0418996
-0.0474492
-0.0345837
-0.0376585
-0.0315177
-0.0325688
-0.0320538
-0.0313643
-0.0359165
-0.033569
-0.0432763
-0.0391396
-0.0542219
-0.0483336
-0.067552
-0.0607373
-0.0804221
-0.0742564
-0.0896458
-0.0856508
-0.093281
-0.0922072
-0.0912866
-0.0929149
-0.0853013
-0.0886419
-0.07786
-0.0815971
-0.0714237
-0.0743728
-0.0676316
-0.0691281
-0.0673803
-0.0670441
-0.0829593
-0.0686998
-0.0761859
-0.0938218
-0.0889132
-0.099996
-0.0975238
-0.101026
-0.101179
-0.0965473
-0.0994796
-0.0868313
-0.092298
-0.072412
-0.0801426
-0.0546973
-0.0638294
-0.0658289
-0.0448544
-0.0546306
-0.0929772
-0.0786372
-0.12463
-0.108436
-0.156332
-0.1409
-0.180879
-0.16994
-0.192336
-0.188456
-0.188805
-0.192391
-0.172207
-0.181899
-0.146973
-0.160327
-0.118595
-0.132838
-0.0918878
-0.104805
-0.069591
-0.0801128
-0.052255
-0.0603315
-0.0392602
-0.0452658
-0.0299533
-0.0341708
-0.0241114
-0.026599
-0.0218198
-0.0225132
-0.0231984
-0.0220506
-0.0280787
-0.0252361
-0.0355345
-0.0315865
-0.0435038
-0.0396281
-0.0490168
-0.046764
-0.049238
-0.0499171
-0.0430126
-0.0469026
-0.0319858
-0.0378633
-0.0203217
-0.0259899
-0.0113532
-0.0154144
-0.00591076
-0.00824423
-0.158693
-0.150517
-0.0136868
-0.00432827
-0.188828
-0.163438
-0.0833114
-0.0938613
-0.121147
-0.174992
-0.131413
-0.0585914
-0.0604425
-0.0464746
-0.0366983
-0.160257
-0.101646
-0.0757413
-0.0543331
-0.0371403
-0.023355
-0.0659496
-0.0524767
-0.0371785
-0.0124548
-0.00361783
-0.0503984
-0.177273
-0.0880124
-0.0689844
-0.130182
-0.108898
-0.171098
-0.151392
-0.198547
-0.18719
-0.204246
-0.204348
-0.187761
-0.198503
-0.1558
-0.173035
-0.1196
-0.137569
-0.0875433
-0.10276
-0.0627052
-0.0741825
-0.0450231
-0.0530371
-0.0333093
-0.0385038
-0.0263485
-0.0293009
-0.0232303
-0.0243545
-0.0233495
-0.0229132
-0.0264186
-0.024518
-0.0325601
-0.0290873
-0.041893
-0.0368512
-0.0534333
-0.0475154
-0.0646803
-0.0592829
-0.0727877
-0.0692692
-0.0760667
-0.0750659
-0.0745745
-0.0758466
-0.0698386
-0.072477
-0.0640969
-0.0669509
-0.0594368
-0.0615229
-0.0573357
-0.0580294
-0.0575509
-0.0840004
-0.0709372
-0.077929
-0.0931543
-0.0890955
-0.097603
-0.0959966
-0.0969289
-0.097922
-0.0909649
-0.094603
-0.0800083
-0.0860672
-0.0647431
-0.0728439
-0.0559021
-0.054849
-0.0346565
-0.044021
-0.0808836
-0.0671926
-0.111337
-0.0957528
-0.141733
-0.126956
-0.16511
-0.154726
-0.175797
-0.172233
-0.172214
-0.175718
-0.156401
-0.165602
-0.132605
-0.14518
-0.105939
-0.11932
-0.0807925
-0.0929711
-0.0596228
-0.0696442
-0.0429084
-0.0507346
-0.0300944
-0.0360589
-0.0206009
-0.0249548
-0.0142363
-0.0170264
-0.0110891
-0.0122523
-0.0112668
-0.0107635
-0.0146011
-0.0125723
-0.0202509
-0.0172272
-0.0263997
-0.0234138
-0.0304755
-0.0288653
-0.0300837
-0.0309422
-0.0243829
-0.0278544
-0.0151031
-0.0199763
-0.00587069
-0.0102589
0.000608408
-0.00223459
0.00408196
0.00269119
0.00500135
0.00476752
-0.0759603
-0.00364576
-0.0120276
-0.00480933
0.00310424
0.00447846
-0.138545
-0.129234
-0.168651
-0.145948
-0.0632713
-0.026677
-0.101212
-0.154553
-0.115838
-0.139425
-0.0890666
-0.0664583
-0.0481035
-0.0332868
-0.0214289
-0.0233236
-0.00840632
0.00377356
0.0107089
0.00819746
0.000684098
-0.0112138
-0.0365134
-0.0603368
-0.012941
-0.00700718
-0.158305
-0.0373708
-0.0220598
-0.074186
-0.054919
-0.115994
-0.0949846
-0.155228
-0.136502
-0.180783
-0.17038
-0.184749
-0.185649
-0.167484
-0.178401
-0.136796
-0.153153
-0.103164
-0.119765
-0.07387
-0.0877334
-0.0513167
-0.061735
-0.0352208
-0.042528
-0.02446
-0.0292491
-0.0179405
-0.0207293
-0.0148469
-0.0160064
-0.0146276
-0.0144044
-0.016993
-0.0154922
-0.0220224
-0.0191584
-0.0298614
-0.0256055
-0.0397394
-0.0346535
-0.0494951
-0.0448005
-0.0565971
-0.0535048
-0.0595692
-0.0586268
-0.0585341
-0.0594853
-0.054906
-0.0569234
-0.0506645
-0.052738
-0.0476077
-0.0488986
-0.0469543
-0.0469188
-0.0493568
-0.0477599
-0.0550599
-0.0517435
-0.0742459
-0.0593009
-0.0670628
-0.0860994
-0.080652
-0.0936983
-0.09047
-0.0965182
-0.0957305
-0.0942072
-0.0960116
-0.0867816
-0.0911154
-0.0746587
-0.0812646
-0.0585561
-0.067048
-0.0398352
-0.0494333
-0.0198494
-0.0299605
-0.0241167
-0.00994034
-0.0165273
-0.0434141
-0.0330406
-0.068081
-0.0550788
-0.0970318
-0.082217
-0.125891
-0.111869
-0.14796
-0.138184
-0.157854
-0.154604
-0.15427
-0.15766
-0.139354
-0.148002
-0.117147
-0.128863
-0.0923505
-0.104791
-0.068911
-0.0802796
-0.0489979
-0.0584559
-0.0330236
-0.0405413
-0.0205018
-0.0263701
-0.0109345
-0.0153673
-0.00417373
-0.0072008
-0.000321207
-0.00187554
0.000517806
0.000473713
-0.00149728
-0.000163317
-0.00560769
-0.00337115
-0.0102147
-0.00798068
-0.0130949
-0.0120145
-0.0122488
-0.0132178
-0.00714842
-0.010174
0.000429092
-0.00347627
0.00738664
0.00415879
0.0118067
0.00994007
0.0137048
0.0130447
0.0134334
0.0138047
0.0123857
-0.120519
-0.111214
-0.00262399
0.004902
-0.148913
-0.128779
-0.0838683
-0.13529
-0.101563
-0.046507
-0.0510273
-0.0144365
-0.00444558
-0.120241
-0.0782102
-0.058913
-0.0433006
-0.0307584
-0.0208094
0.0146133
0.0302024
0.0393228
0.0240219
-0.00023926
-0.0239508
-0.0464202
-0.0150817
-0.0105886
0.000592321
-0.00719659
-0.13971
0.00721741
0.0199079
-0.022907
-0.00711253
-0.0599723
-0.0405923
-0.100795
-0.0803467
-0.137827
-0.120374
-0.160891
-0.151709
-0.163007
-0.164704
-0.145464
-0.156269
-0.116599
-0.131804
-0.0860264
-0.101032
-0.0597978
-0.072182
-0.0396828
-0.0489772
-0.0252639
-0.0318235
-0.015524
-0.0198752
-0.00950802
-0.0121021
-0.00650373
-0.00766548
-0.00601943
-0.00597098
-0.00777282
-0.00662331
-0.0118043
-0.00948947
-0.0182793
-0.0147432
-0.02663
-0.0223082
-0.0350272
-0.0309702
-0.0412318
-0.038517
-0.0439401
-0.0430448
-0.0433121
-0.0439799
-0.0406482
-0.0421267
-0.0377013
-0.0391028
-0.0360217
-0.0366282
-0.0366086
-0.0359961
-0.04001
-0.0379827
-0.0428254
-0.0786573
-0.0644444
-0.0719563
-0.0892796
-0.0844521
-0.0954521
-0.0929528
-0.0967183
-0.0967211
-0.092816
-0.0954119
-0.0839235
-0.0889633
-0.0706382
-0.0777796
-0.0537805
-0.0625967
-0.0345382
-0.0443581
-0.0245141
-0.0135033
-8.50167e-05
-0.00623892
-0.0316529
-0.0219387
-0.0548264
-0.0426129
-0.0820331
-0.0681063
-0.10917
-0.0959856
-0.129853
-0.12071
-0.138967
-0.136015
-0.135432
-0.138684
-0.121488
-0.12954
-0.10096
-0.111773
-0.0781251
-0.0895796
-0.0564835
-0.0669967
-0.0379181
-0.0467671
-0.0227777
-0.0299395
-0.0106481
-0.0163693
-0.00111783
-0.00557236
0.00591036
0.00271346
0.0103136
0.00844917
0.0119809
0.0114883
0.0110582
0.0118155
0.00822935
0.00981034
0.00490278
0.00651364
0.00299578
0.00365024
0.00414714
0.00313051
0.00857952
0.00602171
0.0145113
0.0115285
0.0193923
0.017206
0.0220258
0.0209905
0.0226463
0.0225607
0.0215027
0.0223038
0.0181488
0.0201219
0.0122436
0.0155285
-0.00497118
0.00296471
0.00810476
-0.103951
-0.0943553
-0.130295
-0.112889
-0.0564388
0.00524095
-0.0686693
-0.117672
-0.0891235
-0.103499
-0.0692367
-0.052986
-0.0398946
-0.0294867
-0.0212908
0.0480313
0.0633418
0.0713181
0.0105485
0.00473854
-0.00326984
0.056099
0.0328467
0.00979593
-0.0127655
-0.033977
-0.018518
-0.0153457
-0.0131751
-0.0117235
-0.122419
0.0454155
0.0548669
0.0218506
0.0344311
-0.0088528
0.00733211
-0.0453668
-0.0264308
-0.0847107
-0.0650889
-0.119195
-0.103152
-0.139404
-0.131603
-0.139654
-0.142072
-0.122318
-0.132727
-0.0958229
-0.109619
-0.0686758
-0.0819296
-0.0456774
-0.0565205
-0.0280564
-0.0362061
-0.0153434
-0.0211417
-0.00665481
-0.010552
-0.00118277
-0.00356055
0.00168006
0.000543729
0.00236193
0.00227166
0.00113018
0.001977
-0.00202119
-0.000193394
-0.00726774
-0.00438249
-0.0142286
-0.0106028
-0.0213957
-0.0179139
-0.026803
-0.0244212
-0.0292852
-0.0284283
-0.0290121
-0.0294345
-0.0271716
-0.0281912
-0.0253189
-0.0261535
-0.0247972
-0.0248283
-0.0264521
-0.0253249
-0.0306878
-0.0282314
-0.0377825
-0.0338949
-0.0482044
-0.0425216
-0.0707034
-0.0547126
-0.0628911
-0.084151
-0.077885
-0.0936125
-0.0894435
-0.0984435
-0.0966334
-0.0981958
-0.0989736
-0.0927185
-0.0960999
-0.0823423
-0.0881028
-0.0678332
-0.0755426
-0.0501914
-0.0593395
-0.0304845
-0.0405211
-0.00999499
-0.0202154
0.00964417
-3.05331e-05
0.00965234
0.0189535
0.0146269
-0.00296732
0.00383583
-0.0198425
-0.0108529
-0.0413643
-0.0300229
-0.0666517
-0.0537013
-0.0919335
-0.0796436
-0.111196
-0.102691
-0.119571
-0.116892
-0.116147
-0.119231
-0.103211
-0.110651
-0.0843943
-0.0942885
-0.0635494
-0.0740034
-0.0437415
-0.0533797
-0.0265764
-0.0347877
-0.0123412
-0.0191093
-0.000691829
-0.00621984
0.00869544
0.00427463
0.0158634
0.0125634
0.0206636
0.0185695
0.0229744
0.0221297
0.0229264
0.0232197
0.021139
0.022186
0.0188571
0.0199599
0.0177263
0.0180465
0.0190447
0.0180419
0.0227413
0.0206736
0.0270938
0.0249788
0.0301394
0.0288562
0.0312736
0.0309286
0.0308503
0.0312348
0.0289895
0.0301178
0.0252729
0.0273937
0.0193271
0.0225983
0.0153281
-0.0889642
-0.07957
-0.0107327
-0.00199454
-0.113542
-0.098896
-0.055487
-0.102156
-0.0787072
-0.0396154
-0.0460422
0.0132095
0.0224105
-0.0892217
-0.0620742
-0.0485941
-0.0378363
-0.0294359
-0.0230755
0.0786572
0.0935373
0.0997587
0.0854292
0.063667
0.0412024
0.0188855
-0.00270728
-0.0233481
-0.0233937
-0.0215744
-0.0205256
-0.0199208
-0.00962244
-0.0193911
-0.107037
0.0780231
0.0862611
0.0591067
0.0690145
0.0352251
0.0480171
0.00479084
0.020759
-0.0308178
-0.0124724
-0.0682228
-0.0497052
-0.0996854
-0.0852603
-0.116769
-0.110448
-0.1153
-0.118309
-0.0987059
-0.108424
-0.0750697
-0.0872457
-0.05156
-0.0629871
-0.0318219
-0.0411236
-0.0166617
-0.0236854
-0.00562726
-0.0106753
0.00201357
-0.00142838
0.00692222
0.00477317
0.0096038
0.0085152
0.0104232
0.010227
0.00962672
0.0102179
0.00723782
0.00864106
0.00308176
0.00538625
-0.00262543
0.000371047
-0.00868253
-0.00571841
-0.0133822
-0.0112938
-0.0156696
-0.0148446
-0.0156998
-0.0159135
-0.0145494
-0.0151856
-0.0136028
-0.0139689
-0.0140316
-0.0135908
-0.0165585
-0.0150077
-0.0215238
-0.0187209
-0.0290372
-0.0249804
-0.033967
-0.0780905
-0.0621241
-0.0704594
-0.090819
-0.0849134
-0.0991959
-0.095581
-0.102737
-0.101606
-0.100975
-0.10253
-0.0939003
-0.0980808
-0.0819967
-0.0885033
-0.0661675
-0.0745025
-0.0475711
-0.0571399
-0.0273473
-0.0376008
-0.00656433
-0.0169216
0.00349417
0.0190328
0.0276619
0.0237285
0.00732495
0.0136302
-0.00816591
0.000102
-0.027939
-0.0175237
-0.0511824
-0.0392693
-0.0745228
-0.0631616
-0.0923672
-0.0844877
-0.10007
-0.0976286
-0.0968138
-0.0997056
-0.084902
-0.0917298
-0.0677744
-0.0767628
-0.0488896
-0.0583575
-0.0309006
-0.039668
-0.0151525
-0.0227134
-0.00187168
-0.00821775
0.00922132
0.00392762
0.0183659
0.0140316
0.0255503
0.022212
0.0305989
0.0283527
0.0333779
0.0322723
0.0340038
0.0339364
0.0330426
0.0336638
0.0315993
0.0322941
0.0310722
0.0311395
0.0324249
0.0314977
0.0353187
0.0337615
0.0381814
0.0368648
0.0396511
0.0391269
0.0395755
0.0397813
0.0383201
0.0390822
0.0358873
0.0372702
0.0319187
0.0341187
0.0260417
0.0292464
0.0177344
0.0222097
0.00642773
0.0124381
-0.018482
-0.00822102
-0.000464869
-0.0756809
-0.0666556
-0.0990169
-0.0870346
-0.0533668
0.0311345
-0.0438777
-0.0888487
-0.0702642
-0.0771506
-0.0566062
-0.0456736
-0.0371619
-0.0307925
-0.026288
0.105772
0.119139
0.124364
0.0012678
-0.00643027
-0.017029
0.11123
0.0915401
0.0705902
0.0489716
0.0272283
0.00605978
-0.0140765
-0.029856
-0.0294222
-0.0294958
-0.0295899
-0.0294369
-0.0284658
-0.0938475
0.107098
0.113564
0.0911334
0.0996442
0.0714904
0.0817253
0.0475209
0.0602505
0.0176711
0.0332831
-0.0167184
0.000884493
-0.0516275
-0.0345216
-0.0796155
-0.0669948
-0.093411
-0.0885855
-0.0905812
-0.093947
-0.0753036
-0.0840469
-0.0548851
-0.0653051
-0.0350608
-0.0446665
-0.0184884
-0.0263035
-0.00568049
-0.0116294
0.00374724
-0.000580977
0.0103712
0.0073737
0.0147143
0.0127987
0.0171862
0.0161626
0.018091
0.017818
0.0176492
0.018029
0.0159085
0.0169484
0.0127058
0.0144993
0.00811959
0.0105509
0.00306266
0.00556062
-0.00100676
0.000821981
-0.00312416
-0.00232686
-0.00340872
-0.003448
-0.00282616
-0.00314829
-0.00261321
-0.00260123
-0.00380108
-0.0029846
-0.00701289
-0.00513173
-0.0125191
-0.00947034
-0.0203758
-0.0161491
-0.0308873
-0.0252823
-0.0445124
-0.0372256
-0.0707405
-0.0528709
-0.0619527
-0.0865377
-0.0790152
-0.0986697
-0.0931597
-0.10614
-0.103012
-0.108416
-0.107964
-0.105109
-0.107462
-0.096376
-0.10139
-0.0828643
-0.0901592
-0.0656118
-0.0746285
-0.0458986
-0.0559781
-0.0250173
-0.0355341
-0.00400289
-0.0144614
0.0160565
0.00623981
0.0339574
0.0252956
0.0360477
0.0420005
0.0392584
0.0279888
0.0323105
0.0172834
0.0230091
0.0031738
0.0106859
-0.0147714
-0.00532366
-0.0358959
-0.0250581
-0.057247
-0.0468316
-0.0737023
-0.0664221
-0.0808207
-0.0785699
-0.077791
-0.0804692
-0.0668936
-0.0731228
-0.0513895
-0.0595094
-0.0343845
-0.0429059
-0.0181557
-0.0260773
-0.00380844
-0.0107212
0.00848932
0.00258466
0.0189618
0.0139383
0.0277717
0.023573
0.0348558
0.0315404
0.0400133
0.0376874
0.0430997
0.041816
0.0442213
0.0438839
0.0439012
0.044189
0.0431224
0.043494
0.0430443
0.0429338
0.0442956
0.0435084
0.0463282
0.0452937
0.0478251
0.0472193
0.047989
0.0480803
0.0469651
0.0475994
0.0450591
0.0461178
0.0421877
0.0437623
0.038039
0.0402927
0.0322748
0.0353835
0.0244857
0.0286578
0.0142796
0.0196848
0.00812401
-0.0641375
-0.0553855
-0.0267561
-0.0147585
-0.086775
-0.0772858
-0.0340088
-0.0776571
-0.0636618
-0.0355693
-0.0434198
0.036304
0.0442971
-0.0670173
-0.0527421
-0.0442659
-0.0380085
-0.0337106
-0.0311185
0.129148
0.139706
0.143122
0.133242
0.116195
0.0971444
0.0768485
0.0557949
0.0345484
0.013687
-0.00618037
-0.0381649
-0.0391598
-0.0402201
-0.041037
-0.0409387
-0.0397491
-0.023573
-0.0371082
-0.0828496
0.130377
0.135378
0.117885
0.124531
0.10203
0.110422
0.0822868
0.0925821
0.058465
0.0710203
0.029412
0.0445517
-0.0032649
0.01332
-0.0350685
-0.0196752
-0.0592319
-0.048525
-0.0698028
-0.0663677
-0.06616
-0.0695752
-0.0527439
-0.0602711
-0.0357338
-0.0443518
-0.0194854
-0.027348
-0.00588054
-0.0123089
0.00474236
-0.000208336
0.01267
0.00901582
0.0183301
0.0157563
0.0221207
0.0204363
0.0243648
0.0234185
0.0253107
0.0249862
0.0251507
0.0253597
0.0239497
0.0246849
0.0215664
0.0229175
0.0179727
0.0199005
0.0138167
0.015894
0.0103133
0.0119097
0.00834795
0.00911954
0.00785384
0.00795817
0.00797741
0.00790782
0.00761106
0.00791998
0.00583772
0.00694213
0.00211524
0.00423862
-0.00376728
-0.000552993
-0.0118324
-0.00753525
-0.0222626
-0.0167403
-0.0285089
-0.0806227
-0.0620946
-0.0716781
-0.0962574
-0.0888175
-0.107893
-0.102654
-0.114558
-0.11189
-0.115566
-0.115799
-0.110663
-0.113844
-0.100178
-0.106075
-0.0849446
-0.0930858
-0.0661543
-0.0759097
-0.0451908
-0.055854
-0.023455
-0.0343397
-0.00204752
-0.0126609
0.0182354
0.00830316
0.027599
0.0438734
0.0494587
0.0468746
0.0364865
0.0404043
0.0267384
0.0319346
0.0140305
0.0207834
-0.0020589
0.00640894
-0.0210332
-0.0112859
-0.0403771
-0.0309121
-0.0554845
-0.0487733
-0.0621161
-0.0600045
-0.0593782
-0.0618205
-0.0494671
-0.0551226
-0.0354887
-0.0427953
-0.0202424
-0.0278773
-0.00567743
-0.012796
0.00731322
0.00103361
0.0186184
0.0131661
0.0284184
0.0236955
0.0368103
0.0327923
0.0436863
0.0404505
0.0488253
0.0464856
0.0520769
0.0506877
0.0535431
0.053012
0.0537126
0.0537421
0.0534528
0.0535733
0.0536749
0.0534623
0.054683
0.0541019
0.05582
0.0553031
0.0561136
0.0561141
0.0552404
0.0558107
0.0534953
0.0544549
0.0510903
0.052377
0.0478941
0.0496074
0.043636
0.0459149
0.0380225
0.0410187
0.0307275
0.0346051
0.0214821
0.02636
0.0100206
0.0160287
-0.00381791
0.00333022
-0.0332812
-0.0195953
-0.0114371
-0.0543806
-0.0457065
-0.0766837
-0.0695085
-0.0522548
0.0515995
-0.0255866
-0.0684284
-0.0587865
-0.0586204
-0.0505012
-0.0444881
-0.040534
-0.0383953
-0.0377519
0.145938
0.151367
0.152205
0.148076
0.137104
0.120886
0.102161
0.0822716
0.0615649
0.0406771
0.0201311
0.000449466
-0.0486141
-0.0509863
-0.0530187
-0.0542182
-0.054029
-0.0521619
-0.0485613
-0.00734151
-0.0282959
-0.0144797
-0.0739055
0.146734
0.149253
0.138038
0.14279
0.12576
0.132305
0.110323
0.118553
0.0910463
0.101135
0.0676927
0.0799439
0.0398574
0.0542742
0.00957027
0.0247853
-0.0185391
-0.00512555
-0.0385008
-0.0298923
-0.0464724
-0.0441137
-0.0427082
-0.0458325
-0.0315802
-0.0377329
-0.0179723
-0.0248381
-0.00504974
-0.0113083
0.00586168
0.00068866
0.0145053
0.01046
0.0210615
0.0180258
0.0258257
0.0236482
0.0290878
0.0276274
0.031095
0.0302345
0.0320456
0.0316911
0.0321024
0.0321771
0.0313411
0.0318263
0.0296487
0.0306236
0.0269231
0.0284065
0.0235779
0.0252745
0.0205891
0.0219744
0.018765
0.0195107
0.0181016
0.0183224
0.0178606
0.0179901
0.0170497
0.0175844
0.0148444
0.0161587
0.0107656
0.0130545
0.00464203
0.00795994
-0.00354441
0.00080308
-0.0138133
-0.00842622
-0.0266039
-0.0198775
-0.0426436
-0.0340941
-0.0724988
-0.0520863
-0.0623211
-0.0915442
-0.0823444
-0.107304
-0.0999241
-0.118632
-0.113584
-0.124529
-0.122316
-0.124247
-0.125181
-0.117675
-0.121728
-0.105326
-0.112167
-0.0882361
-0.0972924
-0.0677735
-0.0783332
-0.0454319
-0.0567439
-0.0226656
-0.0340176
-0.000671742
-0.0115178
0.019838
0.00980247
0.0381049
0.0293054
0.0534744
0.046098
0.0562309
0.0600626
0.0582783
0.0510711
0.0538327
0.0443634
0.0479389
0.0356017
0.0402631
0.0242896
0.0302938
0.0100364
0.0175343
-0.00680051
0.00186097
-0.0241434
-0.0156249
-0.0379437
-0.0317738
-0.044185
-0.0421602
-0.0418103
-0.0439913
-0.0328513
-0.0379639
-0.0202783
-0.026839
-0.00664011
-0.013464
0.00638718
1.44904e-05
0.0180902
0.0124172
0.0284111
0.0234138
0.0374993
0.0331017
0.0454001
0.0416028
0.0519714
0.0488659
0.0569799
0.0546838
0.060277
0.0588427
0.061967
0.0613023
0.0625071
0.0623378
0.0626373
0.0625739
0.0630031
0.0627699
0.063629
0.063314
0.0638786
0.0638497
0.063164
0.0636555
0.0615042
0.0624314
0.0592263
0.0604271
0.0564476
0.0579048
0.0530202
0.0548289
0.0487145
0.0509918
0.0432822
0.0461554
0.0364653
0.0400616
0.0280568
0.0324704
0.0179092
0.0232053
0.00603854
0.0121458
-0.000486821
-0.0464458
-0.0375871
-0.0436273
-0.068562
-0.0635668
-0.0185661
-0.061066
-0.0556291
-0.033051
-0.041778
0.0549035
0.0615052
-0.0518946
-0.0499835
-0.0465019
-0.0449591
-0.045076
-0.0464612
0.152073
0.152499
0.150411
-0.0369064
-0.021722
0.15086
0.149128
0.13992
0.125039
0.106649
0.0869
0.0663408
0.0456356
0.0252298
0.00565535
-0.0614787
-0.0651744
-0.0680107
-0.0693374
-0.0686905
-0.0658847
-0.0609184
-0.0668686
0.153217
0.153183
0.149627
0.151792
0.142001
0.146415
0.130745
0.13679
0.11613
0.123911
0.0976545
0.107368
0.0752508
0.0869553
0.049259
0.0626108
0.0220612
0.0355733
-0.00199363
0.00932669
-0.0181682
-0.0113313
-0.0240586
-0.0224125
-0.0208504