/*--------------------------------*- C++ -*----------------------------------*\
  =========                 |
  \\      /  F ield         | OpenFOAM: The Open Source CFD Toolbox
   \\    /   O peration     | Website:  https://openfoam.org
    \\  /    A nd           | Version:  10
     \\/     M anipulation  |
\*---------------------------------------------------------------------------*/
FoamFile
{
    format      ascii;
    class       volVectorField;
    location    "24";
    object      U;
}
// * * * * * * * * * * * * * * * * * * * * * * * * * * * * * * * * * * * * * //

dimensions      [0 1 -1 0 0 0 0];

internalField   nonuniform List<vector> 
28942
(
(-0.0975597 0.0649613 -5.19016e-20)
(-0.0924657 0.0701442 -1.09621e-20)
(0.479821 -0.334791 4.17925e-20)
(1.01563 0.0425662 -1.43527e-19)
(0.99395 0.0523478 4.69944e-20)
(0.254555 0.00841046 0)
(0.304013 0.0238244 1.12164e-21)
(0.34152 0.00510493 -1.17896e-21)
(1.23221 -0.126409 -3.71191e-21)
(1.21952 -0.112143 1.15497e-20)
(-0.0982649 -0.193766 -1.13846e-19)
(-0.0753235 -0.150634 5.25222e-20)
(-0.104751 -0.0978009 0)
(-0.108639 -0.116027 0)
(0.697688 -0.0107036 -3.26916e-22)
(0.68844 -0.00797071 -9.43107e-23)
(0.934789 0.093313 3.21445e-20)
(0.918423 0.0778762 5.15275e-20)
(0.338513 -0.466821 6.82778e-20)
(0.647107 -0.748792 -1.94029e-20)
(0.991358 0.225113 4.24378e-20)
(0.991961 0.212011 0)
(0.019785 -0.0195 1.09787e-19)
(-0.0827759 -0.0422213 6.11524e-20)
(0.68207 -0.177024 1.22153e-19)
(1.06885 -0.287738 -1.11017e-19)
(0.203191 -0.482263 4.85283e-19)
(0.211564 -0.401728 -1.88172e-19)
(0.759473 -0.552224 -1.11018e-21)
(0.460061 -0.319742 -1.63552e-21)
(0.24692 -0.0170458 0)
(0.320055 -0.0231203 1.79102e-22)
(0.40352 -0.000704742 8.60847e-21)
(0.555553 -0.0141413 -1.25516e-21)
(0.447871 0.476264 3.33017e-20)
(0.373143 0.521616 -3.16553e-20)
(0.59107 0.670868 -1.33135e-19)
(0.383813 0.59814 -5.26243e-20)
(0.14062 0.0164831 -1.19695e-21)
(0.205134 0.472603 -8.74893e-20)
(0.656756 -0.0598289 0)
(0.855765 -0.077981 0)
(1.4458 -0.28243 3.78148e-22)
(1.42807 -0.308253 -1.60166e-21)
(1.4164 -0.264258 -9.00602e-22)
(0.474244 0.00451401 9.27682e-22)
(0.442863 0.0139078 -1.4775e-21)
(0.606562 -0.000841301 -7.59517e-21)
(0.584544 -0.00066371 2.13083e-21)
(0.483084 0.000312809 -7.96745e-21)
(0.386612 -0.00735263 4.75302e-21)
(1.13752 0.0193395 -7.11993e-21)
(1.13658 0.0134822 -6.7947e-21)
(1.22881 -0.145534 -1.75715e-22)
(1.2142 -0.131152 2.58101e-21)
(1.34823 -0.197833 9.64981e-20)
(1.56627 -0.273527 5.02189e-20)
(-0.0794601 -0.0509285 -7.20815e-20)
(-0.090835 -0.0752194 0)
(-0.082671 -0.0541474 2.59158e-20)
(-0.0748072 -0.0424257 6.32416e-20)
(-0.0293636 -0.0164562 -5.0566e-20)
(-0.0257092 -0.0140137 -5.3625e-20)
(1.37146 -0.592786 0)
(1.51953 -0.519419 1.81919e-20)
(1.39969 -0.451413 -7.5543e-21)
(1.32596 -0.446586 0)
(0.940803 -0.237403 -3.01738e-20)
(0.960918 -0.256762 -1.96424e-20)
(-0.0652834 0.0507682 1.72285e-19)
(-0.0782676 0.0502255 -5.48971e-20)
(-0.0948464 0.0726443 1.38178e-19)
(0.943559 -0.328787 0)
(0.954784 -0.289189 1.04029e-19)
(0.891324 -0.450495 2.63935e-20)
(1.44676 0.246734 5.27548e-20)
(1.47193 0.216233 -5.82081e-20)
(1.42776 0.178639 -3.5093e-20)
(0.147993 -0.0839756 1.95341e-21)
(0.211451 -0.133089 -4.55676e-20)
(1.02015 -0.641701 -7.27663e-21)
(0.752442 -0.514512 1.46633e-20)
(-0.0879977 0.0477134 2.97208e-19)
(-0.0879629 0.0443187 -1.14277e-19)
(1.26921 0.56469 -6.85045e-21)
(1.19001 0.525913 -1.50302e-20)
(1.08695 0.643404 9.59363e-21)
(0.940379 0.6459 -3.47882e-20)
(0.904708 0.631948 2.36434e-20)
(0.680662 0.464714 -4.06642e-22)
(0.741526 0.549915 -9.11679e-21)
(0.779689 0.626391 1.53808e-20)
(-0.101019 -0.440593 -1.67421e-20)
(-0.0673558 -0.418934 -4.172e-21)
(-0.103572 -0.276885 8.36294e-21)
(-0.127973 -0.349009 -1.21089e-19)
(-0.12671 -0.400862 1.54464e-19)
(0.3825 0.300418 -6.57419e-20)
(0.427436 0.361942 1.41746e-20)
(-0.0106597 0.0100295 0)
(1.00708 0.00428514 0)
(0.965337 0.0534669 -1.03135e-19)
(0.889846 0.135617 7.6721e-20)
(1.08014 0.118404 0)
(1.30212 0.0534342 0)
(1.30028 0.0503669 0)
(1.31206 0.0496432 2.28113e-20)
(1.08391 0.155748 -7.28153e-21)
(1.08082 0.167539 7.56017e-20)
(1.07416 0.147278 4.02514e-20)
(-0.0798553 -0.0574946 1.46678e-19)
(-0.0770611 -0.0570732 -1.64597e-19)
(0.100373 0.0341861 -9.64778e-20)
(0.06974 -0.0205206 9.23837e-20)
(-0.0779656 0.0181759 1.73944e-19)
(0.159805 0.214288 8.34226e-20)
(0.374698 0.209176 2.03334e-19)
(0.290217 0.426245 1.56775e-20)
(0.128779 0.331387 -4.86728e-19)
(1.28117 0.432712 1.18995e-21)
(1.13439 0.418817 2.85172e-20)
(1.17126 0.396838 -4.95345e-20)
(0.841688 -0.658413 8.62967e-21)
(0.568567 -0.415525 -1.69835e-21)
(0.158023 -0.0214913 -2.50087e-19)
(0.150364 -0.0957287 0)
(0.309827 -0.0745342 1.34606e-19)
(0.530917 -0.411599 1.13578e-20)
(0.759294 -0.650413 -2.28198e-20)
(0.575902 0.00336804 6.53996e-21)
(0.612556 0.00181419 -4.1157e-21)
(0.5381 0.00308496 -2.29032e-22)
(0.524267 -0.811511 0)
(0.551371 -0.634288 0)
(1.06149 -0.133189 -1.78298e-20)
(1.04768 -0.114988 1.04685e-19)
(1.03198 -0.0811015 0)
(0.855305 -0.772662 0)
(0.852695 -0.710768 -3.01702e-20)
(0.741635 0.706013 8.41919e-20)
(-0.0328306 -0.0519243 1.13532e-19)
(-0.0283891 -0.0220941 -8.76233e-20)
(0.579512 -0.541036 -1.2278e-20)
(1.39386 -0.215805 -1.38227e-21)
(1.38434 -0.233795 3.41122e-22)
(1.53236 -0.202272 -1.40857e-20)
(1.54615 -0.177604 1.88451e-20)
(1.54372 -0.153273 6.3226e-20)
(-0.0346329 -0.00947268 3.81613e-20)
(0.858012 0.693134 9.81093e-20)
(0.991356 0.663928 -2.81581e-20)
(1.08616 0.723529 8.62451e-23)
(0.385525 -0.011064 4.38232e-24)
(0.383657 -0.0126307 -3.91942e-22)
(0.420074 -0.0168671 -3.75502e-23)
(0.460745 -0.0138592 -5.5502e-23)
(0.802566 0.680998 1.7541e-20)
(0.441547 0.412419 0)
(0.0610824 -0.201914 8.40587e-20)
(0.0362127 -0.123297 -9.26513e-20)
(-0.0510759 -0.211846 7.15171e-20)
(0.606261 0.0579583 -2.09087e-19)
(1.14373 0.202651 -1.01368e-19)
(0.526619 -0.0143703 1.32626e-22)
(1.29793 -0.480953 2.24618e-20)
(1.25548 -0.55576 5.46988e-20)
(0.972815 0.248966 9.82079e-20)
(0.955502 0.2837 7.76224e-21)
(0.932574 0.173056 5.68763e-20)
(0.949918 0.17911 -4.10874e-20)
(0.99757 0.249165 0)
(1.11793 0.0240471 3.85985e-21)
(1.12176 0.022179 7.31602e-21)
(1.17061 -0.0770527 -5.77863e-21)
(1.18195 -0.0792969 9.5818e-21)
(1.09395 0.143045 8.34452e-21)
(1.10611 0.149414 -2.31917e-20)
(1.09506 0.153573 0)
(1.08314 0.145051 5.29291e-21)
(1.09378 0.164513 0)
(1.10074 0.216566 -1.90535e-20)
(1.0948 0.231096 -1.09811e-20)
(1.07302 0.257083 -2.07359e-20)
(1.08549 0.245087 0)
(1.1066 0.262867 6.29472e-20)
(1.09019 0.277837 2.90848e-21)
(1.05692 0.274245 -1.2552e-20)
(1.0053 0.329518 -5.48792e-20)
(1.00381 0.273938 -9.82648e-21)
(-0.117486 -0.350648 3.62419e-20)
(0.0266407 -0.31363 -1.54371e-20)
(-0.0981413 -0.0187783 -1.29448e-19)
(0.515833 0.00146474 -5.44918e-21)
(0.646805 -0.00160955 0)
(0.0178789 -0.0309095 8.59289e-20)
(0.00247318 -0.0111528 4.43338e-20)
(0.586688 -0.000524838 1.10693e-21)
(0.681611 -0.00362941 3.65401e-22)
(0.676284 -0.00308265 0)
(0.576128 0.0023414 5.88264e-22)
(0.983151 -0.248715 1.42632e-20)
(0.95508 -0.274044 -7.1632e-20)
(0.989267 -0.18558 -3.72686e-20)
(-0.0683464 -0.0464525 6.42933e-20)
(-0.0108458 -0.000944889 -8.27299e-20)
(-0.00605944 0.00852992 8.23385e-20)
(-0.0644797 -0.0371156 0)
(-0.0289932 -0.0163153 1.06795e-19)
(-0.0268148 -0.0157007 -9.30031e-20)
(-0.0820095 -0.0219165 -9.6505e-20)
(-0.106611 -0.0453842 -9.83905e-20)
(-0.064384 -0.0308253 0)
(0.0545003 0.214251 0)
(0.0249363 0.130269 0)
(0.00926191 0.073438 0)
(1.28956 0.0500239 -1.93415e-21)
(1.27852 0.0485297 0)
(1.28834 0.0488624 1.86771e-21)
(0.927793 -0.100778 2.1067e-19)
(0.941162 -0.106451 -7.65712e-20)
(0.937544 -0.0887252 0)
(1.03392 0.574267 3.70563e-22)
(1.02828 0.57126 -7.45168e-22)
(1.0387 0.579934 2.31609e-22)
(1.02205 0.571817 0)
(1.01494 0.574622 5.36374e-22)
(1.00705 0.577509 0)
(1.02046 0.584295 0)
(0.999192 0.577977 -2.72538e-21)
(1.01549 0.585007 0)
(1.02585 0.580851 5.7858e-22)
(1.03022 0.577407 0)
(1.03419 0.576336 -2.51006e-22)
(1.03757 0.578729 3.6784e-22)
(1.04017 0.583817 -2.31349e-22)
(0.991474 0.571846 2.6085e-21)
(1.01088 0.579078 1.05318e-22)
(1.04309 0.58791 -1.27642e-24)
(1.04219 0.591326 3.42118e-22)
(1.04692 0.59761 -1.82311e-21)
(0.983533 0.555699 -2.80202e-24)
(1.00578 0.562716 1.31375e-22)
(1.04357 0.600335 -6.71538e-22)
(0.975953 0.526584 -3.42232e-21)
(0.968471 0.483009 3.41981e-21)
(1.00069 0.533525 -2.38033e-22)
(0.995465 0.489945 -5.80644e-22)
(1.05035 0.607586 1.77316e-21)
(1.04431 0.609815 4.41602e-22)
(0.961277 0.424925 0)
(0.990348 0.431931 5.72873e-22)
(1.0528 0.61865 -2.25723e-25)
(1.04409 0.619682 2.26694e-25)
(0.954383 0.353195 0)
(0.985316 0.360318 0)
(1.05426 0.629165 0)
(1.0426 0.628692 0)
(0.948223 0.269741 0)
(0.980645 0.276908 -3.47733e-22)
(1.05431 0.638379 1.11885e-21)
(1.03956 0.63597 2.58871e-25)
(0.942839 0.176698 -1.83957e-23)
(0.97621 0.183811 3.71495e-22)
(1.05258 0.644439 -1.12406e-21)
(1.03456 0.639634 0)
(0.938741 0.0769174 0)
(0.972243 0.0836527 0)
(1.04869 0.645334 7.96363e-23)
(1.02731 0.63777 -1.40849e-21)
(0.935773 -0.0268355 -2.38774e-21)
(0.968834 -0.0208764 0)
(1.04217 0.638574 7.14358e-23)
(1.01738 0.627912 1.33522e-21)
(0.934067 -0.13117 3.57363e-21)
(0.966592 -0.126982 1.08763e-21)
(1.0319 0.621109 -1.56282e-21)
(1.00444 0.607344 0)
(0.934093 -0.232938 -1.17862e-21)
(0.965295 -0.231062 -7.21346e-22)
(1.01939 0.59069 8.95877e-22)
(0.988533 0.573622 -1.76591e-21)
(0.935123 -0.328107 4.69263e-21)
(0.964715 -0.330811 -5.28307e-21)
(1.00131 0.543092 -1.05681e-21)
(0.968927 0.523517 -3.25356e-23)
(0.937304 -0.414759 0)
(0.965334 -0.421055 -2.49779e-21)
(0.981591 0.477911 2.21162e-21)
(0.947129 0.456588 -4.28355e-21)
(0.941786 -0.492256 0)
(0.967901 -0.498083 0)
(1.03598 0.560503 1.04548e-21)
(1.01818 0.497769 4.80712e-21)
(0.957935 0.393444 0)
(0.92216 0.37143 2.24626e-21)
(1.06034 0.632178 5.52383e-22)
(1.05046 0.604511 -1.12869e-22)
(1.06968 0.649597 0)
(1.0667 0.645918 1.56852e-21)
(1.06868 0.63764 2.29231e-24)
(1.07021 0.645969 0)
(1.06127 0.614821 0)
(1.06559 0.626709 0)
(1.05026 0.591944 0)
(1.05617 0.6029 0)
(1.03757 0.573661 -4.52667e-22)
(1.04416 0.581968 -1.10674e-22)
(1.02278 0.563632 4.57647e-22)
(1.03055 0.567285 4.27741e-22)
(1.00498 0.565434 -1.00399e-21)
(1.0144 0.563562 -1.12209e-21)
(0.984065 0.567743 0)
(0.994744 0.567786 0)
(0.962739 0.544101 6.46124e-24)
(0.97322 0.561054 0)
(0.943261 0.470643 0)
(0.952764 0.514394 0)
(0.92606 0.341788 0)
(0.934302 0.412759 0)
(0.912679 0.168204 0)
(0.918777 0.259525 0)
(0.904935 -0.0306796 0)
(0.90795 0.0705064 0)
(0.904721 -0.231144 0)
(0.903743 -0.132227 0)
(0.9129 -0.410777 1.66084e-21)
(0.907465 -0.324393 0)
(0.919473 -0.485559 4.81464e-22)
(0.948214 -0.554763 -5.16836e-22)
(0.971688 -0.560706 5.12448e-22)
(0.995339 -0.329899 0)
(0.995405 -0.49954 2.26387e-21)
(0.994914 -0.421013 1.23284e-21)
(0.998758 -0.124153 -3.68423e-22)
(0.996369 -0.229701 1.45913e-21)
(1.00473 0.0873928 -1.1731e-23)
(1.00141 -0.0174302 0)
(1.01173 0.281313 0)
(1.00819 0.188014 0)
(1.01835 0.436252 0)
(1.01511 0.364784 0)
(1.02424 0.537491 0)
(1.02139 0.494084 -1.07499e-27)
(1.02926 0.582738 -6.43766e-24)
(1.02684 0.566568 0)
(1.03415 0.587725 0)
(1.03162 0.588458 0)
(1.03869 0.580296 0)
(1.03684 0.584036 0)
(1.04146 0.580539 0)
(1.04038 0.578841 2.59868e-22)
(1.04156 0.591982 -6.13099e-23)
(1.04195 0.5851 2.9058e-22)
(1.03894 0.60885 0)
(1.04072 0.600092 2.29348e-22)
(1.03201 0.625127 0)
(1.03616 0.617548 0)
(1.01822 0.632028 0)
(1.02616 0.630556 0)
(0.994908 0.614829 0)
(1.00791 0.62759 0)
(0.960687 0.554975 4.38616e-22)
(0.979291 0.591501 0)
(0.916106 0.435852 2.11874e-21)
(0.939726 0.503776 4.49884e-22)
(0.89071 0.35104 -2.29643e-21)
(0.997266 0.416231 -4.95134e-21)
(0.927606 -0.546991 -9.4229e-22)
(0.996759 -0.562949 1.87043e-21)
(0.896182 0.269287 0)
(0.864993 0.251389 0)
(0.974215 0.317262 0)
(0.932754 0.292024 0)
(1.07149 0.574894 0)
(1.03957 0.440264 -1.21843e-21)
(1.05723 0.517121 -1.08015e-21)
(1.08807 0.638142 -1.13559e-21)
(1.08178 0.61459 2.37966e-22)
(1.08996 0.649625 -2.77882e-24)
(1.09046 0.648771 0)
(1.08248 0.633806 0)
(1.08713 0.643789 0)
(1.06961 0.608884 0)
(1.07652 0.621675 0)
(1.05401 0.584842 0)
(1.06204 0.59641 0)
(1.03693 0.56542 0)
(1.04566 0.574327 0)
(1.01814 0.554043 1.91734e-24)
(1.02787 0.558403 -4.68951e-22)
(0.996272 0.554213 2.00069e-24)
(1.0076 0.552979 1.03467e-21)
(0.971299 0.556 0)
(0.984127 0.556275 0)
(0.945537 0.533042 -3.14426e-24)
(0.9583 0.549429 0)
(0.921938 0.46124 0)
(0.933358 0.50411 0)
(0.902001 0.334293 0)
(0.911429 0.404275 0)
(0.887286 0.163178 0)
(0.893874 0.253141 0)
(0.879705 -0.0323195 0)
(0.882467 0.067102 0)
(0.880933 -0.228638 0)
(0.879092 -0.131844 0)
(0.89162 -0.403422 -1.13088e-21)
(0.885003 -0.319819 0)
(0.955049 -0.601616 0)
(0.936532 -0.593591 -8.04758e-22)
(0.909716 -0.536175 0)
(0.899875 -0.475848 -1.05187e-21)
(1.02421 -0.497408 -2.51123e-21)
(1.02351 -0.561284 -5.5795e-22)
(0.998558 -0.60991 -4.16776e-21)
(0.975822 -0.607678 0)
(1.02766 -0.326075 0)
(1.0257 -0.417633 3.81652e-21)
(1.0328 -0.120902 -1.1884e-23)
(1.0296 -0.226403 -1.46808e-21)
(1.03857 0.0905246 1.1731e-23)
(1.03549 -0.0144861 0)
(1.04369 0.284087 0)
(1.04128 0.190996 0)
(1.04697 0.438425 0)
(1.04559 0.367278 0)
(1.04825 0.539028 0)
(1.04784 0.495923 1.07498e-27)
(1.0481 0.583959 1.28238e-23)
(1.04829 0.567891 0)
(1.04783 0.588846 0)
(1.04792 0.589725 0)
(1.04736 0.580788 -1.33875e-22)
(1.04778 0.584865 0)
(1.04564 0.580007 0)
(1.04673 0.578931 1.33297e-22)
(1.04136 0.590199 -2.27483e-22)
(1.04389 0.584019 -2.35523e-22)
(1.03422 0.605424 0)
(1.03831 0.597602 0)
(1.02249 0.618904 0)
(1.0291 0.612859 0)
(1.00352 0.621601 0)
(1.01409 0.622395 0)
(0.974835 0.599007 0)
(0.990507 0.614561 0)
(0.93559 0.533718 -5.93734e-24)
(0.956495 0.572747 0)
(0.888137 0.412801 7.02653e-24)
(0.912677 0.480713 0)
(0.837001 0.232359 2.10372e-21)
(0.862299 0.329056 -2.10251e-21)
(1.01878 0.344888 -2.78388e-21)
(0.840066 0.140086 0)
(0.812871 0.124411 4.45629e-21)
(0.871297 0.156494 0)
(0.920121 -0.582359 0)
(1.02265 -0.609003 4.98914e-22)
(0.950333 0.205131 -7.12999e-21)
(0.99602 0.234199 -2.96866e-21)
(0.817892 0.0217033 -1.42072e-21)
(0.792125 0.0104045 -5.69051e-21)
(0.907843 0.177987 0)
(0.894372 -0.523868 -3.52089e-21)
(0.906418 -0.569769 1.69433e-21)
(0.999648 -0.641034 9.09363e-22)
(1.02112 -0.640805 -4.3649e-21)
(1.04278 0.263351 -1.02899e-20)
(0.972751 0.111871 5.78772e-21)
(0.998264 0.0194094 2.6562e-20)
(1.01951 0.143481 5.97244e-21)
(1.08256 0.461037 -2.49253e-21)
(1.06444 0.370406 8.56305e-21)
(1.10671 0.585734 2.33697e-21)
(1.09673 0.532861 2.05475e-21)
(1.1153 0.640617 4.48139e-22)
(1.11311 0.620945 4.93282e-22)
(1.10998 0.646284 2.77882e-24)
(1.11403 0.648002 0)
(1.09603 0.62702 0)
(1.10378 0.638461 0)
(1.0778 0.600371 0)
(1.08726 0.613862 0)
(1.05776 0.575493 0)
(1.06792 0.587429 0)
(1.03682 0.555455 0)
(1.04739 0.564768 0)
(1.01438 0.543002 0)
(1.02589 0.547973 0)
(0.988693 0.541388 -1.68597e-25)
(1.00201 0.540943 0)
(0.959728 0.542094 0)
(0.974532 0.542742 0)
(0.929923 0.519594 -2.67973e-24)
(0.944693 0.53558 0)
(0.902779 0.449297 0)
(0.91586 0.491295 0)
(0.880437 0.324879 0)
(0.890907 0.393462 0)
(0.864695 0.157282 0)
(0.871618 0.245373 0)
(0.857468 -0.0337981 0)
(0.859893 0.0632904 0)
(0.860261 -0.225136 0)
(0.857535 -0.130891 0)
(0.873195 -0.394544 -5.08167e-22)
(0.865492 -0.313936 2.63623e-22)
(0.882959 -0.465053 1.84117e-21)
(0.961374 -0.63348 4.07885e-22)
(0.930845 -0.615759 -1.5504e-21)
(0.945128 -0.6258 1.32972e-21)
(0.979791 -0.639199 0)
(1.05417 -0.493113 1.7341e-21)
(1.04778 -0.605614 4.40367e-21)
(1.05137 -0.557432 -3.91491e-21)
(1.06099 -0.322051 0)
(1.0576 -0.413439 0)
(1.06739 -0.117739 9.89405e-26)
(1.06388 -0.222894 0)
(1.07297 0.0932826 0)
(1.07032 -0.011416 0)
(1.07602 0.285635 1.07765e-23)
(1.07488 0.193217 0)
(1.07571 0.438524 0)
(1.0763 0.368091 0)
(1.0723 0.537996 0)
(1.07434 0.49539 0)
(1.06703 0.582525 -6.38904e-24)
(1.06979 0.566547 0)
(1.06154 0.587529 -5.01586e-24)
(1.06426 0.588378 0)
(1.05616 0.579127 0)
(1.05889 0.583408 0)
(1.05001 0.577427 0)
(1.05331 0.576848 0)
(1.04158 0.586318 0)
(1.04613 0.580851 0)
(1.03007 0.599695 0)
(1.03634 0.592914 0)
(1.01372 0.610166 3.19862e-24)
(1.02268 0.605785 0)
(0.989897 0.608493 0)
(1.00292 0.611618 0)
(0.95637 0.580683 0)
(0.974427 0.598881 0)
(0.912913 0.510659 6.92996e-25)
(0.935776 0.551852 0)
(0.862689 0.38748 -8.47564e-25)
(0.888311 0.456001 0)
(0.812268 0.21213 -7.04693e-24)
(0.837039 0.305688 0)
(0.770067 -0.000363938 3.98424e-21)
(0.789411 0.108649 -9.3017e-22)
(0.775974 -0.103533 -1.0551e-21)
(0.755013 -0.109014 -2.01758e-21)
(0.926884 0.0837378 2.78628e-21)
(0.848261 0.0356583 2.5257e-21)
(0.918733 -0.603747 -3.68517e-22)
(1.04417 -0.637371 -3.39476e-21)
(0.94786 -0.0200155 -4.43743e-22)
(0.799956 -0.0968515 0)
(0.969877 -0.135369 -3.92839e-20)
(0.745245 -0.213119 -2.81079e-21)
(0.76454 -0.212684 -4.21313e-21)
(1.01027 -0.162063 6.40971e-20)
(0.999349 -0.253341 -1.08743e-20)
(0.885059 0.0582355 0)
(1.0475 0.0591052 -6.79375e-21)
(1.02955 -0.0548258 -3.48846e-21)
(1.09097 0.290407 -6.03202e-21)
(1.06911 0.175766 9.31326e-21)
(1.12511 0.478945 2.61309e-21)
(1.11027 0.39316 1.4056e-21)
(1.14217 0.593844 -1.10801e-21)
(1.13576 0.545972 -1.32862e-21)
(1.14238 0.639657 0)
(1.14434 0.624082 2.53388e-23)
(1.12946 0.639445 0)
(1.1372 0.643652 0)
(1.10914 0.61731 -2.02283e-24)
(1.1199 0.62989 0)
(1.08582 0.589536 0)
(1.09767 0.603447 0)
(1.06161 0.56426 0)
(1.07377 0.576345 0)
(1.03705 0.543838 0)
(1.04939 0.553388 0)
(1.01128 0.53025 -1.4946e-24)
(1.02444 0.535925 0)
(0.982302 0.526793 -1.91313e-25)
(0.997297 0.527281 0)
(0.949676 0.526289 0)
(0.966341 0.527369 0)
(0.916194 0.504365 5.08616e-24)
(0.932783 0.519829 0)
(0.885896 0.436166 0)
(0.90044 0.476971 0)
(0.861559 0.314846 0)
(0.872865 0.381764 0)
(0.845108 0.151326 0)
(0.85223 0.237248 0)
(0.838419 -0.0347681 0)
(0.840429 0.059731 0)
(0.842802 -0.22067 0)
(0.839182 -0.129174 0)
(0.857844 -0.384457 2.45967e-22)
(0.849107 -0.306603 0)
(0.881579 -0.510415 0)
(0.86884 -0.453011 4.15392e-22)
(0.90904 -0.590299 2.97813e-23)
(0.895212 -0.556149 0)
(0.940956 -0.637362 1.5722e-21)
(0.922367 -0.61417 -7.81895e-23)
(0.930717 -0.626773 -6.92385e-22)
(0.967111 -0.652876 -5.84535e-22)
(0.953157 -0.646212 4.0109e-22)
(1.00038 -0.658732 2.09233e-22)
(0.983025 -0.657318 -2.11323e-22)
(1.0399 -0.654444 0)
(1.01946 -0.658244 2.12046e-21)
(1.07417 -0.59978 9.95666e-22)
(1.06141 -0.647906 1.74997e-21)
(1.06857 -0.630951 -3.7698e-21)
(1.08492 -0.488121 6.1112e-22)
(1.08018 -0.552039 0)
(1.0943 -0.318084 0)
(1.0899 -0.409009 0)
(1.10215 -0.114398 2.57998e-25)
(1.09847 -0.218784 0)
(1.10728 0.0953653 0)
(1.10517 -0.00853303 0)
(1.10811 0.285763 -1.07765e-23)
(1.1083 0.194374 0)
(1.10413 0.43659 0)
(1.10671 0.367167 0)
(1.09604 0.534484 0)
(1.10052 0.49257 0)
(1.08569 0.578412 0)
(1.09101 0.562596 0)
(1.07511 0.583614 2.30702e-25)
(1.08035 0.584327 0)
(1.06504 0.57525 0)
(1.07003 0.579569 0)
(1.05458 0.572843 0)
(1.05998 0.572696 0)
(1.04216 0.580421 0)
(1.0487 0.575672 0)
(1.02651 0.591832 0)
(1.03485 0.586147 0)
(1.00579 0.599175 -3.19862e-24)
(1.01696 0.596524 0)
(0.977448 0.593095 0)
(0.992735 0.598554 0)
(0.939576 0.560284 0)
(0.95975 0.580979 0)
(0.89255 0.486088 5.24267e-24)
(0.917056 0.529142 0)
(0.84018 0.361317 -6.21204e-24)
(0.866643 0.430174 0)
(0.789969 0.189385 6.9672e-24)
(0.81423 0.280375 0)
(0.750831 -0.0119497 -8.66598e-22)
(0.768571 0.0908762 1.77644e-21)
(0.729709 -0.213 7.82752e-22)
(0.73755 -0.11476 -1.81361e-21)
(0.741431 -0.307824 2.75458e-22)
(0.727885 -0.301956 -1.45337e-21)
(0.904261 -0.0428967 2.75907e-21)
(0.830213 -0.0841254 0)
(0.927584 -0.146855 2.79077e-20)
(0.787736 -0.208479 0)
(0.901434 -0.575775 2.90729e-22)
(0.916455 -0.600675 -2.09742e-22)
(1.03434 -0.660078 1.35916e-21)
(1.0531 -0.653079 1.47134e-21)
(0.932875 -0.257396 2.64693e-20)
(0.75853 -0.312279 4.25413e-21)
(0.972373 -0.350161 0)
(1.0462 -0.149495 6.77478e-21)
(0.743692 -0.388211 1.86363e-21)
(0.732606 -0.377266 -1.78631e-21)
(1.02608 -0.264609 -1.42984e-20)
(0.865124 -0.0651483 0)
(1.09189 0.0827928 0)
(1.06934 -0.034281 6.66577e-21)
(1.13675 0.311774 0)
(1.11552 0.200415 0)
(1.16599 0.491549 0)
(1.15373 0.41019 -1.45631e-21)
(1.17633 0.596183 0)
(1.17361 0.553314 0)
(1.16831 0.633971 0)
(1.17432 0.622098 0)
(1.14787 0.629001 0)
(1.1592 0.635187 0)
(1.12152 0.604821 2.02283e-24)
(1.13511 0.618156 0)
(1.0935 0.576493 0)
(1.10756 0.590571 0)
(1.06548 0.551155 0)
(1.07946 0.563252 0)
(1.03761 0.530552 0)
(1.05156 0.540251 0)
(1.00887 0.515944 1.83719e-25)
(1.02348 0.522276 0)
(0.97699 0.510592 -2.09485e-25)
(0.993453 0.51206 0)
(0.941199 0.508736 0)
(0.959483 0.510313 0)
(0.904457 0.487449 -2.91462e-25)
(0.922657 0.502313 0)
(0.871411 0.421787 0)
(0.887221 0.461137 0)
(0.845431 0.304216 0)
(0.857402 0.369134 0)
(0.828571 0.145412 0)
(0.835748 0.228856 0)
(0.822593 -0.0351457 0)
(0.824134 0.0564995 0)
(0.828488 -0.21524 0)
(0.824044 -0.126645 0)
(0.845704 -0.373794 0)
(0.835778 -0.298352 0)
(0.871453 -0.495824 -3.53063e-22)
(0.857845 -0.440223 -4.21724e-22)
(0.886284 -0.541252 6.73011e-22)
(0.95001 -0.649635 7.24343e-22)
(0.934991 -0.629279 0)
(0.941811 -0.640586 7.00547e-22)
(0.971732 -0.662325 0)
(0.959996 -0.657 -7.39233e-22)
(0.999945 -0.66595 -1.15252e-21)
(0.985113 -0.665363 3.91649e-22)
(1.01647 -0.6645 2.31751e-21)
(1.10128 -0.591854 -4.64372e-22)
(1.08314 -0.639178 -1.23881e-21)
(1.09353 -0.62219 0)
(1.11592 -0.481465 1.12483e-21)
(1.10931 -0.544668 -1.12876e-21)
(1.12762 -0.313422 0)
(1.12224 -0.403317 0)
(1.13651 -0.110854 4.09811e-25)
(1.13253 -0.214506 0)
(1.14093 0.0966733 0)
(1.13941 -0.0059953 0)
(1.13937 0.284328 0)
(1.14095 0.194335 0)
(1.1317 0.432547 0)
(1.13626 0.364375 0)
(1.11907 0.528556 0)
(1.12589 0.487458 0)
(1.10377 0.571767 -5.68263e-24)
(1.11158 0.556153 0)
(1.08833 0.57723 4.78516e-24)
(1.09596 0.577739 0)
(1.07382 0.569167 0)
(1.08098 0.573397 0)
(1.05932 0.566269 0)
(1.06669 0.566471 0)
(1.04309 0.572566 0)
(1.05153 0.568537 0)
(1.02353 0.58192 0)
(1.03383 0.577379 0)
(0.998704 0.586055 0)
(1.01194 0.585167 0)
(0.966212 0.575595 0)
(0.983562 0.583356 0)
(0.924522 0.53805 3.08072e-24)
(0.946531 0.561072 0)
(0.874605 0.4603 -3.73343e-24)
(0.900399 0.504866 0)
(0.820902 0.334978 4.41898e-24)
(0.847802 0.403619 0)
(0.771149 0.166705 0)
(0.794967 0.255335 0)
(0.734219 -0.0258309 0)
(0.750581 0.071761 0)
(0.717411 -0.214099 -4.77913e-24)
(0.722913 -0.122096 -7.80173e-22)
(0.724956 -0.365195 2.80787e-21)
(0.71798 -0.296587 0)
(0.744102 -0.434861 1.93362e-21)
(0.739231 -0.417186 -2.75633e-22)
(0.885883 -0.166468 -8.7387e-21)
(0.816388 -0.198956 0)
(0.930419 -0.617075 1.1367e-21)
(1.07244 -0.64394 2.62197e-21)
(0.903417 -0.272846 4.41514e-21)
(0.944011 -0.388808 4.89144e-22)
(0.921263 -0.366517 -1.22361e-20)
(0.780791 -0.310662 0)
(0.758823 -0.396083 -8.91894e-22)
(0.995135 -0.378438 1.16118e-20)
(0.960689 -0.458784 -8.40695e-21)
(0.939799 -0.460767 1.00433e-20)
(0.752729 -0.450613 2.22229e-21)
(0.762665 -0.47303 -1.17362e-21)
(0.760519 -0.450916 -1.02834e-21)
(0.849031 -0.185138 0)
(1.08505 -0.134181 -3.93801e-22)
(1.02693 -0.362135 -6.78009e-22)
(1.05834 -0.254075 -2.86337e-21)
(1.13612 0.105606 -3.22962e-21)
(1.1112 -0.0137783 3.2483e-21)
(1.18119 0.330959 -5.65604e-24)
(1.16068 0.222185 0)
(1.20608 0.50046 0)
(1.19637 0.424829 0)
(1.20885 0.594609 0)
(1.2102 0.556773 0)
(1.19256 0.624566 0)
(1.20265 0.616151 0)
(1.16493 0.615381 -2.19514e-24)
(1.17966 0.623247 0)
(1.133 0.589805 0)
(1.14918 0.603572 0)
(1.10072 0.561464 0)
(1.11678 0.575461 0)
(1.06929 0.536399 0)
(1.08489 0.548363 0)
(1.03849 0.515811 0)
(1.05385 0.525567 0)
(1.00713 0.500307 1.31088e-24)
(1.02301 0.507244 0)
(0.972797 0.493011 -2.227e-25)
(0.990487 0.495524 0)
(0.934352 0.489673 0)
(0.954005 0.491798 0)
(0.894791 0.469104 -3.92692e-24)
(0.91439 0.483289 0)
(0.85938 0.406405 0)
(0.876271 0.444049 0)
(0.832082 0.293174 0)
(0.844562 0.355792 0)
(0.815078 0.139638 0)
(0.822192 0.220346 0)
(0.80991 -0.0349186 0)
(0.810945 0.0536576 0)
(0.817314 -0.208945 0)
(0.812052 -0.123329 0)
(0.836376 -0.362288 -5.4186e-24)
(0.825536 -0.2893 0)
(0.864205 -0.480897 3.54612e-22)
(0.849474 -0.42644 0)
(0.896067 -0.560094 -3.45754e-22)
(0.879971 -0.525449 0)
(0.927452 -0.603247 -2.51576e-22)
(0.912016 -0.585519 2.93044e-22)
(0.946381 -0.637685 -5.86444e-22)
(0.941655 -0.614327 0)
(0.943421 -0.626787 -8.33091e-22)
(0.957609 -0.654907 0)
(0.951329 -0.647266 0)
(0.975118 -0.664631 0)
(0.965582 -0.660824 0)
(0.998674 -0.665531 0)
(0.98619 -0.666214 0)
(1.02793 -0.657425 -1.3855e-21)
(1.01269 -0.662789 -3.28761e-22)
(1.06105 -0.639909 -2.73809e-22)
(1.04412 -0.649777 -2.46201e-21)
(1.10552 -0.628156 -1.82355e-21)
(1.07861 -0.627554 -2.19923e-22)
(1.09236 -0.632171 5.72712e-22)
(1.12839 -0.5822 -3.91487e-22)
(1.11754 -0.612349 2.38398e-21)
(1.14648 -0.473987 4.9013e-25)
(1.13801 -0.536123 0)
(1.16029 -0.307736 0)
(1.15383 -0.397042 0)
(1.16982 -0.107293 5.48756e-25)
(1.16567 -0.209799 0)
(1.1733 0.0971597 0)
(1.17244 -0.00386789 0)
(1.16929 0.281326 0)
(1.17226 0.193078 0)
(1.15797 0.426411 0)
(1.16448 0.359722 0)
(1.14096 0.520273 0)
(1.15003 0.480089 0)
(1.121 0.562743 1.09645e-23)
(1.13116 0.547321 0)
(1.10104 0.568583 0)
(1.11089 0.568816 0)
(1.08239 0.561009 0)
(1.09157 0.565055 0)
(1.06414 0.557796 0)
(1.07334 0.558274 0)
(1.04432 0.562841 0)
(1.05455 0.55954 0)
(1.02109 0.570054 1.89549e-24)
(1.03325 0.566705 0)
(0.992444 0.57093 0)
(1.00759 0.57182 0)
(0.956206 0.556184 0)
(0.975395 0.566177 0)
(0.911264 0.514245 -3.08072e-24)
(0.934804 0.539388 0)
(0.859151 0.433594 7.86398e-25)
(0.885874 0.479308 0)
(0.804814 0.308627 -7.92744e-24)
(0.831818 0.376585 0)
(0.756034 0.144957 0)
(0.779185 0.230751 0)
(0.721244 -0.0391013 0)
(0.736415 0.05386 0)
(0.707746 -0.215162 1.06259e-24)
(0.711412 -0.130191 0)
(0.720436 -0.350763 0)
(0.710707 -0.289676 0)
(0.760938 -0.426026 1.04226e-21)
(0.737308 -0.396596 0)
(0.786488 -0.468317 -2.32968e-22)
(0.788876 -0.441327 -1.26694e-21)
(0.869962 -0.283751 0)
(0.996425 -0.44988 -1.48749e-20)
(0.891428 -0.381029 -2.95325e-21)
(0.925757 -0.587879 2.51135e-22)
(0.941096 -0.600084 0)
(1.04857 -0.630423 -2.12961e-22)
(1.06354 -0.617609 4.68897e-22)
(0.807076 -0.305111 0)
(0.778754 -0.399305 0)
(0.908072 -0.453062 0)
(0.765238 -0.462687 8.78355e-22)
(0.768219 -0.492929 1.16145e-21)
(0.786617 -0.4936 0)
(0.814945 -0.475316 -1.75352e-21)
(0.818333 -0.448033 1.03937e-21)
(0.837097 -0.296683 0)
(1.06416 -0.336959 1.29243e-24)
(0.972572 -0.525543 -3.77829e-21)
(1.00326 -0.507769 1.26157e-20)
(1.03174 -0.430591 -4.49625e-21)
(1.1264 -0.110746 1.83414e-21)
(1.09581 -0.229394 2.84094e-21)
(1.18151 0.129745 0)
(1.15509 0.0104255 0)
(1.22506 0.347794 5.65613e-24)
(1.20581 0.24381 0)
(1.24459 0.505675 0)
(1.23808 0.435987 0)
(1.23914 0.588756 0)
(1.24476 0.556172 0)
(1.21466 0.611185 0)
(1.22872 0.605982 0)
(1.18033 0.598635 2.19514e-24)
(1.19819 0.607726 0)
(1.1434 0.572476 0)
(1.16189 0.586299 0)
(1.10737 0.544665 0)
(1.12518 0.558343 0)
(1.07297 0.520177 0)
(1.09 0.531881 0)
(1.03962 0.499779 0)
(1.05622 0.509513 0)
(1.00603 0.483526 -9.04183e-25)
(1.02299 0.491 0)
(0.969706 0.474293 -2.31229e-25)
(0.988382 0.477872 0)
(0.929138 0.46935 0)
(0.949891 0.472087 0)
(0.887229 0.449521 3.08351e-25)
(0.908007 0.462976 0)
(0.849806 0.390162 0)
(0.867615 0.425869 0)
(0.821462 0.281848 0)
(0.834323 0.34187 0)
(0.804509 0.134111 0)
(0.811474 0.211827 0)
(0.800235 -0.03408 0)
(0.800738 0.0512693 0)
(0.809073 -0.201811 0)
(0.803047 -0.119272 0)
(0.829801 -0.349934 1.0049e-23)
(0.818117 -0.279346 0)
(0.859262 -0.465035 4.21265e-24)
(0.843678 -0.412107 0)
(0.892726 -0.543082 -5.68223e-22)
(0.875857 -0.508698 5.40633e-22)
(0.909546 -0.569286 -4.56557e-22)
(0.956299 -0.641118 -1.44327e-22)
(0.954453 -0.620262 -3.0805e-23)
(0.954933 -0.631557 4.28743e-22)
(0.963741 -0.655365 0)
(0.959316 -0.649128 0)
(0.977142 -0.662113 5.05659e-27)
(0.969692 -0.65978 0)
(0.996203 -0.660295 0)
(0.986012 -0.662289 0)
(1.02044 -0.649744 -5.92755e-22)
(1.00771 -0.656208 6.43275e-22)
(1.03412 -0.641184 1.44076e-22)
(1.12774 -0.614364 3.15601e-23)
(1.09592 -0.613088 4.91683e-22)
(1.1123 -0.617833 -6.13084e-23)
(1.15456 -0.570801 4.0277e-22)
(1.14175 -0.599614 -4.03442e-22)
(1.17589 -0.465537 8.663e-24)
(1.16603 -0.526197 0)
(1.19164 -0.301479 9.3109e-24)
(1.18449 -0.389593 0)
(1.20149 -0.103877 6.71133e-25)
(1.19739 -0.20482 0)
(1.20384 0.0967617 0)
(1.20372 -0.00225738 0)
(1.19737 0.276777 0)
(1.20173 0.190579 0)
(1.18252 0.418275 0)
(1.1909 0.353266 0)
(1.16139 0.509767 0)
(1.17257 0.470578 0)
(1.13715 0.551503 -5.28184e-24)
(1.14945 0.536242 0)
(1.11306 0.557873 -3.68343e-24)
(1.12494 0.557744 0)
(1.09064 0.550964 0)
(1.10166 0.554739 0)
(1.06894 0.547568 0)
(1.07984 0.548272 0)
(1.04579 0.551369 0)
(1.05769 0.54881 0)
(1.01912 0.556368 -1.89549e-24)
(1.03302 0.554249 0)
(0.986974 0.553977 1.34701e-24)
(1.00387 0.556632 0)
(0.947433 0.535112 0)
(0.96822 0.547226 0)
(0.89983 0.489199 0)
(0.924588 0.516218 0)
(0.846191 0.406311 7.8634e-25)
(0.873508 0.452816 0)
(0.791794 0.282462 6.11905e-24)
(0.81864 0.349362 0)
(0.744341 0.124094 0)
(0.766674 0.206708 0)
(0.712026 -0.0507695 0)
(0.725813 0.0371697 0)
(0.702109 -0.21475 1.01822e-24)
(0.703874 -0.136097 0)
(0.719572 -0.336964 0)
(0.707259 -0.282726 0)
(0.764496 -0.400285 -4.91601e-22)
(0.739013 -0.375987 0)
(0.823592 -0.420115 -3.44364e-22)
(0.793434 -0.413319 7.88039e-22)
(0.919377 -0.552104 1.31972e-20)
(0.943526 -0.540732 1.40628e-20)
(0.847145 -0.452234 3.26947e-22)
(0.852088 -0.426147 -3.2681e-22)
(0.859731 -0.385351 0)
(0.955226 -0.607628 -4.05196e-22)
(1.0788 -0.602675 1.52387e-21)
(0.978945 -0.563161 -3.07901e-21)
(0.802179 -0.39836 0)
(0.951054 -0.57705 -7.9148e-22)
(0.87802 -0.471191 0)
(0.781973 -0.470919 0)
(0.900354 -0.517651 0)
(0.777761 -0.509682 0)
(0.789252 -0.516812 0)
(0.812938 -0.501568 1.70957e-22)
(0.843053 -0.478142 3.61259e-22)
(0.873395 -0.458393 0)
(0.878184 -0.434529 3.90034e-22)
(0.82932 -0.394517 0)
(1.03474 -0.481795 -5.90225e-21)
(0.961228 -0.600823 -7.92138e-21)
(0.983649 -0.581269 -4.43427e-21)
(1.00684 -0.540585 5.64607e-21)
(1.1031 -0.305999 -5.4973e-22)