/*--------------------------------*- C++ -*----------------------------------*\
  =========                 |
  \\      /  F ield         | OpenFOAM: The Open Source CFD Toolbox
   \\    /   O peration     | Website:  https://openfoam.org
    \\  /    A nd           | Version:  10
     \\/     M anipulation  |
\*---------------------------------------------------------------------------*/
FoamFile
{
    format      ascii;
    class       volVectorField;
    location    "21";
    object      U;
}
// * * * * * * * * * * * * * * * * * * * * * * * * * * * * * * * * * * * * * //

dimensions      [0 1 -1 0 0 0 0];

internalField   nonuniform List<vector> 
25879
(
(1.08297 -0.00142305 3.81008e-21)
(1.07979 0.000987709 -6.1019e-21)
(1.0789 -0.0022077 1.09672e-20)
(1.08166 -0.00373494 -1.06594e-20)
(1.25793 -0.349087 1.15836e-21)
(1.28705 -0.436713 -9.49078e-21)
(1.36377 0.0854381 0)
(1.34428 0.0951122 -1.18098e-20)
(1.31662 0.0880231 0)
(1.32099 0.0703099 0)
(1.47173 0.13547 -5.35718e-21)
(1.42741 0.114599 1.55872e-20)
(1.52303 0.157404 -1.18628e-19)
(-0.0645134 0.0742428 2.19724e-20)
(-0.047778 0.0787826 -3.32444e-20)
(1.06477 0.548642 -1.67407e-20)
(1.12977 0.699521 -6.76263e-21)
(1.22335 -0.633722 3.26495e-20)
(1.35595 -0.586137 -2.077e-20)
(0.466268 -0.0603683 6.76852e-20)
(0.451211 -0.209558 3.11602e-19)
(0.396829 0.806751 -6.382e-20)
(0.687083 0.702947 6.96925e-20)
(1.03701 0.0415086 5.62721e-21)
(1.04243 0.0462841 7.03778e-21)
(1.03642 0.0455173 3.4421e-22)
(1.03002 0.0382557 -5.8891e-23)
(1.0342 0.0344964 -7.33563e-21)
(1.03023 0.0345686 -1.01075e-20)
(1.03969 0.0389039 -4.09065e-21)
(1.04548 0.0438059 4.7497e-20)
(0.00527501 0.0611306 4.01137e-20)
(-0.0118307 0.0376451 -1.74854e-20)
(-0.0470532 0.0973333 2.59394e-20)
(1.07227 0.395782 6.99952e-22)
(1.20057 0.329319 4.51506e-22)
(1.22302 0.338093 -4.21816e-22)
(1.08141 0.0857101 -1.87244e-21)
(1.09116 0.106694 -2.52833e-20)
(1.69182 0.272375 -8.16101e-20)
(1.60685 0.23573 -1.07784e-20)
(1.52104 0.245274 -1.30166e-20)
(0.97696 -0.214491 -1.80985e-20)
(0.970845 -0.19342 0)
(0.970711 -0.17565 -1.36211e-21)
(1.37485 -0.258765 0)
(1.38603 -0.245217 2.39216e-20)
(0.235325 0.0446628 1.08908e-19)
(0.616191 0.0594471 5.74389e-21)
(0.773654 0.0846508 0)
(1.14627 -0.404857 4.32216e-21)
(1.15119 -0.361743 -1.32288e-20)
(0.851116 0.284804 -1.54737e-19)
(1.10926 0.456364 0)
(0.556216 0.00474655 -1.17334e-22)
(0.544374 0.00321053 0)
(0.582271 0.00501728 2.63854e-22)
(0.864793 0.272274 -8.79264e-20)
(0.857259 0.247143 8.61598e-20)
(0.902462 0.220322 -1.64935e-19)
(0.91039 0.259383 1.53184e-19)
(0.926811 0.388663 1.19969e-21)
(0.935502 0.314293 -4.97555e-21)
(0.689709 0.0045471 -1.12238e-23)
(0.756511 0.00630389 2.39511e-21)
(0.716147 0.0073353 -1.78648e-21)
(-0.0822915 -0.0249109 1.59232e-21)
(-0.0562891 -0.0400274 0)
(-0.0212151 0.0181274 0)
(-0.0380135 0.375508 8.72661e-20)
(0.0515007 0.186624 -2.46084e-19)
(1.00642 0.0290745 1.69115e-20)
(1.01028 0.0408189 0)
(1.01353 0.0446997 -9.10065e-21)
(1.06507 -0.109752 4.20826e-20)
(1.01921 -0.12379 0)
(1.00433 -0.084375 1.64016e-20)
(1.07176 -0.00272651 0)
(1.06981 -0.00722693 7.1645e-21)
(1.07352 -0.00578645 7.29333e-21)
(0.954249 -0.203212 0)
(0.960573 -0.232476 4.54184e-20)
(0.331838 0.306416 6.31589e-20)
(0.516031 0.246795 3.27588e-19)
(0.446343 0.444292 0)
(0.998654 -0.0141771 1.46248e-20)
(1.00022 -0.0188705 -1.37059e-20)
(1.0049 -0.0219124 0)
(1.12613 0.0256858 9.36798e-22)
(1.11783 0.0215918 -2.6252e-23)
(0.336326 0.105666 -1.84703e-19)
(0.586093 0.014568 2.41528e-19)
(0.188432 0.200776 4.46307e-20)
(1.04212 0.0380632 1.92752e-20)
(1.03769 0.0336558 -5.70263e-22)
(1.30965 -0.244545 4.63591e-20)
(1.27222 -0.240947 -2.30559e-20)
(1.31591 -0.364859 8.39772e-21)
(1.14843 0.377282 4.32382e-21)
(1.12449 0.377873 1.9713e-22)
(1.12782 0.406183 -2.30635e-22)
(1.09985 0.413 -1.50817e-21)
(1.12826 0.0344897 9.33701e-22)
(1.13411 0.0362569 -7.52081e-23)
(1.13496 0.029036 -4.13196e-23)
(1.07211 -0.0800629 7.21904e-21)
(1.0543 -0.0650082 -2.1347e-21)
(1.1413 -0.465776 -2.83019e-20)
(1.04885 -0.603293 2.39404e-20)
(1.25346 0.332306 4.38493e-22)
(1.28014 0.331124 -4.03999e-22)
(1.12573 -0.0755893 4.19215e-22)
(1.12175 -0.0684899 0)
(1.1876 -0.0666111 2.08199e-21)
(1.18469 -0.0712121 -2.67696e-21)
(1.07703 0.178578 -1.8872e-21)
(1.09053 0.189659 2.04485e-21)
(1.44991 0.0927338 2.04836e-20)
(1.29458 0.275478 -6.08094e-21)
(1.26054 0.243668 8.67242e-21)
(1.25142 0.213446 -1.04849e-20)
(1.41475 -0.204647 -3.06553e-21)
(1.40961 -0.191151 0)
(1.51237 0.324439 -4.09986e-20)
(1.49842 0.301524 8.93204e-20)
(0.740652 -0.0127375 -1.05406e-19)
(0.994581 -0.0465523 0)
(-0.218749 0.158484 -1.64714e-20)
(-0.208229 0.11107 0)
(-0.170285 0.118127 0)
(-0.114386 0.215106 -8.66462e-20)
(-0.0677636 0.151236 1.65666e-19)
(0.906099 -0.0383745 0)
(0.918399 -0.0559812 1.02627e-19)
(0.933365 -0.0378752 3.18903e-20)
(0.924955 -0.0261319 -2.63511e-20)
(1.07692 -0.00339723 -1.63686e-20)
(1.07531 -0.000815286 1.01946e-20)
(1.34542 0.0685336 -1.45685e-20)
(0.564608 0.00186593 -2.55816e-22)
(0.964281 0.639972 -2.7056e-20)
(0.967748 0.637498 0)
(0.966271 0.648092 -3.54549e-21)
(0.96573 0.652261 0)
(0.965044 0.659375 0)
(0.96227 0.659919 1.20399e-20)
(0.95723 0.653676 1.11878e-21)
(0.950311 0.63746 -2.89902e-20)
(0.942122 0.608961 1.488e-20)
(0.932791 0.566034 -1.74558e-20)
(0.923236 0.507688 -1.15865e-21)
(0.913846 0.433365 1.86286e-20)
(0.905572 0.344923 0)
(0.898622 0.244386 -2.11085e-20)
(0.893522 0.135456 2.08727e-20)
(0.890092 0.0218111 0)
(0.888689 -0.092942 2.07538e-20)
(0.889011 -0.203662 -2.09916e-20)
(0.891452 -0.306903 1.91323e-20)
(0.896059 -0.397547 -3.75375e-20)
(0.903093 -0.473602 3.4662e-20)
(0.911858 -0.531643 -3.24197e-20)
(0.922356 -0.572713 1.53647e-20)
(0.933827 -0.596626 0)
(0.94639 -0.607518 0)
(0.959084 -0.608842 1.10222e-20)
(0.971737 -0.606555 -7.52352e-22)
(0.983275 -0.604625 -1.02609e-20)
(0.99377 -0.606372 -9.11313e-21)
(1.00273 -0.612139 9.21389e-21)
(1.01074 -0.621591 -8.71387e-21)
(1.01779 -0.633082 9.08304e-21)
(1.02441 -0.645958 -5.52633e-22)
(1.03047 -0.658621 0)
(1.03493 -0.671867 0)
(1.03807 -0.682416 -2.39431e-21)
(1.038 -0.689193 -1.73112e-20)
(1.04887 -0.662849 0)
(1.05672 -0.677047 4.59422e-21)
(1.01948 -0.68312 -2.40796e-21)
(0.974947 0.635388 3.05235e-21)
(0.96933 0.623794 -1.35337e-21)
(0.964301 0.628546 0)
(1.01433 -0.685276 0)
(1.0199 -0.665227 0)
(1.02097 -0.675975 4.85825e-21)
(1.01389 -0.64131 8.72832e-21)
(1.01732 -0.653418 5.4218e-22)
(1.00493 -0.621073 -3.14898e-22)
(1.00994 -0.630219 -1.7569e-20)
(0.99146 -0.614286 0)
(0.998983 -0.615624 9.17851e-21)
(0.97321 -0.62006 -2.37959e-20)
(0.982933 -0.616856 1.10354e-20)
(0.953578 -0.611241 1.4839e-20)
(0.963443 -0.620175 1.19658e-20)
(0.936334 -0.551411 1.77376e-20)
(0.944651 -0.589829 -1.43433e-20)
(0.924226 -0.421326 0)
(0.929611 -0.495773 -1.71451e-20)
(0.91908 -0.22795 0)
(0.920967 -0.331467 0)
(0.920233 6.51658e-06 2.27885e-20)
(0.91896 -0.116383 0)
(0.92698 0.229091 2.20628e-20)
(0.923133 0.116429 -2.20289e-20)
(0.939478 0.426149 -1.9997e-20)
(0.932702 0.333556 -2.13282e-20)
(0.955181 0.565618 -1.73306e-20)
(0.947378 0.504177 1.93318e-20)
(0.969029 0.640384 -1.46327e-20)
(0.96282 0.61079 1.67486e-20)
(0.976852 0.663009 -1.23058e-20)
(0.974073 0.656976 1.39706e-20)
(0.97797 0.655074 0)
(0.977513 0.661217 1.20687e-20)
(0.97736 0.645612 -3.17967e-22)
(0.955638 0.653839 0)
(0.958868 0.641732 1.50643e-20)
(0.958528 0.649021 0)
(0.943835 0.647459 1.18287e-20)
(0.950549 0.653792 -1.21114e-20)
(0.925925 0.606801 4.38003e-22)
(0.935425 0.63243 8.56579e-25)
(0.903768 0.512884 3.33104e-20)
(0.914795 0.567285 -1.56486e-20)
(0.882858 0.359499 0)
(0.89262 0.443648 -1.66385e-20)
(0.867767 0.157864 0)
(0.874138 0.264085 0)
(0.860743 -0.0662224 1.95483e-20)
(0.862928 0.0477193 0)
(0.864162 -0.279437 1.81371e-20)
(0.860619 -0.175079 -1.89509e-20)
(0.878597 -0.448432 1.59241e-20)
(0.869794 -0.370089 -1.75839e-20)
(0.90134 -0.551776 0)
(0.888748 -0.50803 -1.54391e-20)
(0.92975 -0.590386 -1.13281e-20)
(0.91465 -0.577574 0)
(0.960128 -0.591668 3.02343e-22)
(0.944717 -0.592913 1.12996e-20)
(0.98756 -0.592637 8.90725e-21)
(0.974195 -0.59023 -8.62311e-21)
(1.01041 -0.608647 -1.68239e-20)
(0.999322 -0.598566 7.98164e-21)
(1.03051 -0.634026 2.63206e-22)
(1.02065 -0.620308 8.11747e-21)
(1.04029 -0.647961 0)
(0.962209 0.631692 -3.03009e-21)
(0.959738 0.619483 -1.98624e-23)
(0.962568 0.613147 -6.60265e-22)
(1.00338 -0.68003 6.58693e-21)
(1.02768 -0.688878 -1.04111e-20)
(0.977625 -0.66773 -4.91256e-21)
(0.99062 -0.661697 0)
(0.960971 -0.644572 7.11319e-21)
(1.06391 -0.687639 -4.58061e-22)
(1.06147 -0.649939 4.81085e-21)
(1.07321 -0.665246 -1.46205e-20)
(0.956381 0.639104 7.83517e-21)
(0.959513 0.633578 8.42364e-21)
(0.958523 0.633158 -2.71919e-21)
(0.958677 0.626753 -5.59841e-21)
(0.959094 0.623794 2.11727e-21)
(1.00113 -0.679936 -5.23151e-21)
(0.991669 -0.678587 2.73331e-21)
(1.00901 -0.666616 -5.69886e-22)
(1.00654 -0.675185 2.73265e-21)
(1.00957 -0.644763 0)
(1.00988 -0.6561 0)
(1.00633 -0.625383 2.40871e-21)
(1.00848 -0.634067 -8.61085e-24)
(0.998601 -0.619681 -2.70517e-21)
(1.00311 -0.620398 -2.31272e-21)
(0.986508 -0.626712 0)
(0.99295 -0.622865 2.59767e-21)
(0.973135 -0.619576 0)
(0.979711 -0.627524 0)
(0.961639 -0.562061 0)
(0.966915 -0.599152 0)
(0.954637 -0.43365 5.03672e-21)
(0.957337 -0.507045 -4.83684e-21)
(0.952801 -0.241605 5.7199e-21)
(0.95308 -0.344006 -5.493e-21)
(0.953836 -0.0141733 6.13964e-21)
(0.953 -0.130181 -5.89614e-21)
(0.958858 0.217206 0)
(0.955507 0.103367 0)
(0.968807 0.418805 0)
(0.963214 0.323869 0)
(0.981051 0.562792 4.93498e-21)
(0.974847 0.499224 -4.7391e-21)
(0.990789 0.639813 0)
(0.986508 0.609335 0)
(0.99415 0.662176 1.62651e-21)
(0.99364 0.656491 0)
(0.991264 0.651977 0)
(0.993615 0.659647 0)
(0.981746 0.629515 -2.7175e-21)
(0.987457 0.641536 2.77273e-21)
(0.966138 0.604894 0)
(0.974748 0.616936 1.3065e-21)
(0.948246 0.646792 2.48088e-21)
(0.953261 0.643984 -2.59354e-21)
(0.932719 0.638163 -5.70135e-21)
(0.941173 0.645381 5.72101e-21)
(0.910349 0.596476 -4.49818e-22)
(0.921972 0.622364 -1.85356e-25)
(0.884926 0.50612 7.6617e-21)
(0.897891 0.558365 -7.29301e-21)
(0.86082 0.359827 8.5988e-21)
(0.872392 0.439828 -8.18516e-21)
(0.84321 0.167233 9.27091e-21)
(0.850988 0.2681 -8.82503e-21)
(0.835694 -0.0478349 9.45531e-21)
(0.838043 0.0605684 -9.00056e-21)
(0.840382 -0.254396 9.05911e-21)
(0.836616 -0.154523 -8.62334e-21)
(0.856294 -0.420888 8.15316e-21)
(0.847153 -0.34462 -7.76082e-21)
(0.881419 -0.525931 6.98233e-21)
(0.867935 -0.48211 -6.64617e-21)
(0.913662 -0.567667 5.844e-21)
(0.89696 -0.553952 -5.56253e-21)
(0.948623 -0.571717 2.00487e-21)
(0.931287 -0.572071 -3.18383e-22)
(0.980875 -0.574683 2.37346e-21)
(0.965402 -0.571705 -2.48064e-21)
(1.0091 -0.592247 -1.21143e-22)
(0.99546 -0.581807 -1.73888e-21)
(1.03558 -0.619208 -2.63095e-22)
(1.02252 -0.605098 0)
(1.04859 -0.634222 0)
(1.05437 -0.691605 4.04359e-21)
(0.959468 0.627548 1.38078e-21)
(1.02028 -0.67511 -3.71518e-21)
(0.95677 0.593777 -1.19797e-21)
(0.971423 0.594996 9.35289e-22)
(0.960036 0.582686 -1.37805e-22)
(0.97393 -0.629785 0)
(0.939838 -0.606609 4.88566e-23)
(1.08578 -0.677306 -3.04811e-21)
(1.09711 -0.685308 -3.37676e-21)
(1.07863 -0.689467 1.44798e-20)
(0.953657 0.61169 -2.52194e-22)
(0.954597 0.603691 -1.57718e-22)
(0.956138 0.621942 1.38463e-21)
(0.954537 0.617646 1.27228e-22)
(0.952417 -0.651287 8.23128e-22)
(0.908398 -0.581817 -3.76122e-21)
(0.932473 -0.624013 1.58695e-21)
(0.982495 -0.671415 1.50244e-22)
(0.969556 -0.666508 0)
(0.998261 -0.663017 5.86189e-22)
(0.991833 -0.669435 -3.00198e-22)
(1.00557 -0.643622 0)
(1.00273 -0.653934 0)
(1.00776 -0.62579 0)
(1.00724 -0.633701 0)
(1.00535 -0.621756 0)
(1.00713 -0.621644 0)
(0.999286 -0.629621 0)
(1.0026 -0.625503 0)
(0.992558 -0.622112 0)
(0.995793 -0.630279 0)
(0.987797 -0.563724 0)
(0.98976 -0.60122 0)
(0.98665 -0.434643 0)
(0.986735 -0.508235 0)
(0.987848 -0.24303 0)
(0.98712 -0.345184 0)
(0.989621 -0.0153907 0)
(0.988647 -0.131793 0)
(0.994112 0.217147 0)
(0.991362 0.102307 0)
(1.00199 0.420893 0)
(0.997765 0.324925 0)
(1.01052 0.565424 0)
(1.00647 0.5019 0)
(1.0154 0.640706 0)
(1.01369 0.611383 0)
(1.01359 0.660051 -1.62591e-21)
(1.01554 0.655918 0)
(1.00509 0.64704 0)
(1.01032 0.656052 7.81249e-22)
(0.990631 0.621976 0)
(0.998589 0.635172 1.97481e-23)
(0.981604 0.608319 2.89278e-22)
(0.954987 0.634982 -2.64025e-21)
(0.961761 0.626749 6.59467e-22)
(0.959095 0.630798 -1.97348e-21)
(0.942339 0.6386 4.12627e-22)
(0.949471 0.63797 -3.25677e-22)
(0.922851 0.626174 0)
(0.933347 0.635296 -6.74304e-25)
(0.897049 0.582479 0)
(0.910469 0.609316 1.88486e-25)
(0.868161 0.492379 0)
(0.882687 0.543968 0)
(0.841346 0.349698 0)
(0.854127 0.427468 0)
(0.822067 0.163105 0)
(0.830456 0.260776 0)
(0.814202 -0.045275 0)
(0.816524 0.05989 0)
(0.819384 -0.2454 0)
(0.815147 -0.148379 0)
(0.836996 -0.407016 0)
(0.826681 -0.332771 0)
(0.865662 -0.50806 0)
(0.850006 -0.465912 0)
(0.902684 -0.547368 0)
(0.883376 -0.534425 0)
(0.942153 -0.55194 0)
(0.922525 -0.551605 0)
(0.978072 -0.557219 0)
(0.960724 -0.553002 0)
(1.00992 -0.576251 1.23129e-22)
(0.994297 -0.565238 0)
(1.04078 -0.603464 -9.89602e-22)
(1.02529 -0.589215 0)
(1.07213 -0.634881 -2.73975e-22)
(1.05638 -0.618749 9.56553e-22)
(1.10298 -0.664912 8.39255e-21)
(1.08727 -0.650842 2.8911e-22)
(0.916414 -0.553304 1.07437e-21)
(0.881631 -0.52287 3.16068e-21)
(0.958889 0.624166 0)
(1.04927 -0.684282 -2.64597e-21)
(0.945557 0.584992 5.63348e-22)
(0.947247 0.571963 -1.01717e-21)
(1.00828 -0.648201 0)
(0.954137 -0.581882 -4.82892e-21)
(1.11822 -0.674445 -5.87741e-21)
(1.1067 -0.684553 -3.93078e-21)
(0.965301 0.624363 1.89885e-21)
(0.890231 -0.482819 0)
(0.853972 -0.449497 -7.35113e-22)
(0.963067 0.624547 5.34352e-21)
(0.968303 0.623519 -5.39284e-21)
(1.13114 -0.677251 7.48314e-21)
(1.07823 -0.687259 0)
(0.945684 0.606033 3.24328e-22)
(0.944921 0.596319 7.42371e-22)
(0.951774 0.619868 0)
(0.948165 0.613885 -4.15559e-23)
(0.963017 0.625548 0)
(0.956682 0.623714 0)
(0.880054 -0.555764 0)
(0.821369 -0.417546 2.94698e-21)
(0.851559 -0.494519 -1.8163e-21)
(0.929165 -0.631722 2.15109e-21)
(0.906099 -0.60087 -3.06139e-21)
(0.965466 -0.658675 -7.51673e-22)
(0.94908 -0.650243 5.96548e-22)
(0.988355 -0.655549 0)
(0.978267 -0.659557 0)
(1.00211 -0.639598 0)
(0.996164 -0.648389 0)
(1.00978 -0.624179 0)
(1.0066 -0.630926 0)
(1.01268 -0.622181 0)
(1.01176 -0.621112 0)
(1.01263 -0.630942 0)
(1.01281 -0.626538 0)
(1.01263 -0.623083 0)
(1.01244 -0.631511 0)
(1.01473 -0.563627 0)
(1.01332 -0.601707 0)
(1.01912 -0.433491 0)
(1.01673 -0.507531 0)
(1.02355 -0.241424 0)
(1.02147 -0.343778 0)
(1.02728 -0.0129085 0)
(1.02544 -0.129875 0)
(1.0318 0.221329 0)
(1.02938 0.105667 0)
(1.03739 0.425768 0)
(1.03458 0.329684 0)
(1.04167 0.568804 0)
(1.03994 0.506322 0)
(1.04114 0.640668 0)
(1.04221 0.613227 0)
(1.03373 0.656017 0)
(1.03831 0.653936 0)
(1.01977 0.639666 0)
(1.02752 0.650319 0)
(1.00044 0.611914 0)
(1.01071 0.626408 -1.93958e-23)
(0.977469 0.583154 -5.79742e-22)
(0.989371 0.597304 -2.56856e-22)
(0.950288 0.557697 1.90712e-21)
(0.964411 0.569892 0)
(0.954787 0.629428 6.21308e-22)
(0.960697 0.626861 -6.30791e-22)
(0.938328 0.629556 0)
(0.947409 0.630673 -6.09627e-22)
(0.915256 0.613526 0)
(0.927591 0.624399 0)
(0.88622 0.567252 0)
(0.901278 0.595202 0)
(0.854397 0.476779 0)
(0.870316 0.528208 0)
(0.825239 0.336758 0)
(0.839109 0.412843 0)
(0.804406 0.155475 0)
(0.81347 0.250254 0)
(0.795911 -0.0460191 0)
(0.798456 0.0556046 0)
(0.801422 -0.239005 0)
(0.796849 -0.145499 0)
(0.820995 -0.393866 0)
(0.809485 -0.322916 0)
(0.853211 -0.489376 0)
(0.835643 -0.449763 0)
(0.894408 -0.525882 0)
(0.873024 -0.513908 0)
(0.937709 -0.531231 0)
(0.91627 -0.530104 0)
(0.97688 -0.539005 0)
(0.957973 -0.533539 0)
(1.01192 -0.559302 0)
(0.99469 -0.547908 0)
(1.04634 -0.586375 0)
(1.02905 -0.572257 0)
(1.08192 -0.61794 -1.05006e-21)
(1.0639 -0.601611 0)
(1.11759 -0.649793 -5.79506e-22)
(1.0999 -0.634302 1.32627e-21)
(1.15267 -0.666715 0)
(1.13631 -0.661015 -2.97353e-21)
(0.825256 -0.361227 -6.91514e-21)
(0.79086 -0.326368 5.21768e-21)
(1.14133 -0.668756 -1.16892e-20)
(1.16769 -0.662018 -1.49278e-20)
(1.0431 -0.662007 -1.15326e-21)
(1.11007 -0.672298 3.91007e-21)
(0.970568 0.625652 -5.58891e-21)
(0.991946 -0.604047 0)
(0.934556 0.547932 4.68105e-22)
(0.954766 0.54222 -8.91791e-22)
(0.937724 0.531195 3.81285e-22)
(0.930219 -0.515195 4.61663e-21)
(0.862864 -0.395637 -4.9917e-21)
(1.14702 -0.645473 -1.35694e-22)
(0.795814 -0.257941 4.08083e-21)
(0.761801 -0.223188 1.3722e-22)
(1.18028 -0.643092 1.23814e-20)
(1.07686 -0.669134 1.13344e-21)
(0.932422 0.578334 -1.08696e-21)
(0.932693 0.563842 1.02724e-21)
(0.935558 0.603 -3.15929e-22)
(0.933296 0.591416 0)
(0.945651 0.620591 -1.40136e-21)
(0.939862 0.612756 0)
(0.961363 0.629397 -7.3315e-22)
(0.952775 0.626117 2.15247e-21)
(0.793404 -0.386673 -2.58352e-21)
(0.733416 -0.191097 3.56052e-21)
(0.762563 -0.294129 7.92812e-22)
(0.854111 -0.527225 0)
(0.823994 -0.46374 1.9e-21)
(0.907778 -0.608806 0)
(0.882348 -0.575198 0)
(0.94989 -0.642214 0)
(0.930594 -0.63068 0)
(0.979292 -0.644747 0)
(0.965982 -0.646185 0)
(0.999285 -0.632806 0)
(0.990284 -0.639765 0)
(1.01253 -0.620354 0)
(1.00664 -0.625704 0)
(1.02079 -0.620453 0)
(1.01715 -0.618476 0)
(1.02669 -0.629814 0)
(1.02381 -0.625307 0)
(1.03326 -0.621246 0)
(1.02973 -0.630137 0)
(1.04194 -0.560545 0)
(1.03731 -0.599244 0)
(1.05179 -0.429936 0)
(1.04689 -0.504024 0)
(1.06011 -0.238632 0)
(1.05626 -0.34051 0)
(1.06605 -0.0108555 0)
(1.06335 -0.127523 0)
(1.07051 0.223238 0)
(1.06843 0.107658 0)
(1.07376 0.427143 0)
(1.07239 0.331434 0)
(1.07382 0.56834 0)
(1.07441 0.506977 0)
(1.06781 0.637045 0)
(1.07172 0.611288 0)
(1.05461 0.649019 0)
(1.0621 0.648553 0)
(1.03527 0.629834 0)
(1.04564 0.641798 0)
(1.0114 0.59984 -4.2161e-24)
(1.02394 0.615356 4.22045e-24)
(0.984352 0.569592 -4.32142e-23)
(0.998327 0.584268 2.38507e-23)
(0.969963 0.555246 -2.24879e-22)
(0.970113 0.620021 -1.23165e-21)
(0.979048 0.623922 6.76241e-21)
(0.974905 0.620696 -2.53381e-21)
(0.956009 0.621854 -1.42871e-22)
(0.963523 0.620933 -1.54753e-22)
(0.936052 0.618857 0)
(0.946763 0.621637 0)
(0.90978 0.599608 0)
(0.923696 0.612052 0)
(0.877916 0.55099 0)
(0.894378 0.57991 0)
(0.843681 0.460426 0)
(0.860761 0.511564 0)
(0.812531 0.323252 0)
(0.827337 0.397552 0)
(0.79023 0.147454 0)
(0.799954 0.239236 0)
(0.780995 -0.0469452 0)
(0.783798 0.0510128 0)
(0.786888 -0.232414 0)
(0.781965 -0.142648 0)
(0.808242 -0.380078 0)
(0.795652 -0.312625 0)
(0.843533 -0.469656 0)
(0.824299 -0.432761 0)
(0.888349 -0.5031 0)
(0.865155 -0.492175 0)
(0.934818 -0.509298 0)
(0.911888 -0.507306 0)
(0.976663 -0.519612 0)
(0.956427 -0.512905 0)
(1.01466 -0.541036 0)
(0.995885 -0.529332 0)
(1.0524 -0.56781 0)
(1.03342 -0.553931 0)
(1.09128 -0.598786 0)
(1.07167 -0.582776 0)
(1.13149 -0.631402 0)
(1.11124 -0.61532 0)
(1.17123 -0.654277 1.55984e-21)
(1.15159 -0.645337 0)
(1.20716 -0.641024 0)
(1.1898 -0.65429 6.97454e-21)
(0.735762 -0.112259 -2.01486e-21)
(0.70842 -0.0820857 2.08092e-21)
(1.18615 -0.607719 0)
(1.21978 -0.611801 0)
(0.971382 0.630641 0)
(1.03067 -0.622123 -1.08294e-21)
(1.10967 -0.643547 0)
(0.917143 0.540268 1.67197e-22)
(0.919404 0.52171 6.21619e-22)
(0.971296 -0.539959 1.26318e-21)
(1.14612 -0.603725 2.58371e-21)
(0.903601 -0.428603 1.17393e-21)
(0.833504 -0.291735 -1.99465e-21)
(0.768111 -0.144502 0)
(0.988903 0.620032 -1.35974e-21)
(1.18175 -0.551133 -1.12082e-20)
(0.712544 0.00462039 -6.24149e-21)
(0.68768 0.0304541 -4.20385e-21)
(1.22493 -0.564355 -2.58434e-21)
(0.982196 0.629779 0)
(0.993503 0.626781 4.34459e-21)
(1.07029 -0.635044 -1.72142e-21)
(0.916927 0.574238 0)
(0.91608 0.557756 6.41526e-23)
(0.923509 0.602021 1.60049e-22)
(0.91947 0.589047 -1.53976e-22)
(0.937903 0.623064 9.11707e-23)
(0.929728 0.613484 0)
(0.958586 0.634697 0)
(0.947487 0.630145 -9.27634e-23)
(0.985101 0.636931 6.14387e-21)
(0.971294 0.637009 -3.08755e-21)
(0.710766 -0.164286 -1.80665e-21)
(0.668604 0.0511793 -1.58834e-21)
(0.68676 -0.056036 -4.23448e-24)
(0.769445 -0.355082 -8.57039e-23)
(0.738891 -0.263404 0)
(0.831556 -0.497349 0)
(0.800606 -0.433043 -1.02403e-21)
(0.889192 -0.583666 5.27039e-22)
(0.861396 -0.547251 -6.49947e-22)
(0.936048 -0.622706 0)
(0.914178 -0.608181 0)
(0.971289 -0.630856 0)
(0.955013 -0.62964 0)
(0.997153 -0.623148 0)
(0.985249 -0.628154 0)
(1.01584 -0.613851 0)
(1.00728 -0.617744 0)
(1.02942 -0.615853 0)
(1.0231 -0.613126 0)
(1.0411 -0.625373 0)
(1.03526 -0.620994 0)
(1.05399 -0.615786 0)
(1.04726 -0.625261 0)
(1.06903 -0.554158 0)
(1.06127 -0.593205 0)
(1.08431 -0.424112 0)
(1.07686 -0.497689 0)
(1.09664 -0.234546 0)
(1.09099 -0.335505 0)
(1.10479 -0.00830422 0)
(1.10124 -0.124283 0)
(1.10941 0.224847 0)
(1.10751 0.109688 0)
(1.11066 0.427514 0)
(1.11056 0.332557 0)
(1.10662 0.565991 0)
(1.1095 0.506193 0)
(1.09505 0.63087 0)
(1.10186 0.607079 0)
(1.07596 0.639285 0)
(1.08636 0.640495 0)
(1.05127 0.617524 0)
(1.0642 0.630658 0)
(1.02306 0.58584 4.9736e-22)
(1.03769 0.601999 -4.90613e-22)
(0.992354 0.554013 -1.90201e-22)
(1.00805 0.569648 2.54217e-22)
(0.959908 0.52539 0)
(0.9766 0.539135 -8.70829e-23)
(0.923075 0.502472 -1.52331e-21)
(0.942087 0.513073 -3.31474e-22)
(0.975953 0.613719 -5.78572e-22)
(0.982637 0.615705 1.26588e-21)
(0.958442 0.612484 1.43286e-22)
(0.967702 0.613036 7.12382e-22)
(0.93532 0.606341 0)
(0.947596 0.610689 0)
(0.906205 0.584062 0)
(0.9215 0.597969 0)
(0.871916 0.533355 0)
(0.889557 0.563109 0)
(0.835696 0.442993 0)
(0.853732 0.493682 0)
(0.802913 0.308991 0)
(0.818493 0.381331 0)
(0.77935 0.13903 0)
(0.789651 0.227618 0)
(0.769442 -0.0478544 0)
(0.772479 0.0462088 0)
(0.775655 -0.225116 0)
(0.770428 -0.139484 0)
(0.79857 -0.364851 0)
(0.785039 -0.301257 0)
(0.836543 -0.448059 0)
(0.815858 -0.414043 0)
(0.88436 -0.478631 0)
(0.859702 -0.468582 0)
(0.933167 -0.48612 0)
(0.909172 -0.483067 0)
(0.976963 -0.498936 0)
(0.955734 -0.491081 0)
(1.01743 -0.521148 0)
(0.997328 -0.509297 0)
(1.0583 -0.547437 0)
(1.03768 -0.533872 0)
(1.10099 -0.577578 0)
(1.07938 -0.562013 0)
(1.14575 -0.609504 0)
(1.12314 -0.593674 0)
(1.19048 -0.634401 0)
(1.16843 -0.623704 0)
(1.23038 -0.63286 3.82323e-21)
(1.21114 -0.638868 -1.55905e-21)
(1.25787 -0.57519 -1.94663e-20)
(1.24691 -0.61257 5.09271e-21)
(1.21935 -0.496966 0)
(1.26279 -0.519823 1.08357e-20)
(0.672265 0.140776 2.04206e-21)
(0.656137 0.155479 3.16673e-22)
(1.0143 -0.562311 1.29261e-21)
(1.10261 -0.594913 -2.47132e-21)
(0.999096 0.634594 3.24402e-21)
(0.946237 -0.455423 -1.37635e-21)
(1.13583 -0.539674 1.41268e-21)
(0.902395 0.493092 6.06089e-22)
(0.927932 0.482332 1.40016e-22)
(0.90694 0.472071 -3.00153e-22)
(0.874569 -0.324203 1.31411e-21)
(1.16985 -0.471769 1.12239e-20)
(0.804823 -0.175077 2.6376e-21)
(1.2045 -0.40513 0)
(0.74236 -0.0224021 2.32469e-21)
(0.693988 0.121992 0)
(0.663917 0.243996 3.32533e-21)
(0.651424 0.251242 -2.64954e-21)
(1.05841 -0.580903 6.00061e-22)
(0.897888 0.533627 2.28937e-22)
(0.899339 0.513731 0)
(0.900147 0.570066 -6.01327e-22)
(0.898097 0.552436 0)
(0.909946 0.601248 0)
(0.903993 0.586561 7.45587e-22)
(0.928711 0.624863 0)
(0.91824 0.614044 0)
(0.954501 0.63881 6.59894e-24)
(0.94084 0.633233 0)
(0.986702 0.642599 0)
(0.969881 0.641977 0)
(0.654648 0.0673954 1.1974e-21)
(0.644569 0.252161 0)
(0.645554 0.164594 1.24065e-22)
(0.692968 -0.137711 0)
(0.670532 -0.0340444 5.47862e-22)
(0.749745 -0.323747 0)
(0.719948 -0.23542 0)
(0.812504 -0.465736 -4.64117e-22)
(0.78087 -0.400998 0)
(0.872604 -0.555668 0)
(0.843268 -0.517091 5.78129e-22)
(0.923913 -0.600504 0)
(0.899658 -0.582987 0)
(0.964394 -0.614102 0)
(0.945448 -0.610307 0)
(0.995641 -0.610635 0)
(0.981056 -0.613661 0)
(1.0195 -0.604547 0)
(1.00838 -0.606973 0)
(1.03822 -0.60827 0)
(1.02929 -0.604918 0)
(1.05546 -0.617648 0)
(1.04677 -0.613543 0)
(1.0744 -0.606949 0)
(1.0646 -0.617009 0)
(1.0955 -0.544786 0)
(1.08478 -0.583921 0)
(1.11599 -0.415945 0)
(1.10608 -0.488695 0)
(1.13225 -0.228758 0)
(1.12482 -0.328461 0)
(1.14277 -0.0049749 0)
(1.13825 -0.119768 0)
(1.14792 0.226073 0)
(1.14601 0.111948 0)
(1.14747 0.426166 0)
(1.14852 0.33263 0)
(1.1394 0.560859 0)
(1.14455 0.503088 0)
(1.12226 0.621519 0)
(1.13196 0.599798 0)
(1.09734 0.626588 0)
(1.11061 0.629309 0)
(1.06754 0.602751 0)
(1.08286 0.616803 0)
(1.03512 0.569839 0)
(1.05159 0.586579 0)
(1.00136 0.537165 -4.62787e-23)
(1.01851 0.553184 0)
(0.966117 0.507324 -3.0937e-22)
(0.983912 0.521665 3.89256e-22)
(0.947637 0.494084 -1.39218e-22)
(0.999716 0.613854 0)
(1.0136 0.629542 -7.16664e-21)
(1.00627 0.621401 2.71754e-21)
(0.983016 0.605419 0)
(0.99129 0.608726 0)
(0.962168 0.601367 0)
(0.973055 0.603367 0)
(0.936062 0.592286 0)
(0.949762 0.598139 0)
(0.904405 0.567154 0)
(0.920911 0.582435 0)
(0.868054 0.514578 0)
(0.886674 0.545051 0)
(0.830211 0.424616 0)
(0.84902 0.474757 0)
(0.796124 0.293975 0)
(0.812324 0.364257 0)
(0.771541 0.130086 0)
(0.78231 0.215345 0)
(0.761094 -0.0488976 0)
(0.764317 0.0410483 0)
(0.767604 -0.21742 0)
(0.762103 -0.136198 0)
(0.791913 -0.34866 0)
(0.777539 -0.289207 0)
(0.832239 -0.425141 0)
(0.810293 -0.394132 0)
(0.882475 -0.452993 0)
(0.856678 -0.44368 0)
(0.932883 -0.462122 0)
(0.908194 -0.457855 0)
(0.977943 -0.477384 0)
(0.956056 -0.468471 0)
(1.02014 -0.500032 0)
(0.999104 -0.488221 0)
(1.06322 -0.52545 0)
(1.04144 -0.512402 0)
(1.10879 -0.554296 0)
(1.08562 -0.539408 0)
(1.15772 -0.58514 0)
(1.13284 -0.569759 0)
(1.20823 -0.61073 0)
(1.18305 -0.599334 0)
(1.25403 -0.615514 0)
(1.23228 -0.61712 0)
(1.28441 -0.571621 2.12506e-21)
(1.27194 -0.601952 0)
(1.29124 -0.520145 1.01516e-20)
(0.655516 0.331 1.53408e-21)
(0.653327 0.322465 1.11409e-21)
(1.00381 0.641205 -3.20216e-21)
(0.991645 -0.481682 3.27079e-23)
(1.08814 -0.524211 0)
(0.880451 0.483728 5.66343e-22)
(0.884486 0.461595 -6.65481e-23)
(0.919233 -0.353243 -1.17721e-24)
(1.11885 -0.452988 -1.4201e-21)
(0.845292 -0.205802 0)
(1.15069 -0.373911 0)
(0.777268 -0.0504853 0)
(1.20439 -0.312175 0)
(0.721087 0.100094 -4.87509e-21)
(0.681869 0.232629 0)
(0.663469 0.33381 -4.99486e-21)
(1.21706 -0.214691 5.50684e-21)
(1.02872 0.622431 3.09626e-21)
(0.669559 0.391654 -2.49347e-21)
(0.672134 0.37329 0)
(1.02114 0.636493 -4.69771e-21)
(1.03816 0.629797 1.44583e-21)
(1.03931 -0.504652 0)
(0.876963 0.526307 0)
(0.877829 0.505255 -9.34715e-22)
(0.881581 0.564842 0)
(0.878092 0.546255 0)
(0.895222 0.597537 0)
(0.887265 0.582039 0)
(0.918467 0.622867 0)
(0.905599 0.611251 0)
(0.949434 0.638656 -6.49711e-24)
(0.933165 0.632206 0)
(0.987235 0.643669 2.2364e-21)
(0.967421 0.642662 -2.12399e-22)
(1.0285 0.639037 3.54403e-21)
(1.00786 0.643039 -5.42498e-21)
(0.642834 0.247244 -2.0181e-22)
(0.679959 0.350287 6.22834e-22)
(0.656118 0.308789 -6.2209e-22)
(0.646216 0.0800149 -4.36065e-22)
(0.6403 0.169894 6.314e-22)
(0.680198 -0.113365 4.4715e-22)
(0.659663 -0.0158665 -5.26455e-22)
(0.734157 -0.292677 0)
(0.705313 -0.207014 -4.42251e-22)
(0.797046 -0.433414 0)
(0.765181 -0.368902 0)
(0.859027 -0.526313 0)
(0.828638 -0.485924 0)
(0.913698 -0.576108 0)
(0.887557 -0.555962 0)
(0.958643 -0.594762 0)
(0.937385 -0.588534 0)
(0.994694 -0.595481 0)
(0.977698 -0.596522 0)
(1.02332 -0.592644 0)
(1.00983 -0.593591 0)
(1.04688 -0.597981 0)
(1.0355 -0.594081 0)
(1.06937 -0.60702 0)
(1.05799 -0.603287 0)
(1.09397 -0.595118 0)
(1.08131 -0.60578 0)
(1.12068 -0.532619 0)
(1.10721 -0.571706 0)
(1.14609 -0.405404 0)
(1.13383 -0.477093 0)
(1.16629 -0.221273 0)
(1.15702 -0.319339 0)
(1.17938 -0.000813123 0)
(1.17377 -0.113954 0)
(1.18538 0.227099 0)
(1.1833 0.114539 0)
(1.18352 0.423472 0)
(1.1856 0.331937 0)
(1.17156 0.55336 0)
(1.17894 0.498081 0)
(1.14893 0.609313 0)
(1.16149 0.589822 0)
(1.11832 0.611148 0)
(1.13438 0.615258 0)
(1.08359 0.585713 0)
(1.10126 0.600397 0)
(1.04741 0.552053 0)
(1.06558 0.569141 0)
(1.01067 0.518913 0)
(1.02908 0.535187 0)
(0.973184 0.488064 -2.71913e-22)
(0.992075 0.503295 2.43293e-22)
(0.933852 0.461542 -6.24701e-23)
(0.954029 0.474166 2.35978e-23)
(0.890253 0.439069 -6.12902e-24)
(0.91255 0.45 -4.20003e-22)
(1.01092 0.605831 0)
(1.01991 0.613648 -1.61976e-21)
(0.990963 0.595243 0)
(1.0011 0.599636 0)
(0.96697 0.588744 0)
(0.979376 0.592002 0)
(0.938146 0.576941 0)
(0.953137 0.58418 0)
(0.904239 0.549181 0)
(0.921802 0.565725 0)
(0.866152 0.494971 0)
(0.885579 0.526052 0)
(0.82701 0.405576 0)
(0.846429 0.455092 0)
(0.791911 0.278408 0)
(0.808592 0.346578 0)
(0.766541 0.120743 0)
(0.777669 0.202581 0)
(0.755712 -0.0500225 0)
(0.759054 0.0356203 0)
(0.762563 -0.209322 0)
(0.756783 -0.132774 0)
(0.788155 -0.331531 0)
(0.773013 -0.276486 0)
(0.830532 -0.401025 0)
(0.807513 -0.373088 0)
(0.882552 -0.426478 0)
(0.855972 -0.417679 0)
(0.933814 -0.437627 0)
(0.908791 -0.432003 0)
(0.979613 -0.455234 0)
(0.957301 -0.445365 0)
(1.02309 -0.47812 0)
(1.00136 -0.466428 0)
(1.06772 -0.502519 0)
(1.04515 -0.490081 0)
(1.11519 -0.529577 0)
(1.09099 -0.515677 0)
(1.16704 -0.558419 0)
(1.14051 -0.543976 0)
(1.22282 -0.58375 0)
(1.19462 -0.572107 0)
(1.27703 -0.592084 0)
(1.25076 -0.59136 0)
(1.31787 -0.558859 0)
(1.29978 -0.582534 0)
(1.33273 -0.455075 0)
(1.32967 -0.517221 -1.83484e-21)
(0.700582 0.403705 0)
(0.712043 0.373396 -4.3435e-22)
(1.19833 -0.0906109 -2.56789e-20)
(1.23953 -0.0893425 -2.41316e-20)
(0.966678 -0.381505 -1.42017e-21)
(1.06762 -0.431811 0)
(1.04873 0.632753 3.25907e-21)
(0.889997 -0.235741 1.4299e-21)
(1.09621 -0.347292 0)
(0.866722 0.426753 2.43779e-23)
(0.897026 0.416261 3.2315e-23)
(0.873614 0.403827 -3.2409e-23)
(0.816958 -0.0788064 0)
(1.1312 -0.264733 1.48833e-21)
(0.753234 0.077223 3.04027e-21)
(1.15009 -0.176125 -1.36636e-20)
(0.704806 0.218523 2.28781e-21)
(1.15548 -0.0708361 8.34712e-21)
(0.676855 0.331952 1.66848e-21)
(0.672525 0.404733 2.48041e-21)
(0.693548 0.430543 1.91754e-22)
(0.749251 0.383067 9.51583e-22)
(0.735756 0.417119 -3.60257e-22)
(1.16804 0.0345758 0)
(1.21681 0.00578351 -4.93259e-22)
(1.01644 -0.407638 0)
(0.857391 0.471858 -1.0415e-22)
(0.861247 0.449398 6.6421e-23)
(0.855709 0.514593 -4.37668e-22)
(0.855567 0.493744 8.25378e-22)
(0.862695 0.553815 0)
(0.857961 0.534842 0)
(0.879928 0.587438 0)
(0.870029 0.57148 0)
(0.907382 0.613797 0)
(0.892362 0.601614 0)
(0.943659 0.630979 0)
(0.924616 0.623635 0)