/*--------------------------------*- C++ -*----------------------------------*\
  =========                 |
  \\      /  F ield         | OpenFOAM: The Open Source CFD Toolbox
   \\    /   O peration     | Website:  https://openfoam.org
    \\  /    A nd           | Version:  10
     \\/     M anipulation  |
\*---------------------------------------------------------------------------*/
FoamFile
{
    format      ascii;
    class       surfaceScalarField;
    location    "67.5";
    object      phi;
}
// * * * * * * * * * * * * * * * * * * * * * * * * * * * * * * * * * * * * * //

dimensions      [0 3 -1 0 0 0 0];

internalField   nonuniform List<scalar> 
57492
(
0.000235549
-1.05871e-05
-4.36862e-05
-0.000181275
-0.000162395
0.000267257
0.000130687
-2.87527e-05
8.08291e-05
0.000323269
-0.000375346
0.00315985
0.0033864
-0.000272114
-0.00627414
-0.00862824
0.00404527
0.00774282
0.00071061
-0.00065381
-0.000342923
0.000286123
-0.00126625
0.000218356
-7.54947e-05
0.00112339
0.0002718
-0.000827441
0.00159084
-0.00463321
0.00442552
-0.00138316
0.00134267
0.00424895
-0.00400078
-0.000610934
-0.000206283
0.000683461
0.000133756
-0.000122315
-0.000831403
0.000342783
0.000231545
-0.000324896
-2.89639e-05
-5.31961e-05
7.84582e-05
0.00168761
-0.00162886
-0.000610564
0.000551818
0.000242865
0.00136194
8.28053e-05
-0.000324647
0.000788505
0.00333523
-0.00379909
-0.000660797
0.00326111
-0.00292496
0.000135426
-0.000288491
0.000153065
-0.001663
0.00121972
0.000578701
-0.0046598
0.000189448
0.00333553
0.00113483
0.00122826
-0.00472996
-0.00115811
-0.000132943
-0.000196129
-0.000701556
0.00103063
-0.000286774
0.000175842
-2.20114e-05
-0.00254405
0.00215945
0.000733983
-0.000349385
-0.00304757
0.000925671
-0.000422152
-0.00112718
0.000596111
0.000456572
7.44975e-05
-0.000778625
-0.000362086
1.35302e-05
-0.000367065
-0.0011332
0.00129002
0.000210241
-0.000415809
0.000116311
-6.75668e-05
0.000739937
-0.000492395
-0.000458794
0.000211252
-0.00063839
0.000513691
0.000864637
-0.000874981
-0.00167708
0.00162589
0.000926169
-0.00199467
-0.000476357
0.00159604
-0.000707287
-0.000152004
0.000859292
-0.000271216
-0.000436071
-0.00137446
0.00189185
-0.000788606
0.000203043
-0.00076723
-0.000810268
-0.000560528
0.000778884
-0.000233028
-0.00190187
0.00115084
0.000751023
-0.00432173
0.00241987
0.00487692
-0.000815857
0.000344242
-0.00440531
0.00358632
-8.56165e-05
0.00137623
-0.000723604
0.00489069
-0.00498294
0.00139156
0.000300504
-0.00142026
0.00140349
-8.74319e-05
0.00170101
-0.000637674
-0.00126693
0.000203596
0.00190433
9.71872e-05
0.000866997
-0.000539757
0.00107625
0.000843555
0.00114683
-0.00475569
-0.000634581
0.000545877
0.0048444
-0.00488887
-0.000298308
0.000431487
0.00121879
0.00451285
-0.00443756
-0.00129407
0.000890476
-0.0043049
-0.00277619
0.00252794
0.00253296
-0.00228471
-0.000272312
0.00320187
-0.00570574
1.48327e-05
-0.000116498
-8.02313e-07
0.000102467
-0.000320705
1.06416e-05
6.69112e-05
-0.000135775
-0.000251841
-5.62394e-05
6.65278e-06
1.11061e-05
-1.19085e-05
8.83819e-06
2.26795e-06
0.00730128
0.00378539
-0.005878
-0.00520867
0.00233718
-0.000701866
0.00566596
-0.00785129
0.00309892
0.00708956
0.00229294
-0.00635884
0.00162397
-0.00286549
0.00213335
-0.000891836
0.00235591
-0.00291407
0.00218213
-2.9829e-05
2.1801e-05
-2.55916e-06
-7.01108e-05
-3.40442e-06
-0.000222432
-2.89544e-05
-0.00293788
0.00534694
0.00339262
-0.00580168
0.00436277
-0.00494473
0.00298423
0.00474677
-0.00238406
0.0100829
-0.00148023
-0.00179056
-0.00681214
0.00224333
0.00541811
0.00242148
0.00160633
-0.00500434
0.00564133
4.67747e-05
-7.55274e-05
0.000127604
0.00081578
0.00175691
-0.000626092
-0.0019466
0.00103947
9.95798e-05
-9.56166e-05
2.62717e-05
6.93448e-05
-0.000297716
0.0002021
-0.00660355
0.00342322
-0.00201299
0.00519332
-0.00574071
-0.00249567
0.00163283
-0.00262462
0.00208778
-0.00520387
0.00195124
-2.6605e-05
-0.000943986
-0.000980652
-0.000711383
0.00222686
0.000435764
-0.000834354
-8.52227e-05
0.000208195
-0.00077131
-8.96493e-05
-0.000271396
-0.0014439
-0.000237113
-6.24587e-05
1.87024e-05
0.000280869
-0.000215118
-0.00052115
0.000499155
0.000137505
1.68879e-05
-0.000369511
7.92636e-05
-4.21761e-06
0.000100603
-2.6375e-06
-0.000640924
0.000369527
8.34446e-05
-0.000724368
0.000172242
-0.000469958
0.00427363
0.00333161
-0.000178526
0.00212863
-0.00648324
-1.03922e-05
0.002264
-0.00179749
-0.000456113
0.000291702
0.00316417
-0.00346627
0.00326886
0.00184044
-0.00049936
-0.00460993
-0.00103326
0.000501393
0.00380072
0.0039882
-0.00318102
-0.00164265
-0.00303451
0.00125141
0.00342574
-0.00118476
0.00350483
-0.00396271
0.000423498
-0.00464277
8.23418e-05
3.37205e-05
-4.57485e-06
0.00104422
-0.000615826
-0.000590788
7.66473e-05
-0.000323774
0.00129135
0.000363013
-1.91092e-05
-0.00018717
0.000331814
6.83219e-05
-0.000212966
0.000991723
-0.00121527
3.63785e-05
-0.000357646
0.000830863
0.000518507
-0.000125116
9.92843e-05
-0.00611225
0.00365136
0.00588411
0.00772166
-0.00200595
-0.00821138
-0.00285506
0.00446448
-9.70891e-05
-0.000874032
-0.000162077
-0.000522021
9.12252e-06
4.78327e-05
-0.00012999
3.73235e-05
4.48334e-05
-0.000129974
0.000144426
3.33813e-05
-0.000299236
3.92719e-05
-0.000265192
-0.000312642
5.58133e-05
-0.000803401
-0.000335824
-0.000800046
-0.000858272
0.000980656
0.000677662
3.27661e-05
0.000423578
-0.00125639
-0.00111917
0.000293668
-0.00293351
0.0013305
-5.99833e-05
-0.00350216
0.000809466
-0.000240816
0.00087595
-0.00334737
0.00256419
-9.27734e-05
0.000678987
-0.0027285
0.00292547
0.00252817
-0.0101973
-0.00176526
0.00218158
0.00302116
-0.00345593
0.00206065
-0.000320811
3.40782e-07
1.65471e-05
-3.44787e-06
3.78866e-06
0.000284166
-4.12884e-05
0.00558784
-0.00341289
-0.00249058
0.000315628
0.00483687
2.73657e-05
0.00464091
0.000167284
-0.0050805
0.00137928
0.00329579
-3.41689e-05
0.000550534
-0.00291182
0.00374057
5.33615e-06
-8.78403e-06
0.000759142
-0.0021196
-0.00284613
0.00123162
0.00308302
0.00083429
-4.76232e-05
-0.000877074
9.04067e-05
0.000277163
-8.12636e-05
-0.00107408
0.000237531
0.00135024
0.000195318
-0.000992239
-0.000134924
7.5977e-05
-7.21968e-06
1.03272e-05
-2.78315e-06
-3.24398e-07
1.09278e-05
-2.467e-07
-1.79008e-05
4.65933e-05
-0.000103803
6.81378e-05
-0.00171585
0.00264912
-0.000761023
0.00291624
-0.00378256
-0.000849535
6.55898e-06
-0.00147632
0.00170729
-0.00399053
0.000241095
-0.00273568
-0.0018306
0.000575754
0.00269114
0.00291142
-0.00541311
0.0026053
0.00429282
-0.00420699
0.00224043
-0.00308405
0.00160602
-0.0007624
0.00245567
-0.0030232
0.00280795
0.00437034
0.00187661
0.00500152
-0.000230846
-0.00496714
0.000196458
0.00554228
-0.000659294
0.000118538
0.00552887
-0.000905166
8.45079e-05
-0.00470821
0.00396831
-0.00137727
0.00293783
0.00430758
-0.00140532
0.00114226
-0.00404453
0.00127096
0.00438755
-0.00135093
-0.00387585
-0.00166681
0.00413735
0.0010679
-0.00369235
-0.00186105
0.00361998
-0.00237961
-0.00323887
0.00215551
0.00346297
-0.00239554
-0.00326692
0.00328285
0.0022354
0.0030457
-0.00147494
-0.00380615
0.00301947
-0.00317961
-0.00258969
0.00261427
0.00299489
-0.00204112
0.00249712
-0.00406864
0.0036147
-0.001021
-0.00506507
0.0010538
0.00537435
-0.00136309
0.00191058
-0.000264758
0.000990531
-0.00105645
0.000330676
-0.000108099
0.00126985
-0.00142651
-5.29715e-05
0.000305214
0.000110771
-0.00107728
-0.00168767
0.0010984
-1.67109e-07
-7.95903e-08
3.09854e-07
-4.76963e-07
-9.95117e-05
-0.00186252
0.00142228
-0.00166081
-6.69051e-05
0.00162821
4.56273e-05
-0.00174069
3.42498e-05
-0.000243732
0.00156669
0.00026901
-0.00159196
0.00161123
0.000451009
-0.00230597
0.00159893
0.00157898
-2.44962e-06
5.01005e-07
3.56691e-05
-4.75652e-06
2.3069e-06
-4.25551e-06
-5.54184e-06
4.23039e-06
-5.4928e-05
1.02529e-06
-6.56713e-06
5.25568e-06
-4.39109e-05
2.12776e-05
-0.00026414
2.21624e-05
-6.60733e-05
4.344e-05
5.32028e-05
-5.34042e-06
-0.000172979
-1.69089e-05
7.01117e-05
-2.22494e-05
0.0014266
0.00327904
-0.00420425
0.001325
-0.00446341
0.00456502
0.00471408
-0.000110035
-0.00118218
-0.00244422
0.00115803
0.00246836
-0.000710429
0.00272163
-0.00319338
0.000157305
-0.00331195
0.00377994
-0.00379104
-1.68709e-05
2.79762e-05
0.0038025
2.92498e-05
-5.18142e-05
-2.83608e-05
-0.00376048
-2.20449e-06
0.00385507
-6.24056e-06
-4.63315e-05
0.00394798
5.13674e-05
-0.000144274
2.29407e-05
0.00407076
-0.000145717
0.00402102
-0.00397348
-2.45954e-05
-0.000195362
0.00428588
-1.97658e-05
0.00393216
-0.00010651
-0.00382836
-9.37549e-05
-0.00379145
-4.31505e-05
-0.00376201
-1.88049e-07
-0.00381781
3.89324e-05
-0.00373058
-0.00011559
-0.000191481
0.00449708
-1.97115e-05
0.00377022
-2.95422e-05
-2.32465e-05
-0.00370361
-3.36193e-05
-0.00373581
-1.80256e-05
-3.07041e-05
-0.00389133
0.000218428
-6.69834e-06
0.004523
-1.92296e-05
0.00379271
-2.91817e-05
-0.00384664
8.01312e-05
0.00454859
-6.53977e-06
-1.90428e-05
-6.55936e-06
0.00457358
-1.84305e-05
0.00381462
-2.84554e-05
0.00383622
-2.81573e-05
-2.60673e-05
-0.00384118
-2.40814e-05
-0.0038403
-3.24103e-05
-6.24763e-06
0.00459807
-1.8243e-05
0.00385734
-2.73677e-05
-4.02655e-06
-0.00381258
-2.45799e-05
-0.00381165
-3.26749e-05
-6.09131e-06
0.00462177
-1.76128e-05
0.00387828
-2.70274e-05
-3.66476e-06
-0.00378363
-2.52846e-05
-0.00378278
-3.25355e-05
-5.49258e-06
0.0046447
-1.74337e-05
0.00389895
-2.6169e-05
-3.48725e-06
-0.00375446
-2.56867e-05
-0.00375355
-3.27163e-05
-4.82272e-06
0.00466631
-1.67877e-05
0.00391992
-2.57879e-05
-3.09973e-06
-0.00372503
-2.63241e-05
-0.00372415
-3.2501e-05
-3.21595e-06
0.00468614
-1.66147e-05
0.00394156
-2.48577e-05
5.74875e-06
-0.00370409
-2.66887e-05
-0.00368584
-3.2561e-05
-5.61932e-07
0.00470265
-1.59482e-05
0.00396542
-2.44238e-05
2.15391e-05
-0.00357081
-0.000154818
-0.00359412
-7.01823e-05
4.98502e-06
0.00471343
-1.57706e-05
0.00397564
-5.2284e-06
2.13351e-05
-0.00355925
-3.28933e-05
-0.00353878
-3.40045e-05
1.54707e-05
0.00471304
-1.50803e-05
0.00396511
2.59998e-05
4.83865e-05
-0.00340509
-0.000202548
-0.00340848
-8.19091e-05
0.000197916
0.00453001
-1.48799e-05
0.00410312
5.99059e-05
5.55425e-05
-0.00336117
-9.94623e-05
-0.00334313
-9.81331e-06
0.000175728
0.00421374
0.000140536
0.00418803
9.0819e-05
8.88888e-05
-0.000155259
-0.0032948
-0.00330175
4.75106e-05
9.19816e-06
2.70141e-05
0.00417753
0.00417746
1.97633e-05
-0.00338285
0.00346498
-0.000181589
-0.00337324
-0.000164873
0.000151535
-0.000160979
-0.00328536
4.65581e-05
-0.00319677
-0.00341833
0.00347632
-9.08836e-05
-0.0001559
-0.00337617
0.00340333
-5.38461e-05
-5.4669e-05
-0.00343009
0.0034567
-5.22984e-05
-5.30862e-05
-0.00348293
0.00350904
-5.06905e-05
-5.1515e-05
-0.00353483
0.0038024
-4.91376e-05
-4.98725e-05
-0.00381722
0.00379017
2.48471e-05
-4.84417e-05
-0.00393771
0.003932
-4.61065e-05
-0.000119566
-0.00382954
0.003797
-0.000111736
5.6129e-05
-0.00372966
0.00375271
-4.28094e-05
-7.8375e-05
-0.00377513
0.00379722
-4.13209e-05
-4.21316e-05
-0.00381878
0.00384007
-3.97171e-05
-4.06067e-05
-0.0038608
0.00388122
-3.80385e-05
-3.89738e-05
-0.00390107
0.00392058
-3.62998e-05
-3.72773e-05
-0.00393949
0.00395804
-3.45011e-05
-3.55231e-05
-0.00397597
0.00399351
-3.26131e-05
-3.37027e-05
-0.00398712
0.00409738
3.0272e-05
-8.4943e-06
0.00410322
2.11754e-05
-2.84213e-05
6.80223e-05
0.00413793
-2.30354e-05
0.00417208
0.00409621
-0.00401213
-2.41723e-05
-0.00415303
0.00416061
1.2187e-05
3.40005e-05
0.00399433
-0.00395811
-4.14479e-05
8.19172e-06
0.00393971
-0.00392064
-4.39224e-05
-4.2824e-05
0.00390128
-0.00388126
-4.61796e-05
-4.51547e-05
0.00386097
-0.00384005
-4.82872e-05
-4.73195e-05
0.00381887
-0.00379708
-5.025e-05
-4.93406e-05
0.00377503
-0.00375248
-5.20969e-05
-5.12245e-05
0.00380599
-0.00377688
-5.36973e-05
-5.30016e-05
0.00381623
-0.00375072
-0.000108659
-5.44086e-05
0.00370195
-0.00365347
-9.55222e-06
-4.89583e-05
0.00367423
-0.00367267
-1.95812e-05
-9.48278e-05
0.00353471
-0.00350891
-5.82107e-05
-5.78346e-05
0.00348297
-0.0034566
-5.89099e-05
-5.86078e-05
0.00343011
-0.00340321
-5.94101e-05
-5.92018e-05
0.00337616
-0.00338659
-5.97463e-05
-5.96096e-05
0.0033607
-0.0033826
-6.00096e-05
-5.98943e-05
0.0033322
-0.00325634
-2.83511e-05
-6.02164e-05
-0.00319429
-1.54935e-05
-0.00336988
-0.000164336
0.00413206
3.91879e-05
-3.47077e-05
0.00417228
8.86776e-05
-0.000105251
-0.0031802
3.70677e-05
-0.00314268
0.000138097
-0.000160358
-0.00334762
-0.00325251
-0.00338245
0.00335468
-0.000153812
0.00339365
-0.00339372
-0.000164271
-0.000153675
-0.00333849
0.00336569
-0.000118082
-0.000139711
-0.00339246
0.00341914
-8.05255e-05
-8.14479e-05
-0.00344543
0.00347157
-7.84413e-05
-7.93713e-05
-0.00349733
0.00352296
-7.6321e-05
-7.72731e-05
-0.00354823
0.0035733
-7.42049e-05
-7.51416e-05
-0.00359792
0.00369491
-7.21441e-05
-7.3066e-05
-0.00364634
0.00367022
-6.998e-05
-7.0996e-05
-0.0037952
0.00375131
-6.7842e-05
-6.88538e-05
-0.00373946
0.00376206
-6.54092e-05
-6.6525e-05
-0.0037841
0.00380585
-6.30715e-05
-6.41745e-05
-0.00382706
0.00384799
-6.06485e-05
-6.18149e-05
-0.00386836
0.00388844
-5.81173e-05
-5.93496e-05
-0.00390795
0.00392713
-5.54816e-05
-5.67793e-05
-0.00394571
0.00396395
-5.27426e-05
-5.41079e-05
-0.00398158
0.00399882
-4.98578e-05
-5.13266e-05
-0.0040152
0.0040634
-1.79184e-05
-2.48771e-05
-2.84046e-06
-2.14558e-05
0.00416223
-2.51071e-05
0.00415432
-0.00406671
0.00412215
-1.62469e-05
1.7857e-05
0.0041095
-0.00409465
-2.65767e-06
0.00409152
-1.67289e-05
1.60357e-05
1.45878e-05
0.00414166
0.00416666
0.00407907
-0.0040333
-6.99413e-05
1.84199e-05
0.00398194
-0.00396413
-5.92614e-05
-4.31696e-05
0.00394602
-0.00392728
-6.26683e-05
-6.09286e-05
0.00390824
-0.00388858
-6.58471e-05
-6.41877e-05
0.00386864
-0.00384809
-6.884e-05
-6.7256e-05
0.00382729
-0.0038059
-7.16414e-05
-7.014e-05
0.00378429
-0.00376214
-7.42429e-05
-7.28319e-05
0.00373983
-0.00371695
-7.65763e-05
-7.53094e-05
0.00369386
-0.00372382
-7.86994e-05
-7.74988e-05
0.00369329
-0.00362231
-8.05247e-05
-7.94955e-05
0.00363588
-0.00357322
-8.22413e-05
-8.12609e-05
0.00354827
-0.00352287
-8.36142e-05
-8.27838e-05
0.00349737
-0.00347143
-8.48429e-05
-8.41095e-05
0.00344539
-0.00341891
-8.58837e-05
-8.52468e-05
0.00339231
-0.00336528
-8.67796e-05
-8.62119e-05
0.0033381
-0.0033105
-8.76123e-05
-8.707e-05
0.00328279
-0.0032227
-8.84479e-05
-8.79226e-05
0.00317707
-0.00310748
-3.25289e-05
-6.11176e-05
-0.0033889
-0.000165174
2.34167e-05
-9.93149e-05
-0.00306678
-0.00306155
-2.25076e-05
-0.000174797
-0.00310472
-1.57862e-05
0.00411283
0.004113
-6.89647e-06
-0.000106289
9.58518e-05
-0.00333718
-0.000132859
-0.00336233
1.18318e-06
-9.53058e-05
-0.00297266
-4.56705e-05
-0.0030147
-0.00333146
0.00413813
-0.00411177
-4.26106e-05
0.00411021
1.21393e-05
4.08883e-05
-1.39468e-05
0.00411471
1.70189e-06
0.00415219
-0.0033579
0.00342241
-0.000197375
-0.000179632
0.000132295
-0.00331499
0.00340787
2.02039e-05
0.000168268
-0.00359634
-0.000129661
-0.00344618
0.00344595
-0.000164039
-0.000188944
-0.00342787
0.00339854
-0.000124479
-0.000135597
-0.00339918
0.00339022
-0.000109122
-0.000140352
-0.00341634
0.0034423
-0.000106489
-0.000107567
-0.00346787
0.00349329
-0.000103865
-0.000104938
-0.00351834
0.00354326
-0.000101238
-0.00010232
-0.0035678
0.00359219
-9.8595e-05
-9.96835e-05
-0.00361616
0.00363995
-9.59354e-05
-9.70408e-05
-0.00366332
0.00368653
-9.31947e-05
-9.43612e-05
-0.00370927
0.0037318
-9.03767e-05
-9.15854e-05
-0.00375394
0.00377588
-8.73533e-05
-8.86614e-05
-0.00379732
0.00381851
-8.42614e-05
-8.56173e-05
-0.00383918
0.00385958
-8.10463e-05
-8.24797e-05
-0.00387943
0.003899
-7.76862e-05
-7.92055e-05
-0.00391801
0.00393671
-7.41798e-05
-7.57864e-05
-0.00395482
0.00397261
-7.05294e-05
-7.22252e-05
-0.0039898
0.00400664
-6.67003e-05
-6.8516e-05
-0.00403391
0.00405596
-3.99652e-05
-5.21469e-05
-3.79555e-05
1.51126e-05
-1.25636e-05
0.00415968
-1.70556e-05
-2.91766e-05
0.00415906
0.00415238
0.00414014
0.00410445
-0.00408516
-2.19482e-05
-0.00411311
0.00410442
1.78506e-06
-2.53811e-05
0.00402344
-0.00402125
-7.21262e-05
-4.33069e-05
0.00399024
-0.00397287
-7.66359e-05
-7.41788e-05
0.00395522
-0.00393695
-8.09393e-05
-7.85748e-05
0.0039184
-0.00389924
-8.50096e-05
-8.27343e-05
0.00387982
-0.00385981
-8.88558e-05
-8.66752e-05
0.00383956
-0.00381874
-9.24615e-05
-9.03888e-05
0.00379771
-0.00377615
-9.58064e-05
-9.38565e-05
0.00375441
-0.00373213
-9.88543e-05
-9.70511e-05
0.00370968
-0.00368674
-0.000101635
-9.9952e-05
0.00366364
-0.00364005
-0.00010412
-0.000102591
0.00361635
-0.00359221
-0.000106373
-0.000104965
0.00356793
-0.0035432
-0.000108337
-0.00010707
0.00351837
-0.00349312
-0.000110099
-0.000108941
0.00346775
-0.00344196
-0.000111672
-0.000110614
0.00341605
-0.00338973
-0.000113108
-0.000112121
0.00336327
-0.00333639
-0.000114486
-0.000113529
0.00330939
-0.00328196
-0.000115877
-0.000114924
0.00322672
-0.00314183
-0.00011742
-0.000116363
0.00308271
-0.00306474
-6.36404e-05
-8.16272e-05
-3.40913e-05
9.2593e-06
-0.00298987
-0.00302452
-7.43103e-05
0.000122695
-0.00332758
-7.26325e-05
-0.00312739
-1.45234e-05
0.00409556
0.00413258
-2.64546e-05
0.000170978
-0.00346577
3.79379e-05
-0.00300133
0.000763702
-0.00276973
0.00360495
3.91273e-05
-8.3256e-05
-0.00298039
-1.56062e-05
-0.00293513
-0.002229
0.00341286
0.000395129
-0.00169412
-0.000265868
-0.00328139
-0.00326358
0.0034259
5.94833e-06
0.000157899
-8.61617e-06
-0.00341612
0.00340966
-0.000190914
-0.000119882
-0.00340716
0.00338448
-0.00014136
-0.000186448
-0.00338814
0.00340154
-0.000137888
-0.000139253
-0.00339701
0.00342245
-0.000134559
-0.000135821
-0.00344753
0.00347247
-0.000131432
-0.000132641
-0.00349706
0.00352153
-0.000128333
-0.000129529
-0.00354564
0.00356963
-0.000125229
-0.000126433
-0.00359326
0.00361675
-0.000122086
-0.000123311
-0.00363985
0.0036628
-0.000118883
-0.000120144
-0.00368534
0.00370772
-0.000115574
-0.000116897
-0.00372966
0.00375142
-0.000112133
-0.000113531
-0.00377275
0.0037939
-0.0001085
-0.000109998
-0.00381458
0.00383503
-0.00010471
-0.000106295
-0.00385498
0.00387468
-0.000100744
-0.00010243
-0.00389385
0.00391276
-9.65903e-05
-9.83835e-05
-0.00393112
0.00394919
-9.22491e-05
-9.4151e-05
-0.0039667
0.0039839
-8.77254e-05
-8.97365e-05
-0.00400052
0.00401683
-8.30028e-05
-8.51407e-05
-0.00404501
0.00408312
-7.80765e-05
-8.03263e-05
-0.00408786
0.00409917
-5.39192e-05
-4.26994e-05
-0.0041291
0.00413646
-2.1886e-05
-1.77902e-05
1.84185e-05
-6.8061e-06
0.00414745
1.83105e-05
-5.96567e-05
0.00417781
0.00413228
2.91097e-05
1.38636e-05
0.0041167
0.00417468
-1.14806e-05
-1.11932e-05
0.00413739
0.00414253
2.08999e-05
-5.55265e-05
0.00416721
0.00416189
0.0041501
-0.00412191
-2.64035e-05
-0.00422687
0.00412925
4.20981e-05
-0.000103225
0.00409793
-0.00407466
-4.52239e-05
-4.93606e-05
0.0040331
-0.00401722
-8.80139e-05
-8.48585e-05
0.00400103
-0.00398425
-9.34213e-05
-9.0364e-05
0.00396719
-0.00394954
-9.85918e-05
-9.56265e-05
0.00393163
-0.00391312
-0.000103515
-0.000100649
0.00389437
-0.00387505
-0.000108177
-0.000105425
0.00385551
-0.00383542
-0.000112551
-0.000109931
0.00381513
-0.00379432
-0.000116615
-0.000114142
0.00377334
-0.00375184
-0.000120348
-0.000118037
0.00373019
-0.00370806
-0.000123765
-0.000121608
0.00368578
-0.00366304
-0.00012686
-0.000124867
0.00364019
-0.0036169
-0.000129663
-0.000127822
0.00359348
-0.00356964
-0.000132176
-0.000130484
0.0035457
-0.00352134
-0.000134454
-0.000132887
0.00349688
-0.00347201
-0.000136538
-0.000135077
0.00344703
-0.00342166
-0.000138484
-0.000137099
0.00339616
-0.00337028
-0.000140371
-0.000139022
0.00334428
-0.00331788
-0.000142274
-0.000140926
0.00329136
-0.0032645
-0.000144282
-0.000142881
0.00320115
-0.00311832
-0.000146473
-0.000144973
0.00309825
-0.00306242
-0.000119086
-9.43814e-05
-7.72446e-05
5.45938e-05
-0.00295774
-0.00301642
-0.000123242
0.000117797
-0.0032744
-1.71946e-05
-0.00307226
0.000294516
-0.00299658
3.8648e-05
-0.00305559
0.0041493
-0.00414165
-2.95402e-05
0.00414585
-5.6204e-05
-4.8292e-06
7.69599e-06
0.00416434
-5.47602e-05
0.00417918
0.000312732
-0.00263145
6.98595e-05
-0.0029504
-0.00148514
-0.00180095
-0.00266981
0.00310063
-3.56831e-05
-5.71595e-05
5.00711e-05
-0.00295065
-9.98181e-05
-0.00297376
-0.00244925
-0.000486429
-0.00318079
-0.00326115
0.00332735
-6.02472e-05
-2.62633e-06
-0.00337946
0.00335865
-0.000170097
-0.000171999
-0.00333973
0.00336441
-0.000166044
-0.000167528
-0.00338886
0.00341327
-0.000162293
-0.000163706
-0.00343745
0.00346156
-0.000158668
-0.000160006
-0.00348537
0.0035091
-0.000155153
-0.000156453
-0.00353251
0.00355581
-0.000151642
-0.000152939
-0.0035788
0.00360167
-0.000148102
-0.000149415
-0.0036242
0.00364662
-0.000144498
-0.000145845
-0.00366867
0.00369058
-0.000140794
-0.000142194
-0.0037121
0.00373348
-0.00013695
-0.000138426
-0.00375445
0.00377525
-0.000132934
-0.000134503
-0.00379564
0.00381585
-0.000128704
-0.000130386
-0.00383561
0.00385516
-0.00012426
-0.000126057
-0.00387424
0.00389308
-0.000119589
-0.000121511
-0.00391144
0.00392953
-0.000114686
-0.000116737
-0.00394712
0.00396442
-0.000109554
-0.000111735
-0.0039812
0.00399767
-0.000104203
-0.000106512
-0.00401361
0.00402925
-9.86384e-05
-0.000101078
-0.00404435
0.00405912
-9.28537e-05
-9.54279e-05
-0.004106
0.0041059
-5.38182e-05
-8.95716e-05
-5.35423e-05
6.68112e-06
-4.67286e-05
0.0041875
3.18765e-05
-3.28246e-05
0.00417876
0.00417084
-1.06412e-05
-2.73873e-06
0.00413008
0.00411731
-2.40356e-05
2.99721e-05
0.00413145
0.00411575
0.00419956
0.00416216
-0.00413707
-5.14978e-05
-0.00412413
0.00417565
-9.42618e-06
-6.51945e-05
0.00411113
-0.00405958
-9.67796e-05
-7.52957e-05
0.00404491
-0.00402968
-0.000103243
-9.95264e-05
0.00401418
-0.00399812
-0.00010949
-0.000105859
0.00398179
-0.00396489
-0.000115492
-0.000111954
0.00394774
-0.00393003
-0.000121224
-0.000117798
0.00391209
-0.00389361
-0.000126657
-0.000123363
0.00387492
-0.00385572
-0.000131759
-0.000128618
0.00383632
-0.00381643
-0.000136508
-0.000133537
0.00379637
-0.00377583
-0.000140889
-0.000138098
0.00375514
-0.00373399
-0.00014491
-0.000142299
0.00371271
-0.003691
-0.000148576
-0.000146146
0.00366917
-0.00364692
-0.00015191
-0.000149654
0.00362456
-0.0036018
-0.000154937
-0.000152843
0.00357893
-0.00355568
-0.000157707
-0.000155751
0.00353233
-0.0035086
-0.000160269
-0.000158428
0.00348477
-0.00346056
-0.000162687
-0.00016093
0.00343626
-0.0034116
-0.000165036
-0.000163325
0.00338683
-0.00336172
-0.000167387
-0.00016569
0.00333651
-0.00331098
-0.00016981
-0.00016809
0.00328538
-0.0032595
-0.000172352
-0.000170577
0.00318062
-0.0031247
-0.000175012
-0.000173259
0.00307194
-0.00302572
-0.000146039
-0.000176004
-6.99406e-05
7.19366e-05
-0.00297576
-0.00298793
-0.000107725
9.17106e-05
-0.0030716
7.61979e-06
-0.00304123
-2.60442e-05
0.00413907
0.00417293
-5.20404e-05
0.000187834
-0.00287168
-0.000287553
-0.00350355
1.78004e-05
-0.0029368
3.93226e-05
-0.00302505
7.04064e-05
-0.00297073
-0.0034853
-0.000764904
0.000257972
-0.000516436
-0.00322684
-0.000150129
-0.00309545
5.05981e-05
-0.00292931
-0.000101484
3.11201e-05
-0.0029054
-9.16846e-05
-0.00299773
-0.00308146
-0.00297497
0.00313178
-0.000192501
0.00310548
-0.00338058
-0.000489803
-0.000355915
-0.00325204
0.00332212
-0.000130327
-0.000122886
-0.00334548
0.00336889
-0.000193504
-0.000195362
-0.00339215
0.00341535
-0.000189253
-0.000190782
-0.00343836
0.00346133
-0.000185263
-0.000186708
-0.00348407
0.00350676
-0.000181359
-0.000182752
-0.00352919
0.00355154
-0.000177504
-0.000178878
-0.00357361
0.0035956
-0.000173629
-0.000175011
-0.00361729
0.00363888
-0.000169696
-0.000171105
-0.00366016
0.00368133
-0.000165668
-0.000167124
-0.00370217
0.00372288
-0.000161505
-0.00016303
-0.00374324
0.00376346
-0.000157168
-0.000158783
-0.0037833
0.00380298
-0.00015262
-0.000154346
-0.00382228
0.0038414
-0.000147826
-0.000149681
-0.00386011
0.00387862
-0.000142772
-0.000144765
-0.0038967
0.00391455
-0.000137445
-0.000139585
-0.00393195
0.00394911
-0.000131843
-0.000134133
-0.00396578
0.0039822
-0.000125971
-0.000128411
-0.00399812
0.00401376
-0.000119844
-0.00012243
-0.00402889
0.00404373
-0.000113482
-0.000116209
-0.00405807
0.00407211
-0.000106899
-0.000109763
-0.00408565
0.00413195
-0.000100122
-0.000103106
-0.00414691
0.00416828
-5.09104e-05
-6.84975e-05
-0.0041246
0.00415279
-5.42339e-05
-1.25299e-05
9.02227e-06
-3.26561e-06
0.004173
5.92826e-05
-9.241e-05
0.00418592
0.00420737
1.62661e-05
2.29614e-05
0.00414827
0.00418384
-1.02502e-05
-2.61932e-06
0.00414295
0.00413003
1.54238e-05
-2.81259e-05
0.00414415
0.00412856
1.03982e-05
-2.94118e-05
0.00418335
0.00418183
4.87359e-05
-5.47426e-05
0.00417894
0.0041985
0.00420017
-0.00414116
-6.84353e-05
-0.00419149
0.00417909
-4.23416e-05
-4.33583e-05
0.00413853
-0.00411709
-7.29327e-05
-6.78302e-05
0.00408625
-0.00407261
-0.000110423
-0.000106141
0.00405869
-0.00404425
-0.000117689
-0.000113438
0.00402955
-0.00401431
-0.000124732
-0.000120556
0.00399882
-0.00398279
-0.000131519
-0.000127441
0.00396654
-0.00394975
-0.000138009
-0.000134056
0.00393275
-0.00391525
-0.000144163
-0.00014036
0.00389755
-0.00387936
-0.000149947
-0.000146318
0.003861
-0.00384217
-0.000155337
-0.000151899
0.00382318
-0.00380375
-0.000160324
-0.000157084
0.00378417
-0.00376417
-0.00016491
-0.000161872
0.00374405
-0.00372352
-0.000169108
-0.00016627
0.00370288
-0.00368184
-0.000172943
-0.000170296
0.00366071
-0.0036392
-0.000176448
-0.000173977
0.00361759
-0.00359562
-0.000179675
-0.000177356
0.00357357
-0.00355116
-0.000182679
-0.000180487
0.00352866
-0.00350582
-0.000185526
-0.000183428
0.00348289
-0.00345964
-0.000188288
-0.00018625
0.00343631
-0.00341266
-0.000191035
-0.000189023
0.00338894
-0.00336493
-0.000193824
-0.000191812
0.00334084
-0.00331648
-0.000196707
-0.000194664
0.00329211
-0.00326746
-0.000199666
-0.000197632
0.00324278
-0.00318597
-0.000202846
-0.000200684
0.00313133
-0.00305699
-0.000166029
-0.000162361
-0.00013591
8.512e-05
-0.00294694
-0.00303446
-0.000158439
6.67506e-05
-0.00295051
-0.00339006
-0.000506955
6.60696e-05
-0.00291995
0.00421534
-0.00421608
-5.34933e-05
0.00422199
-9.90621e-05
-3.09381e-05
2.43534e-05
0.00418553
-3.00839e-05
0.00417824
8.20087e-06
-0.00301011
3.97509e-05
-0.0029944
-1.3643e-05
-0.00307329
7.06881e-05
-0.00299082
0.000101427
-0.00299962
0.000131961
-0.00295224
-0.000122292
0.000124296
-0.00294894
-0.000178296
-0.00297845
-0.00300651
-0.00338959
0.00326036
-0.000360578
-0.000442691
0.000520596
-0.00346797
0.00350192
-0.00361125
-0.000333357
-0.000394626
-0.00316292
0.00323897
-0.000268556
-0.000258473
-0.00332515
0.00338444
-0.000189618
-0.000209061
-0.00340645
0.00342844
-0.000215493
-0.000217372
-0.00345023
0.00347197
-0.000210987
-0.000212577
-0.00349347
0.00351493
-0.000206718
-0.000208214
-0.00353616
0.00355733
-0.000202533
-0.000203983
-0.00357826
0.00359913
-0.000198368
-0.000199808
-0.00361974
0.00364027
-0.000194162
-0.000195618
-0.00366053
0.00368071
-0.000189873
-0.000191367
-0.0037006
0.00372039
-0.00018546
-0.000187013
-0.00373988
0.00375925
-0.00018088
-0.000182516
-0.0037783
0.00379722
-0.000176091
-0.000177833
-0.0038158
0.00383424
-0.000171056
-0.000172925
-0.00385231
0.00387023
-0.000165741
-0.000167755
-0.00388776
0.00390511
-0.000160124
-0.000162296
-0.00392206
0.0039388
-0.000154193
-0.000156532
-0.00395512
0.00397123
-0.000147944
-0.000150454
-0.00398688
0.0040023
-0.000141388
-0.000144068
-0.00401726
0.00403196
-0.000134544
-0.000137386
-0.00404618
0.00406014
-0.000127437
-0.000130434
-0.00407361
0.00408681
-0.0001201
-0.000123239
-0.00409954
0.00411197
-0.000112555
-0.000115831
-0.00415171
0.00417816
-7.73523e-05
-0.000108243
-5.04544e-05
-3.73858e-05
-3.41546e-07
0.00421073
3.52226e-05
-7.73566e-05
0.00422806
0.00420521
-3.40634e-05
2.20379e-05
0.00416029
0.00414944
-9.83879e-06
-2.49863e-06
0.00415529
0.00414222
1.47801e-05
-2.69852e-05
0.00415636
0.00414084
-9.51768e-06
-1.50165e-05
0.00420789
0.00414533
0.00420784
0.00420578
-0.00419718
-7.70321e-05
-0.00420723
0.00419806
-3.3173e-05
-4.48039e-05
0.00415468
-0.00411252
-0.000115094
-0.000110336
0.00410021
-0.00408738
-0.000123249
-0.000118452
0.00407432
-0.00406075
-0.000131259
-0.0001265
0.00404694
-0.00403262
-0.000139049
-0.000134362
0.00401808
-0.00400304
-0.000146564
-0.000141984
0.00398778
-0.00397203
-0.000153756
-0.000149314
0.00395609
-0.00393967
-0.000160576
-0.000156302
0.00392308
-0.00390604
-0.000166991
-0.000162909
0.00388884
-0.0038712
-0.000172975
-0.000169102
0.00385342
-0.00383522
-0.000178519
-0.000174865
0.0038169
-0.00379818
-0.000183627
-0.000180194
0.00377935
-0.00376015
-0.000188316
-0.000185101
0.00374084
-0.00372117
-0.000192613
-0.000189605
0.0037014
-0.00368129
-0.000196559
-0.00019374
0.0036611
-0.00364057
-0.000200204
-0.000197552
0.00361996
-0.00359902
-0.000203611
-0.000201097
0.00357802
-0.0035567
-0.000206844
-0.000204437
0.00353531
-0.00351362
-0.000209975
-0.000207641
0.00349187
-0.00346983
-0.00021307
-0.000210777
0.00344773
-0.00342537
-0.000216186
-0.000213908
0.00340295
-0.00338028
-0.000219373
-0.000217084
0.00335756
-0.00333458
-0.000222649
-0.000220352
0.00331153
-0.00328825
-0.000226126
-0.000223735
0.00322329
-0.00315966
-0.000229655
-0.000227321
0.00312132
-0.00310558
-0.000194035
-0.000196783
-0.000314229
0.000124452
-0.00290568
-0.00302047
-0.000145314
0.000150067
-0.00298321
-0.0030387
-0.000212195
2.25657e-05
-0.00290701
-4.22614e-05
0.0041869
0.00424311
-7.51398e-05
0.000269372
-0.00355731
-0.000323307
8.68054e-06
-0.00297904
0.000338333
-0.00353693
2.2052e-05
-0.00295565
3.98375e-05
-0.00296355
4.48824e-05
-0.00299372
7.09606e-05
-0.00296036
0.000102123
-0.00296978
0.000133006
-0.00296095
0.000132223
-0.0029311
-0.000172063
0.00014826
-0.0029594
-0.00019005
-0.00302071
-0.00297526
-0.00365228
0.00352998
-0.000211064
-0.000407374
-0.00347688
0.000326941
0.00372607
-0.00360773
-0.000525708
-0.000249515
-0.0034545
0.00340239
-0.000308463
-0.000319148
-0.0033904
0.00336713
-0.000245287
-0.000246479
-0.00340084
0.00345237
-0.000241154
-0.000242773
-0.0034728
0.00349322
-0.000235906
-0.000237799
-0.00351342
0.00353356
-0.000231126
-0.000232786
-0.00355348
0.00357333
-0.000226568
-0.000228127
-0.00359296
0.00361253
-0.000222102
-0.000223613
-0.00363187
0.00365114
-0.000217646
-0.000219148
-0.00367019
0.00368916
-0.000213137
-0.00021466
-0.00370789
0.00372654
-0.000208524
-0.000210094
-0.00374493