/*--------------------------------*- C++ -*----------------------------------*\
  =========                 |
  \\      /  F ield         | OpenFOAM: The Open Source CFD Toolbox
   \\    /   O peration     | Website:  https://openfoam.org
    \\  /    A nd           | Version:  10
     \\/     M anipulation  |
\*---------------------------------------------------------------------------*/
FoamFile
{
    format      ascii;
    class       surfaceScalarField;
    location    "19.5";
    object      phi;
}
// * * * * * * * * * * * * * * * * * * * * * * * * * * * * * * * * * * * * * //

dimensions      [0 3 -1 0 0 0 0];

internalField   nonuniform List<scalar> 
51391
(
-0.0353033
0.0125171
-0.0110875
0.0338737
0.0151208
-0.0166744
-0.0337497
0.0236247
-0.0154174
0.00691355
0.0356247
0.000517074
0.0357223
-0.0243897
0.0246001
-0.0359327
0.0261485
-0.023028
0.0326017
-0.0557224
0.0349688
0.0422441
-0.0214905
0.00719658
-0.049654
-0.013265
0.0574599
-0.00087616
-0.0493871
0.0264265
0.0379185
-0.00688511
0.0203043
-0.0252878
0.0600247
-0.0550412
0.0553029
0.0185487
-0.0535474
0.0707036
-0.0520664
-0.043925
0.00982166
0.00816532
-0.0014623
-0.0165247
0.0138073
0.00519209
-0.0091777
0.0549879
0.0380978
-0.0505762
-0.0425094
0.0773119
0.0226591
-0.0449831
0.106495
-0.0628315
-0.0613351
0.0176712
0.0428718
0.0732033
-0.00957965
0.0404474
-0.00939673
-0.0373427
0.00629202
0.00824349
0.0282653
0.00393854
0.01082
-0.0354133
0.0245934
0.023941
0.0111351
-0.0242561
-0.00379525
-0.0427705
-0.000102203
0.046668
-0.0459123
0.0513426
-0.00922557
0.00593717
-0.00725367
-0.0445958
0.00627731
-0.0431106
-0.0439989
0.0105869
0.0363634
-0.00295142
0.000120263
-0.0442214
0.0260018
0.0312531
0.0203781
0.0254978
-0.019874
0.00682333
-0.0025708
-0.00425254
0.00422919
0.00259415
-0.0105823
0.0120404
-0.00402888
-0.0184401
0.0225289
-0.00152748
-0.00256122
-0.0418512
0.0149545
0.0322731
-0.00537635
-0.04114
0.00345822
-0.00416942
0.0639334
-0.00548578
-0.0608913
0.00244366
0.0449778
-0.00311571
0.0220713
0.0181657
0.0506505
0.0198251
-0.0886414
0.0173931
-0.0547471
0.0555198
0.0583556
0.0177218
-0.0586843
-0.038057
0.00294722
0.00695537
0.0281544
-0.0382243
0.0003529
-0.000185614
0.000511737
-0.037507
-0.00122902
0.0671103
0.0249573
-0.0347853
-0.0572823
0.0160126
0.0722206
-0.0211229
-0.000852758
-0.0102519
0.011146
-4.1366e-05
-0.0342044
0.00757829
0.0257733
0.0232733
-0.0320076
-0.0254701
0.0147803
-0.048202
-0.0528872
0.086309
-0.0155763
0.088204
-0.0578473
-0.0505224
0.0317829
0.0187395
-0.0328123
-0.0177101
0.0280312
-0.0178255
0.00297254
-0.0131782
0.00423526
0.000600998
0.023195
0.000254819
-0.0218061
0.0037258
-0.0642944
-0.0192138
0.0287767
0.0547315
-0.0177019
-0.0474411
0.000848551
0.0212352
-0.00236985
-0.0365672
0.0266638
-0.0246424
-0.0519641
0.0267576
-0.0236178
0.0488244
0.0186914
-0.0418789
-0.0158728
0.0079174
-0.0158777
0.0238331
-0.0297956
-0.00716511
0.0210879
-0.0306481
-0.00457825
0.00543071
0.00731723
-0.00293788
-0.00437935
0.00317085
0.00414638
0.0012739
0.00295528
0.0132765
0.00350298
-0.0122857
-0.00449381
0.00499506
0.00828142
0.0191207
0.0167538
-0.00620894
-0.0296656
0.0217975
0.0240121
-0.0266889
0.046561
0.00497209
-0.0297356
-0.0471273
0.0468068
-0.00517545
0.005496
0.00518422
0.0385647
-0.00643549
-0.00462967
0.00298949
0.0302028
0.00579654
-0.0389889
0.0290063
-0.0371913
0.0111744
0.0152778
0.0439313
0.0368233
-0.0368927
0.000422341
0.0249708
0.0147997
-0.0106494
0.0112549
-0.00510692
0.00450148
0.0185647
-0.0254451
-0.00376904
0.018733
0.0110866
0.00892626
0.0261231
-0.000255179
-0.0347942
0.0146981
0.0261172
-0.031889
0.0259061
0.014915
0.00201999
-0.00394066
0.0390214
-0.0371007
0.0416421
0.00105583
-0.0406779
-0.00232489
0.0039408
-0.0112187
0.00960277
-0.0146099
0.00346958
0.00881542
-0.00909434
0.00112903
0.0119061
-0.00977351
0.0319218
0.00910474
0.0344388
-0.00784888
0.0381369
-0.022876
0.00858659
-0.0238474
0.035012
0.0300106
-0.0268857
0.0358218
-0.0251995
0.0392132
-0.018652
-0.0284587
0.00789747
-0.00281364
0.0385414
0.00348548
0.0331286
-0.000697105
-0.0352451
0.0191611
-0.0044726
-0.00413832
0.0346662
0.00336778
-0.0338957
0.0264425
0.00133578
-0.0319166
0.0407314
-0.0100059
0.00287592
0.0427859
-0.0125606
-0.0331012
0.00215589
0.0397402
-0.0390202
-0.0548701
-0.0561634
0.0389046
-0.0495332
-0.0442415
-0.0409463
0.00489809
-0.00509183
-0.00574441
-0.0416991
0.00649726
0.00580317
0.0408587
-0.00909143
-0.0375704
0.040543
-0.0346095
-0.000130366
0.0125605
-0.0438714
0.0366379
-0.005327
-0.0251638
1.25475e-05
0.0377117
0.0408482
0.00682922
-0.0085003
-0.0391771
0.00752022
-0.00723119
0.0405591
0.0198508
0.0538323
-0.0183802
0.027765
-0.0514123
-0.0437006
0.0673479
0.0405999
-0.0701329
0.057298
0.0184554
-0.0175875
0.039732
0.0628696
0.0117471
-0.0631066
-0.0115101
0.00674076
0.0710781
-0.0149493
0.0934576
0.00150533
0.019487
-0.11445
-0.0151766
0.0538871
-0.0141997
0.0120388
-0.0124491
0.0264498
-0.0151115
-0.025538
0.0239307
0.0087204
-0.0097956
-0.0228555
0.0103847
0.0196813
-0.00613519
-0.0176845
0.0196906
0.00837858
0.0192085
-0.0281726
0.0136213
-0.00869129
-0.0341048
0.00698362
0.0358125
-0.0276994
0.043368
-0.0243599
0.00483153
0.00286806
-0.035399
0.00442701
-0.0337003
-0.0298733
0.0297337
-0.0407512
0.0318833
0.0295121
-0.00194659
-0.021428
0.00136337
0.0220112
0.00618755
-0.0172285
-0.0133724
0.0244133
-0.0186892
-0.00155177
0.0264285
-0.0336007
-0.00231703
-0.029988
-0.00504164
0.00142901
-0.029286
-0.00616568
0.00546362
-0.0288038
-0.00963001
0.00914781
-0.0286499
-0.0132669
0.0131131
-0.0285558
-0.015795
0.0157008
-0.0283778
-0.0185504
0.0183724
-0.0286621
-0.020118
0.0204023
-0.0288336
-0.0219036
0.0220752
-0.0294672
-0.022344
0.0229776
-0.0299111
-0.0231413
0.0235852
-0.0307226
-0.0227677
0.0235792
-0.0312075
-0.0230904
0.0235752
-0.0319242
-0.022597
0.0233137
-0.0322193
-0.0230689
0.0233639
-0.0327101
-0.0228696
0.0233604
-0.032789
-0.023644
0.0237229
-0.0331135
-0.0236461
0.0239705
-0.0330534
-0.0245508
0.0244907
-0.0332657
-0.024576
0.0247883
-0.0330831
-0.0254795
0.0252969
-0.0331785
-0.0253988
0.0254943
-0.0328755
-0.026116
0.0258129
-0.0328694
-0.025674
0.0256679
-0.0324918
-0.0258538
0.0254762
-0.0324371
-0.0246808
0.0246261
-0.0320773
-0.0238887
0.0235289
-0.0320651
-0.0216339
0.0216216
-0.0318062
-0.0195306
0.0192718
-0.0317178
-0.0162355
0.0161471
-0.0318587
-0.0132329
0.0133738
-0.0318692
-0.00888863
0.00889913
-0.0324393
0.00510156
-0.00453146
-0.0342499
-0.000950999
0.00276155
0.0108491
-0.0241585
-0.0209405
-0.0298699
0.0303505
0.00462095
-0.0326146
0.00179377
-0.0347857
0.0352284
0.00231885
0.025539
-0.0283671
0.0012763
-0.00655651
0.0270315
0.00506403
-0.00737168
0.0272437
-0.0321061
0.00816961
-0.0343899
0.0342982
-0.00879687
-0.00369302
-0.0341603
0.0338563
-0.0159315
-0.013095
-0.0343246
0.0341399
-0.0214492
-0.019999
-0.0347116
0.034467
-0.0244362
-0.0244604
-0.0350151
0.0346706
-0.0253295
-0.026402
-0.0351134
0.0346586
-0.0249441
-0.0265587
-0.0349659
0.0344077
-0.0240178
-0.0257868
-0.0345841
0.0339385
-0.0230005
-0.0247272
-0.0339867
0.0332197
-0.0221027
-0.0236922
-0.0330734
0.0321036
-0.0216271
-0.0229226
-0.0317471
0.0306403
-0.0216609
-0.0227339
-0.0302591
0.0292655
-0.0213504
-0.0227601
-0.0290927
0.0284292
-0.0194545
-0.0217308
-0.0285305
0.0282424
-0.0155068
-0.0186518
-0.0285663
0.0285509
-0.00961461
-0.0135909
-0.0294991
0.0289522
-0.00449475
-0.00711386
-0.00173184
0.0310226
-0.0308964
0.00533747
-0.0326853
-0.00643155
0.0257445
-0.000233755
0.0307869
-0.0302332
0.0125594
0.00903824
0.0299262
-0.0293258
0.017772
0.0153938
0.0298665
-0.0294054
0.021614
0.0209431
0.0303698
-0.0301414
0.0233569
0.023942
0.0313514
-0.0312276
0.0234514
0.0247892
0.0323915
-0.0321425
0.0231149
0.0244777
0.0330865
-0.0326129
0.0232494
0.0243044
0.0333746
-0.0327197
0.0238359
0.0247321
0.0333736
-0.0325673
0.0244905
0.0254422
0.0331208
-0.0321779
0.02487
0.0260477
0.0326355
-0.0316282
0.0244689
0.0261256
0.0320129
-0.0310742
0.0225902
0.0250108
0.0314013
-0.0307632
0.0186336
0.0219488
0.0309827
-0.0300587
0.0124497
0.0163666
0.00919095
-0.00905666
0.0260983
0.00862578
-0.00906445
0.0276823
0.00814385
0.0275134
-0.0146966
0.0123322
-0.0297418
-0.0101192
-0.0287359
-0.0318518
0.0330918
0.0110922
0.0160414
-0.0152741
-0.0305091
-0.0311576
0.0153472
-0.00155856
-0.0242431
-0.00681295
-0.0288271
0.029622
0.00382606
-0.0282439
0.00121061
0.0302374
-0.0325512
-0.00411773
-0.0102144
0.0269023
0.0279192
-0.00789622
0.0110279
-0.0123432
0.0282176
0.0280618
-0.0345393
0.035555
0.00130315
0.00672214
-0.0360887
0.0363188
-0.009027
-0.00422669
-0.0363932
0.0369263
-0.0164646
-0.0131695
-0.0371148
0.0376333
-0.0219677
-0.0201874
-0.037646
0.0380285
-0.0248186
-0.0244731
-0.0378408
0.0380532
-0.0255419
-0.0262143
-0.0376902
0.0377462
-0.0250001
-0.0261958
-0.0372515
0.0371796
-0.0239459
-0.025292
-0.0365889
0.036418
-0.0228295
-0.0241364
-0.0357509
0.0354735
-0.0218253
-0.0230251
-0.0346786
0.0342278
-0.0211763
-0.0221277
-0.033245
0.0326391
-0.021055
-0.021751
-0.0315731
0.0309842
-0.0207615
-0.0216941
-0.0300521
0.0296401
-0.0190425
-0.0207988
-0.0289823
0.0287884
-0.015313
-0.0179939
-0.0283938
0.0285047
-0.00972544
-0.0131963
-0.0285524
0.0275875
-0.00352981
-0.0071616
-0.0268358
0.0260192
0.00209289
-0.000980148
-0.0261724
0.0263058
0.00801046
0.00491082
0.0331211
-0.0327113
0.00492768
0.000336106
0.0325622
-0.0321298
0.012127
0.00888912
0.0324284
-0.0326236
0.0179671
0.0156924
0.032592
-0.0330281
0.0220501
0.0209115
0.0330984
-0.0337076
0.0239661
0.0240123
0.0338774
-0.0345368
0.0241108
0.024959
0.0346908
-0.0352429
0.023667
0.0246316
0.0352493
-0.0356306
0.0236308
0.0243108
0.0354617
-0.0357065
0.0240807
0.0245632
0.0353877
-0.0355142
0.024617
0.0251234
0.0350389
-0.0350251
0.0248563
0.0255724
0.0343855
-0.0342154
0.0242988
0.0254859
0.0334438
-0.0331172
0.0222636
0.0242393
0.0323097
-0.0317016
0.0180256
0.0211412
0.030953
-0.0303417
0.0118385
0.015618
0.0084712
-0.00986385
-0.0280088
0.0277534
-0.0135767
0.0291527
-0.0147388
-0.0292711
0.0100765
-0.0104647
0.0266939
0.0268312
-0.0262854
0.00746466
0.0268812
0.0100265
0.0185523
-0.0183756
-0.0306858
0.0193614
-0.0319667
-0.0257225
-0.00408001
0.00834916
-0.00856854
-0.0255031
-0.0257578
0.0114145
-0.0122131
0.028481
0.0284632
0.0136561
-0.0155405
0.0301019
0.0295048
-0.0334353
0.0342811
0.0102464
0.0327928
-0.0321664
0.0187351
0.0147046
-0.0355594
0.0366017
0.000260807
0.00544385
-0.0371276
0.0373243
-0.00922365
-0.00475256
-0.037983
0.0385422
-0.0170238
-0.0138282
-0.0390191
0.0393605
-0.0223092
-0.0206643
-0.039576
0.0396486
-0.0248913
-0.0246886
-0.039593
0.0394283
-0.0253772
-0.0261587
-0.0391638
0.0388349
-0.0246712
-0.0259312
-0.0384352
0.038002
-0.0235127
-0.0248924
-0.0375147
0.0370116
-0.0223264
-0.0236491
-0.0364594
0.035887
-0.0212529
-0.0224729
-0.0352372
0.0345357
-0.0204748
-0.0214779
-0.0337269
0.0328787
-0.0202069
-0.0209421
-0.0319662
0.0310937
-0.019889
-0.0207816
-0.030241
0.0294965
-0.018298
-0.0199461
-0.0288235
0.028282
-0.0147714
-0.017321
-0.0278402
0.0277049
-0.0095901
-0.0127545
-0.027353
0.027301
-0.00347782
-0.00680974
-0.0266989
0.0263468
0.00244497
-0.000378019
0.00497224
0.0316612
-0.0326481
-0.00313083
-0.0317993
-0.0124571
0.0306798
-0.00803435
0.0334864
-0.0335102
0.00495157
0.00117434
0.0335685
-0.0336126
0.0121712
0.00894734
0.0337679
-0.0339377
0.0181369
0.0158477
0.0341512
-0.0343675
0.0222665
0.0211249
0.0346375
-0.0349041
0.0242327
0.0242823
0.0352161
-0.0354939
0.0243886
0.025271
0.0357743
-0.0359736
0.0238664
0.024912
0.0361331
-0.0361932
0.0236909
0.0244702
0.036206
-0.0361291
0.0240038
0.024576
0.0360073
-0.0357939
0.0244036
0.0250016
0.0355198
-0.0351394
0.0244759
0.0252983
0.0346801
-0.0341104
0.0237291
0.0250266
0.0334575
-0.0327121
0.0215182
0.0235864
0.0318843
-0.0311478
0.0172892
0.0203134
0.030367
-0.0295046
0.0109762
0.0148371
0.0284665
-0.0278828
0.00324236
0.00743308
0.025439
-0.0255441
-0.00397488
-0.00123324
0.0209929
-0.0212018
-0.0317577
-0.032787
0.0216134
-0.0167078
0.03032
-0.0149328
-0.0278148
0.0126155
-0.0138683
0.0279468
0.0119848
0.0275119
-0.0180164
-0.0296303
-0.0211978
-0.0306899
-0.0254627
-0.00864992
-0.0127951
0.0138843
-0.0265924
0.032813
-0.0335014
-0.0117687
0.023623
-0.0234435
-0.0319372
0.0235319
-0.0326958
-0.0170727
0.0310447
0.0310971
-0.0153569
-0.0122965
-0.0259613
-0.0268062
0.0136283
-0.0151215
0.0299741
0.0282233
0.0161257
-0.0170357
0.0310119
0.030509
0.0188642
-0.0195454
0.0317259
0.0321485
-0.0331644
0.0337318
0.0181676
0.0321412
-0.032711
0.0241017
0.0205903
-0.0342462
0.035535
0.00895761
0.0141903
-0.0366332
0.0375326
-0.000638564
0.00434565
-0.0383607
0.0390498
-0.00991269
-0.00558074
-0.0396832
0.0401909
-0.0175315
-0.0144616
-0.0405784
0.040805
-0.0225358
-0.0210519
-0.0408807
0.0408095
-0.02482
-0.0247643
-0.0406049
0.0403023
-0.0250746
-0.0259541
-0.0399059
0.0394607
-0.0242261
-0.0255348
-0.0389541
0.0384279
-0.0229866
-0.0243857
-0.0378551
0.0372762
-0.0217476
-0.0230763
-0.0366546
0.0360224
-0.0206207
-0.0218513
-0.0353213
0.0345754
-0.0197289
-0.0207767
-0.0337239
0.0328297
-0.0193127
-0.0200907
-0.0318658
0.0309384
-0.0189616
-0.0198177
-0.0300332
0.0292424
-0.0175072
-0.0190409
-0.0285353
0.0279685
-0.0142046
-0.0166139
-0.0275051
0.0271926
-0.00927753
-0.0122911
-0.0270084
0.0269594
-0.00342885
-0.00662554
-0.0270324
0.0269441
0.00253332
-0.000451064
-0.0267588
0.0266701
0.00755332
0.00515756
-0.0269887
0.0275809
0.0113926
0.00970789
0.0342473
-0.0345849
-0.00279327
-0.00728842
0.0345317
-0.0345386
0.00495844
0.00112118
0.0345859
-0.0346615
0.0122468
0.00899465
0.0347709
-0.0349009
0.0182669
0.0159571
0.0350476
-0.0351994
0.0224183
0.0212716
0.0353672
-0.0355412
0.0244067
0.02445
0.0357288
-0.035905
0.0245648
0.0254586
0.0360634
-0.0361732
0.0239761
0.0250704
0.0362264
-0.0362106
0.0236751
0.0245234
0.0361243
-0.0359747
0.0238541
0.0244897
0.0357516
-0.0354645
0.0241165
0.0247786
0.0350856
-0.0346296
0.0240199
0.0249194
0.0340604
-0.0334118
0.0230805
0.0244574
0.0326476
-0.0318284
0.0206989
0.0228223
0.0309278
-0.0300372
0.0163986
0.0194128
0.0291425
-0.0283415
0.0101751
0.0139424
0.0276306
-0.0270112
0.00262294
0.00672222
0.0268811
-0.0256105
-0.00524543
-0.00136335
0.025034
-0.0254931
-0.0118374
-0.00922642
0.025145
-0.0255193
-0.0323215
-0.0329865
0.0254204
-0.0153082
0.0159077
-0.0265609
-0.0265978
-0.0142035
-0.017656
-0.0281752
0.0167765
-0.0274612
-0.0204105
0.0319622
-0.0210466
-0.0297815
0.0135338
-0.0136997
0.0277469
0.0273032
-0.027356
0.0114454
0.0276516
0.0131853
-0.0234233
-0.0307101
-0.025252
-0.0322046
-0.0176831
0.0187505
-0.0276282
0.026092
-0.0259008
-0.0325126
0.0263659
-0.0332604
-0.0163555
-0.0279254
-0.0276857
0.0148227
-0.0153013
0.0284253
0.0286348
0.0167474
-0.0173001
0.0305268
0.0296693
0.0178387
-0.0189942
0.0321674
0.0310476
0.0189595
-0.0205827
0.0333491
0.0321138
-0.0333209
0.0343597
0.023063
0.0321482
-0.0329069
0.0271246
0.0242477
-0.034367
0.0355188
0.0170158
0.020583
-0.036981
0.0376293
0.00830934
0.012728
-0.038525
0.0393576
-0.00147118
0.00344995
-0.0401573
0.0408468
-0.0106022
-0.00638048
-0.041441
0.0418742
-0.0179646
-0.0150557
-0.0421515
0.042248
-0.0226323
-0.0213292
-0.0421762
0.0419587
-0.0246026
-0.0246924
-0.041607
0.0411706
-0.0246382
-0.0256024
-0.0406477
0.0400926
-0.0236709
-0.0250119
-0.0394853
0.0388731
-0.0223744
-0.0237784
-0.0382216
0.0375745
-0.0211004
-0.0224248
-0.0368906
0.0362071
-0.0199372
-0.0211674
-0.035464
0.0346863
-0.0189512
-0.0200336
-0.0338062
0.0328808
-0.0183873
-0.0192106
-0.0318767
0.0309023
-0.0179871
-0.0188137
-0.0299458
0.0291091
-0.0166705
-0.0180844
-0.0283649
0.0277728
-0.0136125
-0.0158697
-0.0272982
0.0269753
-0.00895458
-0.0118166
-0.0267835
0.0267341
-0.00337947
-0.00643377
-0.0267846
0.026901
0.002417
-0.000501552
-0.0271325
0.0268595
0.00782633
0.00492597
0.00921139
0.03515
-0.0355315
-0.0113872
-0.0349159
-0.018554
0.0330594
-0.0151228
0.0362401
-0.0360356
-0.00299784
-0.00657973
0.036005
-0.0359973
0.00495069
0.00109063
0.0360023
-0.0360194
0.0122639
0.00899963
0.0360503
-0.0360907
0.0183073
0.0159881
0.0361385
-0.0361889
0.0224687
0.0213195
0.0362458
-0.0363084
0.0244693
0.0245069
0.0363798
-0.0364466
0.0246317
0.0255299
0.036498
-0.0365112
0.0239893
0.0251218
0.0364708
-0.0363682
0.0235725
0.024483
0.0361934
-0.0359571
0.0236178
0.024315
0.0356438
-0.0352687
0.0237414
0.0244653
0.0347996
-0.0342578
0.023478
0.0244504
0.0336026
-0.0328759
0.0223537
0.0238022
0.0320395
-0.0311638
0.0198232
0.0219859
0.0302214
-0.0293078
0.015485
0.0184704
0.0284057
-0.027612
0.00938138
0.0130403
0.0269134
-0.0263896
0.00209921
0.00602363
0.0260134
-0.0258661
-0.00539274
-0.00173961
0.0259703
-0.025937
-0.0118706
-0.00912224
0.025768
-0.0262892
-0.0158343
-0.0143726
0.026493
-0.0265843
-0.0331691
-0.0330467
0.0266328
-0.0190919
0.0197645
-0.028598
-0.0282014
-0.0171797
-0.0216633
0.0330429
-0.020156
-0.0290658
0.0190574
-0.0277681
0.0148014
-0.0158168
0.0287623
0.0137503
0.0287027
-0.0232038
-0.030001
0.0201318
-0.0279956
-0.0249743
-0.0309878
-0.0262772
-0.0318282
-0.026696
-0.0324009
0.0356509
-0.0358476
-0.0183572
-0.0192221
0.0203907
-0.0297666
0.0260937
-0.0266801
-0.0325827
0.0264602
-0.0334132
-0.0178615
-0.029562
-0.022191
0.0335871
0.0331987
-0.0197387
-0.0287843
0.0162939
-0.0175217
0.0296532
0.0291119
0.0179743
-0.0182157
0.0307683
0.030122
0.0196139
-0.0197418
0.0322953
0.0324458
0.0207946
-0.0213541
0.0339086
0.0331665
0.0232518
-0.024256
0.0345913
0.0349406
-0.0335119
0.0345256
0.0261109
0.0330651
-0.0326934
0.0260886
0.0261859
-0.0340241
0.0348783
0.0222088
0.0247492
-0.0359885
0.0372773
0.015727
0.0194727
-0.038138
0.0393419
0.00710544
0.0118674
-0.040317
0.0411959
-0.00235011
0.00247486
-0.0420129
0.0426848
-0.0112741
-0.00719751
-0.0432203
0.043561
-0.0183053
-0.0155913
-0.0437141
0.0436713
-0.0225895
-0.0214823
-0.0434458
0.0430786
-0.0242354
-0.0244669
-0.0425791
0.0420106
-0.0240698
-0.0251028
-0.0413655
0.040706
-0.0230115
-0.0243667
-0.040005
0.0393143
-0.0216837
-0.0230774
-0.0385925
0.0378854
-0.0203934
-0.021703
-0.0371471
0.0364191
-0.0192092
-0.0204291
-0.0356407
0.0348391
-0.0181496
-0.0192552
-0.0339411
0.0329979
-0.0174441
-0.0183126
-0.0319685
0.0309602
-0.0169789
-0.0177842
-0.0299623
0.0290852
-0.0157934
-0.0170865
-0.0283056
0.0276888
-0.0129957
-0.01509
-0.0271996
0.0268688
-0.00862377
-0.0113274
-0.0266732
0.02662
-0.00332625
-0.00623824
-0.0267047
0.0269708
0.00215094
-0.000586257
-0.0270589
0.027564
0.00732131
0.0048378
-0.0274484
0.0277682
0.0111256
0.009327
-0.0285144
0.0283913
0.0138734
0.0124391
0.0366802
-0.0378
-0.0102675
-0.0142903
0.0374676
-0.037582
-0.00288345
-0.00691209
0.0375479
-0.0375131
0.00491587
0.00105654
0.0374735
-0.0374305
0.0122209
0.00896003
0.0373829
-0.037334
0.0182583
0.0159406
0.0372805
-0.0372264
0.0224145
0.021266
0.0371699
-0.0371191
0.0244185
0.0244505
0.0370723
-0.0370278
0.0245872
0.0254831
0.0369702
-0.0368859
0.023905
0.0250642
0.0367521
-0.0365644
0.0233848
0.0243492
0.0363045
-0.0359863
0.0232997
0.0240551
0.0355884
-0.0351317
0.0232847
0.0240673
0.0345803
-0.0339618
0.0228595
0.023899
0.0332327
-0.0324413
0.0215624
0.0230731
0.0315486
-0.030631
0.0189056
0.0210932
0.0296602
-0.028733
0.0145578
0.0174996
0.0278303
-0.0270484
0.00859954
0.0121376
0.0263743
-0.0258819
0.00160678
0.00534949
0.0255657
-0.0254791
-0.00547926
-0.00205583
0.0256369
-0.026048
-0.0114595
-0.00896445
0.0262909
-0.026847
-0.0152782
-0.0141297
0.0273161
-0.0290709
-0.0161067
-0.0167106
-0.0166276
0.0174316
-0.030366
-0.0162067
-0.0294917
0.0264269
-0.0267357
-0.0331044
-0.0325817
0.0263152
-0.0226331
-0.0296365
0.0217462
-0.0293825
-0.0245614
0.0335041
-0.0243636
-0.0306117
0.0216406
-0.0292454
0.0147317
-0.0153036
0.0289632
0.02864
-0.0282533
0.0134867
0.0291422
0.0142295
-0.0257836
-0.0314815
0.0195873
-0.0319223
-0.026368
-0.0321561
0.015452
-0.0427081
-0.00311002
-0.026627
-0.0324541
-0.0264063
-0.032912
0.0255739
-0.0262842
-0.032394
0.0260724
-0.0330802
-0.0296711
0.0158851
-0.0169371
0.0298143
0.0292841
0.0173327
-0.0181094
0.0304299
0.0295076
0.0197291
-0.0199119
0.0309511
0.0317416
0.0203827
-0.0207956
0.0327082
0.0329165
0.0211466
-0.0217761
0.0345381
0.0335176
0.0223246
-0.0238471
0.0361138
0.035489
-0.033223
0.033496
0.0258155
0.0324432
-0.0321778
0.0258069
0.0255354
-0.0340076
0.0349055
0.0252129
0.0256744
-0.0359368
0.0370993
0.0210463
0.023718
-0.0378432
0.0389957
0.0145746
0.0187288
-0.0400403
0.0411083
0.00603734
0.0108228
-0.0421514
0.043071
-0.00326968
0.00143181
-0.0438911
0.0445267
-0.0119097
-0.00801764
-0.0449863
0.0452201
-0.0185391
-0.0160509
-0.045236
0.0450445
-0.022398
-0.0214982
-0.0446598
0.0441425
-0.0237181
-0.0240822
-0.0434988
0.0428052
-0.0233762
-0.0244592
-0.042047
0.0412929
-0.0222574
-0.0236085
-0.0405082
0.0397484
-0.0209239
-0.0222927
-0.0389656
0.0382075
-0.0196352
-0.0209202
-0.0374234
0.0366587
-0.0184444
-0.019645
-0.0358528
0.0350357
-0.0173325
-0.0184493
-0.0341306
0.0331822
-0.0164957
-0.0174075
-0.0321408
0.0311102
-0.0159483
-0.0167428
-0.0300791
0.0291659
-0.0148802
-0.0160555
-0.0283522
0.0277101
-0.0123536
-0.0142763
-0.0272047
0.0268661
-0.00828515
-0.010822
-0.0266685
0.0266189
-0.00327666
-0.00604065
-0.0267032
0.0269044
0.00194973
-0.000670613
-0.0271531
0.0276946
0.00677983
0.00458912
-0.0278307
0.0281876
0.0107687
0.00919087
0.0123734
0.0377334
-0.0390326
-0.017058
-0.0379133
-0.0225334
0.0358853
-0.0199186
0.0393316
-0.0392767
-0.0103224
-0.0139912
0.0392312
-0.0391862
-0.00292845
-0.00695753
0.0391327
-0.0390661
0.00484936
0.00100298
0.0389775
-0.0388716
0.012115
0.00887138
0.0387437
-0.0386048
0.0181194
0.0158127
0.038449
-0.0382894
0.022255
0.0211102
0.0381198
-0.0379567
0.0242553
0.0242809
0.0377933
-0.0376388
0.0244327
0.0253198
0.0374737
-0.0372931
0.0237244
0.0248991
0.037068
-0.0367982
0.023115
0.0241241
0.0364575
-0.0360629
0.022905
0.0237143
0.0355868
-0.0350556
0.0227535
0.0235912
0.0344301
-0.0337442
0.0221736
0.0232735
0.0329521
-0.032108
0.0207183
0.022281
0.0311715
-0.0302235
0.0179577
0.0201567
0.0292342
-0.0283017
0.0136252
0.0165103
0.0274058
-0.0266422
0.00783594
0.0112417
0.0259985
-0.0255471
0.00115536
0.00470575
0.0252895
-0.0252721
-0.00549664
-0.00231341
0.0255114
-0.0260059
-0.010965
-0.00872509
0.0267956
-0.027823
-0.0142508
-0.0133401
0.0290544
-0.0289932
-0.0161679
-0.0154793
-0.0190514
0.0256853
-0.0265148
-0.0322507
-0.0321128
0.0256204
-0.0252887
0.0349457
-0.0234924
-0.0305077
0.0226332
-0.0303751
0.0156903
-0.0164787
0.0297517
0.0147527
0.0300798
-0.0249066
-0.0314887
0.0218453
-0.0315034
-0.0256175
-0.0322321
0.0199537
-0.036424
-0.0260924
-0.0326907
0.0188564
-0.0369644
-0.0262733
-0.0325871
-0.026469
-0.0327272
-0.0263529
-0.032556
0.0252033
-0.0311254
0.0373905
-0.0393182
-0.0206057
0.0257257
-0.0261084
-0.031868
0.025257
-0.0316441
-0.0249752
0.0355718
0.0365234
-0.0241082
-0.0305304
0.0172394
-0.0181419
0.0307168
0.0300448
0.0194761
-0.0195956
0.0305494
0.0308418
0.020117
-0.0205841
0.0314181
0.032263
0.0210283
-0.0214903
0.0331702
0.0333607
0.0217028
-0.0221134
0.0349487
0.03373
0.0224552
-0.0230591
0.0367177
0.0358309
0.0245709
-0.0256831
0.0366839
0.0364576
-0.0325613
0.0332578
0.0251105
0.0317838
-0.0309821
0.0244552
0.0248429
-0.0335596
0.0345424
0.0248327
0.0252337
-0.0348136
0.0362441
0.0237824
0.0254032
-0.036997
0.0380745
0.0199688
0.0229651
-0.0392829
0.0404957
0.0133618
0.0175204
-0.0417441
0.0429066
0.00487485
0.00957441
-0.0440082
0.0449531
-0.00421454
0.000330151
-0.0457601
0.0463433
-0.0124929
-0.00882463
-0.0467093
0.0468198
-0.0186495
-0.0164169
-0.0466848
0.0463365
-0.0220497
-0.0213633
-0.0457905
0.0451263
-0.0230539
-0.0235362
-0.0443464
0.0435377
-0.0225675
-0.0236792
-0.0426779
0.0418406
-0.0214201
-0.0227487
-0.0409836
0.040165
-0.0201053
-0.0214357
-0.0393314
0.0385317
-0.0188355
-0.0200866
-0.0377111
0.0369175
-0.0176508
-0.0188245
-0.0360908
0.0352652
-0.0165069
-0.0176226
-0.0343624
0.033421
-0.0155542
-0.0165047
-0.0323825
0.031343
-0.0149088
-0.0157043
-0.0302892
0.0293451
-0.0139362
-0.0150016
-0.0284982
0.0278293
-0.0116846
-0.0134294
-0.0273051
0.0269567
-0.00793673
-0.0102978
-0.0267546
0.0267032
-0.00322521
-0.00583862
-0.0267883
0.0269963
0.00174179
-0.000755757
-0.0273241
0.027737
0.00636693
0.00426129
-0.0283577
0.0286728
0.0104536
0.00857017
-0.0292541
0.0296597
0.0130811
0.0117921
-0.030264
0.0300285
0.0149883
0.0136252
0.0401592
-0.0409319
-0.0162853
-0.0190776
0.0409216
-0.0408953
-0.0103487
-0.0140015
0.0408581
-0.0408078
-0.0029788
-0.00699474
0.0407327
-0.0406301
0.00474674
0.000927907
0.0404891
-0.0403184
0.0119442
0.00873043
0.0401095
-0.0398807
0.0178906
0.0156038
0.0396229
-0.0393585
0.0219905
0.0208524
0.0390771
-0.0388041
0.0239823
0.0239995
0.038528
-0.0382674
0.0241721
0.0250437
0.0379988
-0.0377258
0.0234513
0.0246305
0.0374136
-0.0370664
0.0227677
0.023812
0.0366505
-0.0361856
0.0224401
0.0232985
0.0356384
-0.0350401
0.0221552
0.0230441
0.0343486
-0.033604
0.0214289
0.022582
0.0327586
-0.0318721
0.0198318
0.0214357
0.0309025
-0.0299338
0.016989
0.0191871
0.0289352
-0.0280051
0.0126952
0.0155116
0.0271233
-0.0263837
0.00709637
0.0103599
0.0257753
-0.0253695
0.00074947
0.00409735
0.0251708
-0.0252216
-0.00544583
-0.00251202
0.0255443
-0.0261326
-0.0103767
-0.00840243
0.0270217
-0.0281153
-0.0131572
-0.0124509
0.0293765
-0.0298102
-0.0157342
-0.014218
0.0323505
-0.0195567
-0.0165111
0.0245864
-0.0255417
-0.0306889
-0.0303849
0.0239893
-0.0196304
0.021892
-0.0291473
-0.0318835
-0.0106229
-0.0238537
-0.0315606
0.0229133
-0.0314431
-0.0255476
0.036388
-0.0246725
-0.0324337
0.0218433
-0.0333929
0.0154144
-0.0160367
0.0306508
0.0302392
-0.0296911
0.0144402
0.0308909
0.0147627
-0.025232
-0.0330925
0.020148
-0.0377155
-0.0256259
-0.0333381
0.0237073
-0.0354684
-0.0260661
-0.03299
0.0239193
-0.0331527
-0.0265255
-0.0325546
-0.026432
-0.0322324
-0.0260866
-0.0313231
-0.0235237
0.0226057
-0.029467
-0.024362
-0.0298506
-0.0175192
0.0217355
-0.0333636
-0.0340176
-0.015385
-0.0314707
0.0165209
-0.0176009
0.0308317
0.030564
0.0180605
-0.0182724
0.0309287
0.0305043
0.0195108
-0.0200011
0.0310397
0.0320803
0.0204801
-0.0209017
0.0318397
0.0327421
0.0212935
-0.021099
0.0329758
0.0337525
0.0224793
-0.0219488
0.0344182
0.0351103
0.0223313
-0.0222624
0.0366488
0.0362133
0.0234161
-0.023824
0.0370918
0.0376113
-0.0307352
0.0317852
0.0234052
0.0296064
-0.0286761
0.0216754
0.0228604
-0.032511
0.0337148
0.0239067
0.0241171
-0.0343675
0.0350601
0.02414
0.024581
-0.0359286
0.0369373
0.0227737
0.0245347
-0.0381274
0.0393995
0.0186967
0.0217749
-0.0407788
0.0421292
0.0120114
0.0161411
-0.0434874
0.0447233
0.003639
0.00821616
-0.0458767
0.0468276
-0.00516546
-0.000823283
-0.0476003
0.0481085
-0.0130011
-0.00959727
-0.0483574
0.0483254
-0.0186175
-0.0166658
-0.0480264
0.0475161
-0.0215394
-0.0210643
-0.0468112
0.0460082
-0.0222509
-0.0228313
-0.045104
0.0441939
-0.0216573
-0.022775
-0.0432471
0.0423403
-0.0205133
-0.021802
-0.041424
0.040558
-0.0192394
-0.0205194
-0.0396843
0.0388527
-0.018004
-0.0192129
-0.038005
0.0371905
-0.0168362
-0.0179768
-0.0363501
0.0355221
-0.0156789
-0.0167823
-0.0346293
0.0337053
-0.0146302
-0.0156119
-0.0326835
0.0316494
-0.0138748
-0.0146825
-0.0305848
0.0296166
-0.012968
-0.013937
-0.0287381
0.0280402
-0.0109867
-0.0125509
-0.0274933
0.0271311
-0.00757453
-0.0097509
-0.0269217
0.0268672
-0.00317072
-0.0056292
-0.0269518
0.027158
0.00153554
-0.000840391
-0.0274823
0.0278884
0.00596082
0.00393706
-0.0282682
0.0290239
0.00969791
0.00819035
-0.0292163
0.0297578
0.0125397
0.0115997
0.0136919
0.0414617
-0.04227
-0.0197974
-0.0401362
-0.0233255
0.0379141
-0.0227827
0.0424326
-0.0424929
-0.016225
-0.0189151
0.0425187
-0.0425153
-0.0103521
-0.0139757
0.0424829
-0.0424209
-0.00304078
-0.0070271
0.0423209
-0.0421783
0.00460419
0.000827831
0.0419828
-0.0417461
0.0117075
0.00853491
0.041457
-0.0411398
0.0175735
0.0153147
0.0407822
-0.0404155
0.0216238
0.0204948
0.0400255
-0.0396468
0.0236036
0.0236096
0.039263
-0.0389019
0.0238109
0.0246599
0.0385357
-0.0381758
0.0230914
0.0242644
0.0377824
-0.0373634
0.0223488
0.0234185
0.0368787
-0.0363501
0.0219116
0.0228138
0.0357391
-0.0350809
0.0214971
0.022433
0.0343312
-0.0335358
0.0206336
0.0218322
0.0326462
-0.0317262
0.0189118
0.0205461
0.030733
-0.0297525
0.0160085
0.0181938
0.0287531
-0.027833
0.0117752
0.0145122
0.0269717
-0.0262611
0.00638575
0.00949858
0.0256916
-0.0253324
0.000390324
0.00352784
0.0251918
-0.0253082
-0.00532941
-0.00265269
0.0257111
-0.0263882
-0.00969956
-0.00799952
0.0273672
-0.0285231
-0.0120014
-0.0114719
0.0298188
-0.0314525
-0.0141005
-0.0129223
0.0334035
-0.0373288
-0.0156314
-0.0145601
0.0487693
-0.0292714
-0.0109113
-0.013759
0.0386245
-0.034728
-0.0145194
-0.0144944
-0.0163781
0.017369
-0.0350085
0.0348104
-0.0159242
-0.0352644
-0.0153026
-0.0252058
0.0377698
0.0217596
-0.0232441
-0.0279825
-0.027417
0.0205006
-0.0238327
-0.0324004
0.0228839
-0.0324837
0.0159701
-0.016568
0.0312488
0.0152554
0.0316055
-0.0245474
-0.0331183
0.0219177
-0.0351626
-0.0251336
-0.0335848
0.0223348
-0.036343
-0.0256374
-0.0337668
0.0233425
-0.0348916
-0.0260388
-0.0334766
0.021959
-0.0333762
-0.0263729
-0.0326136
0.0197464
-0.0357409
-0.0265772
-0.0317419
-0.0256652
-0.0300199
-0.0242837
-0.028811
-0.0365829
0.0358018
-0.0151431
0.0210762
-0.022541
-0.0265177
0.0400058
-0.0417513
-0.02158
-0.0253364
0.0380447
0.0388666
-0.0241973
0.0201772
-0.026518
0.0167344
-0.0361574
-0.0171599
0.0180978
-0.0366277
0.0190751
-0.0359858
-0.0324195
0.0173168
-0.01737
0.0308849
0.0313128
0.0191232
-0.0192359
0.0310414
0.0322575
0.0197141
-0.0201465
0.0314721
0.0325584
0.0205665
-0.0209329
0.0322061
0.0331621
0.0212689
-0.0215406
0.0332476
0.0340885
0.0217561
-0.0219009
0.0345631
0.0353257
0.0219039
-0.0221511
0.036896
0.0362164
0.0221975
-0.0235783
0.0384726
0.0376576
0.0240539
-0.0241303
0.0381211
0.0382454
-0.0281529
0.0293562
0.0204721
0.0269903
-0.0256782
0.0188652
0.019338
-0.0307802
0.0321278
0.0220575
0.0214364
-0.0335194
0.0340992
0.0233269
0.0227255
-0.035045
0.0352842
0.0239009
0.0236352
-0.0366944
0.0379263
0.0215418
0.0231245
-0.0393331
0.0407867
0.0172431
0.0203682
-0.042328
0.0438045
0.0105349
0.0145998
-0.0452603
0.0465578
0.0023415