/*--------------------------------*- C++ -*----------------------------------*\
  =========                 |
  \\      /  F ield         | OpenFOAM: The Open Source CFD Toolbox
   \\    /   O peration     | Website:  https://openfoam.org
    \\  /    A nd           | Version:  10
     \\/     M anipulation  |
\*---------------------------------------------------------------------------*/
FoamFile
{
    format      ascii;
    class       volScalarField;
    location    "6";
    object      p;
}
// * * * * * * * * * * * * * * * * * * * * * * * * * * * * * * * * * * * * * //

dimensions      [0 2 -2 0 0 0 0];

internalField   nonuniform List<scalar> 
6397
(
0.247857
0.234606
0.0164873
0.0158065
0.0155034
0.0161674
0.460832
0.219452
-0.35587
-0.387394
0.337898
0.22883
-0.011483
-0.0137896
-0.022839
-0.346966
-0.343441
-0.348002
0.841634
0.778711
0.745249
-0.442461
-0.395842
-0.394338
-0.0102937
-0.0119049
-0.00754629
0.0231628
0.024252
0.0219895
0.0229445
0.0142021
0.0147957
0.0151614
0.0122676
0.0128473
0.0132544
0.0138132
0.0109002
0.0103752
0.0113049
0.0118592
0.0210897
0.0175756
0.0183111
0.0168624
0.0165267
0.0172256
0.00824362
0.00810731
0.00745687
0.00734821
0.00776423
0.326606
0.313486
0.15117
0.162179
-0.00990055
0.0330056
0.03127
0.0348639
0.0368084
0.0388964
0.0411728
0.0436781
0.0463966
0.049393
0.0526745
0.0314534
0.0296618
0.0298124
0.0332264
0.035088
0.0370745
0.0392014
0.0414975
0.0440045
0.0467349
0.0496999
0.0529489
0.0283238
0.0281703
0.0563411
0.0565774
0.026937
0.0267627
0.0603876
0.0606662
0.0256346
0.0254515
0.0648594
0.0651051
0.0244294
0.023316
0.0697497
0.0699787
0.0257472
0.0233876
0.0245429
0.0284524
0.0270463
0.031557
0.0299586
0.0351421
0.0332885
0.0391883
0.0370914
0.0439214
0.0414554
0.0495442
0.0466082
0.0563073
0.0527704
0.0643193
0.0601385
0.0689416
0.0594259
0.0684597
0.0636739
0.051858
0.0554163
0.0457768
0.0486469
0.0406217
0.0430333
0.0363288
0.03836
0.0326068
0.0343735
0.0293659
0.0309344
0.026502
0.0278623
0.0240222
0.0252043
0.0222987
0.0221801
0.0223038
0.0741072
0.075322
0.0662291
0.0739287
0.0712486
0.0798024
0.0719687
0.0772986
0.0217409
0.0233522
0.0221818
0.0208492
0.0753137
0.0257131
0.0245007
0.02837
0.0269987
0.0314242
0.0298506
0.0348886
0.0330962
0.0388358
0.0367925
0.0434084
0.0410347
0.0487918
0.0459794
0.0552365
0.0518578
0.0628276
0.0588931
0.0671451
0.0576523
0.0617301
0.0506347
0.0539877
0.0447441
0.0476209
0.0399184
0.0422864
0.0357978
0.0378161
0.0322231
0.0339749
0.0290497
0.0306147
0.0262389
0.0276003
0.0237864
0.0249751
0.0227156
0.0213419
0.0212594
0.0210913
0.0212342
0.0767631
0.0799825
0.0813212
0.0691444
0.073929
0.0832337
0.0862553
0.0721769
0.0825209
0.0770621
0.0202168
0.0199769
0.0200597
0.0209014
0.019883
0.0205783
0.0214913
0.081498
0.0231759
0.0220267
0.0255624
0.024347
0.0281717
0.0268253
0.0311244
0.0296002
0.0344717
0.032746
0.0382765
0.0363164
0.0426419
0.0403885
0.0477229
0.045086
0.0537525
0.0506227
0.0607957
0.0571651
0.064807
0.063207
0.067503
0.0556259
0.0592538
0.0492516
0.052332
0.043838
0.0464654
0.0392681
0.0414761
0.0353128
0.0372275
0.0318468
0.0335298
0.0287643
0.0302641
0.0260118
0.0273456
0.0235691
0.0247582
0.0224742
0.0203365
0.0203388
0.0202209
0.0790787
0.0865089
0.0880653
0.0819685
0.0885864
0.0897535
0.093448
0.0190908
0.0189351
0.0192907
0.0191074
0.0212421
0.0202757
0.0207235
0.0197293
0.0845916
0.0904219
0.0968475
0.0197117
0.0882472
0.0229579
0.0218184
0.0253053
0.0241149
0.0278802
0.026566
0.0307351
0.0292644
0.0339487
0.0322952
0.0375766
0.0357083
0.0416958
0.039571
0.0464252
0.0439759
0.0519528
0.0490831
0.0583361
0.0550432
0.0657023
0.0618828
0.0740689
0.0697621
0.0830811
0.0785364
0.0671713
0.0748504
0.0709901
0.0598718
0.0634385
0.0533284
0.0565244
0.0476758
0.0504283
0.0427357
0.0451243
0.0384564
0.0405254
0.0347025
0.0365216
0.0313809
0.0329945
0.0284132
0.029858
0.0257433
0.0270397
0.0233335
0.0244964
0.022249
0.0193378
0.0193852
0.0192359
0.0868756
0.0785501
0.0965036
0.0874808
0.0932965
0.0954689
0.0187784
0.0188979
0.0209447
0.0199975
0.0947968
0.101336
0.0817724
0.0916237
0.104501
0.10271
0.0915456
0.0194092
0.0955159
0.0205425
0.0185821
0.0195475
0.0226887
0.0215964
0.0249882
0.0238099
0.0274936
0.026213
0.03025
0.0288371
0.0333168
0.0317426
0.0367466
0.0349837
0.0405987
0.038617
0.0449539
0.0427081
0.0499214
0.0473575
0.055553
0.0526551
0.0617782
0.0586249
0.0686046
0.0651984
0.0753284
0.0721347
0.0807059
0.0782265
0.0681781
0.0727468
0.0707482
0.0623902
0.0653426
0.0564581
0.0594435
0.0509432
0.0536697
0.0459381
0.0483769
0.0414697
0.0436398
0.0375069
0.0394308
0.033982
0.0356954
0.0308291
0.0323642
0.027989
0.0293742
0.025405
0.0266667
0.0230579
0.0241975
0.0219753
0.0843352
0.0740009
0.095055
0.0822917
0.0186335
0.0191024
0.0180766
0.0178803
0.0183099
0.0182264
0.0183636
0.0183809
0.018158
0.0182881
0.0178479
0.0180159
0.0176556
0.100455
0.10354
0.100876
0.109836
0.09568
0.112272
0.0741851
0.0858211
0.108295
0.0825511
0.0974057
0.0183634
0.0174467
0.10332
0.0203161
0.019327
0.0223903
0.0213406
0.0246255
0.0234859
0.0270433
0.0258092
0.0296859
0.0283349
0.0325931
0.0311047
0.0358074
0.03416
0.0393724
0.0375443
0.0433358
0.0413021
0.0477383
0.0454823
0.0525735
0.0501059
0.0577427
0.0551286
0.0630894
0.0604158
0.0677038
0.0656389
0.0704924
0.0693785
0.0692762
0.0705804
0.0646523
0.0638734
0.0648711
0.0619964
0.0636303
0.0577271
0.0599989
0.0531023
0.0554811
0.0484509
0.050755
0.0440832
0.0462247
0.040081
0.0420365
0.036452
0.038222
0.0331726
0.0347723
0.0302018
0.0316524
0.0274962
0.0288195
0.025021
0.0262311
0.0227459
0.0238561
0.020669
0.0216831
0.0187873
0.0197013
0.0179481
0.0172367
0.0168449
0.017096
0.0173782
0.0173139
0.017411
0.0174207
0.0172548
0.017367
0.0169487
0.0171278
0.0727871
0.06139
0.0813063
0.0663627
0.0165706
0.0167654
0.107783
0.112137
0.106658
0.118623
0.0988545
0.119971
0.0858209
0.113064
0.0570493
0.0693476
0.0980472
0.0614373
0.0779102
0.0468634
0.0504587
0.039948
0.0538267
0.0476233
0.0393717
0.0163552
0.015715
0.0155535
0.111488
0.0181353
0.0172203
0.0200442
0.0190798
0.0220591
0.0210319
0.0242178
0.0231197
0.0265412
0.0253581
0.0290573
0.027774
0.0317949
0.0303974
0.0347828
0.0332567
0.0380468
0.0363796
0.0416064
0.0397899
0.0454531
0.0434972
0.0495155
0.0474658
0.0536347
0.0515806
0.0575384
0.0556435
0.0604001
0.0591762
0.0611769
0.0612034
0.0576022
0.0600134
0.0534577
0.0548273
0.0516692
0.0571828
0.0566078
0.0560712
0.056992
0.0532795
0.0548535
0.0497068
0.0515513
0.0458887
0.0478027
0.0421427
0.0439959
0.0386016
0.0403433
0.0353146
0.0369259
0.0322901
0.0337712
0.0295106
0.0308722
0.0269504
0.0282055
0.0245852
0.0257457
0.0223986
0.0234686
0.0203547
0.021357
0.0184733
0.01939
0.0176107
0.0160951
0.0158201
0.0163634
0.0162686
0.0164826
0.0164287
0.016505
0.0165104
0.0163739
0.0164669
0.0160771
0.0162469
0.0158931
0.114977
0.120975
0.111573
0.127328
0.100436
0.126931
0.0835561
0.116148
0.0632397
0.0963142
0.0306574
0.0411294
0.0709058
0.028056
0.0424497
0.0223867
0.018671
0.0112833
0.0132466
0.0165968
0.00275816
0.0148699
0.0147197
0.0161119
0.0153157
0.119727
0.017876
0.0169743
0.0197379
0.0188019
0.0216905
0.0206943
0.0237713
0.0227157
0.025993
0.024864
0.028375
0.0271633
0.0309362
0.0296328
0.0336921
0.0322897
0.0366512
0.0351466
0.0398078
0.0382067
0.0431187
0.0414495
0.0464685
0.0447997
0.0496477
0.0480958
0.0522948
0.0510704
0.0537584
0.053218
0.0527954
0.053738
0.0478047
0.0509781
0.0362356
0.0430439
0.0276579
0.0381908
0.0313467
0.0468844
0.0433028
0.0504279
0.0492397
0.0505768
0.0507934
0.0489538
0.0499292
0.0463498
0.0477315
0.0433056
0.044857
0.0401512
0.0417285
0.0370598
0.0385915
0.0341144
0.0355665
0.031349
0.0327093
0.0287669
0.0300362
0.0263585
0.0275425
0.02411
0.0252158
0.0220069
0.0230422
0.0200217
0.0209908
0.018167
0.0190736
0.017302
0.0148267
0.0145293
0.0152854
0.0150763
0.0154978
0.0154181
0.0156129
0.0155643
0.0156242
0.0156333
0.0155021
0.0155851
0.0152441
0.0153902
0.0150601
0.121489
0.129643
0.114926
0.135365
0.0996033
0.132085
0.0782155
0.116272
0.0538033
0.0909028
0.0283598
0.0597713
-0.00222595
0.00356331
0.0266798
-0.0142926
-0.00580204
0.0146092
0.127556
0.0158486
0.0142312
0.0150038
0.0175945
0.0167154
0.0194073
0.0184957
0.0212943
0.0203294
0.0232903
0.022277
0.025406
0.0243332
0.0276493
0.0265114
0.03003
0.0288226
0.0325519
0.0312739
0.0352079
0.0338645
0.0379706
0.0365792
0.0407707
0.0393729
0.0434663
0.0421436
0.0458171
0.0447039
0.0474239
0.0467443
0.0476901
0.0477671
0.0455778
0.0470146
0.0395421
0.0431649
0.027621
0.0344247
0.00841493
0.0189413
-0.0192925
-0.00425672
0.0160431
-0.00631002
0.00584179
0.0311401
0.0243853
0.0400508
0.0362594
0.0443876
0.0427025
0.0455571
0.0452589
0.0448854
0.0453924
0.0431125
0.0440966
0.0407553
0.041981
0.0381473
0.0394673
0.0354842
0.0368145
0.0328721
0.0341678
0.0303644
0.0316038
0.0279818
0.0291575
0.0257284
0.0268396
0.0235996
0.0246493
0.0215862
0.0225797
0.0196697
0.0206101
0.0178541
0.018751
0.0161663
0.0169915
0.0154279
0.0141016
0.0135899
0.013868
0.0144624
0.0142995
0.0146571
0.0145811
0.0147658
0.014722
0.0147692
0.0147815
0.0146599
0.0147306
0.0144372
0.0145673
0.0140681
0.014261
0.0137711
0.013865
-0.0182193
-0.0201463
-0.0343263
-0.036395
0.126656
0.137535
0.014431
0.115855
0.141758
0.0137334
0.0128305
0.0126583
0.0954138
0.134389
0.0689419
0.112399
0.0402504
0.0804365
0.0115749
0.0431871
-0.0148856
0.0053167
-0.0355845
-0.0365187
-0.0294736
-0.0569782
-0.0549403
0.134338
0.0155806
0.0147203
0.0172915
0.0164298
0.0190368
0.0181613
0.0208686
0.0199468
0.0227808
0.0218115
0.0247879
0.0237729
0.0268904
0.0258272
0.0290898
0.0279785
0.0313798
0.0302246
0.0337404
0.0325535
0.0361269
0.0349346
0.0384512
0.0373046
0.0405566
0.0395437
0.0421894
0.0414517
0.0429502
0.0427074
0.0422739
0.0428319
0.0393072
0.0411366
0.0326748
0.0365624
0.0209822
0.0276045
0.00309839
0.0128999
-0.0217081
-0.00849183
-0.0516458
-0.0361947
-0.00870232
-0.0339355
-0.0207488
0.0112637
0.00196449
0.0253733
0.0190921
0.0342683
0.0304118
0.0390453
0.0370663
0.0409844
0.040293
0.0410792
0.0412075
0.040013
0.0406545
0.0382634
0.0391983
0.036156
0.0372384
0.0338961
0.0350358
0.0316046
0.0327492
0.0293496
0.03047
0.0271657
0.0282478
0.0250682
0.0261061
0.0230608
0.0240536
0.0211407
0.0220904
0.0192993
0.0202085
0.017533
0.0184148
0.0158652
0.0166781
0.015114
0.0129404
0.0126577
0.0133501
0.0131688
0.0136559
0.0135137
0.0138409
0.0137646
0.0139414
0.0139026
0.0139402
0.0139537
0.0138407
0.0139033
0.0136347
0.0137525
0.0133017
0.0134854
0.0130877
-0.052318
-0.0478698
-0.0745728
-0.0676143
0.129598
0.143785
0.0133542
0.0125106
0.113358
0.145358
0.0868353
0.132355
0.0547832
0.102912
0.0217273
0.0632707
-0.00966136
0.0196301
-0.0366269
-0.0225333
-0.0567885
-0.057584
-0.0621842
-0.0699576
-0.0817572
-0.0551385
-0.0670738
-0.0767411
0.0116684
-0.0945084
-0.0833204
0.139179
0.015256
0.014328
0.0169479
0.0161071
0.0186531
0.0177947
0.0204206
0.019529
0.0222499
0.021327
0.0241465
0.02319
0.0261077
0.0251194
0.0281277
0.0271113
0.0301911
0.0291556
0.0322676
0.0312305
0.0343001
0.0332942
0.0361883
0.0352703
0.0377688
0.0370294
0.0387883
0.0383676
0.0388681
0.0389718
0.0374887
0.0383959
0.0339253
0.0360309
0.0271186
0.0309915
0.0159842
0.0221451
-0.000418382
0.00848943
-0.022151
-0.0106651
-0.0474905
-0.0345525
-0.0732057
-0.0605072
-0.0315894
-0.0432747
-0.00997103
-0.020346
0.00774383
-0.000563927
0.0206903
0.0147696
0.0293234
0.0255211
0.0343602
0.0322034
0.0368481
0.0358645
0.0375527
0.0373757
0.0370771
0.0374286
0.035857
0.0365361
0.0342014
0.0350677
0.0323155
0.0332772
0.0303281
0.0313284
0.0283174
0.0293222
0.0263288
0.0273187
0.0243861
0.025351
0.0225008
0.0234362
0.020676
0.021581
0.0189138
0.0197865
0.0172114
0.0180564
0.0155645
0.0163751
0.0140923
0.0147859
0.0134384
0.012251
0.0119976
0.0126058
0.012441
0.0128719
0.0127457
0.013048
0.0129727
0.0131402
0.0131057
0.013136
0.0131501
0.0130384
0.0130996
0.0128381
0.0129516
0.0125185
0.0126998
0.01198
0.0122958
0.0117313
0.0117564
0.129267
0.147278
-0.0848621
-0.0983253
0.0117315
0.0111034
0.0111098
-0.0640638
-0.0732196
0.106306
0.144504
0.072776
0.124049
0.0347233
0.0857053
-0.00245628
0.0376309
-0.0353309
-0.0122896
-0.0611882
-0.0570678
-0.0783845
-0.089548
-0.0787345
-0.0678626
-0.0762841
-0.0894091
-0.087909
-0.107833
-0.0911447
0.010783
0.0124332
0.010546
0.140948
0.0131502
0.0123728
0.0148883
0.0140022
0.0165897
0.0157457
0.0182533
0.0174171
0.0199569
0.0190998
0.0217028
0.0208247
0.0234892
0.0225911
0.0253107
0.0243962
0.027155
0.0262312
0.0289997
0.0280793
0.0308063
0.029911
0.0325092
0.0316758
0.0340018
0.0332899
0.0351199
0.0346197
0.0356197
0.0354646
0.0351526
0.0355304
0.0332542
0.0344124
0.0293071
0.0315781
0.0225107
0.0263089
0.0120783
0.017785
-0.00267404
0.00525857
-0.0216225
-0.0117143
-0.042977
-0.0321997
-0.0537416
-0.0486786
-0.058513
-0.0289679
-0.0387528
-0.0104916
-0.0194562
0.00510916
-0.00226759
0.0168854
0.011425
0.0251077
0.0214079
0.0302666
0.0280111
0.0331251
0.0319347
0.0343039
0.0338845
0.0343162
0.0344252
0.0335533
0.0340093
0.0323012
0.0329729
0.0307585
0.0315559
0.0290565
0.0299209
0.0272796
0.0281734
0.0254804
0.0263805
0.0236899
0.0245829
0.0219261
0.0228041
0.0201981
0.0210573
0.0185119
0.0193499
0.016868
0.017685
0.015272
0.016059
0.01377
0.0145054
0.0130845
0.0110235
0.0107248
0.011537
0.0113013
0.0118673
0.0117119
0.0121111
0.0119954
0.0122773
0.0122053
0.012362
0.0123309
0.0123551
0.01237
0.0122568
0.012318
0.0120591
0.0121712
0.0117315
0.0119143
0.0112801
0.0115141
0.0110336
-0.114238
0.0104304
-0.0951227
-0.0810184
0.124464
0.146212
0.0934795
0.137165
0.0521728
0.107057
-0.111913
0.00796543
0.0583608
-0.032401
0.00140367
-0.0648939
-0.0537781
-0.0833585
-0.0703421
-0.0742037
-0.0885424
-0.0877199
-0.0977611
-0.0984957
-0.10078
-0.124215
-0.104588
-0.105716
-0.134221
0.00978153
0.00994035
0.0097983
-0.103729
-0.0874686
0.00950345
0.13852
0.0116046
0.0102112
0.010923
0.012983
0.0122813
0.0145627
0.0137515
0.0162096
0.0153876
0.0178418
0.0170257
0.0194837
0.0186605
0.0211453
0.020312
0.0228232
0.0219826
0.0245078
0.0236655
0.026182
0.0253477
0.0278179
0.027007
0.0293708
0.0286081
0.0307702
0.0300949
0.0319077
0.0313795
0.0326234
0.0323296
0.0326884
0.032753
0.0317883
0.0323794
0.0295163
0.0308493
0.0253559
0.0277043
0.0187038
0.0223717
0.00901382
0.0142609
-0.00413276
0.00287836
-0.0204999
-0.0119957
-0.0385089
-0.0294581
-0.0557574
-0.047461
-0.0690906
-0.0631145
-0.092088
-0.0770883
-0.0738658
-0.0584463
-0.0649979
-0.042787
-0.0508761
-0.0263225
-0.0345473
-0.0105825
-0.0182528
0.00310294
-0.00340768
0.0137893
0.00878562
0.0215264
0.0179954
0.026685
0.0243899
0.0297837
0.0284519
0.0313244
0.0307154
0.0317361
0.0316442
0.0313643
0.0316278
0.0304694
0.0309676
0.0292388
0.0298859
0.0278021
0.0285394
0.0262465
0.0270347
0.0246293
0.0254429
0.022987
0.0238096
0.0213426
0.0221641
0.0197103
0.0205243
0.018099
0.0189019
0.0165145
0.0173035
0.0149692
0.0157358
0.0134611
0.0142006
0.0120861
0.0127465
0.0114575
0.010356
0.0100997
0.0108216
0.0106038
0.0111374
0.0109881
0.0113706
0.0112605
0.011528
0.0114598
0.0116059
0.0115776
0.0115967
0.0116123
0.0114985
0.0115592
0.0113036
0.0114141
0.0109915
0.0111624
0.0106346
0.0108078
0.0102941
0.0104541
0.0100771
0.113761
0.138903
-0.0780056
-0.0644286
-0.0644335
0.0737058
0.120795
-0.13287
0.0242282
0.0786631
-0.0255782
0.0183015
-0.123663
-0.0762172
-0.0629342
-0.0619272
-0.0758923
-0.0674287
-0.047194
-0.0916574
-0.0973361
-0.104331
-0.0942575
-0.110238
-0.105606
-0.115181
-0.142919
-0.116458
-0.122846
-0.159681
-0.122585
0.00996109
0.00951989
0.00926946
0.00916113
0.0104144
0.00935243
0.00885299
0.130049
0.0113452
0.0106504
0.0127531
0.0120465
0.0142779
0.0134959
0.0158478
0.01506
0.0174267
0.0166373
0.0190052
0.0182159
0.0205835
0.0197945
0.0221553
0.0213708
0.0237072
0.0229348
0.0252183
0.0244696
0.0266565
0.0259489
0.0279731
0.0273335
0.0290953
0.0285637
0.0299166
0.029551
0.0302852
0.0301679
0.0299909
0.030235
0.0287547
0.0295081
0.0262269
0.0276735
0.0219852
0.0243444
0.0155808
0.0190739
0.00665084
0.0114426
-0.00499589
0.0011611
-0.0190582
-0.011787
-0.0341352
-0.0266316
-0.048305
-0.0415507
-0.0588875
-0.0541526
-0.0624506
-0.0593462
-0.0620423
-0.0501504
-0.0553097
-0.0374932
-0.0441174
-0.0237759
-0.0306575
-0.0104006
-0.0169889
0.00157157
-0.00415902
0.0112451
0.00668448
0.0184857
0.0151456
0.0235526
0.0212649
0.0267935
0.0253701
0.0286028
0.0278491
0.0293376
0.0290809
0.0292974
0.029396
0.028716
0.0290607
0.027767
0.0282776
0.0265751
0.0271946
0.0252273
0.025916
0.0237835
0.0245143
0.022284
0.0230387
0.0207559
0.0215223
0.019217
0.0199869
0.0176798
0.0184477
0.0161546
0.0169154
0.0146528
0.0153978
0.0131636
0.0138982
0.0117402
0.0124493
0.0110682
0.00922778
0.00883378
0.00902044
0.00969088
0.00946623
0.0101176
0.00991801
0.0104218
0.0102781
0.0106486
0.0105421
0.0107986
0.0107339
0.0108711
0.0108451
0.0108605
0.0108763
0.0107643
0.0108234
0.0105793
0.0106831
0.0103047
0.0104517
0.0100163
0.010153
0.00969064
0.00987616
0.0094619
-0.0769639
-0.0623696
0.0957442
0.122966
-0.159607
0.0460758
0.0926696
-0.0590989
-0.0472322
-0.0424365
-0.0545679
-0.0111658
0.0362143
-0.14934
-0.0732652
-0.0651111
-0.0365093
-0.0923997
-0.106261
-0.108266
-0.0944294
-0.132604
-0.110221
-0.131299
-0.162178
-0.114195
-0.126025
-0.142582
-0.189904
-0.137788
-0.143833
0.00858436
0.00862462
-0.0740667
-0.0587669
0.113794
0.00969091
0.00838789
0.00903971
0.0110589
0.0103626
0.0124801
0.0117624
0.0139679
0.0132111
0.0154886
0.0147267
0.0170124
0.0162512
0.0185265
0.0177711
0.0200232
0.0192774
0.0214919
0.0207618
0.0229165
0.022211
0.0242726
0.0236049
0.025525
0.0249143
0.0266231
0.0260969
0.0274939
0.0270919
0.0280351
0.0278126
0.028106
0.0281387
0.0275169
0.0279061
0.0260242
0.0268983
0.0233317
0.0248452
0.0191018
0.0214265
0.0130087
0.0163011
0.00482873
0.0091823
-0.00546198
-6.79765e-05
-0.0174961
-0.0113106
-0.0301457
-0.0238617
-0.0416002
-0.0361377
-0.049979
-0.0463055
-0.0535949
-0.0525712
-0.0504451
-0.0529318
-0.0538569
-0.0405432
-0.0464332
-0.0519219
-0.0505115
-0.0498534
-0.0516039
-0.0428841
-0.046898
-0.0328342
-0.0381288
-0.0214552
-0.0272167
-0.0100232
-0.0157182
0.000427385
-0.00461168
0.00916772
0.00502698
0.0159128
0.012776
0.0208189
0.0185765
0.0241236
0.0226481
0.0261249
0.0252639
0.027117
0.0267269
0.0273559
0.0273143
0.0270481
0.0272578
0.0263518
0.0267392
0.0253841
0.0258951
0.0242301
0.0248255
0.0229502
0.0236025
0.0215874
0.0222769
0.0201713
0.0208844
0.018723
0.0194499
0.0172579
0.0179915
0.0157894
0.0165233
0.0143208
0.0150538
0.0128703
0.0135959
0.0114626
0.0121585
0.0100361
0.0107574
0.00928712
0.0086329
0.00840931
0.00904793
0.00885018
0.00943187
0.00925406
0.00972477
0.00958694
0.00994477
0.00984233
0.0100884
0.0100264
0.0101565
0.0101322
0.0101454
0.0101609
0.0100536
0.0101098
0.0098826
0.00997753
0.00964227
0.00976974
0.00937702
0.00950806
0.00903137
0.00923397
0.00851396
0.00878962
0.00791056
0.0082108
-0.193528
0.0691722
0.0959989
0.0076624
0.00757553
-0.0368416
-0.0487483
0.0102992
0.050314
-0.0334289
-0.0467468
-0.181813
-0.0688372
-0.0532834
-0.022149
-0.0696606
-0.0907562
-0.109273
-0.106229
-0.092591
-0.162266
-0.112276
-0.147254
-0.179917
-0.11579
-0.132552
-0.165417
-0.224039
-0.138769
-0.150503
-0.168812
-0.235412
-0.162999
-0.0250272
-0.0143607
-0.0080227
-0.0303
-0.0215579
0.0878602
0.00815893
0.00675937
0.00752596
0.00940458
0.00876749
0.0107634
0.0100682
0.012189
0.0114731
0.013649
0.0129122
0.0151285
0.0143884
0.016601
0.0158662
0.018052
0.0173299
0.0194694
0.0187655
0.0208393
0.0201612
0.0221424
0.0215005
0.0233522
0.0227609
0.0244315
0.0239107
0.0253287
0.0249063
0.0259727
0.025687
0.0262672
0.0261699
0.0260839
0.0262436
0.025255
0.0257606
0.0235711
0.0245323
0.0207851
0.0223295
0.0166324
0.0188919
0.0108857
0.0139653
0.00342808
0.00736767
-0.00565422
-0.000930447
-0.0159352
-0.0106905
-0.0264767
-0.0212589
-0.0356451
-0.0313701
-0.0422161
-0.0393876
-0.0443291
-0.0439483
-0.0404022
-0.043084
-0.0304605
-0.0363161
-0.0227377
-0.0267155
-0.0130908
-0.0207483
-0.0371989
-0.0323132
-0.0424575
-0.0407273
-0.0417401
-0.0428415
-0.0365838
-0.0396511
-0.0287672
-0.0330157
-0.0192967
-0.0241881
-0.00952655
-0.0144141
-0.000370084
-0.00481885
0.00747149
0.00373197
0.0137262
0.0107945
0.0184311
0.0162588
0.0217408
0.0202432
0.0238736
0.0229352
0.0250681
0.0245709
0.0255404
0.0253802
0.0254703
0.0255618
0.0249994
0.0252763
0.0242362
0.0246478
0.0232618
0.0237705
0.022136
0.0227143
0.0209028
0.0215304
0.0195938
0.020256
0.0182325
0.0189182
0.0168366
0.0175377
0.01542
0.0161301
0.0139958
0.0147068
0.0125786
0.0132852
0.0111713
0.0118696
0.0097833
0.0104685
0.0084004
0.00909515
0.00801227
0.00777423
0.00842291
0.00823561
0.008771
0.00860669
0.00904771
0.00891635
0.00925902
0.00916131
0.00939652
0.00933714
0.00946118
0.00943825
0.0094504
0.00946517
0.00936396
0.0094166
0.00920574
0.00929322
0.00898482
0.00910243
0.00871833
0.00885587
0.008355
0.00856251
0.00786577
0.00812046
0.00727009
0.00757321
0.00697799
-0.0414325
0.0336105
0.0560293
-0.0167094
-0.00838318
-6.74209e-06
0.00647403
0.00595757
-0.0370153
-0.223304
-0.0626841
-0.0332687
-0.00775846
-0.0624045
-0.0864842
-0.100822
-0.096247
-0.0883907
-0.199513
-0.111391
-0.156364
-0.188595
-0.114914
-0.13599
-0.188655
-0.257515
-0.170718
-0.141832
-0.159722
-0.198337
-0.285242
-0.179526
-0.192993
-0.00205187
-0.0204455
-0.0324035
0.0503953
0.00776154
0.00714383
0.00910512
0.00842589
0.0104706
0.00977945
0.0118881
0.0111736
0.0133277
0.0126059
0.01477
0.0140497
0.0161945
0.0154854
0.0175855
0.0168953
0.018927
0.0182632
0.0202026
0.019574
0.0213909
0.020809
0.0224634
0.0219435
0.023382
0.0229444
0.0240954
0.0237676
0.0245357
0.024354
0.0246139
0.0246257
0.0242149
0.0244812
0.0231925
0.0237903
0.0213699
0.0223913
0.0185441
0.0200929
0.0145122
0.0166871
0.00912457
0.0119902
0.0023477
0.00590243
-0.00566012
-0.001525
-0.014445
-0.00999907
-0.0231696
-0.0188829
-0.0305761
-0.0271219
-0.0353879
-0.0334162
-0.0362781
-0.0364653
-0.0317784
-0.0346858
-0.0220775
-0.0276353
-0.00793408
-0.0151477
-0.0127802
0.000172056
0.00747778
-0.000799011
-0.019032
-0.00519314
-0.0131053
-0.0286498
-0.0241141
-0.034405
-0.0321387
-0.034907
-0.0353193
-0.0313346
-0.0335019
-0.0251528
-0.0285226
-0.0172967
-0.0213542
-0.00895125
-0.0131317
-0.000961582
-0.00486864
0.0060677
0.00269299
0.0118519
0.00911882
0.0163386
0.0142495
0.0196123
0.0181145
0.0218301
0.0208379
0.0231823
0.0225998
0.0238491
0.0235889
0.0239849
0.0239733
0.0237148
0.0238926
0.0231373
0.0234582
0.0223285
0.022757
0.0213466
0.0218557
0.0202356
0.0208047
0.0190284
0.019642
0.0177499
0.0183964
0.0164196
0.0170899
0.0150537
0.0157402
0.0136673
0.0143621
0.0122719
0.01297
0.010885
0.0115757
0.00952627
0.0101955
0.00812814
0.00884719
0.00692772
0.0066631
0.00738212
0.0071468
0.00779429
0.00760517
0.00812375
0.00796718
0.00838947
0.00826354
0.00859139
0.00849849
0.00872284
0.00866593
0.00878444
0.00876264
0.00877429
0.00878823
0.00869284
0.00874239
0.00854307
0.0086261
0.00832893
0.00844392
0.00805482
0.00819895
0.00768139
0.00788774
0.00721382
0.00746081
0.00666214
0.00694137
0.00634032
-0.0242364
-0.275966
-0.0553174
-0.011409
0.00257305
0.00568681
0.00509129
-0.0507258
-0.0799417
-0.0833939
-0.0814505
0.00469861
0.0130518
0.0189857
-0.0801502
0.00448172
-0.00369953
-0.247145
-0.107778
-0.152085
-0.18299
-0.110798
-0.136152
-0.20445
-0.277854
-0.211293
-0.142063
-0.164851
-0.2288
-0.334543
-0.174907
-0.192291
-0.228749
-0.340316
-0.0196142
-0.00499664
-0.214273
0.00845519
-0.0330153
-0.0463193
0.00145446
0.00740529
0.0066072
0.00879304
0.00811247
0.0101732
0.00947949
0.011582
0.0108742
0.0130049
0.0122938
0.014416
0.0137131
0.0157967
0.0151112
0.0171308
0.0164709
0.0184004
0.0177746
0.0195869
0.0190051
0.0206671
0.0201417
0.0216114
0.0211581
0.0223815
0.0220206
0.0229274
0.0226855
0.0231853
0.0230962
0.0230742
0.0231808
0.0224924
0.0228482
0.0213148
0.0219852
0.0193941
0.0204554
0.0165671
0.0181019
0.0126812
0.0147616
0.00764732
0.0103065
0.00149655
0.00470099
-0.00556333
-0.00194307
-0.0130776
-0.00930443
-0.020282
-0.0167763
-0.026168
-0.0234518
-0.0296479
-0.0282759
-0.0294567
-0.0301183
-0.02476
-0.0277502
-0.0154058
-0.0206841
-0.00253
-0.00914739
0.0130437
0.00432286
0.0167872
0.0113034
0.0212292
0.00113575
0.0106013
-0.0123818
-0.00647405
-0.021619
-0.0173485
-0.0276821
-0.0252152
-0.0290799
-0.0289226
-0.0267791
-0.0282931
-0.0219529
-0.0246222
-0.0155011
-0.0188621
-0.0084026
-0.0119786
-0.00142354
-0.0048602
0.00489163
0.00183854
0.0102365
0.0076926
0.0144996
0.0124999
0.0177097
0.0162271
0.0199768
0.0189489
0.0214504
0.0208006
0.0222789
0.0219345
0.0225928
0.0224912
0.0225011
0.0225904
0.0220917
0.0223303
0.0214352
0.0217897
0.0205872
0.0210316
0.0195907
0.0201048
0.0184793
0.0190472
0.0172791
0.0178885
0.0160109
0.016652
0.0146926
0.015357
0.0133397
0.0140196
0.0119662
0.0126543
0.0105909
0.011278
0.00922598
0.00990166
0.00778594
0.00853742
0.00623266
0.00698997
0.00624449
0.00570779
0.00593938
0.00674671
0.00649656
0.00716178
0.00696914
0.0074892
0.00733474
0.00774787
0.00762607
0.00794112
0.0078526
0.00806676
0.00801233
0.0081253
0.00810462
0.00811548
0.00812882
0.00803772
0.00808502
0.00789296
0.00797357
0.00768074
0.00779546
0.00740019
0.00754878
0.00703102
0.00723053
0.006561
0.00680833
0.00602455
0.0063063
0.00522863
0.00565085
0.00494775
-0.0357142
-0.0718623
-0.0649163
-0.067016
0.00540357
0.0236195
0.00552447
-0.0669463
-0.0141265
-0.0308589
0.0209548
0.0143643
-0.308721
-0.101718
-0.138266
-0.166651
-0.101717
-0.133145
-0.205099
-0.277008
-0.263356
0.00169382
-0.138135
-0.165995
-0.251142
-0.366099
-0.175231
-0.200105
-0.265929
-0.403213
-0.216423
-0.231471
-0.255374
0.0275714
-0.0480962
-0.0152348
-0.0285377
0.022861
-0.0620886
-0.0588275
0.00697687
0.0061659
0.00845763
0.00774142
0.00986058
0.00915777
0.0112748
0.0105679
0.0126845
0.0119817
0.0140691
0.0133812
0.01541
0.0147462
0.0166911
0.0160585
0.0178937
0.0173034
0.0189967
0.0184587
0.0199759
0.0195031
0.0208012
0.0204095
0.0214345
0.0211441
0.0218282
0.021664
0.0219229
0.0219163
0.0216459
0.021835
0.0209089
0.0213399
0.0196067
0.0203342
0.0176189
0.0187047
0.0148167
0.0163254
0.0110884
0.0130709
0.00639175
0.00885725
0.000807536
0.00369766
-0.00542144
-0.00224968
-0.0118532
-0.008649
-0.0178007
-0.014937
-0.0224129
-0.0203252
-0.0247615
-0.0239253
-0.0238592
-0.024766
-0.0190181
-0.0219563
-0.00996542
-0.0150038
0.00184429
-0.00431488
0.0171392
0.00882841
0.0346997
0.0369656
0.0266966
0.0317777
0.0296946
0.0256787
0.0247174
0.0353486
0.0327864
0.00633854
0.0149982
-0.00688317
-0.000938433
-0.0160271
-0.0118111
-0.0220566
-0.0194845
-0.0241613
-0.0235815
-0.0228824
-0.0238689
-0.0191972
-0.0212809
-0.0139326
-0.0167064
-0.00789981
-0.0109633
-0.0017886
-0.0048188
0.00389613
0.00112915
0.00883528
0.006469
0.0128767
0.0109684
0.0160058
0.0145488
0.0182959
0.017246
0.0198623
0.0191594
0.0208253
0.0204101
0.0212937
0.0211135
0.0213604
0.0213707
0.0211032
0.0212668
0.0205863
0.0208728
0.0198621
0.0202467
0.0189725
0.0194352
0.0179508
0.0184759
0.0168239
0.0173986
0.0156138
0.0162277
0.0143393
0.0149835
0.0130166
0.013683
0.0116619
0.0123422
0.0102891
0.0109773
0.00889776
0.00959415
0.00747462
0.00820542
0.00600851
0.00672896
0.0053008
0.00509681
0.00460965
0.00487042
0.00558312
0.00532551
0.00612148
0.00585844
0.00654194
0.00634765
0.00686913
0.00671549
0.00712208
0.0070038
0.00730762
0.00722291
0.00742754
0.00737567
0.00748287
0.00746339
0.00747311
0.00748602
0.00739825
0.0074438
0.00725756
0.00733613
0.00704844
0.00716183
0.00676895
0.00691714
0.00640567
0.00660123
0.00593735
0.00618424
0.00537317
0.00566913
0.00463806
0.00499958
0.00405652
0.00434618
-0.0497535
0.00596773
-0.0450015
-0.0172107
-0.00481249
-0.383513
-0.0663517
-0.093507
-0.124863
-0.144273
-0.0869665
-0.127703
-0.195854
-0.258086
0.0464165
0.0477606
-0.330579
0.0184243
0.0417336
0.0387699
0.0276371
0.0374484
0.0039654
0.00431034
0.00365203
0.00372113
0.00345717
0.00307405
-0.128532
-0.163913
-0.256814
-0.369036
-0.0456797
-0.026448
-0.171196
-0.202742
-0.294101
-0.443952
-0.270435
-0.216319
-0.0663815
-0.0339809
-0.242296
-0.298513
-0.456143
-0.276779
-0.0821245
-0.126699
0.00510657
0.00439868
0.00659404
0.0058345
0.00810271
0.00736092
0.00954389
0.00882599
0.0109686
0.0102588
0.0123701
0.0116732
0.0137326
0.0130573
0.0150385
0.0143937
0.0162705
0.0156646
0.0174107
0.0168532
0.0184361
0.0179389
0.0193214
0.0188976
0.0200367
0.019702
0.0205447
0.0203187
0.0208001
0.0207064
0.0207487
0.0208156
0.020326
0.0205871
0.0194564
0.019951
0.0180532
0.0188259
0.01602
0.0171199
0.0132577
0.014734
0.00968776
0.0115744
0.0053034
0.00759152
0.000223765
0.00283573
-0.0052823
-0.00249905
-0.0107902
-0.00806911
-0.0156936
-0.0133594
-0.0192586
-0.0176882
-0.0206838
-0.0202845
-0.0191946
-0.0203365
-0.0142029
-0.0171586
-0.00557946
-0.0102953
0.00576296
-0.000214651
0.0205065
0.0126451
0.0387763
0.0292558
0.0444646
0.037201
0.0278919
0.0328342
0.0430348
0.0404688
0.0464303
0.0447703
0.0105088
0.0185588
-0.0022705
0.00356994
-0.0113948
-0.00721568
-0.0174218
-0.0148012
-0.0200418
-0.0191464
-0.0195917
-0.0201422
-0.0168609
-0.0184567
-0.0125869
-0.0148686
-0.0074617
-0.0100874
-0.00209911
-0.00477729
0.00303136
0.000517321
0.00760347
0.00539961
0.0114336
0.00961411
0.0144742
0.0130483
0.0167697
0.0157074
0.0184075
0.0176624
0.0194834
0.0190079
0.0200861
0.019837
0.0202939
0.0202335
0.0201744
0.02027
0.0197853
0.0200093
0.0191754
0.0195045
0.018385
0.0188
0.0174468
0.017932
0.016388
0.0169304
0.0152317
0.0158204
0.0139971
0.014623
0.0127015
0.0133557
0.0113609
0.0120359
0.00998632
0.0106774
0.0085897
0.00928665
0.00717548
0.0078817
0.00573078
0.00645267
0.00500765
0.0045337
0.0042626
0.0050106
0.00477991
0.00552699
0.00526853
0.00594355
0.00575114
0.00626566
0.00611472
0.00651161
0.00639711
0.00668981
0.00660863
0.00680408
0.00675475
0.00685621
0.00683792
0.00684638
0.00685893
0.00677421
0.00681811
0.00663815
0.00671421
0.00643498
0.00654523
0.00616178
0.00630689
0.00580725
0.00599748
0.0053465
0.00559127
0.00477216
0.0050723
0.00411202
0.00443432
0.00380068
-0.0668721
0.0211718
-0.0901011
-0.119686
-0.188017
-0.227177
0.0487586
-0.410102
0.0360035
0.0476037
0.00398717