/*--------------------------------*- C++ -*----------------------------------*\
  =========                 |
  \\      /  F ield         | OpenFOAM: The Open Source CFD Toolbox
   \\    /   O peration     | Website:  https://openfoam.org
    \\  /    A nd           | Version:  10
     \\/     M anipulation  |
\*---------------------------------------------------------------------------*/
FoamFile
{
    format      ascii;
    class       volScalarField;
    location    "35.5";
    object      p;
}
// * * * * * * * * * * * * * * * * * * * * * * * * * * * * * * * * * * * * * //

dimensions      [0 2 -2 0 0 0 0];

internalField   nonuniform List<scalar> 
6397
(
0.300402
0.289798
0.00952069
0.00866932
-0.00375989
-0.00153605
0.527839
0.313982
-0.369291
-0.349412
0.222659
0.105916
-0.000895588
-0.00114978
-0.00724691
-0.623015
-0.616337
-0.588014
0.834047
0.794046
0.749358
-0.359804
-0.311859
-0.292439
-0.000693103
-0.00153322
-0.000254731
-0.0729219
-0.0767679
-0.0677395
-0.0694926
0.0148071
0.0159456
0.00761044
0.0251589
0.0257016
0.0210006
0.0219238
0.0303117
0.0300137
0.0281197
0.0287718
-0.0679486
-0.0247804
-0.023087
-0.000247739
-0.0141265
-0.0117071
0.0289491
0.0295984
0.0286917
0.0302917
0.030214
0.284304
0.262741
0.226501
0.237697
0.078946
-0.171993
-0.153492
-0.181193
-0.177557
-0.161375
-0.137692
-0.112458
-0.0919042
-0.0780021
-0.0704151
-0.13756
-0.131793
-0.120182
-0.15106
-0.156416
-0.15128
-0.137004
-0.116851
-0.096806
-0.0807648
-0.0710481
-0.0667926
-0.103476
-0.111419
-0.0681317
-0.0675584
-0.0898811
-0.0951599
-0.0709635
-0.0732632
-0.0803212
-0.0837756
-0.0796636
-0.0848838
-0.0744775
-0.0717025
-0.0942811
-0.102938
-0.0722805
-0.0667816
-0.067982
-0.0906926
-0.0800234
-0.115896
-0.103406
-0.12795
-0.125096
-0.110654
-0.123063
-0.0789412
-0.0945101
-0.0611888
-0.0674546
-0.0621162
-0.0594832
-0.0831606
-0.0697376
-0.103423
-0.0638002
-0.0794982
-0.068492
-0.0702507
-0.0644163
-0.0995246
-0.0814027
-0.154145
-0.125022
-0.198076
-0.181571
-0.187203
-0.200548
-0.138188
-0.164137
-0.095686
-0.114286
-0.0741371
-0.0822851
-0.0717459
-0.0717463
-0.0682757
-0.130924
-0.127116
-0.0606173
-0.0955801
-0.0718947
-0.16419
-0.124843
-0.160127
-0.0598649
-0.0589856
-0.0620205
-0.0590797
-0.114822
-0.0607551
-0.0584625
-0.0733558
-0.0657779
-0.0916406
-0.0827235
-0.0992403
-0.0980253
-0.0846576
-0.0946771
-0.0606151
-0.0722891
-0.0487088
-0.052552
-0.0526398
-0.0487969
-0.0751068
-0.0610357
-0.096124
-0.052832
-0.0538886
-0.0663239
-0.0571497
-0.102638
-0.0809911
-0.1631
-0.130947
-0.208418
-0.191032
-0.192502
-0.208142
-0.138392
-0.167121
-0.0923264
-0.112882
-0.0677889
-0.0775237
-0.0624876
-0.0744235
-0.0731548
-0.0687991
-0.0730543
-0.0846167
-0.113909
-0.156351
-0.109547
-0.143733
-0.197295
-0.198308
-0.0539058
-0.0947952
-0.0599443
-0.0704721
-0.0603029
-0.0798063
-0.0622517
-0.0743483
-0.0478783
-0.0492438
-0.138862
-0.0492913
-0.054333
-0.047016
-0.0467515
-0.0549643
-0.049653
-0.0677314
-0.0615577
-0.0726215
-0.0723866
-0.0601292
-0.0685698
-0.0419838
-0.0506254
-0.0350055
-0.0368582
-0.0405892
-0.0364419
-0.0622122
-0.0489172
-0.0823359
-0.0391322
-0.0457703
-0.0392284
-0.036606
-0.058099
-0.0466151
-0.0984211
-0.0751459
-0.16116
-0.128145
-0.207325
-0.190152
-0.189363
-0.206346
-0.132687
-0.162242
-0.0848027
-0.106088
-0.0591221
-0.0695937
-0.0526637
-0.0810679
-0.0775014
-0.0820094
-0.181038
-0.12994
-0.185469
-0.0604013
-0.0992623
-0.226961
-0.223717
-0.0947315
-0.0902647
-0.0759643
-0.0641293
-0.0376747
-0.0354248
-0.0535058
-0.0659169
-0.212456
-0.227129
-0.238666
-0.0479408
-0.161547
-0.0382191
-0.0446275
-0.0326574
-0.0342273
-0.0365639
-0.0337704
-0.0452467
-0.040889
-0.047815
-0.0479791
-0.0375568
-0.0440219
-0.0248112
-0.0304668
-0.0214072
-0.0218627
-0.0273512
-0.0232178
-0.0465359
-0.0348415
-0.0871444
-0.0637122
-0.151062
-0.117045
-0.198964
-0.181694
-0.0238501
-0.0264579
-0.0270921
-0.0167106
-0.0193438
-0.0232066
-0.0179306
-0.0455208
-0.0327041
-0.086528
-0.0630712
-0.149428
-0.116408
-0.195251
-0.178526
-0.176033
-0.193562
-0.119738
-0.148781
-0.0735532
-0.0939438
-0.0480529
-0.0583127
-0.0415402
-0.0920548
-0.0852964
-0.0952742
-0.055156
-0.0213379
-0.216455
-0.193726
-0.138009
-0.205633
-0.0815974
-0.050222
-0.0255452
-0.0233084
-0.0940707
-0.230406
-0.0134154
-0.044616
-0.224347
-0.18141
-0.16032
-0.0349721
-0.175816
-0.0425565
-0.0701528
-0.0548494
-0.0261639
-0.0331452
-0.018872
-0.0214628
-0.0197026
-0.0184389
-0.0249019
-0.0221929
-0.0258037
-0.0264725
-0.0177321
-0.022562
-0.00950886
-0.0128857
-0.00860302
-0.00819544
-0.0141865
-0.0105165
-0.0299833
-0.0204578
-0.0615418
-0.0436088
-0.112818
-0.0855224
-0.155959
-0.140101
-0.126161
-0.150859
0.00343204
0.0116782
0.00722947
0.00306563
0.00213092
0.00456456
0.00450617
-0.006036
0.000930104
-0.0291679
-0.0161547
-0.0688302
-0.0462903
-0.129052
-0.0974841
-0.172416
-0.15672
-0.153553
-0.170404
-0.101302
-0.128009
-0.0591536
-0.0778607
-0.0359217
-0.0454712
-0.0296091
-0.00698995
0.0137017
-0.112214
-0.0825124
-0.0363717
-0.022326
-0.0555237
-0.0401471
-0.0855155
-0.0710062
-0.106884
-0.0976533
-0.112919
-0.112123
-0.100125
-0.108948
-0.087467
-0.134708
-0.208193
-0.0804216
-0.214097
-0.033234
-0.187554
0.0124254
-0.00453612
-0.132936
-0.0327463
-0.0616835
-0.0562698
-0.0720846
-0.17454
-0.0299639
-0.0421033
-0.0137244
-0.0208616
-0.00597775
-0.00917896
-0.00459489
-0.00457229
-0.00719495
-0.00576471
-0.00699042
-0.00784909
-0.0010991
-0.0044254
0.003423
0.00180478
0.0028578
0.00365493
-0.00199263
0.00108677
-0.014184
-0.00697024
-0.0370836
-0.0240944
-0.0738347
-0.0539016
-0.106787
-0.0940712
-0.0869627
-0.105484
-0.00684103
-0.0511005
0.0300443
0.0250279
0.0285265
0.02722
0.0292047
0.0252382
0.0255037
0.0226164
0.0245765
0.0106811
0.0180032
-0.0113841
0.000843241
-0.0473613
-0.0270501
-0.101612
-0.0730909
-0.141406
-0.126859
-0.124422
-0.139518
-0.0791011
-0.102069
-0.0435301
-0.0592707
-0.0233151
-0.0318281
-0.0140969
-0.0177504
-0.0104029
-0.0116042
-0.0104624
-0.0630675
-0.0286936
-0.045733
-0.0971276
-0.0803759
-0.123395
-0.11181
-0.132346
-0.130345
-0.119416
-0.128542
0.00874937
0.0201717
0.0134496
0.0370211
-0.0873277
-0.105265
-0.119042
-0.190333
-0.0638559
-0.178576
-0.0259202
-0.141085
-0.00606657
-0.0855745
0.0136147
0.00281004
-0.0188922
0.0738646
0.0507369
0.0220653
0.00443473
0.0132725
0.103134
0.0837816
0.10893
-0.0672227
-0.101772
-0.0790215
-0.157086
-0.0406442
-0.0547573
-0.0169827
-0.0280027
-0.00224088
-0.00872391
0.00564867
0.0023322
0.0082564
0.00754529
0.00742012
0.00796682
0.00830483
0.00743033
0.0121471
0.0101493
0.0140018
0.013545
0.0127571
0.0136545
0.00876217
0.0112287
-0.000126238
0.00501239
-0.0154503
-0.00687326
-0.0383219
-0.0261154
-0.0582437
-0.0502215
-0.0458752
-0.0584653
0.0166034
-0.0183955
0.0526957
0.0342932
0.028924
0.0423097
0.0387198
0.0446377
0.0441645
0.0423835
0.0436772
0.0376628
0.0405676
0.0259279
0.0328098
0.00643276
0.0170821
-0.0236066
-0.00674897
-0.0700472
-0.045314
-0.105953
-0.0925079
-0.0918727
-0.104346
-0.0555844
-0.0738037
-0.0275644
-0.0400027
-0.0114597
-0.0182536
-0.0034398
-0.00679738
8.48933e-05
-0.00121659
0.000491477
-0.0338707
-0.0179024
-0.0694648
-0.0509971
-0.107101
-0.0885141
-0.137567
-0.12386
-0.149716
-0.146534
-0.136532
-0.146371
-0.121256
-0.0967916
-0.157912
-0.0502881
-0.136831
-0.0239919
-0.0987694
-0.0107677
-0.0488391
-0.00626864
0.0138788
0.00215495
-0.00805509
0.0795495
0.127362
0.125685
0.0106475
-0.0113857
-0.000941708
0.138446
0.120265
0.127075
-0.11172
-0.0898581
-0.0460239
-0.0547431
-0.129364
-0.0243729
-0.0363113
-0.00444188
-0.0137256
0.00821615
0.00265187
0.0155372
0.0124069
0.0185962
0.0175662
0.0189477
0.0188795
0.0201821
0.0193256
0.0222393
0.0213263
0.0224271
0.0226059
0.0210592
0.0218806
0.0179071
0.0198043
0.0117592
0.0152249
0.00215585
0.00741595
-0.0102669
-0.00392834
-0.0187927
-0.0157435
-0.0056194
-0.0166724
0.0380337
0.0129595
0.0884308
0.0646121
0.107345
0.0288882
0.0205278
0.04135
0.0356998
0.050259
0.04604
0.0556128
0.0535173
0.05552
0.0561975
0.0505977
0.0536132
0.0403756
0.0461894
0.0246378
0.0331405
0.000866479
0.014301
-0.0384704
-0.0172102
-0.0688126
-0.0578787
-0.0592821
-0.0684503
-0.0328529
-0.0460545
-0.0125138
-0.0215742
-0.000467133
-0.00563901
0.00592064
0.00328912
0.0090714
0.00782965
0.00958275
-0.00607115
0.00609114
-0.0364717
-0.020557
-0.0729268
-0.0537641
-0.112759
-0.0929566
-0.14634
-0.131011
-0.161153
-0.156869
-0.147668
-0.158188
-0.131574
-0.0760945
-0.122543
-0.0434238
-0.101187
-0.0267441
-0.0682028
-0.0192448
-0.0226214
-0.0197437
0.0381757
-0.0242057
0.101921
-0.0144168
-0.0279008
0.1413
0.127656
0.142247
-0.051704
-0.101232
-0.026701
-0.0400104
-0.0357057
-0.00877036
-0.0179358
0.00683388
-0.000352784
0.0171473
0.0127028
0.0235627
0.0207876
0.0266629
0.0255055
0.0278051
0.0273338
0.0289655
0.0283683
0.0296391
0.0294668
0.0290515
0.029461
0.0278009
0.0285068
0.0254103
0.0267991
0.0214148
0.0236051
0.0159211
0.0188264
0.0103412
0.012935
0.00954109
0.00888128
0.0231754
0.0139448
0.0548187
0.0373191
0.0898583
0.0731921
0.111479
0.103038
0.113005
0.114824
0.017902
-0.00317519
0.00802479
0.0342481
0.0266653
0.0463719
0.0407389
0.0554969
0.0511725
0.0621592
0.0591928
0.064182
0.0637989
0.0613086
0.0632997
0.0541008
0.0582062
0.0426766
0.0489402
0.0234003
0.0345971
-0.010447
0.00776954
-0.035314
-0.0264999
-0.0295802
-0.0354382
-0.0125396
-0.0210664
0.000855159
-0.00516734
0.00920121
0.00556382
0.0139906
0.0119463
0.0164348
0.0154333
0.0171968
0.0170657
0.0168163
-0.00716556
0.0137077
0.00468907
-0.0359823
-0.0205501
-0.07285
-0.05347
-0.113253
-0.0931224
-0.147808
-0.13193
-0.163928
-0.158965
-0.149712
-0.161471
-0.11238
-0.132652
-0.0557137
-0.0887845
-0.0297151
-0.0152029
0.1223
0.10617
-0.0628604
-0.094404
0.0226174
-0.043156
-0.0770609
-0.0234947
-0.0430028
-0.0208411
-0.0342494
-0.0476703
-0.0332382
-0.00356168
-0.0384703
0.0574534
-0.0446392
0.119661
-0.0478673
0.150055
-0.0276412
-0.046176
0.13878
0.111171
0.0948178
-0.0807408
-0.00893247
-0.0151675
0.00533587
-0.00103893
0.0164932
0.011288
0.024633
0.0208953
0.0300041
0.0276636
0.0329451
0.0317587
0.0343932
0.0337918
0.0351276
0.0348667
0.0349728
0.0351716
0.0341839
0.0346162
0.0331063
0.0336977
0.0313869
0.0323413
0.0289878
0.0302565
0.0262894
0.0276236
0.0248076
0.0252329
0.0280535
0.0255438
0.0412389
0.0331722
0.0646043
0.0526313
0.0884009
0.0772182
0.102011
0.0970572
0.0996087
0.102832
0.0812164
0.0922166
0.00649633
-0.0125649
-0.00301997
0.0240114
0.0155561
0.0384551
0.0315542
0.0498277
0.0444473
0.0587698
0.0545434
0.0656144
0.0624939
0.0691898
0.0679
0.0687193
0.0694148
0.0649669
0.0672003
0.0574571
0.0618392
0.0411771
0.0508985
0.0129684
0.0277867
-0.00639107
0.000567502
-0.00469938
-0.00740023
0.00439114
-0.00026641
0.0121647
0.00859383
0.0174054
0.0150676
0.020649
0.019227
0.0224651
0.0216025
0.0232762
0.0230229
0.0229958
0.0131365
0.0201039
-0.00629738
0.00435235
-0.0338971
-0.0188661
-0.0699938
-0.0511388
-0.108965
-0.0895891
-0.141847
-0.126854
-0.15651
-0.152228
-0.142577
-0.153378
-0.104613
-0.125651
-0.0791783
-0.039742
-0.0215442
0.0790446
0.067126
-0.0580731
-0.077158
-0.0012005
-0.00203508
-0.049083
-0.0623331
-0.0484831
-0.0337548
-0.0546937
0.0106043
-0.0633914
0.0738261
-0.0699954
0.133441
-0.070569
0.149946
-0.0630429
0.128235
-0.0292877
-0.050717
0.0945277
-0.0129518
-0.0174642
-0.0353039
0.0247313
0.0590581
0.0501093
-0.0702206
0.00767839
0.00336568
0.0178349
0.0136424
0.0249362
0.0217774
0.0308713
0.0281514
0.03521
0.0333306
0.0377625
0.0367058
0.039018
0.0385358
0.0392996
0.0392804
0.0388247
0.0391329
0.0380638
0.0384563
0.0371719
0.0376455
0.0360183
0.0366247
0.0347501
0.0353797
0.0338585
0.0342015
0.034665
0.0339309
0.0395318
0.0364214
0.0509469
0.0443858
0.0681121
0.0587315
0.0845617
0.0769748
0.0925519
0.0900027
0.0881098
0.0921568
0.0707614
0.0808479
0.0437587
0.0581452
-0.000579148
-0.00731756
0.0144285
0.00687462
0.0291472
0.0219239
0.0417647
0.0357182
0.0522281
0.0472193
0.0607408
0.056704
0.067456
0.0643463
0.0717354
0.0699569
0.0729706
0.0727022
0.0717182
0.0726263
0.0669084
0.0699793
0.0536625
0.0616263
0.0319348
0.0431239
0.0167293
0.0226112
0.0145211
0.0144714
0.0176917
0.01587
0.0213142
0.0195713
0.0241316
0.0228295
0.0259999
0.0251772
0.0270786
0.0266104
0.0276101
0.0274458
0.0270759
0.0276098
0.0264469
0.013271
0.019733
-0.00472691
0.00514277
-0.0312522
-0.0168149
-0.0651788
-0.0476001
-0.100919
-0.0832578
-0.129998
-0.116941
-0.141484
-0.138596
-0.126954
-0.137606
-0.0890431
-0.110267
-0.0353714
-0.0636387
-0.000918537
-0.0149611
-0.0609037
-0.0692048
0.0279337
0.0316468
0.0112181
0.00157401
0.0127967
0.039687
0.0262687
-0.0631721
-0.0552811
-0.0724516
-0.0265547
-0.0855313
0.0201192
-0.0961355
0.0879105
-0.100315
0.141727
-0.0946081
0.141182
-0.0786432
0.110242
-0.0204815
-0.00574877
-0.006298
-0.021482
-0.0591233
0.0729513
-0.0393355
-0.00411775
0.0293967
0.00784586
-0.0683582
0.0139881
0.0127097
0.0211474
0.0177333
0.0284609
0.0254912
0.0327056
0.0309191
0.036389
0.0346492
0.0394177
0.0380774
0.0412933
0.0405103
0.0421407
0.0418419
0.0421254
0.0422245
0.0415922
0.0418965
0.0409232
0.0412632
0.0402126
0.0405742
0.0394974
0.0398467
0.0389893
0.0391968
0.0391925
0.0389533
0.041145
0.039869
0.0463429
0.0432493
0.0558966
0.0505984
0.0685849
0.0619309
0.0796219
0.0746471
0.0839525
0.0828515
0.0783968
0.0825441
0.0628099
0.0717475
0.0519017
-0.000343232
-0.00373244
0.00923354
0.00405998
0.0212553
0.015066
0.033401
0.0274342
0.0443678
0.0390451
0.0538297
0.0492768
0.0617753
0.0579831
0.0681984
0.0651924
0.0727319
0.0707327
0.0749318
0.0741098
0.0750161
0.0752294
0.0719078
0.0740464
0.0619984
0.0679479
0.0459935
0.0542554
0.0333051
0.0387257
0.0283025
0.0300286
0.0276483
0.0276692
0.0284454
0.0279714
0.0294645
0.0289573
0.0302611
0.0298992
0.0306928
0.0305173
0.03086
0.0308029
0.0303523
0.0307049
0.0298386
0.0243398
0.0275927
0.01367
0.0196641
-0.00347728
0.00604919
-0.0286824
-0.015122
-0.0595166
-0.0436773
-0.0908504
-0.0755355
-0.114794
-0.104323
-0.12217
-0.12105
-0.106935
-0.117441
-0.0720028
-0.0912672
-0.0304575
-0.0511993
-0.0126399
0.0370442
0.0147926
0.0115278
0.0131955
-0.073241
-0.0704117
-0.0888915
-0.0581166
-0.109189
-0.0275543
0.0114582
-0.128279
0.0265127
-0.138012
0.100391
-0.134038
0.140838
-0.00528643
0.00713875
0.00948186
-0.00269273
-0.117401
0.124765
-0.0203702
-0.0915508
0.0848827
-0.0407061
-0.0645982
0.0444144
0.0174311
0.0303031
0.0292596
-0.00516477
-0.00103931
0.0300359
-0.0763867
0.0214254
0.0220755
0.0215506
0.0244214
0.0223063
0.0306811
0.0272698
0.0363786
0.0339143
0.0391228
0.0380469
0.0409923
0.0401009
0.0426612
0.0418962
0.0437738
0.0433046
0.0442092
0.0440774
0.0440403
0.0441844
0.0435328
0.043807
0.0429576
0.0432458
0.042415
0.0426773
0.0420216
0.0421892
0.0420028
0.0419456
0.0428114
0.0422653
0.0452146
0.0437611
0.0501115
0.0473096
0.0578843
0.0536798
0.0672693
0.0624926
0.0745196
0.0713425
0.0763513
0.0762777
0.0704281
0.0744241
0.0565439
0.0643186
0.0365434
0.0471563
0.0138287
0.0252652
-0.0144851
-0.00845883
0.00241347
0.00595469
0.00590802
0.00993407
0.00740341
0.0173136
0.0132789
0.02684
0.0219344
0.0369262
0.0319074
0.0464457
0.0417813
0.0548884
0.0508012
0.0621875
0.0586818
0.0681531
0.0653624
0.072725
0.0706657
0.0753807
0.0742837
0.0761533
0.0760064
0.0741466
0.0756252
0.0669135
0.071269
0.054901
0.0611886
0.0439801
0.0489298
0.0376425
0.0402748
0.0348224
0.0359197
0.0338222
0.0341778
0.0335786
0.0336408
0.0335489
0.033548
0.0334407
0.0335013
0.0331461
0.0333257
0.0325229
0.0329233
0.0316218
0.0322365
0.0311976
0.0237123
0.0268786
0.013675
0.019387
-0.00304468
0.00626641
-0.0266832
-0.0141473
-0.0541523
-0.0401953
-0.0806136
-0.0679033
-0.0989797
-0.091285
-0.102117
-0.102784
-0.086561
-0.096615
-0.0567593
-0.0727498
-0.024452
-0.0404145
0.000186774
-0.0104186
0.00998367
-0.0987078
-0.0840386
-0.0180444
-0.00275536
-0.0102567
-0.12953
-0.0725651
0.0123304
-0.161624
-0.0345202
-0.184214
0.0331324
-0.00927521
0.0128846
0.0231813
0.0278274
0.0175506
-0.187457
0.109313
0.00105666
-0.167791
0.127205
-0.0268547
-0.0216135
-0.017574
-0.135441
0.0973143
-0.0395655
-0.0992313
0.0522338
-0.0663638
0.0271021
0.0233165
0.0272713
0.0198847
0.0313741
0.0299853
0.0246376
-0.0980066
0.0281012
0.0275211
0.0313709
0.0293417
0.0367202
0.0338366
0.0415003
0.0394715
0.0435296
0.0428146
0.0443185
0.0439834
0.0449628
0.0446567
0.0454341
0.0452341
0.0455543
0.045543
0.0452961
0.045465
0.044832
0.0450763
0.0443398
0.0445816
0.0439376
0.0441206
0.0437615
0.0438108
0.0440333
0.0438239
0.0451296
0.0444499
0.0475874
0.0461564
0.051908
0.0495003
0.0580744
0.054809
0.0647802
0.0615008
0.0696128
0.0676443
0.069833
0.0704037
0.0639261
0.0676762
0.0516841
0.0585398
0.0346529
0.0436554
0.0145515
0.0249562
0.00583347
0.0172081
0.0195859
0.0156778
0.0158884
0.0183753
0.0165384
0.0239477
0.0208909
0.0314768
0.0275138
0.0399078
0.0356742
0.0480793
0.0440167
0.0555708
0.0519257
0.0621807
0.05899
0.0677418
0.0651055
0.0720669
0.0700825
0.0748358
0.0736465
0.0759047
0.0755955
0.0745097
0.0756014
0.06899
0.0723194
0.0596801
0.0645996
0.0503457
0.0547982
0.0436962
0.0466475
0.0398157
0.0414744
0.0377462
0.0386153
0.0366539
0.0371118
0.0360043
0.0362883
0.0354556
0.0357263
0.0347895
0.0351733
0.0340039
0.034473
0.0329294
0.033477
0.0320615
0.0281795
0.0298724
0.0293019
0.0227577
0.0258162
0.0128544
0.0185698
-0.0036635
0.00544393
-0.0257402
-0.0141924
-0.0500078
-0.0378561
-0.071669
-0.0615286
-0.0846381
-0.0796047
-0.0838497
-0.0861411
-0.0681755
-0.0777108
-0.042654
-0.0560684
-0.0163538
-0.0291665
0.0060652
-0.00447665
0.0136816
-0.026333
-0.0163088
-0.139767
-0.111373
0.0130795
-0.187615
-0.0951647
0.0331228
0.0414207
0.0475031
0.039071
-0.229106
-0.0418619
-0.0140085
0.0231683
-0.249235
0.0427989
0.0057438
-0.237498
0.111069
-0.0380526
-0.0300893
-0.0134203
-0.196204
0.100539
-0.0373633
-0.0361496
-0.14629
0.0599987
-0.0644807
-0.100946
0.0276855
0.0311454
-0.0331203
-0.0213079
-0.134665
0.0302038
0.0295548
0.0297181
0.0322598
0.0310861
0.035838
0.0338718
0.040419
0.0380472
0.0444116
0.0426858
0.0460517
0.0454954
0.0463457
0.0462722
0.0464121
0.0463791
0.0464585
0.0464431
0.0463658
0.0464353
0.0460501
0.0462326
0.0456259
0.0458434
0.0452078
0.045409
0.0449129
0.0450382
0.0448748
0.0448521
0.0452947
0.0450126
0.0464736
0.0457691
0.0487734
0.0474654
0.0524396
0.0504367
0.0572469
0.0547493
0.0620855
0.0597671
0.0651129
0.0639514
0.0643037
0.06525
0.0586209
0.0620919
0.0480168
0.0538835
0.0336113
0.0411384
0.0173634
0.0255494
0.00275092
0.0097142
-0.00788417
-0.00325833
-0.0246178
-0.0123521
-0.0110201
0.0316125
0.0359617
0.0257485
0.0282144
0.0237632
0.02425
0.0252834
0.0241372
0.0294201
0.0270887
0.0354227
0.0321856
0.0423792
0.0387932
0.0493866
0.0458826
0.0559856
0.0527609
0.0619064
0.0590363
0.0669923
0.0645651
0.0709839
0.0691391
0.0736479
0.0724876
0.074744
0.0744092
0.0736205
0.0745173
0.0691856
0.0718437
0.0617663
0.0657052
0.0538432
0.0577597
0.047444
0.0503857
0.0431631
0.045068
0.0405074
0.041676
0.0388673
0.0395953
0.0377683
0.038277
0.0368676
0.0373226
0.0359667
0.0364453
0.0349853
0.0354782
0.0338107
0.0343295
0.0325443
0.0330252
0.0318944
0.0265351
0.0280039
0.0212493
0.0242352
0.0110247
0.016945
-0.00544713
0.00350503
-0.0262003
-0.0154883
-0.047609
-0.0370948
-0.0648392
-0.057072
-0.0728744
-0.0702608
-0.0685592
-0.072309
-0.0525701
-0.0618063
-0.0297753
-0.0415698
-0.00728862
-0.018127
0.0116295
0.00275794
0.0224487
0.0177934
0.0285144
0.0261939
0.0142159
-0.197191
-0.148942
0.0299304
0.0279409
0.0537843
0.0454708
-0.260243
-0.119406
-0.0123151
-0.0257673
-0.0203628
0.0292305
-0.303217
-0.0435761
-0.0389459
0.0111331
-0.311727
0.0508706
-0.0480292
-0.040858
-0.00843721
-0.276717
0.0954737
-0.0522596
-0.0310095
-0.213416
0.0600366
-0.0504182
-0.0595732
-0.148721
0.0138782
-0.0972374
-0.0106231
0.000265505
0.00148005
0.0604209
0.0686028
-0.184611
0.0305628
0.0304193
0.0304396
0.0320091
0.0310885
0.0346727
0.0331731
0.0381768
0.0362319
0.0423493
0.0402341
0.0457378
0.0442491
0.047187
0.0466828
0.0473434
0.047348
0.0471663
0.0472606
0.0469783
0.047071
0.0467519
0.0468735
0.0464104
0.0465945
0.046019
0.0462147
0.0456651
0.0458323
0.0454464
0.0455326
0.045487
0.0454257
0.0459614
0.045658
0.0471018
0.0464347
0.0491411
0.0480004
0.0521661
0.0505393
0.055864
0.0539758
0.0592923
0.0576922
0.0609914
0.0604578
0.0596422
0.0607759
0.0543451
0.0574904
0.04518
0.0502008
0.0330846
0.0393863
0.0197621
0.0264317
0.00776993
0.0134659
-0.000427693
0.00308058
-0.0031147
-0.00261954
-0.0018712
0.0608995
0.0747076
0.0671844
0.0486131
0.0546747
0.0389176
0.0432228
0.0329855
0.0354303
0.0305676
0.0313241
0.0309698
0.0303458
0.0340089
0.0321493
0.0387147
0.0361543
0.0444591
0.0415089
0.0504415
0.04745
0.0561987
0.0533695
0.0614551
0.0588986
0.0660224
0.0638376
0.0696355
0.0679598
0.0720722
0.0710101
0.0730507
0.0727617
0.0720323
0.0728291
0.0683237
0.0705226
0.0622567
0.065483
0.0555098
0.058939
0.0496136
0.0523846
0.0452988
0.0472675
0.042365
0.0436892
0.0403913
0.0412887
0.0389801
0.0396422
0.0378176
0.0383939
0.0367089
0.0372792
0.035535
0.0361229
0.0342783
0.034845
0.032999
0.0336515
0.0312876
0.0322365
0.0246741
0.0264827
0.0190766
0.0223253
0.00803816
0.0143555
-0.00865948
0.000267078
-0.0284322
-0.0183804
-0.0472746
-0.0382564
-0.0604307
-0.0548437
-0.0639629
-0.0635507
-0.0564216
-0.0615236
-0.0398262
-0.0490001
-0.0188492
-0.0295212
0.000757011
-0.00859603
0.0162253
0.00914909
0.0247868
0.0211664
0.0290596
0.027632
0.0297695
0.0526179
-0.266546
-0.190532
-0.00724667
-0.00165216
0.00543941
0.0290707
0.0303
-0.0233184
-0.0273693
0.0358084
-0.335488
-0.138371
-0.0415104
0.0172565
-0.368246
-0.0418121
-0.0560326
-0.0545481
-0.00287591
-0.354937
0.0490811
-0.0659033
-0.0250362
-0.295681
0.0554903
-0.0670177
-0.0698753
-0.0529553
-0.215342
0.00684224
-0.0893106
-0.142297
0.0847256
0.0710313
0.0607355
-0.242566
0.0310339
0.0301904
0.0329258
0.0317845
0.0356957
0.0341515
0.0392208
0.0373557
0.0430058
0.0411218
0.0459962
0.044669
0.047391
0.0468828
0.047597
0.0475847
0.0473757
0.0475049
0.0470886
0.0472327
0.0467914
0.0469414
0.0464478
0.0466252
0.0460897
0.0462664
0.0457888
0.0459283
0.0456224
0.0456832
0.0457006
0.0456236
0.0461705
0.0458772
0.0472071
0.0466089
0.0489523
0.0479884
0.0513961
0.0500996
0.0542019
0.0527929
0.0565825
0.0555083
0.0574362
0.057268
0.0557443
0.0569558
0.0509045
0.0537202
0.0430196
0.0473041
0.0329023
0.038149
0.0220444
0.0274471
0.0123932
0.0168992
0.00613261
0.00878524
0.00457007
0.00467371
0.00787428
0.00593381
-0.00778144
0.00134776
0.0129775
0.00992651
0.0662884
0.0803668
0.0726017
0.0547923
0.0604665
0.0451912
0.0496476
0.0390165
0.0416178
0.0361082
0.0372205
0.0357934
0.0356317
0.0378531
0.0365634
0.0415345
0.0395322
0.046215
0.0437934
0.051268
0.0487284
0.0562511
0.0537882
0.0608751
0.0586206
0.0649221
0.0629828
0.0681399
0.0666431
0.0702946
0.0693606
0.0710995
0.0708825
0.0701192
0.0708565
0.0669283
0.0687991
0.0618156
0.064543
0.0560159
0.0588657
0.0507236
0.0532593
0.0465601
0.0484947
0.0435321
0.044923
0.0413653
0.0423656
0.0397385
0.0405072
0.0383791
0.0390435
0.0370966
0.0377364
0.0357698
0.036419
0.0343347
0.0350497
0.0328784
0.0335948
0.0311712
0.0322302
0.0266252
0.0277876
0.0226821
0.0247816
0.0160367
0.019936
0.00372273
0.010621
-0.0135852
-0.00447054
-0.0327617
-0.0231996
-0.0492462
-0.0416324
-0.0585264
-0.0550143
-0.0578011
-0.0594672
-0.0471944
-0.053596
-0.0297656
-0.0390474
-0.010133
-0.0199283
0.00709798
-0.00100995
0.0198028
0.0141217
0.0266951
0.0238177
0.0296184
0.0287235
0.030097
-0.0159994
-0.0379182
0.0427542
-0.334816
-0.227213
0.0295191
0.0899243
-0.0384088
0.0239838
-0.395715
-0.147065
0.0277031
0.00954444
0.019659
-0.0595823
0.0913554
0.0850635
-0.070384
0.00309236
-0.405936
-0.0413052
-0.0766803
-0.018994
-0.366645
0.0230082
-0.0879195
-0.0877574
-0.0449536
-0.290723
-0.00505384
-0.0917768
-0.0790083
-0.201706
-0.0551859
-0.0180012
-0.00844794
-0.127713
0.000121672
0.0615314
0.0506179
-0.297274
0.0311344
0.0304151
0.0332385
0.0320953
0.0360261
0.0345515
0.0394124
0.0376577
0.0428892
0.0411862
0.0456114
0.0443934
0.0470092
0.0464728
0.0473352
0.0472659
0.0471689
0.0472828
0.0468679
0.0470246
0.0465379
0.0467059
0.046215
0.0463818
0.0458935
0.0460499
0.0456357
0.0457536
0.0455064
0.0455506
0.0455981
0.0455184
0.0460316
0.0457649
0.0469363
0.0464194
0.0483921
0.0475961
0.050334
0.0493164
0.0524335
0.0513975
0.0540413
0.053348
0.0543082
0.0543921
0.0524654
0.0536826
0.0481005
0.0505969
0.0413517
0.0449884
0.0329344
0.037282
0.0240602
0.0284589
0.0164276
0.0199533
0.0117453
0.0135922
0.0110826
0.0108208
0.0143928
0.0124719
0.0204057
0.0164693
0.10044
0.0964268
0.103547
0.0848816
0.0938195
0.0709306
0.0772595
0.0598685
0.065229
0.0504419
0.0548265
0.0441231
0.0468795
0.0407938
0.0421383
0.0398921
0.0400636
0.0411174
0.0402744
0.0438999
0.0423581
0.0476652
0.0456954
0.0518962
0.0497536
0.0561747
0.0540497
0.0602038
0.0582347
0.0637505
0.0620491
0.0665778
0.0652659
0.0684379
0.067639
0.069062
0.0689192
0.0681027
0.0687951
0.0653048
0.0669265
0.0609416
0.0632679
0.0558989
0.0584151
0.051141
0.0534458
0.0472016
0.0490577
0.0441798
0.0455868
0.0419057
0.0429679
0.040126
0.0409722
0.0386065
0.0393477
0.0371728
0.0378843
0.0357217
0.0364423
0.0342024
0.0349799
0.0326849
0.0334888
0.0310781
0.0319762
0.0296231
0.0304057
0.0253603
0.028106
0.0271142
0.0204191
0.0230421
0.0119718
0.0168525
-0.00216566
0.00558891
-0.0206683
-0.0110648
-0.0396735
-0.0304328
-0.0539164
-0.0476782
-0.0592822
-0.0578716
-0.0542668
-0.0580246
-0.0405475
-0.048281
-0.0220546
-0.0315961
-0.00334798
-0.0124835
0.0119537
0.00487546
0.022583
0.0178862
0.0280628
0.0258341
0.0300197
0.0294946
0.0295408
0.0300649
0.0286359
-0.0296622
0.0310448
-0.384962
-0.249
0.0286097
0.0267633
0.0287082
-0.0566306
-0.0226428
-0.0338175
0.105289
0.100182
-0.0929118
0.00929698
-0.425028
-0.150069
-0.0818992
-0.0131998
-0.405776
-0.0564719
-0.113106
-0.0119238
-0.102212
-0.0375955
-0.346499
-0.0344568
-0.114651
-0.0682752
-0.264473
-0.0796284
-0.119234
-0.111272
-0.178478
0.0203162
0.0499907
0.0760473
0.0655133
0.011036
0.038973
-0.334871
0.0308243
0.0296508
0.0331014
0.0318815
0.0358777
0.034391
0.0391244
0.0374497
0.0423461
0.040773
0.0448755
0.0437326
0.0462855
0.0457194
0.0467321
0.0466001
0.0466549
0.0467329
0.0463846
0.046531
0.0460667
0.0462285
0.0457566
0.045912
0.0454697
0.0456076
0.0452494
0.0453489
0.0451485
0.0451805
0.0452427
0.0451662
0.0456287
0.0453938
0.0463997
0.0459628
0.0475931
0.0469465
0.0491158
0.0483273
0.0506642
0.049915
0.0517046
0.0512864
0.0515767
0.051824
0.0497022
0.0508797
0.0458037
0.0480021
0.0400415
0.0431227
0.0330519
0.0366424
0.0258469
0.0293997
0.0197966
0.0225834
0.0163146
0.0176597
0.0165029
0.0159032
0.0197204
0.0178142
0.0265215
0.0223832
0.0343042
0.0390972
0.0322128
0.0283449
0.111764
0.108869
0.105908
0.115627
0.113923
0.0884783
0.0968255
0.0747739
0.0811387
0.0639067
0.0691379
0.0548299
0.0591033
0.0484238
0.0512714
0.0447532
0.0462863
0.0433479
0.0437973
0.0438696
0.0433974
0.0458742
0.0447249
0.0488534
0.0472737
0.0523549
0.050567
0.0559891
0.0541755
0.0594643
0.0577613
0.0625427
0.0610651
0.0649942
0.0638595
0.066578
0.0659057
0.067039
0.066961
0.0661048
0.0667554
0.0636212
0.0650479
0.0598435
0.0618539
0.0554135
0.0576482
0.0511146
0.0532133
0.0474121
0.0491763
0.0444419
0.045841
0.0421059
0.0432083
0.040209
0.041117
0.0385545
0.0393624
0.036994
0.037767
0.0354427
0.0362185
0.0338795
0.0346772
0.0323753
0.033146
0.030957
0.0316816
0.0295521
0.0302383
0.0286864
0.027217
0.0277148
0.0277255
0.0239324
0.0261166
0.0175822
0.021098
0.00683353
0.0129159
-0.00975659
-0.000790123
-0.0302059
-0.0197513
-0.0495105
-0.040403
-0.0616075
-0.0567431
-0.0628895
-0.0636829
-0.0533629
-0.0593205
-0.0363219
-0.0454912
-0.0164958
-0.0264513
0.00172027
-0.00698701
0.0155948
0.0092932
0.0246351
0.0206955
0.0289462
0.0272612
0.0300699
0.0299138
0.0287651
0.0296566
0.0267813
0.0278311
-0.0470177
0.0934822
0.0522243
0.0742188
0.0847601
-0.122597
0.0359571
0.0159607
-0.404955
-0.256592
-0.0796064
-0.00775081
-0.418038
-0.15768
0.042934
0.0469019
-0.148701
0.00101989
0.0317087
0.0243402
0.107851
0.11698
0.0267313
0.0273966
0.0264541
0.0255283
0.0258919
0.0244514
-0.110242
-0.0318074
-0.37349
-0.101027
-0.0543182
-0.0409709
-0.133769
-0.0587449
-0.301818
-0.121301
-0.153486
-0.147945
0.0345587
0.0599615
-0.0944562
-0.222387
-0.164386
-0.148782
0.0243504
-0.346335
0.0276307
0.0265921
0.0300163
0.0287544
0.0325609
0.0312601
0.0354189
0.0339343
0.0385659
0.0369705
0.0415843
0.0401191
0.0439646
0.0428809
0.0453745
0.0447907
0.0459137
0.0457312
0.0459208
0.0459615
0.0456933
0.0458226
0.0453986
0.04555
0.0451043
0.0452488
0.0448484
0.0449702
0.0446617
0.0447444
0.0445865
0.0446074
0.0446828
0.0446094
0.0450248
0.0448192
0.0456769
0.0453105
0.0466476
0.0461265
0.0478311
0.0472258
0.0489551
0.048424
0.049582
0.0493609
0.0491964
0.0495439
0.0473652
0.0484765
0.0439072
0.0458338
0.038997
0.0416042
0.0331954
0.0361582
0.0273728
0.0302225
0.0226473
0.0248021
0.0201764
0.0210671
0.0208551
0.0201126
0.0243946
0.0223023
0.0315158
0.0273823
0.0430679
0.0367587
0.0378951
0.119064
0.111684
0.115668
0.123338
0.12156
0.125614
0.124549
0.0913532
0.0992288
0.0780119
0.0842803
0.0672627
0.0723945
0.058469
0.0626152
0.0520412
0.0549428
0.0480903
0.0497848
0.0462477
0.0469356
0.0461776
0.0460169
0.0475118
0.0467016
0.0498061
0.0485683
0.0526536
0.051186
0.0557002
0.0541713
0.0586655
0.0572077
0.0613142
0.0600418
0.0634218
0.0624472
0.0647581
0.0641975
0.0650866
0.0650584
0.0641896
0.0647964
0.0619704
0.0632379
0.0586391
0.0604179
0.0547205
0.0567132
0.0508131
0.0527347
0.0473289
0.0490052
0.0444198
0.0458044
0.0420385
0.043173
0.0400396
0.0410028
0.0382647
0.0391334
0.0365943
0.0374214
0.0349633
0.0357778
0.0333776
0.0341767
0.0319005
0.0326409
0.030551
0.0312018
0.0291201
0.0298391
0.0282989
0.025982
0.0266351
0.0219268
0.0245413
0.0139192
0.0184249
0.000557351
0.0080473
-0.0192416
-0.00864019
-0.0424991
-0.0307871
-0.0625741
-0.0534247
-0.0725224
-0.0690899
-0.0693948
-0.0725773
-0.0549743
-0.0633201
-0.03425
-0.0450367
-0.0127172
-0.0232825
0.00547228
-0.003044
0.0184039
0.0126354
0.0262088
0.0228842
0.0295186