/*--------------------------------*- C++ -*----------------------------------*\
  =========                 |
  \\      /  F ield         | OpenFOAM: The Open Source CFD Toolbox
   \\    /   O peration     | Website:  https://openfoam.org
    \\  /    A nd           | Version:  10
     \\/     M anipulation  |
\*---------------------------------------------------------------------------*/
FoamFile
{
    format      ascii;
    class       volScalarField;
    location    "31.5";
    object      p;
}
// * * * * * * * * * * * * * * * * * * * * * * * * * * * * * * * * * * * * * //

dimensions      [0 2 -2 0 0 0 0];

internalField   nonuniform List<scalar> 
28942
(
-0.00360775
-0.002966
0.00224573
0.00978985
0.0100903
0.000142755
0.000407651
5.1701e-05
0.00299723
0.0030854
-0.00212469
-0.00239612
-0.00278783
-0.00270465
0.000266892
0.000639271
0.0101406
0.0104104
0.00583232
0.00739048
0.00841006
0.00840322
-0.00509075
-0.00490563
-0.00343578
-0.003651
0.014145
0.0140937
0.00376712
0.00371408
3.68753e-05
7.89771e-05
0.00103981
0.000441461
0.00738944
0.0085977
0.0111413
0.0131053
2.01316e-05
0.015306
0.00939193
0.0118896
0.00241823
0.00237518
0.00239468
0.000396936
0.000239795
0.00031811
0.000367003
0.000520412
0.000958013
0.00312417
0.00319124
0.00312451
0.0032832
-0.00217937
-0.000879378
-0.00320362
-0.00304766
-0.00332634
-0.00339784
-0.00339861
-0.00329465
8.28711e-05
-0.00164331
-0.000153994
0.00119452
0.00968347
0.00918681
-0.0031905
-0.00340482
-0.00313479
0.00924476
0.009098
0.0093894
-0.00129306
-0.00089981
-0.000544093
0.00258756
0.00298764
0.00206746
0.000960712
-0.00618426
-0.00742727
0.00129419
0.00403253
0.00507897
0.00587038
0.00424635
0.00437655
0.00635167
0.00572425
-0.0011462
-0.00145544
-0.00174798
-0.00157562
-0.00138836
0.00557318
0.00686959
-0.00773928
0.0115873
0.0107885
0.00608236
0.00968009
0.00118586
0.00111879
0.00100602
0.00574084
0.00593329
0.00592654
-0.00304368
-0.00296271
-0.00295531
-0.00242708
-0.00254224
0.0161002
0.0140933
0.0135317
0.0151657
0.00186241
0.00496287
0.00365421
0.00531373
0.0049923
0.0157741
0.0160684
0.014724
0.00616098
0.00724139
0.000274371
0.000395444
0.000170444
0.010758
0.011263
0.00796907
0.0076214
0.013078
0.00694338
0.00823932
0.00930081
-0.00167245
-0.0022061
0.00760989
0.00234793
0.0024054
-0.00098724
-0.00124773
-0.00077305
-0.0023103
0.00683363
0.00595846
0.00393224
0.000350301
0.000282492
0.000131065
0.000287657
0.00777484
0.00703967
-0.00163155
-0.00175559
-0.0016454
-0.00399323
-0.00352678
0.000109128
-0.00268896
-0.000323404
0.00865144
0.00875907
0.00985714
0.00939184
0.00796682
0.00340523
0.00332631
0.00354573
0.00342623
0.00531436
0.00509183
0.00542496
0.00564551
0.00558112
0.00564574
0.00585535
0.00640702
0.00610217
0.00569772
0.00602719
0.00673364
0.00748436
0.00777853
-0.000292
-0.000281957
-0.00227229
0.000299986
0.000116473
-0.00177239
-0.00186602
0.000407667
0.000465839
0.000422465
0.000351297
0.00223635
0.00221774
0.00219352
-0.00273267
-0.00292639
-0.00257657
-0.00418469
-0.00467729
-0.00397279
-0.00457211
-0.00635404
-0.00503712
0.0162943
0.0170061
0.0167727
0.00125122
0.00139888
0.00127617
0.0106115
0.0101841
0.0102645
0.00171907
0.00169768
0.00174046
0.00167636
0.0016552
0.00163419
0.00163493
0.00161332
0.00161439
0.00165566
0.00167679
0.00169804
0.00171957
0.00174089
0.00159282
0.00159379
0.00176202
0.00176257
0.00178405
0.00157249
0.00157305
0.00178451
0.00155202
0.00153164
0.0015526
0.00153225
0.00180572
0.0018064
0.00151136
0.00151199
0.00182759
0.0018285
0.00149119
0.00149182
0.00184979
0.00185079
0.0014711
0.00147175
0.00187221
0.00187325
0.00145116
0.0014517
0.00189484
0.0018959
0.00143129
0.00143173
0.00191782
0.00191858
0.00141146
0.00141187
0.00194079
0.00194151
0.00139168
0.00139202
0.00196426
0.0019648
0.00137193
0.00137209
0.00198786
0.00198836
0.00135231
0.00135193
0.00201204
0.00201229
0.00133228
0.00133188
0.0020365
0.00203671
0.00131157
0.00131168
0.00201133
0.00203583
0.00206149
0.00206143
0.00196331
0.0019873
0.00191683
0.00194016
0.00187149
0.00189405
0.00182685
0.0018491
0.00178266
0.00180472
0.00173984
0.00176147
0.0016972
0.00171827
0.00165496
0.00167607
0.00161298
0.00163397
0.00157181
0.00159235
0.00153101
0.00155136
0.00149063
0.00151078
0.00145061
0.00147058
0.00141092
0.00143073
0.00137153
0.00139119
0.00133174
0.00135187
0.00131153
0.00129115
0.00129126
0.00135216
0.00131201
0.00133216
0.00139212
0.00137219
0.0014318
0.00141197
0.00147173
0.00145172
0.00151198
0.00149181
0.00155261
0.00153225
0.00159367
0.00157308
0.00163516
0.00161448
0.00167699
0.00165611
0.0017195
0.00169813
0.00176272
0.00174116
0.00180634
0.00178425
0.00185075
0.00182849
0.00189583
0.00187321
0.00194166
0.00191861
0.00198846
0.00196485
0.00203617
0.00201215
0.00206086
0.0020608
0.00129115
0.00129169
0.00208663
0.00208578
0.002086
0.00208669
0.00201024
0.00205919
0.00203455
0.00196233
0.00198618
0.00191611
0.00193905
0.00187084
0.00189339
0.00182627
0.00184847
0.00178237
0.00180423
0.00173904
0.00176069
0.00169641
0.00171784
0.00165448
0.00167519
0.00161259
0.00163348
0.00157142
0.00159196
0.00153067
0.001551
0.00149032
0.00151045
0.00145032
0.00147028
0.00141065
0.00143045
0.00137129
0.00139094
0.00133166
0.00135157
0.00127068
0.00127085
0.00129146
0.00131168
0.00131254
0.00129251
0.00127159
0.00127085
0.0013525
0.00133262
0.0013921
0.00137222
0.00143169
0.00141187
0.00147158
0.0014516
0.00151182
0.00149166
0.00155243
0.00153208
0.00159345
0.00157289
0.00163494
0.00161415
0.00167695
0.00165586
0.00171929
0.00169805
0.00176237
0.00174089
0.00180605
0.00178414
0.00185037
0.00182814
0.00189539
0.0018728
0.00194113
0.00191817
0.00198764
0.00196429
0.00203514
0.00201125
0.00208407
0.00205952
0.00208411
0.00211107
0.00210929
0.00211174
0.00127148
0.0012722
0.00211105
0.00210898
0.00213657
0.00213483
0.00211214
0.00129192
0.00127203
0.00125137
0.00125193
0.00210606
0.00213489
0.00216023
0.00213363
0.00205699
0.00208142
0.00200863
0.00203267
0.00196127
0.00198482
0.00191519
0.00193802
0.00187002
0.00189253
0.00182553
0.0018477
0.00178171
0.00180355
0.00173848
0.00176002
0.00169583
0.0017171
0.00165376
0.00167471
0.00161213
0.00163289
0.001571
0.00159151
0.00153029
0.0015506
0.00148996
0.00151008
0.00144999
0.00146994
0.00141035
0.00143014
0.001371
0.00139064
0.00133161
0.00135129
0.00131179
0.00125069
0.00125129
0.00125087
0.00125088
0.00131294
0.00127291
0.00129301
0.00135262
0.00133281
0.00139194
0.0013722
0.0014315
0.00141168
0.00147136
0.00145139
0.00151157
0.00149142
0.00155215
0.00153181
0.00159314
0.0015726
0.00163457
0.0016138
0.00167649
0.00165547
0.00171893
0.00169765
0.00176191
0.00174035
0.00180551
0.00178365
0.00184975
0.00182755
0.00189468
0.00187213
0.00194031
0.00191741
0.00198669
0.00196342
0.00203391
0.00201017
0.00208221
0.00205789
0.00213237
0.00210696
0.00216019
0.00215779
0.0021364
0.0021373
0.00125197
0.00125274
0.00216096
0.00216206
0.00218078
0.00218318
0.00218563
0.00216625
0.00221773
0.00213743
0.00215026
0.00216616
0.00210328
0.00212834
0.00205424
0.00207859
0.00200649
0.00203014
0.00195977
0.0019831
0.00191401
0.00193678
0.00186895
0.0018914
0.00182456
0.00184668
0.00178082
0.00180262
0.00173769
0.00175918
0.00169512
0.00171633
0.00165307
0.00167404
0.00161153
0.00163224
0.00157045
0.00159093
0.00152978
0.00155006
0.00148949
0.00150959
0.00144956
0.00146948
0.00140995
0.00142972
0.00137062
0.00139025
0.00133144
0.00135099
0.00129217
0.00131185
0.00125246
0.00127233
0.00123139
0.00123238
0.00123184
0.00123097
0.00123103
0.00123141
0.00123107
0.00123254
0.00123198
0.00127349
0.00123409
0.00125367
0.00131312
0.00129336
0.00135246
0.00133281
0.0013917
0.00137204
0.00143122
0.00141142
0.00147106
0.0014511
0.00151123
0.0014911
0.00155177
0.00153145
0.00159271
0.00157219
0.00163409
0.00161335
0.00167595
0.00165496
0.00171832
0.00169707
0.00176124
0.00173971
0.00180476
0.00178293
0.0018489
0.00182675
0.00189372
0.00187123
0.00193925
0.0019164
0.00198549
0.00196228
0.00203247
0.00200889
0.00208025
0.00205626
0.00212918
0.00210452
0.00217962
0.00215409
0.0022086
0.00220491
0.00216182
0.00216282
0.00218581
0.00218703
0.00125279
0.00123297
0.00121283
0.00121353
0.00221126
0.00221121
0.00223821
0.0021834
0.00223373
0.00223044
0.00221491
0.00216254
0.00214561
0.00216545
0.0021001
0.00212382
0.00205146
0.00207567
0.00200446
0.00202786
0.00195816
0.00198123
0.00191256
0.00193528
0.00186764
0.00189002
0.00182338
0.00184543
0.00177975
0.00180149
0.00173672
0.00175816
0.00169423
0.00171541
0.00165227
0.00167319
0.00161079
0.00163148
0.00156977
0.00159023
0.00152915
0.00154941
0.00148892
0.00150899
0.00144903
0.00146894
0.00140946
0.00142921
0.00137018
0.00138979
0.00133115
0.00135064
0.00129215
0.00131161
0.00127245
0.00121167
0.00121243
0.00121196
0.00121148
0.00121162
0.00121185
0.00121165
0.00121222
0.00127386
0.00123425
0.00125426
0.00131308
0.00129351
0.00135218
0.00133266
0.00139138
0.00137175
0.00143087
0.00141109
0.00147066
0.00145072
0.00151078
0.00149068
0.00155127
0.00153098
0.00159216
0.00157166
0.00163348
0.00161276
0.00167526
0.00165431
0.00171756
0.00169635
0.00176039
0.0017389
0.0018038
0.00178202
0.00184784
0.00182575
0.00189253
0.0018701
0.0019379
0.00191513
0.00198398
0.00196086
0.00203077
0.00200729
0.00207823
0.00205442
0.00212642
0.00210229
0.00217559
0.00215052
0.00222669
0.00220127
0.00225582
0.00225205
0.00218742
0.00218785
0.00121284
0.00121427
0.00221223
0.00221433
0.00223141
0.00221236
0.00223605
0.00223863
0.00226247
0.00225568
0.00225901
0.00228104
0.00227808
0.00218782
0.00218968
0.00224315
0.00221862
0.00214301
0.00216489
0.00209682
0.00212086
0.00204914
0.00207283
0.00200239
0.00202569
0.00195629
0.00197926
0.00191087
0.0019335
0.00186611
0.00188841
0.001822
0.00184398
0.0017785
0.00180017
0.00173557
0.00175697
0.0016932
0.00171432
0.00165133
0.0016722
0.00160993
0.00163057
0.00156898
0.0015894
0.00152843
0.00154866
0.00148826
0.0015083
0.00144843
0.0014683
0.00140891
0.00142863
0.00136967
0.00138926
0.0013307
0.00135016
0.00129187
0.00131129
0.00125279
0.00127237
0.0012131
0.00123313
0.00119261
0.00119305
0.00119272
0.00119237
0.00119242
0.0011924
0.00119233
0.00119256
0.00119248
0.00119317
0.00119281
0.00119448
0.00119374
0.00123463
0.0011952
0.00121493
0.00127394
0.0012544
0.00131291
0.00129343
0.00135183
0.00133235
0.00139099
0.00137138
0.00143043
0.00141067
0.00147017
0.00145026
0.00151023
0.00149016
0.00155066
0.0015304
0.00159148
0.00157102
0.00163273
0.00161205
0.00167443
0.00165352
0.00171663
0.00169547
0.00175936
0.00173793
0.00180266
0.00178094
0.00184656
0.00182453
0.0018911
0.00186875
0.00193629
0.00191361
0.00198217
0.00195915
0.00202873
0.00200537
0.00207595
0.00205227
0.00212376
0.00209981
0.00217213
0.00214785
0.00222106
0.0021966
0.00227147
0.00224573
0.00230327
0.00229755
0.00221266
0.00226508
0.00223641
0.0012134
0.00119374
0.00117468
0.00117523
0.00221296
0.00223738
0.00225919
0.00226114
0.00228402
0.00230683
0.00232814
0.00232288
0.00221293
0.00223995
0.00228826
0.00228491
0.00226293
0.00218867
0.00221543
0.00214029
0.00216343
0.00209373
0.00211757
0.0020465
0.00207
0.002
0.00202318
0.00195414
0.00197699
0.00190893
0.00193145
0.00186436
0.00188657
0.00182041
0.00184231
0.00177706
0.00179867
0.00173427
0.0017556
0.00169201
0.00171308
0.00165024
0.00167107
0.00160894
0.00162954
0.00156808
0.00158846
0.00152761
0.00154779
0.0014875
0.00150751
0.00144773
0.00146758
0.00140827
0.00142797
0.00136909
0.00138865
0.00133017
0.0013496
0.00129148
0.0013108
0.00125265
0.00127208
0.00123306
0.00117305
0.00117326
0.00117313
0.00117318
0.00117314
0.00117341
0.00117329
0.00117352
0.00117348
0.00117376
0.00117363
0.00117414
0.00123498
0.00119567
0.00121537
0.00127378
0.00125441
0.00131255
0.00129319
0.00135141
0.00133195
0.00139052
0.00137094
0.00142991
0.00141018
0.00146959
0.00144971
0.00150959
0.00148955
0.00154995
0.00152972
0.00159069
0.00157027
0.00163185
0.00161122
0.00167345
0.00165259
0.00171555
0.00169444
0.00175816
0.00173679
0.00180132
0.00177967
0.00184507
0.00182312
0.00188943
0.00186717
0.00193443
0.00191185
0.00198007
0.00195717
0.00202637
0.00200314
0.00207329
0.00204976
0.00212078
0.00209698
0.00216873
0.00214472
0.00221693
0.0021928
0.0022661
0.00224121
0.00231602
0.00229072
0.00228228
0.0022859
0.00234775
0.00234112
0.00223719
0.00117419
0.00117575
0.00230677
0.00223801
0.00231307
0.00226173
0.00226263
0.00228673
0.00228662
0.00230967
0.00233157
0.00235267
0.00237228
0.00236608
0.00223789
0.00227917
0.00233145
0.00232791
0.0023021
0.00223417
0.0022579
0.00218537
0.00220967
0.00213695
0.00216072
0.00209029
0.00211384
0.00204349
0.0020668
0.0019973
0.00202032
0.00195172
0.00197443
0.00190675
0.00192916
0.0018624
0.0018845
0.00181864
0.00184045
0.00177545
0.00179697
0.00173281
0.00175406
0.00169068
0.00171168
0.00164903
0.0016698
0.00160784
0.00162838
0.00156706
0.0015874
0.00152668
0.00154683
0.00148665
0.00150662
0.00144696
0.00146677
0.00140757
0.00142723
0.00136845
0.00138797
0.00132958
0.00134898
0.00129095
0.00131024
0.00125239
0.00127169
0.00121358
0.00123298
0.00117441
0.00119416
0.00115399
0.00115458
0.00115421
0.00115394
0.00115388
0.00115418
0.00115403
0.00115444
0.00115433
0.00115453
0.00115451
0.00115463
0.00115453
0.00115501
0.00115475
0.00115601
0.00115536
0.00119597
0.00115662
0.00117637
0.00123497
0.0012155
0.00127352
0.00125429
0.00131212
0.0012928
0.00135093
0.0013315
0.00138999
0.00137043
0.00142931
0.00140962
0.00146892
0.00144908
0.00150885
0.00148884
0.00154913
0.00152894
0.00158978
0.0015694
0.00163084
0.00161026
0.00167234
0.00165153
0.00171431
0.00169326
0.00175678
0.00173548
0.00179979
0.00177822
0.00184337
0.00182151
0.00188753
0.00186538
0.00193231
0.00190985
0.0019777
0.00195493
0.0020237
0.00200062
0.00207028
0.00204692
0.00211738
0.00209377
0.00216491
0.00214111
0.00221265
0.00218877
0.00226048
0.00223663
0.00230851
0.00228423
0.00235754
0.00233329
0.00230597
0.00231409
0.0023892
0.00238049
0.00226256
0.00226334
0.00235023
0.00235515
0.00233694
0.00228675
0.00228808
0.00117461
0.00115515
0.00113638
0.00113695
0.00231351
0.00231195
0.00233474
0.00235617
0.00237675
0.0023953
0.00237203
0.00236736
0.00238771
0.00241241
0.00240568
0.00239604
0.00226328
0.002324
0.00234438
0.00227375
0.00229791
0.00222823
0.00225193
0.00218035
0.00220402
0.00213319
0.00215674
0.00208651
0.00210983
0.00204016
0.00206328
0.00199433
0.00201718
0.00194905
0.00197162
0.00190435
0.00192663
0.00186023
0.00188222
0.00181667
0.00183838
0.00177367
0.0017951
0.00173119
0.00175236
0.0016892
0.00171013
0.00164769
0.00166839
0.00160661
0.0016271
0.00156594
0.00158623
0.00152566
0.00154575
0.00148572
0.00150565
0.0014461
0.00146587
0.00140678
0.00142641
0.00136773
0.00138723
0.00132893
0.0013483
0.00129035
0.00130962
0.00125198
0.00127115
0.00121347
0.00123274
0.00119412
0.00113463
0.00113499
0.00113471
0.00113491
0.00113478
0.00113526
0.00113509
0.00113551
0.00113541
0.0011356
0.00113558
0.00113558
0.00113559
0.00113578
0.00113566
0.00113602
0.00119615
0.00115719
0.00117671
0.00123475
0.00121544
0.0012731
0.00125392
0.00131164
0.00129234
0.00135039
0.00133099
0.00138938
0.00136986
0.00142863
0.00140897
0.00146817
0.00144836
0.00150801
0.00148805
0.0015482
0.00152807
0.00158875
0.00156843
0.00162971
0.00160918
0.00167108
0.00165034
0.00171292
0.00169195
0.00175525
0.00173402
0.00179809
0.0017766
0.00184147
0.00181971
0.00188542
0.00186338
0.00192995
0.00190761
0.00197506
0.00195243
0.00202073
0.00199783
0.00206694
0.00204378
0.00211362
0.00209023
0.00216065
0.00213711
0.00220787
0.00218426
0.00225501
0.0022315
0.00230176
0.00227847
0.0023477
0.00232496
0.00239538
0.00237027
0.00237801
0.0024267
0.00243578
0.00244822
0.00243964
0.00241548
0.0023298
0.00234373
0.00228818
0.00228885
0.0011356
0.00113738
0.00236411
0.00231294
0.00231357
0.00233918
0.0023373
0.00235979
0.00238099
0.00240015
0.00241738
0.0024088
0.00239963
0.00241937
0.00242739
0.00244947
0.00246156
0.00242961
0.00241814
0.00240411
0.00245492
0.00246828
0.00228889
0.00236041
0.00237837
0.0023151
0.00233658
0.00226776
0.00229182
0.00222178
0.00224481
0.00217525
0.00219857
0.00212871
0.00215196
0.00208246
0.00210555
0.00203655
0.00205946
0.00199109
0.00201377
0.00194614
0.00196856
0.00190173
0.00192387
0.00185786
0.00187973
0.00181453
0.00183613
0.00177172
0.00179306
0.00172941
0.00175051
0.00168759
0.00170845
0.00164622
0.00166685
0.00160527
0.00162569
0.00156472
0.00158495
0.00152454
0.00154458
0.00148469
0.00150457
0.00144517
0.00146489
0.00140593
0.00142552
0.00136696
0.00138641
0.00132822
0.00134756
0.00128971
0.00130894
0.0012514
0.00127053
0.00121316
0.0012323
0.00117478
0.00119397
0.00113593
0.00115536
0.00111572
0.00111635
0.00111599
0.00111562
0.00111552
0.00111599
0.00111578
0.00111637
0.0011162
0.00111661
0.00111651
0.00111671
0.00111668
0.00111668
0.0011167
0.00111667
0.00111669
0.00111697
0.00111675
0.00111767
0.00111729
0.00115729
0.00111815
0.00113785
0.00119608
0.00117675
0.00123434
0.00121525
0.00127262
0.00125346
0.0013111
0.00129184
0.00134979
0.00133042
0.0013887
0.00136922
0.00142788
0.00140826
0.00146733
0.00144757
0.00150709
0.00148717
0.00154717
0.00152709
0.00158762
0.00156735
0.00162845
0.00160799
0.0016697
0.00164902
0.00171139
0.00169049
0.00175355
0.00173241
0.00179621
0.00177482
0.00183938
0.00181773
0.0018831
0.00186118
0.00192736
0.00190516
0.00197217
0.0019497
0.0020175
0.00199477
0.00206331
0.00204035
0.00210953
0.00208638
0.00215604
0.00213276
0.00220267
0.00217936
0.00224918
0.00222597
0.0022952
0.0022723
0.00234012
0.00231784
0.00238378
0.00236233
0.00240362
0.00235185
0.00237048
0.00248046
0.00246896
0.00231395
0.00231447
0.00238582
0.00233844
0.00233905
0.001136
0.00111664
0.00109808
0.00109842
0.00236461
0.00236257
0.00238477
0.00240535
0.00242415
0.00244128
0.0024392
0.00242931
0.00245106
0.00245979
0.00245298
0.00243859
0.00242655
0.00247665
0.00248607
0.00248643
0.00249799
0.00231462
0.00239228
0.00240622
0.00235066
0.0023724
0.00230565
0.00232838
0.00226104
0.00228358
0.00221565
0.00223837
0.00216983
0.00219281
0.00212388
0.00214684
0.00207814
0.00210098
0.00203268
0.00205537
0.00198762
0.0020101
0.00194301
0.00196526
0.0018989
0.0019209
0.0018553
0.00187704
0.00181221
0.00183369
0.00176961
0.00179085
0.0017275
0.0017485
0.00168584
0.00170662
0.00164462
0.00166518
0.00160381
0.00162417
0.00156339
0.00158356
0.00152332
0.00154331
0.00148359
0.00150341
0.00144415
0.00146383
0.00140501
0.00142455
0.00136611
0.00138553
0.00132746
0.00134676
0.00128901
0.00130821
0.00125076
0.00126987
0.00121269
0.00123171
0.00117457
0.00119359
0.00115536
0.00109647
0.00109682
0.00109663
0.00109669
0.00109657
0.00109715
0.00109692
0.00109751
0.00109735
0.00109774
0.00109764
0.00109784
0.00109781
0.00109781
0.00109785
0.00109769
0.00109776
0.00109768
0.00109768
0.00109778
0.00115734
0.00111854
0.00113809
0.00119581
0.00117658
0.00123387
0.00121483
0.00127209
0.00125296
0.0013105
0.00129128
0.00134912
0.00132979
0.00138796
0.00136851
0.00142705
0.00140747
0.00146641
0.0014467
0.00150607
0.0014862
0.00154605
0.00152602
0.00158637
0.00156617
0.00162708
0.00160668
0.00166818
0.00164758
0.00170971
0.00168889
0.00175169
0.00173065
0.00179415
0.00177287
0.00183711
0.00181557
0.00188057
0.00185878
0.00192455
0.0019025
0.00196903
0.00194673
0.002014
0.00199146
0.00205939
0.00203665
0.00210514
0.00208223
0.0021511
0.00212811
0.00219711
0.00217412
0.00224291
0.00222006
0.00228817
0.00226564
0.00233236
0.00231044
0.00237478
0.00235395
0.00241479
0.00239508
0.00245549
0.00243578
0.00250249
0.00249008
0.00247055
0.00237521
0.00239325
0.0023394
0.00234003
0.00109707
0.00109897
0.00241172
0.00236387
0.00236447
0.00238984
0.00238771
0.00240949
0.00242954
0.00244756
0.00246325
0.00246802
0.0024561
0.00247014
0.00247471
0.00248795
0.00250563
0.0024834
0.00248185
0.00247093
0.00246234
0.00244708
0.0024966
0.00250605
0.00251364
0.0025168
0.00234019
0.00242239
0.00244084
0.00238194
0.00239839
0.00234017
0.00236257
0.00229767
0.0023191
0.00225391
0.00227596
0.00220925
0.00223165
0.0021641
0.00218673
0.00211877
0.00214143
0.00207355
0.00209614
0.00202856
0.00205102
0.00198391
0.00200619
0.00193967
0.00196174
0.00189588
0.00191772
0.00185256
0.00187416
0.00180972
0.00183109
0.00176735
0.00178848
0.00172544
0.00174634
0.00168397
0.00170465
0.00164291
0.00166339
0.00160225
0.00162253
0.00156196
0.00158206
0.00152202
0.00154195
0.00148239
0.00150217
0.00144307
0.0014627
0.00140401
0.00142351
0.00136521
0.00138458
0.00132663
0.00134589
0.00128827
0.00130743
0.00125009
0.00126916
0.00121208
0.00123107
0.00117421
0.00119313
0.00113592
0.00115507
0.00109709
0.00111671
0.00107744
0.00107757
0.00107739
0.0010775
0.00107741
0.00107786
0.00107762
0.00107834
0.00107812
0.00107868
0.00107853
0.0010789
0.00107881
0.00107901
0.00107897
0.00107899
0.00107902
0.00107886
0.00107894
0.00107868
0.00107876
0.00107886
0.00107872
0.00107961
0.00107915
0.00111876
0.00108017
0.00109954
0.00115723
0.00113809
0.00119537
0.00117632
0.00123336
0.00121435
0.00127152
0.00125242
0.00130986
0.00129066
0.00134839
0.0013291
0.00138715
0.00136774
0.00142615
0.00140662
0.00146541
0.00144575
0.00150496
0.00148515
0.00154482
0.00152485
0.00158502
0.00156488
0.00162559
0.00160526
0.00166654
0.00164601
0.0017079
0.00168717
0.00174969
0.00172874
0.00179194
0.00177076
0.00183466
0.00181324
0.00187786
0.0018562
0.00192153
0.00189964
0.00196568
0.00194355
0.00201026
0.00198792
0.00205521
0.0020327
0.00210046
0.00207781
0.00214586
0.00212315
0.00219122
0.00216856
0.00223629
0.00221382
0.00228072
0.00225862
0.00232404
0.00230256
0.00236564
0.00234513
0.00240476
0.00238557
0.00244069
0.00242342
0.00245577
0.0023992
0.0024188
0.00251861
0.00250563
0.00236478
0.00236552
0.00243489
0.00238913
0.00238975
0.00109732
0.00107807
0.00106024
0.0010606
0.00241484
0.00241264
0.00243391
0.00245326
0.00247039
0.00248501
0.00248283
0.00246808
0.00247913
0.00249609
0.00249853
0.00249776
0.00249302
0.00248078
0.00247039
0.00251616
0.00252346
0.00252751
0.00252983
0.00251231
0.00252429
0.00236567
0.00244377
0.00245493
0.00240858
0.00242818
0.00237012
0.00238958
0.00233087
0.00235098
0.00228944
0.00231037
0.00224645
0.00226811
0.00220254
0.00222458
0.00215809
0.00218037
0.00211339
0.00213575
0.00206872
0.00209104
0.00202421
0.00204644
0.00197999
0.00200206
0.00193612
0.00195801
0.00189267
0.00191435
0.00184965
0.00187111
0.00180708
0.00182831
0.00176494
0.00178596
0.00172325
0.00174404
0.00168196
0.00170256
0.00164108
0.00166148
0.00160058
0.00162079
0.00156044
0.00158047
0.00152062
0.00154049
0.00148112
0.00150084
0.0014419
0.00146148
0.00140295
0.0014224
0.00136424
0.00138357
0.00132575
0.00134497
0.00128747
0.00130659
0.00124937
0.0012684
0.00121143
0.00123038
0.00117365
0.00119252
0.00113568
0.00115468
0.00111651
0.00105822
0.00105824
0.00105817
0.00105861
0.00105844
0.00105911
0.00105884
0.00105955
0.00105935
0.00105988
0.00105973
0.0010601
0.00106
0.0010602
0.00106016
0.0010602
0.00106022
0.00106009
0.00106016
0.00105989
0.00106
0.00105978
0.00105984
0.00105988
0.00111889
0.00108047
0.00109989
0.00115698
0.00113798
0.00119488
0.00117596
0.00123281
0.00121383
0.00127089
0.00125183
0.00130915
0.00129
0.00134761
0.00132836
0.00138627
0.00136691
0.00142518
0.0014057
0.00146433
0.00144472
0.00150377
0.00148402
0.00154351
0.0015236
0.00158357
0.0015635
0.00162399
0.00160374
0.00166477
0.00164433
0.00170595
0.00168531
0.00174754
0.0017267
0.00178957
0.0017685
0.00183204
0.00181075
0.00187496
0.00185344
0.00191832
0.00189659
0.00196211
0.00194017
0.00200628
0.00198416
0.00205079
0.0020285
0.00209552
0.00207314
0.00214034
0.00211793
0.00218505
0.00216273
0.00222938
0.00220729
0.00227298
0.0022513
0.00231539
0.00229437
0.00235602
0.00233598
0.00239425
0.00237548
0.0024289
0.00241215
0.00245919
0.00244466
0.00248826
0.00247243
0.00252195
0.00250583
0.00249516
0.00242292
0.00244279
0.00239006
0.00239089
0.00105877
0.00106109
0.00245739
0.00241418
0.00241484
0.0024395
0.0024373
0.00245796
0.00247648
0.00249256
0.00250591
0.00249093
0.00247654
0.00248216
0.00249051
0.00249431
0.00251083
0.00250015
0.00250894
0.00251161
0.0025135
0.00250951
0.00250309
0.00249129
0.00253438
0.00253944
0.00254075
0.00253966
0.00253343
0.0025263
0.00239104
0.00245983
0.00247037
0.0024302
0.00243926
0.00239521
0.00241527
0.00235966
0.0023777
0.00232144
0.00234091
0.00228085
0.00230138
0.00223872
0.00225995
0.00219559
0.00221725
0.00215183
0.00217377
0.00210777
0.00212983
0.00206366
0.00208571
0.00201964
0.00204163
0.00197586
0.00199772
0.00193239
0.00195409
0.00188929
0.00191079
0.00184658
0.00186788
0.00180428
0.00182538
0.0017624
0.00178329
0.00172092
0.00174161
0.00167984
0.00170034
0.00163915
0.00165945
0.00159881
0.00161894
0.00155882
0.00157877
0.00151914
0.00153894
0.00147977
0.00149942
0.00144067
0.00146019
0.00140183
0.00142122
0.00136322
0.00138249
0.00132482
0.001344
0.00128662
0.0013057
0.0012486
0.00126759
0.00121074
0.00122965
0.00117302
0.00119186
0.00113533
0.0011542
0.00109739
0.00111633
0.00105893
0.0010783
0.00103923
0.00103944
0.00103928
0.0010394
0.00103923
0.00103987
0.00103961
0.00104038
0.00104013
0.00104079
0.0010406
0.00104111
0.00104096
0.00104132
0.00104122
0.00104143
0.00104138
0.00104143
0.00104144
0.00104134
0.0010414
0.00104115
0.00104126
0.0010409
0.00104102
0.00104106
0.00104092
0.0010419
0.00104139
0.00108069
0.00104239
0.00106158
0.00111882
0.00109987
0.00115663
0.0011377
0.00119436
0.00117549
0.00123222
0.00121327
0.00127022
0.0012512
0.0013084
0.00128929
0.00134676
0.00132756
0.00138533
0.00136602
0.00142413
0.00140471
0.00146318
0.00144363
0.00150249
0.0014828
0.0015421
0.00152226
0.00158202
0.00156202
0.00162228
0.00160211
0.00166289
0.00164254
0.00170388
0.00168334
0.00174526
0.00172452
0.00178705
0.00176611
0.00182926
0.0018081
0.00187188
0.00185052
0.00191492
0.00189336
0.00195834
0.00193659
0.0020021
0.00198019
0.00204614
0.0020241
0.00209034
0.00206823
0.00213457
0.00211247
0.00217862
0.00215664
0.00222221
0.0022005
0.00226499
0.00224374
0.0023065
0.00228595
0.00234616
0.00232661
0.00238335
0.00236511
0.00241711
0.00240075
0.00244635
0.00243244
0.00247038
0.00245922
0.00247896
0.00244639
0.0024662
0.00251704
0.00250278
0.00241518
0.00241608
0.00247996
0.00243895
0.00243967
0.00105902
0.00103994
0.00102267
0.00102315
0.00246381
0.0024616
0.00248151
0.00249906
0.00251393
0.00252584
0.00249007
0.00247522
0.00247452
0.00248973
0.00251087
0.00251746
0.00252562
0.00252389
0.00252555
0.00252021
0.00251168
0.00255122
0.00255395
0.00255315
0.00254697
0.00254077
0.00252953
0.00250117
0.00251542
0.00241623
0.00246364
0.00246255
0.00244529
0.0024578
0.00241569
0.00242735
0.00238356
0.00240124
0.00234914
0.00236663
0.00231175
0.00233081
0.00227206
0.00229214
0.00223078
0.00225159
0.00218842
0.00220972
0.00214537
0.00216697
0.00210195
0.00212369
0.00205839
0.00208017
0.00201488
0.00203662
0.00197155
0.00199319
0.00192848
0.00194998
0.00188573
0.00190707
0.00184335
0.0018645
0.00180134
0.0018223
0.00175971
0.00178048
0.00171847
0.00173905
0.00167761
0.001698
0.0016371
0.00165731
0.00159694
0.00161698
0.00155711
0.00157699
0.00151758
0.00153731
0.00147834
0.00149793
0.00143937
0.00145882
0.00140064
0.00141997
0.00136213
0.00138136
0.00132384
0.00134296
0.00128573
0.00130476
0.00124779
0.00126674
0.00121001
0.00122889
0.00117237
0.00119117
0.00113484
0.0011536
0.00109715
0.00111596
0.00107816
0.00102022
0.00102025
0.00102018
0.00102065
0.00102044
0.00102119
0.00102092
0.00102167
0.00102144
0.00102206
0.00102188
0.00102236
0.00102222
0.00102256
0.00102247
0.00102267
0.00102263
0.00102269
0.00102269
0.00102262
0.00102266
0.00102245
0.00102255
0.0010222
0.00102233
0.0010221
0.00102215
0.00102229
0.00108085
0.00104283
0.00106185
0.00111859
0.0010997
0.00115616
0.00113736
0.0011938
0.00117496
0.00123158
0.00121268
0.00126951
0.00125053
0.0013076
0.00128853
0.00134587
0.00132671
0.00138433
0.00136508
0.00142302
0.00140365
0.00146195
0.00144246
0.00150114
0.00148151
0.00154061
0.00152084
0.00158037
0.00156045
0.00162046
0.00160038
0.00166089
0.00164064
0.00170168
0.00168124
0.00174284
0.00172222
0.00178439
0.00176357
0.00182633
0.00180531
0.00186865
0.00184744
0.00191135
0.00188996
0.00195439
0.00193283
0.00199773
0.00197603
0.00204129
0.00201949
0.00208496
0.00206312
0.00212859
0.0021068
0.00217197
0.00215033
0.00221483
0.00219349
0.0022568
0.00223596
0.00229743
0.00227732
0.00233616
0.00231708
0.00237232
0.00235461
0.00240507
0.0023892
0.0024335
0.0024199
0.00245641
0.00244583
0.0024727
0.00246545
0.00248608
0.00247742
0.00249737
0.00248351
0.00248558
0.00246941
0.00248874
0.00244004
0.002441
0.00102072
0.00102344
0.0025017
0.00246335
0.00246415
0.00248765
0.00248542
0.00250445
0.00252088
0.00253438
0.00254459
0.0024721
0.00246255
0.00246191
0.00248424
0.00249773
0.00251212
0.00252838
0.00253272
0.00253899
0.00253831
0.00253611
0.00252979
0.00256648
0.00256686
0.00256311
0.00255596
0.00254447
0.00252899
0.00251091
0.00246797
0.00248403
0.00246668
0.00244116
0.00246383
0.00245568
0.00244712
0.0024527
0.00242912
0.00244002
0.00240155
0.00241572
0.00237204
0.0023875
0.00233846
0.00235563
0.00230193
0.00232053
0.00226313
0.00228278
0.00222268
0.00224308
0.00218108
0.002202
0.00213872
0.00215998
0.00209593
0.00211737
0.00205294
0.00207445
0.00200994
0.00203144
0.00196707
0.00198849
0.00192441
0.00194571
0.00188203
0.00190318
0.00183997
0.00186096
0.00179826
0.00181907
0.0017569
0.00177754
0.00171591
0.00173636
0.00167526
0.00169554
0.00163496
0.00165507
0.00159498
0.00161493
0.00155531
0.00157511
0.00151594
0.00153559
0.00147684
0.00149636
0.001438
0.00145739
0.00139939
0.00141866
0.001361
0.00138017
0.0013228
0.00134188
0.00128479
0.00130378
0.00124695
0.00126585
0.00120925
0.00122808
0.00117168
0.00119045
0.00113423
0.00115294
0.00109675
0.00111547
0.00105914
0.001078
0.00102083
0.00104009
0.00100135
0.00100149
0.00100137
0.00100151
0.00100135
0.001002
0.00100172
0.00100253
0.00100227
0.00100298
0.00100276
0.00100335
0.00100317
0.00100363
0.0010035
0.00100383
0.00100374
0.00100394
0.00100389
0.00100397
0.00100396
0.00100391
0.00100395
0.00100377
0.00100385
0.00100354
0.00100367
0.00100336
0.00100341
0.00100353
0.00100335
0.00100426
0.00100378
0.00104286
0.00100466
0.00102379
0.00108071
0.00106184
0.00111819