/*--------------------------------*- C++ -*----------------------------------*\
  =========                 |
  \\      /  F ield         | OpenFOAM: The Open Source CFD Toolbox
   \\    /   O peration     | Website:  https://openfoam.org
    \\  /    A nd           | Version:  10
     \\/     M anipulation  |
\*---------------------------------------------------------------------------*/
FoamFile
{
    format      ascii;
    class       volScalarField;
    location    "60";
    object      p;
}
// * * * * * * * * * * * * * * * * * * * * * * * * * * * * * * * * * * * * * //

dimensions      [0 2 -2 0 0 0 0];

internalField   nonuniform List<scalar> 
28942
(
-0.00378341
-0.00315673
0.0020153
0.00948314
0.00978316
9.76116e-05
0.000305165
2.91912e-05
0.00270273
0.00279069
-0.00232783
-0.0025969
-0.00298023
-0.00289764
0.000203054
0.000521131
0.00987052
0.0101404
0.00556853
0.00712934
0.00814276
0.00813445
-0.0052372
-0.00506206
-0.00359077
-0.00381426
0.0138684
0.0138174
0.00352147
0.00346432
2.19305e-05
5.78063e-05
0.000804616
0.000331197
0.00713485
0.00834062
0.0108777
0.0128362
-2.66745e-06
0.0150313
0.00908583
0.0115837
0.00174963
0.00166536
0.00172449
0.000306231
0.000166959
0.000244646
0.00028239
0.000394203
0.000748715
0.0027784
0.00284927
0.00283512
0.00299042
-0.00236005
-0.00105731
-0.00338752
-0.00323308
-0.00350424
-0.00357736
-0.0035782
-0.00347618
-0.00012287
-0.00182414
-0.000368729
0.000962909
0.00941312
0.00891664
-0.0033744
-0.00358445
-0.00331943
0.00897816
0.00882998
0.00912196
-0.00148607
-0.00109835
-0.000759072
0.00234941
0.0027488
0.00183969
0.000744446
-0.00632481
-0.0075534
0.00107316
0.00379904
0.00484076
0.00562855
0.00401272
0.00413617
0.00610326
0.00548201
-0.00140721
-0.00169836
-0.00197663
-0.00181511
-0.00164088
0.00532515
0.00661626
-0.00786467
0.0112804
0.0104814
0.00577533
0.00937235
0.000891878
0.000799397
0.000709366
0.00546349
0.00565618
0.00565026
-0.00323093
-0.00315155
-0.00313977
-0.00262282
-0.0027455
0.015823
0.0138175
0.0132595
0.0148907
0.00163352
0.00471393
0.00341189
0.00506085
0.00473772
0.0154951
0.0157906
0.0144501
0.00590259
0.00698177
0.000203945
0.000307895
0.000118906
0.0104885
0.0109917
0.00766314
0.00731529
0.0127723
0.00668738
0.00797827
0.00904255
-0.00191551
-0.00242487
0.0073472
0.00166821
0.00175569
-0.00118339
-0.00144661
-0.000987614
-0.00252417
0.00658463
0.00571181
0.00370443
0.000279753
0.000222276
9.07478e-05
0.000224583
0.00752129
0.00678551
-0.0018714
-0.00198856
-0.00188385
-0.00414934
-0.00369376
7.13293e-05
-0.00286371
-0.000510379
0.00838492
0.00849386
0.00958789
0.00912325
0.00770105
0.00307434
0.00299185
0.00324331
0.00311921
0.00503346
0.00481128
0.00514626
0.00536677
0.00530462
0.00537536
0.00558644
0.00614035
0.00583444
0.0054323
0.00576241
0.00646811
0.00722179
0.00751383
-0.000584974
-0.000565839
-0.0024809
0.000228699
6.96006e-05
-0.00200041
-0.00208908
0.000308486
0.000371372
0.000333678
0.000264432
0.00187458
0.0018305
0.00180741
-0.00292866
-0.00311599
-0.00278043
-0.00434903
-0.00483139
-0.00414261
-0.00473017
-0.00649617
-0.00519413
0.0160169
0.0167271
0.0164946
0.000927182
0.00107215
0.000960196
0.0103414
0.00991345
0.00999378
0.00151203
0.0014936
0.00153032
0.00147475
0.00145628
0.00143735
0.00143826
0.00141838
0.0014192
0.00145691
0.00147527
0.00149369
0.00151224
0.00153084
0.00139975
0.00139972
0.00154795
0.00154828
0.0015653
0.00138077
0.0013805
0.00156571
0.00136132
0.00134188
0.00136147
0.0013423
0.00158385
0.00158411
0.00132255
0.00132299
0.00160078
0.00160127
0.0013032
0.00130369
0.00161771
0.00161816
0.00128388
0.00128434
0.00163439
0.00163489
0.00126454
0.00126505
0.00165083
0.00165131
0.00124526
0.00124576
0.00166706
0.00166756
0.00122601
0.00122649
0.00168318
0.00168363
0.00120684
0.00120711
0.00169855
0.00169898
0.00118767
0.00118763
0.00171466
0.00171487
0.00116842
0.00116798
0.0017294
0.00172939
0.00114851
0.00114853
0.00174444
0.0017443
0.00112859
0.00112907
0.00172844
0.00174347
0.00175934
0.00175898
0.0016967
0.00171318
0.00166488
0.00168129
0.00163286
0.0016491
0.0015992
0.00161623
0.00156413
0.0015818
0.00152892
0.0015477
0.00149303
0.00151121
0.00145543
0.00147376
0.00141715
0.00143638
0.00137911
0.00139826
0.00134074
0.00135999
0.0013022
0.00132151
0.00126364
0.00128294
0.00122518
0.00124442
0.00118693
0.00120605
0.00114806
0.0011678
0.0011285
0.00110898
0.00110924
0.00116802
0.00112894
0.00114845
0.00120693
0.00118736
0.00124547
0.00122627
0.00128403
0.00126476
0.00132264
0.00130337
0.00136118
0.00134196
0.0013993
0.00138038
0.00143756
0.00141858
0.00147523
0.00145658
0.00151142
0.00149329
0.00154803
0.0015305
0.00158314
0.00156534
0.00161736
0.00160046
0.0016503
0.00163403
0.00168219
0.00166632
0.00171325
0.00169755
0.00174246
0.00172818
0.00175715
0.00175892
0.00110876
0.00110934
0.00177289
0.0017707
0.00177393
0.00177371
0.001726
0.00175683
0.00174132
0.00169431
0.00171053
0.00166302
0.00167852
0.00163083
0.00164713
0.00159729
0.00161422
0.0015627
0.00158011
0.00152689
0.00154506
0.00149061
0.00150946
0.00145419
0.00147196
0.00141587
0.00143503
0.0013778
0.00139689
0.00133953
0.0013587
0.00130109
0.00132033
0.00126263
0.00128186
0.00122426
0.00124343
0.00118612
0.00120516
0.00114753
0.00116685
0.00108921
0.0010894
0.00110829
0.00112797
0.0011287
0.00110927
0.00108987
0.00108955
0.00116791
0.00114824
0.00120637
0.00118693
0.00124469
0.00122551
0.00128318
0.00126394
0.00132171
0.00130246
0.00136017
0.00134096
0.00139837
0.00137935
0.00143627
0.00141734
0.00147383
0.00145502
0.0015103
0.00149216
0.00154625
0.00152876
0.00158143
0.00156404
0.00161549
0.00159862
0.00164837
0.0016321
0.00168001
0.00166437
0.00171038
0.00169539
0.00173948
0.00172506
0.00176683
0.00175366
0.00177186
0.00178444
0.00178061
0.00178604
0.00108907
0.00108981
0.00178719
0.00178521
0.00179768
0.00179432
0.00178741
0.0011083
0.00108886
0.00107037
0.00107041
0.00178212
0.00180046
0.00182054
0.00180311
0.00175302
0.00176797
0.00172228
0.00173754
0.00169116
0.00170718
0.00166001
0.00167534
0.00162797
0.00164421
0.00159459
0.00161143
0.00156013
0.0015775
0.00152468
0.00154249
0.00148844
0.00150667
0.00145154
0.00147006
0.00141405
0.0014329
0.0013761
0.00139511
0.00133793
0.00135704
0.00129961
0.00131878
0.00126127
0.00128044
0.00122302
0.00124213
0.00118497
0.00120397
0.00114672
0.00116579
0.0011274
0.00107011
0.0010698
0.00106997
0.00107029
0.00112847
0.00108977
0.0011094
0.00116728
0.00114787
0.00120531
0.00118616
0.00124353
0.0012244
0.0012819
0.00126272
0.0013203
0.00130111
0.00135861
0.00133948
0.00139669
0.0013777
0.00143443
0.0014156
0.0014716
0.00145312
0.00150824
0.00149004
0.00154395
0.00152621
0.00157886
0.00156157
0.00161271
0.00159593
0.0016454
0.00162921
0.00167683
0.0016613
0.00170684
0.00169206
0.00173542
0.00172125
0.0017626
0.00174915
0.00178918
0.00177541
0.00180625
0.00180157
0.00180067
0.00179914
0.00106949
0.00107047
0.00181209
0.00180995
0.0018073
0.00181353
0.0018176
0.00174458
0.00182208
0.00180107
0.001803
0.00179975
0.00177938
0.00179564
0.00174726
0.00176321
0.00171742
0.00173199
0.00168704
0.00170279
0.00165622
0.00167169
0.00162423
0.0016404
0.00159104
0.00160778
0.00155677
0.00157404
0.00152158
0.00153928
0.00148555
0.00150364
0.00144879
0.00146727
0.00141154
0.00143025
0.00137381
0.00139272
0.00133582
0.00135484
0.00129767
0.00131676
0.0012595
0.00127859
0.0012214
0.00124044
0.00118348
0.00120242
0.00114559
0.00116446
0.00110759
0.00112655
0.0010691
0.00108821
0.00105082
0.00105013
0.00105034
0.00105118
0.00105098
0.00105132
0.00105129
0.00105155
0.00105151
0.00108934
0.00105132
0.00107063
0.00112775
0.00110866
0.00116604
0.00114703
0.0012039
0.00118497
0.001242
0.00122293
0.00128021
0.0012611
0.00131844
0.00129933
0.00135656
0.00133752
0.00139444
0.00137555
0.00143198
0.00141327
0.00146895
0.00145056
0.00150533
0.00148724
0.00154085
0.00152319
0.00157549
0.00155831
0.00160909
0.00159244
0.00164152
0.00162547
0.00167268
0.00165728
0.00170243
0.00168777
0.00173057
0.00171671
0.00175716
0.0017441
0.00178282
0.00176994
0.00180735
0.00179439
0.00182461
0.00181845
0.00181267
0.00181223
0.00182441
0.00181975
0.00106886
0.00104991
0.00103248
0.00103232
0.00181902
0.0018289
0.00185188
0.00177382
0.00183341
0.00182833
0.00181255
0.00181298
0.00178955
0.00178682
0.00177247
0.0017853
0.00174061
0.00175646
0.00171206
0.00172641
0.00168227
0.00169741
0.00165149
0.00166699
0.00161966
0.00163572
0.0015867
0.00160332
0.0015527
0.00156983
0.00151775
0.00153534
0.00148198
0.00149997
0.00144551
0.00146383
0.00140848
0.00142707
0.001371
0.00138979
0.00133323
0.00135215
0.00129531
0.00131429
0.00125733
0.00127632
0.00121942
0.00123836
0.00118166
0.00120052
0.00114417
0.00116289
0.00110637
0.00112523
0.00108747
0.00103204
0.0010312
0.00103176
0.00103267
0.00103247
0.00103272
0.0010328
0.00103256
0.00108884
0.00105057
0.00107027
0.00112671
0.00110773
0.00116444
0.00114573
0.00120216
0.00118329
0.00124008
0.00122111
0.0012781
0.00125909
0.00131612
0.00129713
0.00135403
0.00133511
0.00139168
0.0013729
0.00142895
0.00141038
0.00146568
0.00144741
0.00150176
0.00148382
0.00153702
0.00151951
0.00157137
0.00155433
0.00160467
0.00158817
0.0016368
0.0016209
0.00166766
0.00165241
0.0016971
0.00168258
0.00172499
0.00171126
0.00175119
0.00173833
0.00177603
0.00176394
0.00179903
0.00178643
0.00182155
0.0018117
0.00183709
0.00182985
0.00182507
0.0018225
0.00103048
0.0010318
0.00182767
0.00178573
0.00181247
0.00183112
0.00183726
0.00184942
0.00183945
0.00184513
0.00184239
0.00184558
0.00184041
0.00182375
0.00178581
0.0018403
0.00181676
0.00177867
0.00177906
0.0017626
0.00177567
0.00173404
0.00174821
0.00170579
0.00172006
0.00167637
0.00169125
0.00164587
0.00166125
0.0016143
0.00163024
0.00158164
0.00159811
0.00154793
0.00156492
0.00151329
0.00153073
0.00147782
0.00149566
0.00144165
0.00145982
0.0014049
0.00142335
0.00136771
0.00138636
0.00133021
0.00134899
0.00129253
0.00131139
0.00125479
0.00127366
0.00121709
0.00123593
0.00117954
0.00119829
0.00114222
0.00116086
0.001105
0.0011237
0.00106733
0.00108619
0.00102972
0.00104861
0.00101259
0.00101074
0.00101178
0.00101386
0.00101321
0.00101455
0.00101429
0.00101454
0.00101462
0.00101392
0.00101428
0.00101328
0.0010136
0.00105
0.00101275
0.00103127
0.0010876
0.00106887
0.00112531
0.00110651
0.00116255
0.0011439
0.00120009
0.0011813
0.0012378
0.00121893
0.0012756
0.0012567
0.00131338
0.00129451
0.00135103
0.00133224
0.00138841
0.00136977
0.00142539
0.00140696
0.00146182
0.00144369
0.00149759
0.00147981
0.00153253
0.00151518
0.00156655
0.00154968
0.00159951
0.00158318
0.00163131
0.00161558
0.00166182
0.00164674
0.00169093
0.00167657
0.00171853
0.00170494
0.00174449
0.00173174
0.00176875
0.00175694
0.00179143
0.00178003
0.00181214
0.00180261
0.00183156
0.00182022
0.00185014
0.00184231
0.00183159
0.00183468
0.00183005
0.00102848
0.00101008
0.000994803
0.000994101
0.00183227
0.00184031
0.00183597
0.00184598
0.00185023
0.00185616
0.00185809
0.00185102
0.00183248
0.00182708
0.00184092
0.00183158
0.0018308
0.00178708
0.00180857
0.00176988
0.001775
0.00175298
0.0017651
0.00172625
0.00173965
0.00169857
0.0017126
0.0016696
0.00168426
0.00163947
0.00165468
0.00160824
0.00162401
0.0015759
0.00159221
0.00154253
0.00155935
0.00150823
0.0015255
0.0014731
0.00149077
0.00143726
0.00145527
0.00140084
0.00141912
0.00136396
0.00138245
0.00132676
0.0013454
0.00128936
0.00130808
0.00125188
0.00127063
0.00121443
0.00123315
0.00117711
0.00119575
0.00113999
0.00115852
0.0011032
0.00112157
0.00106582
0.00108456
0.00104703
0.000994341
0.000992318
0.000993578
0.000995868
0.000995182
0.000996572
0.000996307
0.000996522
0.000996638
0.000995692
0.000996215
0.000995041
0.00104912
0.00101186
0.00103047
0.00108623
0.00106768
0.0011233
0.00110488
0.00116037
0.0011418
0.00119769
0.00117901
0.00123517
0.00121642
0.00127272
0.00125395
0.00131023
0.0012915
0.00134759
0.00132895
0.00138466
0.00136618
0.00142132
0.00140306
0.00145742
0.00143946
0.00149283
0.00147523
0.00152743
0.00151025
0.00156108
0.00154439
0.00159368
0.00157753
0.0016251
0.00160956
0.00165525
0.00164036
0.00168401
0.00166983
0.00171127
0.00169785
0.00173695
0.00172434
0.00176095
0.00174921
0.00178326
0.00177231
0.00180323
0.0017937
0.00182285
0.00181206
0.00184099
0.00183114
0.00186076
0.00184936
0.00185865
0.00184998
0.00183706
0.000991563
0.000993316
0.00183413
0.00184133
0.00184746
0.00184227
0.00184945
0.00185704
0.0018558
0.00186102
0.00186379
0.00186549
0.00186643
0.00185849
0.00184047
0.00181895
0.0018501
0.00184603
0.00182492
0.00181371
0.00182176
0.00178339
0.00179696
0.00176196
0.00177081
0.0017432
0.00175456
0.00171768
0.00173063
0.00169061
0.00170436
0.00166212
0.00167655
0.0016324
0.00164742
0.00160153
0.00161712
0.00156956
0.00158569
0.00153656
0.00155319
0.00150263
0.00151971
0.00146786
0.00148535
0.00143239
0.00145022
0.00139632
0.00141443
0.00135978
0.00137811
0.00132291
0.00134138
0.00128582
0.00130439
0.00124863
0.00126723
0.00121145
0.00123004
0.00117438
0.0011929
0.0011375
0.00115592
0.00110089
0.00111916
0.00106432
0.00108273
0.00102731
0.0010457
0.000990574
0.00100913
0.000974431
0.000972175
0.00097339
0.000976535
0.000975391
0.000977999
0.000977373
0.000978708
0.000978445
0.000978641
0.000978773
0.000977852
0.000978327
0.000976699
0.000977051
0.000974978
0.000975869
0.00101083
0.000974163
0.000992507
0.00104791
0.00102911
0.00108449
0.00106636
0.00112104
0.00110274
0.00115791
0.00113945
0.00119499
0.00117643
0.00123221
0.00121359
0.00126948
0.00125085
0.00130669
0.00128811
0.00134373
0.00132525
0.00138047
0.00136216
0.00141677
0.0013987
0.00145251
0.00143474
0.00148755
0.00147014
0.00152176
0.00150478
0.00155502
0.00153853
0.00158723
0.00157128
0.00161826
0.00160292
0.00164803
0.00163333
0.00167642
0.00166242
0.00170334
0.00169009
0.0017287
0.00171624
0.00175242
0.0017408
0.00177445
0.00176366
0.00179435
0.00178474
0.00181296
0.00180379
0.00183002
0.00182086
0.00184758
0.00183979
0.00186358
0.00186024
0.0018617
0.00185007
0.0018471
0.0018508
0.00185004
0.00185927
0.00185498
0.00185556
0.00185885
0.0009894
0.000971135
0.00095679
0.00095606
0.0018664
0.0018649
0.00186917
0.00187073
0.00187204
0.0018701
0.00185241
0.00184763
0.00184927
0.00186712
0.00186184
0.00186428
0.00185016
0.00183886
0.00183641
0.00180896
0.00181913
0.00180045
0.00180899
0.00177507
0.00178661
0.00175426
0.0017643
0.00173332
0.00174448
0.0017086
0.00172124
0.00168206
0.00169555
0.00165404
0.00166823
0.00162473
0.00163955
0.00159425
0.00160964
0.00156267
0.0015786
0.00153006
0.0015465
0.00149652
0.00151341
0.00146215
0.00147945
0.00142707
0.0014447
0.00139137
0.0014093
0.0013552
0.00137335
0.00131868
0.00133699
0.00128192
0.00130033
0.00124505
0.0012635
0.00120817
0.00122661
0.00117137
0.00118976
0.00113475
0.00115304
0.00109836
0.00111652
0.00106232
0.00108031
0.00102573
0.00104408
0.00100759
0.0009567
0.000954216
0.00095562
0.000958865
0.000957796
0.000960263
0.000959655
0.000960955
0.000960701
0.000960897
0.000961021
0.000960138
0.000960593
0.000958741
0.00095947
0.000957879
0.00100956
0.000973245
0.000991415
0.00104626
0.00102784
0.00108223
0.00106421
0.00111856
0.00110036
0.00115517
0.00113684
0.00119199
0.00117357
0.00122893
0.00121046
0.0012659
0.00124742
0.00130279
0.00128437
0.00133948
0.00132118
0.00137586
0.00135773
0.00141179
0.0013939
0.00144714
0.00142956
0.00148178
0.00146457
0.00151559
0.00149881
0.00154844
0.00153216
0.00158024
0.0015645
0.00161087
0.00159572
0.00164024
0.00162574
0.00166825
0.00165444
0.00169482
0.00168174
0.00171986
0.00170756
0.0017433
0.00173181
0.00176507
0.00175442
0.00178496
0.00177529
0.0018032
0.00179433
0.00181998
0.00181169
0.0018344
0.00182804
0.00185122
0.00183868
0.00186073
0.00186278
0.00187481
0.0018671
0.001859
0.00184806
0.00186899
0.00186561
0.00185826
0.00186034
0.000953238
0.00095512
0.00187279
0.00186653
0.00186788
0.00187278
0.00187334
0.00187663
0.00187831
0.00187608
0.00187248
0.00185404
0.00184323
0.00184455
0.00184691
0.00185415
0.00186483
0.0018568
0.0018687
0.00187718
0.0018729
0.0018713
0.0018602
0.00184038
0.00183597
0.00182319
0.00182619
0.00180146
0.00181248
0.00178759
0.00179564
0.00176608
0.00177698
0.00174511
0.00175552
0.00172341
0.00173462
0.00169912
0.00171154
0.00167302
0.00168629
0.00164544
0.00165942
0.00161655
0.00163116
0.00158647
0.00160167
0.0015553
0.00157103
0.0015231
0.00153934
0.00148998
0.00150666
0.00145602
0.00147311
0.00142133
0.00143877
0.00138604
0.00140377
0.00135026
0.00136821
0.0013141
0.00133223
0.0012777
0.00129593
0.00124117
0.00125945
0.0012046
0.00122289
0.0011681
0.00118634
0.00113175
0.0011499
0.00109561
0.00111365
0.00105978
0.00107765
0.00102398
0.00104199
0.00098816
0.00100593
0.000952208
0.000970019
0.000936542
0.000934438
0.000935474
0.000939236
0.000937864
0.000941287
0.000940356
0.000942649
0.000942052
0.000943315
0.000943072
0.000943266
0.000943381
0.00094252
0.000942974
0.000941011
0.00094188
0.000939073
0.00094006
0.000937205
0.000938145
0.000971821
0.000935789
0.00095412
0.00100819
0.000989863
0.00104398
0.00102624
0.00107973
0.0010618
0.00111583
0.00109775
0.00115218
0.00113399
0.00118871
0.00117044
0.00122535
0.00120703
0.00126199
0.00124368
0.00129854
0.00128029
0.00133487
0.00131675
0.00137087
0.00135294
0.00140641
0.00138872
0.00144135
0.00142398
0.00147558
0.00145858
0.00150896
0.0014924
0.0015414
0.00152532
0.00157277
0.00155724
0.00160299
0.00158805
0.00163196
0.00161766
0.0016596
0.00164597
0.00168581
0.00167291
0.00171054
0.00169839
0.00173369
0.00172234
0.00175521
0.00174469
0.00177498
0.00176535
0.00179309
0.00178427
0.00180956
0.00180157
0.00182343
0.001817
0.00183613
0.00182992
0.0018359
0.00187862
0.00188191
0.00186555
0.00185684
0.00186872
0.00186953
0.00186859
0.00187454
0.00187636
0.000950713
0.000933225
0.000919458
0.000918054
0.00188179
0.0018811
0.00188378
0.00188404
0.00188248
0.00188101
0.00185148
0.00184135
0.00185444
0.00185918
0.00186973
0.00186809
0.00188
0.00187905
0.00187021
0.0018571
0.00186776
0.00186981
0.00183555
0.00182319
0.00182458
0.00183114
0.00180847
0.00181632
0.00179254
0.00180102
0.00177628
0.0017848
0.00175615
0.00176651
0.00173522
0.00174573
0.00171328
0.00172452
0.00168929
0.00170154
0.00166359
0.00167665
0.00163641
0.00165019
0.00160793
0.00162234
0.00157827
0.00159326
0.00154751
0.00156304
0.00151574
0.00153176
0.00148303
0.00149951
0.0014495
0.00146637
0.00141523
0.00143246
0.00138035
0.00139787
0.00134497
0.00136273
0.00130921
0.00132714
0.00127317
0.00129122
0.00123699
0.0012551
0.00120076
0.00121888
0.00116457
0.00118266
0.00112851
0.00114652
0.00109265
0.00111056
0.00105705
0.00107482
0.00102178
0.00103939
0.000986251
0.0010039
0.000968379
0.000919078
0.000916727
0.000918052
0.000921902
0.000920586
0.000923837
0.000922946
0.000925151
0.000924577
0.000925789
0.000925554
0.000925748
0.000925854
0.000925031
0.000925473
0.000923686
0.000924428
0.000921568
0.000922702
0.000920323
0.00097032
0.00093465
0.000952823
0.00100633
0.000988246
0.00104149
0.00102388
0.00107703
0.00105922
0.00111287
0.00109493
0.00114894
0.00113089
0.00118517
0.00116704
0.00122148
0.00120333
0.00125778
0.00123965
0.00129397
0.00127591
0.00132993
0.001312
0.00136553
0.0013478
0.00140066
0.00138318
0.00143519
0.00141802
0.00146898
0.0014522
0.00150194
0.00148559
0.00153395
0.00151809
0.0015649
0.00154958
0.0015947
0.00157997
0.00162328
0.00160917
0.00165054
0.0016371
0.00167641
0.00166368
0.00170082
0.00168883
0.0017237
0.00171248
0.00174498
0.00173457
0.00176459
0.00175503
0.00178253
0.0017738
0.00179875
0.00179089
0.00181268
0.00180608
0.00182425
0.00181898
0.00183283
0.00182821
0.00184593
0.00184079
0.00185864
0.00184978
0.00184099
0.00188462
0.00187964
0.00187718
0.00187807
0.000915376
0.000916961
0.00188325
0.00188258
0.00188421
0.00188962
0.00188824
0.00189007
0.00188982
0.00188797
0.00188392
0.00185585
0.00184231
0.00183958
0.00183823
0.00183525
0.00185135
0.00185284
0.00187071
0.00186786
0.00188081
0.00187751
0.00188128
0.00187603
0.00186791
0.00185874
0.00187839
0.00183553
0.00184307
0.00182153
0.00181545
0.00181006
0.00181957
0.00179741
0.00180402
0.00178195
0.00179
0.00176512
0.00177383
0.00174563
0.00175565
0.00172489
0.00173539
0.00170291
0.00171413
0.00167917
0.00169127
0.00165382
0.0016667
0.00162704
0.00164061
0.00159896
0.00161317
0.00156971
0.00158449
0.00153937
0.00155469
0.00150802
0.00152383
0.00147574
0.001492
0.00144264
0.0014593
0.0014088
0.00142581
0.00137434
0.00139165
0.00133937
0.00135692
0.00130401
0.00132174
0.00126836
0.00128622
0.00123254
0.00125047
0.00119666
0.00121461
0.0011608
0.00117872
0.00112505
0.00114291
0.00108947
0.00110724
0.00105414
0.00107178
0.0010191
0.00103658
0.00098439
0.0010017
0.000948866
0.000966538
0.00091384
0.000931447
0.000899288
0.00089601
0.000897826
0.000902097
0.000900553
0.000904639
0.000903502
0.000906507
0.000905642
0.000907763
0.000907216
0.000908375
0.00090815
0.000908343
0.00090844
0.000907667
0.000908085
0.000906382
0.000907095
0.000904514
0.000905507
0.000901956
0.000903221
0.000899548
0.000900715
0.000933314
0.0008985
0.000916002
0.000968482
0.000951037
0.0010039
0.000986263
0.00103884
0.00102132
0.00107413
0.00105645
0.00110969
0.00109189
0.00114546
0.00112756
0.00118137
0.00116341
0.00121735
0.00119937
0.0012533
0.00123534
0.00128911
0.00127124
0.00132467
0.00130694
0.00135987
0.00134234
0.00139458
0.00137731
0.00142868
0.00141173
0.00146205
0.00144548
0.00149457
0.00147844
0.00152615
0.0015105
0.00155668
0.00154157
0.00158607
0.00157154
0.00161426
0.00160034
0.00164115
0.00162789
0.00166668
0.00165412
0.00169079
0.00167895
0.00171341
0.00170232
0.00173447
0.00172416
0.0017539
0.00174442
0.00177167
0.00176303
0.00178769
0.00177994
0.00180161
0.00179497
0.00181327
0.00180781
0.00182286
0.00181809
0.00183116
0.00182819
0.00182892
0.00189213
0.00189075
0.00185272
0.00184488
0.00188514
0.001886
0.00188733
0.00189005
0.00189143
0.000912202
0.00089482
0.000882277
0.000881257
0.00189683
0.00189468
0.0018958
0.00189497
0.00189224
0.00188769
0.00183682
0.0018268
0.00182439
0.00183707
0.00185174
0.0018669
0.00187973
0.0018771
0.0018871
0.0018843
0.00187687
0.00186608
0.00185848
0.00183376
0.00184115
0.00188638
0.00183187
0.0018242
0.0018197
0.00183069
0.00180797
0.00181182
0.00179894
0.00180486
0.00178612
0.00179279
0.0017708
0.00177875
0.00175385
0.00176259
0.00173477
0.00174456
0.00171423
0.00172467
0.00169233
0.00170349
0.00166882
0.00168079
0.0016438
0.00165651
0.00161738
0.00163077
0.0015897
0.00160371
0.00156085
0.00157543
0.00153092
0.00154603
0.00149999
0.00151559
0.00146815
0.00148419
0.00143547
0.00145192
0.00140207
0.00141887
0.00136804
0.00138514
0.00133349
0.00135083
0.00129853
0.00131607
0.00126328
0.00128095
0.00122784
0.00124559
0.00119232
0.00121009
0.0011568
0.00117456
0.00112137
0.00113907
0.0010861
0.00110371
0.00105105
0.00106855
0.00101626
0.00103362
0.000981825
0.000999003
0.000946884
0.000964412
0.000929372
0.000882195
0.000878818
0.000880778
0.000885187
0.00088367
0.000887495
0.000886407
0.000889289
0.000888463
0.000890486
0.000889964
0.000891073
0.000890856
0.000891048
0.000891137
0.000890411
0.000890806
0.000889174
0.000889866
0.000887387
0.000888343
0.000884867
0.000886212
0.000883469
0.000931867
0.000897102
0.000914789
0.000966601
0.000949148
0.00100128
0.000984056
0.00103601
0.00101861
0.00107103
0.00105349
0.0011063
0.00108864
0.00114175
0.00112401
0.00117734
0.00115954
0.00121297
0.00119516
0.00124855
0.00123078
0.00128397
0.0012663
0.00131914
0.00130161
0.00135392
0.0013366
0.00138821
0.00137115
0.00142187
0.00140514
0.00145481
0.00143845
0.0014869
0.00147098
0.00151805
0.00150261
0.00154816
0.00153326
0.00157716
0.00156283
0.00160496
0.00159124
0.0016315
0.00161842
0.00165671
0.0016443
0.00168053
0.00166882
0.00170289
0.00169192
0.00172374
0.00171354
0.00174301
0.0017336
0.00176063
0.00175206
0.00177649
0.00176882
0.00179038
0.00178373
0.00180212
0.00179657
0.00181192
0.00180717
0.00181911
0.00181623
0.00182349
0.00182107
0.00183136
0.00182318
0.00183481
0.00182512
0.00182188
0.00189803
0.00189623
0.00189251
0.00189329
0.000877664
0.000879793
0.00188928
0.00189698
0.00189798
0.00190295
0.0019005
0.00190095
0.00189934
0.00189588
0.00189067
0.00182535
0.00181382
0.00180634
0.00181551
0.00180755
0.00181953
0.00182164
0.00183906
0.00184896
0.00186628
0.00187607
0.00188739
0.00188948
0.00188564
0.00187638
0.00186482
0.00185377
0.00184024
0.00182926
0.00189374
0.00182411
0.00182221
0.00181817
0.0018059
0.00180539
0.00181771
0.00179728
0.00180087
0.00178752
0.00179303
0.00177456
0.00178132
0.00175942
0.00176726
0.0017425
0.00175121
0.00172368
0.00173333
0.00170333
0.0017137
0.00168156
0.00169265
0.00165829
0.00167013
0.00163357
0.00164612
0.0016075
0.00162071
0.00158019
0.00159401
0.00155174
0.00156612
0.00152221
0.00153712
0.0014917
0.00150709
0.00146028
0.00147611
0.00142804
0.00144427
0.00139507
0.00141166
0.00136148
0.00137836
0.00132735
0.00134448
0.00129281
0.00131014
0.00125796
0.00127543
0.00122291
0.00124046
0.00118775
0.00120534
0.00115258
0.00117017
0.00111749
0.00113503
0.00108253
0.00109999
0.00104777
0.00106513
0.00101326
0.00103049
0.000979042
0.000996112
0.000944894
0.000962066
0.000910606
0.000927538
0.000876216
0.000893463
0.000862126
0.000858963
0.000860788
0.000865436
0.000863693
0.000868236
0.000866931
0.000870464
0.000869407
0.000872176
0.000871391
0.000873317
0.000872819
0.000873881
0.000873672
0.000873861
0.000873944
0.000873261
0.000873634
0.000872087
0.000872745
0.000870354
0.000871287
0.000868145
0.000869302
0.00086536
0.000866727
0.000862878
0.000864087
0.000895626
0.000861642
0.000878583
0.00092998
0.000912716
0.000964388
0.000947109
0.000998535
0.000981439
0.001033
0.00101574
0.00106774
0.00105035
0.0011027
0.0010852
0.00113784
0.00112026
0.00117308
0.00115546
0.00120835
0.00119073
0.00124355
0.00122598
0.00127859
0.00126111
0.00131334
0.00129602
0.00134771
0.00133059
0.00138156
0.00136472
0.0014148
0.00139828
0.0014473
0.00143116
0.00147896
0.00146326
0.00150969
0.00149447
0.0015394
0.0015247
0.00156801
0.00155387
0.00159545
0.0015819
0.00162165
0.00160873
0.00164655
0.00163429
0.0016701
0.00165852
0.00169223
0.00168137
0.00171288
0.00170277
0.00173198
0.00172266
0.00174947
0.00174097
0.00176523
0.00175761
0.00177909
0.00177244
0.00179088
0.00178529
0.00180067
0.00179601
0.00180796
0.0018048
0.00181227
0.0018105
0.00181479
0.00181377
0.00181059
0.00190294
0.00190073
0.0018207
0.00181329
0.00189929
0.00189992
0.00189422
0.00190309
0.00190387
0.000874647
0.000857625
0.000845988
0.00084468
0.00190817
0.00190567
0.00190533
0.001903
0.0018988
0.00189298
0.00180887
0.00180115
0.00178736
0.00179491
0.00182553
0.00183364
0.0018526
0.00185633
0.00187518
0.00188514
0.0018931
0.00188576
0.00187522
0.00186364
0.00184774
0.00183858
0.00182509
0.00180319
0.00181078
0.00190044
0.00180643
0.00178847
0.00181147
0.00181419
0.00180291
0.00179795
0.00179443
0.00180236
0.00178622
0.00179011
0.00177591
0.00178151
0.00176296
0.00176971
0.00174794
0.00175571
0.00173108
0.00173975
0.00171245
0.001722
0.00169228
0.00170256
0.00167067
0.00168167
0.00164762
0.00165934
0.00162319
0.00163559
0.00159745
0.00161049
0.0015705
0.00158413
0.00154242
0.00155661
0.00151329
0.001528
0.00148319
0.00149837
0.0014522
0.00146781
0.00142038
0.0014364
0.00138785
0.00140421
0.00135468
0.00137134
0.00132098
0.0013379
0.00128686
0.00130397
0.00125241
0.00126968
0.00121776
0.00123511
0.00118298
0.00120038
0.00114817
0.00116558
0.00111342
0.00113079
0.00107878
0.00109609
0.00104433
0.00106154
0.00101011
0.00102719
0.000976148
0.000993095
0.000942514
0.000959305
0.000908575
0.000925446
0.000891641
0.000845565
0.000842122
0.0008441
0.000848761
0.000847141
0.000851387
0.00085014
0.000853537
0.000852524
0.000855166
0.000854418
0.000856255
0.000855779
0.000856795
0.000856594
0.000856782
0.000856858
0.000856217
0.000856568
0.000855107
0.00085573
0.000853462
0.00085435
0.000851345
0.000852457
0.0008486
0.000850041
0.000847188
0.000894125
0.000860538
0.000877267
0.000928122
0.000911013
0.00096174
0.000944901
0.000995639
0.000978653
0.00102983
0.00101271
0.00106427
0.00104703
0.00109892
0.00108158
0.00113373
0.00111632
0.00116862
0.00115117
0.00120352
0.00118608
0.00123833
0.00122095
0.00127297
0.00125569
0.00130731
0.00129019
0.00134126
0.00132435
0.00137469
0.00135806
0.00140749
0.00139119
0.00143957
0.00142364
0.00147081
0.00145531
0.00150113
0.00148611
0.00153045
0.00151594
0.00155868
0.00154472
0.00158577
0.00157239
0.00161165
0.00159889
0.00163626
0.00162414
0.00165955
0.0016481
0.00168146
0.00167071
0.00170193
0.00169191
0.0017209
0.00171163
0.00173828
0.00172982
0.00175396
0.00174637
0.00176781
0.00176116
0.00177966
0.00177402
0.00178947
0.00178485
0.00179687
0.00179357
0.00180158
0.00179956
0.00180333
0.00180304
0.00180154
0.0018025
0.0018027
0.00179673
0.00179315
0.00178715
0.00179406
0.00190697
0.00190375
0.00190532
0.00190587
0.000840896
0.000843439
0.0018983
0.00190837
0.00190906
0.00191262
0.00191008
0.00190899
0.00190588
0.00190094
0.00189421
0.00177608
0.00177797
0.00177442
0.0017911
0.00180011
0.0018127
0.00183717
0.00184348
0.00186137
0.00186935
0.00188232
0.00189198
0.00188482
0.00187341
0.00186029
0.00184771
0.0018329
0.00181652
0.00180027
0.00177963
0.00178897
0.00177757
0.00190642
0.00179709
0.00177175
0.00179248
0.00178658
0.0017968
0.00179764
0.00178945
0.00179204
0.00178387
0.00178802
0.00177502
0.0017795
0.00176435
0.00177003
0.00175138
0.00175814
0.00173641
0.00174415
0.00171963
0.00172825
0.00170114
0.0017106
0.00168112
0.00169133
0.00165968
0.0016706
0.00163685
0.00164846
0.00161269
0.00162495
0.00158726
0.00160014
0.00156065
0.00157411
0.00153294
0.00154694
0.00150419
0.0015187
0.00147449
0.00148947
0.00144391
0.00145932
0.00141252
0.00142832
0.00138041
0.00139656
0.00134767
0.00136412
0.0013144
0.0013311
0.00128069
0.0012976
0.00124666
0.00126372
0.0012124
0.00122956
0.00117801
0.00119522
0.00114357
0.00116079
0.00110916
0.00112636
0.00107487
0.001092
0.00104073
0.00105778
0.0010068
0.00102374
0.000973122
0.000989934
0.000939732
0.000956391
0.000906261
0.000922944
0.00087302
0.000889687
0.000839462
0.000856225
0.000825755
0.000822546
0.000824393
0.000829165
0.000827383
0.000832138
0.000830723
0.000834656
0.00083345
0.000836707
0.000835743
0.000838258
0.000837546