/*--------------------------------*- C++ -*----------------------------------*\
  =========                 |
  \\      /  F ield         | OpenFOAM: The Open Source CFD Toolbox
   \\    /   O peration     | Website:  https://openfoam.org
    \\  /    A nd           | Version:  10
     \\/     M anipulation  |
\*---------------------------------------------------------------------------*/
FoamFile
{
    format      ascii;
    class       surfaceScalarField;
    location    "60";
    object      phi;
}
// * * * * * * * * * * * * * * * * * * * * * * * * * * * * * * * * * * * * * //

dimensions      [0 3 -1 0 0 0 0];

internalField   nonuniform List<scalar> 
57492
(
0.000235842
-1.05991e-05
-4.37433e-05
-0.000181499
-0.000162643
0.000267596
0.000130889
-2.87628e-05
8.08598e-05
0.000323384
-0.000375481
0.0031598
0.00338642
-0.000272093
-0.00627413
-0.00862824
0.00404528
0.00774276
0.000740356
-0.000681656
-0.000357462
0.000298762
-0.0013201
0.000229517
-8.03108e-05
0.0011709
0.000282559
-0.000862307
0.00158866
-0.00463342
0.00442585
-0.00138109
0.00134095
0.00424933
-0.00400162
-0.000611794
-0.000206616
0.000684544
0.000133867
-0.000122506
-0.000832513
0.000343225
0.000231849
-0.000325334
-2.90208e-05
-5.32856e-05
7.85184e-05
0.00175237
-0.00169047
-0.000633788
0.000571892
0.000251384
0.0014139
8.70764e-05
-0.000324429
0.000788287
0.00333525
-0.00379911
-0.000660606
0.00326112
-0.00292494
0.000135459
-0.000288559
0.0001531
-0.00166337
0.00122
0.000578836
-0.00465989
0.000189728
0.00333568
0.00113448
0.00122795
-0.00473003
-0.00115781
-0.000133022
-0.000196513
-0.000702195
0.00103173
-0.000287073
0.000176082
-2.2031e-05
-0.00254601
0.00216095
0.000734664
-0.000349607
-0.00304926
0.000925569
-0.000422318
-0.00112753
0.000596324
0.000456693
7.45167e-05
-0.000778844
-0.000362221
1.35316e-05
-0.000367154
-0.00113349
0.00129039
0.000210253
-0.000415916
0.000116345
-6.75828e-05
0.000770896
-0.000513129
-0.000478059
0.000220292
-0.000665225
0.000534183
0.000901938
-0.000911105
-0.00174618
0.00168924
0.000968043
-0.00207322
-0.000496103
0.00165822
-0.000707308
-0.000152035
0.000859343
-0.000271238
-0.00043607
-0.00137441
0.00189186
-0.000788695
0.000203052
-0.00076716
-0.000810297
-0.0005851
0.000814617
-0.000233018
-0.00190185
0.00115083
0.000751015
-0.00432169
0.00241984
0.00488897
-0.000833458
0.000359502
-0.00441501
0.00359742
-7.07375e-05
0.00136229
-0.000740946
0.0048968
-0.00498931
0.00144914
0.000312178
-0.00147876
0.00146075
-9.19221e-05
0.00176908
-0.000663132
-0.00131729
0.000211346
0.00198062
0.000100635
0.000904505
-0.000562505
0.00111875
0.000876323
0.00119908
-0.0047539
-0.00063646
0.000548461
0.0048419
-0.00488701
-0.000300438
0.000433547
0.00121686
0.00451317
-0.00443781
-0.00129223
0.000888409
-0.00430497
-0.00278003
0.00252994
0.0025357
-0.00228561
-0.000274644
0.00320405
-0.00570944
1.48611e-05
-0.000116664
-8.06149e-07
0.000102609
-0.000321121
1.06482e-05
6.7e-05
-0.000135947
-0.000252175
-5.63258e-05
6.66205e-06
1.11281e-05
-1.19342e-05
8.85524e-06
2.27283e-06
0.00730413
0.00378569
-0.00587991
-0.0052099
0.00233701
-0.000701658
0.00566878
-0.00785378
0.00309844
0.00709234
0.0022924
-0.00636049
0.00162402
-0.0028657
0.00213356
-0.000891878
0.00235618
-0.00291432
0.00218216
-2.98695e-05
2.18346e-05
-2.56422e-06
-7.01967e-05
-3.41605e-06
-0.000222696
-2.90002e-05
-0.00293827
0.00534772
0.00339286
-0.00580232
0.00436305
-0.00494513
0.00298443
0.00474764
-0.00238434
0.0100865
-0.00148238
-0.00178976
-0.00681434
0.0022418
0.00542065
0.00242403
0.00160527
-0.00500684
0.00564338
4.67922e-05
-7.55549e-05
0.000127652
0.000816107
0.0017574
-0.000626272
-0.00194724
0.00103987
9.96234e-05
-9.57244e-05
2.63098e-05
6.94145e-05
-0.000297961
0.000202236
-0.00660446
0.00342295
-0.00201306
0.00519456
-0.00574111
-0.00249664
0.00163329
-0.00262474
0.00208815
-0.00520452
0.00195151
-2.65925e-05
-0.000944081
-0.000980831
-0.000711472
0.00222714
0.000435839
-0.000834469
-8.52315e-05
0.000208229
-0.000771406
-8.96555e-05
-0.000271419
-0.00144407
-0.000236908
-6.25745e-05
1.85496e-05
0.000280933
-0.000215489
-0.000521692
0.000500273
0.000137469
1.68537e-05
-0.000369812
7.914e-05
-4.24523e-06
0.000100344
-2.65472e-06
-0.000640993
0.000369573
8.34402e-05
-0.000724433
0.000172321
-0.000470281
0.00427361
0.00333162
-0.000178521
0.00212864
-0.00648326
-1.03711e-05
0.00226396
-0.00179748
-0.000456113
0.000291741
0.00316413
-0.00346625
0.00326975
0.00184284
-0.000501605
-0.00461098
-0.00103218
0.000499704
0.00380222
0.00399117
-0.00318051
-0.00164232
-0.00303457
0.0012508
0.00342609
-0.00118524
0.00350497
-0.00396205
0.000422933
-0.00464274
8.24433e-05
3.37427e-05
-4.58503e-06
0.00104535
-0.000616413
-0.000591577
7.69044e-05
-0.000324469
0.00129291
0.000363595
-1.90947e-05
-0.000187215
0.000331758
6.83226e-05
-0.000212866
0.000991607
-0.00121496
3.61352e-05
-0.000357567
0.000830803
0.000518371
-0.000125084
9.92753e-05
-0.00611351
0.0036509
0.00588556
0.00772179
-0.00200673
-0.0082117
-0.0028559
0.00446418
-9.71046e-05
-0.000874238
-0.000162146
-0.000522147
9.12658e-06
4.79032e-05
-0.000129945
3.72163e-05
4.48259e-05
-0.00013001
0.000144534
3.33788e-05
-0.000299434
3.94794e-05
-0.000265259
-0.000312715
5.58275e-05
-0.000803597
-0.000335901
-0.000832116
-0.000892933
0.0010205
0.000704552
3.4071e-05
0.000440384
-0.00130657
-0.00116463
0.000305765
-0.00293415
0.00133078
-6.00026e-05
-0.0035029
0.000809636
-0.000240886
0.000875993
-0.00334735
0.00256415
-9.27957e-05
0.000679022
-0.00272844
0.00292541
0.0025282
-0.0101972
-0.00176568
0.00218208
0.00302175
-0.00345665
0.00206074
-0.000320917
4.06711e-07
1.6447e-05
-3.40136e-06
3.80807e-06
0.000284233
-4.12977e-05
0.0055962
-0.00341533
-0.00248312
0.000302243
0.00484194
1.33121e-05
0.00464475
0.000164631
-0.00508402
0.00137806
0.00329874
-3.20526e-05
0.000549345
-0.00291511
0.00374382
5.35885e-06
-8.76021e-06
0.000759157
-0.00211978
-0.00284641
0.00123185
0.00308344
0.000869056
-4.94385e-05
-0.000913695
9.40783e-05
0.000288462
-8.4631e-05
-0.00111844
0.000246302
0.00140632
0.000203058
-0.00103304
-0.00013491
7.58696e-05
-7.34116e-06
1.03155e-05
-2.65513e-06
-3.19197e-07
1.09212e-05
-2.41025e-07
-1.80213e-05
4.65064e-05
-0.000104144
6.85585e-05
-0.0017172
0.00265098
-0.000761467
0.00291706
-0.00378446
-0.000849789
6.37653e-06
-0.00153577
0.0017757
-0.00399226
0.000241346
-0.00273678
-0.00183156
0.000576076
0.00269157
0.0029112
-0.00541305
0.00260495
0.00429322
-0.00420659
0.00224014
-0.00308412
0.00160619
-0.000762205
0.00245535
-0.00302329
0.00280807
0.00437062
0.00187627
0.00500039
-0.000232525
-0.00496613
0.000198271
0.00554071
-0.000660884
0.000120558
0.00552924
-0.000903643
8.26711e-05
-0.00470827
0.00396873
-0.00137577
0.00293628
0.00430772
-0.00140462
0.00114152
-0.00404462
0.00127014
0.00438775
-0.00135017
-0.00387603
-0.00166619
0.00413761
0.00106723
-0.00369247
-0.00186026
0.00362016
-0.00237893
-0.00323912
0.00215476
0.0034633
-0.00239497
-0.00326721
0.00328324
0.00223489
0.003046
-0.0014745
-0.00380639
0.0030198
-0.00317988
-0.00258918
0.00261365
0.00299533
-0.00204074
0.00249756
-0.00406883
0.0036149
-0.00102057
-0.00506536
0.00105331
0.00537459
-0.00136253
0.0019102
-0.000265643
0.000992205
-0.00105818
0.000331612
-0.000108735
0.001272
-0.00142891
-5.30314e-05
0.000305611
0.000111015
-0.0011214
-0.00175388
0.00114113
-1.76315e-07
-6.471e-08
3.10683e-07
-4.86998e-07
-0.000104157
-0.00193672
0.00147837
-0.00172526
-7.01632e-05
0.00169127
4.8017e-05
-0.0018083
3.50226e-05
-0.000246115
0.00161148
0.000271116
-0.00163648
0.00165502
0.000469105
-0.00237024
0.00164888
0.00161762
-2.45394e-06
4.94032e-07
3.57026e-05
-4.76615e-06
2.3122e-06
-4.27211e-06
-5.55159e-06
4.24169e-06
-5.50159e-05
1.03048e-06
-6.58206e-06
5.27217e-06
-4.3962e-05
2.13001e-05
-0.000264411
2.2194e-05
-6.6156e-05
4.34941e-05
5.31941e-05
-5.3378e-06
-0.00017294
-1.69054e-05
7.00995e-05
-2.22432e-05
0.00142546
0.00328026
-0.00420602
0.00132739
-0.00446604
0.0045641
0.00471512
-0.000107465
-0.00118218
-0.00244431
0.00115803
0.00246847
-0.000710491
0.00272175
-0.00319345
0.000157244
-0.00331205
0.00392507
-0.00393801
-1.68262e-05
2.9768e-05
0.0039468
3.12973e-05
-5.30257e-05
-2.89986e-05
-0.0039074
-1.61614e-06
0.00399938
-5.32553e-06
-4.72537e-05
0.00409343
5.45994e-05
-0.000148646
2.5273e-05
0.00421807
-0.000149915
0.00416651
-0.00411982
-2.14269e-05
-0.000200651
0.00443797
-1.9247e-05
0.00407161
-0.000105746
-0.00397157
-9.3647e-05
-0.00393522
-4.16699e-05
-0.00390634
2.41586e-06
-0.00396571
4.25413e-05
-0.00387626
-0.000118452
-0.00019623
0.00465322
-1.90287e-05
0.00390096
-2.55826e-05
-2.39616e-05
-0.00384919
-3.42495e-05
-0.00388255
-1.76693e-05
-3.19813e-05
-0.00404485
0.000227643
-4.75775e-06
0.00467632
-1.83375e-05
0.00392107
-2.48618e-05
-0.00399833
8.38009e-05
0.00469874
-4.44221e-06
-1.79823e-05
-4.35665e-06
0.00472026
-1.71577e-05
0.00394031
-2.36858e-05
0.00395904
-2.30829e-05
-2.74413e-05
-0.00399307
-2.43425e-05
-0.00399208
-3.36893e-05
-3.93382e-06
0.00474099
-1.67954e-05
0.003977
-2.18961e-05
-4.81493e-06
-0.0039634
-2.4851e-05
-0.00396238
-3.45182e-05
-3.71413e-06
0.00476064
-1.59422e-05
0.00399461
-2.13229e-05
-4.72354e-06
-0.00393311
-2.55636e-05
-0.00393218
-3.49255e-05
-3.03741e-06
0.00477927
-1.55865e-05
0.0040117
-2.01274e-05
-4.82531e-06
-0.00390234
-2.59421e-05
-0.00390136
-3.56399e-05
-2.33099e-06
0.00479631
-1.47134e-05
0.00402896
-1.95887e-05
-4.70771e-06
-0.00387108
-2.65613e-05
-0.00387012
-3.59499e-05
-6.53696e-07
0.00481134
-1.43697e-05
0.00404669
-1.83864e-05
4.20494e-06
-0.0038484
-2.68809e-05
-0.00382941
-3.65035e-05
2.03426e-06
0.00482278
-1.34771e-05
0.0040666
-1.78784e-05
2.03132e-05
-0.00370886
-0.000159858
-0.00373303
-7.607e-05
7.70635e-06
0.00482822
-1.31429e-05
0.00407227
2.04141e-06
1.97936e-05
-0.00369552
-3.31273e-05
-0.00367428
-3.89551e-05
1.83611e-05
0.00482209
-1.22384e-05
0.00405664
3.39896e-05
4.75711e-05
-0.00353406
-0.000209031
-0.00353759
-8.9121e-05
0.000204726
0.00462927
-1.19066e-05
0.00419277
6.85983e-05
5.468e-05
-0.00348688
-0.000101863
-0.00346818
-1.47251e-05
0.000181577
0.00430068
0.000147018
0.00427427
0.000100073
8.89189e-05
-0.000159516
-0.00341628
-0.00342354
4.42702e-05
1.13276e-05
3.10475e-05
0.0042583
0.00425819
2.74106e-05
-0.00350751
0.00359426
-0.000188613
-0.0034958
-0.000171223
0.000153497
-0.000165196
-0.00340458
4.27869e-05
-0.00331283
-0.00354724
0.00360866
-9.45443e-05
-0.000162014
-0.00350569
0.00353472
-5.59119e-05
-5.68942e-05
-0.00356314
0.0035912
-5.39977e-05
-5.49808e-05
-0.00361863
0.00364571
-5.19295e-05
-5.29988e-05
-0.00367222
0.00394967
-4.98035e-05
-5.08496e-05
-0.00396423
0.00393505
2.75619e-05
-4.88114e-05
-0.00408679
0.00407915
-4.5388e-05
-0.000121969
-0.00397098
0.003935
-0.00011267
6.09156e-05
-0.00386276
0.00388397
-4.04518e-05
-7.7675e-05
-0.0039043
0.00392403
-3.8067e-05
-3.93579e-05
-0.00394298
0.0039614
-3.55698e-05
-3.69396e-05
-0.00397903
0.00399611
-3.30249e-05
-3.44306e-05
-0.00401242
0.00402818
-3.04708e-05
-3.18968e-05
-0.00404318
0.00405763
-2.79305e-05
-2.93679e-05
-0.00407135
0.00408451
-2.54043e-05
-2.68589e-05
-0.00407307
0.00418071
3.93785e-05
-4.64558e-07
0.00418156
3.01964e-05
-2.70744e-05
7.27901e-05
0.00421259
-1.61966e-05
0.00424731
0.00418458
-0.00410346
-1.25214e-05
-0.00423749
0.00424001
2.48822e-05
4.71637e-05
0.00409004
-0.00405753
-3.0474e-05
2.05763e-05
0.00404318
-0.00402805
-3.35213e-05
-3.22234e-05
0.0040124
-0.00399594
-3.65844e-05
-3.52388e-05
0.00397896
-0.00396116
-3.96999e-05
-3.83021e-05
0.00394283
-0.00392366
-4.28519e-05
-4.14123e-05
0.00390397
-0.00388351
-4.60429e-05
-4.45539e-05
0.00394152
-0.00391383
-4.91247e-05
-4.77319e-05
0.0039568
-0.0038908
-0.000107666
-5.0672e-05
0.00384183
-0.00379281
-6.47542e-06
-4.6563e-05
0.00381549
-0.00381468
-1.84711e-05
-9.57757e-05
0.00367189
-0.00364539
-6.01917e-05
-5.89893e-05
0.00361852
-0.00359095
-6.24892e-05
-6.13942e-05
0.00356305
-0.00353451
-6.44985e-05
-6.3537e-05
0.00350562
-0.00351547
-6.62231e-05
-6.53878e-05
0.00348744
-0.00350884
-6.77222e-05
-6.69786e-05
0.00345512
-0.00337476
-3.60966e-05
-6.84453e-05
-0.00330874
-2.3229e-05
-0.00349041
-0.00017059
0.00420562
4.87305e-05
-2.29673e-05
0.00424679
8.59743e-05
-0.000105187
-0.00329361
3.05972e-05
-0.00325336
0.000141272
-0.000166382
-0.0034653
-0.0033685
-0.00350341
0.00347612
-0.000161327
0.00351334
-0.00351157
-0.000172356
-0.000161287
-0.00346065
0.00349004
-0.000123931
-0.000146546
-0.00351883
0.00354735
-8.44306e-05
-8.5689e-05
-0.00357526
0.00360282
-8.15537e-05
-8.28897e-05
-0.00362975
0.00365633
-7.85027e-05
-7.99343e-05
-0.00368228
0.00370779
-7.53127e-05
-7.68062e-05
-0.00373258
0.0038322
-7.20561e-05
-7.36035e-05
-0.00378053
0.00380375
-6.86055e-05
-7.02987e-05
-0.00393148
0.00388391
-6.51001e-05
-6.68116e-05
-0.00386935
0.00389016
-6.12624e-05
-6.31202e-05
-0.00391016
0.00392959
-5.75012e-05
-5.93565e-05
-0.00394825
0.00396636
-5.36836e-05
-5.55925e-05
-0.0039837
0.00400051
-4.9827e-05
-5.17729e-05
-0.00401655
0.00403205
-4.59716e-05
-4.79361e-05
-0.0040468
0.00406102
-4.21519e-05
-4.41205e-05
-0.00407451
0.00408747
-3.83671e-05
-4.03509e-05
-0.00409948
0.00414395
-5.0943e-06
-1.24682e-05
6.90056e-07
-2.006e-05
0.00423196
-1.68644e-05
0.00422318
-0.00414248
0.00419398
-2.77302e-06
3.16702e-05
0.00418594
-0.00417574
1.46873e-05
0.00416268
2.92391e-07
9.3248e-06
2.72214e-05
0.00421024
0.00423657
0.0041647
-0.00412254
-5.46839e-05
3.61182e-05
0.00407455
-0.0040609
-4.4128e-05
-2.74115e-05
0.00404676
-0.00403187
-4.8418e-05
-4.63538e-05
0.00401647
-0.00400028
-5.27745e-05
-5.06345e-05
0.00398359
-0.00396608
-5.72055e-05
-5.49982e-05
0.00394807
-0.00392925
-6.16761e-05
-5.94226e-05
0.00390993
-0.00388983
-6.61443e-05
-6.38689e-05
0.00386928
-0.0038479
-7.05041e-05
-6.82797e-05
0.00382603
-0.00385893
-7.47684e-05
-7.25418e-05
0.0038288
-0.00375649
-7.87879e-05
-7.66902e-05
0.0037716
-0.00370737
-8.27108e-05
-8.06619e-05
0.003682
-0.00365593
-8.62606e-05
-8.4353e-05
0.00362952
-0.00360244
-8.95701e-05
-8.78017e-05
0.00357504
-0.00354698
-9.25575e-05
-9.09455e-05
0.0035186
-0.00348959
-9.52286e-05
-9.37659e-05
0.00346028
-0.00343038
-9.7628e-05
-9.62907e-05
0.00340023
-0.00333655
-9.97843e-05
-9.85859e-05
0.00328761
-0.00321385
-4.31679e-05
-7.21612e-05
-0.00350463
-0.000173325
1.59408e-05
-9.65899e-05
-0.00317271
-0.00316444
-3.34658e-05
-0.000176915
-0.00321329
-2.20141e-06
0.00417932
0.00417936
1.05443e-05
-0.000110376
9.74051e-05
-0.00345232
-0.000139988
-0.00347502
-7.35804e-06
-9.20409e-05
-0.00307332
-5.78715e-05
-0.00311393
-0.00344801
0.00420739
-0.00418517
-2.49892e-05
0.00417414
3.10482e-05
5.3701e-05
-2.10588e-05
0.0041776
1.87297e-05
0.00421433
-0.00346546
0.0035341
-0.000208623
-0.000188375
0.000137233
-0.00342388
0.00351494
2.40951e-05
0.000168173
-0.00370721
-0.000138896
-0.00356055
0.0035621
-0.000173907
-0.000199779
-0.00354507
0.0035162
-0.000132452
-0.000144256
-0.00351818
0.00351007
-0.000115825
-0.000148525
-0.00353814
0.00356587
-0.000112164
-0.000113755
-0.003593
0.00361979
-0.00010834
-0.000110021
-0.00364597
0.00367179
-0.000104329
-0.000106116
-0.003697
0.00372181
-0.000100125
-0.000102013
-0.00374595
0.00376965
-9.5754e-05
-9.77399e-05
-0.00379265
0.00381523
-9.1185e-05
-9.32972e-05
-0.00383706
0.00385842
-8.64546e-05
-8.86497e-05
-0.00387911
0.00389933
-8.14843e-05
-8.38105e-05
-0.0039188
0.00393775
-7.64485e-05
-7.88252e-05
-0.00395594
0.0039736
-7.13501e-05
-7.37815e-05
-0.00399052
0.00400691
-6.62178e-05
-6.86875e-05
-0.00402256
0.00403768
-6.10977e-05
-6.3584e-05
-0.00405208
0.00406596
-5.60351e-05
-5.85181e-05
-0.00407914
0.00409181
-5.10431e-05
-5.35266e-05
-0.00411509
0.00413306
-2.30679e-05
-3.574e-05
-2.0443e-05
1.89599e-05
-1.11631e-05
0.00422416
-2.61686e-05
-1.56555e-05
0.00422114
0.00421597
0.00420435
0.00417752
-0.00416249
-3.40171e-07
-0.00418166
0.00416827
2.39368e-05
-3.84921e-06
0.00410393
-0.00410649
-5.21279e-05
-2.24438e-05
0.00407914
-0.0040658
-5.74654e-05
-5.4759e-05
0.00405201
-0.00403747
-6.29583e-05
-6.0147e-05
0.00402245
-0.00400665
-6.85694e-05
-6.56573e-05
0.00399037
-0.0039733
-7.42727e-05
-7.12808e-05
0.00395575
-0.00393741
-8.00144e-05
-7.6974e-05
0.0039186
-0.00389902
-8.57295e-05
-8.26777e-05
0.00387898
-0.00385815
-9.13297e-05
-8.83173e-05
0.00383688
-0.00381486
-9.67847e-05
-9.38169e-05
0.00379241
-0.0037692
-0.000102001
-9.91416e-05
0.00374562
-0.00372135
-0.000106982
-0.000104239
0.00369668
-0.00367132
-0.000111614
-0.000109025
0.00364564
-0.00361929
-0.000115916
-0.000113491
0.00359263
-0.00356533
-0.000119852
-0.000117608
0.00353774
-0.00350953
-0.000123432
-0.000121362
0.00348105
-0.00345198
-0.000126692
-0.000124778
0.00342266
-0.00339277
-0.000129672
-0.000127905
0.00333416
-0.00324482
-0.000132506
-0.000130778
0.00318204
-0.00316171
-7.82063e-05
-9.62426e-05
-4.61897e-05
1.8523e-05
-0.00308626
-0.00311819
-8.97034e-05
0.000125022
-0.00344011
-7.08999e-05
-0.00323443
4.07968e-06
0.0041544
0.00419197
-4.97601e-06
0.000177123
-0.0035769
4.57479e-05
-0.00310054
0.000790478
-0.00285282
0.00371122
5.17046e-05
-9.93012e-05
-0.0030706
-6.93272e-06
-0.00302763
-0.0022888
0.00350825
0.000398164
-0.00173685
-0.000280828
-0.00339388
-0.00335763
0.00352713
-1.32719e-06
0.000154625
-4.005e-06
-0.00351906
0.00351425
-0.000203816
-0.000130824
-0.00351348
0.00349176
-0.000152191
-0.000199004
-0.0034971
0.00351242
-0.000147772
-0.000149595
-0.00350902
0.00353648
-0.000143284
-0.000145126
-0.0035634
0.00359003
-0.000138787
-0.000140678
-0.0036161
0.00364186
-0.000134099
-0.000136095
-0.00366705
0.0036919
-0.000129181
-0.000131304
-0.00371616
0.00374005
-0.000124015
-0.000126271
-0.00376331
0.00378616
-0.000118608
-0.000120996
-0.00380835
0.00383012
-0.000112957
-0.000115484
-0.0038512
0.00387183
-0.000107082
-0.000109735
-0.00389178
0.00391128
-0.000100984
-0.000103764
-0.00393007
0.00394837
-9.47493e-05
-9.7614e-05
-0.00396595
0.00398303
-8.84291e-05
-9.13591e-05
-0.00399939
0.00401524
-8.20722e-05
-8.50442e-05
-0.00403038
0.00404502
-7.57364e-05
-7.87235e-05
-0.00405896
0.0040724
-6.94787e-05
-7.24554e-05
-0.00408516
0.00409745
-6.33341e-05
-6.62904e-05
-0.00412195
0.00415621
-5.73269e-05
-6.02397e-05
-0.00415657
0.00416368
-3.20986e-05
-2.08042e-05
-0.00418951
0.00419286
7.39074e-07
5.21769e-06
3.24629e-05
-1.56344e-05
0.00420431
-5.34127e-07
-3.65027e-05
0.00422989
0.00418633
3.31458e-05
1.55816e-05
0.00417543
0.00423348
-1.83176e-05
3.48803e-07
0.00419557
0.00420161
4.25574e-06
-3.43834e-05
0.0042221
0.00421893
0.00421067
-0.00418656
-1.77045e-07
-0.00428426
0.00417989
6.99789e-05
-7.85603e-05
0.00416655
-0.00414735
-1.95366e-05
-2.38608e-05
0.00410913
-0.00409735
-6.39124e-05
-6.0661e-05
0.00408512
-0.00407221
-7.03757e-05
-6.69848e-05
0.00405886
-0.00404478
-7.70327e-05
-7.35012e-05
0.00403025
-0.00401497
-8.38488e-05
-8.01944e-05
0.00399922
-0.00398272
-9.07713e-05
-8.70265e-05
0.00396576
-0.00394805
-9.773e-05
-9.39346e-05
0.00392988
-0.00391096
-0.000104646
-0.000100844
0.00389161
-0.0038715
-0.000111433
-0.000107672
0.00385098
-0.00382973
-0.000118033
-0.000114344
0.00380807
-0.00378571
-0.000124368
-0.000120797
0.00376298
-0.00373957
-0.000130392
-0.000126969
0.0037158
-0.00369138
-0.000136037
-0.000132792
0.00366663
-0.00364126
-0.000141288
-0.000138237
0.00361559
-0.00358931
-0.000146126
-0.00014328
0.00356276
-0.00353563
-0.00015056
-0.000147916
0.00350824
-0.00348031
-0.000154626
-0.000152166
0.00345214
-0.00342344
-0.000158369
-0.000156075
0.00339453
-0.00336516
-0.00016187
-0.000159692
0.00329831
-0.0032113
-0.000165215
-0.000163097
0.00318892
-0.00315009
-0.000138128
-0.000112087
-9.3347e-05
6.79256e-05
-0.00304518
-0.00310071
-0.000142726
0.000119785
-0.00338278
-1.34455e-05
-0.00317524
0.000304428
-0.00309085
4.66203e-05
-0.00315409
0.00420051
-0.00419743
-2.34113e-06
0.00419312
-2.91056e-05
1.67137e-05
-8.72138e-06
0.00421411
-2.9614e-05
0.00422622
0.000325089
-0.0027088
8.12075e-05
-0.00304091
-0.00151935
-0.00185398
-0.0027362
0.00318095
-4.65935e-05
-7.31411e-05
6.33648e-05
-0.0030354
-0.000118835
-0.00305502
-0.00250818
-0.000508842
-0.00328754
-0.00334819
0.00341827
-7.1407e-05
-1.26137e-05
-0.00347377
0.0034541
-0.000184151
-0.00018632
-0.00343622
0.00346322
-0.000179194
-0.000181119
-0.0034899
0.00351642
-0.0001743
-0.00017627
-0.0035426
0.00356858
-0.000169264
-0.000171302
-0.00359411
0.00361939
-0.000164067
-0.000166204
-0.00364417
0.00366868
-0.000158607
-0.000160883
-0.00369266
0.00371634
-0.000152855
-0.000155286
-0.00373946
0.00376223
-0.000146793
-0.000149389
-0.00378442
0.00380624
-0.000140423
-0.000143183
-0.00382743
0.00384823
-0.000133756
-0.000136679
-0.00386838
0.00388812
-0.000126815
-0.00012989
-0.0039072
0.00392584
-0.000119629
-0.000122844
-0.00394381
0.00396133
-0.000112266
-0.000115588
-0.00397816
0.00399453
-0.000104792
-0.000108192
-0.0040102
0.0040254
-9.72734e-05
-0.000100721
-0.00403993
0.00405397
-8.97817e-05
-9.32445e-05
-0.00406735
0.00408026
-8.23866e-05
-8.58326e-05
-0.00409252
0.00410433
-7.51452e-05
-7.85509e-05
-0.00411553
0.00412629
-6.80912e-05
-7.14412e-05
-0.00417003
0.00416547
-2.75391e-05
-6.45388e-05
-2.67485e-05
2.04683e-05
-5.59782e-05
0.00423982
1.3902e-05
-9.56871e-06
0.00422556
0.0042207
-7.21981e-06
-1.40805e-06
0.00418406
0.00417028
-3.0714e-05
4.18169e-05
0.00418446
0.00416949
0.00425203
0.00421802
-0.00419671
-2.14802e-05
-0.0041748
0.00422365
2.11338e-05
-3.53451e-05
0.00417466
-0.00412621
-6.7979e-05
-4.59198e-05
0.0041155
-0.00410418
-7.5237e-05
-7.13739e-05
0.00409244
-0.00408005
-8.27668e-05
-7.87193e-05
0.00406723
-0.00405373
-9.05392e-05
-8.63197e-05
0.00403978
-0.00402513
-9.85008e-05
-9.41404e-05
0.00401003
-0.00399422
-0.00010658
-0.00010212
0.00397798
-0.00396102
-0.000114693
-0.00011018
0.00394363
-0.00392552
-0.000122749
-0.000118234
0.00390701
-0.00388778
-0.000130657
-0.00012619
0.00386816
-0.00384785
-0.000138341
-0.000133965
0.00382717
-0.00380581
-0.000145722
-0.000141482
0.00378411
-0.00376177
-0.000152736
-0.00014867
0.0037391
-0.00371581
-0.000159327
-0.000155464
0.00369221
-0.00366803
-0.000165469
-0.000161828
0.00364358
-0.00361856
-0.000171146
-0.000167738
0.00359328
-0.00356747
-0.000176368
-0.00017319
0.00354143
-0.00351489
-0.000181168
-0.000178206
0.00348814
-0.00346092
-0.000185588
-0.000182824
0.00343352
-0.0034057
-0.000189688
-0.000187093
0.00337774
-0.00334944
-0.000193515
-0.000191057
0.00326671
-0.00320778
-0.000197058
-0.000194816
0.00315224
-0.00310304
-0.000168031
-0.000198272
-8.86707e-05
8.82065e-05
-0.00305455
-0.00306257
-0.000129142
9.27093e-05
-0.00317106
1.22629e-05
-0.00314088
1.76316e-06
0.00418179
0.00421619
-2.21603e-05
0.000194142
-0.00295991
-0.000291261
-0.00359832
2.08666e-05
-0.00302093
4.74008e-05
-0.00312029
8.1872e-05
-0.00305941
-0.00356955
-0.000792617
0.000272436
-0.000537947
-0.00330404
-0.000149794
-0.00317609
6.39886e-05
-0.00301118
-0.000120825
4.65823e-05
-0.00298031
-0.000113025
-0.00307037
-0.00318257
-0.00304355
0.00320615
-0.000209198
0.00317578
-0.00345574
-0.000512659
-0.000376609
-0.00333138
0.00340518
-0.000145199
-0.000137848
-0.00343069
0.00345625
-0.000209706
-0.000211837
-0.00348161
0.0035069
-0.000204478
-0.000206486
-0.00353189
0.00355677
-0.000199178
-0.000201263
-0.00358131
0.00360569
-0.000193641
-0.000195842
-0.00362966
0.00365343
-0.00018783
-0.000190178
-0.00367675
0.00369982
-0.000181683
-0.000184203
-0.00372242
0.00374474
-0.000175174
-0.000177882
-0.00376654
0.00378804
-0.00016829
-0.000171194
-0.00380899
0.0038296
-0.000161036
-0.000164135
-0.00384964
0.00386931
-0.000153428
-0.000156717
-0.00388839
0.00390707
-0.000145498
-0.000148964
-0.00392514
0.0039428
-0.000137291
-0.000140914
-0.00395984
0.00397645
-0.000128874
-0.000132621
-0.00399241
0.00400794
-0.000120321
-0.00012416
-0.00402283
0.00403727
-0.000111715
-0.000115608
-0.00405107
0.00406443
-0.000103137
-0.000107046
-0.00407715
0.00408944
-9.46701e-05
-9.85577e-05
-0.00410111
0.00411235
-8.63885e-05
-9.02221e-05
-0.00412301
0.00413327
-7.83491e-05
-8.21035e-05
-0.00414298
0.00418603
-7.05938e-05
-7.42473e-05
-0.00419735
0.00421506
-2.00521e-05
-3.80671e-05
-0.00416673
0.00419144
-2.29434e-05
1.92268e-05
3.215e-05
-2.15673e-05
0.00421498
3.17265e-05
-6.17531e-05
0.00422146
0.00424566
2.98417e-05
1.48176e-05
0.00419516
0.00422898
-6.76441e-06
-1.38475e-06
0.00419221
0.00417833
9.49456e-06
-1.75476e-05
0.00419252
0.0041776
-5.41627e-06
-8.8667e-06
0.00422839
0.00422906
2.37053e-05
-2.5487e-05
0.00421798
0.00424106
0.00424306
-0.00418743
-3.44961e-05
-0.00423048
0.00421344
-8.45484e-06
-9.57673e-06
0.00418838
-0.00417067
-3.91936e-05
-3.43897e-05
0.00414298
-0.00413316
-7.78011e-05
-7.36064e-05
0.00412297
-0.00411219
-8.60155e-05
-8.15673e-05
0.00410102
-0.00408923
-9.45583e-05
-8.98857e-05
0.00407704
-0.00406419
-0.000103384
-9.85153e-05
0.00405093
-0.00403701
-0.000112423
-0.000107398
0.00402268
-0.00400767
-0.000121588
-0.000116456
0.00399225
-0.00397616
-0.000130783
-0.000125597
0.00395967
-0.00394252
-0.000139906
-0.000134723
0.00392497
-0.00390677
-0.000148859
-0.000143733
0.0038882
-0.00386899
-0.000157553
-0.000152535
0.00384943
-0.00382925
-0.000165903
-0.000161041
0.00380875
-0.00378764
-0.000173838
-0.000169173
0.00376624
-0.00374427
-0.000181302
-0.000176867
0.00372202
-0.00369922
-0.000188263
-0.000184078
0.00367618
-0.00365262
-0.000194708
-0.000190783
0.00362883
-0.00360455
-0.000200644
-0.000196979
0.00358007
-0.00355514
-0.000206101
-0.000202685
0.00353003
-0.0035045
-0.00021112
-0.000207935
0.00347882
-0.00345276
-0.000215747
-0.000212774
0.00342657
-0.00340005
-0.000220032
-0.000217243
0.00337347
-0.00334657
-0.000223963
-0.000221394
0.00331963
-0.00325997
-0.000227692
-0.000225215
0.00320248
-0.00312512
-0.000190389
-0.000186627
-0.000158022
0.000103974
-0.00301632
-0.00310028
-0.00018286
6.68459e-05
-0.00304376
-0.00346379
-0.000529894
6.83543e-05
-0.0030074
0.0042497
-0.00425386
-1.87835e-05
0.00425263
-6.46796e-05
-1.15162e-06
-3.92885e-07
0.00421952
3.60133e-06
0.00420869
1.29144e-05
-0.00310639
4.79204e-05
-0.00308634
-1.16679e-05
-0.00315905
8.22076e-05
-0.00307763
0.000116108
-0.00308071
0.000149562
-0.0030259
-0.000144046
0.000143853
-0.00301613
-0.000202859
-0.00304147
-0.00310281
-0.00345722
0.0033271
-0.00038253
-0.000463855
0.000542882
-0.00354282
0.00357019
-0.00367992
-0.000354125
-0.000416933
-0.00322888
0.00330817
-0.000288491
-0.000278391
-0.003398
0.00346035
-0.00020755
-0.000227676
-0.00348428
0.00350816
-0.000233588
-0.000235762
-0.0035318
0.00355535
-0.000228025
-0.00023013
-0.0035786
0.00360173
-0.000222308
-0.000224512
-0.00362454
0.0036472
-0.000216299
-0.000218651
-0.00366949
0.0036916
-0.000209939
-0.000212471
-0.00371331
0.0037348
-0.000203177
-0.000205913
-0.00375586
0.00377667
-0.000195987
-0.000198942
-0.00379702
0.00381709
-0.000188361
-0.000191541
-0.00383667
0.00385593
-0.000180303
-0.000183709
-0.00387468
0.00389309
-0.000171838
-0.00017546
-0.00391095
0.00392845
-0.000163004
-0.000166825
-0.00394539
0.00396196
-0.000153855
-0.000157852
-0.00397794
0.00399353
-0.000144464
-0.000148603
-0.00400853
0.00402312
-0.000134915
-0.000139158
-0.00403712
0.0040507
-0.0001253
-0.000129605
-0.00406369
0.00407627
-0.000115713
-0.000120037
-0.00408826
0.00409984
-0.000106249
-0.000110548
-0.00411085
0.00412145
-9.69952e-05
-0.000101229
-0.00413151
0.00414119
-8.80246e-05
-9.21616e-05
-0.00415035
0.00415914
-7.93884e-05
-8.34079e-05
-0.00419608
0.00421901
-4.29826e-05
-7.50098e-05
-1.56187e-05
-1.53136e-05
-1.81592e-05
0.00424845
9.36675e-06
-4.69203e-05
0.00425902
0.00423972
-2.13989e-05
1.39054e-05
0.00420266
0.00418942
-6.31276e-06
-1.36332e-06
0.00419989
0.00418593
9.00633e-06
-1.66085e-05
0.00420012
0.00418525
-2.5064e-05
5.08166e-06
0.00424838
0.00418739
0.00424575
0.00424279
-0.00423792
-3.93673e-05
-0.00424056
0.004228
4.09822e-06
-7.33895e-06
0.0041983
-0.00415909
-7.84024e-05
-7.40126e-05
0.00415035
-0.00414108
-8.70715e-05
-8.23496e-05
0.00413147
-0.0041213
-9.61824e-05
-9.1178e-05
0.00411077
-0.00409965
-0.000105675
-0.000100416
0.00408816
-0.00407606
-0.000115484
-0.000110009
0.00406358
-0.00405048
-0.000125524
-0.00011988
0.00403699
-0.00402289
-0.000135695
-0.000129938
0.0040084
-0.0039933
-0.00014589
-0.00014008
0.00397782
-0.00396173
-0.000155999
-0.000150197
0.00394528
-0.00392823
-0.000165913
-0.000160179
0.00391084
-0.00389286
-0.000175534
-0.000169925
0.00387456
-0.0038557
-0.00018477
-0.000179337
0.00383654
-0.00381683
-0.000193545
-0.000188333
0.00379685
-0.00377635
-0.000201802
-0.000196844
0.00375561
-0.00373437
-0.000209505
-0.000204824
0.0037129
-0.00369097
-0.000216639
-0.000212247
0.00366884
-0.00364627
-0.000223212
-0.000219109
0.00362353
-0.00360038
-0.00022925
-0.000225427
0.00357709
-0.00355341
-0.000234793
-0.000231234
0.00352961
-0.00350548
-0.000239885
-0.000236572
0.00348123
-0.00345669
-0.000244578
-0.000241486
0.00343206
-0.00340712
-0.000248897
-0.000246026
0.00338211
-0.00335684
-0.000252964
-0.000250229
0.00328927
-0.00322298
-0.000256681
-0.00025419
0.00318255
-0.00316504
-0.000220373
-0.000223289
-0.000330199
0.000132213
-0.00297811
-0.00309136
-0.000169281
0.000172133
-0.00304432
-0.00309569
-0.000238627
2.1165e-05
-0.00299657
-7.27348e-06
0.00421298
0.00426974
-3.81354e-05
0.00028709
-0.00362335
-0.000343652
1.34805e-05
-0.00307195
0.000355968
-0.0036117
2.28514e-05
-0.00304191
4.80618e-05
-0.00305219
4.85948e-05
-0.00307544
8.24765e-05
-0.003044
0.00011674
-0.00304789
0.000150493
-0.00303254
0.000151694
-0.00299569
-0.000196072
0.000169913
-0.00301816
-0.000216015
-0.00307575
-0.00306817
-0.00371291
0.00359044
-0.000231653
-0.000428946
-0.00353985
0.000345443
0.00378585
-0.00366431
-0.000550485
-0.000270709
-0.00351509
0.00346352
-0.000330963
-0.000341587
-0.00345279
0.00343057
-0.000266268
-0.000267659
-0.0034663
0.00352034
-0.000261596
-0.000263403
-0.00354245
0.00356451
-0.000255643
-0.000257872
-0.00358631
0.003608
-0.000249716
-0.000251931
-0.0036294
0.00365068
-0.000243589
-0.000245915
-0.00367166
0.00369249
-0.000237136
-0.000239627
-0.003713
0.00373334
-0.00023028
-0.000232976
-0.00375332
0.00377311
-0.000222969
-0.000225895
-0.00379252
0.0038117
-0.000215173
-0.000218345
-0.00383047
0.00384899
-0.000206883