/*--------------------------------*- C++ -*----------------------------------*\
  =========                 |
  \\      /  F ield         | OpenFOAM: The Open Source CFD Toolbox
   \\    /   O peration     | Website:  https://openfoam.org
    \\  /    A nd           | Version:  10
     \\/     M anipulation  |
\*---------------------------------------------------------------------------*/
FoamFile
{
    format      ascii;
    class       surfaceScalarField;
    location    "21";
    object      phi;
}
// * * * * * * * * * * * * * * * * * * * * * * * * * * * * * * * * * * * * * //

dimensions      [0 3 -1 0 0 0 0];

internalField   nonuniform List<scalar> 
57492
(
0.000252704
-1.1455e-05
-4.69678e-05
-0.000194281
-0.000178781
0.000289406
0.00014208
-2.91966e-05
8.22168e-05
0.000328346
-0.000381366
0.00315954
0.00338648
-0.000271965
-0.00627406
-0.00862818
0.00404529
0.00774244
0.00110307
-0.00102535
-0.000536489
0.000458768
-0.00198403
0.000380396
-0.000150846
0.00175448
0.000407268
-0.00128823
0.00148989
-0.00462272
0.00441761
-0.00128478
0.00126483
0.00424366
-0.0040186
-0.000704397
-0.000232916
0.000774676
0.000162637
-0.000127048
-0.000915502
0.000338153
0.000268046
-0.000365099
-2.99949e-05
-6.0423e-05
9.5553e-05
0.00248167
-0.00237281
-0.000892946
0.000784082
0.000336204
0.00199747
0.000147999
-0.000323622
0.000786876
0.00334044
-0.0038037
-0.000661351
0.00326623
-0.0029285
0.000135877
-0.000289991
0.000154114
-0.00167373
0.00122674
0.000582869
-0.00467456
0.000199806
0.00335017
0.00112458
0.00121965
-0.00474265
-0.00115157
-0.000135478
-0.000224949
-0.000738829
0.00109926
-0.000305235
0.000192814
-2.30567e-05
-0.00265168
0.00223763
0.000774545
-0.000360488
-0.00313297
0.000910494
-0.000429203
-0.00112663
0.000594731
0.000457315
7.45871e-05
-0.000778716
-0.000361504
1.35872e-05
-0.000370295
-0.00114403
0.00130485
0.00020948
-0.000419848
0.000117693
-6.81399e-05
0.00115161
-0.000769197
-0.000715918
0.000333505
-0.000995393
0.000776707
0.0013703
-0.0013467
-0.00258513
0.00242286
0.00150897
-0.00298422
-0.000734374
0.00237189
-0.00071319
-0.000153891
0.000867082
-0.000273615
-0.000439575
-0.00138495
0.00190669
-0.000795353
0.000204661
-0.00077348
-0.000816131
-0.000894672
0.00127507
-0.000234914
-0.00190172
0.00115077
0.000750956
-0.00432143
0.00241971
0.00468398
-0.000874763
0.000418863
-0.00422808
0.00346312
-2.25071e-05
0.00124337
-0.000777535
0.00456125
-0.00465848
0.00214112
0.000444038
-0.00217789
0.00214284
-0.000152568
0.00255931
-0.000956682
-0.0018976
0.000294968
0.00286849
0.000134857
0.00136743
-0.000836811
0.00161222
0.00125378
0.00186813
-0.00465459
-0.000651483
0.000581915
0.00472416
-0.00479069
-0.000326676
0.000462773
0.00112829
0.00450802
-0.00443219
-0.00120412
0.000797652
-0.00429208
-0.00301313
0.00261574
0.00269558
-0.00229819
-0.000433809
0.0033112
-0.00589052
1.33414e-05
-0.000130838
-4.63869e-07
0.000117961
-0.000351841
8.35699e-08
7.57382e-05
-0.000146903
-0.000280676
-6.30004e-05
7.90029e-06
1.41657e-05
-1.46296e-05
1.00842e-05
4.0815e-06
0.00743148
0.00378425
-0.00596103
-0.00525471
0.00231334
-0.00068434
0.00580248
-0.00795683
0.00305614
0.00721403
0.00225249
-0.00642507
0.00161352
-0.00287545
0.00214575
-0.000883822
0.00237086
-0.00292565
0.00216832
-3.19653e-05
2.33557e-05
-2.8455e-06
-7.49466e-05
-3.98645e-06
-0.000237732
-3.14964e-05
-0.00295827
0.00538143
0.00338574
-0.00580889
0.00435691
-0.00494433
0.00297394
0.00478097
-0.00237349
0.0103181
-0.00162233
-0.00173401
-0.00696172
0.00212622
0.00558348
0.00260836
0.00152732
-0.00516831
0.00576721
4.75608e-05
-7.67575e-05
0.000129778
0.000830872
0.00177694
-0.0006334
-0.00197442
0.00105758
0.00010164
-0.000102007
2.83941e-05
7.36125e-05
-0.000313002
0.000210996
-0.00668216
0.00342313
-0.00202516
0.00528419
-0.00579058
-0.0025562
0.00166462
-0.00264575
0.00211724
-0.00526207
0.00197493
-2.62018e-05
-0.000954076
-0.000994647
-0.000719726
0.00225281
0.00044184
-0.000844631
-8.61161e-05
0.000211021
-0.000780382
-9.04505e-05
-0.000274097
-0.00146036
-0.000326598
-7.6354e-05
3.017e-05
0.000372782
-0.000257329
-0.000660563
0.000591294
0.000177937
2.32721e-05
-0.000458538
0.000106792
-5.20905e-06
0.000141033
-4.07057e-06
-0.000647864
0.000373767
8.38083e-05
-0.000731672
0.000177535
-0.000490538
0.00427353
0.00333167
-0.000178485
0.00212872
-0.00648338
-1.02866e-05
0.00226382
-0.00179742
-0.000456114
0.000291887
0.00316397
-0.00346615
0.0032535
0.00198047
-0.00065259
-0.00458138
-0.000921722
0.000362814
0.0038124
0.00411314
-0.00305439
-0.00162836
-0.00304056
0.00122181
0.00344712
-0.00120961
0.00351622
-0.00393496
0.00039571
-0.00464588
9.80501e-05
4.29952e-05
-5.3681e-06
0.00112569
-0.000655426
-0.000649043
9.68629e-05
-0.000384037
0.00141286
0.00040442
-1.81511e-05
-0.000187638
0.000334736
6.87286e-05
-0.000215827
0.000999766
-0.00122676
3.93583e-05
-0.000361005
0.000837567
0.000523203
-0.000126358
0.000100089
-0.00620367
0.00363889
0.00598791
0.00776009
-0.00205194
-0.00826435
-0.00290868
0.0044651
-9.72692e-05
-0.000880835
-0.00016593
-0.000526459
9.3418e-06
4.67876e-05
-0.000131456
3.948e-05
4.51883e-05
-0.000129986
0.000143183
3.35906e-05
-0.000297102
3.56603e-05
-0.00026778
-0.000315043
5.63636e-05
-0.000810661
-0.000337954
-0.00120476
-0.00129679
0.00149027
0.00101128
5.1415e-05
0.000628972
-0.00188515
-0.00169752
0.000452151
-0.0029492
0.00133486
-5.93962e-05
-0.00351515
0.000806674
-0.000240725
0.000876148
-0.00334723
0.00256397
-9.28879e-05
0.000679122
-0.00272814
0.00292517
0.00252843
-0.0101971
-0.00178085
0.00219693
0.00303473
-0.00348072
0.00207848
-0.000325684
-4.31161e-06
2.75837e-05
-8.63442e-06
4.32282e-06
0.000286409
-4.14936e-05
0.00514213
-0.00311458
-0.00220375
0.000176203
0.00443204
-6.74481e-05
0.00482954
-1.01666e-05
-0.00525319
0.00126393
0.00344266
0.000122951
0.000456152
-0.00309077
0.00389855
5.74292e-06
-1.43773e-05
0.000764622
-0.00214118
-0.00287578
0.00124975
0.0031203
0.00129261
-7.26745e-05
-0.00135929
0.00013935
0.000421993
-0.000124772
-0.00165467
0.000341586
0.00208979
0.000290184
-0.00152286
-0.00013541
7.27127e-05
-9.72225e-06
1.51722e-05
-4.77898e-06
-6.71022e-07
1.28651e-05
-1.79295e-07
-2.2408e-05
5.02465e-05
-0.000124088
8.67068e-05
-0.00180473
0.0027726
-0.000790333
0.00297272
-0.00391026
-0.000867184
-2.88804e-06
-0.00223534
0.00257981
-0.00407261
0.000255301
-0.00278632
-0.00187844
0.000592152
0.00271431
0.00291231
-0.00542681
0.00260118
0.00432348
-0.00421034
0.0022391
-0.00309205
0.00161347
-0.000760517
0.00245264
-0.00303163
0.0028181
0.00439414
0.00186834
0.00491997
-0.000259365
-0.00489446
0.000233852
0.00543885
-0.000678101
0.000159226
0.00551642
-0.000842432
1.67422e-05
-0.00469073
0.00396328
-0.00131309
0.00286623
0.0043175
-0.00137129
0.00110558
-0.0040518
0.00123067
0.00440058
-0.00131375
-0.00388809
-0.00163748
0.00415429
0.00103506
-0.00370134
-0.00182375
0.00363339
-0.00235084
-0.00325732
0.00212177
0.00348639
-0.00237297
-0.00328731
0.00330943
0.00221656
0.00306841
-0.00145836
-0.00382661
0.00304311
-0.00319951
-0.00257133
0.00258936
0.00302508
-0.00202917
0.00252625
-0.00408839
0.00363489
-0.00100487
-0.00509422
0.00103659
0.00540453
-0.00134691
0.0019011
-0.000425243
0.00120277
-0.0012631
0.000485572
-0.000240874
0.00151082
-0.00169519
-5.68186e-05
0.000333829
0.000127409
-0.0016443
-0.0025049
0.00161858
-6.26463e-07
4.47167e-07
2.68602e-07
-8.95064e-07
-0.000163542
-0.00279747
0.0021242
-0.00245183
-0.000113932
0.00240222
8.15405e-05
-0.00257016
3.67899e-05
-0.000404659
0.00191372
0.000433301
-0.00194236
0.00204457
0.000442747
-0.00289198
0.00190656
0.00205173
-3.18616e-06
1.41059e-06
4.47708e-05
-4.47276e-06
1.2866e-06
-3.06217e-06
-6.21555e-06
5.2618e-06
-6.20466e-05
1.46746e-06
-7.68301e-06
6.72926e-06
-4.70282e-05
2.27126e-05
-0.000280919
2.41632e-05
-7.11914e-05
4.68758e-05
5.36708e-05
-5.40949e-06
-0.000174619
-1.70662e-05
7.0737e-05
-2.24757e-05
0.00131017
0.00328392
-0.00423128
0.00146178
-0.00453853
0.00438691
0.00465912
8.65889e-05
-0.00118611
-0.00244538
0.00116195
0.00246954
-0.000707865
0.00272073
-0.00319898
0.00016115
-0.0033144
0.0040989
-0.00413731
-1.31002e-05
5.15023e-05
0.00409744
3.68865e-05
-3.54268e-05
-2.57801e-05
-0.00413072
1.91984e-05
0.0041284
-1.48061e-06
-2.94707e-05
0.00420204
5.97939e-05
-0.000133435
2.92443e-05
0.00430691
-0.000134119
0.00425513
-0.00422975
3.87196e-06
-0.000200599
0.00450823
-7.19163e-07
0.00413691
-8.23803e-05
-0.00410001
-6.99528e-05
-0.00408565
-1.58425e-05
-0.00407966
3.09041e-05
-0.00416686
7.40976e-05
-0.00409836
-9.42772e-05
-0.000194566
0.00470376
-9.68558e-07
0.00394378
-1.44269e-06
-2.05931e-05
-0.00409556
-1.45762e-05
-0.00413131
1.23572e-05
-2.91794e-05
-0.00433148
0.0002651
-4.14748e-07
0.00470472
-5.41751e-07
0.00394522
-1.85089e-06
-0.00428243
0.000121937
0.00470575
-2.26354e-07
-8.06907e-07
-3.5235e-07
0.00470649
-3.83402e-07
0.00394629
-1.29989e-06
0.00394766
-1.72249e-06
-2.46438e-05
-0.00430469
-2.14312e-06
-0.00430465
-2.42036e-06
-9.5905e-08
0.00470725
-6.67535e-07
0.00394874
-1.16735e-06
-3.64561e-07
-0.00430229
-2.03489e-06
-0.00430203
-2.98818e-06
-9.67084e-08
0.0047076
-2.46935e-07
0.00395024
-1.60235e-06
-2.26003e-07
-0.00429955
-2.51026e-06
-0.00429956
-2.69926e-06
3.9688e-07
0.00470775
-5.46434e-07
0.00395168
-1.04661e-06
-3.25139e-07
-0.00429682
-2.41151e-06
-0.00429661
-3.27212e-06
8.79416e-07
0.004707
-1.2855e-07
0.00395406
-1.49414e-06
-1.59354e-07
-0.00429377
-2.89157e-06
-0.00429376
-3.01195e-06
2.35031e-06
0.00470509
-4.41985e-07
0.00395734
-9.32942e-07
9.72086e-06
-0.00430067
-2.81987e-06
-0.00428044
-3.60006e-06
4.76877e-06
0.00470035
-2.64842e-08
0.0039635
-1.38862e-06
2.7837e-05
-0.00417683
-0.000151679
-0.00420488
-4.77191e-05
1.01104e-05
0.00469058
-3.50107e-07
0.00395609
1.752e-05
2.76005e-05
-0.00419437
-1.00592e-05
-0.0041711
-6.1838e-06
2.01818e-05
0.00467033
7.41516e-08
0.00392874
4.75336e-05
5.95282e-05
-0.00404427
-0.000209621
-0.0040484
-6.31629e-05
0.000199901
0.00447069
-2.60039e-07
0.00404864
8.00015e-05
6.85891e-05
-0.00402376
-8.91074e-05
-0.0040018
2.19807e-05
0.000176487
0.00414143
0.000152775
0.00411574
0.000109378
0.000109429
-0.000156727
-0.00397646
-0.00398369
9.13275e-05
1.20183e-05
3.99798e-05
0.00408943
0.0040893
3.8461e-05
-0.00403845
0.00410426
-0.000154913
-0.00405885
-0.000136328
0.000186898
-0.00016508
-0.00399828
9.18457e-05
-0.00388864
-0.00401852
0.00405578
-4.73193e-05
-0.000123883
-0.00391065
0.00391371
-5.88308e-06
-6.54779e-06
-0.00391659
0.00391931
-5.13855e-06
-5.76801e-06
-0.00392188
0.00392431
-4.47205e-06
-5.07384e-06
-0.00392662
0.00419562
-3.8908e-06
-4.45312e-06
-0.00418495
0.00412863
7.55199e-05
-3.90868e-06
-0.00426245
0.00422992
-2.89274e-06
-8.23221e-05
-0.00409527
0.00403616
-7.43274e-05
0.000105176
-0.00394099
0.00394239
-2.11324e-06
-3.89501e-05
-0.0039437
0.00394495
-1.7918e-06
-2.28121e-06
-0.00394613
0.00394725
-1.50752e-06
-1.98708e-06
-0.00394832
0.00394933
-1.25812e-06
-1.72931e-06
-0.00395028
0.0039512
-1.03893e-06
-1.50358e-06
-0.00395206
0.00395288
-8.45166e-07
-1.30579e-06
-0.00395366
0.0039544
-6.67213e-07
-1.12909e-06
-0.0039317
0.00402461
5.98657e-05
2.24378e-05
0.00401489
4.97028e-05
-2.48838e-05
7.91423e-05
0.00403517
-3.97279e-06
0.00406839
0.00403978
-0.00397281
1.30301e-05
-0.00407946
0.00407109
4.68341e-05
6.96989e-05
0.00397198
-0.00395286
-1.60423e-06
4.6707e-05
0.00395204
-0.00395117
-1.80072e-06
-2.20529e-06
0.00395027
-0.00394931
-2.00972e-06
-2.39979e-06
0.0039483
-0.00394723
-2.23802e-06
-2.60928e-06
0.00394611
-0.00394492
-2.49003e-06
-2.84092e-06
0.00394367
-0.00394235
-2.76831e-06
-3.09657e-06
0.00402135
-0.00401439
-3.08188e-06
-3.38036e-06
0.00408065
-0.00403532
-6.11746e-05
-3.69925e-06
0.00400772
-0.0039802
4.65809e-05
3.30607e-06
0.0040287
-0.00405343
3.70844e-05
-4.57732e-05
0.00392659
-0.00392429
-4.72517e-06
-4.90174e-06
0.00392187
-0.00391928
-5.28147e-06
-5.41048e-06
0.00391657
-0.00391367
-5.9111e-06
-5.9909e-06
0.00391061
-0.00395171
-6.62751e-06
-6.65204e-06
0.00395049
-0.00400621
-7.44212e-06
-7.40402e-06
0.00397596
-0.00391599
3.13626e-05
-8.2684e-06
-0.00387101
4.68632e-05
-0.00408762
-0.000136309
0.0040276
6.64334e-05
-4.23545e-07
0.00406754
0.000145018
-0.00013293
-0.00390073
0.000112572
-0.00383856
0.000139218
-0.000132718
-0.00409412
-0.00399199
-0.00401529
0.00395243
-9.20526e-05
0.00405886
-0.00409046
-0.000104704
-9.27594e-05
-0.00390454
0.0039078
-5.05757e-05
-7.59933e-05
-0.00391102
0.00391407
-8.93026e-06
-9.76992e-06
-0.00391692
0.00391963
-7.84879e-06
-8.62733e-06
-0.00392218
0.0039246
-6.89022e-06
-7.62037e-06
-0.00392687
0.00392903
-6.04231e-06
-6.72842e-06
-0.00393106
0.00401187
-5.29501e-06
-5.94186e-06
-0.00393479
0.00393653
-4.62289e-06
-5.24278e-06
-0.00404633
0.00397603
-4.0277e-06
-4.63085e-06
-0.00394115
0.00394254
-3.50194e-06
-4.0699e-06
-0.00394385
0.00394509
-3.03686e-06
-3.58831e-06
-0.00394627
0.00394738
-2.62661e-06
-3.16013e-06
-0.00394844
0.00394945
-2.26524e-06
-2.78415e-06
-0.0039504
0.0039513
-1.94634e-06
-2.45339e-06
-0.00395216
0.00395298
-1.66348e-06
-2.16189e-06
-0.00395375
0.00395449
-1.40628e-06
-1.90195e-06
-0.00395489
0.00398733
2.74232e-05
2.2042e-05
9.39399e-06
-1.81705e-05
0.00404395
1.93326e-06
0.00403506
-0.00397577
0.00401549
2.67185e-05
6.12571e-05
0.00401751
-0.00401811
4.74362e-05
0.00398549
3.15945e-05
-1.71805e-06
4.65732e-05
0.00402268
0.0040485
0.00401837
-0.00398861
-1.67259e-05
6.99543e-05
0.00395372
-0.00395294
-2.38586e-06
1.18193e-05
0.00395213
-0.00395127
-2.66406e-06
-3.01938e-06
0.00395037
-0.00394941
-2.96652e-06
-3.29986e-06
0.00394841
-0.00394735
-3.30069e-06
-3.60859e-06
0.00394624
-0.00394505
-3.67136e-06
-3.95155e-06
0.00394382
-0.0039425
-4.0826e-06
-4.33263e-06
0.00394113
-0.00393966
-4.54386e-06
-4.75828e-06
0.00393813
-0.00399425
-5.0559e-06
-5.23402e-06
0.00398517
-0.00393296
-5.63233e-06
-5.76882e-06
0.00397237
-0.003929
-6.28492e-06
-6.36618e-06
0.00392685
-0.00392456
-7.01542e-06
-7.04769e-06
0.00392215
-0.00391959
-7.84713e-06
-7.81786e-06
0.00391689
-0.00391401
-8.79161e-06
-8.69243e-06
0.00391097
-0.00390773
-9.86678e-06
-9.68816e-06
0.00390431
-0.00390066
-1.10912e-05
-1.08224e-05
0.00389681
-0.00385296
-1.2487e-05
-1.21197e-05
0.00382713
-0.00377093
5.63738e-05
2.10253e-05
-0.00411656
-0.000106617
9.84126e-05
-0.000160544
-0.00377643
-0.00374347
7.09557e-05
-0.000220947
-0.00384033
2.5567e-05
0.00399186
0.00399182
4.02425e-05
-6.76508e-05
8.9613e-05
-0.00411608
-6.73041e-05
-0.00411691
7.22337e-05
-0.000158543
-0.00369012
4.43671e-05
-0.0037156
-0.00412332
0.00402577
-0.00401359
1.45386e-05
0.00398485
6.64911e-05
7.04796e-05
-3.01563e-05
0.00398236
4.56367e-05
0.00401667
-0.00406996
0.00411702
-0.000114362
-0.000122973
9.99088e-05
-0.00409385
0.00415754
-7.68471e-05
0.00031707
-0.00439777
-3.53866e-05
-0.00411486
0.00408486
-7.47068e-05
-0.000104463
-0.00403446
0.00397264
-3.02391e-05
-4.23509e-05
-0.00394542
0.00390841
-1.35608e-05
-4.87722e-05
-0.00391159
0.0039146
-1.19451e-05
-1.2954e-05
-0.00391743
0.00392011
-1.05288e-05
-1.14551e-05
-0.00392263
0.00392502
-9.28001e-06
-1.01379e-05
-0.00392727
0.0039294
-8.17644e-06
-8.97549e-06
-0.00393141
0.00393331
-7.19891e-06
-7.94857e-06
-0.00393511
0.00393682
-6.33088e-06
-7.03909e-06
-0.00393842
0.00393995
-5.56101e-06
-6.23288e-06
-0.0039414
0.00394277
-4.87685e-06
-5.51503e-06
-0.00394407
0.0039453
-4.27157e-06
-4.88302e-06
-0.00394646
0.00394757
-3.73632e-06
-4.32299e-06
-0.00394862
0.00394962
-3.26387e-06
-3.82966e-06
-0.00395056
0.00395146
-2.84629e-06
-3.3947e-06
-0.00395231
0.00395312
-2.47578e-06
-3.01056e-06
-0.00395389
0.00395462
-2.14179e-06
-2.66877e-06
-0.00396622
0.00397348
2.01633e-05
1.04389e-05
2.11522e-05
2.61992e-05
-9.70757e-06
0.00402745
-4.21846e-05
1.12718e-05
0.00402277
0.00401907
0.00400864
0.00400636
-0.0040017
4.27788e-05
-0.00400097
0.00397951
6.1701e-05
3.69845e-05
0.00395527
-0.00396916
-2.83836e-06
2.35224e-05
0.00395384
-0.00395306
-3.16171e-06
-3.49647e-06
0.00395226
-0.0039514
-3.5192e-06
-3.82502e-06
0.00395051
-0.00394956
-3.91401e-06
-4.19126e-06
0.00394858
-0.00394752
-4.35253e-06
-4.59776e-06
0.00394642
-0.00394526
-4.8405e-06
-5.05067e-06
0.00394403
-0.00394273
-5.38409e-06
-5.55564e-06
0.00394137
-0.00393992
-5.993e-06
-6.12038e-06
0.0039384
-0.00393678
-6.67442e-06
-6.75358e-06
0.00393509
-0.00393328
-7.43987e-06
-7.46526e-06
0.00393138
-0.00392936
-8.30467e-06
-8.26669e-06
0.00392723
-0.00392497
-9.2804e-06
-9.17358e-06
0.00392258
-0.00392005
-1.03864e-05
-1.02003e-05
0.00391737
-0.00391452
-1.16422e-05
-1.1366e-05
0.00391152
-0.00390831
-1.30707e-05
-1.26922e-05
0.00390493
-0.00390133
-1.46982e-05
-1.4203e-05
0.00389752
-0.00389345
-1.65567e-05
-1.5928e-05
0.00385452
-0.00377945
-1.86948e-05
-1.79025e-05
0.00373429
-0.0037383
4.83832e-05
2.57937e-05
5.89614e-05
-6.13191e-05
-0.00371325
-0.00371639
3.70445e-05
0.000124138
-0.00414031
-9.70415e-05
-0.00390183
3.86621e-05
0.00395745
0.00399351
3.16385e-05
0.00015103
-0.00432172
7.11474e-06
-0.00375856
0.000856823
-0.00346596
0.00451569
-5.42685e-05
2.75912e-05
-0.00368971
-9.37926e-05
-0.00367372
-0.00273792
0.00417011
0.000619544
-0.00213195
-0.000172679
-0.00409623
-0.0039568
0.00412613
0.000147732
0.00033124
-0.000117924
-0.00408831
0.00405327
-7.93224e-05
2.44113e-06
-0.00402211
0.00396924
-2.18315e-05
-7.33089e-05
-0.00394753
0.00393648
-1.91877e-05
-2.06448e-05
-0.00390591
0.00390924
-1.68955e-05
-1.81984e-05
-0.00391237
0.00391533
-1.49068e-05
-1.60813e-05
-0.00391811
0.00392075
-1.31652e-05
-1.42354e-05
-0.00392322
0.00392558
-1.16323e-05
-1.26154e-05
-0.00392779
0.00392989
-1.02783e-05
-1.11876e-05
-0.00393187
0.00393375
-9.07907e-06
-9.92569e-06
-0.00393552
0.0039372
-8.01536e-06
-8.80822e-06
-0.00393879
0.0039403
-7.07134e-06
-7.818e-06
-0.00394172
0.00394308
-6.23356e-06
-6.93861e-06
-0.00394435
0.00394557
-5.49059e-06
-6.1608e-06
-0.00394672
0.00394782
-4.8326e-06
-5.47147e-06
-0.00394885
0.00394984
-4.25059e-06
-4.86259e-06
-0.00395077
0.00395166
-3.73562e-06
-4.32483e-06
-0.0039525
0.0039533
-3.27867e-06
-3.84932e-06
-0.00395406
0.00395479
-2.8701e-06
-3.427e-06
-0.00396828
0.00399095
-2.50694e-06
-3.05082e-06
-0.00398183
0.00397989
1.64829e-05
3.0264e-05
-0.00399594
0.0039918
4.27967e-05
5.04447e-05
5.51935e-05
-3.08047e-05
0.00399838
-3.3682e-05
6.7163e-06
0.00401877
0.00397897
3.90436e-05
1.57521e-05
0.00397266
0.00402731
-2.68054e-05
1.79748e-05
0.00399119
0.00399759
-2.2282e-05
2.00632e-06
0.00401378
0.00401236
0.00401634
-0.00400184
4.72006e-05
-0.0040787
0.00397022
0.000110494
-3.07296e-05
0.00399154
-0.00398278
3.40172e-05
2.66904e-05
0.00395541
-0.00395471
-3.53299e-06
-3.85187e-06
0.00395399
-0.00395323
-3.92667e-06
-4.21572e-06
0.00395243
-0.00395159
-4.36337e-06
-4.62021e-06
0.00395071
-0.00394977
-4.84923e-06
-5.07118e-06
0.0039488
-0.00394776
-5.39035e-06
-5.5739e-06
0.00394667
-0.00394552
-5.994e-06
-6.13514e-06
0.00394431
-0.00394303
-6.6681e-06
-6.76226e-06
0.00394169
-0.00394026
-7.42344e-06
-7.46458e-06
0.00393876
-0.00393716
-8.27063e-06
-8.25303e-06
0.00393549
-0.0039337
-9.22376e-06
-9.1399e-06
0.00393183
-0.00392983
-1.02991e-05
-1.01394e-05
0.00392774
-0.00392551
-1.15138e-05
-1.12698e-05
0.00392316
-0.00392065
-1.28895e-05
-1.25491e-05
0.00391802
-0.00391521
-1.44507e-05
-1.40008e-05
0.00391225
-0.0039091
-1.62258e-05
-1.56511e-05
0.00390577
-0.00390222
-1.82478e-05
-1.75304e-05
0.00389847
-0.00389447
-2.05579e-05
-1.96757e-05
0.00389024
-0.00388572
-2.32103e-05
-2.21324e-05
0.00383497
-0.00376031
-2.62741e-05
-2.49604e-05
0.00375969
-0.00374186
9.75948e-06
3.64184e-05
3.54329e-05
-3.63465e-05
-0.0036888
-0.00371209
5.66955e-06
0.000120237
-0.00410952
-2.91655e-05
-0.00386555
0.000309063
-0.00377396
7.62049e-06
-0.00385997
0.00399334
-0.00399887
4.83274e-05
0.00397969
2.03732e-05
4.85243e-05
-3.28448e-05
0.0039981
1.13497e-05
0.00400739
0.000301585
-0.0033248
1.46655e-05
-0.00372473
-0.00198486
-0.00208945
-0.0032467
0.00373518
0.00013107
6.34761e-05
-4.20046e-05
-0.00371027
3.41276e-05
-0.00368274
-0.00301649
-0.000402885
-0.00400515
-0.00389949
0.00395349
9.37264e-05
0.000166928
-0.00398751
0.00393764
-2.9458e-05
-3.15717e-05
-0.0038921
0.00389616
-2.58995e-05
-2.7763e-05
-0.00389999
0.00390363
-2.2821e-05
-2.4475e-05
-0.00390705
0.00391029
-2.01398e-05
-2.16194e-05
-0.00391334
0.00391623
-1.77991e-05
-1.91309e-05
-0.00391895
0.00392153
-1.57457e-05
-1.69541e-05
-0.00392396
0.00392627
-1.39375e-05
-1.5042e-05
-0.00392844
0.0039305
-1.23403e-05
-1.33565e-05
-0.00393244
0.00393428
-1.09255e-05
-1.18664e-05
-0.00393602
0.00393768
-9.67063e-06
-1.05465e-05
-0.00393924
0.00394072
-8.55657e-06
-9.37648e-06
-0.00394212
0.00394346
-7.56771e-06
-8.33799e-06
-0.00394471
0.00394591
-6.68998e-06
-7.41772e-06
-0.00394704
0.00394812
-5.91164e-06
-6.60172e-06
-0.00394914
0.00395011
-5.22228e-06
-5.87957e-06
-0.00395103
0.0039519
-4.61143e-06
-5.24081e-06
-0.00395273
0.00395352
-4.06956e-06
-4.67541e-06
-0.00395426
0.00395498
-3.58701e-06
-4.17372e-06
-0.00395566
0.00395631
-3.15578e-06
-3.72721e-06
-0.0039899
0.00397655
2.98341e-05
-3.33029e-06
2.81213e-05
4.2213e-05
-6.79671e-05
0.00402413
-1.69697e-05
2.95633e-05
0.00400617
0.00400421
-1.32913e-08
-4.87402e-07
0.00397316
0.00395933
-3.78082e-05
5.63099e-05
0.00397269
0.00395929
0.00403582
0.00401869
-0.00400644
3.49537e-05
-0.00396909
0.00400966
6.99294e-05
1.88681e-05
0.00399404
-0.00395622
-3.80449e-06
1.4289e-05
0.00395558
-0.00395489
-4.2166e-06
-4.49615e-06
0.00395418
-0.00395343
-4.67853e-06
-4.92455e-06
0.00395265
-0.00395182
-5.19399e-06
-5.40254e-06
0.00395095
-0.00395003
-5.76917e-06
-5.93694e-06
0.00394907
-0.00394805
-6.41125e-06
-6.53409e-06
0.00394698
-0.00394585
-7.12842e-06
-7.20176e-06
0.00394466
-0.0039434
-7.93076e-06
-7.94893e-06
0.00394208
-0.00394067
-8.83026e-06
-8.78656e-06
0.0039392
-0.00393763
-9.84026e-06
-9.72746e-06
0.00393598
-0.00393423
-1.0977e-05
-1.07863e-05
0.00393239
-0.00393043
-1.22591e-05
-1.198e-05
0.00392837
-0.00392617
-1.37074e-05
-1.33291e-05
0.00392387
-0.00392141
-1.53468e-05
-1.48556e-05
0.00391883
-0.00391607
-1.72058e-05
-1.65864e-05
0.00391317
-0.00391008
-1.93183e-05
-1.85526e-05
0.00390682
-0.00390334
-2.17236e-05
-2.07902e-05
0.00389967
-0.00389576
-2.44701e-05
-2.33432e-05
0.00389163
-0.00388722
-2.76177e-05
-2.62647e-05
0.00388256
-0.0038776
-3.12397e-05
-2.96197e-05
0.00380769
-0.00376252
-3.54109e-05
-3.34891e-05
0.00371888
-0.00368513
3.69625e-07
-3.79642e-05
7.45933e-05
-4.30629e-05
-0.00371427
-0.00365927
4.87406e-05
8.97556e-05
-0.00389021
1.3875e-06
-0.00385932
4.75319e-05
0.00396172
0.00399494
2.60709e-05
0.000179287
-0.00365166
-0.000476066
-0.00440077
-6.44108e-05
-0.00373645
8.13862e-06
-0.00385344
1.56541e-05
-0.00378239
-0.0043363
-0.000769643
0.00017005
-0.000471956
-0.00403439
-0.00030474
-0.00392598
-4.13602e-05
-0.00371197
3.3576e-05
-9.70949e-05
-0.00365075
7.06536e-05
-0.00369635
-0.00391401
-0.00354457
0.00370631
-3.06664e-05
0.00372394
-0.00409644
-0.000397148
-0.000223514
-0.00382394
0.00388096
3.66972e-05
4.92992e-05
-0.0038855
0.00388984
-3.37984e-05
-3.6109e-05
-0.00389396
0.00389787
-2.98156e-05
-3.18764e-05
-0.00390157
0.00390508
-2.63334e-05
-2.81703e-05
-0.00390839
0.00391153
-2.32845e-05
-2.49293e-05
-0.00391449
0.00391731
-2.0611e-05
-2.20913e-05
-0.00391995
0.00392247
-1.82601e-05
-1.96005e-05
-0.00392483
0.00392708
-1.61875e-05
-1.74086e-05
-0.0039292
0.00393122
-1.43552e-05
-1.54746e-05
-0.00393311
0.00393492
-1.27317e-05
-1.37638e-05
-0.00393662
0.00393824
-1.12911e-05
-1.22478e-05
-0.00393977
0.00394122
-1.00117e-05
-1.09029e-05
-0.00394259
0.0039439
-8.87535e-06
-9.70916e-06
-0.00394513
0.00394631
-7.86611e-06
-8.64998e-06
-0.00394742
0.00394848
-6.97019e-06
-7.71023e-06
-0.00394948
0.00395043
-6.17569e-06
-6.8774e-06
-0.00395133
0.00395219
-5.47114e-06
-6.13976e-06
-0.003953
0.00395377
-4.84573e-06
-5.48622e-06
-0.00395451
0.00395521
-4.28942e-06
-4.90637e-06
-0.00395587
0.00395651
-3.79391e-06
-4.39093e-06
-0.00395711
0.0039903
-3.35009e-06
-3.93132e-06
-0.00399369
0.00400336
3.86607e-05
2.47242e-05
-0.00395024
0.00396744
3.03355e-05
7.34946e-05
6.61058e-05
-4.88281e-05
0.0039889
-1.34685e-05
-9.63708e-06
0.00399054
0.00401435
4.93156e-05
4.67481e-07
0.00397435
0.0040047
6.80573e-09
-4.87309e-07
0.00397364
0.0039598
9.63851e-07
-1.44345e-06
0.00397317
0.00395977
-2.78368e-05
2.1755e-05
0.00400419
0.00400654
-1.48806e-05
1.98451e-05
0.00398997
0.00401427
0.0040231
-0.00397737
2.42028e-05
-0.0040048
0.0039816
4.30375e-05
4.43711e-05
0.00398502
-0.00397599
2.59243e-05
2.65207e-05
0.00395701
-0.00395641
-4.41171e-06
-4.69078e-06
0.00395577
-0.00395511
-4.88568e-06
-5.12837e-06
0.00395441
-0.00395367
-5.41568e-06
-5.61946e-06
0.00395291
-0.00395209
-6.00857e-06
-6.16973e-06
0.00395124
-0.00395034
-6.67126e-06
-6.78593e-06
0.0039494
-0.0039484
-7.41206e-06
-7.47551e-06
0.00394735
-0.00394624
-8.24053e-06
-8.24739e-06
0.00394508
-0.00394384
-9.16818e-06
-9.11205e-06
0.00394254
-0.00394117
-1.02089e-05
-1.00821e-05
0.00393972
-0.00393818
-1.1378e-05
-1.11721e-05
0.00393657
-0.00393485
-1.26939e-05
-1.2399e-05
0.00393305
-0.00393113
-1.41776e-05
-1.37821e-05
0.00392912
-0.00392697
-1.58533e-05
-1.53443e-05
0.00392472
-0.00392231
-1.77487e-05
-1.71111e-05
0.00391979
-0.0039171
-1.98969e-05
-1.9113e-05
0.00391426
-0.00391125
-2.23358e-05
-2.13852e-05
0.00390807
-0.00390468
-2.51109e-05
-2.39691e-05
0.00390111
-0.0038973
-2.82766e-05
-2.69146e-05
0.00389329
-0.003889
-3.1899e-05
-3.02814e-05
0.00388448
-0.00387967
-3.60573e-05
-3.41412e-05
0.00387458
-0.00386914
-4.08427e-05
-3.85799e-05
0.0038634
-0.00381665
-4.63843e-05
-4.37069e-05
0.00377072
-0.00369746
-2.60984e-06
2.81229e-06
1.43129e-05
-5.32917e-05
-0.00365737
-0.00369101
7.86586e-06
6.00897e-05
-0.00377101
-0.00414744
-0.000420952
2.82085e-05
-0.00374428
0.00401867
-0.00402834
4.00129e-05
0.00401543
-6.4009e-06
4.12748e-05
-3.52659e-05
0.00398396
5.16373e-05
0.00397124
1.51715e-06
-0.0038527
8.69831e-06
-0.00384649
-0.0001027
-0.00393849
1.66802e-05
-0.00384043
2.55672e-05
-0.00383463
3.54433e-05
-0.00373949
3.12908e-05
-2.58139e-06
-0.00368608
-1.80415e-05
-0.00364168
-0.0038524
-0.00400928
0.00382348
-0.000211352
-0.000352159
0.000468201
-0.00426348
0.00417555
-0.00433886
-0.000188851
-0.000254684
-0.00369071
0.00375906
-9.90173e-05
-9.07415e-05
-0.00383745
0.00388339
-9.24889e-06
-2.90858e-05
-0.00388781
0.003892
-3.79962e-05
-4.05212e-05
-0.00389597
0.00389975
-3.35926e-05
-3.58437e-05
-0.00390331
0.0039067
-2.97238e-05
-3.17346e-05
-0.0039099
0.00391294
-2.63246e-05
-2.81263e-05
-0.00391581
0.00391853
-2.3335e-05
-2.49562e-05
-0.0039211
0.00392354
-2.07006e-05
-2.21667e-05
-0.00392584
0.00392802
-1.83746e-05
-1.97075e-05
-0.00393008
0.00393204
-1.63165e-05
-1.7535e-05
-0.00393389
0.00393565
-1.44917e-05
-1.56118e-05
-0.00393731
0.00393889
-1.28717e-05
-1.39063e-05
-0.00394038
0.0039418
-1.14321e-05
-1.23925e-05
-0.00394314
0.00394442
-1.01525e-05
-1.10479e-05
-0.00394562
0.00394677
-9.01531e-06
-9.85383e-06
-0.00394785
0.00394889
-8.00497e-06
-8.79362e-06
-0.00394986
0.0039508
-7.10805e-06
-7.85299e-06
-0.00395168
0.00395252
-6.31195e-06
-7.01893e-06
-0.00395331
0.00395407
-5.60491e-06
-6.2793e-06
-0.00395478
0.00395547
-4.97619e-06
-5.62288e-06
-0.00395612
0.00395674
-4.41636e-06
-5.03962e-06
-0.00395733
0.0039579
-3.91535e-06
-4.52031e-06
-0.00398668
0.00400141
2.39321e-05
-4.05681e-06
4.65578e-05
1.8455e-05
-4.34432e-05
0.00401388
-2.95587e-05
1.38807e-06
0.00401871
0.00400325
-8.76328e-07
4.22888e-07
0.0039748
0.00396038
3.16917e-08
-4.9097e-07
0.0039741
0.00396026
9.48809e-07
-1.40749e-06
0.00397363
0.00396022
-4.48575e-05
3.28436e-05
0.0040162
0.00396028
0.00401184
0.00401741
-0.00401958
2.63748e-05
-0.00400901
0.00399177
6.02797e-05
5.27709e-05
0.00398824
-0.00395778
-4.53524e-06
-4.81732e-06
0.00395722
-0.00395663
-5.00731e-06
-5.25254e-06
0.00395601
-0.00395535
-5.53926e-06
-5.74513e-06
0.00395468
-0.00395396
-6.13617e-06
-6.29853e-06
0.00395321
-0.00395241
-6.8047e-06
-6.91955e-06
0.00395158
-0.0039507
-7.55278e-06
-7.61565e-06
0.00394978
-0.0039488
-8.38985e-06
-8.39539e-06
0.00394778
-0.00394669
-9.32681e-06
-9.26888e-06
0.00394556
-0.00394435
-1.03767e-05
-1.02481e-05
0.00394308
-0.00394174
-1.15548e-05
-1.13471e-05
0.00394033
-0.00393883
-1.28788e-05
-1.25823e-05
0.00393725
-0.00393558
-1.43687e-05
-1.39725e-05
0.00393382
-0.00393195
-1.60482e-05
-1.55395e-05
0.00392999
-0.0039279
-1.79438e-05
-1.73083e-05
0.0039257
-0.00392336
-2.00869e-05
-1.93077e-05
0.0039209
-0.00391829
-2.25138e-05
-2.15713e-05
0.00391553
-0.0039126
-2.52669e-05
-2.41384e-05
0.00390952
-0.00390623
-2.83967e-05
-2.70551e-05
0.00390277
-0.00389908
-3.19634e-05
-3.03765e-05
0.00389519
-0.00389105
-3.60389e-05
-3.41683e-05
0.00388669
-0.00388203
-4.07095e-05
-3.85091e-05
0.00387712
-0.00387189
-4.60779e-05
-4.34932e-05
0.00386636
-0.00386047
-5.22709e-05
-4.92353e-05
0.0038018
-0.00374497
-5.94394e-05
-5.58605e-05
0.00371615
-0.00371528
-1.89139e-05
-2.09501e-05
-0.000239619
5.15046e-05
-0.00373787
-0.00380581
2.3676e-05
4.69181e-06
-0.00367004
-0.00364969
-4.19164e-05
5.36682e-06
-0.00374817
4.52686e-05
0.00397155
0.00402556
1.78463e-05
0.000140656
-0.00429979
-0.000179719
1.68494e-06
-0.00384568
0.000250747
-0.00437357
-2.72941e-05
-0.00381969
9.27547e-06
-0.00383908
-2.98403e-05
-0.00385715
1.77788e-05
-0.00383264
2.72983e-05
-0.00382649
3.79134e-05
-0.00377998
8.9367e-06
-0.00369033
-1.18225e-05
4.38996e-06
-0.00366261
-1.52452e-05
-0.00364626
-0.00384535
-0.00426892
0.00410038
-2.03132e-05
-0.000282799
-0.00423172
0.000214722
0.00438456
-0.00427537
-0.000391992
-6.40745e-05
-0.00398861
0.00390454
-0.000127273
-0.00014292
-0.00387123
0.00382607
-5.38474e-05
-5.74407e-05
-0.00384763
0.00388594
-4.75658e-05
-5.0648e-05
-0.00389023
0.0038943
-4.20632e-05
-4.48096e-05
-0.00389813
0.00390178
-3.72361e-05
-3.96768e-05
-0.00390521
0.00390848
-3.29921e-05
-3.5171e-05
-0.00391156
0.0039145
-2.9257e-05
-3.12089e-05
-0.00391726
0.00391989
-2.59657e-05
-2.77213e-05
-0.00392237
0.00392473
-2.3061e-05
-2.46469e-05
-0.00392696
0.00392908
-2.04929e-05
-2.19326e-05
-0.00393107
0.00393297
-1.82183e-05
-1.95318e-05
-0.00393477
0.00393648
-1.62002e-05
-1.74046e-05
-0.00393809
0.00393962