/*--------------------------------*- C++ -*----------------------------------*\
  =========                 |
  \\      /  F ield         | OpenFOAM: The Open Source CFD Toolbox
   \\    /   O peration     | Website:  https://openfoam.org
    \\  /    A nd           | Version:  10
     \\/     M anipulation  |
\*---------------------------------------------------------------------------*/
FoamFile
{
    format      ascii;
    class       surfaceScalarField;
    location    "14";
    object      phi;
}
// * * * * * * * * * * * * * * * * * * * * * * * * * * * * * * * * * * * * * //

dimensions      [0 3 -1 0 0 0 0];

internalField   nonuniform List<scalar> 
57492
(
0.000289695
-1.24876e-05
-5.41274e-05
-0.00022308
-0.000223969
0.000337751
0.000175913
-2.94838e-05
8.31557e-05
0.000331702
-0.000385374
0.00316035
0.00338615
-0.000272331
-0.00627417
-0.00862828
0.00404499
0.00774363
0.00130424
-0.0012201
-0.000637913
0.000553771
-0.00235847
0.000477989
-0.000200175
0.00208065
0.000469982
-0.00152421
0.0013896
-0.0045836
0.00437618
-0.00118218
0.00118986
0.00420851
-0.00400877
-0.000911721
-0.000285899
0.000956137
0.000241483
-0.00012154
-0.00107159
0.000281405
0.000358545
-0.000453431
-2.66533e-05
-7.54615e-05
0.000148108
0.00282418
-0.00268255
-0.00101255
0.00087092
0.000365517
0.00226955
0.000189113
-0.000323439
0.000786478
0.00334485
-0.00380789
-0.000662229
0.00327058
-0.00293179
0.000136017
-0.000290636
0.000154619
-0.00167863
0.00122978
0.000584865
-0.00468446
0.000203617
0.00335877
0.00112208
0.00121777
-0.00475166
-0.00115057
-0.000132036
-0.000283143
-0.000789022
0.0012042
-0.000333465
0.000225532
-2.41028e-05
-0.00278202
0.00231962
0.000832775
-0.000370373
-0.00321503
0.000864934
-0.000431928
-0.00112527
0.000593346
0.00045734
7.45796e-05
-0.000778119
-0.000360763
1.3617e-05
-0.000371943
-0.00114977
0.00131329
0.000208421
-0.000421993
0.000118478
-6.84282e-05
0.00136663
-0.00091481
-0.000851491
0.000399673
-0.00118145
0.00090354
0.00164454
-0.00158162
-0.0030456
0.0027894
0.00183782
-0.00344003
-0.000862525
0.00272094
-0.000716593
-0.000154974
0.000871567
-0.000274971
-0.000441622
-0.00139098
0.00191501
-0.000799002
0.000205581
-0.000777189
-0.000819375
-0.00107739
0.00155537
-0.000236042
-0.00190204
0.00115096
0.000751078
-0.00432232
0.00242028
0.00458644
-0.000649832
0.000212174
-0.00414878
0.00338076
-0.000215178
0.00142086
-0.000558722
0.00447173
-0.00456284
0.00251129
0.000506597
-0.00254791
0.00250188
-0.000190763
0.00295381
-0.00110169
-0.00218312
0.000330997
0.00331368
0.000146726
0.00162608
-0.000983152
0.00185895
0.0014396
0.00226713
-0.00453609
-0.000658956
0.000610283
0.00458476
-0.00467867
-0.00034346
0.000486049
0.00104712
0.00447209
-0.00440211
-0.0011171
0.000722923
-0.0042594
-0.0033768
0.00268924
0.00291978
-0.00223223
-0.000714179
0.00340419
-0.00606681
3.90772e-06
-0.000164202
2.03105e-06
0.000158263
-0.00041319
-3.63332e-05
9.8366e-05
-0.000165483
-0.000346073
-7.76726e-05
1.18372e-05
2.45329e-05
-2.25018e-05
1.25281e-05
1.20048e-05
0.00752928
0.0037565
-0.00601585
-0.00526993
0.00225507
-0.000649697
0.00592391
-0.00801916
0.00297421
0.00730003
0.00219625
-0.00645891
0.00161041
-0.00288114
0.00215186
-0.000881127
0.00237815
-0.00293207
0.00216432
-3.71667e-05
2.81196e-05
-3.44048e-06
-8.58294e-05
-5.46472e-06
-0.000271822
-3.70871e-05
-0.00296809
0.00539836
0.00338381
-0.00581408
0.004357
-0.00494693
0.00296857
0.00479781
-0.00236802
0.0104845
-0.00182161
-0.00158615
-0.00707674
0.00186662
0.00572362
0.00289427
0.00136096
-0.00533388
0.00583954
4.80799e-05
-7.75636e-05
0.000131236
0.000841945
0.00178782
-0.000637476
-0.00199229
0.00107043
0.000103218
-0.000112111
3.22224e-05
7.9889e-05
-0.000334249
0.000222138
-0.00672886
0.00340274
-0.00202576
0.00535189
-0.00581655
-0.00260009
0.00168777
-0.00265668
0.00213614
-0.00529601
0.00198925
-2.5852e-05
-0.000959971
-0.00100343
-0.000724738
0.00226833
0.000445662
-0.00085087
-8.66417e-05
0.000212773
-0.000785815
-9.09068e-05
-0.000275662
-0.00147012
-0.000524276
-0.000121322
4.7869e-05
0.000597729
-0.000364148
-0.000959196
0.000799068
0.00029313
4.32144e-05
-0.000700493
0.00018378
-1.19722e-05
0.00024606
-1.4411e-05
-0.000651985
0.000376323
8.39635e-05
-0.000735949
0.000182591
-0.00051684
0.00427374
0.00333154
-0.000178566
0.00212848
-0.00648301
-1.07806e-05
0.00226453
-0.00179766
-0.000456095
0.000290894
0.00316493
-0.00346661
0.00314823
0.00208568
-0.000808439
-0.00442547
-0.000771916
0.000202381
0.00371777
0.00413419
-0.00282043
-0.0016245
-0.00304235
0.001214
0.00345285
-0.00121664
0.00351989
-0.00392775
0.000388644
-0.00464763
0.000144138
7.53986e-05
-6.72253e-06
0.00127308
-0.000719091
-0.000777953
0.000171372
-0.000537919
0.00163962
0.000515783
-6.66092e-06
-0.000187765
0.00033654
6.89551e-05
-0.00021773
0.00100454
-0.00123396
4.16515e-05
-0.000363117
0.000841512
0.00052615
-0.000127156
0.000100578
-0.00626563
0.00360331
0.00606506
0.00777167
-0.00208123
-0.00829052
-0.0029441
0.00445014
-9.72407e-05
-0.000884172
-0.000168355
-0.000528712
9.47829e-06
4.59836e-05
-0.000132411
4.10159e-05
4.54118e-05
-0.000129886
0.000142149
3.37199e-05
-0.000295346
3.30489e-05
-0.000269141
-0.000316226
5.66551e-05
-0.000814391
-0.000338923
-0.00139137
-0.00150061
0.00173232
0.00115966
6.19625e-05
0.000717391
-0.00217072
-0.0019699
0.000531256
-0.00295578
0.00133615
-5.89933e-05
-0.00351971
0.000804377
-0.00024045
0.000874586
-0.00334777
0.00256531
-9.21324e-05
0.000677662
-0.00273035
0.00292728
0.00252747
-0.0101976
-0.00178878
0.00220417
0.00303991
-0.00349254
0.00208845
-0.000328406
-3.04559e-05
7.36703e-05
-3.60493e-05
5.59336e-06
0.000287522
-4.15798e-05
0.00495057
-0.00301838
-0.00226444
0.000332253
0.00430135
9.0493e-05
0.00502787
-0.000318017
-0.00542403
0.0010258
0.00359121
0.000410861
0.000285441
-0.0033111
0.00405146
5.54784e-06
-4.15971e-05
0.000767396
-0.00215356
-0.00289271
0.00126159
0.00314288
0.00152663
-8.71325e-05
-0.0016047
0.000165208
0.000491063
-0.000145888
-0.00194624
0.000382179
0.0024676
0.000330293
-0.00178547
-0.000135619
7.05092e-05
-3.43227e-05
3.61293e-05
1.86706e-07
-1.99329e-06
1.93848e-05
5.53043e-07
-5.42605e-05
4.93113e-05
-0.000215279
0.000185352
-0.00193032
0.0029387
-0.000825783
0.00299945
-0.00405137
-0.000878404
-1.54814e-05
-0.00259564
0.0029933
-0.00413753
0.000272803
-0.00282386
-0.00192136
0.000607695
0.00272557
0.00291558
-0.00543753
0.00260188
0.00433988
-0.0042162
0.00224111
-0.00309767
0.00161743
-0.00076087
0.0024541
-0.0030374
0.00282442
0.00440732
0.00186703
0.00482564
-0.000263832
-0.00481286
0.000251053
0.00531882
-0.000675657
0.000182481
0.00547974
-0.000797989
-2.21246e-05
-0.00465963
0.00393721
-0.00125799
0.00280053
0.00431736
-0.00136188
0.0010966
-0.00405208
0.0012189
0.00440006
-0.00130161
-0.00389036
-0.00162867
0.00415715
0.00102707
-0.00370343
-0.00181216
0.00363633
-0.00233874
-0.00326456
0.00210772
0.00349558
-0.00236372
-0.00329604
0.00332102
0.00220915
0.00307952
-0.00145183
-0.00383684
0.00305409
-0.00320866
-0.00256182
0.00257596
0.00303996
-0.00202345
0.00254115
-0.00409899
0.00364544
-0.000998287
-0.00511043
0.00102926
0.00542133
-0.00134017
0.00189878
-0.000706604
0.00155895
-0.00162265
0.000770295
-0.00046253
0.0018767
-0.00212077
-6.10113e-05
0.000387791
0.000189004
-0.00191728
-0.00286326
0.00183979
-5.32456e-06
5.87759e-06
1.93764e-07
-5.51831e-06
-0.00019771
-0.00322622
0.00244078
-0.00279293
-0.000140491
0.00273571
0.000103306
-0.00292787
3.16307e-05
-0.000410105
0.00189331
0.000438632
-0.00192184
0.00202913
0.000427812
-0.00286705
0.00188131
0.00204113
-5.38002e-06
5.90708e-06
7.48716e-05
-9.77838e-08
-5.28224e-06
5.8093e-06
-7.43152e-06
8.05334e-06
-7.82945e-05
2.61132e-06
-1.00428e-05
1.06647e-05
-5.14569e-05
2.51475e-05
-0.000307155
2.72443e-05
-7.87012e-05
5.23917e-05
5.39699e-05
-5.45689e-06
-0.000175669
-1.717e-05
7.114e-05
-2.26269e-05
0.00115305
0.00319964
-0.00415031
0.00156208
-0.00450188
0.00409284
0.00447378
0.000287941
-0.00118886
-0.00244683
0.00116462
0.00247108
-0.000706463
0.00272109
-0.00320349
0.000163602
-0.0033169
0.00402815
-0.00406659
-1.2788e-05
5.12292e-05
0.00402606
3.63481e-05
-3.42597e-05
-2.52666e-05
-0.00406087
1.95453e-05
0.00405585
-1.33282e-06
-2.84584e-05
0.00412761
5.8869e-05
-0.000130621
2.88728e-05
0.00423005
-0.000131321
0.0041792
-0.00415483
4.50961e-06
-0.000196818
0.00442722
-3.49257e-07
0.00406257
-8.01964e-05
-0.00402796
-6.80014e-05
-0.00401446
-1.48315e-05
-0.00400924
3.1127e-05
-0.00409565
7.36151e-05
-0.00402907
-9.18442e-05
-0.000190838
0.0046187
-6.41155e-07
0.00387246
-7.22346e-07
-2.01886e-05
-0.0040271
-1.35855e-05
-0.00406226
1.30043e-05
-2.86448e-05
-0.00425994
0.000261491
-1.63317e-07
0.00461913
-2.64596e-07
0.00387344
-1.14333e-06
-0.00421173
0.000120824
0.00461966
3.69009e-08
-5.65332e-07
-7.90336e-08
0.00461992
-1.84994e-07
0.00387409
-6.11142e-07
0.00387506
-1.04752e-06
-2.42041e-05
-0.00423454
-1.204e-06
-0.00423454
-1.39862e-06
1.70767e-07
0.00462024
-4.92978e-07
0.00387574
-5.16368e-07
-3.28656e-07
-0.00423318
-1.02407e-06
-0.00423296
-1.90615e-06
1.73007e-07
0.00462018
-1.08053e-07
0.00387688
-9.67309e-07
-1.93732e-07
-0.00423156
-1.42917e-06
-0.0042316
-1.55023e-06
6.57952e-07
0.00461994
-4.22145e-07
0.00387798
-4.35718e-07
-2.91801e-07
-0.00423001
-1.25812e-06
-0.00422984
-2.05117e-06
1.12921e-06
0.00461885
-3.41923e-08
0.00388001
-9.00617e-07
-1.23971e-07
-0.00422822
-1.665e-06
-0.00422825
-1.71147e-06
2.56878e-06
0.00461663
-3.53645e-07
0.00388294
-3.65348e-07
9.60467e-06
-0.00423631
-1.51447e-06
-0.00421643
-2.21997e-06
4.93379e-06
0.00461166
4.30844e-08
0.00388871
-8.39691e-07
2.74575e-05
-0.00411568
-0.000148085
-0.00414337
-4.56006e-05
1.01676e-05
0.00460177
-2.85555e-07
0.00388118
1.76987e-05
2.72446e-05
-0.00413441
-8.51438e-06
-0.00411153
-4.60022e-06
2.00387e-05
0.00458161
1.25078e-07
0.00385411
4.71153e-05
5.87379e-05
-0.00398802
-0.000205133
-0.00399211
-6.06777e-05
0.000196319
0.0043855
-2.10345e-07
0.00397149
7.89371e-05
6.77227e-05
-0.00396943
-8.63085e-05
-0.00394777
2.33816e-05
0.000173327
0.00406228
0.00014989
0.00403709
0.000107727
0.000108081
-0.000152969
-0.00392455
-0.00393165
9.19651e-05
1.19901e-05
3.92368e-05
0.00401106
0.00401094
3.81437e-05
-0.0039838
0.00404705
-0.000149558
-0.00400567
-0.000131093
0.000184664
-0.000161192
-0.00394802
9.27145e-05
-0.00383971
-0.00396103
0.00399632
-4.38035e-05
-0.000119111
-0.00385208
0.00385391
-3.3456e-06
-3.84538e-06
-0.00385564
0.00385728
-2.90306e-06
-3.39293e-06
-0.00385883
0.00386032
-2.50698e-06
-2.98222e-06
-0.00386173
0.0041254
-2.17427e-06
-2.62001e-06
-0.00411412
0.00405801
7.56586e-05
-2.30785e-06
-0.00418882
0.00415618
-1.6194e-06
-7.95886e-05
-0.00402329
0.00396466
-7.19898e-05
0.000104435
-0.00387066
0.00387153
-1.2264e-06
-3.73169e-05
-0.00387237
0.00387316
-1.05905e-06
-1.47345e-06
-0.00387391
0.00387463
-9.03808e-07
-1.31986e-06
-0.00387532
0.00387597
-7.5826e-07
-1.17744e-06
-0.00387659
0.00387718
-6.20654e-07
-1.04342e-06
-0.00387774
0.00387827
-4.88497e-07
-9.16471e-07
-0.00387878
0.00387926
-3.59686e-07
-7.94151e-07
-0.00385677
0.00394768
5.89778e-05
2.22863e-05
0.00393793
4.8986e-05
-2.42075e-05
7.76344e-05
0.00395763
-3.48758e-06
0.00399022
0.0039628
-0.00389733
1.3469e-05
-0.0040015
0.00399307
4.65685e-05
6.9031e-05
0.00389677
-0.00387825
-8.13584e-07
4.65478e-05
0.00387772
-0.00387715
-9.3186e-07
-1.37387e-06
0.00387656
-0.00387594
-1.0612e-06
-1.49027e-06
0.00387528
-0.00387459
-1.20754e-06
-1.61964e-06
0.00387387
-0.00387311
-1.3751e-06
-1.76841e-06
0.00387231
-0.00387147
-1.56551e-06
-1.93929e-06
0.00394954
-0.00394324
-1.7841e-06
-2.1308e-06
0.00400889
-0.00396496
-5.87607e-05
-2.35056e-06
0.00393849
-0.00391212
4.72497e-05
4.64983e-06
0.00396052
-0.00398562
3.80969e-05
-4.34419e-05
0.0038617
-0.00386029
-2.80366e-06
-3.09475e-06
0.00385882
-0.00385726
-3.11197e-06
-3.37593e-06
0.00385562
-0.00385388
-3.45279e-06
-3.68952e-06
0.00385206
-0.00389382
-3.83816e-06
-4.04313e-06
0.00389398
-0.00395038
-4.27408e-06
-4.44369e-06
0.0039221
-0.00386465
3.45162e-05
-4.90258e-06
-0.00382201
5.00781e-05
-0.00403598
-0.000130887
0.00395019
6.53754e-05
1.98677e-07
0.00398939
0.000145495
-0.000131539
-0.00385366
0.000115366
-0.00379188
0.000135659
-0.00012717
-0.00404447
-0.0039439
-0.00396069
0.00389712
-8.59944e-05
0.00400535
-0.00403839
-9.78411e-05
-8.64312e-05
-0.00384848
0.00385035
-4.56692e-05
-7.04703e-05
-0.00385228
0.0038541
-5.17286e-06
-5.77524e-06
-0.00385583
0.00385747
-4.54241e-06
-5.11521e-06
-0.00385901
0.00386049
-3.98185e-06
-4.52904e-06
-0.00386188
0.0038632
-3.49276e-06
-4.01287e-06
-0.00386446
0.00394319
-3.07156e-06
-3.56553e-06
-0.00386677
0.00386785
-2.69967e-06
-3.17591e-06
-0.00397514
0.00390553
-2.37599e-06
-2.85311e-06
-0.00387076
0.00387164
-2.1022e-06
-2.55123e-06
-0.00387247
0.00387326
-1.85067e-06
-2.30157e-06
-0.00387401
0.00387472
-1.62006e-06
-2.06847e-06
-0.0038754
0.00387605
-1.40657e-06
-1.85482e-06
-0.00387666
0.00387725
-1.20761e-06
-1.65663e-06
-0.0038778
0.00387834
-1.02101e-06
-1.47187e-06
-0.00387884
0.00387932
-8.4299e-07
-1.29814e-06
-0.00387948
0.00391109
2.73706e-05
2.21264e-05
9.22182e-06
-1.76312e-05
0.00396604
2.09669e-06
0.00395731
-0.00389955
0.0039383
2.66232e-05
6.05262e-05
0.0039405
-0.00394131
4.73706e-05
0.00390891
3.17892e-05
-2.06178e-06
4.62518e-05
0.0039452
0.00397052
0.00394178
-0.00391281
-1.55007e-05
6.9502e-05
0.00387882
-0.0038783
-1.32694e-06
1.25559e-05
0.00387777
-0.0038772
-1.49648e-06
-1.90788e-06
0.00387662
-0.00387599
-1.68366e-06
-2.07738e-06
0.00387535
-0.00387466
-1.89481e-06
-2.26797e-06
0.00387394
-0.00387318
-2.13371e-06
-2.48446e-06
0.00387239
-0.00387156
-2.40196e-06
-2.72973e-06
0.00387068
-0.00386976
-2.70424e-06
-3.00565e-06
0.0038688
-0.00392453
-3.03028e-06
-3.31215e-06
0.00391623
-0.00386559
-3.39043e-06
-3.64778e-06
0.00390503
-0.00386315
-3.77936e-06
-4.00502e-06
0.00386184
-0.00386045
-4.19894e-06
-4.40445e-06
0.00385899
-0.00385744
-4.66377e-06
-4.83703e-06
0.00385581
-0.00385408
-5.18292e-06
-5.31791e-06
0.00385226
-0.00385033
-5.76922e-06
-5.85955e-06
0.0038483
-0.00384614
-6.43276e-06
-6.47257e-06
0.00384387
-0.00380217
-7.18631e-06
-7.17165e-06
0.0037784
-0.00372469
6.16619e-05
2.63036e-05
-0.00406615
-9.94108e-05
0.000101849
-0.000161158
-0.00373257
-0.00369951
7.66709e-05
-0.000218684
-0.00379614
2.54657e-05
0.00391493
0.00391492
4.02414e-05
-6.26774e-05
8.66629e-05
-0.00406846
-6.01585e-05
-0.00406867
7.63912e-05
-0.000159565
-0.0036494
5.09985e-05
-0.00367412
-0.00407592
0.00394836
-0.00393661
1.48692e-05
0.00390804
6.57894e-05
6.96661e-05
-2.99342e-05
0.00390546
4.5474e-05
0.00393912
-0.00402158
0.00406598
-0.000104556
-0.000114611
9.4267e-05
-0.00404833
0.0041101
-8.38322e-05
0.000322298
-0.00434857
-2.60922e-05
-0.00406191
0.00403051
-6.64465e-05
-9.53352e-05
-0.00397913
0.0039167
-2.35656e-05
-3.50472e-05
-0.00388845
0.00385068
-7.90767e-06
-4.22175e-05
-0.00385259
0.00385441
-6.98711e-06
-7.68239e-06
-0.00385611
0.00385774
-6.16866e-06
-6.82395e-06
-0.00385927
0.00386074
-5.44374e-06
-6.06299e-06
-0.00386212
0.00386343
-4.80761e-06
-5.39251e-06
-0.00386467
0.00386585
-4.25159e-06
-4.80694e-06
-0.00386697
0.00386804
-3.76675e-06
-4.29693e-06
-0.00386904
0.00387001
-3.34312e-06
-3.85497e-06
-0.00387092
0.00387179
-2.97065e-06
-3.46389e-06
-0.00387261
0.0038734
-2.63563e-06
-3.12197e-06
-0.00387414
0.00387485
-2.32971e-06
-2.80997e-06
-0.00387552
0.00387616
-2.0488e-06
-2.52533e-06
-0.00387677
0.00387735
-1.78951e-06
-2.2636e-06
-0.0038779
0.00387843
-1.54934e-06
-2.02212e-06
-0.00387893
0.00387941
-1.32455e-06
-1.79838e-06
-0.00389057
0.00389748
2.04594e-05
1.09701e-05
2.13969e-05
2.56965e-05
-9.34591e-06
0.00394969
-4.15554e-05
1.14233e-05
0.00394507
0.00394145
0.00393124
0.00392954
-0.00392517
4.30008e-05
-0.00392406
0.00390284
6.14617e-05
3.72634e-05
0.00387982
-0.00389368
-1.64249e-06
2.41595e-05
0.00387888
-0.00387837
-1.83791e-06
-2.24144e-06
0.00387784
-0.00387728
-2.05659e-06
-2.43683e-06
0.0038767
-0.00387608
-2.30102e-06
-2.65976e-06
0.00387544
-0.00387476
-2.57598e-06
-2.91061e-06
0.00387405
-0.0038733
-2.8852e-06
-3.19377e-06
0.00387252
-0.00387169
-3.23124e-06
-3.51245e-06
0.00387082
-0.00386991
-3.61773e-06
-3.86925e-06
0.00386896
-0.00386795
-4.04201e-06
-4.26548e-06
0.00386689
-0.00386577
-4.50763e-06
-4.70154e-06
0.0038646
-0.00386336
-5.01839e-06
-5.178e-06
0.00386206
-0.00386068
-5.57918e-06
-5.70424e-06
0.00385924
-0.0038577
-6.2011e-06
-6.28413e-06
0.00385608
-0.00385437
-6.89733e-06
-6.93128e-06
0.00385257
-0.00385066
-7.68242e-06
-7.65988e-06
0.00384865
-0.00384651
-8.57049e-06
-8.48379e-06
0.00384426
-0.00384187
-9.57818e-06
-9.41882e-06
0.00380508
-0.0037327
-1.07244e-05
-1.04808e-05
0.00368991
-0.0036958
5.68923e-05
3.38833e-05
6.59885e-05
-6.61162e-05
-0.00367399
-0.00367631
4.64897e-05
0.000120735
-0.00409492
-9.63959e-05
-0.0038593
3.84614e-05
0.003881
0.00391639
3.19248e-05
0.000144686
-0.00427685
4.06547e-06
-0.00371958
0.000840213
-0.00343297
0.00447407
-6.20432e-05
3.80056e-05
-0.00365227
-9.87622e-05
-0.00363727
-0.00271168
0.00412719
0.000625619
-0.00211632
-0.00015673
-0.00405158
-0.00391319
0.00407828
0.000157207
0.000339506
-0.000125503
-0.00403891
0.00400239
-6.8033e-05
1.32747e-05
-0.00396977
0.00391595
-1.26271e-05
-6.2721e-05
-0.003893
0.00388062
-1.11803e-05
-1.20969e-05
-0.00384915
0.00385115
-9.90407e-06
-1.07479e-05
-0.00385303
0.00385481
-8.77603e-06
-9.56249e-06
-0.0038565
0.00385811
-7.77465e-06
-8.51052e-06
-0.00385962
0.00386107
-6.88801e-06
-7.57826e-06
-0.00386243
0.00386373
-6.10718e-06
-6.7557e-06
-0.00386496
0.00386613
-5.42182e-06
-6.03365e-06
-0.00386723
0.00386829
-4.82164e-06
-5.40187e-06
-0.00386928
0.00387023
-4.29456e-06
-4.85006e-06
-0.00387113
0.00387199
-3.82866e-06
-4.36284e-06
-0.0038728
0.00387357
-3.41033e-06
-3.93187e-06
-0.00387431
0.00387501
-3.03018e-06
-3.54183e-06
-0.00387567
0.0038763
-2.68271e-06
-3.18712e-06
-0.0038769
0.00387748
-2.36409e-06
-2.86283e-06
-0.00387802
0.00387854
-2.07132e-06
-2.56567e-06
-0.00387904
0.00387951
-1.80183e-06
-2.29308e-06
-0.00389253
0.00391455
-1.56032e-06
-2.046e-06
-0.00390541
0.00390332
1.69622e-05
3.0535e-05
-0.00391887
0.00391466
4.26747e-05
5.02353e-05
5.44645e-05
-3.03775e-05
0.00392098
-3.35498e-05
7.28063e-06
0.00394093
0.00390191
3.82866e-05
1.56175e-05
0.00389578
0.00394936
-2.66292e-05
1.81375e-05
0.00391396
0.00392023
-2.25416e-05
2.83231e-06
0.0039361
0.00393471
0.00393891
-0.00392487
4.74183e-05
-0.00399992
0.00389333
0.000109418
-2.90773e-05
0.00391496
-0.00390656
3.46079e-05
2.73496e-05
0.00387991
-0.00387945
-2.10218e-06
-2.49764e-06
0.00387897
-0.00387847
-2.3422e-06
-2.71516e-06
0.00387795
-0.00387739
-2.61039e-06
-2.95976e-06
0.00387682
-0.00387621
-2.91131e-06
-3.23554e-06
0.00387557
-0.0038749
-3.24888e-06
-3.54565e-06
0.0038742
-0.00387346
-3.62735e-06
-3.89435e-06
0.00387268
-0.00387186
-4.04995e-06
-4.28536e-06
0.00387101
-0.00387011
-4.52045e-06
-4.72207e-06
0.00386917
-0.00386817
-5.03985e-06
-5.2072e-06
0.00386713
-0.00386602
-5.61255e-06
-5.74327e-06
0.00386487
-0.00386364
-6.24404e-06
-6.3337e-06
0.00386236
-0.00386099
-6.94222e-06
-6.98774e-06
0.00385957
-0.00385805
-7.71921e-06
-7.7131e-06
0.00385645
-0.00385476
-8.59004e-06
-8.52431e-06
0.00385298
-0.0038511
-9.57126e-06
-9.43729e-06
0.00384911
-0.003847
-1.06803e-05
-1.04688e-05
0.00384478
-0.00384242
-1.19368e-05
-1.16376e-05
0.00383994
-0.0038373
-1.33642e-05
-1.29635e-05
0.00378895
-0.00371707
-1.49881e-05
-1.4472e-05
0.0037184
-0.00370302
2.26234e-05
4.78219e-05
4.66432e-05
-4.50663e-05
-0.00365384
-0.00367604
1.96727e-05
0.00011687
-0.00406711
-2.93727e-05
-0.00382587
0.000300971
-0.0037376
4.32837e-06
-0.00382267
0.00391609
-0.0039217
4.82794e-05
0.00390255
2.0821e-05
4.84081e-05
-3.28607e-05
0.00392055
1.20977e-05
0.00392964
0.000290607
-0.00329577
8.26899e-06
-0.00369061
-0.00198026
-0.00205789
-0.00321586
0.00369602
0.000145464
7.56458e-05
-5.13949e-05
-0.0036781
4.89683e-05
-0.00364937
-0.00299146
-0.000381134
-0.00396408
-0.00385586
0.00390708
0.000105989
0.000179661
-0.00393854
0.00388745
-1.69442e-05
-1.81825e-05
-0.00384088
0.00384329
-1.50329e-05
-1.61503e-05
-0.00384556
0.00384773
-1.33476e-05
-1.43715e-05
-0.00384978
0.00385173
-1.18552e-05
-1.2798e-05
-0.00385357
0.00385533
-1.05309e-05
-1.14048e-05
-0.00385698
0.00385856
-9.35358e-06
-1.01671e-05
-0.00386005
0.00386147
-8.30943e-06
-9.06891e-06
-0.00386282
0.0038641
-7.38724e-06
-8.09777e-06
-0.0038653
0.00386646
-6.57499e-06
-7.24225e-06
-0.00386755
0.00386859
-5.86084e-06
-6.49055e-06
-0.00386957
0.0038705
-5.23127e-06
-5.83055e-06
-0.00387139
0.00387223
-4.67312e-06
-5.24722e-06
-0.00387303
0.00387379
-4.17255e-06
-4.72891e-06
-0.00387451
0.0038752
-3.71919e-06
-4.26179e-06
-0.00387585
0.00387647
-3.30652e-06
-3.83823e-06
-0.00387706
0.00387763
-2.9296e-06
-3.45254e-06
-0.00387817
0.00387868
-2.5854e-06
-3.1008e-06
-0.00387917
0.00387964
-2.27148e-06
-2.78019e-06
-0.00388008
0.00388051
-1.98715e-06
-2.48969e-06
-0.00391327
0.00389998
3.02497e-05
-2.23064e-06
2.85209e-05
4.17117e-05
-6.6803e-05
0.00394607
-1.71139e-05
2.96374e-05
0.0039284
0.00392651
-1.69065e-08
-3.15605e-07
0.00389612
0.00388254
-3.73966e-05
5.5704e-05
0.00389565
0.00388252
0.00395756
0.00394117
-0.00392933
3.55796e-05
-0.00389234
0.003932
6.97615e-05
1.97452e-05
0.00391735
-0.00388044
-2.30598e-06
1.53716e-05
0.00388001
-0.00387956
-2.55544e-06
-2.92446e-06
0.00387909
-0.00387859
-2.8385e-06
-3.18379e-06
0.00387807
-0.00387753
-3.15623e-06
-3.47509e-06
0.00387696
-0.00387636
-3.51254e-06
-3.803e-06
0.00387573
-0.00387507
-3.91171e-06
-4.17122e-06
0.00387438
-0.00387365
-4.35799e-06
-4.58421e-06
0.00387289
-0.00387208
-4.85583e-06
-5.04627e-06
0.00387124
-0.00387036
-5.40942e-06
-5.56168e-06
0.00386943
-0.00386845
-6.02237e-06
-6.13445e-06
0.00386742
-0.00386633
-6.70038e-06
-6.76907e-06
0.00386519
-0.00386399
-7.45088e-06
-7.47142e-06
0.00386272
-0.00386138
-8.28394e-06
-8.2513e-06
0.00385998
-0.00385848
-9.21322e-06
-9.11956e-06
0.00385691
-0.00385525
-1.02552e-05
-1.00918e-05
0.0038535
-0.00385164
-1.14288e-05
-1.11856e-05
0.00384969
-0.00384762
-1.2754e-05
-1.24204e-05
0.00384544
-0.00384312
-1.42532e-05
-1.38174e-05
0.00384069
-0.0038381
-1.59521e-05
-1.54003e-05
0.00383537
-0.00383248
-1.78809e-05
-1.7196e-05
0.00376542
-0.00372272
-2.00713e-05
-1.92408e-05
0.00368148
-0.00365042
1.78999e-05
-2.15673e-05
9.07124e-05
-5.62725e-05
-0.00368381
-0.00362715
6.74478e-05
8.67019e-05
-0.00385284
7.95691e-07
-0.00382233
4.74141e-05
0.00388478
0.0039174
2.66997e-05
0.000172426
-0.00361942
-0.000482743
-0.00436457
-7.20801e-05
-0.00370643
4.58851e-06
-0.00381899
8.77384e-06
-0.00375078
-0.00430341
-0.000745939
0.000152492
-0.000450218
-0.00400569
-0.000313901
-0.00389817
-5.15659e-05
-0.0036828
5.12334e-05
-0.00011132
-0.00362372
9.1079e-05
-0.003667
-0.00387658
-0.00350859
0.00366608
-1.20213e-05
0.00368843
-0.00406119
-0.000373178
-0.000201294
-0.00378005
0.0038342
5.18409e-05
6.56872e-05
-0.00383687
0.00383944
-1.95119e-05
-2.08564e-05
-0.00384188
0.00384421
-1.73628e-05
-1.85903e-05
-0.00384642
0.00384853
-1.54546e-05
-1.6579e-05
-0.00385052
0.00385242
-1.37571e-05
-1.47917e-05
-0.00385422
0.00385593
-1.22458e-05
-1.32027e-05
-0.00385755
0.0038591
-1.08996e-05
-1.17878e-05
-0.00386056
0.00386195
-9.70335e-06
-1.05297e-05
-0.00386327
0.00386453
-8.64359e-06
-9.41439e-06
-0.00386571
0.00386685
-7.70724e-06
-8.4287e-06
-0.00386792
0.00386894
-6.88105e-06
-7.55953e-06
-0.0038699
0.00387082
-6.15068e-06
-6.79327e-06
-0.00387169
0.00387251
-5.50173e-06
-6.11492e-06
-0.0038733
0.00387404
-4.9203e-06
-5.51093e-06
-0.00387475
0.00387543
-4.39504e-06
-4.96795e-06
-0.00387606
0.00387668
-3.91836e-06
-4.47687e-06
-0.00387726
0.00387781
-3.48466e-06
-4.03112e-06
-0.00387834
0.00387884
-3.08992e-06
-3.626e-06
-0.00387932
0.00387978
-2.73141e-06
-3.25817e-06
-0.00388021
0.00388063
-2.40804e-06
-2.92569e-06
-0.00388103
0.0039134
-2.11685e-06
-2.62677e-06
-0.00391656
0.00392588
3.89614e-05
2.53567e-05
-0.00387363
0.00389035
3.06937e-05
7.30734e-05
6.54205e-05
-4.8324e-05
0.00391131
-1.39746e-05
-8.55577e-06
0.00391288
0.00393622
4.8649e-05
3.17425e-07
0.0038971
0.00392684
-2.06255e-09
-3.19431e-07
0.00389644
0.00388286
6.36939e-07
-9.58368e-07
0.00389597
0.00388284
-2.79114e-05
2.21068e-05
0.00392636
0.00392869
-1.55205e-05
2.05342e-05
0.00391238
0.00393623
0.00394511
-0.00390043
2.50796e-05
-0.00392703
0.00390413
4.34363e-05
4.47864e-05
0.00390808
-0.0038994
2.68979e-05
2.73968e-05
0.00388095
-0.00388055
-2.70901e-06
-3.08003e-06
0.00388013
-0.00387968
-2.99956e-06
-3.34482e-06
0.00387922
-0.00387874
-3.32604e-06
-3.64423e-06
0.00387823
-0.00387769
-3.69254e-06
-3.98143e-06
0.00387714
-0.00387654
-4.10311e-06
-4.36046e-06
0.00387593
-0.00387528
-4.56243e-06
-4.78553e-06
0.0038746
-0.00387389
-5.07527e-06
-5.26143e-06
0.00387314
-0.00387235
-5.64665e-06
-5.79309e-06
0.00387152
-0.00387065
-6.28205e-06
-6.38569e-06
0.00386974
-0.00386878
-6.9868e-06
-7.04458e-06
0.00386777
-0.0038667
-7.76805e-06
-7.77599e-06
0.00386559
-0.0038644
-8.63519e-06
-8.58787e-06
0.00386316
-0.00386184
-9.60031e-06
-9.4912e-06
0.00386047
-0.003859
-1.06783e-05
-1.04992e-05
0.00385746
-0.00385583
-1.18876e-05
-1.16286e-05
0.00385412
-0.0038523
-1.32485e-05
-1.28989e-05
0.00385039
-0.00384836
-1.47837e-05
-1.43315e-05
0.00384622
-0.00384396
-1.65182e-05
-1.59502e-05
0.00384158
-0.00383905
-1.84804e-05
-1.77816e-05
0.00383639
-0.00383357
-2.07035e-05
-1.98557e-05
0.0038306
-0.00382744
-2.32257e-05
-2.22091e-05
0.00382412
-0.00378012
-2.61015e-05
-2.48878e-05
0.00373702
-0.0036666
2.06573e-05
2.43423e-05
3.67404e-05
-7.22843e-05
-0.00363145
-0.00366311
3.32502e-05
5.72822e-05
-0.00373769
-0.00411573
-0.000395682
2.26355e-05
-0.00371414
0.00394054
-0.00395017
4.03189e-05
0.00393723
-5.24161e-06
4.15235e-05
-3.54626e-05
0.00390632
5.18174e-05
0.00389383
8.56946e-07
-0.0038186
4.87031e-06
-0.00381509
-0.000110461
-0.00390987
9.29329e-06
-0.00381164
1.4169e-05
-0.00380829
1.95388e-05
-0.00371554
5.56174e-05
-2.3413e-05
-0.00366366
9.49073e-06
-0.00361698
-0.00381844
-0.00397211
0.0037847
-0.000185769
-0.000326742
0.000443847
-0.00423283
0.00414045
-0.00430628
-0.000160906
-0.000227341
-0.00365134
0.0037168
-7.74814e-05
-6.79338e-05
-0.00379213
0.00383548
8.49852e-06
-9.64898e-06
-0.0038381
0.0038406
-2.20117e-05
-2.34763e-05
-0.00384297
0.00384523
-1.96262e-05
-2.09602e-05
-0.00384737
0.00384942
-1.75014e-05
-1.87227e-05
-0.00385136
0.00385321
-1.56069e-05
-1.67294e-05
-0.00385496
0.00385663
-1.39167e-05
-1.49528e-05
-0.00385821
0.00385972
-1.24085e-05
-1.33682e-05
-0.00386114
0.00386251
-1.10654e-05
-1.19564e-05
-0.00386379
0.00386502
-9.8723e-06
-1.07016e-05
-0.00386618
0.00386729
-8.81513e-06
-9.58936e-06
-0.00386834
0.00386933
-7.87949e-06
-8.60552e-06
-0.00387028
0.00387118
-7.05021e-06
-7.73542e-06
-0.00387202
0.00387284
-6.31233e-06
-6.96372e-06
-0.0038736
0.00387433
-5.65161e-06
-6.27592e-06
-0.00387502
0.00387568
-5.05601e-06
-5.65857e-06
-0.00387631
0.00387691
-4.51686e-06
-5.10148e-06
-0.00387747
0.00387802
-4.02767e-06
-4.59712e-06
-0.00387853
0.00387902
-3.58367e-06
-4.13995e-06
-0.00387949
0.00387994
-3.18142e-06
-3.72592e-06
-0.00388037
0.00388078
-2.81861e-06
-3.35225e-06
-0.00388117
0.00388154
-2.49143e-06
-3.0165e-06
-0.00390962
0.0039239
2.46814e-05
-2.71653e-06
4.68036e-05
1.86528e-05
-4.30109e-05
0.00393567
-2.96632e-05
2.19976e-06
0.00394034
0.00392521
-5.89501e-07
2.85977e-07
0.00389741
0.00388324
1.81904e-08
-3.26141e-07
0.00389675
0.00388316
6.33261e-07
-9.41727e-07
0.00389628
0.00388314
-4.45681e-05
3.29372e-05
0.00393799
0.00388318
0.0039337
0.00393947
-0.00394175
2.73665e-05
-0.00393109
0.00391405
6.04676e-05
5.31688e-05
0.00391117
-0.00388145
-2.81787e-06
-3.19086e-06
0.00388108
-0.00388068
-3.10657e-06
-3.4549e-06
0.00388027
-0.00387983
-3.4344e-06
-3.7557e-06
0.00387938
-0.0038789
-3.80362e-06
-4.09522e-06
0.00387841
-0.00387788
-4.21778e-06
-4.47735e-06
0.00387734
-0.00387676
-4.68131e-06
-4.90634e-06
0.00387616
-0.00387552
-5.19931e-06
-5.38686e-06
0.00387486
-0.00387416
-5.77708e-06
-5.92415e-06
0.00387343
-0.00387265
-6.42048e-06
-6.5238e-06
0.00387185
-0.00387099
-7.13581e-06
-7.19189e-06
0.0038701
-0.00386916
-7.93033e-06
-7.93507e-06
0.00386817
-0.00386713
-8.81256e-06
-8.76117e-06
0.00386604
-0.00386488
-9.79368e-06
-9.67993e-06
0.00386367
-0.00386238
-1.08873e-05
-1.07038e-05
0.00386103
-0.0038596
-1.211e-05
-1.18477e-05
0.0038581
-0.0038565
-1.34817e-05
-1.313e-05
0.00385483
-0.00385305
-1.50245e-05
-1.45716e-05
0.00385119
-0.00384921
-1.67629e-05
-1.61959e-05
0.00384713
-0.00384493
-1.87247e-05
-1.80289e-05
0.00384261
-0.00384015
-2.09409e-05
-2.00999e-05
0.00383756
-0.00383482
-2.34483e-05
-2.24424e-05
0.00383193
-0.00382886
-2.62902e-05
-2.50965e-05
0.00382564
-0.00382222
-2.95213e-05
-2.81107e-05
0.00376634
-0.00371248
-3.32026e-05
-3.1539e-05
0.00368637
-0.00368831
1.14314e-05
7.13688e-06
-0.000220014
3.94606e-05
-0.00371762
-0.00378185
5.36661e-05
-2.1857e-05
-0.00364879
-0.0036257
-8.93806e-06
3.01713e-06
-0.00371808
4.53733e-05
0.00389405
0.00394705
1.88169e-05
0.000114831
-0.00427097
-0.000150143
9.38655e-07
-0.00381467
0.000227236
-0.00434524
-3.26835e-05
-0.00379192
5.16214e-06
-0.00381096
-3.90262e-05
-0.00383138
9.84172e-06
-0.00380731
1.50271e-05
-0.00380378
2.07603e-05
-0.00375972
-1.36168e-05
-0.0036719
2.07028e-05
-2.4301e-05
-0.00364519
2.06512e-05
-0.00362565
-0.00381449
-0.00423361
0.00406294
9.76268e-06
-0.000250601
-0.00420733
0.000186964
0.00435265
-0.00424838
-0.000354874
-3.10967e-05
-0.00394929
0.00386332
-9.98042e-05
-0.000113693
-0.00382812
0.00378139
-3.07474e-05
-3.27314e-05
-0.0038009
0.00383682
-2.74168e-05
-2.91642e-05
-0.00383938
0.00384182
-2.44519e-05
-2.60411e-05
-0.00384413
0.00384633
-2.18264e-05
-2.32674e-05
-0.00384841
0.0038504
-1.94887e-05
-2.08048e-05
-0.00385228
0.00385408
-1.74033e-05
-1.86106e-05
-0.00385578
0.0038574
-1.55406e-05
-1.66531e-05
-0.00385894
0.00386041
-1.38766e-05
-1.49051e-05
-0.0038618
0.00386312
-1.23918e-05
-1.33452e-05
-0.00386438
0.00386557
-1.10699e-05
-1.19557e-05
-0.00386671
0.00386779
-9.89543e-06
-1.07209e-05
-0.00386881
0.00386978
-8.8532e-06