/*--------------------------------*- C++ -*----------------------------------*\
  =========                 |
  \\      /  F ield         | OpenFOAM: The Open Source CFD Toolbox
   \\    /   O peration     | Website:  https://openfoam.org
    \\  /    A nd           | Version:  10
     \\/     M anipulation  |
\*---------------------------------------------------------------------------*/
FoamFile
{
    format      ascii;
    class       surfaceScalarField;
    location    "73.5";
    object      phi;
}
// * * * * * * * * * * * * * * * * * * * * * * * * * * * * * * * * * * * * * //

dimensions      [0 3 -1 0 0 0 0];

internalField   nonuniform List<scalar> 
57492
(
0.000235382
-1.05809e-05
-4.36535e-05
-0.000181147
-0.000162248
0.000267065
0.000130565
-2.87477e-05
8.08141e-05
0.000323213
-0.000375279
0.00315987
0.00338639
-0.000272126
-0.00627414
-0.00862825
0.00404526
0.00774286
0.000690082
-0.000634612
-0.000332894
0.000277425
-0.00122913
0.000210742
-7.22509e-05
0.00109064
0.000264345
-0.000803391
0.00159186
-0.00463305
0.00442531
-0.00138412
0.00134348
0.00424871
-0.00400033
-0.00061061
-0.000206148
0.000683017
0.00013374
-0.000122222
-0.000830933
0.000342545
0.000231438
-0.000324724
-2.89364e-05
-5.31609e-05
7.84515e-05
0.00164265
-0.00158601
-0.00059443
0.000537793
0.000236875
0.00132584
7.99285e-05
-0.000324782
0.000788641
0.00333523
-0.00379909
-0.00066092
0.00326112
-0.00292498
0.000135407
-0.000288452
0.000153046
-0.00166279
0.00121957
0.000578628
-0.00465979
0.00018929
0.00333547
0.00113502
0.00122844
-0.00472995
-0.00115828
-0.000132903
-0.000195971
-0.000701271
0.00103014
-0.000286645
0.000175744
-2.20026e-05
-0.00254315
0.00215875
0.000733681
-0.000349281
-0.00304677
0.000925687
-0.000422069
-0.00112695
0.000595969
0.000456497
7.44854e-05
-0.000778483
-0.000361998
1.35295e-05
-0.000367018
-0.00113305
0.00128983
0.00021023
-0.000415753
0.000116294
-6.75584e-05
0.00071858
-0.000478098
-0.000445506
0.000205023
-0.000619886
0.000499513
0.000838954
-0.000850052
-0.00162938
0.00158197
0.00089746
-0.00194024
-0.00046274
0.00155293
-0.000707288
-0.000151989
0.000859277
-0.000271208
-0.00043608
-0.00137451
0.00189187
-0.000788564
0.00020304
-0.000767292
-0.000810264
-0.000543605
0.000754347
-0.00023304
-0.00190188
0.00115085
0.000751027
-0.00432176
0.00241988
0.00487059
-0.000808536
0.000338121
-0.00440018
0.00358064
-9.14786e-05
0.00138143
-0.000716287
0.00488682
-0.00497906
0.00135179
0.000292398
-0.00137985
0.00136392
-8.43779e-05
0.00165388
-0.000620036
-0.00123204
0.000198195
0.00185151
9.47661e-05
0.00084118
-0.000524072
0.00104681
0.000820828
0.00111099
-0.00475648
-0.00063358
0.00054452
0.00484554
-0.0048897
-0.000297189
0.000430409
0.00121968
0.00451265
-0.0044374
-0.00129493
0.000891447
-0.00430482
-0.00277445
0.00252699
0.0025317
-0.00228424
-0.000271289
0.0032008
-0.00570397
1.48162e-05
-0.000116434
-7.99912e-07
0.000102418
-0.000320532
1.06245e-05
6.68783e-05
-0.000135703
-0.000251707
-5.62059e-05
6.65008e-06
1.11005e-05
-1.19004e-05
8.83164e-06
2.26885e-06
0.00729988
0.00378519
-0.00587705
-0.00520802
0.00233721
-0.000701939
0.0056646
-0.00785005
0.00309907
0.00708819
0.00229314
-0.006358
0.00162391
-0.00286538
0.00213326
-0.000891784
0.00235579
-0.00291395
0.00218207
-2.98053e-05
2.17806e-05
-2.55623e-06
-7.00614e-05
-3.3974e-06
-0.000222281
-2.89278e-05
-0.00293769
0.00534654
0.00339244
-0.00580129
0.00436257
-0.00494447
0.00298406
0.00474631
-0.00238383
0.0100812
-0.00147914
-0.00179101
-0.00681109
0.00224415
0.0054169
0.00242019
0.0016069
-0.00500313
0.00564038
4.67661e-05
-7.55138e-05
0.00012758
0.00081562
0.00175666
-0.000626001
-0.00194627
0.00103927
9.95588e-05
-9.55573e-05
2.62501e-05
6.93071e-05
-0.000297586
0.000202029
-0.00660315
0.0034234
-0.00201299
0.00519274
-0.00574058
-0.00249518
0.00163261
-0.00262459
0.00208761
-0.0052036
0.00195113
-2.66123e-05
-0.000943949
-0.000980569
-0.000711344
0.00222674
0.00043573
-0.000834304
-8.5219e-05
0.000208179
-0.000771269
-8.96472e-05
-0.000271387
-0.00144383
-0.000237438
-6.2406e-05
1.88315e-05
0.000281012
-0.000214975
-0.000521097
0.000498634
0.000137596
1.69163e-05
-0.000369487
7.93899e-05
-4.19995e-06
0.000100845
-2.62375e-06
-0.000640895
0.000369507
8.34484e-05
-0.000724343
0.000172202
-0.000469789
0.00427363
0.00333161
-0.000178529
0.00212862
-0.00648323
-1.04038e-05
0.00226401
-0.0017975
-0.000456112
0.000291681
0.00316419
-0.00346628
0.00326847
0.00183931
-0.000498295
-0.00460948
-0.00103378
0.000502201
0.00380004
0.00398683
-0.0031813
-0.00164282
-0.00303448
0.00125174
0.00342557
-0.00118452
0.00350477
-0.00396307
0.000423792
-0.0046428
8.23131e-05
3.37234e-05
-4.57114e-06
0.00104361
-0.000615513
-0.000590347
7.64757e-05
-0.000323367
0.0012905
0.000362666
-1.9125e-05
-0.000187142
0.000331858
6.83225e-05
-0.000213038
0.00099182
-0.00121551
3.6547e-05
-0.000357706
0.000830918
0.000518608
-0.000125141
9.92921e-05
-0.00611166
0.00365164
0.00588342
0.00772169
-0.00200556
-0.00821131
-0.00285464
0.00446468
-9.70795e-05
-0.000873921
-0.000162046
-0.000521954
9.12066e-06
4.77842e-05
-0.000130022
3.73989e-05
4.48391e-05
-0.000129951
0.000144352
3.33835e-05
-0.0002991
3.91268e-05
-0.000265158
-0.000312602
5.5806e-05
-0.000803298
-0.000335781
-0.00077784
-0.000834281
0.000953104
0.000659016
3.18699e-05
0.000411915
-0.00122162
-0.00108773
0.000285317
-0.00293315
0.00133033
-5.99688e-05
-0.00350172
0.000809344
-0.000240771
0.000875927
-0.00334738
0.00256422
-9.27609e-05
0.000678968
-0.00272854
0.0029255
0.00252814
-0.0101973
-0.00176505
0.00218132
0.00302083
-0.00345555
0.00206063
-0.000320753
3.01729e-07
1.66146e-05
-3.47748e-06
3.77921e-06
0.00028413
-4.1283e-05
0.00558303
-0.00341111
-0.00249307
0.000321157
0.0048335
3.32374e-05
0.00463909
0.000168448
-0.00507882
0.00137977
0.00329439
-3.50739e-05
0.000551038
-0.00291028
0.00373901
5.32573e-06
-8.80322e-06
0.000759147
-0.00211953
-0.00284601
0.00123152
0.00308284
0.000810302
-4.6367e-05
-0.000851805
8.78705e-05
0.000269354
-7.89384e-05
-0.00104346
0.000231423
0.00131155
0.000189952
-0.000964058
-0.000134934
7.60397e-05
-7.12572e-06
1.03318e-05
-2.87786e-06
-3.28255e-07
1.0934e-05
-2.51022e-07
-1.78087e-05
4.66817e-05
-0.000103555
6.78069e-05
-0.00171515
0.00264815
-0.000760796
0.00291586
-0.0037816
-0.000849415
6.65395e-06
-0.00143519
0.00165996
-0.00398969
0.000240983
-0.00273515
-0.00183014
0.000575603
0.00269091
0.00291156
-0.00541319
0.00260553
0.00429264
-0.00420726
0.00224061
-0.00308402
0.00160593
-0.000762523
0.00245587
-0.00302316
0.0028079
0.00437022
0.00187681
0.00500204
-0.000229977
-0.00496759
0.000195529
0.005543
-0.000658465
0.000117505
0.00552863
-0.000905891
8.53993e-05
-0.00470814
0.00396806
-0.00137798
0.00293855
0.00430752
-0.00140568
0.00114265
-0.00404449
0.00127139
0.00438746
-0.00135133
-0.00387577
-0.00166714
0.00413723
0.00106825
-0.00369229
-0.00186146
0.0036199
-0.00237998
-0.00323875
0.00215591
0.00346282
-0.00239585
-0.00326679
0.00328267
0.00223569
0.00304556
-0.00147519
-0.00380605
0.00301932
-0.00317949
-0.00258999
0.00261462
0.00299468
-0.00204133
0.0024969
-0.00406857
0.00361462
-0.00102125
-0.00506495
0.00105408
0.00537428
-0.00136341
0.00191081
-0.000264074
0.000989702
-0.00105555
0.000329923
-0.000107608
0.00126881
-0.00142527
-5.29418e-05
0.000305001
0.000110607
-0.00104678
-0.00164174
0.00106872
-1.59343e-07
-9.16793e-08
3.09174e-07
-4.68516e-07
-9.63376e-05
-0.00181114
0.00138341
-0.00161608
-6.4696e-05
0.00158444
4.4012e-05
-0.00169376
3.36664e-05
-0.000243517
0.00154579
0.000268961
-0.00157123
0.00159142
0.000441689
-0.00227663
0.00157515
0.00156205
-2.44893e-06
5.05618e-07
3.56667e-05
-4.75122e-06
2.30229e-06
-4.2456e-06
-5.53799e-06
4.22672e-06
-5.48947e-05
1.02361e-06
-6.5616e-06
5.25033e-06
-4.3889e-05
2.1268e-05
-0.000264024
2.21494e-05
-6.60383e-05
4.34174e-05
5.32096e-05
-5.34229e-06
-0.000173008
-1.69116e-05
7.01212e-05
-2.22539e-05
0.00142716
0.00327849
-0.00420345
0.00132388
-0.0044622
0.00456548
0.00471362
-0.000111253
-0.00118218
-0.00244416
0.00115804
0.0024683
-0.000710384
0.00272155
-0.00319335
0.000157354
-0.0033119
0.00369028
-0.0037019
-1.48579e-05
2.64862e-05
0.00371163
2.99917e-05
-5.13494e-05
-2.59047e-05
-0.00367296
-3.04074e-06
0.0037624
-4.85565e-06
-4.59101e-05
0.00385267
5.11671e-05
-0.000141434
2.32305e-05
0.00397219
-0.00014276
0.00392373
-0.00387762
-2.28821e-05
-0.00018998
0.00418196
-1.97823e-05
0.00383692
-0.000103162
-0.00373639
-9.00633e-05
-0.00370089
-4.03545e-05
-0.00367281
1.90825e-06
-0.0037281
4.04311e-05
-0.00364378
-0.000110221
-0.000186377
0.00438803
-1.9692e-05
0.00367893
-2.8391e-05
-2.07405e-05
-0.0036184
-3.38129e-05
-0.00364985
-1.46728e-05
-2.78859e-05
-0.003803
0.000212478
-6.27942e-06
0.00441351
-1.92019e-05
0.00370105
-2.83954e-05
-0.00375927
8.15375e-05
0.00443884
-6.33035e-06
-1.90018e-05
-6.54863e-06
0.00446379
-1.84002e-05
0.00372276
-2.80422e-05
0.00374431
-2.81024e-05
-2.32397e-05
-0.00375519
-2.4565e-05
-0.00375431
-2.82035e-05
-6.43797e-06
0.00448844
-1.82171e-05
0.00376557
-2.76921e-05
-1.54881e-06
-0.00372853
-2.51122e-05
-0.00372758
-2.8275e-05
-6.46823e-06
0.00451253
-1.76186e-05
0.0037868
-2.76984e-05
-1.07377e-06
-0.0037016
-2.58536e-05
-0.00370073
-2.79267e-05
-6.06239e-06
0.00453606
-1.74647e-05
0.00380795
-2.7217e-05
-7.91015e-07
-0.00367451
-2.63066e-05
-0.00367356
-2.79654e-05
-5.57131e-06
0.0045585
-1.68729e-05
0.00382954
-2.71618e-05
-3.13569e-07
-0.00364722
-2.69741e-05
-0.00364628
-2.75886e-05
-4.16128e-06
0.00457941
-1.67461e-05
0.00385198
-2.65983e-05
8.42078e-06
-0.00362826
-2.73758e-05
-0.0036103
-2.75604e-05
-1.71103e-06
0.00459728
-1.61563e-05
0.00387673
-2.64617e-05
2.39742e-05
-0.00349925
-0.000152989
-0.00352201
-6.43176e-05
3.58251e-06
0.00460974
-1.60471e-05
0.00388835
-8.04244e-06
2.38621e-05
-0.00348954
-3.35675e-05
-0.00346933
-2.88115e-05
1.37319e-05
0.00461147
-1.54583e-05
0.00387983
2.22572e-05
5.04583e-05
-0.00333994
-0.000200058
-0.00334314
-7.57328e-05
0.000192225
0.00443458
-1.53416e-05
0.00401685
5.52041e-05
5.75518e-05
-0.00329846
-9.90358e-05
-0.00328061
-4.98559e-06
0.000170575
0.00412724
0.000136773
0.00410217
8.52583e-05
9.03744e-05
-0.000153899
-0.00323494
-0.00324157
5.13438e-05
7.47464e-06
2.55834e-05
0.00409418
0.00409417
1.54696e-05
-0.00332069
0.0033997
-0.000178037
-0.00331288
-0.000161715
0.000151987
-0.00015962
-0.0032273
5.05089e-05
-0.0031401
-0.00335237
0.00340771
-8.8907e-05
-0.000152736
-0.0033081
0.00333329
-5.25682e-05
-5.33753e-05
-0.00335814
0.00338287
-5.10373e-05
-5.18172e-05
-0.00340728
0.00343162
-4.94555e-05
-5.02657e-05
-0.00345572
0.00371615
-4.79552e-05
-4.86593e-05
-0.00372962
0.00370226
2.43108e-05
-4.72797e-05
-0.00384558
0.00383932
-4.50932e-05
-0.000116828
-0.00373872
0.00370658
-0.000109303
5.4697e-05
-0.00364062
0.00366299
-4.21527e-05
-7.67909e-05
-0.00368489
0.00370661
-4.09252e-05
-4.15933e-05
-0.00372797
0.00374921
-3.96452e-05
-4.03589e-05
-0.00377007
0.0037908
-3.83486e-05
-3.9077e-05
-0.00381112
0.0038313
-3.70456e-05
-3.77869e-05
-0.00385104
0.00387061
-3.57298e-05
-3.64894e-05
-0.00388974
0.00390864
-3.43614e-05
-3.51686e-05
-0.0039043
0.00401435
2.67171e-05
-1.09997e-05
0.00402234
1.75944e-05
-2.94777e-05
6.57576e-05
0.0040579
-2.67383e-05
0.00409143
0.00401122
-0.00392703
-2.89822e-05
-0.00406898
0.0040787
5.74887e-06
2.74958e-05
0.00390786
-0.00387088
-4.50223e-05
3.0844e-06
0.00385147
-0.00383156
-4.65042e-05
-4.58689e-05
0.00381154
-0.00379104
-4.77145e-05
-4.71869e-05
0.00377044
-0.00374938
-4.87496e-05
-4.82991e-05
0.00372823
-0.00370663
-4.96391e-05
-4.92542e-05
0.00368495
-0.00366291
-5.04336e-05
-5.00822e-05
0.00371524
-0.00368709
-5.10305e-05
-5.08319e-05
0.00372588
-0.00366242
-0.000103815
-5.1273e-05
0.00361543
-0.00356883
-6.1723e-06
-4.50802e-05
0.00358993
-0.00358938
-1.52191e-05
-8.9119e-05
0.00345554
-0.00343141
-5.23343e-05
-5.23046e-05
0.0034072
-0.00338262
-5.25037e-05
-5.24822e-05
0.00335798
-0.00333297
-5.26012e-05
-5.26111e-05
0.00330784
-0.0033195
-5.26635e-05
-5.26824e-05
0.00329555
-0.0033185
-5.27799e-05
-5.27583e-05
0.0032705
-0.0031976
-2.15484e-05
-5.29938e-05
-0.00313813
-8.9684e-06
-0.00331124
-0.00016126
0.0040531
3.50028e-05
-4.05718e-05
0.00409253
9.19397e-05
-0.000106591
-0.00312544
4.27629e-05
-0.00308895
0.000137203
-0.000157412
-0.00329103
-0.00319669
-0.00332209
0.0032933
-0.00014925
0.00333464
-0.00333629
-0.000159608
-0.000149169
-0.00327595
0.00330118
-0.000114132
-0.000135384
-0.00332602
0.00335077
-7.73237e-05
-7.82134e-05
-0.00337518
0.00339949
-7.53435e-05
-7.62278e-05
-0.00342347
0.00344738
-7.33648e-05
-7.42498e-05
-0.00347101
0.0034945
-7.14441e-05
-7.22848e-05
-0.00351764
0.00361159
-6.96338e-05
-7.04271e-05
-0.00356339
0.00358608
-6.77846e-05
-6.86326e-05
-0.00370764
0.00366437
-6.60353e-05
-6.68575e-05
-0.00365253
0.00367447
-6.40906e-05
-6.49528e-05
-0.003696
0.00371739
-6.23158e-05
-6.31264e-05
-0.0037384
0.00375929
-6.05378e-05
-6.13668e-05
-0.0037798
0.00380018
-5.87267e-05
-5.95806e-05
-0.00382015
0.00383998
-5.68753e-05
-5.77588e-05
-0.00385938
0.00387862
-5.497e-05
-5.58923e-05
-0.00389741
0.00391599
-5.29457e-05
-5.39555e-05
-0.00393388
0.00398305
-2.24592e-05
-2.88851e-05
-3.80725e-06
-2.2701e-05
0.00408441
-2.82027e-05
0.00407749
-0.00398845
0.00404514
-2.16889e-05
1.22023e-05
0.00403063
-0.00401391
-1.09735e-05
0.00401529
-2.52242e-05
1.99621e-05
7.40126e-06
0.00406517
0.00408869
0.00399666
-0.00395004
-7.55967e-05
1.02431e-05
0.00389812
-0.00387913
-6.40076e-05
-4.88433e-05
0.00386003
-0.00384046
-6.60771e-05
-6.49645e-05
0.00382078
-0.00380063
-6.78629e-05
-6.68679e-05
0.00378039
-0.00375969
-6.94436e-05
-6.8543e-05
0.00373892
-0.00371771
-7.08451e-05
-7.00301e-05
0.00369644
-0.00367479
-7.20874e-05
-7.1351e-05
0.00365311
-0.00363101
-7.31338e-05
-7.2511e-05
0.00360881
-0.00363857
-7.40582e-05
-7.34661e-05
0.00360932
-0.00354068
-7.48083e-05
-7.43333e-05
0.00355473
-0.00349438
-7.55696e-05
-7.50752e-05
0.00347095
-0.00344715
-7.6131e-05
-7.57294e-05
0.00342332
-0.00339912
-7.67013e-05
-7.63197e-05
0.00337485
-0.00335021
-7.72414e-05
-7.68792e-05
0.00332547
-0.00330034
-7.77939e-05
-7.74232e-05
0.00327508
-0.00324942
-7.84388e-05
-7.80159e-05
0.00322366
-0.00316596
-7.9243e-05
-7.87568e-05
0.00312259
-0.00305557
-2.42549e-05
-5.23454e-05
-0.00333315
-0.000160553
2.93765e-05
-0.000102413
-0.00301591
-0.00301185
-1.43451e-05
-0.000174971
-0.00305289
-2.16031e-05
0.00403854
0.00403892
-1.62313e-05
-0.000104272
9.56649e-05
-0.00328242
-0.00012878
-0.00330864
7.39039e-06
-9.84915e-05
-0.00292481
-3.72065e-05
-0.00296725
-0.003276
0.00406367
-0.00403564
-4.97205e-05
0.00403862
3.44704e-06
3.29826e-05
-9.29307e-06
0.00404148
-8.00085e-06
0.0040799
-0.00330646
0.00336843
-0.000190743
-0.000174813
0.000129857
-0.00326369
0.00335717
1.76603e-05
0.000169355
-0.00354419
-0.000124107
-0.00339028
0.00338852
-0.000157849
-0.000182405
-0.00336923
0.00333896
-0.000118971
-0.000129882
-0.00333815
0.00332794
-0.000103928
-0.000134575
-0.00335219
0.0033763
-0.000101438
-0.000102461
-0.00340007
0.00342373
-9.90018e-05
-9.99924e-05
-0.00344707
0.00347033
-9.66276e-05
-9.75917e-05
-0.00349329
0.00351617
-9.43199e-05
-9.52471e-05
-0.00353872
0.00356117
-9.2084e-05
-9.2981e-05
-0.00358331
0.00360539
-8.98651e-05
-9.07691e-05
-0.00362711
0.00364875
-8.76758e-05
-8.85708e-05
-0.00367012
0.00369142
-8.53975e-05
-8.63243e-05
-0.00371238
0.00373322
-8.31603e-05
-8.40784e-05
-0.00375369
0.00377406
-8.09014e-05
-8.18411e-05
-0.00379404
0.0038139
-7.85887e-05
-7.95638e-05
-0.00383337
0.0038527
-7.62038e-05
-7.72239e-05
-0.00387161
0.00389037
-7.37264e-05
-7.48044e-05
-0.00390868
0.00392683
-7.10905e-05
-7.22737e-05
-0.00395533
0.00397881
-4.59412e-05
-5.73815e-05
-4.46264e-05
1.37296e-05
-1.39439e-05
0.00408462
-1.29071e-05
-3.51691e-05
0.00408661
0.00407831
0.00406546
0.00402881
-0.0040079
-3.18871e-05
-0.00403945
0.00403314
-9.9183e-06
-3.58689e-05
0.00394557
-0.00394157
-7.96045e-05
-5.20787e-05
0.00390961
-0.00389109
-8.25239e-05
-8.07985e-05
0.00387248
-0.00385341
-8.51543e-05
-8.35756e-05
0.00383423
-0.00381459
-8.74977e-05
-8.60477e-05
0.00379487
-0.00377471
-8.96049e-05
-8.82675e-05
0.00375447
-0.00373382
-9.14973e-05
-9.02662e-05
0.00371311
-0.00369201
-9.31895e-05
-9.20612e-05
0.00367086
-0.00364931
-9.46792e-05
-9.36587e-05
0.00362771
-0.00360575
-9.60211e-05
-9.50688e-05
0.00358373
-0.00356133
-9.72109e-05
-9.63493e-05
0.00353889
-0.00351614
-9.83275e-05
-9.75081e-05
0.0034933
-0.0034701
-9.93283e-05
-9.85706e-05
0.00344685
-0.00342324
-0.000100309
-9.9571e-05
0.00339956
-0.00337552
-0.000101287
-0.000100558
0.00335137
-0.00332685
-0.000102314
-0.000101564
0.00330222
-0.00327719
-0.000103464
-0.000102654
0.00325204
-0.00322648
-0.000104804
-0.000103907
0.00317345
-0.00309125
-0.000106453
-0.000105375
0.00303438
-0.00301797
-5.36128e-05
-7.12205e-05
-2.60081e-05
2.96173e-06
-0.0029442
-0.00297976
-6.42204e-05
0.000122076
-0.00327464
-7.45209e-05
-0.00307686
-2.32812e-05
0.00402673
0.0040633
-3.81598e-05
0.000167966
-0.00341399
3.2855e-05
-0.00295471
0.000750627
-0.00273142
0.00355594
3.11119e-05
-7.3192e-05
-0.00293768
-2.13704e-05
-0.00289172
-0.00220132
0.00336831
0.000395057
-0.00167483
-0.000257523
-0.00322844
-0.00321922
0.0033777
1.08705e-05
0.000160852
-1.17551e-05
-0.00336664
0.00335887
-0.000182971
-0.000113048
-0.00335497
0.00333124
-0.000134114
-0.000178509
-0.00333344
0.00334521
-0.000130742
-0.000132081
-0.0033394
0.00336303
-0.000127561
-0.000128767
-0.00338633
0.00340953
-0.000124631
-0.000125761
-0.00343241
0.00345521
-0.000121799
-0.000122879
-0.00347771
0.00350014
-0.000119054
-0.000120092
-0.00352227
0.00354433
-0.00011638
-0.000117382
-0.00356609
0.00358777
-0.000113765
-0.000114739
-0.00360914
0.00363045
-0.000111173
-0.000112141
-0.00365144
0.00367235
-0.000108585
-0.000109557
-0.00369296
0.00371351
-0.000105946
-0.000106941
-0.00373373
0.00375385
-0.000103286
-0.000104296
-0.00377363
0.0037933
-0.000100573
-0.000101616
-0.0038126
0.0038318
-9.77792e-05
-9.88697e-05
-0.0038506
0.00386928
-9.48818e-05
-9.60325e-05
-0.00388756
0.00390569
-9.18562e-05
-9.30819e-05
-0.0039234
0.00394096
-8.86473e-05
-8.99855e-05
-0.00397025
0.00400953
-8.52258e-05
-8.66691e-05
-0.00401613
0.00402927
-6.28578e-05
-5.12264e-05
-0.0040609
0.00407026
-3.26391e-05
-2.81864e-05
1.13491e-05
-2.69291e-06
0.00407796
2.76262e-05
-7.09485e-05
0.00411358
0.0040657
2.74133e-05
1.19835e-05
0.00404522
0.00410303
-6.80218e-06
-1.82343e-05
0.00406652
0.00407064
3.06452e-05
-6.74076e-05
0.00410006
0.00409231
0.00408193
-0.00405208
-3.97699e-05
-0.00415964
0.0040665
2.57343e-05
-0.000115869
0.00402652
-0.00400172
-5.66855e-05
-6.14319e-05
0.00395925
-0.00394195
-9.69024e-05
-9.45425e-05
0.00392453
-0.00390664
-0.00010041
-9.82281e-05
0.00388866
-0.00387022
-0.000103586
-0.000101559
0.00385169
-0.00383273
-0.000106465
-0.000104577
0.00381368
-0.0037942
-0.000109076
-0.000107319
0.00377466
-0.00375472
-0.000111441
-0.000109809
0.00373472
-0.00371433
-0.000113575
-0.000112063
0.00369389
-0.00367308
-0.000115495
-0.000114096
0.00365221
-0.00363099
-0.000117243
-0.000115935
0.00360972
-0.00358809
-0.000118842
-0.000117621
0.00356642
-0.00354441
-0.000120337
-0.000119177
0.00352234
-0.00349993
-0.000121743
-0.000120638
0.00347745
-0.00345464
-0.000123126
-0.000122043
0.00343175
-0.00340851
-0.000124527
-0.000123446
0.00338518
-0.00336149
-0.000126002
-0.000124891
0.0033377
-0.00331355
-0.000127621
-0.000126445
0.00328927
-0.00326463
-0.000129452
-0.00012818
0.00323985
-0.00321474
-0.000131566
-0.000130151
0.00315353
-0.00307313
-0.000134017
-0.000132427
0.00305452
-0.00302049
-0.00010722
-8.28239e-05
-6.7503e-05
4.65175e-05
-0.00291669
-0.00297646
-0.000111541
0.000117272
-0.00322395
-1.98796e-05
-0.00302412
0.000289753
-0.00295312
3.3696e-05
-0.00300977
0.0040878
-0.0040779
-4.25475e-05
0.00408651
-6.9658e-05
-1.79961e-05
1.79079e-05
0.00410015
-6.95216e-05
0.00411802
0.000306421
-0.00259615
6.31386e-05
-0.00290834
-0.00147065
-0.00177541
-0.00263901
0.00306289
-2.88274e-05
-4.77777e-05
4.23199e-05
-0.00291124
-8.87215e-05
-0.00293551
-0.00242229
-0.000474244
-0.00313105
-0.00321986
0.00328381
-5.30854e-05
3.88971e-06
-0.00333385
0.00331201
-0.000161132
-0.000163087
-0.00329211
0.00331512
-0.00015712
-0.000158608
-0.00333789
0.00336061
-0.00015346
-0.000154855
-0.00338312
0.00340556
-0.00015
-0.000151279
-0.00342773
0.00344983
-0.00014673
-0.000147932
-0.00347166
0.00349342
-0.000143559
-0.000144707
-0.0035149
0.00353633
-0.000140476
-0.000141579
-0.00355747
0.00357856
-0.000137464
-0.00013853
-0.00359936
0.00362009
-0.0001345
-0.000135541
-0.00364054
0.00366092
-0.000131555
-0.000132587
-0.00368101
0.00370102
-0.0001286
-0.000129641
-0.00372074
0.0037404
-0.000125599
-0.000126662
-0.00375974
0.00377899
-0.000122542
-0.000123635
-0.00379792
0.00381675
-0.000119403
-0.000120542
-0.00383523
0.00385361
-0.000116154
-0.000117353
-0.00387162
0.00388951
-0.000112771
-0.000114044
-0.00390702
0.00392439
-0.000109226
-0.00011059
-0.00394136
0.0039582
-0.000105484
-0.000106962
-0.00397464
0.00399091
-0.000101495
-0.000103111
-0.0040387
0.00404063
-6.47956e-05
-9.9013e-05
-6.54473e-05
-4.74085e-07
-4.17962e-05
0.00412023
4.1104e-05
-4.50192e-05
0.0041175
0.00410633
-1.17164e-05
-4.28347e-06
0.00406122
0.00404952
-1.91548e-05
2.20502e-05
0.00406362
0.0040472
0.00413227
0.00409861
-0.00407193
-6.64545e-05
-0.00406355
0.00411601
-2.67276e-05
-8.08022e-05
0.00404447
-0.00399207
-0.000109081
-8.8892e-05
0.00397593
-0.00395936
-0.000113479
-0.000110683
0.00394267
-0.00392556
-0.000117528
-0.000114911
0.00390834
-0.00389069
-0.000121234
-0.000118777
0.00387295
-0.00385479
-0.000124622
-0.000122318
0.00383655
-0.00381792
-0.000127714
-0.000125557
0.00379921
-0.00378012
-0.000130529
-0.000128514
0.00376098
-0.00374146
-0.000133089
-0.000131209
0.0037219
-0.00370197
-0.000135421
-0.000133663
0.003682
-0.00366168
-0.000137562
-0.000135909
0.00364131
-0.00362061
-0.000139545
-0.000137985
0.00359986
-0.00357879
-0.000141413
-0.000139923
0.00355766
-0.0035362
-0.000143203
-0.000141766
0.00351468
-0.00349284
-0.000144971
-0.000143559
0.00347093
-0.00344869
-0.00014677
-0.000145356
0.00342636
-0.00340371
-0.000148658
-0.000147212
0.00338096
-0.00335788
-0.000150702
-0.00014919
0.00333471
-0.0033112
-0.000152962
-0.000151356
0.00328759
-0.00326366
-0.000155488
-0.000153761
0.00323966
-0.00321537
-0.000158305
-0.000156436
0.00313872
-0.00308453
-0.000161404
-0.000159475
0.00303336
-0.00298883
-0.000133247
-0.000162715
-5.93063e-05
6.27827e-05
-0.00293899
-0.00295256
-9.5577e-05
9.15619e-05
-0.00302576
4.67692e-06
-0.0029951
-4.08534e-05
0.00408235
0.00411597
-6.94806e-05
0.000184727
-0.00283142
-0.000286796
-0.00346048
1.57836e-05
-0.00289873
3.45285e-05
-0.00298116
6.38864e-05
-0.00292991
-0.00344707
-0.000750626
0.000250055
-0.000505141
-0.00319199
-0.00015123
-0.0030592
4.30949e-05
-0.00289155
-9.09403e-05
2.26351e-05
-0.00287068
-7.99317e-05
-0.00296357
-0.00303481
-0.00294275
0.00309652
-0.000182602
0.00307272
-0.00334593
-0.000477411
-0.000344275
-0.00321407
0.00328199
-0.000121005
-0.000113663
-0.00330394
0.00332589
-0.00018308
-0.000185031
-0.00334766
0.00336935
-0.000178817
-0.000180377
-0.00339084
0.00341229
-0.000174908
-0.000176342
-0.00343352
0.0034547
-0.00017118
-0.000172513
-0.00347564
0.00349652
-0.000167609
-0.000168869
-0.00351715
0.00353773
-0.000164138
-0.000165343
-0.00355806
0.00357834
-0.000160751
-0.000161909
-0.00359836
0.00361832
-0.000157427
-0.00015855
-0.00363802
0.00365767
-0.000154144
-0.000155244
-0.00367704
0.00369636
-0.00015087
-0.000151963
-0.0037154
0.00373437
-0.000147576
-0.000148679
-0.00375307
0.00377169
-0.000144226
-0.000145356
-0.00379003
0.00380828
-0.000140797
-0.000141968
-0.00382623
0.00384408
-0.00013726
-0.000138487
-0.00386161
0.00387904
-0.000133584
-0.000134885
-0.00389613
0.00391311
-0.000129744
-0.000131133
-0.00392972
0.00394621
-0.000125713
-0.000127206
-0.00396232
0.0039783
-0.000121461
-0.000123076
-0.0039939
0.00400936
-0.000116955
-0.000118712
-0.00402443
0.00407181
-0.000112183
-0.00011408
-0.00408839
0.00411143
-6.55886e-05
-8.20223e-05
-0.00407055
0.00410047
-7.07754e-05
-2.87797e-05
-4.07182e-06
6.9298e-06
0.00411464
7.44598e-05
-0.000109187
0.0041352
0.00415274
8.77593e-06
2.68603e-05
0.00408459
0.00412204
-1.14493e-05
-4.1567e-06
0.00407683
0.00406493
1.96824e-05
-3.50775e-05
0.00407902
0.00406272
2.06595e-05
-4.23481e-05
0.00412184
0.00411785
6.4189e-05
-7.26297e-05
0.00412441
0.00413986
0.0041456
-0.00408528
-8.70444e-05
-0.00413912
0.00412951
-6.30205e-05
-6.3005e-05
0.00408088
-0.00405785
-8.94796e-05
-8.52061e-05
0.00402585
-0.00401067
-0.000124254
-0.000120898
0.00399537
-0.00397965
-0.000129195
-0.000125986
0.00396384
-0.0039476
-0.000133763
-0.000130729
0.00393127
-0.00391453
-0.000137972
-0.000135108
0.00389771
-0.00388049
-0.00014184
-0.000139143
0.00386319
-0.00384552
-0.000145386
-0.000142851
0.00382779
-0.00380969
-0.000148629
-0.000146251
0.00379153
-0.00377303
-0.000151595
-0.000149364
0.00375447
-0.00373558
-0.000154315
-0.000152218
0.00371664
-0.00369737
-0.00015683
-0.000154849
0.00367806
-0.00365843
-0.000159177
-0.000157295
0.00363875
-0.00361876
-0.000161402
-0.000159598
0.00359873
-0.00357838
-0.000163551
-0.000161802
0.00355798
-0.00353727
-0.000165682
-0.00016396
0.0035165
-0.00349542
-0.000167849
-0.000166126
0.00347427
-0.00345282
-0.000170113
-0.000168359
0.00343129
-0.00340945
-0.000172536
-0.000170719
0.00338754
-0.00336533
-0.000175171
-0.000173267
0.00334305
-0.00332048
-0.000178059
-0.000176048
0.00329782
-0.0032749
-0.00018123
-0.000179091
0.00325194
-0.0032287
-0.000184647
-0.000182431
0.0032054
-0.00315021
-0.000188435
-0.000186009
0.00309716
-0.00302445
-0.000152651
-0.000148627
-0.000124174
7.51458e-05
-0.00291454
-0.00300322
-0.000145397
6.69279e-05
-0.00290796
-0.00335641
-0.000494662
6.47726e-05
-0.00288041
0.00416755
-0.0041664
-7.19272e-05
0.00417633
-0.000117971
-5.01663e-05
4.04989e-05
0.00413408
-5.16869e-05
0.00413103
5.38327e-06
-0.00296596
3.51231e-05
-0.0029524
-1.51801e-05
-0.00303478
6.43954e-05
-0.00295121
9.3633e-05
-0.00296255
0.000122837
-0.00291838
-0.000111066
0.000114322
-0.0029178
-0.000165556
-0.00294873
-0.0029625
-0.00335794
0.00322882
-0.00034829
-0.00043138
0.000508927
-0.00343396
0.00347026
-0.00357968
-0.000321961
-0.000382339
-0.00313152
0.00320577
-0.000256852
-0.000246982
-0.00328989
0.00334737
-0.000178481
-0.000197782
-0.00336811
0.0033888
-0.000203771
-0.000205768
-0.00340928
0.00342968
-0.000199216
-0.000200858
-0.00344984
0.00346995
-0.000195016
-0.00019651
-0.00348985
0.00350968
-0.000191017
-0.000192406
-0.0035293
0.00354886
-0.000187169
-0.000188482
-0.00356819
0.00358748
-0.000183423
-0.000184678
-0.00360653
0.00362554
-0.000179758
-0.000180966
-0.00364431
0.00366304
-0.00017615
-0.000177323
-0.00368152
0.00369995
-0.000172573
-0.000173725
-0.00371813
0.00373626
-0.000168997
-0.000170145
-0.00375413
0.00377194
-0.000165388
-0.000166549
-0.00378948
0.00380697
-0.000161711
-0.000162904
-0.00382418
0.00384131
-0.000157935
-0.000159176
-0.00385816
0.00387493
-0.000154027
-0.000155335
-0.00389139
0.00390776
-0.000149955
-0.000151348
-0.00392382
0.00393976
-0.000145691
-0.000147185
-0.00395538
0.00397087
-0.000141206
-0.000142818
-0.00398601
0.00400103
-0.000136476
-0.000138222
-0.00401569
0.00403021
-0.000131475
-0.00013337
-0.00404437
0.00405835
-0.000126171
-0.000128237
-0.00409914
0.00412714
-9.3587e-05
-0.000122809
-6.80376e-05
-5.01025e-05
1.00249e-05
0.00415472
5.03146e-05
-9.49534e-05
0.00417984
0.00415295
-4.0934e-05
2.61545e-05
0.00409937
0.00409113
-1.1155e-05
-4.01598e-06
0.004092
0.00407993
1.9116e-05
-3.41153e-05
0.00409402
0.00407782
1.15941e-06
-2.83484e-05
0.00414903
0.0040849
0.00415201
0.00415715
-0.00414667
-9.75222e-05
-0.00416058
0.00415339
-5.58231e-05
-6.64412e-05
0.00410304
-0.0040598
-0.000132718
-0.000128835
0.00404596
-0.00403171
-0.00013851
-0.000134735
0.00401735
-0.00400259
-0.00014395
-0.000140345
0.00398774
-0.0039725
-0.000149008
-0.000145582
0.00395716
-0.00394144
-0.000153689
-0.000150444
0.00392564
-0.00390948
-0.000158006
-0.000154941
0.00389324
-0.00387665
-0.000161976
-0.000159088
0.00386
-0.00384301
-0.00016562
-0.000162902
0.00382596
-0.00380859
-0.000168967
-0.000166408
0.00379117
-0.00377343
-0.000172053
-0.000169639
0.00375565
-0.00373756
-0.000174919
-0.000172631
0.00371943
-0.003701
-0.000177609
-0.000175427
0.00368252
-0.00366376
-0.00018017
-0.000178072
0.00364494
-0.00362584
-0.000182654
-0.000180615
0.00360669
-0.00358725
-0.00018512
-0.000183111
0.00356776
-0.00354798
-0.000187624
-0.000185617
0.00352815
-0.00350804
-0.000190226
-0.000188192
0.00348786
-0.00346742
-0.000192984
-0.000190894
0.0034469
-0.00342613
-0.000195949
-0.000193778
0.00340529
-0.00338419
-0.000199158
-0.000196888
0.00336302
-0.00334161
-0.000202639
-0.000200255
0.00332014
-0.0032984
-0.000206388
-0.000203904
0.00327657
-0.00325451
-0.000210498
-0.000207836
0.00319101
-0.00312888
-0.000214787
-0.00021212
0.00309172
-0.00307701
-0.000180265
-0.000182557
-0.000305655
0.000120052
-0.00287359
-0.00298871
-0.00013319
0.000139028
-0.00295457
-0.00301147
-0.000198733
2.33263e-05
-0.00286651
-6.2844e-05
0.00414422
0.00420014
-9.8446e-05
0.000259703
-0.00352715
-0.000312234
5.98065e-06
-0.00293682
0.000328897
-0.00350315
2.13656e-05
-0.00291696
3.53925e-05
-0.0029234
4.25086e-05
-0.00295723
6.49145e-05
-0.00292249
9.46291e-05
-0.00293434
0.000124225
-0.00292828
0.000122593
-0.00290136
-0.00016025
0.000137724
-0.00293204
-0.000177143
-0.00299457
-0.00293319
-0.00362387
0.00350144
-0.000199529
-0.000395848
-0.00344832
0.000317015
0.00369828
-0.00358163
-0.000512497
-0.000237819
-0.00342568
0.00337306
-0.000295672
-0.000306577
-0.00336023
0.00333622
-0.000232843
-0.000234155
-0.00336872
0.00341873
-0.000228495
-0.000230278
-0.00343803
0.00345731
-0.000223047
-0.00022507
-0.00347638
0.00349536
-0.0002182
-0.000219926
-0.00351412
0.00353281
-0.000213705
-0.000215268
-0.00355128
0.0035697
-0.000209435
-0.000210883
-0.00358791
0.00360606
-0.000205325
-0.000206688
-0.00362401
0.00364191
-0.000201324
-0.000202625
-0.0036596
0.00367724
-0.000197402
-0.000198655
-0.00369467