/*--------------------------------*- C++ -*----------------------------------*\
  =========                 |
  \\      /  F ield         | OpenFOAM: The Open Source CFD Toolbox
   \\    /   O peration     | Website:  https://openfoam.org
    \\  /    A nd           | Version:  10
     \\/     M anipulation  |
\*---------------------------------------------------------------------------*/
FoamFile
{
    format      ascii;
    class       volScalarField;
    location    "42";
    object      p;
}
// * * * * * * * * * * * * * * * * * * * * * * * * * * * * * * * * * * * * * //

dimensions      [0 2 -2 0 0 0 0];

internalField   nonuniform List<scalar> 
28942
(
-0.00371453
-0.00308315
0.00209658
0.0095963
0.00989656
0.000121018
0.000357578
4.1244e-05
0.00280728
0.00289541
-0.00225719
-0.00252719
-0.00291362
-0.00283079
0.000235966
0.000584016
0.00996994
0.0102397
0.00566161
0.00722221
0.00824186
0.00823399
-0.0051863
-0.00500786
-0.00353664
-0.00375712
0.0139689
0.0139179
0.00360839
0.00355261
3.0228e-05
6.94207e-05
0.000924251
0.000387286
0.00723103
0.00843754
0.0109761
0.0129361
8.86006e-06
0.015133
0.00920079
0.0116986
0.00199866
0.00193645
0.00197514
0.00035372
0.000203987
0.000283354
0.00032682
0.000458657
0.000855999
0.002902
0.00297162
0.00293797
0.00309459
-0.00229878
-0.00099113
-0.00332387
-0.00316881
-0.00344252
-0.00351519
-0.00351626
-0.00341359
-5.0189e-05
-0.00176052
-0.000292848
0.00104492
0.00951102
0.00901436
-0.00330288
-0.00351422
-0.00324759
0.00907428
0.00892675
0.00921821
-0.00141109
-0.00102163
-0.000677241
0.00243341
0.00283305
0.00192011
0.000820619
-0.0062667
-0.00749986
0.00115774
0.00388766
0.00493097
0.00572015
0.00410164
0.00422745
0.00619709
0.00557378
-0.00131768
-0.00161509
-0.00189741
-0.00173209
-0.00155368
0.00541912
0.00671193
-0.00781133
0.0113937
0.0105948
0.00588865
0.00948611
0.000994735
0.000910412
0.000813331
0.00556621
0.00575879
0.00575265
-0.00316615
-0.00308619
-0.0030677
-0.00254721
-0.00266819
0.0159248
0.0139184
0.0133598
0.0149921
0.00172065
0.00480795
0.00350352
0.00515052
0.00482787
0.0155966
0.0158921
0.0145511
0.00599422
0.00707405
0.000240529
0.000354075
0.000145477
0.0105851
0.0110892
0.007778
0.00743026
0.0128871
0.0067785
0.00807155
0.00913934
-0.00183227
-0.00235032
0.00744055
0.00192373
0.001998
-0.00111753
-0.00138659
-0.000915212
-0.00245083
0.00667857
0.00580496
0.00379138
0.000317443
0.000254294
0.000111554
0.000257976
0.00761669
0.00688151
-0.00178489
-0.00190373
-0.00179752
-0.00408604
-0.00362691
9.07244e-05
-0.00280244
-0.000444576
0.00848378
0.00859235
0.00968733
0.00922257
0.00779965
0.00319478
0.00311332
0.0033513
0.00322865
0.00513739
0.00491507
0.00524944
0.00546997
0.00540705
0.00547573
0.00568632
0.00623941
0.00593389
0.00553093
0.00586084
0.00656681
0.00731935
0.00761209
-0.0004807
-0.000463737
-0.00240214
0.000266071
9.32281e-05
-0.00191567
-0.00200624
0.000359526
0.000421367
0.000380596
0.000309436
0.0021259
0.00209407
0.00206304
-0.00286067
-0.00305056
-0.00271058
-0.00429208
-0.00477808
-0.00408393
-0.00467527
-0.00644698
-0.00513974
0.0161189
0.0168295
0.0165969
0.0010399
0.00118576
0.00106969
0.0104397
0.0100119
0.0100923
0.00160824
0.0015865
0.00163007
0.00156484
0.00154349
0.00152227
0.00152307
0.00150128
0.0015023
0.00154398
0.00156528
0.00158681
0.0016087
0.00163051
0.00148075
0.00148151
0.00165195
0.00165247
0.00167432
0.00146039
0.00146075
0.00167476
0.00143991
0.00141959
0.00144037
0.00142013
0.00169674
0.00169733
0.00139947
0.00140003
0.00171898
0.00171987
0.00137951
0.00138008
0.0017416
0.00174256
0.0013597
0.00136029
0.00176442
0.00176541
0.00134005
0.00134062
0.00178741
0.00178839
0.0013206
0.00132105
0.00181066
0.00181138
0.00130123
0.00130164
0.00183386
0.00183456
0.00128198
0.0012823
0.00185726
0.00185781
0.00126281
0.00126294
0.00188093
0.00188144
0.00124379
0.00124342
0.00190463
0.00190484
0.0012244
0.00122408
0.00192853
0.00192875
0.0012045
0.00120466
0.00190376
0.00192767
0.00195271
0.00195266
0.00185595
0.00187997
0.00180915
0.00183274
0.00176336
0.00178622
0.00171791
0.0017406
0.00167285
0.0016953
0.00162923
0.00165144
0.00158598
0.00160739
0.00154308
0.00156441
0.00150073
0.00152185
0.00145947
0.00148004
0.00141883
0.00143907
0.00137884
0.00139876
0.00133946
0.00135908
0.00130064
0.00131999
0.00126234
0.00128143
0.00122385
0.0012433
0.00120442
0.00118492
0.00118506
0.00124358
0.00120489
0.00122427
0.00128233
0.00126295
0.00132103
0.00130166
0.0013602
0.00134055
0.00139995
0.00138
0.00144031
0.00142006
0.00148131
0.00146074
0.0015231
0.00150222
0.00156542
0.00154427
0.00160844
0.00158678
0.00165256
0.00163061
0.00169699
0.00167445
0.00174229
0.00171961
0.00178803
0.00176512
0.00183427
0.00181105
0.00188107
0.00185746
0.00192785
0.0019045
0.00195177
0.00195202
0.00118486
0.00118543
0.0019765
0.0019753
0.00197632
0.00197678
0.00190196
0.00194994
0.00192587
0.00185427
0.00187813
0.00180794
0.00183092
0.0017622
0.00178503
0.00171688
0.00173948
0.00167219
0.00169444
0.00162801
0.00165007
0.0015847
0.00160654
0.00154236
0.00156321
0.0015001
0.00152113
0.00145884
0.00147939
0.00141826
0.00143847
0.00137832
0.00139821
0.00133898
0.00135858
0.0013002
0.00131953
0.00126195
0.00128101
0.00122364
0.00124285
0.00116534
0.00116544
0.001185
0.0012044
0.00120523
0.001186
0.00116619
0.00116549
0.00124379
0.00122456
0.00128217
0.00126286
0.00132076
0.00130141
0.00135988
0.00134025
0.00139959
0.00137967
0.00143993
0.00141968
0.0014809
0.00146034
0.00152259
0.00150166
0.00156504
0.00154369
0.00160798
0.00158643
0.0016518
0.00162995
0.00169631
0.00167401
0.00174144
0.00171881
0.00178709
0.00176421
0.00183313
0.00181008
0.00187941
0.00185628
0.00192595
0.00190265
0.00197258
0.00194941
0.00197396
0.00199902
0.00199624
0.00199984
0.00116591
0.0011666
0.00199974
0.00199725
0.00202244
0.00201978
0.00200064
0.00118526
0.00116622
0.00114686
0.00114727
0.00199329
0.0020219
0.00204858
0.00202171
0.00194665
0.00197009
0.00189928
0.00192291
0.00185228
0.00187581
0.00180618
0.001829
0.00176063
0.00178338
0.00171549
0.00173799
0.00167093
0.00169313
0.00162695
0.00164884
0.00158367
0.00160523
0.00154112
0.00156232
0.00149926
0.00152011
0.00145809
0.00147859
0.00141757
0.00143775
0.00137769
0.00139756
0.0013384
0.00135798
0.00129967
0.00131897
0.00126145
0.0012805
0.0012234
0.00124238
0.00120432
0.00114628
0.00114663
0.00114636
0.00114646
0.00120545
0.0011671
0.00118633
0.00124371
0.00122458
0.0012818
0.00126265
0.00132033
0.001301
0.00135941
0.0013398
0.00139906
0.00137916
0.00143933
0.00141912
0.00148025
0.00145971
0.00152184
0.00150095
0.00156412
0.0015429
0.00160714
0.00158556
0.0016508
0.00162887
0.00169515
0.00167292
0.00174011
0.00171756
0.00178558
0.00176279
0.00183142
0.00180848
0.00187741
0.00185443
0.00192345
0.0019004
0.00196944
0.00194642
0.0020158
0.00199229
0.00204213
0.00203841
0.00202329
0.00202332
0.00114709
0.00114791
0.0020447
0.00204519
0.00205267
0.00206061
0.00206427
0.00201381
0.00208799
0.00202423
0.00203174
0.00203947
0.00198932
0.00201345
0.00194196
0.00196554
0.00189558
0.00191855
0.00184951
0.00187269
0.00180391
0.00182666
0.00175857
0.00178121
0.00171364
0.00173605
0.00166925
0.00169138
0.00162548
0.00164728
0.00158235
0.00160382
0.00153989
0.00156105
0.00149816
0.00151895
0.00145709
0.00147754
0.00141666
0.0014368
0.00137686
0.00139669
0.00133764
0.00135718
0.00129897
0.00131824
0.00126081
0.00127983
0.00122299
0.00124183
0.00118529
0.00120415
0.00114731
0.00116628
0.00112771
0.00112809
0.00112794
0.0011275
0.00112749
0.00112786
0.0011276
0.0011289
0.00112832
0.00116742
0.00112966
0.00114851
0.00120538
0.00118643
0.00124329
0.00122435
0.00128127
0.00126223
0.00131975
0.00130045
0.00135876
0.00133919
0.00139834
0.00137848
0.00143853
0.00141836
0.00147935
0.00145886
0.00152085
0.00150002
0.00156301
0.00154185
0.00160588
0.00158437
0.00164941
0.00162755
0.00169358
0.00167142
0.00173835
0.0017159
0.00178359
0.00176092
0.00182917
0.00180636
0.00187488
0.00185204
0.00192043
0.00189769
0.0019656
0.00194309
0.00201051
0.00198803
0.00205504
0.00203254
0.00208198
0.00207627
0.00204591
0.0020466
0.00206565
0.00206626
0.00114746
0.00112875
0.00110998
0.00111038
0.00208254
0.00208589
0.00211204
0.00204294
0.00210181
0.00209677
0.00207909
0.00204666
0.0020222
0.00203499
0.0019836
0.00200516
0.00193688
0.00196021
0.00189177
0.00191435
0.00184642
0.00186913
0.00180112
0.00182375
0.00175606
0.00177855
0.00171138
0.00173366
0.00166722
0.00168923
0.00162364
0.00164536
0.0015807
0.00160209
0.00153842
0.00155948
0.00149681
0.00151754
0.00145586
0.00147626
0.00141555
0.00143563
0.00137584
0.00139562
0.00133672
0.00135621
0.00129813
0.00131736
0.00126004
0.00127902
0.00122241
0.00124117
0.00118497
0.00120363
0.00116615
0.001109
0.00110932
0.00110913
0.00110901
0.00110904
0.00110929
0.00110916
0.00110952
0.00116752
0.00112976
0.00114886
0.00120508
0.00118631
0.0012427
0.00122391
0.00128061
0.0012616
0.00131902
0.00129975
0.00135795
0.00133842
0.00139744
0.00137762
0.00143752
0.0014174
0.00147823
0.0014578
0.00151959
0.00149883
0.00156162
0.00154052
0.00160431
0.00158289
0.00164766
0.00162591
0.00169163
0.00166958
0.00173615
0.00171383
0.00178112
0.00175859
0.00182639
0.00180374
0.00187174
0.00184908
0.0019169
0.00189437
0.00196149
0.0019393
0.00200525
0.00198361
0.00204797
0.00202605
0.00209056
0.0020701
0.00211616
0.00210971
0.00206868
0.00206807
0.0011095
0.00111088
0.00208663
0.00206333
0.0020922
0.00208792
0.00210548
0.00210285
0.00212
0.0021165
0.0021213
0.00213469
0.00212953
0.00206864
0.00205143
0.00210372
0.00208132
0.00201563
0.00203123
0.00197692
0.00199872
0.00193229
0.00195455
0.00188767
0.00191005
0.00184276
0.00186523
0.00179782
0.00182028
0.0017531
0.00177543
0.00170873
0.00173087
0.00166483
0.00168672
0.00162149
0.00164309
0.00157876
0.00160005
0.00153667
0.00155764
0.00149523
0.00151587
0.00145442
0.00147475
0.00141424
0.00143426
0.00137465
0.00139438
0.00133563
0.00135507
0.00129714
0.00131632
0.00125914
0.00127808
0.00122161
0.00124032
0.0011844
0.00120299
0.00114709
0.00116576
0.00110943
0.00112844
0.0010906
0.00109051
0.00109048
0.00109073
0.00109063
0.00109092
0.0010908
0.00109103
0.001091
0.00109135
0.00109116
0.00109217
0.00109169
0.00112988
0.00109257
0.00111121
0.00116728
0.00114866
0.00120459
0.00118594
0.00124198
0.00122324
0.00127981
0.00126084
0.00131813
0.00129891
0.00135696
0.00133748
0.00139634
0.00137658
0.0014363
0.00141625
0.00147688
0.00145651
0.00151809
0.0014974
0.00155994
0.00153894
0.00160245
0.00158112
0.00164558
0.00162394
0.0016893
0.00166737
0.00173354
0.00171136
0.00177819
0.00175583
0.00182309
0.00180062
0.00186803
0.00184558
0.00191273
0.00189044
0.00195684
0.00193489
0.0019999
0.00197859
0.00204157
0.00202086
0.00208137
0.00206197
0.0021199
0.00209992
0.00214787
0.00213916
0.0020887
0.00211698
0.00210333
0.00110936
0.00109078
0.00107348
0.00107373
0.00208905
0.00210801
0.00211897
0.00212489
0.00213955
0.0021539
0.00216462
0.00215653
0.00208924
0.00209557
0.00213303
0.00212451
0.00211123
0.00204912
0.00207416
0.00200953
0.00202746
0.00197051
0.00199171
0.00192698
0.00194876
0.00188295
0.00190504
0.00183854
0.00186077
0.00179405
0.00181629
0.00174972
0.00177186
0.0017057
0.00172766
0.0016621
0.00168384
0.00161903
0.0016405
0.00157654
0.00159772
0.00153466
0.00155553
0.00149341
0.00151396
0.00145277
0.00147302
0.00141274
0.00143268
0.00137329
0.00139294
0.00133439
0.00135377
0.001296
0.00131513
0.00125811
0.001277
0.00122066
0.00123933
0.00118364
0.00120211
0.0011466
0.00116511
0.00112797
0.00107216
0.00107193
0.00107204
0.00107262
0.00107243
0.00107296
0.00107281
0.00107303
0.00107303
0.00107304
0.00107305
0.0010732
0.00112989
0.00109268
0.0011113
0.0011668
0.00114835
0.00120384
0.00118533
0.00124113
0.00122243
0.00127888
0.00125995
0.00131709
0.00129792
0.0013558
0.00133638
0.00139506
0.00137536
0.00143488
0.0014149
0.0014753
0.00145502
0.00151634
0.00149574
0.001558
0.00153709
0.00160028
0.00157906
0.00164316
0.00162165
0.0016866
0.00166482
0.00173052
0.00170851
0.00177481
0.00175263
0.0018193
0.00179704
0.00186377
0.00184156
0.00190796
0.00188593
0.00195151
0.00192985
0.001994
0.00197294
0.00203496
0.00201472
0.00207365
0.00205465
0.00211098
0.00209204
0.00214586
0.00212815
0.00214015
0.00213712
0.00217239
0.00216241
0.00210681
0.00107226
0.0010739
0.00213769
0.00210914
0.00214976
0.0021241
0.00212779
0.00214408
0.00214449
0.00215902
0.00217068
0.00218033
0.00218745
0.00217791
0.00210878
0.00211285
0.00215711
0.00214983
0.00212778
0.00208465
0.00210185
0.00204344
0.00206381
0.00200305
0.00202251
0.00196362
0.00198424
0.00192103
0.00194243
0.00187766
0.00189943
0.00183383
0.00185579
0.00178984
0.00181184
0.00174594
0.00176787
0.0017023
0.00172408
0.00165904
0.00168062
0.00161627
0.0016376
0.00157405
0.00159509
0.00153241
0.00155316
0.00149136
0.00151181
0.00145091
0.00147107
0.00141105
0.00143091
0.00137175
0.00139133
0.00133299
0.00135231
0.00129473
0.0013138
0.00125695
0.00127578
0.0012196
0.00123822
0.00118268
0.00120109
0.00114599
0.00116435
0.00110918
0.00112755
0.00107222
0.00109084
0.00105373
0.00105358
0.00105361
0.00105417
0.00105388
0.00105471
0.00105444
0.00105508
0.00105493
0.00105513
0.00105515
0.00105502
0.00105506
0.001055
0.00105494
0.00105534
0.00105508
0.00109262
0.00105557
0.00107416
0.00112953
0.00111105
0.00116615
0.00114788
0.00120296
0.00118452
0.00124017
0.00122152
0.0012778
0.00125893
0.0013159
0.00129679
0.00135449
0.00133513
0.0013936
0.00137398
0.00143326
0.00141336
0.00147351
0.00145332
0.00151435
0.00149386
0.00155579
0.001535
0.00159782
0.00157674
0.00164043
0.00161906
0.00168355
0.00166193
0.00172712
0.00170529
0.001771
0.00174904
0.00181504
0.00179302
0.00185902
0.00183706
0.00190264
0.0018809
0.00194557
0.00192422
0.00198739
0.00196666
0.00202765
0.00200776
0.00206568
0.002047
0.00210131
0.00208389
0.00213418
0.00211763
0.00216541
0.00215074
0.00215676
0.00215773
0.0021892
0.0021762
0.00212692
0.00212911
0.00216232
0.00217255
0.00216551
0.00214456
0.00214728
0.00107206
0.00105381
0.00103694
0.00103716
0.00216419
0.0021631
0.00217636
0.00218646
0.00219468
0.002199
0.00217334
0.00216482
0.00217355
0.00220077
0.00219176
0.00218894
0.00212883
0.00214085
0.00214944
0.00210275
0.00211962
0.0020735
0.00209062
0.00203484
0.00205387
0.00199614
0.0020156
0.00195632
0.00197655
0.00191458
0.0019356
0.0018719
0.00189334
0.00182867
0.00185034
0.00178522
0.00180696
0.00174178
0.00176349
0.00169855
0.00172014
0.00165567
0.00167706
0.00161322
0.00163439
0.00157129
0.00159219
0.00152991
0.00155053
0.0014891
0.00150943
0.00144886
0.00146891
0.00140918
0.00142895
0.00137005
0.00138955
0.00133144
0.00135068
0.00129332
0.00131232
0.00125566
0.00127444
0.00121844
0.001237
0.00118161
0.00119997
0.00114516
0.00116335
0.00110868
0.00112692
0.00109042
0.00103557
0.00103527
0.00103537
0.00103629
0.00103595
0.0010369
0.00103662
0.00103726
0.00103712
0.00103732
0.00103733
0.00103711
0.00103723
0.00103694
0.00103702
0.00103692
0.00109241
0.0010558
0.00107413
0.00112892
0.00111063
0.00116528
0.00114707
0.00120199
0.00118359
0.00123908
0.00122049
0.0012766
0.00125779
0.00131456
0.00129552
0.00135301
0.00133373
0.00139196
0.00137242
0.00143145
0.00141164
0.0014715
0.00145141
0.00151212
0.00149175
0.00155332
0.00153266
0.00159509
0.00157414
0.00163739
0.00161618
0.00168017
0.00165873
0.00172335
0.00170172
0.0017668
0.00174506
0.00181036
0.00178859
0.00185379
0.00183211
0.00189681
0.00187538
0.00193908
0.00191807
0.00198019
0.00195982
0.00201969
0.00200018
0.00205701
0.00203867
0.00209169
0.00207476
0.00212328
0.00210789
0.00215095
0.00213793
0.00217799
0.0021623
0.00218394
0.00219902
0.0022127
0.0022076
0.00219586
0.00218286
0.00217394
0.00217704
0.00214716
0.00214872
0.00103546
0.00103714
0.00218643
0.00216454
0.00216608
0.00218155
0.00218088
0.00219279
0.00220199
0.0022069
0.00220867
0.00218365
0.0021695
0.00217637
0.00218031
0.00218976
0.00220446
0.00219206
0.00219962
0.00220276
0.00221722
0.0022146
0.00214869
0.00215356
0.00215836
0.00212588
0.00213695
0.00209316
0.00211017
0.00206204
0.00207825
0.00202595
0.00204436
0.00198805
0.00200718
0.00194868
0.00196859
0.00190771
0.00192836
0.00186571
0.00188682
0.00182311
0.00184447
0.00178021
0.00180168
0.00173727
0.00175873
0.00169448
0.00171585
0.00165199
0.00167319
0.0016099
0.00163089
0.00156828
0.00158903
0.00152718
0.00154767
0.00148662
0.00150683
0.00144661
0.00146655
0.00140713
0.0014268
0.00136818
0.0013876
0.00132974
0.0013489
0.00129177
0.0013107
0.00125425
0.00127296
0.00121715
0.00123566
0.00118044
0.00119875
0.0011441
0.00116223
0.00110796
0.00112605
0.00107184
0.00108987
0.00103541
0.0010536
0.00101724
0.00101717
0.00101712
0.00101778
0.00101739
0.00101854
0.00101815
0.00101917
0.00101889
0.00101951
0.00101937
0.00101957
0.00101957
0.00101936
0.0010195
0.00101901
0.00101923
0.00101879
0.00101886
0.0010188
0.00101879
0.0010555
0.00101886
0.00103736
0.00109197
0.00107375
0.00112806
0.00111005
0.0011643
0.00114614
0.0012009
0.00118256
0.00123788
0.00121934
0.00127526
0.00125652
0.00131309
0.00129412
0.00135137
0.00133217
0.00139015
0.0013707
0.00142945
0.00140974
0.00146929
0.00144931
0.00150968
0.00148942
0.00155061
0.00153008
0.00159209
0.00157129
0.00163406
0.00161302
0.00167647
0.00165522
0.00171924
0.00169782
0.00176223
0.00174072
0.00180526
0.00178376
0.00184812
0.00182674
0.00189052
0.00186941
0.00193211
0.00191145
0.00197248
0.00195248
0.00201119
0.00199208
0.00204771
0.00202977
0.00208158
0.00206503
0.00211226
0.00209739
0.00213875
0.00212614
0.00216144
0.00215076
0.00216762
0.00218898
0.00219766
0.00220841
0.00219497
0.00216676
0.00216773
0.00219491
0.0021822
0.00218405
0.00103506
0.00101701
0.00100055
0.00100045
0.00219882
0.00219769
0.00220837
0.00221571
0.00221984
0.00222177
0.00218555
0.00217106
0.00218371
0.00219511
0.00220587
0.00220623
0.00221287
0.00222645
0.00221747
0.00219725
0.00221196
0.00216797
0.00215754
0.00215478
0.00213739
0.00214883
0.00211092
0.00212451
0.00208258
0.00209742
0.00205133
0.00206735
0.00201647
0.0020343
0.00197938
0.00199814
0.00194068
0.00196025
0.00190044
0.00192072
0.00185914
0.0018799
0.00181716
0.00183822
0.00177484
0.00179604
0.00173242
0.00175364
0.0016901
0.00171124
0.00164802
0.00166903
0.00160631
0.00162712
0.00156503
0.00158561
0.00152423
0.00154457
0.00148394
0.00150402
0.00144417
0.00146399
0.00140491
0.00142448
0.00136616
0.00138548
0.0013279
0.00134697
0.0012901
0.00130894
0.00125273
0.00127136
0.00121577
0.0012342
0.00117918
0.00119743
0.00114295
0.00116102
0.00110704
0.00112496
0.00107118
0.00108905
0.00105316
0.000999277
0.000998912
0.000999107
0.00100008
0.000999689
0.0010009
0.00100051
0.00100149
0.00100123
0.00100182
0.00100169
0.00100189
0.00100189
0.00100169
0.00100182
0.00100127
0.0010015
0.00100078
0.00100104
0.00100058
0.00105512
0.00101884
0.00103714
0.00109126
0.00107316
0.00112709
0.00110915
0.00116323
0.00114512
0.00119972
0.00118143
0.00123656
0.00121809
0.0012738
0.00125513
0.00131147
0.00129259
0.00134959
0.00133047
0.00138818
0.00136883
0.00142728
0.00140767
0.00146688
0.00144702
0.00150702
0.00148689
0.00154767
0.00152728
0.00158883
0.00156819
0.00163045
0.00160959
0.00167247
0.00165142
0.0017148
0.00169361
0.0017573
0.00173605
0.0017998
0.00177857
0.00184206
0.00182099
0.00188381
0.00186303
0.00192469
0.00190439
0.00196431
0.0019447
0.00200222
0.00198352
0.00203792
0.00202039
0.00207093
0.00205481
0.00210071
0.00208628
0.00212651
0.00211417
0.00214773
0.0021379
0.00216373
0.00215608
0.00217958
0.00217299
0.00219914
0.00218525
0.00217805
0.0022032
0.00220722
0.0021847
0.00218581
0.00099879
0.00100066
0.0022129
0.00219923
0.00220106
0.00221481
0.00221346
0.0022227
0.00222863
0.00223128
0.00223026
0.00218773
0.00217051
0.00217048
0.00216897
0.0021666
0.00218623
0.00218821
0.00220654
0.00220918
0.00222012
0.0022188
0.002232
0.00222425
0.00221309
0.002199
0.00218609
0.00215995
0.00216824
0.00214162
0.00214285
0.00212166
0.0021345
0.00209848
0.00211059
0.00207109
0.0020853
0.00204042
0.00205616
0.00200653
0.00202384
0.00197031
0.00198867
0.00193231
0.00195153
0.0018928
0.00191273
0.0018522
0.00187262
0.00181088
0.00183162
0.00176915
0.00179005
0.00172727
0.00174822
0.00168543
0.00170634
0.00164379
0.00166458
0.00160247
0.00162309
0.00156154
0.00158195
0.00152106
0.00154124
0.00148106
0.001501
0.00144154
0.00146124
0.00140253
0.00142198
0.00136399
0.0013832
0.00132592
0.0013449
0.00128829
0.00130705
0.00125108
0.00126964
0.00121427
0.00123263
0.00117782
0.001196
0.00114171
0.00115973
0.00110592
0.00112378
0.00107039
0.00108812
0.00103453
0.00105244
0.000998383
0.00101662
0.000980897
0.000980149
0.000980488
0.000981629
0.00098121
0.000982499
0.000982039
0.000983316
0.000982939
0.000983877
0.000983627
0.000984194
0.000984066
0.000984267
0.000984261
0.000984093
0.00098421
0.000983681
0.000983915
0.000983086
0.00098339
0.000982643
0.000982833
0.000982607
0.000982543
0.00101861
0.000982736
0.00100074
0.00105455
0.00103667
0.00109033
0.00107246
0.00112605
0.00110815
0.00116207
0.00114402
0.00119843
0.00118021
0.00123513
0.00121674
0.00127222
0.00125363
0.00130972
0.00129092
0.00134765
0.00132863
0.00138605
0.0013668
0.00142492
0.00140543
0.00146429
0.00144454
0.00150415
0.00148416
0.0015445
0.00152427
0.00158532
0.00156486
0.00162658
0.0016059
0.00166819
0.00164735
0.00171006
0.0016891
0.00175205
0.00173106
0.00179399
0.00177305
0.00183565
0.00181488
0.00187672
0.00185629
0.00191689
0.00189696
0.00195575
0.00193652
0.00199286
0.00197456
0.00202773
0.00201062
0.00205988
0.00204419
0.00208877
0.00207478
0.00211379
0.00210182
0.00213439
0.00212473
0.00215029
0.00214285
0.00216161
0.00215717
0.00216172
0.00221812
0.0022238
0.00218582
0.00217258
0.00220173
0.00220294
0.00222399
0.00221522
0.00221704
0.000998146
0.000980315
0.000964632
0.00096458
0.00222973
0.00222809
0.00223588
0.00224026
0.00224111
0.00223841
0.0021693
0.00215311
0.00215123
0.0021694
0.00218876
0.00220656
0.00222079
0.00222279
0.00223121
0.00223722
0.00222654
0.00221178
0.00219763
0.00216184
0.00217462
0.00220324
0.00215499
0.00215095
0.00214164
0.00215192
0.00212556
0.00213297
0.00210827
0.00211812
0.00208581
0.00209755
0.00205918
0.00207298
0.00202924
0.00204461
0.00199626
0.00201311
0.00196088
0.00197884
0.00192363
0.00194247
0.00188485
0.00190441
0.00184495
0.00186503
0.00180429
0.0018247
0.00176316
0.00178377
0.00172183
0.00174251
0.00168049
0.00170115
0.00163931
0.00165987
0.00159839
0.00161881
0.00155783
0.00157807
0.00151769
0.00153771
0.00147799
0.00149778
0.00143875
0.00145831
0.00139998
0.00141931
0.00136167
0.00138077
0.0013238
0.00134268
0.00128636
0.00130503
0.00124933
0.0012678
0.00121267
0.00123096
0.00117637
0.00119448
0.00114039
0.00115834
0.00110472
0.00112252
0.00106933
0.001087
0.00103384
0.0010516
0.00101596
0.000963073
0.000962317
0.000962692
0.000964066
0.000963596
0.000965014
0.000964546
0.000965786
0.000965431
0.000966322
0.000966083
0.000966629
0.000966504
0.000966704
0.000966695
0.00096655
0.000966655
0.000966169
0.000966388
0.000965579
0.000965893
0.000964918
0.000965266
0.000964662
0.0010183
0.000982605
0.00100064
0.00105385
0.00103609
0.00108932
0.00107161
0.00112493
0.00110709
0.00116083
0.00114284
0.00119704
0.00117889
0.00123359
0.00121527
0.00127052
0.00125201
0.00130784
0.00128913
0.00134558
0.00132666
0.00138376
0.00136462
0.0014224
0.00140302
0.0014615
0.00144189
0.00150108
0.00148124
0.00154112
0.00152105
0.00158159
0.00156131
0.00162245
0.00160198
0.00166364
0.00164302
0.00170503
0.00168432
0.00174651
0.00172578
0.00178787
0.00176723
0.0018289
0.00180846
0.00186931
0.00184921
0.00190875
0.00188918
0.00194685
0.00192801
0.00198316
0.00196527
0.00201722
0.00200052
0.00204854
0.00203327
0.0020766
0.00206303
0.00210085
0.00208925
0.0021208
0.00211142
0.00213623
0.00212905
0.00214633
0.00214219
0.00215094
0.00214904
0.00215487
0.0021503
0.00215918
0.00214446
0.0021454
0.0022315
0.00223613
0.00221779
0.00221904
0.000962366
0.000964648
0.00223303
0.00223016
0.00223189
0.00224325
0.00224155
0.00224782
0.00225049
0.00224956
0.002245
0.00215078
0.0021342
0.00212641
0.00213035
0.00212003
0.00213583
0.00214625
0.00216988
0.00218689
0.00220752
0.00222114
0.00223385
0.00223811
0.00224027
0.0022269
0.00221001
0.00219193
0.00217061
0.00215041
0.00221937
0.00214345
0.00214161
0.00213771
0.00213002
0.00212461
0.00213559
0.00211179
0.00211835
0.00209477
0.00210403
0.00207288
0.00208434
0.00204705
0.00206044
0.00201788
0.00203287
0.00198573
0.00200215
0.00195116
0.00196872
0.00191466
0.00193313
0.00187662
0.00189582
0.00183742
0.00185715
0.00179741
0.0018175
0.0017569
0.00177721
0.00171612
0.00173653
0.0016753
0.00169571
0.00163458
0.00165492
0.00159409
0.00161431
0.00155392
0.00157397
0.00151412
0.00153397
0.00147474
0.00149438
0.00143579
0.00145521
0.00139728
0.00141648
0.00135921
0.00137819
0.00132156
0.00134033
0.00128432
0.00130289
0.00124746
0.00126585
0.00121098
0.00122918
0.00117483
0.00119286
0.00113899
0.00115687
0.00110345
0.00112119
0.00106817
0.00108578
0.00103303
0.00105062
0.000997736
0.00101533
0.000962119
0.000980058
0.000944737
0.000944129
0.000944397
0.000945632
0.000945112
0.000946651
0.000946139
0.000947585
0.000947139
0.000948311
0.000947975
0.000948823
0.000948594
0.000949119
0.000948998
0.000949197
0.000949185
0.00094906
0.000949155
0.000948709
0.000948911
0.000948142
0.000948453
0.000947418
0.000947785
0.000946885
0.000947107
0.000946929
0.000946791
0.000982371
0.000946924
0.000964713
0.00101779
0.00100015
0.00105301
0.00103536
0.00108824
0.00107061
0.00112373
0.00110595
0.00115949
0.00114157
0.00119556
0.00117748
0.00123195
0.00121371
0.0012687
0.00125028
0.00130583
0.00128722
0.00134337
0.00132455
0.00138132
0.00136229
0.00141971
0.00140046
0.00145854
0.00143908
0.00149782
0.00147813
0.00153753
0.00151763
0.00157764
0.00155754
0.0016181
0.00159783
0.00165884
0.00163845
0.00169975
0.00167929
0.00174069
0.00172023
0.00178147
0.00176112
0.00182187
0.00180174
0.0018616
0.00184185
0.00190032
0.00188112
0.00193767
0.0019192
0.0019732
0.0019557
0.00200647
0.00199016
0.002037
0.00202213
0.00206429
0.0020511
0.00208783
0.00207657
0.00210716
0.00209807
0.00212199
0.00211515
0.00213175
0.00212762
0.00213596
0.0021346
0.00213534
0.00213632
0.00212988
0.00224359
0.00224696
0.00213169
0.00211953
0.00223279
0.00223403
0.0022429
0.00224385
0.00224556
0.000961764
0.000944091
0.000929152
0.000929185
0.00225544
0.00225376
0.00225839
0.00225932
0.00225652
0.00225014
0.00212521
0.00211167
0.00209718
0.00211068
0.00214651
0.00216387
0.00218851
0.00220057
0.00222218
0.00223524
0.00224489
0.00224142
0.0022257
0.00220741
0.00218417
0.00216508
0.00214197
0.00210569
0.00211786
0.00223441
0.00212096
0.00210477
0.00212688
0.00212828
0.00211984
0.00211717
0.00211033
0.00211795
0.00209798
0.00210442
0.00208118
0.00209023
0.00205991
0.00207105
0.00203481
0.00204782
0.00200637
0.00202099
0.00197501
0.00199103
0.00194122
0.00195839
0.00190546
0.00192357
0.00186815
0.00188698
0.00182964
0.00184903
0.00179029
0.00181006
0.00175039
0.00177039
0.00171018
0.00173031
0.00166988
0.00169003
0.00162964
0.00164975
0.00158958
0.00160959
0.00154981
0.00156966
0.00151037
0.00153005
0.00147132
0.0014908
0.00143267
0.00145194
0.00139443
0.0014135
0.00135661
0.00137547
0.00131919
0.00133785
0.00128216
0.00130063
0.0012455
0.00126378
0.00120918
0.0012273
0.0011732
0.00119115
0.00113751
0.00115532
0.00110211
0.00111978
0.00106696
0.0010845
0.00103205
0.00104948
0.000997042
0.00101449
0.000979441
0.000927184
0.000926424
0.000926792
0.000928273
0.000927739
0.000929316
0.000928807
0.0009302
0.000929782
0.000930888
0.000930569
0.000931376
0.000931157
0.000931661
0.000931544
0.000931742
0.000931727
0.00093162
0.000931707
0.000931298
0.000931484
0.000930777
0.000931063
0.000930076
0.000930442
0.000929363
0.000929729
0.000929164
0.000982082
0.000946975
0.000964516
0.0010171
0.000999547
0.001052
0.00103453
0.0010871
0.00106952
0.00112245
0.00110475
0.00115807
0.00114023
0.00119398
0.00117599
0.00123021
0.00121205
0.00126678
0.00124845
0.00130371
0.0012852
0.00134102
0.00132232
0.00137874
0.00135983
0.00141687
0.00139776
0.00145542
0.0014361
0.00149438
0.00147485
0.00153375
0.00151402
0.00157348
0.00155358
0.00161353
0.00159347
0.00165381
0.00163365
0.00169422
0.00167402
0.00173462
0.00171444
0.00177482
0.00175476
0.00181458
0.00179478
0.00185363
0.00183422
0.00189165
0.0018728
0.00192825
0.00191016
0.00196303
0.00194591
0.00199555
0.00197962
0.00202533
0.00201082
0.00205191
0.00203906
0.0020748
0.00206386
0.00209358
0.00208475
0.00210791
0.00210133
0.00211734
0.00211331
0.00212156
0.00212011
0.00212027
0.00212178
0.00211309
0.00211718
0.0021053
0.00210543
0.00209109
0.002081
0.0020929
0.00225428
0.00225593
0.0022466
0.00224783
0.000926395
0.000929055
0.0022511
0.00225622
0.00225796
0.00226628
0.0022646
0.00226752
0.00226662
0.00226193
0.00225348
0.00208365
0.00207873
0.00207087
0.00209132
0.00211036
0.00213273
0.00216379
0.00217975
0.00220353
0.00221837
0.00223513
0.00224733
0.00224073
0.00222297
0.00220213
0.00218032
0.00215571
0.00212927
0.0021027
0.0020702
0.00207563
0.0020619
0.00224826
0.00210153
0.0020779
0.00210334
0.0020966
0.00210925
0.00210891
0.00210357
0.00210609
0.00209654
0.0021013
0.00208421
0.00209081
0.00206769
0.00207652
0.00204698
0.00205784
0.00202253
0.00203521
0.00199477
0.00200905
0.00196414
0.0019798
0.00193109
0.0019479
0.00189607
0.00191381
0.00185946
0.00187795
0.00182164
0.00184069
0.00178294
0.00180239
0.00174365
0.00176336
0.00170402
0.00172387
0.00166424
0.00168414
0.00162449
0.00164436
0.00158488
0.00160466
0.00154551
0.00156517
0.00150645
0.00152594
0.00146773
0.00148705
0.00142939
0.00144852
0.00139144
0.00141037
0.00135388
0.00137261
0.0013167
0.00133524
0.00127988
0.00129825
0.00124342
0.00126161
0.0012073
0.00122532
0.00117148
0.00118935
0.00113596
0.00115369
0.0011007
0.0011183
0.00106568
0.00108316
0.00103089
0.00104826
0.000996153
0.00101349
0.000961371
0.000978826
0.000926115
0.000943819
0.000909006
0.000908379
0.00090865
0.000909928
0.0009094
0.000911013
0.000910461
0.000912027
0.000911542
0.000912861
0.000912467
0.000913513
0.00091321
0.000913978
0.000913769
0.000914253
0.000914139
0.000914337
0.000914319
0.00091423
0.000914307
0.000913935
0.000914105
0.000913456
0.000913718