/*--------------------------------*- C++ -*----------------------------------*\
  =========                 |
  \\      /  F ield         | OpenFOAM: The Open Source CFD Toolbox
   \\    /   O peration     | Website:  https://openfoam.org
    \\  /    A nd           | Version:  10
     \\/     M anipulation  |
\*---------------------------------------------------------------------------*/
FoamFile
{
    format      ascii;
    class       volVectorField;
    location    "19.5";
    object      U;
}
// * * * * * * * * * * * * * * * * * * * * * * * * * * * * * * * * * * * * * //

dimensions      [0 1 -1 0 0 0 0];

internalField   nonuniform List<vector> 
6397
(
(4.09976 -0.695957 1.9831e-19)
(4.09735 -0.434047 -9.6155e-19)
(4.71206 -2.09007 0)
(4.88108 -2.0249 -6.28455e-21)
(4.44002 -2.10319 -7.27616e-20)
(4.41132 -2.25878 -1.03186e-19)
(3.15256 -1.74107 -1.03116e-18)
(1.65709 -2.75002 1.89114e-18)
(0.237342 1.20028 3.81044e-19)
(0.619488 0.663864 -9.30079e-20)
(2.43596 3.37169 5.70189e-19)
(3.50064 4.07303 3.77304e-20)
(3.68469 0.108528 -4.00763e-20)
(3.6736 0.0967809 -1.70662e-20)
(2.5423 0.111456 3.33597e-20)
(1.50384 1.41577 -4.87117e-18)
(2.0452 -0.225729 -2.38136e-18)
(-0.262296 0.356345 2.3146e-18)
(1.18456 0.477475 8.03681e-19)
(2.21339 -0.191163 -2.5155e-18)
(1.73571 0.298106 -1.29211e-18)
(-0.531431 0.602405 -1.19626e-18)
(-0.650241 0.853178 4.45004e-20)
(1.89569 0.436565 -5.20291e-19)
(4.049 0.132438 0)
(4.31693 0.0768871 5.16919e-21)
(4.42818 0.127756 1.79898e-22)
(2.76875 -1.84311 2.9746e-19)
(2.74932 -1.28935 -6.37007e-20)
(2.74255 -2.17007 1.14235e-19)
(2.65414 -1.82835 -1.63886e-19)
(5.4418 -1.41024 -1.6784e-19)
(5.35135 -1.63058 -1.12158e-19)
(4.94404 -1.89395 4.49551e-19)
(6.01163 -0.375987 -1.97115e-20)
(5.98658 -0.621615 0)
(5.84862 -0.814648 6.03062e-20)
(5.74275 -1.12069 9.90507e-20)
(5.76066 -0.00714755 2.23385e-20)
(5.69861 0.122542 -2.72567e-20)
(5.95155 0.000627114 0)
(5.9541 -0.285464 0)
(2.79433 -2.36386 -4.25805e-20)
(3.47367 -2.53876 -9.17785e-20)
(3.43014 -2.48897 6.31313e-20)
(4.31458 -2.29388 -1.48736e-19)
(3.89879 -2.40041 -1.08012e-19)
(3.87632 -2.43578 2.86879e-19)
(4.88406 0.150446 5.79056e-20)
(4.76677 -0.00555339 -8.97425e-21)
(4.63058 -0.0160799 1.13953e-19)
(4.56712 -0.0564211 -4.48995e-20)
(4.61797 -0.0239895 -3.03785e-19)
(4.54749 1.19637 -8.13555e-20)
(3.66382 0.773302 5.19655e-20)
(4.03907 0.0444438 7.97652e-20)
(4.05542 0.0609927 7.65694e-20)
(4.45815 -0.177267 -1.53019e-19)
(3.11188 2.56854 -1.23981e-19)
(3.01577 2.24084 1.25523e-19)
(3.18583 2.70629 9.03975e-20)
(3.20736 2.72069 -8.91088e-20)
(3.19545 2.65265 -8.8029e-20)
(3.10951 2.54796 8.65224e-20)
(2.98604 2.39631 0)
(2.78927 2.16244 1.2612e-19)
(2.58389 1.75638 -1.3335e-19)
(2.38788 1.13478 0)
(3.26451 2.36758 -1.63532e-19)
(2.91495 1.71225 2.05439e-21)
(3.20174 1.86792 1.55344e-19)
(3.32322 2.65056 0)
(3.34 2.76041 0)
(3.3265 2.7218 0)
(3.26785 2.60716 -2.68178e-22)
(3.15179 2.44942 3.97245e-23)
(2.99736 2.24929 0)
(2.78498 1.96833 -8.3273e-24)
(2.56784 1.54583 0)
(2.36547 0.943505 0)
(3.13568 1.17383 -2.22823e-19)
(2.80889 1.03322 1.28411e-20)
(2.2933 0.304683 0)
(2.26241 0.183875 0)
(3.06275 0.362093 -3.04461e-21)
(2.76753 0.219253 0)
(2.29552 -0.626163 0)
(2.26549 -0.647392 0)
(3.02527 -0.48262 4.30518e-19)
(2.73692 -0.587863 -3.74616e-20)
(2.43195 -1.53404 0)
(2.41483 -1.44471 0)
(3.00186 -1.23124 -3.06573e-19)
(3.02678 -1.8005 -1.85788e-19)
(2.62969 -2.25051 0)
(2.60861 -2.08013 1.07727e-20)
(3.46843 -0.313332 0)
(3.41621 -1.66111 3.72493e-19)
(3.40061 -1.07354 2.74551e-20)
(3.5572 1.39628 -2.05441e-19)
(3.47889 0.561326 0)
(3.60157 2.52015 -6.58654e-20)
(3.57795 2.0623 2.06887e-19)
(3.57842 2.77127 4.25454e-20)
(3.61014 2.73894 5.50547e-20)
(3.40559 2.5078 2.68668e-22)
(3.51165 2.68055 -4.4262e-20)
(3.08084 2.05692 1.16478e-22)
(3.25947 2.29965 -2.80041e-20)
(2.66178 1.34482 -2.48033e-20)
(2.86912 1.75442 5.0005e-20)
(2.37678 0.114747 0)
(2.47966 0.798885 0)
(2.50662 -1.32105 0)
(2.39149 -0.62703 0)
(2.6839 -1.87647 -1.65452e-20)
(2.50317 -0.604355 -2.45487e-19)
(2.80216 -2.39633 -9.54078e-20)
(2.61731 -1.59757 2.41798e-19)
(2.58085 1.32453 2.33189e-19)
(2.49857 0.431393 -2.27923e-19)
(2.91822 2.33579 1.03032e-21)
(2.73912 1.9667 4.93193e-21)
(3.16978 2.6149 0)
(3.08168 2.52492 0)
(3.17076 2.66797 8.11795e-20)
(3.20939 2.65902 1.05103e-20)
(2.99333 2.39608 1.58333e-20)
(3.11242 2.59241 -8.06555e-20)
(2.75869 1.5227 6.6128e-20)
(2.86619 2.04834 -7.05184e-21)
(2.61858 0.0831322 -1.26266e-19)
(2.64843 0.840303 -5.98826e-20)
(2.62548 -1.30908 0)
(2.58486 -0.668255 1.49342e-19)
(3.07818 -2.13717 -1.36407e-19)
(2.84802 -2.18052 -1.10897e-20)
(3.40254 -2.04432 8.24532e-20)
(2.93358 -2.30195 -2.59222e-20)
(2.85547 -2.53 6.31278e-21)
(3.10723 -2.53545 -2.08901e-21)
(3.00581 -2.92219 9.55527e-20)
(3.24714 -3.08184 0)
(3.17186 -2.57517 1.58376e-20)
(3.04655 -2.07717 -1.5974e-20)
(3.26924 -2.34307 1.58853e-20)
(2.74239 -2.09827 4.5209e-20)
(3.85087 -1.58637 -2.02688e-19)
(3.79266 -1.97588 -7.90857e-20)
(2.798 -2.31184 4.18374e-20)
(2.86908 -2.73968 3.39883e-21)
(3.98097 -0.180254 0)
(3.90735 -0.95162 -5.70028e-20)
(4.06047 1.42599 6.86624e-21)
(4.01893 0.649223 0)
(4.00574 2.4733 -3.18476e-20)
(4.03187 2.05942 5.52714e-20)
(3.8587 2.6589 0)
(3.93389 2.65485 4.76146e-21)
(3.59788 2.3433 0)
(3.73836 2.54032 2.06339e-21)
(3.24822 1.84383 0)
(3.4309 2.11055 2.5426e-21)
(2.84313 1.13562 -1.53095e-21)
(3.03496 1.53684 2.15777e-21)
(2.56392 0.0298389 7.53246e-22)
(2.65352 0.638756 -1.39322e-21)
(2.65234 -1.19007 8.33007e-23)
(2.55206 -0.606751 -4.20679e-22)
(2.81307 -1.68182 5.65845e-21)
(2.90508 -0.560914 5.37324e-21)
(2.96712 -1.66445 4.1506e-21)
(2.94712 1.55085 -2.39881e-22)
(2.88675 0.588413 0)
(3.17294 2.53914 0)
(3.0362 2.20093 -3.60989e-21)
(3.31693 2.65081 0)
(3.26431 2.65102 0)
(3.21127 2.56151 -6.268e-23)
(3.28705 2.62134 -1.06583e-20)
(2.95963 2.24073 -9.66319e-21)
(3.10078 2.45937 0)
(2.68174 1.39507 -3.82772e-20)
(2.82302 1.90044 0)
(2.55301 0.0580631 3.27503e-21)
(2.58337 0.764821 3.83645e-20)
(2.59673 -1.26127 5.59936e-23)
(2.53722 -0.639352 1.24691e-20)
(2.67165 -1.75665 -4.58875e-20)
(3.08241 -2.33849 3.76025e-20)
(2.88805 -2.36485 0)
(3.66273 -2.18348 2.38002e-20)
(3.35133 -2.26665 -2.28049e-20)
(3.38976 -3.31294 0)
(3.22015 -3.18213 0)
(3.12613 -2.7895 -1.16619e-20)
(3.1866 -1.84801 -5.02342e-22)
(3.41835 -2.09092 0)
(3.51675 -2.52591 -3.64445e-21)
(3.42091 -2.75377 1.07184e-21)
(3.68887 -3.3796 0)
(3.49622 -3.29689 0)
(3.70628 -3.33322 -5.173e-20)
(2.8181 -2.45471 4.69205e-20)
(2.81996 -2.43637 0)
(3.5304 -2.21535 -3.97028e-20)
(3.98062 -2.05014 -3.16529e-22)
(3.85027 -2.06467 6.17998e-20)
(2.91312 -2.26743 0)
(2.83847 -2.01568 -1.98037e-20)
(3.13519 -3.00841 0)
(4.30361 -1.45531 2.65659e-20)
(4.2006 -1.82853 0)
(4.5227 -0.0889685 8.91516e-22)
(4.4418 -0.847684 5.70503e-21)
(4.5769 1.47918 -1.398e-20)
(4.57132 0.737214 0)
(4.4298 2.41666 1.23107e-22)
(4.50616 2.05417 -1.19462e-20)
(4.14807 2.52915 -5.14742e-23)
(4.27532 2.56001 -6.73832e-21)
(3.80222 2.16738 1.44545e-21)
(3.97135 2.3793 0)
(3.41049 1.63101 0)
(3.6093 1.9134 -1.47336e-21)
(2.99583 0.930598 -2.09431e-22)
(3.19073 1.31397 1.12471e-22)
(2.74805 -0.0156016 0)
(2.81936 0.490518 -3.2391e-23)
(2.8387 -1.02643 6.32848e-22)
(2.73335 -0.525644 -3.03399e-22)
(2.97097 -1.48518 -1.7502e-22)
(3.57438 -2.65186 -3.64481e-20)
(3.64379 -3.1784 1.07147e-22)
(3.45832 -0.605751 -1.56409e-20)
(3.50359 -1.75759 6.05395e-20)
(3.43142 1.60697 6.83045e-21)
(3.42121 0.590495 -4.13951e-20)
(3.49709 2.61581 0)
(3.45074 2.27576 3.90848e-20)
(3.54193 2.63658 0)
(3.53283 2.69106 0)
(3.35386 2.46893 1.0747e-22)
(3.46704 2.55953 0)
(3.03745 2.10095 0)
(3.19426 2.33882 0)
(2.72696 1.2769 0)
(2.87126 1.75668 0)
(2.57279 0.0469786 9.87069e-21)
(2.62089 0.69286 0)
(2.66038 -1.19558 -5.54639e-23)
(2.59258 -0.615024 -1.0089e-20)
(2.75131 -1.6652 2.23016e-20)
(3.04133 -2.39254 2.58285e-20)
(2.90259 -2.44136 -4.38729e-20)
(3.26215 -2.31963 4.9744e-20)
(3.6839 -2.27774 1.3678e-20)
(3.38488 -3.2301 0)
(3.35491 -2.91518 1.43968e-20)
(3.68476 -3.12814 5.47793e-20)
(3.52026 -3.1598 0)
(3.73458 -2.68902 4.68053e-21)
(3.62089 -2.8821 1.99283e-20)
(3.44034 -2.12848 5.1554e-21)
(3.69806 -1.96538 3.61161e-21)
(2.81387 -2.45716 3.77322e-20)
(2.83713 -2.49009 4.25914e-20)
(3.00467 -1.93006 7.3241e-21)
(3.09649 -2.21169 0)
(4.32051 -1.85445 1.41341e-20)
(4.18837 -1.86649 -4.32647e-21)
(3.93774 -2.45308 -1.3722e-20)
(4.20306 -2.62622 -4.7061e-21)
(3.94802 -2.87178 -4.96917e-20)
(2.91912 -2.42629 1.37892e-20)
(3.35224 -3.09343 0)
(4.74264 -1.29619 1.50876e-20)
(4.58928 -1.68274 -5.73109e-20)
(5.03074 -0.00697916 -2.56062e-20)
(4.93819 -0.728122 6.23173e-20)
(5.06083 1.44477 0)
(5.09454 0.751624 0)
(4.8151 2.29669 -2.72302e-23)
(4.94897 1.97611 -8.21369e-27)
(4.42626 2.36939 5.10225e-23)
(4.60664 2.41658 0)
(3.98725 1.97049 0)
(4.18934 2.19287 -5.17603e-28)
(3.5326 1.41227 0)
(3.74931 1.69098 0)
(3.13069 0.748335 0)
(3.31622 1.08965 0)
(2.93458 -0.0548328 0)
(3.00162 0.362996 0)
(3.00571 -0.942203 0)
(2.9394 -0.495441 0)
(3.33494 -1.63777 8.98124e-22)
(3.13539 -1.33994 0)
(3.84772 -2.00929 0)
(3.58464 -1.84204 3.43149e-22)
(4.44541 -2.33305 0)
(4.14909 -2.15591 3.97729e-23)
(4.06168 -3.39349 -1.60858e-20)
(3.8494 -3.03553 -9.9036e-21)
(3.96848 -3.28715 1.61558e-20)
(4.16166 -2.7243 1.57123e-20)
(4.12674 -3.23846 -1.07138e-22)
(4.13889 -0.667579 -1.15452e-20)
(4.15878 -1.84284 -2.16493e-20)
(4.03893 1.59568 -3.87433e-24)
(4.08854 0.558522 0)
(3.91148 2.62017 0)
(3.97364 2.28528 0)
(3.78175 2.57533 0)
(3.85164 2.67853 0)
(3.50475 2.30223 -1.75018e-23)
(3.66103 2.43152 0)
(3.139 1.93226 0)
(3.3137 2.1564 0)
(2.83616 1.15095 0)
(2.97272 1.60122 0)
(2.69571 0.0123299 8.78375e-22)
(2.73792 0.616538 -9.138e-22)
(2.79062 -1.11776 1.40968e-21)
(2.71464 -0.5849 1.17224e-22)
(2.90232 -1.5729 -1.07514e-20)
(3.0056 -2.3493 -2.60927e-20)
(2.87549 -2.42073 -4.03678e-20)
(3.20402 -2.2561 0)
(3.57417 -2.86913 0)
(3.68678 -2.71905 7.95914e-21)
(4.46905 -2.77032 6.29038e-20)
(4.75671 -2.49555 0)
(3.46816 -3.16128 0)
(3.5196 -2.99756 0)
(3.95164 -1.76185 0)
(2.95195 -2.4946 -7.48489e-20)
(3.21831 -1.82433 -2.32963e-21)
(3.32282 -2.1113 0)
(3.47757 -2.97916 3.33367e-21)
(3.77135 -3.02697 -2.44824e-20)
(3.47702 -2.37785 3.44998e-21)
(3.39484 -2.58424 -2.58433e-21)
(4.15978 -2.99696 5.48363e-20)
(4.71073 -2.78928 2.89257e-20)
(5.04957 -2.54047 0)
(3.13221 -2.40869 6.06332e-20)
(3.48535 -3.10769 0)
(4.63125 -1.62485 -3.3031e-20)
(4.17393 -1.54715 1.07848e-20)
(4.46339 -1.65728 -3.1661e-20)
(5.11918 -1.11988 -2.69629e-20)
(4.93901 -1.48901 4.21892e-20)
(5.44639 0.0809124 0)
(5.36165 -0.598227 1.67827e-20)
(5.43028 1.37736 9.10672e-27)
(5.51435 0.755426 -9.46954e-27)
(5.09595 2.10351 -3.11365e-23)
(5.30138 1.82791 0)
(4.61309 2.13551 0)
(4.85156 2.19648 0)
(4.10177 1.73537 2.27364e-23)
(4.33008 1.96506 5.17559e-28)
(3.63351 1.20907 -1.83501e-27)
(3.83703 1.47081 1.90495e-27)
(3.27922 0.621342 0)
(3.43045 0.915085 0)
(3.10114 -0.0667537 -4.78916e-23)
(3.17356 0.286177 0)
(3.14825 -0.813005 4.76298e-23)
(3.10736 -0.445703 0)
(3.45825 -1.38618 9.50639e-22)
(3.28858 -1.13443 0)
(3.94814 -1.71043 -4.40693e-21)
(3.70311 -1.56626 -1.51988e-21)
(4.54314 -2.01013 4.23361e-21)
(4.25326 -1.84758 4.34396e-21)
(5.23368 -2.15568 3.84268e-20)
(4.88443 -2.13678 -4.22966e-21)
(4.05055 -2.90349 4.34073e-21)
(3.57784 -2.16835 9.80364e-22)
(3.83203 -2.54689 -4.90404e-21)
(4.45818 -3.30959 2.63176e-20)
(4.25524 -3.18974 -1.38018e-20)
(4.75273 -2.72659 -3.34313e-20)
(4.61706 -3.19216 -9.24453e-21)
(4.85511 -0.719799 0)
(4.84094 -1.86776 4.06121e-20)
(4.67273 1.5004 -5.59984e-22)
(4.78895 0.485083 -2.00821e-26)
(4.35437 2.50358 0)
(4.51919 2.17418 0)
(4.05843 2.44664 -5.73773e-23)
(4.2001 2.56102 0)
(3.70868 2.12488 -2.87734e-23)
(3.89957 2.27971 0)
(3.29111 1.76945 0)
(3.48699 1.97638 0)
(2.98841 1.0433 0)
(3.11348 1.45898 0)
(2.85877 0.000887948 0)
(2.89957 0.54309 0)
(2.96112 -1.05528 0)
(2.89145 -0.559513 1.3259e-22)
(3.09202 -1.47191 1.20667e-21)
(3.20808 -1.99186 -4.13211e-21)
(3.30466 -1.74451 0)
(5.32926 -2.30203 1.01236e-20)
(5.58778 -1.96826 -5.50398e-20)
(3.14739 -2.53126 0)
(3.42708 -2.33313 -7.96751e-21)
(2.94313 -2.52379 -4.54646e-20)
(3.16877 -2.54868 5.63248e-20)
(2.77282 -2.39795 2.07377e-20)
(2.81533 -2.4836 3.57889e-21)
(2.90397 -2.22958 2.12914e-21)
(2.79697 -2.32318 -1.81454e-20)
(3.27764 -1.9779 -1.03962e-20)
(3.06931 -2.11319 3.84888e-21)
(3.79971 -1.63429 0)
(3.53014 -1.81545 1.53498e-21)
(4.03162 -1.44287 -1.87684e-20)
(3.46464 -3.06418 -3.36046e-21)
(3.614 -3.08349 -1.38623e-26)
(3.33069 -2.77976 2.59421e-21)
(3.87785 -3.11686 0)
(3.13981 -2.23441 0)
(4.33647 -2.96583 0)
(3.03262 -1.23135 -6.07839e-22)
(2.93886 -1.4648 2.9739e-23)
(4.90916 -2.51923 -8.63543e-20)
(5.82074 -1.43514 2.1753e-20)
(5.51658 -1.62378 9.36763e-20)
(4.37045 -1.31899 -6.84956e-21)
(4.22758 -1.23655 1.67044e-20)
(3.52779 -3.11158 -1.61324e-26)
(4.86242 -1.36182 -2.86838e-22)
(4.67236 -1.42233 -3.6367e-21)
(5.39791 -0.891033 -9.80188e-21)
(5.19108 -1.23921 0)
(5.73461 0.154518 6.29195e-27)
(5.65525 -0.454697 1.14776e-20)
(5.66421 1.28103 0)
(5.78439 0.728898 0)
(5.26184 1.88093 -6.37373e-23)
(5.51622 1.64651 0)
(4.71121 1.85735 0)
(4.9972 1.92587 0)
(4.1779 1.47224 -5.75485e-23)
(4.42023 1.68827 0)
(3.74552 0.999824 -4.77303e-23)
(3.92247 1.241 0)
(3.43622 0.479712 0)
(3.55428 0.749795 0)
(3.26751 -0.127951 -8.21381e-24)
(3.32292 0.189455 0)
(3.3235 -0.775347 9.65911e-24)
(3.26628 -0.45611 0)
(3.64464 -1.24043 -5.42144e-23)
(3.46562 -1.04108 3.22019e-27)
(4.09318 -1.45236 -1.35934e-23)
(3.87669 -1.36292 0)
(4.5738 -1.63733 2.12845e-21)
(4.33409 -1.54207 -3.27487e-21)
(5.29815 -1.73897 -1.32807e-20)
(4.90996 -1.72527 3.92275e-22)
(5.97931 -1.22229 2.67661e-20)
(5.71492 -1.61408 -1.09235e-20)
(3.67256 -1.91547 -5.04033e-24)
(3.14587 -1.00128 5.8432e-22)
(3.39456 -1.4936 0)
(4.25502 -2.68906 -1.94999e-22)
(3.95182 -2.32078 -1.6952e-22)
(4.82442 -3.14995 -1.86766e-21)
(4.53964 -2.99559 -1.59729e-22)
(5.3128 -2.63966 9.41126e-23)
(5.0895 -3.05638 -1.47252e-21)
(5.504 -0.763373 0)
(5.46277 -1.8511 0)
(5.26328 1.35438 2.64405e-22)
(5.43216 0.384623 -3.40738e-26)
(4.79227 2.32208 1.92448e-26)
(5.04423 1.99836 -2.03743e-26)
(4.30832 2.29019 2.33742e-23)
(4.54059 2.39472 0)
(3.88852 1.91603 0)
(4.10387 2.10184 0)
(3.44763 1.57651 -2.84902e-23)
(3.65561 1.76014 0)
(3.14961 0.944485 0)
(3.26207 1.31512 0)
(3.05885 -0.00454449 -4.66917e-23)
(3.0656 0.498871 0)
(3.17006 -0.974842 9.04643e-23)
(3.07455 -0.507502 -2.51562e-22)
(3.46328 -1.71907 3.37689e-21)
(3.27013 -1.38484 0)
(3.75038 -2.21478 -4.43863e-20)
(3.56917 -1.99755 1.00567e-20)
(3.81503 -2.36341 -2.14067e-20)
(2.83874 -2.43265 0)
(3.4353 -2.4856 -6.43289e-20)
(3.10021 -2.4994 7.29816e-21)
(2.656 -2.24929 0)
(2.69488 -2.37554 0)
(2.79299 -2.03663 -7.36387e-21)
(2.68255 -2.14835 -2.97385e-27)
(3.16215 -1.7718 1.1375e-21)
(2.96369 -1.90898 1.0415e-20)
(3.57492 -1.43566 0)
(3.37278 -1.61284 5.11223e-21)
(2.80604 -0.592352 -6.55091e-24)
(2.94058 -0.408681 -1.34352e-21)
(5.87673 -0.467675 -7.09043e-20)
(6.02353 -0.470502 -6.12789e-20)
(3.96324 -1.06543 2.48549e-20)
(3.76645 -1.25119 -1.18666e-20)
(3.33962 -2.95231 -2.9011e-25)
(3.63491 -3.13553 0)
(3.10965 -2.48887 0)
(3.95663 -3.03294 -7.94829e-25)
(2.85467 -1.72571 -2.47843e-23)
(4.44225 -2.615 -3.60445e-20)
(2.69822 -0.755815 2.02775e-23)
(5.0611 -1.74588 0)
(2.7857 0.265848 -7.94798e-21)
(2.66831 0.149234 5.17286e-23)
(5.58683 -0.481296 -1.36675e-19)
(5.78314 0.586461 6.95382e-20)
(5.70972 0.798658 4.39079e-20)
(2.87673 0.377218 1.12491e-20)
(2.75217 0.891927 7.9711e-21)
(2.91601 0.811083 1.30951e-20)
(5.36338 1.61993 9.43343e-21)
(5.89128 0.320926 -2.80367e-21)
(5.44927 1.14125 4.60778e-21)
(4.12118 -0.896054 1.54439e-20)
(3.85639 -0.926962 0)
(4.00149 -0.770579 -1.84073e-20)
(3.46766 -3.08913 -2.26448e-26)
(4.5078 -1.11007 2.84897e-21)
(4.35155 -1.04733 2.47796e-20)
(5.00079 -1.11102 3.71747e-21)
(4.80065 -1.2021 -2.81632e-21)
(5.53011 -0.657276 0)
(5.32139 -1.00145 0)
(5.86671 0.22182 0)
(5.78512 -0.307059 0)
(5.7784 1.13431 0)
(5.90841 0.668605 0)
(5.33826 1.6059 0)
(5.61332 1.41569 0)
(4.76656 1.5533 -1.07398e-27)
(5.06702 1.63038 1.11569e-27)
(4.24861 1.21172 3.48076e-23)
(4.49241 1.4112 4.47745e-27)
(3.84241 0.808764 4.77302e-23)
(4.01596 1.03334 0)
(3.54402 0.35937 0)
(3.65604 0.611354 0)
(3.39012 -0.139023 -5.26133e-24)
(3.42308 0.129471 0)
(3.48501 -0.605845 5.66951e-24)
(3.39247 -0.37552 0)
(3.81622 -0.936663 5.42066e-23)
(3.63153 -0.783101 0)
(4.21527 -1.21057 9.76357e-23)
(4.0176 -1.07476 3.61205e-27)
(4.71103 -1.39557 3.45164e-21)
(4.45306 -1.33067 0)
(5.31573 -1.35567 -1.18639e-21)
(5.01992 -1.41274 -4.22868e-21)
(5.90613 -0.98005 -1.02056e-21)
(5.63314 -1.24086 9.93893e-22)
(6.05088 -0.463235 4.95744e-21)
(3.26472 -0.764239 6.63143e-21)
(3.01723 -0.200603 -1.81174e-20)
(3.78777 -1.6474 2.24385e-23)
(3.51835 -1.2447 8.37709e-22)
(4.37168 -2.35732 1.9516e-21)
(4.06123 -2.01568 -1.98146e-21)
(5.06582 -2.80385 -2.02701e-23)
(4.71922 -2.6385 1.62191e-22)
(5.68862 -2.42445 -9.40425e-23)
(5.40776 -2.76384 -3.39545e-26)
(5.96764 -0.759222 0)
(5.88548 -1.73324 0)
(5.70674 1.161 -4.84516e-26)
(5.89868 0.278932 5.128e-26)
(5.10996 2.0302 0)
(5.42558 1.74484 0)
(4.47038 2.02984 2.42493e-23)
(4.77281 2.10088 0)
(3.99647 1.69858 0)
(4.2139 1.87327 0)
(3.58013 1.39201 2.84903e-23)
(3.77422 1.54632 0)
(3.3056 0.856845 0)
(3.39507 1.17293 0)
(3.2547 0.00823313 -1.14875e-23)
(3.22116 0.461139 1.35495e-26)
(3.39425 -0.886441 -8.79284e-23)
(3.25835 -0.449185 0)
(3.66854 -1.60769 0)
(3.47459 -1.28348 -6.35164e-24)
(4.01574 -2.10126 1.29328e-20)
(3.8335 -1.87911 -2.17493e-23)
(4.22075 -2.22664 4.7971e-20)
(3.43068 -2.28697 -1.70405e-19)
(3.9181 -2.22327 8.66612e-20)
(2.74564 -2.19091 0)
(3.04945 -2.31134 0)
(2.50003 -1.97933 -2.589e-24)
(2.55779 -2.11669 -5.75658e-27)
(2.64024 -1.74051 -1.03113e-24)
(2.53328 -1.85998 -2.52049e-27)
(3.00027 -1.50695 7.01967e-22)
(2.80354 -1.62323 4.86439e-28)
(3.46413 -1.23485 1.25015e-20)
(3.22275 -1.37449 -3.72721e-21)
(3.67611 -1.08616 2.63826e-21)
(3.14606 -2.72674 5.23202e-25)
(3.61135 -3.01394 -1.48861e-25)
(2.85646 -1.9759 0)
(3.97192 -2.62572 8.88483e-25)
(2.61786 -0.965593 4.51926e-23)
(4.50829 -1.77098 3.61126e-20)
(2.56162 0.0940249 -8.38742e-23)
(5.12375 -0.500893 8.86334e-21)
(2.63898 0.891091 -7.84498e-24)
(5.49806 0.931699 0)
(3.13935 1.04243 -1.48116e-20)
(2.87993 1.2806 0)
(5.42413 1.95883 3.22045e-20)
(4.8756 1.69611 5.46569e-20)
(4.89379 2.24599 -9.20523e-21)
(3.48357 0.815852 -2.66679e-22)
(3.4093 1.17963 -2.23757e-20)
(3.68737 1.00906 -2.38299e-22)
(4.40192 1.78178 1.3868e-20)
(5.09711 1.18402 6.60029e-20)
(4.65645 1.3261 8.34498e-20)
(3.66016 -0.713869 0)
(3.828 -0.615423 -7.09299e-20)
(4.21202 -0.721429 3.11179e-20)
(4.11996 -0.602143 -3.26293e-20)
(3.34098 -2.90493 1.34557e-25)
(4.57656 -0.878278 -1.20413e-20)
(4.42125 -0.850392 -1.2542e-20)
(5.05452 -0.832754 6.7112e-22)
(4.83785 -0.95346 -4.14461e-21)
(5.55414 -0.432607 8.21393e-26)
(5.34222 -0.749077 -2.41278e-27)
(5.84995 0.29007 0)
(5.7729 -0.169703 0)
(5.7562 1.0052 0)
(5.88227 0.613133 0)
(5.3344 1.34989 1.25995e-23)
(5.6039 1.17829 0)
(4.78642 1.28541 0)
(5.08618 1.32774 0)
(4.28529 0.980679 0)
(4.53614 1.14503 0)
(3.88216 0.615535 0)
(4.06826 0.826687 0)
(3.61114 0.221946 0)
(3.71258 0.458665 0)
(3.54103 -0.174232 6.13657e-23)
(3.53245 0.0558972 0)
(3.69756 -0.564408 2.39731e-24)
(3.58741 -0.34842 1.63072e-26)
(3.96028 -0.92008 0)
(3.8256 -0.743231 0)
(4.27531 -1.1014 6.62175e-24)
(4.11154 -1.03947 -3.612e-27)
(4.67932 -1.12809 4.22583e-23)
(4.47589 -1.12732 1.28957e-26)
(5.15858 -1.0761 4.7147e-21)
(4.9142 -1.13122 4.52049e-24)
(5.6935 -0.723744 -2.07666e-21)
(5.43826 -0.961389 -2.73248e-21)
(5.84542 0.152595 -1.37107e-20)
(5.87475 -0.364356 9.52227e-21)
(5.56558 0.724012 -7.10347e-20)
(3.06973 0.387154 1.82814e-21)
(3.23496 0.635853 -2.92909e-22)
(3.30085 -0.484121 -2.19768e-22)
(3.09365 -0.00246694 0)
(3.90777 -1.36716 -2.2184e-23)
(3.59928 -0.950247 -8.48376e-22)
(4.52637 -2.03307 0)
(4.21995 -1.72059 0)
(5.22506 -2.44332 1.78618e-23)
(4.87124 -2.28495 0)
(5.89194 -2.17523 0)
(5.57665 -2.4413 0)
(6.24333 -0.754342 0)
(6.12366 -1.59625 0)
(5.97849 0.945328 8.38636e-23)
(6.17589 0.159 0)
(5.31919 1.71585 0)
(5.65431 1.46325 0)
(4.61813 1.74635 9.75111e-24)
(4.93953 1.78315 0)
(4.104 1.48989 -3.6866e-23)
(4.31615 1.63777 0)
(3.70628 1.21534 -5.13963e-23)
(3.8797 1.34788 2.92223e-27)
(3.43416 0.789481 -5.99148e-23)
(3.52152 1.03716 -2.8173e-26)
(3.4053 0.0506097 -6.94898e-24)
(3.36913 0.43839 0)
(3.56827 -0.774046 0)
(3.45613 -0.383689 0)
(3.85785 -1.46815 0)
(3.71357 -1.14997 6.36231e-24)
(4.26215 -1.9435 -4.84055e-21)
(4.09993 -1.71751 2.13598e-23)
(4.55086 -2.04497 2.42201e-21)
(4.56665 -1.76945 0)
(5.06076 -1.60629 -2.19825e-19)
(3.4635 -1.90421 9.78395e-20)
(4.01798 -1.86667 3.51292e-20)
(2.64592 -1.79945 1.0293e-23)
(2.98771 -1.9064 2.06884e-26)
(2.36652 -1.59883 5.40002e-24)
(2.44028 -1.72261 1.28979e-26)
(2.51481 -1.36825 -4.54954e-27)
(2.40025 -1.4837 4.62575e-27)
(2.88557 -1.16813 2.07401e-21)
(2.68674 -1.26187 -1.73394e-27)
(3.279 -0.948214 -1.2453e-20)
(3.08137 -1.06506 -2.11319e-21)
(3.47015 -0.826692 -1.51509e-20)
(2.93454 -2.21607 0)
(3.5439 -2.54369 5.39608e-26)
(2.62956 -1.16179 0)
(3.94718 -1.74384 -5.38036e-24)
(2.47624 0.00301433 -5.45932e-23)
(4.51181 -0.465549 -8.43287e-23)
(2.5491 0.960301 6.88044e-23)
(5.04579 0.984169 3.01567e-22)
(2.75294 1.45062 -2.54674e-23)
(5.32469 2.14807 4.58984e-22)
(3.13578 1.43218 0)
(5.13817 2.61766 1.19672e-20)
(3.86849 1.18857 -2.46069e-20)
(3.61055 1.35088 4.13458e-20)
(4.49632 2.27664 6.65267e-22)
(4.35083 1.2148 -8.88001e-20)
(4.04965 1.5365 -7.00737e-20)
(3.95244 -0.532376 9.35461e-22)
(3.1812 -2.40963 -3.27814e-25)
(4.27626 -0.537845 -2.97181e-20)
(4.02398 -0.317023 2.18819e-19)
(4.1695 -0.52112 -1.33918e-19)
(4.61684 -0.691362 2.26168e-21)
(4.4169 -0.709487 2.74923e-20)
(5.05707 -0.624944 -6.70305e-22)
(4.78362 -0.736992 2.49498e-21)
(5.48668 -0.276142 -1.95515e-21)
(5.22121 -0.49992 1.57773e-21)
(5.73789 0.288587 -1.07789e-23)
(5.59016 0.000328892 1.44726e-27)
(5.65153 0.82825 -1.33428e-23)
(5.69355 0.6074 -1.28597e-27)
(5.25858 1.06535 1.39307e-23)
(5.45293 1.0248 0)
(4.73043 0.984299 0)
(4.98442 1.09301 0)
(4.23544 0.727992 -5.26788e-23)
(4.46822 0.911573 0)
(3.85634 0.435682 2.76735e-26)
(4.03022 0.632007 -2.87292e-26)
(3.64963 0.159837 2.99094e-26)
(3.73155 0.342876 -3.10412e-26)
(3.62324 -0.0996882 -3.14771e-26)
(3.62043 0.0649985 3.26588e-26)
(3.68781 -0.388094 -1.32838e-22)
(3.65603 -0.22147 3.34656e-26)
(3.81812 -0.65016 6.69795e-23)
(3.74622 -0.526013 3.32818e-26)
(4.09805 -0.810881 5.00739e-24)
(3.94597 -0.741731 0)
(4.49964 -0.911595 6.12411e-23)
(4.2907 -0.879677 3.05317e-26)
(4.97938 -0.838115 4.69028e-23)
(4.73626 -0.907714 0)
(5.44127 -0.519075 3.82306e-21)
(5.22228 -0.722261 0)
(5.61818 0.11713 1.75036e-20)
(5.5915 -0.236266 -1.91487e-20)
(5.18125 0.785177 0)
(5.46824 0.474841 2.56901e-21)
(4.55765 0.948808 9.49934e-20)
(4.83492 0.956418 -9.08038e-20)
(3.43696 0.648233 2.02326e-21)
(3.61405 0.985758 1.58556e-20)
(3.50605 0.844478 -1.53395e-20)
(3.24833 0.250862 5.83621e-22)
(3.35616 0.442863 6.5469e-23)
(3.28165 -0.267819 0)
(3.19925 0.03851 0)
(3.8361 -1.00455 -3.29848e-23)
(3.52011 -0.627037 0)
(4.56567 -1.67058 0)
(4.20106 -1.35845 0)
(5.31836 -2.08643 2.40595e-24)
(4.94175 -1.92485 0)
(5.99362 -1.90902 0)
(5.67159 -2.11217 0)
(6.30865 -0.727002 0)
(6.20365 -1.43624 0)
(6.02794 0.707318 -5.48547e-23)
(6.22433 0.0419891 0)
(5.39657 1.36466 0)
(5.70187 1.14139 0)
(4.75142 1.42724 -1.42096e-26)
(5.04153 1.4275 1.50485e-26)
(4.22722 1.27091 3.68283e-23)
(4.43758 1.366 3.99173e-26)
(3.83676 1.03863 1.10413e-22)
(3.99666 1.15239 5.2019e-26)
(3.55174 0.710394 -5.57252e-24)
(3.65013 0.901507 0)
(3.51857 0.0950641 6.51931e-23)
(3.49505 0.432968 -6.90889e-26)
(3.71208 -0.655167 6.5309e-26)
(3.61186 -0.279602 -6.9273e-26)
(4.04108 -1.29885 0)
(3.90448 -0.983347 0)
(4.49553 -1.72902 -2.7556e-21)
(4.29478 -1.52018 3.83453e-21)
(4.99865 -1.84259 0)
(4.76626 -1.82315 2.24807e-22)
(5.20409 -1.77251 0)
(4.61305 -1.30556 0)
(5.54737 -1.05898 -1.43432e-20)
(5.14696 -1.18383 8.5932e-20)
(3.46649 -1.35339 -1.35542e-20)
(4.03426 -1.36315 -2.75497e-20)
(2.60249 -1.23946 1.06716e-24)
(2.97249 -1.31658 0)
(2.28713 -1.08 -2.81803e-24)
(2.37753 -1.17127 0)
(2.41894 -0.912415 0)
(2.30944 -0.996511 0)
(2.79085 -0.760388 -2.60055e-25)
(2.58457 -0.829951 0)
(3.26037 -0.656597 0)
(3.02397 -0.706576 0)
(3.62887 -0.49369 0)
(3.46585 -0.585295 -8.71237e-21)
(3.93068 -0.334893 0)
(3.77427 -0.397432 1.87297e-20)
(4.0945 1.29304 4.55502e-20)
(3.77567 1.08842 0)
(4.188 1.03113 5.64402e-21)
(4.37625 0.848067 6.18506e-21)
(2.74902 -1.35207 6.46713e-24)
(3.44257 -1.64623 0)
(5.62836 -1.31488 0)
(2.48298 -0.0826486 8.63972e-24)
(3.88377 -0.417713 4.0096e-24)
(4.09677 -0.295297 5.2028e-20)
(3.87863 -0.231062 0)
(3.98857 -0.192396 0)
(2.47851 1.02362 2.776e-23)
(4.44335 1.07877 8.2957e-23)
(2.67865 1.64825 0)
(4.88506 2.28805 -4.59025e-22)
(3.01632 1.71373 0)
(5.10728 2.8277 0)
(3.36827 1.52908 0)
(4.87972 2.67874 -1.05421e-20)
(3.81386 1.49384 -4.47242e-21)
(4.10897 1.94466 1.84161e-21)
(3.95183 1.19066 0)
(4.30973 1.35775 -2.18186e-20)
(3.82448 1.22185 -4.95883e-20)
(4.07611 0.919506 9.76765e-20)
(4.24785 0.745578 -9.70749e-20)
(3.01938 -1.5138 2.32035e-25)
(4.30645 -0.498094 1.53755e-20)
(4.18997 -0.374597 0)
(4.60149 -0.56208 -2.79642e-21)
(4.42512 -0.515999 -6.81075e-21)
(4.95249 -0.444281 0)
(4.75789 -0.504345 3.18407e-21)
(5.26364 -0.117892 0)
(5.10529 -0.298122 4.09597e-22)
(5.44498 0.345875 1.07775e-23)
(5.36809 0.112073 0)
(5.37738 0.717084 4.07998e-23)
(5.43808 0.554043 0)
(5.04448 0.844844 8.67636e-24)
(5.22666 0.816709 0)
(4.58299 0.73811 -4.58013e-23)
(4.81204 0.823259 -4.19351e-26)
(4.15999 0.527491 5.26276e-23)
(4.35822 0.658144 5.23668e-26)
(3.8849 0.321191 -5.95631e-23)
(4.01051 0.450077 5.53381e-26)
(3.77866 0.12674 -6.11148e-26)
(3.82783 0.255358 5.95248e-26)
(3.77933 -0.121324 -6.64361e-23)
(3.78548 0.0349323 6.69168e-26)
(3.85482 -0.432592 1.355e-22)
(3.8146 -0.26329 0)
(4.06871 -0.663511 1.21475e-24)
(3.95051 -0.562795 6.96892e-26)
(4.35494 -0.732684 -1.31932e-22)
(4.21605 -0.712799 0)
(4.6258 -0.717773 -6.12095e-23)
(4.49141 -0.730691 -6.48679e-26)
(4.90631 -0.624663 0)
(4.76301 -0.687145 0)
(5.18351 -0.369685 8.17359e-21)
(5.05049 -0.519582 -8.54612e-21)
(5.29395 0.0738035 0)
(5.27128 -0.174859 -4.51552e-27)
(5.05511 0.568117 3.55947e-21)
(5.22088 0.34108 -5.3195e-21)
(4.59195 0.712841 4.84024e-20)
(4.82137 0.695355 -4.8304e-20)
(4.26515 0.579066 0)
(4.40511 0.656932 -6.15895e-21)
(3.89017 0.836629 8.82978e-21)
(4.22659 0.926946 -6.31851e-22)
(4.06366 0.887947 -1.53881e-20)
(3.5969 0.601743 1.89032e-20)
(3.7273 0.749136 -8.70002e-21)
(3.45774 0.202243 9.27327e-21)
(3.51862 0.40855 -2.85999e-20)
(3.40099 -0.172757 -3.73278e-23)
(3.40831 0.023276 3.11435e-22)
(3.71998 -0.671167 3.29838e-23)
(3.50474 -0.40086 0)
(4.40837 -1.24531 1.21083e-25)
(4.03382 -0.963598 -1.27979e-25)
(5.1973 -1.67311 -8.18302e-26)
(4.80199 -1.49381 8.65065e-26)
(5.82275 -1.62938 -1.23814e-23)
(5.53465 -1.75165 0)
(6.10598 -0.702418 -9.83925e-27)
(6.00114 -1.27251 1.04088e-26)
(5.90492 0.483169 -2.89944e-23)
(6.05491 -0.0768913 -1.56448e-26)
(5.34655 1.08425 0)
(5.61977 0.867135 0)
(4.78922 1.16343 4.42069e-23)
(5.0343 1.15322 -2.35637e-27)
(4.32131 1.06576 -9.69813e-26)
(4.51376 1.12725 1.02726e-25)
(3.96293 0.872949 5.29373e-24)
(4.11315 0.973746 0)
(3.6713 0.622908 6.5513e-23)
(3.79052 0.771549 0)
(3.6065 0.14125 -7.09833e-23)
(3.60542 0.431961 0)
(3.81783 -0.517572 1.35673e-25)
(3.70641 -0.151823 -1.43864e-25)
(4.18821 -1.10326 0)
(4.01668 -0.789282 0)
(4.65647 -1.49342 -2.5426e-24)
(4.42193 -1.2986 5.42916e-21)
(5.19599 -1.57778 -1.94278e-21)
(4.91605 -1.57688 -4.50593e-21)
(5.42221 -1.48631 0)
(5.61567 -0.594964 2.35649e-20)
(5.89974 -0.468902 -4.35696e-20)
(4.70076 -0.668524 0)
(5.23649 -0.620142 -2.31474e-20)
(3.49086 -0.649907 5.91593e-23)
(4.09998 -0.669779 0)
(2.54699 -0.557798 -1.12796e-23)
(2.95278 -0.60548 -1.02606e-25)
(2.2192 -0.475751 0)
(2.30829 -0.51849 0)
(2.37008 -0.403263 0)
(2.2489 -0.438737 0)
(2.75093 -0.322039 2.58554e-25)
(2.55018 -0.36275 0)
(3.13953 -0.270284 0)
(2.94616 -0.290831 0)
(3.54695 -0.240308 -1.8165e-20)
(3.34849 -0.255821 8.41815e-21)
(3.72226 -0.234261 3.18248e-22)
(4.17684 1.26757 0)
(4.38777 0.947806 1.02401e-20)
(4.10756 0.665357 7.31509e-20)
(4.13645 0.498246 -9.09502e-20)
(2.61908 -0.176914 -8.37819e-25)
(3.33509 -0.34956 2.02579e-24)
(4.15755 -0.180198 -8.18884e-20)
(4.08736 -0.136124 5.3118e-20)
(2.46255 1.08965 -9.36485e-23)
(3.81677 1.12063 0)
(2.62035 1.8755 -1.29096e-22)
(4.32091 2.42879 -2.25631e-22)
(2.95971 2.01122 0)
(4.64109 3.06248 0)
(3.32602 1.81618 -1.49361e-22)
(4.85436 2.93044 -3.80732e-22)
(3.56241 1.67104 0)
(4.54108 2.40879 -1.24685e-21)
(4.04697 1.55136 -1.33513e-20)
(3.72322 1.53137 0)
(4.48259 1.41911 1.12309e-20)
(3.68333 1.04823 4.38167e-20)
(4.53578 0.959783 -2.34981e-20)
(4.43015 1.2835 1.78871e-20)
(3.96778 0.850747 -7.3453e-20)
(4.41359 0.887749 -7.76673e-21)
(4.57583 0.839376 -6.30271e-21)
(4.68374 0.962184 2.93188e-20)
(6.01216 -0.00265718 6.61862e-20)
(3.95755 0.53556 1.57323e-21)
(4.01774 0.382896 2.00088e-19)
(2.89372 -0.268435 0)
(4.35078 -0.319983 -6.75227e-21)
(4.2063 -0.335606 2.73821e-20)
(4.61475 -0.366053 0)
(4.42272 -0.410176 0)
(4.8901 -0.28417 0)
(4.70214 -0.367821 0)
(5.09249 -0.0212176 0)
(4.96328 -0.177344 0)
(5.14627 0.354391 3.53611e-23)
(5.11043 0.178561 2.30102e-27)
(5.03906 0.621097 -2.75188e-23)
(5.09569 0.529105 6.53909e-26)
(4.77489 0.662296 -3.52772e-23)
(4.9139 0.681883 7.43569e-26)
(4.43281 0.545762 4.57531e-23)
(4.60045 0.629072 9.09956e-26)
(4.14279 0.396043 0)
(4.27523 0.485713 -3.26357e-27)
(3.96859 0.268372 5.95057e-23)
(4.04809 0.349235 3.61687e-27)
(3.88212 0.124487 0)
(3.92969 0.221629 3.9043e-27)
(3.84808 -0.0781159 3.87489e-25)
(3.8697 0.0449358 0)
(3.8965 -0.296106 -1.35742e-22)
(3.86733 -0.182562 0)
(4.04324 -0.464289 -6.84264e-23)
(3.9627 -0.382835 1.37551e-25)
(4.23413 -0.598168 1.35699e-22)