/*--------------------------------*- C++ -*----------------------------------*\
  =========                 |
  \\      /  F ield         | OpenFOAM: The Open Source CFD Toolbox
   \\    /   O peration     | Website:  https://openfoam.org
    \\  /    A nd           | Version:  10
     \\/     M anipulation  |
\*---------------------------------------------------------------------------*/
FoamFile
{
    format      ascii;
    class       surfaceScalarField;
    location    "98";
    object      phi;
}
// * * * * * * * * * * * * * * * * * * * * * * * * * * * * * * * * * * * * * //

dimensions      [0 3 -1 0 0 0 0];

internalField   nonuniform List<scalar> 
57492
(
0.000235064
-1.05688e-05
-4.35914e-05
-0.000180904
-0.000161974
0.000266701
0.000130337
-2.87408e-05
8.07931e-05
0.000323134
-0.000375186
0.00315992
0.00338638
-0.000272147
-0.00627415
-0.00862825
0.00404525
0.00774292
0.000628173
-0.000576512
-0.000302669
0.000251007
-0.0011163
0.000187416
-6.18718e-05
0.000990754
0.00024225
-0.000730375
0.00159331
-0.00463278
0.00442496
-0.00138548
0.00134464
0.00424831
-0.00399964
-0.000610189
-0.000205979
0.000682465
0.000133702
-0.000122109
-0.000830321
0.000342241
0.000231288
-0.000324492
-2.89056e-05
-5.31169e-05
7.84262e-05
0.00150267
-0.00145414
-0.000543648
0.000495114
0.000219314
0.0012137
6.96609e-05
-0.000324955
0.000788813
0.00333521
-0.00379907
-0.000661072
0.00326111
-0.00292499
0.000135381
-0.0002884
0.000153019
-0.0016625
0.00121935
0.000578527
-0.0046597
0.000189038
0.00333533
0.00113533
0.00122871
-0.00472988
-0.00115854
-0.000132849
-0.000195764
-0.000700887
0.0010295
-0.000286472
0.000175614
-2.19908e-05
-0.00254192
0.00215779
0.000733275
-0.000349137
-0.00304566
0.000925686
-0.000421951
-0.00112665
0.000595784
0.000456397
7.44695e-05
-0.000778295
-0.000361884
1.35285e-05
-0.000366953
-0.00113284
0.00128957
0.000210215
-0.000415676
0.00011627
-6.75468e-05
0.000654011
-0.000434755
-0.000405331
0.000186075
-0.000563609
0.000456684
0.000760936
-0.000773103
-0.00148353
0.00144731
0.000809317
-0.00177353
-0.000419808
0.00142024
-0.000707265
-0.000151959
0.000859224
-0.000271187
-0.000436078
-0.00137455
0.00189185
-0.00078848
0.00020303
-0.00076735
-0.000810234
-0.000492368
0.000679784
-0.000233047
-0.0019019
0.00115086
0.000751036
-0.0043218
0.0024199
0.00486198
-0.000799709
0.000330939
-0.00439321
0.00357304
-9.81305e-05
0.00138707
-0.000707327
0.00488107
-0.00497345
0.00123036
0.000268278
-0.00125639
0.00124289
-7.44011e-05
0.00150937
-0.000566738
-0.00112505
0.000182417
0.00168956
8.80912e-05
0.000761758
-0.000475377
0.000956505
0.000751478
0.00100103
-0.00475751
-0.000631921
0.000542293
0.00484714
-0.00489081
-0.000295357
0.000428654
0.00122096
0.00451231
-0.00443713
-0.00129614
0.000892857
-0.00430468
-0.00277213
0.00252566
0.00253001
-0.00228354
-0.000269955
0.00319931
-0.00570149
1.47994e-05
-0.000116347
-7.98018e-07
0.000102346
-0.000320303
1.06103e-05
6.68315e-05
-0.000135607
-0.000251527
-5.6161e-05
6.6454e-06
1.10902e-05
-1.18882e-05
8.82357e-06
2.26665e-06
0.00729791
0.00378489
-0.0058757
-0.00520709
0.00233723
-0.000702025
0.00566271
-0.00784827
0.00309926
0.00708624
0.00229341
-0.00635679
0.00162384
-0.00286522
0.00213311
-0.000891734
0.0023556
-0.00291377
0.00218202
-2.97603e-05
2.17422e-05
-2.55062e-06
-6.99678e-05
-3.38402e-06
-0.000221995
-2.88773e-05
-0.00293742
0.00534597
0.00339221
-0.00580076
0.00436231
-0.00494414
0.00298384
0.00474567
-0.00238354
0.0100781
-0.00147714
-0.00179183
-0.00680911
0.00224564
0.00541466
0.00241778
0.00160791
-0.00500088
0.00563861
4.67541e-05
-7.54949e-05
0.000127547
0.000815398
0.0017563
-0.000625875
-0.00194583
0.001039
9.95296e-05
-9.54446e-05
2.6209e-05
6.92356e-05
-0.00029734
0.000201896
-0.00660231
0.00342366
-0.00201293
0.00519159
-0.00574022
-0.00249427
0.00163218
-0.00262448
0.00208727
-0.005203
0.00195088
-2.66238e-05
-0.000943857
-0.000980399
-0.000711257
0.00222648
0.000435658
-0.000834192
-8.52103e-05
0.000208146
-0.000771175
-8.96408e-05
-0.000271364
-0.00144367
-0.000237906
-6.23329e-05
1.89997e-05
0.000281239
-0.000214794
-0.000521094
0.000497983
0.000137681
1.69408e-05
-0.000369416
7.95244e-05
-4.17672e-06
0.000101127
-2.60257e-06
-0.000640826
0.000369462
8.3452e-05
-0.000724278
0.000172128
-0.000469468
0.00427365
0.0033316
-0.000178534
0.00212861
-0.00648321
-1.04244e-05
0.00226405
-0.00179751
-0.000456112
0.000291643
0.00316423
-0.0034663
0.0032678
0.00183733
-0.000496427
-0.00460871
-0.00103471
0.000503622
0.0037989
0.00398444
-0.00318183
-0.0016431
-0.00303441
0.00125228
0.00342523
-0.00118408
0.00350462
-0.00396364
0.000424297
-0.00464279
8.22637e-05
3.37138e-05
-4.56693e-06
0.00104246
-0.000614918
-0.000589514
7.61661e-05
-0.000322603
0.00128889
0.000362016
-1.91491e-05
-0.000187104
0.000331905
6.83219e-05
-0.000213124
0.000991921
-0.00121579
3.67662e-05
-0.000357774
0.000830967
0.000518728
-0.000125168
9.92993e-05
-0.00611051
0.00365207
0.00588209
0.0077216
-0.00200485
-0.00821103
-0.00285387
0.00446496
-9.70666e-05
-0.000873768
-0.000162002
-0.000521861
9.11803e-06
4.77243e-05
-0.00013006
3.74905e-05
4.48454e-05
-0.000129921
0.00014426
3.33854e-05
-0.000298927
3.89459e-05
-0.000265109
-0.000312548
5.57958e-05
-0.000803155
-0.000335723
-0.000709904
-0.000761577
0.000868769
0.000602712
2.85926e-05
0.000377203
-0.0011157
-0.000992369
0.000259384
-0.00293265
0.0013301
-5.99508e-05
-0.00350112
0.000809183
-0.000240712
0.000875879
-0.00334741
0.00256426
-9.27359e-05
0.000678929
-0.00272861
0.00292556
0.0025281
-0.0101973
-0.00176474
0.00218094
0.00302036
-0.00345501
0.00206054
-0.000320654
2.76611e-07
1.66642e-05
-3.49277e-06
3.76936e-06
0.00028408
-4.12758e-05
0.00557612
-0.00340837
-0.0024957
0.000327959
0.00482837
4.04226e-05
0.00463655
0.000169964
-0.00507647
0.00138033
0.00329243
-3.62163e-05
0.000551665
-0.00290817
0.00373684
5.31599e-06
-8.80876e-06
0.000759132
-0.00211935
-0.00284575
0.0012313
0.00308245
0.000737593
-4.20382e-05
-0.000775465
7.99106e-05
0.000246108
-7.21246e-05
-0.000950247
0.000213348
0.00119358
0.000174305
-0.000878445
-0.000134945
7.61392e-05
-7.00356e-06
1.03188e-05
-2.98336e-06
-3.31903e-07
1.09287e-05
-2.55562e-07
-1.76767e-05
4.67713e-05
-0.000103147
6.73042e-05
-0.00171384
0.00264633
-0.000760365
0.00291514
-0.0037798
-0.000849182
7.77613e-06
-0.00130977
0.00151534
-0.00398851
0.000240832
-0.0027344
-0.00182951
0.000575394
0.00269052
0.00291175
-0.00541323
0.00260586
0.00429227
-0.00420762
0.00224086
-0.00308395
0.00160578
-0.00076269
0.00245614
-0.00302307
0.00280779
0.00436997
0.00187712
0.00500285
-0.000228387
-0.00496831
0.000193841
0.00554416
-0.000656937
0.000115632
0.00552819
-0.000906961
8.67371e-05
-0.00470797
0.00396762
-0.001379
0.00293957
0.00430737
-0.0014063
0.00114331
-0.00404438
0.00127212
0.00438726
-0.001352
-0.00387559
-0.00166768
0.00413697
0.00106885
-0.00369216
-0.00186217
0.00361971
-0.00238058
-0.00323851
0.00215658
0.00346251
-0.00239637
-0.00326653
0.00328231
0.00223614
0.00304528
-0.00147559
-0.00380583
0.00301901
-0.00317923
-0.00259045
0.00261519
0.00299428
-0.00204168
0.0024965
-0.00406839
0.00361444
-0.00102164
-0.00506468
0.00105453
0.00537406
-0.00136392
0.00191115
-0.000262558
0.000988001
-0.0010537
0.00032826
-0.000106497
0.00126672
-0.00142279
-5.28787e-05
0.000304577
0.000110318
-0.000954354
-0.00150107
0.000978733
-1.48973e-07
-1.06589e-07
3.07405e-07
-4.56377e-07
-8.57468e-05
-0.00165334
0.00126371
-0.0014779
-5.6766e-05
0.00144892
3.81831e-05
-0.00154903
3.29479e-05
-0.000248055
0.00151814
0.000273491
-0.00154357
0.00156856
0.000423437
-0.00224005
0.00154107
0.00154563
-2.44787e-06
5.07253e-07
3.56544e-05
-4.74813e-06
2.30026e-06
-4.24089e-06
-5.53299e-06
4.2215e-06
-5.48495e-05
1.02135e-06
-6.55434e-06
5.24285e-06
-4.38601e-05
2.12553e-05
-0.000263867
2.21323e-05
-6.59924e-05
4.33876e-05
5.32166e-05
-5.34446e-06
-0.00017304
-1.69145e-05
7.01311e-05
-2.2259e-05
0.00142814
0.00327755
-0.00420206
0.00132193
-0.0044601
0.0045663
0.00471287
-0.000113391
-0.00118218
-0.00244409
0.00115805
0.00246822
-0.00071034
0.00272146
-0.0031933
0.000157398
-0.00331183
0.00354522
-0.00356015
-8.19104e-06
2.31231e-05
0.00356194
3.51773e-05
-5.19044e-05
-1.90872e-05
-0.00353609
-4.97596e-06
0.00360687
1.90108e-06
-4.68283e-05
0.00368961
5.57362e-05
-0.000138473
2.91002e-05
0.0038002
-0.000139696
0.0037536
-0.00371322
-1.12763e-05
-0.000174632
0.0039969
-2.2067e-05
0.00366682
-8.78531e-05
-0.0035816
-7.58814e-05
-0.00355124
-2.84643e-05
-0.003528
1.19415e-05
-0.00358496
4.87682e-05
-0.00350757
-9.64783e-05
-0.000170724
0.0041897
-2.20747e-05
0.00351232
-1.62224e-05
-1.44356e-05
-0.00348729
-3.43611e-05
-0.00351709
-4.9207e-06
-2.1702e-05
-0.00366914
0.000203556
1.44928e-06
0.00420998
-2.17263e-05
0.00353007
-1.63059e-05
-0.00362639
8.7604e-05
0.00423013
1.46647e-06
-2.16171e-05
1.24176e-06
0.00425004
-2.11483e-05
0.00354743
-1.58885e-05
0.00356477
-1.61001e-05
-1.76386e-05
-0.0036268
-2.4707e-05
-0.00362546
-1.85689e-05
1.34381e-06
0.00426971
-2.10158e-05
0.00358183
-1.57189e-05
2.95156e-06
-0.00360482
-2.49265e-05
-0.00360339
-1.91191e-05
1.23119e-06
0.004289
-2.05177e-05
0.00359903
-1.59721e-05
3.02811e-06
-0.00358251
-2.53363e-05
-0.00358118
-1.91823e-05
1.54915e-06
0.00430783
-2.03787e-05
0.0036162
-1.56152e-05
2.90842e-06
-0.00355995
-2.54677e-05
-0.00355853
-1.9743e-05
1.86822e-06
0.00432582
-1.98593e-05
0.00363397
-1.59013e-05
2.96508e-06
-0.00353711
-2.58066e-05
-0.00353574
-1.98251e-05
3.07776e-06
0.00434246
-1.97176e-05
0.00365261
-1.55614e-05
1.10381e-05
-0.00352227
-2.58837e-05
-0.00350436
-2.03447e-05
5.19511e-06
0.00435644
-1.91797e-05
0.00367367
-1.58641e-05
2.57499e-05
-0.00340038
-0.000147633
-0.00342206
-5.6547e-05
1.00404e-05
0.00436544
-1.90403e-05
0.0036823
1.40386e-06
2.52697e-05
-0.00339428
-3.13693e-05
-0.00337418
-2.26127e-05
1.94137e-05
0.00436453
-1.85008e-05
0.00367208
2.96354e-05
5.07737e-05
-0.00325194
-0.000193123
-0.0032546
-6.87981e-05
0.000188039
0.00419484
-1.83504e-05
0.00379978
6.03453e-05
5.73406e-05
-0.00321464
-9.46333e-05
-0.0031968
-4.64512e-07
0.000167155
0.00390236
0.000125321
0.00387862
8.83071e-05
8.90211e-05
-0.000147922
-0.00315574
-0.00316177
5.39933e-05
1.26168e-05
2.0169e-05
0.00386958
0.00386952
2.17219e-05
-0.00323766
0.00331159
-0.000168562
-0.00323298
-0.000152605
0.000148875
-0.000153351
-0.00315127
5.28013e-05
-0.0030657
-0.00326246
0.00331308
-8.19852e-05
-0.000143988
-0.00321313
0.00323437
-4.71257e-05
-4.76905e-05
-0.00325521
0.00327583
-4.60916e-05
-4.66387e-05
-0.00329608
0.00331617
-4.50161e-05
-4.55878e-05
-0.00333596
0.00358354
-4.40301e-05
-4.44905e-05
-0.00359276
0.00356263
2.51555e-05
-4.3578e-05
-0.00369668
0.00368685
-4.20678e-05
-0.000110934
-0.0035865
0.0035521
-0.000104069
5.35187e-05
-0.0034854
0.00350331
-3.99772e-05
-7.29955e-05
-0.00352083
0.0035382
-3.90997e-05
-3.95961e-05
-0.00355529
0.00357231
-3.81672e-05
-3.8704e-05
-0.00358905
0.00360574
-3.72089e-05
-3.77625e-05
-0.00362217
0.00363855
-3.62397e-05
-3.68041e-05
-0.00365467
0.00367076
-3.52681e-05
-3.58397e-05
-0.0036866
0.00370238
-3.42844e-05
-3.48758e-05
-0.00369636
0.00379857
2.31186e-05
-1.23342e-05
0.00380447
1.4263e-05
-2.2563e-05
5.82245e-05
0.00383392
-1.86742e-05
0.00386563
0.00379725
-0.00371937
-1.75392e-05
-0.00385011
0.00385775
1.4085e-05
3.54469e-05
0.00370333
-0.00367044
-3.14902e-05
1.36042e-05
0.00365444
-0.00363813
-3.18706e-05
-3.18618e-05
0.00362181
-0.00360519
-3.22434e-05
-3.22214e-05
0.00358854
-0.00357157
-3.26867e-05
-3.26218e-05
0.00355456
-0.00353722
-3.3227e-05
-3.31071e-05
0.00351983
-0.00350215
-3.3901e-05
-3.37018e-05
0.00355557
-0.00353223
-3.46193e-05
-3.44319e-05
0.00357299
-0.00351572
-8.57296e-05
-3.51182e-05
0.0034742
-0.00343298
7.55198e-06
-2.95817e-05
0.00345684
-0.00345997
-1.7901e-06
-7.26216e-05
0.00333436
-0.00331452
-3.8403e-05
-3.80102e-05
0.00329453
-0.00327413
-3.9579e-05
-3.91121e-05
0.00325358
-0.00323261
-4.07929e-05
-4.0298e-05
0.00321144
-0.00322593
-4.20482e-05
-4.15196e-05
0.00320574
-0.00323113
-4.34063e-05
-4.28099e-05
0.00318731
-0.00311924
-1.40738e-05
-4.42876e-05
-0.003064
-2.43945e-06
-0.00323427
-0.000152062
0.00383221
3.04882e-05
-3.0604e-05
0.00386968
9.28756e-05
-0.000104323
-0.00305425
4.7628e-05
-0.00301875
0.000131333
-0.000148251
-0.00321735
-0.00312426
-0.00324127
0.00321033
-0.000137618
0.0032563
-0.0032607
-0.000147672
-0.000137572
-0.00319054
0.00321209
-0.000103539
-0.000124198
-0.00323319
0.00325409
-6.80268e-05
-6.87851e-05
-0.00327459
0.00329489
-6.63957e-05
-6.71386e-05
-0.00331482
0.0033346
-6.47889e-05
-6.55202e-05
-0.00335405
0.00337328
-6.32643e-05
-6.39399e-05
-0.00339217
0.00347917
-6.18438e-05
-6.24686e-05
-0.00342929
0.00344761
-6.03877e-05
-6.10519e-05
-0.00356083
0.00351579
-5.90273e-05
-5.97025e-05
-0.003501
0.00351858
-5.75579e-05
-5.82079e-05
-0.00353583
0.00355296
-5.62332e-05
-5.68444e-05
-0.0035698
0.00358657
-5.49335e-05
-5.55416e-05
-0.00360306
0.00361949
-5.36438e-05
-5.42517e-05
-0.00363566
0.00365178
-5.23653e-05
-5.2972e-05
-0.00366765
0.00368348
-5.1099e-05
-5.1705e-05
-0.00369905
0.00371457
-4.9806e-05
-5.04443e-05
-0.00372956
0.00377433
-2.16473e-05
-2.73253e-05
-7.47047e-06
-1.64842e-05
0.00385787
-2.94155e-05
0.00385415
-0.00377781
0.00383011
-2.18151e-05
1.07838e-05
0.00381772
-0.00380337
-2.64867e-07
0.00380201
-1.48894e-05
1.30087e-05
1.39971e-05
0.00384267
0.00386215
0.00378872
-0.00374621
-6.00558e-05
2.07983e-05
0.00369889
-0.00368307
-4.73126e-05
-3.37068e-05
0.00366727
-0.00365117
-4.79709e-05
-4.76681e-05
0.00363506
-0.00361865
-4.86531e-05
-4.83246e-05
0.00360223
-0.00358549
-4.94267e-05
-4.90481e-05
0.00356872
-0.00355163
-5.03145e-05
-4.98758e-05
0.00353451
-0.00351708
-5.13266e-05
-5.08242e-05
0.00349963
-0.00348182
-5.24294e-05
-5.18889e-05
0.0034639
-0.00349597
-5.36644e-05
-5.30316e-05
0.00347122
-0.00340868
-5.49848e-05
-5.43331e-05
0.00342559
-0.00337087
-5.65019e-05
-5.57157e-05
0.00335165
-0.00333203
-5.80209e-05
-5.72359e-05
0.00331229
-0.00329217
-5.97041e-05
-5.88484e-05
0.00327189
-0.00325119
-6.14872e-05
-6.05792e-05
0.00323031
-0.00320898
-6.33775e-05
-6.24065e-05
0.00318742
-0.0031654
-6.54253e-05
-6.43628e-05
0.00314317
-0.00308957
-6.76735e-05
-6.65177e-05
0.00304997
-0.00298709
-1.52488e-05
-4.20471e-05
-0.00326031
-0.00014864
3.40807e-05
-0.000102756
-0.00295008
-0.00294692
-6.092e-06
-0.000170936
-0.00298607
-2.21372e-05
0.00382283
0.00382329
-7.28695e-06
-9.61932e-05
9.061e-05
-0.00321177
-0.000117498
-0.003239
1.19999e-05
-9.85882e-05
-0.00286349
-2.90912e-05
-0.00290583
-0.00320458
0.00385578
-0.00383051
-4.70829e-05
0.0038309
2.74216e-06
3.72695e-05
-1.40308e-05
0.00381943
-8.27031e-07
0.00386139
-0.00323931
0.00329746
-0.000175643
-0.000162437
0.000121072
-0.00319764
0.00329117
7.8756e-06
0.000176492
-0.00347554
-0.000110574
-0.00331623
0.00331184
-0.000143283
-0.000167414
-0.00329026
0.00325801
-0.00010537
-0.000115987
-0.00325439
0.0032416
-9.07493e-05
-0.000120582
-0.00326224
0.00328265
-8.84381e-05
-8.94239e-05
-0.00330266
0.00332247
-8.62077e-05
-8.7145e-05
-0.00334192
0.00336121
-8.40776e-05
-8.49692e-05
-0.00338016
0.00339895
-8.20563e-05
-8.28906e-05
-0.00341741
0.0034357
-8.0136e-05
-8.09254e-05
-0.00345369
0.00347157
-7.82691e-05
-7.90417e-05
-0.0034891
0.00350654
-7.6476e-05
-7.72278e-05
-0.00352374
0.00354086
-7.46769e-05
-7.54065e-05
-0.00355769
0.00357443
-7.29763e-05
-7.36719e-05
-0.00359089
0.00360728
-7.13249e-05
-7.20003e-05
-0.0036234
0.00363947
-6.97107e-05
-7.03714e-05
-0.00365527
0.00367104
-6.81284e-05
-6.87766e-05
-0.00368654
0.00370202
-6.65719e-05
-6.72118e-05
-0.00371723
0.00373243
-6.49974e-05
-6.56618e-05
-0.00375759
0.00377815
-4.22088e-05
-5.24855e-05
-4.15761e-05
9.25178e-06
-8.77537e-06
0.00385739
-9.24609e-06
-3.54445e-05
0.00386752
0.00385416
0.00383935
0.00382377
-0.00380527
-1.87702e-05
-0.00383273
0.00382584
-3.95621e-07
-2.3848e-05
0.00374756
-0.00374561
-6.20066e-05
-3.69034e-05
0.00371704
-0.00370152
-6.28328e-05
-6.22795e-05
0.00368603
-0.00367025
-6.37501e-05
-6.3159e-05
0.00365447
-0.00363839
-6.4732e-05
-6.41046e-05
0.0036223
-0.0036059
-6.58235e-05
-6.51402e-05
0.00358948
-0.00357275
-6.70432e-05
-6.62962e-05
0.00355599
-0.00353892
-6.83964e-05
-6.7584e-05
0.00352181
-0.00350437
-6.98739e-05
-6.9001e-05
0.00348685
-0.00346901
-7.15029e-05
-7.05454e-05
0.0034511
-0.00343282
-7.326e-05
-7.22486e-05
0.00341446
-0.00339578
-7.51827e-05
-7.408e-05
0.00337696
-0.00335777
-7.72097e-05
-7.60558e-05
0.00333845
-0.00331876
-7.9399e-05
-7.81628e-05
0.00329891
-0.00327866
-8.17364e-05
-8.04253e-05
0.00325823
-0.00323738
-8.42351e-05
-8.2838e-05
0.00321631
-0.0031948
-8.69372e-05
-8.54306e-05
0.00317306
-0.00315086
-8.98778e-05
-8.82517e-05
0.00310158
-0.0030237
-9.31344e-05
-9.13201e-05
0.00297046
-0.00295673
-4.28195e-05
-5.93283e-05
-1.88294e-05
-1.35687e-06
-0.00288564
-0.00292167
-5.38955e-05
0.000116242
-0.00320694
-7.24532e-05
-0.00301221
-2.33665e-05
0.00381882
0.00385374
-2.87335e-05
0.000158415
-0.00334818
3.04778e-05
-0.00289532
0.000727723
-0.00268336
0.0034967
2.44425e-05
-6.33979e-05
-0.00288271
-2.46762e-05
-0.00283652
-0.00216612
0.003311
0.000400753
-0.00165207
-0.000240558
-0.00316079
-0.00316145
0.00331447
2.34725e-05
0.000170706
-2.11611e-05
-0.00330144
0.00329155
-0.000165757
-9.75408e-05
-0.00328529
0.00325963
-0.00011763
-0.000161151
-0.00325928
0.00326811
-0.000114205
-0.000115631
-0.00325982
0.00328009
-0.000111025
-0.000112288
-0.00329998
0.00331966
-0.000108125
-0.000109305
-0.00333899
0.00335815
-0.000105363
-0.000106473
-0.00337696
0.00339562
-0.000102741
-0.000103783
-0.00341396
0.00343215
-0.000100251
-0.000101228
-0.00345003
0.00346777
-9.7879e-05
-9.87997e-05
-0.00348521
0.00350254
-9.55983e-05
-9.64769e-05
-0.00351956
0.00353649
-9.34038e-05
-9.42491e-05
-0.00355315
0.00356974
-9.12649e-05
-9.20726e-05
-0.00358605
0.00360229
-8.92145e-05
-8.99836e-05
-0.00361826
0.00363416
-8.72309e-05
-8.79686e-05
-0.00364981
0.0036654
-8.53049e-05
-8.6016e-05
-0.00368074
0.00369604
-8.34289e-05
-8.41171e-05
-0.0037111
0.00372612
-8.15925e-05
-8.22643e-05
-0.00374089
0.00375565
-7.97559e-05
-8.04379e-05
-0.00378177
0.00381753
-7.79651e-05
-7.86058e-05
-0.0038223
0.00383353
-5.83155e-05
-4.63468e-05
-0.00386247
0.0038705
-3.14017e-05
-2.61926e-05
8.19663e-06
5.39364e-07
0.00385879
2.82505e-05
-6.89333e-05
0.00391118
0.00385527
2.23163e-05
1.53744e-05
0.0038197
0.00387701
-1.09825e-05
-1.22262e-05
0.00384264
0.00384374
2.34356e-05
-5.78318e-05
0.00388814
0.0038726
0.00388248
-0.00385498
-2.78873e-05
-0.00395593
0.00386664
3.14558e-05
-0.000102184
0.00383172
-0.00380946
-4.10313e-05
-4.71153e-05
0.00377031
-0.00375548
-7.68407e-05
-7.60448e-05
0.00374066
-0.00372555
-7.79355e-05
-7.71028e-05
0.00371048
-0.00369512
-7.91059e-05
-7.82374e-05
0.00367977
-0.00366412
-8.03751e-05
-7.94594e-05
0.00364847
-0.00363252
-8.17708e-05
-8.07943e-05
0.00361655
-0.00360029
-8.33089e-05
-8.22645e-05
0.00358399
-0.00356739
-8.49957e-05
-8.38803e-05
0.00355075
-0.00353379
-8.68339e-05
-8.56452e-05
0.00351677
-0.00349943
-8.88396e-05
-8.7567e-05
0.00348202
-0.00346427
-9.10055e-05
-8.96586e-05
0.00344645
-0.00342829
-9.33428e-05
-9.1908e-05
0.00341002
-0.00339139
-9.58358e-05
-9.4326e-05
0.00337264
-0.00335353
-9.85124e-05
-9.69106e-05
0.00333427
-0.00331463
-0.000101376
-9.96814e-05
0.00329483
-0.00327462
-0.000104444
-0.000102645
0.00325422
-0.00323341
-0.00010775
-0.000105828
0.00321239
-0.00319094
-0.000111325
-0.000109268
0.00316928
-0.00314722
-0.000115199
-0.000112983
0.00308954
-0.00301298
-0.000119382
-0.000117003
0.00299688
-0.00296571
-9.45713e-05
-6.99957e-05
-5.85556e-05
4.01569e-05
-0.00286431
-0.00292465
-9.96138e-05
0.000111395
-0.00315992
-1.86485e-05
-0.00296308
0.000277949
-0.0028984
3.17803e-05
-0.00295178
0.00390001
-0.00389142
-3.99971e-05
0.00389822
-6.71392e-05
-1.24337e-05
1.26209e-05
0.00388795
-6.13325e-05
0.00391554
0.000292223
-0.00255214
5.88246e-05
-0.00285519
-0.0014583
-0.00173734
-0.00259967
0.00301383
-1.34017e-05
-3.97486e-05
3.66807e-05
-0.00286125
-7.80143e-05
-0.00288638
-0.00238856
-0.000451672
-0.00306805
-0.0031656
0.00322624
-3.71595e-05
1.89276e-05
-0.00327308
0.00324949
-0.000142166
-0.000144381
-0.0032279
0.00324814
-0.000137871
-0.000139562
-0.00326806
0.00328784
-0.000133976
-0.000135557
-0.00330733
0.00332665
-0.000130346
-0.000131781
-0.00334564
0.00336448
-0.00012696
-0.000128298
-0.00338299
0.00340136
-0.000123729
-0.000124987
-0.00341941
0.00343732
-0.000120655
-0.000121835
-0.00345493
0.00347241
-0.000117731
-0.000118836
-0.00348959
0.00350665
-0.000114942
-0.000115981
-0.00352343
0.0035401
-0.00011227
-0.000113252
-0.00355649
0.00357279
-0.000109705
-0.000110637
-0.00358883
0.00360479
-0.000107228
-0.000108111
-0.00362049
0.00363613
-0.000104849
-0.000105685
-0.00365151
0.00366683
-0.000102553
-0.000103348
-0.0036819
0.00369693
-0.000100331
-0.000101089
-0.00371171
0.00372646
-9.81744e-05
-9.89002e-05
-0.00374097
0.00375545
-9.60733e-05
-9.67731e-05
-0.0037697
0.00378395
-9.40047e-05
-9.46915e-05
-0.00379798
0.00381198
-9.19652e-05
-9.26352e-05
-0.00385628
0.00385691
-5.89447e-05
-9.06472e-05
-6.07001e-05
-3.49403e-06
-3.62683e-05
0.00389855
4.17061e-05
-4.52228e-05
0.0039147
0.00389348
-1.44692e-05
-4.34661e-07
0.00383461
0.00382628
-2.19279e-05
2.49381e-05
0.00383963
0.00382138
0.00391016
0.00391108
-0.00388641
-5.25575e-05
-0.00387697
0.00392673
-1.83041e-05
-6.80717e-05
0.00386118
-0.00381219
-9.00208e-05
-7.23439e-05
0.0037981
-0.00378375
-9.11942e-05
-9.01349e-05
0.00376942
-0.00375484
-9.2519e-05
-9.14261e-05
0.00374027
-0.00372544
-9.39416e-05
-9.28048e-05
0.0037106
-0.00369549
-9.54849e-05
-9.42935e-05
0.00368037
-0.00366497
-9.71704e-05
-9.59135e-05
0.00364956
-0.00363385
-9.90123e-05
-9.76831e-05
0.00361812
-0.0036021
-0.000101019
-9.96131e-05
0.00358603
-0.00356967
-0.000103199
-0.000101711
0.00355325
-0.00353652
-0.000105562
-0.000103987
0.00351973
-0.00350263
-0.000108109
-0.000106448
0.00348545
-0.00346794
-0.000110846
-0.000109091
0.00345034
-0.00343241
-0.000113772
-0.000111927
0.00341436
-0.00339596
-0.000116906
-0.000114959
0.00337744
-0.00335856
-0.000120258
-0.000118205
0.00333953
-0.00332013
-0.000123846
-0.000121676
0.00330056
-0.00328062
-0.000127695
-0.000125395
0.0032605
-0.00323999
-0.000131826
-0.000129388
0.00321931
-0.00319826
-0.000136248
-0.000133667
0.00317704
-0.00315548
-0.000140948
-0.000138222
0.00308235
-0.00303103
-0.000145894
-0.000143119
0.00298249
-0.00294063
-0.000119876
-0.000148154
-4.96628e-05
5.53077e-05
-0.00289203
-0.00290677
-8.35233e-05
8.61024e-05
-0.00296807
5.75639e-06
-0.00293706
-4.09585e-05
0.00389395
0.00392654
-6.11442e-05
0.000175
-0.00278118
-0.000291994
-0.00340636
7.23111e-06
-0.00285137
3.30683e-05
-0.00292602
6.01113e-05
-0.00287862
-0.00339954
-0.000726357
0.000233605
-0.000484835
-0.00314831
-0.000158516
-0.00301424
3.80483e-05
-0.00284399
-8.1679e-05
1.63612e-05
-0.00282671
-6.88064e-05
-0.00291964
-0.00297619
-0.00290024
0.00304972
-0.000162885
0.00302952
-0.00330076
-0.000455121
-0.000322388
-0.00316335
0.003228
-0.000101808
-9.4699e-05
-0.00324775
0.0032674
-0.000161809
-0.000164136
-0.00328676
0.00330595
-0.000157054
-0.000158928
-0.00332484
0.00334361
-0.00015274
-0.000154455
-0.00336209
0.00338043
-0.000148683
-0.000150263
-0.00339846
0.00341636
-0.000144856
-0.000146333
-0.00343396
0.00345143
-0.000141201
-0.000142591
-0.00346862
0.00348568
-0.000137717
-0.00013902
-0.00350246
0.00351912
-0.000134395
-0.000135615
-0.00353551
0.00355179
-0.000131224
-0.000132368
-0.00356781
0.00358372
-0.000128189
-0.000129264
-0.00359938
0.00361495
-0.000125278
-0.000126292
-0.00363027
0.00364553
-0.000122481
-0.000123434
-0.00366053
0.00367548
-0.000119792
-0.000120691
-0.00369018
0.00370483
-0.000117202
-0.00011805
-0.00371924
0.00373361
-0.000114701
-0.000115503
-0.00374775
0.00376186
-0.000112281
-0.000113042
-0.00377574
0.0037896
-0.00010993
-0.000110655
-0.00380324
0.00381687
-0.000107634
-0.000108332
-0.00383029
0.00384372
-0.000105389
-0.000106059
-0.00385692
0.00390122
-0.000103251
-0.000103845
-0.00391614
0.0039374
-6.12575e-05
-7.56186e-05
-0.00389764
0.00392591
-6.92241e-05
-2.73806e-05
-7.24643e-06
1.00185e-05
0.00391193
7.44264e-05
-0.000107671
0.00395915
0.00396113
4.88652e-06
2.87631e-05
0.0038649
0.00390838
-1.41422e-05
-6.70966e-07
0.00384942
0.0038409
1.54261e-05
-3.00857e-05
0.00385429
0.00383613
1.65026e-05
-3.71267e-05
0.00390858
0.00389657
5.80105e-05
-6.62306e-05
0.00393476
0.00393642
0.00396999
-0.00391262
-7.56798e-05
-0.00396371
0.00395459
-5.71099e-05
-5.48666e-05
0.00390879
-0.00388748
-7.38596e-05
-7.19005e-05
0.00385751
-0.00384399
-0.000103533
-0.000102321
0.00383047
-0.00381671
-0.000104957
-0.000103657
0.00380297
-0.00378899
-0.000106504
-0.000105161
0.00377502
-0.00376079
-0.00010817
-0.000106777
0.00374656
-0.00373207
-0.000109973
-0.00010852
0.00371758
-0.00370281
-0.000111933
-0.00011041
0.00368804
-0.00367299
-0.000114062
-0.000112463
0.00365791
-0.00364256
-0.000116371
-0.00011469
0.00362717
-0.0036115
-0.00011887
-0.000117101
0.00359578
-0.00357977
-0.000121569
-0.000119707
0.0035637
-0.00354734
-0.000124469
-0.000122513
0.00353091
-0.00351418
-0.000127578
-0.000125524
0.00349736
-0.00348023
-0.000130903
-0.000128747
0.003463
-0.00344544
-0.000134457
-0.000132191
0.00342778
-0.00340978
-0.000138252
-0.000135871
0.00339166
-0.0033732
-0.000142305
-0.000139799
0.0033546
-0.00333566
-0.000146634
-0.000143995
0.00331657
-0.00329715
-0.000151252
-0.000148474
0.00327757
-0.00325767
-0.000156155
-0.000153242
0.0032376
-0.00321721
-0.000161339
-0.000158289
0.00319671
-0.00317587
-0.000166734
-0.000163614
0.0031549
-0.00310234
-0.000172438
-0.000169128
0.00305182
-0.00298171
-0.000138923
-0.000134036
-0.000113324
6.68647e-05
-0.00287318
-0.00296253
-0.000132504
6.17589e-05
-0.00285483
-0.00331292
-0.00047268
5.73598e-05
-0.00283131
0.00400709
-0.0040063
-7.0016e-05
0.00401564
-0.000116219
-4.68219e-05
3.72726e-05
0.00394431
-4.86275e-05
0.0039564
6.80824e-06
-0.00291079
3.40954e-05
-0.00290001
-2.2914e-05
-0.00298697
6.11509e-05
-0.00290172
8.84022e-05
-0.00291603
0.00011584
-0.00287568
-0.000101141
0.000106223
-0.00287826
-0.000153314
-0.00291035
-0.00290762
-0.0033153
0.003186
-0.000325815
-0.000410996
0.000487755
-0.00338968
0.00342784
-0.00353754
-0.000301301
-0.000360143
-0.00308894
0.00316064
-0.000234592
-0.000225325
-0.00324177
0.00329649
-0.000156532
-0.000175826
-0.00331525
0.00333386
-0.000180424
-0.000182888
-0.00335219
0.00337034
-0.000175207
-0.000177256
-0.00338819
0.0034059
-0.000170446
-0.000172306
-0.00342333
0.00344062
-0.000165974
-0.000167692
-0.00345763
0.00347452
-0.000161741
-0.000163345
-0.00349113
0.00350763
-0.0001577
-0.000159207
-0.00352387
0.00353999
-0.000153842
-0.000155254
-0.00355586
0.00357162
-0.000150158
-0.00015148
-0.00358713
0.00360254
-0.000146638
-0.000147876
-0.00361771
0.00363279
-0.00014327
-0.000144429
-0.00364763
0.00366239
-0.000140042
-0.000141129
-0.00367692
0.00369138
-0.000136943
-0.000137962
-0.00370561
0.00371979
-0.000133968
-0.000134923
-0.00373374
0.00374764
-0.000131104
-0.000132
-0.00376132
0.00377496
-0.000128342
-0.000129184
-0.00378838
0.00380178
-0.000125674
-0.000126467
-0.00381496
0.00382812
-0.000123089
-0.000123838
-0.00384107
0.00385401
-0.000120574
-0.000121285
-0.00386675
0.00387949
-0.000118124
-0.0001188
-0.00389202
0.00390451
-0.000115741
-0.000116379
-0.00394297
0.00396916
-8.74533e-05
-0.000114074
-6.45137e-05
-5.20452e-05
1.36554e-05
0.00395032
5.24074e-05
-9.55918e-05
0.00400234
0.00396149
-4.2614e-05
2.83073e-05
0.00387921
0.00387942
-1.37907e-05
-8.9605e-07
0.00386411
0.00385541
1.55298e-05
-3.00911e-05
0.00386885
0.00385077
-7.44253e-07
-2.53704e-05
0.00393469
0.00386574
0.00394832
0.00399805
-0.00398823
-8.54973e-05
-0.0040012
0.00399439
-5.03007e-05
-5.80178e-05
0.00394652
-0.0039054
-0.000114976
-0.00011361
0.00389278
-0.00387989
-0.000116421
-0.000114943
0.00386703
-0.00385393
-0.000118054
-0.000116521
0.00384086
-0.00382755
-0.000119817
-0.000118236
0.00381425
-0.0038007
-0.000121714
-0.000120078
0.00378716
-0.00377337
-0.000123762
-0.000122062
0.00375958
-0.00374553
-0.000125979
-0.000124205
0.00373147
-0.00371715
-0.000128377
-0.000126523
0.00370282
-0.00368822
-0.000130968
-0.000129028
0.00367359
-0.0036587
-0.000133762
-0.000131731
0.00364376
-0.00362856
-0.000136769
-0.000134641
0.00361331
-0.00359779
-0.000139994
-0.000137766
0.0035822
-0.00356633
-0.000143445
-0.000141113
0.00355039
-0.00353416
-0.00014713
-0.000144689
0.00351785
-0.00350124
-0.000151062
-0.000148505
0.00348454
-0.00346754
-0.000155252
-0.000152574
0.00345043
-0.00343302
-0.000159714
-0.000156908
0.0034155
-0.00339767
-0.000164461
-0.00016152
0.00337972
-0.00336148
-0.000169498
-0.000166422
0.00334311
-0.00332444
-0.000174823
-0.000171614
0.00330564
-0.00328655
-0.000180424
-0.000177087
0.00326734
-0.00324781
-0.000186264
-0.000182831
0.00322812
-0.00320815
-0.000192409
-0.000188813
0.0031471
-0.00308738
-0.000198645
-0.000195086
0.0030522
-0.0030392
-0.000166311
-0.000167683
-0.000288374
0.000109167
-0.00283504
-0.00294893
-0.000122043
0.000129523
-0.00291783
-0.00297581
-0.000185437
1.88517e-05
-0.00281632
-6.50303e-05
0.00398508
0.00403974
-9.39754e-05
0.000241556
-0.00348685
-0.000292243
7.71212e-06
-0.00288441
0.000310909
-0.00345903
1.47912e-05
-0.00286901
3.4783e-05
-0.00287364
3.37428e-05
-0.00291155
6.218e-05
-0.0028755
8.99759e-05
-0.00289016
0.000117854
-0.00288732
0.000115086
-0.00286383
-0.000149638
0.000128993
-0.00289719
-0.000164829
-0.00296062
-0.00288106
-0.00358454
0.00346183
-0.000178592
-0.000375464
-0.00341016
0.000298775
0.00365991
-0.00354562
-0.000489755
-0.000216873
-0.00338561
0.00333218
-0.000272386
-0.000283917
-0.00331814
0.00329302
-0.00020948
-0.000211284
-0.00332376
0.00337144
-0.000204219
-0.000206559
-0.00338897
0.0034064
-0.000197857
-0.000200412
-0.00342357
0.00344058
-0.000192215
-0.000194423
-0.0034573
0.00347388
-0.000187027
-0.000189029
-0.0034902
0.00350638
-0.000182161
-0.000184007
-0.00352231
0.00353812
-0.000177553
-0.000179273
-0.00355369
0.00356915
-0.000173159
-0.000174771
-0.00358436
0.00359948
-0.000168962
-0.000170472
-0.00361437