/*--------------------------------*- C++ -*----------------------------------*\
  =========                 |
  \\      /  F ield         | OpenFOAM: The Open Source CFD Toolbox
   \\    /   O peration     | Website:  https://openfoam.org
    \\  /    A nd           | Version:  10
     \\/     M anipulation  |
\*---------------------------------------------------------------------------*/
FoamFile
{
    format      ascii;
    class       volVectorField;
    location    "53.5";
    object      U;
}
// * * * * * * * * * * * * * * * * * * * * * * * * * * * * * * * * * * * * * //

dimensions      [0 1 -1 0 0 0 0];

internalField   nonuniform List<vector> 
28942
(
(0.00444876 -0.00226759 -3.42318e-22)
(0.0060205 -0.00235341 -6.35768e-23)
(0.0179566 -0.0123999 -8.24022e-22)
(0.103305 0.0182378 -5.26284e-21)
(0.102343 0.02228 1.7231e-21)
(0.0161286 0.000515851 0)
(0.0191809 8.76589e-05 1.29493e-23)
(0.0222059 0.000665804 -1.15188e-23)
(0.135259 -0.0182652 -2.55474e-22)
(0.133905 -0.0166288 7.27193e-22)
(0.00984629 0.00402918 -6.74863e-22)
(0.0161451 0.00565544 2.5578e-22)
(0.00717229 0.00316584 0)
(0.00473171 0.00207572 0)
(0.0497291 0.00215176 -1.74396e-23)
(0.0477792 0.00279882 -6.68647e-24)
(0.0893203 0.0158701 6.67854e-22)
(0.0870082 0.0138392 1.0748e-21)
(0.0121726 -0.0151225 2.91393e-21)
(0.0293502 -0.0304874 -7.66885e-22)
(0.0981314 0.0373653 9.52437e-22)
(0.097308 0.0344029 0)
(0.0187992 0.00465185 1.16857e-21)
(0.00789145 0.00237532 5.51042e-22)
(0.0378872 0.00724541 9.45687e-22)
(0.057648 0.00294324 -8.62122e-22)
(0.00765035 -0.0185058 8.50734e-21)
(0.00669536 -0.0165691 -3.13344e-21)
(0.0355394 -0.0253404 5.71217e-22)
(0.0193159 -0.0136918 1.97166e-22)
(0.0165337 -0.001531 0)
(0.0206733 -0.00135495 -1.57056e-23)
(0.0261941 0.00464862 3.21481e-22)
(0.0375786 0.00202635 -5.28076e-23)
(0.01883 0.0180115 1.31434e-21)
(0.0157229 0.0191202 -1.30537e-21)
(0.0321763 0.0376157 -3.053e-21)
(0.0186729 0.030532 -1.06859e-21)
(0.00888031 2.65863e-05 -1.08595e-23)
(0.00865027 0.0161964 -2.61492e-21)
(0.0306483 -0.00620327 0)
(0.0513413 -0.0109697 0)
(0.112581 -0.013207 -2.792e-23)
(0.112108 -0.0132622 8.26841e-23)
(0.1164 -0.0131032 7.17372e-23)
(0.0312316 0.000250743 1.34329e-23)
(0.0290885 -0.000596423 -2.17452e-23)
(0.0413913 -0.000514828 -9.74287e-23)
(0.0396836 -0.000582069 2.76847e-23)
(0.0323352 -0.00292251 -2.37219e-22)
(0.0241574 -0.0035469 1.53415e-22)
(0.128543 0.00153769 -4.02213e-22)
(0.127869 0.0010554 -3.75372e-22)
(0.134584 -0.0210485 -3.78807e-24)
(0.133027 -0.0193207 1.3881e-22)
(0.0827202 0.00644462 7.18084e-22)
(0.10198 -0.000664148 2.50617e-22)
(0.00307365 0.00162777 -5.66289e-22)
(0.00898259 0.00369523 0)
(0.00829163 0.00330336 2.37753e-22)
(0.00289672 0.00149497 4.88659e-22)
(0.000364873 0.000227737 -4.06304e-22)
(0.000194495 0.000123426 -3.90424e-22)
(0.109899 -0.0426121 0)
(0.105054 -0.0255995 1.27239e-22)
(0.121924 -0.0330795 -4.3793e-23)
(0.123544 -0.0437444 0)
(0.0901287 -0.0328051 -6.3849e-22)
(0.0936347 -0.0352687 -4.19622e-22)
(0.00189452 -0.0011351 1.13175e-21)
(0.00250116 -0.00202584 -3.56624e-22)
(0.00489376 -0.00316931 8.84831e-22)
(0.0849098 -0.0457688 0)
(0.0912319 -0.0396258 2.16708e-21)
(0.0805835 -0.0530402 5.85398e-22)
(0.114294 0.0123311 2.38022e-22)
(0.112913 0.00681158 -2.63989e-22)
(0.125269 0.0108946 -1.12825e-22)
(0.0046891 -0.00286526 -5.34205e-23)
(0.00634631 -0.0044311 4.46157e-22)
(0.0510686 -0.0311742 1.25325e-22)
(0.0331973 -0.0205599 -2.5726e-22)
(0.00211944 -0.000600779 3.20863e-21)
(0.00517263 -0.00208145 -1.25029e-21)
(0.10106 0.0482445 1.32381e-23)
(0.09709 0.0552119 -7.64549e-22)
(0.0807659 0.0540161 6.97588e-22)
(0.0472306 0.0345209 -2.68079e-21)
(0.0444597 0.0316187 1.89851e-21)
(0.0295082 0.0206043 -1.135e-22)
(0.0327292 0.0232571 -6.4128e-22)
(0.0379719 0.0283667 8.69298e-22)
(0.00443188 0.00271786 -5.90873e-23)
(0.00780933 0.00398019 -1.70578e-23)
(0.00320371 0.00201874 3.41819e-23)
(0.00192733 0.00163675 -4.56816e-22)
(0.00145069 0.00155638 5.60104e-22)
(0.0157494 0.011548 -3.25457e-21)
(0.0175022 0.0136396 7.45449e-22)
(0.00882626 -0.00385897 0)
(0.101389 0.00515989 0)
(0.0984002 0.0156841 -3.96033e-21)
(0.060439 0.0104757 1.94284e-21)
(0.0886782 0.0178818 0)
(0.135606 -0.00140263 0)
(0.135049 -0.00212913 0)
(0.133385 -0.00261135 -2.52512e-22)
(0.114982 0.0265461 -2.12094e-22)
(0.114075 0.0279524 2.09679e-21)
(0.113275 0.0254138 1.12518e-21)
(0.0023058 0.00130424 1.05604e-21)
(0.00151911 0.000779017 -1.1853e-21)
(0.0191131 -0.0055643 -5.5056e-22)
(0.0202065 -0.00509889 4.70024e-22)
(0.00914023 -0.00294762 9.28784e-22)
(0.00647729 0.0111404 1.47867e-21)
(0.0189708 0.0181468 3.45632e-21)
(0.0134673 0.0227915 2.7221e-22)
(0.00492142 0.0143002 -8.6216e-21)
(0.11707 0.0477256 5.54657e-23)
(0.107914 0.0582172 1.06823e-21)
(0.118383 0.054844 -1.84227e-21)
(0.0391185 -0.0294356 7.29983e-22)
(0.0240258 -0.0172759 -4.66415e-22)
(0.00532299 -0.000751957 -4.10207e-21)
(0.00453986 -0.00360223 0)
(0.0124989 -0.00168663 2.00243e-21)
(0.0219785 -0.0161403 7.77217e-22)
(0.0342775 -0.0278007 -1.9519e-21)
(0.0391848 -1.18097e-05 6.82783e-23)
(0.0416277 0.000152714 -4.88678e-23)
(0.0368277 0.000183368 -2.10821e-24)
(0.0280712 -0.0419734 0)
(0.0296198 -0.0428652 0)
(0.0896197 -0.0186543 -4.63469e-22)
(0.0995874 -0.0220925 3.14861e-21)
(0.0870332 -0.025279 0)
(0.0471472 -0.0402103 0)
(0.0582123 -0.0514094 -7.81737e-22)
(0.0413226 0.0393388 2.08499e-21)
(-5.39167e-06 0.00021051 5.15247e-22)
(-0.000197778 0.000128268 -3.39469e-22)
(0.0223405 -0.0192522 -7.89899e-22)
(0.120546 -0.012911 4.04876e-22)
(0.119939 -0.012906 -7.82252e-23)
(0.115683 -0.00559749 -6.72116e-23)
(0.108636 0.00110847 8.9569e-23)
(0.117896 -0.000155465 1.8321e-22)
(8.10378e-05 0.000258312 1.98877e-22)
(0.0437624 0.0344256 3.20346e-21)
(0.0619024 0.0463141 -7.87851e-22)
(0.0593445 0.0393769 -3.01781e-24)
(0.0256891 -0.000936387 6.4535e-24)
(0.0253133 -0.000937466 3.43763e-23)
(0.0274456 -0.00073862 1.52502e-24)
(0.030621 -0.000699738 -1.68956e-23)
(0.0454344 0.0380939 1.33849e-22)
(0.0189674 0.0160619 0)
(0.000144779 -4.09361e-05 3.69079e-22)
(0.000429659 -0.000265279 -4.09467e-22)
(0.0018738 -0.00103135 2.85633e-22)
(0.0366299 -0.00775375 -1.84601e-21)
(0.0649762 -0.00213717 -7.53075e-22)
(0.035526 -0.000291738 -2.30181e-24)
(0.0745952 -0.0076316 2.72074e-22)
(0.0707913 -0.0157334 6.35695e-23)
(0.0943187 0.0398902 2.14318e-21)
(0.091422 0.0454272 9.92671e-23)
(0.0887571 0.0290638 1.21552e-21)
(0.0914829 0.0307792 -8.80876e-22)
(0.0987124 0.0410479 0)
(0.126037 -0.00050039 1.49714e-22)
(0.1268 -0.000942604 2.82895e-22)
(0.12808 -0.0121819 -2.95264e-22)
(0.129543 -0.0119766 5.05378e-22)
(0.117059 0.0240802 2.60121e-22)
(0.119119 0.0249746 -7.3661e-22)
(0.117108 0.0260947 0)
(0.115141 0.0248377 1.53326e-22)
(0.116682 0.0280201 0)
(0.117193 0.036045 -5.51365e-22)
(0.115732 0.038101 -3.01001e-22)
(0.111359 0.0419227 -5.40684e-22)
(0.113753 0.0400505 0)
(0.116447 0.0430236 1.78853e-21)
(0.113725 0.0449514 4.73884e-23)
(0.108353 0.0441378 -3.03717e-22)
(0.0996536 0.0502513 -1.28707e-21)
(0.0984387 0.0454633 -2.26768e-22)
(0.0251005 -0.00855584 5.90463e-23)
(0.0329996 -0.0094274 -2.35687e-23)
(0.00631643 -0.00250673 -6.94009e-22)
(0.0348936 -7.03688e-05 -4.43097e-23)
(0.0445268 -0.000295543 0)
(-1.54984e-06 -4.2197e-05 4.33612e-22)
(1.4356e-05 -4.84375e-05 2.20964e-22)
(0.0403393 -0.00197487 2.02902e-23)
(0.0475161 -0.00192023 8.11558e-24)
(0.0470211 -0.00131055 0)
(0.0390412 -0.000881666 8.93765e-24)
(0.0935491 0.00435648 -1.21887e-22)
(0.0929793 0.00391285 5.76808e-22)
(0.0938805 0.00407078 2.67386e-22)
(0.000673244 0.000270825 3.94597e-22)
(-0.000160284 -0.000130189 -5.71761e-22)
(-0.000202394 -0.000170313 4.87479e-22)
(0.0015081 0.000621465 0)
(8.13868e-05 8.88961e-05 1.14352e-21)
(0.000173809 -3.82728e-05 -8.24756e-22)
(0.00747249 0.0036856 -9.95347e-22)
(0.00145859 0.000785049 -1.18794e-21)
(0.00172746 0.000864189 0)
(0.00157214 0.00753964 0)
(0.000577021 0.00327949 0)
(0.00031332 0.00197559 0)
(0.136753 -0.00143481 5.6411e-23)
(0.137738 -0.00128385 0)
(0.136134 -0.00223247 -6.57669e-23)
(0.0881197 -0.0148602 4.42459e-21)
(0.0901262 -0.015268 -1.60612e-21)
(0.0890409 -0.0128848 0)
(0.108833 0.000230115 -7.04076e-24)
(0.109402 0.000222899 1.40922e-23)
(0.108243 0.000238435 -4.77759e-24)
(0.109948 0.000217883 0)
(0.110473 0.000218933 -8.94378e-24)
(0.110974 0.000214726 0)
(0.110969 -0.000308956 0)
(0.11145 0.000200494 3.30267e-23)
(0.111437 -0.000307168 0)
(0.110473 -0.000321262 -9.00672e-24)
(0.109948 -0.000338357 0)
(0.109402 -0.000355861 4.71461e-24)
(0.108829 -0.000377105 -7.04357e-24)
(0.108242 -0.000396599 4.77161e-24)
(0.111899 0.000184951 -3.16038e-23)
(0.111886 -0.0003 -1.10347e-24)
(0.107625 0.000250336 6.19349e-28)
(0.107621 -0.00041073 -7.31108e-24)
(0.106979 0.000261135 3.89606e-23)
(0.112324 0.000175396 2.94445e-26)
(0.112321 -0.00028565 -1.09945e-24)
(0.106979 -0.000432224 1.44289e-23)
(0.112732 0.000165192 2.95606e-23)
(0.11312 0.000156769 -2.95362e-23)
(0.112732 -0.000272405 2.21887e-24)
(0.11312 -0.000258494 4.36677e-24)
(0.106331 0.000284815 -3.79067e-23)
(0.106325 -0.000453096 -9.50231e-24)
(0.113487 0.0001473 0)
(0.113489 -0.000245908 -4.30707e-24)
(0.105646 0.000297224 4.69846e-27)
(0.105642 -0.00046744 -4.71024e-27)
(0.113836 0.00013928 0)
(0.113838 -0.000232925 0)
(0.104936 0.000305604 0)
(0.104933 -0.000485272 0)
(0.114166 0.000130176 0)
(0.114168 -0.00022132 2.05625e-24)
(0.104204 0.000314074 -1.97704e-23)
(0.1042 -0.000501351 -4.82219e-27)
(0.114477 0.000122385 1.07675e-25)
(0.114479 -0.000209383 -2.19594e-24)
(0.10345 0.000320378 1.98649e-23)
(0.103446 -0.000518774 0)
(0.114771 0.000113631 0)
(0.114773 -0.000198626 0)
(0.102674 0.000327295 -1.25866e-24)
(0.10267 -0.000533095 2.16085e-23)
(0.115048 0.000106096 1.32492e-23)
(0.11505 -0.000187383 0)
(0.101879 0.000331514 -1.18561e-25)
(0.101874 -0.000547086 -2.04524e-23)
(0.115309 9.76301e-05 -1.98057e-23)
(0.115312 -0.000177347 -5.74293e-24)
(0.101049 0.000326595 2.08673e-23)
(0.101047 -0.000560237 0)
(0.115555 9.06435e-05 6.51569e-24)
(0.115559 -0.000165527 3.82896e-24)
(0.100202 0.000329893 -1.0569e-23)
(0.100201 -0.000576195 2.1431e-23)
(0.115785 8.49072e-05 -2.5959e-23)
(0.115793 -0.000150926 2.92582e-23)
(0.0993077 0.000314145 1.08995e-23)
(0.0993162 -0.000597012 3.45005e-25)
(0.116005 8.0065e-05 0)
(0.116012 -0.000138135 1.39233e-23)
(0.0983926 0.000299779 -2.19296e-23)
(0.0984078 -0.000625794 4.38673e-23)
(0.116218 7.21198e-05 0)
(0.11622 -0.000129234 0)
(0.0994637 0.00122013 -1.0785e-23)
(0.0985483 0.00122484 -4.36455e-23)
(0.0974391 0.000277728 0)
(0.0974715 -0.000667652 -2.23474e-23)
(0.1012 0.00119622 -6.76767e-24)
(0.100341 0.00121051 1.32934e-24)
(0.102813 0.00114716 0)
(0.102011 0.0011727 -2.18424e-23)
(0.104334 0.0010883 -4.20555e-26)
(0.103585 0.00111857 0)
(0.105763 0.00102345 0)
(0.10506 0.00105654 0)
(0.107105 0.00094715 0)
(0.106444 0.000987976 0)
(0.108332 0.000872216 9.42472e-24)
(0.107725 0.000908889 2.3823e-24)
(0.109479 0.000806988 -9.07177e-24)
(0.108922 0.000838874 -9.41902e-24)
(0.110531 0.000746329 1.60252e-23)
(0.110013 0.000771398 2.05252e-23)
(0.111504 0.000688491 0)
(0.111027 0.000720299 0)
(0.112379 0.000627355 -6.98392e-26)
(0.111953 0.000657738 0)
(0.113168 0.000566019 0)
(0.112783 0.000596504 0)
(0.113877 0.000506653 0)
(0.113532 0.000535955 0)
(0.114513 0.000450325 0)
(0.114204 0.000478036 0)
(0.115079 0.000397362 0)
(0.114804 0.000423375 0)
(0.115581 0.000347843 0)
(0.115337 0.00037214 0)
(0.116029 0.000294963 -1.05883e-23)
(0.11581 0.000324088 0)
(0.116236 0.000270036 -3.41368e-24)
(0.116416 6.27089e-05 3.32953e-24)
(0.116417 -0.000122514 -3.30183e-24)
(0.115815 -0.000373923 0)
(0.116238 -0.000327162 -1.35601e-23)
(0.116032 -0.000349148 -6.9993e-24)
(0.115336 -0.000427766 1.92582e-24)
(0.115582 -0.000400792 -7.52539e-24)
(0.114801 -0.000482578 6.26256e-26)
(0.115076 -0.000455338 0)
(0.1142 -0.000540006 0)
(0.114509 -0.000510663 0)
(0.113526 -0.000602365 0)
(0.113872 -0.000570516 0)
(0.112775 -0.000669903 0)
(0.113161 -0.000635424 8.32841e-30)
(0.11194 -0.000743253 7.07195e-26)
(0.112368 -0.000705717 0)
(0.111024 -0.000815817 0)
(0.111491 -0.000780578 0)
(0.110016 -0.00088954 0)
(0.110529 -0.000852323 0)
(0.108911 -0.000970952 0)
(0.109475 -0.000927366 -4.76016e-24)
(0.107714 -0.00105943 1.26172e-24)
(0.108323 -0.00101877 -6.16274e-24)
(0.106431 -0.00115201 0)
(0.107089 -0.00110305 -5.02743e-24)
(0.105049 -0.00123724 0)
(0.105752 -0.0011952 0)
(0.103574 -0.0013184 0)
(0.104323 -0.00127831 0)
(0.102006 -0.00139307 0)
(0.102803 -0.00135667 0)
(0.100344 -0.00146053 -5.53632e-24)
(0.101189 -0.00142589 0)
(0.0985931 -0.0015408 -2.24435e-23)
(0.0994816 -0.0014951 -5.5665e-24)
(0.0976717 -0.00159053 2.2846e-23)
(0.097606 0.00123065 4.32721e-23)
(0.116432 0.000247779 6.67165e-24)
(0.116432 -0.000306568 -1.30158e-23)
(0.0964979 -0.00072168 0)
(0.0967272 -0.00165574 0)
(0.0966386 0.00123639 0)
(0.09646 0.000247164 0)
(0.0997802 0.00210772 0)
(0.0979783 0.00217892 1.0826e-23)
(0.0988911 0.00214181 1.09424e-23)
(0.101487 0.00202536 1.38947e-23)
(0.100646 0.00206931 -2.77753e-24)
(0.103074 0.00192531 4.28895e-26)
(0.102293 0.00197656 0)
(0.104569 0.00181951 0)
(0.103832 0.00187304 0)
(0.105973 0.00170912 0)
(0.105282 0.00176483 0)
(0.107287 0.00159648 0)
(0.106641 0.0016525 0)
(0.108506 0.00148104 0)
(0.107907 0.00154008 0)
(0.109629 0.00137007 -3.7986e-26)
(0.109076 0.00142693 9.81559e-24)
(0.110659 0.00125769 -3.6306e-26)
(0.110159 0.0013117 -1.90909e-23)
(0.11161 0.00114546 0)
(0.111144 0.00120079 0)
(0.112472 0.00103916 3.48761e-26)
(0.112052 0.00109169 0)
(0.113249 0.000936965 0)
(0.11287 0.000987541 0)
(0.113948 0.000839418 0)
(0.113608 0.000887536 0)
(0.114573 0.000747434 0)
(0.114269 0.000792683 0)
(0.115131 0.000661493 0)
(0.11486 0.000703687 0)
(0.115625 0.000581338 0)
(0.115385 0.000620785 0)
(0.116067 0.000501427 7.23369e-24)
(0.115852 0.000541727 0)
(0.116601 5.516e-05 0)
(0.116615 0.000227116 6.50502e-24)
(0.116462 0.000428612 0)
(0.11627 0.000463942 7.03806e-24)
(0.116271 -0.000522922 1.40211e-23)
(0.116461 -0.000489912 3.43621e-24)
(0.116614 -0.000289124 2.67894e-23)
(0.116601 -0.00011542 0)
(0.115853 -0.000596898 0)
(0.116068 -0.000558665 -2.11725e-23)
(0.115383 -0.000678062 6.06372e-26)
(0.115625 -0.000636035 7.57116e-24)
(0.114855 -0.000763207 -6.26253e-26)
(0.115127 -0.000719952 0)
(0.114263 -0.00085505 0)
(0.114568 -0.00080818 0)
(0.113599 -0.000954593 0)
(0.11394 -0.000903849 0)
(0.11286 -0.00106187 0)
(0.113239 -0.00100727 -8.32839e-30)
(0.112039 -0.00117669 -1.41369e-25)
(0.11246 -0.00111837 0)
(0.111137 -0.00129651 0)
(0.111599 -0.00123629 0)
(0.110144 -0.00142131 2.39962e-24)
(0.110652 -0.00135818 0)
(0.109063 -0.00154786 0)
(0.109615 -0.00148203 -2.38961e-24)
(0.107889 -0.00168184 5.03409e-24)
(0.108484 -0.00161586 4.99278e-24)
(0.106622 -0.00181398 0)
(0.107268 -0.00174804 0)
(0.105264 -0.00194478 0)
(0.105955 -0.00187972 0)
(0.103814 -0.00207195 0)
(0.10455 -0.00200891 0)
(0.102274 -0.00219408 0)
(0.103055 -0.00213363 0)
(0.100645 -0.00231079 8.85153e-26)
(0.101471 -0.002253 0)
(0.0989311 -0.00242206 -8.97882e-26)
(0.0998 -0.00236735 0)
(0.0971246 -0.00255988 -2.34872e-23)
(0.0980372 -0.00248876 2.34765e-23)
(0.09704 0.00221462 2.20255e-23)
(0.0957648 -0.00173178 0)
(0.0961888 -0.00264373 -4.77261e-23)
(0.0955143 -0.00078111 0)
(0.116641 0.000398227 0)
(0.116641 -0.000458809 -3.3295e-24)
(0.0956534 0.00124392 5.58209e-23)
(0.0960843 0.0022508 2.23166e-23)
(0.0947764 -0.00180801 1.20765e-23)
(0.0952331 -0.00273274 6.03123e-23)
(0.095457 0.000214116 0)
(0.116505 0.000609567 2.74863e-23)
(0.11668 0.000566149 -1.35674e-23)
(0.116784 -0.000271818 -6.58348e-24)
(0.116809 -0.000428733 3.27168e-23)
(0.0967375 0.00322425 7.82086e-23)
(0.095095 0.00228689 -4.39567e-23)
(0.0947965 0.00334724 -1.95853e-22)
(0.095773 0.00327831 -4.46488e-23)
(0.0985471 0.00309949 2.17815e-23)
(0.0976532 0.00316428 -6.65596e-23)
(0.100267 0.00296612 -2.22856e-23)
(0.0994191 0.00303413 -1.68093e-23)
(0.101911 0.00282898 -5.55477e-24)
(0.101102 0.00290024 -5.55665e-24)
(0.103457 0.00268522 -4.28895e-26)
(0.102697 0.00275829 0)
(0.104911 0.0025345 0)
(0.104195 0.00261053 0)
(0.106277 0.00237915 0)
(0.105605 0.00245733 0)
(0.107555 0.00222088 0)
(0.106927 0.00230018 0)
(0.108742 0.00206232 0)
(0.108159 0.0021415 0)
(0.109838 0.00190366 0)
(0.109301 0.0019831 0)
(0.110845 0.00174729 5.38208e-29)
(0.110353 0.00182527 0)
(0.111768 0.00159208 0)
(0.111317 0.00166909 0)
(0.112608 0.00144321 3.48081e-26)
(0.112199 0.0015168 0)
(0.113367 0.00130096 0)
(0.112998 0.00137124 0)
(0.11405 0.00116597 0)
(0.113718 0.00123251 0)
(0.114661 0.00103908 0)
(0.114364 0.00110147 0)
(0.115206 0.000920852 0)
(0.114942 0.000978869 0)
(0.11569 0.000811017 0)
(0.115455 0.000864994 0)
(0.116121 0.000705901 3.68577e-24)
(0.115912 0.000757767 -1.85555e-24)
(0.116319 0.000656583 -1.40306e-23)
(0.116772 4.97203e-05 -3.11813e-24)
(0.116809 0.000368873 1.30287e-23)
(0.116784 0.000209538 -9.97727e-24)
(0.116771 -0.000111588 0)
(0.116319 -0.000715703 -1.04207e-23)
(0.116681 -0.000625774 -3.00121e-23)
(0.116505 -0.000669776 2.42077e-23)
(0.11591 -0.000817115 0)
(0.116121 -0.00076457 0)
(0.115451 -0.000923162 -4.39089e-29)
(0.115688 -0.00086804 0)
(0.114935 -0.00103885 0)
(0.115201 -0.000979886 0)
(0.114356 -0.00116433 -6.4521e-26)
(0.114654 -0.00110032 0)
(0.113707 -0.00130013 0)
(0.11404 -0.00123096 0)
(0.112985 -0.00144594 0)
(0.113355 -0.00137183 0)
(0.112184 -0.00160104 7.066e-26)
(0.112594 -0.00152241 0)
(0.111303 -0.00176355 7.26361e-26)
(0.111754 -0.00168151 0)
(0.110335 -0.00193289 0)
(0.11083 -0.0018474 0)
(0.10928 -0.00210661 0)
(0.109819 -0.00201922 0)
(0.108137 -0.00228403 0)
(0.108719 -0.00219527 0)
(0.106903 -0.00246108 0)
(0.107531 -0.00237243 0)
(0.10558 -0.00263695 -8.27475e-26)
(0.106253 -0.00254938 0)
(0.104169 -0.00280888 0)
(0.104885 -0.00272355 0)
(0.102671 -0.00297505 0)
(0.10343 -0.00289277 0)
(0.101088 -0.00313425 -1.84028e-28)
(0.101889 -0.00305556 0)
(0.0994235 -0.0032854 2.12707e-28)
(0.100266 -0.00321093 0)
(0.0976814 -0.00343889 9.26826e-26)
(0.0985601 -0.00335882 0)
(0.0958613 -0.00361853 -4.86997e-23)
(0.0967794 -0.00352452 1.19801e-23)
(0.0942612 -0.00281756 1.22543e-23)
(0.0949393 -0.00371686 2.43532e-23)
(0.0946484 0.0012443 -2.18632e-23)
(0.0945022 -0.000843198 -2.33878e-23)
(0.116845 0.000525373 3.3158e-24)
(0.116846 -0.000586111 2.35809e-23)
(0.0940525 0.00229994 2.71127e-24)
(0.0937702 -0.00189126 0)
(0.0935766 0.00325245 3.00156e-22)
(0.0940058 -0.00381205 3.73659e-23)
(0.0932889 -0.00290358 4.99203e-23)
(0.0946485 0.00456125 -4.96565e-22)
(0.0941153 0.00474078 9.07908e-23)
(0.0944551 0.000185676 0)
(0.0958924 0.0043323 5.0119e-23)
(0.0951716 0.00447627 2.56098e-23)
(0.0975777 0.00414344 4.52674e-23)
(0.0967019 0.00422576 -6.89792e-23)
(0.0992869 0.00397095 -2.25486e-23)
(0.0984452 0.00406087 -1.12379e-23)
(0.100917 0.00379293 1.13001e-23)
(0.100111 0.00388193 1.14487e-23)
(0.102478 0.00360826 0)
(0.101704 0.00370062 -2.04421e-26)
(0.103959 0.00342005 0)
(0.103229 0.00351494 0)
(0.105357 0.00322622 4.17705e-26)
(0.104668 0.00332378 0)
(0.106672 0.00302763 0)
(0.106025 0.00312747 0)
(0.107904 0.00282571 0)
(0.107299 0.00292694 0)
(0.109049 0.00262285 0)
(0.108487 0.00272431 0)
(0.110108 0.00242057 3.78071e-26)
(0.109589 0.00252158 0)
(0.111082 0.00222085 6.00023e-29)
(0.110606 0.0023203 0)
(0.111974 0.00202486 0)
(0.111538 0.0021222 0)
(0.112786 0.00183569 -6.95668e-26)
(0.11239 0.0019293 0)
(0.113521 0.00165493 0)
(0.113163 0.0017442 0)
(0.114183 0.0014837 0)
(0.113861 0.00156807 0)
(0.114776 0.001323 0)
(0.114487 0.00140199 0)
(0.115304 0.0011735 0)
(0.115048 0.00124683 0)
(0.115775 0.0010351 0)
(0.115546 0.001103 0)
(0.116193 0.000906437 -1.84027e-24)
(0.11599 0.000968982 0)
(0.116564 0.000787188 0)
(0.116384 0.000845426 -3.56293e-24)
(0.116893 0.000678571 -5.59276e-28)
(0.116734 0.000731502 0)
(0.116964 0.00034147 -1.32097e-23)
(0.117043 0.000630865 7.96508e-25)
(0.116999 0.000488253 6.46032e-24)
(0.116929 4.35001e-05 4.7498e-24)
(0.116941 0.00019277 -3.2786e-24)
(0.116942 -0.000255743 -1.65079e-24)
(0.116929 -0.000106598 1.6477e-24)
(0.116999 -0.000550076 0)
(0.116965 -0.000403636 -1.50076e-23)
(0.116733 -0.00079227 -6.7497e-24)
(0.117043 -0.000695567 -1.28964e-23)
(0.116894 -0.000741733 2.96368e-23)
(0.116383 -0.000904816 -3.55101e-24)
(0.116563 -0.000847063 0)
(0.115986 -0.00102894 0)
(0.11619 -0.00096506 0)
(0.115541 -0.00116215 -5.66323e-29)
(0.11577 -0.00109409 0)
(0.11504 -0.00130752 0)
(0.115297 -0.0012333 0)
(0.114477 -0.00146558 6.4521e-26)
(0.114766 -0.00138496 0)
(0.113848 -0.00163642 0)
(0.114171 -0.00154944 0)
(0.113148 -0.00181947 0)
(0.113507 -0.00172649 0)
(0.112373 -0.00201366 0)
(0.11277 -0.00191528 0)
(0.11152 -0.00221729 -1.05771e-28)
(0.111957 -0.00211443 0)
(0.110584 -0.00242893 0)
(0.111062 -0.00232224 0)
(0.109565 -0.00264619 0)
(0.110085 -0.00253694 0)
(0.10846 -0.00286704 0)
(0.109023 -0.00275647 0)
(0.107269 -0.00308824 0)
(0.107875 -0.00297766 0)
(0.105994 -0.00330763 8.27475e-26)
(0.106642 -0.00319836 0)
(0.104634 -0.00352245 0)
(0.105324 -0.00341577 0)
(0.103191 -0.00373055 0)
(0.103923 -0.00362746 0)
(0.101669 -0.00393029 -8.83229e-26)
(0.10244 -0.00383155 0)
(0.100071 -0.00412019 9.00257e-26)
(0.100879 -0.00402657 0)
(0.0983994 -0.00430109 -9.16354e-26)
(0.0992434 -0.00421156 0)
(0.0966667 -0.00448315 1.20292e-23)
(0.0975377 -0.00438845 -2.37388e-23)
(0.094899 -0.0046835 -1.20963e-23)
(0.0957837 -0.00458037 2.46039e-23)
(0.0930553 -0.00390038 3.02868e-25)
(0.0939971 -0.00478144 2.47714e-23)
(0.0936175 0.00122294 -2.2392e-23)
(0.0934854 -0.000889595 0)
(0.0930101 0.00225184 -2.15797e-22)
(0.0927576 -0.00194918 0)
(0.116954 0.000831195 -3.30891e-24)
(0.117098 0.000771812 2.42406e-24)
(0.117142 -0.000516154 -1.26411e-23)
(0.117184 -0.000649513 -1.43208e-23)
(0.0924404 0.00315467 -2.10759e-22)
(0.0923012 -0.00298336 -5.04087e-23)
(0.0931594 0.0046694 0)
(0.0956539 0.00541358 -5.74854e-23)
(0.0920993 -0.00398592 -2.47223e-23)
(0.093082 -0.00487192 3.74131e-23)
(0.094854 0.00541687 1.15476e-22)
(0.0934318 0.000156209 0)
(0.0970043 0.00519475 0)
(0.096305 0.00531394 -5.12639e-23)
(0.0985714 0.00498923 0)
(0.0977718 0.00509211 0)
(0.100162 0.00478093 0)
(0.0993718 0.00488455 1.16427e-23)
(0.101692 0.00456873 0)
(0.100934 0.00467586 0)
(0.103164 0.00434834 0)
(0.102435 0.00445916 0)
(0.104569 0.00412181 0)
(0.103875 0.00423602 0)
(0.105899 0.00388839 -4.17705e-26)
(0.105243 0.00400591 0)
(0.107153 0.00364924 0)
(0.106536 0.00376946 0)
(0.108328 0.0034061 0)
(0.10775 0.00352803 0)
(0.109422 0.00316142 0)
(0.108885 0.00328382 0)
(0.110436 0.00291756 -7.90325e-29)
(0.109939 0.00303928 0)
(0.111369 0.00267689 7.1427e-29)
(0.110913 0.00279668 0)
(0.112224 0.00244143 0)
(0.111806 0.00255836 0)
(0.113003 0.00221391 5.91759e-29)
(0.112623 0.00232655 0)
(0.113709 0.00199641 0)
(0.113365 0.00210382 0)
(0.114345 0.00179049 0)
(0.114035 0.00189193 0)
(0.114915 0.00159735 0)
(0.114638 0.00169227 0)
(0.115424 0.00141782 0)
(0.115177 0.00150587 0)
(0.115877 0.00125212 0)
(0.115658 0.00133328 0)
(0.11628 0.00109982 0)
(0.116085 0.00117433 0)
(0.116637 0.000959038 3.52839e-24)
(0.116464 0.00102703 3.61703e-24)
(0.116801 0.000892846 -6.75965e-24)
(0.117109 0.000315945 -6.4701e-24)
(0.117184 0.000586924 0)
(0.117142 0.000452329 -6.53572e-24)
(0.117075 3.80144e-05 0)
(0.117086 0.000177949 6.60315e-24)
(0.117087 -0.000241683 9.85748e-24)
(0.117075 -0.000102306 -3.3319e-24)
(0.11711 -0.000379323 -1.93799e-23)
(0.1168 -0.000954924 3.39975e-24)
(0.117099 -0.000834296 1.26011e-23)
(0.116954 -0.000895172 0)
(0.116462 -0.00108782 -7.06059e-24)
(0.116636 -0.00101993 7.08393e-24)
(0.11608 -0.00123414 0)
(0.116276 -0.00115974 0)
(0.115651 -0.0013933 -6.91106e-29)
(0.115872 -0.00131191 0)
(0.115168 -0.00156736 0)
(0.115416 -0.00147845 0)
(0.114626 -0.00175669 0)
(0.114905 -0.00166013 0)
(0.114021 -0.0019611 0)
(0.114332 -0.00185707 0)
(0.113348 -0.00217981 0)
(0.113694 -0.00206876 0)
(0.112604 -0.0024115 7.03753e-26)
(0.112985 -0.00229416 0)
(0.111785 -0.00265436 -7.25303e-26)
(0.112204 -0.00253168 0)
(0.110888 -0.00290641 0)
(0.111347 -0.0027794 0)
(0.109912 -0.00316498 0)
(0.11041 -0.00303504 0)
(0.108855 -0.00342737 0)
(0.109394 -0.00329596 0)
(0.107717 -0.00369031 0)
(0.108296 -0.00355894 0)
(0.106499 -0.00395091 0)
(0.107118 -0.00382111 0)
(0.105202 -0.00420618 0)
(0.10586 -0.0040794 0)
(0.103828 -0.00445355 -8.6077e-26)
(0.104525 -0.00433101 0)
(0.102381 -0.00469094 8.78248e-26)
(0.103113 -0.00457361 0)
(0.100863 -0.00491667 -8.9483e-26)
(0.10163 -0.00480538 0)
(0.0992803 -0.00512991 0)
(0.100079 -0.00502487 0)
(0.0976389 -0.00533038 0)
(0.098466 -0.00523152 0)
(0.0959578 -0.00552192 9.49914e-26)
(0.096805 -0.00542623 1.20872e-23)
(0.0942411 -0.00571694 -6.26862e-23)
(0.095099 -0.00561815 0)
(0.0921705 -0.00496925 -3.71899e-23)
(0.0933763 -0.0058148 -2.74003e-25)
(0.0925827 0.00119564 6.99226e-23)
(0.0924546 -0.000927679 0)
(0.117235 0.000716578 -1.25749e-23)
(0.117235 -0.000781641 -2.42976e-23)
(0.091881 0.00217965 -3.69498e-23)
(0.0921883 0.00407594 7.10467e-25)
(0.0913769 0.00307522 1.05385e-22)
(0.0917437 -0.00199297 0)
(0.0912993 -0.00303803 1.25898e-23)
(0.0937039 0.00537806 -1.06803e-22)
(0.0926642 0.00526222 9.18478e-23)
(0.091504 0.00423182 -9.05832e-23)
(0.0911295 -0.00405561 -3.77465e-23)
(0.0912412 -0.00505238 2.51241e-23)
(0.0925145 -0.00592198 2.46684e-23)
(0.092393 0.000126537 0)
(0.0967633 0.00617666 3.21027e-24)
(0.0949409 0.00625189 2.1355e-25)
(0.0958963 0.0062031 2.49701e-23)
(0.0981892 0.00598642 2.47834e-23)
(0.0974864 0.00609104 -2.49121e-23)
(0.0996671 0.00576221 4.57995e-26)
(0.0989146 0.00587531 0)
(0.101145 0.00553369 0)
(0.100411 0.00564849 0)
(0.102577 0.00529527 0)
(0.101867 0.00541605 0)
(0.103956 0.00504519 0)
(0.103274 0.0051715 0)
(0.105276 0.00478504 4.24476e-26)
(0.104624 0.00491638 0)
(0.106529 0.00451572 0)
(0.105911 0.00465142 0)
(0.107712 0.00423913 0)
(0.107129 0.00437821 0)
(0.108822 0.00395761 0)
(0.108276 0.00409883 0)
(0.109857 0.00367397 0)
(0.109349 0.00381589 0)
(0.110818 0.00339111 -3.77281e-26)
(0.110347 0.00353228 0)
(0.111704 0.00311192 8.29082e-29)
(0.11127 0.00325089 0)
(0.112516 0.00283906 0)
(0.112119 0.00297454 0)
(0.113256 0.00257532 6.93305e-26)
(0.112895 0.00270591 0)
(0.113928 0.0023231 0)
(0.113601 0.00244766 0)
(0.114534 0.00208429 0)
(0.114239 0.00220193 0)
(0.115078 0.00186035 0)
(0.114814 0.00197041 0)
(0.115565 0.00165225 0)
(0.115329 0.00175429 0)
(0.115998 0.00146041 0)
(0.115788 0.00155431 0)
(0.116383 0.00128461 5.75969e-26)
(0.116196 0.00137055 0)
(0.116724 0.0011235 -3.54381e-24)
(0.116558 0.0012025 0)
(0.117027 0.000975193 3.36441e-24)
(0.11688 0.00104749 0)
(0.117295 0.000841726 3.19882e-24)
(0.117165 0.000906975 -3.27677e-24)
(0.117313 0.000544416 6.32275e-24)
(0.117418 0.000781028 0)
(0.117362 0.00066554 9.41354e-24)
(0.117242 0.000292805 0)
(0.117273 0.000419561 0)
(0.11721 3.2919e-05 0)
(0.117221 0.000163519 0)
(0.117222 -0.000228395 0)
(0.117211 -9.81464e-05 0)
(0.117274 -0.000484832 1.28834e-23)
(0.117243 -0.000357649 3.19911e-24)
(0.11736 -0.000732017 3.16277e-24)
(0.117313 -0.00060936 2.52277e-23)
(0.117165 -0.000972319 1.6465e-23)
(0.117417 -0.000851408 3.14503e-24)
(0.117295 -0.000909687 -6.40024e-24)
(0.116879 -0.00111082 3.3862e-24)
(0.117026 -0.00103959 -2.03013e-23)
(0.116555 -0.00126383 -6.13103e-29)
(0.116722 -0.00118524 0)
(0.116191 -0.00143119 0)
(0.116378 -0.00134546 0)
(0.11578 -0.00161522 -8.14578e-29)
(0.115991 -0.00152107 0)
(0.115319 -0.00181666 0)
(0.115556 -0.00171376 0)
(0.114801 -0.00203572 0)
(0.115067 -0.00192402 0)
(0.114224 -0.00227199 0)
(0.11452 -0.00215177 0)
(0.113583 -0.0025245 0)
(0.113912 -0.00239632 0)
(0.112875 -0.00279172 -1.40616e-25)
(0.113237 -0.00265641 0)
(0.112096 -0.0030716 0)
(0.112494 -0.00293025 0)
(0.111244 -0.00336173 0)
(0.111679 -0.00321558 0)
(0.110318 -0.00365912 0)
(0.110791 -0.00350972 0)
(0.109317 -0.00396054 0)
(0.109827 -0.00380958 0)
(0.108241 -0.00426247 -8.02095e-26)
(0.108788 -0.00411167 0)
(0.10709 -0.0045615 0)
(0.107674 -0.00441258 0)
(0.105866 -0.00485428 0)
(0.106487 -0.00470889 0)
(0.104572 -0.0051378 8.6077e-26)
(0.105228 -0.00499738 0)
(0.103211 -0.00540954 -3.10162e-28)
(0.1039 -0.00527529 0)
(0.101786 -0.00566745 1.78632e-25)
(0.102506 -0.00554036 0)
(0.100304 -0.00590992 0)
(0.101052 -0.00579072 0)
(0.0987702 -0.00613552 0)
(0.0995432 -0.00602478 0)
(0.0971916 -0.00634169 -4.15355e-28)
(0.0979866 -0.00624163 0)
(0.0955754 -0.00653183 0)
(0.0963867 -0.00643822 0)
(0.093953 -0.00672884 -3.71352e-23)
(0.0947636 -0.00662859 0)
(0.0916393 -0.00601717 -2.4354e-25)
(0.0931421 -0.00683364 6.28631e-23)
(0.091498 0.00115143 0)
(0.0939976 0.00624392 1.44752e-22)
(0.0907953 0.00210769 2.526e-23)
(0.117365 0.000963967 -3.19281e-24)
(0.117482 0.000896889 0)
(0.117479 -0.000686305 3.07673e-24)
(0.117531 -0.00079561 -6.10299e-24)
(0.0914165 -0.000960265 0)
(0.0907164 -0.00202673 0)
(0.0904542 0.00316003 0)
(0.0902884 -0.00308115 -1.23999e-23)
(0.0901487 -0.00412393 -2.48618e-23)
(0.090303 -0.00513759 0)
(0.0907526 -0.00610875 6.36924e-23)
(0.092317 -0.00693105 -5.07023e-23)
(0.0913352 9.52879e-05 0)
(0.096423 0.00705988 -1.19889e-26)
(0.0929894 0.00619913 4.53516e-23)
(0.0946875 0.00714375 -1.61526e-22)
(0.0955588 0.00711846 4.73677e-23)
(0.0980503 0.00691083 -1.54765e-23)
(0.0972458 0.00697093 -2.47573e-23)
(0.099466 0.00672093 0)
(0.0987758 0.00682675 0)
(0.100856 0.00648218 -4.57953e-26)
(0.100155 0.0066026 0)
(0.10223 0.00623485 0)
(0.101549 0.00636003 0)
(0.10356 0.00597282 0)
(0.102901 0.00610579 0)
(0.104842 0.00569584 0)
(0.104207 0.00583609 0)
(0.106068 0.00540559 -4.24476e-26)
(0.105462 0.0055523 0)
(0.107236 0.00510385 0)
(0.10666 0.00525601 0)
(0.10834 0.00479315 0)
(0.107796 0.00494946 0)
(0.109378 0.0044764 0)
(0.108867 0.00463535 0)
(0.110348 0.00415687 0)
(0.109872 0.00431679 0)
(0.111249 0.00383793 3.75343e-26)
(0.110807 0.00399713 0)
(0.112081 0.00352298 9.35721e-29)
(0.111674 0.00367977 0)
(0.112845 0.00321518 0)
(0.112471 0.003368 0)
(0.113543 0.00291758 -7.74715e-29)
(0.113202 0.00306494 0)
(0.114177 0.00263287 0)
(0.113867 0.00277348 0)
(0.114749 0.00236323 0)