/*--------------------------------*- C++ -*----------------------------------*\
  =========                 |
  \\      /  F ield         | OpenFOAM: The Open Source CFD Toolbox
   \\    /   O peration     | Website:  https://openfoam.org
    \\  /    A nd           | Version:  10
     \\/     M anipulation  |
\*---------------------------------------------------------------------------*/
FoamFile
{
    format      ascii;
    class       surfaceScalarField;
    location    "18.5";
    object      phi;
}
// * * * * * * * * * * * * * * * * * * * * * * * * * * * * * * * * * * * * * //

dimensions      [0 3 -1 0 0 0 0];

internalField   nonuniform List<scalar> 
57492
(
-0.00467102
0.000161356
0.00102256
0.00348711
0.0015147
-0.00338239
-0.00280333
-0.000814531
0.00244458
0.00849035
-0.0101204
0.038635
0.0296066
-0.00603391
-0.0622078
-0.0831265
0.0348179
0.0869437
0.0117747
-0.0111114
-0.0056077
0.00494447
-0.0213829
0.00605623
-0.00362994
0.0189566
0.00428743
-0.0138957
0.0132165
-0.0422791
0.0403129
-0.0112503
0.01135
0.0387341
-0.0368675
0.00975756
0.00207962
-0.00462658
-0.0072106
-0.00217752
0.0033119
0.00862318
-0.0069809
0.00562699
-0.000823616
0.000993624
-0.0058949
0.0271413
-0.023804
-0.0101846
0.00684728
0.00154687
0.0207358
0.00485862
-0.000723208
0.00525491
0.0343572
-0.0388889
-0.00467432
0.0338539
-0.0299027
0.00445386
-0.00908535
0.00463148
-0.0349714
0.0250326
0.0143926
-0.0457421
0.00544065
0.0334092
0.00689229
0.00819636
-0.0464895
-0.00744903
-0.000660615
0.00251675
-0.00256675
0.000710613
0.00242912
-0.00335957
0.000269835
-0.0360069
0.0385016
0.00348113
-0.0059758
-0.0558427
0.030449
-0.0106132
-0.0267692
0.0116499
0.0124141
0.00270519
-0.0183107
-0.00923344
0.000774959
-0.00844099
-0.0246715
0.029215
0.00389744
-0.00990858
0.00303664
-0.00156906
0.0123061
-0.00808211
-0.00745245
0.0032285
-0.0106448
0.00831651
0.0146343
-0.0164137
-0.0273754
0.0199018
0.0238873
-0.0309691
-0.00960423
0.0241597
-0.0173469
-0.00281234
0.0201593
-0.00570648
-0.0116405
-0.0259786
0.0336008
-0.0133286
0.00458581
-0.0159378
-0.0146266
-0.00952649
0.0155827
-0.00705465
-0.0378466
0.0203402
0.0175064
-0.0731478
0.0353012
0.0583733
-0.0176326
0.0125643
-0.0533049
0.0431673
0.00778257
0.00742345
-0.0152599
0.054406
-0.0567787
0.0233229
0.00424896
-0.0232845
0.0225128
-0.00281984
0.0272577
-0.00967405
-0.0201561
0.00257242
0.0306993
0.000807432
0.0178404
-0.0106685
0.0153409
0.00900469
0.0277923
-0.0426082
-0.00494074
0.00417943
0.0433695
-0.0439854
-0.00191758
0.00329481
0.00949834
0.041175
-0.0405149
-0.0101585
0.00648849
-0.0392692
-0.0259113
0.0447036
0.0371838
-0.0559762
0.00781492
0.0512351
-0.0849613
0.0012166
0.00343533
-0.000300712
-0.00435123
0.00333632
0.00350728
-0.00186408
0.00164108
0.00355932
0.00200864
-0.000437388
-0.00155932
0.00125861
-0.000234607
-0.00132472
0.100701
0.042841
-0.0691283
-0.074414
0.0355882
-0.0218219
0.086935
-0.0885446
0.0351553
0.0889775
0.0207847
-0.0664883
0.0129837
-0.0310578
0.024363
-0.0062888
0.0264746
-0.0313235
0.0178326
0.000876692
-0.000860395
0.000145059
0.00147606
0.000423192
0.00391103
0.00105213
-0.0338184
0.0619175
0.0299799
-0.058079
0.0400585
-0.0474023
0.024777
0.0571899
-0.0200495
0.133276
-0.0105588
-0.0394416
-0.0832755
0.0388806
0.0732526
0.0211426
0.0227122
-0.0512861
0.0674546
0.00152003
-0.00233456
0.00396461
0.0173677
0.0336182
-0.0139328
-0.0370531
0.023515
0.00234307
0.00252752
-0.00112588
-0.00140164
0.00270199
-0.000174466
-0.0769579
0.037518
-0.0280189
0.0674588
-0.0665343
-0.0339592
0.0235356
-0.0357649
0.0319702
-0.0627396
0.0367919
-0.000628514
-0.0183301
-0.0178332
-0.0145768
0.041529
0.00983968
-0.01792
-0.00180673
0.00514993
-0.0162984
-0.0022501
-0.0060504
-0.0285781
0.0199115
0.00258966
-0.00491953
-0.0175817
0.00532362
0.016433
-0.0018451
-0.0144298
-0.00297665
0.0227301
-0.0117559
-8.42404e-05
-0.0170481
0.000372606
-0.0151201
0.00906972
0.00207551
-0.0171956
0.00260342
9.85687e-05
0.0464941
0.0310441
-0.00327115
0.0174367
-0.0540691
-0.00313866
0.0358807
-0.0265333
-0.00620872
-0.00492628
0.0413924
-0.0396048
0.0336948
0.0158721
-0.00182346
-0.0477434
-0.0132459
0.00797877
0.0389619
0.0396933
-0.0370671
-0.0139212
-0.028584
0.0093498
0.0331554
-0.0131607
0.0330601
-0.0338206
0.00173087
-0.0434755
-0.00540945
-0.00451613
0.000100309
-0.000310137
0.00137412
0.000450711
0.000809249
2.11298e-05
-0.00114052
-0.00322721
0.000654071
-0.00495908
0.00709584
0.0018186
-0.00395536
0.0164604
-0.0145348
-0.00688459
-0.00703501
0.0175251
0.00597029
-0.00291418
0.00297501
-0.062298
0.0356212
0.0641949
0.0693422
-0.0248419
-0.0784596
-0.0306638
0.037708
-0.00246129
-0.0193743
-0.00283591
-0.0125757
0.000205844
0.00142049
-0.00336367
0.000572484
0.00137069
-0.0037342
0.00394987
0.00120482
-0.00801978
0.000921916
-0.00573176
-0.00814262
0.00129867
-0.0164241
-0.00868193
-0.0127789
-0.013378
0.0159298
0.0102271
0.000764156
0.00622998
-0.019773
-0.0176065
0.00499269
-0.0528619
0.0209509
-0.00306038
-0.0540455
0.00715966
-0.00597609
0.00218689
-0.0368576
0.0325568
0.00211399
0.00192055
-0.0340958
0.0343622
0.00242437
-0.11243
-0.0294127
0.0380212
0.0387589
-0.0472207
0.0363639
-0.00557545
0.00479597
-0.00777262
0.00459977
0.000196196
0.00715574
-0.00144502
0.0628396
-0.0375986
-0.0237098
-0.00153124
0.0524778
-0.00489811
0.0601481
0.00986935
-0.0622025
0.0270921
0.046458
-0.0134021
0.0111766
-0.0319157
0.0478312
0.000293711
0.00430606
0.0124912
-0.0389937
-0.041107
0.0238694
0.0496298
0.0137038
-0.000762942
-0.0143027
0.00136183
0.00449898
-0.00143995
-0.0178708
0.00341402
0.0227733
0.00283574
-0.0162075
-0.00296364
0.000333764
-0.00321559
-0.0018915
0.00476738
0.000339719
-0.00153126
0.000205469
-0.0018898
-0.00517945
-0.000927206
0.0045754
-0.0128395
0.0241318
-0.00868888
0.0598201
-0.0533979
-0.0192618
-0.000410452
-0.0237661
0.0275905
-0.0759855
-0.00167918
-0.0555675
-0.0288673
0.00844926
0.03199
0.0248662
-0.0514156
0.0192551
0.0469049
-0.03417
0.0178232
-0.032126
0.0188804
-0.0045776
0.0195106
-0.0311937
0.0295063
0.0444488
0.0138267
0.0454098
-0.000480837
-0.0451255
0.000196555
0.0503731
-0.004357
-0.000606365
0.0506982
-0.0075367
7.39016e-05
-0.0432354
0.0362856
-0.011928
0.0263406
0.040191
-0.0109098
0.00864824
-0.0379295
0.00980804
0.0407783
-0.0103953
-0.0365932
-0.0132876
0.038971
0.00776714
-0.0350105
-0.0140911
0.0339589
-0.0182147
-0.0309693
0.0162443
0.0329398
-0.0185078
-0.0315563
0.0318494
0.0169874
0.0298005
-0.0100307
-0.0367572
0.0294088
-0.0309292
-0.0199975
0.0200639
0.0293425
-0.0156635
0.0254665
-0.0390448
0.0344518
-0.00543766
-0.0503786
0.00447545
0.0512037
-0.00530056
0.0133254
-0.00139954
-0.0031335
0.00238419
0.00214885
-0.000316461
4.54191e-05
-0.0011285
0.00142321
-0.00428177
-0.000368649
-0.0170287
-0.0263734
0.0164444
-0.000259086
0.000464555
-0.000100497
-0.000158589
-0.00309462
-0.0297125
0.0221386
-0.0260828
-0.00264113
0.0256293
0.00183304
-0.0272445
-0.000671359
0.00941552
0.0193847
-0.00870477
-0.0200954
0.0107341
0.02132
-0.0226386
0.0277183
0.00240043
0.000301879
-0.000788583
-0.00402943
-0.000922528
0.00122441
-0.00171111
0.000342887
-0.000488504
0.00215426
-0.000332719
0.000675605
-0.000821223
0.00132731
-0.000134757
0.00123657
-0.00124645
0.00257376
-0.00138121
0.00183721
-0.000125699
-0.00462569
-0.000655181
0.00249239
-0.00078088
0.0162997
0.0326053
-0.0409262
0.0104312
-0.0415475
0.0474159
0.0482541
-0.0052176
-0.0131897
-0.0253928
0.0130587
0.0255237
-0.00655955
0.0273205
-0.0339506
0.00252558
-0.0344779
0.0261915
-0.027389
0.0178469
-0.0166493
0.0252308
0.0178554
-0.0168947
0.0180008
-0.0284375
-0.0169523
0.0248101
0.0167046
-0.016284
0.0249458
0.0157293
-0.015865
0.0137871
0.0254578
-0.0142991
0.0255147
-0.0253071
0.0135795
0.0102099
0.0269006
-0.0116528
0.0249234
0.0108011
-0.0246329
0.0150552
-0.024886
0.0169577
-0.0254773
0.0184467
-0.0270145
0.0193841
-0.0275138
0.0185
0.00796226
0.0283529
-0.00941451
0.0241113
0.00877433
0.018144
-0.0291819
-0.0173996
-0.0285392
0.0191694
0.0181104
-0.032073
-0.0152193
0.00661403
0.0288469
-0.00710808
0.0247164
0.00600893
-0.0305454
0.0201166
0.0294623
0.00398699
-0.00460239
0.00133325
0.0302475
-0.0021184
0.0254141
0.00328933
0.026208
0.000539379
0.0182188
-0.0325411
-0.0177507
-0.0316866
0.0193601
-0.00122418
0.0311247
0.000346974
0.0270799
-0.00209613
0.0189639
-0.033102
-0.018403
-0.0322144
0.0194917
-0.00364552
0.0320589
0.00271132
0.0279694
-0.00453503
0.0195123
-0.0336447
-0.0189697
-0.0327426
0.0200405
-0.00589505
0.0330841
0.00486985
0.0289082
-0.00683382
0.0201565
-0.0340202
-0.019781
-0.033027
0.0204409
-0.00787429
0.0340637
0.00689473
0.0297864
-0.00875246
0.0208165
-0.0344158
-0.020421
-0.0333634
0.021153
-0.00963827
0.0351235
0.00857842
0.0306919
-0.0105438
0.0215496
-0.0347234
-0.0212419
-0.0334186
0.0216048
-0.0110635
0.0360511
0.010136
0.0314694
-0.011841
0.0224068
-0.0338266
-0.0233036
-0.0329292
0.0219173
-0.0122831
0.0370589
0.0112753
0.0322661
-0.0130799
0.0231378
-0.0343065
-0.0226579
-0.0325204
0.022729
-0.0131686
0.0378871
0.0123405
0.0327448
-0.0136473
0.0240051
-0.0326739
-0.0256377
-0.0313283
0.022813
-0.012479
0.0374146
0.0129515
0.0343019
-0.0140361
0.0245208
-0.0322953
-0.0248994
-0.0306268
0.0238193
-0.0131684
0.0349972
0.0155858
0.0354195
-0.0142861
0.0252915
-0.0259732
-0.0316136
-0.0299007
0.0245653
-0.0148966
0.0149346
0.0349593
0.0355818
-0.015059
-0.0336445
0.0341163
-0.0253713
-0.0340542
-0.0255634
0.0259468
-0.0262225
-0.0313379
0.0246301
-0.028584
-0.0328815
0.0332866
-0.023063
-0.0244029
-0.0315922
0.0312955
-0.0209452
-0.0216093
-0.0309491
0.0305536
-0.0193855
-0.0200746
-0.0301062
0.0295787
-0.0178756
-0.0185222
-0.0289543
0.0304299
-0.016695
-0.0171262
-0.0292689
0.0279165
-0.0155998
-0.0162386
-0.0276786
0.0265276
-0.0157437
-0.0164114
-0.0247029
0.0237142
-0.0148762
-0.0144593
-0.0229264
0.0229142
-0.0116406
-0.0135113
-0.023125
0.0235122
-0.00749526
-0.00962532
-0.0240432
0.0246987
-0.00277385
-0.00513347
-0.0254454
0.026267
0.00188975
-0.000399755
-0.0271262
0.0280104
0.00601058
0.00401061
-0.0288841
0.0297383
0.00928175
0.00770474
-0.0305438
0.0313009
0.0115835
0.0104697
-0.031583
0.0333076
0.0138612
0.0126694
0.033986
0.0142561
-0.0154648
0.0153334
0.0350907
-0.0156288
0.0357458
0.0347648
-0.0338441
-0.0149567
-0.035538
0.0358354
-0.0153564
-0.0150593
0.033231
-0.0325201
-0.0137908
-0.0142605
0.0317239
-0.0308523
-0.0114155
-0.0126371
0.0299394
-0.0289918
-0.00778143
-0.0096653
0.0280501
-0.0271253
-0.00302095
-0.00547671
0.0262587
-0.0254615
0.0024922
-0.000327257
0.0247679
-0.0241932
0.00819954
0.00531533
0.0242104
-0.0240323
0.0134014
0.0108184
0.0244509
-0.0244469
0.0169537
0.0154737
0.0247193
-0.0251673
0.0198322
0.0187191
0.0262895
-0.0274196
0.0202996
0.0196222
0.0272216
-0.0279143
0.0200528
0.0199186
0.0284531
-0.0288478
0.0204352
0.0200305
0.0291152
-0.0292831
0.0213209
0.0207083
0.0293637
-0.0297261
0.0222797
0.0216854
0.0295386
-0.0296755
0.02295
0.0225415
0.02881
-0.0280127
0.0237681
0.0229538
-0.0267263
0.0233437
-0.0344329
-0.0258438
0.0344502
0.0148692
-0.0156353
0.0358419
0.0244521
-0.0249189
-0.0281173
0.0233834
-0.0256576
0.0254617
-0.0255277
-0.0343669
-0.030795
-0.034677
0.0338273
-0.0245215
0.0354204
-0.0358534
-0.0254108
-0.02482
-0.0330097
0.0326653
-0.0227186
-0.0235853
-0.0323447
0.0319799
-0.0205803
-0.0212887
-0.031578
0.0311386
-0.0189462
-0.0196727
-0.0306647
0.0301338
-0.0173447
-0.0180483
-0.0295294
0.028802
-0.0159676
-0.0165218
-0.0279574
0.0275122
-0.0151546
-0.015394
-0.0259635
0.0249729
-0.0147532
-0.0148626
-0.0248479
0.0237714
-0.0137997
-0.0143343
-0.0230193
0.0228491
-0.0114704
-0.0127592
-0.0229175
0.0231879
-0.00776569
-0.00969374
-0.0236227
0.0241975
-0.00334859
-0.00556824
-0.0248764
0.025641
0.00112512
-0.00107868
-0.0264563
0.0273087
0.00515814
0.00319535
-0.0281633
0.0290112
0.00843381
0.00685015
-0.0298213
0.0305942
0.0108106
0.00965962
-0.0313452
0.0325167
0.0126897
0.0119183
0.0147347
-0.0153315
0.0356875
0.0139856
0.0351992
-0.0331755
0.0342585
0.0137863
0.0135973
0.035932
-0.03571
-0.0155784
0.0357837
-0.015487
0.0150418
-0.0151363
0.0359364
0.0354562
0.0354346
-0.0349237
-0.0154676
-0.0153346
0.0342216
-0.033552
-0.0144604
-0.0149626
0.0327978
-0.0319562
-0.012257
-0.0133913
0.031058
-0.0301074
-0.00873207
-0.0105635
0.0291454
-0.0281815
-0.00398484
-0.00643871
0.027259
-0.0263875
0.00162066
-0.00124975
0.0256057
-0.0249257
0.00751954
0.00453353
0.0243877
-0.0240143
0.013028
0.0102804
0.02383
-0.024292
0.0174156
0.0152895
0.0243941
-0.024591
0.020029
0.0188212
0.0254475
-0.0259793
0.0208313
0.0204787
0.0267315
-0.0274101
0.0207313
0.0206708
0.0279534
-0.0283471
0.0208289
0.0205738
0.0285949
-0.0287217
0.0214478
0.0209561
0.0287452
-0.0286739
0.0222083
0.0217089
0.0285051
-0.0282347
0.0226796
0.0223727
0.0278548
-0.0265887
0.0225019
0.0225739
0.0257202
-0.02432
0.0219832
0.0224752
-0.0361578
-0.0252234
0.022288
-0.0234172
-0.0245285
-0.0231695
0.0211375
-0.0243872
-0.0271472
0.0139055
0.0343386
0.0360954
-0.0154479
-0.0243113
0.023678
-0.0337336
-0.0245301
-0.0359389
0.0202568
-0.0218467
-0.0229385
0.0193469
-0.0222596
-0.0315042
0.0336532
-0.0327356
0.0128687
0.0338215
0.0137371
-0.0145346
0.0145457
0.0359253
-0.014652
0.0362128
-0.0371163
0.0376177
-0.0250316
-0.0245292
0.0236788
-0.0350885
0.0384705
0.022211
-0.0168125
-0.0438691
-0.023175
-0.0375383
0.0369932
-0.0248658
-0.025144
-0.0362348
0.0350623
-0.023349
-0.0240616
-0.0344049
0.0334859
-0.0217995
-0.022928
-0.0330914
0.0326611
-0.02015
-0.0208942
-0.032205
0.0317224
-0.0184636
-0.0192166
-0.0312183
0.0306791
-0.0168055
-0.0175442
-0.0300889
0.0294063
-0.015285
-0.0159317
-0.0286131
0.0276854
-0.0142269
-0.0146008
-0.0266739
0.0256287
-0.013708
-0.0138511
-0.0246639
0.0238591
-0.012995
-0.0133695
-0.0232742
0.0229414
-0.0111376
-0.0121743
-0.0228612
0.0230047
-0.00790912
-0.0096136
-0.0233341
0.0238199
-0.00383434
-0.00589772
-0.0244242
0.0251268
0.000422519
-0.00168302
-0.025892
0.0267057
0.00434439
0.00243019
-0.0275332
0.0283657
0.00760139
0.00602264
-0.0291707
0.029947
0.0100344
0.00885453
-0.030807
0.0316998
0.0117969
0.0110583
0.0125615
0.0145194
-0.0143551
0.0355232
-0.014447
0.0138551
0.0349305
0.0352717
0.0356468
0.0366862
-0.036594
-0.0156707
-0.0366617
0.0362966
-0.0150829
-0.0154625
0.0361436
-0.0357255
-0.0158858
-0.015785
0.0352394
-0.0346368
-0.015063
-0.0154487
0.0339394
-0.0331421
-0.0130543
-0.0140888
0.0322726
-0.0313331
-0.0096715
-0.011433
0.0303636
-0.0293722
-0.00497615
-0.0074083
0.0284033
-0.0274664
0.00068379
-0.00221872
0.0266024
-0.0258236
0.00674077
0.00366954
0.0251684
-0.0246525
0.0125121
0.00962516
0.0243077
-0.0241579
0.0172658
0.0149447
0.0242279
-0.024519
0.0203201
0.0188913
0.0249958
-0.0256205
0.021456
0.0209556
0.0262965
-0.0269429
0.0213778
0.0213468
0.0274798
-0.0278738
0.0212228
0.0211108
0.0281113
-0.028209
0.0215455
0.0211936
0.0281851
-0.0280519
0.0220751
0.021685
0.0278152
-0.0274691
0.0223335
0.022136
0.0270131
-0.0264426
0.0219315
0.0221178
0.0252195
-0.0237189
0.0204826
0.0212521
0.0223389
-0.0212418
0.0182498
0.0197575
0.0171765
-0.0181559
-0.0212802
-0.0202991
0.0162338
0.0228578
-0.0329126
-0.0219133
-0.0270807
0.0136456
0.034031
0.0364736
-0.0148291
0.0222013
-0.0350788
-0.0179225
-0.0231719
0.0271653
-0.0270595
0.0276125
-0.0147308
0.0138194
-0.0193876
-0.0158047
-0.0202063
-0.0232118
0.036988
-0.0113758
-0.0136907
-0.0182258
-0.0305597
-0.036765
0.0392436
-0.0192911
-0.0160335
0.0162565
-0.0387278
0.0381678
-0.0244716
-0.0226592
-0.0377298
0.0367605
-0.0238965
-0.0247059
-0.0360782
0.0356042
-0.022875
-0.0233793
-0.034737
0.034293
-0.0213556
-0.0220607
-0.0338249
0.0333338
-0.0196589
-0.0204261
-0.0328289
0.0323076
-0.0179423
-0.0187116
-0.0317759
0.0312244
-0.016254
-0.0170125
-0.0306442
0.0300002
-0.014641
-0.0153514
-0.0292641
0.028402
-0.0133648
-0.0138647
-0.0274301
0.0263827
-0.0126606
-0.0128792
-0.025354
0.0244282
-0.0120692
-0.0123407
-0.0236958
0.0231995
-0.0106413
-0.0114419
-0.0229617
0.0229647
-0.00791211
-0.00937581
-0.0231764
0.0235634
-0.00422137
-0.00610944
-0.0240861
0.0247202
-0.000211615
-0.00220567
-0.0254292
0.0261975
0.00357603
0.00172121
-0.0269907
0.0277991
0.00679299
0.00522947
-0.0285909
0.0293628
0.00926251
0.00806276
-0.0302974
0.0311356
0.0109588
0.0101236
-0.0317841
0.0324864
0.0121664
0.011913
-0.0332211
0.0339774
0.0128893
0.0130024
0.0139332
-0.0139528
0.0349502
-0.0137605
0.0131868
0.034551
0.0342037
0.0142039
-0.0139136
0.0352329
0.0355227
0.0140608
-0.0142198
0.0360843
0.035794
0.0144873
-0.0147639
0.0367502
0.0364803
0.0374538
-0.0374313
-0.0151054
-0.0377567
0.0371418
-0.0141489
-0.015132
0.037411
-0.0372439
-0.0158379
-0.0154827
0.0370197
-0.0367029
-0.0162026
-0.0160091
0.0362879
-0.0357639
-0.015587
-0.0158637
0.0351373
-0.0343993
-0.0137922
-0.0147154
0.0335735
-0.0326602
-0.0105848
-0.0122588
0.0316969
-0.0306911
-0.00598196
-0.00837162
0.0296869
-0.0286944
-0.000308713
-0.00322293
0.027756
-0.0268828
0.00586765
0.00273113
0.0261145
-0.0254633
0.0118609
0.00885684
0.0249652
-0.0246413
0.0169419
0.0144466
0.0245212
-0.024615
0.0204139
0.0187711
0.0249118
-0.025381
0.0219252
0.0212523
0.0259459
-0.0265285
0.0219604
0.0219116
0.0270404
-0.0274292
0.0216116
0.0216226
0.0276621
-0.0277419
0.0216253
0.0214266
0.0276821
-0.0274977
0.0218907
0.0216252
0.0272005
-0.0267896
0.0219226
0.0218388
0.0262696
-0.025637
0.0212989
0.0215978
0.0249053
-0.024083
0.0196602
0.0205205
0.0226034
-0.0210823
0.0167286
0.0182779
0.0199708
-0.0190193
0.0128679
0.0151223
0.0110552
-0.0118464
-0.0185964
-0.0181469
0.0101828
0.0210539
-0.0317652
-0.0192497
-0.0257534
0.0212937
-0.0292072
-0.0156385
-0.0233382
0.0328775
-0.0325927
0.0126046
0.033469
0.0125952
-0.0137977
0.0137521
0.0367959
-0.0138253
0.0371693
0.0196507
-0.0253902
-0.0120384
-0.0200143
-0.00266864
-0.0311175
-0.0281558
0.0345116
-0.0177317
0.0082703
-0.00871487
-0.0181519
0.00730481
-0.0171814
-0.0246069
-0.0217748
-0.0287555
-0.0372357
0.0382524
-0.0203078
-0.0187575
-0.0389498
0.038299
-0.0238208
-0.0233566
-0.0373324
0.036988
-0.0235521
-0.0237393
-0.0365729
0.0361033
-0.0224054
-0.0229643
-0.0356004
0.0350744
-0.0208297
-0.0215578
-0.0345377
0.0339908
-0.0191121
-0.0198893
-0.0334418
0.0328864
-0.0173869
-0.0181626
-0.0323301
0.0317656
-0.0156895
-0.0164563
-0.0311901
0.0305762
-0.0140271
-0.0147758
-0.029897
0.02911
-0.0125778
-0.0131856
-0.0282072
0.0271974
-0.0116508
-0.0119764
-0.0261517
0.0251467
-0.0110642
-0.011295
-0.0242859
0.0236305
-0.00998593
-0.010581
-0.0232274
0.0230749
-0.00775966
-0.00897264
-0.0231528
0.0234276
-0.00449616
-0.00618737
-0.0238583
0.0244162
-0.000769509
-0.00263638
-0.0250626
0.0257793
0.0028593
0.00107487
-0.0265317
0.0273091
0.00601564
0.00447705
-0.02808
0.0288387
0.00850378
0.00729184
-0.0295612
0.0302488
0.0102711
0.00940113
-0.0313496
0.0317949
0.0117212
0.0108122
0.0122045
0.0136085
-0.0138869
0.0352285
-0.0130389
0.0132268
0.0343632
0.0347733
0.0132117
-0.0133638
0.035385
0.0348475
0.0132491
-0.0133819
0.0362171
0.0356793
0.0368504
0.0382399
-0.0383075
-0.0150378
-0.0378451
0.0375315
-0.0138354
-0.0147372
0.0382434
-0.0380341
-0.0160472
-0.0155467
0.0378957
-0.0376714
-0.0164268
-0.0161475
0.0373508
-0.0369186
-0.0160192
-0.0161843
0.0363764
-0.0357134
-0.0144553
-0.0152576
0.0349473
-0.0340764
-0.0114557
-0.0130249
0.0331348
-0.032129
-0.00698774
-0.00931322
0.0311027
-0.0300655
-0.00134586
-0.00424929
0.0290619
-0.0281019
0.00490758
0.00172754
0.0272263
-0.0264466
0.0110812
0.00798125
0.0258004
-0.0253063
0.0164478
0.0138004
0.0249982
-0.024891
0.0203068
0.018463
0.0249914
-0.0252808
0.0222146
0.0213527
0.0257022
-0.0261873
0.0224454
0.0223331
0.0266473
-0.0270165
0.0219808
0.0220827
0.0272437
-0.0273142
0.0216958
0.0216538
0.0272318
-0.0270097
0.0216686
0.0215427
0.0266644
-0.0262009
0.0214591
0.0214936
0.0256298
-0.0249514
0.0206205
0.0210267
0.024183
-0.0233327
0.0188099
0.0197521
0.0224304
-0.0214986
0.0157968
0.0173756
0.0201358
-0.0188034
0.0115354
0.0137596
0.0175606
-0.0167047
0.00644892
0.00893999
0.00433361
-0.00469632
-0.0168187
-0.0160111
0.00363998
0.0183152
-0.0287867
-0.0165823
-0.0248096
0.0130484
0.0336475
0.0374254
-0.0137192
0.017526
-0.0270824
0.0102258
-0.0355331
0.0131326
-0.028297
-0.0130027
-0.0223738
-0.00906183
-0.0196673
-0.0350332
-0.0206912
0.0134032
-0.0153993
-0.0330371
0.00848208
-0.030612
-0.00536897
-0.0174792
0.000666173
-0.00149236
-0.0159925
0.000464763
-0.0158096
-0.0270226
-0.0344813
0.0366822
-0.0199326
0.0360674
-0.0381559
-0.0186027
-0.0201887
-0.0383834
0.0394336
-0.021358
-0.0204587
-0.0392782
0.0389849
-0.0235275
-0.0232011
-0.0385887
0.0381113
-0.0230747
-0.0233431
-0.0375773
0.0370045
-0.0218326
-0.0224302
-0.0364147
0.0358148
-0.0202298
-0.0209679
-0.0352179
0.0346225
-0.0185167
-0.0192924
-0.034036
0.0334522
-0.0168031
-0.017576
-0.0328762
0.0323006
-0.015114
-0.0158802
-0.0317269
0.0311354
-0.0134356
-0.0142021
-0.0305056
0.0297941
-0.0118664
-0.0125557
-0.0289776
0.02804
-0.0107132
-0.0111598
-0.0270242
0.0259884
-0.0100284
-0.0102793
-0.0250348
0.0242383
-0.0091894
-0.0096275
-0.0236699
0.0233493
-0.007439
-0.00840428
-0.0232747
0.0234184
-0.00463984
-0.00611282
-0.023742
0.0242119
-0.00123941
-0.00295996
-0.0247871
0.0254455
0.00220099
0.000499651
-0.0261511
0.0268913
0.0052754
0.00377142
-0.0276351
0.0283759
0.00776302
0.00654807
-0.0290884
0.0297704
0.00958921
0.00868855
-0.0304063
0.031341
0.0107864
0.0101763
-0.0320439
0.0327066
0.0119418
0.0115016
-0.0326861
0.0333571
0.0123774
0.0126158
0.0131927
-0.0131517
0.0343222
-0.0128158
0.0119873
0.0341855
0.0340244
0.0132135
-0.0127264
0.0347414
0.0348352
0.0128696
-0.0129777
0.035493
0.0349907
0.0130461
-0.013074
0.036245
0.0357477
0.0130301
-0.0132354
0.0370012
0.0368066
0.0132935
-0.0130919
0.0372238
0.0372274
0.0383951
-0.0381767
-0.0140538
-0.0379181
0.0377038
-0.0128776
-0.0132422
0.0386067
-0.0386765
-0.0149679
-0.0143072
0.0387851
-0.0388028
-0.0160295
-0.0154382
0.0387575
-0.038632
-0.0165523
-0.0161928
0.0384133
-0.038084
-0.0163485
-0.016403
0.0376398
-0.0370671
-0.015028
-0.0157018
0.0363773
-0.035566
-0.012267
-0.0137147
0.034663
-0.0336733
-0.00797738
-0.0102162
0.0326394
-0.0315708
-0.00241443
-0.0052832
0.0305132
-0.0294757
0.0038701
0.000669896
0.0285013
-0.0276001
0.01018
0.00700687
0.026812
-0.0261531
0.0157889
0.0130123
0.0256608
-0.0253523
0.0199983
0.0179707
0.0252468
-0.0253371
0.0223049
0.0212472
0.0255872
-0.025941
0.0227992
0.0225832
0.0263174
-0.0266438
0.0223072
0.0224591
0.0268553
-0.0269196
0.0217601
0.0218652
0.0268263
-0.0265823
0.0214246
0.0214495
0.0262049
-0.0257039
0.020958
0.0211162
0.0250963
-0.024387
0.0199112
0.0204192
0.023597
-0.022736
0.0179489
0.018962
0.0218342
-0.020907
0.0148696
0.0164738
0.019982
-0.0190846
0.010638
0.0128347
0.0182448
-0.0172245
0.00542864
0.00810021
0.0163775
-0.0156335
-0.000279259
0.00279301
-0.00309829
0.00268379
-0.0153951
-0.015388
-0.00334385
0.0154724
-0.0267331
-0.0373832
-0.016172
0.013149
-0.0270988
0.0334518
-0.0329756
0.0119013
0.0337885
0.0116506
-0.0126421
0.0124639
0.037402
-0.0122961
0.0373578
-0.0139608
-0.0238515
-0.0100377
-0.021398
0.00952169
-0.0293366
-0.00583325
-0.019203
-0.00153816
-0.0174334
0.00259846
-0.0159072
-0.00628916
0.00621919
-0.0153252
-0.00644091
-0.0152362
-0.0255111
-0.0406419
0.0399208
-0.0178816
-0.0123586
0.0130279
-0.0380524
0.0411855
-0.0416639
-0.0118802
-0.0156283
-0.0385662
0.0394482
-0.0208145
-0.0188341
-0.040443
0.0410274
-0.0219424
-0.0214535
-0.0407213
0.0402845
-0.0230907
-0.022895
-0.0397505
0.0391465
-0.0224706
-0.0228092
-0.0385037
0.0378384
-0.0211673
-0.0217875
-0.0371719
0.0365087
-0.0195666
-0.0203014
-0.0358607
0.0352247
-0.0178807
-0.0186444
-0.034607
0.0340007
-0.0161968
-0.0169584
-0.0334097
0.0328263
-0.0145306
-0.0152892
-0.0322539
0.0316788
-0.0128604
-0.0136297
-0.0310886
0.0304454
-0.0112232
-0.0119655
-0.0297198
0.0288778
-0.0098712
-0.0104342
-0.0279333
0.0269183
-0.00901337
-0.00933479
-0.0259207
0.0250174
-0.00828611
-0.00862987
-0.0242983
0.0238053
-0.00694597
-0.00768515
-0.0235615
0.0235519
-0.00463029
-0.00586905
-0.0237467
0.0241109
-0.00160362
-0.00315477
-0.0246017
0.0251918
0.00161087
8.93247e-06
-0.0258432
0.0265401
0.0045785
0.00312002
-0.0272507
0.0279672
0.00704657
0.00583743
-0.0286634
0.0293369
0.00891571
0.00799235
-0.0299679
0.0305608
0.0101936
0.00954523
-0.0315183
0.0321568
0.0113033
0.010544
0.011797
0.0124075
-0.0126967
0.0346113
-0.0120725
0.0119692
0.0342888
0.0343594
0.0122628
-0.0123947
0.0348733
0.0344013
0.0124959
-0.0125641
0.0355613
0.0350919
0.0125973
-0.012595
0.0362426
0.035781
0.0122444
-0.012441
0.0371977
0.036456
0.0372503
0.0389253
-0.0391831
-0.013796
-0.0385922
0.0380371
-0.0123225
-0.0129091
0.0392632
-0.039296
-0.0149351
-0.0142271
0.0394389
-0.0395435
-0.0159248
-0.0152953
0.0395921
-0.0395694
-0.0165749
-0.0161443
0.039459
-0.0392419
-0.0165656
-0.0165135
0.0389078
-0.0384401
-0.0154957
-0.0160359
0.0378433
-0.0371097
-0.0130006
-0.0143115
0.0362634
-0.0353076
-0.00893313
-0.0110626
0.0342826
-0.0331976
-0.00349946
-0.00630826
0.0320991
-0.0309959
0.0027669
-0.000428558
0.0299329
-0.0289193
0.00916632
0.00594388
0.0279972
-0.0271803
0.014972
0.0120902
0.0265093
-0.0260019
0.0194909
0.0172997
0.0256865
-0.0255647
0.0221831
0.0209317
0.0256207
-0.0258119
0.0229905
0.0226392
0.0260705
-0.0263242
0.0225609
0.0227177
0.026501
-0.0265533
0.0218124
0.022042
0.0264559
-0.0262047
0.0211734
0.021352
0.0258132
-0.0252927
0.0204375
0.0207247
0.0246653
-0.0239402
0.0191862
0.0197918
0.0231422
-0.0222825
0.0170893
0.018164
0.0213914
-0.0204833
0.0139615
0.0155827
0.0195892
-0.0187301
0.00977889
0.0119406
0.0179363
-0.0172214
0.0047137
0.00730644
0.0163605
-0.0157287
-0.000911099
0.00193214
0.0154609
-0.0155443
-0.00635751
-0.00361163
-0.010745
0.00770515
-0.0275722
-0.0307542
-0.00919858
0.00947761
-0.0155152
-0.0158007
-0.00894224
0.0119644
-0.0255485
0.0122687
0.033489
0.0380816
-0.0123406
0.00738156
-0.040299
-0.00874654
-0.0110094
-0.0228798
0.00739731
-0.0380682
0.00945223
-0.0270294
-0.00680334
-0.0204279
0.00696406
-0.0285955
-0.00240043
-0.0183407
0.001938
-0.016773
0.00599643
-0.0156844
0.00943245
-0.01528
-0.0117079
0.0121588
-0.0159662
-0.0109878
-0.0165207
-0.0245561
-0.0442711
0.0435473
-0.0111565
-0.00657086
-0.0384326
0.00470453
0.0442388
-0.0418272
-0.00898242
-0.00877881
-0.0431687
0.0429268
-0.0176397
-0.0152498
-0.0428182
0.042354
-0.0203503
-0.0187256
-0.0422943
0.0425267
-0.0221748
-0.0213938
-0.0420548
0.0414647
-0.0225007
-0.0224231
-0.0407966
0.0400772
-0.0217513
-0.022141
-0.0393387
0.0385943
-0.0204228
-0.021049
-0.0378636
0.0371485
-0.0188514
-0.0195708
-0.0364593
0.0357912
-0.0172125
-0.0179553
-0.0351496
0.0345266
-0.0155737
-0.0163168
-0.0339256
0.0333384
-0.0139434
-0.0146883
-0.0327687
0.0322067
-0.0122984
-0.01306
-0.0316471
0.0310609
-0.010637
-0.011406
-0.0304205
0.0296835
-0.00913416
-0.0097938
-0.0288401
0.0278941
-0.00806742
-0.00849137
-0.026908
0.025948
-0.00732614
-0.00764377
-0.0251112
0.0244575
-0.00629227
-0.00684826
-0.0240369
0.0238538
-0.00444719
-0.00544849
-0.0238947
0.0241285
-0.00183743
-0.00319566
-0.024514
0.02502
0.00110488
-0.000376591
-0.0256054
0.02625
0.00393389
0.00253463
-0.0269202
0.0276058
0.00636097
0.00516721
-0.0282797
0.0289384
0.00825697
0.00731845
-0.0295607
0.0301475
0.00960682
0.00892295
-0.0306849
0.0315189
0.0104694
0.0100067
-0.0323255
0.0328284
0.0113984
0.0109903
-0.0327946
0.0331808
0.0118825
0.0116845
0.0123845
-0.0120592
0.0339635
-0.0120736
0.0116141
0.0336403
0.0337999
0.0121244
-0.0118328
0.0343197
0.0344246
0.0119462
-0.0120364
0.0349635
0.0345147
0.0120989
-0.0121326
0.0355949
0.0351545
0.0121359
-0.0121087
0.0362155
0.0357842
0.0120512
-0.0116749
0.0368215
0.0363984
0.0117619
-0.0117831
0.0374233
0.0373374
0.0123667
-0.0116284
0.0373433
0.0379414
0.0388172
-0.038861
-0.0122788
-0.0381683
0.038085
-0.0115451
-0.0116917
0.0391312
-0.0393621
-0.0135651
-0.0126389
0.0396048
-0.0398414
-0.0146984
-0.0139845
0.0400574
-0.0402454
-0.0157368
-0.0150793
0.040387
-0.0404688
-0.0164931
-0.0160027
0.0404704
-0.0403726
-0.0166634
-0.0165119
0.0401588
-0.0398099
-0.0158446
-0.0162497
0.0393223
-0.0386848
-0.0136381
-0.0147991
0.0379146
-0.0370122
-0.00983553
-0.0118328
0.0360143
-0.0349301
-0.00458375
-0.00730607
0.0338056
-0.0326506
0.00161195
-0.00155303
0.0315114
-0.0303966
0.00805155
0.00480465
0.0293504
-0.0283847
0.0140062
0.011044
0.0275427
-0.0268414
0.0187897
0.0164578
0.0263165
-0.0259757
0.0218423
0.0204068
0.0258205
-0.0258221
0.0229921
0.0224841
0.0259294
-0.0260762
0.0227078
0.0228249
0.0261907
-0.0262154
0.021837
0.0221565
0.0261114
-0.0258621
0.0209241
0.0212481
0.0254724
-0.0249513
0.0199164
0.020335
0.0243222
-0.0235976
0.0184615
0.0191626
0.0228051
-0.0219578
0.016242
0.0173715
0.0210866
-0.0202061
0.013081
0.0147114
0.0193484
-0.018531
0.00896152
0.0110829
0.0177828
-0.0171191
0.00404999
0.00655818
0.0165766
-0.0161896
-0.00129805
0.00138966
0.0158758
-0.0158293
-0.00640399
-0.00392548
0.0162613
-0.0170555
-0.0101937
-0.00851022
-0.00790289
0.00519142
-0.0248607
-0.0312597
-0.012536
0.0136382
-0.017623
-0.0186128
-0.0109786
0.00880643
-0.0249027
-0.00780063
-0.0218825
0.0032939
-0.0400112
-0.00510988
-0.0363948
0.00125604
0.000846881
-0.0342105
0.00596039
-0.0260257
-0.00333413
-0.0194942
0.0333406
-0.0326104
0.0111523
0.0332527
0.011702
-0.0109922
0.0107129
0.0376226
-0.0107553
0.0378481
0.00373221
-0.0271363
0.00116655
-0.0175693
0.00545796
-0.0162345
0.00930986
-0.0155618
0.012445
-0.0155662
0.0143264
-0.0166543
-0.00117889
-0.03798
-0.000852399
-0.041006
0.0435479
-0.00372085
-0.00196536
-0.0397268
0.000686134
-0.0132428
-0.0189724
0.0145922
-0.0117344
-0.0201213
-0.0365023
-0.00344306
-0.0235503
-0.0425914
0.0419324
-0.00832344
-0.00415329
-0.0438231
0.0452589
-0.0125923
-0.0106695
-0.045015
0.0445593
-0.0171841
-0.0150058
-0.0446965
0.0446035
-0.0202572
-0.0188628
-0.0443084
0.0438322
-0.0216986
-0.0210987
-0.0432104
0.0424858
-0.0217761
-0.0218013
-0.0417036
0.0408891
-0.0209367
-0.0213588
-0.0400731
0.0392659
-0.0196155
-0.0202331
-0.0384852
0.0377304
-0.0180966
-0.0187901
-0.0370105
0.0363189
-0.0165209
-0.0172354
-0.0356605
0.0350266
-0.0149398
-0.0156584
-0.0344204
0.0338332