/*--------------------------------*- C++ -*----------------------------------*\
  =========                 |
  \\      /  F ield         | OpenFOAM: The Open Source CFD Toolbox
   \\    /   O peration     | Website:  https://openfoam.org
    \\  /    A nd           | Version:  10
     \\/     M anipulation  |
\*---------------------------------------------------------------------------*/
FoamFile
{
    format      ascii;
    class       volVectorField;
    location    "0.5";
    object      U;
}
// * * * * * * * * * * * * * * * * * * * * * * * * * * * * * * * * * * * * * //

dimensions      [0 1 -1 0 0 0 0];

internalField   nonuniform List<vector> 
14667
(
(0.973258 0.118154 -2.1035e-19)
(0.918691 0.130388 -8.51072e-20)
(1.00534 0.0109704 1.52161e-22)
(1.00408 0.00746385 5.932e-23)
(1.00734 0.0101764 -2.73295e-22)
(0.942745 -0.0905522 -5.37573e-20)
(1.00497 -0.0872158 1.19362e-19)
(1.01176 0.0166039 1.12005e-22)
(0.991117 0.0092077 0)
(1.00814 0.00776834 2.65624e-22)
(0.978182 -0.0856335 -5.09364e-20)
(0.967702 -0.052166 2.80845e-20)
(0.955889 -0.0186082 -6.01437e-20)
(0.91329 -0.117111 1.79483e-19)
(0.991281 0.0201695 1.97352e-22)
(0.975407 -0.0644052 0)
(0.984258 -0.0299439 0)
(1.02885 -0.00851394 -5.69436e-22)
(0.840603 0.0494456 0)
(0.996549 -0.091403 0)
(1.00301 0.119678 -1.70425e-19)
(0.854418 0.0184298 1.11219e-19)
(0.983965 0.0286404 0)
(0.989309 0.0489686 1.20128e-20)
(0.812094 0.514314 3.11331e-20)
(1.09843 0.532736 1.09163e-19)
(0.758772 0.458004 5.69191e-20)
(0.422811 0.432642 -1.68738e-19)
(0.464097 0.404665 1.13882e-21)
(0.808299 0.0886695 1.8823e-20)
(0.853623 0.058447 -1.32792e-21)
(0.858335 0.0318579 -5.42993e-20)
(0.526857 -0.477357 -1.59099e-23)
(0.0268956 -0.188916 1.23751e-20)
(-0.122706 -0.131239 9.12171e-20)
(0.595057 -0.558928 -1.21656e-19)
(0.744115 -0.550897 -1.19383e-21)
(1.0108 -0.0584243 1.69448e-21)
(1.00292 -0.0239265 2.28562e-21)
(0.999355 -0.0132706 -5.73563e-23)
(0.981526 -0.0170398 0)
(0.966048 -0.00441399 -2.18129e-20)
(0.546176 -0.203314 5.88762e-19)
(0.60823 -0.0833863 -1.92263e-19)
(0.425801 -0.0537201 -1.33331e-19)
(0.35552 -0.256142 8.90503e-20)
(0.608994 -0.412824 -7.64395e-21)
(0.961523 -0.135165 4.7958e-20)
(0.97567 -0.130887 -1.57496e-20)
(0.946793 -0.108814 0)
(0.940068 -0.143193 0)
(0.721156 0.0171127 0)
(0.787636 0.00669444 0)
(0.841152 0.00231205 -9.36695e-20)
(1.24804 -0.0059563 -5.33144e-21)
(1.24705 0.061759 9.59721e-23)
(1.24821 -0.320304 1.06881e-20)
(1.26573 -0.236796 -2.93338e-21)
(0.852803 -0.195808 1.67802e-20)
(0.913308 -0.242588 -1.29526e-20)
(-0.0441127 0.0945627 1.20476e-19)
(0.0809705 0.136193 0)
(0.99795 -0.421493 -1.48476e-20)
(1.01716 -0.293887 -7.26121e-20)
(0.941291 -0.273982 -5.62401e-21)
(0.928081 -0.601576 -1.07966e-20)
(0.991658 -0.505025 6.05171e-20)
(0.502851 0.693914 6.51351e-20)
(0.864485 0.765101 -2.46108e-20)
(0.894289 0.0382068 4.8226e-20)
(0.913594 0.0189456 -4.57174e-20)
(0.91929 0.0465696 -4.91781e-20)
(0.146126 -0.00863695 0)
(0.154592 -0.244694 4.57671e-20)
(0.950266 -0.0956902 -1.71142e-20)
(0.969756 -0.0830055 -2.43266e-20)
(0.970924 -0.104687 8.0067e-20)
(0.977788 -0.119531 -5.00857e-20)
(0.903695 -0.000877053 2.57101e-19)
(0.891404 -0.0313705 1.90235e-22)
(0.992856 -0.0266998 -6.23859e-22)
(1.00024 -0.0178388 0)
(1.00803 -0.00485911 8.32275e-22)
(1.00909 0.00984165 7.93343e-23)
(1.01042 0.0068641 0)
(0.752091 0.16851 0)
(0.750693 0.0893768 5.30926e-20)
(0.921496 -0.190315 -8.63536e-21)
(0.961274 -0.183065 4.93244e-20)
(1.37002 0.360691 -1.52164e-20)
(1.32223 0.328261 7.42435e-21)
(1.00391 -0.00917837 -4.33905e-21)
(1.005 -0.00880697 8.62193e-21)
(1.018 0.00503565 -5.36052e-21)
(1.01525 -0.00661283 2.67764e-21)
(1.00865 -6.85925e-05 -8.05636e-21)
(1.00959 0.000347973 -5.96765e-21)
(1.00831 0.0030648 -2.2813e-21)
(1.00795 0.00199051 4.47647e-21)
(1.01095 0.00133932 -5.8312e-21)
(1.00745 0.00281865 2.30426e-21)
(1.43394 0.102241 4.86098e-21)
(1.30604 0.0968497 -4.2012e-21)
(0.93566 0.129753 8.43999e-21)
(0.910676 0.106718 -3.07193e-20)
(0.933688 0.0939205 4.05986e-21)
(0.951157 0.115505 3.95175e-21)
(0.949707 0.168413 2.68975e-20)
(0.956598 0.140168 4.04641e-22)
(0.998149 -0.0220746 9.77107e-22)
(0.850103 -0.00894632 -3.21883e-22)
(0.903713 -0.00477483 -1.80524e-21)
(0.99968 -0.0063829 0)
(1.00621 -0.0281809 2.68229e-21)
(1.01979 -0.0192536 -9.09611e-22)
(1.12128 0.0170082 3.64342e-20)
(1.12402 0.0281667 -8.04531e-20)
(1.11279 0.023232 0)
(1.04848 -0.0397857 -2.54321e-21)
(0.919204 -0.0436965 -1.10444e-21)
(0.985021 -0.0249371 -4.76193e-22)
(1.01803 0.00620561 2.37213e-21)
(1.01482 -0.00521574 -1.21951e-20)
(1.01364 -0.00458522 6.28268e-21)
(1.01189 -0.00167324 -7.55968e-21)
(1.0142 0.00467274 0)
(1.01693 0.00592907 -1.38376e-21)
(1.01379 -0.00564844 2.12347e-20)
(1.01297 -0.00187153 -1.06631e-20)
(1.01502 0.00702954 0)
(1.01451 0.00205612 0)
(1.01175 -0.00453747 0)
(1.01357 -0.00318804 1.12686e-20)
(1.01413 0.00523837 0)
(1.01213 0.00286454 0)
(1.01203 -0.00424051 -1.13237e-20)
(1.01321 -0.0045619 0)
(1.01177 0.00470808 0)
(1.01157 0.00454473 0)
(1.01293 -0.00511324 1.19536e-20)
(1.01357 -0.00538 -1.18672e-20)
(1.00837 0.00545189 0)
(1.00984 0.00513929 0)
(1.01389 -0.00505121 0)
(1.01412 -0.00390932 -1.25088e-20)
(1.00345 0.00605148 -2.93891e-24)
(1.00596 0.0060252 0)
(1.01346 -0.00171973 1.25904e-20)
(1.01156 0.000844706 0)
(1.0003 0.00274913 0)
(1.00111 0.00509653 0)
(1.00913 0.0021712 -1.27229e-23)
(1.00759 0.00145646 0)
(1.00457 -0.0017422 0)
(1.00193 9.74599e-05 0)
(1.00822 0.000513686 -1.90789e-20)
(1.01101 -0.000526866 1.67811e-20)
(1.00773 -0.00137446 1.69143e-21)
(1.00602 -0.00224096 0)
(1.01075 -0.000516342 0)
(1.0094 -0.00163101 0)
(1.00876 -0.000315546 2.92317e-21)
(1.00957 0.000633564 -1.82199e-21)
(1.01079 -0.000447008 -3.91218e-21)
(1.01001 0.000298019 -4.00375e-21)
(1.00929 -0.000411713 3.99495e-21)
(1.00953 -0.000921423 -3.96867e-21)
(1.00873 -0.000731176 -7.81647e-21)
(1.00992 -0.000211563 7.86554e-21)
(1.0195 0.00225074 3.63414e-22)
(1.01508 -0.00592497 -2.3407e-21)
(1.01024 0.000489024 6.52396e-25)
(1.0076 -0.00247371 -1.88107e-21)
(1.00929 -0.00248682 3.68416e-21)
(1.02071 0.000214144 2.86665e-23)
(1.00595 0.00777499 0)
(1.00448 0.00556155 2.57015e-21)
(1.0105 -1.39644e-05 1.86862e-21)
(1.01172 -0.000517775 9.58038e-21)
(1.01055 -0.000537283 -3.78415e-21)
(1.01133 0.00020653 -7.89474e-21)
(1.01042 0.000202582 8.13405e-21)
(1.01081 0.000467637 0)
(1.01229 0.00137584 0)
(1.01869 -0.00259881 1.2455e-23)
(1.01439 -0.00223162 0)
(1.02338 0.00176818 -6.08436e-24)
(1.02182 -0.000731767 0)
(1.021 0.0055034 0)
(1.02303 0.0041024 0)
(1.01586 0.00596794 -1.14163e-23)
(1.01845 0.00611332 0)
(1.01262 0.0053311 2.21836e-26)
(1.0145 0.00585293 0)
(1.01157 0.00461419 0)
(1.01279 0.0052668 0)
(1.01193 0.00341166 2.3176e-26)
(1.01101 0.00532184 0)
(1.01063 0.00384046 0)
(1.01013 0.00413782 0)
(1.00947 0.00747724 6.48937e-21)
(1.00335 0.00348621 2.43979e-21)
(1.01343 -0.00373215 -2.51668e-21)
(1.00925 -0.00263404 1.03127e-21)
(1.00721 -0.00229917 0)
(1.01092 -0.00645374 1.22519e-22)
(1.01138 -0.00460689 1.17952e-21)
(1.01236 -0.00439516 0)
(1.01167 -0.00513385 4.06358e-23)
(1.0125 -0.00523735 0)
(1.01196 -0.00581474 0)
(1.01272 -0.00564089 0)
(1.01229 -0.00542797 0)
(1.01316 -0.00503898 0)
(1.01276 -0.0053294 0)
(1.01479 -0.00318286 0)
(1.01375 -0.00419952 0)
(1.01565 -0.00120154 0)
(1.01559 -0.0020755 0)
(1.01455 -0.000725337 0)
(1.01525 -0.000680713 0)
(1.0104 -7.50944e-05 1.73349e-21)
(1.01252 -0.000817582 0)
(1.00948 -0.000393792 -9.11603e-22)
(1.01024 0.000418792 2.90618e-23)
(1.00847 0.000347195 3.87801e-21)
(1.00869 -0.00026479 0)
(1.00792 -0.000249012 1.00286e-20)
(1.02031 -0.000348118 1.4913e-21)
(1.01137 -0.00234118 -3.04874e-22)
(1.00992 0.0004195 -1.87752e-21)
(1.00983 0.000440044 4.06527e-21)
(1.01735 -0.00401988 0)
(1.01666 -0.00324294 -6.00158e-22)
(1.00386 0.00150651 -5.94305e-22)
(1.0092 0.000111363 0)
(1.0111 -0.00108702 1.84926e-21)
(1.01176 -0.00123923 1.5976e-21)
(1.01144 -0.00101879 0)
(1.01212 -0.00176286 7.62127e-21)
(1.01147 -0.000263942 -7.99232e-21)
(1.01315 0.00107917 0)
(1.01263 -0.000538549 -3.0654e-21)
(1.00918 -0.00271219 -1.24727e-23)
(1.0125 -0.000177669 0)
(1.00631 -0.00385862 9.63506e-27)
(1.00648 -0.00385078 0)
(1.00837 -0.00415356 5.88445e-24)
(1.00731 -0.00376285 0)
(1.01037 -0.00525145 3.12224e-26)
(1.00947 -0.00467319 0)
(1.01165 -0.00567887 -2.79221e-26)
(1.01123 -0.00541032 0)
(1.01249 -0.00566122 0)
(1.01223 -0.00552419 0)
(1.01348 -0.00592217 -2.50224e-26)
(1.01269 -0.00522294 0)
(1.01231 -0.00498379 0)
(1.01306 -0.00554531 0)
(1.01525 -0.00393321 -7.32789e-24)
(1.01404 -0.00484138 -3.28227e-22)
(1.01703 -0.00428094 -4.06361e-21)
(1.01209 -0.00151888 4.67532e-24)
(1.01433 0.00145043 -5.60876e-22)
(1.01506 0.00228505 -1.81883e-21)
(1.01473 0.00160587 -1.18495e-21)
(1.01562 0.00478277 -5.7176e-22)
(1.01516 0.00351443 6.00959e-22)
(1.01378 0.00385968 -2.45958e-24)
(1.01543 0.00468731 -3.89476e-23)
(1.01332 0.00486585 0)
(1.01382 0.00496465 0)
(1.01237 0.00477392 0)
(1.01298 0.00439127 0)
(1.01122 0.00478836 0)
(1.01187 0.00473474 0)
(1.00985 0.00502737 0)
(1.01049 0.00493953 0)
(1.00887 0.0049599 0)
(1.00927 0.00516052 0)
(1.00893 0.003124 0)
(1.00869 0.00426937 0)
(1.00937 0.000348978 0)
(1.00942 0.00182772 0)
(1.00898 -0.00113192 0)
(1.00882 -0.00102182 0)
(1.00941 -6.64656e-05 -8.85911e-22)
(1.00974 -0.000270139 8.6752e-22)
(1.00922 0.000671313 -5.82355e-21)
(1.00893 0.000346839 0)
(1.00871 9.22058e-05 4.14782e-21)
(1.00893 0.000281322 -6.1517e-21)
(1.00969 0.000450009 4.1863e-21)
(1.00853 0.000418234 -3.1465e-21)
(1.00847 9.15564e-05 1.06628e-21)
(1.0102 -0.000995507 3.76316e-23)
(1.00979 0.000546074 3.99564e-21)
(1.01011 0.000663241 2.64025e-23)
(1.00551 0.000432163 5.79248e-22)
(1.00963 0.000829291 0)
(1.00864 0.000709239 4.31969e-21)
(1.01545 -0.00220828 1.17489e-21)
(1.01036 -0.000603208 0)
(1.00961 0.00308707 1.21453e-21)
(1.00988 0.00176613 -6.27803e-24)
(1.01102 -0.000162947 0)
(1.0142 0.000934239 5.74406e-22)
(1.00946 -0.000449785 -7.36464e-21)
(1.00943 0.000254356 0)
(1.01021 -0.00133018 1.76573e-21)
(1.01096 -0.000349106 -2.22086e-21)
(1.01078 -0.000964704 -9.13943e-22)
(1.01168 -0.000428502 2.05737e-22)
(1.01115 -0.000447794 -1.81336e-21)
(1.01301 -0.00106904 6.12334e-23)
(1.01223 -8.94862e-05 -5.4564e-23)
(1.01288 0.0011448 0)
(1.01287 -0.00033109 -4.20096e-22)
(1.01439 -0.000478204 9.79873e-27)
(1.01387 0.000570909 0)
(1.01433 0.00114034 6.08372e-24)
(1.01431 -0.000130397 0)
(1.01454 0.00382102 -5.88445e-24)
(1.01451 0.00260146 0)
(1.01404 0.00492723 -1.53397e-26)
(1.01438 0.00463043 0)
(1.01314 0.00485683 1.41675e-26)
(1.01362 0.00499703 0)
(1.0123 0.00462217 0)
(1.0127 0.00472443 0)
(1.01161 0.00412628 -5.10876e-24)
(1.01187 0.00462631 0)
(1.01011 0.00486114 0)
(1.01092 0.00446014 0)
(1.0099 0.00511985 2.35204e-22)
(1.01005 0.00518176 -9.37218e-22)
(1.00981 0.00429354 -1.38157e-24)
(1.01867 -0.000223553 1.13301e-21)
(1.01156 5.22963e-05 0)
(1.01292 -0.00223437 -5.72045e-22)
(1.00948 -0.00166083 1.1776e-21)
(1.00976 -0.00120926 0)
(1.0105 -0.0028513 0)
(1.00977 -0.00214503 0)
(1.01112 -0.00400196 2.45987e-24)
(1.01114 -0.00354908 0)
(1.01189 -0.00398812 0)
(1.0116 -0.00387144 0)
(1.0123 -0.00424763 0)
(1.01213 -0.00431864 0)
(1.01278 -0.00430138 0)
(1.01255 -0.00433732 0)
(1.01349 -0.0038236 0)
(1.01308 -0.00411276 0)
(1.01455 -0.00273017 2.94923e-24)
(1.01399 -0.00335092 0)
(1.01512 -0.00107029 3.05068e-24)
(1.01497 -0.00192962 0)
(1.01435 -0.000174918 0)
(1.01498 -0.000426344 0)
(1.01138 0.000699923 0)
(1.01293 0.000117948 0)
(1.01019 0.00116888 0)
(1.01056 0.00119103 0)
(1.01002 0.000667125 -9.1801e-22)
(1.01004 0.00102842 0)
(1.00938 0.000298377 0)
(1.00983 0.00030934 3.79387e-21)
(1.00807 0.00054861 -5.15505e-21)
(1.0086 0.00023128 1.01839e-21)
(1.00789 0.00126765 2.19083e-21)
(1.00786 0.000751735 0)
(1.00958 0.000593818 4.0463e-21)
(1.00877 -5.99827e-05 4.58461e-21)
(1.00938 -0.00133601 -2.70859e-21)
(1.01445 0.000561021 0)
(1.01175 3.57414e-05 5.41716e-22)
(1.00979 0.000613176 -6.33493e-21)
(1.0085 0.0012154 -2.16738e-21)
(1.00915 0.000985337 0)
(1.0083 0.00164563 0)
(1.01038 0.0010456 -1.75261e-21)
(1.00795 0.00160926 -2.20325e-21)
(1.00904 0.000113493 1.8709e-21)
(1.00857 -0.0010785 2.73271e-21)
(1.00926 -0.00161868 2.71881e-21)
(1.01047 -0.00144012 -8.95468e-22)
(1.00986 -0.00152626 1.77612e-21)
(1.01116 -0.00154982 -1.32499e-21)
(1.01084 -0.00142053 2.63157e-21)
(1.0115 -0.00131803 1.35964e-23)
(1.01153 -0.00152288 0)
(1.01084 -0.00103095 -6.63862e-24)
(1.01123 -0.000972183 0)
(1.00987 1.16768e-05 0)
(1.00998 -0.000750401 0)
(1.01036 -0.00153127 -1.0009e-26)
(1.01057 -0.000255329 0)
(1.00851 -0.00339266 0)
(1.00922 -0.00271865 0)
(1.00909 -0.00399868 5.88774e-24)
(1.00858 -0.00373491 0)
(1.01044 -0.00450715 5.71149e-24)
(1.00976 -0.00424425 0)
(1.01162 -0.00484651 -5.51536e-24)
(1.01107 -0.00470662 0)
(1.01242 -0.00485549 0)
(1.01206 -0.00490226 0)
(1.01311 -0.00473351 -5.1082e-24)
(1.0128 -0.0047423 0)
(1.01363 -0.00391222 0)
(1.01331 -0.00436739 3.05275e-28)
(1.01507 -0.00306072 7.60375e-23)
(1.01444 -0.00368037 0)
(1.01668 -0.00240868 -5.94732e-22)
(1.01598 -0.00273359 6.15723e-22)
(1.01549 -0.00159598 2.3384e-21)
(1.01642 -0.00205004 6.03383e-22)
(1.01112 0.000559455 1.1488e-21)
(1.00736 1.90407e-06 -5.77291e-22)
(1.0144 -0.0015617 -5.59084e-22)
(1.01699 0.000133319 0)
(1.01134 0.000945001 0)
(1.01402 -0.00183915 -5.57392e-22)
(1.01359 0.00053313 -1.08839e-21)
(1.01492 0.000732435 -2.76108e-22)
(1.01439 0.000614769 -5.42363e-22)
(1.01477 0.00183788 0)
(1.01487 0.0013194 -2.8601e-22)
(1.01456 0.00309321 0)
(1.01484 0.00252753 0)
(1.01374 0.00349262 0)
(1.01421 0.00332108 0)
(1.01306 0.00390564 0)
(1.01339 0.00380646 0)
(1.01228 0.0040566 0)
(1.01269 0.00394471 0)
(1.01141 0.00409384 0)
(1.01187 0.00407997 0)
(1.01047 0.00399349 0)
(1.01094 0.00408209 0)
(1.00976 0.00351452 -2.94923e-24)
(1.01006 0.00382199 0)
(1.00975 0.0026288 -3.05068e-24)
(1.00963 0.00309103 0)
(1.01024 0.00165225 0)
(1.01002 0.00217922 0)
(1.01046 0.000705735 0)
(1.01037 0.00108078 0)
(1.0106 0.000118126 0)
(1.01055 0.000387722 0)
(1.01019 0.00059955 8.96098e-22)
(1.01051 0.00021541 0)
(1.00939 0.000723977 0)
(1.0098 0.000809488 0)
(1.00855 0.000908008 0)
(1.00894 0.000714788 -9.91455e-22)
(1.00847 0.00196167 4.37234e-21)
(1.00834 0.00132461 2.15423e-21)
(1.00848 0.00259298 -4.49522e-21)
(1.0147 -0.0012551 -2.86713e-21)
(1.00941 0.000410858 -1.01374e-21)
(1.00818 -0.000350176 -4.66665e-21)
(1.00924 0.00058343 2.06799e-21)
(1.00858 -0.00155675 -1.82961e-21)
(1.00773 -0.0009377 0)
(1.00867 0.00122814 -2.20451e-21)
(1.01211 0.00010857 2.17226e-21)
(1.01233 0.000370413 -5.30872e-22)
(1.01312 0.000484979 1.34239e-21)
(1.00792 0.00186937 -4.44668e-21)
(1.00744 0.00204275 2.259e-21)
(1.01135 0.000831194 0)
(1.01186 0.000704276 0)
(1.00813 0.0032762 -4.54979e-21)
(1.00875 7.02232e-05 1.20768e-23)
(1.00778 -0.00125914 -2.92e-23)
(1.0089 -0.00254062 2.91616e-23)
(1.00998 -0.00245719 -5.33277e-25)
(1.00954 -0.00236998 0)
(1.01041 -0.00238336 -1.1292e-21)
(1.01023 -0.00259329 0)
(1.01089 -0.00116873 0)
(1.01059 -0.001831 2.26459e-22)
(1.01107 -0.000270379 0)
(1.01109 -0.000627568 0)
(1.01125 9.67416e-05 0)
(1.01112 9.60546e-05 0)
(1.01177 0.000473141 -6.45239e-24)
(1.01134 0.000173853 0)
(1.01327 -3.19753e-05 1.25161e-23)
(1.01261 0.000350459 0)
(1.01372 0.000787124 0)
(1.01358 0.000103198 0)
(1.01374 0.0023833 -3.3894e-28)
(1.01377 0.00162907 0)
(1.01347 0.00332141 -5.6967e-24)
(1.01364 0.00295483 0)
(1.013 0.00362083 5.5026e-24)
(1.01325 0.00353642 0)
(1.01245 0.0036045 0)
(1.01273 0.00363713 0)
(1.01188 0.0034161 5.1082e-24)
(1.01219 0.00358553 0)
(1.01124 0.00343693 0)
(1.01153 0.00341836 -3.05275e-28)
(1.01073 0.00295582 0)
(1.01099 0.00320503 0)
(1.01076 0.00176185 5.85375e-22)
(1.01069 0.00235538 0)
(1.01103 0.00110323 -1.16057e-21)
(1.01171 0.000247084 0)
(1.01223 0.000514635 -5.62434e-22)
(1.01385 -0.000963504 1.13443e-21)
(1.00888 -0.000117254 -5.43507e-22)
(1.01358 -0.00115884 5.47748e-22)
(1.01544 0.000421765 0)
(1.01129 0.00121828 0)
(1.01467 0.000252491 0)
(1.01438 -0.0013081 0)
(1.0125 2.30849e-05 -1.62285e-21)
(1.01121 -0.000405203 0)
(1.01163 -0.000127986 0)
(1.01108 -0.00126149 0)
(1.01119 -0.000796756 0)
(1.01135 -0.00210798 -2.36684e-24)
(1.01116 -0.00170386 0)
(1.01171 -0.00272806 0)
(1.01154 -0.00246594 0)
(1.01209 -0.00299633 0)
(1.0119 -0.00286857 0)
(1.01243 -0.00312068 0)
(1.01226 -0.00310207 0)
(1.01277 -0.00303788 0)
(1.0126 -0.00311966 0)
(1.01311 -0.00264005 0)
(1.01294 -0.00288585 0)
(1.01339 -0.00185598 0)
(1.01327 -0.00229211 0)
(1.01337 -0.000792561 0)
(1.01342 -0.00133931 0)
(1.01297 0.000172905 0)
(1.01324 -0.000283645 0)
(1.01209 0.000996692 3.2482e-24)
(1.01256 0.000613215 3.93763e-28)
(1.01098 0.00142545 0)
(1.01159 0.00126117 0)
(1.0101 0.00171848 -1.89742e-27)
(1.01041 0.0015529 0)
(1.00968 0.00198846 0)
(1.00991 0.00191411 0)
(1.00967 0.00145929 -2.4094e-22)
(1.0096 0.00183939 9.31437e-22)
(1.00986 0.000941397 -4.06501e-21)
(1.00972 0.00114496 -1.7259e-21)
(1.01017 0.00210283 5.49155e-21)
(1.01 0.0013209 3.17374e-21)
(1.01076 0.0024156 6.84625e-21)
(1.00891 0.000332754 2.00512e-21)
(1.00785 -0.000153859 2.78556e-21)
(1.01303 0.000293458 7.78419e-22)
(1.01254 0.000488179 5.36253e-22)
(1.00872 0.000888196 0)
(1.00733 -0.000870047 1.88864e-21)
(1.008 0.0012234 -2.60185e-23)
(1.00817 -0.0024008 -1.18468e-22)
(1.00696 -0.00134826 1.1825e-22)
(1.00732 0.00161132 -4.4576e-21)
(1.00652 0.00159014 -2.29799e-21)
(1.01345 -0.00051153 -1.7378e-21)
(1.00631 0.00143646 -4.73804e-21)
(1.0093 -0.000721791 -6.84526e-23)
(1.0124 0.000332971 -5.41551e-22)
(1.01345 -0.000651845 0)
(1.00842 -0.000241217 0)
(1.00741 -0.00203571 4.79404e-21)
(1.00881 -0.00311885 -9.53859e-22)
(1.00965 -0.00251524 -1.87079e-21)
(1.0093 -0.00276727 1.88992e-21)
(1.0104 -0.00211752 -4.59341e-22)
(1.01001 -0.00236198 0)
(1.0104 -0.00142708 -2.25519e-22)
(1.01055 -0.00171036 0)
(1.00996 -0.00141673 0)
(1.01016 -0.0013676 2.26881e-22)
(1.00993 -0.001276 0)
(1.00986 -0.00143324 0)
(1.01048 -0.000991666 6.64756e-24)
(1.01018 -0.00104335 0)
(1.01082 -0.00109314 6.45239e-24)
(1.01064 -0.00104413 0)
(1.01107 -0.00182329 -1.25226e-23)
(1.01109 -0.0013574 0)
(1.0103 -0.00270942 -6.07535e-24)
(1.01068 -0.00230339 0)
(1.01033 -0.00330338 -5.8874e-24)
(1.01019 -0.00303634 0)
(1.01097 -0.00371173 6.86141e-27)
(1.01061 -0.00352604 0)
(1.01172 -0.0039261 -7.68521e-27)
(1.01135 -0.00384533 0)
(1.01236 -0.00390962 0)
(1.01206 -0.00394607 0)
(1.01294 -0.00367511 0)
(1.01266 -0.00380722 0)
(1.01357 -0.00312015 0)
(1.01323 -0.00345799 0)
(1.01436 -0.00248669 0)
(1.01401 -0.00277851 0)
(1.01488 -0.00156524 -5.88802e-22)
(1.01475 -0.00198213 0)
(1.01441 -0.000678417 -1.15947e-21)
(1.01489 -0.00104504 1.74492e-21)
(1.0138 -0.000533429 0)
(1.01201 8.66899e-05 0)
(1.01308 -0.000801282 -5.37823e-22)
(1.01017 -0.000161237 2.61088e-22)
(1.01313 -0.000932954 -2.63612e-22)
(1.01422 0.000655405 0)
(1.01147 0.00121274 0)
(1.01455 6.11758e-05 0)
(1.0143 -0.000617487 0)
(1.01295 -0.00020217 -9.12108e-22)
(1.01323 0.000400601 -5.19371e-22)
(1.01383 0.000261221 5.5539e-22)
(1.0136 0.000337402 5.40221e-22)
(1.01395 0.000883037 0)
(1.01392 0.000508279 0)
(1.01405 0.00161107 0)
(1.01408 0.00122172 0)
(1.01383 0.00233646 2.36684e-24)
(1.01397 0.00203022 0)
(1.01337 0.00283755 0)
(1.01362 0.0026264 0)
(1.01285 0.00317005 0)
(1.01311 0.00303348 0)
(1.01226 0.00333643 0)
(1.01256 0.00326538 0)
(1.01163 0.00335247 0)
(1.01195 0.00336032 0)
(1.01102 0.00319362 0)
(1.01132 0.00329754 0)
(1.01054 0.002805 2.95112e-24)
(1.01075 0.00303006 0)
(1.01038 0.0022375 3.05092e-24)
(1.01041 0.00253158 0)
(1.01052 0.00165301 0)
(1.01043 0.00193835 0)
(1.0108 0.00129649 -3.2482e-24)
(1.01066 0.00143372 -3.93763e-28)
(1.01091 0.00103298 0)
(1.0109 0.00116452 0)
(1.01058 0.00106768 -8.39494e-29)
(1.01078 0.000998676 0)
(1.01047 0.00120066 0)
(1.01048 0.00115097 0)
(1.00991 0.0010781 0)
(1.01032 0.00114927 0)
(1.00896 0.00144034 -1.02624e-21)
(1.00939 0.00120852 0)
(1.00959 0.00287732 0)
(1.00884 0.00194631 -6.18562e-24)
(1.0145 0.00495655 -1.11954e-21)
(1.01186 0.00406324 2.28984e-21)
(1.00745 -0.00267051 7.32014e-21)
(1.00901 0.00429724 2.40025e-21)
(1.01405 0.00503406 -4.57723e-21)
(1.00842 0.000282062 -9.89485e-22)
(1.00776 -0.000585355 -9.43026e-22)
(1.00792 0.000786849 0)
(1.00707 -0.000953271 -9.40502e-22)
(1.00746 0.00117084 1.04259e-21)
(1.00659 -0.00145983 1.93283e-21)
(1.00678 0.00144452 1.0904e-21)
(1.00805 -0.00313939 0)
(1.00657 -0.00196242 -3.84414e-21)
(1.00575 0.000684892 0)
(1.0068 -0.000735478 4.68e-21)
(1.00468 0.0046457 3.70228e-21)
(1.00802 -0.00109713 -3.76115e-21)
(1.01298 -0.000139062 2.18708e-21)
(1.00247 0.00898888 -1.21271e-20)
(1.01278 0.000271017 0)
(1.01253 0.000164475 1.06307e-21)
(1.01341 -0.000683532 5.2336e-22)
(1.01267 0.000440609 2.02789e-21)
(1.01299 0.000229428 -1.53467e-21)
(1.00291 0.0105132 -4.91992e-20)
(1.01318 -0.000185241 -5.35765e-22)
(1.00817 -0.000337905 0)
(1.00707 -0.00289275 -2.95642e-21)
(1.00796 -0.00421262 9.84361e-22)
(1.00934 -0.00321038 -1.90728e-21)
(1.00879 -0.00363409 1.92564e-21)
(1.0102 -0.00314099 -1.87714e-21)
(1.0098 -0.00310098 7.1667e-22)
(1.01014 -0.00257946 -4.6986e-22)
(1.01028 -0.00295362 9.42416e-22)
(1.01003 -0.00193344 0)
(1.01002 -0.00223876 0)
(1.01014 -0.00125035 0)
(1.0101 -0.00159247 0)
(1.01038 -0.000760149 0)
(1.0102 -0.000957998 0)
(1.0111 -0.000571669 -6.64756e-24)
(1.0107 -0.000631776 0)
(1.01192 -0.000346786 0)
(1.0115 -0.000499454 0)
(1.01268 -0.000187755 6.28975e-29)
(1.01234 -0.000240749 0)
(1.01307 0.000385118 2.91863e-27)
(1.01291 -1.30818e-06 0)
(1.01321 0.00133924 0)
(1.01317 0.000867157 0)
(1.01312 0.00206372 1.84121e-27)
(1.01319 0.00174428 0)
(1.01289 0.00243389 -1.42438e-27)
(1.01302 0.00228834 0)
(1.01259 0.00253792 0)
(1.01275 0.0025112 0)
(1.01225 0.00246789 0)
(1.01242 0.00253656 0)
(1.01188 0.00225431 0)
(1.01207 0.00240974 0)
(1.01161 0.00173677 -4.70506e-24)
(1.01177 0.00207636 0)
(1.01145 0.00068323 2.87407e-22)
(1.01152 0.00141057 0)
(1.01196 0.000352502 1.13744e-21)
(1.01163 0.000465259 -2.8987e-22)
(1.01254 8.94408e-05 -5.63976e-22)
(1.01205 5.93859e-05 -2.58374e-22)
(1.01259 -0.000790996 7.89295e-22)
(1.01125 -0.000229041 0)
(1.01289 -0.000765198 0)
(1.01354 0.000792401 0)
(1.01195 0.00107195 0)
(1.01428 2.83805e-05 0)
(1.01399 8.27188e-05 0)
(1.0131 9.40568e-05 -5.05553e-22)
(1.01311 -0.00045736 3.78368e-22)
(1.01293 0.000463994 -5.09948e-22)
(1.01226 6.31819e-08 -1.08016e-21)
(1.01266 0.00015405 -5.41624e-22)
(1.01201 -0.000399347 0)
(1.01209 -5.70989e-05 0)
(1.01188 -0.000884023 0)
(1.01192 -0.000680883 0)
(1.01196 -0.00144329 0)
(1.0119 -0.00120377 0)
(1.01213 -0.00183819 0)
(1.01204 -0.00166019 0)
(1.01233 -0.00204593 0)
(1.01223 -0.00195675 0)
(1.01253 -0.00208667 0)
(1.01243 -0.00208775 0)
(1.0127 -0.00193241 0)
(1.01262 -0.00203524 0)
(1.01283 -0.00155037 0)
(1.01278 -0.00177015 0)
(1.01284 -0.000939359 4.04415e-28)
(1.01286 -0.0012697 0)
(1.01266 -0.000190224 -2.84264e-28)
(1.01278 -0.00057036 0)
(1.01227 0.000530529 0)
(1.01249 0.000179439 0)
(1.0118 0.00117866 0)
(1.01203 0.000865823 0)
(1.0114 0.00170303 0)
(1.01159 0.00146526 0)
(1.01097 0.00188815 -6.889e-24)
(1.01121 0.00184664 0)
(1.01039 0.00187117 0)
(1.01069 0.00187101 0)
(1.0094 0.00221343 -4.73452e-22)
(1.00997 0.00199856 0)
(1.0082 0.00176519 3.85465e-24)
(1.00882 0.00220147 4.79182e-22)
(1.00614 -0.00022346 2.07038e-21)
(1.00731 0.000936202 -2.04323e-21)
(1.00435 -0.000909034 -2.22858e-21)
(1.00543 -0.000881172 -2.09736e-21)
(0.997059 0.00421565 -4.66878e-21)
(1.00104 0.000180118 4.57448e-21)
(0.998967 0.00921918 1.28089e-20)
(1.00775 0.000103405 2.49751e-22)
(1.00748 -0.0008695 -9.73104e-22)
(1.01292 1.52199e-05 -7.38813e-22)
(1.01279 0.000615154 4.9186e-22)
(1.00425 0.00340594 -9.19917e-21)
(1.00732 0.000630032 2.06858e-21)
(1.00691 -0.00111149 0)
(1.00673 0.00106937 2.12082e-21)
(1.00637 -0.00159751 -1.9337e-21)
(1.0063 0.00100332 -6.41359e-24)
(1.00619 -0.00220237 0)
(1.00639 -0.000444361 -2.26826e-21)
(1.00713 -0.00449613 -1.95519e-21)
(1.00602 -0.00286293 3.93253e-21)
(1.00912 -0.000493821 0)
(1.00632 0.00605635 -3.64664e-21)
(0.999352 0.00942982 4.5504e-21)
(1.01309 -0.000133207 5.37134e-22)
(1.00765 -0.000299974 0)
(1.00639 -0.00421819 0)
(1.00741 -0.00472799 4.96386e-22)
(1.00855 -0.00433231 -2.93526e-21)
(1.00813 -0.00435437 1.4693e-21)
(1.00927 -0.00415362 -9.80542e-22)
(1.00891 -0.00433721 9.8238e-22)
(1.00978 -0.00275751 0)
(1.00958 -0.00351179 2.45747e-22)
(1.00974 -0.001852 -6.51087e-28)
(1.0098 -0.0021854 0)
(1.00986 -0.00148054 0)
(1.00977 -0.00163391 0)
(1.01012 -0.00143521 0)
(1.00997 -0.00142111 0)
(1.01063 -0.00150435 0)
(1.01036 -0.00147416 0)
(1.01111 -0.00149839 6.651e-24)
(1.01089 -0.00150342 0)
(1.01136 -0.00153054 -6.45809e-24)
(1.01126 -0.00150423 0)
(1.01142 -0.00179474 1.25285e-23)
(1.01143 -0.00162579 0)
(1.01119 -0.00220916 -1.51211e-27)
(1.01132 -0.00199815 0)
(1.01119 -0.00260703 5.88119e-24)
(1.01114 -0.0024162 0)
(1.0115 -0.00289961 5.68799e-24)
(1.01132 -0.00276912 0)
(1.01194 -0.00304415 -1.9585e-27)
(1.01171 -0.00299076 0)
(1.01238 -0.0030225 0)
(1.01216 -0.00305396 0)
(1.01281 -0.0028309 0)
(1.0126 -0.00294275 0)
(1.01325 -0.00245635 0)
(1.01302 -0.00266599 0)
(1.01367 -0.00189999 4.70506e-24)
(1.01349 -0.00222136 0)
(1.01394 -0.00119689 0)
(1.01388 -0.00166066 0)
(1.0138 -0.000701211 -4.30753e-24)
(1.01378 -0.000944508 0)
(1.0138 -0.000110763 5.42836e-22)
(1.01394 -0.000456457 0)
(1.01331 0.000238401 -5.22514e-22)
(1.01351 0.000131298 -1.08357e-21)
(1.01288 -7.53143e-05 -1.0394e-21)
(1.01263 -2.58167e-05 -6.42088e-24)
(1.01327 -0.000632579 -1.02733e-21)
(1.01199 -2.98751e-05 0)
(1.01246 -0.000713722 -2.47737e-22)
(1.01213 -0.00019284 0)
(1.01269 -0.00049449 0)
(1.01328 0.000773586 0)
(1.01252 0.000889828 0)
(1.01391 0.000109507 0)
(1.01363 0.000453538 0)
(1.01326 8.68209e-06 0)
(1.01301 -0.000432083 0)
(1.01324 0.000134955 9.46523e-22)
(1.01314 0.000348045 -1.98703e-21)
(1.01328 0.000112773 5.3127e-22)
(1.01315 0.000235867 0)
(1.01334 0.000542997 0)
(1.01332 0.000272868 5.09902e-22)
(1.01353 0.000837367 0)
(1.01346 0.00058436 0)
(1.01352 0.00133775 0)
(1.01351 0.00110938 0)
(1.01336 0.00182181 -2.36834e-24)
(1.01346 0.00160067 0)
(1.01308 0.00220283 0)
(1.01323 0.00202951 0)
(1.01272 0.00246638 0)
(1.0129 0.00234974 0)
(1.01232 0.0026079 0)
(1.01252 0.00255124 0)
(1.0119 0.0026238 0)
(1.01211 0.00263094 0)
(1.01151 0.00250505 0)
(1.0117 0.00258109 0)
(1.01122 0.00225402 -2.95153e-24)
(1.01135 0.00239454 0)
(1.0111 0.00191713 -3.05064e-24)
(1.01114 0.00209162 0)
(1.01111 0.00157551 0)
(1.01109 0.00173821 0)
(1.01118 0.00136767 0)
(1.01115 0.00144904 0)
(1.0112 0.00140082 0)
(1.01121 0.00134435 0)
(1.0111 0.00173047 6.88895e-24)
(1.01116 0.00153978 0)
(1.01075 0.00214456 0)
(1.01097 0.00194992 0)
(1.01053 0.0023318 0)
(1.01057 0.0022601 0)
(1.01059 0.00272346 1.52099e-27)
(1.01059 0.00243774 0)
(1.00915 0.00468188 0)
(1.0102 0.00338942 0)
(1.00449 0.00769713 -7.05281e-24)
(1.00745 0.00650502 1.02286e-21)
(0.998323 0.007007 -2.1535e-21)
(1.00047 0.00731163 2.122e-21)
(1.00076 0.00724791 2.12472e-21)
(1.01327 8.31159e-05 1.56561e-21)
(1.00716 7.13585e-06 -2.49588e-22)
(1.00723 -0.000919813 0)
(1.00652 -0.00527277 -2.69693e-22)
(1.0056 -0.00416654 1.59475e-23)
(1.00655 0.000448121 -2.04467e-21)
(1.00668 -0.00139366 0)
(1.00608 0.000629436 -1.58871e-21)
(1.00624 -0.00181892 0)
(1.00626 2.14604e-05 2.16852e-21)
(1.00596 -0.00248368 0)
(1.00826 0.000114343 2.23955e-21)
(1.00523 -0.00331216 0)
(1.0078 0.00408814 5.8414e-21)
(1.00142 0.0106343 -2.30721e-21)
(1.00547 0.0020199 -1.81806e-21)
(1.00275 0.00207966 3.40052e-20)
(1.00789 0.0095575 -4.54016e-21)
(1.01302 -5.48762e-05 -5.21038e-22)
(1.01316 0.00028329 3.98866e-21)
(1.01286 0.000270663 9.56561e-22)
(1.0132 7.3671e-06 1.56091e-21)
(1.01323 0.000413762 0)
(1.00721 -0.000409793 0)
(1.00568 -0.00565898 1.02559e-21)
(1.00645 -0.00599854 3.56572e-21)
(1.00807 -0.00558655 -2.48813e-21)
(1.00734 -0.00575387 -3.84418e-21)
(1.009 -0.00489508 -9.77076e-22)
(1.00865 -0.00538966 2.26194e-21)
(1.00921 -0.0035837 -9.99014e-22)
(1.00914 -0.00417051 1.9848e-21)
(1.00909 -0.00312215 0)
(1.00915 -0.00329785 0)
(1.00943 -0.00252867 -6.88089e-28)
(1.00921 -0.00286633 0)
(1.00997 -0.00203745 0)
(1.00969 -0.00223317 0)
(1.0106 -0.00175329 0)
(1.01029 -0.00189165 0)
(1.0111 -0.00151021 0)
(1.01087 -0.00162827 0)
(1.01151 -0.00125612 -6.651e-24)
(1.01131 -0.00138438 0)
(1.01193 -0.000964007 6.45809e-24)
(1.01171 -0.0011206 0)
(1.01235 -0.000639799 -1.25293e-23)
(1.01215 -0.000801331 0)
(1.01266 -0.000177706 3.33608e-27)
(1.01252 -0.00044113 0)
(1.01285 0.000446469 -4.12126e-27)
(1.01277 0.000132223 0)
(1.01289 0.000989323 -5.6826e-24)
(1.01289 0.00073623 0)
(1.01283 0.00134715 -4.09997e-27)
(1.01287 0.00119239 0)
(1.0127 0.00151768 0)
(1.01277 0.00145167 0)
(1.01253 0.00153751 0)
(1.01262 0.00154744 0)
(1.01236 0.00141478 0)
(1.01244 0.00149351 0)
(1.01222 0.00111158 0)
(1.01228 0.00127414 0)
(1.01219 0.000654541 0)
(1.01219 0.000860277 0)
(1.01232 0.000215216 4.30651e-24)
(1.01224 0.000328085 0)
(1.01255 -4.39466e-05 -8.08879e-22)
(1.01238 -4.8124e-05 2.70552e-22)
(1.01283 -8.61189e-06 -8.00407e-26)
(1.00489 -0.00434628 -5.14196e-22)
(1.00481 -0.00626433 0)
(1.0056 -0.00624828 1.29635e-22)
(1.0127 -5.36822e-05 4.99324e-22)
(1.01319 0.00010053 -2.56863e-23)
(1.01305 -0.000181639 4.95431e-22)
(1.01267 -0.000122482 0)
(1.0131 -0.000727384 0)
(1.01208 -8.11832e-05 0)
(1.01249 -0.000633163 2.44989e-22)
(1.01273 -3.2933e-05 0)
(1.01263 -0.000125001 0)
(1.01319 0.000632746 0)
(1.01293 0.000716619 0)
(1.01346 0.000214884 0)
(1.01333 0.000503648 0)
(1.0134 0.000121698 0)
(1.01293 -0.000255285 0)
(1.01287 -0.000173096 2.44876e-22)
(1.01324 -0.000244176 6.13738e-23)
(1.013 0.00055337 -4.94327e-22)
(1.01282 0.000139284 -3.94689e-22)
(1.01314 0.000116138 -2.59637e-22)
(1.01263 1.76723e-05 0)
(1.01262 0.000106802 1.30652e-22)
(1.01245 -0.000244583 0)
(1.01253 -9.34638e-05 0)
(1.01239 -0.000535183 0)
(1.01241 -0.000374455 0)
(1.01239 -0.000830232 2.36834e-24)
(1.01238 -0.000687184 0)
(1.01245 -0.00104769 -2.46416e-24)