/*--------------------------------*- C++ -*----------------------------------*\
  =========                 |
  \\      /  F ield         | OpenFOAM: The Open Source CFD Toolbox
   \\    /   O peration     | Website:  https://openfoam.org
    \\  /    A nd           | Version:  10
     \\/     M anipulation  |
\*---------------------------------------------------------------------------*/
FoamFile
{
    format      ascii;
    class       volScalarField;
    location    "2";
    object      p;
}
// * * * * * * * * * * * * * * * * * * * * * * * * * * * * * * * * * * * * * //

dimensions      [0 2 -2 0 0 0 0];

internalField   nonuniform List<scalar> 
28942
(
-0.571722
-0.568585
-0.258512
0.250445
0.260204
-0.0194147
-0.00934966
-0.021116
0.0361297
0.0431709
-0.606428
-0.586348
-0.561578
-0.569183
-0.000926221
0.00204738
0.462181
0.485487
0.15839
0.23472
0.345479
0.348933
-0.548069
-0.556658
-0.557581
-0.579952
0.797241
0.813111
-0.0351458
-0.0183041
-0.0424821
-0.0381902
0.0380132
0.00285708
0.129199
0.180738
0.451373
0.586152
-0.0208604
0.464722
0.309441
0.337498
0.0831572
0.0825667
0.0816471
-0.0128283
-0.00843896
-0.00961085
-0.00889191
0.000916085
0.0152939
0.0665234
0.0676781
0.0427628
0.0510374
-0.455908
-0.362925
-0.546984
-0.544514
-0.533536
-0.543905
-0.560609
-0.559659
-0.183387
-0.28995
-0.146277
-0.0648443
0.436146
0.407455
-0.592958
-0.58654
-0.57956
0.431117
0.411581
0.427085
-0.327899
-0.321085
-0.235668
-0.229012
-0.295386
-0.200851
-0.351999
-0.653541
-0.705829
-0.0826805
0.0148498
0.0883688
0.0479235
-0.023956
-0.016675
0.024842
0.0498857
-0.570505
-0.63105
-0.574669
-0.533625
-0.507714
0.0455957
0.0992085
-0.746059
0.278819
0.280682
0.256776
0.263853
-0.0597517
-0.0522488
-0.0674754
0.180551
0.189604
0.191215
-0.548111
-0.547661
-0.574208
-0.561277
-0.560695
0.87902
0.809277
0.74739
0.825042
-0.0324087
0.126088
0.0597204
0.0556617
0.0386595
0.9249
0.937759
0.902483
0.0695365
0.112469
-0.0123582
-0.0125451
-0.0148528
0.446336
0.552133
0.236653
0.226944
0.30664
0.191717
0.341737
0.32504
-0.500469
-0.508402
0.131164
0.0797363
0.0800645
-0.301288
-0.313727
-0.272875
-0.517075
0.133187
0.140618
-0.0879818
-0.0271695
-0.0289655
-0.0220513
-0.0246204
0.215069
0.122296
-0.425671
-0.475585
-0.504614
-0.586391
-0.559821
-0.0123716
-0.550508
-0.515339
0.366698
0.3773
0.438022
0.415343
0.335668
0.0711097
0.0691828
0.0679239
0.0612581
0.155255
0.14214
0.1621
0.17435
0.171118
0.177716
0.189865
0.225524
0.206116
0.182586
0.203194
0.246998
0.302076
0.323522
-0.411327
-0.401114
-0.567324
-0.0131835
-0.00988697
-0.410451
-0.464271
-0.00276039
-0.00332719
-0.00566373
-0.00709581
0.0650848
0.0649477
0.0644542
-0.539909
-0.543058
-0.538896
-0.550337
-0.554379
-0.557438
-0.571019
-0.639418
-0.598603
0.864839
0.833599
0.878484
-0.0408084
-0.0296867
-0.0366807
0.47956
0.463319
0.471794
0.0488425
0.0481644
0.0495194
0.0474866
0.0468135
0.0461468
0.0461642
0.0454854
0.0455179
0.0468174
0.047489
0.0481659
0.04885
0.0495232
0.0448361
0.0448644
0.0502056
0.0502132
0.0509113
0.0441923
0.0442018
0.0509151
0.0435422
0.0428937
0.0435501
0.0429044
0.0515996
0.0516073
0.04225
0.0422625
0.0522934
0.0523081
0.0416103
0.0416222
0.052996
0.0530169
0.0409754
0.0409842
0.0537082
0.0537322
0.0403438
0.0403491
0.0544298
0.0544541
0.0397153
0.039718
0.0551624
0.0551773
0.0390888
0.0390916
0.0558938
0.0559043
0.0384653
0.0384677
0.0566446
0.0566459
0.0378418
0.0378403
0.0573931
0.0573922
0.0372237
0.037205
0.0581656
0.0581583
0.0365876
0.0365698
0.0589455
0.0589375
0.0359271
0.0359263
0.0581521
0.0589334
0.0597416
0.0597259
0.0566246
0.0573887
0.0551343
0.0558845
0.0536924
0.0544074
0.052279
0.0529845
0.0508751
0.0515756
0.0495174
0.050201
0.0481611
0.0488299
0.0468188
0.0474913
0.0454805
0.0461496
0.0441772
0.044826
0.0428801
0.0435276
0.0415971
0.0422362
0.0403277
0.0409609
0.0390701
0.0396971
0.0378257
0.0384452
0.0365696
0.0372044
0.0359305
0.0352777
0.0352774
0.0371979
0.0359346
0.0365703
0.0384565
0.0378284
0.0397092
0.0390822
0.0409741
0.0403398
0.0422522
0.0416118
0.0435404
0.042895
0.0448498
0.0441912
0.0461677
0.0455146
0.047488
0.0468275
0.0488381
0.0481592
0.0502085
0.0495241
0.0515913
0.0508909
0.0530024
0.0522939
0.0544377
0.0537173
0.0558939
0.0551625
0.0573815
0.0566309
0.058904
0.058136
0.0596913
0.0597275
0.0352849
0.0352886
0.0605347
0.0604918
0.0605304
0.0605463
0.0581263
0.0596877
0.0589004
0.0565999
0.0573592
0.0551248
0.0558572
0.0536902
0.0544037
0.0522757
0.052981
0.0508829
0.0515753
0.0495082
0.0501963
0.0481462
0.0488316
0.0468151
0.0474729
0.0454784
0.0461453
0.0441742
0.0448246
0.0428807
0.0435266
0.0415979
0.0422374
0.0403281
0.0409614
0.0390698
0.0396976
0.0378226
0.0384446
0.0365675
0.0371974
0.0346315
0.034642
0.035302
0.035938
0.0359455
0.0353154
0.0346521
0.034632
0.0371937
0.0365732
0.0384421
0.0378142
0.0396968
0.0390684
0.0409616
0.0403277
0.0422386
0.0415986
0.0435271
0.0428814
0.0448314
0.0441768
0.0461508
0.0454906
0.0474826
0.0468147
0.0488215
0.0481488
0.05019
0.0495083
0.051572
0.0508773
0.0529796
0.0522731
0.0544101
0.0536922
0.0558622
0.0551333
0.057342
0.0565978
0.0588563
0.0580942
0.0604243
0.0596349
0.0604875
0.061298
0.0612313
0.0613416
0.034672
0.0346674
0.061341
0.0612902
0.0621126
0.0620503
0.0613643
0.035318
0.034695
0.0340106
0.0340244
0.0612157
0.0620899
0.0627567
0.0620175
0.0596318
0.0604199
0.0580865
0.0588539
0.0565762
0.0573254
0.0551134
0.0558385
0.0536809
0.0543948
0.0522678
0.0529718
0.0508759
0.0515692
0.0495022
0.0501866
0.048148
0.0488231
0.0468058
0.0474743
0.0454765
0.046139
0.0441702
0.0448212
0.0428764
0.0435222
0.0415935
0.0422334
0.0403231
0.0409568
0.0390634
0.039692
0.0378136
0.0384372
0.0365647
0.0371883
0.0359406
0.0339994
0.0340316
0.0340116
0.0339981
0.0359426
0.034681
0.0353166
0.0371839
0.0365635
0.0384265
0.0378014
0.0396816
0.039053
0.0409466
0.0403128
0.0422229
0.0415833
0.0435113
0.0428655
0.0448134
0.0441606
0.0461292
0.0454695
0.0474603
0.0467931
0.0488032
0.0481296
0.0501674
0.0494838
0.0515484
0.0508552
0.0529521
0.0522474
0.0543782
0.0536624
0.0558269
0.0550997
0.0573007
0.0565606
0.0588042
0.0580482
0.0603482
0.0595707
0.0619625
0.0611461
0.0628788
0.0627871
0.0621535
0.0621595
0.0340618
0.0340454
0.0628935
0.0629405
0.0638304
0.0636239
0.0637111
0.0641626
0.0650695
0.0621731
0.0626788
0.0633717
0.0611651
0.0619527
0.0595819
0.0603682
0.0580456
0.0588068
0.0565511
0.0572952
0.0550962
0.0558194
0.0536648
0.0543782
0.0522534
0.0529565
0.0508623
0.0515555
0.0494906
0.050174
0.0481365
0.0488114
0.0467957
0.0474643
0.0454705
0.0461312
0.0441624
0.0448144
0.0428681
0.0435139
0.0415853
0.0422252
0.0403145
0.0409485
0.0390543
0.0396832
0.0378033
0.0384278
0.0365598
0.0371791
0.0353249
0.0359431
0.0340774
0.0347017
0.0334027
0.0334472
0.0334245
0.0333716
0.0333837
0.0333777
0.0333682
0.0334167
0.0333961
0.0346872
0.0334509
0.0340671
0.0359304
0.0353107
0.0371672
0.0365479
0.0384097
0.0377867
0.0396639
0.0390357
0.0409285
0.0402949
0.042204
0.0415649
0.0434917
0.0428463
0.0447926
0.0441406
0.0461062
0.0454477
0.0474348
0.0467688
0.0487782
0.0481045
0.0501391
0.0494565
0.0515186
0.0508264
0.0529189
0.052216
0.0543411
0.0536273
0.0557862
0.0550607
0.057256
0.056518
0.058752
0.0580005
0.0602807
0.0595118
0.0618631
0.0610629
0.0635176
0.0626841
0.0644735
0.0643648
0.0629649
0.0629721
0.0637269
0.0637725
0.034088
0.0334667
0.0327937
0.0328078
0.0647295
0.0645548
0.0655265
0.0642071
0.0653334
0.0652254
0.0650478
0.0629828
0.0627027
0.063456
0.061133
0.0619298
0.05954
0.0603306
0.0580148
0.0587705
0.0565286
0.0572681
0.0550742
0.0557979
0.0536434
0.0543562
0.0522338
0.052936
0.0508446
0.0515368
0.0494745
0.0501573
0.0481214
0.048796
0.0467827
0.0474501
0.0454593
0.0461192
0.0441511
0.0448033
0.0428567
0.0435024
0.0415744
0.0422141
0.0403036
0.0409376
0.0390433
0.0396723
0.0377925
0.0384168
0.0365524
0.0371706
0.0353227
0.0359349
0.0347043
0.0327804
0.0328202
0.0327972
0.0327511
0.0327681
0.0327608
0.0327537
0.0327744
0.034687
0.0334492
0.0340747
0.0359128
0.0353004
0.0371475
0.0365292
0.0383907
0.037768
0.0396438
0.039016
0.0409074
0.0402743
0.042182
0.0415433
0.0434685
0.0428237
0.0447679
0.0441167
0.0460801
0.0454224
0.0474063
0.0467415
0.0487481
0.0480752
0.0501064
0.0494251
0.0514831
0.0507923
0.0528798
0.0521789
0.0542978
0.0535861
0.0557386
0.0550152
0.0572041
0.0564682
0.0586961
0.0579468
0.0602168
0.0594526
0.0617778
0.0609913
0.063399
0.0625773
0.0650905
0.0642379
0.0660989
0.0659624
0.0637655
0.0637947
0.0328349
0.0328226
0.0646267
0.0655997
0.0655941
0.0646087
0.06541
0.0658535
0.066607
0.0664377
0.0662035
0.0669809
0.0668492
0.0637944
0.0642331
0.065895
0.0650532
0.0626764
0.0634557
0.0610811
0.0618864
0.0595004
0.0602828
0.0579822
0.0587355
0.0564992
0.0572371
0.0550451
0.0557687
0.0536162
0.0543278
0.0522092
0.0529101
0.0508223
0.0515134
0.049454
0.050136
0.0481024
0.0487762
0.0467658
0.0474322
0.0454439
0.0461031
0.0441363
0.0447883
0.0428424
0.0434878
0.0415606
0.0422001
0.04029
0.0409239
0.0390301
0.0396588
0.03778
0.0384038
0.0365399
0.0371587
0.0353112
0.0359237
0.0340883
0.0347005
0.0328398
0.0334714
0.0321952
0.0322088
0.0322013
0.0321709
0.0321822
0.032152
0.0321571
0.0321524
0.0321518
0.0321739
0.0321635
0.0322004
0.0321851
0.0334451
0.0322141
0.0328311
0.0346735
0.0340631
0.0358945
0.0352826
0.0371265
0.036509
0.0383689
0.0377465
0.0396211
0.0389938
0.0408836
0.0402511
0.042157
0.041519
0.0434421
0.0427981
0.0447397
0.0440894
0.0460501
0.0453933
0.0473743
0.0467105
0.0487136
0.048042
0.0500691
0.0493893
0.0514425
0.0507535
0.0528352
0.0521364
0.0542486
0.0535393
0.0556843
0.0549636
0.0571445
0.0564112
0.0586315
0.0578845
0.060148
0.0593859
0.0616981
0.0609187
0.0632923
0.0624878
0.0649474
0.0641129
0.0666782
0.0658037
0.0677391
0.0675686
0.0646092
0.0666817
0.0655545
0.0328473
0.0322302
0.0315781
0.0315886
0.064634
0.0654606
0.0664336
0.0662803
0.0670914
0.0678787
0.0686417
0.0684696
0.0646272
0.0658478
0.0675072
0.0675084
0.0666766
0.0641803
0.0650068
0.0625983
0.0633818
0.0610146
0.0618114
0.0594517
0.0602262
0.0579393
0.0586905
0.05646
0.057196
0.055009
0.0557311
0.0535833
0.0542933
0.0521794
0.0528788
0.0507952
0.051485
0.0494292
0.0501101
0.0480796
0.0487524
0.046745
0.0474105
0.0454247
0.0460831
0.0441183
0.0447698
0.0428251
0.0434702
0.0415439
0.0421831
0.0402738
0.0409075
0.0390143
0.0396428
0.0377648
0.0383883
0.0365252
0.0371438
0.0352966
0.0359093
0.0340766
0.034685
0.0334636
0.031579
0.0315901
0.0315853
0.0315644
0.031574
0.0315622
0.031562
0.0315558
0.0315604
0.0315619
0.0315581
0.0315687
0.0334392
0.0322156
0.0328296
0.0346497
0.0340436
0.035872
0.03526
0.0371033
0.0364865
0.0383446
0.0377228
0.0395957
0.038969
0.0408571
0.0402251
0.0421291
0.0414918
0.0434126
0.0427694
0.0447082
0.0440589
0.0460165
0.0453608
0.0473384
0.0466757
0.0486749
0.0480047
0.0500272
0.049349
0.0513969
0.0507098
0.0527852
0.0520887
0.0541936
0.0534869
0.0556237
0.0549059
0.0570776
0.0563476
0.0585578
0.0578143
0.060068
0.059309
0.0616115
0.0608355
0.0631927
0.0623969
0.0648181
0.0639998
0.0665034
0.0656506
0.0682699
0.0673782
0.0674066
0.067492
0.0693845
0.0691767
0.0655113
0.0316167
0.0315923
0.0683528
0.0654926
0.0684055
0.0664549
0.0663321
0.0672653
0.0671622
0.0679796
0.068777
0.069553
0.0703065
0.0700937
0.0655006
0.0674446
0.0692225
0.069136
0.0682878
0.0657547
0.0666016
0.0640936
0.0649124
0.0625054
0.0632928
0.0609389
0.0617241
0.059392
0.0601601
0.0578865
0.0586347
0.0564128
0.0571461
0.0549666
0.0556864
0.0535449
0.054253
0.0521446
0.0528423
0.0507635
0.0514518
0.0494002
0.0500798
0.0480529
0.0487246
0.0467205
0.0473849
0.045402
0.0460596
0.044097
0.0447479
0.0428048
0.0434494
0.0415243
0.0421631
0.0402549
0.0408883
0.038996
0.0396242
0.037747
0.0383703
0.036508
0.0371263
0.0352788
0.0358922
0.0340594
0.0346679
0.0328476
0.0334523
0.0316205
0.0322418
0.0309832
0.0309976
0.0309899
0.0309766
0.0309785
0.0309718
0.0309715
0.0309751
0.0309742
0.0309649
0.0309723
0.0309594
0.0309581
0.0309612
0.0309593
0.0309746
0.0309654
0.0322062
0.0309791
0.0315958
0.0334183
0.0328136
0.0346267
0.034022
0.0358472
0.0352356
0.0370777
0.0364613
0.0383178
0.0376966
0.0395677
0.0389416
0.0408278
0.0401965
0.0420983
0.0414617
0.0433801
0.0427378
0.0446736
0.0440254
0.0459795
0.045325
0.0472987
0.0466374
0.0486321
0.0479636
0.0499809
0.0493045
0.0513465
0.0506616
0.05273
0.052036
0.054133
0.0534291
0.055557
0.0548423
0.057004
0.0562775
0.0584763
0.0577368
0.0599775
0.0592231
0.0615115
0.0607402
0.063082
0.0622921
0.0646899
0.0638813
0.0663435
0.0655099
0.0680594
0.0671925
0.0698469
0.0689428
0.0684026
0.0684669
0.0710269
0.0707771
0.0664217
0.0663687
0.0700079
0.0701195
0.0693126
0.0673192
0.0672183
0.0316163
0.0310074
0.0303597
0.0303645
0.0681395
0.0680577
0.0688813
0.0696909
0.0704796
0.0712407
0.0708983
0.0707579
0.0716535
0.0719743
0.071718
0.0718198
0.0663902
0.0690286
0.0698995
0.0672998
0.0681482
0.0656304
0.06647
0.0639852
0.0647962
0.062408
0.0631912
0.0608541
0.06163
0.059322
0.0600838
0.0578253
0.0585695
0.0563586
0.0570885
0.0549182
0.0556353
0.0535011
0.0542069
0.0521049
0.0528006
0.0507273
0.0514139
0.049367
0.0500451
0.0480224
0.0486928
0.0466923
0.0473556
0.0453759
0.0460324
0.0440725
0.0447226
0.0427814
0.0434255
0.041502
0.0421403
0.0402333
0.0408663
0.0389751
0.039603
0.0377268
0.0383497
0.0364883
0.0371063
0.0352594
0.0358726
0.034041
0.0346488
0.0328329
0.0334352
0.0322275
0.0303734
0.0303818
0.0303767
0.0303763
0.0303759
0.0303856
0.0303811
0.0303886
0.0303885
0.0303787
0.0303857
0.0303625
0.030369
0.0303594
0.0303617
0.0303588
0.03219
0.0309797
0.0315875
0.0333913
0.0327881
0.0346009
0.0339951
0.0358202
0.0352092
0.0370495
0.0364337
0.0382885
0.0376679
0.0395372
0.0389116
0.0407957
0.0401652
0.0420647
0.0414289
0.0433445
0.0427032
0.0446358
0.0439887
0.0459391
0.0452859
0.0472554
0.0465956
0.0485854
0.0479186
0.0499303
0.049256
0.0512914
0.0506088
0.0526698
0.0519784
0.0540669
0.053366
0.0554843
0.054773
0.0569237
0.0562011
0.0583876
0.0576525
0.0598787
0.0591295
0.0614008
0.0606357
0.0629579
0.0621749
0.0645514
0.0637501
0.0661842
0.0653626
0.0678648
0.0670178
0.0696037
0.0687265
0.0714197
0.0704995
0.0710379
0.0726722
0.0729389
0.0736443
0.0733295
0.0723648
0.0693096
0.0694701
0.0673219
0.0672592
0.0303943
0.0303618
0.0702589
0.0682011
0.0681182
0.0690425
0.0689672
0.0698027
0.070621
0.0714225
0.0722007
0.0725716
0.07237
0.0732908
0.0729726
0.0739295
0.0743069
0.0735144
0.0727582
0.071974
0.0739177
0.0746274
0.0672893
0.0706055
0.0714769
0.068858
0.0697235
0.0671389
0.0679897
0.0654858
0.0663095
0.0638698
0.0646708
0.0623024
0.0630817
0.0607609
0.0615292
0.0592434
0.0599985
0.0577566
0.0584962
0.0562978
0.0570239
0.0548637
0.0555778
0.053452
0.0541553
0.0520603
0.0527538
0.0506868
0.0513714
0.0493298
0.0500063
0.0479881
0.0486571
0.0466606
0.0473227
0.0453464
0.0460019
0.0440448
0.0446941
0.0427552
0.0433985
0.0414769
0.0421147
0.0402092
0.0408417
0.0389517
0.0395792
0.0377041
0.0383267
0.0364661
0.0370839
0.0352377
0.0358507
0.0340192
0.0346273
0.0328108
0.0334138
0.0316089
0.0322096
0.0303942
0.0310022
0.0297763
0.0297828
0.0297789
0.0297761
0.0297735
0.0297872
0.0297788
0.0298014
0.0297957
0.0298036
0.0298039
0.0297951
0.029801
0.0297757
0.0297859
0.029761
0.0297693
0.0297524
0.0297548
0.0297474
0.0297508
0.0309612
0.0297442
0.0303567
0.0321645
0.0315655
0.0333625
0.0327622
0.0345719
0.0339661
0.0357907
0.0351801
0.037019
0.0364037
0.0382567
0.0376367
0.039504
0.0388792
0.0407611
0.0401314
0.0420283
0.0413934
0.043306
0.0426658
0.0445949
0.043949
0.0458955
0.0452437
0.0472085
0.0465504
0.0485349
0.04787
0.0498757
0.0492035
0.0512318
0.0505518
0.0526047
0.0519161
0.0539955
0.0532978
0.0554057
0.0546981
0.056837
0.0561186
0.0582917
0.0575613
0.0597721
0.0590285
0.0612814
0.0605229
0.062823
0.062048
0.0643998
0.0636069
0.0660143
0.0652022
0.0676699
0.0668367
0.0693703
0.0685142
0.0711259
0.070241
0.0720283
0.0701985
0.0703838
0.075281
0.0748927
0.0682166
0.068163
0.0711945
0.0691061
0.0690332
0.030385
0.0297789
0.0291375
0.0291286
0.0699628
0.0698943
0.0707424
0.071573
0.0723851
0.073166
0.0742267
0.0739523
0.0748681
0.0751754
0.0744863
0.0737222
0.0729375
0.0749123
0.0756231
0.0758649
0.0762708
0.0681949
0.0721545
0.0730536
0.0703967
0.0712704
0.0686516
0.0695193
0.0669688
0.0678024
0.0653395
0.0661495
0.0637455
0.0645378
0.062189
0.0629631
0.0606606
0.0614218
0.059157
0.0599055
0.0576808
0.0584155
0.0562305
0.0569526
0.0548036
0.0555143
0.0533978
0.0540982
0.0520111
0.0527022
0.0506419
0.0513245
0.0492886
0.0499634
0.0479502
0.0486177
0.0466254
0.0472862
0.0453136
0.045968
0.0440141
0.0446624
0.0427261
0.0433687
0.0414491
0.0420863
0.0401825
0.0408145
0.0389258
0.0395529
0.0376789
0.0383012
0.0364415
0.037059
0.0352135
0.0358263
0.0339951
0.0346032
0.0327868
0.0333896
0.0315887
0.0321851
0.0309898
0.0291729
0.0291717
0.0291737
0.0291821
0.0291773
0.0292046
0.0291933
0.0292187
0.0292133
0.0292209
0.0292211
0.0292135
0.0292186
0.0291938
0.0292052
0.0291689
0.0291815
0.0291498
0.0291584
0.0291438
0.0309376
0.029731
0.0303388
0.0321341
0.0315348
0.033332
0.0327316
0.0345406
0.0339351
0.0357587
0.0351485
0.036986
0.0363712
0.0382225
0.0376031
0.0394684
0.0388444
0.0407239
0.040095
0.0419891
0.0413553
0.0432647
0.0426256
0.044551
0.0439065
0.0458486
0.0451984
0.0471583
0.0465019
0.0484808
0.0478179
0.049817
0.0491472
0.051168
0.0504906
0.0525349
0.0518495
0.053919
0.0532248
0.0553215
0.0546179
0.0567442
0.0560302
0.0581889
0.0574637
0.0596578
0.0589202
0.0611536
0.0604022
0.062679
0.0619125
0.0642368
0.0634537
0.06583
0.0650288
0.0674616
0.066641
0.0691333
0.0682924
0.0708451
0.0699844
0.0726146
0.0717198
0.0744597
0.0735326
0.0768519
0.0763819
0.0754151
0.0711293
0.0713448
0.0691267
0.0690809
0.0291673
0.0291216
0.0721449
0.0700331
0.0699652
0.070901
0.0708407
0.0717026
0.0725473
0.0733685
0.0741553
0.0758112
0.0754832
0.0764121
0.0758817
0.0768312
0.0773625
0.0767898
0.0761536
0.0754625
0.0747205
0.0739321
0.0759303
0.0766317
0.0772781
0.0778464
0.0691117
0.0736647
0.0745697
0.0718893
0.0727551
0.0701441
0.0710201
0.0684405
0.0692848
0.0667924
0.0676106
0.0651851
0.0659844
0.0636102
0.0643937
0.0620678
0.0628351
0.0605535
0.0613076
0.0590634
0.0598054
0.0575984
0.0583278
0.0561573
0.056875
0.054738
0.055445
0.0533386
0.0540359
0.0519574
0.0526459
0.0505929
0.0512732
0.0492437
0.0499165
0.0479087
0.0485745
0.046587
0.0472463
0.0452778
0.0459309
0.0439804
0.0446277
0.0426942
0.0433359
0.0414186
0.0420551
0.0401532
0.0407847
0.0388975
0.0395242
0.0376513
0.0382733
0.0364145
0.0370318
0.0351869
0.0357995
0.0339687
0.0345766
0.0327601
0.0333632
0.0315643
0.0321599
0.0303675
0.0309649
0.0291522
0.0297663
0.0285655
0.0285411
0.0285512
0.0285796
0.0285737
0.0285982
0.0285816
0.0286247
0.0286132
0.0286383
0.028633
0.028641
0.0286409
0.0286339
0.0286387
0.0286152
0.0286261
0.028587
0.0286021
0.0285562
0.0285704
0.0285386
0.0285494
0.0285224
0.028529
0.0297127
0.0285167
0.0291192
0.0309079
0.0303128
0.0320997
0.0315021
0.0332987
0.0326981
0.0345069
0.0339017
0.0357243
0.0351145
0.0369506
0.0363364
0.038186
0.0375672
0.0394304
0.0388071
0.0406841
0.0400561
0.0419474
0.0413146
0.0432206
0.0425827
0.0445042
0.0438611
0.0457987
0.0451501
0.0471048
0.0464503
0.0484231
0.0477624
0.0497546
0.0490872
0.0511001
0.0504256
0.0524608
0.0517785
0.0538376
0.0531471
0.0552321
0.0545326
0.0566455
0.0559363
0.0580796
0.0573599
0.0595363
0.058805
0.0610179
0.0602739
0.0625265
0.0617687
0.0640644
0.0632916
0.0656343
0.0648452
0.067239
0.0664322
0.0688806
0.0680551
0.0705584
0.0697152
0.072277
0.0714116
0.0740458
0.0731565
0.0749499
0.0720904
0.0723114
0.0783443
0.0777954
0.0700564
0.0700152
0.0731182
0.0709789
0.070916
0.0291406
0.0285399
0.027922
0.0279085
0.0718631
0.0718078
0.0726852
0.0735433
0.0743738
0.075172
0.0773588
0.0769252
0.0778285
0.0783275
0.0777876
0.0771518
0.0764771
0.075743
0.0749419
0.0769713
0.0776669
0.0783035
0.0788592
0.0787393
0.0793286
0.0700452
0.075127
0.076031
0.0733362
0.0742324
0.0715835
0.0724508
0.0698844
0.0707309
0.0682249
0.0690489
0.0666058
0.067411
0.0650203
0.0658091
0.0634652
0.0642391
0.0619393
0.0626987
0.0604397
0.0611865
0.0589633
0.0596987
0.0575098
0.0582337
0.0560784
0.0567915
0.0546672
0.0553704
0.0532747
0.0539687
0.0518994
0.052585
0.0505399
0.0512177
0.049195
0.0498657
0.0478638
0.0485278
0.0465454
0.0472031
0.0452389
0.0458907
0.0439439
0.04459
0.0426596
0.0433004
0.0413856
0.0420214
0.0401214
0.0407523
0.0388668
0.039493
0.0376214
0.038243
0.0363851
0.0370021
0.0351579
0.0357704
0.0339398
0.0345477
0.0327312
0.0333343
0.0315326
0.0321307
0.0303399
0.0309345
0.0297413
0.0279652
0.0279349
0.0279503
0.0279874
0.0279802
0.0280207
0.0280018
0.0280468
0.0280356
0.0280605
0.028055
0.0280638
0.0280634
0.0280568
0.0280616
0.0280391
0.0280493
0.0280111
0.0280264
0.0279743
0.027993
0.0279428
0.0279593
0.0279302
0.0296893
0.0284982
0.0290999
0.0308727
0.0302814
0.0320635
0.0314669
0.0332631
0.0326623
0.034471
0.033866
0.0356876
0.0350783
0.036913
0.0362992
0.0381471
0.037529
0.03939
0.0387675
0.0406419
0.0400149
0.0419031
0.0412714
0.0431738
0.0425373
0.0444546
0.0438129
0.0457458
0.0450989
0.0470481
0.0463955
0.0483621
0.0477036
0.0496885
0.0490237
0.0510283
0.0503568
0.0523824
0.0517036
0.0537518
0.0530651
0.0551376
0.0544426
0.0565413
0.0558372
0.0579643
0.0572503
0.0594082
0.0586835
0.0608748
0.0601386
0.062366
0.0616172
0.0638835
0.0631213
0.0654294
0.0646528
0.0670056
0.0662136
0.0686143
0.0678059
0.0702562
0.0694311
0.0719327
0.0710901
0.0736413
0.0727833
0.0753897
0.0745096
0.0772021
0.0762884
0.0797001
0.079032
0.0781149
0.0730733
0.0732954
0.0710069
0.0709683
0.0279386
0.027896
0.0741293
0.071947
0.071888
0.0728498
0.0727974
0.0736913
0.0745634
0.0754055
0.0762113
0.0787564
0.0782198
0.0791202
0.0783541
0.0792308
0.0799553
0.0797218
0.0793115
0.0787919
0.0781916
0.0775128
0.076777
0.075978
0.0780354
0.0787287
0.0793516
0.079889
0.0803273
0.0806553
0.070998
0.076489
0.0773454
0.0747229
0.0755991
0.0729729
0.0738506
0.0712747
0.0721156
0.0696232
0.0704454
0.0680003
0.0688079
0.0664085
0.0672006
0.0648465
0.0656239
0.0633122
0.064076
0.061804
0.0625549
0.0603197
0.061059
0.0588572
0.0595858
0.0574156
0.0581338
0.0559942
0.0567025
0.0545915
0.0552906
0.0532063
0.0538968
0.0518372
0.0525198
0.0504831
0.0511583
0.0491428
0.0498113
0.0478156
0.0484777
0.0465007
0.0471567
0.0451972
0.0458475
0.0439046
0.0445496
0.0426224
0.0432622
0.0413501
0.041985
0.0400873
0.0407175
0.0388337
0.0394594
0.0375891
0.0382103
0.0363534
0.0369702
0.0351266
0.0357389
0.0339086
0.0345165
0.0326997
0.033303
0.0314993
0.0320985
0.0303075
0.0309023
0.0291217
0.0297135
0.027922
0.0285266
0.027343
0.0273106
0.0273277
0.0273773
0.027359
0.0274087
0.0273921
0.0274462
0.0274282
0.0274713
0.0274603
0.0274855
0.0274797
0.0274892
0.0274887
0.0274824
0.0274871
0.0274651
0.027475
0.0274378
0.0274528
0.0273983
0.0274196
0.0273543
0.0273759
0.0273263
0.0273409
0.0273009
0.0273124
0.0284728
0.0272873
0.0278811
0.0296556
0.0290682
0.0308357
0.0302432
0.0320261
0.0314297
0.0332253
0.0326247
0.0344328
0.033828
0.0356487
0.0350397
0.0368731
0.0362599
0.0381059
0.0374885
0.0393473
0.0387256
0.0405974
0.0399713
0.0418563
0.0412258
0.0431245
0.0424893
0.0444023
0.0437622
0.04569
0.0450449
0.0469884
0.0463379
0.0482978
0.0476417
0.049619
0.0489569
0.0509529
0.0502844
0.0523001
0.0516248
0.0536616
0.052979
0.0550386
0.0543482
0.0564321
0.0557332
0.0578434
0.0571355
0.0592739
0.0585562
0.060725
0.0599968
0.0621982
0.0614588
0.0636947
0.0629435
0.0652161
0.0644522
0.0667635
0.0659865
0.0683382
0.0675475
0.0699411
0.0691361
0.071573
0.0707536
0.0732299
0.0723987
0.0749085
0.0740667
0.0766151
0.0757593
0.0774794
0.0740828
0.0743047
0.080874
0.0800998
0.0719797
0.0719428
0.0751513
0.0729388
0.0728828
0.0279015
0.0273083
0.0267048
0.0266919
0.0738639
0.0738115
0.0747229
0.0756097
0.0764636
0.0772769
0.0800258
0.0793521
0.0801892
0.0809336
0.0806945
0.0803128
0.0798295
0.0792453
0.0785637
0.0778263
0.0770305
0.0791286
0.0798176
0.0804231
0.0809391
0.0813412
0.0816227
0.0809378
0.081768
0.0719727
0.0776888
0.0785178
0.0759985
0.0768575
0.0742872
0.0751252
0.0726047
0.0734482
0.0709631
0.0717778
0.0693536
0.0701559
0.067765
0.0685563
0.066202
0.0669802
0.0646649
0.0654304
0.0631521
0.0639056
0.0616622
0.0624044
0.0601939
0.0609255
0.0587454
0.0594673
0.0573161
0.0580284
0.055905
0.0566083
0.0545112
0.0552061
0.0531336
0.0538205
0.0517711
0.0524505
0.0504226
0.0510952
0.0490873
0.0497534
0.0477644
0.0484244
0.046453
0.0471073
0.0451526
0.0458015
0.0438626
0.0445064
0.0425826
0.0432214
0.0413121
0.0419462
0.0400508
0.0406803
0.0387983
0.0394235
0.0375546
0.0381754
0.0363195
0.036936
0.035093
0.0357052
0.0338751
0.034483
0.0326658
0.0332694
0.0314651
0.0320644
0.0302741
0.0308682
0.0290903
0.0296796
0.0284972
0.0267515
0.0267112
0.0267328
0.0267932
0.0267729
0.0268363
0.0268148
0.0268735
0.0268564
0.0268985
0.0268873
0.0269132
0.0269071
0.0269172
0.0269165
0.0269106
0.0269152
0.0268935
0.0269034
0.0268663
0.0268812
0.0268271
0.0268483
0.026778
0.0268033
0.0267376
0.0267576
0.0267199
0.0284436
0.0272677
0.0278565
0.029616
0.0290273
0.0307962
0.0302044
0.0319866
0.0313904
0.0331854
0.032585
0.0343925
0.033788
0.0356077
0.0349991
0.0368311
0.0362184
0.0380626
0.0374458
0.0393024
0.0386815
0.0405505
0.0399254
0.0418072
0.0411778
0.0430727
0.0424389
0.0443474
0.0437089
0.0456316
0.0449883
0.0469258
0.0462774
0.0482305
0.0475768
0.0495463
0.048887
0.0508739
0.0502086
0.052214
0.0515424
0.0535675
0.0528891
0.0549352
0.0542495
0.0563181
0.0556247
0.0577174
0.0570157
0.059134
0.0584235
0.0605691
0.0598492
0.0620238
0.061294
0.0634989
0.0627588
0.0649953
0.0642444
0.0665136
0.0657517
0.0680542
0.0672812
0.0696171
0.0688329
0.071202
0.070407
0.0728055
0.0720018
0.0744226
0.0736128
0.0760445
0.0752339
0.0776708
0.0768575
0.0793066
0.0784903
0.0817852
0.0808845
0.0800984
0.0751186
0.0753504
0.0729765
0.0729405
0.0267073
0.0266678
0.0761969
0.073957
0.0739026
0.0749062
0.074852
0.075782
0.0766843
0.0775503
0.0783694
0.0810567
0.0802565
0.0810242
0.0819444
0.0818886
0.0816887
0.0813479
0.080884
0.0803142
0.0796523
0.0789139
0.0781112
0.0802519
0.0809336
0.0815225
0.0820071
0.0823669
0.0825912
0.082673
0.0799685
0.0816637
0.0806782
0.0729711
0.0786992
0.0794715
0.0771091
0.0779009
0.0754825
0.0763047
0.073842
0.0746583
0.0722341
0.0730365
0.0706453
0.0714369
0.0690749
0.0698582
0.0675212
0.0682957
0.0659883
0.0667521
0.0644767
0.0652299
0.0629857
0.0637287
0.0615147
0.0622478
0.0600627
0.0607864
0.0586286
0.0593435
0.0572116
0.057918
0.0558113
0.0565094
0.0544267
0.0551171
0.053057
0.05374
0.0517013
0.0523775
0.0503588
0.0510285
0.0490286
0.0496922
0.0477101
0.048368
0.0464025
0.047055
0.0451054
0.0457527
0.0438182
0.0444606
0.0425404
0.0431781
0.0412718
0.041905
0.040012
0.0406408
0.0387607
0.0393853
0.0375179
0.0381383
0.0362834
0.0368996
0.0350572
0.0356693
0.0338393
0.0344472
0.0326298
0.0332336
0.0314288
0.0320283
0.0302364
0.0308316
0.0290517
0.0296417
0.0278765
0.0284655
0.0266809
0.0272828
0.0261242
0.0260772
0.0261006
0.0261705
0.0261475
0.0262178
0.026192
0.0262662
0.0262434
0.0263029
0.0262861
0.0263284
0.0263169
0.0263436
0.0263373
0.0263479
0.0263471
0.0263415
0.026346
0.0263244
0.0263343
0.0262969
0.0263119
0.0262585
0.0262791
0.0262075
0.0262349
0.0261569
0.0261794
0.0261126
0.0261339
0.0260745
0.0260915
0.0272318
0.0260506
0.0266418
0.0284026
0.0278188
0.0295737
0.0289869
0.0307547
0.0301631
0.0319449
0.0313488
0.0331435
0.0325432
0.03435
0.0337458
0.0355645
0.0349563
0.0367869
0.0361748
0.0380172
0.0374011
0.0392553
0.0386353
0.0405015
0.0398774
0.0417559
0.0411277
0.0430186
0.0423862
0.04429
0.0436532
0.0455705
0.0449292
0.0468604
0.0462143
0.0481602
0.0475091
0.0494704
0.048814
0.0507916
0.0501297
0.0521245
0.0514566
0.0534696
0.0527955
0.0548278
0.0541471
0.0561999
0.0555121
0.0575867
0.0568914
0.0589891
0.0582859
0.0604079
0.0596964
0.0618437
0.0611237
0.063297
0.0625682
0.0647681
0.0640303
0.066257
0.0655103
0.0677635
0.0670082
0.0692865
0.068523
0.0708242
0.0700537
0.0723727
0.0715974
0.073927
0.0731496
0.0754762
0.0747032
0.0770078
0.0762448
0.078515
0.0777674
0.0792481
0.0761829
0.0764195
0.0826247
0.0739992
0.0739638
0.0772758
0.0750029
0.0749495
0.026654
0.0260657
0.0254827
0.0254552
0.0759781
0.075921
0.0768706
0.0777894
0.0786673
0.0794926
0.0818052
0.0808848
0.0815178
0.0824025
0.0813714
0.0825657
0.0827851
0.0828136
0.0826802
0.0823795
0.0819515
0.0814109
0.0807673
0.0800315
0.0792267
0.0814073
0.0820784
0.0826474
0.0830953
0.0834083
0.0835729
0.0835767
0.0739953
0.0794839
0.0801852
0.0780253
0.0787502
0.0765025
0.077279
0.0749595
0.075732
0.0734075
0.0741838
0.0718619
0.0726341
0.0703205
0.0710902
0.0687896
0.0695536
0.0672712
0.0680287
0.0657685
0.0665178
0.0642826
0.0650234
0.0628139
0.0635461
0.061362
0.0620859
0.0599266
0.0606423
0.058507
0.0592149
0.0571027
0.057803
0.0557133
0.0564062
0.0543382
0.055024
0.0529767
0.0536558
0.0516281
0.0523008
0.0502918
0.0509585
0.0489669
0.049628
0.047653
0.0483087
0.0463494
0.047
0.0450556
0.0457013
0.0437712
0.0444123
0.0424959
0.0431325
0.0412292
0.0418615
0.039971
0.0405991
0.038721
0.039345
0.0374791
0.038099
0.0362452
0.0368612
0.0350193
0.0356312
0.0338014
0.0344094
0.0325917
0.0331956
0.0313903
0.03199
0.0301971
0.0307927
0.029015
0.0296041
0.0278378
0.028424
0.0272484
0.0255379
0.0254809
0.0255109
0.0255923
0.0255662
0.0256489
0.0256202
0.0256979
0.0256751
0.0257348
0.0257177
0.0257611
0.0257493
0.0257766
0.0257702
0.0257812
0.0257802
0.025775
0.0257794
0.0257579
0.0257678
0.0257302
0.0257454
0.0256918
0.0257124
0.0256413
0.0256685
0.0255809
0.0256108
0.0255291
0.0255572
0.0255061
0.0271906
0.0260189
0.0266066
0.0283567
0.0277719
0.0295294
0.028942
0.030711
0.0301191
0.0319011
0.031305
0.0330995
0.0324993
0.0343056
0.0337016
0.0355194
0.0349116
0.0367408
0.0361292
0.0379697
0.0373543
0.0392062
0.038587
0.0404504
0.0398274
0.0417023
0.0410754
0.0429622
0.0423313
0.0442304
0.0435953
0.045507
0.0448676
0.0467925
0.0461487
0.0480873
0.0474388
0.0493917
0.0487383
0.0507063
0.0500477
0.0520317
0.0513677
0.0533682
0.0526985
0.0547167
0.054041
0.0560777
0.0553956
0.0574518
0.0567631
0.0588397
0.058144
0.0602418
0.059539
0.0616585