/*--------------------------------*- C++ -*----------------------------------*\
  =========                 |
  \\      /  F ield         | OpenFOAM: The Open Source CFD Toolbox
   \\    /   O peration     | Website:  https://openfoam.org
    \\  /    A nd           | Version:  10
     \\/     M anipulation  |
\*---------------------------------------------------------------------------*/
FoamFile
{
    format      ascii;
    class       volVectorField;
    location    "11.5";
    object      U;
}
// * * * * * * * * * * * * * * * * * * * * * * * * * * * * * * * * * * * * * //

dimensions      [0 1 -1 0 0 0 0];

internalField   nonuniform List<vector> 
6397
(
(1.03954 -0.187377 9.9608e-21)
(1.04281 -0.201722 -4.61673e-20)
(1.15008 0.0322991 0)
(1.14661 0.0338345 -2.31887e-23)
(1.15805 0.0416273 2.37735e-22)
(1.16234 0.0407707 4.78041e-22)
(0.770655 -0.486689 -4.53435e-20)
(0.465214 -0.694981 1.05025e-19)
(-0.0885166 0.061343 1.41785e-20)
(-0.123837 0.0132095 -5.7819e-21)
(0.494884 0.702254 6.91659e-20)
(0.791483 0.713252 -9.13688e-21)
(0.564055 0.0309709 -1.23013e-21)
(0.634696 0.0164123 -5.76858e-22)
(0.408553 0.0298428 2.20134e-21)
(-0.0404552 0.0488983 -8.38207e-20)
(0.0866941 0.0702429 -4.83005e-20)
(-0.0844164 0.0739234 4.04662e-20)
(0.323442 0.0100577 5.45871e-20)
(0.440719 -0.166982 -1.66162e-19)
(0.541289 -0.0206651 -8.61329e-20)
(0.144854 -0.0336453 -8.30323e-20)
(-0.0406028 -0.023741 3.67436e-21)
(0.358229 -0.0162634 -5.67867e-20)
(0.773169 0.017495 0)
(0.776587 0.0138055 4.70304e-22)
(0.886852 0.0182551 1.17954e-22)
(0.973406 -0.0663765 -2.04055e-21)
(0.967506 -0.0812988 4.77574e-22)
(0.998708 -0.0340517 -8.83838e-22)
(0.984772 -0.0501994 1.22821e-21)
(1.12624 0.0290549 5.79877e-22)
(1.12862 0.0287415 4.41343e-22)
(1.14317 0.0347025 -1.61068e-21)
(1.09854 0.0170995 1.30182e-22)
(1.10052 0.0188348 0)
(1.1111 0.0233013 -1.76461e-22)
(1.11352 0.0240839 -3.77004e-22)
(1.08244 0.00828823 2.21686e-22)
(1.08165 0.00592433 -9.58612e-23)
(1.08896 0.0112448 0)
(1.08996 0.013342 0)
(1.01141 -0.0188512 3.40691e-22)
(1.18731 0.0534114 5.17223e-22)
(1.19134 0.0505136 -5.60288e-22)
(1.16642 0.039111 1.08251e-21)
(1.17618 0.0484194 5.19577e-22)
(1.18083 0.0466797 -1.57932e-21)
(1.07384 -0.00485662 1.46505e-22)
(1.07211 -0.00441299 -2.15689e-23)
(1.07129 -0.00609639 1.94572e-22)
(1.06995 -0.00519287 -5.91589e-23)
(1.07052 -0.00523443 -5.64833e-22)
(0.973476 0.201433 -8.18561e-21)
(1.02705 0.23806 5.41221e-21)
(1.03276 0.0495836 3.49582e-21)
(1.03836 0.0627937 3.57733e-21)
(1.15589 -0.0681859 3.52026e-22)
(0.944481 -0.14765 1.69989e-21)
(0.95204 -0.141716 -1.70101e-21)
(0.932524 -0.150129 -1.74431e-21)
(0.91422 -0.147692 1.71665e-21)
(0.890805 -0.139536 1.85195e-21)
(0.859281 -0.123548 -1.82039e-21)
(0.822758 -0.0990591 0)
(0.779647 -0.0648591 -1.94023e-21)
(0.734867 -0.0218773 2.04568e-21)
(0.689631 0.028259 0)
(1.01735 -0.145427 1.52452e-21)
(0.95494 -0.132982 -2.81933e-24)
(1.01612 -0.13339 -1.44835e-21)
(1.01421 -0.156157 0)
(1.00649 -0.16415 0)
(0.992838 -0.168016 0)
(0.972686 -0.166084 6.35731e-24)
(0.945249 -0.156947 -8.50287e-25)
(0.909664 -0.138589 0)
(0.865912 -0.110028 1.70893e-25)
(0.814212 -0.0701924 0)
(0.756526 -0.0200193 0)
(1.01252 -0.120798 1.47986e-21)
(0.956893 -0.122309 -9.91155e-23)
(0.649245 0.0826115 0)
(0.695159 0.0386219 0)
(1.00772 -0.108234 -9.59087e-23)
(0.958779 -0.109867 0)
(0.618493 0.13696 0)
(0.63553 0.100231 0)
(1.00328 -0.0951073 -2.57522e-21)
(0.962062 -0.0959564 2.81133e-22)
(0.602499 0.185992 0)
(0.581438 0.161408 0)
(1.00085 -0.0818782 1.84536e-21)
(0.999532 -0.0680362 1.1159e-21)
(0.602986 0.226991 0)
(0.538908 0.215995 -2.32814e-22)
(1.04948 -0.0888828 0)
(1.03888 -0.0621557 -2.19186e-21)
(1.04285 -0.0757339 -1.53011e-22)
(1.06133 -0.117769 1.40554e-21)
(1.05479 -0.103296 0)
(1.06811 -0.147916 7.24502e-22)
(1.06521 -0.132997 -1.40882e-21)
(1.06588 -0.174091 -7.97194e-22)
(1.06815 -0.162062 -5.72593e-22)
(1.04694 -0.187032 -6.36771e-24)
(1.05845 -0.182949 8.3878e-22)
(1.00211 -0.174541 -5.36931e-23)
(1.02767 -0.18482 7.93516e-22)
(0.920698 -0.122851 5.40785e-22)
(0.964983 -0.15403 -1.17798e-21)
(0.799609 -0.0253404 0)
(0.862582 -0.0789795 0)
(0.655155 0.0994179 0)
(0.727824 0.0359134 0)
(0.582099 0.161142 3.75011e-22)
(0.691031 0.134515 3.18576e-21)
(0.744399 0.199368 1.64536e-21)
(0.714238 0.16839 -3.13966e-21)
(0.691134 0.051587 -2.80994e-21)
(0.684102 0.0950623 2.74622e-21)
(0.737078 -0.03191 -1.65803e-23)
(0.711199 0.00924104 -6.93688e-23)
(0.797171 -0.0940709 0)
(0.76736 -0.0656456 0)
(0.848919 -0.127246 -1.79749e-21)
(0.825188 -0.113317 -2.50975e-22)
(0.886422 -0.135899 -3.07648e-22)
(0.869728 -0.133367 1.78529e-21)
(0.913072 -0.125354 -7.52734e-22)
(0.901157 -0.132008 9.53922e-23)
(0.939408 -0.100324 1.11963e-21)
(0.926377 -0.113908 6.82196e-22)
(0.969643 -0.067284 0)
(0.955087 -0.0836247 -1.25785e-21)
(1.00112 -0.0544245 9.71047e-22)
(0.980819 -0.0510734 5.36144e-23)
(1.03695 -0.0494314 -5.59942e-22)
(0.5178 0.214055 7.11249e-22)
(0.51007 0.260956 -1.71408e-22)
(0.883996 0.168052 2.47262e-23)
(0.776716 0.230982 -1.64851e-21)
(0.903046 0.211071 0)
(0.458168 0.25621 -4.53183e-22)
(0.63196 0.137154 6.00204e-22)
(0.551433 0.183769 -5.96723e-22)
(1.05319 -0.00826043 -3.77085e-22)
(1.06869 -0.0556308 1.16046e-21)
(1.066 -0.0423758 5.36064e-22)
(1.06734 0.00580977 -3.34539e-22)
(0.6162 0.26018 -7.83798e-23)
(1.07889 -0.0835865 0)
(1.07294 -0.0692395 2.86453e-22)
(1.08925 -0.114363 -3.83782e-23)
(1.0836 -0.0988879 0)
(1.09887 -0.146303 2.19823e-22)
(1.09375 -0.130542 -4.3871e-22)
(1.10648 -0.17601 0)
(1.10279 -0.161862 -9.6913e-23)
(1.10524 -0.197214 0)
(1.10694 -0.188297 -4.8377e-23)
(1.0849 -0.19912 0)
(1.09758 -0.201423 -8.84341e-23)
(1.03138 -0.167523 1.45022e-23)
(1.06206 -0.188255 -5.71037e-23)
(0.932132 -0.0910083 -1.93994e-23)
(0.98639 -0.134841 4.11334e-23)
(0.793396 0.0208908 1.91786e-24)
(0.866793 -0.0379522 8.4177e-24)
(0.712697 0.081558 -1.39625e-22)
(0.824412 0.103093 -5.13366e-23)
(0.856419 0.132837 -5.15379e-23)
(0.775369 0.0455665 2.79712e-24)
(0.795031 0.0754891 0)
(0.76912 -0.0172381 0)
(0.767305 0.0149964 4.40781e-23)
(0.795492 -0.071949 0)
(0.77941 -0.0460453 0)
(0.835382 -0.1064 1.90483e-24)
(0.814922 -0.0916865 2.54641e-22)
(0.877457 -0.117633 2.05191e-22)
(0.856482 -0.114414 0)
(0.920381 -0.107175 6.18068e-22)
(0.898498 -0.114628 0)
(0.966981 -0.0792045 -3.48666e-23)
(0.942999 -0.0948257 -6.19185e-22)
(1.01485 -0.0420746 -7.46801e-25)
(0.990444 -0.0613722 -1.20316e-22)
(1.03506 -0.0242965 3.98475e-22)
(1.0002 -0.0413619 -2.40699e-22)
(0.988042 -0.0364058 0)
(1.06085 -0.0313134 -2.42075e-22)
(1.03103 -0.0375028 2.13563e-22)
(0.912928 0.26048 0)
(0.798309 0.267259 0)
(0.488749 0.293649 2.89461e-22)
(0.813364 0.05404 2.38683e-23)
(0.73477 0.0999955 0)
(0.47472 0.217608 1.15161e-22)
(0.406164 0.284131 -4.96209e-23)
(0.983407 0.251573 0)
(0.91606 0.311733 0)
(0.995301 0.300986 7.19687e-22)
(1.02477 -0.00423581 -3.70886e-22)
(1.07933 0.0180978 0)
(1.05706 -0.0207013 4.75997e-22)
(1.07937 -0.0269768 3.72686e-24)
(1.07721 -0.0168676 -1.10706e-21)
(1.13184 0.0278174 0)
(1.12141 0.0162397 2.83041e-22)
(0.629596 0.287791 0)
(1.08411 -0.050887 -1.41011e-22)
(1.08251 -0.0381615 0)
(1.09128 -0.0787085 -4.38363e-24)
(1.08807 -0.0643937 -1.82692e-23)
(1.10102 -0.10904 8.14688e-23)
(1.09611 -0.0937275 0)
(1.11408 -0.14006 -1.25683e-24)
(1.10718 -0.124632 8.57499e-23)
(1.12959 -0.170472 1.2913e-24)
(1.12157 -0.155594 9.05175e-23)
(1.14359 -0.196357 -1.57843e-22)
(1.13703 -0.184487 0)
(1.14766 -0.209207 0)
(1.14744 -0.205169 1.60861e-22)
(1.12755 -0.195989 2.43026e-23)
(1.14137 -0.206791 -1.55009e-23)
(1.06698 -0.143331 0)
(1.10255 -0.174974 2.29725e-24)
(0.959414 -0.0523975 -3.30955e-24)
(1.01865 -0.101663 -7.01879e-24)
(0.888768 0.00175119 -3.97707e-23)
(0.966468 0.154667 3.57865e-22)
(0.973977 0.202068 -1.25078e-24)
(0.941817 0.0763873 1.54724e-22)
(0.95629 0.112147 -5.80705e-22)
(0.901427 0.0227177 -1.77734e-23)
(0.921428 0.0477662 3.87871e-22)
(0.871101 -0.0212537 0)
(0.883393 0.000552436 -4.24494e-22)
(0.868749 -0.06054 0)
(0.866555 -0.0416628 0)
(0.891908 -0.0873392 -3.69045e-24)
(0.878048 -0.0758683 0)
(0.931079 -0.0948558 0)
(0.910035 -0.0935602 0)
(0.979723 -0.0818912 0)
(0.954183 -0.0908121 0)
(1.03275 -0.0525492 -2.1447e-22)
(1.00518 -0.0689893 0)
(1.08232 -0.0159621 7.39651e-25)
(1.05746 -0.0345948 2.19131e-22)
(1.10258 0.00103835 -3.26658e-22)
(1.00191 -0.0277904 -2.16184e-22)
(0.996644 -0.0214034 3.47418e-22)
(1.02817 -0.0256837 -4.70127e-22)
(0.652566 0.136555 -7.8552e-22)
(0.806626 0.308024 0)
(0.472315 0.316075 -3.59203e-22)
(1.01066 0.348277 -7.53574e-22)
(0.916627 0.358426 0)
(0.404513 0.233826 -1.23721e-22)
(0.358749 0.296941 -3.31229e-22)
(1.05568 -0.0111103 -7.64772e-24)
(1.0769 -0.00806469 -7.05574e-24)
(1.03461 0.00872148 -3.07174e-22)
(1.08609 0.0280326 -2.66327e-22)
(1.17321 0.0307047 -2.84805e-22)
(1.17826 0.0398358 0)
(1.08696 -0.0252388 -1.166e-22)
(1.08649 -0.0156607 -1.6867e-22)
(0.577573 0.157038 7.87831e-22)
(0.50471 0.162301 1.42928e-22)
(0.337976 0.233426 9.86207e-22)
(1.1386 0.0370816 1.2623e-23)
(0.639441 0.312809 0)
(1.08922 -0.0482082 -1.15798e-22)
(1.08802 -0.0360897 4.75931e-22)
(1.09445 -0.0749354 1.32777e-22)
(1.09162 -0.0612453 -3.27827e-22)
(1.10392 -0.1034 0)
(1.09872 -0.0891593 0)
(1.11869 -0.132054 1.03489e-25)
(1.11075 -0.117695 7.46163e-29)
(1.1387 -0.160705 -1.27973e-24)
(1.12817 -0.146468 0)
(1.1624 -0.186899 0)
(1.15033 -0.174371 7.34602e-29)
(1.18489 -0.204978 0)
(1.17434 -0.197428 0)
(1.19526 -0.204931 0)
(1.19255 -0.208001 0)
(1.17711 -0.173624 0)
(1.19083 -0.193832 0)
(1.11606 -0.105583 0)
(1.15241 -0.143743 0)
(1.01183 -0.015756 2.93139e-23)
(1.06821 -0.0612302 0)
(0.881762 0.0633377 0)
(0.951527 0.0263169 4.96206e-24)
(0.75622 0.0994767 0)
(0.821592 0.0868796 1.62527e-22)
(1.02828 0.236932 2.08795e-22)
(1.06575 0.328814 4.49542e-23)
(1.04471 0.282882 -2.09694e-22)
(1.01005 0.147831 -1.30096e-22)
(1.01656 0.191701 1.2503e-24)
(1.00512 0.0686199 9.31768e-23)
(1.00666 0.106558 1.78579e-22)
(0.99648 0.00860587 2.56912e-25)
(1.00189 0.0360735 0)
(0.982958 -0.0317689 0)
(0.989722 -0.0135775 0)
(0.978547 -0.0591672 0)
(0.978911 -0.0467545 0)
(0.992527 -0.0745362 9.48321e-26)
(0.9832 -0.0684714 0)
(1.02385 -0.074428 0)
(1.00639 -0.076521 0)
(1.06591 -0.0577168 0)
(1.04405 -0.0679493 0)
(1.11015 -0.0284575 -1.13622e-22)
(1.08851 -0.0440278 1.18172e-22)
(1.14757 0.00407991 -8.29477e-23)
(1.13013 -0.011759 1.18947e-23)
(1.16201 0.0187003 4.02671e-22)
(1.00556 -0.0140858 2.73215e-22)
(1.00629 -0.00641884 3.30007e-22)
(1.02733 -0.0145117 0)
(1.0241 0.392535 0)
(1.09034 0.372584 -1.08654e-23)
(0.443271 0.148598 -1.54704e-21)
(0.709269 0.0958033 0)
(0.800064 0.348113 0)
(0.456137 0.327638 0)
(1.08723 -0.0073246 0)
(1.14134 0.0443288 5.50564e-22)
(1.19873 0.0352818 -2.38873e-22)
(1.19823 0.0421165 0)
(0.914468 0.39789 -1.37782e-23)
(0.312668 0.293956 4.52516e-22)
(1.11715 0.411539 2.61933e-22)
(1.03487 0.429321 -4.28534e-23)
(0.277996 0.213156 -1.13846e-21)
(0.393648 0.118504 -1.77164e-22)
(0.674537 0.0796424 0)
(1.18017 0.0465548 -5.59951e-22)
(0.637131 0.334344 0)
(1.08715 -0.02492 4.16909e-22)
(1.08884 -0.00810872 2.54614e-22)
(1.08758 -0.0159518 9.88897e-22)
(1.0881 -0.046568 1.83658e-22)
(1.08723 -0.0352193 -4.24462e-22)
(1.09269 -0.0714451 0)
(1.08985 -0.0587247 -1.13006e-22)
(1.10223 -0.0971747 -6.09612e-29)
(1.09682 -0.084324 6.33889e-29)
(1.11757 -0.122941 9.89579e-26)
(1.10919 -0.110052 0)
(1.13911 -0.148673 0)
(1.12758 -0.135871 0)
(1.16681 -0.172659 1.03187e-24)
(1.15226 -0.161067 -7.34603e-29)
(1.19889 -0.19118 -5.90325e-29)
(1.18256 -0.182917 6.12922e-29)
(1.22933 -0.197498 0)
(1.21495 -0.196448 0)
(1.24559 -0.180996 -3.13659e-25)
(1.24024 -0.192786 0)
(1.23163 -0.133428 3.16898e-26)
(1.24325 -0.161134 0)
(1.17962 -0.0614004 6.32909e-25)
(1.20993 -0.0990423 0)
(1.09805 0.0110466 -2.1755e-22)
(1.14116 -0.0234463 -1.92562e-23)
(1.01208 0.0568648 -5.1427e-22)
(1.0556 0.0383301 5.38575e-23)
(0.955311 0.0609782 -1.54628e-21)
(0.980812 0.0637282 5.1318e-22)
(1.09306 0.30154 2.07579e-23)
(1.16002 0.377128 -5.99531e-23)
(1.12368 0.34057 -2.57449e-23)
(1.05119 0.221382 -2.81212e-22)
(1.06897 0.261508 1.55075e-22)
(1.03275 0.142923 2.41721e-22)
(1.03915 0.181822 9.33249e-23)
(1.03315 0.0703906 0)
(1.03095 0.105668 -2.99327e-22)
(1.0433 0.0103479 4.77251e-24)
(1.03782 0.0384018 1.54461e-28)
(1.05395 -0.0317711 0)
(1.04881 -0.0129593 0)
(1.06547 -0.0562716 1.90392e-24)
(1.0593 -0.0460385 0)
(1.08351 -0.0650228 1.73636e-24)
(1.07342 -0.0624969 0)
(1.11018 -0.0588683 0)
(1.09588 -0.0637254 0)
(1.14172 -0.0395494 0)
(1.12569 -0.0506141 0)
(1.17089 -0.012163 0)
(1.15693 -0.0263769 0)
(1.19063 0.0151235 0)
(1.1823 0.00217836 -5.85338e-24)
(1.19652 0.026549 1.57511e-22)
(1.14334 0.44121 -3.16015e-22)
(1.20025 0.407809 0)
(0.649448 0.0539096 -3.33872e-22)
(0.940362 0.0492527 2.02264e-21)
(1.17845 0.0517179 0)
(1.19546 0.0467567 1.40571e-22)
(1.14467 0.0511659 2.49818e-22)
(1.17685 0.0559625 -2.51925e-22)
(1.04939 0.0228333 -1.66391e-22)
(1.09666 0.0387007 1.14763e-23)
(1.01061 -0.00102359 -1.49849e-24)
(1.01717 0.00799979 1.47261e-22)
(1.05355 -0.00211942 3.92274e-22)
(1.02717 -0.00366394 -4.53701e-23)
(1.08784 8.08926e-05 0)
(1.07575 -0.00010568 -3.79297e-22)
(1.09052 -0.00123901 -4.24702e-22)
(0.783427 0.381609 1.38902e-23)
(0.431869 0.328548 1.73635e-28)
(0.905599 0.426844 4.30223e-23)
(0.262893 0.273842 0)
(1.03838 0.453408 0)
(0.221131 0.175016 0)
(1.24092 0.428949 1.40232e-22)
(1.16404 0.457039 1.09104e-23)
(0.354096 0.0748086 1.61562e-21)
(0.935675 0.0296181 -4.86232e-22)
(0.648435 0.0193046 -1.62663e-21)
(1.0856 -0.0096547 -3.54513e-22)
(1.08746 -0.00345486 3.37031e-22)
(0.620682 0.350662 3.33096e-29)
(1.08341 -0.0253229 -1.5991e-24)
(1.08403 -0.0169722 1.85326e-22)
(1.08406 -0.0453302 8.98034e-23)
(1.08322 -0.0348335 0)
(1.08879 -0.0680174 -5.06388e-29)
(1.08582 -0.0564661 -1.04006e-22)
(1.09848 -0.0910519 0)
(1.09298 -0.0795498 0)
(1.1137 -0.113852 1.04421e-24)
(1.10537 -0.102461 0)
(1.13507 -0.136346 0)
(1.12359 -0.125182 0)
(1.16302 -0.157079 -1.9808e-24)
(1.14822 -0.147079 0)
(1.19727 -0.173254 -8.47728e-25)
(1.17945 -0.165948 0)
(1.23535 -0.180463 0)
(1.21615 -0.178357 0)
(1.26998 -0.171407 -1.06478e-25)
(1.2538 -0.178497 0)
(1.28831 -0.138501 1.80444e-25)
(1.28209 -0.158181 0)
(1.27818 -0.0825552 -2.11764e-25)
(1.28716 -0.112729 6.32888e-30)
(1.23925 -0.0193876 -1.40336e-26)
(1.26175 -0.0503656 0)
(1.18627 0.028106 -3.68713e-23)
(1.21308 0.00769539 -1.48887e-22)
(1.13937 0.0437683 7.01733e-22)
(1.16175 0.0404688 7.54235e-22)
(1.10741 0.022942 -1.32205e-21)
(1.12145 0.0376618 -4.34693e-23)
(1.1752 0.338122 7.11025e-23)
(1.26588 0.385052 -1.50473e-22)
(1.21831 0.364696 0)
(1.10871 0.274522 -7.55348e-24)
(1.13864 0.307386 4.63366e-23)
(1.06729 0.20632 2.00597e-23)
(1.08501 0.240706 1.72297e-24)
(1.04766 0.138487 -7.41177e-25)
(1.05491 0.1722 1.34395e-23)
(1.04729 0.0745388 0)
(1.04529 0.105824 0)
(1.06169 0.0190975 -2.23067e-24)
(1.05312 0.0454432 2.6556e-28)
(1.0837 -0.0222231 -2.47099e-28)
(1.07217 -0.00358563 2.61545e-28)
(1.10794 -0.0463012 -1.9897e-25)
(1.09572 -0.0364205 0)
(1.1331 -0.0534336 0)
(1.12041 -0.0518519 0)
(1.15869 -0.0458764 -1.21921e-24)
(1.14595 -0.0512709 0)
(1.18194 -0.0274849 0)
(1.17087 -0.037706 0)
(1.19844 -0.00391719 -7.95091e-25)
(1.19125 -0.0159327 0)
(1.20492 0.018066 1.36822e-24)
(1.20299 0.00770669 -5.98728e-24)
(1.2013 0.0334592 2.31553e-22)
(1.20426 0.0268004 0)
(1.19108 0.0417657 9.89018e-22)
(1.19664 0.0383178 -7.39133e-22)
(1.18543 0.0443113 -1.80297e-23)
(1.14978 0.0570992 0)
(1.18291 0.055468 2.53175e-22)
(1.17545 0.0592369 3.06817e-24)
(1.06361 0.0348877 0)
(1.10877 0.0482606 0)
(1.01754 0.0110566 1.63715e-22)
(1.02918 0.0210594 3.65971e-29)
(1.05407 0.00616859 -9.57246e-23)
(1.02926 0.00641546 -2.95159e-22)
(1.08973 0.00649117 0)
(1.0769 0.00691604 2.67666e-22)
(1.27742 0.434951 -3.64192e-24)
(1.31529 0.394835 1.83704e-22)
(0.938777 0.00243586 1.65911e-21)
(1.09891 8.05563e-05 2.21844e-21)
(1.09031 0.00220206 3.16957e-22)
(1.09299 0.00472906 -1.58249e-22)
(0.754559 0.402099 -6.42417e-27)
(0.394555 0.316658 0)
(0.887366 0.440274 0)
(0.208546 0.236399 1.39701e-27)
(1.03292 0.458987 -2.37106e-24)
(0.168218 0.120511 2.67401e-22)
(1.17527 0.453245 5.60453e-24)
(0.334189 0.0197741 0)
(1.36201 0.391337 2.25213e-21)
(1.30466 0.422478 -7.36781e-24)
(0.657938 -0.0189936 2.47215e-21)
(1.09636 -0.0298855 -2.44399e-21)
(0.952718 -0.0319906 -9.82599e-22)
(1.36311 0.341874 -1.35328e-21)
(1.40121 0.370552 -2.26373e-21)
(1.41008 0.328792 -2.27499e-21)
(1.09657 -0.0655134 -6.09241e-22)
(1.16111 -0.0378004 1.59273e-21)
(1.15812 -0.0667347 9.73309e-23)
(1.08489 -0.000496665 1.36627e-22)
(1.09316 0.00716881 0)
(1.08715 0.00393429 -1.59689e-22)
(0.586242 0.356391 -2.97636e-28)
(1.08039 -0.0113967 7.92888e-23)
(1.08174 -0.00582047 2.91155e-22)
(1.07825 -0.0257576 -1.73795e-22)
(1.07842 -0.0181869 -7.84108e-23)
(1.07911 -0.0440035 0)
(1.07787 -0.0344562 0)
(1.08416 -0.064439 0)
(1.0809 -0.0540898 0)
(1.09385 -0.0849906 0)
(1.08831 -0.0747589 0)
(1.10861 -0.105023 0)
(1.10051 -0.0950513 0)
(1.12907 -0.124452 -1.13237e-28)
(1.11807 -0.114849 1.17657e-28)
(1.15567 -0.141978 9.48816e-25)
(1.14158 -0.133583 1.16379e-28)
(1.18837 -0.155193 8.47728e-25)
(1.17129 -0.14929 0)
(1.22603 -0.160887 0)
(1.20674 -0.159232 0)
(1.26465 -0.154221 -7.22745e-26)
(1.24565 -0.159443 0)
(1.29562 -0.129992 1.42542e-25)
(1.28179 -0.144509 0)
(1.30781 -0.0874549 2.11758e-25)
(1.30465 -0.110673 0)
(1.29485 -0.0359821 1.18323e-24)
(1.30446 -0.0617651 2.85013e-29)
(1.26098 0.00578401 1.45344e-22)
(1.27976 -0.0126499 0)
(1.21914 0.0222219 -2.29123e-22)
(1.24016 0.0179241 -1.94839e-22)
(1.18231 0.00601415 9.44798e-22)
(1.19989 0.0179307 -5.7234e-22)
(1.16981 -0.0134351 -1.4799e-21)
(1.265 0.335804 -6.13519e-22)
(1.31341 0.343652 1.96398e-21)
(1.18109 0.300031 -9.06192e-25)
(1.22068 0.320703 -4.46305e-23)
(1.11956 0.249198 -8.16221e-23)
(1.14748 0.275849 8.4949e-23)
(1.07997 0.191747 2.7528e-25)
(1.09724 0.220908 -1.75e-24)
(1.05969 0.133263 7.40662e-25)
(1.06759 0.162392 3.00929e-28)
(1.05679 0.0776672 0)
(1.05621 0.104926 0)
(1.0688 0.0287089 4.22832e-28)
(1.06117 0.0521345 -4.47442e-28)
(1.09138 -0.00927688 0)
(1.0791 0.00807344 0)
(1.11883 -0.03248 -2.01306e-25)
(1.10484 -0.0228184 0)
(1.14641 -0.0401501 0)
(1.13281 -0.0381643 0)
(1.17076 -0.0344409 1.21921e-24)
(1.15917 -0.0387351 0)
(1.18878 -0.0195071 0)
(1.18073 -0.0278136 0)
(1.19809 -0.00065326 1.43551e-26)
(1.1946 -0.0102128 2.16009e-28)
(1.19794 0.0166681 -1.33021e-24)
(1.19914 0.00850403 0)
(1.18996 0.0286221 0)
(1.19466 0.0234637 -7.93098e-26)
(1.17789 0.0352342 -2.75708e-22)
(1.18371 0.0322671 -5.63117e-25)
(1.1708 0.0370007 -2.71384e-22)
(1.17818 0.0561984 4.6535e-22)
(1.17107 0.0491665 -2.52765e-22)
(1.15361 0.060893 0)
(1.17374 0.0607937 0)
(1.0761 0.0441687 1.53381e-26)
(1.11826 0.0549628 3.03189e-29)
(1.02522 0.0216631 1.85037e-26)
(1.04085 0.0318051 3.43302e-29)
(1.05448 0.0138511 1.94567e-23)
(1.03247 0.0157621 7.47723e-29)
(1.0913 0.012446 1.4655e-22)
(1.07715 0.0135001 -1.01952e-22)
(1.09568 0.0101892 -1.11523e-23)
(0.716259 0.404352 6.64525e-27)
(0.343427 0.289182 -3.6484e-28)
(0.858187 0.433194 0)
(0.147962 0.180224 -1.37177e-27)
(1.01498 0.441212 4.39632e-24)
(0.12454 0.0500515 -2.67813e-22)
(1.17257 0.426214 -3.22868e-23)
(0.329472 -0.039928 -1.22319e-22)
(1.31786 0.388464 -7.71794e-23)
(0.688594 -0.0617634 0)
(1.45047 0.302491 2.55297e-21)
(1.42802 0.331896 0)
(0.969618 -0.0729933 -7.22013e-22)
(1.16248 -0.0985831 -8.24894e-22)
(1.10586 -0.105466 5.50591e-22)
(1.42656 0.26074 -4.34746e-23)
(1.48061 0.263046 5.61334e-21)
(1.45977 0.230713 3.21729e-23)
(1.17372 -0.130853 -1.22941e-21)
(1.18631 -0.0942048 -5.68299e-22)
(1.19622 -0.118831 -2.398e-21)
(1.09651 0.0119341 0)
(1.09098 0.00874246 -4.6779e-22)
(1.07922 -0.0026574 2.47571e-22)
(1.07893 0.000661519 -2.5873e-22)
(0.536962 0.345693 1.58432e-27)
(1.0748 -0.0128929 -1.2927e-22)
(1.07486 -0.00817478 -1.42117e-22)
(1.07282 -0.0259956 1.81502e-23)
(1.07225 -0.0193304 -7.09906e-23)
(1.0741 -0.0423982 -3.08227e-25)
(1.07234 -0.0339108 3.17925e-28)
(1.07942 -0.0607598 0)
(1.07591 -0.0515034 0)
(1.08897 -0.0790802 0)
(1.08349 -0.0700082 0)
(1.10307 -0.0966122 7.83119e-25)
(1.09534 -0.0879377 0)
(1.12227 -0.113271 0)
(1.11197 -0.105081 0)
(1.14688 -0.127935 0)
(1.13388 -0.120971 0)
(1.1768 -0.138482 0)
(1.1612 -0.133861 0)
(1.2111 -0.142414 0)
(1.19351 -0.141455 0)
(1.24697 -0.136342 4.9241e-25)
(1.22913 -0.140856 0)
(1.27852 -0.117004 7.42963e-26)
(1.26378 -0.128434 1.09432e-28)
(1.2972 -0.0842876 0)
(1.29001 -0.102089 0)
(1.29573 -0.0444214 -1.76097e-26)
(1.2992 -0.0645144 -2.85014e-29)
(1.2738 -0.0108878 1.04218e-24)
(1.28695 -0.0258415 2.16306e-28)
(1.23959 0.00245191 1.57667e-22)
(1.25737 -0.0010185 1.63291e-25)
(1.20575 -0.0106374 -7.79877e-23)
(1.22176 -0.000774366 -8.25403e-23)
(1.18541 -0.0464488 -2.83858e-22)
(1.19333 -0.0263272 2.08169e-22)
(1.18288 -0.0694145 5.40187e-22)
(1.34315 0.293564 -1.99998e-22)
(1.38681 0.28172 3.62944e-23)
(1.25638 0.292442 1.51503e-23)
(1.29909 0.297055 0)
(1.1819 0.266377 8.95734e-25)
(1.21734 0.281851 4.5195e-23)
(1.12561 0.225406 0)
(1.15139 0.247217 0)
(1.08804 0.177202 -1.37168e-25)
(1.1046 0.201822 0)
(1.06771 0.127208 0)
(1.07586 0.152206 0)
(1.06287 0.0791951 0)
(1.06349 0.102771 0)
(1.07147 0.036516 -1.32763e-24)
(1.06566 0.0570099 0)
(1.09043 0.00268328 0)
(1.0799 0.0182903 0)
(1.11524 -0.0190066 -1.50364e-24)
(1.10242 -0.00978151 0)
(1.14072 -0.0275769 -1.18612e-24)
(1.12818 -0.0248732 0)
(1.16239 -0.0246721 -1.03545e-24)
(1.15225 -0.0273649 7.19249e-29)
(1.17705 -0.0138043 -8.82321e-25)
(1.17071 -0.0199732 -4.96425e-28)
(1.18328 0.000597447 3.36306e-26)
(1.18123 -0.0067563 0)
(1.18127 0.0139579 0)
(1.18321 0.00766033 0)
(1.17294 0.0232692 0)
(1.17767 0.0192204 7.94444e-26)
(1.16146 0.0288233 2.51552e-22)
(1.16721 0.0263487 5.53099e-25)
(1.15518 0.0306563 -2.19537e-22)
(1.15325 0.0414685 0)
(1.13961 0.0348648 6.57501e-22)
(1.17249 0.0554841 -2.4559e-22)
(1.16524 0.0486155 -7.07216e-23)
(1.15534 0.0623575 -2.79364e-26)
(1.17071 0.0606521 -5.57647e-29)
(1.08654 0.0505912 -3.01479e-26)
(1.12523 0.0588517 -5.88679e-29)
(1.03334 0.0304563 6.35756e-29)
(1.05162 0.0400488 -6.46428e-29)
(1.05629 0.0208023 3.60516e-23)
(1.03691 0.023923 -6.91775e-29)
(1.09375 0.0177126 -1.45891e-22)
(1.07867 0.0194077 -3.67368e-23)
(1.09878 0.0151335 -1.42289e-22)
(0.665113 0.384453 0)
(0.278279 0.242826 3.4173e-28)
(0.814654 0.40167 0)
(0.0840699 0.105903 -1.60398e-26)
(0.981906 0.398376 -5.97513e-24)
(0.0900424 -0.0303125 6.59689e-25)
(1.15286 0.375543 2.26737e-23)
(0.348383 -0.101925 -3.21052e-24)
(1.31375 0.335142 9.8068e-23)
(0.729336 -0.105535 -5.76146e-24)
(1.439 0.278617 0)
(0.991049 -0.119931 -1.88438e-22)
(1.48466 0.192675 4.90413e-21)
(1.49912 0.213367 -1.15609e-20)
(1.12049 -0.146413 -1.61017e-23)
(1.21241 -0.141932 2.52826e-21)
(1.19342 -0.161725 2.12192e-21)
(1.08528 0.0061889 3.79453e-23)
(0.47256 0.313707 -5.72126e-27)
(1.07207 -0.00450078 -2.51157e-22)
(1.07752 0.00552674 1.38696e-21)
(1.0733 -0.00157813 -8.52997e-22)
(1.06862 -0.0141782 3.54124e-23)
(1.06925 -0.0100305 2.33882e-22)
(1.06739 -0.0259519 -1.81268e-23)
(1.067 -0.0200527 3.16141e-23)
(1.06935 -0.0406272 -7.35561e-23)
(1.0675 -0.0330357 6.62442e-23)
(1.07492 -0.0570538 -6.182e-25)
(1.07142 -0.0487767 3.21487e-28)
(1.08428 -0.0733878 -6.67605e-25)
(1.079 -0.0653415 -3.49873e-28)
(1.09764 -0.0887205 -7.77354e-26)
(1.09038 -0.0811865 0)
(1.11542 -0.102965 0)
(1.10593 -0.096004 0)
(1.1378 -0.115188 -7.11639e-25)
(1.12603 -0.109436 0)
(1.16454 -0.123532 3.50548e-28)
(1.15066 -0.119961 -3.63965e-28)
(1.1947 -0.12605 3.14682e-28)
(1.17929 -0.125645 -3.26613e-28)
(1.22595 -0.120397 -2.67908e-28)
(1.21042 -0.124396 2.77971e-28)
(1.2538 -0.104518 -8.71753e-25)
(1.24066 -0.113773 2.35483e-28)
(1.27191 -0.0789479 4.37666e-25)
(1.26448 -0.0927379 2.25331e-28)
(1.27434 -0.0486208 -7.12641e-26)
(1.27531 -0.0638414 0)
(1.25973 -0.0232455 6.2703e-25)
(1.26895 -0.0345866 3.496e-28)
(1.23374 -0.0132215 1.00929e-24)
(1.24754 -0.0157996 0)
(1.20693 -0.0236661 2.99872e-23)
(1.21957 -0.0158209 0)
(1.19103 -0.0519057 2.38141e-23)
(1.19709 -0.0359782 -4.71459e-23)
(1.19339 -0.0889368 0)
(1.18967 -0.0700591 -2.90751e-23)
(1.21601 -0.123935 -2.75447e-21)
(1.20217 -0.107222 2.66135e-21)
(1.38936 0.224319 -2.32787e-22)
(1.44335 0.16872 -1.9754e-21)
(1.41935 0.198975 1.90158e-21)
(1.3173 0.25396 -3.78664e-23)
(1.35451 0.242799 -6.3402e-24)
(1.24281 0.2563 0)
(1.27971 0.25848 0)
(1.17781 0.236902 8.83594e-25)
(1.20878 0.248815 0)
(1.12747 0.203836 0)
(1.1507 0.221624 0)
(1.09282 0.163661 -1.38096e-25)
(1.10826 0.184331 0)
(1.07303 0.121062 0)
(1.08117 0.142444 0)
(1.06675 0.0796228 0)
(1.06831 0.100021 0)
(1.07219 0.0424461 2.54521e-25)
(1.06814 0.0603371 0)
(1.08686 0.0125418 0)
(1.07856 0.0264308 0)
(1.10717 -0.00749847 -1.1947e-27)
(1.09657 0.00119732 1.26487e-27)
(1.1286 -0.0167638 1.18501e-24)
(1.11802 -0.0134342 1.1787e-27)
(1.14687 -0.0164665 1.96281e-24)
(1.13833 -0.0176664 9.80691e-28)
(1.1591 -0.00925908 7.30662e-26)
(1.15383 -0.0135248 0)
(1.16413 0.00130212 7.47711e-25)
(1.16253 -0.00415476 -7.82981e-28)
(1.16226 0.0113513 6.32919e-28)
(1.164 0.00660138 -6.71182e-28)
(1.15517 0.0185753 0)
(1.1592 0.0153818 0)
(1.14532 0.0233794 -4.15874e-23)
(1.15042 0.0211942 6.47185e-23)
(1.13536 0.026708 0)
(1.14044 0.0253246 -7.67809e-24)
(1.13194 0.0280702 0)
(1.14787 0.0401374 0)
(1.12305 0.0282851 -1.26816e-23)
(1.13544 0.0339249 -1.94853e-22)
(1.16647 0.0533268 2.74897e-23)
(1.15885 0.0467047 5.40278e-23)
(1.15537 0.0616322 8.42308e-28)
(1.16685 0.0588109 0)
(1.09478 0.0542619 1.48378e-26)
(1.12989 0.0601246 0)
(1.04124 0.0371975 0)
(1.06099 0.0457549 0)
(1.05919 0.0266686 -3.92151e-27)
(1.04201 0.0305887 0)
(1.09636 0.0223948 0)
(1.0809 0.0244754 0)
(1.0995 0.0162253 0)
(1.10191 0.0195947 -5.91111e-23)
(1.08356 0.0082481 0)
(1.09279 0.0126111 1.04621e-22)
(1.49978 0.14857 -9.89723e-21)
(1.45872 0.133566 0)
(1.2343 -0.161131 -2.73384e-22)
(1.23403 -0.137477 -2.68714e-22)
(0.601573 0.339796 2.52841e-25)
(0.202313 0.176303 0)
(1.11576 0.0240203 0)
(0.757132 0.34482 1.00659e-24)
(0.021482 0.0165542 4.35497e-27)
(1.07206 0.00393802 2.76064e-22)
(1.08563 0.0124677 0)
(1.07645 0.00945328 0)
(0.932981 0.331655 3.23157e-24)
(0.0707175 -0.113609 -2.36412e-25)
(1.11546 0.304912 0)
(0.387689 -0.159825 6.4124e-24)
(1.29157 0.266849 0)
(0.775917 -0.152755 0)
(1.43463 0.215347 0)
(1.01668 -0.169034 3.05567e-22)
(1.50521 0.157305 -1.14603e-22)
(1.1459 -0.186048 -7.88279e-23)
(1.4671 0.0972901 0)
(1.50545 0.102277 5.302e-21)
(1.21991 -0.188502 2.85893e-21)
(1.26086 -0.174674 -6.40361e-21)
(1.2553 -0.146352 5.92966e-21)
(0.396073 0.258316 4.40127e-27)
(1.06615 -0.00641585 1.12485e-22)
(1.06732 -0.00249066 0)
(1.06336 -0.0152791 -2.87511e-23)
(1.06382 -0.0111676 -5.23491e-23)
(1.06279 -0.0256608 0)
(1.06232 -0.0203218 2.72271e-23)
(1.0652 -0.0386925 0)
(1.06336 -0.031908 8.74521e-24)
(1.07094 -0.0533815 6.17891e-25)
(1.06755 -0.0459412 0)
(1.08006 -0.0679472 1.26842e-24)
(1.07504 -0.0607813 0)
(1.09265 -0.0813698 -7.46376e-26)
(1.08588 -0.0748093 0)
(1.109 -0.093562 -6.42594e-25)
(1.10034 -0.0876341 -6.89976e-28)
(1.12918 -0.103782 7.10978e-25)
(1.11863 -0.09901 6.86307e-28)
(1.1528 -0.110409 -5.97199e-25)
(1.14061 -0.107643 6.15371e-28)
(1.17889 -0.111911 -5.73981e-28)
(1.16563 -0.111885 5.59663e-28)
(1.20543 -0.106726 -4.68812e-25)
(1.1923 -0.110248 5.21011e-28)
(1.22884 -0.093671 8.53306e-25)
(1.2178 -0.101179 0)
(1.24441 -0.0736437 -4.91937e-26)
(1.23791 -0.0843427 4.28296e-28)
(1.24779 -0.050684 -9.23432e-25)
(1.24778 -0.0621239 0)
(1.23794 -0.0319334 -6.26869e-25)
(1.24436 -0.0402607 -5.16161e-28)
(1.21906 -0.0248091 0)
(1.22916 -0.026562 0)
(1.1995 -0.0330699 3.11064e-23)
(1.2087 -0.0269641 -3.31157e-23)
(1.18838 -0.0546081 0)
(1.19244 -0.0423948 1.92598e-29)
(1.19173 -0.0827422 -6.01256e-23)
(1.18807 -0.0683549 7.34954e-23)
(1.21149 -0.108792 -1.45644e-21)
(1.19977 -0.0966774 1.45272e-21)
(1.24357 -0.123637 0)
(1.22634 -0.118023 2.67455e-22)
(1.39729 0.147356 -8.22668e-22)
(1.41962 0.0890114 2.04527e-22)
(1.41135 0.118658 1.76916e-21)
(1.35121 0.193466 -1.38079e-21)
(1.37675 0.172565 8.10472e-22)
(1.29115 0.219766 -5.82699e-22)
(1.32255 0.209548 1.99482e-21)
(1.22846 0.223969 1.42132e-24)
(1.25968 0.224489 -1.43227e-23)
(1.17235 0.210226 -8.83595e-25)
(1.19921 0.219021 0)
(1.12771 0.184048 -1.98986e-27)
(1.14848 0.198338 2.10393e-27)
(1.09595 0.150778 4.55789e-28)
(1.11024 0.168026 -4.82007e-28)
(1.07683 0.114628 -1.67647e-25)
(1.08488 0.132853 0)
(1.0694 0.0789439 1.35529e-27)
(1.07175 0.0965636 -1.43385e-27)
(1.07213 0.0465773 1.07132e-24)
(1.06962 0.0621979 1.88604e-27)
(1.08291 0.0201617 0)
(1.07668 0.032492 0)
(1.09876 0.00175659 9.38606e-25)
(1.09042 0.00988984 -6.08695e-29)
(1.11594 -0.00792172 -1.92011e-27)
(1.10741 -0.00414345 2.03345e-27)
(1.13086 -0.00967535 -1.11031e-25)
(1.12386 -0.00968835 0)
(1.14109 -0.00540508 8.09723e-25)
(1.13665 -0.00813596 0)
(1.14553 0.00199866 -6.38608e-25)
(1.14407 -0.00188461 0)
(1.14427 0.00928185 1.17969e-27)
(1.14561 0.00582659 -1.2509e-27)
(1.13865 0.0147641 0)
(1.14196 0.01228 0)
(1.13083 0.0189802 3.65257e-23)
(1.13502 0.0170052 6.14439e-23)
(1.12261 0.0224281 -2.16595e-22)
(1.12682 0.0208787 9.99328e-23)
(1.11908 0.0235818 0)
(1.11918 0.0262544 -4.41052e-23)
(1.10834 0.0214987 1.50762e-22)
(1.14191 0.0372951 0)
(1.1305 0.0315615 4.33092e-23)
(1.16056 0.0498033 -1.01159e-25)
(1.15256 0.0434781 0)
(1.15406 0.0589433 2.69443e-26)
(1.1625 0.0553561 2.08121e-28)
(1.10079 0.0554444 0)
(1.13249 0.0590827 0)
(1.04843 0.0418556 0)
(1.06866 0.0490593 0)
(1.06246 0.0313535 3.89852e-27)
(1.04731 0.0356148 0)
(1.09891 0.0264496 0)
(1.08324 0.0287165 0)
(1.1027 0.0204001 -9.99492e-23)
(1.105 0.0236734 5.70955e-23)
(1.09503 0.016689 2.9333e-25)
(1.4674 0.0600022 0)
(1.42136 0.059156 -1.3431e-21)
(1.27891 -0.150029 -4.26077e-21)
(1.26238 -0.124905 6.33886e-21)
(0.525763 0.270921 5.34997e-26)
(0.119118 0.0908069 2.17996e-26)
(1.06581 0.00181738 -4.36898e-22)
(1.0668 0.00589638 2.42985e-22)
(0.685891 0.265282 -1.00775e-23)