/*--------------------------------*- C++ -*----------------------------------*\
  =========                 |
  \\      /  F ield         | OpenFOAM: The Open Source CFD Toolbox
   \\    /   O peration     | Website:  https://openfoam.org
    \\  /    A nd           | Version:  10
     \\/     M anipulation  |
\*---------------------------------------------------------------------------*/
FoamFile
{
    format      ascii;
    class       volVectorField;
    location    "39.5";
    object      U;
}
// * * * * * * * * * * * * * * * * * * * * * * * * * * * * * * * * * * * * * //

dimensions      [0 1 -1 0 0 0 0];

internalField   nonuniform List<vector> 
25879
(
(1.07751 -0.00775761 2.67902e-21)
(1.0746 -0.00517216 -4.43846e-21)
(1.07366 -0.00799059 7.86463e-21)
(1.0761 -0.00966345 -7.57142e-21)
(1.26135 -0.60939 7.26914e-22)
(1.2464 -0.606114 -5.60279e-21)
(1.35305 0.0474785 0)
(1.33696 0.0606594 -1.40901e-20)
(1.30782 0.0554817 0)
(1.30918 0.0380882 0)
(1.46558 0.0837021 -6.04886e-21)
(1.41999 0.0679154 1.79383e-20)
(1.51822 0.101658 -1.35614e-19)
(-0.083842 0.0423349 1.88383e-20)
(-0.0570898 0.0129744 -2.87952e-20)
(1.08394 0.551924 -1.35486e-20)
(1.15186 0.708471 3.65229e-21)
(1.21298 -0.627657 2.82111e-20)
(1.34666 -0.58428 -1.40099e-20)
(0.466894 -0.0479979 6.69769e-20)
(0.451426 -0.196844 3.104e-19)
(0.404537 0.829731 -3.8077e-20)
(0.701078 0.717878 5.48472e-20)
(1.03699 0.041731 5.86848e-21)
(1.04242 0.0464984 7.3295e-21)
(1.03641 0.0456876 3.44414e-22)
(1.03001 0.0384352 -5.87868e-23)
(1.03416 0.0347693 -7.6566e-21)
(1.0302 0.0347971 -1.05344e-20)
(1.03965 0.0391666 -4.26675e-21)
(1.04545 0.0440807 4.95663e-20)
(0.0327533 0.0843912 3.9656e-20)
(0.00976158 0.0655004 -1.65376e-20)
(-0.0399894 0.112612 2.56665e-20)
(0.967695 0.344768 -1.55868e-21)
(1.10159 0.311995 -1.09586e-22)
(1.12049 0.323934 1.02413e-22)
(1.12203 0.146745 -1.80366e-21)
(1.13947 0.164771 -2.41884e-20)
(1.74353 0.225366 -9.54881e-20)
(1.62671 0.185486 -1.23472e-20)
(1.52767 0.198174 -1.52194e-20)
(0.973128 -0.206744 -1.83157e-20)
(0.967458 -0.185444 0)
(0.967675 -0.16763 -1.31369e-21)
(1.37095 -0.261841 0)
(1.38261 -0.249515 1.89601e-20)
(0.308337 0.0271179 1.31609e-19)
(0.727542 0.028487 6.95609e-21)
(0.863172 0.0565705 0)
(1.13863 -0.400326 5.06997e-21)
(1.14466 -0.357255 -1.43585e-20)
(0.916363 0.295014 -1.79614e-19)
(1.17269 0.470001 0)
(0.600351 0.00597051 -3.23758e-22)
(0.588702 0.00444684 0)
(0.627756 0.00649102 5.47733e-22)
(0.871988 0.280489 -8.34493e-20)
(0.86255 0.256264 8.22574e-20)
(0.907626 0.227693 -1.56324e-19)
(0.916732 0.266268 1.44429e-19)
(0.937163 0.396541 1.30555e-21)
(0.944489 0.320836 -5.29132e-21)
(0.73698 -0.0062894 -1.847e-22)
(0.798776 -0.00688185 1.14344e-21)
(0.758646 -0.00499523 -8.35578e-22)
(-0.0806681 -0.0187612 1.50373e-21)
(-0.0571291 -0.0363647 0)
(-0.00505786 0.0430275 0)
(-0.0235576 0.41533 9.38655e-20)
(0.0835291 0.219629 -2.66023e-19)
(1.00642 0.0291021 1.74737e-20)
(1.01028 0.0408563 0)
(1.01353 0.0447366 -9.37959e-21)
(1.06504 -0.109848 3.97919e-20)
(1.01921 -0.123821 0)
(1.00433 -0.0844058 1.56602e-20)
(1.0671 -0.00816904 0)
(1.06538 -0.0121901 5.48643e-21)
(1.06872 -0.0108823 5.3912e-21)
(0.950724 -0.194571 0)
(0.956713 -0.223958 4.59347e-20)
(0.33382 0.321585 6.19216e-20)
(0.519477 0.259315 3.18616e-19)
(0.452663 0.461727 0)
(0.998624 -0.0142872 1.35354e-20)
(1.0002 -0.0189855 -1.2685e-20)
(1.00488 -0.0220856 0)
(1.11875 0.0144446 2.13982e-22)
(1.11076 0.0113243 -6.22336e-24)
(0.462726 -0.0145861 -2.18366e-19)
(0.741273 -0.131408 2.74458e-19)
(0.2842 0.118594 5.3754e-20)
(1.04207 0.0383847 2.01376e-20)
(1.03763 0.0339866 -5.94865e-22)
(1.33637 -0.548437 3.75246e-20)
(1.31103 -0.569335 -1.58325e-20)
(1.29168 -0.585788 5.83273e-21)
(1.04391 0.34211 -1.64343e-21)
(1.02155 0.337673 -3.8126e-23)
(1.01936 0.363123 1.99348e-22)
(0.992506 0.364285 5.64477e-22)
(1.12197 0.0228335 1.29032e-22)
(1.12797 0.0242486 -9.07165e-23)
(1.12731 0.0169663 1.97249e-24)
(1.07195 -0.0804675 6.61512e-21)
(1.05413 -0.065472 -1.95017e-21)
(1.13449 -0.461633 -3.26742e-20)
(1.04057 -0.595559 2.54499e-20)
(1.14865 0.326089 1.09795e-22)
(1.17307 0.331074 -9.84128e-23)
(1.09544 -0.0578927 -9.84191e-22)
(1.09435 -0.0512094 0)
(1.09462 -0.0155195 3.65847e-21)
(1.09022 -0.017512 -4.70918e-21)
(1.08202 0.174743 -1.53183e-21)
(1.09607 0.184917 1.68844e-21)
(1.43799 0.0412215 2.29703e-20)
(1.30752 0.255704 -1.10333e-20)
(1.26979 0.22495 1.68208e-20)
(1.25915 0.194258 -2.83581e-20)
(1.41313 -0.211697 -2.44676e-21)
(1.40921 -0.19929 0)
(1.52949 0.284454 -4.85075e-20)
(1.50724 0.260382 1.08707e-19)
(0.897669 -0.147111 -1.22286e-19)
(1.15 -0.168424 0)
(-0.244078 0.0686214 -1.8383e-20)
(-0.230395 0.00349522 0)
(-0.177347 0.0509087 0)
(-0.120595 0.195392 -8.93135e-20)
(-0.0674723 0.147193 1.71479e-19)
(0.906323 -0.0300118 0)
(0.918139 -0.0480026 1.01118e-19)
(0.933037 -0.0301386 3.1322e-20)
(0.924993 -0.0181873 -2.58812e-20)
(1.07185 -0.00885791 -1.20756e-20)
(1.0704 -0.00661439 7.44111e-21)
(1.33277 0.0325609 -1.66661e-20)
(0.606586 -0.00580816 -1.29975e-22)
(1.04165 0.539321 -2.24765e-20)
(1.03809 0.539754 0)
(1.03913 0.541312 -2.86219e-21)
(1.03867 0.542913 0)
(1.03639 0.548598 0)
(1.03341 0.555872 8.16403e-21)
(1.02964 0.564171 4.38703e-22)
(1.02468 0.572473 -1.87727e-20)
(1.01846 0.579565 9.52707e-21)
(1.01072 0.583841 -1.10791e-20)
(1.00145 0.583419 -9.35811e-22)
(0.990531 0.575524 1.20256e-20)
(0.978347 0.557826 0)
(0.965069 0.527295 -1.55518e-20)
(0.951575 0.482483 1.53795e-20)
(0.938323 0.421805 0)
(0.92638 0.346215 1.88993e-20)
(0.916109 0.256854 -1.91128e-20)
(0.908213 0.157102 2.0256e-20)
(0.902611 0.0503358 -4.11564e-20)
(0.899762 -0.0592294 4.06883e-20)
(0.899219 -0.166559 -4.04195e-20)
(0.901135 -0.26765 1.97119e-20)
(0.905511 -0.357513 0)
(0.912571 -0.433921 0)
(0.921384 -0.493791 1.53613e-20)
(0.931704 -0.538011 -1.31269e-21)
(0.942628 -0.566038 -1.40335e-20)
(0.954342 -0.58111 -1.15551e-20)
(0.965913 -0.585574 1.16827e-20)
(0.977241 -0.5846 -9.86255e-21)
(0.987258 -0.581761 1.02688e-20)
(0.996318 -0.580791 -5.62864e-22)
(1.00396 -0.58246 0)
(1.01127 -0.588484 0)
(1.01722 -0.596859 -1.93014e-21)
(1.0224 -0.608471 -1.2545e-20)
(1.00963 -0.577862 0)
(1.01895 -0.587188 3.58929e-21)
(1.01639 -0.604039 -2.11488e-21)
(1.03426 0.539945 2.62764e-21)
(1.03133 0.539121 -1.25691e-21)
(1.03779 0.540169 0)
(1.01818 -0.614342 0)
(1.00877 -0.589871 0)
(1.01329 -0.59569 4.08793e-21)
(0.997615 -0.589641 9.89797e-21)
(1.00375 -0.58808 5.52211e-22)
(0.982611 -0.595846 -1.00739e-21)
(0.990733 -0.593457 -2.05562e-20)
(0.965802 -0.580748 0)
(0.974369 -0.593353 1.16809e-20)
(0.950233 -0.514092 -3.36985e-20)
(0.957908 -0.555559 1.55779e-20)
(0.93884 -0.381248 2.02941e-20)
(0.943935 -0.456463 1.69956e-20)
(0.934506 -0.189524 2.19832e-20)
(0.935925 -0.291614 -1.96165e-20)
(0.937427 0.0317441 0)
(0.935215 -0.0805021 -2.12498e-20)
(0.947956 0.246426 0)
(0.941836 0.142116 0)
(0.966212 0.420702 1.82864e-20)
(0.9564 0.340503 0)
(0.988527 0.533151 1.5454e-20)
(0.977354 0.48533 -1.76783e-20)
(1.00929 0.584329 -1.28836e-20)
(0.999528 0.565683 -1.49405e-20)
(1.02466 0.592324 -1.08955e-20)
(1.01785 0.59239 1.24556e-20)
(1.03382 0.579074 -9.51407e-21)
(1.03004 0.587185 1.05298e-20)
(1.03774 0.560414 -8.67605e-21)
(1.03642 0.569671 9.08202e-21)
(1.03772 0.546226 0)
(1.0382 0.55214 8.51309e-21)
(1.03657 0.54213 -2.74791e-22)
(1.03653 0.542932 0)
(1.04586 0.536956 1.25962e-20)
(1.04053 0.539219 0)
(1.02526 0.556002 8.07608e-21)
(1.03092 0.549139 -8.26905e-21)
(1.01018 0.568924 2.79558e-22)
(1.01808 0.563047 5.55134e-25)
(0.989147 0.571932 2.13248e-20)
(1.00033 0.572402 -9.95178e-21)
(0.962144 0.548445 0)
(0.976217 0.564445 -1.07178e-20)
(0.931434 0.479607 0)
(0.946837 0.520567 0)
(0.902136 0.353408 1.73488e-20)
(0.916041 0.423916 0)
(0.880022 0.174404 1.86905e-20)
(0.88966 0.269941 -1.68168e-20)
(0.868374 -0.0349681 1.88578e-20)
(0.872585 0.072414 -1.81182e-20)
(0.869611 -0.240638 0)
(0.866768 -0.139415 -1.82814e-20)
(0.884181 -0.40803 -1.5669e-20)
(0.875109 -0.329785 0)
(0.907315 -0.516226 4.16682e-22)
(0.894595 -0.469195 1.5631e-20)
(0.935031 -0.563868 1.17773e-20)
(0.920365 -0.546365 -1.13878e-20)
(0.963773 -0.570776 -1.96084e-20)
(0.949242 -0.570071 9.57704e-21)
(0.988875 -0.56919 2.65607e-22)
(0.976683 -0.569049 9.17027e-21)
(0.999659 -0.571647 0)
(1.04384 0.540217 -2.65199e-21)
(1.03669 0.541969 -3.16074e-24)
(1.02787 0.539887 -6.41493e-22)
(1.01805 -0.62619 4.52078e-21)
(1.02502 -0.623575 -7.36767e-21)
(1.0105 -0.626154 -3.37905e-21)
(1.0167 -0.638143 0)
(1.00583 -0.636021 4.70527e-21)
(1.0279 -0.598107 -1.62672e-22)
(1.00819 -0.564606 3.91584e-21)
(1.01995 -0.574178 -1.13874e-20)
(1.05099 0.532225 6.33377e-21)
(1.05033 0.537858 7.26742e-21)
(1.05731 0.533163 -2.34417e-21)
(1.05393 0.540224 -5.11436e-21)
(1.04527 0.54231 1.97259e-21)
(1.01466 -0.606344 -4.25291e-21)
(1.01351 -0.616051 2.14186e-21)
(1.01324 -0.593064 -5.43426e-22)
(1.01448 -0.598425 2.31648e-21)
(1.00798 -0.593423 0)
(1.01105 -0.591513 0)
(0.999473 -0.6009 3.08901e-21)
(1.00404 -0.597765 -1.01086e-23)
(0.989773 -0.588082 -3.77774e-21)
(0.994548 -0.599356 -2.96591e-21)
(0.981065 -0.524266 0)
(0.985084 -0.56417 3.62754e-21)
(0.975725 -0.393322 0)
(0.977699 -0.467403 0)
(0.974732 -0.202872 0)
(0.974653 -0.303978 0)
(0.976887 0.0189621 5.94469e-21)
(0.97522 -0.0936721 -5.70891e-21)
(0.984658 0.237654 5.79241e-21)
(0.9798 0.131145 -5.56266e-21)
(0.998804 0.417988 5.24727e-21)
(0.990945 0.334696 -5.03908e-21)
(1.01608 0.535494 0)
(1.00729 0.485332 0)
(1.03134 0.588833 0)
(1.02418 0.56935 0)
(1.04115 0.596442 3.07794e-21)
(1.03697 0.596838 -2.95564e-21)
(1.04495 0.581615 0)
(1.04372 0.590556 0)
(1.04381 0.561299 1.11365e-21)
(1.04496 0.571407 0)
(1.03932 0.544867 0)
(1.04193 0.552202 0)
(1.03188 0.535818 -2.35079e-21)
(1.03596 0.539322 2.2463e-21)
(1.02077 0.534677 0)
(1.02676 0.534565 1.21332e-21)
(1.03783 0.536213 1.8576e-21)
(1.04403 0.533613 -1.94026e-21)
(1.02246 0.546308 -3.90649e-21)
(1.03022 0.540906 3.92002e-21)
(1.00279 0.556134 -2.87092e-22)
(1.01301 0.551648 -1.20722e-25)
(0.977707 0.556349 4.83952e-21)
(0.991041 0.558282 -4.6065e-21)
(0.946694 0.532004 5.60935e-21)
(0.962909 0.548367 -5.33933e-21)
(0.91211 0.465972 6.58876e-21)
(0.929629 0.505209 -6.2717e-21)
(0.879119 0.346952 7.63352e-21)
(0.895071 0.413339 -7.26631e-21)
(0.853836 0.178225 8.49578e-21)
(0.865227 0.267924 -8.08717e-21)
(0.840998 -0.0202069 8.90603e-21)
(0.845651 0.0808765 -8.47768e-21)
(0.843156 -0.217237 8.7027e-21)
(0.8403 -0.121276 -8.28406e-21)
(0.859099 -0.380477 7.93941e-21)
(0.849736 -0.30496 -7.55734e-21)
(0.884554 -0.489744 2.72372e-21)
(0.870989 -0.442832 -4.42648e-22)
(0.916297 -0.540795 2.99706e-21)
(0.899924 -0.522221 -3.37183e-21)
(0.950345 -0.551593 -1.39159e-22)
(0.933489 -0.549394 -2.19589e-21)
(0.981599 -0.553572 -2.65498e-22)
(0.966638 -0.552114 0)
(0.995406 -0.557648 0)
(1.03358 -0.618443 2.64641e-21)
(1.06339 0.535522 1.28493e-21)
(1.02767 -0.63713 -2.4593e-21)
(1.01378 0.534772 -1.34676e-21)
(1.01397 0.527791 1.00043e-21)
(1.00484 0.527032 -1.48391e-22)
(1.01377 -0.649019 0)
(0.998991 -0.64444 -1.01314e-23)
(1.03241 -0.585156 -2.03743e-21)
(1.04568 -0.599193 -2.25662e-21)
(1.04011 -0.609319 9.81299e-21)
(1.03494 0.54336 -2.61056e-22)
(1.02349 0.540467 -1.71263e-22)
(1.05791 0.542035 1.29379e-21)
(1.04628 0.544079 1.28343e-22)
(1.00265 -0.622238 5.7696e-22)
(0.984979 -0.636235 -2.38308e-21)
(0.995031 -0.630357 1.05793e-21)
(1.01265 -0.604719 1.23567e-22)
(1.00851 -0.613422 0)
(1.01745 -0.592591 5.58973e-22)
(1.01554 -0.597423 -2.64542e-22)
(1.01826 -0.59378 0)
(1.01827 -0.591444 0)
(1.01664 -0.601614 0)
(1.01762 -0.598343 0)
(1.01462 -0.588684 0)
(1.01554 -0.59996 0)
(1.01372 -0.524704 0)
(1.01392 -0.564639 0)
(1.01491 -0.393865 0)
(1.01403 -0.467787 0)
(1.01704 -0.204172 0)
(1.01597 -0.304978 0)
(1.0195 0.0179881 0)
(1.01806 -0.0950976 0)
(1.02562 0.239 0)
(1.022 0.130996 0)
(1.03595 0.422179 0)
(1.03039 0.337577 0)
(1.04764 0.540603 0)
(1.04192 0.490329 0)
(1.05636 0.592566 0)
(1.05261 0.574029 0)
(1.05959 0.597726 0)
(1.05872 0.5994 0)
(1.05734 0.58057 0)
(1.05909 0.590599 0)
(1.05086 0.55851 -1.12373e-21)
(1.05461 0.569414 0)
(1.04151 0.540403 0)
(1.04655 0.548596 5.46762e-22)
(1.02947 0.530237 0)
(1.03589 0.534147 1.62993e-23)
(1.02222 0.52834 2.87915e-22)
(1.05624 0.52593 -2.10667e-21)
(1.07301 0.52913 5.54756e-22)
(1.06445 0.527127 -1.65215e-21)
(1.03949 0.528295 3.04342e-22)
(1.04774 0.526441 -2.4106e-22)
(1.02019 0.535915 0)
(1.03 0.531876 -4.70112e-25)
(0.996741 0.542901 0)
(1.00891 0.539998 1.22766e-25)
(0.967778 0.539769 0)
(0.982955 0.543299 0)
(0.933118 0.512933 0)
(0.951079 0.530259 0)
(0.895213 0.446948 0)
(0.914303 0.485676 0)
(0.859391 0.331627 0)
(0.876634 0.395637 0)
(0.832132 0.1698 0)
(0.844304 0.25572 0)
(0.818525 -0.0202918 0)
(0.823418 0.0766139 0)
(0.821023 -0.208969 0)
(0.81768 -0.116824 0)
(0.838267 -0.366418 0)
(0.827997 -0.293244 0)
(0.866662 -0.471866 0)
(0.851229 -0.426493 0)
(0.902809 -0.520676 0)
(0.883991 -0.502806 0)
(0.94132 -0.531959 1.41439e-22)
(0.922148 -0.529086 0)
(0.976558 -0.536368 -9.4392e-22)
(0.959507 -0.53355 0)
(1.00743 -0.549539 -2.31685e-22)
(0.992432 -0.541683 9.12389e-22)
(1.03674 -0.571914 5.82728e-21)
(1.02173 -0.559853 2.22591e-22)
(0.989748 -0.649137 6.65987e-22)
(0.971932 -0.637737 1.97169e-21)
(1.06993 0.537531 0)
(1.03809 -0.633099 -1.76341e-21)
(1.00643 0.532833 6.22757e-22)
(0.994849 0.523966 -1.25388e-21)
(1.02852 -0.650081 0)
(1.00855 -0.657329 -2.96527e-21)
(1.05217 -0.585422 -4.02897e-21)
(1.05889 -0.615292 -2.39372e-21)
(1.08265 0.520808 1.54838e-21)
(0.977674 -0.648322 0)
(0.95646 -0.633128 -4.18129e-22)
(1.08204 0.530995 4.69517e-21)
(1.09345 0.522715 -4.73894e-21)
(1.06769 -0.601359 4.5128e-21)
(1.04884 -0.626136 0)
(1.03229 0.542624 3.50741e-22)
(1.01841 0.539065 8.39176e-22)
(1.06139 0.541767 0)
(1.04675 0.543586 -4.22455e-23)
(1.09192 0.53055 0)
(1.07669 0.537233 0)
(0.97192 -0.624498 0)
(0.936976 -0.61511 1.84779e-21)
(0.956103 -0.62322 -1.14013e-21)
(0.995323 -0.614549 1.49515e-21)
(0.98472 -0.620932 -2.07293e-21)
(1.01117 -0.599476 -6.01866e-22)
(1.00404 -0.606953 4.74394e-22)
(1.02188 -0.589436 0)
(1.01701 -0.593262 0)
(1.02899 -0.59201 0)
(1.02579 -0.589082 0)
(1.03452 -0.60028 0)
(1.03178 -0.596878 0)
(1.04045 -0.587212 0)
(1.03734 -0.598563 0)
(1.04738 -0.522886 0)
(1.04377 -0.563006 0)
(1.05468 -0.391866 0)
(1.0511 -0.465809 0)
(1.06029 -0.202274 0)
(1.05778 -0.303063 0)
(1.06436 0.0208181 0)
(1.06239 -0.0929112 0)
(1.06915 0.243764 0)
(1.06658 0.134791 0)
(1.07531 0.427929 0)
(1.07215 0.343069 0)
(1.08076 0.545162 0)
(1.07835 0.495764 0)
(1.08234 0.594247 0)
(1.08219 0.577271 0)
(1.07855 0.596286 0)
(1.08112 0.599475 0)
(1.07005 0.576716 0)
(1.0748 0.587862 0)
(1.05824 0.553069 0)
(1.06447 0.564702 0)
(1.04415 0.533674 0)
(1.05147 0.542537 0)
(1.02768 0.52211 0)
(1.03627 0.526796 -1.60088e-23)
(1.00831 0.518094 -5.93729e-22)
(1.01843 0.51943 -2.53525e-22)
(0.985067 0.512827 2.3987e-21)
(0.997218 0.516655 0)
(1.06196 0.517361 4.69287e-22)
(1.07192 0.518747 -5.14119e-22)
(1.04159 0.518667 0)
(1.05193 0.517207 -4.60428e-22)
(1.01883 0.524445 0)
(1.03051 0.521353 0)
(0.992035 0.528844 0)
(1.00593 0.527345 0)
(0.959849 0.522614 0)
(0.976606 0.527733 0)
(0.922254 0.493209 0)
(0.941629 0.511682 0)
(0.881803 0.426737 0)
(0.902114 0.465382 0)
(0.843864 0.314209 0)
(0.862116 0.376419 0)
(0.815026 0.158465 0)
(0.827917 0.241022 0)
(0.800664 -0.0232411 0)
(0.8058 0.0693051 0)
(0.803261 -0.203433 0)
(0.799788 -0.115431 0)
(0.821831 -0.35365 0)
(0.810712 -0.283843 0)
(0.853166 -0.453748 0)
(0.83608 -0.410784 0)
(0.893163 -0.499885 0)
(0.872411 -0.482941 0)
(0.935176 -0.511775 0)
(0.914364 -0.508232 0)
(0.973348 -0.518388 0)
(0.954902 -0.514419 0)
(1.00741 -0.533365 -8.37459e-22)
(0.990657 -0.524714 0)
(1.04016 -0.556274 -4.26111e-22)
(1.02372 -0.54383 1.02991e-21)
(1.07494 -0.584941 0)
(1.05763 -0.569496 -1.95722e-21)
(0.937667 -0.619489 -4.48298e-21)
(0.914518 -0.596688 3.4426e-21)
(1.08337 -0.6183 -6.9652e-21)
(1.09348 -0.601428 -8.65078e-21)
(1.04322 -0.647965 -7.16924e-22)
(1.07096 -0.63252 2.38105e-21)
(1.10612 0.522 -4.88924e-21)
(1.02735 -0.661341 0)
(0.972269 0.505126 6.61098e-22)
(0.976786 0.499969 -1.14658e-21)
(0.96221 0.491824 5.63614e-22)
(1.00043 -0.660392 2.83504e-21)
(0.962487 -0.63884 -3.18011e-21)
(1.09937 -0.635702 -3.52383e-23)
(0.915176 -0.593205 2.67842e-21)
(0.889185 -0.566219 2.81363e-22)
(1.11335 -0.618117 7.1184e-21)
(1.05738 -0.642322 6.78378e-22)
(0.997854 0.526146 -1.38072e-21)
(0.984239 0.516709 1.3001e-21)
(1.0293 0.536996 -3.61166e-22)
(1.01252 0.533013 0)
(1.06457 0.537206 -1.44485e-21)
(1.04679 0.538671 0)
(1.10087 0.526035 -7.24053e-22)
(1.08266 0.532848 2.18773e-21)
(0.919682 -0.594107 -1.6433e-21)
(0.866448 -0.538038 2.43288e-21)
(0.894575 -0.571945 4.99901e-22)
(0.959776 -0.609108 0)
(0.941172 -0.605123 1.19608e-21)
(0.988779 -0.603579 0)
(0.975433 -0.608032 0)
(1.01036 -0.591271 0)
(1.00041 -0.597496 0)
(1.02681 -0.583526 0)
(1.01906 -0.58626 0)
(1.04012 -0.587449 0)
(1.03372 -0.584008 0)
(1.05274 -0.59581 0)
(1.04635 -0.592484 0)
(1.06642 -0.582274 0)
(1.05941 -0.59387 0)
(1.0809 -0.517611 0)
(1.07363 -0.557836 0)
(1.0943 -0.387251 0)
(1.08791 -0.460684 0)
(1.10409 -0.199266 0)
(1.09974 -0.299213 0)
(1.10992 0.0227182 0)
(1.10744 -0.0906159 0)
(1.11332 0.245412 0)
(1.11185 0.136513 0)
(1.11522 0.429267 0)
(1.11451 0.344645 0)
(1.11439 0.545072 0)
(1.11531 0.496561 0)
(1.10875 0.591699 0)
(1.11226 0.576018 0)
(1.0979 0.591304 0)
(1.10392 0.595642 0)
(1.08317 0.569976 0)
(1.09092 0.581902 0)
(1.06611 0.545183 0)
(1.07487 0.557335 0)
(1.04747 0.524818 0)
(1.05699 0.534176 0)
(1.02689 0.511853 -3.67979e-24)
(1.03755 0.517302 3.68355e-24)
(1.00349 0.506327 -2.38296e-23)
(1.01557 0.508279 1.80907e-23)
(0.990541 0.504065 -2.58012e-22)
(1.09245 0.509929 -1.00482e-21)
(1.11914 0.511206 5.87182e-21)
(1.10484 0.511989 -2.09258e-21)
(1.06823 0.506245 -1.04968e-22)
(1.07963 0.507958 -1.17735e-22)
(1.04428 0.506964 0)
(1.0562 0.505996 0)
(1.01838 0.511248 0)
(1.03162 0.508989 0)
(0.988684 0.513314 0)
(1.00404 0.513075 0)
(0.953904 0.504331 0)
(0.971933 0.51086 0)
(0.914101 0.472717 0)
(0.934525 0.492156 0)
(0.871849 0.406035 0)
(0.89301 0.444463 0)
(0.832422 0.29644 0)
(0.851384 0.356777 0)
(0.80238 0.146864 0)
(0.81583 0.225995 0)
(0.787308 -0.0264618 0)
(0.792717 0.0617393 0)
(0.789943 -0.197824 0)
(0.786352 -0.114127 0)
(0.809556 -0.340423 0)
(0.797755 -0.274224 0)
(0.8433 -0.434649 0)
(0.824848 -0.394351 0)
(0.886517 -0.477818 0)
(0.864123 -0.461881 0)
(0.931509 -0.490541 0)
(0.909283 -0.48616 0)
(0.97206 -0.499638 0)
(0.952478 -0.494442 0)
(1.00821 -0.515836 0)
(0.99048 -0.506842 0)
(1.04344 -0.538373 0)
(1.02575 -0.526376 0)
(1.08042 -0.566953 9.29579e-22)
(1.0615 -0.551867 0)
(1.12286 -0.599364 0)
(1.10067 -0.583122 4.04277e-21)
(0.861546 -0.521353 -1.21403e-21)
(0.836813 -0.48929 1.52782e-21)
(1.13276 -0.634185 0)
(1.1458 -0.615189 0)
(1.11812 0.517324 0)
(1.04627 -0.661573 -6.51208e-22)
(1.08284 -0.649167 0)
(0.959085 0.490929 2.94124e-22)
(0.947171 0.476986 1.08684e-21)
(1.02346 -0.667655 7.6586e-22)
(1.11454 -0.651546 1.50777e-21)
(0.988915 -0.655 7.24939e-22)
(0.943042 -0.616555 -1.40644e-21)
(0.889597 -0.551679 0)
(1.13187 0.497805 -1.11829e-21)
(1.15035 -0.648026 -6.66117e-21)
(0.83138 -0.459196 -4.83849e-21)
(0.805519 -0.425046 -3.57e-21)
(1.16849 -0.628821 -1.44941e-21)
(1.13357 0.506466 0)
(1.14709 0.493785 3.62203e-21)
(1.06501 -0.657701 -1.02795e-21)
(0.989146 0.512802 0)
(0.972896 0.502729 8.61452e-23)
(1.0253 0.524809 1.87845e-22)
(1.00638 0.52035 -1.98666e-22)
(1.06728 0.526008 9.76161e-23)
(1.0461 0.526756 0)
(1.10983 0.515289 0)
(1.08854 0.522003 -9.93206e-23)
(1.14922 0.49506 5.50284e-21)
(1.13047 0.506255 -2.84275e-21)
(0.847791 -0.509256 -1.1906e-21)
(0.784491 -0.392154 -1.23549e-21)
(0.816239 -0.457145 1.00557e-22)
(0.904381 -0.570086 -5.47455e-23)
(0.877323 -0.545403 0)
(0.949208 -0.590782 0)
(0.928247 -0.584237 -6.43741e-22)
(0.983578 -0.589585 3.7068e-22)
(0.967518 -0.591918 -4.54347e-22)
(1.01027 -0.580389 0)
(0.997709 -0.585217 0)
(1.0321 -0.574729 0)
(1.02165 -0.576526 0)
(1.05128 -0.579535 0)
(1.04186 -0.575846 0)
(1.07057 -0.587418 0)
(1.06074 -0.584447 0)
(1.09154 -0.57315 0)
(1.08084 -0.58506 0)
(1.11325 -0.508645 0)
(1.10244 -0.548612 0)
(1.13277 -0.380111 0)
(1.12352 -0.452416 0)
(1.1469 -0.194936 0)
(1.14066 -0.293458 0)
(1.15453 0.024681 0)
(1.15151 -0.0875774 0)
(1.15683 0.245966 0)
(1.15627 0.137666 0)
(1.15488 0.42853 0)
(1.15641 0.344635 0)
(1.14796 0.54202 0)
(1.15215 0.494804 0)
(1.1351 0.585747 0)
(1.14227 0.571508 0)
(1.11721 0.583025 0)
(1.12666 0.588406 0)
(1.09636 0.560351 0)
(1.10703 0.57284 0)
(1.07421 0.534851 0)
(1.08539 0.547309 0)
(1.05127 0.513831 0)
(1.06287 0.523556 0)
(1.02698 0.499755 4.4008e-22)
(1.03946 0.505777 -4.34104e-22)
(0.999837 0.49241 -2.08788e-22)
(1.01383 0.495366 2.58653e-22)
(0.969857 0.484923 0)
(0.985249 0.489501 -1.12135e-22)
(0.937395 0.461677 -2.44803e-21)
(0.953776 0.476326 -4.84878e-22)
(1.10173 0.496997 -4.3759e-22)
(1.11577 0.498671 1.02491e-21)
(1.07433 0.493412 1.05271e-22)
(1.08747 0.49504 5.39187e-22)
(1.04735 0.493587 0)
(1.06077 0.49296 0)
(1.01871 0.496472 0)
(1.03329 0.495 0)
(0.986585 0.49633 0)
(1.00314 0.497275 0)
(0.949745 0.484781 0)
(0.968767 0.492606 0)
(0.908339 0.451216 0)
(0.92951 0.471483 0)
(0.864901 0.384577 0)
(0.886609 0.422655 0)
(0.824543 0.278123 0)
(0.843947 0.336472 0)
(0.793723 0.134945 0)
(0.807538 0.210511 0)
(0.778139 -0.0297027 0)
(0.783753 0.0539802 0)
(0.78071 -0.191872 0)
(0.777086 -0.11272 0)
(0.801062 -0.326226 0)
(0.788751 -0.263976 0)
(0.83671 -0.41403 0)
(0.817174 -0.376632 0)
(0.882361 -0.454229 0)
(0.858754 -0.439232 0)
(0.929475 -0.46807 0)
(0.906243 -0.46271 0)
(0.972037 -0.479803 0)
(0.951417 -0.473318 0)
(1.01067 -0.497401 0)
(0.991632 -0.48793 0)
(1.04858 -0.519822 0)
(1.02956 -0.508022 0)
(1.0878 -0.547469 0)
(1.06792 -0.532923 0)
(1.13094 -0.579717 2.11486e-21)
(1.10852 -0.56325 -9.02344e-22)
(1.17964 -0.610347 -1.09276e-20)
(1.15481 -0.595575 2.81975e-21)
(1.18932 -0.637865 0)
(1.20504 -0.620392 6.17255e-21)
(0.773945 -0.345386 1.65972e-21)
(0.75259 -0.312295 2.71553e-22)
(1.0472 -0.670935 7.86469e-22)
(1.09358 -0.66371 -1.44217e-21)
(1.16498 0.482679 2.55098e-21)
(1.01593 -0.665979 -8.59234e-22)
(1.12738 -0.663852 8.63529e-22)
(0.92083 0.43925 1.14552e-21)
(0.929634 0.44482 2.43771e-22)
(0.912307 0.423043 -4.98807e-22)
(0.973056 -0.636693 8.55429e-22)
(1.16643 -0.654482 6.66883e-21)
(0.920128 -0.57843 1.84017e-21)
(1.20885 -0.637595 0)
(0.860745 -0.491611 1.85661e-21)
(0.80005 -0.379445 0)
(0.743394 -0.250627 3.59865e-21)
(0.722315 -0.218525 -2.93159e-21)
(1.07085 -0.669702 3.56875e-22)
(0.945409 0.468416 3.45701e-22)
(0.93192 0.454543 0)
(0.979254 0.4907 -8.13841e-22)
(0.961127 0.480526 0)
(1.02153 0.503826 0)
(0.999488 0.498456 9.99398e-22)
(1.06932 0.506235 0)
(1.04514 0.506503 0)
(1.11784 0.496631 6.77201e-24)
(1.09344 0.503081 0)
(1.16361 0.476462 0)
(1.14161 0.487855 0)
(0.767417 -0.359283 1.04345e-21)
(0.706434 -0.188895 0)
(0.735873 -0.280066 1.71529e-22)
(0.832005 -0.477963 0)
(0.799584 -0.424854 4.01872e-22)
(0.891447 -0.543752 0)
(0.863006 -0.516937 0)
(0.940266 -0.569815 -3.07111e-22)
(0.917145 -0.560546 0)
(0.979222 -0.573046 0)
(0.960779 -0.573369 3.8489e-22)
(1.01079 -0.567002 0)
(0.99579 -0.570436 0)
(1.03754 -0.563176 0)
(1.0246 -0.564207 0)
(1.06211 -0.5684 0)
(1.04991 -0.564706 0)
(1.0875 -0.575373 0)
(1.07453 -0.572953 0)
(1.11519 -0.560256 0)
(1.10108 -0.572481 0)
(1.14364 -0.496314 0)
(1.12952 -0.535758 0)
(1.16904 -0.370297 0)
(1.15701 -0.441116 0)
(1.1874 -0.188873 0)
(1.17929 -0.285438 0)
(1.19701 0.0270019 0)
(1.19332 -0.0834643 0)
(1.19864 0.245335 0)
(1.19876 0.138422 0)
(1.19327 0.425108 0)
(1.19686 0.342655 0)
(1.18052 0.53532 0)
(1.18787 0.489784 0)
(1.16065 0.575995 0)
(1.17138 0.563177 0)
(1.13595 0.571375 0)
(1.14871 0.577535 0)
(1.1093 0.547953 0)
(1.12272 0.560706 0)
(1.08239 0.522244 0)
(1.09582 0.534783 0)
(1.05552 0.500905 0)
(1.06898 0.510856 0)
(1.02778 0.485859 0)
(1.04187 0.492518 0)
(0.997683 0.476979 -5.35158e-23)
(1.0132 0.480767 0)
(0.964504 0.468118 -4.34127e-22)
(0.981319 0.473198 5.36337e-22)
(0.947201 0.459358 -2.42382e-22)
(1.14369 0.482161 0)
(1.17894 0.467869 -5.80872e-21)
(1.16038 0.478173 2.10911e-21)
(1.1107 0.482056 0)
(1.12602 0.48352 0)
(1.08036 0.478977 0)
(1.09499 0.480441 0)
(1.05073 0.478897 0)
(1.06542 0.478544 0)
(1.01977 0.480512 0)
(1.03546 0.47978 0)
(0.985652 0.478298 0)
(1.00316 0.48035 0)
(0.94723 0.464367 0)
(0.966995 0.473383 0)
(0.904719 0.429061 0)
(0.926388 0.450049 0)
(0.860593 0.362628 0)
(0.882603 0.400282 0)
(0.819776 0.25941 0)
(0.839391 0.315722 0)
(0.788584 0.122712 0)
(0.802576 0.194662 0)
(0.772693 -0.033141 0)
(0.778445 0.0459554 0)
(0.77516 -0.185869 0)
(0.771542 -0.111416 0)
(0.796098 -0.311479 0)
(0.783369 -0.253456 0)
(0.833293 -0.392443 0)
(0.812891 -0.358107 0)
(0.880657 -0.429717 0)
(0.856244 -0.415584 0)
(0.928913 -0.444798 0)
(0.905176 -0.438434 0)
(0.972589 -0.458873 0)
(0.951352 -0.451301 0)
(1.01304 -0.47742 0)
(0.992995 -0.46768 0)
(1.05339 -0.499499 0)
(1.03309 -0.487989 0)
(1.0955 -0.526093 0)
(1.07413 -0.512159 0)
(1.1408 -0.557129 0)
(1.11766 -0.541192 0)
(1.19085 -0.58831 1.18016e-21)
(1.16507 -0.573165 0)
(1.21808 -0.599589 5.93086e-21)
(0.695849 -0.116426 1.59284e-21)
(0.681396 -0.0903656 1.33805e-21)
(1.18206 0.464375 -2.71982e-21)
(1.04423 -0.673154 3.60645e-23)
(1.10146 -0.672443 0)
(0.904552 0.408383 1.01465e-21)
(0.895066 0.392414 -1.37845e-22)
(1.00486 -0.652135 -4.41245e-23)
(1.13761 -0.666328 -8.68031e-22)
(0.953418 -0.602369 0)
(1.17931 -0.648659 0)
(0.893737 -0.521712 0)
(1.23434 -0.617737 0)
(0.830811 -0.413539 -4.43983e-21)
(0.769621 -0.284254 0)
(0.7155 -0.144114 -5.51274e-21)
(1.27713 -0.581346 3.90097e-21)
(1.19126 0.451406 2.33877e-21)
(0.674229 -0.00763011 -3.31529e-21)
(0.661871 0.0128263 0)
(1.19791 0.449967 -3.67075e-21)
(1.21098 0.434673 1.09688e-21)
(1.07309 -0.675357 0)
(0.931722 0.43707 0)
(0.91665 0.423236 -1.703e-21)
(0.969802 0.459658 0)
(0.949479 0.449181 0)
(1.01724 0.473223 0)
(0.992439 0.467622 0)
(1.07106 0.47663 0)
(1.04365 0.476428 0)
(1.12488 0.468768 -6.66777e-24)
(1.09799 0.474359 0)
(1.17664 0.449353 1.99896e-21)
(1.15149 0.46061 -1.93046e-22)
(1.21666 0.423571 2.92192e-21)
(1.19832 0.437587 -4.57706e-21)
(0.695494 -0.162076 -2.0444e-22)
(0.655101 0.0295966 8.65778e-22)
(0.672026 -0.0673064 -8.6465e-22)
(0.754701 -0.326909 -3.8254e-22)
(0.723903 -0.249364 5.80818e-22)
(0.819644 -0.445866 2.86916e-22)
(0.78683 -0.392324 -3.86201e-22)
(0.880753 -0.515223 0)
(0.85108 -0.486269 -2.83794e-22)
(0.933085 -0.546522 0)
(0.908163 -0.534775 0)
(0.976082 -0.554234 0)
(0.955627 -0.552505 0)
(1.01188 -0.551263 0)
(0.994743 -0.553339 0)
(1.04301 -0.549111 0)
(1.02786 -0.549484 0)
(1.0724 -0.554445 0)
(1.05771 -0.550908 0)
(1.10324 -0.560223 0)
(1.08747 -0.558487 0)
(1.13693 -0.544101 0)
(1.11977 -0.556693 0)
(1.17143 -0.480852 0)
(1.15432 -0.519665 0)
(1.20222 -0.357845 0)
(1.18762 -0.426879 0)
(1.22469 -0.181094 0)
(1.21475 -0.275194 0)
(1.23636 0.0297677 0)
(1.23192 -0.0782392 0)
(1.23775 0.243801 0)
(1.23831 0.138948 0)
(1.22947 0.419472 0)
(1.23487 0.339101 0)
(1.21131 0.525451 0)
(1.22162 0.481997 0)
(1.1848 0.562815 0)
(1.1989 0.551456 0)
(1.15371 0.556621 0)
(1.16957 0.563349 0)
(1.12167 0.532985 0)
(1.13765 0.54573 0)
(1.09042 0.50754 0)
(1.10591 0.519938 0)
(1.06 0.486246 0)
(1.07515 0.496238 0)
(1.02933 0.470484 0)
(1.0448 0.477636 0)
(0.996602 0.46008 0)
(1.01332 0.46475 0)
(0.960763 0.449736 -4.18698e-22)
(0.97907 0.455683 3.70005e-22)
(0.923905 0.426605 -1.42724e-22)
(0.942405 0.440898 4.67484e-23)
(0.88817 0.376042 -1.47415e-23)
(0.905682 0.405135 -9.619e-22)
(1.1539 0.465189 0)
(1.17231 0.46056 -1.21711e-21)
(1.11884 0.465529 0)
(1.13578 0.466331 0)
(1.08609 0.463279 0)
(1.10201 0.464358 0)
(1.05428 0.463107 0)
(1.07005 0.462927 0)
(1.02144 0.463613 0)
(1.03805 0.463549 0)
(0.985754 0.459512 0)
(1.00401 0.462574 0)
(0.94617 0.443422 0)
(0.966462 0.453507 0)
(0.902971 0.406599 0)
(0.924928 0.428198 0)
(0.858566 0.340525 0)
(0.880675 0.37769 0)
(0.817694 0.240594 0)
(0.83732 0.294855 0)
(0.78647 0.110365 0)
(0.800484 0.178707 0)
(0.770455 -0.0367044 0)
(0.776278 0.037799 0)
(0.772873 -0.179805 0)
(0.769241 -0.110185 0)
(0.794398 -0.296204 0)
(0.781261 -0.24266 0)
(0.832901 -0.37006 0)
(0.8118 -0.338856 0)
(0.881345 -0.404679 0)
(0.856486 -0.391224 0)
(0.929963 -0.42128 0)
(0.906105 -0.413819 0)
(0.974071 -0.437506 0)
(0.952548 -0.428996 0)
(1.01562 -0.456624 0)
(0.994947 -0.446803 0)
(1.05763 -0.478011 0)
(1.03643 -0.466969 0)
(1.10217 -0.502948 0)
(1.07946 -0.489968 0)
(1.15099 -0.531487 0)
(1.12595 -0.516877 0)
(1.20575 -0.560244 0)
(1.17735 -0.546139 0)
(1.26623 -0.582291 0)
(1.2361 -0.573053 -1.01374e-21)
(0.650172 0.114293 0)
(0.646116 0.123644 -8.03161e-22)
(1.3059 -0.525987 -2.09432e-20)
(1.33954 -0.506762 -1.86278e-20)
(1.03815 -0.663481 -9.35569e-22)
(1.10581 -0.670959 0)
(1.23142 0.409325 2.42316e-21)
(0.989374 -0.622361 9.84782e-22)
(1.14397 -0.654707 0)
(0.871324 0.338123 6.63858e-23)
(0.883621 0.358812 1.07734e-22)
(0.866758 0.322543 -1.08047e-22)
(0.930351 -0.549036 0)
(1.19043 -0.624969 1.08796e-21)
(0.865517 -0.445102 2.72013e-21)
(1.23237 -0.586802 -1.04899e-20)
(0.800444 -0.317294 2.14925e-21)
(1.2669 -0.529043 6.85763e-21)
(0.740935 -0.175029 1.91061e-21)
(0.69234 -0.0306487 3.29855e-21)
(0.659658 0.101267 1.96088e-22)
(0.647012 0.208107 1.86593e-21)
(0.647498 0.207972 -6.23896e-22)
(1.3069 -0.441636 0)
(1.34805 -0.438839 8.2101e-22)
(1.07212 -0.669774 0)
(0.888664 0.368452 -1.99775e-22)
(0.878533 0.353399 1.52458e-22)
(0.91807 0.396101 -7.66785e-22)
(0.901883 0.383039 1.48225e-21)
(0.960151 0.418259 0)
(0.937675 0.407906 0)
(1.0126 0.432455 0)
(0.985207 0.426522 0)
(1.07157 0.437033 0)
(1.04171 0.436013 0)
(1.13161 0.430572 0)
(1.10176 0.434963 0)
(1.18813 0.413629 0)
(1.16073 0.423265 -2.22719e-22)
(1.23298 0.389034 0)
(1.21262 0.401874 0)
(0.65325 0.0428972 0)
(0.652042 0.203828 -3.2044e-22)
(0.647284 0.128485 -4.1963e-22)
(0.689351 -0.136748 1.33834e-22)
(0.667358 -0.0472599 4.48159e-22)