/*--------------------------------*- C++ -*----------------------------------*\
  =========                 |
  \\      /  F ield         | OpenFOAM: The Open Source CFD Toolbox
   \\    /   O peration     | Website:  https://openfoam.org
    \\  /    A nd           | Version:  10
     \\/     M anipulation  |
\*---------------------------------------------------------------------------*/
FoamFile
{
    format      ascii;
    class       volVectorField;
    location    "27";
    object      U;
}
// * * * * * * * * * * * * * * * * * * * * * * * * * * * * * * * * * * * * * //

dimensions      [0 1 -1 0 0 0 0];

internalField   nonuniform List<vector> 
28942
(
(-0.115334 0.0530319 -3.24513e-20)
(-0.117368 0.0400712 -6.77405e-21)
(0.524337 -0.361344 7.14722e-20)
(1.01554 0.0428736 -1.30327e-19)
(0.993792 0.0525846 4.27247e-20)
(0.294365 0.0131222 0)
(0.358682 0.0355433 1.80888e-22)
(0.395116 0.0111927 -1.12267e-22)
(1.20608 -0.09254 1.17714e-21)
(1.19374 -0.0825132 -1.44585e-21)
(-0.0158143 -0.112292 -1.90499e-19)
(0.063961 -0.10413 8.68708e-20)
(-0.0461421 -0.127322 0)
(-0.0714096 -0.141857 0)
(0.764309 -0.00639199 -1.1733e-21)
(0.754406 -0.00368712 -1.98614e-22)
(0.932878 0.0924147 3.34322e-20)
(0.917088 0.0776417 5.28941e-20)
(0.338321 -0.45759 5.60233e-20)
(0.645397 -0.722186 -1.62314e-20)
(0.988636 0.237321 4.74281e-20)
(0.988319 0.221065 0)
(0.118178 0.0125432 1.72394e-19)
(-0.0578489 -0.0390569 9.53656e-20)
(0.850137 -0.142268 1.89072e-19)
(1.228 -0.240335 -1.71828e-19)
(0.190641 -0.454528 4.72918e-19)
(0.197926 -0.378344 -1.84471e-19)
(0.778828 -0.556631 -1.44315e-20)
(0.481483 -0.330529 -6.05935e-21)
(0.288977 -0.0180882 0)
(0.369827 -0.0252257 -1.11955e-21)
(0.4495 0.00112795 1.20348e-20)
(0.614246 -0.0117921 -4.52614e-21)
(0.445694 0.488659 3.62057e-20)
(0.373842 0.538629 -3.69906e-20)
(0.593759 0.705211 -1.41839e-19)
(0.386668 0.633713 -5.37513e-20)
(0.159284 0.0182152 -1.43183e-22)
(0.206042 0.490343 -9.1117e-20)
(0.656879 -0.0597708 0)
(0.855829 -0.0779017 0)
(0.95018 -0.217586 -1.18057e-21)
(0.929122 -0.203061 3.74186e-21)
(0.959206 -0.201005 3.02261e-21)
(0.542671 0.0158491 2.40771e-22)
(0.515082 0.0274279 -4.04652e-22)
(0.67485 0.0176934 -1.71751e-21)
(0.656461 0.016953 4.7624e-22)
(0.562594 0.0147057 -5.84048e-21)
(0.467043 0.0046436 3.654e-21)
(1.11615 -0.00134654 -6.23788e-21)
(1.11494 -0.00373672 -5.3992e-21)
(1.20753 -0.109418 -2.69863e-22)
(1.19323 -0.0989231 -3.30871e-23)
(1.41812 -0.0678212 1.49676e-19)
(1.57081 -0.138201 7.63029e-20)
(-0.0761672 -0.0928103 -1.11662e-19)
(-0.0267183 -0.101626 0)
(-0.0347219 -0.0648347 4.0653e-20)
(-0.0722668 -0.0697107 9.78837e-20)
(-0.0451231 -0.0425057 -7.83086e-20)
(-0.0493879 -0.0496852 -8.08341e-20)
(1.39043 -0.536129 0)
(1.55062 -0.437221 2.9717e-20)
(1.40756 -0.374534 -1.31614e-20)
(1.33193 -0.386076 0)
(0.943801 -0.227253 -2.79321e-20)
(0.964684 -0.245676 -1.78233e-20)
(-0.0655004 0.0394883 1.07778e-19)
(-0.0846942 0.0504011 -3.44892e-20)
(-0.115674 0.0758162 8.72831e-20)
(0.948358 -0.311446 0)
(0.959466 -0.274029 9.40497e-20)
(0.898052 -0.424346 2.27188e-20)
(1.45322 0.329586 2.96879e-20)
(1.48976 0.309324 -3.25507e-20)
(1.46647 0.265779 -1.73878e-20)
(0.16534 -0.0924507 3.58734e-21)
(0.238829 -0.145907 -7.20966e-20)
(1.06543 -0.643035 -1.54354e-20)
(0.814049 -0.54156 2.19779e-20)
(-0.0837939 0.0488279 1.8685e-19)
(-0.0914512 0.0511679 -7.20578e-20)
(1.26111 0.603421 -1.3696e-21)
(1.18885 0.570249 -2.87981e-20)
(1.0842 0.673378 2.40849e-20)
(0.932643 0.663708 -7.61332e-20)
(0.888491 0.634573 5.26882e-20)
(0.663279 0.458814 -2.30944e-21)
(0.731041 0.552166 -1.63893e-20)
(0.771695 0.636649 2.55908e-20)
(-0.183728 0.0448169 -2.15095e-20)
(-0.0989562 0.0551458 -5.88829e-21)
(-0.152785 -0.0781491 1.1783e-20)
(-0.177304 -0.0530878 -1.44687e-19)
(-0.167409 -0.0214577 1.83184e-19)
(0.368158 0.293009 -9.10764e-20)
(0.416856 0.361493 2.0154e-20)
(-0.0336505 0.0264167 0)
(1.00707 0.00435744 0)
(0.965321 0.053613 -9.52734e-20)
(0.889586 0.135686 7.02979e-20)
(1.07987 0.118526 0)
(1.4266 0.0356293 0)
(1.4305 0.0280159 0)
(1.45009 0.0371318 3.17474e-20)
(1.08242 0.168003 -9.37741e-21)
(1.07892 0.179734 9.56645e-20)
(1.07187 0.15787 5.07706e-20)
(-0.0855087 -0.112075 2.23073e-19)
(-0.092191 -0.121823 -2.50246e-19)
(-0.0267011 0.0325916 -5.71273e-20)
(-0.0793491 0.012838 5.1806e-20)
(-0.120459 0.0125889 1.08867e-19)
(0.171616 0.241555 8.46927e-20)
(0.391735 0.241257 2.0522e-19)
(0.30072 0.461904 1.5196e-20)
(0.134303 0.35809 -4.9504e-19)
(1.28251 0.475727 2.87242e-21)
(1.13431 0.451815 5.00434e-20)
(1.16819 0.432543 -8.64884e-20)
(0.852747 -0.65261 1.18535e-21)
(0.585719 -0.422567 5.02031e-21)
(0.162103 -0.00740864 -2.49677e-19)
(0.148818 -0.0847085 0)
(0.312677 -0.0473378 1.35891e-19)
(0.543216 -0.414618 5.33745e-21)
(0.765655 -0.639709 -3.99572e-21)
(0.641538 0.0192764 1.19042e-21)
(0.67528 0.0185999 -1.04472e-21)
(0.600714 0.01727 -4.77005e-23)
(0.522493 -0.773136 0)
(0.548509 -0.599734 0)
(1.06161 -0.133236 -1.97953e-20)
(1.04784 -0.115013 1.16937e-19)
(1.03206 -0.0810439 0)
(0.861672 -0.744834 0)
(0.855921 -0.678108 -2.28034e-20)
(0.746218 0.739115 8.94257e-20)
(-0.119506 -0.107937 1.35364e-19)
(-0.10895 -0.106123 -9.71147e-20)
(0.582985 -0.533363 -7.35306e-21)
(0.98643 -0.196481 1.62544e-20)
(0.973691 -0.182701 -3.41618e-21)
(1.50525 -0.0790736 -2.06029e-20)
(1.50309 -0.0356176 2.75633e-20)
(1.48018 -0.0206145 8.8617e-20)
(-0.103423 -0.106427 4.8583e-20)
(0.857545 0.71649 1.20464e-19)
(0.992174 0.693316 -3.52736e-20)
(1.06724 0.733683 1.26594e-24)
(0.438592 -0.0120209 4.5958e-22)
(0.436233 -0.0136789 2.45004e-21)
(0.474624 -0.0170078 3.41842e-22)
(0.517732 -0.0146074 -1.26082e-21)
(0.804731 0.709113 1.71058e-20)
(0.434074 0.41798 0)
(-0.0312852 0.0300159 7.44744e-20)
(-0.0264859 0.0307487 -8.21917e-20)
(-0.0773769 0.139707 5.63364e-20)
(0.46586 0.0868027 -1.29911e-19)
(1.00801 0.263431 -6.24191e-20)
(0.586122 -0.0136438 -8.62969e-23)
(1.41536 -0.463414 3.34068e-20)
(1.36548 -0.551622 8.56898e-20)
(0.970395 0.262101 1.09107e-19)
(0.952033 0.302372 7.2036e-21)
(0.930345 0.180072 6.09306e-20)
(0.946775 0.186511 -4.40153e-20)
(0.994929 0.263639 0)
(1.12877 0.0047056 4.97201e-21)
(1.13262 0.000202865 9.21715e-21)
(1.1502 -0.0597184 -1.91559e-21)
(1.15766 -0.0609387 2.95507e-21)
(1.09428 0.155834 1.12666e-20)
(1.10756 0.16404 -3.18058e-20)
(1.09502 0.167325 0)
(1.08214 0.156958 6.81618e-21)
(1.0933 0.178901 0)
(1.09931 0.235165 -2.53625e-20)
(1.09306 0.249776 -1.40564e-20)
(1.07099 0.275459 -2.60361e-20)
(1.08354 0.263546 0)
(1.10541 0.28502 8.44866e-20)
(1.08867 0.299748 2.62377e-21)
(1.05502 0.292936 -1.50655e-20)
(1.00378 0.350967 -6.55275e-20)
(1.00079 0.29168 -1.14203e-20)
(0.168243 0.374508 3.03879e-20)
(0.292613 0.313395 -1.12931e-20)
(-0.104023 0.0497331 -7.90455e-20)
(0.581094 0.0153278 -7.93879e-22)
(0.710796 0.0180379 0)
(0.000606121 0.00770504 8.16366e-20)
(0.00452406 0.00191154 3.86864e-20)
(0.666871 0.0177373 5.48462e-22)
(0.758052 0.0194456 1.5546e-22)
(0.749868 0.0197196 0)
(0.653014 0.0201833 1.84739e-22)
(0.928425 0.522397 2.93601e-21)
(0.922555 0.533929 -1.64009e-20)
(0.911155 0.527071 -6.94443e-21)
(-0.101746 -0.125151 9.46728e-20)
(-0.0555868 -0.0592597 -1.21042e-19)
(-0.0690127 -0.0727136 1.13246e-19)
(-0.0690524 -0.0514178 0)
(-0.035152 -0.0220966 1.68354e-19)
(-0.0339186 -0.0265881 -1.45091e-19)
(-0.0530648 -0.0177972 -1.50483e-19)
(-0.105356 -0.0460382 -1.49556e-19)
(-0.0623957 -0.0318883 0)
(0.0579642 0.23012 0)
(0.0261376 0.137175 0)
(0.010291 0.0769117 0)
(1.40875 0.0204466 -3.53803e-21)
(1.38717 0.00736922 0)
(1.41036 0.00945312 3.86506e-21)
(0.929534 -0.100357 2.01809e-19)
(0.943012 -0.107246 -7.33121e-20)
(0.939773 -0.0901363 0)
(1.00834 -0.612265 4.29507e-22)
(1.01602 -0.608809 -8.7269e-22)
(0.998425 -0.609522 3.50331e-22)
(1.02198 -0.601473 0)
(1.02632 -0.591875 4.32362e-22)
(1.02931 -0.581594 0)
(1.03681 -0.583484 0)
(1.03146 -0.571582 -1.56596e-21)
(1.0367 -0.572596 0)
(1.03615 -0.594745 4.73416e-22)
(1.03413 -0.60567 0)
(1.03077 -0.614643 -3.16583e-22)
(1.02584 -0.619956 4.62893e-22)
(1.01885 -0.619144 -3.4976e-22)
(1.03273 -0.562348 1.49782e-21)
(1.03573 -0.562592 5.25033e-23)
(0.986305 -0.597971 -1.26199e-23)
(1.00908 -0.609359 6.26168e-22)
(0.972654 -0.575391 -3.54898e-21)
(1.03322 -0.554355 -1.37237e-24)
(1.0341 -0.553765 5.30521e-23)
(0.998336 -0.588261 -1.357e-21)
(1.03302 -0.547979 -1.4608e-21)
(1.03218 -0.543707 1.4596e-21)
(1.03185 -0.546658 -1.06291e-22)
(1.02894 -0.54164 -2.23665e-22)
(0.956902 -0.539436 3.45465e-21)
(0.985803 -0.553141 9.22065e-22)
(1.03069 -0.541881 0)
(1.02533 -0.539036 2.20654e-22)
(0.940239 -0.487743 -5.04396e-25)
(0.971186 -0.501636 5.04956e-25)
(1.0286 -0.542366 0)
(1.02099 -0.538794 0)
(0.923371 -0.420051 0)
(0.95628 -0.433281 0)
(1.02587 -0.544359 0)
(1.01591 -0.540201 -1.30938e-22)
(0.90689 -0.336847 2.38836e-21)
(0.941333 -0.348627 5.91381e-25)
(1.0227 -0.546161 -7.27335e-24)
(1.01023 -0.541636 1.40309e-22)
(0.891989 -0.240451 -2.39919e-21)
(0.927557 -0.250151 0)
(1.01915 -0.545382 0)
(1.00404 -0.54072 0)
(0.879235 -0.134077 1.65098e-22)
(0.915417 -0.141307 -2.93886e-21)
(1.01533 -0.539301 -1.1954e-21)
(0.997604 -0.534642 0)
(0.86925 -0.0216888 1.03832e-22)
(0.905587 -0.0264388 2.78843e-21)
(1.01143 -0.52524 1.85809e-21)
(0.990963 -0.520483 5.4428e-22)
(0.862292 0.0935112 -2.62102e-21)
(0.897957 0.0908176 0)
(1.00705 -0.50121 -6.5884e-22)
(0.984384 -0.496343 -3.72559e-22)
(0.857979 0.205363 1.31579e-21)
(0.893059 0.20474 -2.75541e-21)
(1.00328 -0.465923 3.03717e-21)
(0.978371 -0.459956 -3.41824e-21)
(0.857847 0.311371 -1.18241e-21)
(0.890361 0.312517 -4.0254e-23)
(0.999492 -0.418708 0)
(0.972873 -0.411296 -1.72775e-21)
(0.860775 0.404058 2.37409e-21)
(0.890988 0.40724 -4.89557e-21)
(0.995624 -0.356785 0)
(0.967262 -0.35088 0)
(0.829426 0.307779 1.16986e-21)
(0.834293 0.398158 3.98675e-21)
(0.867671 0.480889 0)
(0.894945 0.486299 2.32175e-21)
(0.831401 0.0963855 7.39887e-22)
(0.828391 0.2065 -1.49147e-22)
(0.848021 -0.122897 0)
(0.837972 -0.0134689 2.64917e-21)
(0.876868 -0.319946 4.76074e-24)
(0.861128 -0.226054 0)
(0.912987 -0.468762 0)
(0.894401 -0.401473 0)
(0.949413 -0.558881 0)
(0.931004 -0.520502 0)
(0.980073 -0.596731 -6.00519e-22)
(0.965701 -0.583145 -1.80788e-22)
(1.00262 -0.60002 5.30618e-22)
(0.992527 -0.601576 5.97628e-22)
(1.01756 -0.586587 -8.08589e-22)
(1.01094 -0.594659 -1.03016e-21)
(1.02704 -0.568567 0)
(1.02278 -0.577563 0)
(1.03307 -0.552923 3.20462e-24)
(1.03042 -0.560195 0)
(1.03636 -0.543754 0)
(1.03502 -0.547283 0)
(1.03733 -0.543825 0)
(1.03711 -0.54266 0)
(1.03651 -0.548643 0)
(1.0371 -0.546386 0)
(1.03467 -0.542406 0)
(1.03575 -0.548207 0)
(1.03193 -0.504959 0)
(1.03366 -0.528656 0)
(1.02761 -0.421595 1.46894e-21)
(1.03069 -0.469779 0)
(1.02518 -0.360604 5.40386e-22)
(0.991 -0.283787 -5.18056e-22)
(0.961676 -0.278698 5.13695e-22)
(0.956613 -0.453049 0)
(0.941139 -0.345298 1.87059e-21)
(0.948527 -0.405205 9.2106e-22)
(0.973807 -0.512942 -1.73134e-22)
(0.965173 -0.488768 7.15358e-22)
(0.991277 -0.533252 -4.30137e-24)
(0.98264 -0.526974 0)
(1.00752 -0.533737 0)
(0.999673 -0.534568 0)
(1.02103 -0.534012 0)
(1.01467 -0.533028 0)
(1.03147 -0.542939 0)
(1.0266 -0.537305 -3.98572e-28)
(1.03945 -0.559972 -3.30907e-24)
(1.03573 -0.550599 0)
(1.04503 -0.582603 0)
(1.04261 -0.570808 0)
(1.0473 -0.607005 0)
(1.04672 -0.594967 0)
(1.0445 -0.624638 0)
(1.04655 -0.617571 2.99256e-22)
(1.03434 -0.618584 -1.2379e-22)
(1.04079 -0.625911 4.85655e-22)
(1.01655 -0.56566 0)
(1.02655 -0.599571 4.57505e-22)
(0.991824 -0.446927 0)
(1.00471 -0.5151 0)
(0.965812 -0.261649 0)
(0.978583 -0.361629 0)
(0.944419 -0.0333555 0)
(0.954252 -0.150663 0)
(0.93057 0.200943 7.37541e-22)
(0.936384 0.085183 0)
(0.924496 0.405137 2.58171e-21)
(0.926221 0.308596 7.35544e-22)
(0.924932 0.486063 -2.37368e-21)
(0.843337 0.471389 -3.76912e-21)
(1.02214 -0.287727 -1.12643e-21)
(0.934472 -0.274425 2.06888e-21)
(0.901771 0.546662 0)
(0.927895 0.54798 0)
(0.855259 0.526057 0)
(0.87751 0.538207 0)
(0.804528 0.303793 0)
(0.8218 0.457118 -7.8819e-22)
(0.811046 0.388308 -1.08256e-21)
(0.804877 0.102084 -1.42454e-21)
(0.802465 0.207239 2.8085e-22)
(0.821703 -0.110651 -4.23002e-24)
(0.811418 -0.00509983 0)
(0.851727 -0.302619 0)
(0.835302 -0.211001 0)
(0.889923 -0.449269 0)
(0.870131 -0.382574 0)
(0.929205 -0.540429 0)
(0.9096 -0.501391 0)
(0.96402 -0.581828 0)
(0.94739 -0.566283 0)
(0.990692 -0.588949 2.04202e-24)
(0.978357 -0.588512 -5.71866e-22)
(1.01016 -0.579126 1.58421e-24)
(1.00132 -0.585433 9.56937e-22)
(1.02378 -0.563669 0)
(1.01756 -0.571528 0)
(1.03363 -0.549726 -1.56957e-24)
(1.02908 -0.556221 0)
(1.0408 -0.541871 0)
(1.03751 -0.544771 0)
(1.04591 -0.542961 0)
(1.04357 -0.54133 0)
(1.04975 -0.548357 0)
(1.04795 -0.545865 0)
(1.053 -0.542436 0)
(1.05149 -0.5481 0)
(1.05548 -0.505456 0)
(1.05452 -0.528945 0)
(1.05606 -0.423513 -9.88252e-22)
(1.05634 -0.47081 0)
(0.986923 -0.200785 0)
(1.01951 -0.205209 -1.23515e-21)
(1.05418 -0.292114 0)
(1.05548 -0.364114 -1.0592e-21)
(0.918077 -0.339792 -1.65254e-21)
(0.910283 -0.270892 -4.3822e-22)
(0.928316 -0.194802 -3.97303e-21)
(0.956767 -0.196949 0)
(0.936979 -0.445284 0)
(0.927099 -0.398648 2.48597e-21)
(0.958095 -0.503562 -4.80384e-24)
(0.947465 -0.48 -7.19704e-22)
(0.97976 -0.523803 4.30138e-24)
(0.968989 -0.517331 0)
(1.00014 -0.525303 0)
(0.990259 -0.525497 0)
(1.01746 -0.527164 0)
(1.00924 -0.525368 0)
(1.03158 -0.53747 0)
(1.02487 -0.531204 3.98573e-28)
(1.04348 -0.555481 6.50388e-24)
(1.03776 -0.545653 0)
(1.05349 -0.579221 0)
(1.04875 -0.566745 0)
(1.06083 -0.605648 -1.4618e-22)
(1.05757 -0.592459 0)
(1.06369 -0.626133 0)
(1.06286 -0.617464 1.45562e-22)
(1.06004 -0.623983 -4.37819e-22)
(1.06294 -0.629291 -3.89653e-22)
(1.04804 -0.57544 0)
(1.0552 -0.606993 0)
(1.02854 -0.459409 0)
(1.03904 -0.52657 0)
(1.00574 -0.273858 0)
(1.01721 -0.374364 0)
(0.984955 -0.0427714 0)
(0.994803 -0.161672 0)
(0.969528 0.195015 -1.2589e-23)
(0.976517 0.0777844 0)
(0.959561 0.401619 1.10653e-23)
(0.963855 0.304237 0)
(0.95622 0.547451 2.44196e-21)
(0.957064 0.484001 -2.44033e-21)
(0.835843 0.508758 -1.44792e-21)
(0.933289 0.589751 0)
(0.957708 0.591143 3.79227e-21)
(0.91067 0.586064 0)
(1.05329 -0.210611 0)
(0.903718 -0.192618 4.52482e-22)
(0.869393 0.561024 -3.60144e-21)
(0.85244 0.542793 -1.22536e-21)
(0.940202 0.613109 -8.2313e-22)
(0.960403 0.616387 -4.71015e-21)
(0.889414 0.575859 0)
(1.08725 -0.295115 -4.48448e-21)
(1.08725 -0.215034 2.30062e-21)
(0.923951 -0.108404 1.01861e-21)
(0.899209 -0.107275 -4.97208e-21)
(0.839037 0.521902 -4.40582e-21)
(0.871305 0.560916 2.56375e-21)
(0.881219 0.543881 7.6703e-21)
(0.860426 0.539224 2.28801e-21)
(0.803647 0.441642 -1.46865e-21)
(0.819777 0.489843 4.03273e-21)
(0.7836 0.298089 1.76408e-21)
(0.791362 0.377268 1.15389e-21)
(0.782305 0.106936 5.39671e-22)
(0.780543 0.206633 4.53719e-22)
(0.799173 -0.0984505 4.23002e-24)
(0.788648 0.00369073 0)
(0.830252 -0.28485 0)
(0.813239 -0.195737 0)
(0.870116 -0.428867 0)
(0.849412 -0.363048 0)
(0.912037 -0.520798 0)
(0.891162 -0.481165 0)
(0.950075 -0.56534 0)
(0.931811 -0.548154 0)
(0.980696 -0.576475 0)
(0.966396 -0.574066 0)
(1.00397 -0.569974 -1.63899e-25)
(0.99317 -0.574662 0)
(1.02137 -0.556978 0)
(1.01328 -0.563736 0)
(1.03486 -0.544651 -1.37401e-24)
(1.0285 -0.550412 0)
(1.04574 -0.537932 0)
(1.04057 -0.540312 0)
(1.0549 -0.539721 0)
(1.05048 -0.5378 0)
(1.06331 -0.545355 0)
(1.05915 -0.54279 0)
(1.0716 -0.53959 0)
(1.0675 -0.545149 0)
(1.07932 -0.503259 0)
(1.07563 -0.526314 0)
(1.08492 -0.42311 -4.85879e-22)
(1.0825 -0.46912 2.3954e-22)
(1.08635 -0.3651 2.20027e-21)
(0.983856 -0.112012 5.6509e-22)
(1.052 -0.120838 -2.47153e-21)
(1.01711 -0.11609 1.78105e-21)
(0.952495 -0.109685 0)
(0.898271 -0.333287 1.25812e-21)
(0.882615 -0.190584 3.94821e-21)
(0.889604 -0.2663 -2.92143e-21)
(0.919669 -0.435246 0)
(0.908534 -0.390094 0)
(0.944167 -0.491949 4.17501e-25)
(0.931684 -0.468861 0)
(0.969683 -0.5122 0)
(0.956931 -0.505581 0)
(0.993844 -0.514913 3.18464e-24)
(0.982098 -0.514389 0)
(1.0147 -0.518472 0)
(1.00473 -0.515832 0)
(1.03233 -0.530112 0)
(1.02384 -0.523252 0)
(1.04798 -0.549017 -3.19485e-24)
(1.04034 -0.538771 0)
(1.06222 -0.573668 -3.44494e-24)
(1.05529 -0.560706 0)
(1.07452 -0.601565 0)
(1.06869 -0.587539 0)
(1.08333 -0.624654 0)
(1.07951 -0.614519 0)
(1.08623 -0.626281 0)
(1.0857 -0.629586 0)
(1.0807 -0.58192 0)
(1.08458 -0.611481 0)
(1.06668 -0.469033 1.08175e-23)
(1.07462 -0.534883 0)
(1.04737 -0.284214 0)
(1.05739 -0.384671 0)
(1.02742 -0.0517851 0)
(1.03722 -0.171546 0)
(1.01002 0.188124 -1.01557e-25)
(1.01831 0.0698267 0)
(0.995999 0.396824 7.48096e-26)
(1.00259 0.298499 0)
(0.98621 0.543771 -9.2137e-24)
(0.990375 0.47952 0)
(0.982085 0.615619 3.3726e-21)
(0.983453 0.589118 -1.03848e-21)
(0.964024 0.625812 -7.80885e-22)
(0.981968 0.626376 -1.82223e-21)
(0.88558 0.579722 1.57659e-21)
(0.92128 0.607136 1.6491e-21)
(1.08701 -0.125974 -6.10098e-22)
(0.877566 -0.107914 -3.14786e-21)
(0.891738 0.567237 2.86035e-24)
(0.947941 0.621506 0)
(0.904551 0.544168 -1.12562e-20)
(0.982703 0.626379 -1.85473e-21)
(0.968243 0.624767 -2.55217e-21)
(0.906688 0.5153 1.35375e-20)
(0.927252 0.512989 -2.19654e-21)
(0.902653 0.595355 0)
(0.870651 0.517355 -1.86162e-21)
(0.890588 0.51637 -8.72923e-22)
(0.827834 0.497998 -2.11844e-21)
(0.849947 0.51295 2.70098e-21)
(0.789288 0.42463 1.41832e-21)
(0.806936 0.468999 5.37026e-22)
(0.76671 0.290465 -7.98997e-22)
(0.775725 0.364589 -7.243e-22)
(0.763609 0.110591 0)
(0.762692 0.204877 -4.52846e-23)
(0.780263 -0.0860826 0)
(0.769621 0.0121904 0)
(0.812257 -0.266521 -2.92653e-24)
(0.794719 -0.18007 0)
(0.853506 -0.407551 0)
(0.832079 -0.342822 0)
(0.89748 -0.499828 0)
(0.875548 -0.459735 0)
(0.938212 -0.547263 0)
(0.918532 -0.528456 0)
(0.972166 -0.562256 -1.42765e-24)
(0.956141 -0.557903 0)
(0.998879 -0.55909 -1.85595e-25)
(0.986356 -0.562178 0)
(1.01975 -0.548539 0)
(1.00993 -0.554211 0)
(1.03666 -0.537774 2.61276e-24)
(1.0286 -0.542836 0)
(1.05107 -0.532046 0)
(1.04411 -0.533993 0)
(1.06411 -0.534289 0)
(1.05769 -0.53221 0)
(1.07694 -0.539912 0)
(1.0705 -0.537387 0)
(1.09015 -0.534183 0)
(1.08352 -0.539667 0)
(1.10297 -0.498525 0)
(1.09666 -0.521131 0)
(1.11354 -0.420338 2.4771e-22)
(1.10852 -0.465154 0)
(1.12014 -0.295683 0)
(1.11715 -0.363703 5.14478e-22)
(1.12159 -0.130504 1.51855e-23)
(1.12147 -0.21732 0)
(1.05034 -0.0265399 2.50641e-21)
(1.1212 -0.0364624 -1.48791e-22)
(1.08597 -0.0309127 -1.25947e-21)
(0.981584 -0.0199758 -8.79861e-22)
(1.01518 -0.0222033 6.14516e-22)
(0.921508 -0.0181463 3.00717e-22)
(0.950014 -0.0187901 -2.65936e-22)
(0.874789 -0.0218129 0)
(0.896372 -0.0191196 2.23994e-21)
(0.864471 -0.187721 8.31926e-22)
(0.856614 -0.0248246 1.66347e-21)
(0.859402 -0.108264 -3.68287e-21)
(0.881416 -0.324915 3.81235e-22)
(0.871984 -0.260397 0)
(0.904867 -0.423356 0)
(0.892625 -0.379588 0)
(0.932133 -0.478577 4.60707e-25)
(0.918104 -0.45616 0)
(0.961106 -0.498807 0)
(0.946605 -0.492043 0)
(0.988654 -0.502809 -3.18463e-24)
(0.975244 -0.501511 0)
(1.0127 -0.508125 0)
(1.00115 -0.504626 0)
(1.0336 -0.521003 0)
(1.02345 -0.513616 0)
(1.05283 -0.540578 0)
(1.04335 -0.530037 0)
(1.07114 -0.56586 2.06328e-25)
(1.06209 -0.552555 0)
(1.08829 -0.594806 0)
(1.07991 -0.580169 0)
(1.10299 -0.619983 0)
(1.09608 -0.608638 0)
(1.11261 -0.625185 0)
(1.10864 -0.626487 0)
(1.11402 -0.585447 0)
(1.11451 -0.612647 0)
(1.10579 -0.476591 -1.08175e-23)
(1.11107 -0.540617 0)
(1.09001 -0.293667 0)
(1.09859 -0.393485 0)
(1.07088 -0.0610708 0)
(1.08062 -0.181102 0)
(1.05151 0.179852 1.26886e-23)
(1.06112 0.0610114 0)
(1.03315 0.389848 -1.1192e-23)
(1.04216 0.29083 0)
(1.01699 0.538775 9.10946e-24)
(1.02466 0.473394 0)
(1.00524 0.612596 -9.68884e-22)
(1.01038 0.584946 1.98467e-21)
(0.998304 0.62583 7.63578e-22)
(1.00109 0.624834 -1.45638e-21)
(0.983806 0.620857 3.41784e-22)
(0.99592 0.620507 -1.04487e-21)
(0.903662 0.586638 1.25641e-21)
(0.932157 0.613615 0)
(0.912159 0.566805 8.69423e-21)
(0.955101 0.620388 0)
(1.15643 -0.132592 5.99335e-22)
(1.15662 -0.0411831 -4.29637e-22)
(0.874857 0.0657221 1.79382e-21)
(0.857397 0.0612282 1.81194e-21)
(0.924046 0.549516 6.73056e-21)
(0.972645 0.619119 2.57765e-21)
(0.943582 0.522436 0)
(0.910215 0.495294 1.06584e-21)
(0.984351 0.614453 1.22822e-21)
(0.993547 0.613206 -1.20438e-21)
(0.934243 0.500444 -2.37242e-21)
(0.91711 0.60212 0)
(0.866273 0.492282 0)
(0.888181 0.493512 1.14541e-21)
(0.8203 0.474493 0)
(0.843582 0.487369 0)
(0.779007 0.408257 0)
(0.798169 0.448952 -5.56412e-22)
(0.754221 0.283292 0)
(0.76426 0.352652 0)
(0.749307 0.113813 0)
(0.74916 0.202691 0)
(0.765148 -0.0735921 0)
(0.754767 0.0203415 0)
(0.797578 -0.247609 2.92653e-24)
(0.779701 -0.16398 0)
(0.839902 -0.385438 0)
(0.817907 -0.321911 0)
(0.885445 -0.477792 0)
(0.862671 -0.437319 0)
(0.928351 -0.527795 0)
(0.907511 -0.5075 0)
(0.965074 -0.54641 2.42398e-25)
(0.947597 -0.540204 0)
(0.994847 -0.546525 -2.03815e-25)
(0.980777 -0.548047 0)
(1.01889 -0.538422 0)
(1.00748 -0.542996 0)
(1.03898 -0.529216 -1.56374e-25)
(1.02932 -0.533591 0)
(1.0567 -0.524377 0)
(1.04806 -0.525957 0)
(1.0734 -0.526868 0)
(1.06509 -0.524744 0)
(1.09043 -0.532244 0)
(1.08181 -0.529872 0)
(1.10828 -0.526386 0)
(1.09926 -0.531855 0)
(1.12593 -0.491402 0)
(1.1172 -0.513504 0)
(1.14125 -0.414829 0)
(1.13389 -0.458684 0)
(1.15174 -0.29384 -5.32453e-22)
(1.14703 -0.359574 -5.22324e-22)
(1.15491 -0.217315 1.16023e-21)
(1.04865 0.0697762 1.26191e-21)
(1.12037 0.0607566 0)
(1.08444 0.065845 1.2743e-21)
(0.98046 0.0728693 0)
(1.0138 0.0718864 -1.28803e-21)
(0.921182 0.0722891 -1.6344e-21)
(0.949278 0.0726392 5.77924e-22)
(0.896245 0.0701348 3.04475e-21)
(0.849693 -0.183472 -3.26657e-22)
(0.842544 -0.0266655 -1.32719e-21)
(0.844757 -0.107795 0)
(0.867493 -0.315484 6.61209e-22)
(0.857552 -0.253496 -6.62923e-22)
(0.892349 -0.410108 0)
(0.879221 -0.368006 0)
(0.922155 -0.463676 4.90842e-25)
(0.906782 -0.441903 0)
(0.954121 -0.483792 0)
(0.938104 -0.476864 0)
(0.9846 -0.489179 0)
(0.969749 -0.487053 0)
(1.01146 -0.496271 0)
(0.998502 -0.491922 0)
(1.03534 -0.51027 0)
(1.02367 -0.502428 0)
(1.0579 -0.530307 -2.54005e-24)
(1.04671 -0.519587 0)
(1.08008 -0.555881 3.23861e-24)
(1.06902 -0.542423 0)
(1.1019 -0.585417 0)
(1.09107 -0.570412 0)
(1.12234 -0.612144 0)
(1.11242 -0.599857 0)
(1.13873 -0.620538 0)
(1.13128 -0.62001 0)
(1.14724 -0.585554 0)
(1.14421 -0.610242 0)
(1.14506 -0.481615 0)
(1.14754 -0.54329 0)
(1.1329 -0.301983 0)
(1.14003 -0.400426 0)
(1.11447 -0.0707375 1.27423e-23)
(1.12422 -0.190282 0)
(1.09304 0.169827 -1.22647e-23)
(1.10401 0.0510959 0)
(1.07023 0.38 1.07637e-23)
(1.08174 0.280819 0)
(1.04785 0.530243 0)
(1.05881 0.463983 0)
(1.02883 0.606789 0)
(1.03776 0.577639 0)
(1.01491 0.6218 -4.79637e-24)
(1.02112 0.620177 -7.57722e-22)
(1.00371 0.60913 2.13912e-21)
(1.00915 0.616621 0)
(0.990521 0.607752 1.35516e-21)
(0.997766 0.60274 -2.73411e-22)
(0.921239 0.586507 -3.25838e-21)
(0.94271 0.611941 0)
(1.15493 0.0551058 2.37097e-21)
(0.84326 0.055377 2.70632e-21)
(0.928978 0.568899 1.35184e-21)
(0.945592 0.536996 2.97877e-22)
(0.944255 0.553841 -2.93254e-21)
(0.961989 0.614786 0)
(0.975873 0.613361 -4.91213e-22)
(0.954774 0.513354 1.80278e-21)
(0.965549 0.52804 -1.94928e-21)
(0.961693 0.541755 2.25856e-21)
(0.984012 0.610304 1.37802e-21)
(0.985985 0.605619 -7.39777e-22)
(0.99081 0.599036 -8.0686e-22)
(0.931334 0.60101 0)
(0.914208 0.476295 -4.42358e-23)
(0.95625 0.494266 -2.42938e-22)
(0.937333 0.483835 -3.19827e-22)
(0.866426 0.46765 -4.83262e-22)
(0.890453 0.471219 4.86042e-22)
(0.816972 0.450165 -1.16303e-24)
(0.8421 0.46205 0)
(0.772684 0.390987 0)
(0.793202 0.427489 0)
(0.745656 0.275292 0)
(0.756692 0.339837 0)
(0.739142 0.116161 0)
(0.73976 0.199756 0)
(0.753775 -0.061291 -2.12e-24)
(0.743902 0.0279219 0)
(0.786077 -0.228349 0)
(0.768124 -0.147758 0)
(0.829086 -0.36276 0)
(0.806693 -0.30052 0)
(0.875786 -0.454962 0)
(0.852376 -0.414209 0)
(0.920393 -0.507225 0)
(0.898631 -0.485583 0)
(0.959382 -0.529184 1.18526e-24)
(0.940706 -0.521252 0)
(0.991817 -0.532476 -2.17719e-25)
(0.976384 -0.532482 0)
(1.01871 -0.526778 0)
(1.00586 -0.530263 0)
(1.04174 -0.519112 -1.99078e-24)
(1.0306 -0.522815 0)
(1.06252 -0.515062 0)
(1.05232 -0.516339 0)
(1.08262 -0.517591 0)
(1.07256 -0.515538 0)
(1.10351 -0.522465 0)
(1.0929 -0.520373 0)
(1.12565 -0.516279 0)
(1.11445 -0.521826 0)
(1.14776 -0.481912 0)
(1.13682 -0.50355 0)
(1.16736 -0.407174 -6.74545e-24)
(1.15801 -0.449945 0)
(1.1819 -0.289212 5.34767e-22)
(1.1755 -0.353387 0)
(1.18906 -0.132592 -6.12115e-22)
(1.18656 -0.215153 0)
(1.18828 0.050424 -5.56979e-22)
(1.18978 -0.0435787 5.88632e-22)
(1.11774 0.156912 -1.21245e-21)
(1.18521 0.145936 0)
(1.15228 0.152122 -1.75338e-21)
(1.04731 0.163624 0)
(1.08225 0.161163 0)
(0.980658 0.163743 0)
(1.0132 0.164287 0)
(0.922992 0.160383 0)
(0.950348 0.162234 0)
(0.877781 0.150888 -1.82828e-21)
(0.898539 0.156445 -4.93304e-22)
(0.847257 0.135175 -3.3033e-22)
(0.860883 0.143874 -3.19647e-21)
(0.831344 -0.0291829 -1.53987e-21)
(0.837007 0.126237 -2.33395e-22)
(0.832447 0.0491346 5.73641e-22)
(0.838504 -0.178592 -2.92969e-22)
(0.833539 -0.105966 1.90003e-21)
(0.85633 -0.30494 6.83575e-25)
(0.846293 -0.245657 0)
(0.882296 -0.395973 0)
(0.868417 -0.355303 0)
(0.914238 -0.44747 5.09637e-25)
(0.897705 -0.426509 0)
(0.948727 -0.4674 0)
(0.931438 -0.460315 0)
(0.981661 -0.474239 0)
(0.965602 -0.471251 0)
(1.01094 -0.483077 0)
(0.996759 -0.477913 0)
(1.03749 -0.498043 0)
(1.02444 -0.489834 0)
(1.0631 -0.518327 4.77659e-24)
(1.05033 -0.507544 0)
(1.08885 -0.543863 0)
(1.07593 -0.530436 0)
(1.11507 -0.573499 0)
(1.10192 -0.558389 0)
(1.14102 -0.601205 0)
(1.1282 -0.588258 0)
(1.16405 -0.61239 0)
(1.15315 -0.610193 0)
(1.17971 -0.582305 7.84294e-24)
(1.17312 -0.604315 0)
(1.18371 -0.48419 0)
(1.18333 -0.542969 0)
(1.17522 -0.309241 0)
(1.18089 -0.405587 0)
(1.15738 -0.0807714 -1.27423e-23)
(1.1672 -0.199128 0)
(1.1338 0.158104 5.10131e-25)
(1.14616 0.0401302 0)
(1.10654 0.367375 -2.10411e-23)
(1.12052 0.268523 0)
(1.07806 0.518081 0)
(1.09224 0.451362 0)
(1.05219 0.596819 0)
(1.06456 0.566381 0)
(1.03149 0.614774 3.75977e-25)
(1.04119 0.611668 0)
(1.01409 0.603132 0)
(1.02253 0.610472 0)
(0.996225 0.590791 8.15288e-22)
(1.00546 0.595944 0)
(0.982404 0.59855 -1.85335e-22)
(0.985488 0.58847 -9.41501e-22)
(0.936078 0.58543 0)
(0.972892 0.507091 -2.42611e-21)
(0.945882 0.569498 -8.86497e-22)
(1.21967 0.0452454 5.56026e-22)
(1.21719 0.137259 0)
(0.854286 0.211477 -2.69583e-22)
(0.84478 0.20074 6.25714e-22)
(0.952119 0.607548 0)
(0.967925 0.609578 0)
(0.959374 0.558194 0)
(0.978059 0.610468 4.83749e-22)
(0.981991 0.609727 7.32261e-22)
(0.980053 0.606647 0)
(0.972118 0.600226 -1.22543e-21)
(0.972928 0.588374 7.63042e-22)
(0.943678 0.597853 0)
(0.961158 0.475786 1.20141e-25)
(0.989771 0.519857 -5.66464e-22)
(0.99818 0.501134 1.73952e-21)
(0.979704 0.488421 -5.70767e-22)
(0.918061 0.455608 1.49074e-22)
(0.940695 0.465164 3.16855e-22)
(0.868546 0.442449 0)
(0.893841 0.448165 0)
(0.816516 0.424936 1.1631e-24)
(0.842767 0.435935 0)
(0.769756 0.372264 0)
(0.79155 0.404856 0)
(0.740566 0.266359 0)
(0.752567 0.325824 0)
(0.732634 0.117828 0)
(0.733919 0.19606 0)
(0.745981 -0.0494319 2.12e-24)
(0.73673 0.034884 0)
(0.777618 -0.209047 0)
(0.759879 -0.131728 0)
(0.820826 -0.339737 0)
(0.798251 -0.278905 0)
(0.868296 -0.43155 0)
(0.844439 -0.39063 0)
(0.914195 -0.485787 0)
(0.89172 -0.462939 0)
(0.955013 -0.510822 -6.70774e-25)
(0.935357 -0.50129 0)
(0.989719 -0.517137 -2.27354e-25)
(0.973109 -0.515693 0)
(1.01914 -0.513764 0)
(1.005 -0.51619 0)
(1.04483 -0.507589 1.88152e-25)
(1.03235 -0.510647 0)
(1.06842 -0.504218 0)
(1.05678 -0.505259 0)
(1.0916 -0.506586 0)
(1.07995 -0.504713 0)
(1.11597 -0.510727 0)
(1.10357 -0.509032 0)
(1.14196 -0.504044 0)
(1.1288 -0.509746 0)
(1.16813 -0.470272 0)
(1.15517 -0.491445 0)
(1.19172 -0.397499 1.29583e-23)
(1.18042 -0.439141 0)
(1.20991 -0.282892 7.34494e-24)
(1.2016 -0.345199 0)
(1.21968 -0.131841 -1.08039e-21)
(1.21591 -0.211271 1.05907e-21)
(1.22083 -0.0454642 -1.03063e-21)
(1.1148 0.248797 -2.96927e-22)
(1.18135 0.237515 -6.77183e-23)
(1.14844 0.243715 8.9474e-22)
(1.0465 0.25296 0)
(1.08042 0.251732 0)
(0.982295 0.250903 8.8617e-27)
(1.01357 0.252535 0)
(0.926915 0.243795 0)
(0.953198 0.247793 0)
(0.883544 0.230979 -8.79019e-22)
(0.903453 0.237935 9.69319e-22)
(0.867279 0.221887 1.11734e-22)
(0.823416 -0.0314196 4.81525e-23)
(0.829932 0.117391 5.61311e-22)
(0.824919 0.0435217 -9.60646e-23)
(0.830107 -0.173333 2.66275e-22)
(0.825304 -0.104254 -2.66741e-22)
(0.847778 -0.293771 4.08856e-24)
(0.837701 -0.237159 0)
(0.874653 -0.381028 2.91189e-24)
(0.8602 -0.342122 0)
(0.908351 -0.430175 5.17954e-25)
(0.890865 -0.410159 0)
(0.944896 -0.449876 0)
(0.926579 -0.442625 0)
(0.979793 -0.458217 0)
(0.962766 -0.454349 0)
(1.01109 -0.468723 0)
(0.99587 -0.462801 0)
(1.03996 -0.484479 0)
(1.0257 -0.475996 0)
(1.0683 -0.504789 -2.23653e-24)
(1.05411 -0.49406 0)
(1.09729 -0.529963 -2.32672e-24)
(1.08267 -0.516748 0)
(1.12754 -0.559211 0)
(1.11225 -0.544262 0)
(1.15861 -0.587289 0)
(1.14307 -0.573993 0)
(1.188 -0.600752 0)
(1.17378 -0.597109 0)
(1.21072 -0.575587 -7.84294e-24)
(1.20058 -0.594811 0)
(1.221 -0.484203 9.23494e-24)
(1.2177 -0.539521 0)
(1.21623 -0.315474 0)
(1.22045 -0.408918 0)
(1.19886 -0.0912689 0)
(1.20884 -0.207731 0)
(1.17304 0.144711 6.84518e-25)
(1.18682 0.0280719 0)
(1.14146 0.352108 1.99111e-23)
(1.15782 0.254034 0)
(1.10715 0.502686 0)
(1.12439 0.435766 0)
(1.0747 0.583322 0)
(1.0904 0.551709 0)
(1.04752 0.604073 4.82792e-25)
(1.06041 0.599604 0)
(1.02459 0.593728 0)
(1.0357 0.600733 0)
(1.00199 0.58021 -4.23161e-22)
(1.01353 0.586242 0)
(0.974404 0.574628 -2.62238e-22)
(0.988907 0.576659 6.29053e-22)
(0.977942 0.551661 3.60451e-21)
(0.98919 0.539723 2.67946e-21)
(0.9584 0.588803 1.95646e-22)
(0.957988 0.573171 -1.95524e-22)
(0.949544 0.583171 0)
(1.21272 0.227237 -9.26003e-22)
(0.838209 0.188946 2.01884e-21)
(1.01696 0.513933 -2.63337e-22)
(0.960656 0.603146 0)
(1.0088 0.533113 -1.48825e-22)
(0.959162 0.572119 0)
(0.972581 0.60789 0)
(0.974273 0.566383 0)
(0.978664 0.611152 0)
(0.978584 0.612309 0)
(0.972262 0.610106 1.16961e-22)
(0.960023 0.602607 2.49651e-22)
(0.941636 0.588315 0)