/*--------------------------------*- C++ -*----------------------------------*\
  =========                 |
  \\      /  F ield         | OpenFOAM: The Open Source CFD Toolbox
   \\    /   O peration     | Website:  https://openfoam.org
    \\  /    A nd           | Version:  10
     \\/     M anipulation  |
\*---------------------------------------------------------------------------*/
FoamFile
{
    format      ascii;
    class       volVectorField;
    location    "36";
    object      U;
}
// * * * * * * * * * * * * * * * * * * * * * * * * * * * * * * * * * * * * * //

dimensions      [0 1 -1 0 0 0 0];

internalField   nonuniform List<vector> 
28942
(
(0.00450283 -0.00229353 -3.3137e-22)
(0.00609384 -0.00238125 -6.09967e-23)
(0.0180212 -0.0124413 -8.56508e-22)
(0.103304 0.0182412 -5.36363e-21)
(0.102342 0.0222827 1.75518e-21)
(0.0187212 0.000629796 0)
(0.0222828 0.000204959 1.58141e-23)
(0.0257326 0.000811985 -1.40921e-23)
(0.135226 -0.0176705 -2.71623e-22)
(0.133839 -0.0160346 7.71899e-22)
(0.0100633 0.00414338 -6.42003e-22)
(0.0164508 0.00580576 2.39889e-22)
(0.00732094 0.00324471 0)
(0.00484437 0.00213126 0)
(0.0565407 0.00233778 -2.07688e-23)
(0.0544348 0.00309552 -7.59825e-24)
(0.089345 0.0158625 6.78761e-22)
(0.0870322 0.0138373 1.09179e-21)
(0.0121889 -0.0151396 2.99092e-21)
(0.0293924 -0.0305208 -7.87462e-22)
(0.0982078 0.0373105 9.70824e-22)
(0.0973736 0.0343524 0)
(0.0190219 0.00475743 1.14615e-21)
(0.00799872 0.00242572 5.37609e-22)
(0.0382021 0.00737982 9.2086e-22)
(0.0580492 0.00306549 -8.39488e-22)
(0.00765741 -0.018506 8.612e-21)
(0.00670107 -0.0165685 -3.16973e-21)
(0.0356245 -0.0253864 5.93977e-22)
(0.0193598 -0.0137181 2.05535e-22)
(0.0191689 -0.0017958 0)
(0.0239702 -0.00163429 -1.82963e-23)
(0.0302486 0.00520876 3.76892e-22)
(0.0430827 0.00217639 -6.51415e-23)
(0.0188633 0.0180391 1.34117e-21)
(0.0157489 0.0191487 -1.34204e-21)
(0.032228 0.0376689 -3.09996e-21)
(0.0187004 0.0305774 -1.08054e-21)
(0.0103694 8.48708e-05 -1.32044e-23)
(0.0086638 0.0162208 -2.64937e-21)
(0.0306468 -0.0062034 0)
(0.0513394 -0.01097 0)
(0.111851 -0.01734 -3.43585e-23)
(0.111355 -0.0173363 1.02759e-22)
(0.114787 -0.0170531 8.81479e-23)
(0.0360399 0.00035379 1.60769e-23)
(0.0335853 -0.000571338 -2.6252e-23)
(0.0474574 -0.000527682 -1.14669e-22)
(0.0455428 -0.000590953 3.24588e-23)
(0.0372734 -0.00322278 -2.78373e-22)
(0.0280329 -0.00398045 1.79117e-22)
(0.127993 0.00214342 -4.33012e-22)
(0.127372 0.00164346 -4.01676e-22)
(0.134585 -0.020504 -3.83807e-24)
(0.132996 -0.0187791 1.46728e-22)
(0.0835071 0.0068199 6.96566e-22)
(0.102798 -0.000260542 2.35323e-22)
(0.00314205 0.00166705 -5.48468e-22)
(0.00914564 0.00377787 0)
(0.00842893 0.00337237 2.31864e-22)
(0.00295822 0.00153013 4.72901e-22)
(0.000379447 0.000236984 -3.93998e-22)
(0.000205639 0.000130188 -3.76962e-22)
(0.110301 -0.0425874 0)
(0.105551 -0.0255227 1.18565e-22)
(0.122402 -0.0329063 -3.89285e-23)
(0.123924 -0.0436059 0)
(0.0901787 -0.0327492 -6.49148e-22)
(0.0936893 -0.0352035 -4.26976e-22)
(0.00191843 -0.00114753 1.0949e-21)
(0.00253418 -0.00204829 -3.4514e-22)
(0.00495433 -0.00320446 8.56321e-22)
(0.0849863 -0.0457201 0)
(0.0912991 -0.0395642 2.20514e-21)
(0.080673 -0.0530068 5.9624e-22)
(0.114946 0.012071 2.17487e-22)
(0.113648 0.00647997 -2.41976e-22)
(0.125957 0.0104769 -9.24565e-23)
(0.00470579 -0.00287514 -5.53982e-23)
(0.0063691 -0.00444623 4.71767e-22)
(0.0512449 -0.0312453 1.34649e-22)
(0.033326 -0.0206264 -2.63194e-22)
(0.0021459 -0.000613689 3.1669e-21)
(0.00522486 -0.00210974 -1.23463e-21)
(0.101382 0.0482668 1.93739e-23)
(0.0973518 0.0552462 -7.89211e-22)
(0.0809672 0.0540792 7.22133e-22)
(0.0473495 0.034585 -2.75912e-21)
(0.0445777 0.0316839 1.95431e-21)
(0.0295828 0.0206489 -1.17762e-22)
(0.0328082 0.0233047 -6.57254e-22)
(0.0380606 0.0284199 8.92032e-22)
(0.00454838 0.00284159 -5.3786e-23)
(0.00801678 0.0041404 -1.57821e-23)
(0.00329137 0.00208232 3.16256e-23)
(0.0019798 0.00169794 -4.19845e-22)
(0.00148881 0.00162703 5.12783e-22)
(0.0157844 0.0115711 -3.33949e-21)
(0.017539 0.0136647 7.66413e-22)
(0.00890185 -0.00389969 0)
(0.101389 0.00516058 0)
(0.0984 0.0156854 -4.02009e-21)
(0.0604359 0.0104758 1.99236e-21)
(0.0886744 0.0178826 0)
(0.136095 -0.0026682 0)
(0.135544 -0.00344935 0)
(0.134003 -0.00389512 -3.15507e-22)
(0.115025 0.0263586 -2.18571e-22)
(0.114124 0.0277791 2.15772e-21)
(0.113313 0.025244 1.15782e-21)
(0.00236443 0.00133829 1.01852e-21)
(0.00156384 0.000801838 -1.14319e-21)
(0.0193384 -0.00564481 -5.29847e-22)
(0.0204834 -0.00518895 4.48605e-22)
(0.00926737 -0.00298613 8.84555e-22)
(0.00648434 0.0111626 1.49453e-21)
(0.0189897 0.0181808 3.49612e-21)
(0.0134842 0.0228288 2.72576e-22)
(0.00492758 0.0143239 -8.71861e-21)
(0.11742 0.0476697 5.83785e-23)
(0.108149 0.058189 1.10756e-21)
(0.118654 0.0547697 -1.91043e-21)
(0.0391986 -0.0294804 7.48352e-22)
(0.0240738 -0.0173052 -4.81905e-22)
(0.00532569 -0.000739962 -4.14693e-21)
(0.00454211 -0.00359293 0)
(0.0125071 -0.00166952 2.02677e-21)
(0.0220182 -0.0161654 7.93935e-22)
(0.0343387 -0.0278385 -1.99992e-21)
(0.0449999 2.07311e-05 8.13235e-23)
(0.0477328 0.000188593 -5.69337e-23)
(0.0423513 0.000232223 -2.50283e-24)
(0.0281103 -0.0420075 0)
(0.029658 -0.0428872 0)
(0.0896142 -0.0186564 -4.75953e-22)
(0.0995816 -0.0220955 3.22693e-21)
(0.0870311 -0.0252798 0)
(0.0472299 -0.0402528 0)
(0.0583085 -0.0514425 -7.99789e-22)
(0.041396 0.0393943 2.11781e-21)
(-3.76808e-06 0.000214598 4.84502e-22)
(-0.000200094 0.000129424 -3.15318e-22)
(0.0223756 -0.0192779 -8.07737e-22)
(0.118136 -0.016639 4.99956e-22)
(0.117487 -0.0166377 -9.56473e-23)
(0.116517 -0.0050971 -6.17195e-23)
(0.109555 0.00163253 8.22503e-23)
(0.118772 0.000505124 1.50197e-22)
(8.69175e-05 0.000262869 1.88801e-22)
(0.0438601 0.0344833 3.27303e-21)
(0.0620484 0.0463812 -8.06261e-22)
(0.0595118 0.0394509 -3.13667e-24)
(0.0297034 -0.00107205 7.39408e-24)
(0.0292744 -0.00110268 4.00469e-23)
(0.0317034 -0.000955384 1.95061e-24)
(0.0353254 -0.000841145 -1.97308e-23)
(0.0455265 0.0381509 1.34318e-22)
(0.0190041 0.0160885 0)
(0.000130607 -1.29349e-05 3.42007e-22)
(0.000418909 -0.000247474 -3.79503e-22)
(0.00188606 -0.00101077 2.62066e-22)
(0.0369198 -0.00786952 -1.81129e-21)
(0.0654147 -0.00225946 -7.34143e-22)
(0.0408404 -0.000423426 -2.30065e-24)
(0.0749924 -0.00757381 2.68204e-22)
(0.0711324 -0.0157377 4.37202e-23)
(0.0943995 0.0398505 2.18321e-21)
(0.0915164 0.045398 9.91638e-23)
(0.0888053 0.0290455 1.23633e-21)
(0.0915341 0.0307542 -8.95953e-22)
(0.0988004 0.0409928 0)
(0.125648 -0.00101576 1.59035e-22)
(0.126367 -0.00148026 3.01985e-22)
(0.127939 -0.0116598 -3.11983e-22)
(0.12939 -0.0114161 5.34735e-22)
(0.117088 0.0238549 2.68945e-22)
(0.119152 0.0247249 -7.62058e-22)
(0.117148 0.0258777 0)
(0.115174 0.0246415 1.58009e-22)
(0.116733 0.0278163 0)
(0.117288 0.0358602 -5.682e-22)
(0.115835 0.0379353 -3.09437e-22)
(0.111472 0.0417974 -5.54846e-22)
(0.113862 0.0399052 0)
(0.116581 0.0428694 1.84131e-21)
(0.11386 0.0448202 4.73824e-23)
(0.10847 0.0440333 -3.10898e-22)
(0.0997804 0.0501981 -1.31634e-21)
(0.0985418 0.0454097 -2.31737e-22)
(0.0257886 -0.00883464 4.17676e-23)
(0.0338782 -0.00980231 -1.6723e-23)
(0.0064097 -0.00253287 -6.61733e-22)
(0.0401848 -3.38948e-05 -5.36072e-23)
(0.0509377 -0.000303116 0)
(-8.49228e-06 -3.70858e-05 4.03882e-22)
(9.75973e-06 -4.57844e-05 2.06581e-22)
(0.0462511 -0.00214804 2.41232e-23)
(0.0541962 -0.00208431 9.33801e-24)
(0.0536519 -0.00140311 0)
(0.0448053 -0.000916948 1.05628e-23)
(0.105607 0.00295276 -1.36413e-22)
(0.105414 0.00264567 6.48302e-22)
(0.105902 0.0026996 3.07159e-22)
(0.000698484 0.000281104 3.77142e-22)
(-0.000159334 -0.000130846 -5.50846e-22)
(-0.000203559 -0.000173695 4.66078e-22)
(0.00154308 0.000641746 0)
(8.87534e-05 9.46566e-05 1.1213e-21)
(0.000183175 -3.37397e-05 -8.0306e-22)
(0.00756688 0.00373407 -9.75746e-22)
(0.00148699 0.000800502 -1.17198e-21)
(0.00175519 0.000878755 0)
(0.00157403 0.00755271 0)
(0.000577783 0.003285 0)
(0.000313716 0.00197906 0)
(0.137113 -0.00276642 6.7372e-23)
(0.137972 -0.00265686 0)
(0.136511 -0.00362194 -7.81908e-23)
(0.0881396 -0.0148338 4.49451e-21)
(0.0901452 -0.0152403 -1.63163e-21)
(0.0890587 -0.0128609 0)
(0.112647 6.75407e-05 -7.55662e-24)
(0.112803 6.14749e-05 1.51251e-23)
(0.112481 7.4861e-05 -5.12446e-24)
(0.112949 5.64622e-05 0)
(0.113086 5.34319e-05 -9.61526e-24)
(0.113214 4.92584e-05 0)
(0.113213 -8.3991e-05 0)
(0.113334 4.27649e-05 3.55698e-23)
(0.113331 -8.42661e-05 0)
(0.113086 -8.67607e-05 -9.67911e-24)
(0.112949 -9.08317e-05 0)
(0.112803 -9.52852e-05 5.06089e-24)
(0.112646 -0.000100915 -7.55924e-24)
(0.112481 -0.000106371 5.11805e-24)
(0.113445 3.65854e-05 -3.40374e-23)
(0.113442 -8.30799e-05 -1.19005e-24)
(0.112303 8.34003e-05 8.31264e-28)
(0.112301 -0.000110547 -7.84363e-24)
(0.11211 9.23798e-05 4.18021e-23)
(0.113548 3.24374e-05 3.17691e-26)
(0.113547 -7.99032e-05 -1.18829e-24)
(0.11211 -0.000116954 1.54817e-23)
(0.113646 2.82741e-05 3.19465e-23)
(0.113738 2.47362e-05 -3.19202e-23)
(0.113646 -7.70468e-05 2.39552e-24)
(0.113738 -7.41047e-05 4.72555e-24)
(0.111911 0.000106373 -4.06714e-23)
(0.111909 -0.000124159 -1.0196e-23)
(0.113824 2.11713e-05 0)
(0.113824 -7.15175e-05 -4.66097e-24)
(0.111693 0.000117317 5.04372e-27)
(0.111692 -0.000129717 -5.05636e-27)
(0.113905 1.81475e-05 0)
(0.113905 -6.88652e-05 0)
(0.111461 0.000127743 0)
(0.111459 -0.000136878 0)
(0.113981 1.50445e-05 0)
(0.113981 -6.65448e-05 2.23415e-24)
(0.111212 0.000139012 -2.12693e-23)
(0.111209 -0.000143988 -5.1853e-27)
(0.114052 1.24981e-05 1.1707e-25)
(0.114053 -6.40617e-05 -2.38602e-24)
(0.110945 0.000150366 2.13709e-23)
(0.110943 -0.000152181 0)
(0.114119 9.87832e-06 0)
(0.11412 -6.18093e-05 0)
(0.110661 0.0001628 -1.35691e-24)
(0.110658 -0.000159999 2.33126e-23)
(0.114182 7.58655e-06 1.44562e-23)
(0.114183 -5.94322e-05 0)
(0.110357 0.00017472 -1.447e-25)
(0.110353 -0.000168865 -2.20664e-23)
(0.114241 5.09892e-06 -2.162e-23)
(0.114242 -5.73693e-05 -6.27382e-24)
(0.110026 0.000183217 2.25543e-23)
(0.110024 -0.000178334 0)
(0.114297 2.93934e-06 7.11923e-24)
(0.114298 -5.49487e-05 4.18385e-24)
(0.109675 0.000195507 -1.14571e-23)
(0.109673 -0.000190347 2.32358e-23)
(0.114349 1.10506e-06 -2.8427e-23)
(0.114351 -5.16655e-05 3.20398e-23)
(0.109287 0.000199606 1.18482e-23)
(0.109289 -0.000205287 3.75532e-25)
(0.114399 -5.10996e-07 0)
(0.114401 -4.9001e-05 1.52704e-23)
(0.108873 0.000204662 -2.39021e-23)
(0.108877 -0.000225602 4.78207e-23)
(0.114448 -2.23624e-06 0)
(0.114448 -4.75671e-05 0)
(0.10932 0.000601864 -1.17238e-23)
(0.108906 0.000634678 -4.76207e-23)
(0.108421 0.000205936 0)
(0.108432 -0.000254202 -2.44385e-23)
(0.110057 0.000535946 -7.32904e-24)
(0.1097 0.000569284 1.44028e-24)
(0.110687 0.000468824 0)
(0.11038 0.000502144 -2.35906e-23)
(0.111236 0.000406797 -4.52277e-26)
(0.110971 0.000437026 0)
(0.111715 0.000350988 0)
(0.111483 0.000378139 0)
(0.112135 0.000298812 0)
(0.111931 0.000324893 0)
(0.112496 0.000255207 1.01133e-23)
(0.11232 0.000276231 2.55537e-24)
(0.112815 0.000219446 -9.73656e-24)
(0.112662 0.000236437 -1.01084e-23)
(0.113094 0.000189443 1.72253e-23)
(0.112959 0.000202504 2.20584e-23)
(0.113342 0.000163923 0)
(0.113222 0.000177004 0)
(0.113556 0.000140619 -7.53697e-26)
(0.113453 0.000151884 0)
(0.113745 0.000120095 0)
(0.113654 0.000130001 0)
(0.113911 0.000102194 0)
(0.113831 0.000110825 0)
(0.114057 8.65614e-05 0)
(0.113987 9.41288e-05 0)
(0.114187 7.28299e-05 0)
(0.114124 7.94576e-05 0)
(0.114301 6.07596e-05 0)
(0.114246 6.66006e-05 0)
(0.114403 4.83351e-05 -1.16175e-23)
(0.114353 5.52064e-05 0)
(0.114451 4.26335e-05 -3.75371e-24)
(0.114493 -4.42045e-06 3.66191e-24)
(0.114494 -4.64203e-05 -3.63144e-24)
(0.114355 -0.000102285 0)
(0.114452 -9.22894e-05 -1.49047e-23)
(0.114404 -9.68363e-05 -7.67469e-24)
(0.114246 -0.000114341 2.10292e-24)
(0.114302 -0.000108209 -8.2314e-24)
(0.114124 -0.000126672 6.82054e-26)
(0.114187 -0.000120589 0)
(0.113986 -0.000139747 0)
(0.114058 -0.000133 0)
(0.11383 -0.00015474 0)
(0.113911 -0.000146997 0)
(0.113652 -0.000171873 0)
(0.113744 -0.000163003 9.01002e-30)
(0.11345 -0.000191669 7.62492e-26)
(0.113554 -0.000181385 0)
(0.113221 -0.000213482 0)
(0.113338 -0.000202606 0)
(0.112959 -0.00023731 0)
(0.113094 -0.000225089 0)
(0.112659 -0.000266258 0)
(0.112814 -0.000250498 -5.11064e-24)
(0.112316 -0.000301352 1.35257e-24)
(0.112492 -0.000284531 -6.61323e-24)
(0.111925 -0.000343227 0)
(0.112129 -0.000320457 -5.39437e-24)
(0.111477 -0.000388972 0)
(0.111709 -0.000365442 0)
(0.110963 -0.000441078 0)
(0.111229 -0.000414131 0)
(0.110374 -0.00050026 0)
(0.110679 -0.000469797 0)
(0.109696 -0.000566932 -5.99421e-24)
(0.110048 -0.0005317 0)
(0.108918 -0.000650647 -2.44696e-23)
(0.109322 -0.000604584 -6.04575e-24)
(0.108479 -0.000703014 2.49837e-23)
(0.10846 0.000669696 4.72783e-23)
(0.114496 3.77668e-05 7.3436e-24)
(0.114496 -8.81112e-05 -1.43484e-23)
(0.107947 -0.000291429 0)
(0.108007 -0.000767233 0)
(0.10798 0.000706472 0)
(0.107935 0.000202321 0)
(0.109387 0.000997145 0)
(0.108549 0.00113049 1.18177e-23)
(0.108983 0.00106111 1.19023e-23)
(0.110113 0.000874338 1.50546e-23)
(0.109763 0.000934996 -3.01159e-24)
(0.110736 0.000761217 4.63116e-26)
(0.110436 0.000816162 0)
(0.111278 0.000661302 0)
(0.111017 0.000709715 0)
(0.111751 0.000573275 0)
(0.111523 0.000615872 0)
(0.112164 0.000496505 0)
(0.111964 0.000533396 0)
(0.112525 0.000428995 0)
(0.11235 0.000461964 0)
(0.112839 0.000372 -4.07946e-26)
(0.112686 0.000400075 1.05361e-23)
(0.113114 0.000322092 -3.90611e-26)
(0.112982 0.000345406 -2.05168e-23)
(0.113357 0.000278139 0)
(0.113239 0.000299239 0)
(0.11357 0.000240554 3.76463e-26)
(0.113467 0.000258656 0)
(0.113757 0.000207974 0)
(0.113667 0.000223694 0)
(0.113922 0.000179606 0)
(0.113842 0.0001933 0)
(0.114067 0.000154851 0)
(0.113996 0.000166816 0)
(0.114195 0.000133187 0)
(0.114133 0.000143657 0)
(0.114308 0.00011404 0)
(0.114253 0.000123354 0)
(0.114409 9.55115e-05 7.93534e-24)
(0.11436 0.00010479 0)
(0.114536 -6.33204e-06 0)
(0.114538 3.34572e-05 7.18049e-24)
(0.1145 7.90433e-05 0)
(0.114456 8.69037e-05 7.73209e-24)
(0.114457 -0.000137129 1.53947e-23)
(0.114501 -0.000130209 3.78148e-24)
(0.114538 -8.47094e-05 2.94883e-23)
(0.114536 -4.50033e-05 0)
(0.114361 -0.000153434 0)
(0.11441 -0.000144869 -2.32399e-23)
(0.114254 -0.000171585 6.62497e-26)
(0.114309 -0.000162144 8.28147e-24)
(0.114133 -0.000190875 -6.82051e-26)
(0.114195 -0.000180997 0)
(0.113996 -0.000212532 0)
(0.114067 -0.000201349 0)
(0.113841 -0.000237347 0)
(0.113921 -0.000224521 0)
(0.113665 -0.000265805 0)
(0.113756 -0.000251083 -9.00999e-30)
(0.113465 -0.000298518 -1.52458e-25)
(0.113568 -0.000281594 0)
(0.113237 -0.000336038 0)
(0.113355 -0.000316662 0)
(0.112978 -0.000379008 2.57828e-24)
(0.113112 -0.000356744 0)
(0.112682 -0.000427757 0)
(0.112835 -0.000401899 -2.56752e-24)
(0.112343 -0.000485507 5.40261e-24)
(0.112517 -0.000456052 5.35805e-24)
(0.111956 -0.000551454 0)
(0.112156 -0.000517383 0)
(0.111513 -0.000627209 0)
(0.111742 -0.000588025 0)
(0.111005 -0.000714263 0)
(0.111267 -0.000669228 0)
(0.110422 -0.000814211 0)
(0.110723 -0.000762527 0)
(0.109754 -0.000928708 9.61594e-26)
(0.1101 -0.000869466 0)
(0.10899 -0.0010598 -9.80664e-26)
(0.109385 -0.000992067 0)
(0.108105 -0.00122633 -2.5763e-23)
(0.108562 -0.00113902 2.57511e-23)
(0.108083 0.00120344 2.41706e-23)
(0.107502 -0.000842101 0)
(0.107612 -0.00132783 -5.27414e-23)
(0.107434 -0.000333927 0)
(0.114542 7.27362e-05 0)
(0.114543 -0.000123718 -3.66928e-24)
(0.107468 0.000745946 6.15426e-23)
(0.107585 0.00128113 2.46504e-23)
(0.106958 -0.000922996 1.33499e-23)
(0.107084 -0.00143941 6.66703e-23)
(0.107414 0.000197404 0)
(0.114507 0.000121398 3.02544e-23)
(0.114548 0.000111815 -1.49444e-23)
(0.114578 -8.13989e-05 -7.26297e-24)
(0.114582 -0.000117488 3.61154e-23)
(0.107763 0.00179982 8.61001e-23)
(0.107046 0.0013647 -4.84773e-23)
(0.106672 0.00205473 -2.19237e-22)
(0.107236 0.00191913 -4.92216e-23)
(0.108688 0.00157937 2.38264e-23)
(0.108241 0.00168729 -7.31427e-23)
(0.109494 0.00138064 -2.43009e-23)
(0.109105 0.00147748 -1.84126e-23)
(0.110199 0.00120426 -6.01994e-24)
(0.109859 0.00129061 -6.04066e-24)
(0.110809 0.00104863 -4.63116e-26)
(0.110515 0.00112397 0)
(0.11134 0.000911756 0)
(0.111084 0.000977967 0)
(0.111804 0.000791907 0)
(0.11158 0.000849821 0)
(0.112209 0.000687434 0)
(0.112013 0.000737832 0)
(0.112563 0.000596841 0)
(0.112392 0.000640475 0)
(0.112872 0.000518199 0)
(0.112722 0.000556171 0)
(0.113143 0.00045013 2.2192e-29)
(0.113012 0.000483024 0)
(0.113381 0.000390717 0)
(0.113266 0.000419324 0)
(0.113591 0.000339393 3.76178e-26)
(0.113489 0.000364131 0)
(0.113775 0.000294893 0)
(0.113686 0.000316364 0)
(0.113937 0.000256179 0)
(0.113858 0.000274871 0)
(0.11408 0.000222422 0)
(0.114011 0.000238731 0)
(0.114206 0.000192911 0)
(0.114145 0.000207179 0)
(0.114318 0.000166874 0)
(0.114264 0.000179526 0)
(0.114418 0.000142834 4.04441e-24)
(0.114369 0.000154594 -2.03514e-24)
(0.114464 0.000131784 -1.54326e-23)
(0.114576 -7.46156e-06 -3.43913e-24)
(0.114582 6.6645e-05 1.43851e-23)
(0.114578 2.94865e-05 -1.0995e-23)
(0.114576 -4.41378e-05 0)
(0.114465 -0.000182064 -1.14632e-23)
(0.11455 -0.000162628 -3.30885e-23)
(0.114508 -0.00017207 2.66449e-23)
(0.11437 -0.000204413 0)
(0.114419 -0.000192839 0)
(0.114265 -0.000227904 -1.45254e-29)
(0.114319 -0.000215575 0)
(0.114145 -0.000254445 0)
(0.114207 -0.000240781 0)
(0.11401 -0.000284587 -7.01453e-26)
(0.11408 -0.000269019 0)
(0.113857 -0.000319095 0)
(0.113936 -0.000301258 0)
(0.113684 -0.00035867 0)
(0.113773 -0.000338205 0)
(0.113487 -0.000404107 7.62201e-26)
(0.113588 -0.000380609 0)
(0.113262 -0.000456246 7.82657e-26)
(0.113378 -0.00042928 0)
(0.113007 -0.000516265 0)
(0.113139 -0.000485182 0)
(0.112715 -0.000585275 0)
(0.112866 -0.000549559 0)
(0.112382 -0.000664947 0)
(0.112554 -0.000623718 0)
(0.112001 -0.000756491 0)
(0.112198 -0.000709069 0)
(0.111566 -0.000862004 -8.912e-26)
(0.111791 -0.000807408 0)
(0.111067 -0.000983318 0)
(0.111325 -0.000920568 0)
(0.110496 -0.00112253 0)
(0.110791 -0.00105057 0)
(0.109842 -0.00128173 -7.56838e-29)
(0.11018 -0.0011995 0)
(0.109094 -0.0014629 9.35969e-29)
(0.10948 -0.00136946 0)
(0.108238 -0.00167422 1.02043e-25)
(0.10868 -0.00156307 0)
(0.107253 -0.00193457 -5.41052e-23)
(0.107762 -0.00179737 1.32404e-23)
(0.106522 -0.00155645 1.36365e-23)
(0.106715 -0.00208332 2.6993e-23)
(0.106921 0.000784122 -2.4011e-23)
(0.10688 -0.000382133 -2.58691e-23)
(0.114587 0.000103263 3.66082e-24)
(0.114588 -0.000154388 2.60063e-23)
(0.106451 0.00144226 2.97981e-24)
(0.106378 -0.00101389 0)
(0.105957 0.00212681 3.36272e-22)
(0.106144 -0.00223969 4.19193e-23)
(0.10593 -0.00168172 5.59242e-23)
(0.106212 0.00297949 -5.62363e-22)
(0.105791 0.00320993 1.0169e-22)
(0.106868 0.000193522 0)
(0.10703 0.00261918 5.55083e-23)
(0.106581 0.00281453 2.87952e-23)
(0.10799 0.0022933 4.99062e-23)
(0.107507 0.00244784 -7.62995e-23)
(0.108869 0.00200681 -2.46943e-23)
(0.108445 0.0021475 -1.23623e-23)
(0.109639 0.00175168 1.23235e-23)
(0.109267 0.0018749 1.25381e-23)
(0.110316 0.00152606 0)
(0.109988 0.00163524 -3.38631e-26)
(0.110906 0.00132877 0)
(0.110621 0.00142417 0)
(0.111422 0.00115612 4.50923e-26)
(0.111173 0.00123955 0)
(0.111873 0.00100537 0)
(0.111655 0.00107818 0)
(0.112267 0.000874069 0)
(0.112076 0.000937429 0)
(0.112612 0.000760117 0)
(0.112445 0.000815072 0)
(0.112915 0.000661264 4.07112e-26)
(0.112768 0.000708943 0)
(0.11318 0.000575514 2.40744e-29)
(0.113051 0.000616896 0)
(0.113413 0.000501009 0)
(0.1133 0.000536941 0)
(0.113618 0.000436361 -7.52157e-26)
(0.113518 0.000467544 0)
(0.113798 0.000380234 0)
(0.113711 0.000407318 0)
(0.113957 0.000331406 0)
(0.11388 0.000354981 0)
(0.114097 0.000288836 0)
(0.114029 0.000309401 0)
(0.114222 0.000251639 0)
(0.114161 0.000269621 0)
(0.114331 0.000218938 0)
(0.114278 0.000234796 0)
(0.114429 0.000189686 -2.0203e-24)
(0.114382 0.000203749 0)
(0.114517 0.000163479 0)
(0.114474 0.000176217 -3.91915e-24)
(0.114595 0.000139739 9.65314e-28)
(0.114557 0.000151243 0)
(0.114618 6.09497e-05 -1.45849e-23)
(0.114631 0.00012968 8.80914e-25)
(0.114624 9.57618e-05 7.14486e-24)
(0.114613 -8.5492e-06 5.24602e-24)
(0.114615 2.604e-05 -3.6211e-24)
(0.114615 -7.83691e-05 -1.82285e-24)
(0.114613 -4.33434e-05 1.81984e-24)
(0.114625 -0.000147349 0)
(0.114619 -0.000112528 -1.65517e-23)
(0.114558 -0.000202188 -7.44144e-24)
(0.114632 -0.000182317 -1.42345e-23)
(0.114596 -0.000191624 3.27424e-23)
(0.114475 -0.000226342 -3.90392e-24)
(0.114518 -0.000213856 0)
(0.114383 -0.000253671 0)
(0.11443 -0.000239587 0)
(0.114279 -0.00028337 -1.97e-29)
(0.114332 -0.0002681 0)
(0.114162 -0.000317071 0)
(0.114222 -0.000299681 0)
(0.114029 -0.000355517 7.01453e-26)
(0.114097 -0.000335655 0)
(0.113879 -0.000399535 0)
(0.113956 -0.000376783 0)
(0.113709 -0.000450003 0)
(0.113796 -0.00042391 0)
(0.113515 -0.000507922 0)
(0.113615 -0.00047797 0)
(0.113295 -0.00057444 -3.78171e-29)
(0.113409 -0.000540035 0)
(0.113045 -0.00065096 0)
(0.113174 -0.000611362 0)
(0.112759 -0.000739037 0)
(0.112907 -0.000693444 0)
(0.112434 -0.000840531 0)
(0.112602 -0.000788014 0)
(0.112062 -0.000957359 0)
(0.112254 -0.000896879 0)
(0.111636 -0.00109185 8.912e-26)
(0.111856 -0.00102227 0)
(0.11115 -0.00124642 0)
(0.111401 -0.00116648 0)
(0.110594 -0.00142365 0)
(0.110882 -0.00133206 0)
(0.109959 -0.00162614 -9.60746e-26)
(0.110287 -0.00152159 0)
(0.109233 -0.0018563 9.84643e-26)
(0.109608 -0.00173763 0)
(0.108406 -0.00211738 -1.0089e-25)
(0.108833 -0.00198273 0)
(0.107466 -0.00241912 1.33305e-23)
(0.10795 -0.0022608 -2.62714e-23)
(0.106405 -0.00277583 -1.35015e-23)
(0.10695 -0.00259022 2.7474e-23)
(0.105536 -0.00240372 6.37946e-25)
(0.105825 -0.00297072 2.79548e-23)
(0.106334 0.000813054 -2.48564e-23)
(0.106297 -0.000425188 0)
(0.105832 0.00149208 -2.41127e-22)
(0.105767 -0.00109467 0)
(0.114605 0.00017727 -3.66235e-24)
(0.11464 0.000164838 2.68299e-24)
(0.114659 -0.000140535 -1.39964e-23)
(0.114666 -0.000172985 -1.58619e-23)
(0.105287 0.00214226 -2.37054e-22)
(0.1053 -0.00181339 -5.64713e-23)
(0.105252 0.0032387 0)
(0.106504 0.00352402 -6.54406e-23)
(0.104893 -0.00257692 -2.77067e-23)
(0.105209 -0.00317412 4.25828e-23)
(0.105972 0.00368315 1.30976e-22)
(0.106284 0.000188399 0)
(0.107372 0.00312455 0)
(0.106937 0.00332864 -5.79285e-23)
(0.10826 0.00275038 0)
(0.107818 0.00293436 0)
(0.109085 0.0024073 0)
(0.108684 0.00257381 1.28075e-23)
(0.109814 0.00210372 0)
(0.109461 0.00225093 0)
(0.110458 0.00183506 0)
(0.110146 0.00196513 0)
(0.111025 0.00159919 0)
(0.110751 0.00171327 0)
(0.111521 0.0013927 -4.50923e-26)
(0.111281 0.00149249 0)
(0.111957 0.00121243 0)
(0.111746 0.00129949 0)
(0.112338 0.00105542 0)
(0.112154 0.0011312 0)
(0.112673 0.00091899 0)
(0.112511 0.000984804 0)
(0.112967 0.000800593 -3.15928e-29)
(0.112825 0.000857709 0)
(0.113224 0.000697856 2.85369e-29)
(0.1131 0.000747413 0)
(0.113451 0.000608615 0)
(0.113341 0.000651673 0)
(0.113651 0.000531088 2.3806e-29)
(0.113554 0.000568497 0)
(0.113827 0.000463699 0)
(0.113742 0.000496225 0)
(0.113982 0.00040504 0)
(0.113907 0.000433365 0)
(0.114119 0.000353889 0)
(0.114053 0.0003786 0)
(0.11424 0.000309202 0)
(0.114182 0.000330801 0)
(0.114348 0.000270046 0)
(0.114296 0.000288993 0)
(0.114443 0.000235592 0)
(0.114397 0.000252296 0)
(0.114529 0.000204422 3.88895e-24)
(0.114487 0.000219346 3.97866e-24)
(0.114568 0.000190206 -7.46303e-24)
(0.114653 5.5812e-05 -7.15664e-24)
(0.114665 0.000120881 0)
(0.114658 8.8591e-05 -7.22824e-24)
(0.114648 -9.61583e-06 0)
(0.114649 2.32784e-05 7.30382e-24)
(0.11465 -7.57859e-05 1.09022e-23)
(0.114648 -4.27949e-05 -3.68457e-24)
(0.114654 -0.000107938 -2.14276e-23)
(0.114569 -0.000241303 3.75199e-24)
(0.114642 -0.000215568 1.39635e-23)
(0.114606 -0.000228844 0)
(0.114489 -0.000269889 -7.77315e-24)
(0.11453 -0.000255163 7.79882e-24)
(0.114398 -0.000301927 0)
(0.114445 -0.000285625 0)
(0.114297 -0.000337714 -2.45713e-29)
(0.114349 -0.000319264 0)
(0.114182 -0.00037846 0)
(0.114241 -0.000357422 0)
(0.114052 -0.00042501 0)
(0.114119 -0.000400959 0)
(0.113906 -0.000478303 0)
(0.113981 -0.000450759 0)
(0.113739 -0.000539386 0)
(0.113825 -0.000507807 0)
(0.11355 -0.000609469 7.61184e-26)
(0.113648 -0.000573228 0)
(0.113336 -0.000689965 -7.82279e-26)
(0.113447 -0.000648328 0)
(0.113092 -0.000782534 0)
(0.113218 -0.000734639 0)
(0.112814 -0.000889055 0)
(0.112958 -0.000833927 0)
(0.112497 -0.00101171 0)
(0.112661 -0.000948247 0)
(0.112136 -0.00115288 0)
(0.112323 -0.00107983 0)
(0.111724 -0.00131527 0)
(0.111937 -0.00123127 0)
(0.111254 -0.00150174 0)
(0.111497 -0.00140532 0)
(0.110717 -0.00171531 -9.35332e-26)
(0.110994 -0.00160497 0)
(0.110104 -0.00195903 9.58638e-26)
(0.11042 -0.00183324 0)
(0.109407 -0.00223581 -9.82233e-26)
(0.109767 -0.00209314 0)
(0.108614 -0.00254848 0)
(0.109023 -0.00238751 0)
(0.107716 -0.0028997 0)
(0.108179 -0.00271902 0)
(0.106709 -0.00329433 1.06719e-25)
(0.107228 -0.00309006 1.34951e-23)
(0.105575 -0.00374445 -7.12031e-23)
(0.106157 -0.00351197 0)
(0.104559 -0.00339587 -4.21712e-23)
(0.104958 -0.00399154 -6.29202e-25)
(0.105716 0.0008385 7.79068e-23)
(0.105679 -0.000466529 0)
(0.114674 0.000153068 -1.39372e-23)
(0.114675 -0.00020463 -2.68988e-23)
(0.10514 0.00151457 -4.15834e-23)
(0.104844 0.00285775 6.09886e-25)
(0.104593 0.00218061 1.20222e-22)
(0.105128 -0.00117339 0)
(0.104635 -0.00193725 1.42578e-23)
(0.105291 0.00381943 -1.20663e-22)
(0.104664 0.00388005 1.0494e-22)
(0.104308 0.00310834 -1.03168e-22)
(0.104213 -0.00275063 -4.28343e-23)
(0.103871 -0.00361827 2.87406e-23)
(0.104309 -0.00425962 2.79925e-23)
(0.105662 0.000181327 0)
(0.106809 0.0040269 3.64113e-24)
(0.105635 0.00446975 -6.19662e-25)
(0.106245 0.00424078 2.83193e-23)
(0.107713 0.00359016 2.78316e-23)
(0.107279 0.00380739 -2.79762e-23)
(0.108553 0.00316939 5.07848e-26)
(0.108136 0.00337715 0)
(0.109324 0.00278317 0)
(0.108949 0.0029712 0)
(0.110013 0.00243709 0)
(0.109679 0.00260523 0)
(0.110624 0.00212944 0)
(0.110328 0.00227858 0)
(0.111163 0.00185809 4.61183e-26)
(0.110902 0.00198942 0)
(0.111638 0.00162 0)
(0.111408 0.00173511 0)
(0.112055 0.00141189 0)
(0.111853 0.00151242 0)
(0.112422 0.00123046 0)
(0.112245 0.00131805 0)
(0.112744 0.00107266 0)
(0.112588 0.00114881 0)
(0.113028 0.000935574 -4.06796e-26)
(0.112891 0.00100171 0)
(0.113277 0.000816531 3.32145e-29)
(0.113156 0.000873964 0)
(0.113496 0.000713099 0)
(0.11339 0.000763011 0)
(0.11369 0.000623175 7.51206e-26)
(0.113596 0.000666576 0)
(0.113861 0.000544933 0)
(0.113778 0.000582705 0)
(0.114011 0.000476775 0)
(0.113938 0.000509691 0)
(0.114145 0.000417315 0)
(0.11408 0.000446042 0)
(0.114263 0.000365363 0)
(0.114206 0.000390473 0)
(0.114367 0.000319884 0)
(0.114317 0.000341879 0)
(0.11446 0.00027997 6.3362e-26)
(0.114415 0.000299292 0)
(0.114543 0.000244453 -3.90594e-24)
(0.114503 0.000261818 0)
(0.114617 0.000212249 3.71548e-24)
(0.114581 0.000227873 0)
(0.114685 0.000184021 3.54706e-24)
(0.114652 0.000197751 -3.62609e-24)
(0.114697 0.00011243 7.0101e-24)
(0.114715 0.000171165 0)
(0.114706 0.00014271 1.04349e-23)
(0.114685 5.14774e-05 0)
(0.11469 8.19177e-05 0)
(0.11468 -1.07039e-05 0)
(0.114682 2.06084e-05 0)
(0.114682 -7.34067e-05 0)
(0.11468 -4.21416e-05 0)
(0.114691 -0.000134478 1.42646e-23)
(0.114686 -0.000103982 3.54508e-24)
(0.114706 -0.00019461 3.50851e-24)
(0.114698 -0.000164702 2.79603e-23)
(0.114653 -0.000249458 1.82168e-23)
(0.114716 -0.00022441 3.49351e-24)
(0.114685 -0.000236308 -7.09569e-24)
(0.114583 -0.000279087 3.74455e-24)
(0.114619 -0.000263763 -2.24468e-23)
(0.114504 -0.000312298 -1.98626e-29)
(0.114545 -0.000295194 0)
(0.114416 -0.000348996 0)
(0.114462 -0.000330067 0)
(0.114317 -0.000390742 -2.94101e-29)
(0.114368 -0.000369196 0)
(0.114206 -0.000438357 0)
(0.114263 -0.000413766 0)
(0.11408 -0.000492778 0)
(0.114145 -0.00046466 0)
(0.113937 -0.000555065 0)
(0.114011 -0.000522874 0)
(0.113775 -0.000626432 0)
(0.113859 -0.00058954 0)
(0.113592 -0.000708285 -1.52187e-25)
(0.113687 -0.00066596 0)
(0.113384 -0.00080227 0)
(0.113491 -0.000753659 0)
(0.113148 -0.000910296 0)
(0.11327 -0.000854411 0)
(0.112879 -0.00103454 0)
(0.113018 -0.000970255 0)
(0.112573 -0.0011775 0)
(0.112731 -0.00110353 0)
(0.112225 -0.00134192 -8.66606e-26)
(0.112404 -0.00125686 0)
(0.111828 -0.00153087 0)
(0.112033 -0.00143315 0)
(0.111376 -0.00174762 0)
(0.111609 -0.00163558 0)
(0.110861 -0.00199557 9.35332e-26)
(0.111127 -0.00186751 0)
(0.110276 -0.00227808 -1.35616e-28)
(0.110578 -0.00213232 0)
(0.109611 -0.00259837 1.96294e-25)
(0.109954 -0.00243334 0)
(0.108858 -0.00295924 0)
(0.109246 -0.00277361 0)
(0.108009 -0.00336261 0)
(0.108446 -0.00315552 0)
(0.107054 -0.00380828 -2.36019e-28)
(0.107545 -0.00358022 0)
(0.105988 -0.00429763 0)
(0.106535 -0.00404745 0)
(0.104802 -0.00485296 -4.26126e-23)
(0.10541 -0.004566 0)
(0.103625 -0.00453121 -5.97983e-25)
(0.104161 -0.00515919 7.26997e-23)
(0.105039 0.000852585 0)
(0.105031 0.00463253 1.6478e-22)
(0.104431 0.0015346 2.85004e-23)
(0.114697 0.000214713 -3.54038e-24)
(0.114726 0.000200756 0)
(0.114736 -0.000185572 3.41916e-24)
(0.114745 -0.000213032 -6.77824e-24)
(0.105026 -0.000507813 0)
(0.10445 -0.00125341 0)
(0.103942 0.00233296 0)
(0.103933 -0.002062 -1.40427e-23)
(0.103492 -0.00293379 -2.84406e-23)
(0.103144 -0.00385541 0)
(0.102904 -0.00481174 7.36169e-23)
(0.103488 -0.00546975 -5.86557e-23)
(0.104998 0.000171999 0)
(0.106077 0.00505078 -1.36259e-26)
(0.104355 0.00479271 5.22381e-23)
(0.104884 0.00552961 -1.86635e-22)
(0.105497 0.0052956 5.42054e-23)
(0.107162 0.00451514 -1.7557e-23)
(0.10663 0.00477366 -2.80781e-23)
(0.108062 0.00402638 0)
(0.107633 0.00426765 0)
(0.108861 0.00356263 -5.07801e-26)
(0.108468 0.00379087 0)
(0.109586 0.00313635 0)
(0.109233 0.00334439 0)
(0.110233 0.00275157 0)
(0.109919 0.00293875 0)
(0.110809 0.00240814 0)
(0.11053 0.0025748 0)
(0.111319 0.00210418 -4.61183e-26)
(0.111072 0.00225141 0)
(0.11177 0.00183682 0)
(0.111551 0.00196615 0)
(0.112167 0.00160269 0)
(0.111975 0.00171583 0)
(0.112517 0.00139833 0)
(0.112348 0.00149702 0)
(0.112826 0.00122035 0)
(0.112676 0.00130626 0)
(0.113097 0.00106556 4.06014e-26)
(0.112966 0.00114026 0)
(0.113337 0.000931013 3.7684e-29)
(0.113221 0.000995944 0)
(0.113548 0.000814021 0)