/*--------------------------------*- C++ -*----------------------------------*\
  =========                 |
  \\      /  F ield         | OpenFOAM: The Open Source CFD Toolbox
   \\    /   O peration     | Website:  https://openfoam.org
    \\  /    A nd           | Version:  10
     \\/     M anipulation  |
\*---------------------------------------------------------------------------*/
FoamFile
{
    format      ascii;
    class       surfaceScalarField;
    location    "30";
    object      phi;
}
// * * * * * * * * * * * * * * * * * * * * * * * * * * * * * * * * * * * * * //

dimensions      [0 3 -1 0 0 0 0];

internalField   nonuniform List<scalar> 
12623
(
0.380644
0.0912879
-0.148158
-0.323774
0.292536
-0.119048
0.207156
0.430152
-0.134574
-0.397005
0.101427
-0.106036
0.443095
0.0930925
-0.390862
0.0631361
-0.058953
0.386679
-0.379713
-0.117185
-0.0145551
0.17008
-0.194226
0.0387012
-0.2155
0.200945
0.138495
-0.017716
-0.120779
0.12726
0.0128207
-0.00158547
0.430995
-0.186962
-0.244034
-0.278017
0.223597
0.485416
-0.204985
-0.1479
0.150207
0.202679
0.0192326
0.0333028
-0.257521
-0.194629
0.0659614
0.105196
0.0383029
-0.12713
-0.0163685
0.0102804
-0.11311
0.208025
0.0128258
0.0357575
-0.0170429
-0.0449278
0.0207748
0.0411959
-0.0933361
0.00915074
0.0671424
-0.073615
-0.0646489
-0.0279675
-0.014212
-0.0107428
0.0529223
-0.00768247
-0.0588394
0.0385543
-0.0482267
0.0263322
-0.273041
0.0250787
0.281265
0.0403531
-0.30449
-0.00890443
-0.310805
0.0236019
0.312282
-0.207432
0.195114
-0.199445
0.211763
-0.202734
-0.19632
0.191621
-0.204381
0.207565
-0.185151
0.181966
-0.203227
0.19396
-0.480793
0.0497645
-0.0288583
0.459887
-0.0692981
-0.463903
0.0524082
0.436933
-0.491843
0.00617734
0.0174403
0.468226
-0.0145835
-0.486568
0.00930837
-0.507926
0.00740513
0.485938
-0.484562
0.0264007
0.424493
-0.0240684
-0.456577
0.0561517
0.00195919
0.0580882
0.364446
-0.466431
0.0058357
0.436527
-0.474982
0.0147281
0.182213
-0.17853
0.203883
-0.28227
0.156464
-0.154877
0.280683
-0.184125
-0.26599
0.167845
-0.145731
-0.368555
-0.332118
-0.110675
0.325607
-0.321385
-0.0517132
-0.297762
0.0426026
0.306873
0.227897
0.0317017
-0.311312
-0.242897
0.087877
0.382918
-0.0857706
0.362706
-0.301825
0.0248901
-0.296966
0.307728
0.0730425
-0.0800544
-0.300716
0.0644443
0.287436
-0.0441532
-0.0283141
0.0171384
0.314326
-0.30315
-0.32529
0.322564
-0.0255881
0.31821
-0.0362153
0.0408599
-0.322855
0.215734
-0.231052
0.0910697
-0.0757515
0.0224721
0.205713
-0.0124511
-0.249472
0.146523
-0.128103
-0.260109
0.182913
-0.172276
-0.271005
0.202911
-0.192015
-0.272867
0.212375
-0.210513
-0.2777
0.212192
-0.207359
-0.270796
0.205465
-0.212369
-0.264866
0.199357
-0.205287
0.187785
-0.250013
-0.202639
0.229372
-0.242333
0.0354329
-0.044031
0.19788
0.0518636
0.221596
-0.036255
-0.258461
0.107197
-0.269013
0.157075
-0.279415
0.193315
-0.284268
0.207765
-0.288571
0.216678
-0.282625
0.206247
-0.277888
0.200728
-0.262513
0.183982
-0.249589
0.174862
0.104954
0.215344
-0.0987016
0.197018
0.105816
0.170112
-0.233391
-0.186733
-0.226962
0.147484
0.15046
0.214156
-0.149273
0.194032
0.153447
0.138055
-0.209426
-0.16202
-0.207271
0.118364
0.181963
0.212035
-0.179842
0.173261
0.0890908
-0.192615
-0.105902
-0.187046
0.0688655
0.214231
-0.198516
-0.2097
0.224485
0.0220797
-0.0368351
-0.17786
0.0158295
-0.180795
0.239525
-0.240735
-0.178631
-0.230785
0.234356
-0.213271
-0.189776
0.250436
-0.259528
-0.0896098
-0.139572
0.270151
-0.280346
0.0456278
-0.0256317
0.289503
-0.294483
0.162055
0.116355
0.29872
-0.299463
0.208508
0.197552
0.29626
-0.288778
0.198765
0.213474
0.277159
-0.261446
0.168268
0.189109
0.240846
-0.226377
0.133016
0.154262
0.206888
-0.191426
0.0534039
0.0988749
-0.184204
0.00860741
-0.229121
0.239992
-0.172891
0.204643
-0.0494938
-0.191984
-0.13038
-0.259728
0.263349
-0.20626
-0.206469
-0.27813
0.265818
-0.200058
-0.220068
-0.271531
0.251774
-0.190757
-0.213071
-0.249671
0.226797
-0.149403
-0.189911
-0.218924
0.20117
-0.0579978
-0.12023
-0.196298
0.192207
0.0559542
-0.00757885
-0.191079
0.19939
0.145136
0.106944
-0.195369
0.183763
0.177282
0.189688
-0.196106
0.230903
0.216301
-0.185029
0.223279
0.0447166
-0.185432
-0.0434884
0.0426971
-0.178776
-0.220376
0.228183
-0.0573014
0.0456887
-0.0444713
-0.193202
-0.222371
0.0476837
-0.094719
0.103772
-0.194485
-0.197557
0.194484
-0.0404157
-0.0856908
-0.206585
0.220467
-0.22084
0.18234
0.238932
-0.264134
-0.188068
0.245503
-0.1916
0.209636
0.193044
-0.179634
0.271738
-0.28421
-0.166159
-0.182173
0.295528
-0.301851
-0.0832865
-0.128254
0.312341
-0.314397
0.0476836
-0.0151422
0.312896
-0.312798
0.161956
0.114854
0.308584
-0.305752
0.205676
0.193338
0.29626
-0.288412
0.190917
0.203982
0.274343
-0.261144
0.15507
0.17504
0.243779
-0.223999
0.113236
0.136896
0.206947
-0.198949
0.0454056
0.0818232
0.00414262
-0.237713
0.252477
-0.187655
-0.139909
-0.25864
0.266724
-0.214345
-0.212632
-0.255713
0.261839
-0.206183
-0.209056
-0.240849
0.243086
-0.192994
-0.192082
-0.219733
0.217597
-0.147267
-0.166558
-0.199535
0.198745
-0.0572074
-0.102168
-0.192902
0.193649
0.0552072
-0.00173613
-0.199123
0.205236
0.139023
0.101471
-0.212639
0.209159
0.187243
0.169879
0.182279
0.177566
-0.162724
0.216061
0.215337
0.163022
0.229178
-0.146696
0.223576
-0.139888
0.142946
-0.225428
-0.127289
-0.205801
0.114427
-0.189431
-0.212099
0.207324
-0.0356414
-0.21911
-0.0786796
0.138194
-0.123909
-0.22087
0.155017
-0.211308
-0.265126
0.263433
0.144639
0.220547
-0.203074
-0.242901
-0.268365
0.223785
0.175219
-0.165696
0.19436
0.200295
0.18456
-0.14062
0.148653
0.221144
0.232993
-0.238573
-0.141116
0.234024
-0.141651
-0.22738
0.19472
0.225703
-0.234248
0.189209
-0.192496
0.26716
-0.283621
-0.171607
-0.163013
0.301631
-0.322112
-0.145678
-0.164163
0.331373
-0.344181
-0.0704786
-0.118993
0.349014
-0.356748
0.0554179
-0.01031
0.351769
-0.350342
0.16053
0.109875
0.337956
-0.331682
0.199402
0.180951
0.314771
-0.304601
0.180748
0.187071
0.285237
-0.271164
0.140996
0.155676
0.248908
-0.231275
0.0956027
0.11464
0.216409
-0.209568
0.0385649
0.0669567
0.00189887
-0.266897
0.268381
-0.0587854
0.0442197
-0.271506
0.277382
-0.193532
-0.143035
-0.27365
0.277979
-0.218674
-0.2089
-0.267364
0.261082
-0.199901
-0.198441
-0.249779
0.237461
-0.180676
-0.180778
-0.224797
0.212931
-0.135401
-0.153894
-0.203176
0.197373
-0.0514044
-0.0924131
-0.195995
0.199534
0.0516682
-0.000357922
-0.208158
0.209127
0.138054
0.0928468
-0.220673
0.231635
0.176282
0.158333
0.179665
0.166298
-0.156543
0.206306
0.215939
0.215687
-0.231601
-0.111418
-0.189544
-0.219331
0.172435
-0.206849
-0.259411
0.267076
-0.27603
-0.248574
-0.253737
0.169675
-0.151819
-0.238726
0.191074
-0.232708
-0.120934
0.127353
0.214726
-0.11694
0.230029
0.172497
-0.162963
0.184826
0.171718
0.201074
0.239197
-0.237928
0.18794
0.192502
0.241415
0.258311
-0.265294
-0.134134
0.246023
-0.129362
-0.247617
-0.135803
0.168794
-0.15348
-0.262931
0.18927
-0.259202
0.217702
0.192561
-0.209605
0.285696
-0.312063
-0.14524
-0.14261
0.336426
-0.349952
-0.132152
-0.1398
0.368523
-0.37914
-0.0598615
-0.100422
0.386829
-0.388453
0.0570422
-0.00262092
0.385024
-0.375182
0.150688
0.106445
0.362307
-0.345605
0.1827
0.168076
0.328395
-0.309631
0.161984
0.169861
0.291577
-0.273363
0.122783
0.137622
0.25706
-0.242195
0.0807382
0.0983366
0.230806
-0.222631
0.03039
0.0555676
0.219766
-0.220682
-0.0347254
-0.000965992
0.229004
-0.245373
-0.0950489
-0.0703574
0.258296
-0.279621
-0.132155
-0.12288
-0.321039
0.319674
0.146003
0.316061
-0.309929
0.260944
0.218807
-0.31913
0.319731
-0.0593865
0.0447644
-0.313068
0.312192
-0.192656
-0.136372
-0.304256
0.296828
-0.211246
-0.200965
-0.286892
0.274034
-0.187043
-0.188504
-0.260029
0.245216
-0.165864
-0.166773
-0.232367
0.220564
-0.123598
-0.141045
-0.211827
0.206255
-0.0458327
-0.0836757
-0.205414
0.209077
0.048005
0.000483355
-0.214378
0.227182
0.12525
0.0875457
-0.231745
0.238037
0.16999
0.153771
0.179774
0.139691
-0.132513
0.199128
0.192667
0.210526
0.281373
-0.275003
-0.2824
-0.29913
0.270575
-0.161351
0.17905
-0.280631
-0.299384
-0.141588
-0.230463
-0.237443
0.211595
-0.22737
-0.106414
0.235498
0.178897
0.210523
0.258311
-0.25879
0.188418
0.262848
0.187965
-0.264539
-0.264202
0.211696
-0.255134
-0.265684
0.258343
-0.291789
-0.268596
-0.279488
0.2
-0.280152
-0.17425
0.196889
-0.30327
-0.153066
-0.320568
0.241565
0.192411
-0.228473
0.279704
-0.298143
-0.115694
-0.261689
0.249742
-0.0944667
-0.111348
0.318807
-0.342549
-0.121498
-0.121946
0.359669
-0.380148
-0.111673
-0.122681
0.39722
-0.41063
-0.046451
-0.0833505
0.417796
-0.417372
0.0566187
0.00454488
0.410667
-0.396705
0.136726
0.0997399
0.380005
-0.358923
0.161618
0.151377
0.338632
-0.317516
0.140869
0.14957
0.298995
-0.281481
0.105269
0.1191
0.266641
-0.253123
0.0672205
0.083496
0.242111
-0.23369
0.0219698
0.0445554
0.229847
-0.230544
-0.0340286
-0.00480952
0.240635
-0.249212
-0.0864718
-0.0602662
0.269264
-0.289378
-0.11204
-0.102828
0.311158
-0.335349
-0.128875
-0.119807
-0.34864
0.362818
0.246766
0.33006
-0.314007
0.24229
0.251994
-0.371007
0.377116
0.139894
0.210619
-0.374285
0.367862
-0.0529631
0.0475949
-0.357403
0.344914
-0.180167
-0.125912
-0.331342
0.317217
-0.197121
-0.187393
-0.303997
0.288622
-0.171669
-0.175283
-0.272597
0.255864
-0.14913
-0.150748
-0.242128
0.230673
-0.112142
-0.127309
-0.223092
0.218821
-0.0415625
-0.0760946
-0.218819
0.223044
0.04378
0.000485929
-0.231486
0.23701
0.119726
0.0791032
-0.247548
0.25614
0.161398
0.143233
0.177124
0.232941
-0.244359
-0.280371
-0.296532
0.215466
-0.161451
0.185089
-0.344205
-0.35822
-0.13858
0.236337
0.189269
0.152695
-0.14765
0.205478
0.234155
0.130565
-0.126804
0.181065
0.183989
0.114732
-0.103917
0.188313
0.180595
0.0959341
-0.0910842
0.209876
0.202543
0.0869641
-0.0821026
0.230636
0.225909
-0.07609
0.243729
-0.250206
-0.251775
0.231949
-0.247623
-0.261648
-0.27115
0.219751
-0.274885
-0.249071
-0.274776
0.211858
-0.295121
-0.204476
0.183926
-0.275981
-0.217179
-0.267668
0.20827
-0.326452
0.170965
-0.149494
-0.379691
0.194569
-0.367809
0.262294
-0.274964
-0.081797
0.254448
-0.0682444
-0.24673
0.292786
-0.313044
-0.0954352
-0.0935261
0.33654
-0.354931
-0.103108
-0.0984497
0.377971
-0.399606
-0.0900381
-0.0996407
0.417438
-0.431538
-0.0323512
-0.0655178
0.438217
-0.436652
0.0550534
0.0112236
0.427661
-0.411198
0.120262
0.0907498
0.391826
-0.368691
0.138483
0.132004
0.347498
-0.325748
0.119119
0.128377
0.307783
-0.290625
0.0881113
0.101135
0.276514
-0.263425
0.0541318
0.0693848
0.253234
-0.245996
0.0147315
0.0343645
0.242938
-0.244565
-0.032402
-0.00786733
0.251244
-0.263385
-0.0743306
-0.0535866
0.280616
-0.29678
-0.0958756
-0.0855979
0.311797
-0.332006
-0.108666
-0.104791
0.353684
-0.381791
-0.121387
-0.116902
-0.333012
0.359247
0.216056
0.307747
-0.288336
0.164515
0.190201
-0.383282
0.403447
0.226601
0.227959
-0.420441
0.420729
0.139607
0.193625
-0.420102
0.411239
-0.0440999
0.0482216
-0.396086
0.376525
-0.160606
-0.11076
-0.357264
0.338397
-0.178255
-0.168131
-0.322457
0.30555
-0.154762
-0.159343
-0.288269
0.269628
-0.130489
-0.133467
-0.25433
0.242345
-0.100158
-0.112011
-0.235312
0.232381
-0.0386317
-0.0690611
-0.233339
0.238356
0.0387627
-0.000471743
-0.2459
0.256414
0.109212
0.071559
-0.270557
0.272606
0.159349
0.129089
-0.275301
0.289074
0.174646
0.174429
-0.294411
0.31171
0.171971
0.182627
0.15817
0.0997841
-0.0941371
0.199831
-0.107311
0.27732
0.226628
0.0882907
-0.0811843
0.173958
0.178142
0.074129
-0.0713337
0.185518
0.173539
0.0643576
-0.0657783
0.211296
0.195567
0.0592794
-0.0589263
0.230283
0.21941
0.154262
-0.174946
-0.255297
-0.269438
0.135363
-0.150118
0.178373
-0.407946
-0.414207
-0.117702
0.0515753
-0.0432991
0.246172
0.236378
-0.252042
-0.261381
0.237384
-0.265255
-0.25009
-0.270132
0.22598
-0.289007
-0.230254
-0.261702
0.226449
-0.313299
-0.19346
-0.249155
0.218326
-0.350209
-0.12247
0.10275
-0.249717
-0.14394
-0.233826
0.203702
-0.393138
0.144614
-0.442832
-0.115989
0.173286
-0.436618
-0.25195
0.27935
0.0753499
0.0611816
-0.0825985
-0.2283
-0.227921
0.0371525
-0.102471
0.128357
-0.468717
-0.435054
0.406297
-0.0872318
-0.459467
-0.0780586
0.260459
-0.266863
-0.0368946
-0.0348085
0.0321686
0.248812
0.246902
-0.0212517
-0.261388
0.274317
-0.295503
-0.060611
-0.0607905
0.310609
-0.331995
-0.0740495
-0.0784198
0.348007
-0.368407
-0.0827071
-0.0824383
0.387249
-0.408198
-0.0690892
-0.0807988
0.425744
-0.439308
-0.0187869
-0.0479719
0.445485
-0.443513
0.0530809
0.0174004
0.434644
-0.417803
0.103421
0.0818809
0.398032
-0.374615
0.115067
0.112233
0.353551
-0.332183
0.0977509
0.107312
0.314464
-0.297082
0.0707291
0.083416
0.282901
-0.269705
0.0409357
0.0552039
0.259722
-0.252875
0.00788451
0.0243812
0.250598
-0.254102
-0.0288981
-0.0101446
0.262382
-0.275346
-0.0613669
-0.0453059
0.289229
-0.302615
-0.0824899
-0.0717151
0.31924
-0.337145
-0.0907616
-0.0881652
0.355173
-0.383396
-0.0931627
-0.098874
-0.0948018
-0.30317
0.326908
0.140778
0.111543
-0.351386
0.373172
0.194269
0.165723
-0.404339
0.422291
0.208648
0.196793
-0.442059
0.45303
0.128636
0.173857
-0.45327
0.442118
-0.0329475
0.047981
-0.423885
0.399927
-0.136648
-0.0925265
-0.376338
0.353029
-0.154946
-0.144543
-0.333879
0.316
-0.136883
-0.140193
-0.299356
0.281251
-0.112385
-0.116823
-0.265729
0.253575
-0.0880042
-0.0964894
-0.247119
0.245254
-0.0367661
-0.0626052
-0.247427
0.253624
0.0325657
-0.00264515
-0.262015
0.273581
0.0976458
0.0631686
-0.284976
0.297429
0.146896
0.117695
-0.31364
0.321943
0.166342
0.158218
-0.333724
0.350633
0.155062
0.170847
0.140248
0.0555225
-0.0457162
0.267513
0.322177
0.0438715
-0.04083
0.19679
0.224783
0.0378639
-0.0348058
0.1709
0.175176
0.0314507
-0.0283273
0.182395
0.170184
0.0258864
-0.0229624
0.208372
0.193126
0.0239296
-0.0281858
0.234539
0.220377
0.240361
-0.24606
-0.26541
0.237961
-0.277236
-0.238036
-0.26235
0.236592
-0.29915
-0.211412
-0.24375
0.237715
-0.332688
-0.165366
-0.227729
0.22652
-0.373027
-0.102275
-0.21415
0.196948
-0.4168
-0.01202
-0.000650637
-0.215251
-0.031116
-0.209204
0.146476
-0.454737
0.0718806
-0.478144
-0.0532031
0.0780674
-0.474904
-0.232893
0.233876
-0.00163385
-0.0317542
0.0320768
-0.215573
-0.243114
-0.0215328
-0.0175961
0.0141202
-0.474668
-0.453495
0.44048
-0.0401887
-0.458191
-0.0128996
-0.0169526
0.00847642
0.257288
-0.0245803
0.254529
0.270816
-0.280062
-0.0276484
0.271984
-0.0224194
-0.269488
0.290426
-0.306096
-0.0449407
-0.0504263
0.322839
-0.337802
-0.0590867
-0.0616769
0.354411
-0.370644
-0.0664747
-0.0658291
0.390535
-0.408032
-0.0515921
-0.0609076
0.42552
-0.436511
-0.00779611
-0.0304839
0.441984
-0.438689
0.0497855
0.0228739
0.429871
-0.4144
0.0879501
0.073063
0.396078
-0.374398
0.0933862
0.0939121
0.353791
-0.333113
0.0770732
0.0867053
0.315069
-0.298115
0.0537747
0.0653721
0.284491
-0.273508
0.0299527
0.0415807
0.266797
-0.264529
0.0056163
0.0176696
0.266727
-0.273872
-0.0217535
-0.00794578
0.283398
-0.294946
-0.0498183
-0.03578
0.306459
-0.319093
-0.0698559
-0.0602021
0.33296
-0.343327
-0.0803946
-0.0742983
0.361624
-0.376172
-0.0786148
-0.0805776
0.396296
-0.417253
-0.0662742
-0.0746779
-0.0548315
-0.249919
0.273029
0.0522404
0.0211092
-0.301447
0.327796
0.114428
0.0831246
-0.359493
0.389156
0.164606
0.134027
-0.415414
0.440953
0.183109
0.170535
-0.459355
0.470093
0.117897
0.155455
-0.470498
0.458491
-0.0209405
0.0475758
-0.438422
0.41206
-0.110287
-0.0724571
-0.385487
0.358834
-0.128292
-0.11797
-0.337219
0.318858
-0.118522
-0.118578
-0.303868
0.288796
-0.0973128
-0.101832
-0.274789
0.263244
-0.07646
-0.0824822
-0.256978
0.256013
-0.0358012
-0.0563386
-0.259502
0.267165
0.0249031
-0.00613416
-0.27698
0.289796
0.0848296
0.053353
-0.303169
0.318998
0.131067
0.104322
-0.334535
0.349559
0.151318
0.142681
-0.36893
0.375372
0.14862
0.151476
0.118615
0.0160676
0.00244841
0.368163
0.424143
-0.0113098
0.013045
0.265778
0.313315
-0.0142528
0.0142011
0.196842
0.223575
-0.0137616
0.0130589
0.171603
0.175616
-0.0124476
0.0117388
0.183104
0.170795
-0.0108773
0.0078907
0.211359
0.193987
-0.00216265
-0.00288287
0.239585
0.226106
0.245954
-0.24141
-0.262036
0.241686
-0.282331
-0.227168
-0.246593
0.245607
-0.307042
-0.18652
-0.222596
0.238353
-0.344521
-0.123407
-0.206597
0.210856
-0.386935
-0.0458077
-0.199458
0.156535
-0.42686
0.0265068
-0.203634
0.0778037
-0.454473
0.0517643
-0.0377221
-0.257156
0.0632684
-0.227077
-0.000915025
-0.459869
-0.0273725
0.0174005
-0.448219
-0.0543741
-0.447667
0.0400069
0.207396
-0.269211
0.278779
-0.28782
-0.0186083
-0.255308
0.180006
0.115309
0.0010518
0.305581
-0.31282
-0.0377019
-0.0326643
0.328909
-0.340207
-0.0477892
-0.0455881
0.353721
-0.368705
-0.0514913
-0.0523143
0.385866
-0.400906
-0.0365523
-0.0437465
0.414562
-0.423883
0.0015249
-0.0168275
0.427672
-0.425176
0.0472899
0.0266629
0.416412
-0.402617
0.0741547
0.0642989
0.384988
-0.365351
0.0737497
0.0762829
0.345277
-0.326207
0.0580028
0.0666315
0.309197
-0.29484
0.0394174
0.0483623
0.283943
-0.276674
0.022684
0.0306836
0.272904
-0.271827
0.00453939
0.0138995
0.272889
-0.274865
-0.0197775
-0.00688435
0.278076
-0.282936
-0.0449581
-0.0325688
0.290624
-0.300922
-0.0595575
-0.0525142
0.31368
-0.328523
-0.0655511
-0.061541
0.344972
-0.360544
-0.0630424
-0.0641289
0.374633
-0.392041
-0.0488662
-0.0605886
0.408866
-0.426063
-0.0229915
-0.0380072
0.431141
-0.425254
0.0115134
-0.00782133
-0.24819
0.245185
0.00137145
0.251305
-0.259914
-0.0291124
-0.0184187
-0.247925
0.265322
0.0348438
0.0183691
-0.29117
0.321203
0.0843959
0.0572761
-0.352094
0.384561
0.132139
0.103136
-0.4129
0.437753
0.158256
0.142196
-0.455318
0.466215
0.107001
0.13789
-0.467404
0.457248
-0.0107845
0.0463868
-0.438827
0.414517
-0.0859777
-0.0540361
-0.389886
0.364544
-0.10295
-0.0933389
-0.342461
0.323272
-0.0993328
-0.0964941
-0.308459
0.295051
-0.0839046
-0.0870196
-0.282673
0.271898
-0.0656848
-0.0701046
-0.265202
0.264355
-0.034954
-0.0496423
-0.268408
0.277131
0.0161801
-0.0101877
-0.288563
0.30248
0.0709126
0.0419207
-0.318075
0.334816
0.114326
0.0887279
-0.35498
0.369353
0.136945
0.122517
-0.387176
0.409889
0.125907
0.133653
-0.423176
0.43797
0.0866327
0.105328
0.0671597
-0.044787
0.0618466
0.351103
0.025517
0.441775
0.404873
-0.0697672
0.0701541
0.265391
0.305395
-0.0704525
0.068308
0.198986
0.223277
-0.0646967
0.0602729
0.176027
0.179227
-0.0558955
0.0517474
0.187252
0.175173
-0.047967
0.0415479
0.217778
0.197768
-0.0361018
0.0283895
0.247297
0.231552
-0.0120491
-0.00146854
0.270806
0.262295
0.0410962
0.346306
0.294157
-0.0528966
0.0669256
-0.271185
-0.264297
-0.0485142
0.049523
-0.0727183
-0.425024
-0.410218
0.0344863
-0.238355
-0.25085
0.245501
-0.282225
-0.470032
0.0378777
-0.208145
-0.224969
0.241813
-0.310503
0.338856
-0.270908
0.0473615
0.026017
-0.00398364
0.324273
0.0337526
0.331121
-0.144762
-0.201242
0.215301
-0.348965
-0.0627961
-0.189608
0.159184
-0.389583
0.0207553
-0.193706
0.0708379
-0.419894
0.0754802
-0.215846
-0.026789
-0.4286
0.0812863
-0.241438
-0.095783
-0.41846
0.0684547
-0.0604718
-0.27228
0.0837939
-0.286524
-0.112393
-0.407992
0.0677587
-0.0969797
-0.395803
0.0482513
-0.39071
-0.262064
0.290515
-0.29976
-0.00936326
0.0206583
0.308912
-0.317249
-0.0293654
-0.0235124
0.329344
-0.337866
-0.0392667
-0.0334928
0.3522
-0.364867
-0.0388239
-0.037981
0.377224
-0.389693
-0.0240834
-0.0313894
0.397999
-0.404581
0.00810663
-0.00852202
0.405235
-0.402531
0.0445862
0.0273172
0.394087
-0.382366
0.062434
0.0558549
0.367248
-0.350769
0.0572716
0.061164
0.33399
-0.31885
0.0428635
0.0498517
0.306208
-0.296809
0.0300186
0.0357198
0.290383
-0.286638
0.0189393
0.0242575
0.284692
-0.283805
0.00365178
0.0119536
0.284043
-0.285992
-0.0178282
-0.00664597
0.291013
-0.298702
-0.0372692
-0.0275476
0.308522
-0.319025
-0.0490548
-0.0426946
0.329521
-0.339963
-0.0551089
-0.0510449
0.350112
-0.359129
-0.0540258
-0.0539797
0.3719
-0.378857
-0.0419088
-0.0478175
0.386511
-0.390885
-0.0186178
-0.030353
0.395368
-0.396186
0.012331
-0.00333835
0.387314
-0.375387
0.0363247
0.0256142
-0.265936
0.264918
-0.0280949
0.275796
-0.287555
-0.0487129
-0.0386541
-0.259624
0.258198
0.00279749
-0.0131239
-0.26117
0.266684
0.02933
0.015397
-0.281689
0.304504
0.0615812
0.0422706
-0.330959
0.359913
0.103186
0.07668
-0.385708
0.410061
0.133903
0.116401
-0.430228
0.446204
0.0910243
0.117723
-0.451815
0.445723
-0.00469318
0.0407764
-0.430262
0.409057
-0.0647734
-0.0385744
-0.3878
0.366243
-0.0813935
-0.0720815
-0.346657
0.328317
-0.0809924
-0.0769084
-0.313898
0.301411
-0.0714174
-0.0726004
-0.290615
0.280317
-0.0553864
-0.0593091
-0.273247
0.27094
-0.0326468
-0.0425726
-0.274418
0.283027
0.00757122
-0.0136658
-0.295391
0.310355
0.0559495
0.0295562
-0.327376
0.345604
0.0960977
0.0717068
-0.366759
0.383729
0.119975
0.101361
-0.405514
0.415356
0.116064
0.111868
-0.42631
0.442426
0.070517
0.0943738
0.0395539
-0.0533245
0.0767009
0.418398
0.450053
-0.103277
0.109473
0.344907
0.378297
-0.115531
0.117889
0.263033
0.299336
-0.11678
0.112694
0.203071
0.224386
-0.106886
0.10029
0.182624
0.185035
-0.0938673
0.0876712
0.193448
0.181595
-0.0817917
0.0755817
0.223988
0.203647
-0.0690665
0.0602106
0.256153
0.238067
-0.0492948
0.0324471
0.287654
0.273211
0.322621
-0.0659448
0.0765341
-0.282869
-0.298852
-0.0546473
0.0544194
-0.0742532
-0.370876
-0.361312
0.0403449
-0.225013
-0.233981
0.236872
-0.277284
0.328784
-0.308216
0.0267937
0.329117
0.033419
-0.167543
-0.202187
0.211941
-0.307143
-0.0799514
-0.184086
0.155013
-0.344794
0.013752
-0.182605
0.0617098
-0.380455
0.0862653
-0.204492
-0.0517236
-0.39496
0.101327
-0.235887
-0.138503
-0.38588
0.0949977
-0.252642
-0.161638
-0.369215
0.0956372
-0.305628
-0.136812
-0.36816
0.0724939
-0.0620481
-0.309298
0.086694
-0.297069
-0.0998518
-0.370204
-0.305878
0.295441
-0.0516102
0.0616553
-0.311892
-0.0556415
0.0768221
-0.324465
0.0459305
0.428131
0.0566554
-0.071528
-0.356004
0.0403448
-0.345002
-0.250206
0.302449
-0.308669
-0.00314312
0.0148916
0.316005
-0.321527
-0.0238443
-0.0161764
0.329392
-0.33891
-0.0297491
-0.0256268
0.349435
-0.360821
-0.0274376
-0.0274564
0.370718
-0.379696
-0.0151047
-0.0214927
0.384563
-0.386306
0.00984904
-0.00365492
0.383638
-0.378104
0.0390524
0.0246496
0.369551
-0.35939
0.0522731
0.0473014
0.347932
-0.336379
0.045718
0.0497062
0.325355
-0.315889
0.0333974
0.0388281
0.308238
-0.302483
0.0242634
0.0280689
0.298021
-0.294454
0.0153719
0.019796
0.291527
-0.289484
0.00160933
0.00902636
0.289242
-0.290957
-0.0161134
-0.00688844
0.294875
-0.300528
-0.0316156
-0.0236297
0.307067
-0.314116
-0.0420064
-0.0361554
0.321528
-0.330057
-0.0465802
-0.0436325
0.339576
-0.350016
-0.0435855
-0.0444605
0.359549
-0.367731
-0.0337275
-0.0382843
0.373115
-0.375814
-0.015919
-0.0249691
0.374115
-0.368737
0.00695351
-0.0050371
0.360741
-0.353341
0.0289251
0.0176179
0.346333
-0.336857
0.030869
0.0333365
-0.287845
0.280538
-0.0414051
-0.0470523
-0.276367
0.271819
-0.0235469
-0.0344835
-0.270169
0.271008
0.00195863
-0.0114741
-0.272973
0.276278
0.0260257
0.0134318
-0.284423
0.296935
0.0490694
0.0341251
-0.313173
0.333616
0.0827433
0.0604417
-0.355596
0.38132
0.108179
0.0944208
-0.405347
0.424925
0.0714465
0.0936961
-0.432501
0.428515
-0.000707097
0.0332005
-0.415944
0.398642
-0.0474708
-0.0260038
-0.381422
0.364852
-0.0648236
-0.0548618
-0.349958
0.335172
-0.0662072
-0.0620139
-0.32212
0.31026
-0.0595573
-0.0595477
-0.300333
0.290504
-0.0455569
-0.0493828
-0.282837
0.278024
-0.0278333
-0.034906
-0.27915
0.285454
0.00126672
-0.0147921
-0.297239
0.312136
0.0410529
0.0177712
-0.329816
0.34874
0.0771742
0.0540266
-0.368264
0.389389
0.0988505
0.0818364
-0.408375
0.428291
0.0961486
0.0928822
-0.444373
0.456005
0.0588852
0.0782917
-0.451757
0.472533
0.0171025
0.0438013
0.012365
-0.0792843
0.106348
0.391335
0.4167
-0.125441
0.138343
0.332005
0.359204
-0.147237
0.150945
0.259325
0.290442
-0.149984
0.145591
0.207465
0.225347
-0.139663
0.133261
0.189026
0.190962
-0.126843
0.120135
0.200156
0.188013
-0.112964
0.104777
0.232175
0.210817
-0.0956253
0.0818545
0.269924
0.247219
-0.0740486
0.0593558
0.302346
0.281017
-0.0701976
0.0554621
0.339008
0.311779
-0.0286134
-0.0296703
0.387401
0.357969
-0.187349
-0.214176
0.20215
-0.267494
-0.0384346
0.0278647
-0.326287
-0.0532275
-0.330209
0.338328
-0.358404
-0.00959461
-0.0507813
0.212693
0.225489
0.301332
-0.0137849
-0.324783
0.329363
0.026289
-0.315527
0.0186094
-0.0984901
-0.183648
0.145202
-0.297332
0.00476827
-0.175103
0.0516825
-0.334767
0.0940762
-0.190416
-0.0675231
-0.364656
0.127926
-0.23109
-0.167154
-0.366308
0.111673
-0.252563
-0.209361
-0.338157
0.11131
-0.268314
-0.181479
-0.324548
0.100727
-0.319661
-0.124967
-0.343045
-0.0578314
-0.323648
0.0695875
-0.324092
0.314324
-0.0480637
0.0555387
-0.33294
-0.0466899
-0.337813
0.0697034
0.0927197
-0.312967
-0.0911746
-0.350558
-0.336276
0.0813986
0.0670201
-0.140575
0.286248
-0.463413
-0.00226002
-0.0171242
0.309634
-0.235404
0.334496
-0.324535
0.0168331
0.00951098
0.319868
-0.317804
-0.00520726
0.0102248
0.32265
-0.328817
-0.0176771
-0.0113305
0.335016
-0.342831
-0.0219337
-0.0194282
0.349467
-0.357206
-0.0196985
-0.0208205
0.363314
-0.36938
-0.00903835
-0.0153852
0.37225
-0.372794
0.0103931
-0.000785329
0.368925
-0.362262
0.0323891
0.020781
0.353412
-0.34409
0.0429512
0.038451
0.335138
-0.327306
0.0378858
0.0407543
0.320678
-0.315222
0.027941
0.0322006
0.310586
-0.306428
0.0201053
0.0234331
0.302632
-0.299075
0.0118145
0.0160004
0.296232
-0.294357
-0.000264823
0.00618325
0.294168
-0.295795
-0.0144858
-0.00707811
0.299069
-0.303822
-0.0268625
-0.0203557
0.309521
-0.316425
-0.035102
-0.0304569
0.323832
-0.331739
-0.0386729
-0.0362257
0.338913
-0.345641
-0.0368577
-0.0372871
0.351589
-0.357253
-0.0280641
-0.0323356
0.361524
-0.36375
-0.0136932
-0.0206975
0.363417
-0.358864
0.00240064
-0.00536986
0.350525
-0.339476
0.0178767
0.00927833
0.0232228
-0.307203
0.29992
-0.044328
-0.0485202
-0.294602
0.288663
-0.0354655
-0.0417344
-0.282794
0.279345
-0.020098
-0.0286145
-0.27723
0.278256
0.000933184
-0.00935932
-0.281144
0.285115
0.0220543
0.0105432
-0.290098
0.297352
0.0418161
0.0291422
-0.30732
0.322352
0.0677122
0.0504728
-0.341698
0.366465
0.0834125
0.0750741
-0.389469
0.40714
0.0537756
0.0706917
-0.41369
0.410659
0.00232384
0.0266509
-0.400422
0.385967
-0.0330158
-0.0157672
-0.371603
0.35789
-0.0511105
-0.0404976
-0.346394
0.335397
-0.0552102
-0.0505182
-0.325476
0.315889
-0.0499697
-0.0496269
-0.307937
0.299946
-0.0375654
-0.0414313
-0.293412
0.28736
-0.0217811
-0.028372
-0.28582
0.288313
-0.00122558
-0.0132529
-0.296857
0.309574
0.0283354
0.00922711
-0.325899
0.344534
0.0585391
0.037702
-0.363892
0.384442
0.0783005
0.0624781
-0.403617
0.421486
0.0782801
0.0737074
-0.435141
0.438331
0.055695
0.0646366
-0.446671
0.451924
0.0118493
0.0354617
0.000875379
-0.03437
0.0667079
0.395793
0.404116
-0.0992428
0.123714
0.366864
0.384165
-0.141461
0.15517
0.318297
0.341456
-0.164018
0.167823
0.25552
0.281595
-0.16753
0.164762
0.210232
0.225641
-0.160931
0.156233
0.193724
0.194793
-0.150992
0.144901
0.206247
0.193254
-0.138159
0.130259
0.240075
0.217559
-0.121123
0.109799
0.281248
0.256354
-0.0965036
0.0843032
0.314547
0.294312
-0.0759614
0.0805054
0.334464
0.320121
0.297899
-0.0731121
-0.336119
0.288231
-0.00402357
0.0280595
-0.0375647
-0.316782
-0.314863
0.0273951
-0.11718
-0.195486
0.132357
-0.254648
-0.00518248
-0.173698
0.0401147
-0.285764
0.0967942
-0.177821
-0.0772022
-0.325088
-0.0489449
-0.318829
0.154391
-0.216881
-0.182035
-0.349774
0.141113
-0.26053
-0.232871
-0.342798
0.126086
-0.267339
-0.219295
-0.300341
-0.0439771
-0.341804
0.0528408
-0.336249
0.327883
-0.0356105
0.03944
-0.343461
-0.0322285
-0.350656
0.0482919
0.121536
-0.289123
-0.155107
-0.294408
-0.351112
0.0661397
0.107701
-0.334642
-0.102823
-0.331396
-0.347979
0.0814067
0.0990928
-0.330661
-0.0850532
-0.338617
-0.0181544
-0.0101655
0.316551
0.268787
-0.43164
0.220941
0.0181159
0.0019819
0.344348
0.0260506
-0.0341031
-0.30873
-0.31346
0.0246481
-0.0543911
0.341294
-0.220227
0.327078
-0.344101
0.00742818
-0.311713
-0.00728172
0.314971
0.00158063
0.336864
-0.327345
0.00731326
0.00227425
0.322358
-0.321725
-0.00584026
0.0052385
0.323046
-0.327706
-0.0130164
-0.0100102
0.33227
-0.338181
-0.0160225
-0.0148648
0.343741
-0.349973
-0.0134666
-0.0152599
0.35549
-0.360209
-0.00431935
-0.00986829
0.362759
-0.362729
0.0103631
0.00176402
0.359506
-0.353316
0.0261991
0.0175581
0.345465
-0.337101
0.0345867
0.0306005
0.32962
-0.32341
0.0316757
0.0332739
0.318561
-0.314552
0.0239319
0.0273515
0.311038
-0.307594
0.0166615
0.0199186
0.304379
-0.301397
0.00883245
0.0127859
0.299221
-0.298114
-0.00137207
0.00400694
0.298366
-0.300066
-0.0127857
-0.00682602
0.302851
-0.306802
-0.0229122
-0.0175703
0.311284
-0.316485
-0.0299016
-0.0259742
0.321855
-0.327838
-0.0326896
-0.0308555
0.333882
-0.340137
-0.0306025
-0.0312435
0.345558
-0.349892
-0.0237307
-0.0269143
0.35255
-0.353688
-0.012555
-0.0180398
0.353125
-0.350751
2.64484e-05
-0.00593219
0.346724
-0.33928
0.0104323
0.00525113
0.330304
-0.320455
0.0164398
0.0142474
0.316887
-0.311691
0.0221991
0.0150411
0.0110544
-0.301672
-0.0228428
0.303388
-0.304596
0.0122622
0.0163449
-0.322047
0.31616
-0.0421771
-0.0408543
-0.310121
0.304285
-0.0384917
-0.0424805
-0.2982
0.291844
-0.02911
-0.0356497
-0.288266
0.285124
-0.016956
-0.0250362
-0.283878
0.284277
0.000533569
-0.00811289
-0.286492
0.290123
0.0184237
0.00832818
-0.294508
0.300718
0.0356059
0.0247575
-0.308957
0.321871
0.0547979
0.0422338
-0.338463
0.358926
0.0629494
0.0584828
-0.376856
0.389719
0.040912
0.0527617
-0.394461
0.392438
0.0043474
0.021909
-0.38631
0.376705
-0.0234109
-0.0096397
-0.366109
0.35381
-0.038811
-0.0299018
-0.342471
0.331285
-0.0440248
-0.0391788
-0.321946
0.313626
-0.0416502
-0.0402879
-0.307232
0.302021
-0.0323544
-0.035037
-0.297864
0.294212
-0.0181297
-0.0242145
-0.292049
0.292643
-0.00181896
-0.0110898
-0.297038
0.306388
0.0189858
0.00483123
-0.318969
0.335511
0.0419975
0.0251207
-0.353066
0.372202
0.0591636
0.0449236
-0.390169
0.406267
0.062182
0.0557407
-0.419528
0.428261
0.0469627
0.0513754
-0.433738
0.428943
0.0166448
0.029984
-0.426331
0.429203
-0.00513189
0.00348724
-0.0126457
-0.0500212
0.0810779
0.364736
0.356077
-0.103309
0.123025
0.347147
0.361934
-0.140092
0.154266
0.304123
0.32439
-0.164633
0.171211
0.248942
0.271227
-0.174335
0.175156
0.20941