/*--------------------------------*- C++ -*----------------------------------*\
  =========                 |
  \\      /  F ield         | OpenFOAM: The Open Source CFD Toolbox
   \\    /   O peration     | Website:  https://openfoam.org
    \\  /    A nd           | Version:  10
     \\/     M anipulation  |
\*---------------------------------------------------------------------------*/
FoamFile
{
    format      ascii;
    class       volVectorField;
    location    "30";
    object      U;
}
// * * * * * * * * * * * * * * * * * * * * * * * * * * * * * * * * * * * * * //

dimensions      [0 1 -1 0 0 0 0];

internalField   nonuniform List<vector> 
6397
(
(4.25787 -0.815048 2.08992e-19)
(4.05763 -0.48274 -1.02439e-18)
(5.38926 -1.34338 0)
(5.44051 -0.88123 1.79497e-20)
(4.80662 -0.489693 -1.16029e-19)
(4.87938 -1.058 -2.11035e-19)
(3.17599 -1.98872 -9.402e-19)
(1.53857 -3.02558 1.87349e-18)
(-0.178385 -1.41484 3.56143e-19)
(0.374421 -0.898177 -8.50482e-20)
(2.46232 3.15634 6.81679e-19)
(3.52603 3.83153 3.1789e-20)
(3.70593 0.11128 -3.80851e-20)
(3.68593 0.100847 -1.60568e-20)
(2.56019 0.113418 3.10254e-20)
(1.78732 1.30881 -4.91489e-18)
(2.3531 -0.781326 -2.29811e-18)
(0.122369 0.0424616 2.33177e-18)
(0.998136 0.300769 8.08272e-19)
(2.14384 -0.350743 -2.53709e-18)
(1.64073 0.0653403 -1.31895e-18)
(-1.43238 0.567064 -7.72598e-19)
(-0.999647 0.353685 4.1075e-20)
(1.05911 -0.101074 -4.7322e-19)
(4.05518 0.139259 0)
(4.32568 0.0824086 4.12368e-21)
(4.43421 0.135577 -2.70603e-22)
(2.89643 -2.58519 1.70488e-19)
(2.91445 -2.54236 -3.90078e-20)
(2.82827 -2.56638 8.14037e-20)
(2.83498 -2.58299 -1.17201e-19)
(5.72899 0.157835 -1.67003e-19)
(5.78688 -0.319713 -1.73873e-19)
(5.36578 -0.39776 6.9998e-19)
(5.71735 0.692989 1.49488e-20)
(5.88083 0.460854 0)
(5.84073 0.545021 5.01853e-20)
(5.9653 0.179018 1.11064e-19)
(5.18365 0.375399 6.19232e-20)
(5.05302 0.38704 -4.15889e-20)
(5.40658 0.635141 0)
(5.60815 0.46594 0)
(2.76688 -2.47123 -4.29233e-20)
(3.67599 -1.82701 -2.28108e-19)
(3.70236 -2.20897 1.98894e-19)
(4.88609 -1.5417 -4.25459e-19)
(4.24081 -1.18671 -2.47184e-19)
(4.29869 -1.69853 7.05094e-19)
(4.4983 0.219317 8.51003e-20)
(4.52391 0.118019 -1.30417e-20)
(4.45931 0.0737323 1.54388e-19)
(4.47095 0.0163104 -5.89682e-20)
(4.46063 0.056802 -4.17589e-19)
(4.41099 1.14257 -8.07016e-20)
(3.74313 0.626286 5.16038e-20)
(4.03912 0.0450138 8.3534e-20)
(4.05543 0.0613431 8.01469e-20)
(4.49875 -0.0950629 -1.56617e-19)
(2.87028 1.05658 -1.78175e-19)
(2.80256 0.204397 1.79324e-19)
(2.9728 1.77939 1.38712e-19)
(3.08286 2.29092 -1.36972e-19)
(3.19615 2.59663 -1.00193e-19)
(3.2713 2.72476 9.84753e-20)
(3.32608 2.73106 0)
(3.31002 2.68711 8.05962e-20)
(3.24523 2.61295 -8.4736e-20)
(3.09149 2.51255 0)
(3.11442 0.331666 -2.10928e-19)
(2.77943 -0.67166 2.72905e-21)
(3.08293 -0.610093 2.01675e-19)
(3.19035 1.22123 0)
(3.27476 1.94332 0)
(3.3644 2.45015 0)
(3.42716 2.72858 -4.76308e-22)
(3.4653 2.81241 4.54916e-23)
(3.46422 2.76644 0)
(3.41194 2.65271 -7.74171e-24)
(3.29621 2.51204 0)
(3.10773 2.34059 0)
(3.051 -1.41191 -1.88828e-19)
(2.78859 -1.43982 1.18918e-20)
(2.90108 2.31176 0)
(2.87583 2.08655 0)
(3.05231 -2.01793 3.10975e-20)
(2.83384 -2.00914 0)
(2.66284 1.94004 0)
(2.61218 1.68574 0)
(3.05528 -2.37675 2.72464e-19)
(2.85781 -2.35405 -2.52049e-20)
(2.47232 1.30896 0)
(2.41562 1.08267 0)
(3.07537 -2.53322 -1.74382e-19)
(3.04732 -2.52662 -7.90859e-20)
(2.3518 0.440746 0)
(2.28508 0.301335 1.22819e-20)
(3.36396 -2.29594 0)
(3.28506 -2.4242 1.44778e-19)
(3.3068 -2.4497 1.19759e-20)
(3.44473 -1.26463 -2.21707e-19)
(3.39201 -1.91711 0)
(3.57136 0.530654 -1.0906e-19)
(3.50222 -0.407553 2.2229e-19)
(3.66933 2.12599 8.84364e-20)
(3.63018 1.41909 8.69398e-20)
(3.72011 2.79855 4.7719e-22)
(3.70547 2.57885 -9.25813e-20)
(3.64145 2.71432 8.71525e-21)
(3.69468 2.82201 -4.50366e-20)
(3.38947 2.35119 -2.41291e-20)
(3.53628 2.54638 5.45284e-20)
(2.94149 1.85084 0)
(3.18379 2.13721 0)
(2.50003 0.893535 0)
(2.70497 1.4503 0)
(2.36345 0.215996 -1.82421e-20)
(2.84769 2.14881 -2.05522e-19)
(2.59115 0.571385 -1.34603e-19)
(2.6953 1.51491 2.02033e-19)
(3.17162 2.6317 1.28889e-19)
(3.02657 2.49694 -1.26004e-19)
(3.29473 2.68724 6.24648e-22)
(3.27124 2.66776 2.71013e-21)
(3.17573 2.62709 0)
(3.27357 2.68022 0)
(2.92015 2.08962 1.04647e-19)
(3.06469 2.43416 9.13926e-21)
(2.68594 0.856871 2.15451e-20)
(2.79724 1.54211 -1.04058e-19)
(2.64177 -0.7421 6.59827e-20)
(2.64213 0.0594685 -9.2519e-21)
(2.73194 -1.95272 -9.3441e-20)
(2.65377 -1.41943 -5.87976e-20)
(2.83081 -2.48701 0)
(2.76883 -2.29426 1.0804e-19)
(3.0536 -2.41455 -6.26913e-20)
(2.90766 -2.51316 -6.29469e-21)
(3.23291 -2.30304 2.3396e-20)
(2.33973 -0.556696 -3.0373e-20)
(2.26383 -0.571985 7.38531e-21)
(2.99889 0.678981 -2.67656e-21)
(2.57593 -0.558662 1.34857e-19)
(2.98962 -0.551311 0)
(2.44328 -1.30288 1.76329e-20)
(2.4998 -0.554449 -1.21083e-20)
(2.60137 -1.18566 1.20398e-20)
(2.85906 -2.59057 4.05904e-20)
(3.53584 -2.31519 -7.29646e-20)
(3.42057 -2.17816 -2.24424e-20)
(2.81124 -2.54562 4.21747e-20)
(2.33969 -0.556345 4.78697e-21)
(3.74088 -2.15641 0)
(3.62655 -2.31923 -2.28587e-20)
(3.95679 -1.12098 6.60288e-21)
(3.84522 -1.75949 0)
(4.11397 0.6119 -3.97431e-20)
(4.0362 -0.296127 7.66938e-20)
(4.13814 2.10652 0)
(4.1468 1.43556 1.25395e-20)
(4.03768 2.72384 0)
(4.09066 2.53177 4.87129e-21)
(3.84899 2.58042 0)
(3.94814 2.71832 5.2686e-21)
(3.54068 2.15316 -1.22184e-21)
(3.69442 2.38392 2.49398e-21)
(3.08988 1.59008 5.82462e-22)
(3.30864 1.90293 -1.23917e-21)
(2.63273 0.687241 1.48185e-22)
(2.83739 1.19135 -3.2164e-22)
(2.49488 0.099436 5.82561e-21)
(3.17818 2.36887 3.62946e-21)
(3.0685 1.70582 3.91805e-21)
(3.3619 2.73541 -1.16383e-22)
(3.27644 2.67142 0)
(3.34337 2.64348 0)
(3.38042 2.69908 -1.42302e-21)
(3.1364 2.46469 0)
(3.25827 2.58092 0)
(2.8408 1.90666 -4.95556e-23)
(3.00355 2.26268 -9.26868e-21)
(2.60009 0.75534 -1.25353e-20)
(2.72049 1.40569 0)
(2.56564 -0.689323 -3.59772e-20)
(2.56772 0.0357125 0)
(2.70692 -1.84671 2.56449e-21)
(2.6204 -1.3318 3.60645e-20)
(2.86209 -2.43298 5.33789e-23)
(2.79079 -2.19867 9.08116e-21)
(2.88257 -2.55811 -3.69358e-20)
(2.9493 -2.27456 1.64921e-20)
(2.83053 -2.3886 0)
(3.28684 -2.01361 1.44285e-21)
(3.10548 -2.14687 -5.01282e-21)
(3.05682 -1.75381 0)
(2.65835 -1.66687 0)
(2.37685 -1.44484 -1.4984e-20)
(2.70598 -0.490877 -1.01438e-22)
(2.77247 -1.04812 0)
(2.79119 -1.74449 -2.70738e-21)
(2.65393 -1.92358 -6.38874e-23)
(3.6286 -1.81317 0)
(3.17089 -2.70341 0)
(3.67766 -2.77611 -1.3033e-19)
(2.66878 -2.30291 3.68109e-20)
(2.71977 -2.4085 0)
(3.13051 -1.784 9.29575e-22)
(3.47639 -1.87657 4.95643e-23)
(3.30727 -1.64141 -3.61879e-20)
(2.99031 -2.60697 0)
(3.02632 -2.61625 -3.06473e-20)
(2.43905 -1.54432 0)
(3.81214 -2.15943 8.61524e-21)
(3.64255 -2.02786 0)
(4.16093 -2.01167 4.44494e-22)
(3.9626 -2.16371 5.5852e-21)
(4.49837 -0.985948 -1.34309e-20)
(4.31928 -1.61849 0)
(4.67795 0.704054 2.12384e-22)
(4.59295 -0.172176 -1.51964e-20)
(4.62884 2.12305 -1.59576e-22)
(4.66633 1.49542 -1.41731e-20)
(4.37342 2.65378 9.22975e-21)
(4.50664 2.4966 0)
(4.04757 2.43229 0)
(4.22048 2.6012 -9.40876e-21)
(3.6519 1.93574 -4.1018e-22)
(3.85422 2.19974 3.80197e-22)
(3.18966 1.33964 0)
(3.40692 1.65796 -2.86941e-23)
(2.79469 0.558821 7.9426e-22)
(2.94125 0.984679 -6.32211e-22)
(2.68476 0.0639185 -1.27068e-21)
(3.56944 0.740653 -3.90246e-20)
(3.58123 -0.564145 1.89315e-22)
(3.60809 2.44577 -1.32971e-20)
(3.58197 1.79153 5.8933e-20)
(3.63204 2.74633 5.52903e-21)
(3.62186 2.72253 -1.8998e-20)
(3.51184 2.55416 0)
(3.59561 2.65139 1.52163e-20)
(3.21886 2.34212 0)
(3.3706 2.47147 0)
(2.88696 1.76635 6.79239e-23)
(3.04837 2.12141 0)
(2.63462 0.679765 0)
(2.74276 1.2878 0)
(2.60218 -0.648211 0)
(2.58696 0.0242661 0)
(2.76312 -1.7451 8.72806e-21)
(2.66913 -1.25305 0)
(2.96721 -2.37372 -5.28816e-23)
(2.87956 -2.1199 -8.9241e-21)
(3.02264 -2.54069 3.61352e-20)
(2.84617 -2.06478 1.32682e-20)
(2.74136 -2.19619 -3.44282e-20)
(2.97052 -1.92355 1.35e-20)
(2.93374 -1.52887 -3.51207e-21)
(2.82506 -2.55163 0)
(2.59575 -2.15086 1.79498e-20)
(3.72495 -3.35961 1.38747e-19)
(3.321 -3.27917 0)
(3.02529 -2.14551 2.57918e-21)
(2.91438 -2.37681 1.19187e-20)
(3.03517 -1.51129 4.92001e-21)
(3.22205 -1.37826 4.25283e-21)
(2.5901 -2.0454 3.40673e-20)
(2.66414 -2.16251 6.41253e-20)
(3.27639 -2.61346 2.74193e-20)
(3.28691 -2.63438 0)
(3.69213 -1.70307 -8.05663e-22)
(3.5273 -1.48323 -2.05248e-20)
(3.15541 -1.87074 3.5231e-21)
(3.41433 -2.10123 -8.74459e-22)
(3.31405 -2.37898 -1.51899e-20)
(2.92816 -2.47521 5.27779e-21)
(2.64308 -2.35647 0)
(4.09799 -1.96027 2.45572e-22)
(3.87981 -1.85256 7.13406e-22)
(4.56625 -1.78674 -1.03915e-20)
(4.30447 -1.94836 2.21751e-20)
(4.99037 -0.817058 0)
(4.77199 -1.40296 0)
(5.19019 0.729974 -3.84834e-23)
(5.09884 -0.0678651 -1.22855e-26)
(5.05791 2.01921 1.58173e-22)
(5.13269 1.45714 0)
(4.67235 2.48412 0)
(4.86962 2.35454 -5.54521e-27)
(4.20103 2.22022 0)
(4.44329 2.40644 0)
(3.71999 1.69587 0)
(3.97048 1.96638 0)
(3.29109 1.12855 0)
(3.50392 1.41744 0)
(2.9844 0.441162 0)
(3.11015 0.815103 0)
(2.88827 -0.495522 2.15043e-21)
(2.89 -0.00545716 0)
(3.10108 -1.38263 0)
(2.94419 -0.979775 5.29926e-22)
(3.54831 -1.89565 0)
(3.3215 -1.6806 4.60868e-21)
(4.30553 -1.87304 -4.17559e-20)
(4.22397 -3.36757 -3.0505e-20)
(4.28777 -2.83878 4.19326e-20)
(4.26578 0.748165 1.57769e-20)
(4.29918 -0.580082 -1.89272e-22)
(4.13267 2.46067 -7.41499e-21)
(4.20169 1.80578 -2.26964e-20)
(3.96678 2.70696 -1.50398e-23)
(4.05189 2.71147 0)
(3.71062 2.42592 0)
(3.85128 2.57166 0)
(3.33457 2.16167 0)
(3.52427 2.30065 0)
(2.98927 1.61124 -2.53084e-23)
(3.14448 1.94545 0)
(2.75365 0.603146 0)
(2.84455 1.15882 0)
(2.72713 -0.621469 0)
(2.70173 -0.00169201 0)
(2.90927 -1.66889 5.1111e-22)
(2.79506 -1.18501 -5.31723e-22)
(3.13954 -2.30159 4.84716e-21)
(3.02768 -2.02591 -5.66509e-23)
(3.22563 -2.49442 -3.67011e-20)
(2.71298 -1.78113 -1.09541e-20)
(2.60992 -1.90707 -3.63396e-20)
(2.85941 -1.64107 0)
(3.74922 -3.57107 0)
(4.10964 -3.52683 2.56513e-20)
(3.65724 -2.29824 9.62349e-21)
(3.79728 -2.0579 0)
(3.03156 -3.10575 0)
(2.85673 -2.64145 0)
(3.40761 -1.24086 0)
(2.87807 -2.23017 -1.47548e-19)
(3.59674 -2.54234 1.98392e-20)
(3.65046 -2.57024 0)
(3.45109 -3.49909 4.8293e-21)
(3.20835 -2.64118 -1.44235e-20)
(3.98145 -3.40632 7.36971e-21)
(3.74686 -3.48234 -3.80946e-21)
(3.5893 -2.52506 1.61912e-20)
(3.90674 -2.48154 9.62658e-21)
(4.06456 -2.1854 0)
(3.28295 -2.5441 1.41628e-19)
(2.87889 -2.89818 0)
(3.89218 -1.49576 1.23572e-20)
(3.56354 -1.09687 2.58428e-20)
(3.74269 -1.3206 5.44774e-20)
(4.35599 -1.72637 -3.91112e-21)
(4.12587 -1.64548 -7.43177e-21)
(4.8998 -1.56075 0)
(4.62594 -1.72149 2.77159e-21)
(5.38521 -0.660379 7.01726e-27)
(5.15901 -1.20934 -7.29712e-27)
(5.58235 0.74727 -4.76198e-23)
(5.51675 0.0326172 0)
(5.37032 1.86644 0)
(5.49766 1.39701 0)
(4.88731 2.23428 -2.53387e-23)
(5.12635 2.15318 5.54471e-27)
(4.32462 1.96789 9.94225e-29)
(4.59175 2.15195 -1.03209e-28)
(3.81739 1.48011 0)
(4.06641 1.72773 0)
(3.417 0.961444 -4.87571e-23)
(3.62576 1.22265 0)
(3.12839 0.347607 5.24112e-23)
(3.27371 0.677076 0)
(3.03298 -0.429499 1.31881e-21)
(3.05964 -0.0273533 0)
(3.234 -1.14814 -1.18539e-20)
(3.10667 -0.81551 -2.64053e-21)
(3.64355 -1.60533 -9.39603e-21)
(3.4275 -1.41002 7.18319e-21)
(4.23284 -1.88404 -7.25475e-21)
(3.92465 -1.75573 9.37783e-21)
(4.75865 -3.31723 2.04632e-20)
(4.29206 -3.27264 -8.91707e-22)
(4.54518 -3.42835 -2.24376e-20)
(5.01734 -1.87009 6.5189e-20)
(4.91421 -2.81337 -3.84247e-20)
(4.96466 0.672884 -3.3346e-20)
(5.0308 -0.618967 -1.94826e-20)
(4.65235 2.31975 0)
(4.82839 1.70024 4.15197e-20)
(4.27236 2.54322 -1.77378e-22)
(4.45401 2.56187 -7.50821e-27)
(3.9201 2.23135 0)
(4.09349 2.39576 0)
(3.48795 1.96958 1.22962e-23)
(3.70472 2.09689 0)
(3.11721 1.4698 5.7601e-24)
(3.27593 1.77665 0)
(2.91319 0.54076 0)
(2.9826 1.05178 0)
(2.90827 -0.585286 0)
(2.87151 -0.019412 0)
(3.09294 -1.55953 0)
(2.97506 -1.11124 0)
(3.35799 -2.20557 0)
(3.22217 -1.93236 1.91584e-22)
(3.48291 -2.4113 -1.23118e-20)
(3.82099 -3.13205 -1.00364e-20)
(4.04352 -2.96071 0)
(4.37429 -2.33314 -3.36561e-22)
(4.56393 -2.01921 6.63105e-21)
(3.21535 -2.29034 0)
(3.7345 -2.46411 -3.64238e-20)
(2.76665 -1.82431 -7.59969e-20)
(3.14948 -1.87108 1.10208e-19)
(2.45162 -1.65411 2.19455e-20)
(2.52737 -1.77246 1.28552e-20)
(2.57724 -1.40957 2.04524e-21)
(2.48122 -1.52126 -1.89863e-20)
(2.8974 -1.17583 1.25824e-20)
(2.7289 -1.2874 1.82242e-21)
(3.28332 -0.95761 0)
(3.07664 -1.06526 -2.15637e-20)
(3.48684 -0.864278 -4.33057e-20)
(3.2234 -3.35347 -4.86806e-21)
(3.13107 -2.90493 -8.78625e-27)
(3.53798 -3.47218 3.82394e-21)
(3.50198 -2.76743 0)
(3.67628 -3.24109 0)
(3.82911 -2.70157 0)
(3.78144 -2.59372 -2.14029e-22)
(3.63883 -2.8043 5.48481e-23)
(4.17697 -2.66117 -1.82478e-20)
(4.87474 -2.14296 3.78652e-21)
(4.70351 -2.47347 3.02298e-20)
(3.72623 -0.938165 -3.11773e-20)
(3.67432 -0.770311 3.55819e-20)
(3.13164 -3.1674 -1.3835e-26)
(4.08785 -1.26377 -3.1723e-22)
(3.94901 -1.14552 1.27543e-20)
(4.56709 -1.44198 -1.10577e-22)
(4.3518 -1.40826 0)
(5.1389 -1.27294 1.45482e-27)
(4.86985 -1.44279 9.23867e-23)
(5.64881 -0.488812 0)
(5.42503 -0.978097 0)
(5.83408 0.726709 -1.24555e-22)
(5.79545 0.108281 0)
(5.57762 1.66887 0)
(5.74226 1.28606 0)
(5.0346 1.94017 2.62129e-23)
(5.30042 1.90963 0)
(4.44661 1.67455 -3.2714e-23)
(4.70983 1.86306 0)
(3.94554 1.24282 0)
(4.16988 1.47104 0)
(3.55502 0.774661 -8.94917e-24)
(3.74547 1.0163 0)
(3.27796 0.223984 8.89148e-24)
(3.41523 0.518199 0)
(3.19639 -0.456457 -6.36336e-23)
(3.22631 -0.0997053 3.73162e-27)
(3.37944 -1.0882 -1.09252e-23)
(3.27233 -0.800632 0)
(3.78875 -1.40224 1.55923e-21)
(3.58086 -1.2923 -7.1984e-21)
(4.25589 -1.53468 6.98088e-21)
(4.03561 -1.47239 1.8901e-20)
(4.79402 -1.75713 -1.26271e-20)
(4.50876 -1.63686 -8.40249e-21)
(4.56061 -2.99071 1.45709e-21)
(3.9123 -2.31614 1.65891e-22)
(4.22392 -2.67766 0)
(5.20736 -3.10684 -2.39726e-21)
(4.89386 -3.17619 3.57071e-21)
(5.6003 -1.83538 -4.74467e-21)
(5.44536 -2.68095 -7.29322e-22)
(5.57326 0.571795 1.15618e-22)
(5.65284 -0.652423 -2.6577e-21)
(5.1124 2.12883 0)
(5.37747 1.54721 0)
(4.57889 2.35685 7.6907e-23)
(4.83755 2.35755 -1.10983e-26)
(4.14981 2.04197 2.4383e-27)
(4.35518 2.22178 -2.58137e-27)
(3.6819 1.75056 1.6562e-23)
(3.92554 1.87974 0)
(3.26681 1.32778 0)
(3.44973 1.58746 0)
(3.07963 0.497263 -5.05405e-23)
(3.14154 0.959442 0)
(3.10726 -0.530793 0)
(3.05954 -0.00822184 0)
(3.3162 -1.44885 -4.41903e-23)
(3.18054 -1.01353 0)
(3.61237 -2.1025 3.5617e-23)
(3.43636 -1.80377 -1.37169e-22)
(3.95541 -2.44195 -2.52258e-20)
(3.73783 -2.3167 0)
(4.23388 -2.33418 -2.46885e-19)
(4.05584 -2.46578 1.36077e-19)
(4.29814 -2.07561 -2.50362e-20)
(2.61744 -1.25593 0)
(3.58291 -1.2761 -1.23162e-19)
(3.0112 -1.32367 1.14931e-20)
(2.29323 -1.11487 0)
(2.38143 -1.1973 0)
(2.4542 -0.933402 -1.42307e-21)
(2.33214 -1.02028 -2.31916e-27)
(2.83979 -0.784578 -4.57373e-21)
(2.63329 -0.856742 -1.48876e-21)
(3.21568 -0.64744 0)
(3.03923 -0.72052 1.87368e-20)
(3.50834 -2.22164 -4.94776e-24)
(3.63736 -1.94156 -1.4742e-21)
(5.20275 -2.23016 -2.70027e-20)
(5.18094 -1.83505 -1.02123e-20)
(3.51472 -0.489288 3.86301e-20)
(3.36803 -0.564937 -1.93618e-20)
(3.38172 -3.35489 -1.8995e-25)
(3.39227 -2.98979 0)
(3.57306 -3.28879 0)
(3.7339 -2.88016 -2.96778e-25)
(3.54321 -2.96772 -2.26754e-23)
(4.04002 -2.91168 -1.22365e-20)
(3.4136 -2.45998 1.56614e-23)
(4.47824 -2.7974 0)
(3.35646 -1.52521 -1.18049e-20)
(3.21937 -1.80527 6.20844e-23)
(5.05649 -2.57918 -4.13772e-20)
(5.60561 -1.77611 1.16407e-20)
(5.56068 -2.17349 4.84345e-21)
(3.45924 -1.19416 1.31861e-20)
(3.08617 -0.982511 1.18513e-20)
(3.11676 -0.649529 1.71378e-20)
(5.9929 -1.5493 2.98185e-20)
(5.49784 -1.30164 2.92669e-20)
(5.8412 -1.16915 2.10127e-21)
(3.66436 -0.413397 2.02832e-20)
(3.56998 -0.269972 0)
(3.70318 -0.253366 -2.39088e-20)
(3.35754 -3.22312 -1.22992e-26)
(3.88338 -0.775389 8.16616e-21)
(3.83226 -0.667577 3.8578e-20)
(4.24813 -1.05196 -1.17602e-20)
(4.11329 -0.977339 -8.0734e-21)
(4.71517 -1.19432 0)
(4.51179 -1.19437 0)
(5.25491 -1.01289 0)
(5.00571 -1.19489 0)
(5.7463 -0.315046 0)
(5.53762 -0.738658 0)
(5.91786 0.690756 0)
(5.89219 0.19477 0)
(5.66128 1.42421 4.40741e-27)
(5.83634 1.14494 -4.57893e-27)
(5.11288 1.6172 -8.74021e-25)
(5.39305 1.61902 7.66635e-29)
(4.53288 1.38329 3.27139e-23)
(4.79327 1.5616 0)
(4.04042 1.0173 0)
(4.2551 1.22427 0)
(3.64532 0.612178 -5.71886e-24)
(3.82375 0.829528 0)
(3.37065 0.147668 5.82474e-24)
(3.49333 0.391779 0)
(3.31058 -0.369355 6.36283e-23)
(3.31919 -0.1122 0)
(3.53427 -0.783873 1.33937e-22)
(3.40713 -0.604994 4.48235e-27)
(3.90816 -1.06278 6.88697e-21)
(3.73265 -0.939869 0)
(4.33024 -1.3169 -6.44835e-21)
(4.1254 -1.20103 -8.8466e-21)
(4.85078 -1.43151 2.16388e-20)
(4.5857 -1.41497 -1.26391e-20)
(5.17483 -1.38496 -2.5522e-20)
(4.11358 -2.01002 6.57435e-21)
(3.80077 -1.64106 -2.02699e-20)
(4.76053 -2.63402 4.25935e-24)
(4.41539 -2.34007 5.51093e-22)
(5.46566 -2.81353 -8.35245e-21)
(5.11775 -2.82393 9.12321e-21)
(5.9728 -1.71197 -7.14318e-23)
(5.7744 -2.46297 7.4057e-22)
(5.99106 0.448479 -1.15499e-22)
(6.0662 -0.650927 -5.11121e-26)
(5.4521 1.83754 0)
(5.76934 1.31575 0)
(4.80099 2.0815 -1.23537e-26)
(5.12517 2.05714 1.30763e-26)
(4.28569 1.82263 0)
(4.52585 1.98437 0)
(3.83275 1.51454 1.36489e-23)
(4.07082 1.65156 0)
(3.41025 1.17792 0)
(3.60754 1.3798 0)
(3.23754 0.466345 5.05408e-23)
(3.29683 0.869173 0)
(3.3024 -0.46062 0)
(3.24139 0.0092801 0)
(3.54249 -1.31368 -1.29496e-23)
(3.38584 -0.909008 1.42004e-26)
(3.87823 -1.94976 -3.46178e-23)
(3.66695 -1.65868 0)
(4.26444 -2.31905 0)
(4.02628 -2.18976 -1.25766e-24)
(4.65992 -2.22058 7.33602e-20)
(4.46933 -2.34438 5.9026e-23)
(4.85718 -1.92537 1.22187e-19)
(3.55733 -0.60595 -2.62121e-19)
(4.17465 -0.558377 1.42083e-19)
(2.57465 -0.549455 0)
(2.99832 -0.594489 0)
(2.21656 -0.476859 -3.04428e-24)
(2.32084 -0.514399 -7.56042e-27)
(2.37007 -0.392064 -5.5791e-25)
(2.24382 -0.436806 -2.18294e-27)
(2.75851 -0.331841 1.45169e-21)
(2.55103 -0.355683 3.14269e-27)
(3.17952 -0.297541 1.74905e-20)
(2.96392 -0.313158 -8.0898e-21)
(3.39418 -0.279932 3.92259e-22)
(3.48389 -3.24801 4.49642e-25)
(3.59641 -3.04158 -6.63215e-26)
(3.52913 -3.08555 0)
(3.88057 -3.04931 3.37489e-25)
(3.34344 -2.68484 3.49269e-23)
(4.28041 -3.06218 1.22592e-20)
(3.14816 -2.06229 -4.01983e-23)
(4.78258 -2.86571 3.39891e-21)
(2.94043 -1.26636 9.11144e-23)
(5.38524 -2.48507 0)
(2.84356 -0.0529335 -1.94305e-20)
(2.83013 -0.301752 0)
(5.91095 -1.8422 2.46333e-20)
(6.10618 -0.838904 3.9631e-21)
(6.20196 -1.02784 -2.90806e-20)
(3.00987 0.0715974 -3.19497e-22)
(2.76924 0.452026 -3.3073e-20)
(3.10471 0.372244 -3.27073e-22)
(6.1838 -0.263351 1.24255e-20)
(5.78312 -0.588726 4.5245e-20)
(5.9 -0.205296 5.75723e-20)
(3.48805 0.0714339 0)
(3.63143 0.049758 -8.03979e-20)
(3.79145 -0.315937 3.91431e-20)
(3.8255 -0.229933 -4.10316e-20)
(3.52056 -3.18286 8.06529e-26)
(4.00409 -0.587186 -1.80009e-20)
(3.96835 -0.577852 -1.8925e-20)
(4.33955 -0.804052 1.80877e-21)
(4.2502 -0.836152 -8.27437e-21)
(4.76255 -0.909712 -2.065e-23)
(4.60373 -1.00068 2.11866e-26)
(5.2706 -0.738786 0)
(5.04913 -0.951675 0)
(5.72028 -0.151267 0)
(5.53638 -0.527768 0)
(5.85322 0.667731 -7.87686e-26)
(5.8462 0.265108 0)
(5.59889 1.21867 0)
(5.77007 1.02705 0)
(5.0961 1.3239 0)
(5.36493 1.36085 0)
(4.53773 1.11075 0)
(4.80494 1.28536 0)
(4.04756 0.784017 0)
(4.27231 0.985805 0)
(3.67627 0.428762 6.34246e-23)
(3.8393 0.63086 0)
(3.49384 0.0514719 3.19017e-24)
(3.56063 0.25203 1.73167e-26)
(3.55415 -0.362566 0)
(3.5022 -0.152205 0)
(3.81255 -0.784912 2.28793e-24)
(3.68209 -0.589706 -4.48237e-27)
(4.12828 -1.0672 6.532e-23)
(3.98081 -0.970691 1.73551e-26)
(4.46869 -1.14328 7.67166e-21)
(4.30963 -1.13585 7.88627e-24)
(4.88262 -1.12801 -3.71547e-21)
(4.67303 -1.15949 -4.10498e-21)
(5.34672 -0.989554 -1.85726e-20)
(5.12807 -1.08257 1.36158e-20)
(5.57684 -0.841027 -4.86056e-20)
(3.4112 -0.801683 2.22954e-21)
(3.12183 -0.339542 -3.71264e-22)
(4.18795 -1.66879 -2.05814e-22)
(3.78941 -1.26045 0)
(4.93998 -2.29738 -4.19997e-24)
(4.57222 -2.00694 -5.58145e-22)
(5.66634 -2.49877 0)
(5.31576 -2.48097 0)
(6.18698 -1.57271 3.86649e-23)
(5.97797 -2.22001 0)
(6.20663 0.311148 0)
(6.28604 -0.653893 0)
(5.63467 1.54676 0)
(5.97051 1.07965 0)
(4.90593 1.7872 -1.01288e-23)
(5.26866 1.74874 0)
(4.32288 1.60742 0)
(4.58148 1.72989 0)
(3.9194 1.30817 -4.25078e-23)
(4.11088 1.45151 0)
(3.54392 1.02815 -6.39126e-23)
(3.71789 1.18397 0)
(3.37864 0.454097 -6.97829e-23)
(3.41881 0.791463 4.34472e-27)
(3.47793 -0.37052 -7.22778e-23)
(3.38686 0.0534304 -3.59399e-26)
(3.74844 -1.1563 -8.83285e-24)
(3.57238 -0.78938 0)
(4.10689 -1.75412 0)
(3.89829 -1.49736 0)
(4.53867 -2.12093 0)
(4.32167 -1.99706 1.25983e-24)
(5.01824 -2.02934 -5.36242e-20)
(4.82629 -2.1415 -5.79672e-23)
(5.28834 -1.71985 4.39093e-20)
(4.80235 0.163062 0)
(5.33566 0.181517 -2.90927e-19)
(3.51683 0.143743 1.38505e-19)
(4.16568 0.154369 4.09449e-20)
(2.54837 0.214318 1.15018e-23)
(2.96463 0.199174 2.60432e-26)
(2.21309 0.189692 5.99711e-24)
(2.3056 0.202486 1.50576e-26)
(2.35827 0.158986 -4.15469e-27)
(2.23849 0.171985 4.22444e-27)
(2.76636 0.139149 3.11384e-21)
(2.54356 0.152185 -3.47247e-27)
(3.17135 0.0883085 -1.74208e-20)
(2.98544 0.112038 -3.17293e-21)
(3.33266 0.0800279 -1.89903e-20)
(3.49758 -3.14603 0)
(3.70423 -3.14941 2.51438e-26)
(3.37769 -2.8957 0)
(4.00086 -3.19528 -2.51808e-24)
(3.0771 -2.32884 -3.96868e-23)
(4.47278 -3.08415 -3.67981e-23)
(2.8593 -1.50361 3.81414e-23)
(5.0517 -2.69844 1.94504e-22)
(2.70585 -0.544869 -1.58374e-22)
(5.64644 -2.00472 4.58841e-22)
(2.67012 0.413034 0)
(6.06591 -1.06132 3.8415e-20)
(3.31109 0.591442 -3.83458e-20)
(2.90129 0.761669 6.49732e-20)
(6.14857 -0.144154 -4.68867e-22)
(5.80775 0.282103 -6.1411e-20)
(5.92834 0.482925 -1.53567e-20)
(3.76019 0.0054248 2.65314e-21)
(3.57197 -3.17544 -1.79035e-25)
(3.97357 -0.217881 -3.9317e-20)
(3.88574 0.101328 2.48175e-19)
(3.8662 -0.192627 -1.53326e-19)
(4.17472 -0.480289 4.27991e-21)
(3.99846 -0.428326 3.64925e-20)
(4.44309 -0.701401 -1.80654e-21)
(4.23319 -0.622787 4.02338e-21)
(4.8044 -0.782467 -6.2359e-21)
(4.54826 -0.74716 5.48705e-21)
(5.22702 -0.581434 -3.65761e-23)
(4.96738 -0.669239 1.76403e-26)
(5.57414 -0.0544721 -2.65983e-23)
(5.3913 -0.288856 -1.09551e-26)
(5.6677 0.599202 2.36249e-23)
(5.64916 0.338495 0)
(5.42847 1.01577 0)
(5.58827 0.907746 0)
(4.95664 1.04582 -4.32678e-23)
(5.22114 1.11775 0)
(4.42667 0.840507 2.48322e-26)
(4.7003 0.999988 -2.57781e-26)
(3.97685 0.56929 2.98543e-26)
(4.19633 0.732465 -3.09817e-26)
(3.68866 0.315759 -3.26109e-26)
(3.81833 0.453482 3.38326e-26)
(3.58877 0.07587 -1.42496e-22)
(3.62783 0.199502 3.56914e-26)
(3.61375 -0.211508 7.45419e-23)
(3.60102 -0.0660779 3.69763e-26)
(3.69834 -0.524677 2.39696e-24)
(3.65409 -0.386745 0)
(3.90053 -0.749332 7.35084e-23)
(3.78509 -0.661268 3.65793e-26)
(4.23851 -0.914305 6.51762e-23)
(4.0567 -0.848794 0)
(4.66865 -0.944183 4.4661e-21)
(4.44764 -0.956455 0)
(5.10635 -0.800686 1.82101e-20)
(4.8855 -0.899652 -2.03924e-20)
(5.47408 -0.365399 0)
(5.30537 -0.611966 2.26571e-21)
(5.52772 0.193377 8.16759e-20)
(5.56039 -0.0875989 -7.88148e-20)
(3.23229 0.00673931 2.65659e-21)
(3.39115 0.438953 2.14484e-20)
(3.31448 0.214551 -2.07275e-20)
(3.3543 -0.512712 6.9155e-22)
(3.22134 -0.221178 8.16443e-23)
(4.00993 -1.23081 0)
(3.63304 -0.858872 0)
(4.86672 -1.85724 -2.70146e-23)
(4.43979 -1.56446 0)
(5.64016 -2.13412 0)
(5.28582 -2.06779 0)
(6.12389 -1.41916 3.27518e-23)
(5.92539 -1.94563 0)
(6.17058 0.181465 0)
(6.22182 -0.637769 0)
(5.65711 1.20757 0)
(5.95783 0.820083 0)
(4.98684 1.42594 -2.32214e-23)
(5.3139 1.37475 0)
(4.39361 1.36075 0)
(4.65507 1.41306 0)
(3.99894 1.12934 -5.43698e-26)
(4.15735 1.24925 5.75731e-26)
(3.66965 0.885459 6.38486e-23)
(3.80442 1.00432 6.80546e-26)
(3.49903 0.443371 1.44497e-22)
(3.51981 0.701448 6.98341e-26)
(3.61114 -0.26352 -4.11286e-24)
(3.48935 0.104937 0)
(3.90956 -0.987044 6.6045e-23)
(3.71153 -0.643487 -7.41944e-26)
(4.30264 -1.55467 5.45081e-26)
(4.08383 -1.2973 -5.78166e-26)
(4.77364 -1.89888 0)
(4.54587 -1.75192 0)
(5.31328 -1.8091 2.32342e-21)
(5.07417 -1.88687 -4.53968e-21)
(5.73472 -1.18571 0)
(5.57039 -1.52383 1.70563e-21)
(5.8114 -0.739609 0)
(4.67693 0.778209 0)
(5.60937 0.618481 4.70115e-21)
(5.21134 0.72068 7.90308e-20)
(3.4935 0.895845 -1.54576e-20)
(4.09318 0.868433 -3.12876e-20)
(2.60107 0.944869 -1.19545e-24)
(2.98589 0.94783 0)
(2.2731 0.834271 -2.96021e-24)
(2.36599 0.896777 0)
(2.40461 0.707014 0)
(2.29309 0.768727 0)
(2.78283 0.613424 -2.90498e-25)
(2.57438 0.657497 0)
(3.26406 0.469408 0)
(3.01993 0.553838 0)
(3.6438 0.317608 0)
(3.47764 0.381807 -9.11302e-21)
(3.86261 0.161576 0)
(3.7625 0.27524 1.93884e-20)
(3.5065 0.827374 7.37398e-20)
(3.45846 0.667537 0)
(5.51604 0.742939 4.54886e-21)
(5.34747 0.479347 6.38328e-21)
(3.3983 -3.0616 4.08855e-24)
(3.72976 -3.23932 0)
(6.0307 -0.216553 0)
(3.11523 -2.61484 6.22736e-24)
(4.07933 -3.17824 1.78044e-24)
(3.96274 0.0169877 5.69156e-20)
(3.90806 0.338698 0)
(3.95197 0.257303 0)
(2.79163 -1.7775 2.2833e-23)
(4.61188 -2.816 6.83474e-23)
(2.59596 -0.729481 0)
(5.21634 -2.07264 -4.27677e-22)
(2.55084 0.306875 0)
(5.71241 -0.950013 0)
(2.70981 0.95505 0)
(5.87167 0.169644 -2.16975e-20)
(3.13126 0.944607 -2.47783e-21)
(5.70733 0.960177 -1.69341e-22)
(3.56839 0.832062 0)
(3.69054 1.03764 -3.71139e-20)
(5.41254 1.15957 -4.11208e-20)
(5.12134 1.00351 1.08914e-19)
(5.07629 0.677307 -1.11566e-19)
(3.51414 -3.19454 1.24517e-25)
(4.05177 -0.220458 1.91178e-20)
(3.97298 -0.0715379 0)
(4.20037 -0.425684 -3.96783e-21)
(4.09665 -0.316915 -8.65286e-21)
(4.41933 -0.568015 0)
(4.27936 -0.514115 4.17552e-21)
(4.74252 -0.568154 0)
(4.55558 -0.593367 8.71394e-22)
(5.08329 -0.368149 3.65595e-23)
(4.90525 -0.499373 0)
(5.324 0.0804967 6.57718e-23)
(5.217 -0.168152 0)
(5.3577 0.58518 1.46244e-23)
(5.37153 0.357066 0)
(5.14182 0.846984 -4.10831e-23)
(5.28635 0.773804 -3.5917e-26)
(4.73996 0.802204 4.32242e-23)
(4.97245 0.876511 4.46964e-26)
(4.29766 0.608526 -5.82705e-23)
(4.53347 0.73393 5.23066e-26)
(3.96751 0.414156 -6.15628e-26)
(4.13014 0.522666 5.9965e-26)
(3.803 0.248816 -6.92307e-23)
(3.87792 0.340712 6.90399e-26)
(3.75304 0.0383475 1.44858e-22)
(3.77669 0.160162 0)
(3.75853 -0.276182 5.24551e-25)
(3.75105 -0.107996 7.61006e-26)
(3.88889 -0.582295 -1.5105e-22)
(3.80449 -0.445652 0)
(4.14848 -0.72656 -7.34696e-23)
(4.00922 -0.680402 -7.66928e-26)
(4.42978 -0.746996 0)
(4.28822 -0.74677 0)
(4.69731 -0.724374 8.88089e-21)
(4.56296 -0.745814 -9.29871e-21)
(4.97827 -0.576873 0)
(4.83306 -0.670935 -4.52862e-27)
(5.18859 -0.299731 3.19676e-21)
(5.1035 -0.453073 -4.72852e-21)
(5.19389 0.139621 4.5979e-20)
(5.21902 -0.0944067 -4.58905e-20)
(4.92807 0.472149 0)
(5.09661 0.34803 -6.35685e-21)
(3.50876 0.410669 1.12477e-20)
(3.74043 0.707118 -1.21227e-21)
(3.60215 0.586681 -2.08513e-20)
(3.44063 -0.0156656 2.29991e-20)
(3.46529 0.192502 -1.1082e-20)
(3.4649 -0.382868 1.10062e-20)
(3.43072 -0.201558 -3.45143e-20)
(3.84547 -0.858375 -4.09881e-23)
(3.59854 -0.592927 3.55527e-22)
(4.56503 -1.42499 2.7014e-23)
(4.18771 -1.13758 0)
(5.27041 -1.80611 9.30742e-26)
(4.9404 -1.673 -9.83784e-26)
(5.81849 -1.24118 -5.83474e-26)
(5.56295 -1.68676 6.16895e-26)
(5.98923 0.0942436 -1.48253e-23)
(5.98036 -0.579713 0)
(5.56577 0.935213 3.83359e-26)
(5.82189 0.606518 -4.05667e-26)
(4.99015 1.14482 3.32752e-23)
(5.26134 1.08728 8.02129e-26)
(4.4642 1.12753 0)
(4.69879 1.14062 0)
(4.07861 0.97577 6.98932e-23)
(4.22184 1.06 -4.28835e-27)
(3.78858 0.760396 -1.40468e-25)
(3.89562 0.857537 1.48779e-25)
(3.5989 0.432185 3.30138e-24)
(3.62715 0.616142 0)
(3.68666 -0.146432 7.6425e-23)
(3.56903 0.163302 0)
(4.00146 -0.799988 -7.45998e-23)
(3.79912 -0.476973 0)
(4.43169 -1.32848 1.23107e-25)
(4.20396 -1.07203 -1.30532e-25)
(4.93387 -1.63864 0)
(4.69315 -1.48484 0)
(5.47693 -1.57321 -5.98255e-21)
(5.2315 -1.62059 -8.38337e-22)
(5.9131 -1.01019 2.81293e-20)
(5.73858 -1.31327 -1.97788e-20)
(6.02779 -0.588318 0)
(5.47637 1.05784 1.56727e-20)
(5.68065 0.869323 -1.71419e-20)
(4.61076 1.35918 0)
(5.11124 1.23096 -1.53893e-20)
(3.4621 1.54266 5.24404e-23)
(4.04665 1.50072 0)
(2.62229 1.5379 -1.02509e-23)
(2.97226 1.56518 -8.23453e-26)
(2.3371 1.36935 0)
(2.41552 1.46273 0)
(2.47902 1.19534 0)
(2.36281 1.28149 0)
(2.87629 1.04524 2.88816e-25)
(2.6601 1.11689 0)
(3.28623 0.879795 0)
(3.09052 0.969225 0)
(3.65476 0.644978 -1.82644e-20)
(3.47554 0.765029 8.8035e-21)
(3.8047 0.521297 -1.89758e-22)
(3.71779 0.976034 0)
(3.89487 0.79269 1.44411e-20)
(4.82431 0.746804 8.35559e-20)
(4.7358 0.520482 -1.08737e-19)
(3.20454 -2.86274 -2.88943e-25)
(3.69526 -3.16342 1.16808e-24)
(4.06536 0.100748 -9.0348e-20)
(4.00398 0.114245 5.59337e-20)
(2.81701 -2.07782 -8.65079e-23)
(4.11428 -2.82269 0)
(2.53084 -0.952188 -1.49574e-22)
(4.65552 -2.06335 -2.11977e-22)
(2.4224 0.229919 0)
(5.20034 -0.826761 0)
(2.56245 1.08571 5.84283e-22)
(5.4804 0.558248 -1.66513e-21)
(2.96161 1.20335 0)
(5.32226 1.55511 -1.60933e-20)
(3.28894 1.16558 -2.71869e-20)
(4.99114 1.81872 0)
(3.94146 1.16072 2.37617e-20)
(4.82225 1.48362 3.64634e-20)
(4.05716 0.842923 -3.2488e-20)
(3.87119 1.10154 2.82285e-20)
(4.7853 1.03688 -8.05657e-20)
(4.03224 0.786228 -9.75961e-21)
(4.1567 0.833235 -8.28916e-21)
(4.22537 0.882079 4.01125e-20)
(5.49182 0.898906 2.73956e-21)
(4.62034 0.70185 1.65889e-21)
(4.56315 0.502746 2.43312e-19)
(3.38068 -3.05559 0)
(4.13329 -0.134012 -8.19771e-21)
(4.00832 -0.0810211 3.07044e-20)
(4.23759 -0.324786 0)
(4.10522 -0.247578 0)
(4.43143 -0.425956 0)
(4.27344 -0.372032 0)
(4.70592 -0.411998 0)
(4.53595 -0.408711 0)
(4.97598 -0.245361 5.05545e-23)
(4.83579 -0.332623 3.3428e-27)
(5.11351 0.118708 -3.92517e-23)
(5.06414 -0.0686607 9.18787e-26)
(5.04787 0.52998 -3.82563e-23)
(5.10327 0.352156 8.85797e-26)
(4.82367 0.714247 4.103e-23)
(4.95195 0.67762 9.09157e-26)
(4.5185 0.628954 0)
(4.68378 0.712549 -3.18204e-27)
(4.22576 0.460462 5.82155e-23)
(4.37756 0.559883 3.41718e-27)
(4.02686 0.333222 0)
(4.12481 0.40234 3.92497e-27)
(3.91352 0.219131 1.04236e-25)
(3.96968 0.286093 0)
(3.83813 0.0408228 -1.45138e-22)
(3.87199 0.142118 0)
(3.83009 -0.195987 -7.53206e-23)
(3.81772 -0.0752442 1.50279e-25)
(3.93467 -0.405097 1.51672e-22)