/*--------------------------------*- C++ -*----------------------------------*\
  =========                 |
  \\      /  F ield         | OpenFOAM: The Open Source CFD Toolbox
   \\    /   O peration     | Website:  https://openfoam.org
    \\  /    A nd           | Version:  10
     \\/     M anipulation  |
\*---------------------------------------------------------------------------*/
FoamFile
{
    format      ascii;
    class       surfaceScalarField;
    location    "2";
    object      phi;
}
// * * * * * * * * * * * * * * * * * * * * * * * * * * * * * * * * * * * * * //

dimensions      [0 3 -1 0 0 0 0];

internalField   nonuniform List<scalar> 
57492
(
-0.00756735
-4.84335e-05
0.00161448
0.0060013
0.00614198
-0.0057765
-0.00793284
-0.000844651
0.00258207
0.00879001
-0.0105274
0.0386515
0.0295999
-0.00604223
-0.0622092
-0.083081
0.0348009
0.0869316
0.0295694
-0.0287325
-0.015352
0.0145151
-0.0526713
0.0139265
-0.00721989
0.0459647
0.00908505
-0.0321869
0.0113648
-0.0412436
0.0392858
-0.00940703
0.0100034
0.0378099
-0.0364485
0.0133502
0.00202115
-0.00343823
-0.0119331
-0.00558342
0.00251673
0.0164169
-0.0123845
0.00936239
-0.00256132
0.00119329
-0.0115566
0.0401314
-0.0353825
-0.0142483
0.00949939
0.00184225
0.0305408
0.0077483
-0.0013673
0.00584117
0.0347409
-0.0392148
-0.00534989
0.034257
-0.0302744
0.00416988
-0.00873536
0.00456547
-0.0342926
0.0242354
0.0142272
-0.0467034
0.00550229
0.0341958
0.00700531
0.00838862
-0.047333
-0.00775899
-0.00132714
0.00316225
-0.00347229
0.00163718
0.00285063
-0.0044431
0.000265338
-0.0415195
0.0443274
0.00402066
-0.00682856
-0.0599302
0.0298363
-0.0114256
-0.0242172
0.0101695
0.0115298
0.00251795
-0.0168491
-0.00811354
0.000745433
-0.00847349
-0.0246661
0.02957
0.00356965
-0.010009
0.00311828
-0.0015828
0.0327439
-0.0206931
-0.0202259
0.00817508
-0.0250762
0.0204098
0.0374103
-0.0317607
-0.0611966
0.035657
0.0573004
-0.0559979
-0.0159986
0.0402357
-0.0189754
-0.00297472
0.0219501
-0.00610809
-0.0128673
-0.0285772
0.0363996
-0.0139305
0.004948
-0.0179454
-0.0155798
-0.0280372
0.0419637
-0.00791933
-0.0378512
0.0203475
0.0175037
-0.0731603
0.0353091
0.0439935
-0.00510716
0.00101396
-0.0399003
0.0323378
-0.00301717
0.0146728
-0.00419414
0.042954
-0.043867
0.0471428
0.0075453
-0.0456031
0.0451057
-0.00518272
0.0461332
-0.0170057
-0.0330812
0.00395376
0.0525452
0.00113329
0.0373629
-0.0193448
0.0270875
0.0155206
0.067807
-0.041385
-0.00497978
0.00430479
0.0420599
-0.0427502
-0.00201702
0.00338226
0.00758656
0.0402154
-0.0396322
-0.00816977
0.00465754
-0.0383146
-0.0333024
0.0466049
0.0429116
-0.0562141
0.00167577
0.0519643
-0.0869425
0.00331999
0.00567002
-0.000868292
-0.00812172
0.00478356
0.00789883
-0.00372033
0.00178051
0.00672338
0.00283488
-0.000885196
-0.00282689
0.0019586
-8.01932e-05
-0.0027467
0.101709
0.0404455
-0.0695359
-0.0726183
0.0329682
-0.0206235
0.0893641
-0.0883642
0.0321068
0.0892257
0.0181404
-0.0660591
0.0118431
-0.0311734
0.0247577
-0.00542741
0.0268697
-0.0314956
0.016469
0.00144809
-0.00165835
0.000161826
0.00245008
0.000612499
0.00683521
0.00161617
-0.034319
0.0623885
0.0284181
-0.0564877
0.0384808
-0.0459301
0.0227243
0.0572888
-0.0176246
0.142089
-0.0176495
-0.0354407
-0.0889983
0.0313417
0.0785433
0.0322036
0.0181552
-0.0568922
0.0700787
0.00160302
-0.00244767
0.00418509
0.0180731
0.0336249
-0.014099
-0.0375989
0.0243423
0.00252083
0.00351934
-0.00158863
-0.0019307
0.00350701
1.23261e-05
-0.0811017
0.0371791
-0.0286833
0.0726059
-0.0693855
-0.0376548
0.0259385
-0.0376896
0.0348314
-0.0665273
0.0399145
-0.000615812
-0.019773
-0.0195257
-0.0158756
0.044869
0.0109211
-0.0196293
-0.00196402
0.00571768
-0.0177941
-0.00245098
-0.0065571
-0.03101
0.0127021
0.00819395
-0.000185122
-0.020711
0.0107268
0.00973322
-0.00775793
-0.0206706
-0.00457703
0.0359744
-0.0146203
0.00214371
-0.0183457
0.00354022
-0.0165101
0.00995298
0.00222409
-0.0187342
0.00349896
8.05306e-06
0.0464944
0.0310453
-0.00327264
0.0174233
-0.0540099
-0.00316489
0.0359333
-0.0265598
-0.0062086
-0.00496773
0.0414223
-0.0396194
0.0302088
0.018551
-0.00602363
-0.0427362
-0.00867192
0.0033795
0.0355012
0.0391159
-0.0292368
-0.0136407
-0.0289363
0.0085916
0.0339854
-0.0139076
0.0336362
-0.0333694
0.000997513
-0.0438414
-0.0107632
-0.00947064
-9.93117e-05
0.00315197
-0.000163464
0.00315348
-0.00947841
0.00546406
0.00716632
-0.0123186
-0.00293634
-0.0048453
0.00824399
0.00195302
-0.00535171
0.0184474
-0.0177485
-0.00554422
-0.00844313
0.0195599
0.00733067
-0.00357214
0.003373
-0.0665733
0.0347191
0.0690334
0.0709241
-0.0269559
-0.081623
-0.033135
0.0374858
-0.00234555
-0.0191275
-0.00319306
-0.0125834
0.000228896
0.000684877
-0.00414203
0.001868
0.00158915
-0.00363671
0.00298709
0.00133449
-0.00670192
-0.00107682
-0.00581096
-0.00809681
0.00132435
-0.0164654
-0.00847312
-0.0218786
-0.0242113
0.0289653
0.0171245
0.00129967
0.00999065
-0.0331689
-0.0327263
0.00981464
-0.0514347
0.0198107
-0.00266864
-0.051942
0.00591884
-0.00541158
0.0022183
-0.036871
0.0325662
0.00208647
0.0019351
-0.034076
0.0343592
0.00241736
-0.112449
-0.0294296
0.0371996
0.0372418
-0.0468607
0.0392123
-0.00578742
0.0109609
-0.015538
0.0109801
-1.91595e-05
0.00714135
-0.00138731
0.0470916
-0.0288536
-0.0224413
0.0042033
0.041082
0.00181546
0.0617688
0.00379272
-0.0638858
0.0213443
0.0473728
-0.00694827
0.00764974
-0.0344958
0.0481904
0.000633555
0.0103465
0.0132791
-0.0420651
-0.0439362
0.0264201
0.0532803
0.0312327
-0.00141429
-0.032863
0.00304451
0.00988799
-0.00373143
-0.0377786
0.00706417
0.0511242
0.00524932
-0.0331399
-0.00321597
0.000363206
0.00696626
-0.00670095
-0.000984772
0.000719454
-0.00204625
-7.40895e-05
0.0090866
-0.00256848
0.015958
-0.0154358
-0.0191073
0.0341527
-0.0115465
0.0676999
-0.063898
-0.0229091
-0.000808229
-0.0435289
0.0514013
-0.0790603
-0.00149337
-0.0574524
-0.0308935
0.00928554
0.0327232
0.0255114
-0.0527322
0.0198588
0.0485497
-0.0356854
0.0185681
-0.0325908
0.0190215
-0.00499877
0.0201849
-0.0316194
0.0300026
0.0456571
0.01405
0.0436915
-0.00136199
-0.0435583
0.00122875
0.0482492
-0.00509307
0.000535416
0.0496284
-0.00647758
-0.000864197
-0.0422866
0.0354996
-0.0108792
0.0250079
0.0407428
-0.00995336
0.0075811
-0.0383706
0.00857019
0.0414486
-0.00927594
-0.0371815
-0.0125118
0.0397399
0.00687963
-0.0354695
-0.0131289
0.0346025
-0.0175538
-0.0317845
0.0153765
0.0339619
-0.0180911
-0.0324421
0.0329794
0.0167172
0.0308279
-0.00978982
-0.0377553
0.0304401
-0.0318141
-0.0196731
0.0194816
0.0306315
-0.0155386
0.0266935
-0.0401045
0.0355076
-0.00519295
-0.0520177
0.00427205
0.0529849
-0.00523917
0.0134982
-0.0136796
0.0170586
-0.0178009
0.0144218
-0.00934308
0.0257106
-0.030047
-0.000408018
-0.0013937
-0.0105169
-0.0336435
-0.0410552
0.0250986
0.00215362
-0.00222771
-3.12656e-05
0.00218488
-0.00506964
-0.0504357
0.0361605
-0.039091
-0.00397786
0.0379992
0.0030732
-0.0410552
-0.00110899
-0.00395749
0.0180169
0.00422863
-0.018288
0.0193483
0.00401039
-0.0273162
0.0178764
0.0194888
0.000472796
-0.00198974
-0.0079537
-0.00237322
0.00284601
-0.00436296
0.000372442
-0.000678954
0.0031414
-0.000394451
0.000766893
-0.0010734
0.00143786
-0.000167188
0.00157995
-0.00134385
0.00278172
-0.00151104
0.0021494
-0.000178918
-0.00554262
-0.000782417
0.00293182
-0.000961335
0.0119082
0.0299386
-0.0384674
0.013185
-0.0405595
0.0392828
0.0423758
0.000747768
-0.01353
-0.0251686
0.0134223
0.0252763
-0.00611759
0.0268081
-0.0342205
0.00309243
-0.0343786
0.0381929
-0.0385635
-0.000125028
0.000495627
0.0381663
0.000338841
-0.000312335
-0.000241228
-0.0385145
0.000192278
0.0384415
-1.90271e-05
-0.000256089
0.0391142
0.000550343
-0.00122304
0.000266298
0.0400783
-0.00123043
0.0396001
-0.039375
4.11727e-05
-0.00187034
0.0419404
8.20635e-06
0.038491
-0.000761273
-0.0381791
-0.00064553
-0.0380574
-0.00014077
-0.0380142
0.000295691
-0.0388389
0.000699692
-0.038213
-0.000867111
-0.00181315
0.0437499
3.63119e-06
0.036687
-9.14874e-06
-0.000191417
-0.0381992
-0.000123877
-0.0385326
0.000128175
-0.000270595
-0.040412
0.00248338
-6.80289e-06
0.0437512
5.52556e-06
0.036694
-1.37737e-05
-0.0399545
0.00115123
0.043755
-4.49636e-06
7.1572e-07
-5.26812e-06
0.043757
3.25146e-06
0.0366987
-9.21021e-06
0.0367069
-1.34724e-05
-0.000229004
-0.0401756
-7.42774e-06
-0.0401758
-7.71295e-06
-2.44503e-06
0.0437602
-7.65703e-07
0.0367128
-8.30261e-06
-3.60411e-06
-0.0401682
-3.77508e-06
-0.040166
-1.33883e-05
-1.97518e-06
0.0437597
2.50127e-06
0.0367229
-1.20587e-05
-4.26271e-06
-0.0401587
-5.25573e-06
-0.040159
-1.12678e-05
3.1701e-06
0.0437575
-9.46218e-07
0.0367323
-6.30936e-06
-6.96471e-06
-0.0401503
-1.3869e-06
-0.0401488
-1.71527e-05
8.18936e-06
0.0437465
2.83346e-06
0.0367503
-9.80189e-06
-6.43172e-06
-0.0401401
-3.74359e-06
-0.0401405
-1.46736e-05
2.24288e-05
0.0437245
-4.98454e-07
0.0367766
-3.78846e-06
8.51395e-05
-0.0402236
-1.72522e-06
-0.0400354
-1.99684e-05
4.53397e-05
0.0436756
3.56515e-06
0.0368293
-7.37649e-06
0.000254029
-0.0390859
-0.00139165
-0.0393494
-0.000432014
9.54509e-05
0.04358
1.42507e-07
0.0367558
0.000168905
0.000251749
-0.0392709
-6.67393e-05
-0.0390546
-4.30678e-05
0.000189377
0.0433863
4.35134e-06
0.0364973
0.000447939
0.000550138
-0.037889
-0.00193207
-0.0379286
-0.000575825
0.00185844
0.0415269
9.63745e-07
0.0376064
0.00074932
0.000635071
-0.0377212
-0.000802926
-0.037516
0.000222432
0.00164096
0.0384641
0.00142181
0.0382254
0.0010219
0.00101812
-0.00143534
-0.0373039
-0.0373719
0.000874072
0.000113602
0.000374059
0.0379765
0.0379755
0.000363544
-0.0378568
0.0384489
-0.00139502
-0.0380737
-0.00121839
0.0017457
-0.00151241
-0.0375372
0.000881764
-0.036508
-0.0376243
0.0379515
-0.000393933
-0.00110747
-0.0365758
0.0365864
-1.23068e-05
-1.60056e-05
-0.0365967
0.0366066
-1.1237e-05
-1.4042e-05
-0.0366161
0.0366254
-1.31157e-05
-1.47759e-05
-0.0366345
0.0391306
-1.26454e-05
-1.65461e-05
-0.0390191
0.0384817
0.00072972
-1.24148e-05
-0.0397155
0.0393992
4.02907e-06
-0.00073824
-0.0381324
0.0375696
-0.000660269
0.00101071
-0.0366724
0.0366749
5.69316e-06
-0.000333226
-0.0366785
0.0366833
7.92677e-07
1.25235e-08
-0.0366887
0.036695
-3.01643e-06
-4.76698e-06
-0.0367015
0.0367079
-3.98344e-06
-7.21129e-06
-0.036714
0.0367195
-2.68828e-06
-6.96113e-06
-0.0367241
0.0367282
-4.7342e-07
-5.16703e-06
-0.0367314
0.0367342
1.51974e-06
-3.05667e-06
-0.0365191
0.0373776
0.000563276
0.000216071
0.0372833
0.000468426
-0.00022895
0.000737161
0.0374683
-3.03987e-05
0.0377769
0.0375233
-0.0369058
0.000131782
-0.0378876
0.037806
0.000445188
0.000657643
0.0369026
-0.0367295
-4.14539e-06
0.000444693
0.0367267
-0.0367235
-7.00911e-06
-1.02135e-05
0.0367199
-0.0367159
-1.03144e-05
-1.33585e-05
0.0367115
-0.0367067
-1.3096e-05
-1.64453e-05
0.0367017
-0.0366964
-1.44536e-05
-1.85121e-05
0.0366912
-0.036686
-1.43657e-05
-1.8993e-05
0.0374288
-0.0373735
-1.41244e-05
-1.84921e-05
0.0380005
-0.0375893
-0.000552047
-1.84726e-05
0.0373434
-0.0370984
0.000454696
4.98358e-05
0.037562
-0.0378043
0.000370471
-0.000403485
0.0366334
-0.0366245
-1.66305e-05
-1.97222e-05
0.0366154
-0.0366061
-2.0569e-05
-2.24483e-05
0.0365965
-0.0365864
-2.47944e-05
-2.67132e-05
0.0365759
-0.0369795
-2.83813e-05
-3.05197e-05
0.0369885
-0.0375322
-3.21637e-05
-3.40179e-05
0.0372718
-0.036735
0.000337204
-3.79291e-05
-0.0363392
0.000485986
-0.0383715
-0.00121462
0.0373971
0.000623298
6.80569e-06
0.0377688
0.00138452
-0.00124147
-0.036651
0.00110797
-0.0360626
0.00126938
-0.00117782
-0.0384631
-0.0375093
-0.0376358
0.0370239
-0.000783094
0.0380688
-0.0383923
-0.000891115
-0.000785381
-0.0365544
0.036565
-0.000404504
-0.000638038
-0.0365768
0.0365877
-2.32424e-05
-2.77734e-05
-0.0365982
0.0366083
-2.1375e-05
-2.45244e-05
-0.036618
0.0366272
-2.23553e-05
-2.44287e-05
-0.0366357
0.0366436
-2.05794e-05
-2.50393e-05
-0.0366511
0.0373924
-1.16647e-05
-1.98225e-05
-0.0366628
0.036667
-2.01922e-07
-8.56002e-06
-0.0376771
0.0370112
5.72062e-06
5.58545e-07
-0.0366758
0.0366784
3.1009e-06
2.1266e-06
-0.0366817
0.0366858
-3.3235e-06
-3.25471e-06
-0.0366905
0.0366959
-8.40989e-06
-9.51036e-06
-0.0367016
0.0367073
-9.73632e-06
-1.28539e-05
-0.0367128
0.0367179
-7.82948e-06
-1.24286e-05
-0.0367224
0.0367265
-4.57913e-06
-9.68783e-06
-0.03673
0.036733
-1.5332e-06
-6.48248e-06
-0.0367328
0.0370302
0.000265923
0.000216278
8.96876e-05
-0.000166858
0.0375454
2.45535e-05
0.0374623
-0.036919
0.0372837
0.000258584
0.000579622
0.0373072
-0.0373167
0.000454775
0.0370066
0.000307373
-2.17781e-05
0.000441978
0.0373486
0.0375883
0.0373233
-0.0370511
-0.000140439
0.00066422
0.0367314
-0.0367287
-6.79197e-06
0.000124957
0.036726
-0.0367232
-9.83563e-06
-1.2945e-05
0.0367202
-0.0367171
-1.34365e-05
-1.62706e-05
0.0367138
-0.0367101
-1.67692e-05
-1.97811e-05
0.0367061
-0.0367017
-1.88584e-05
-2.25086e-05
0.036697
-0.0366919
-1.94761e-05
-2.37357e-05
0.0366864
-0.036681
-1.9598e-05
-2.39184e-05
0.0366754
-0.0372075
-1.99865e-05
-2.40115e-05
0.0371329
-0.036657
-2.11262e-05
-2.47846e-05
0.0370348
-0.0366418
-2.25526e-05
-2.57409e-05
0.0366337
-0.036625
-2.52918e-05
-2.78186e-05
0.0366161
-0.036607
-2.96899e-05
-3.13288e-05
0.0365976
-0.0365877
-3.47016e-05
-3.61057e-05
0.0365773
-0.0365661
-3.95757e-05
-4.09488e-05
0.0365543
-0.0365416
-4.47972e-05
-4.58188e-05
0.0365283
-0.0361406
-5.05193e-05
-5.1284e-05
0.0359237
-0.0354226
0.000606827
0.000269115
-0.0386663
-0.000903832
0.000981152
-0.00153451
-0.0355093
-0.0351933
0.000751854
-0.00207044
-0.0361151
0.000247429
0.0370608
0.0370615
0.000387086
-0.000563404
0.000803411
-0.0387031
-0.000528403
-0.0387013
0.000740912
-0.00152082
-0.0347294
0.000510267
-0.0349626
-0.0387763
0.0373782
-0.0372688
0.000149149
0.0369948
0.000630864
0.000663446
-0.000285182
0.0369703
0.000436298
0.0372886
-0.0382508
0.0386619
-0.000939445
-0.00104268
0.000861737
-0.0385204
0.0391023
-0.000850473
0.00312166
-0.0413735
-0.000191179
-0.0386133
0.038306
-0.000583799
-0.000855292
-0.0378094
0.0372089
-0.000182606
-0.00028877
-0.0369331
0.0365677
-3.91018e-05
-0.00036224
-0.0365792
0.0365903
-3.43805e-05
-3.92195e-05
-0.036601
0.0366113
-3.16869e-05
-3.52152e-05
-0.036621
0.03663
-3.13798e-05
-3.4118e-05
-0.0366382
0.0366458
-2.81811e-05
-3.3266e-05
-0.0366527
0.0366591
-1.8036e-05
-2.67261e-05
-0.036665
0.0366703
-5.44606e-06
-1.44859e-05
-0.0366749
0.0366792
1.41504e-06
-4.04432e-06
-0.036683
0.0366864
-3.36066e-07
-1.63411e-06
-0.0366898
0.0366934
-6.9189e-06
-6.64102e-06
-0.0366972
0.0367013
-1.24871e-05
-1.33158e-05
-0.0367055
0.0367098
-1.40699e-05
-1.70782e-05
-0.0367141
0.0367182
-1.19895e-05
-1.66931e-05
-0.0367221
0.0367258
-8.25718e-06
-1.35959e-05
-0.0367292
0.0367323
-4.6206e-06
-9.83401e-06
-0.0368364
0.0369002
0.000202076
0.000112175
0.000211049
0.000245327
-8.86167e-05
0.0373887
-0.000397467
0.000114477
0.0373438
0.0373101
0.0372145
0.0372028
-0.0371631
0.000415133
-0.0371493
0.0369468
0.000589621
0.000360824
0.0367358
-0.036869
-7.23952e-06
0.000236875
0.0367308
-0.0367281
-9.50055e-06
-1.31803e-05
0.0367255
-0.0367228
-1.24723e-05
-1.56186e-05
0.0367202
-0.0367177
-1.60226e-05
-1.88444e-05
0.036715
-0.0367122
-1.95834e-05
-2.24054e-05
0.0367091
-0.0367056
-2.23864e-05
-2.55887e-05
0.0367016
-0.0366969
-2.4122e-05
-2.77603e-05
0.0366918
-0.0366861
-2.53177e-05
-2.90765e-05
0.0366799
-0.0366732
-2.66459e-05
-3.01646e-05
0.0366664
-0.0366591
-2.83957e-05
-3.16767e-05
0.0366513
-0.0366432
-3.06668e-05
-3.3546e-05
0.0366348
-0.0366262
-3.39506e-05
-3.61548e-05
0.0366174
-0.0366083
-3.87362e-05
-4.01204e-05
0.0365991
-0.0365893
-4.44616e-05
-4.53828e-05
0.036579
-0.0365681
-5.05557e-05
-5.12142e-05
0.0365564
-0.036544
-5.71817e-05
-5.74369e-05
0.036531
-0.0365171
-6.44179e-05
-6.4292e-05
0.0361764
-0.0354975
-7.20686e-05
-7.16442e-05
0.0351002
-0.0351663
0.000576326
0.0003546
0.000655402
-0.000645641
-0.0349724
-0.0349915
0.00048064
0.0011268
-0.0389682
-0.000907781
-0.0367281
0.000372093
0.0367372
0.0370732
0.000309867
0.00134178
-0.0407126
3.43964e-05
-0.0354094
0.00794805
-0.0326923
0.0426206
-0.000620743
0.000403321
-0.0347741
-0.000958564
-0.0346346
-0.025823
0.0392896
0.0060222
-0.0201779
-0.00141655
-0.0385573
-0.0372372
0.038797
0.00156194
0.00329949
-0.00124713
-0.0384128
0.0380559
-0.000582552
0.000192955
-0.0377365
0.0372168
-6.41305e-05
-0.000535857
-0.0369909
0.0368656
-5.72459e-05
-6.28726e-05
-0.0365598
0.0365718
-5.11236e-05
-5.64355e-05
-0.0365832
0.0365943
-4.55155e-05
-5.06361e-05
-0.0366051
0.0366153
-4.19429e-05
-4.59276e-05
-0.0366248
0.0366334
-3.99784e-05
-4.35933e-05
-0.036641
0.0366479
-3.51065e-05
-4.09012e-05
-0.0366544
0.0366609
-2.45097e-05
-3.32184e-05
-0.0366674
0.0366741
-1.21009e-05
-2.10134e-05
-0.0366806
0.0366867
-4.73398e-06
-1.05231e-05
-0.0366922
0.036697
-5.11808e-06
-7.14624e-06
-0.036701
0.0367045
-1.03514e-05
-1.06472e-05
-0.0367074
0.0367102
-1.52312e-05
-1.62981e-05
-0.0367128
0.0367155
-1.6727e-05
-1.97027e-05
-0.0367182
0.036721
-1.48243e-05
-1.94112e-05
-0.0367239
0.0367269
-1.12029e-05
-1.64871e-05
-0.0367298
0.0367327
-7.51464e-06
-1.27519e-05
-0.0368544
0.0370611
-4.61367e-06
-9.5374e-06
-0.0369729
0.0369515
0.000170545
0.000299189
-0.037097
0.0370557
0.000413452
0.000485366
0.000521386
-0.000291542
0.037114
-0.000325518
7.89277e-05
0.0373023
0.036933
0.000364397
0.000147692
0.0368766
0.037383
-0.000254084
0.000175771
0.0370486
0.0371081
-0.000219508
3.50655e-05
0.0372576
0.0372449
0.0372878
-0.0371567
0.00045853
-0.0378631
0.0368527
0.00104552
-0.000265496
0.0370644
-0.0369868
0.000337476
0.000268584
0.0367361
-0.0367335
-9.83005e-06
-1.3767e-05
0.0367309
-0.0367282
-1.22299e-05
-1.57861e-05
0.0367255
-0.0367229
-1.51075e-05
-1.83149e-05
0.0367204
-0.0367179
-1.84491e-05
-2.13556e-05
0.0367156
-0.0367132
-2.19702e-05
-2.47465e-05
0.0367107
-0.0367078
-2.52605e-05
-2.81149e-05
0.0367045
-0.0367005
-2.81131e-05
-3.11003e-05
0.0366958
-0.0366904
-3.07237e-05
-3.37176e-05
0.0366843
-0.0366776
-3.33948e-05
-3.62421e-05
0.0366704
-0.0366626
-3.61545e-05
-3.89053e-05
0.0366545
-0.036646
-3.91326e-05
-4.16488e-05
0.0366374
-0.0366285
-4.28266e-05
-4.48017e-05
0.0366196
-0.0366104
-4.78889e-05
-4.90631e-05
0.0366011
-0.0365914
-5.41951e-05
-5.47059e-05
0.0365812
-0.0365704
-6.13622e-05
-6.13733e-05
0.036559
-0.0365469
-6.93127e-05
-6.88301e-05
0.0365341
-0.0365205
-7.79838e-05
-7.70561e-05
0.0365062
-0.0364909
-8.73797e-05
-8.59562e-05
0.0360407
-0.0353669
-9.74586e-05
-9.56239e-05
0.0353895
-0.0352541
0.000267953
0.000503226
0.000488959
-0.000462176
-0.0348009
-0.0350091
0.000243973
0.0010904
-0.0387168
-0.000271032
-0.0364227
0.00282893
-0.0355935
3.57524e-05
-0.0364037
0.0370686
-0.0371236
0.000468468
0.0369389
0.000208655
0.000465944
-0.000316891
0.0371086
0.000124188
0.0371944
0.00271565
-0.0313976
5.894e-05
-0.0351557
-0.0189332
-0.0195326
-0.0306263
0.0351799
0.00146863
0.000769549
-0.000525016
-0.0350454
0.00052694
-0.0347665
-0.0285048
-0.003538
-0.037738
-0.0366886
0.0371655
0.001085
0.00179075
-0.0374545
0.0369602
-8.82536e-05
-9.60123e-05
-0.0365098
0.0365247
-7.89582e-05
-8.5497e-05
-0.0365387
0.0365521
-7.0642e-05
-7.68912e-05
-0.0365648
0.0365767
-6.31018e-05
-6.91009e-05
-0.0365881
0.0365991
-5.65286e-05
-6.20402e-05
-0.0366096
0.0366195
-5.17894e-05
-5.6405e-05
-0.0366283
0.0366361
-4.77861e-05
-5.24593e-05
-0.0366429
0.036649
-4.1247e-05
-4.76587e-05
-0.0366551
0.0366616
-3.09996e-05
-3.92402e-05
-0.0366687
0.0366767
-2.00473e-05
-2.81978e-05
-0.0366849
0.0366931
-1.28668e-05
-1.87705e-05
-0.0367005
0.0367068
-1.14415e-05
-1.45467e-05
-0.0367118
0.0367155
-1.40596e-05
-1.56115e-05
-0.0367181
0.0367199
-1.70923e-05
-1.89138e-05
-0.0367214
0.0367226
-1.80136e-05
-2.11178e-05
-0.036724
0.0367256
-1.64154e-05
-2.07742e-05
-0.0367274
0.0367295
-1.33117e-05
-1.83346e-05
-0.0367318
0.0367342
-9.92242e-06
-1.50415e-05
-0.0367366
0.0367389
-6.91205e-06
-1.18822e-05
-0.0370474
0.0369199
0.000298085
-9.35678e-06
0.000281625
0.000400692
-0.000636139
0.0373494
-0.000169694
0.000290126
0.0371818
0.037164
1.95349e-06
-2.95902e-06
0.0368776
0.0367488
-0.000355958
0.000531097
0.0368735
0.0367492
0.0374591
0.0373088
-0.0371986
0.000348319
-0.0368447
0.0372186
0.000671581
0.000198589
0.037087
-0.0367393
-1.0193e-05
0.000156997
0.036737
-0.0367344
-1.24147e-05
-1.60853e-05
0.0367318
-0.0367291
-1.49634e-05
-1.84225e-05
0.0367263
-0.0367236
-1.78318e-05
-2.10453e-05
0.036721
-0.0367184
-2.09865e-05
-2.39755e-05
0.036716
-0.0367136
-2.43596e-05
-2.71634e-05
0.0367112
-0.0367086
-2.78806e-05
-3.05297e-05
0.0367057
-0.0367022
-3.15757e-05
-3.40408e-05
0.0366982
-0.0366933
-3.55254e-05
-3.77706e-05
0.0366878
-0.0366815
-3.96876e-05
-4.17595e-05
0.0366746
-0.036667
-4.37651e-05
-4.58357e-05
0.0366589
-0.0366504
-4.76892e-05
-4.97249e-05
0.0366415
-0.0366324
-5.19561e-05
-5.36364e-05
0.0366232
-0.0366137
-5.73356e-05
-5.82995e-05
0.0366041
-0.0365942
-6.40947e-05
-6.4279e-05
0.036584
-0.0365733
-7.21043e-05
-7.1585e-05
0.0365621
-0.0365502
-8.12143e-05
-8.00598e-05
0.0365377
-0.0365244
-9.12585e-05
-8.9551e-05
0.0365104
-0.0364956
-0.00010223
-9.99357e-05
0.0364799
-0.036463
-0.000114362
-0.000111319
0.0358355
-0.0354394
-0.000128165
-0.000124219
0.0350568
-0.0347723
0.000242438
-0.000138656
0.000930124
-0.000587659
-0.035109
-0.034562
0.000719883
0.000803904
-0.0366918
1.51776e-05
-0.0364021
0.000460194
0.0367688
0.0370786
0.000264208
0.00160523
-0.0344831
-0.0046564
-0.041593
-0.000731635
-0.0353223
3.71544e-05
-0.0363819
6.19222e-05
-0.0357426
-0.0410219
-0.00701555
0.0013702
-0.00419743
-0.0381947
-0.00304929
-0.0371735
-0.000528856
-0.0351042
0.00055749
-0.00111651
-0.03455
0.000951361
-0.0349559
-0.0369189
-0.0333986
0.0348851
-1.79255e-05
0.0351229
-0.0386899
-0.00344848
-0.0018137
-0.0359595
0.0364646
0.000579831
0.000716412
-0.0364823
0.0364993
-0.000105184
-0.000113727
-0.036515
0.0365298
-9.37429e-05
-0.000101238
-0.0365438
0.0365571
-8.39928e-05
-9.08869e-05
-0.0365697
0.0365817
-7.50729e-05
-8.16998e-05
-0.036593
0.0366037
-6.72243e-05
-7.33178e-05
-0.0366136
0.0366227
-6.0857e-05
-6.63325e-05
-0.0366306
0.0366375
-5.46308e-05
-6.03979e-05
-0.0366434
0.0366489
-4.67572e-05
-5.35599e-05
-0.0366546
0.0366611
-3.7546e-05
-4.49445e-05
-0.0366688
0.0366775
-2.8826e-05
-3.58407e-05
-0.0366869
0.0366964
-2.23389e-05
-2.81645e-05
-0.0367052
0.0367127
-1.89832e-05
-2.32937e-05
-0.0367186
0.0367229
-1.83454e-05
-2.15156e-05
-0.0367257
0.0367274
-1.87884e-05
-2.1715e-05
-0.0367284
0.036729
-1.86666e-05
-2.20922e-05
-0.0367296
0.0367305
-1.72495e-05
-2.14094e-05
-0.0367316
0.0367331
-1.47579e-05
-1.94592e-05
-0.0367348
0.0367366
-1.18159e-05
-1.67435e-05
-0.0367386
0.0367407
-8.9498e-06
-1.38687e-05
-0.0367425
0.037047
-6.38543e-06
-1.1211e-05
-0.0370751
0.0371615
0.000382087
0.000253514
-0.0366652
0.0368217
0.000303677
0.000704934
0.000628688
-0.000464877
0.037018
-0.000144045
-6.76854e-05
0.0370335
0.0372535
0.00046612
-1.07252e-06
0.0368844
0.0371653
1.99192e-06
-2.93402e-06
0.0368786
0.0367497
3.80768e-06
-4.84734e-06
0.0368745
0.0367501
-0.000270206
0.00021714
0.0371617
0.037184
-0.000156581
0.000205826
0.0370294
0.037255
0.0373427
-0.0369218
0.000250691
-0.0371698
0.036951
0.000424566
0.000437089
0.0369957
-0.0369154
0.000268017
0.000272535
0.0367425
-0.0367405
-1.21982e-05
-1.59054e-05
0.0367383
-0.0367358
-1.48532e-05
-1.83299e-05
0.0367333
-0.0367306
-1.76525e-05
-2.09682e-05
0.0367279
-0.0367251
-2.06303e-05
-2.37788e-05
0.0367223
-0.0367195
-2.37437e-05
-2.67428e-05
0.0367169
-0.0367142
-2.70269e-05
-2.98452e-05
0.0367115
-0.0367088
-3.06412e-05
-3.31806e-05
0.0367058
-0.0367026
-3.48376e-05
-3.69679e-05
0.0366989
-0.0366947
-3.97585e-05
-4.14346e-05
0.0366899
-0.0366843
-4.52125e-05
-4.65762e-05
0.0366782
-0.0366712
-5.06888e-05
-5.20131e-05
0.0366637
-0.0366555
-5.58811e-05
-5.7259e-05
0.0366469
-0.0366377
-6.11116e-05
-6.23008e-05
0.0366283
-0.0366185
-6.70958e-05
-6.77319e-05
0.0366086
-0.0365983
-7.43324e-05
-7.42129e-05
0.0365879
-0.036577
-8.29663e-05
-8.2043e-05
0.0365658
-0.036554
-9.29757e-05
-9.12717e-05
0.0365418
-0.0365288
-0.000104226
-0.000101812
0.0365152
-0.0365007
-0.000116686
-0.000113546
0.0364855
-0.0364692
-0.000130646
-0.000126578
0.0364521
-0.0364336
-0.000146577
-0.000141364
0.0364139
-0.0360064
-0.000165076
-0.00015838
0.0356075
-0.0349476
0.000291438
0.000321003
0.000438314
-0.000762711
-0.0346315
-0.0349281
0.000418764
0.000524086
-0.0356106
-0.0392284
-0.00365895
0.000183309
-0.035398
0.037297
-0.0373898
0.000396465
0.0372636
-3.42156e-05
0.000404749
-0.000345277
0.0369699
0.000503955
0.0368518
1.50085e-05
-0.03638
3.84535e-05
-0.0363585
-0.00109702
-0.0372746
6.57588e-05
-0.0363372
9.59826e-05
-0.0363167
0.000129267
-0.035442
0.000624602
-0.000301032
-0.0349551
0.000198139
-0.0345016
-0.0363798
-0.037828
0.0360279
-0.00164839
-0.00300209
0.00412836
-0.0403547
0.039448
-0.0410467
-0.00140344
-0.0020389
-0.0347484
0.035361
-0.000630548
-0.000534216
-0.0360677
0.0364709
0.000176666
9.7201e-06
-0.0364884
0.036505
-0.000121748
-0.000131277
-0.0365205
0.0365353
-0.000108463
-0.000116782
-0.0365491
0.0365623
-9.71726e-05
-0.000104759
-0.0365747
0.0365864
-8.6752e-05
-9.40823e-05
-0.0365972
0.0366073
-7.72809e-05
-8.4162e-05
-0.0366164
0.0366245
-6.89564e-05
-7.5418e-05
-0.0366315
0.0366376
-6.07305e-05
-6.74017e-05
-0.036643
0.0366484
-5.21329e-05
-5.90202e-05
-0.0366542
0.0366609
-4.42969e-05
-5.07411e-05
-0.0366688
0.0366778
-3.78e-05
-4.37023e-05
-0.0366874
0.0366971
-3.20524e-05
-3.77528e-05
-0.0367062
0.0367141
-2.6958e-05
-3.23653e-05
-0.0367205
0.0367254
-2.3187e-05
-2.79376e-05
-0.0367287
0.0367309
-2.09244e-05
-2.50393e-05
-0.0367321
0.0367329
-1.94818e-05
-2.3376e-05
-0.0367336
0.0367343
-1.79607e-05
-2.20558e-05
-0.0367352
0.0367363
-1.59019e-05
-2.03561e-05
-0.0367377
0.0367393
-1.33668e-05
-1.81043e-05
-0.0367409
0.0367426
-1.06473e-05
-1.55176e-05
-0.0367443
0.0367458
-7.94452e-06
-1.28699e-05
-0.0370097
0.0371429
0.000248913
-1.04017e-05
0.000458036
0.000186068
-0.000414678
0.0372466
-0.000291724
3.41038e-05
0.0372911
0.0371478
3.05313e-07
-1.12371e-06
0.0368852
0.0367509
2.02857e-06
-2.93459e-06
0.0368795
0.0367506
3.83407e-06
-4.78285e-06
0.0368755
0.036751
-0.000427786
0.00031957
0.0372699
0.0367515
0.0372293
0.0372893
-0.0373129
0.000274317
-0.0372081
0.0370453
0.000587363
0.00051827
0.0370252
-0.0367457
-1.15272e-05
-1.51969e-05
0.0367439
-0.0367419
-1.41836e-05
-1.76673e-05
0.0367398
-0.0367375
-1.71313e-05
-2.04315e-05
0.0367351
-0.0367326
-2.02316e-05
-2.33786e-05
0.0367299
-0.0367271
-2.34348e-05
-2.64539e-05
0.0367242
-0.0367213
-2.66859e-05
-2.95998e-05
0.0367183
-0.0367153
-3.00448e-05
-3.28017e-05
0.0367123
-0.0367091
-3.37673e-05
-3.62139e-05
0.0367059
-0.0367025
-3.82357e-05
-4.01746e-05
0.0366989
-0.036695
-4.37005e-05
-4.50366e-05
0.0366907
-0.0366859
-5.00222e-05
-5.08776e-05
0.0366806
-0.0366746
-5.66897e-05
-5.73419e-05
0.0366679
-0.0366605
-6.32804e-05
-6.38989e-05
0.0366525
-0.0366437
-6.98658e-05
-7.03475e-05
0.0366344
-0.0366246
-7.69137e-05
-7.70037e-05
0.0366145
-0.0366039
-8.4883e-05
-8.43685e-05
0.0365931
-0.036582
-9.40901e-05
-9.28223e-05
0.0365706
-0.0365589
-0.000104756
-0.000102635
0.0365467
-0.036534
-0.000116954
-0.000113957
0.0365207
-0.0365067
-0.000130728
-0.000126817
0.0364919
-0.0364762
-0.000146347
-0.000141347
0.0364596
-0.036442
-0.000164269
-0.000157933
0.0364232
-0.0364031
-0.000185201
-0.000177141
0.0358825
-0.0353817
-0.000209359
-0.000199596
0.035145
-0.035177
0.000230211
0.000182047
-0.00200661
0.000315687
-0.0354826
-0.0360729
0.000628311
-0.000308473
-0.0348214
-0.0345922
4.35157e-05
9.61207e-06
-0.0354369
0.000444494
0.0368532
0.0373558
0.000193542
0.000975164
-0.0407259
-0.00129593
1.46474e-05
-0.0363562
0.00205993
-0.0414394
-0.000343876
-0.0361512
4.05004e-05
-0.0363332
-0.00042194
-0.036537
6.9665e-05
-0.0363109
0.000102134
-0.0362896
0.000137625
-0.0358806
-0.000211975
-0.0350516
0.000321017
-0.000338057
-0.0348044
0.00033643
-0.0346076
-0.0363555
-0.0403394
0.0386966
0.000239284
-0.00224626
-0.0401377
0.00165801
0.0414945
-0.040521
-0.00321984
-0.000140753
-0.0376009
0.03677
-0.000817494
-0.000943162
-0.036424
0.0359693
-0.000175847
-0.000188217
-0.0361465
0.0364791
-0.000155926
-0.000167442
-0.0364961
0.0365122
-0.000137878
-0.000148316
-0.0365274
0.0365418
-0.000122819
-0.000131955
-0.0365552
0.0365678
-0.000109814
-0.000118193
-0.0365796
0.0365905
-9.7708e-05
-0.000105835
-0.0366006
0.0366097
-8.64442e-05
-9.4196e-05
-0.0366179
0.0366252
-7.62536e-05
-8.35984e-05
-0.0366317
0.0366376
-6.66599e-05
-7.38644e-05
-0.0366433
0.0366491
-5.79837e-05
-6.46917e-05
-0.0366554
0.0366625
-5.13802e-05
-5.70549e-05
-0.0366704
0.0366789
-4.63725e-05
-5.15472e-05
-0.0366878
0.0366968
-4.09729e-05
-4.66571e-05
-0.0367051
0.0367127
-3.44982e-05
-4.07449e-05
-0.036719
0.0367241
-2.82853e-05
-3.42728e-05
-0.036728
0.0367308
-2.37492e-05
-2.88881e-05
-0.0367328
0.0367343
-2.0968e-05
-2.5385e-05
-0.0367355
0.0367366
-1.90473e-05
-2.32391e-05
-0.0367377
0.0367389
-1.71021e-05
-2.14577e-05
-0.0367402
0.0367416
-1.47763e-05
-1.94061e-05
-0.036743
0.0367445
-1.21409e-05
-1.69781e-05
-0.036746
0.0367475
-9.40932e-06
-1.43458e-05
-0.0367488
0.0370045
-6.79133e-06
-1.17028e-05
-0.0372784
0.0373131
0.000361749
0.000184146
-0.0368325
0.0368926
0.000384355
0.000446388
0.000588591
-0.000337229
0.0370397
-0.000208903
0.000133374
0.0369681
0.0372329
0.000354808
2.91952e-07
0.0368915
0.0371654
4.48893e-07
-1.2612e-06
0.036886
0.0367516
2.10017e-06
-2.91508e-06
0.0368803
0.0367515
3.71441e-06
-4.48055e-06
0.0368762
0.0367518
5.25503e-06
0.000388972
0.0368756
0.0367523
-0.000329429
0.000245618
0.0370537
0.0372888
0.000278731
0.000216347
0.0368607
0.0373762
0.0373404
-0.0371003
0.000347283
-0.0371303
0.0372075
0.000139144
0.000403702
0.0370345
-0.0367499
-1.02857e-05
0.000452398
0.0367486
-0.0367471
-1.30272e-05
-1.64966e-05
0.0367454
-0.0367435
-1.60336e-05
-1.93613e-05
0.0367416
-0.0367394
-1.92659e-05
-2.23996e-05
0.0367372
-0.0367347
-2.26715e-05
-2.56419e-05
0.0367321
-0.0367294
-2.61742e-05
-2.90197e-05
0.0367266
-0.0367235
-2.97095e-05
-3.24566e-05
0.0367204
-0.0367171
-3.33248e-05
-3.59291e-05
0.0367138
-0.0367102
-3.72732e-05
-3.95815e-05
0.0367067
-0.036703
-4.195e-05
-4.37542e-05
0.0366992
-0.0366952
-4.76726e-05
-4.8836e-05
0.0366911
-0.0366866
-5.44354e-05