/*--------------------------------*- C++ -*----------------------------------*\
  =========                 |
  \\      /  F ield         | OpenFOAM: The Open Source CFD Toolbox
   \\    /   O peration     | Website:  https://openfoam.org
    \\  /    A nd           | Version:  10
     \\/     M anipulation  |
\*---------------------------------------------------------------------------*/
FoamFile
{
    format      ascii;
    class       surfaceScalarField;
    location    "26";
    object      phi;
}
// * * * * * * * * * * * * * * * * * * * * * * * * * * * * * * * * * * * * * //

dimensions      [0 3 -1 0 0 0 0];

internalField   nonuniform List<scalar> 
57492
(
0.000245176
-1.11186e-05
-4.55303e-05
-0.000188527
-0.000170436
0.000279281
0.000136331
-2.90389e-05
8.17258e-05
0.000326546
-0.000379233
0.00315946
0.00338652
-0.000271926
-0.00627405
-0.00862818
0.00404533
0.0077423
0.00101231
-0.000938559
-0.000491301
0.000417548
-0.00181668
0.000339902
-0.000131135
0.00160791
0.000377304
-0.00118167
0.00151825
-0.00462913
0.0044242
-0.00131332
0.0012861
0.00424964
-0.00401748
-0.000658744
-0.000221074
0.000733071
0.000146747
-0.000126806
-0.000878972
0.000347033
0.000249805
-0.000346413
-3.01975e-05
-5.72501e-05
8.59816e-05
0.00231156
-0.00221593
-0.000832987
0.000737361
0.000318667
0.00186171
0.000131184
-0.000324028
0.00078752
0.0033383
-0.0038018
-0.000661115
0.00326412
-0.00292703
0.000135703
-0.000289429
0.000153726
-0.00166976
0.00122413
0.000581335
-0.00466875
0.000195932
0.00334449
0.00112833
0.00122285
-0.00473761
-0.00115398
-0.000134954
-0.000212606
-0.000724786
0.00107235
-0.000298169
0.000185903
-2.26877e-05
-0.00261216
0.0022097
0.000759086
-0.000356627
-0.00310259
0.000917315
-0.000426878
-0.00112679
0.000595227
0.000457014
7.45482e-05
-0.000778637
-0.000361716
1.35636e-05
-0.000369121
-0.00114012
0.00129954
0.000209699
-0.000418387
0.000117197
-6.79308e-05
0.00105563
-0.000704442
-0.000655728
0.000304539
-0.000912206
0.000717515
0.00125032
-0.00123894
-0.0023761
0.00224723
0.00136781
-0.00276596
-0.000675485
0.0022025
-0.00071086
-0.000153179
0.000864039
-0.000272681
-0.000438179
-0.00138076
0.00190083
-0.00079275
0.000204023
-0.000770971
-0.000813814
-0.000815142
0.00115504
-0.000234156
-0.00190169
0.00115074
0.000750942
-0.00432133
0.00241965
0.00476335
-0.00100242
0.00053408
-0.00429501
0.00352777
9.25136e-05
0.00114306
-0.000901302
0.0046481
-0.00474922
0.00197051
0.000413107
-0.00200631
0.00197583
-0.000136458
0.00237014
-0.000886711
-0.00175956
0.000276128
0.00265552
0.000127728
0.00125108
-0.000769224
0.00149398
0.00116386
0.00169513
-0.00468723
-0.000658714
0.000584788
0.00476116
-0.0048206
-0.000331506
0.000464874
0.00115396
0.00451257
-0.00443602
-0.00123051
0.000822843
-0.00429801
-0.00291823
0.0025876
0.00263221
-0.00230159
-0.000366625
0.00327489
-0.0058265
1.47145e-05
-0.000124457
-7.3948e-07
0.000110482
-0.000338589
6.89038e-06
7.15764e-05
-0.000142532
-0.000267634
-6.01509e-05
7.27083e-06
1.26382e-05
-1.33777e-05
9.58481e-06
3.05343e-06
0.00738608
0.00378468
-0.00593217
-0.0052386
0.00232256
-0.000690999
0.00575453
-0.00792091
0.00307167
0.0071718
0.00226614
-0.00640236
0.00161747
-0.00287162
0.00214104
-0.000886879
0.00236524
-0.00292124
0.00217346
-3.10168e-05
2.26209e-05
-2.72275e-06
-7.28205e-05
-3.72653e-06
-0.000230958
-3.039e-05
-0.0029507
0.00536873
0.003388
-0.00580603
0.00435892
-0.00494438
0.00297728
0.00476854
-0.00237709
0.0102377
-0.00156824
-0.00176045
-0.00690902
0.00217969
0.00552649
0.00253154
0.00156229
-0.00511006
0.00572747
4.72822e-05
-7.63212e-05
0.000129008
0.00082555
0.00176982
-0.000630791
-0.00196458
0.00105118
0.000100914
-9.94612e-05
2.7529e-05
7.19322e-05
-0.000307041
0.000207579
-0.00665296
0.00342259
-0.00202044
0.00525081
-0.00577155
-0.0025344
0.00165298
-0.00263756
0.00210627
-0.00524026
0.00196596
-2.63346e-05
-0.000950214
-0.000989412
-0.000716552
0.00224296
0.000439553
-0.000840731
-8.57727e-05
0.000209952
-0.000776929
-9.01372e-05
-0.000273053
-0.00145409
-0.000277668
-6.82359e-05
2.43644e-05
0.000321539
-0.000235374
-0.000587031
0.000544737
0.000154696
1.92546e-05
-0.000409324
9.08896e-05
-4.42998e-06
0.000118016
-2.76165e-06
-0.000645195
0.000372142
8.36515e-05
-0.000728847
0.00017558
-0.000482621
0.00427351
0.00333168
-0.000178478
0.00212875
-0.00648342
-1.02263e-05
0.00226373
-0.00179739
-0.000456116
0.000292005
0.00316386
-0.00346609
0.00327861
0.0019317
-0.000591634
-0.00461869
-0.000975111
0.000423503
0.00383022
0.00408438
-0.00312778
-0.00163329
-0.00303827
0.00123206
0.00343951
-0.00120072
0.003512
-0.00394457
0.000405581
-0.00464457
8.98688e-05
3.76607e-05
-5.04194e-06
0.00108996
-0.00063906
-0.000621334
8.39728e-05
-0.00035202
0.001358
0.000382797
-1.95425e-05
-0.000187445
0.000333557
6.85633e-05
-0.000214676
0.000996544
-0.00122216
3.8175e-05
-0.000359648
0.000834882
0.00052131
-0.000125855
9.97635e-05
-0.00617058
0.00364288
0.0059503
0.00774515
-0.0020355
-0.00824405
-0.00288956
0.00446413
-9.71894e-05
-0.000878349
-0.000164583
-0.000524842
9.26498e-06
4.72e-05
-0.000130865
3.8621e-05
4.50436e-05
-0.000129972
0.000143667
3.35042e-05
-0.000297917
3.70808e-05
-0.000266845
-0.000314162
5.61645e-05
-0.00080803
-0.000337164
-0.00111546
-0.00119968
0.00137629
0.000938841
4.68794e-05
0.000585016
-0.00174735
-0.0015687
0.000415905
-0.00294334
0.00133317
-5.95996e-05
-0.00351018
0.000807584
-0.000240743
0.000876313
-0.00334717
0.00256383
-9.29683e-05
0.000679274
-0.00272791
0.00292495
0.00252853
-0.010197
-0.00177521
0.00219131
0.00302963
-0.00347166
0.00207153
-0.000323881
-7.20721e-07
1.99753e-05
-4.82922e-06
4.10851e-06
0.000285587
-4.14161e-05
0.00529949
-0.00320091
-0.00220216
0.000103573
0.00454946
-0.000151266
0.00476415
6.25881e-05
-0.00519337
0.0013188
0.00339185
5.35018e-05
0.000498362
-0.00302439
0.00384483
5.75562e-06
-1.05848e-05
0.000762456
-0.00213289
-0.00286451
0.00124297
0.00310626
0.00118678
-6.66057e-05
-0.00124807
0.000127904
0.000389499
-0.00011493
-0.00152158
0.000320124
0.00191897
0.000269922
-0.001402
-0.000135192
7.38317e-05
-6.54546e-06
1.16009e-05
-4.60882e-06
-4.46669e-07
1.17498e-05
-2.81629e-07
-1.80136e-05
5.01898e-05
-0.000109116
7.06761e-05
-0.00176974
0.00272442
-0.000779098
0.00295345
-0.00386228
-0.000860906
8.9871e-07
-0.00206568
0.0023849
-0.00404375
0.000250155
-0.00276848
-0.00186161
0.000586337
0.00270552
0.00291174
-0.00542132
0.00260238
0.00431183
-0.00420869
0.00223955
-0.00308884
0.00161052
-0.000761233
0.00245373
-0.00302826
0.00281408
0.00438501
0.00187121
0.00494725
-0.000264011
-0.00491846
0.000235224
0.00547272
-0.000685878
0.000160399
0.00552547
-0.000857626
3.12044e-05
-0.00469905
0.00396961
-0.00132938
0.00288524
0.00431409
-0.00138272
0.00111783
-0.00404919
0.0012438
0.00439627
-0.00132599
-0.00388371
-0.00164741
0.0041484
0.00104637
-0.00369803
-0.0018365
0.0036286
-0.00236056
-0.00325057
0.00213315
0.00347798
-0.00238058
-0.00327981
0.00329983
0.00222293
0.00306002
-0.00146406
-0.00381889
0.00303447
-0.00319212
-0.00257736
0.00259761
0.00301422
-0.00203306
0.00251572
-0.00408085
0.00362726
-0.00101047
-0.00508309
0.00104256
0.005393
-0.00135248
0.00190431
-0.00033396
0.00109951
-0.00116192
0.00039637
-0.000165479
0.00139907
-0.00156755
-5.56546e-05
0.000321726
0.000116726
-0.00151673
-0.0023286
0.00150789
-5.34384e-08
-2.28191e-07
2.79605e-07
-3.33047e-07
-0.000148399
-0.00259156
0.00197073
-0.00228238
-0.000102467
0.00223645
7.24943e-05
-0.00239251
3.76337e-05
-0.000392808
0.00191752
0.000421312
-0.00194603
0.00204037
0.000456886
-0.00289007
0.00191663
0.00204127
-2.82015e-06
7.48463e-07
3.97324e-05
-4.80866e-06
1.98851e-06
-4.0602e-06
-5.95401e-06
4.81872e-06
-5.90157e-05
1.28817e-06
-7.24218e-06
6.10689e-06
-4.58625e-05
2.21593e-05
-0.000274466
2.34152e-05
-6.92778e-05
4.55745e-05
5.34801e-05
-5.38136e-06
-0.000173953
-1.70018e-05
7.04818e-05
-2.23831e-05
0.00136583
0.00330061
-0.00424294
0.0014131
-0.00453168
0.00448441
0.00471002
3.69744e-06
-0.00118449
-0.00244493
0.00116034
0.00246908
-0.000708947
0.00272115
-0.00319669
0.00015954
-0.00331342
0.00413898
-0.00417697
-1.33109e-05
5.13039e-05
0.00413823
3.71685e-05
-3.64226e-05
-2.61103e-05
-0.00416948
1.86268e-05
0.00417018
-1.57669e-06
-3.0371e-05
0.00424522
6.03306e-05
-0.000135376
2.94734e-05
0.0043518
-0.000136053
0.00429946
-0.00427321
3.22411e-06
-0.000202797
0.00455583
-1.23218e-06
0.00418057
-8.39094e-05
-0.00414149
-7.13866e-05
-0.0041263
-1.6763e-05
-0.00411953
3.0396e-05
-0.00420679
7.39437e-05
-0.0041368
-9.61011e-05
-0.000196747
0.00475402
-1.44503e-06
0.00398591
-2.09113e-06
-2.08641e-05
-0.00413308
-1.55356e-05
-0.00416916
1.14948e-05
-2.95215e-05
-0.00437018
0.000266617
-5.43411e-07
0.00475555
-9.79524e-07
0.00398784
-2.46572e-06
-0.00432066
0.000121982
0.00475711
-3.5788e-07
-1.20863e-06
-4.87472e-07
0.00475835
-7.45873e-07
0.00398936
-1.88654e-06
0.00399116
-2.2844e-06
-2.49277e-05
-0.00434209
-3.16523e-06
-0.004342
-3.58397e-06
-2.35952e-07
0.00475958
-9.96978e-07
0.00399263
-1.70694e-06
-4.26594e-07
-0.00433851
-3.14671e-06
-0.00433821
-4.22129e-06
-2.41762e-07
0.00476036
-5.38757e-07
0.00399451
-2.12279e-06
-2.81093e-07
-0.00433452
-3.70917e-06
-0.00433447
-4.01538e-06
2.56352e-07
0.00476091
-8.0939e-07
0.00399632
-1.54709e-06
-3.7291e-07
-0.00433044
-3.71114e-06
-0.00433018
-4.66612e-06
7.36901e-07
0.00476053
-3.54597e-07
0.00399903
-1.97995e-06
-1.9954e-07
-0.00432595
-4.29077e-06
-0.00432588
-4.50022e-06
2.21734e-06
0.00475896
-6.43023e-07
0.00400265
-1.40342e-06
9.76461e-06
-0.00433138
-4.33562e-06
-0.00431094
-5.17447e-06
4.65795e-06
0.00475449
-1.91324e-07
0.00400916
-1.84711e-06
2.80134e-05
-0.00420504
-0.00015435
-0.00423323
-4.96991e-05
1.00559e-05
0.00474493
-4.955e-07
0.00400193
1.72839e-05
2.77665e-05
-0.00422098
-1.18318e-05
-0.00419749
-7.96983e-06
2.02411e-05
0.00472473
-4.41736e-08
0.00397451
4.7663e-05
5.98828e-05
-0.00406807
-0.000212792
-0.0040722
-6.54133e-05
0.000202062
0.00452303
-3.5765e-07
0.00409605
8.05267e-05
6.89516e-05
-0.00404543
-9.15857e-05
-0.00402335
2.01081e-05
0.000178387
0.00419014
0.000154497
0.00416417
0.000110264
0.00010994
-0.000159655
-0.00399572
-0.00400303
8.96143e-05
1.19865e-05
4.04038e-05
0.00413775
0.00413763
3.85265e-05
-0.00406039
0.00412857
-0.000159761
-0.00407877
-0.00014128
0.000187641
-0.000168104
-0.00401526
8.98388e-05
-0.00390522
-0.0040441
0.00408331
-5.10407e-05
-0.000128322
-0.00393865
0.00394313
-8.81265e-06
-9.69798e-06
-0.00394732
0.00395127
-7.66443e-06
-8.47729e-06
-0.00395497
0.00395848
-6.65227e-06
-7.41119e-06
-0.00396178
0.00423418
-5.7753e-06
-6.47089e-06
-0.0042243
0.00416829
7.46415e-05
-5.66026e-06
-0.0043042
0.00427209
-4.31364e-06
-8.46047e-05
-0.00413675
0.00407767
-7.62881e-05
0.000104961
-0.00398209
0.00398404
-3.17699e-06
-4.04791e-05
-0.00398586
0.00398759
-2.71041e-06
-3.26794e-06
-0.00398922
0.00399077
-2.29349e-06
-2.8363e-06
-0.00399222
0.00399361
-1.92315e-06
-2.45261e-06
-0.00399491
0.00399615
-1.59423e-06
-2.11245e-06
-0.00399732
0.00399843
-1.30206e-06
-1.81128e-06
-0.00399948
0.00400047
-1.0394e-06
-1.54351e-06
-0.00397774
0.00407196
6.02756e-05
2.23721e-05
0.00406234
5.00307e-05
-2.53576e-05
8.00533e-05
0.00408306
-4.40445e-06
0.00411668
0.00408709
-0.00401911
1.25435e-05
-0.00412746
0.0041192
4.67885e-05
6.98938e-05
0.00401803
-0.00399842
-2.31877e-06
4.65789e-05
0.00399732
-0.00399615
-2.5795e-06
-2.95006e-06
0.00399491
-0.0039936
-2.86135e-06
-3.21167e-06
0.00399222
-0.00399075
-3.17619e-06
-3.5e-06
0.00398921
-0.00398757
-3.53107e-06
-3.82503e-06
0.00398584
-0.003984
-3.93323e-06
-4.19267e-06
0.0040633
-0.00405568
-4.39127e-06
-4.61148e-06
0.00412198
-0.00407552
-6.32251e-05
-5.08375e-06
0.00404694
-0.0040184
4.54045e-05
1.81207e-06
0.00406655
-0.00409063
3.55726e-05
-4.79471e-05
0.00396173
-0.00395843
-6.88808e-06
-6.91901e-06
0.00395494
-0.00395121
-7.74433e-06
-7.70724e-06
0.00394727
-0.00394305
-8.71843e-06
-8.60713e-06
0.00393859
-0.00397846
-9.83358e-06
-9.63611e-06
0.00397561
-0.00402991
-1.11148e-05
-1.08159e-05
0.00399761
-0.00393525
2.72479e-05
-1.21868e-05
-0.00388788
4.24774e-05
-0.00410533
-0.000141537
0.0040754
6.6991e-05
-1.01215e-06
0.00411581
0.000142888
-0.000133253
-0.00391486
0.000107938
-0.00385294
0.000142156
-0.00013819
-0.0041093
-0.00400635
-0.00403747
0.00397614
-9.84309e-05
0.00407924
-0.00410873
-0.000112044
-9.95149e-05
-0.00392967
0.00393454
-5.59144e-05
-8.18464e-05
-0.00393925
0.0039437
-1.32579e-05
-1.44119e-05
-0.00394785
0.00395178
-1.15869e-05
-1.26316e-05
-0.00395545
0.00395892
-1.01256e-05
-1.10826e-05
-0.00396218
0.00396525
-8.84789e-06
-9.72752e-06
-0.00396814
0.00405051
-7.73503e-06
-8.54713e-06
-0.00397342
0.00397585
-6.74762e-06
-7.51199e-06
-0.00408742
0.00401701
-5.88104e-06
-6.60598e-06
-0.00398232
0.00398426
-5.10966e-06
-5.78938e-06
-0.00398607
0.00398779
-4.43174e-06
-5.08065e-06
-0.00398941
0.00399095
-3.83145e-06
-4.4529e-06
-0.00399239
0.00399377
-3.2992e-06
-3.89777e-06
-0.00399506
0.00399629
-2.82704e-06
-3.40612e-06
-0.00399745
0.00399856
-2.40788e-06
-2.97075e-06
-0.0039996
0.00400059
-2.0314e-06
-2.58404e-06
-0.00400122
0.00403426
2.7238e-05
2.17422e-05
9.49292e-06
-1.85655e-05
0.00409213
1.75753e-06
0.00408313
-0.00402277
0.00406315
2.66098e-05
6.1516e-05
0.00406502
-0.00406542
4.719e-05
0.0040328
3.12012e-05
-1.37856e-06
4.65745e-05
0.00407061
0.00409673
0.00406546
-0.00403513
-1.77815e-05
6.99338e-05
0.0039996
-0.00399855
-3.36978e-06
1.10477e-05
0.00399745
-0.00399628
-3.74858e-06
-4.04817e-06
0.00399506
-0.00399376
-4.16597e-06
-4.43483e-06
0.00399239
-0.00399093
-4.63446e-06
-4.86684e-06
0.0039894
-0.00398777
-5.16276e-06
-5.35415e-06
0.00398606
-0.00398423
-5.75955e-06
-5.90516e-06
0.00398231
-0.00398027
-6.43641e-06
-6.53018e-06
0.00397811
-0.00403414
-7.20049e-06
-7.23674e-06
0.00402429
-0.00397082
-8.06485e-06
-8.03968e-06
0.00400982
-0.00396519
-9.05406e-06
-8.94884e-06
0.00396212
-0.00395884
-1.01692e-05
-9.98553e-06
0.00395538
-0.00395168
-1.14461e-05
-1.11683e-05
0.00394777
-0.00394358
-1.29057e-05
-1.25192e-05
0.00393915
-0.0039344
-1.45807e-05
-1.40678e-05
0.00392937
-0.00392397
-1.65079e-05
-1.58478e-05
0.00391826
-0.00387228
-1.87285e-05
-1.79041e-05
0.0038442
-0.00378556
4.92969e-05
1.44009e-05
-0.0041325
-0.000114423
9.31109e-05
-0.000158053
-0.00378799
-0.00375559
6.31352e-05
-0.000221359
-0.00385155
2.54846e-05
0.00403943
0.0040394
3.99773e-05
-7.32018e-05
9.23884e-05
-0.00412849
-7.55526e-05
-0.00413015
6.62928e-05
-0.000155549
-0.00369874
3.56497e-05
-0.00372494
-0.00413532
0.00407358
-0.00406107
1.40976e-05
0.00403235
6.67115e-05
7.07933e-05
-3.0167e-05
0.00402999
4.54898e-05
0.0040647
-0.00408399
0.0041338
-0.00012536
-0.000132186
0.000105982
-0.00410394
0.00416945
-6.69741e-05
0.000306717
-0.00440919
-4.67322e-05
-0.00413402
0.00410605
-8.40729e-05
-0.000114644
-0.00405737
0.00399696
-3.80195e-05
-5.08318e-05
-0.00397125
0.00393551
-2.01729e-05
-5.61442e-05
-0.00394016
0.00394455
-1.76448e-05
-1.90643e-05
-0.00394865
0.00395252
-1.54569e-05
-1.67305e-05
-0.00395614
0.00395957
-1.35514e-05
-1.47046e-05
-0.00396278
0.00396582
-1.18865e-05
-1.29376e-05
-0.00396866
0.00397136
-1.04288e-05
-1.1394e-05
-0.00397389
0.00397629
-9.1472e-06
-1.00417e-05
-0.00397853
0.00398067
-8.01901e-06
-8.85162e-06
-0.00398268
0.00398459
-7.0186e-06
-7.79969e-06
-0.00398638
0.00398808
-6.13551e-06
-6.87273e-06
-0.00398968
0.00399121
-5.35389e-06
-6.05282e-06
-0.00399264
0.003994
-4.66163e-06
-5.32814e-06
-0.00399528
0.0039965
-4.04805e-06
-4.68677e-06
-0.00399765
0.00399875
-3.50388e-06
-4.11905e-06
-0.00399978
0.00400076
-3.01759e-06
-3.61556e-06
-0.00401273
0.00402028
1.9684e-05
9.77731e-06
2.07332e-05
2.6511e-05
-9.99397e-06
0.00407561
-4.25111e-05
1.10518e-05
0.00407089
0.00406713
0.00405657
0.00405377
-0.00404886
4.22827e-05
-0.0040485
0.00402695
6.15224e-05
3.64722e-05
0.00400168
-0.0040155
-3.96684e-06
2.27554e-05
0.00399977
-0.00399873
-4.41149e-06
-4.67763e-06
0.00399764
-0.00399649
-4.90556e-06
-5.13419e-06
0.00399528
-0.00399399
-5.45682e-06
-5.64516e-06
0.00399263
-0.00399119
-6.07689e-06
-6.2189e-06
0.00398968
-0.00398806
-6.77631e-06
-6.86633e-06
0.00398637
-0.00398456
-7.56634e-06
-7.59816e-06
0.00398267
-0.00398064
-8.46088e-06
-8.42679e-06
0.00397852
-0.00397624
-9.47352e-06
-9.36563e-06
0.00397385
-0.0039713
-1.06204e-05
-1.04307e-05
0.0039686
-0.00396573
-1.19262e-05
-1.16409e-05
0.0039627
-0.00395946
-1.34099e-05
-1.30177e-05
0.00395604
-0.00395238
-1.51039e-05
-1.45884e-05
0.00394852
-0.00394438
-1.7042e-05
-1.63842e-05
0.00394
-0.00393532
-1.92665e-05
-1.84438e-05
0.00393035
-0.00392503
-2.18272e-05
-2.08123e-05
0.00391939
-0.00391334
-2.47834e-05
-2.35454e-05
0.00387223
-0.0037947
-2.82261e-05
-2.67091e-05
0.00374712
-0.00374875
3.72847e-05
1.55477e-05
4.95142e-05
-5.46571e-05
-0.0037198
-0.00372406
2.4821e-05
0.000127115
-0.00414962
-9.68584e-05
-0.00391024
3.85973e-05
0.00400481
0.00404129
3.11538e-05
0.000157457
-0.00432837
1.07689e-05
-0.00376416
0.000868152
-0.00346753
0.00451601
-4.38607e-05
1.41643e-05
-0.00369436
-8.64839e-05
-0.00367718
-0.00273962
0.00417638
0.000604512
-0.00212708
-0.000191229
-0.00410507
-0.00396635
0.00413905
0.000134022
0.000316852
-0.000106823
-0.00410352
0.00407068
-9.25179e-05
-1.12106e-05
-0.00404164
0.00399048
-3.29093e-05
-8.56055e-05
-0.0039705
0.00396115
-2.86753e-05
-3.08499e-05
-0.00393196
0.00393684
-2.50484e-05
-2.69534e-05
-0.00394139
0.00394569
-2.19412e-05
-2.3619e-05
-0.00394971
0.0039535
-1.92531e-05
-2.07487e-05
-0.00395706
0.00396042
-1.69144e-05
-1.82591e-05
-0.00396357
0.00396656
-1.48713e-05
-1.60894e-05
-0.00396936
0.00397201
-1.3081e-05
-1.41921e-05
-0.0039745
0.00397686
-1.1508e-05
-1.25289e-05
-0.00397907
0.00398118
-1.01222e-05
-1.10665e-05
-0.00398315
0.00398503
-8.89741e-06
-9.77619e-06
-0.0039868
0.00398847
-7.81406e-06
-8.63731e-06
-0.00399005
0.00399155
-6.85502e-06
-7.62978e-06
-0.00399296
0.00399431
-6.00554e-06
-6.73873e-06
-0.00399557
0.00399677
-5.25294e-06
-5.95023e-06
-0.00399791
0.00399899
-4.5859e-06
-5.25242e-06
-0.00400001
0.00400098
-3.99302e-06
-4.63441e-06
-0.00401485
0.004038
-3.46841e-06
-4.08651e-06
-0.00402898
0.0040272
1.58821e-05
2.97543e-05
-0.00404361
0.00403958
4.26268e-05
5.02954e-05
5.55364e-05
-3.1019e-05
0.00404637
-3.35938e-05
6.13705e-06
0.00406704
0.00402675
3.95196e-05
1.57709e-05
0.00402032
0.00407563
-2.67928e-05
1.76971e-05
0.00403908
0.00404555
-2.18857e-05
1.20467e-06
0.00406197
0.00406051
0.00406427
-0.00404942
4.66793e-05
-0.00412753
0.00401793
0.000110805
-3.21115e-05
0.00403883
-0.00402977
3.32212e-05
2.5879e-05
0.00400188
-0.00400095
-4.89185e-06
-5.13289e-06
0.00399999
-0.00399897
-5.43763e-06
-5.64003e-06
0.0039979
-0.00399675
-6.0464e-06
-6.20494e-06
0.00399556
-0.00399429
-6.72951e-06
-6.83853e-06
0.00399296
-0.00399153
-7.49859e-06
-7.55171e-06
0.00399004
-0.00398845
-8.36644e-06
-8.35667e-06
0.00398679
-0.003985
-9.34679e-06
-9.26648e-06
0.00398314
-0.00398114
-1.04562e-05
-1.02962e-05
0.00397904
-0.0039768
-1.17125e-05
-1.14631e-05
0.00397445
-0.00397193
-1.31372e-05
-1.27867e-05
0.00396928
-0.00396645
-1.47564e-05
-1.42903e-05
0.00396347
-0.00396028
-1.65988e-05
-1.60015e-05
0.00395691
-0.00395332
-1.87013e-05
-1.7953e-05
0.00394952
-0.00394545
-2.1107e-05
-2.01841e-05
0.00394115
-0.00393655
-2.38676e-05
-2.27423e-05
0.00393168
-0.00392646
-2.70451e-05
-2.56839e-05
0.00392093
-0.003915
-3.07156e-05
-2.90776e-05
0.0039087
-0.00390195
-3.4979e-05
-3.30081e-05
0.00384881
-0.00377156
-3.99639e-05
-3.7585e-05
0.00376851
-0.00374783
-6.52512e-06
2.17709e-05
2.08114e-05
-2.48697e-05
-0.0036903
-0.0037149
-1.21161e-05
0.000123248
-0.00411541
-2.86987e-05
-0.00387078
0.000315924
-0.00377614
1.15992e-05
-0.00386225
0.00404121
-0.00404664
4.80484e-05
0.00402754
1.98148e-05
4.83196e-05
-3.26133e-05
0.00404626
1.05659e-05
0.00405568
0.000312308
-0.00332296
2.25769e-05
-0.00372463
-0.00196734
-0.00210577
-0.0032485
0.00374186
0.000111156
4.72015e-05
-2.95213e-05
-0.00370798
1.48324e-05
-0.00368253
-0.00301357
-0.00042616
-0.00401052
-0.00390987
0.0039667
7.71918e-05
0.000148841
-0.00400346
0.00395562
-4.46791e-05
-4.79743e-05
-0.0039118
0.00391781
-3.89227e-05
-4.17815e-05
-0.00392345
0.00392878
-3.40045e-05
-3.64902e-05
-0.00393378
0.0039385
-2.97719e-05
-3.19514e-05
-0.00394292
0.0039471
-2.6121e-05
-2.80423e-05
-0.00395102
0.00395472
-2.29558e-05
-2.46635e-05
-0.00395819
0.00396148
-2.01994e-05
-2.1729e-05
-0.00396456
0.00396748
-1.77903e-05
-1.91698e-05
-0.00397021
0.00397281
-1.5678e-05
-1.69305e-05
-0.00397525
0.00397756
-1.38212e-05
-1.49658e-05
-0.00397973
0.0039818
-1.21851e-05
-1.32379e-05
-0.00398373
0.00398558
-1.074e-05
-1.17141e-05
-0.00398731
0.00398896
-9.46149e-06
-1.03685e-05
-0.0039905
0.00399198
-8.32925e-06
-9.17803e-06
-0.00399336
0.00399468
-7.32629e-06
-8.12459e-06
-0.00399593
0.00399711
-6.4375e-06
-7.19217e-06
-0.00399823
0.00399929
-5.65021e-06
-6.36693e-06
-0.00400029
0.00400125
-4.95234e-06
-5.6366e-06
-0.00400215
0.00400302
-4.33294e-06
-4.98994e-06
-0.00403719
0.00402387
2.9202e-05
-4.4183e-06
2.75321e-05
4.24293e-05
-6.86486e-05
0.00407259
-1.67335e-05
2.93118e-05
0.00405446
0.00405244
1.89915e-09
-6.57225e-07
0.00402098
0.00400699
-3.79484e-05
5.65171e-05
0.00402052
0.00400694
0.00408442
0.00406671
-0.00405415
3.41224e-05
-0.00401669
0.00405786
6.9638e-05
1.79068e-05
0.00404142
-0.00400298
-5.22584e-06
1.31517e-05
0.00400212
-0.00400121
-5.80081e-06
-5.98737e-06
0.00400027
-0.00399926
-6.44495e-06
-6.5864e-06
0.00399821
-0.00399709
-7.16731e-06
-7.25687e-06
0.00399591
-0.00399466
-7.97963e-06
-8.01098e-06
0.00399335
-0.00399196
-8.89501e-06
-8.86086e-06
0.00399049
-0.00398893
-9.92782e-06
-9.82026e-06
0.00398729
-0.00398555
-1.10948e-05
-1.09046e-05
0.00398371
-0.00398175
-1.24149e-05
-1.21315e-05
0.00397969
-0.0039775
-1.39099e-05
-1.35215e-05
0.00397519
-0.00397272
-1.56052e-05
-1.50979e-05
0.00397012
-0.00396735
-1.7531e-05
-1.68883e-05
0.00396442
-0.0039613
-1.97225e-05
-1.89253e-05
0.003958
-0.00395448
-2.22225e-05
-2.12475e-05
0.00395076
-0.00394679
-2.50816e-05
-2.39015e-05
0.00394259
-0.0039381
-2.8361e-05
-2.69428e-05
0.00393334
-0.00392825
-3.21337e-05
-3.04381e-05
0.00392286
-0.00391709
-3.64889e-05
-3.4468e-05
0.00391097
-0.00390441
-4.15369e-05
-3.91311e-05
0.00389745
-0.00389
-4.74116e-05
-4.45469e-05
0.00381737
-0.00376965
-5.42469e-05
-5.08584e-05
0.00372353
-0.00368684
-2.18593e-05
-5.82355e-05
5.30609e-05
-2.55844e-05
-0.00371001
-0.00365805
2.42714e-05
9.27538e-05
-0.00389224
1.98224e-06
-0.00386116
4.73466e-05
0.0040095
0.00404311
2.53092e-05
0.000186157
-0.00364999
-0.000461651
-0.00439576
-5.35566e-05
-0.00373105
1.24677e-05
-0.00385214
2.42306e-05
-0.00377838
-0.00432806
-0.000791272
0.000190932
-0.000494639
-0.00402436
-0.000289071
-0.00391576
-2.77485e-05
-0.00370582
1.04261e-05
-7.75661e-05
-0.00364287
4.36158e-05
-0.00369124
-0.00391578
-0.0035497
0.00371487
-5.4019e-05
0.00372651
-0.00409442
-0.000423357
-0.000249348
-0.00383568
0.00389559
1.72799e-05
2.80334e-05
-0.00390232
0.00390874
-5.1096e-05
-5.47068e-05
-0.0039148
0.00392056
-4.4676e-05
-4.78438e-05
-0.00392597
0.00393109
-3.91277e-05
-4.18993e-05
-0.0039359
0.00394045
-3.4327e-05
-3.67622e-05
-0.00394473
0.00394877
-3.0166e-05
-3.23157e-05
-0.00395257
0.00395616
-2.65484e-05
-2.84575e-05
-0.00395953
0.00396272
-2.33931e-05
-2.50993e-05
-0.00396572
0.00396856
-2.06322e-05
-2.21667e-05
-0.00397123
0.00397376
-1.82094e-05
-1.95981e-05
-0.00397614
0.0039784
-1.60784e-05
-1.73427e-05
-0.00398052
0.00398253
-1.41999e-05
-1.53579e-05
-0.00398442
0.00398622
-1.25406e-05
-1.36073e-05
-0.00398792
0.00398953
-1.10723e-05
-1.20608e-05
-0.00399104
0.00399248
-9.77172e-06
-1.06924e-05
-0.00399384
0.00399513
-8.61924e-06
-9.48099e-06
-0.00399635
0.00399751
-7.59791e-06
-8.40839e-06
-0.0039986
0.00399964
-6.69298e-06
-7.45883e-06
-0.00400063
0.00400157
-5.89138e-06
-6.61851e-06
-0.00400245
0.0040033
-5.18164e-06
-5.87515e-06
-0.0040041
0.00403785
-4.55141e-06
-5.21689e-06
-0.00404145
0.00405139
3.81093e-05
2.39314e-05
-0.00399779
0.00401533
2.98069e-05
7.34192e-05
6.63494e-05
-4.90091e-05
0.00403712
-1.2918e-05
-1.05873e-05
0.00403883
0.00406293
4.96473e-05
5.93246e-07
0.00402235
0.00405308
2.6888e-08
-6.53902e-07
0.0040216
0.00400761
1.27598e-06
-1.89995e-06
0.00402114
0.00400756
-2.75854e-05
2.1282e-05
0.00405257
0.00405493
-1.41817e-05
1.90723e-05
0.00403822
0.00406278
0.00407153
-0.0040251
2.32147e-05
-0.00405314
0.00402981
4.23975e-05
4.36993e-05
0.00403271
-0.00402341
2.48208e-05
2.55125e-05
0.00400405
-0.00400324
-6.02751e-06
-6.21019e-06
0.00400241
-0.00400152
-6.68925e-06
-6.82385e-06
0.00400059
-0.00399961
-7.43088e-06
-7.51249e-06
0.00399858
-0.00399748
-8.26463e-06
-8.28666e-06
0.00399633
-0.00399511
-9.20324e-06
-9.15868e-06
0.00399383
-0.00399246
-1.02614e-05
-1.0142e-05
0.00399103
-0.0039895
-1.14554e-05
-1.12522e-05
0.0039879
-0.00398619
-1.28042e-05
-1.25068e-05
0.0039844
-0.00398248
-1.43298e-05
-1.39261e-05
0.00398047
-0.00397832
-1.60571e-05
-1.55335e-05
0.00397606
-0.00397365
-1.80152e-05
-1.73558e-05
0.00397112
-0.00396841
-2.02387e-05
-1.94246e-05
0.00396556
-0.00396251
-2.27683e-05
-2.17774e-05
0.0039593
-0.00395587
-2.56521e-05
-2.44583e-05
0.00395225
-0.00394839
-2.89483e-05
-2.75203e-05
0.0039443
-0.00393994
-3.27259e-05
-3.10265e-05
0.00393532
-0.00393039
-3.70681e-05
-3.50526e-05
0.00392517
-0.00391958
-4.20747e-05
-3.96895e-05
0.00391367
-0.00390734
-4.78667e-05
-4.50473e-05
0.00390063
-0.00389345
-5.45873e-05
-5.12568e-05
0.00388584
-0.00387769
-6.23972e-05
-5.84707e-05
0.00386905
-0.0038194
-7.15012e-05
-6.68758e-05
0.00377053
-0.00369461
-3.23029e-05
-2.46017e-05
-1.47486e-05
-2.80833e-05
-0.00364841
-0.00368459
-2.47683e-05
6.31495e-05
-0.00376923
-0.00414037
-0.000448689
3.52565e-05
-0.00373881
0.00406722
-0.00407688
3.94713e-05
0.00406407
-7.44351e-06
4.079e-05
-3.48632e-05
0.0040323
5.11576e-05
0.00401944
2.19921e-06
-0.00385089
1.34096e-05
-0.00384132
-9.12212e-05
-0.0039289
2.59598e-05
-0.00383209
4.00132e-05
-0.0038234
5.56791e-05
-0.00372663
-5.44495e-07
2.45041e-05
-0.00367237
-5.32406e-05
-0.0036319
-0.00385043
-0.00401114
0.00382938
-0.000241602
-0.000380983
0.00049442
-0.00425381
0.004173
-0.00433136
-0.000222626
-0.00028683
-0.00369873
0.00376982
-0.000125116
-0.00011869
-0.00385103
0.00389961
-3.12952e-05
-5.31756e-05
-0.0039061
0.00391226
-5.72543e-05
-6.11985e-05
-0.00391806
0.00392357
-5.01842e-05
-5.3647e-05
-0.00392875
0.00393366
-4.40409e-05
-4.70812e-05
-0.00393828
0.00394266
-3.87047e-05
-4.13805e-05
-0.00394677
0.00395067
-3.40638e-05
-3.64281e-05
-0.00395433
0.0039578
-3.00186e-05
-3.21179e-05
-0.00396106
0.00396415
-2.64838e-05
-2.83579e-05
-0.00396705
0.00396981
-2.33866e-05
-2.50693e-05
-0.00397239
0.00397485
-2.06663e-05
-2.21855e-05
-0.00397716
0.00397935
-1.82718e-05
-1.9651e-05
-0.00398141
0.00398337
-1.61596e-05
-1.74189e-05
-0.00398522
0.00398697
-1.42931e-05
-1.54492e-05
-0.00398862
0.00399018
-1.26413e-05
-1.37084e-05
-0.00399166
0.00399307
-1.11776e-05
-1.21678e-05
-0.00399439
0.00399565
-9.88025e-06
-1.08034e-05
-0.00399684
0.00399797
-8.73016e-06
-9.59486e-06
-0.00399903
0.00400005
-7.7109e-06
-8.52451e-06
-0.00400101
0.00400193
-6.80802e-06
-7.57707e-06
-0.00400279
0.00400362
-6.00869e-06
-6.739e-06
-0.0040044
0.00400515
-5.29925e-06
-5.99761e-06
-0.00403442
0.00404948
2.30463e-05
-5.34086e-06
4.60195e-05
1.81699e-05
-4.35949e-05
0.00406254
-2.92926e-05
6.35562e-07
0.00406749
0.00405181
-1.12601e-06
5.35591e-07
0.00402294
0.00400836
5.63977e-08
-6.5386e-07
0.0040222
0.0040082
1.24889e-06
-1.84396e-06
0.00402173
0.00400816
-4.48464e-05
3.25497e-05
0.00406486
0.00400824
0.00406047
0.00406584
-0.0040679
2.52678e-05
-0.00405748
0.00404014
5.97352e-05
5.2067e-05
0.00403605
-0.00400508
-6.15018e-06
-6.3356e-06
0.00400434
-0.00400356
-6.81119e-06
-6.94734e-06
0.00400274
-0.00400188
-7.55537e-06
-7.63837e-06
0.00400097
-0.00400001
-8.39251e-06
-8.41563e-06
0.00399901
-0.00399794
-9.33481e-06
-9.29105e-06
0.00399682
-0.00399562
-1.03963e-05
-1.02779e-05
0.00399437
-0.00399304
-1.15932e-05
-1.13911e-05
0.00399165
-0.00399016
-1.29438e-05
-1.26478e-05
0.0039886
-0.00398693
-1.44693e-05
-1.40678e-05
0.00398519
-0.00398332
-1.6194e-05
-1.56737e-05
0.00398136
-0.00397927
-1.81463e-05
-1.74916e-05
0.00397708
-0.00397473
-2.03584e-05
-1.95518e-05
0.00397227
-0.00396964
-2.28693e-05
-2.18896e-05
0.00396687
-0.00396391
-2.57239e-05
-2.45466e-05
0.0039608
-0.00395748
-2.89764e-05
-2.75724e-05
0.00395397
-0.00395023
-3.26908e-05
-3.10255e-05
0.00394628
-0.00394206
-3.69437e-05
-3.49759e-05
0.00393761
-0.00393285
-4.18266e-05
-3.95072e-05
0.00392782
-0.00392244
-4.74491e-05
-4.47195e-05
0.00391676
-0.00391068
-5.3942e-05
-5.07324e-05
0.00390425
-0.00389738
-6.14596e-05
-5.76881e-05
0.0038901
-0.00388231
-7.01804e-05
-6.57527e-05
0.00387407
-0.00386526
-8.03122e-05
-7.51207e-05
0.00380386
-0.00374407
-9.20993e-05
-8.59961e-05
0.00371232
-0.00370809
-5.74725e-05
-5.6516e-05
-0.000262418
6.67269e-05
-0.00372007
-0.00379236
-1.5194e-05
3.89894e-05
-0.00365569
-0.00363965
-8.36306e-05
8.50592e-06
-0.00374248
4.49057e-05
0.0040198
0.00407446
1.68384e-05
0.000172509
-0.0042881
-0.000215766
2.48165e-06
-0.00383996
0.000278468
-0.00435977
-1.97908e-05
-0.00381024
1.43861e-05
-0.00382974
-1.7343e-05
-0.00384483
2.7823e-05
-0.0038199
4.29391e-05
-0.00381066
5.98242e-05
-0.00376195
3.8175e-05
-0.00367155
-5.35339e-05
4.14762e-05
-0.00364363
-6.09546e-05
-0.00363223
-0.00383945
-0.00426633
0.00410216
-5.84625e-05
-0.000321081
-0.00421526
0.000248242
0.00437659
-0.00426256
-0.000435112
-0.000105505
-0.00399385
0.00391292
-0.00016067
-0.000178513
-0.00388221
0.00383934
-8.2251e-05
-8.79823e-05
-0.00386307
0.00390382
-7.20388e-05
-7.69064e-05
-0.00391007
0.00391599
-6.31688e-05
-6.74519e-05
-0.00392155
0.00392682
-5.54545e-05
-5.92064e-05
-0.00393177
0.00393647
-4.87424e-05
-5.20384e-05
-0.0039409
0.00394509
-4.28992e-05
-4.58023e-05
-0.00394903
0.00395278
-3.78052e-05
-4.03719e-05
-0.00395629
0.00395963
-3.33561e-05
-3.56351e-05
-0.00396277
0.00396575
-2.94615e-05
-3.14949e-05
-0.00396854
0.0039712
-2.60447e-05
-2.78682e-05
-0.0039737
0.00397608
-2.30405e-05
-2.46842e-05
-0.00397831
0.00398043
-2.03937e-05