/*--------------------------------*- C++ -*----------------------------------*\
  =========                 |
  \\      /  F ield         | OpenFOAM: The Open Source CFD Toolbox
   \\    /   O peration     | Website:  https://openfoam.org
    \\  /    A nd           | Version:  10
     \\/     M anipulation  |
\*---------------------------------------------------------------------------*/
FoamFile
{
    format      ascii;
    class       volVectorField;
    location    "31.5";
    object      U;
}
// * * * * * * * * * * * * * * * * * * * * * * * * * * * * * * * * * * * * * //

dimensions      [0 1 -1 0 0 0 0];

internalField   nonuniform List<vector> 
6397
(
(4.35649 -0.753722 1.01053e-19)
(4.24371 -0.571324 -4.44342e-19)
(3.42447 -0.0790504 0)
(3.45791 -0.41461 2.35997e-21)
(3.25536 -0.802943 3.04521e-20)
(3.23237 -0.429535 6.23772e-20)
(3.52975 -2.16948 -3.5522e-19)
(1.94305 -3.72369 1.17237e-18)
(-0.435253 1.74215 4.59964e-19)
(-1.46261 1.58198 -2.35586e-19)
(1.78821 2.85874 1.27094e-18)
(3.546 3.53378 -1.69813e-19)
(3.69526 0.103194 -2.36255e-20)
(3.69542 0.090932 -8.9455e-21)
(2.5445 0.110353 1.57148e-20)
(-1.26412 -0.513816 -1.58814e-18)
(0.0685544 0.0818323 -7.75316e-19)
(-2.282 0.459208 8.51418e-19)
(1.33679 -0.0622314 8.07256e-19)
(2.11113 -0.674075 -2.4585e-18)
(1.83783 -0.132933 -1.22134e-18)
(2.07562 0.0117681 -3.54684e-18)
(0.721763 0.0985312 1.72818e-19)
(3.95588 0.54366 -2.55637e-18)
(4.07122 0.12645 0)
(4.33147 0.0730568 -3.60346e-21)
(4.44273 0.123109 -2.92885e-21)
(3.05118 2.57895 1.99911e-19)
(3.07376 2.61229 -5.01881e-20)
(2.87506 2.26593 9.24006e-20)
(2.9702 2.45185 -1.39649e-19)
(3.77633 -0.972197 9.2685e-20)
(3.75877 -0.650926 6.64507e-20)
(3.51137 -0.754325 -2.27292e-19)
(4.41385 -1.10052 1.86611e-20)
(4.33022 -0.877698 0)
(4.17706 -1.05103 -2.67466e-20)
(3.97947 -0.84706 -6.15993e-20)
(4.72264 -0.815168 4.31195e-20)
(4.86313 -0.886694 -2.153e-20)
(4.73288 -1.03717 0)
(4.51514 -0.884528 0)
(2.7679 1.9628 -4.37113e-20)
(2.77383 0.0440327 3.48475e-20)
(2.84189 0.501908 -3.43934e-20)
(3.21256 -0.0480646 1.1492e-19)
(2.99469 -0.434518 4.51379e-20)
(2.99477 -0.00861708 -1.34318e-19)
(5.18156 -0.594504 2.42102e-20)
(4.95213 -0.45509 -5.12361e-21)
(4.88849 -0.328189 6.61594e-20)
(4.60317 -0.26057 -2.07939e-20)
(4.7364 -0.310161 -1.38523e-19)
(4.38928 0.928979 -1.45987e-19)
(3.44542 0.636281 9.42226e-20)
(4.03585 0.0514098 4.44593e-20)
(4.05238 0.0658351 4.32086e-20)
(4.31005 -0.0585942 -3.21152e-20)
(2.3404 1.00135 -1.27105e-19)
(2.52485 1.58044 1.26343e-19)
(2.22892 0.288231 1.41408e-19)
(2.21345 -0.47882 -1.38738e-19)
(2.31348 -1.21381 -1.34463e-19)
(2.47287 -1.84502 1.32197e-19)
(2.67924 -2.32591 0)
(2.8715 -2.6524 9.76737e-20)
(3.05091 -2.8448 -1.02674e-19)
(3.16654 -2.9262 0)
(2.54612 1.39382 -6.91809e-20)
(2.72319 2.00279 -1.79881e-21)
(2.74449 1.82811 6.47721e-20)
(2.38156 0.843779 0)
(2.2763 0.188738 0)
(2.27254 -0.50927 0)
(2.35964 -1.17116 -2.54667e-22)
(2.51958 -1.74079 5.08051e-23)
(2.71766 -2.18523 0)
(2.9179 -2.50325 -7.57096e-24)
(3.10999 -2.71134 0)
(3.25539 -2.84807 0)
(2.91348 2.14429 -6.92288e-20)
(2.89489 2.28033 5.46518e-21)
(3.24153 -2.94281 0)
(3.36701 -2.91988 0)
(3.06444 2.37417 -3.3128e-21)
(3.00768 2.45466 0)
(3.21914 -2.86875 0)
(3.40281 -2.90577 0)
(3.15006 2.52652 1.47901e-19)
(3.08084 2.5633 -2.10609e-20)
(3.14378 -2.65185 0)
(3.38534 -2.72213 0)
(3.20725 2.59284 -1.23113e-19)
(3.21944 2.5915 -9.35781e-20)
(3.02882 -2.19457 0)
(3.32349 -2.25172 2.94506e-20)
(3.2464 2.4325 0)
(3.42079 2.56242 1.74268e-19)
(3.34136 2.55513 1.02754e-20)
(2.97907 1.96458 -3.62132e-20)
(3.1328 2.23892 0)
(2.62754 1.19703 -1.82193e-20)
(2.81899 1.63286 3.58179e-20)
(2.41026 0.0932284 2.11442e-20)
(2.50574 0.682274 1.59665e-20)
(2.50811 -1.09852 2.55072e-22)
(2.43217 -0.517119 -2.17381e-20)
(2.84178 -2.03985 -1.5846e-21)
(2.65629 -1.61629 -2.31594e-20)
(3.25292 -2.57657 -2.42259e-20)
(3.03796 -2.35628 4.77266e-20)
(3.57983 -2.83057 0)
(3.42524 -2.72931 0)
(3.72023 -2.69348 0)
(3.66252 -2.84266 0)
(3.73588 -2.23041 -6.01665e-20)
(3.13454 -2.78569 -1.18507e-19)
(2.87496 -2.078 -8.02619e-20)
(3.02572 -2.54195 1.17013e-19)
(3.1479 -2.94361 1.01873e-19)
(3.18416 -2.9025 -9.95641e-20)
(2.92405 -2.74207 8.889e-22)
(3.06646 -2.89737 3.16973e-21)
(2.56415 -1.93865 0)
(2.7524 -2.429 0)
(2.3509 -0.428001 2.00903e-19)
(2.4257 -1.24845 2.78938e-20)
(2.46118 1.19101 3.4805e-20)
(2.37179 0.432069 -1.99081e-19)
(2.79254 2.17674 6.35165e-20)
(2.61741 1.78849 -8.01877e-21)
(3.03232 2.51891 -8.97484e-20)
(2.94465 2.40167 -5.81587e-20)
(3.03094 2.54445 0)
(3.05959 2.56805 9.85991e-20)
(3.18586 2.46979 -1.21044e-19)
(2.97782 2.41628 3.46879e-21)
(3.47101 2.44641 6.0438e-20)
(3.78508 -1.37928 -1.13043e-19)
(3.29117 -1.43785 2.73531e-20)
(2.83627 -1.93078 -6.52022e-22)
(2.75461 -1.35544 8.05155e-20)
(2.69274 -1.25452 0)
(3.81664 -0.23972 7.77178e-20)
(4.36197 -1.28451 -1.54353e-19)
(4.42689 -0.118655 1.53493e-19)
(2.85293 2.12684 4.21959e-20)
(3.65833 2.50319 -8.52189e-20)
(3.79539 2.42406 -5.77803e-20)
(2.72658 1.81161 4.29169e-20)
(2.94084 -1.41195 7.33042e-21)
(3.43972 2.30287 0)
(3.55015 2.45229 -9.95728e-21)
(3.13505 1.79759 -9.25127e-22)
(3.27261 2.08213 0)
(2.81226 1.03246 -1.23377e-21)
(2.94694 1.44328 5.34164e-22)
(2.63383 0.0463236 0)
(2.68348 0.564564 1.58963e-21)
(2.69691 -1.00559 0)
(2.62535 -0.482686 7.63878e-22)
(2.99275 -1.85858 0)
(2.81244 -1.47449 1.65579e-21)
(3.42481 -2.36069 -7.9979e-22)
(3.19037 -2.14133 2.08432e-21)
(3.83645 -2.67977 2.22003e-21)
(3.63291 -2.53971 -3.47788e-21)
(4.13753 -2.60504 -2.81402e-21)
(3.99827 -2.73781 -2.41295e-21)
(4.25964 -2.14322 3.0377e-20)
(3.15746 -2.67473 1.18255e-21)
(3.01912 -2.38285 1.69997e-21)
(3.26959 -2.97171 -9.81004e-23)
(3.24627 -2.86103 0)
(3.1321 -2.87552 0)
(3.22899 -2.987 -1.86241e-21)
(2.85735 -2.04459 0)
(2.98431 -2.56904 0)
(2.69714 -0.356812 -2.84753e-22)
(2.73704 -1.26179 -2.83061e-20)
(2.73683 1.41587 -2.54033e-20)
(2.67615 0.588832 0)
(2.96851 2.37202 -6.77126e-20)
(2.83346 2.00685 0)
(3.12571 2.56623 2.9998e-21)
(3.07276 2.5307 6.78642e-20)
(3.0536 2.48099 6.39305e-23)
(3.11242 2.55242 1.02763e-20)
(2.95792 2.34446 -3.93802e-20)
(3.15625 2.19888 2.18384e-20)
(2.91449 2.1257 0)
(3.86345 2.18745 4.43297e-20)
(3.48987 2.2055 -3.92533e-20)
(2.6051 -0.373914 0)
(2.69123 -0.382517 0)
(3.29409 -0.320256 -3.64075e-20)
(4.93299 -1.09361 -1.47941e-20)
(5.02099 0.0496599 0)
(4.44867 1.1139 -1.96394e-20)
(3.87525 1.00364 1.02315e-20)
(2.62597 -0.341187 0)
(2.60294 0.594022 0)
(2.60806 0.523399 -3.72064e-20)
(2.67987 1.5543 6.53594e-20)
(2.60368 1.40998 0)
(3.94748 1.7667 -9.92636e-20)
(4.26381 2.12457 -6.67089e-22)
(4.3958 1.72614 2.27924e-19)
(2.78497 1.63003 0)
(2.92988 1.93776 -2.15493e-20)
(2.91701 -0.366964 0)
(3.92834 2.3734 5.79279e-21)
(4.17406 2.30402 0)
(3.61199 2.13745 -5.82986e-24)
(3.82074 2.30482 1.90831e-21)
(3.29081 1.60254 1.82026e-22)
(3.46007 1.91171 0)
(3.00914 0.877441 -3.2082e-23)
(3.12249 1.27095 4.96e-22)
(2.85331 0.00635795 3.239e-23)
(2.88109 0.465753 6.49719e-22)
(2.89325 -0.9257 -2.249e-21)
(2.82191 -0.460429 0)
(3.17938 -1.674 0)
(2.9943 -1.33772 2.29182e-21)
(3.61138 -2.15906 -7.46256e-22)
(3.37717 -1.94565 1.61716e-22)
(4.09144 -2.46264 0)
(3.84494 -2.33048 -1.75687e-22)
(4.5619 -2.40963 -2.69571e-21)
(4.32447 -2.5379 7.98163e-21)
(4.77443 -1.95121 2.94049e-20)
(2.90306 -1.76601 -6.92694e-21)
(2.74351 -1.13265 2.38873e-23)
(3.27062 -2.55537 -3.40818e-21)
(3.09833 -2.22575 1.1419e-20)
(3.46554 -2.96807 -2.9851e-21)
(3.39037 -2.79525 -1.04652e-20)
(3.4449 -2.98901 0)
(3.4769 -3.04462 1.57281e-20)
(3.30301 -2.16417 0)
(3.37514 -2.70984 0)
(3.16409 -0.415578 5.91309e-22)
(3.22275 -1.37199 0)
(3.15289 1.44971 0)
(3.13515 0.576534 0)
(3.24734 2.44486 0)
(3.18845 2.08971 0)
(3.28498 2.56015 2.0839e-20)
(3.28497 2.56567 0)
(3.15478 2.36172 -6.32925e-23)
(3.23592 2.48467 -2.12914e-20)
(3.02966 2.18788 2.39268e-20)
(3.13478 1.75502 4.05697e-20)
(2.8481 1.69636 -6.12508e-20)
(3.5118 1.78913 8.95466e-20)
(5.00313 1.26098 1.2667e-19)
(2.72568 0.680251 0)
(3.36279 0.882727 4.638e-20)
(2.69062 1.33515 3.92265e-20)
(2.69352 1.48616 0)
(4.4529 2.16554 1.74318e-20)
(3.92742 2.06998 4.61687e-20)
(3.99614 1.21966 1.06777e-21)
(4.49873 1.20034 4.78347e-21)
(2.58332 1.00686 6.48061e-20)
(2.49243 0.911588 3.9998e-20)
(3.0462 1.79469 1.01454e-20)
(2.89229 1.46445 0)
(4.65446 2.00247 4.74535e-21)
(4.82265 1.63757 8.03175e-21)
(4.95061 2.27557 -1.2702e-19)
(4.83308 2.90643 -1.24251e-20)
(4.40058 2.86486 -8.07589e-20)
(2.64554 1.23904 1.60468e-20)
(2.96992 0.773759 0)
(4.21136 2.2464 8.01459e-21)
(4.52044 2.18823 -3.88823e-20)
(3.79969 1.97178 1.83057e-23)
(4.0952 2.15898 4.15183e-21)
(3.466 1.43189 0)
(3.6934 1.73702 0)
(3.20373 0.753914 -1.55768e-23)
(3.33971 1.1211 2.51886e-27)
(3.04443 -0.0406779 -3.21017e-23)
(3.09169 0.379066 0)
(3.08694 -0.846691 0)
(3.0139 -0.450129 3.00238e-27)
(3.37697 -1.48739 0)
(3.1901 -1.19481 0)
(3.8279 -1.90953 0)
(3.57312 -1.72954 0)
(4.34322 -2.20584 0)
(4.074 -2.07386 0)
(4.90649 -2.14873 0)
(4.60721 -2.27801 0)
(5.36995 -0.936868 -2.26883e-20)
(5.16618 -1.73036 0)
(5.40932 1.28294 0)
(5.46062 0.146673 1.74048e-21)
(5.07472 2.74511 0)
(5.28427 2.21055 -1.75056e-20)
(2.72833 -0.26209 -4.05666e-21)
(2.77566 1.20683 -5.44438e-21)
(2.70465 0.489742 4.07432e-21)
(3.03927 -1.57288 1.58476e-21)
(2.85114 -0.973546 -2.38821e-23)
(3.44749 -2.41767 -1.58373e-21)
(3.24814 -2.04709 -1.87562e-21)
(3.72907 -2.92551 -1.34859e-23)
(3.60768 -2.70629 0)
(3.8451 -3.03333 0)
(3.80335 -3.05464 0)
(3.84877 -2.2503 0)
(3.85282 -2.78346 0)
(3.78644 -0.470057 1.14768e-23)
(3.81232 -1.45274 0)
(3.72196 1.46382 0)
(3.74195 0.557957 0)
(3.63406 2.46757 0)
(3.67236 2.11181 0)
(3.51725 2.5068 1.31221e-20)
(3.57936 2.55831 -1.36519e-20)
(3.27825 2.245 4.2299e-21)
(3.4054 2.38489 -8.03328e-22)
(3.14198 2.05473 -1.62724e-20)
(3.0899 1.16897 -6.38128e-20)
(2.77549 1.1107 -7.01465e-20)
(3.5031 1.22847 0)
(2.85086 1.96689 0)
(2.93472 1.77268 4.03033e-21)
(4.69664 3.15369 5.34624e-20)
(4.86165 2.92716 0)
(2.81869 1.64521 0)
(3.45342 1.93091 0)
(4.97045 1.14931 0)
(2.52367 0.769611 -3.95638e-20)
(3.17984 1.63155 -1.33576e-21)
(3.02642 1.30651 0)
(2.86373 2.16515 3.99261e-21)
(3.99096 2.80717 -6.32684e-20)
(3.16479 2.09925 2.83859e-21)
(3.07737 2.35154 -2.30496e-21)
(4.3305 3.18812 9.39761e-20)
(4.52113 3.06913 -1.98766e-20)
(4.57669 2.78815 0)
(2.78448 1.09041 2.31926e-20)
(3.07628 1.79614 0)
(5.00076 1.84348 -4.46032e-20)
(5.3681 1.06573 -5.13068e-20)
(5.19063 1.53414 -1.77355e-19)
(4.50582 2.07623 -3.07983e-21)
(4.7934 2.03764 3.48508e-20)
(4.03172 1.7998 0)
(4.34726 1.98041 9.90204e-22)
(3.64872 1.28069 -2.55206e-27)
(3.91988 1.55784 2.65359e-27)
(3.3545 0.641282 -1.05725e-23)
(3.54746 0.976526 0)
(3.199 -0.0676022 0)
(3.27615 0.296985 0)
(3.27029 -0.745548 5.73711e-23)
(3.20723 -0.413323 -3.00241e-27)
(3.57094 -1.29059 -2.93298e-27)
(3.3872 -1.03816 3.04551e-27)
(4.04932 -1.66601 0)
(3.78611 -1.49679 0)
(4.57453 -1.94822 -5.77549e-24)
(4.29919 -1.82659 0)
(5.17019 -1.86692 -4.38553e-23)
(4.85453 -1.9891 0)
(5.69142 -0.799664 -5.24936e-21)
(5.45551 -1.49067 0)
(5.71342 1.21725 3.12744e-20)
(5.78268 0.177473 1.1768e-20)
(5.18288 2.49075 1.29777e-20)
(5.49649 2.04752 -1.36e-20)
(4.54927 2.41692 -2.26143e-21)
(4.87221 2.59156 -1.29612e-20)
(2.90406 1.09631 4.66508e-23)
(3.32182 1.82155 1.01171e-21)
(3.05894 1.55895 -3.12224e-22)
(2.89281 -0.207843 -2.31288e-22)
(2.83966 0.463125 -1.5185e-23)
(3.20054 -1.38968 -1.09362e-22)
(3.01624 -0.837556 -3.3172e-23)
(3.63368 -2.24283 0)
(3.41638 -1.85315 3.97097e-22)
(4.01156 -2.82332 -1.21946e-22)
(3.83205 -2.56487 -3.12504e-27)
(4.28926 -3.01043 0)
(4.15695 -2.99412 0)
(4.4592 -2.28674 -2.45866e-22)
(4.38066 -2.79198 0)
(4.46052 -0.529297 -3.24856e-22)
(4.46628 -1.50513 0)
(4.32663 1.38809 0)
(4.39205 0.493326 0)
(4.0817 2.371 0)
(4.19786 2.03131 0)
(3.79444 2.39009 0)
(3.92241 2.46511 0)
(3.47154 2.08815 0)
(3.61243 2.24529 5.37798e-22)
(3.29006 1.88496 -3.55704e-22)
(3.45531 2.21365 -3.22454e-21)
(3.63179 1.90967 0)
(4.28301 2.50319 -7.89714e-22)
(4.26731 2.12954 1.98824e-21)
(2.64407 0.636319 0)
(2.95563 0.92674 7.06981e-21)
(2.48568 0.229385 -3.04626e-20)
(2.60382 0.144369 4.48772e-21)
(2.53982 0.34325 3.93264e-20)
(2.46819 0.304869 -8.7e-21)
(3.05209 0.463182 -2.07592e-21)
(2.72468 0.415218 -3.5377e-20)
(4.01 0.535323 -1.16354e-19)
(3.49663 0.52756 1.25164e-20)
(4.99465 0.566522 0)
(4.52358 0.558536 1.0985e-19)
(5.38988 0.560803 9.19117e-20)
(2.98733 2.37025 -4.02553e-21)
(3.5805 2.69242 -2.64787e-26)
(3.05943 2.57175 2.3144e-21)
(4.03065 3.17542 0)
(3.32171 2.48491 0)
(4.2388 3.16591 0)
(3.92001 1.96081 -6.27788e-24)
(3.73537 2.24656 4.62559e-23)
(4.33086 2.80895 -3.27222e-20)
(4.00339 1.82561 -1.90589e-21)
(3.98945 2.14646 -2.11227e-21)
(5.64177 0.967952 6.64913e-20)
(5.68125 0.548759 -7.2376e-20)
(3.21798 2.53302 -2.03961e-26)
(5.26708 1.65904 7.66831e-21)
(5.46504 1.41305 -1.86998e-20)
(4.74829 1.84341 1.51721e-21)
(5.01308 1.84454 0)
(4.24007 1.58344 -1.72392e-27)
(4.52397 1.75739 -1.37375e-21)
(3.79927 1.09764 0)
(4.06691 1.35249 0)
(3.48115 0.515929 5.79701e-23)
(3.68148 0.810328 0)
(3.34862 -0.0936493 0)
(3.4341 0.210482 0)
(3.4315 -0.665814 -1.22443e-22)
(3.39199 -0.393942 0)
(3.73316 -1.10475 -5.98809e-23)
(3.57042 -0.914987 0)
(4.17208 -1.41895 0)
(3.95108 -1.27804 0)
(4.67935 -1.6663 -2.13859e-23)
(4.41005 -1.56368 0)
(5.30244 -1.58933 3.7186e-23)
(4.9798 -1.69609 0)
(5.83576 -0.650128 3.96026e-23)
(5.59299 -1.25038 -3.56528e-27)
(5.90263 1.08728 -6.3172e-23)
(5.93783 0.195721 0)
(5.39495 2.18517 -3.56315e-21)
(5.69845 1.81042 4.43895e-21)
(4.67229 2.07603 1.32655e-20)
(5.02639 2.24577 3.77943e-21)
(4.08364 1.53154 -2.37949e-20)
(4.3611 1.80432 2.97231e-21)
(3.4854 1.55207 8.93862e-24)
(4.03181 1.76507 -3.45961e-23)
(3.77991 1.64308 0)
(3.05318 0.987187 4.37567e-22)
(3.21336 1.3502 -9.18283e-22)
(3.03832 -0.109493 1.81003e-22)
(2.9866 0.473349 1.15187e-22)
(3.37841 -1.20855 -1.35986e-23)
(3.18114 -0.681035 9.93869e-23)
(3.83477 -2.05104 0)
(3.60449 -1.66209 0)
(4.27891 -2.64401 5.20015e-23)
(4.05754 -2.37733 -3.7094e-27)
(4.69573 -2.871 1.21793e-26)
(4.48309 -2.82685 -1.2889e-26)
(5.02389 -2.23419 3.66163e-23)
(4.86724 -2.68953 0)
(5.11767 -0.574495 0)
(5.09691 -1.50283 0)
(4.92368 1.27825 2.20967e-22)
(5.04554 0.413917 0)
(4.5223 2.20232 0)
(4.73214 1.88619 0)
(4.08182 2.19598 3.89618e-23)
(4.28653 2.2756 0)
(3.66647 1.89558 1.13014e-23)
(3.85747 2.0486 2.6002e-22)
(3.3255 1.47615 8.5246e-21)
(3.46354 1.71071 0)
(3.11349 0.795499 6.79745e-20)
(3.1961 1.1667 -4.18512e-20)
(3.05225 0.408251 -8.14358e-21)
(2.52657 -0.369127 0)
(2.77938 -0.406192 2.02716e-21)
(2.62599 -0.353174 -6.74519e-21)
(2.52247 -0.342133 0)
(2.47812 -0.355518 0)
(3.01342 -0.279731 -5.12893e-20)
(2.69139 -0.316429 -1.0687e-26)
(3.97601 -0.165821 2.90973e-20)
(3.45035 -0.212404 9.29193e-20)
(5.01434 -0.0628408 0)
(4.5198 -0.0970932 -8.13587e-20)
(4.13552 2.06922 -1.57177e-23)
(4.22378 1.92238 -1.88087e-22)
(3.78083 1.62563 2.33981e-20)
(3.8238 1.32789 6.05657e-20)
(5.68115 0.00401311 -6.86997e-20)
(5.41182 -0.0299811 3.17303e-20)
(3.16817 2.78381 -1.75771e-25)
(3.67698 3.07814 0)
(3.26999 2.71207 0)
(4.05478 3.19575 -3.54448e-25)
(3.57895 2.49017 -2.01998e-23)
(4.14121 2.93389 -7.89308e-21)
(3.97677 2.33953 2.90237e-23)
(4.09981 2.50117 0)
(4.45816 2.04679 6.11654e-21)
(4.34177 2.20907 -2.82253e-24)
(3.68659 1.87365 5.82629e-21)
(3.57544 1.16084 -6.46775e-20)
(3.58545 1.47139 -9.51993e-21)
(4.49691 1.73628 1.84146e-21)
(4.73854 2.12426 -6.17641e-21)
(4.76314 1.77953 -3.91664e-21)
(3.32117 0.991932 -4.1062e-20)
(3.41695 0.857062 8.97313e-20)
(3.22708 0.742452 1.57539e-20)
(5.81695 0.0301036 -1.63518e-20)
(5.52744 -0.394912 0)
(5.68775 -0.270814 1.8576e-20)
(3.35463 2.94282 -1.22225e-26)
(5.76671 0.872728 -7.44445e-21)
(5.83158 0.522117 -3.02471e-20)
(5.38728 1.45806 1.02808e-20)
(5.60208 1.26644 7.3561e-21)
(4.86605 1.57272 0)
(5.13966 1.60599 0)
(4.33912 1.32968 0)
(4.6116 1.49589 0)
(3.89506 0.907038 0)
(4.13417 1.11915 0)
(3.59886 0.418128 0)
(3.77074 0.642656 0)
(3.48278 -0.0896715 -8.38046e-27)
(3.56386 0.141589 8.70725e-27)
(3.56057 -0.548703 6.50632e-23)
(3.53059 -0.351154 8.68726e-27)
(3.82463 -0.896361 5.98815e-23)
(3.69913 -0.750089 0)
(4.17698 -1.20099 0)
(4.00555 -1.06201 0)
(4.68374 -1.40778 -1.75529e-23)
(4.41163 -1.32712 0)
(5.30718 -1.31911 3.06793e-23)
(4.99842 -1.41185 0)
(5.77538 -0.508652 -3.95973e-23)
(5.57536 -1.01742 0)
(5.78767 0.974554 -2.54437e-23)
(5.84775 0.225931 3.20369e-28)
(5.35381 1.84119 3.43377e-21)
(5.60349 1.58052 0)
(4.64496 1.65288 -7.03893e-21)
(5.02292 1.83403 -3.83626e-21)
(3.9336 1.17651 3.28702e-20)
(4.26156 1.41373 -2.24569e-20)
(3.64573 0.986284 -7.91188e-20)
(4.01193 1.55071 2.31466e-21)
(4.22877 1.68247 -4.3036e-21)
(3.57447 1.27513 1.79225e-23)
(3.81847 1.393 5.18998e-22)
(3.16986 0.866071 4.24989e-21)
(3.33396 1.13478 -4.50108e-21)
(3.17061 -0.0283882 2.05617e-23)
(3.12264 0.459275 -1.16987e-22)
(3.4952 -0.994419 1.35857e-23)
(3.30254 -0.522141 9.13179e-27)
(3.99217 -1.81599 0)
(3.7334 -1.4276 0)
(4.52085 -2.42137 -1.96398e-27)
(4.24865 -2.14875 2.07779e-27)
(5.04701 -2.67316 0)
(4.7749 -2.6128 0)
(5.49603 -2.13235 4.97578e-23)
(5.28538 -2.53237 0)
(5.66798 -0.609405 0)
(5.63177 -1.47751 0)
(5.42429 1.11062 -2.20962e-22)
(5.61242 0.309109 0)
(4.90725 1.95977 0)
(5.19961 1.67025 0)
(4.36913 1.96765 -2.05278e-23)
(4.64928 2.04122 -1.17789e-26)
(3.8829 1.68056 -1.0982e-23)
(4.14037 1.83254 0)
(3.47846 1.31738 0)
(3.68085 1.52268 -4.09686e-24)
(3.26464 0.708457 -2.74441e-20)
(3.37446 1.04874 -4.89452e-23)
(3.25447 0.33003 -3.3397e-20)
(2.85428 -0.849956 1.78524e-20)
(3.03372 -0.829283 -1.32472e-20)
(2.54946 -0.945153 0)
(2.68467 -0.873683 0)
(2.51564 -0.979954 -3.2555e-24)
(2.47605 -0.957137 -5.75776e-27)
(3.00532 -0.974923 -5.63246e-24)
(2.68748 -0.989914 -9.86785e-27)
(3.9127 -0.852424 -5.96255e-21)
(3.4271 -0.92248 -2.35323e-26)
(4.87087 -0.64339 -3.64021e-20)
(4.4041 -0.748756 3.11358e-20)
(5.25667 -0.51931 7.00232e-21)
(3.35608 2.90697 4.39126e-25)
(3.77386 3.12864 -8.76778e-26)
(3.47821 2.7097 0)
(4.00719 3.04255 4.14176e-25)
(3.79087 2.53457 3.79383e-23)
(4.00248 2.67699 7.90899e-21)
(4.19397 2.51092 -1.94263e-22)
(3.80665 2.25275 -5.89372e-23)
(4.61771 2.34534 -5.08364e-22)
(3.42402 1.6627 0)
(5.02832 1.82938 4.25988e-21)
(5.06174 2.2234 0)
(3.35371 1.35016 -1.23372e-20)
(3.08293 0.573448 8.66517e-20)
(3.08776 0.698361 3.69203e-20)
(4.90231 1.56763 -7.74423e-22)
(5.3648 1.84743 2.7713e-20)
(5.23687 1.49848 -2.73644e-23)
(3.00375 0.358645 -5.43023e-21)
(3.37958 0.453606 9.32483e-20)
(3.34477 0.201803 9.29149e-20)
(5.3934 -0.825872 0)
(5.52758 -0.667212 1.89436e-20)
(5.81983 0.0250476 -1.50879e-20)
(5.74483 -0.146113 1.58503e-20)
(3.48155 3.05423 8.63663e-26)
(5.75283 0.751082 7.57706e-21)
(5.86405 0.498906 2.04297e-20)
(5.38176 1.22328 3.49455e-22)
(5.62462 1.10096 2.91116e-21)
(4.87327 1.29074 -1.88035e-23)
(5.1673 1.35046 1.26194e-26)
(4.37218 1.0707 0)
(4.64467 1.23995 0)
(3.96491 0.719461 0)
(4.18478 0.908 0)
(3.69151 0.316037 7.10793e-23)
(3.84965 0.493145 0)
(3.58543 -0.101687 0)
(3.66516 0.0562105 0)
(3.6754 -0.476838 0)
(3.65591 -0.35467 0)
(3.89466 -0.799892 0)
(3.817 -0.693618 0)
(4.19515 -1.03117 0)
(4.05459 -0.967744 0)
(4.65517 -1.09662 4.47147e-23)
(4.41868 -1.08707 0)
(5.2231 -1.01829 2.21847e-23)
(4.93411 -1.08105 1.05932e-26)
(5.68754 -0.404253 0)
(5.4995 -0.791443 0)
(5.55561 0.815164 3.28068e-23)
(5.70825 0.192648 -3.20363e-28)
(5.01354 1.55609 3.41894e-23)
(5.29923 1.34256 1.14622e-26)
(4.40624 1.29055 8.69713e-21)
(4.71965 1.51454 5.80152e-24)
(3.8425 0.861225 -4.89393e-21)
(4.1005 1.05388 -3.98133e-21)
(3.53352 0.686342 -3.55435e-20)
(3.65781 0.747077 2.41155e-20)
(3.45011 0.607404 -1.04227e-19)
(4.34847 1.48805 4.43056e-22)
(4.61538 1.55158 -3.83984e-23)
(3.87827 1.36084 -1.08234e-22)
(4.09287 1.43996 0)
(3.59555 1.0835 -1.77171e-23)
(3.73734 1.22556 -5.25597e-22)
(3.27002 0.778982 0)
(3.42031 0.961049 0)
(3.27259 0.0730143 4.45355e-24)
(3.21484 0.474735 0)
(3.59218 -0.781341 0)
(3.40568 -0.359295 0)
(4.07529 -1.53243 0)
(3.81102 -1.17097 0)
(4.65948 -2.117 -1.08409e-23)
(4.34982 -1.85015 0)
(5.27425 -2.38898 0)
(4.96069 -2.3139 0)
(5.81912 -1.9467 1.59509e-22)
(5.57575 -2.28444 0)
(6.04409 -0.61822 1.44323e-22)
(6.0001 -1.37344 0)
(5.78375 0.908469 1.14912e-22)
(5.99636 0.197147 -8.90815e-27)
(5.19385 1.68694 5.00633e-23)
(5.53584 1.41996 4.50086e-26)
(4.57703 1.70391 -1.93198e-23)
(4.90568 1.77018 0)
(4.07036 1.4363 0)
(4.34575 1.58703 0)
(3.6433 1.14858 0)
(3.86986 1.31296 4.10281e-24)
(3.42575 0.62932 2.9721e-20)
(3.53292 0.93965 4.80591e-23)
(3.43479 0.285219 -2.59884e-20)
(3.34806 -1.12787 0)
(3.56548 -1.07525 9.15566e-20)
(2.9165 -1.2926 -5.41273e-21)
(3.1346 -1.19955 -3.6986e-21)
(2.56594 -1.42657 2.39814e-24)
(2.71068 -1.35641 3.17173e-27)
(2.52095 -1.5105 6.08875e-24)
(2.48959 -1.46209 1.02691e-26)
(2.95034 -1.53745 -1.66842e-26)
(2.67762 -1.53365 1.69642e-26)
(3.78651 -1.41556 -9.76898e-21)
(3.32732 -1.4936 1.9593e-26)
(4.76369 -1.14886 3.62597e-20)
(4.2868 -1.29079 9.95297e-21)
(5.13766 -0.991033 2.87407e-20)
(3.51713 2.86851 0)
(3.82668 3.01174 2.74928e-26)
(3.66592 2.73861 0)
(3.9152 2.86638 -1.05468e-24)
(3.98023 2.70237 -4.76215e-23)
(3.79467 2.49642 -6.00262e-24)
(4.44337 2.70407 1.46496e-22)
(3.4396 2.06557 2.2654e-24)
(4.95747 2.51641 5.98732e-22)
(3.17913 1.48607 -3.45864e-23)
(5.45002 2.30511 0)
(3.09564 1.12963 -1.42476e-20)
(5.59367 1.37304 1.23064e-20)
(5.78641 1.81298 -6.90605e-20)
(2.9163 0.274277 1.3161e-21)
(3.31898 -0.129576 -9.86915e-20)
(3.00833 0.0928207 -8.40804e-20)
(5.56108 -0.525619 -2.88566e-20)
(3.57113 2.9997 -1.50056e-25)
(5.72461 0.0950067 2.47383e-21)
(5.42505 -0.42421 2.42437e-20)
(5.68307 -0.111063 -1.95582e-20)
(5.66335 0.686425 -2.57592e-21)
(5.79553 0.421444 -2.64729e-21)
(5.31696 1.0405 -3.49049e-22)
(5.55116 0.897771 1.14343e-21)
(4.8376 1.07024 -4.81926e-21)
(5.11193 1.07345 4.3056e-21)
(4.36819 0.869886 -6.01573e-23)
(4.62013 0.969469 2.81079e-26)
(3.99396 0.56504 -6.79778e-23)
(4.18282 0.694456 -3.33909e-26)
(3.75674 0.23222 1.26025e-24)
(3.861 0.35693 0)
(3.69574 -0.0854264 0)
(3.70224 0.0236401 0)
(3.79127 -0.369243 -7.60089e-23)
(3.7284 -0.265745 0)
(3.97285 -0.630837 3.6335e-26)
(3.86983 -0.523191 -3.77275e-26)
(4.27863 -0.795212 3.48366e-26)
(4.1022 -0.726677 -3.61603e-26)
(4.69225 -0.862873 -3.19414e-26)
(4.47115 -0.821109 3.31448e-26)
(5.16154 -0.77411 -1.07339e-22)
(4.91568 -0.830183 2.88914e-26)
(5.53487 -0.325528 5.82845e-23)
(5.38255 -0.587488 2.55442e-26)
(5.40537 0.59038 2.04786e-23)
(5.55687 0.106533 0)
(4.78186 1.2617 7.48921e-23)
(5.12089 1.04571 3.36173e-26)
(4.25014 1.06728 6.9461e-23)
(4.48963 1.25216 0)
(3.94345 0.725807 5.87078e-21)
(4.07628 0.871575 0)
(3.75312 0.601974 2.58307e-20)
(3.84857 0.650639 -2.81671e-20)
(3.55875 0.379267 0)
(3.66229 0.519476 3.01484e-21)
(3.46349 -0.0620339 9.61592e-20)
(3.48979 0.166297 -9.14968e-20)
(4.95121 1.22166 4.96142e-22)
(5.47607 1.05182 4.33387e-21)
(5.22915 1.1587 -4.29831e-21)
(4.4388 1.19952 3.24092e-22)
(4.67382 1.23093 2.30271e-23)
(3.99432 1.14136 0)
(4.21321 1.16798 0)
(3.68282 0.930405 -2.60441e-23)
(3.8104 1.06139 0)
(3.4038 0.65539 0)
(3.54092 0.790221 0)
(3.32219 0.171247 -2.50121e-23)
(3.29868 0.458973 0)
(3.63459 -0.566549 0)
(3.43176 -0.185746 0)
(4.12619 -1.26522 0)
(3.85411 -0.931094 0)
(4.71133 -1.796 -1.63556e-23)
(4.40021 -1.5543 0)
(5.35912 -2.05253 0)
(5.02892 -1.97349 0)
(5.94262 -1.71717 6.3302e-26)
(5.68435 -1.97447 -6.70053e-26)
(6.21381 -0.615719 -1.44221e-22)
(6.14206 -1.24125 -1.10136e-25)
(5.97506 0.693539 -1.77976e-22)
(6.17768 0.0917301 -9.16841e-26)
(5.34796 1.36175 -3.18119e-23)
(5.6982 1.1372 0)
(4.70686 1.42442 8.8909e-25)
(5.02373 1.4524 -4.6249e-29)
(4.22473 1.21722 2.97135e-26)
(4.46086 1.3369 -3.15286e-26)
(3.8197 0.980886 0)
(4.01836 1.09802 0)
(3.59073 0.575862 -4.74656e-21)
(3.66707 0.81006 7.71707e-21)
(3.6166 -0.0368195 0)
(3.55565 0.270751 -1.01552e-21)
(3.63558 -0.370614 0)
(3.44855 -1.44484 0)
(3.95344 -1.20438 -5.45693e-21)
(3.71761 -1.34351 -2.44928e-20)
(2.96017 -1.68554 3.64179e-22)
(3.19359 -1.5748 2.97785e-21)
(2.60907 -1.80645 1.11165e-25)
(2.75765 -1.74398 0)
(2.54578 -1.9066 -2.8377e-24)
(2.52737 -1.85741 0)
(2.94495 -1.9343 0)
(2.69285 -1.93174 0)
(3.70838 -1.80419 7.77307e-25)
(3.29452 -1.89382 0)
(4.53812 -1.46723 0)
(4.13479 -1.65629 0)
(5.14575 -1.02372 0)
(4.88508 -1.25 5.34681e-21)
(5.36273 -0.508155 0)
(5.28715 -0.780811 1.83976e-21)
(5.9859 1.16239 -2.87784e-20)
(5.70147 0.873565 0)
(3.33094 -0.449167 5.51053e-21)
(3.51255 -0.28863 5.93334e-21)
(3.64605 2.86582 3.12656e-24)
(3.82756 2.90847 0)
(3.94818 -0.545242 0)
(3.81401 2.89246 8.04198e-24)
(3.71701 2.7762 7.65009e-25)
(5.27389 -0.278279 3.3059e-20)
(5.13027 -0.666059 0)
(5.07144 -0.447165 0)
(4.18087 2.93237 2.98921e-23)
(3.49602 2.36503 7.40452e-24)
(4.74642 2.90241 0)
(3.04907 1.86934 4.16648e-23)
(5.34791 2.67852 0)
(2.9914 1.24905 0)
(5.92592 2.27609 0)
(2.78131 0.722145 7.17707e-21)
(6.2539 1.64147 -1.32043e-20)
(2.85694 -0.266402 2.73531e-21)
(5.89118 0.617567 0)
(6.33094 0.806381 1.86893e-20)
(3.12679 -0.187003 -4.4236e-20)
(3.396 -0.678491 8.54837e-20)
(3.60416 -0.47376 -8.5096e-20)
(3.63349 2.94896 9.63065e-26)
(5.55721 0.145132 5.52695e-21)
(5.47251 -0.0463358 0)
(5.51104 0.57597 -2.36183e-21)
(5.60816 0.376364 -2.19611e-21)
(5.18841 0.826665 0)
(5.39262 0.735669 1.83033e-21)
(4.75022 0.818734 0)
(4.98278 0.850364 6.10565e-22)
(4.32165 0.638276 6.01298e-23)
(4.52838 0.751859 0)
(4.00207 0.391479 1.36611e-22)
(4.14137 0.528803 0)
(3.84698 0.146068 3.75206e-25)
(3.89573 0.269639 0)
(3.85355 -0.0945721 -7.52904e-23)
(3.82407 0.0210646 -7.60704e-26)
(3.96354 -0.357881 7.5934e-23)
(3.88807 -0.230724 7.7654e-26)
(4.1638 -0.592889 -7.65431e-23)
(4.04021 -0.490264 7.26103e-26)
(4.44357 -0.703884 -7.25443e-26)
(4.29091 -0.663158 7.04961e-26)
(4.71437 -0.703248 -7.30444e-23)
(4.57398 -0.710374 7.18708e-26)
(5.01636 -0.576638 1.32369e-22)
(4.85583 -0.652151 0)
(5.3082 -0.228726 1.34587e-23)
(5.17852 -0.430415 6.76163e-26)
(5.28416 0.406338 -1.43148e-22)
(5.36738 0.0697095 0)
(4.77269 0.947755 -7.48463e-23)
(5.07406 0.743487 -8.03006e-26)
(4.28909 0.897532 0)
(4.5007 0.997565 0)
(4.06875 0.64951 1.07775e-20)
(4.16223 0.766824 -1.12968e-20)
(3.8892 0.504546 0)
(3.98841 0.575698 -5.57132e-27)
(3.67769 0.270666 3.87811e-21)
(3.78381 0.411573 -6.02685e-21)
(3.58793 -0.11682 4.92746e-20)
(3.60968 0.0809297 -4.91701e-20)
(3.6887 -0.433338 0)
(3.62055 -0.296106 -5.90691e-21)
(5.18254 0.873486 4.80087e-21)
(5.533 0.425445 -3.68085e-21)
(5.37376 0.685668 -1.07293e-20)
(4.81577 1.02325 1.05022e-20)
(4.99108 0.971092 -4.73068e-21)
(4.52852 1.05666 5.39265e-21)
(4.65982 1.05093 -1.61047e-20)
(4.25128 0.984991 -2.60104e-23)
(4.39997 1.02547 2.06415e-22)
(3.90909 0.823399 2.6044e-23)
(4.06266 0.922404 0)
(3.63725 0.538208 1.11191e-25)
(3.75989 0.679243 -1.17576e-25)
(3.4412 0.207214 -1.1331e-25)
(3.49257 0.387691 1.19831e-25)
(3.62095 -0.339569 -2.88367e-23)
(3.46296 -0.0405129 0)
(4.10396 -0.978183 1.02735e-25)
(3.82551 -0.663409 -1.08663e-25)
(4.70718 -1.48848 2.71197e-23)
(4.39168 -1.2536 8.13775e-26)
(5.35418 -1.74584 0)
(5.03197 -1.65328 0)
(5.93049 -1.50932 -1.67473e-23)
(5.66985 -1.69859 1.19596e-28)
(6.23317 -0.590175 1.01834e-25)
(6.1429 -1.10911 -1.07838e-25)
(6.00001 0.477529 4.29546e-23)
(6.19907 -0.00436176 0)
(5.38594 1.04894 -1.82936e-23)
(5.7179 0.844862 0)
(4.78151 1.16517 -3.03926e-23)
(5.06631 1.15316 0)
(4.33882 1.02314 7.70461e-26)
(4.5273 1.1096 -8.17248e-26)
(3.98447 0.818174 0)
(4.13276 0.903056 0)
(3.73133 0.52692 6.41696e-21)
(3.79461 0.674882 8.14597e-21)
(3.75525 0.0107396 -3.46468e-20)
(3.64831 0.25527 1.74649e-20)
(3.76636 -0.320012 0)
(4.0085 -1.48296 -4.03437e-21)
(4.23425 -1.30947 2.29448e-20)
(3.55174 -1.7529 0)
(3.79679 -1.62529 3.96342e-21)
(3.07 -1.97681 9.5829e-25)
(3.31855 -1.89114 0)
(2.67107 -2.08666 -2.49584e-24)
(2.84038 -2.02873 -1.68595e-26)
(2.571 -2.15694 0)
(2.57756 -2.12948 0)
(2.88552 -2.143 0)
(2.68169 -2.17055 0)
(3.56993 -1.99706 -7.72867e-25)
(3.18773 -2.09463 0)
(4.36867 -1.6769 0)
(3.97806 -1.86147 0)
(4.93607 -1.20315 -1.99559e-21)
(4.69582 -1.45367 -5.16773e-21)
(5.07362 -0.922301 2.36463e-22)
(5.99993 0.234486 0)
(5.62601 0.12452 8.74701e-21)
(3.71338 -0.650164 6.49867e-20)
(3.78535 -0.544272 -8.09827e-20)
(3.7158 2.98684 5.27917e-26)
(3.7382 2.91228 4.63521e-25)
(5.09998 -0.114029 -5.38322e-20)
(4.95196 -0.203856 4.67596e-20)
(3.94392 3.12996 -1.05602e-22)
(3.44119 2.7393 0)
(4.40802 3.14882 -3.94291e-22)
(3.12464 2.19407 -1.38837e-23)
(5.06003 3.05658 0)
(2.69912 1.57939 0)
(5.77632 2.66355 -9.04268e-21)
(2.82438 0.805813 2.48411e-22)
(6.38098 2.00712 0)
(2.48675 0.137818 6.83728e-21)
(6.65459 1.17254 5.1658e-20)
(3.01791 -0.774813 0)
(6.4915 0.281378 7.86505e-23)
(3.25306 -0.501742 3.86161e-20)
(5.58737 -0.173877 -3.90394e-20)
(5.94391 -0.238804 3.14718e-20)
(3.54776 -0.803201 -6.50939e-20)
(5.25953 -0.0961729 -9.23531e-21)
(5.16082 -0.292421 -1.07519e-20)
(5.42198 -0.432187 4.8993e-20)
(4.64456 -1.23575 -4.33678e-20)
(3.82036 -0.806138 -7.54877e-22)
(3.90851 -0.635152 1.74438e-19)
(3.63523 3.01898 0)
(5.28343 0.193262 -3.08019e-21)
(5.19541 0.068222 1.91911e-20)
(5.25745 0.46563 0)
(5.31022 0.365767 0)
(4.99053 0.631016 0)
(5.15599 0.584856 0)
(4.61774 0.618058 0)
(4.80683 0.636588 0)
(4.27463 0.482959 6.2924e-23)
(4.42051 0.538461 3.75396e-27)
(4.04586 0.310856 -6.87329e-23)
(4.11721 0.378629 1.36822e-25)
(3.94652 0.139532 -7.28534e-23)
(3.95361 0.213412 1.45732e-25)
(3.93384 -0.0499001 7.52181e-23)
(3.90833 0.0440674 1.51472e-25)
(3.97545 -0.255878 0)
(3.92969 -0.152927 -4.8249e-27)
(4.09153 -0.420495 7.64695e-23)
(4.00961 -0.342222 4.85631e-27)
(4.28413 -0.533573 0)
(4.17131 -0.477994 4.80354e-27)
(4.54805 -0.566372 -3.9344e-24)
(4.40207 -0.561208 0)
(4.86097 -0.430309 -1.48488e-22)
(4.70307 -0.515727 0)
(5.10612 -0.12955 -7.1982e-23)
(5.00303 -0.292179 1.54124e-25)
(5.11337 0.309262 1.62396e-22)
(5.15531 0.0829254 0)
(4.76956 0.698315 0)
(4.98322 0.54039 0)
(4.35197 0.729946 0)
(4.54687 0.766667 0)
(4.11899 0.56369 0)
(4.21947 0.65329 0)
(3.94057 0.413022 -9.18309e-23)