/*--------------------------------*- C++ -*----------------------------------*\
  =========                 |
  \\      /  F ield         | OpenFOAM: The Open Source CFD Toolbox
   \\    /   O peration     | Website:  https://openfoam.org
    \\  /    A nd           | Version:  10
     \\/     M anipulation  |
\*---------------------------------------------------------------------------*/
FoamFile
{
    format      ascii;
    class       volScalarField;
    location    "15";
    object      p;
}
// * * * * * * * * * * * * * * * * * * * * * * * * * * * * * * * * * * * * * //

dimensions      [0 2 -2 0 0 0 0];

internalField   nonuniform List<scalar> 
28942
(
-0.00310977
-0.00236141
0.0029563
0.0107695
0.0110692
0.000215864
0.000576686
8.21173e-05
0.00399107
0.00407516
-0.00136898
-0.00162512
-0.00206652
-0.00198858
0.000366877
0.000784642
0.0109771
0.0112468
0.00665166
0.00820081
0.00923083
0.00923024
-0.00465299
-0.00438797
-0.00299348
-0.00317636
0.0150019
0.0149495
0.00452652
0.00448705
5.38361e-05
0.000101859
0.00143889
0.000627274
0.00815003
0.00936897
0.0119391
0.0139246
6.12997e-05
0.0161434
0.0103536
0.0128512
0.00343958
0.00339722
0.00343176
0.000526841
0.000363175
0.000421585
0.000485694
0.000726944
0.00129437
0.00426946
0.00432798
0.00409217
0.00426055
-0.00160684
-0.000350694
-0.00253174
-0.00238668
-0.00271368
-0.00275593
-0.00271189
-0.00260207
0.000710052
-0.00111247
0.000526576
0.00192731
0.0105309
0.0100343
-0.00258774
-0.00285378
-0.00258194
0.0100773
0.00993732
0.0102217
-0.000739998
-0.000321748
0.000119162
0.00332466
0.00372839
0.00276859
0.0016235
-0.00584099
-0.00715422
0.00192841
0.00471094
0.00577907
0.00658086
0.00492819
0.00508262
0.00708545
0.00643866
3.25989e-05
-0.000394579
-0.000832279
-0.000599117
-0.000286359
0.00630806
0.00762347
-0.00746569
0.0125665
0.0117675
0.0070627
0.0106581
0.00243351
0.00246447
0.00227581
0.00660588
0.00679434
0.00678912
-0.00235106
-0.00226726
-0.0024276
-0.0018405
-0.0018497
0.0169546
0.0149435
0.0143663
0.0160109
0.00252471
0.00570253
0.00437047
0.00609607
0.00578018
0.0166377
0.0169282
0.0155679
0.0069608
0.00804492
0.000384944
0.000518458
0.000258229
0.0115935
0.0121042
0.00893131
0.00858248
0.01404
0.00773674
0.00904924
0.0100774
-0.000711855
-0.00127405
0.00842371
0.00341724
0.00343503
-0.000335131
-0.000479378
7.93843e-06
-0.00144261
0.00757313
0.00668896
0.00459075
0.00044289
0.000363492
0.000197061
0.000374753
0.00853189
0.0077975
-0.000721212
-0.000845601
-0.000687238
-0.00365072
-0.00310981
0.000174453
-0.00217468
0.000227116
0.00946804
0.00956875
0.010688
0.0102199
0.00878042
0.00449987
0.00443311
0.00455494
0.00445355
0.00619497
0.00597185
0.00629605
0.00651705
0.00644263
0.00647838
0.00668083
0.007222
0.00692209
0.0065071
0.00683262
0.00754343
0.00828176
0.00858613
0.00104664
0.00102414
-0.00154528
0.000405067
0.000205578
-0.000959589
-0.000995192
0.000562605
0.000588968
0.000540783
0.000482409
0.00277422
0.00276818
0.0027513
-0.0020159
-0.00221388
-0.00174125
-0.00362542
-0.00416198
-0.00335976
-0.00406813
-0.00590306
-0.00451041
0.0171485
0.0178654
0.0176295
0.0025876
0.00272147
0.00259864
0.0114562
0.011031
0.0111107
0.00222527
0.00220027
0.00225011
0.00217523
0.0021502
0.00212524
0.00212607
0.00210031
0.00210159
0.00215069
0.00217572
0.0022007
0.00222586
0.00225058
0.00207567
0.00207695
0.00227507
0.00227568
0.00230041
0.00205113
0.002052
0.00230092
0.0020263
0.00200159
0.00202727
0.00200245
0.00232498
0.00232576
0.00197686
0.00197767
0.0023498
0.00235084
0.00195216
0.0019529
0.0023748
0.00237597
0.00192749
0.00192811
0.00239989
0.00240108
0.00190284
0.00190335
0.00242503
0.00242624
0.00187813
0.0018786
0.00245037
0.00245123
0.00185345
0.00185386
0.00247551
0.0024763
0.0018287
0.00182907
0.00250109
0.00250168
0.00180392
0.00180409
0.00252649
0.00252703
0.00177925
0.00177874
0.00255252
0.0025528
0.00175401
0.00175344
0.00257855
0.00257874
0.0017278
0.00172786
0.00255198
0.00257808
0.00260495
0.00260485
0.00250042
0.00252628
0.00244972
0.00247527
0.00239944
0.00242454
0.00234929
0.00237437
0.00229899
0.00232421
0.00224964
0.00227455
0.00219986
0.00222451
0.00215013
0.0021751
0.00210012
0.0021252
0.00205056
0.00207534
0.00200102
0.00202579
0.00195155
0.0019763
0.00190212
0.00192686
0.00185278
0.00187747
0.00180351
0.00182816
0.00175341
0.00177879
0.00172784
0.00170186
0.00170194
0.00177907
0.00172832
0.00175384
0.00182925
0.00180427
0.00187876
0.00185405
0.00192819
0.00190347
0.00197768
0.00195294
0.00202723
0.00200245
0.00207686
0.00205202
0.00212649
0.00210183
0.00217603
0.00215136
0.00222593
0.00220092
0.00227595
0.00225104
0.00232593
0.00230071
0.0023761
0.00235101
0.00242638
0.00240122
0.00247679
0.00245154
0.00252746
0.00250201
0.00257842
0.00255281
0.00260445
0.00260433
0.00170197
0.00170239
0.00263137
0.00263067
0.00263058
0.00263135
0.0025515
0.00260321
0.00257729
0.00250004
0.00252576
0.00244949
0.00247471
0.00239927
0.00242436
0.00234914
0.00237419
0.00229911
0.00232411
0.00224914
0.0022742
0.00219941
0.00222445
0.00214989
0.00217442
0.00209999
0.00212495
0.00205044
0.00207521
0.00200093
0.00202568
0.00195148
0.0019762
0.00190209
0.00192678
0.00185275
0.00187742
0.00180345
0.0018281
0.0017535
0.00177864
0.00167582
0.00167613
0.00170255
0.00172822
0.00172918
0.00170389
0.00167692
0.00167602
0.00177963
0.00175458
0.00182938
0.00180445
0.00187878
0.00185409
0.0019282
0.00190349
0.00197768
0.00195294
0.00202721
0.00200244
0.00207681
0.002052
0.00212649
0.00210167
0.00217629
0.00215137
0.00222595
0.00220108
0.00227591
0.00225108
0.00232596
0.00230091
0.00237609
0.00235101
0.00242634
0.0024012
0.00247672
0.00245152
0.00252723
0.00250194
0.00257799
0.00255255
0.00262962
0.00260376
0.00262922
0.00265697
0.00265587
0.00265761
0.0016771
0.00167789
0.00265671
0.00265513
0.00268335
0.00268224
0.00265781
0.00170337
0.00167806
0.00165118
0.00165201
0.00265337
0.00268139
0.00270599
0.00268009
0.002602
0.00262767
0.0025508
0.00257635
0.0024998
0.00252525
0.00244933
0.00247447
0.00239911
0.00242421
0.002349
0.00237404
0.002299
0.00232399
0.00224907
0.00227403
0.00219926
0.00222418
0.00214957
0.00217438
0.00209988
0.00212472
0.00205034
0.00207511
0.00200085
0.00202559
0.00195141
0.00197612
0.00190202
0.00192671
0.00185268
0.00187735
0.00180337
0.00182802
0.0017537
0.00177856
0.00172861
0.00165029
0.00165132
0.00165062
0.00165052
0.00172985
0.00167897
0.00170457
0.00178
0.001755
0.00182941
0.00180464
0.00187879
0.00185409
0.00192821
0.00190349
0.00197768
0.00195294
0.00202721
0.00200244
0.0020768
0.002052
0.00212646
0.00210162
0.0021762
0.00215132
0.002226
0.00220109
0.00227591
0.00225096
0.00232592
0.00230091
0.00237603
0.00235096
0.00242626
0.00240113
0.00247661
0.00245142
0.00252708
0.00250183
0.00257773
0.00255237
0.00262874
0.00260317
0.00268089
0.00265467
0.00270852
0.00270702
0.00268281
0.00268405
0.00165244
0.00165326
0.00270802
0.00270972
0.00273567
0.0027332
0.00273464
0.00274103
0.00277177
0.00268374
0.00270174
0.00272308
0.0026522
0.00267785
0.00260097
0.00262654
0.00255005
0.00257542
0.00249943
0.00252477
0.00244911
0.00247424
0.0023989
0.00242399
0.0023488
0.00237384
0.00229881
0.0023238
0.00224892
0.00227386
0.00219912
0.00222401
0.0021494
0.00217425
0.00209976
0.00212457
0.00205021
0.00207498
0.00200072
0.00202546
0.00195129
0.001976
0.0019019
0.00192659
0.00185256
0.00187723
0.00180326
0.00182791
0.00175382
0.00177853
0.00170401
0.00172901
0.00165336
0.00167874
0.00162586
0.00162766
0.00162667
0.00162506
0.00162524
0.00162562
0.00162517
0.00162762
0.0016265
0.00167992
0.00162929
0.00165455
0.00173034
0.00170523
0.00178007
0.00175526
0.00182941
0.00180473
0.00187879
0.0018541
0.00192821
0.00190349
0.00197767
0.00195293
0.00202719
0.00200243
0.00207678
0.00205198
0.00212642
0.00210159
0.00217614
0.00215127
0.00222595
0.00220104
0.00227584
0.00225089
0.00232584
0.00230083
0.00237594
0.00235088
0.00242616
0.00240104
0.00247649
0.00245131
0.00252696
0.00250171
0.00257755
0.00255224
0.00262832
0.00260291
0.00267957
0.00265384
0.00273164
0.00270555
0.00275947
0.00275782
0.00270892
0.00271002
0.00273392
0.00273566
0.0016541
0.00162869
0.0016021
0.00160313
0.00276278
0.00276081
0.00278828
0.0027471
0.00278567
0.00278415
0.00277398
0.00270957
0.00270092
0.00272433
0.00265139
0.00267662
0.00260021
0.00262579
0.00254959
0.00257487
0.00249914
0.00252436
0.00244885
0.00247398
0.00239866
0.00242374
0.00234857
0.0023736
0.0022986
0.00232357
0.00224872
0.00227365
0.00219893
0.00222382
0.00214923
0.00217407
0.0020996
0.00212441
0.00205005
0.00207482
0.00200057
0.00202531
0.00195115
0.00197585
0.00190177
0.00192645
0.00185244
0.0018771
0.00180314
0.00182779
0.00175386
0.0017785
0.00170436
0.00172909
0.00167925
0.00160057
0.00160203
0.00160113
0.00160005
0.00160035
0.00160054
0.00160027
0.00160111
0.00168069
0.00163
0.00165563
0.00173059
0.00170573
0.00178007
0.00175539
0.00182941
0.00180474
0.00187878
0.00185409
0.00192818
0.00190348
0.00197764
0.00195291
0.00202715
0.00200239
0.00207672
0.00205193
0.00212636
0.00210154
0.00217607
0.00215121
0.00222587
0.00220096
0.00227575
0.0022508
0.00232573
0.00230073
0.00237582
0.00235076
0.00242602
0.00240091
0.00247634
0.00245116
0.00252678
0.00250155
0.00257736
0.00255206
0.00262807
0.0026027
0.00267898
0.0026535
0.0027303
0.00270444
0.00278257
0.0027564
0.00281061
0.00280896
0.0027346
0.00273577
0.00160287
0.00160439
0.00276101
0.00278616
0.00278838
0.00276137
0.00278671
0.0027981
0.00282164
0.00281515
0.00281188
0.00283693
0.00283564
0.00273534
0.00275072
0.00280294
0.00277758
0.00270092
0.00272541
0.00265072
0.00267621
0.00259984
0.00262524
0.00254927
0.00257454
0.00249884
0.00252404
0.00244855
0.00247368
0.00239838
0.00242345
0.00234831
0.00237333
0.00229835
0.00232332
0.00224849
0.00227341
0.00219872
0.0022236
0.00214903
0.00217387
0.00209942
0.00212422
0.00204988
0.00207464
0.00200041
0.00202514
0.001951
0.0019757
0.00190163
0.00192631
0.00185231
0.00187697
0.00180302
0.00182766
0.00175377
0.00177839
0.00170442
0.00172913
0.00165452
0.00167956
0.00160357
0.00162932
0.0015765
0.00157774
0.00157695
0.00157574
0.00157601
0.00157555
0.00157553
0.00157574
0.00157563
0.00157676
0.00157615
0.00157892
0.0015777
0.00163085
0.00158014
0.00160555
0.00168115
0.00165618
0.00173075
0.001706
0.00178007
0.00175542
0.00182939
0.00180473
0.00187875
0.00185407
0.00192815
0.00190345
0.00197759
0.00195287
0.00202709
0.00200234
0.00207665
0.00205187
0.00212628
0.00210146
0.00217598
0.00215112
0.00222576
0.00220086
0.00227563
0.00225068
0.00232559
0.0023006
0.00237566
0.00235061
0.00242584
0.00240074
0.00247614
0.00245098
0.00252656
0.00250133
0.00257712
0.00255182
0.00262781
0.00260245
0.00267865
0.00265322
0.00272967
0.00270411
0.00278102
0.00275533
0.00283347
0.00280705
0.00286202
0.00286009
0.00276078
0.00282646
0.00278743
0.00160441
0.00157903
0.00155336
0.00155436
0.00276142
0.00278704
0.00281388
0.00281262
0.00283812
0.00286346
0.00288835
0.00288655
0.00276111
0.00280348
0.00285117
0.0028529
0.00282823
0.00275158
0.00277802
0.00270074
0.00272582
0.00265024
0.00267572
0.00259946
0.00262481
0.0025489
0.00257416
0.00249849
0.00252368
0.00244822
0.00247334
0.00239806
0.00242313
0.00234802
0.00237303
0.00229808
0.00232304
0.00224824
0.00227315
0.00219848
0.00222335
0.00214881
0.00217364
0.00209922
0.00212401
0.00204969
0.00207445
0.00200023
0.00202496
0.00195083
0.00197553
0.00190148
0.00192615
0.00185217
0.00187682
0.00180289
0.00182752
0.00175365
0.00177826
0.00170442
0.00172904
0.00165482
0.00167965
0.00162969
0.00155127
0.00155228
0.00155166
0.001551
0.00155115
0.00155109
0.00155101
0.00155121
0.00155115
0.00155174
0.00155144
0.00155243
0.00163168
0.00158111
0.00160647
0.00168136
0.00165658
0.00173077
0.00170612
0.00178005
0.00175541
0.00182937
0.00180471
0.00187871
0.00185404
0.0019281
0.0019034
0.00197753
0.00195281
0.00202702
0.00200227
0.00207656
0.00205178
0.00212617
0.00210136
0.00217586
0.00215101
0.00222562
0.00220073
0.00227547
0.00225054
0.00232542
0.00230044
0.00237547
0.00235043
0.00242563
0.00240053
0.0024759
0.00245075
0.00252629
0.00250108
0.00257682
0.00255154
0.00262749
0.00260214
0.0026783
0.00265288
0.00272926
0.00270377
0.00278037
0.00275479
0.00283201
0.00280604
0.0028845
0.00285814
0.00284174
0.00284681
0.00291302
0.00291088
0.00278682
0.00155373
0.00155538
0.00287733
0.00278707
0.00287709
0.00281314
0.0028128
0.00283877
0.00283849
0.00286408
0.00288943
0.00291455
0.00293941
0.00293747
0.00278693
0.00285316
0.00290242
0.00290357
0.00287826
0.00280271
0.00282819
0.00275145
0.00277706
0.00270031
0.00272571
0.00264969
0.0026751
0.00259899
0.00262431
0.00254847
0.00257371
0.00249809
0.00252326
0.00244784
0.00247295
0.00239772
0.00242277
0.0023477
0.0023727
0.00229778
0.00232273
0.00224796
0.00227286
0.00219822
0.00222308
0.00214857
0.00217339
0.00209899
0.00212377
0.00204948
0.00207423
0.00200004
0.00202475
0.00195065
0.00197534
0.00190131
0.00192597
0.00185201
0.00187666
0.00180275
0.00182738
0.00175352
0.00177813
0.00170431
0.00172891
0.00165498
0.0016797
0.00160511
0.00163007
0.00155453
0.00158007
0.00152728
0.00152885
0.00152792
0.00152656
0.00152677
0.00152648
0.00152646
0.00152661
0.00152654
0.00152671
0.00152667
0.00152703
0.00152679
0.00152792
0.00152736
0.00152983
0.00152865
0.00158189
0.001531
0.00155656
0.00163207
0.00160708
0.0016815
0.00165687
0.00173076
0.00170613
0.00178003
0.00175539
0.00182933
0.00180468
0.00187866
0.00185399
0.00192803
0.00190334
0.00197745
0.00195274
0.00202692
0.00200218
0.00207645
0.00205168
0.00212605
0.00210124
0.00217572
0.00215087
0.00222546
0.00220058
0.00227529
0.00225037
0.00232522
0.00230025
0.00237524
0.00235022
0.00242538
0.0024003
0.00247562
0.00245048
0.00252598
0.00250079
0.00257647
0.00255121
0.0026271
0.00260177
0.00267787
0.00265247
0.00272879
0.00270332
0.00277985
0.00275431
0.00283108
0.00280545
0.00288268
0.00285675
0.00293504
0.00290885
0.00286838
0.0028745
0.00296388
0.00296149
0.00281279
0.00281282
0.00292843
0.0029276
0.00290233
0.00283828
0.00283861
0.00155528
0.00153006
0.00150438
0.00150547
0.00286469
0.00286434
0.00288994
0.0029154
0.00294069
0.00296558
0.00295316
0.00295396
0.00297865
0.00299033
0.00298834
0.00297852
0.00281274
0.00290453
0.00292938
0.00285251
0.00287818
0.00280181
0.00282744
0.00275062
0.00277609
0.00269978
0.00272518
0.00264908
0.00267444
0.00259846
0.00262375
0.00254799
0.00257321
0.00249765
0.0025228
0.00244744
0.00247253
0.00239734
0.00242237
0.00234735
0.00237233
0.00229745
0.00232239
0.00224765
0.00227254
0.00219794
0.00222279
0.00214831
0.00217311
0.00209875
0.00212352
0.00204926
0.00207399
0.00199983
0.00202453
0.00195045
0.00197513
0.00190113
0.00192579
0.00185185
0.00187648
0.0018026
0.00182722
0.00175338
0.00177799
0.00170419
0.00172878
0.00165501
0.00167961
0.0016055
0.00163029
0.00158051
0.00150214
0.00150341
0.00150261
0.00150192
0.00150203
0.001502
0.00150194
0.00150213
0.00150207
0.00150224
0.00150219
0.00150238
0.00150228
0.00150302
0.00150266
0.00150358
0.00158256
0.00153213
0.00155743
0.00163227
0.00160743
0.00168151
0.00165691
0.00173074
0.00170612
0.00178
0.00175537
0.00182928
0.00180464
0.0018786
0.00185394
0.00192796
0.00190327
0.00197736
0.00195265
0.00202681
0.00200208
0.00207632
0.00205156
0.0021259
0.0021011
0.00217555
0.00215072
0.00222527
0.0022004
0.00227508
0.00225017
0.00232499
0.00230003
0.00237499
0.00234998
0.00242509
0.00240003
0.0024753
0.00245018
0.00252563
0.00250045
0.00257608
0.00255084
0.00262667
0.00260136
0.00267738
0.00265201
0.00272824
0.00270279
0.00277923
0.00275372
0.00283035
0.00280478
0.0028816
0.00285595
0.00293303
0.00290731
0.00298561
0.00295887
0.00295284
0.00301468
0.00301702
0.00304119
0.00303896
0.00301181
0.00289401
0.00290311
0.0028386
0.00283864
0.00150467
0.00150643
0.00292879
0.00286398
0.00286448
0.00289084
0.00289023
0.00291588
0.0029414
0.00296672
0.00299181
0.00300349
0.00300348
0.00302841
0.00303584
0.00306265
0.00306596
0.00302853
0.00300356
0.00297871
0.00304282
0.00306755
0.00283861
0.00295421
0.00297851
0.00290332
0.00292845
0.00285167
0.00287755
0.00280071
0.00282618
0.00274982
0.00277525
0.00269908
0.00272444
0.00264843
0.00267374
0.00259788
0.00262314
0.00254746
0.00257266
0.00249717
0.0025223
0.00244699
0.00247207
0.00239693
0.00242195
0.00234696
0.00237193
0.0022971
0.00232202
0.00224732
0.0022722
0.00219763
0.00222247
0.00214802
0.00217282
0.00209848
0.00212324
0.00204901
0.00207374
0.0019996
0.0020243
0.00195024
0.00197492
0.00190094
0.00192559
0.00185167
0.0018763
0.00180244
0.00182705
0.00175324
0.00177784
0.00170406
0.00172865
0.00165491
0.00167948
0.00160564
0.00163032
0.00155599
0.00158086
0.00150557
0.00153083
0.00147835
0.00148009
0.00147914
0.00147746
0.00147768
0.00147739
0.00147736
0.00147752
0.00147746
0.00147764
0.00147758
0.00147776
0.0014777
0.00147788
0.00147781
0.00147822
0.00147806
0.00147916
0.00147858
0.00148077
0.0014799
0.00153272
0.00148183
0.00150745
0.00158294
0.00155796
0.00163231
0.00160768
0.0016815
0.0016569
0.00173072
0.00170611
0.00177996
0.00175534
0.00182923
0.00180459
0.00187853
0.00185387
0.00192786
0.00190319
0.00197725
0.00195255
0.00202668
0.00200196
0.00207618
0.00205142
0.00212573
0.00210095
0.00217536
0.00215054
0.00222506
0.0022002
0.00227485
0.00224995
0.00232473
0.00229978
0.0023747
0.0023497
0.00242477
0.00239972
0.00247495
0.00244985
0.00252524
0.00250008
0.00257565
0.00255043
0.00262618
0.0026009
0.00267684
0.0026515
0.00272763
0.00270222
0.00277855
0.00275307
0.00282959
0.00280405
0.00288073
0.00285515
0.00293193
0.00290632
0.00298332
0.00295764
0.00300884
0.00291875
0.00292907
0.00309229
0.00308904
0.00286439
0.00286454
0.00295408
0.00288981
0.0028904
0.00150618
0.00148091
0.00145524
0.00145609
0.00291689
0.00291619
0.00294188
0.00296742
0.00299283
0.00301801
0.00305317
0.00305316
0.00307824
0.00307815
0.00305429
0.0030288
0.00300435
0.00306897
0.00309331
0.00311544
0.00311821
0.00286453
0.00300376
0.00302796
0.00295307
0.0029785
0.00290159
0.00292735
0.00285063
0.00287613
0.00279977
0.00282518
0.002749
0.00277438
0.00269832
0.00272365
0.00264774
0.00267302
0.00259726
0.00262249
0.0025469
0.00257207
0.00249665
0.00252176
0.00244651
0.00247157
0.00239648
0.00242148
0.00234655
0.0023715
0.00229671
0.00232162
0.00224697
0.00227183
0.0021973
0.00222213
0.00214771
0.0021725
0.0020982
0.00212295
0.00204875
0.00207347
0.00199936
0.00202405
0.00195002
0.00197468
0.00190073
0.00192537
0.00185148
0.0018761
0.00180227
0.00182687
0.00175309
0.00177768
0.00170393
0.00172851
0.00165479
0.00167936
0.00160566
0.00163023
0.0015563
0.00158096
0.00153138
0.00145327
0.00145459
0.00145388
0.00145283
0.00145301
0.00145292
0.00145286
0.00145304
0.00145298
0.00145315
0.0014531
0.00145328
0.00145321
0.00145339
0.00145334
0.00145355
0.00145346
0.00145405
0.00145378
0.00145451
0.00153327
0.00148276
0.00150822
0.00158312
0.00155823
0.00163231
0.00160773
0.00168149
0.00165689
0.00173069
0.00170609
0.00177991
0.0017553
0.00182916
0.00180453
0.00187844
0.00185379
0.00192776
0.00190309
0.00197712
0.00195243
0.00202654
0.00200182
0.00207601
0.00205127
0.00212554
0.00210077
0.00217515
0.00215034
0.00222483
0.00219998
0.00227459
0.0022497
0.00232443
0.0022995
0.00237438
0.00234939
0.00242442
0.00239938
0.00247456
0.00244947
0.00252481
0.00249967
0.00257517
0.00254998
0.00262565
0.0026004
0.00267625
0.00265094
0.00272697
0.0027016
0.0027778
0.00275237
0.00282874
0.00280326
0.00287978
0.00285425
0.00293089
0.00290533
0.002982
0.00295647
0.00303316
0.00300756
0.00308556
0.00305936
0.00314141
0.00313805
0.00311127
0.00294417
0.00295515
0.00289029
0.00289049
0.00145538
0.00145712
0.00298019
0.0029158
0.00291639
0.00294295
0.00294222
0.00296793
0.00299351
0.0030189
0.00304405
0.00310272
0.00310254
0.00312667
0.00313414
0.00315994
0.00316451
0.00312743
0.00310396
0.00307918
0.003055
0.00303009
0.00309496
0.00311939
0.00314378
0.00316708
0.00289048
0.00305366
0.00307845
0.00300261
0.00302722
0.00295127
0.00297726
0.00290036
0.00292581
0.00284956
0.00287496
0.00279881
0.00282418
0.00274812
0.00277346
0.00269752
0.00272281
0.00264701
0.00267226
0.0025966
0.0026218
0.00254629
0.00257143
0.00249609
0.00252118
0.002446
0.00247103
0.00239601
0.00242099
0.00234611
0.00237105
0.0022963
0.0023212
0.00224659
0.00227144
0.00219695
0.00222176
0.00214739
0.00217216
0.00209789
0.00212263
0.00204847
0.00207317
0.0019991
0.00202378
0.00194978
0.00197443
0.00190051
0.00192514
0.00185128
0.00187589
0.00180209
0.00182668
0.00175293
0.00177751
0.00170379
0.00172836
0.00165467
0.00167923
0.00160557
0.00163011
0.00155645
0.001581
0.00150664
0.00153157
0.00145596
0.00148157
0.00142925
0.00143037
0.00142964
0.00142851
0.00142878
0.00142831
0.0014283
0.00142844
0.00142838
0.00142855
0.0014285
0.00142867
0.00142861
0.00142879
0.00142873
0.00142892
0.00142885
0.00142905
0.00142898
0.00142927
0.00142913
0.00143017
0.00142964
0.00143193
0.00143093
0.00148359
0.00143314
0.00145863
0.00153368
0.00150876
0.00158315
0.00155845
0.0016323
0.00160773
0.00168147
0.00165688
0.00173065
0.00170606
0.00177985
0.00175525
0.00182908
0.00180446
0.00187834
0.00185371
0.00192764
0.00190298
0.00197698
0.0019523
0.00202637
0.00200167
0.00207582
0.00205109
0.00212533
0.00210057
0.00217491
0.00215011
0.00222456
0.00219973
0.0022743
0.00224942
0.00232411
0.0022992
0.00237402
0.00234906
0.00242403
0.00239901
0.00247413
0.00244907
0.00252434
0.00249922
0.00257465
0.00254948
0.00262508
0.00259985
0.00267561
0.00265033
0.00272625
0.00270092
0.00277699
0.00275161
0.00282783
0.0028024
0.00287875
0.00285328
0.00292972
0.00290423
0.0029807
0.00295522
0.00303161
0.00300618
0.00308248
0.0030571
0.00310764
0.00296975
0.0029813
0.00319031
0.00318706
0.00291625
0.00291648
0.00300615
0.00294183
0.00294243
0.0014568
0.00143162
0.00140658
0.00140747
0.00296906
0.0029683
0.00299405
0.00301964
0.00304503
0.00307017
0.00315072
0.00314946
0.00317299
0.00317535
0.00315257
0.00312904
0.00310535
0.00308073
0.00305623
0.00312102
0.00314529
0.00316923
0.00319277
0.00321204
0.00321479
0.00291647
0.00310173
0.00312563
0.00305157
0.00307704
0.0030005
0.0030261
0.0029498
0.00297518
0.00289912
0.00292446
0.00284843
0.00287378
0.00279779
0.0028231
0.0027472
0.00277248
0.00269668
0.00272193
0.00264625
0.00267145
0.0025959
0.00262106
0.00254565
0.00257077
0.0024955
0.00252057
0.00244545
0.00247047
0.0023955
0.00242047
0.00234564
0.00237056
0.00229587
0.00232075
0.00224618
0.00227102
0.00219657
0.00222137
0.00214704
0.0021718
0.00209757
0.0021223
0.00204817
0.00207286
0.00199882
0.00202349
0.00194953
0.00197417
0.00190028
0.0019249
0.00185108
0.00187568
0.0018019
0.00182649
0.00175276
0.00177733
0.00170364
0.0017282
0.00165454
0.00167909
0.00160545
0.00163
0.00155639
0.00158092
0.00150695
0.0015317
0.00148193
0.00140409
0.00140485
0.00140443
0.0014038
0.00140396
0.00140385
0.00140379
0.00140396
0.00140391
0.00140406
0.00140401
0.00140418
0.00140412
0.0014043
0.00140424
0.00140444
0.00140437
0.00140458
0.00140451
0.00140475
0.00140466
0.00140522
0.00140497
0.00140572
0.00148423
0.00143399
0.00145937
0.00153391
0.00150916
0.00158317
0.00155858
0.0016323
0.00160773
0.00168144
0.00165687
0.0017306
0.00170602
0.00177978
0.00175519
0.00182899
0.00180438
0.00187823
0.0018536
0.0019275
0.00190286
0.00197682
0.00195216
0.00202619
0.0020015
0.00207562
0.0020509
0.0021251
0.00210035
0.00217465
0.00214987
0.00222428
0.00219946
0.00227398
0.00224912
0.00232377
0.00229887
0.00237364
0.00234869
0.00242361
0.00239861
0.00247367
0.00244863
0.00252383
0.00249874
0.0025741
0.00254895
0.00262446
0.00259927
0.00267493
0.00264968
0.00272549
0.0027002
0.00277614
0.00275081
0.00282687
0.0028015
0.00287766
0.00285226
0.00292848
0.00290307
0.00297929
0.00295389
0.00303005
0.00300468
0.00308059
0.00305536
0.0031309
0.00310581
0.0031824
0.00315611
0.0032376
0.0032329
0.00320714
0.00299544
0.0030074
0.00294227
0.00294254
0.00140648
0.00140858
0.00303234
0.00296792
0.00296854
0.00299524
0.00299446
0.00302024
0.00304584
0.00307121
0.00309631
0.00319726
0.00319628
0.00321939
0.00322874
0.00325332
0.00325791
0.00322177
0.00320024
0.00317751
0.00315477
0.00313107
0.003107
0.00308235
0.00314708
0.00317121
0.00319481
0.00321808
0.00323998
0.00326198
0.00294252
0.00315007
0.0031737
0.00310002
0.00312384
0.00304913
0.00307506
0.00299878
0.00302397
0.00294834
0.00297357
0.00289781
0.00292308
0.00284725
0.00287253
0.00279672
0.00282198
0.00274623
0.00277147
0.0026958
0.00272101
0.00264544
0.00267061
0.00259516
0.00262029
0.00254498
0.00257006
0.00249488
0.00251992
0.00244488
0.00246987
0.00239497
0.00241991
0.00234514
0.00237005
0.00229541
0.00232027
0.00224575
0.00227057
0.00219618
0.00222096
0.00214667
0.00217142
0.00209723
0.00212194
0.00204785
0.00207254
0.00199853
0.00202319
0.00194926
0.00197389
0.00190004
0.00192465
0.00185086
0.00187544
0.00180171
0.00182628
0.00175258
0.00177714
0.00170349
0.00172803
0.00165441
0.00167895
0.00160534
0.00162987
0.00155628
0.00158081
0.00150711
0.00153174
0.00145745
0.00148228
0.00140702
0.00143244
0.00138008
0.00138117
0.00138063
0.00137942
0.00137964
0.00137929
0.0013793
0.00137938
0.00137933
0.00137947
0.00137943
0.00137957
0.00137952
0.00137969
0.00137963
0.00137981
0.00137975
0.00137995
0.00137988
0.00138011
0.00138003
0.00138027
0.00138019
0.00138049
0.00138035
0.00138143
0.00138087
0.00138338
0.00138227
0.0014348
0.0013845
0.00140971
0.0014847
0.00145993
0.00153406
0.00150937
0.00158318
0.00155863
0.00163229
0.00160773
0.00168141
0.00165685
0.00173055
0.00170598
0.0017797
0.00175512
0.00182889
0.00180429
0.0018781
0.00185349
0.00192735
0.00190272
0.00197665
0.001952
0.00202599
0.00200132
0.00207539
0.00205069
0.00212485
0.00210011
0.00217437
0.0021496
0.00222397
0.00219916
0.00227364
0.0022488
0.00232339
0.00229851
0.00237323
0.0023483
0.00242316
0.00239818
0.00247318
0.00244816
0.00252329
0.00249822
0.0025735
0.00254839
0.00262381
0.00259864
0.0026742
0.00264899
0.00272469
0.00269944
0.00277524
0.00274996
0.00282586
0.00280055
0.00287652
0.00285119
0.00292719
0.00290186
0.00297782
0.00295252
0.00302837
0.00300311
0.00307873
0.00305358
0.00312871
0.00310381
0.00317831
0.00315362
0.00320289
0.0030212
0.00303351
0.00328318
0.00327916
0.00296836
0.00296866
0.00305841
0.00299409
0.00299473
0.00140775
0.00138276
0.00135809
0.00135918
0.00302151
0.00302069
0.0030465
0.0030721
0.00309745
0.00312248
0.00324296
0.00324102
0.00326323
0.00326533
0.00324668
0.00322479
0.00320316
0.0031797
0.00315671
0.00313267
0.00310831
0.00317317
0.00319711
0.00322051
0.00324295
0.0032652
0.00328626
0.00330266
0.00330658
0.00296863
0.00319552
0.00321682
0.0031479
0.00317261
0.00309752
0.00312182
0.00304716
0.00307262
0.0029971
0.00302213
0.00294683
0.00297199
0.00289645
0.00292165
0.00284603
0.00287125
0.00279562
0.00282082
0.00274523
0.00277042
0.00269488
0.00272005
0.0026446
0.00266974
0.00259439
0.00261949
0.00254427
0.00256932
0.00249422
0.00251924
0.00244427
0.00246924
0.0023944
0.00241933
0.00234462
0.0023695
0.00229492
0.00231976
0.0022453
0.0022701
0.00219576
0.00222052
0.00214628
0.00217101
0.00209687
0.00212157
0.00204752
0.00207219
0.00199823
0.00202287
0.00194899
0.0019736
0.00189979
0.00192438
0.00185063
0.0018752
0.0018015
0.00182606
0.0017524
0.00177695
0.00170333
0.00172786
0.00165427
0.0016788
0.00160522
0.00162975
0.00155619
0.00158071
0.00150715
0.00153168
0.00145778
0.00148243
0.00143286
0.0013551
0.00135595
0.00135548
0.00135482
0.00135496
0.00135483
0.00135481
0.0013549
0.00135487
0.00135498
0.00135494
0.00135508
0.00135503
0.00135519
0.00135514
0.00135532
0.00135526
0.00135547
0.00135539
0.00135563
0.00135554
0.0013558
0.00135571
0.001356
0.00135589
0.00135654
0.00135624
0.00135717
0.00143553
0.00138553
0.00141057
0.00148499
0.00146025
0.00153411
0.00150955
0.00158319
0.00155865
0.00163228
0.00160773
0.00168137
0.00165683
0.00173049
0.00170593
0.00177962
0.00175505
0.00182878
0.0018042
0.00187797
0.00185337
0.00192719
0.00190258
0.00197646
0.00195182
0.00202578
0.00200112
0.00207515
0.00205046
0.00212458
0.00209986
0.00217407
0.00214932
0.00222364
0.00219885
0.00227328
0.00224845
0.00232299
0.00229812
0.00237279
0.00234788
0.00242268
0.00239773
0.00247265
0.00244766
0.00252272
0.00249767
0.00257287
0.00254778
0.00262311
0.00259798
0.00267344
0.00264827
0.00272384
0.00269863
0.0027743
0.00274907
0.00282482
0.00279956
0.00287535
0.00285008
0.00292586
0.00290061
0.00297631
0.0029511
0.00302664
0.0030015
0.00307675
0.00305173
0.00312652
0.00310169
0.00317571
0.00315124
0.00322422
0.00320011
0.00327385
0.00324824
0.00332582
0.00332115
0.00329762
0.00304702
0.00305972
0.00299452
0.00299485
0.00135739
0.00136001
0.00308454
0.00302033
0.00302098
0.00304787
0.00304699
0.00307282
0.00309842
0.00312373
0.00314868
0.00328486
0.0032839
0.00330531
0.00331059
0.00329052
0.00327053
0.00325032
0.00322779
0.00320547
0.00318218
0.00315845
0.00313426
0.00319924
0.00322298
0.00324604
0.00326836
0.0032897
0.00330992
0.00332923
0.003315
0.00334514
0.00333843
0.00299482
0.00324083
0.00326068
0.00319289
0.00321613
0.00314468
0.00316917
0.00309475
0.00311979
0.00304523
0.00307005
0.00299537
0.00302033
0.00294528
0.00297035
0.00289506
0.00292018
0.00284478
0.00286993
0.00279448
0.00281963
0.00274419
0.00276933
0.00269393
0.00271906
0.00264373
0.00266883
0.00259359
0.00261865
0.00254353
0.00256855
0.00249354
0.00251852
0.00244363
0.00246858
0.00239381
0.00241871
0.00234407
0.00236893
0.00229441
0.00231924
0.00224483
0.00226961
0.00219532
0.00222007
0.00214588
0.00217059
0.0020965
0.00212118
0.00204718
0.00207183
0.00199791
0.00202254
0.00194869
0.0019733
0.00189952
0.0019241
0.00185039
0.00187495
0.00180128
0.00182583
0.00175221
0.00177674
0.00170316
0.00172768
0.00165413
0.00167864
0.0016051
0.00162961
0.00155609
0.0015806
0.00150708
0.00153159
0.00145792
0.00148248
0.0014084
0.00143325
0.00135791
0.00138334
0.00133115
0.00133237
0.00133169
0.00133046
0.00133071
0.00133032
0.00133033
0.00133037
0.00133034
0.00133042
0.00133039
0.00133049
0.00133045
0.00133058
0.00133054
0.0013307
0.00133064
0.00133082
0.00133076
0.00133097
0.0013309
0.00133114
0.00133105
0.00133133
0.00133123
0.00133152
0.00133143
0.0013319
0.00133164
0.00133288
0.00133226
0.00133471
0.00133363
0.0013861
0.00133571
0.00136095
0.00143589
0.00141109
0.00148509
0.00146053
0.00153414