/*--------------------------------*- C++ -*----------------------------------*\
  =========                 |
  \\      /  F ield         | OpenFOAM: The Open Source CFD Toolbox
   \\    /   O peration     | Website:  https://openfoam.org
    \\  /    A nd           | Version:  10
     \\/     M anipulation  |
\*---------------------------------------------------------------------------*/
FoamFile
{
    format      ascii;
    class       volVectorField;
    location    "35";
    object      U;
}
// * * * * * * * * * * * * * * * * * * * * * * * * * * * * * * * * * * * * * //

dimensions      [0 1 -1 0 0 0 0];

internalField   nonuniform List<vector> 
28942
(
(-0.48277 0.0214921 -2.27106e-19)
(-0.50927 -0.0916171 -5.16627e-20)
(2.14726 -1.49059 7.22002e-19)
(2.52994 0.0508566 -3.94098e-19)
(2.49154 0.0798983 1.31417e-19)
(1.1639 0.060759 0)
(1.35885 0.084599 -3.28053e-21)
(1.51217 0.0549942 3.7262e-21)
(2.9613 -0.100481 5.39104e-20)
(2.92749 -0.0851862 -1.3339e-19)
(0.284176 -0.403091 -1.88065e-18)
(0.148564 -0.1095 8.69258e-19)
(0.0910547 -0.32232 0)
(0.0532307 -0.45194 0)
(2.49828 -0.112088 2.90028e-21)
(2.52959 -0.110952 3.22271e-22)
(2.32438 0.159253 1.80153e-19)
(2.28756 0.114783 2.78055e-19)
(1.20912 -2.01216 -2.70841e-19)
(1.85965 -2.05593 6.91259e-20)
(2.45254 0.496827 2.63781e-19)
(2.47713 0.461551 0)
(0.384574 0.141846 1.69954e-18)
(-0.368998 -0.17593 9.3753e-19)
(3.35778 -0.715596 1.77649e-18)
(3.98512 -0.819395 -1.60688e-18)
(0.86233 -1.5536 2.33049e-18)
(0.828018 -1.25054 -1.0032e-18)
(2.35883 -1.68527 -2.45927e-19)
(1.82787 -1.21316 -9.61077e-20)
(1.11992 -0.0442887 0)
(1.52948 -0.0765903 1.16901e-20)
(1.89938 -0.124745 1.44218e-20)
(2.23145 -0.103716 1.71123e-20)
(1.33531 1.6979 1.72791e-19)
(0.9901 1.80154 -2.0481e-19)
(1.55582 1.65916 -8.81819e-19)
(1.20699 1.6202 -3.07996e-19)
(0.537771 0.0584161 3.9423e-21)
(0.558636 1.63509 -4.81679e-19)
(2.04065 -0.0239932 0)
(2.36168 -0.0740537 0)
(2.12962 -0.547648 -5.2818e-21)
(2.05507 -0.505007 1.50913e-20)
(2.15452 -0.503134 1.3628e-20)
(1.93568 0.0708453 -1.84215e-21)
(1.8999 0.0871794 3.25854e-21)
(2.30091 0.0847235 8.80018e-21)
(2.24483 0.0851897 -2.38742e-21)
(2.0079 0.0818449 8.44692e-21)
(1.85367 0.0908038 -4.70279e-21)
(2.67615 0.0409347 4.75234e-21)
(2.67921 0.0360421 8.34335e-21)
(2.98085 -0.145464 -2.04755e-21)
(2.94115 -0.126858 -2.49966e-20)
(3.87921 0.147764 1.29675e-18)
(4.06063 -0.0036899 6.56573e-19)
(-0.191217 -0.178563 -1.10721e-18)
(0.0184297 -0.199711 0)
(-0.19264 -0.0261844 4.02106e-19)
(-0.254339 -0.102769 9.72169e-19)
(-0.129994 -0.114943 -7.74776e-19)
(-0.134696 -0.144115 -8.1096e-19)
(3.49434 -1.17155 0)
(4.09605 -0.827987 2.50246e-19)
(3.51695 -0.684935 -1.14829e-19)
(3.37682 -0.800659 0)
(2.37794 -0.584527 -1.2771e-19)
(2.45226 -0.61578 -7.85184e-20)
(-0.232161 0.0733898 7.47485e-19)
(-0.321135 0.181672 -2.39279e-19)
(-0.452421 0.271158 6.08237e-19)
(2.51831 -0.745458 0)
(2.41775 -0.688261 4.09062e-19)
(2.30576 -1.06193 8.15713e-20)
(3.60849 0.862151 1.59533e-19)
(3.75238 0.791732 -1.76183e-19)
(3.61605 0.631319 -7.68699e-20)
(0.734217 -0.391577 4.08536e-20)
(1.11499 -0.649738 -7.00423e-19)
(3.05365 -1.81743 -1.73337e-19)
(2.93963 -1.82139 2.17841e-19)
(-0.188767 0.102533 1.08144e-18)
(-0.362396 0.061993 -4.1567e-19)
(3.13698 1.39277 4.41083e-21)
(2.69667 1.13466 -1.92124e-19)
(2.67717 1.54843 1.65476e-19)
(2.51245 1.6751 -5.45222e-19)
(2.51059 1.73921 3.52967e-19)
(2.10811 1.52008 -1.79512e-20)
(2.16905 1.66482 -1.16009e-19)
(2.19551 1.74425 1.94472e-19)
(0.00755891 -0.331298 -2.46859e-19)
(0.48899 0.0443863 -6.44385e-20)
(-0.188962 -0.503016 1.28258e-19)
(-0.399297 -0.712994 -1.64068e-18)
(-0.546817 -0.895085 2.12385e-18)
(1.12258 1.20247 -6.06421e-19)
(1.31294 1.38805 1.35726e-19)
(-0.386731 -0.0545673 0)
(2.51601 -0.000954275 0)
(2.43042 0.078799 -2.97429e-19)
(2.39867 0.178235 2.48332e-19)
(2.60605 0.150613 0)
(3.45487 0.0577823 0)
(3.47127 0.043671 0)
(3.51409 0.0675018 6.1156e-20)
(2.66324 0.354378 -5.3578e-20)
(2.64354 0.375 5.46534e-19)
(2.65169 0.339372 2.92467e-19)
(-0.178438 -0.288742 2.23306e-18)
(-0.190952 -0.376981 -2.50142e-18)
(-0.71433 -0.134049 -4.52607e-19)
(-0.795931 -0.39354 4.26885e-19)
(-0.625104 -0.306456 8.84105e-19)
(0.493937 0.578966 4.84976e-19)
(0.995222 0.436126 1.1617e-18)
(0.83314 1.07758 8.09323e-20)
(0.391482 1.02905 -2.82518e-18)
(3.29653 1.14566 1.72139e-20)
(2.8731 1.07128 3.14081e-19)
(2.78396 0.983035 -5.40682e-19)
(2.73656 -2.04525 -1.27865e-19)
(2.03935 -1.48097 1.50711e-19)
(0.555709 -0.0527358 -1.42887e-18)
(0.603223 -0.247556 0)
(0.93976 -0.283511 8.17511e-19)
(1.89061 -1.44285 -9.27714e-20)
(2.27143 -1.89066 3.5321e-19)
(2.22254 0.0794097 -7.66751e-21)
(2.29317 0.0782698 1.56719e-21)
(2.08431 0.0718254 1.67501e-22)
(1.46094 -2.04713 0)
(1.53598 -1.48393 0)
(2.57379 -0.164618 -1.05822e-19)
(2.53122 -0.153463 6.1893e-19)
(2.53271 -0.0458303 0)
(2.31023 -1.97897 0)
(2.29278 -1.70052 -3.73493e-20)
(2.14315 1.75773 5.52891e-19)
(-0.462628 -0.691485 1.52287e-18)
(-0.409405 -0.579124 -1.1294e-18)
(2.17643 -1.9187 1.01908e-19)
(2.24925 -0.492979 8.06013e-20)
(2.21455 -0.454062 -1.62627e-20)
(3.79385 0.178436 -1.75253e-19)
(3.75782 0.358964 2.35977e-19)
(3.67359 0.325272 7.55225e-19)
(-0.344766 -0.500576 5.26973e-19)
(2.42347 1.7817 8.69529e-19)
(2.49926 1.58364 -2.23738e-19)
(2.87996 1.9354 -2.29701e-22)
(1.67538 -0.055962 -2.5972e-21)
(1.669 -0.0562548 -2.55783e-20)
(1.88589 -0.0658046 -2.20291e-21)
(1.89599 -0.0817381 7.60542e-21)
(2.09687 1.67404 8.28664e-20)
(1.29005 1.49296 0)
(0.219562 -0.878344 7.6108e-19)
(0.29538 -0.614699 -8.26429e-19)
(-0.102691 -0.0496157 5.11742e-19)
(1.48373 0.497578 -7.58081e-19)
(2.70216 0.981129 -3.49443e-19)
(2.12224 -0.0890358 2.31068e-21)
(4.31348 -1.56527 2.77508e-19)
(4.11835 -1.61645 7.85606e-19)
(2.43533 0.542573 6.09916e-19)
(2.25976 0.643612 4.08129e-20)
(2.32563 0.356761 3.31405e-19)
(2.37143 0.369307 -2.3822e-19)
(2.47833 0.55869 0)
(2.75679 0.00789514 3.3233e-20)
(2.76674 -0.00190568 6.31394e-20)
(2.82255 -0.0530657 3.21748e-20)
(2.83428 -0.0534154 -5.859e-20)
(2.68977 0.331514 6.63694e-20)
(2.71848 0.351854 -1.87756e-19)
(2.69018 0.354699 0)
(2.66377 0.330381 3.92912e-20)
(2.6866 0.38276 0)
(2.66635 0.490623 -1.48001e-19)
(2.6621 0.546393 -8.10169e-20)
(2.63776 0.599254 -1.51029e-19)
(2.66147 0.58796 0)
(2.71722 0.60657 4.96407e-19)
(2.66239 0.649774 1.35954e-20)
(2.59666 0.640416 -8.71937e-20)
(2.45565 0.754919 -3.81401e-19)
(2.46574 0.609306 -6.47891e-20)
(0.317118 1.56728 1.57263e-19)
(0.894181 1.2991 -5.39451e-20)
(-0.434212 -0.171793 -6.34418e-19)
(2.02857 0.075037 7.86275e-21)
(2.38361 0.0828074 0)
(0.366907 -0.195708 8.3483e-19)
(0.319499 -0.18913 3.72921e-19)
(2.28141 0.0921211 -1.26903e-21)
(2.46883 0.0986003 -2.21669e-22)
(2.47178 0.0957187 0)
(2.25977 0.0896692 -7.2107e-22)
(1.69591 1.5638 1.33661e-19)
(1.69113 1.5179 -7.22051e-19)
(1.62895 1.43458 -3.49053e-19)
(-0.249925 -0.42997 9.65083e-19)
(-0.176579 -0.215034 -1.23543e-18)
(-0.230626 -0.286361 1.18139e-18)
(-0.30769 -0.179047 0)
(-0.163018 -0.0931993 1.65828e-18)
(-0.149545 -0.110714 -1.43029e-18)
(-0.337336 -0.19133 -1.47178e-18)
(-0.390221 -0.229424 -1.36694e-18)
(-0.272376 -0.185065 0)
(0.167655 0.773206 0)
(0.0840445 0.516251 0)
(0.0172936 0.302726 0)
(3.42315 0.0260935 -4.52545e-21)
(3.36496 -0.00747592 0)
(3.42216 -0.000450453 4.38903e-21)
(2.3544 -0.283304 9.73701e-19)
(2.38848 -0.290043 -3.563e-19)
(2.38224 -0.257103 0)
(2.27407 -2.09865 7.27739e-21)
(2.25857 -2.08343 -1.44118e-20)
(2.28351 -2.11695 4.78238e-21)
(2.23995 -2.06365 0)
(2.21809 -2.0341 1.07006e-20)
(2.19263 -1.99083 0)
(2.14115 -1.95812 0)
(2.16637 -1.92328 -4.59354e-20)
(2.09898 -1.89187 0)
(2.18299 -2.00311 1.00414e-20)
(2.21972 -2.0355 0)
(2.25259 -2.05938 -4.49401e-21)
(2.28185 -2.07927 7.0209e-21)
(2.30612 -2.10242 -4.77089e-21)
(2.13932 -1.82685 4.38967e-20)
(2.05786 -1.80134 1.56151e-21)
(2.28483 -2.14141 7.51485e-24)
(2.32234 -2.13416 7.51614e-21)
(2.28218 -2.17165 -4.24717e-20)
(2.11365 -1.69266 -4.77707e-23)
(2.01813 -1.67546 1.83304e-21)
(2.33537 -2.17029 -1.53814e-20)
(2.09166 -1.51417 -5.31099e-20)
(2.07842 -1.29144 5.30627e-20)
(1.98137 -1.50578 -3.41622e-21)
(1.95289 -1.29059 -7.84284e-21)
(2.2715 -2.20556 4.14037e-20)
(2.34313 -2.20905 1.02723e-20)
(2.07283 -1.02805 0)
(1.93534 -1.03316 7.74246e-21)
(2.25522 -2.23423 -5.63334e-24)
(2.34528 -2.24066 5.61216e-24)
(2.07392 -0.731264 0)
(1.92857 -0.741609 0)
(2.23511 -2.24667 0)
(2.34599 -2.2537 0)
(2.08044 -0.411523 0)
(1.93099 -0.426568 -4.26913e-21)
(2.2122 -2.23105 2.95218e-20)
(2.34515 -2.23593 6.8538e-24)
(2.09378 -0.0801188 -2.34028e-22)
(1.94216 -0.10147 4.57564e-21)
(2.18973 -2.17602 -2.96588e-20)
(2.34526 -2.17637 0)
(2.11321 0.24971 0)
(1.96235 0.222156 0)
(2.16876 -2.07129 2.19574e-21)
(2.34667 -2.06509 -3.96012e-20)
(2.13853 0.566802 -2.91792e-20)
(1.99002 0.531981 0)
(2.15042 -1.91043 2.91744e-21)
(2.35012 -1.89697 3.76393e-20)
(2.16789 0.859925 4.31144e-20)
(2.02526 0.820049 1.14298e-20)
(2.13831 -1.68926 -4.12743e-20)
(2.35231 -1.67119 0)
(2.19782 1.11989 -1.38537e-20)
(2.06248 1.07857 -7.67169e-21)
(2.12675 -1.40993 2.36609e-20)
(2.36005 -1.39038 -4.82043e-20)
(2.23235 1.3421 4.96085e-20)
(2.1077 1.3026 -5.60566e-20)
(2.12439 -1.07469 -2.49084e-20)
(2.36232 -1.06305 -8.43797e-22)
(2.26191 1.52592 0)
(2.15215 1.48609 -2.35198e-20)
(2.12848 -0.70535 5.40563e-20)
(2.37637 -0.690326 -1.0882e-19)
(2.29112 1.66634 0)
(2.19472 1.62857 0)
(1.90843 -1.08151 2.46602e-20)
(1.90495 -0.722008 9.99266e-20)
(2.14184 -0.29968 0)
(2.39373 -0.288523 5.67906e-20)
(1.94204 -1.66717 1.30098e-20)
(1.91649 -1.39922 -2.70791e-21)
(2.00954 -2.03369 0)
(1.97127 -1.87913 4.0421e-20)
(2.09649 -2.1903 5.84794e-23)
(2.05209 -2.13495 0)
(2.17887 -2.20135 0)
(2.13937 -2.20878 0)
(2.24 -2.15369 0)
(2.21146 -2.17995 0)
(2.26967 -2.11564 -9.60599e-21)
(2.25842 -2.13192 -2.43829e-21)
(2.27461 -2.09215 9.4233e-21)
(2.27551 -2.10273 9.41172e-21)
(2.26156 -2.05069 -1.86048e-20)
(2.26823 -2.07652 -2.27401e-20)
(2.24399 -1.94599 0)
(2.2532 -2.01096 0)
(2.22762 -1.71107 1.15709e-22)
(2.2354 -1.84844 0)
(2.22246 -1.30004 0)
(2.22237 -1.52862 0)
(2.23542 -0.721281 0)
(2.22679 -1.02831 0)
(2.26547 -0.0480406 0)
(2.24822 -0.3901 0)
(2.30654 0.609946 0)
(2.28512 0.289604 0)
(2.3488 1.15675 0)
(2.32777 0.901271 0)
(2.38242 1.54825 2.00664e-20)
(2.36834 1.37199 0)
(2.3966 1.68673 5.92531e-21)
(2.31593 1.76569 -5.21538e-21)
(2.23413 1.73172 5.17418e-21)
(2.0017 1.25257 0)
(2.10803 1.57872 2.00836e-20)
(2.05425 1.43515 1.27179e-20)
(1.91042 0.782985 -3.77667e-21)
(1.95295 1.03378 1.30326e-20)
(1.84249 0.200553 -1.16183e-22)
(1.87164 0.501861 0)
(1.81465 -0.427951 0)
(1.82276 -0.113658 0)
(1.83353 -1.00971 0)
(1.81798 -0.730784 0)
(1.90106 -1.46163 0)
(1.86168 -1.25539 -1.26995e-26)
(2.00113 -1.7505 -8.4903e-23)
(1.94873 -1.62575 0)
(2.10751 -1.91207 0)
(2.05509 -1.84445 0)
(2.20816 -1.9949 0)
(2.15948 -1.95998 0)
(2.29569 -2.04653 0)
(2.25311 -2.02235 4.65124e-21)
(2.36414 -2.11026 -1.45398e-21)
(2.33368 -2.07363 5.73659e-21)
(2.41846 -2.19329 0)
(2.39364 -2.1509 5.01484e-21)
(2.46121 -2.24106 0)
(2.44015 -2.22701 0)
(2.50486 -2.16236 0)
(2.48272 -2.22318 0)
(2.55132 -1.88102 0)
(2.52811 -2.04991 0)
(2.59199 -1.37065 1.2145e-20)
(2.57171 -1.65449 0)
(2.62345 -0.67191 5.60033e-20)
(2.60702 -1.04079 1.29922e-20)
(2.64551 -0.271453 -5.80602e-20)
(1.91696 -0.327878 -1.00035e-19)
(2.40728 1.78562 -1.06504e-20)
(2.16013 1.6841 1.68802e-20)
(2.4162 0.137836 0)
(2.66694 0.142998 0)
(1.93266 0.0906079 0)
(2.1665 0.12515 0)
(1.71182 -1.05934 0)
(1.70024 -0.337919 -2.028e-20)
(1.6991 -0.714431 -2.37456e-20)
(1.77068 -1.61869 -2.54114e-20)
(1.73263 -1.36104 5.24575e-21)
(1.87576 -1.97352 -6.28502e-23)
(1.81825 -1.82186 0)
(2.00157 -2.13324 0)
(1.93807 -2.07529 0)
(2.11788 -2.15514 0)
(2.06217 -2.15635 0)
(2.20741 -2.12449 0)
(2.1662 -2.14181 0)
(2.26516 -2.10085 0)
(2.24072 -2.10976 0)
(2.29896 -2.08775 3.99934e-23)
(2.28376 -2.09427 -1.00109e-20)
(2.31448 -2.05395 4.2745e-23)
(2.307 -2.07716 2.10866e-20)
(2.32696 -1.9506 0)
(2.32098 -2.01482 0)
(2.34077 -1.71198 -5.83913e-23)
(2.33355 -1.85202 0)
(2.36203 -1.29353 0)
(2.34993 -1.52612 0)
(2.39394 -0.708504 0)
(2.37683 -1.0181 0)
(2.42985 -0.0355763 0)
(2.41175 -0.376407 0)
(2.46336 0.618873 0)
(2.44693 0.300475 0)
(2.48989 1.16423 0)
(2.47711 0.909494 0)
(2.50219 1.55771 -1.39349e-20)
(2.49749 1.38111 0)
(2.34017 1.83095 0)
(2.41609 1.84698 -8.98224e-21)
(2.4994 1.79046 0)
(2.50159 1.69403 -1.26127e-20)
(2.03281 1.51939 -2.02896e-20)
(2.09467 1.6263 -4.32512e-21)
(2.20866 1.7555 -3.72659e-20)
(2.27103 1.80012 0)
(1.91321 1.19665 0)
(1.97084 1.37567 3.14003e-20)
(1.81214 0.739691 -9.78813e-23)
(1.85969 0.985823 -1.31182e-20)
(1.74234 0.177079 1.16182e-22)
(1.77182 0.468204 0)
(1.71864 -0.427923 0)
(1.72381 -0.125798 0)
(1.74981 -0.984905 0)
(1.72723 -0.718026 0)
(1.83438 -1.41555 0)
(1.78622 -1.21946 1.26997e-26)
(1.95452 -1.69089 1.61375e-22)
(1.8917 -1.57142 0)
(2.08449 -1.8512 0)
(2.01989 -1.78137 0)
(2.20559 -1.94184 -2.15079e-21)
(2.14652 -1.90295 0)
(2.31512 -2.00127 0)
(2.26169 -1.97297 2.14166e-21)
(2.40963 -2.07218 -4.78777e-21)
(2.36508 -2.03299 -4.6114e-21)
(2.49179 -2.16155 0)
(2.45175 -2.11702 0)
(2.57085 -2.20954 0)
(2.5312 -2.19602 0)
(2.65596 -2.12843 0)
(2.61247 -2.19044 0)
(2.74577 -1.85122 0)
(2.70108 -2.01631 0)
(2.82345 -1.35922 -1.9212e-22)
(2.78768 -1.63195 0)
(2.87609 -0.666753 2.15143e-22)
(2.85343 -1.0338 0)
(2.91633 0.140375 5.84773e-20)
(2.89742 -0.270495 -5.84191e-20)
(1.70804 0.0613158 -4.62198e-20)
(2.69224 0.562597 0)
(2.93463 0.55374 1.12629e-19)
(2.43893 0.565124 0)
(2.49436 1.85062 0)
(2.15481 1.70266 3.96784e-21)
(1.95079 0.506904 -1.25241e-19)
(1.73104 0.461833 -4.59187e-20)
(2.70317 0.964139 -2.86312e-20)
(2.93688 0.946797 -1.41798e-19)
(2.19065 0.549936 0)
(2.59606 1.77615 -4.58768e-20)
(2.57658 1.83542 2.17961e-20)
(2.25506 1.80047 8.12413e-21)
(2.2126 1.75272 -3.86751e-20)
(1.56064 0.407221 -1.55039e-19)
(1.76839 0.853087 9.22032e-20)
(1.62226 1.11128 3.21706e-19)
(1.59881 0.784196 8.48897e-20)
(1.5155 -0.346348 -4.02728e-20)
(1.52672 0.0281345 1.34037e-19)
(1.54527 -1.02922 4.25066e-20)
(1.52155 -0.702442 3.44437e-20)
(1.63046 -1.55942 9.64141e-21)
(1.57993 -1.31492 9.27402e-21)
(1.76635 -1.90156 6.28503e-23)
(1.69278 -1.75434 0)
(1.92431 -2.06305 0)
(1.84518 -2.00271 0)
(2.06981 -2.09702 0)
(2.00026 -2.09139 0)
(2.18549 -2.08315 0)
(2.1321 -2.09181 0)
(2.26907 -2.07381 0)
(2.23123 -2.07628 0)
(2.32855 -2.07133 0)
(2.29999 -2.07337 0)
(2.3739 -2.04355 -8.21871e-25)
(2.35214 -2.06372 0)
(2.41615 -1.93988 0)
(2.39513 -2.00505 0)
(2.46018 -1.69772 -5.86087e-23)
(2.43789 -1.83963 0)
(2.50864 -1.2767 0)
(2.48381 -1.5103 0)
(2.55808 -0.691701 0)
(2.53398 -1.00116 0)
(2.59812 -0.0192512 0)
(2.57955 -0.360041 0)
(2.62546 0.635217 0)
(2.61341 0.316811 0)
(2.63613 1.17573 0)
(2.6328 0.924138 0)
(2.62468 1.55545 -7.21807e-21)
(2.63286 1.3867 3.71804e-21)
(2.61121 1.68459 2.42911e-20)
(2.36161 1.86656 4.45949e-21)
(2.48736 1.88054 -1.84023e-20)
(2.42247 1.87961 1.5099e-20)
(2.30441 1.83811 0)
(1.97374 1.45545 1.29653e-20)
(2.11088 1.6411 3.40648e-20)
(2.04297 1.5629 -2.8793e-20)
(1.84198 1.13572 0)
(1.90634 1.31268 0)
(1.73347 0.693439 1.1808e-23)
(1.78416 0.931243 0)
(1.66236 0.152924 0)
(1.69187 0.432692 0)
(1.64411 -0.423527 9.05791e-23)
(1.64573 -0.136109 0)
(1.68767 -0.950416 0)
(1.65814 -0.698515 0)
(1.7891 -1.35726 0)
(1.73218 -1.17175 0)
(1.92602 -1.62436 -7.64419e-23)
(1.85514 -1.50689 0)
(2.07121 -1.78421 -6.11628e-23)
(1.99903 -1.71488 0)
(2.20973 -1.87872 0)
(2.14176 -1.83771 0)
(2.33888 -1.94375 0)
(2.27565 -1.91209 0)
(2.45734 -2.02155 0)
(2.39955 -1.97932 0)
(2.56771 -2.11367 0)
(2.51272 -2.06858 0)
(2.68117 -2.15965 9.43592e-23)
(2.62364 -2.14768 0)
(2.80318 -2.07376 0)
(2.74099 -2.13824 0)
(2.92958 -1.79406 0)
(2.86681 -1.95971 0)
(3.04052 -1.31087 1.04478e-23)
(2.98864 -1.57727 0)
(3.11522 -0.642573 -1.16278e-23)
(3.08279 -0.997116 0)
(3.15765 0.135814 -2.14107e-22)
(3.13862 -0.259591 0)
(3.16509 0.911645 1.03778e-19)
(3.1675 0.533134 -2.69974e-20)
(2.92686 1.29662 -2.56619e-20)
(3.14386 1.25039 -5.40263e-20)
(1.97794 0.900614 5.18741e-20)
(2.46399 0.972168 5.49348e-20)
(2.55534 1.86625 -4.71344e-21)
(2.17527 1.69502 -2.64629e-20)
(1.81732 1.20637 -1.25085e-21)
(2.70894 1.32344 0)
(1.73725 1.4049 -4.83845e-19)
(3.11148 1.53538 -6.54568e-20)
(2.90817 1.58506 -9.19574e-20)
(1.55348 1.29928 6.37522e-19)
(1.63852 1.46614 -1.03763e-19)
(2.22003 0.945111 0)
(1.45928 0.960375 -7.83917e-20)
(1.50395 1.18379 -3.89466e-20)
(1.40494 0.360924 -7.92646e-20)
(1.43393 0.692837 1.10418e-19)
(1.36936 -0.344946 4.05204e-20)
(1.37723 0.00489633 1.81836e-20)
(1.41142 -0.982863 -1.86219e-20)
(1.37945 -0.675872 -2.06249e-20)
(1.52265 -1.48736 0)
(1.4599 -1.25466 -2.93468e-22)
(1.68446 -1.81891 0)
(1.59843 -1.6758 0)
(1.86606 -1.98075 -4.28509e-23)
(1.77543 -1.91871 0)
(2.0347 -2.02682 0)
(1.95377 -2.01409 0)
(2.17311 -2.02926 0)
(2.10832 -2.0296 0)
(2.2802 -2.03383 0)
(2.22984 -2.03007 0)
(2.36462 -2.04035 -3.63042e-23)
(2.32383 -2.03849 0)
(2.43834 -2.01633 -1.63339e-24)
(2.40239 -2.03501 0)
(2.50953 -1.91217 0)
(2.47382 -1.97794 0)
(2.58361 -1.6691 1.15694e-22)
(2.54631 -1.81132 0)
(2.65791 -1.249 0)
(2.62118 -1.48172 0)
(2.72271 -0.668129 0)
(2.69239 -0.974951 0)
(2.76745 -0.00371321 0)
(2.74788 -0.340086 0)
(2.78766 0.639105 0)
(2.78086 0.327026 0)
(2.78001 1.16624 0)
(2.78704 0.92143 0)
(2.74516 1.53495 3.52188e-21)
(2.76499 1.37107 0)
(2.69052 1.75015 0)
(2.71957 1.65989 6.14267e-21)
(2.62294 1.83938 1.62265e-22)
(2.65773 1.8084 0)
(2.47754 1.89006 1.8672e-20)
(2.5879 1.84704 -1.02401e-21)
(2.53227 1.8747 -8.55014e-21)
(2.3792 1.88069 -6.37067e-21)
(2.42651 1.89128 4.44299e-21)
(2.29888 1.82468 2.2018e-21)
(2.33556 1.85741 -1.98602e-21)
(2.2382 1.7274 0)
(2.26579 1.78088 1.79895e-20)
(2.07743 1.57016 7.23607e-21)
(2.21619 1.66531 1.32399e-20)
(2.14803 1.62746 -2.85755e-20)
(1.92931 1.38134 4.21999e-21)
(2.00272 1.49033 0)
(1.78977 1.0724 0)
(1.85781 1.24209 0)
(1.67483 0.645736 1.19995e-23)
(1.7279 0.873847 0)
(1.60396 0.129884 0)
(1.63285 0.396633 0)
(1.59199 -0.414878 -9.0579e-23)
(1.5898 -0.143682 0)
(1.64663 -0.909947 0)
(1.61095 -0.673487 0)
(1.76119 -1.29226 0)
(1.69781 -1.11749 0)
(1.9114 -1.54857 0)
(1.83386 -1.43451 0)
(2.06889 -1.71083 7.80486e-24)
(1.99061 -1.63916 0)
(2.22124 -1.80935 0)
(2.14586 -1.76636 0)
(2.3668 -1.87812 0)
(2.29504 -1.84453 0)
(2.50439 -1.95934 0)
(2.43644 -1.91558 0)
(2.6405 -2.05086 0)
(2.57207 -2.00656 0)
(2.78517 -2.09273 -9.43591e-23)
(2.71139 -2.08292 0)
(2.94225 -2.00386 0)
(2.86235 -2.06925 0)
(3.10351 -1.73011 0)
(3.02371 -1.89129 0)
(3.24464 -1.26129 1.81747e-22)
(3.17845 -1.51991 0)
(3.33957 -0.611102 -2.04527e-22)
(3.29911 -0.955978 0)
(3.38126 0.143479 2.11679e-22)
(3.36696 -0.23902 0)
(3.37246 0.886321 -2.55936e-20)
(3.38368 0.523656 5.19927e-20)
(3.29613 1.48991 2.27479e-20)
(3.33967 1.21326 -4.71413e-20)
(3.06786 1.75946 9.30868e-21)
(3.23353 1.70836 -3.66031e-20)
(2.02273 1.2597 4.73565e-20)
(2.47937 1.32109 0)
(1.90158 1.48694 3.67218e-19)
(2.69769 1.62009 0)
(2.69125 1.79911 3.93427e-21)
(2.64515 1.80596 -2.89914e-21)
(2.29576 1.74777 1.30631e-20)
(2.28281 1.69084 1.32888e-20)
(1.78868 1.59894 2.91838e-19)
(2.88826 1.8126 9.29228e-20)
(1.74752 1.61798 0)
(1.49092 1.3095 5.56085e-20)
(3.01619 1.92231 4.356e-20)
(3.16677 1.8627 -4.44501e-20)
(1.64922 1.48053 -1.23367e-19)
(2.24519 1.30031 0)
(1.35415 0.89025 0)
(1.40867 1.10992 5.83722e-20)
(1.28692 0.329155 0)
(1.31529 0.631705 0)
(1.2604 -0.328541 0)
(1.26598 -0.000948623 -1.8838e-20)
(1.31711 -0.930373 0)
(1.27734 -0.640126 0)
(1.44886 -1.40902 0)
(1.37533 -1.18796 0)
(1.62958 -1.72637 0)
(1.53486 -1.58885 0)
(1.82749 -1.88769 4.28509e-23)
(1.72884 -1.82425 0)
(2.01278 -1.9453 0)
(1.92322 -1.92561 0)
(2.16934 -1.96333 0)
(2.0949 -1.95574 0)
(2.29717 -1.98074 0)
(2.23593 -1.97123 0)
(2.40573 -1.9947 2.44942e-24)
(2.35304 -1.98972 0)
(2.50598 -1.97318 -2.32692e-24)
(2.45645 -1.99113 0)
(2.60528 -1.86875 0)
(2.55536 -1.93473 0)
(2.70732 -1.62632 -2.50941e-24)
(2.65631 -1.76795 0)
(2.80477 -1.21015 0)
(2.75744 -1.44034 0)
(2.88422 -0.639346 0)
(2.84772 -0.940502 0)
(2.93235 0.010587 0)
(2.91269 -0.31833 0)
(2.94415 0.639209 0)
(2.94297 0.333957 0)
(2.91922 1.15305 0)
(2.93611 0.914699 0)
(2.86241 1.50681 0)
(2.89394 1.3505 0)
(2.78218 1.71421 -5.36241e-21)
(2.82416 1.62736 -6.23622e-21)
(2.73746 1.76988 9.43174e-21)
(2.46721 1.88515 8.51428e-21)
(2.55176 1.83925 0)
(2.50904 1.86765 8.65101e-21)
(2.39457 1.88223 0)
(2.42868 1.88963 -8.69564e-21)
(2.3378 1.83529 -1.16702e-20)
(2.36362 1.86358 4.09387e-21)
(2.31519 1.79632 2.21781e-20)
(2.05375 1.49414 -2.74983e-21)
(2.20475 1.59723 -9.61829e-21)
(2.13208 1.55185 0)
(1.90002 1.30365 6.6156e-21)
(1.97705 1.41067 -6.63519e-21)
(1.75409 1.00561 0)
(1.8248 1.16798 0)
(1.63668 0.597805 1.18157e-23)
(1.69055 0.81479 0)
(1.56759 0.109112 0)
(1.595 0.361097 0)
(1.56225 -0.402121 0)
(1.55613 -0.147925 0)
(1.62656 -0.863912 0)
(1.58591 -0.643172 0)
(1.75112 -1.22202 0)
(1.68273 -1.05752 0)
(1.9092 -1.46878 -4.92311e-23)
(1.82794 -1.3579 0)
(2.07463 -1.63043 5.33579e-23)
(1.99205 -1.55849 0)
(2.23757 -1.73119 0)
(2.15649 -1.68704 0)
(2.3971 -1.80337 0)
(2.318 -1.76785 0)
(2.55188 -1.88675 0)
(2.47492 -1.84254 0)
(2.7099 -1.97489 0)
(2.62976 -1.93297 0)
(2.88037 -2.00988 0)
(2.79331 -2.00389 0)
(3.06529 -1.91419 0)
(2.9713 -1.98265 0)
(3.2545 -1.64225 1.25781e-22)
(3.16077 -1.80069 0)
(3.42146 -1.19225 -1.51573e-22)
(3.34273 -1.43942 0)
(3.53721 -0.571904 1.7075e-22)
(3.48745 -0.901222 0)
(3.58295 0.150574 0)
(3.56909 -0.215891 0)
(3.558 0.853819 0)
(3.57962 0.511229 0)
(3.46387 1.41911 -1.4605e-22)
(3.51734 1.16052 -2.24278e-20)
(3.30671 1.77588 7.65423e-20)
(3.38848 1.62455 0)
(3.09761 1.95943 4.87831e-20)
(3.21759 1.87235 -7.4135e-21)
(2.07506 1.5559 -1.31404e-19)
(2.48854 1.61335 0)
(2.59644 1.79932 1.46169e-20)
(2.2749 1.62538 1.99822e-20)
(1.93401 1.70964 5.67415e-20)
(1.80391 1.65863 1.27685e-20)
(1.89684 1.76276 -1.27106e-19)
(2.69527 1.84136 0)
(2.85162 1.97264 -1.83087e-20)
(1.77948 1.62392 9.47474e-20)
(1.78953 1.72435 -8.02958e-20)
(1.87818 1.78982 9.8407e-20)
(2.96872 2.02186 5.06e-20)
(3.0247 2.00375 -2.75302e-20)
(3.1307 1.91771 -2.93457e-20)
(2.27545 1.59741 0)
(1.48293 1.23023 -2.82826e-21)
(1.72702 1.51205 -1.01783e-20)
(1.61993 1.40291 -2.04725e-20)
(1.30241 0.811742 -2.63705e-20)
(1.37595 1.02828 2.65324e-20)
(1.21738 0.292728 -5.22193e-23)
(1.25644 0.569144 0)
(1.19359 -0.312291 0)
(1.19398 -0.00643223 0)
(1.2629 -0.877899 0)
(1.21729 -0.605915 0)
(1.40681 -1.32591 0)
(1.32722 -1.11914 0)
(1.59889 -1.62595 -3.77681e-23)
(1.49887 -1.49503 0)
(1.80747 -1.78675 0)
(1.70335 -1.72172 0)
(2.00404 -1.85538 0)
(1.90842 -1.82904 0)
(2.1742 -1.8878 0)
(2.09238 -1.87302 0)
(2.31955 -1.91645 0)
(2.24919 -1.90196 0)
(2.44995 -1.9365 3.38549e-23)
(2.38609 -1.92908 0)
(2.5746 -1.91674 -2.86252e-24)
(2.51251 -1.93423 0)
(2.70011 -1.81193 0)
(2.63705 -1.87808 0)
(2.82715 -1.57081 -1.05785e-22)
(2.76391 -1.71126 0)
(2.945 -1.16214 0)
(2.88823 -1.38762 0)
(3.03679 -0.606546 0)
(2.99526 -0.899316 0)
(3.08755 0.0243472 0)
(3.06801 -0.294602 0)
(3.09146 0.632222 0)
(3.09541 0.337431 0)
(3.04946 1.1258 0)
(3.07591 0.897345 0)
(2.96955 1.46507 -9.59679e-23)
(3.01348 1.3143 0)
(2.86745 1.66331 5.38448e-21)
(2.92018 1.58016 0)
(2.75503 1.74883 -4.67382e-21)
(2.81186 1.71864 0)
(2.63876 1.75146 -3.42842e-21)
(2.69667 1.75809 3.99415e-21)
(2.51459 1.82484 -7.40661e-21)
(2.5805 1.73504 0)
(2.54825 1.78335 -1.08001e-20)
(2.45507 1.87452 0)
(2.48368 1.85513 0)
(2.40704 1.87818 0)
(2.42912 1.88196 0)
(2.37291 1.8382 0)
(2.38794 1.86313 0)
(2.35034 1.75931 -1.33119e-20)
(2.36015 1.80324 -3.5973e-21)
(2.34159 1.64604 -2.44147e-21)
(2.34414 1.70696 -2.3685e-20)
(2.1995 1.52028 -1.15571e-20)
(2.34469 1.57813 -1.72469e-21)
(2.27308 1.55408 4.1539e-21)
(2.04273 1.41256 -2.21423e-21)
(2.12275 1.47369 1.46318e-20)
(1.88371 1.22408 8.58831e-24)
(1.96423 1.3284 0)
(1.73531 0.937644 0)
(1.80685 1.09317 0)
(1.61823 0.550313 1.13235e-23)
(1.67144 0.755303 0)
(1.55272 0.0909713 0)
(1.57779 0.326907 0)
(1.55369 -0.385325 0)
(1.54429 -0.148934 0)
(1.62586 -0.813532 0)
(1.58107 -0.608854 0)
(1.75658 -1.14833 0)
(1.68536 -0.993812 0)
(1.91855 -1.38646 8.97089e-23)
(1.83549 -1.2782 0)
(2.08801 -1.54825 0)
(2.00312 -1.47587 0)
(2.25852 -1.64934 0)
(2.17318 -1.60503 0)
(2.42846 -1.72239 0)
(2.34384 -1.68633 0)
(2.59702 -1.80543 0)
(2.51259 -1.76188 0)
(2.77324 -1.88817 5.41389e-23)
(2.68349 -1.84947 0)
(2.96546 -1.91614 0)
(2.86725 -1.91352 0)
(3.17355 -1.81635 0)
(3.06792 -1.88607 0)
(3.38566 -1.54982 -1.25781e-22)
(3.28063 -1.70397 0)
(3.57213 -1.11822 1.79553e-23)
(3.48447 -1.35464 0)
(3.7008 -0.526605 -3.21156e-22)
(3.64524 -0.840471 0)
(3.75062 0.159744 0)
(3.73654 -0.187851 0)
(3.71466 0.821882 0)
(3.74314 0.500606 0)
(3.59945 1.35813 1.73654e-23)
(3.66633 1.11131 0)
(3.42021 1.69553 0)
(3.51482 1.55397 0)
(3.22075 1.82599 3.29194e-20)
(3.31929 1.78455 0)
(3.04352 1.92593 -5.41041e-21)
(3.11868 1.83421 -4.46816e-20)
(2.10756 1.79089 0)
(1.8173 1.59633 -1.20727e-19)
(2.0217 1.86884 -3.72935e-20)
(2.68089 1.69403 3.42339e-21)
(2.6155 1.67775 0)
(2.4064 1.66236 -2.11779e-21)
(2.41414 1.59923 4.84913e-21)
(2.49111 1.84399 0)
(2.6803 1.99596 0)
(1.98499 1.87955 0)
(2.82322 2.07045 1.8027e-20)
(2.91155 2.06919 2.72691e-20)
(2.95812 2.00689 0)
(2.95608 1.90785 -5.04453e-20)
(3.01854 1.82142 3.60267e-20)
(2.2948 1.82861 0)
(1.72807 1.45108 8.5924e-24)
(1.86801 1.61649 -2.90097e-20)
(1.93746 1.65863 9.37801e-20)
(1.82485 1.57253 -3.26147e-20)
(1.48245 1.15636 1.18337e-20)
(1.60968 1.32126 2.02438e-20)
(1.29055 0.739873 0)
(1.37229 0.957563 0)
(1.19466 0.256704 5.22189e-23)
(1.23744 0.508628 0)
(1.16864 -0.297338 0)
(1.16858 -0.0158401 0)
(1.24464 -0.822687 0)
(1.1957 -0.570074 0)
(1.39403 -1.2387 0)
(1.31214 -1.04676 0)
(1.59017 -1.52098 3.77681e-23)
(1.48822 -1.39677 0)
(1.80364 -1.68125 0)
(1.6967 -1.61454 0)
(2.00719 -1.76037 0)
(1.90763 -1.7278 0)
(2.18763 -1.80582 0)
(2.10023 -1.78474 0)
(2.34745 -1.8437 0)
(2.26952 -1.82531 0)
(2.49633 -1.86792 -2.77826e-23)
(2.42277 -1.859 0)
(2.64249 -1.84868 -3.27216e-24)
(2.56935 -1.86621 0)
(2.79102 -1.74295 0)
(2.71648 -1.80952 0)
(2.93957 -1.50427 4.05743e-24)
(2.8659 -1.64281 0)
(3.07463 -1.10635 0)
(3.00999 -1.32525 0)
(3.17636 -0.570081 0)
(3.13098 -0.852075 0)
(3.22885 0.0364414 0)
(3.20939 -0.269955 0)
(3.22458 0.619106 0)
(3.23384 0.336746 0)
(3.16651 1.09078 0)
(3.20164 0.872738 0)
(3.06681 1.41488 1.84375e-22)
(3.12057 1.27108 0)
(2.94449 1.60594 7.31344e-23)
(3.00699 1.52562 0)
(2.81374 1.68968 -8.65333e-21)
(2.87946 1.66006 8.46324e-21)
(2.74727 1.69943 -6.81773e-21)
(2.47892 1.80778 -1.80513e-21)
(2.5228 1.71474 -3.87434e-22)
(2.50124 1.76513 5.39503e-21)
(2.44178 1.86288 0)
(2.45877 1.84074 0)
(2.41624 1.87328 6.27994e-26)
(2.42728 1.87368 0)
(2.40321 1.8393 0)
(2.40776 1.86171 0)
(2.39997 1.76816 -6.60317e-21)
(2.40055 1.80781 7.14318e-21)
(2.40209 1.7194 1.85297e-22)
(2.20114 1.44034 3.84563e-22)
(2.35226 1.50615 4.14721e-21)
(2.27767 1.47815 -7.34429e-22)
(2.04239 1.3291 2.07897e-21)
(2.12297 1.39197 -2.08212e-21)
(1.87997 1.14493 4.1379e-23)
(1.96144 1.24615 0)
(1.73219 0.869863 3.70346e-23)
(1.8037 1.0185 0)
(1.61796 0.504127 1.05785e-23)
(1.66968 0.696753 0)
(1.55736 0.0755333 0)
(1.57982 0.294805 0)
(1.56453 -0.365046 0)
(1.55197 -0.146919 0)
(1.64203 -0.760467 0)
(1.5949 -0.571572 0)
(1.77517 -1.07333 0)
(1.7032 -0.928019 0)
(1.93699 -1.30301 -4.04778e-23)
(1.85416 -1.19762 0)
(2.10769 -1.46253 -3.032e-23)
(2.02175 -1.39103 0)
(2.28309 -1.56254 0)
(2.19493 -1.51859 0)
(2.46027 -1.63619 0)
(2.37181 -1.59975 0)
(2.63888 -1.71702 0)
(2.54895 -1.6753 0)
(2.82871 -1.79243 -5.41389e-23)
(2.73184 -1.75788 0)
(3.03603 -1.81114 5.89126e-23)
(2.93019 -1.81319 0)
(3.25885 -1.70436 0)
(3.14598 -1.77694 0)
(3.4859 -1.44206 0)
(3.37314 -1.59191 0)
(3.68912 -1.03521 1.86128e-23)
(3.59314 -1.25667 0)
(3.82817 -0.482238 2.7968e-22)
(3.76869 -0.775927 0)
(3.87994 0.161521 0)
(3.86587 -0.164511 0)
(3.8346 0.780331 0)
(3.86926 0.481128 0)
(3.70278 1.27981 1.82432e-23)
(3.77847 1.04985 0)
(3.51021 1.59653 0)
(3.61198 1.46333 0)
(3.29158 1.7238 -1.90789e-20)
(3.40139 1.68142 0)
(3.07087 1.72574 -1.56846e-20)
(3.17727 1.73747 3.34672e-20)
(1.99501 1.83383 1.30809e-19)
(1.97196 1.82883 1.23668e-19)
(2.92523 1.79218 1.39528e-20)
(2.96802 1.70332 -1.39428e-20)
(2.16519 1.9366 0)
(2.55117 1.65737 -5.13301e-21)
(2.42478 1.52958 1.64528e-20)
(2.03812 1.66909 -1.97688e-20)
(2.50146 1.99792 0)
(1.98172 1.66738 -6.60951e-21)
(2.08814 1.97662 0)
(2.66728 2.09294 0)
(2.07778 1.93068 0)
(2.78661 2.11334 0)
(2.86081 2.07433 0)
(2.8819 1.98895 4.96399e-21)
(2.87553 1.87514 1.16852e-20)
(2.83445 1.76108 0)
(2.87189 1.67617 2.20972e-20)
(2.32688 1.97794 0)
(1.89717 1.4146 -3.90234e-20)
(2.15205 1.65746 -7.01446e-20)
(2.09985 1.50106 -3.46567e-20)
(2.00572 1.46608 3.99527e-20)
(1.70102 1.28941 -3.21956e-21)
(1.7977 1.35985 1.43775e-20)
(1.48765 1.05283 -8.86873e-21)
(1.5947 1.19054 6.94676e-24)
(1.30619 0.670066 -3.12213e-23)
(1.38753 0.875637 0)
(1.20744 0.218619 -3.37419e-23)
(1.24961 0.450675 0)
(1.18049 -0.282474 0)
(1.18188 -0.0278754 0)
(1.25603 -0.763926 0)
(1.20687 -0.531552 0)
(1.40643 -1.14951 0)
(1.32428 -0.971253 0)
(1.60155 -1.41543 0)
(1.50026 -1.29743 0)
(1.81425 -1.57445 0)
(1.70734 -1.50656 0)
(2.02036 -1.6624 0)
(1.91902 -1.62457 0)
(2.20805 -1.71876 0)
(2.11655 -1.6925 0)
(2.37962 -1.76361 0)
(2.29539 -1.74242 0)
(2.54388 -1.79007 3.38914e-24)
(2.46218 -1.78052 0)
(2.70828 -1.77001 -3.24928e-23)
(2.62579 -1.78814 0)
(2.876 -1.66324 0)
(2.79187 -1.73017 0)
(3.04198 -1.42862 8.97421e-23)
(2.95997 -1.56417 0)
(3.19029 -1.04405 0)
(3.11975 -1.25487 0)
(3.29963 -0.530454 0)
(3.25123 -0.800136 0)
(3.35218 0.0470258 0)
(3.33371 -0.24464 0)
(3.34005 0.600515 0)
(3.35422 0.332556 0)
(3.26772 1.04651 0)
(3.31073 0.840501 0)
(3.15044 1.35322 -8.84072e-23)
(3.21335 1.21662 0)
(3.01059 1.53795 -6.94087e-24)
(3.08193 1.4593 0)
(2.8659 1.62061 -3.8857e-21)
(2.93812 1.5909 0)
(2.72039 1.62743 0)
(2.79287 1.6317 8.47702e-21)
(2.57744 1.5937 5.51961e-21)
(2.64887 1.61316 0)