/*--------------------------------*- C++ -*----------------------------------*\
  =========                 |
  \\      /  F ield         | OpenFOAM: The Open Source CFD Toolbox
   \\    /   O peration     | Website:  https://openfoam.org
    \\  /    A nd           | Version:  10
     \\/     M anipulation  |
\*---------------------------------------------------------------------------*/
FoamFile
{
    format      ascii;
    class       volScalarField;
    location    "4.5";
    object      p;
}
// * * * * * * * * * * * * * * * * * * * * * * * * * * * * * * * * * * * * * //

dimensions      [0 2 -2 0 0 0 0];

internalField   nonuniform List<scalar> 
28942
(
-1.19746
-1.18752
-1.837
0.259628
0.303217
-0.152093
-0.112308
-0.141882
-0.877526
-0.83668
-3.93675
-3.88415
-3.7874
-3.79325
-0.0556006
-0.039647
2.63858
2.7567
-0.0497462
0.789653
2.16574
2.14581
-3.90152
-3.78552
-3.96801
-3.93018
3.99383
4.26827
-0.743415
-0.708524
-0.212736
-0.203249
0.00722681
-0.0696988
1.42289
1.66954
3.17977
3.766
-0.148332
2.89121
1.09694
1.05583
-1.14604
-0.98863
-1.08839
-0.120057
-0.102463
-0.104115
-0.100711
-0.0814166
-0.0656474
-0.79664
-0.789638
-0.797396
-0.753536
-3.53937
-3.11355
-3.73471
-3.75067
-3.71023
-3.7334
-3.76025
-3.75085
-1.65964
-2.16294
-1.48774
-1.1322
2.05164
1.86149
-1.21198
-1.20588
-1.22678
1.9414
1.86445
1.92638
-0.427287
-0.495321
-0.432734
-1.76603
-2.12224
-1.57721
-2.25771
-1.16101
-1.20317
0.642986
1.04808
1.41534
1.31132
1.02677
1.0481
1.21597
1.4352
-4.00468
-4.26267
-3.79594
-3.6361
-3.48514
1.27614
1.42427
-1.33258
0.352741
0.365711
0.409309
0.344476
-1.42147
-1.52907
-1.54078
1.16634
1.2234
1.21035
-3.72816
-3.71757
-1.15685
-0.964155
-1.14963
5.05276
4.70762
4.55588
4.85159
0.715432
1.41464
1.06274
-0.315257
-0.482773
5.28655
5.38965
5.13658
-0.373948
-0.0976582
-0.119693
-0.119813
-0.130275
2.04363
2.75174
0.801206
0.776118
0.958122
0.51296
1.4438
2.63121
-3.4997
-3.54469
-0.0967331
-1.16372
-1.04586
-2.79074
-3.03121
-2.88755
-3.57222
1.7727
1.68658
0.7995
-0.17583
-0.180818
-0.160684
-0.16843
2.1675
1.44917
-1.96434
-1.72175
-1.6598
-1.06783
-1.00618
-0.12112
-3.57253
-3.33836
2.31709
2.44303
2.5921
2.49197
2.18136
-0.168413
-0.214404
-0.684244
-0.746963
0.997352
0.935935
1.0673
1.11738
1.14119
1.29241
1.38323
1.61431
1.49185
1.42986
1.5608
1.7506
2.12073
2.16778
-2.68674
-2.66108
-1.24411
-0.124711
-0.105607
-1.71519
-1.63402
-0.0764918
-0.068218
-0.0795476
-0.0914158
0.290603
0.298019
0.295629
-3.69071
-3.68684
-3.64645
-3.76356
-3.78522
-3.77005
-3.89892
-4.10997
-3.95588
4.97926
4.79883
5.02452
-1.46075
-1.4383
-1.54841
2.40966
2.30687
2.37181
0.0957625
0.0851667
0.106781
0.0751408
0.0656297
0.0569836
0.0515511
0.0489417
0.0432776
0.0606205
0.0708333
0.081711
0.0934345
0.1054
0.0416617
0.0357206
0.118491
0.118382
0.130838
0.0352709
0.0291539
0.131692
0.0294646
0.0245337
0.0237696
0.0194425
0.143151
0.145265
0.0203325
0.0161468
0.156276
0.159389
0.0170322
0.0136069
0.169796
0.173968
0.0144219
0.0117804
0.18394
0.189248
0.0124946
0.0105797
0.198627
0.204995
0.0110858
0.00988351
0.213893
0.22132
0.0102009
0.00956284
0.22953
0.237905
0.00960983
0.00952588
0.245742
0.255019
0.00938787
0.00960161
0.262035
0.272291
0.0092501
0.00984936
0.278949
0.290315
0.00926793
0.00994587
0.296328
0.308665
0.00951561
0.0101906
0.265822
0.282186
0.31384
0.3271
0.234593
0.25026
0.205047
0.219848
0.177365
0.190938
0.151642
0.164294
0.127631
0.139362
0.106196
0.116775
0.0863864
0.0959188
0.0685359
0.0772972
0.0528426
0.0604606
0.0398264
0.046034
0.0289139
0.0340508
0.0208109
0.0244803
0.0152742
0.0177236
0.0119199
0.0133103
0.0102247
0.0108248
0.00948928
0.00966932
0.00938703
0.00974657
0.0104265
0.0108198
0.0111383
0.0110058
0.0102755
0.0104737
0.00996945
0.00998781
0.010804
0.0101705
0.0137548
0.0119434
0.0198528
0.016331
0.0303357
0.0244794
0.0451172
0.0372434
0.0646365
0.0543278
0.0883173
0.0759626
0.115141
0.101377
0.14426
0.129134
0.175444
0.159586
0.208656
0.191833
0.243772
0.22602
0.280464
0.261902
0.318554
0.299335
0.337983
0.298617
0.0094467
0.0112353
0.345756
0.357437
0.314444
0.331131
0.251935
0.282068
0.266879
0.22321
0.237456
0.196133
0.209483
0.170675
0.183228
0.146604
0.158478
0.12422
0.135149
0.10397
0.113848
0.085641
0.094608
0.0693024
0.0771575
0.0547548
0.0617953
0.0425131
0.0483624
0.0322457
0.0371259
0.0240806
0.0278979
0.0180727
0.0208021
0.0139841
0.0157781
0.01147
0.0125111
0.0100539
0.0105645
0.00985222
0.00939523
0.00939064
0.00961103
0.0122311
0.0121204
0.011194
0.0105203
0.0121543
0.0122473
0.0116687
0.0118848
0.0111634
0.0113448
0.0112917
0.0110761
0.0129969
0.0118711
0.0174604
0.0147929
0.0260237
0.0211651
0.0392667
0.0320419
0.057835
0.0478851
0.0813807
0.0689889
0.109173
0.0949924
0.1403
0.124236
0.17381
0.15672
0.209272
0.191296
0.246496
0.227684
0.285353
0.265728
0.325321
0.30527
0.365932
0.345724
0.296829
0.376009
0.385593
0.363536
0.00913537
0.0119079
0.329034
0.31016
0.393232
0.404377
0.347846
0.00961399
0.00912127
0.0109576
0.0115092
0.291927
0.321472
0.304843
0.301044
0.26563
0.279535
0.237942
0.251527
0.211979
0.224788
0.187133
0.19936
0.163498
0.1752
0.140924
0.152051
0.119923
0.130196
0.100841
0.110129
0.0836314
0.0920118
0.0683617
0.0757278
0.055019
0.0614564
0.0436662
0.0490916
0.0341757
0.0387029
0.026353
0.030082
0.0203006
0.0231008
0.0158703
0.0178879
0.0128167
0.0141763
0.0108402
0.0116893
0.0101481
0.00981005
0.00893192
0.00930567
0.0104014
0.013399
0.012615
0.0130447
0.013749
0.0136202
0.0136276
0.0137093
0.0132875
0.0134478
0.0131743
0.0131509
0.0140698
0.0134294
0.0171126
0.0152326
0.0236825
0.0198827
0.0348902
0.0286401
0.0516424
0.0425542
0.0741168
0.0621429
0.101877
0.0874959
0.133967
0.117447
0.169225
0.15122
0.206782
0.187733
0.246103
0.226242
0.28686
0.266329
0.328607
0.30764
0.37067
0.3497
0.41163
0.39141
0.422048
0.430897
0.342358
0.379661
0.00869663
0.0120163
0.330967
0.409545
0.316589
0.448982
0.438353
0.276481
0.276055
0.362511
0.278855
0.276687
0.273305
0.279146
0.249414
0.26239
0.223976
0.236315
0.200762
0.212313
0.178025
0.189325
0.155919
0.166881
0.134766
0.145191
0.115032
0.124696
0.0970131
0.105799
0.0807909
0.0886728
0.0664679
0.0733877
0.0540334
0.0600227
0.0434468
0.0485062
0.0346639
0.0388391
0.0273375
0.0309915
0.0214928
0.0242146
0.0170557
0.0191149
0.0137883
0.0152882
0.0114772
0.0125233
0.00983666
0.0106095
0.00850743
0.00914728
0.00867307
0.00794665
0.00831559
0.00964986
0.00914362
0.0106296
0.0101575
0.0113626
0.0110258
0.0133037
0.0116676
0.0124978
0.0145905
0.0139784
0.0154817
0.0150843
0.0159358
0.0157552
0.0160661
0.0160246
0.0161632
0.0160861
0.0168052
0.0163647
0.0189481
0.0176121
0.0238636
0.0209789
0.0329116
0.0277843
0.0473388
0.0394018
0.067886
0.0568252
0.0944855
0.0804839
0.126418
0.109874
0.162491
0.143996
0.201575
0.181708
0.242732
0.221935
0.285275
0.263872
0.328572
0.306861
0.372092
0.350361
0.414989
0.393643
0.455937
0.435935
0.465956
0.475088
0.354007
0.393639
0.339198
0.42427
0.00819381
0.00750568
0.0105746
0.0106893
0.317204
0.453331
0.278993
0.253054
0.481972
0.493372
0.257317
0.374998
0.256268
0.253099
0.253393
0.257315
0.233027
0.244498
0.210468
0.221435
0.18958
0.19998
0.168633
0.17912
0.147971
0.15822
0.128197
0.137948
0.109682
0.118761
0.0926986
0.100988
0.0774105
0.0848362
0.0638961
0.0704315
0.0521641
0.0578093
0.042196
0.0469622
0.0338926
0.0378487
0.0270553
0.0303485
0.0215877
0.0241576
0.0173194
0.0193197
0.0140565
0.0155769
0.0116197
0.0127534
0.00972919
0.0106307
0.00894014
0.00841409
0.00738998
0.00792155
0.00939454
0.0089251
0.010176
0.0098316
0.0104158
0.0139594
0.011898
0.0129878
0.0157523
0.0148933
0.0172611
0.0165618
0.0183944
0.0178783
0.0192018
0.0188333
0.0198635
0.0195329
0.020775
0.0202525
0.0226577
0.0215365
0.0265662
0.0242843
0.0338414
0.0296915
0.045871
0.0391987
0.0639376
0.0541064
0.0884423
0.0753878
0.119073
0.10306
0.154839
0.136382
0.194568
0.174285
0.237018
0.215518
0.281169
0.258941
0.326116
0.303594
0.371125
0.34865
0.415913
0.393554
0.459664
0.437958
0.501852
0.481039
0.510947
0.522281
0.36214
0.406045
0.00677054
0.0107618
0.341525
0.292113
0.316939
0.436892
0.466944
0.256641
0.250476
0.285325
0.496356
0.527438
0.542238
0.384938
0.235301
0.231656
0.236763
0.235923
0.234734
0.233212
0.236378
0.216897
0.226194
0.197291
0.207008
0.178297
0.187788
0.158993
0.168689
0.139787
0.149323
0.121353
0.130451
0.104019
0.112531
0.0880505
0.0958511
0.0736266
0.0806391
0.0608329
0.0670242
0.0497174
0.0550642
0.040256
0.0447878
0.0322816
0.0361032
0.0258588
0.0286741
0.0207793
0.0231935
0.016723
0.0186316
0.013559
0.0150431
0.0111092
0.0122617
0.00916491
0.0100936
0.00749005
0.00830858
0.00591677
0.00669943
0.00683203
0.00514101
0.00608309
0.00806035
0.00747378
0.00908926
0.00860793
0.00967661
0.00946111
0.00971713
0.00974365
0.00955926
0.00964309
0.0121001
0.0094912
0.0108184
0.0145637
0.0133843
0.0168844
0.0157557
0.0190002
0.0179854
0.0208473
0.0199648
0.022441
0.0216753
0.0238921
0.0231745
0.0254656
0.0246398
0.0276725
0.0264482
0.0313171
0.0292541
0.0375421
0.0340257
0.0477677
0.0420647
0.0632125
0.0546415
0.0851078
0.0733452
0.113462
0.09851
0.147763
0.129917
0.187018
0.166858
0.229897
0.208083
0.275164
0.252309
0.32168
0.298334
0.368447
0.34508
0.415003
0.391768
0.461024
0.438085
0.506189
0.483819
0.549759
0.528235
0.561091
0.570318
0.366916
0.22186
0.342913
0.00478698
0.00400741
0.00833448
0.00813456
0.416674
0.447943
0.31625
0.478522
0.509457
0.543249
0.579313
0.589127
0.392706
0.207414
0.209796
0.179765
0.195522
0.216127
0.21462
0.215801
0.215811
0.213295
0.215646
0.200805
0.208086
0.184025
0.192549
0.166813
0.175455
0.149163
0.158043
0.131452
0.140266
0.114329
0.122792
0.0981379
0.1061
0.0831451
0.0904782
0.0695401
0.0761615
0.0574346
0.0632954
0.0468893
0.0519671
0.0378794
0.0421976
0.0303127
0.0339257
0.0241984
0.0270347
0.0193357
0.0216371
0.0154649
0.0172865
0.0124226
0.0138518
0.0100283
0.0111559
0.00809782
0.00901577
0.00639684
0.00723241
0.00558601
0.00625289
0.00435631
0.00540653
0.00764465
0.00698294
0.00872323
0.00824905
0.00909327
0.00901212
0.00878703
0.00899564
0.00854799
0.0122842
0.00940979
0.0108566
0.0151261
0.0137142
0.0179407
0.0165528
0.0206344
0.0193086
0.0231789
0.0219284
0.0255827
0.0243971
0.0279226
0.0267532
0.0303859
0.0291219
0.0333342
0.0317697
0.0373572
0.035165
0.0433472
0.0400402
0.0525137
0.0474456
0.0659655
0.0587724
0.0853188
0.074899
0.110905
0.0973174
0.142825
0.1261
0.180404
0.160976
0.222532
0.20098
0.267925
0.244905
0.315317
0.291451
0.363504
0.339379
0.411577
0.387605
0.458867
0.43535
0.504699
0.482052
0.547627
0.526629
0.58492
0.567258
0.271739
0.239759
0.605761
0.599533
0.37013
0.00323054
0.00791647
0.160821
0.425219
0.191919
0.344015
0.456799
0.311833
0.487851
0.520643
0.55819
0.596239
0.619222
0.61063
0.398631
0.155968
0.137653
0.114554
0.137318
0.184368
0.17192
0.196086
0.192317
0.197316
0.197251
0.195059
0.196925
0.185347
0.191106
0.171009
0.178454
0.155473
0.163317
0.139383
0.147487
0.1231
0.131225
0.107222
0.115083
0.0921185
0.0995561
0.0780606
0.0849449
0.0652474
0.0714897
0.0538052
0.0593499
0.0437958
0.0486207
0.0352166
0.0393319
0.0280165
0.0314467
0.0221582
0.0249193
0.0174714
0.0196838
0.0137545
0.0155036
0.0108284
0.0122045
0.00851443
0.00960679
0.00663381
0.00753223
0.00499957
0.00579938
0.00344921
0.00421424
0.0019734
0.00270637
0.00360985
0.00122994
0.00247197
0.00562478
0.0046786
0.00720054
0.00645305
0.00828337
0.00784107
0.00841669
0.00847324
0.00782754
0.00817724
0.00705954
0.00742456
0.00642688
0.00672607
0.00928291
0.00614442
0.00770616
0.0124225
0.010848
0.0156395
0.0140287
0.018884
0.0172661
0.0221107
0.0205033
0.0253053
0.0237134
0.0284834
0.0268946
0.0317122
0.0300851
0.0351412
0.0333885
0.0390434
0.0370108
0.0438605
0.0413026
0.0502674
0.0468142
0.0592007
0.0543518
0.0718979
0.0649991
0.0890348
0.0796661
0.112062
0.0997913
0.141217
0.125885
0.176255
0.158036
0.216432
0.195772
0.260608
0.238101
0.307518
0.283806
0.355834
0.331585
0.404239
0.380114
0.451376
0.428053
0.495764
0.474023
0.535504
0.516363
0.568314
0.552985
0.589726
0.580747
0.253884
0.222863
0.617767
0.594877
0.37192
0.431243
0.0851846
0.107311
0.168572
0.342188
0.462932
0.000551758
-0.000147875
0.00495655
0.00458741
0.296713
0.495052
0.530745
0.572409
0.611512
0.628976
0.0487992
0.0293624
-0.013113
0.620922
0.595745
0.00395484
0.402037
0.0936729
0.0637982
0.135438
0.117538
0.162798
0.150358
0.17685
0.171557
0.180213
0.179432
0.178188
0.179825
0.170394
0.175028
0.158186
0.164638
0.144276
0.151345
0.129666
0.137038
0.11475
0.122212
0.100067
0.10735
0.0860113
0.0929423
0.0728606
0.0793089
0.060817
0.0666911
0.0500143
0.0552552
0.0405237
0.0451034
0.032359
0.0362778
0.0254928
0.0287659
0.0198636
0.02253
0.0153436
0.017477
0.0117594
0.0134457
0.00893922
0.0102649
0.00671151
0.00776215
0.00490511
0.00576549
0.00335974
0.00410743
0.00192482
0.00263386
0.0012275
0.00288202
0.000475252
0.00173808
0.00496755
0.00395526
0.0067047
0.00588865
0.00775751
0.00736004
0.00766867
0.00785071
0.00682039
0.00729492
0.00582154
0.00630518
0.00537643
0.0091296
0.00586738
0.00748257
0.0125368
0.0108019
0.0160687
0.0142889
0.0196963
0.0178725
0.0233983
0.0215386
0.0271751
0.0252764
0.0310542
0.0290987
0.0351056
0.0330518
0.0394641
0.0372349
0.0443565
0.0418253
0.0501357
0.0471077
0.057325
0.0535148
0.0666453
0.0616676
0.079026
0.072386
0.0952526
0.0866904
0.1164
0.105134
0.143109
0.129069
0.175417
0.158569
0.212926
0.193573
0.254753
0.23337
0.299726
0.27693
0.346489
0.322978
0.393481
0.370068
0.438864
0.416501
0.480546
0.460306
0.516335
0.499314
0.544015
0.531376
0.560254
0.55374
0.562824
0.563752
0.069649
0.590616
0.617828
0.580538
0.545898
0.55646
0.229891
0.195426
0.370843
0.434137
-0.000845913
0.00422575
0.136747
0.333596
0.466154
0.276143
0.500283
0.540269
0.586249
0.624455
0.634487
-0.0619453
-0.0687937
-0.119765
0.506787
0.490128
0.530006
-0.117961
-0.0491218
0.0232627
0.609598
0.564924
0.402278
0.0146422
-0.0246228
0.0774796
0.0491051
0.118184
0.100477
0.144116
0.132438
0.158771
0.152903
0.16343
0.162083
0.162036
0.163332
0.155785
0.159518
0.145497
0.151013
0.1332
0.139501
0.120014
0.126687
0.106409
0.113234
0.0928844
0.0996071
0.0798483
0.0862862
0.0675812
0.0736045
0.0562885
0.0618032
0.0461109
0.0510544
0.037128
0.0414677
0.0293692
0.0330963
0.0228174
0.0259456
0.0174144
0.019978
0.013055
0.0151141
0.00959243
0.0112217
0.00686972
0.00814898
0.00472607
0.00573588
0.00300189
0.00382104
0.00155214
0.00225067
0.000249946
0.000888893
-0.00100288
-0.000383432
-0.0022618
-0.00163159
-0.000264824
-0.0028678
-0.00154426
0.00211744
0.000958277
0.00428974
0.00322675
0.00613355
0.00527403
0.00714063
0.00678816
0.00686886
0.00715327
0.005801
0.00638261
0.00458854
0.00519147
0.00350437
0.00401883
0.00262698
0.00304508
0.00554393
0.00221063
0.00385264
0.00896449
0.00722483
0.012598
0.0107493
0.0163999
0.0144732
0.0203595
0.0183576
0.0244735
0.0223953
0.028755
0.0265907
0.0332433
0.0309691
0.0380149
0.0355867
0.0432005
0.0405451
0.0490035
0.0460088
0.0557246
0.0522263
0.0637899
0.0595579
0.0737679
0.0684998
0.0863671
0.0796926
0.102287
0.093891
0.122377
0.111744
0.147314
0.134235
0.177229
0.161645
0.211998
0.194044
0.250939
0.231006
0.293006
0.271662
0.336866
0.314808
0.380896
0.358978
0.423107
0.40237
0.461166
0.442807
0.492727
0.477898
0.515464
0.505364
0.526849
0.522715
0.523682
0.527421
0.517609
0.200601
0.163885
0.508138
0.467553
0.364938
0.433541
0.097342
0.318482
0.466619
-0.00376909
-0.00431432
0.00106965
0.000585158
0.249371
0.5041
0.549508
0.599397
0.634393
0.635532
-0.176542
-0.167336
-0.223765
-0.239028
-0.181344
-0.109782
-0.0332532
0.597617
0.545655
0.438757
0.480795
0.398548
-0.0724628
-0.117954
0.00441705
-0.0317442
0.0628844
0.0363167
0.101727
0.0844173
0.126792
0.115626
0.141588
0.135434
0.147331
0.145426
0.146869
0.147713
0.141891
0.144909
0.133234
0.137932
0.122417
0.128007
0.110545
0.116573
0.0981616
0.104388
0.0857395
0.091927
0.07368
0.0796451
0.0622648
0.0678777
0.051701
0.0568663
0.0421338
0.0467867
0.0336504
0.0377534
0.0262905
0.02983
0.0200456
0.0230313
0.014869
0.0173288
0.0106706
0.0126553
0.00732677
0.00890084
0.00469703
0.00593233
0.00263452
0.00360484
0.000992727
0.00177059
-0.000362611
0.000288164
-0.0015491
-0.000968693
-0.00267122
-0.00210813
-0.00322073
-0.00101023
-0.00349635
-0.00220254
0.00131808
0.000155784
0.00356573
0.00246143
0.00547727
0.0045925
0.00643933
0.00612454
0.00602909
0.00639099
0.00476811
0.00545128
0.00336261
0.00405748
0.00211469
0.00270955
0.00156107
0.00519566
0.00179308
0.0034721
0.00878006
0.00694476
0.0125895
0.0106525
0.0166187
0.0145753
0.0208596
0.018711
0.0253208
0.0230608
0.0300266
0.0276402
0.0350254
0.0324848
0.0403999
0.0376587
0.0462793
0.0432663
0.0528529
0.0494649
0.0603877
0.0564803
0.0692446
0.064625
0.079888
0.0743108
0.0928601
0.0860506
0.108785
0.100406
0.128323
0.118079
0.151953
0.139598
0.179939
0.165407
0.212167
0.195545
0.248126
0.229733
0.286859
0.267223
0.327067
0.306873
0.367151
0.347239
0.405174
0.386555
0.438889
0.422717
0.465993
0.453408
0.484186
0.47635
0.491241
0.489237
0.48483
0.489831
0.464472
0.476611
0.424178
0.447306
0.403991
0.360835
0.395139
0.163648
0.122195
0.35364
0.429408
-0.00487381
0.000129204
0.0505129
0.296595
0.464647
0.216188
0.507112
0.558696
0.612218
0.639416
0.631748
-0.286708
-0.265378
-0.32414
0.316034
0.273954
0.318194
-0.354233
-0.308099
-0.249611
-0.177684
-0.0971055
0.580615
0.52124
0.447556
0.362635
0.390492
-0.15823
-0.209873
-0.0722446
-0.111953
-0.00254018
-0.0357064
0.0505917
0.0262639
0.0871698
0.0706986
0.111155
0.100496
0.125582
0.119463
0.131953
0.129659
0.132359
0.132763
0.128486
0.130899
0.121247
0.12522
0.111815
0.11673
0.1012
0.106612
0.0899862
0.095639
0.0786284
0.0842985
0.0675141
0.0730213
0.0569264
0.0621401
0.0470745
0.0518982
0.0381065
0.0424734
0.0301167
0.0339857
0.0231518
0.0265055
0.0172131
0.020056
0.0122649
0.0146195
0.00823148
0.0101403
0.00500802
0.00652653
0.0024706
0.00366252
0.000487175
0.00141922
-0.00107584
-0.000337124
-0.00234313
-0.00173644
-0.00342578
-0.00289709
-0.0044098
-0.00392038
-0.0053731
-0.00488692
-0.00635237
-0.00586634
-0.0041199
-0.0068637
-0.00544893
-0.00176037
-0.00289964
0.000504945
-0.000632953
0.00278183
0.00165282
0.00474059
0.00383821
0.00566935
0.00538221
0.00515575
0.00557595
0.00374017
0.00450628
0.00215774
0.00294138
0.000759238
0.00142226
-0.000422924
0.000144852
-0.00145345
-0.000959274
0.00136326
-0.0019025
-0.000298879
0.00482877
0.00307709
0.00854697
0.00664715
0.0125079
0.0104935
0.0167202
0.0145808
0.0211897
0.0189212
0.0259329
0.023525
0.0309823
0.0284162
0.0363928
0.0336377
0.0422505
0.0392589
0.048682
0.0453848
0.0558647
0.0521662
0.0640387
0.0598103
0.0735163
0.0685926
0.0846842
0.0788628
0.0979812
0.0910401
0.113915
0.105579
0.133009
0.123051
0.155575
0.143836
0.181864
0.168259
0.211734
0.196372
0.244737
0.22789
0.279998
0.262157
0.316272
0.2981
0.352012
0.334317
0.385412
0.369127
0.414452
0.400608
0.437025
0.426678
0.450945
0.445207
0.454089
0.453973
0.444725
0.451063
0.420848
0.434804
0.378753
0.402271
0.35072
0.121785
0.0756152
0.26724
0.223823
0.336574
0.421887
-0.00626765
0.268758
0.460981
-0.0079416
-0.00839599
-0.00298065
-0.00347744
0.177334
0.510096
0.567515
0.621214
0.64023
0.622888
-0.384366
-0.345897
-0.397749
-0.444431
-0.422138
-0.379909
-0.322217
-0.250905
-0.165275
0.558048
0.490059
0.407194
0.312971
0.164394
0.207762
0.377956
-0.244105
-0.294983
-0.149135
-0.195269
-0.0709499
-0.107529
-0.00910502
-0.0383666
0.0388845
0.0166656
0.0731788
0.057626
0.0961232
0.0858865
0.110276
0.104183
0.117195
0.114549
0.118481
0.118432
0.115645
0.117511
0.109657
0.112987
0.101494
0.105784
0.0920562
0.0968904
0.0819425
0.0870547
0.0715948
0.0767726
0.061385
0.0664532
0.0515951
0.0564233
0.042434
0.0469256
0.034052
0.0381386
0.026548
0.0301863
0.0199749
0.0231439
0.0143433
0.0170426
0.00962708
0.0118744
0.00576378
0.00759432
0.00266481
0.00412583
0.000221761
0.00136935
-0.0016832
-0.000789169
-0.00317117
-0.00247009
-0.00435736
-0.0037923
-0.00534567
-0.00486611
-0.00622058
-0.00578591
-0.007069
-0.00663422
-0.00749764
-0.00474662
-0.00741761
-0.00601103
-0.00249448
-0.00358829
-0.000325349
-0.00142074
0.00194421
0.000806627
0.00393844
0.0030207
0.0048491
0.00457961
0.00425712
0.0047225
0.00272114
0.00355199
0.000995375
0.00185157
-0.000546874
0.000187851
-0.00184808
-0.00121874
-0.00244318
0.000934699
-0.00236359
-0.000724478
0.00444811
0.00266725
0.00826271
0.00632721
0.0123411
0.0102703
0.0166965
0.0144842
0.0213439
0.0189829
0.0263065
0.0237841
0.0316222
0.0289172
0.0373496
0.0344298
0.0435753
0.0403936
0.0504209
0.0469116
0.0580515
0.0541261
0.0666822
0.0622265
0.0765843
0.0714557
0.088083
0.0821126
0.10154
0.0945445
0.117349
0.109125
0.135902
0.126266
0.157436
0.146284
0.182081
0.169373
0.209679
0.195533
0.239772
0.224457
0.271563
0.25552
0.303896
0.287748
0.335305
0.319816
0.364116
0.350145
0.388533
0.376988
0.40668
0.398509
0.416556
0.412783
0.416184
0.417756
0.403883
0.411639
0.377246
0.392566
0.333501
0.357586
0.270221
0.30472
0.18003
0.229523
0.0962545
0.0557758
0.122108
0.0746249
0.0208452
0.314404
0.411657
-0.00888444
-0.00397016
-0.0696143
0.235405
0.456572
0.133489
0.513846
0.578385
0.62762
0.635427
0.608485
-0.449604
-0.401646
-0.445355
0.0179207
-0.0559991
-0.0213216
-0.499968
-0.501692
-0.486006
-0.451151
-0.396159
-0.323658
-0.237319
0.528945
0.45165
0.359198
0.254204
0.140305
0.0177307
0.361562
-0.313225
-0.357294
-0.223218
-0.267637
-0.139918
-0.180433
-0.0704968
-0.103216
-0.0152738
-0.0413794
0.0283526
0.00799099
0.0603631
0.0457638
0.0821903
0.072403
0.0959809
0.0899805
0.103223
0.100341
0.105232
0.104792
0.103313
0.104696
0.0984276
0.101188
0.0914243
0.0951368
0.0830959
0.0873838
0.0740251
0.0786244
0.0646414
0.0693484
0.0553016
0.0599469
0.0462831
0.050738
0.0377936
0.0419618
0.0299848
0.0337969
0.0229591
0.0263697
0.0167753
0.0197602
0.0114519
0.0140067
0.00697156
0.00910923
0.00328422
0.00503334
0.000314987
0.00171594
-0.00203017
-0.000928549
-0.00385598
-0.0030002
-0.00527154
-0.00460685
-0.00638271
-0.00585666
-0.00728689
-0.00685189
-0.00807033
-0.0076838
-0.00881378
-0.0084356
-0.00958806
-0.00918939
-0.0104021
-0.00998727
-0.00793801
-0.0108309
-0.00935551
-0.0053761
-0.00659906
-0.00323309
-0.00426614
-0.00117261
-0.00222067
0.00106875
-6.62534e-05
0.00308876
0.00215756
0.0039948
0.00373404
0.00334552
0.00384552
0.00171474
0.00259665
-0.000126632
0.000788729
-0.00180773
-0.000998682
-0.00322775
-0.002549
-0.0044366
-0.00385835
-0.00552237
-0.00498524
-0.0028393
-0.0060173
-0.00443033
0.000475949
-0.00118759
0.00405455
0.00223543
0.00792686
0.00596415
0.0120854
0.009974
0.0165437
0.0142782
0.0213205
0.018892
0.0264431
0.023837
0.0319524
0.0291465
0.0379083
0.0348701
0.0443949
0.041079
0.051527
0.047872
0.0594553
0.0553809
0.068371
0.0637764
0.0785078
0.0732709
0.0901379
0.0841185
0.103558
0.096606
0.119066
0.111034
0.13694
0.127696
0.157351
0.146821
0.180334
0.16853
0.205691
0.192737
0.232957
0.219127
0.261375
0.247081
0.289896
0.2757
0.317181
0.303786
0.341686
0.329881
0.361776
0.352386
0.375765
0.36964
0.381895
0.379921
0.378247
0.381443
0.3631
0.372196
0.334225
0.350575
0.289061
0.313782
0.224922
0.259635
0.136322
0.184138
0.0816911
0.0247764
-0.0384054
-0.10858
-0.13978
0.287831
0.399689
-0.136495
0.197746
0.45274
-0.0119943
-0.012404
-0.0070089
-0.00769001
0.0867691
0.519472
0.588049
0.629031
0.62475
0.588112
-0.485551
-0.43211
-0.46425
-0.522085
-0.544327
-0.55261
-0.544247
-0.515971
-0.464653
-0.39484
-0.307285
0.492617
0.405259
0.302353
0.186057
0.060971
-0.0720845
-0.234721
-0.207619
0.342172
-0.362626
-0.39831
-0.284574
-0.325194
-0.204282
-0.243076
-0.132233
-0.16728
-0.0710469
-0.100129
-0.0213165
-0.0448648
0.0183195
-0.000256712
0.0480214
0.0343829
0.0687808
0.0594094
0.0822711
0.0763406
0.089799
0.0867105
0.0924797
0.0916719
0.091428
0.092357
0.0875519
0.0897935
0.0816193
0.0847957
0.0743334
0.0781066
0.0662481
0.0703622
0.0577817
0.0620395
0.0492763
0.0535153
0.0410021
0.0450963
0.0331647
0.0370183
0.025916
0.0294594
0.0193612
0.0225471
0.0135641
0.0163658
0.00854973
0.0109591
0.00430908
0.00633484
0.000803272
0.00246806
-0.00203047
-0.000692419
-0.00427349
-0.00321969
-0.00601828
-0.00520131
-0.00736273
-0.00673327
-0.00840373
-0.00791353
-0.00923311
-0.00883683
-0.00993626
-0.00959157
-0.0105915
-0.0102596
-0.011269
-0.0109168
-0.0116251
-0.0084447
-0.0113023
-0.00981585
-0.00600126
-0.0071698
-0.00397761
-0.00494694
-0.00202521
-0.00302448
0.00017307
-0.000950569
0.00220765
0.00126635
0.00312009
0.00285995
0.00243513
0.00295897
0.000728287
0.00165233
-0.00121249
-0.000245915
-0.00300423
-0.00213816
-0.00452998
-0.00380159
-0.005819
-0.00519522
-0.00641772
-0.0033053
-0.00629429
-0.00484639
1.56732e-05
-0.00167856
0.00362881
0.00178769
0.00753233
0.00554574
0.0117373
0.00959752
0.0162599
0.0139587
0.0211201
0.0186468
0.0263475
0.0236861
0.0319834
0.0291114
0.0380868
0.0349724
0.0447374
0.0413379
0.0520411
0.0483001
0.0601331
0.0559791
0.0691806
0.064526
0.0793824
0.074124
0.0909642
0.0849865
0.104167
0.0973481
0.119208
0.111452
0.136263
0.127474
0.155453
0.145591
0.176737
0.165844
0.199882
0.1881
0.224424
0.212019
0.249638
0.237002
0.274558
0.262204
0.297987
0.286542
0.31853
0.308711
0.334676
0.327248
0.344871
0.340615
0.347528
0.347241
0.340867
0.345462
0.323154
0.333486
0.292348
0.309545
0.246039
0.271276
0.181353
0.216219
0.0942506
0.140852
-0.0198809
0.0409796
-0.167389
-0.0884342
-0.341958
-0.360062
-0.257422
-0.0260716
-0.100807
0.258313
0.387479
-0.0128376
-0.00751623
-0.20443
0.157845
0.450805
0.0394423
0.52669
0.595412
0.624114
0.607718
0.561302
-0.494834
-0.444663
-0.467545
-0.521228
-0.553495
-0.581106
-0.595337
-0.59267
-0.569504
-0.525511
-0.458908
-0.373199
0.448083
0.349732
0.235043
0.107799
-0.0298852
-0.174226
-0.320198
-0.375203
-0.477198
-0.486778
0.321322
-0.391122
-0.418644
-0.329666
-0.361326
-0.259879
-0.295833
-0.18941
-0.223842
-0.126954
-0.157202
-0.0726705
-0.0987187
-0.0275093
-0.0489399
0.00871317
-0.00831096
0.0363618
0.023582
0.0561519
0.0471628
0.0693341
0.0634898
0.0770504
0.073812
0.0802862
0.079166
0.080003
0.0805275
0.0770334
0.0788077
0.0720784
0.0747625
0.0657648
0.0690558
0.0586099
0.0622649
0.0510167
0.0548461
0.0433116
0.0471603
0.0357562
0.0395014
0.0285524
0.0321
0.0218514
0.0251316
0.0157607
0.0187249
0.0103476
0.012967
0.00564323
0.00790646
0.00164623
0.00355784
-0.00167258
-9.49117e-05
-0.00436513
-0.00309275
-0.00650121
-0.00549741
-0.00816211
-0.00738502
-0.00943533
-0.00884069
-0.0104094
-0.00995285
-0.0111707
-0.0108093
-0.0118024
-0.0114948
-0.0123811
-0.0120898
-0.0129816
-0.0126694
-0.0136373
-0.0132961
-0.0143883
-0.0140168
-0.0117447
-0.0147768
-0.0132502
-0.00895526
-0.0102982
-0.00661093
-0.00772454
-0.00470905
-0.00561822
-0.00286491
-0.00381302
-0.000726139
-0.00182874
0.00130917
0.000362429
0.00223757
0.00197045
0.00153906
0.00207557
-0.000227761
0.000731478
-0.00225601
-0.00124429
-0.00413681
-0.00322654
-0.00575892
-0.00498029
-0.00711592
-0.00646766
-0.00830255
-0.00773804
-0.0091653
-0.00882241
-0.00680431
-0.00966321
-0.00821189
-0.00379782
-0.0053412
-0.000466793
-0.00217149
0.00315299
0.00130491
0.00706723
0.00507197
0.0112911
0.00913941
0.0158434
0.0135252
0.0207453
0.0182492
0.0260268
0.0233366
0.0317286
0.0288222
0.0379068
0.0347542
0.0446352
0.0411969
0.0520092
0.0482348
0.060148
0.0559748
0.0691953
0.0645485
0.0793174
0.0741112
0.0906978
0.0848389
0.103533
0.0969204
0.117968
0.11057
0.134086
0.125803
0.151985
0.142819
0.171556
0.161572
0.192539
0.181896
0.21447
0.203423
0.236673
0.225589
0.25825
0.247604
0.278112
0.268469
0.295014
0.287015
0.307583
0.301928
0.314365
0.311786
0.313892
0.315134
0.304506
0.310409
0.284551
0.29596
0.252077
0.270007
0.20488
0.230475
0.14007
0.174881
0.0542626
0.0999948
-0.0561052
0.00236489
-0.195767
-0.121757
-0.279024
-0.0735016
-0.161269
-0.463574
0.227832
0.376656
-0.269804
0.118332
0.451912
-0.0159894
-0.0163585
-0.0105152
-0.0110056
-0.00491457
0.534818
0.598418
0.612193
0.584029
0.527319
-0.488946
-0.448325
-0.467021
-0.6068
-0.609814
-0.50692
-0.539546
-0.576444
-0.607332
-0.625988
-0.62793
-0.611157
-0.572026
-0.511889
-0.429759
0.39422
0.283479
0.156155
0.0160365
-0.134034
-0.289257
-0.444024
0.300818
-0.408155
-0.428736
-0.359793
-0.385087
-0.301994
-0.332167
-0.239862
-0.271062
-0.178975
-0.208931
-0.123743
-0.150562
-0.0750064
-0.0985073
-0.0338703
-0.0534358
-0.000627407
-0.0162907
0.0251417
0.0131636
0.0439975
0.0353797
0.0568788
0.0511193
0.0647613
0.0613884
0.0685072
0.0670979
0.0689439
0.0690888
0.0668198
0.0681593
0.0627753
0.0650001
0.0573768
0.0602126
0.0511052
0.0543239
0.044345
0.0477652
0.0374083
0.0408816
0.0305472
0.0339548
0.0239591
0.0272088
0.0177942
0.0208163
0.0121607
0.014906
0.00712917
0.00956689
0.00273583
0.00485193
-0.00101378
0.000781545
-0.00414025
-0.00265248
-0.00668583
-0.00548197
-0.00870974
-0.00775837
-0.0102831
-0.00954743
-0.0114839
-0.0109242
-0.0123927
-0.0119684
-0.0130909
-0.0127611
-0.0136585
-0.013383
-0.0141734
-0.0139133
-0.014704
-0.0144272
-0.0153032
-0.0149817
-0.0156357
-0.0121727
-0.0151853
-0.0136461
-0.00946005
-0.0107694
-0.00720134
-0.00826549
-0.00540659
-0.00626204
-0.0036726
-0.00456602
-0.00161281
-0.0026832
0.000407697
-0.00053916
0.00136019
0.00107923
0.000669122
0.00120748
-0.00114111
-0.00015391
-0.00324586
-0.00219423
-0.00520474
-0.00425593
-0.00690501
-0.00608692
-0.00833017
-0.00765339
-0.00953372
-0.00895556
-0.010059
-0.007366
-0.0101716
-0.00878675
-0.00432039
-0.00588083
-0.000990833
-0.00269005
0.00262166
0.000780049
0.00652762
0.00453718
0.0107453
0.00859648
0.0152956
0.0129778
0.020201
0.0177024
0.0254909
0.0227959
0.0312041
0.0282918
0.0373924
0.0342352
0.0441229
0.0406852
0.0514795
0.0477171
0.0595652
0.0554243
0.0685011
0.063919
0.0784229
0.0733301
0.0894754
0.083799
0.101824
0.0954731
0.115528
0.108614
0.130636
0.122888
0.14721
0.138751
0.165078
0.155995
0.183969
0.174421
0.203426
0.193662
0.222814
0.213175
0.241308
0.232231
0.257906
0.249911
0.271481
0.265145
0.280795
0.276751
0.284519
0.283438
0.281245
0.283853
0.269438
0.276495
0.247539
0.259861
0.213689
0.232224
0.165825
0.191657
0.101259
0.135818
0.0168827
0.0617356
-0.0902152
-0.033671
-0.223635
-0.153268