/*--------------------------------*- C++ -*----------------------------------*\
  =========                 |
  \\      /  F ield         | OpenFOAM: The Open Source CFD Toolbox
   \\    /   O peration     | Website:  https://openfoam.org
    \\  /    A nd           | Version:  10
     \\/     M anipulation  |
\*---------------------------------------------------------------------------*/
FoamFile
{
    format      ascii;
    class       volVectorField;
    location    "4.5";
    object      U;
}
// * * * * * * * * * * * * * * * * * * * * * * * * * * * * * * * * * * * * * //

dimensions      [0 1 -1 0 0 0 0];

internalField   nonuniform List<vector> 
28942
(
(-0.21383 0.0569848 -1.19769e-19)
(-0.21375 0.0246732 -2.52719e-20)
(1.70668 -1.21731 3.64478e-19)
(2.53075 0.0472662 -1.47484e-19)
(2.49323 0.0771762 4.99351e-20)
(1.26274 0.0646293 0)
(1.46894 0.0849373 -8.78438e-21)
(1.64524 0.0592763 9.84392e-21)
(3.05912 -0.437079 7.94169e-20)
(3.03255 -0.40429 -2.03944e-19)
(-0.0240186 -0.567601 -1.07063e-18)
(0.11193 -0.60433 4.99945e-19)
(-0.154402 -0.539839 0)
(-0.215179 -0.5922 0)
(2.45015 -0.0882811 4.7829e-21)
(2.47795 -0.0849695 5.6805e-22)
(2.31311 0.204112 1.7968e-19)
(2.27452 0.155905 2.79598e-19)
(1.12502 -1.8662 6.71641e-20)
(1.75277 -2.00746 -2.57877e-20)
(2.42129 0.565604 2.57604e-19)
(2.4494 0.528403 0)
(-0.118821 0.242457 9.21591e-19)
(-0.270649 -0.0951567 4.95172e-19)
(2.18175 -0.845813 1.01124e-18)
(2.95318 -1.04411 -9.14646e-19)
(0.833213 -1.48604 2.47767e-18)
(0.807115 -1.18773 -1.03583e-18)
(2.13064 -1.58721 -8.86343e-20)
(1.57479 -1.07555 -3.91723e-20)
(1.18142 -0.0435454 0)
(1.62951 -0.0731389 1.69127e-20)
(2.00544 -0.12371 7.90945e-21)
(2.28023 -0.0900177 2.61232e-20)
(1.26369 1.59137 2.18942e-19)
(0.951548 1.69223 -2.6788e-19)
(1.49423 1.58942 -8.9744e-19)
(1.13265 1.54625 -3.08032e-19)
(0.548358 0.0445015 1.05132e-20)
(0.529468 1.53957 -5.15007e-19)
(2.05504 -0.0373878 0)
(2.37703 -0.0865167 0)
(2.99247 -1.09471 1.71053e-20)
(2.90403 -1.10471 -4.31811e-20)
(2.98056 -1.04186 -4.39445e-20)
(2.05989 0.0666305 -5.80786e-21)
(2.03803 0.084946 9.62013e-21)
(2.35218 0.0705826 3.93169e-20)
(2.31099 0.0739423 -1.07719e-20)
(2.11114 0.0761387 3.15827e-20)
(2.01337 0.105256 -1.81856e-20)
(2.89555 -0.107115 1.21818e-19)
(2.88931 -0.121517 1.03512e-19)
(3.04669 -0.472648 -9.9047e-22)
(3.01649 -0.44012 -3.35591e-20)
(3.39444 -0.722903 8.43079e-19)
(3.83117 -0.868906 4.95378e-19)
(-0.199373 -0.332229 -6.07332e-19)
(-0.111416 -0.408843 0)
(-0.152378 -0.219805 2.16765e-19)
(-0.179753 -0.211088 5.33231e-19)
(-0.110178 -0.121596 -4.27927e-19)
(-0.135838 -0.164466 -4.47297e-19)
(3.24037 -1.41248 0)
(3.66561 -1.34697 1.59883e-19)
(3.28139 -1.15892 -7.38044e-20)
(3.18784 -1.10271 0)
(2.33041 -0.612795 -1.3967e-19)
(2.3837 -0.661767 -8.79322e-20)
(-0.0858576 0.0196731 3.99592e-19)
(-0.119935 0.0725184 -1.24878e-19)
(-0.199663 0.129731 3.14006e-19)
(2.39629 -0.785646 0)
(2.36376 -0.719748 4.65556e-19)
(2.21464 -1.09158 1.12191e-19)
(3.27774 1.1025 9.27089e-20)
(3.36823 1.11569 -8.85405e-20)
(3.3682 1.04425 -7.01589e-20)
(0.548142 -0.298363 2.02389e-20)
(0.834728 -0.503132 -3.60684e-19)
(2.66925 -1.75221 -8.64967e-20)
(2.38082 -1.60991 1.11345e-19)
(-0.161282 0.0411058 5.63811e-19)
(-0.307105 0.0394829 -2.17187e-19)
(2.86092 1.40897 1.78188e-20)
(2.65291 1.23086 -2.18342e-19)
(2.49745 1.51733 1.94628e-19)
(2.35114 1.62468 -6.66685e-19)
(2.33912 1.66401 4.36039e-19)
(1.9378 1.41813 -2.56644e-20)
(2.02569 1.58194 -1.38683e-19)
(2.0558 1.66278 2.23903e-19)
(-0.695087 -0.349929 -1.37005e-19)
(-0.208651 -0.403494 -3.64948e-20)
(-0.447502 -0.605724 7.27638e-20)
(-0.657671 -0.596531 -8.91725e-19)
(-0.734599 -0.600179 1.1505e-18)
(1.0531 1.1072 -7.35222e-19)
(1.22806 1.28996 1.70443e-19)
(-0.301625 0.0302004 0)
(2.51619 -0.00125808 0)
(2.4298 0.0771338 -1.46588e-19)
(2.4033 0.176276 1.18107e-19)
(2.6098 0.14806 0)
(3.73481 0.66114 0)
(3.77348 0.672168 0)
(3.79127 0.732095 5.60056e-19)
(2.64855 0.478321 -4.38507e-20)
(2.61889 0.49721 4.67643e-19)
(2.65158 0.459515 2.4494e-19)
(-0.238606 -0.42397 1.23254e-18)
(-0.268007 -0.46098 -1.38077e-18)
(-0.340529 -0.0704688 -2.02308e-19)
(-0.248164 0.203827 1.82625e-19)
(-0.21978 0.177154 4.23771e-19)
(0.450293 0.559047 4.81656e-19)
(0.96026 0.425013 1.16417e-18)
(0.781593 1.03549 7.62921e-20)
(0.362858 0.974492 -2.81015e-18)
(3.06109 1.21593 1.69704e-20)
(2.68469 1.11475 3.27163e-19)
(2.68901 1.08504 -5.59849e-19)
(2.49349 -1.95181 -2.39574e-20)
(1.82948 -1.36417 5.35444e-20)
(0.505348 -0.0414392 -1.4265e-18)
(0.562589 -0.21944 0)
(0.878634 -0.285534 8.04892e-19)
(1.70891 -1.33976 -4.85297e-21)
(2.10988 -1.81262 7.19317e-20)
(2.31248 0.0651504 -3.602e-20)
(2.35965 0.0612725 1.79065e-20)
(2.20358 0.0617474 1.15171e-21)
(1.36433 -1.99619 0)
(1.46005 -1.45893 0)
(2.58005 -0.1643 -5.83614e-20)
(2.53767 -0.146315 3.30529e-19)
(2.54274 -0.0621857 0)
(2.13876 -1.92286 0)
(2.1417 -1.65426 -1.10921e-19)
(2.02387 1.70138 5.7238e-19)
(-0.54968 -0.624329 8.0735e-19)
(-0.450061 -0.564069 -5.87394e-19)
(2.00302 -1.82281 5.65064e-21)
(3.04868 -0.971722 -2.83951e-19)
(2.99237 -0.952814 4.3948e-20)
(3.67611 -0.618229 -1.50507e-19)
(3.73595 -0.588149 2.02546e-19)
(3.72395 -0.537931 7.28147e-19)
(-0.380999 -0.517649 2.83008e-19)
(2.27602 1.72621 9.25364e-19)
(2.37288 1.56514 -2.35386e-19)
(2.65009 1.84581 -5.13478e-22)
(1.79465 -0.0494532 -4.24634e-21)
(1.78979 -0.0498007 -3.70006e-20)
(2.00902 -0.0609056 -3.3238e-21)
(2.00375 -0.0712192 1.15833e-20)
(1.99339 1.62035 7.22201e-20)
(1.22036 1.39584 0)
(-0.117117 -0.0972256 3.5758e-19)
(-0.147761 0.0777713 -3.90351e-19)
(-0.51528 0.373696 2.8092e-19)
(0.976664 0.330194 -4.39534e-19)
(2.20309 0.912919 -1.95173e-19)
(2.20357 -0.0773156 3.35001e-21)
(3.40098 -1.62226 1.52792e-19)
(3.32326 -1.62383 4.32902e-19)
(2.38432 0.608003 6.04029e-19)
(2.26203 0.699848 4.53227e-20)
(2.3025 0.411872 3.27657e-19)
(2.34561 0.418262 -2.35513e-19)
(2.43288 0.62773 0)
(2.90729 0.181768 -6.92112e-21)
(2.92961 0.181228 -2.26245e-20)
(2.92909 -0.302962 6.65558e-20)
(2.95751 -0.318935 -1.23449e-19)
(2.68986 0.471197 5.0829e-20)
(2.71882 0.501936 -1.43512e-19)
(2.68578 0.491301 0)
(2.6572 0.458997 3.21464e-20)
(2.68072 0.517362 0)
(2.61734 0.626655 -1.30034e-19)
(2.6317 0.673866 -7.33641e-20)
(2.58724 0.700808 -1.42761e-19)
(2.62449 0.697751 0)
(2.64783 0.726578 4.65412e-19)
(2.60336 0.759621 1.47279e-20)
(2.54537 0.730317 -8.37708e-20)
(2.4102 0.825166 -3.7687e-19)
(2.41387 0.673319 -6.30542e-20)
(-0.403786 1.54049 2.72886e-19)
(0.11708 1.5034 -9.23518e-20)
(-0.169795 0.434435 -3.02527e-19)
(2.1554 0.0672071 3.3039e-20)
(2.41555 0.0659194 0)
(-0.0102996 0.0253875 3.74752e-19)
(0.0146249 0.0185909 1.73432e-19)
(2.33491 0.0816534 -5.09559e-21)
(2.44745 0.0789755 -1.47312e-21)
(2.4541 0.0775277 0)
(2.31276 0.0789087 -2.98549e-21)
(2.7136 0.79443 -1.78636e-20)
(2.69119 0.789874 9.00897e-20)
(2.69959 0.76806 3.9651e-20)
(-0.321064 -0.476516 5.33963e-19)
(-0.184225 -0.229098 -6.77451e-19)
(-0.244893 -0.304011 6.45166e-19)
(-0.174861 -0.114687 0)
(-0.0892629 -0.0481185 8.99218e-19)
(-0.0750785 -0.0532558 -7.83627e-19)
(-0.37188 -0.0893272 -7.89306e-19)
(-0.355344 -0.162951 -7.49817e-19)
(-0.225639 -0.108744 0)
(0.153797 0.731194 0)
(0.078317 0.488042 0)
(0.0155235 0.287585 0)
(3.73731 0.629343 -8.823e-20)
(3.70887 0.538314 0)
(3.76775 0.601914 9.76248e-20)
(2.32492 -0.279942 1.0279e-18)
(2.36084 -0.289721 -3.759e-19)
(2.35877 -0.248151 0)
(2.5509 0.205172 -4.08966e-22)
(2.54048 0.186751 8.09565e-22)
(2.56333 0.223246 -3.23229e-22)
(2.52962 0.168748 0)
(2.52138 0.149763 -4.28004e-22)
(2.51681 0.129914 0)
(2.50025 0.130797 0)
(2.51334 0.109548 1.04262e-21)
(2.50959 0.10491 0)
(2.49615 0.15452 -3.82456e-22)
(2.49583 0.177617 0)
(2.50179 0.197847 2.54412e-22)
(2.50866 0.218062 -4.11022e-22)
(2.51995 0.23638 3.22757e-22)
(2.51556 0.0870465 -9.97403e-22)
(2.52544 0.0769232 -2.53143e-23)
(2.57305 0.242475 1.21221e-24)
(2.53193 0.255 -5.6306e-22)
(2.58241 0.26274 3.29717e-21)
(2.52188 0.0639896 7.91786e-25)
(2.54587 0.048169 -1.64304e-23)
(2.54371 0.27362 1.19989e-21)
(2.53273 0.039725 5.81274e-22)
(2.548 0.014735 -5.80685e-22)
(2.57009 0.0190106 4.21426e-23)
(2.59732 -0.0100007 5.75331e-23)
(2.59093 0.283113 -3.20819e-21)
(2.5535 0.29311 -8.13078e-22)
(2.56656 -0.0105513 0)
(2.62665 -0.0382998 -5.66483e-23)
(2.59519 0.305927 4.49516e-25)
(2.56388 0.313265 -4.51071e-25)
(2.58852 -0.0355052 0)
(2.65713 -0.0652202 0)
(2.60079 0.328758 0)
(2.57094 0.334743 0)
(2.61195 -0.0596722 0)
(2.6876 -0.0903405 1.77737e-23)
(2.60267 0.35329 -2.22672e-21)
(2.57692 0.357349 -5.33191e-25)
(2.63768 -0.082659 9.61315e-25)
(2.71755 -0.113265 -1.90153e-23)
(2.60584 0.378103 2.23702e-21)
(2.58061 0.38101 0)
(2.66252 -0.103869 0)
(2.74571 -0.133685 0)
(2.60632 0.404048 -1.58546e-22)
(2.58268 0.405615 2.8506e-21)
(2.68903 -0.123407 1.06396e-22)
(2.7724 -0.151571 0)
(2.60761 0.430501 -1.54082e-22)
(2.58332 0.430988 -2.70553e-21)
(2.71207 -0.140336 -1.57691e-22)
(2.79594 -0.166632 -4.56018e-23)
(2.60675 0.457983 2.82678e-21)
(2.58266 0.457252 0)
(2.73719 -0.155713 5.09881e-23)
(2.81777 -0.17931 3.01317e-23)
(2.60681 0.486033 -1.58421e-21)
(2.58036 0.484084 3.26871e-21)
(2.75582 -0.167605 -2.09686e-22)
(2.83486 -0.188847 2.35995e-22)
(2.60396 0.515136 1.65017e-21)
(2.57673 0.511872 5.71301e-23)
(2.77526 -0.178037 0)
(2.84775 -0.195822 1.25088e-22)
(2.60176 0.545086 -3.65216e-21)
(2.57044 0.539855 7.4427e-21)
(2.79253 -0.186322 0)
(2.86043 -0.201118 0)
(2.62361 0.515476 -1.63259e-21)
(2.62365 0.546568 -6.77431e-21)
(2.59585 0.575499 0)
(2.56142 0.56804 -4.05347e-21)
(2.62265 0.456134 -8.89455e-22)
(2.62399 0.485483 1.81929e-22)
(2.62014 0.401067 0)
(2.62205 0.428252 -2.81157e-21)
(2.6164 0.349365 -4.49646e-24)
(2.61919 0.374677 0)
(2.61153 0.300629 0)
(2.61536 0.324367 0)
(2.60456 0.254868 0)
(2.60997 0.276938 0)
(2.59364 0.212991 6.11783e-22)
(2.59953 0.233486 1.76325e-22)
(2.57772 0.174612 -5.38349e-22)
(2.58506 0.193623 -6.31956e-22)
(2.55819 0.139086 7.15808e-22)
(2.56719 0.156998 1.04817e-21)
(2.54206 0.103365 0)
(2.55013 0.121202 0)
(2.5329 0.0659617 -1.96446e-24)
(2.53597 0.0850633 0)
(2.53698 0.0255212 0)
(2.53296 0.0461032 0)
(2.55532 -0.0170243 0)
(2.54408 0.0044402 0)
(2.58603 -0.0592916 0)
(2.56879 -0.0383028 0)
(2.62463 -0.0983303 0)
(2.60366 -0.0792231 0)
(2.66609 -0.131664 0)
(2.64368 -0.115501 0)
(2.70699 -0.158299 -8.79672e-23)
(2.68398 -0.145118 0)
(2.72539 -0.16866 -2.87562e-23)
(2.80912 -0.192652 2.98405e-23)
(2.87168 -0.204535 -2.95886e-23)
(2.90032 -0.203739 0)
(2.9167 -0.210632 -1.33507e-22)
(2.90945 -0.20817 -5.59606e-23)
(2.87146 -0.187686 1.55642e-23)
(2.88696 -0.196944 -6.98561e-23)
(2.82849 -0.160652 5.24056e-25)
(2.85116 -0.175577 0)
(2.77299 -0.121839 0)
(2.802 -0.142751 0)
(2.70769 -0.0715969 0)
(2.74119 -0.098069 0)
(2.63829 -0.0122139 0)
(2.67301 -0.0428487 9.51064e-29)
(2.57274 0.0521922 1.40002e-24)
(2.60449 0.0196842 0)
(2.51955 0.116358 0)
(2.54415 0.0845958 0)
(2.48697 0.174634 0)
(2.50108 0.146146 0)
(2.47715 0.224425 0)
(2.4799 0.200446 -2.45701e-22)
(2.48664 0.266544 1.15462e-22)
(2.47951 0.246222 -3.9328e-22)
(2.50427 0.304746 0)
(2.49533 0.285268 -3.84214e-22)
(2.52538 0.342786 0)
(2.51652 0.322995 0)
(2.54073 0.384287 0)
(2.53492 0.362807 0)
(2.54694 0.429938 0)
(2.54547 0.406549 0)
(2.54333 0.478902 -8.21437e-22)
(2.54689 0.454026 0)
(2.52906 0.529749 -3.8771e-21)
(2.53845 0.504206 -9.02096e-22)
(2.51689 0.554957 4.14423e-21)
(2.62172 0.578265 6.86965e-21)
(2.74439 -0.177378 5.63693e-23)
(2.92203 -0.211418 -1.33455e-22)
(2.54931 0.596096 0)
(2.50021 0.579623 0)
(2.61937 0.610357 0)
(2.58909 0.606028 0)
(2.63732 0.51269 0)
(2.64071 0.575529 1.44841e-21)
(2.63916 0.54353 1.58009e-21)
(2.6328 0.453573 1.77295e-21)
(2.63516 0.482508 -3.61738e-22)
(2.62812 0.398814 4.77519e-24)
(2.63052 0.425607 0)
(2.62376 0.34747 0)
(2.62604 0.372734 0)
(2.61989 0.298611 0)
(2.622 0.322695 0)
(2.61591 0.252117 0)
(2.61826 0.274978 0)
(2.61047 0.208108 0)
(2.61369 0.229742 0)
(2.6025 0.1673 -2.1413e-24)
(2.6064 0.187453 6.04647e-22)
(2.58949 0.130052 -1.68476e-24)
(2.59577 0.148342 -9.79578e-22)
(2.57489 0.0949852 0)
(2.58243 0.112252 0)
(2.56108 0.0609812 1.02415e-24)
(2.56749 0.0780051 0)
(2.55334 0.0263611 0)
(2.55606 0.0438218 0)
(2.55547 -0.00957511 0)
(2.55286 0.0085936 0)
(2.56877 -0.0460807 0)
(2.56048 -0.0278118 0)
(2.59192 -0.0812887 0)
(2.57891 -0.063907 0)
(2.62163 -0.11305 0)
(2.60569 -0.0976274 0)
(2.65487 -0.140087 6.06628e-23)
(2.63726 -0.127065 0)
(2.8223 -0.196638 0)
(2.7594 -0.183526 5.60953e-23)
(2.68886 -0.161299 0)
(2.67143 -0.151399 5.83492e-23)
(2.95646 -0.214334 1.48541e-22)
(2.95637 -0.213002 3.83722e-23)
(2.92538 -0.210406 2.69318e-22)
(2.88009 -0.205895 0)
(2.95131 -0.212461 0)
(2.95494 -0.214272 -2.19639e-22)
(2.93506 -0.202671 6.26627e-25)
(2.94396 -0.208655 7.03017e-23)
(2.90498 -0.182771 -5.24055e-25)
(2.92119 -0.194099 0)
(2.86013 -0.15096 0)
(2.88418 -0.168473 0)
(2.80053 -0.106276 0)
(2.83195 -0.130258 0)
(2.72904 -0.0494378 0)
(2.76593 -0.0792758 -9.51061e-29)
(2.6517 0.016709 -2.63373e-24)
(2.6906 -0.0172711 0)
(2.57736 0.0871355 0)
(2.61356 0.0517153 0)
(2.51551 0.156062 1.00412e-22)
(2.54443 0.12213 0)
(2.47433 0.21788 0)
(2.49176 0.188267 -9.9968e-23)
(2.45601 0.270269 3.55463e-22)
(2.46188 0.245402 3.12604e-22)
(2.45714 0.314126 0)
(2.45451 0.292859 0)
(2.47026 0.352743 0)
(2.46347 0.333385 0)
(2.48524 0.390734 0)
(2.47877 0.371338 0)
(2.49375 0.430975 0)
(2.49114 0.410379 0)
(2.4909 0.473874 1.42509e-23)
(2.49424 0.4521 0)
(2.4742 0.517599 -1.6216e-23)
(2.48467 0.495745 0)
(2.43926 0.559111 -4.54938e-21)
(2.45937 0.538965 4.54532e-21)
(2.64172 0.608151 3.43558e-21)
(2.47827 0.602218 0)
(2.41264 0.576761 -1.00829e-20)
(2.53339 0.622908 0)
(2.70372 -0.169007 0)
(2.95461 -0.210176 -3.68816e-23)
(2.6153 0.642439 9.90284e-21)
(2.64247 0.641363 3.80871e-21)
(2.45164 0.622496 2.39689e-21)
(2.38084 0.591859 1.2745e-20)
(2.57897 0.636411 0)
(2.6532 -0.146578 2.35022e-22)
(2.66655 -0.155161 -1.13912e-22)
(2.92596 -0.208144 -6.81004e-23)
(2.95092 -0.206473 3.41537e-22)
(2.66148 0.635134 1.23728e-20)
(2.64276 0.675229 -7.416e-21)
(2.67155 0.705066 -3.10934e-20)
(2.66621 0.669647 -7.06489e-21)
(2.65377 0.569446 3.00125e-21)
(2.65749 0.601848 -1.02981e-20)
(2.64634 0.507714 -3.02778e-21)
(2.6501 0.538024 -2.49783e-21)
(2.639 0.449926 -6.87925e-22)
(2.6426 0.478237 -6.85109e-22)
(2.63259 0.396144 -4.77519e-24)
(2.63568 0.422545 0)
(2.62737 0.345391 0)
(2.62982 0.370427 0)
(2.62348 0.296941 0)
(2.62528 0.320885 0)
(2.62062 0.250551 0)
(2.62195 0.273505 0)
(2.61812 0.206166 0)
(2.61936 0.228113 0)
(2.61487 0.164085 0)
(2.61663 0.184828 0)
(2.60948 0.124836 3.51701e-26)
(2.61251 0.144098 0)
(2.60127 0.0885853 0)
(2.60571 0.106338 0)
(2.59105 0.0548368 1.08352e-24)
(2.59627 0.0714721 0)
(2.58152 0.0225581 0)
(2.58595 0.0385831 0)
(2.57617 -0.00918454 0)
(2.57809 0.00667217 0)
(2.57779 -0.0407365 0)
(2.57594 -0.0249913 0)
(2.58758 -0.0714866 0)
(2.58164 -0.0562791 0)
(2.60473 -0.100146 0)
(2.59537 -0.0861948 0)
(2.62731 -0.125527 3.53506e-23)
(2.61559 -0.113391 -1.78144e-23)
(2.64022 -0.136786 -1.22072e-22)
(2.83264 -0.198642 -2.74276e-23)
(2.71804 -0.175046 1.06506e-22)
(2.77297 -0.187858 -8.42954e-23)
(2.88603 -0.205598 0)
(2.97958 -0.212797 -1.19224e-22)
(2.96915 -0.206024 -3.37676e-22)
(2.97491 -0.209904 2.81188e-22)
(2.98477 -0.214848 0)
(2.98293 -0.214452 0)
(2.98121 -0.210516 1.05754e-25)
(2.9838 -0.213595 0)
(2.96629 -0.197626 0)
(2.97512 -0.205296 0)
(2.93702 -0.173849 -7.27762e-25)
(2.95351 -0.187252 0)
(2.89112 -0.137246 0)
(2.91617 -0.157249 0)
(2.82836 -0.0870305 0)
(2.86174 -0.113833 0)
(2.75155 -0.0243542 1.23426e-24)
(2.7914 -0.0570893 0)
(2.6671 0.0472484 1.68414e-24)
(2.70977 0.0106201 0)
(2.58416 0.122358 0)
(2.62484 0.0847561 0)
(2.51275 0.194675 0)
(2.54648 0.159214 0)
(2.46067 0.258942 0)
(2.48388 0.228062 0)
(2.43089 0.313053 0)
(2.44305 0.287266 0)
(2.42045 0.357733 -8.25214e-24)
(2.42385 0.33622 0)
(2.4214 0.396421 0)
(2.42039 0.377421 0)
(2.42375 0.432858 0)
(2.42325 0.414653 0)
(2.41856 0.469063 -1.93943e-27)
(2.42273 0.450927 0)
(2.39934 0.504327 -8.10614e-26)
(2.41114 0.486929 0)
(2.36051 0.535395 1.8717e-23)
(2.38302 0.520714 0)
(2.29554 0.556385 -1.09093e-20)
(2.33193 0.547671 2.5362e-21)
(2.34241 0.60299 2.76439e-21)
(2.25236 0.560743 5.36218e-21)
(2.60992 0.674848 -3.79743e-21)
(2.51269 0.647344 -4.80315e-21)
(2.67918 -0.162117 2.62493e-23)
(2.9625 -0.20136 2.64595e-22)
(2.64107 0.710815 1.9297e-22)
(2.41854 0.63944 0)
(2.67369 0.749824 5.20485e-20)
(2.20126 0.559177 8.97703e-21)
(2.29662 0.608438 1.16377e-20)
(2.71101 0.758836 -7.52844e-20)
(2.72565 0.78743 1.33674e-20)
(2.56636 0.665103 0)
(2.69278 0.69373 7.38702e-21)
(2.70344 0.726395 3.99536e-21)
(2.67491 0.626482 6.77991e-21)
(2.68299 0.660288 -1.01748e-20)
(2.66295 0.561761 -3.09997e-21)
(2.6685 0.593541 -1.54943e-21)
(2.6525 0.501424 1.41656e-21)
(2.65769 0.531031 1.57126e-21)
(2.64283 0.445256 0)
(2.64747 0.472892 1.199e-24)
(2.63489 0.3927 0)
(2.63863 0.418593 0)
(2.62877 0.342813 3.78549e-24)
(2.6316 0.367456 0)
(2.62444 0.295149 0)
(2.6264 0.318722 0)
(2.62174 0.249407 0)
(2.6229 0.27206 0)
(2.62043 0.205388 0)
(2.62093 0.227197 0)
(2.61996 0.163165 1.96905e-24)
(2.62014 0.184038 0)
(2.61931 0.123136 5.55687e-26)
(2.61973 0.142855 0)
(2.61739 0.0856738 0)
(2.61857 0.104065 0)
(2.61358 0.0509538 -2.14876e-24)
(2.61572 0.06798 0)
(2.6084 0.0187465 0)
(2.61107 0.0345638 0)
(2.60364 -0.0114441 0)
(2.60583 0.00343109 0)
(2.60153 -0.0401399 0)
(2.6021 -0.0259694 0)
(2.60414 -0.0674363 0)
(2.60217 -0.0540043 0)
(2.61234 -0.0928827 0)
(2.60756 -0.0804888 0)
(2.62575 -0.115741 -1.76423e-23)
(2.61849 -0.104784 0)
(2.64321 -0.135285 0)
(2.63412 -0.126098 -3.30853e-23)
(2.66334 -0.150802 -7.73979e-25)
(2.65317 -0.143676 0)
(2.7306 -0.179364 -1.08057e-22)
(2.67385 -0.156761 5.76203e-24)
(2.69164 -0.167679 4.95945e-23)
(2.84081 -0.199023 4.26067e-23)
(2.7843 -0.190376 -2.89033e-23)
(2.92551 -0.204631 -1.54236e-23)
(2.88968 -0.203839 1.68147e-23)
(2.95529 -0.195849 0)
(2.94675 -0.201702 -1.60755e-22)
(2.9721 -0.198862 -7.90079e-23)
(2.95403 -0.187894 -1.46842e-22)
(2.96304 -0.193544 3.32012e-22)
(2.98841 -0.207051 -4.337e-23)
(2.98033 -0.203133 0)
(3.00151 -0.211712 0)
(2.99532 -0.209724 0)
(3.00909 -0.211468 1.18166e-25)
(3.00597 -0.212215 0)
(3.00839 -0.2044 0)
(3.00988 -0.208868 0)
(2.99586 -0.188194 7.27761e-25)
(3.00376 -0.197561 0)
(2.96788 -0.160461 0)
(2.98396 -0.175888 0)
(2.92175 -0.119341 0)
(2.94717 -0.141638 0)
(2.85689 -0.0643587 0)
(2.89157 -0.093529 0)
(2.77605 0.00282632 -2.60506e-26)
(2.81816 -0.032097 0)
(2.68558 0.0782026 0)
(2.73151 0.0398222 0)
(2.59467 0.155929 0)
(2.63959 0.117158 0)
(2.51311 0.229699 0)
(2.55219 0.193662 0)
(2.44836 0.294804 0)
(2.47835 0.263548 0)
(2.40327 0.349085 8.25216e-24)
(2.42348 0.323247 0)
(2.37502 0.39338 0)
(2.38752 0.372258 0)
(2.35622 0.430297 0)
(2.36512 0.412525 0)
(2.33733 0.462241 -1.42453e-23)
(2.34747 0.446769 0)
(2.30919 0.489715 1.63673e-23)
(2.32499 0.476587 0)
(2.26423 0.510419 -1.85045e-23)
(2.28925 0.501163 0)
(2.19515 0.519062 2.61541e-21)
(2.23364 0.516748 -5.09269e-21)
(2.0966 0.507678 -2.83205e-21)
(2.15013 0.516652 5.77861e-21)
(2.14185 0.550465 4.30443e-22)
(2.0371 0.492124 6.26983e-21)
(2.60074 0.706755 -4.28771e-21)
(2.48884 0.669337 0)
(2.63702 0.746487 -3.75823e-20)
(2.38189 0.652826 0)
(2.66887 -0.141804 -2.1395e-23)
(2.67726 -0.147424 1.56431e-23)
(2.9476 -0.18991 -1.23366e-22)
(2.94467 -0.181688 -1.40832e-22)
(2.66161 0.785284 -3.42018e-20)
(2.2411 0.606691 -1.17552e-20)
(2.7249 0.822929 0)
(2.73584 0.754222 -7.80009e-21)
(2.074 0.533082 -5.94083e-21)
(1.96968 0.467453 9.94859e-21)
(2.74835 0.793223 1.58051e-20)
(2.55023 0.692549 0)
(2.70904 0.687058 0)
(2.72274 0.720334 -6.92186e-21)
(2.68595 0.619199 0)
(2.6965 0.653059 0)
(2.67022 0.554834 0)
(2.67746 0.58637 1.60538e-21)
(2.657 0.495833 0)
(2.66348 0.524733 0)
(2.6453 0.440922 0)
(2.65088 0.467919 0)
(2.63595 0.389292 0)
(2.64032 0.414747 0)
(2.62888 0.340261 -3.78549e-24)
(2.63214 0.364482 0)
(2.62391 0.293446 0)
(2.62614 0.3166 0)
(2.62095 0.248533 0)
(2.62218 0.270774 0)
(2.61989 0.205271 0)
(2.62019 0.226708 0)
(2.62052 0.163602 -8.91694e-26)
(2.62002 0.184235 0)
(2.62233 0.123667 7.01202e-26)
(2.62132 0.143405 0)
(2.62453 0.0857669 0)
(2.62344 0.104439 0)
(2.62623 0.0502897 3.96887e-26)
(2.62549 0.0677066 0)
(2.62691 0.0174468 0)
(2.6267 0.0335304 0)
(2.62685 -0.0127273 0)
(2.62694 0.00202204 0)
(2.62703 -0.040457 0)
(2.62683 -0.0268886 0)
(2.62892 -0.0659395 0)
(2.62769 -0.0534916 0)
(2.63378 -0.089138 0)
(2.63095 -0.0778654 0)
(2.64224 -0.109745 0)
(2.63758 -0.0998354 0)
(2.6541 -0.127457 2.96426e-23)
(2.64785 -0.119037 3.35921e-23)
(2.66129 -0.135089 -5.28277e-23)
(2.74228 -0.182148 -5.35368e-23)
(2.68402 -0.161198 0)
(2.70292 -0.171606 -5.01864e-23)
(2.84661 -0.197955 0)
(2.79383 -0.191353 5.46584e-23)
(2.92323 -0.20035 9.59362e-23)
(2.8914 -0.200984 -3.18092e-23)
(2.94137 -0.196398 -1.94454e-22)
(2.96621 -0.189568 4.38311e-23)
(2.94574 -0.178593 1.30408e-22)
(2.95572 -0.184036 0)
(2.98615 -0.198306 -9.5211e-23)
(2.97596 -0.193955 9.55926e-23)
(3.00475 -0.204384 0)
(2.9955 -0.201556 0)
(3.02052 -0.206712 1.21755e-25)
(3.01297 -0.205994 0)
(3.03114 -0.203787 0)
(3.02656 -0.205959 0)
(3.03344 -0.193636 0)
(3.03351 -0.199721 0)
(3.02355 -0.173934 0)
(3.03024 -0.18511 0)
(2.99747 -0.142369 0)
(3.01274 -0.159749 0)
(2.95212 -0.0973404 1.43731e-24)
(2.97732 -0.121579 0)
(2.88666 -0.0387919 -1.65808e-24)
(2.92185 -0.0696751 0)
(2.80355 0.0311111 0)
(2.84702 -0.0050311 0)
(2.70891 0.10795 0)
(2.75719 0.0690144 0)
(2.61138 0.185729 0)
(2.65995 0.147103 0)
(2.51996 0.25853 0)
(2.56444 0.223077 0)
(2.44138 0.321936 0)
(2.47885 0.291566 0)
(2.37801 0.374051 0)
(2.4079 0.349385 0)
(2.32729 0.4152 -1.16222e-23)
(2.35146 0.395878 0)
(2.28272 0.446698 1.38519e-23)
(2.30479 0.432053 0)
(2.23597 0.469199 -1.61336e-23)
(2.26019 0.459075 0)
(2.17896 0.481336 0)
(2.20922 0.476735 0)
(2.10536 0.479279 0)
(2.14457 0.482385 0)
(2.01123 0.456391 2.32312e-23)
(2.06162 0.471151 2.81464e-21)
(1.89935 0.407206 -1.66614e-20)
(1.95768 0.435722 0)
(1.8944 0.431975 -9.71118e-21)
(1.83938 0.370277 -5.25479e-22)
(2.58882 0.73659 1.29264e-20)
(2.46076 0.688724 0)
(2.68588 -0.152012 -7.77801e-23)
(2.93559 -0.172458 -2.60891e-22)
(2.62187 0.776249 -6.5532e-21)
(2.70145 0.829884 -9.01981e-22)
(2.66142 0.818021 1.69341e-20)
(2.33572 0.658969 0)
(2.18115 0.59864 3.0792e-21)
(2.75559 0.836602 -1.37068e-20)
(2.75365 0.86613 1.20818e-20)
(2.71366 0.857179 -1.37855e-20)
(1.99647 0.50444 -9.66075e-21)
(1.8174 0.387089 6.70888e-21)
(1.78062 0.32433 6.56092e-21)
(2.53009 0.717144 0)
(2.75274 0.73991 3.87724e-22)
(2.7853 0.815934 9.29614e-22)
(2.76895 0.776252 2.97171e-21)
(2.72174 0.673651 3.12521e-21)
(2.73698 0.706436 -3.14665e-21)
(2.69537 0.607346 5.56656e-24)
(2.70767 0.640423 0)
(2.67607 0.545167 0)
(2.68505 0.575511 0)
(2.66018 0.488206 0)
(2.66785 0.516146 0)
(2.64665 0.434909 0)
(2.65308 0.461159 0)
(2.63593 0.384578 3.83937e-24)
(2.64094 0.409401 0)
(2.62785 0.336786 0)
(2.63158 0.360393 0)
(2.62217 0.291147 0)
(2.62472 0.31372 0)
(2.61878 0.24735 0)
(2.6202 0.269038 0)
(2.61759 0.205151 0)
(2.61792 0.226063 0)
(2.61851 0.164427 -1.87988e-24)
(2.6178 0.18461 0)
(2.62132 0.125198 8.04054e-26)
(2.6197 0.14462 0)
(2.62561 0.0876626 0)
(2.62332 0.106203 0)
(2.63073 0.0521416 1.99741e-24)
(2.62811 0.0696302 0)
(2.63602 0.0189846 0)
(2.6334 0.0352461 0)
(2.64103 -0.0114983 0)
(2.63858 0.00339251 0)
(2.64583 -0.0391889 0)
(2.64345 -0.0256933 0)
(2.6509 -0.0640876 0)
(2.6483 -0.0519864 0)
(2.65705 -0.0861931 0)
(2.65383 -0.0754895 0)
(2.665 -0.105422 5.25056e-25)
(2.66082 -0.0961664 0)
(2.67518 -0.121588 -2.97698e-23)
(2.66988 -0.11387 0)
(2.68746 -0.13464 2.70446e-23)
(2.68109 -0.12851 0)
(2.70175 -0.14413 1.63446e-23)
(2.69433 -0.139848 -2.1788e-23)
(2.69388 -0.164536 3.96893e-23)
(2.70958 -0.147362 0)
(2.69483 -0.155466 5.60546e-23)
(2.75178 -0.183389 0)
(2.7135 -0.174184 0)
(2.85055 -0.195748 0)
(2.80089 -0.190885 0)
(2.9203 -0.195289 0)
(2.89182 -0.197185 0)
(2.93973 -0.183484 1.25768e-22)
(2.93563 -0.190445 2.93633e-23)
(2.92565 -0.166027 2.92076e-23)
(2.9355 -0.175163 2.3572e-22)
(2.93269 -0.168402 1.93268e-22)
(2.91209 -0.15646 2.85912e-23)
(2.92252 -0.162718 -6.60902e-23)
(2.95414 -0.178933 4.26173e-23)
(2.94342 -0.173883 -2.46267e-22)
(2.97609 -0.187711 5.40953e-26)
(2.96505 -0.183509 0)
(2.998 -0.194316 0)
(2.98707 -0.191301 0)
(3.01896 -0.197955 1.18605e-25)
(3.00867 -0.196544 0)
(3.03737 -0.197519 0)
(3.0286 -0.198313 0)
(3.05083 -0.191493 0)
(3.04489 -0.195302 0)
(3.05604 -0.177941 0)
(3.05469 -0.185781 0)
(3.04899 -0.154657 0)
(3.05431 -0.167645 0)
(3.02547 -0.119595 -3.14256e-24)
(3.03952 -0.138695 0)
(2.98219 -0.0715562 0)
(3.00644 -0.0972103 0)
(2.91804 -0.0110208 0)
(2.95269 -0.0427327 0)
(2.83522 0.0593884 0)
(2.8787 0.0231939 0)
(2.73925 0.134978 0)
(2.78846 0.0968881 0)
(2.63785 0.209894 -5.57997e-24)
(2.68874 0.172884 0)
(2.53891 0.27864 0)
(2.5877 0.245317 0)
(2.44808 0.337264 0)
(2.4923 0.309369 0)
(2.3674 0.383768 1.16223e-23)
(2.40656 0.362055 0)
(2.29497 0.417686 -3.29768e-25)
(2.33046 0.402274 0)
(2.2261 0.438925 3.19983e-23)
(2.26049 0.42989 0)
(2.15538 0.446587 0)
(2.19132 0.444543 0)
(2.07873 0.438327 0)
(2.11796 0.444634 0)
(1.99593 0.410596 -1.95434e-26)
(2.03798 0.427087 0)
(1.91373 0.361117 0)
(1.95425 0.388727 0)
(1.84855 0.288439 -1.05509e-20)
(1.87694 0.327467 0)
(1.72919 0.273033 -4.82591e-22)
(1.82974 0.246479 1.87443e-20)
(2.56987 0.763277 0)
(2.80091 0.855413 1.79848e-20)
(2.61184 0.808173 4.48965e-21)
(2.7215 -0.136888 -1.63206e-23)
(2.729 -0.139755 0)
(2.91594 -0.159357 2.44157e-23)
(2.90248 -0.150218 -4.96488e-23)
(2.4252 0.703866 0)
(2.28427 0.65954 0)
(2.65464 0.849858 0)
(2.10903 0.579308 -3.03195e-21)
(1.91253 0.464806 -6.64183e-21)
(1.73658 0.330318 0)
(1.68756 0.216734 1.86285e-20)
(1.82311 0.203437 -1.51626e-20)
(2.50389 0.739163 0)
(2.80069 0.804061 -1.32829e-24)
(2.81573 0.893209 4.59951e-21)
(2.84038 0.875826 -1.48698e-20)
(2.82038 0.840611 5.14405e-21)
(2.76427 0.73175 -1.73883e-21)
(2.78169 0.767876 -2.94288e-21)
(2.73167 0.663788 0)
(2.74768 0.697201 0)
(2.70273 0.598216 -5.56716e-24)
(2.71649 0.630691 0)
(2.68012 0.537284 0)
(2.69071 0.567039 0)
(2.66188 0.481413 0)
(2.67058 0.508812 0)
(2.64676 0.429224 0)
(2.65393 0.454919 0)
(2.63476 0.380023 -3.83937e-24)
(2.64037 0.404275 0)
(2.6257 0.333393 0)
(2.62989 0.356417 0)
(2.61929 0.288904 0)
(2.62217 0.310906 0)
(2.6154 0.246226 0)
(2.61704 0.267359 0)
(2.61393 0.205121 0)
(2.61437 0.22549 0)
(2.61478 0.165454 1.67763e-24)
(2.61407 0.185114 0)
(2.61786 0.127206 8.7451e-26)
(2.61606 0.146152 0)
(2.62297 0.090483 0)
(2.62018 0.108646 0)
(2.62976 0.0555026 -6.26803e-26)
(2.62619 0.072759 0)
(2.63775 0.0225905 0)
(2.63364 0.0387679 0)
(2.6464 -0.00788556 0)
(2.64203 0.00703343 0)
(2.65536 -0.0356244 0)
(2.65086 -0.0221108 0)
(2.66449 -0.060418 0)
(2.6599 -0.0483973 0)
(2.67398 -0.0821442 0)
(2.66916 -0.0716708 0)
(2.68419 -0.100715 -9.85658e-25)
(2.67895 -0.0918343 0)
(2.69548 -0.116025 -3.65705e-25)
(2.68962 -0.108799 0)
(2.70795 -0.12809 4.62899e-23)
(2.70151 -0.122479 -4.31499e-23)
(2.71456 -0.132933 2.99605e-23)
(2.70336 -0.166482 9.07273e-24)
(2.71782 -0.14936 1.47406e-24)
(2.7035 -0.157628 -2.7027e-23)
(2.75948 -0.18329 0)
(2.72261 -0.175364 0)
(2.85289 -0.192546 -4.14305e-28)
(2.80626 -0.189278 0)
(2.91647 -0.189641 0)
(2.89092 -0.192585 0)
(2.9317 -0.176808 5.48148e-23)
(2.92939 -0.184161 -5.79586e-23)
(2.92636 -0.16835 -1.43978e-23)
(2.91688 -0.158038 4.94522e-25)
(2.89648 -0.146904 -5.75593e-23)
(2.90663 -0.152656 -9.06102e-26)
(2.93853 -0.167957 -4.52824e-23)
(2.92769 -0.163221 4.53449e-23)
(2.96121 -0.176351 -8.6269e-25)
(2.94977 -0.172341 0)
(2.98467 -0.182842 -1.05926e-24)
(2.97287 -0.179844 0)
(3.00835 -0.186858 1.10511e-25)
(2.99653 -0.185188 0)
(3.03127 -0.187585 0)
(3.01999 -0.18768 0)
(3.05184 -0.183915 0)
(3.04198 -0.186371 0)
(3.06768 -0.174379 0)
(3.06053 -0.179975 0)
(3.07552 -0.157175 0)
(3.07283 -0.166847 0)
(3.07135 -0.130368 1.70526e-24)
(3.0752 -0.145079 0)
(3.05102 -0.0923313 2.3253e-24)
(3.06345 -0.112818 0)
(3.01124 -0.0424278 0)
(3.0337 -0.0688367 0)
(2.95081 0.0182679 0)
(2.98357 -0.013287 0)
(2.87168 0.0867931 0)
(2.91337 0.051826 0)
(2.77859 0.158295 5.57997e-24)
(2.82651 0.122505 0)
(2.67822 0.227368 -7.06617e-24)
(2.72891 0.193464 0)
(2.57727 0.288997 0)
(2.6275 0.259363 0)
(2.48072 0.33956 0)
(2.52829 0.315806 0)
(2.39087 0.37692 -3.62422e-25)
(2.43498 0.359953 0)
(2.30764 0.399975 -3.13767e-23)
(2.34856 0.390262 0)
(2.22993 0.407936 0)
(2.26821 0.40587 0)
(2.15756 0.399901 0)
(2.19305 0.405962 0)
(2.09323 0.375041 -2.40485e-25)
(2.12413 0.389562 0)
(2.04343 0.333707 0)
(2.06607 0.356333 0)
(2.01909 0.278159 7.14482e-21)
(2.02681 0.307552 0)
(2.02647 0.212903 7.50543e-21)
(2.01742 0.246708 -1.47756e-20)
(2.70979 0.896756 -2.08699e-20)
(2.76327 0.909847 -1.8491e-20)
(1.82985 0.1597 -7.85571e-21)
(2.03698 0.176951 7.85206e-21)
(2.54813 0.788987 0)
(2.7368 -0.141625 1.43968e-23)
(2.88688 -0.140953 -1.84227e-22)
(2.86017 0.909684 3.44139e-21)
(2.38179 0.712811 0)
(2.82957 0.936857 1.00977e-21)
(2.59147 0.83351 0)
(2.22128 0.650465 0)
(2.64296 0.877039 0)
(2.03054 0.549491 0)
(1.82406 0.413799 0)
(1.66446 0.268594 -1.85317e-21)
(1.66037 0.158385 -5.97652e-21)
(1.84975 0.116738 0)
(2.05349 0.1371 -1.61145e-20)
(2.47076 0.756842 0)
(2.87456 0.855522 6.50793e-21)
(2.87919 0.942534 9.40866e-21)
(2.93107 0.928236 4.68759e-21)
(2.90262 0.891832 -6.27766e-21)
(2.82205 0.779336 5.58808e-22)
(2.84762 0.817553 -2.54748e-21)
(2.7774 0.707715 1.33008e-21)
(2.79852 0.742763 -1.17371e-24)
(2.73991 0.642743 4.74662e-24)
(2.75796 0.674479 0)
(2.70803 0.581644 4.65374e-24)
(2.72319 0.611833 0)
(2.68276 0.524384 0)
(2.69462 0.55246 0)
(2.66259 0.471245 0)
(2.67216 0.497358 0)
(2.64611 0.421304 0)
(2.65392 0.445922 0)
(2.63298 0.374002 0)
(2.63913 0.397343 0)
(2.62296 0.329016 0)
(2.6276 0.351243 0)
(2.61578 0.285996 0)
(2.61902 0.307282 0)
(2.61127 0.244666 0)
(2.61319 0.265136 0)
(2.60933 0.204828 0)
(2.60999 0.224572 0)
(2.60988 0.166373 -1.08571e-25)
(2.6093 0.185435 0)