/*--------------------------------*- C++ -*----------------------------------*\
  =========                 |
  \\      /  F ield         | OpenFOAM: The Open Source CFD Toolbox
   \\    /   O peration     | Website:  https://openfoam.org
    \\  /    A nd           | Version:  10
     \\/     M anipulation  |
\*---------------------------------------------------------------------------*/
FoamFile
{
    format      ascii;
    class       volVectorField;
    location    "35";
    object      U;
}
// * * * * * * * * * * * * * * * * * * * * * * * * * * * * * * * * * * * * * //

dimensions      [0 1 -1 0 0 0 0];

internalField   nonuniform List<vector> 
6397
(
(4.24691 -0.863234 1.27334e-19)
(4.38217 -0.764158 -5.74151e-19)
(4.50251 1.66994 0)
(4.22537 1.57668 1.94375e-20)
(3.83382 1.73458 7.82614e-21)
(3.9965 1.84373 -2.88952e-21)
(3.50137 -2.7062 -2.34211e-19)
(1.55597 -4.21584 1.21213e-18)
(0.418779 -3.04602 7.08514e-19)
(-1.70899 -2.98191 -2.49625e-19)
(1.8439 2.39772 1.42404e-18)
(3.52173 3.04903 -1.62443e-19)
(3.73293 0.109061 -2.93484e-20)
(3.71669 0.0988329 -1.18012e-20)
(2.57739 0.114573 2.1803e-20)
(0.523322 -0.746951 -1.75826e-18)
(1.11134 -1.75628 -7.15676e-19)
(-0.732942 -1.38447 8.83257e-19)
(1.19157 -0.60989 8.14495e-19)
(2.16253 -1.04587 -2.51241e-18)
(1.6363 -0.616541 -1.28567e-18)
(0.676855 -1.45099 -4.01937e-18)
(-0.872145 -0.221174 1.98555e-19)
(3.50671 -0.237298 -2.90976e-18)
(4.08084 0.141933 0)
(4.34505 0.085421 -4.20512e-22)
(4.45239 0.140951 -2.09954e-21)
(2.28879 0.24379 2.22375e-19)
(2.23963 -0.39997 -6.79578e-20)
(2.38814 0.994809 1.72299e-19)
(2.3177 0.389738 -2.18519e-19)
(4.013 1.12568 8.56572e-20)
(4.2319 1.2154 3.20529e-20)
(4.05618 1.48785 -8.9229e-20)
(3.99263 0.551231 3.55704e-20)
(4.08206 0.571963 0)
(3.98526 0.775676 -2.8879e-20)
(4.1522 0.885758 -5.15246e-20)
(4.07614 0.18328 6.87797e-20)
(4.05331 0.190967 -3.38467e-20)
(3.96881 0.277333 0)
(4.08846 0.416435 0)
(2.49445 1.48908 -7.98809e-20)
(3.58046 2.2998 -7.68369e-20)
(3.72955 2.28764 1.17338e-19)
(4.25334 1.94092 -1.11666e-19)
(3.72843 2.08193 -5.21551e-20)
(3.93104 2.16205 1.84656e-19)
(4.1205 -0.160488 6.12001e-20)
(4.18562 -0.108445 -9.35556e-21)
(4.27398 -0.163755 9.87478e-20)
(4.33562 -0.136937 -3.50123e-20)
(4.23727 -0.144468 -2.7293e-19)
(4.12494 0.798785 -1.39608e-19)
(3.6179 0.406852 9.05589e-20)
(4.037 0.0515467 4.49808e-20)
(4.05358 0.0657773 4.35801e-20)
(4.40522 0.108951 -1.37579e-20)
(2.95266 -2.72613 -9.40921e-20)
(2.85328 -2.60687 9.45372e-20)
(3.01891 -2.75593 1.12058e-19)
(3.01842 -2.67491 -1.10372e-19)
(2.98564 -2.46057 -1.59869e-19)
(2.91914 -2.0387 1.57164e-19)
(2.88035 -1.3796 0)
(2.86537 -0.497686 2.10416e-19)
(2.9195 0.492288 -2.19739e-19)
(3.00855 1.42077 0)
(2.9542 -2.51743 -6.73217e-20)
(2.69643 -2.38194 -1.50359e-21)
(2.79127 -2.28656 6.31925e-20)
(3.09041 -2.67139 0)
(3.18099 -2.73642 0)
(3.21507 -2.69252 0)
(3.20923 -2.49115 -6.74464e-22)
(3.18483 -2.05328 9.14941e-23)
(3.18983 -1.34061 0)
(3.20604 -0.392346 -3.2934e-23)
(3.28152 0.657782 0)
(3.35914 1.64342 0)
(2.62019 -1.96973 -6.83101e-20)
(2.53277 -2.05351 5.92532e-21)
(3.13831 2.16647 0)
(3.45787 2.3879 0)
(2.46724 -1.55541 -3.94049e-22)
(2.37378 -1.60639 0)
(3.28111 2.64868 0)
(3.53941 2.83871 0)
(2.36599 -1.03258 1.31182e-19)
(2.26182 -1.04137 -3.54182e-20)
(3.42173 2.8822 0)
(3.60487 3.01314 0)
(2.34998 -0.455104 -1.12552e-19)
(2.39166 0.134641 -4.28775e-20)
(3.52751 2.91705 0)
(3.62725 2.97533 1.30933e-20)
(2.52901 -0.998251 0)
(2.55105 0.0849488 5.23829e-20)
(2.49398 -0.475254 3.25596e-21)
(2.79558 -1.85514 -3.58446e-20)
(2.63217 -1.47052 0)
(3.13449 -2.40371 -2.93714e-20)
(2.95399 -2.16694 3.53328e-20)
(3.4312 -2.65751 5.76985e-20)
(3.29026 -2.5651 2.25993e-20)
(3.5557 -2.43164 6.75475e-22)
(3.49654 -2.63552 -6.12137e-20)
(3.64472 -1.20084 -1.62642e-20)
(3.57496 -1.95524 -1.33255e-19)
(3.78493 0.84144 -1.25289e-19)
(3.68094 -0.215234 2.59158e-19)
(3.87255 2.51998 0)
(3.82184 1.79806 0)
(3.84761 3.02106 0)
(3.85677 2.91262 0)
(3.7736 2.95464 -2.48329e-20)
(3.1036 2.42044 -1.08976e-19)
(3.45522 2.75535 -4.68241e-20)
(3.2933 2.67524 1.07812e-19)
(2.78017 1.19393 1.47014e-19)
(2.92163 1.91514 -1.43711e-19)
(2.69473 -0.598263 1.44476e-21)
(2.71296 0.301643 5.81777e-21)
(2.79628 -1.9864 0)
(2.72354 -1.3871 0)
(2.93572 -2.62207 9.74638e-20)
(2.87704 -2.38278 1.22704e-20)
(2.91816 -2.73922 1.75921e-20)
(2.95264 -2.7317 -9.6998e-20)
(2.70873 -2.4681 6.69246e-20)
(2.83883 -2.65291 -5.74695e-21)
(2.41634 -1.66826 -1.63449e-19)
(2.54722 -2.16079 -6.23228e-20)
(2.29907 -0.327257 0)
(2.31496 -1.03054 1.71038e-19)
(2.49682 0.677204 -6.70277e-20)
(2.3612 0.832698 -3.15806e-21)
(2.67498 0.582815 4.09726e-21)
(3.6838 2.78653 -3.03351e-20)
(3.60933 2.83767 7.95692e-21)
(3.50177 2.5951 -5.30075e-22)
(3.59481 2.74195 4.69473e-20)
(3.68983 2.63849 0)
(3.54556 2.58874 1.9243e-20)
(3.81271 2.63488 -2.71123e-20)
(3.61017 2.39579 2.69557e-20)
(2.58049 1.19479 9.1784e-20)
(2.72343 0.0469679 -1.05219e-20)
(2.83784 0.512208 -3.92146e-21)
(2.65253 1.69676 7.84327e-20)
(3.59918 2.83678 2.84269e-21)
(2.7392 -0.926165 0)
(2.70789 -0.436675 3.92971e-21)
(2.98522 -1.7014 -8.64755e-22)
(2.8272 -1.3448 0)
(3.35617 -2.23159 -2.05325e-21)
(3.1524 -1.99703 6.40928e-21)
(3.70546 -2.52113 0)
(3.53437 -2.40701 5.17314e-21)
(3.94365 -2.33237 0)
(3.82648 -2.52772 4.00404e-21)
(4.17426 -1.08944 0)
(4.05756 -1.8543 1.38221e-20)
(4.36241 0.933714 -8.73336e-22)
(4.27441 -0.111771 1.37503e-20)
(4.36774 2.53099 7.27522e-21)
(4.3746 1.86257 -1.47555e-20)
(4.16337 2.95058 -1.09967e-21)
(4.27814 2.87274 -2.17115e-21)
(3.98529 2.84926 1.15809e-20)
(3.05121 2.18366 1.12071e-21)
(3.27844 2.46789 1.38851e-21)
(2.6855 1.04187 -1.28495e-22)
(2.84684 1.70886 0)
(2.6088 -0.567002 0)
(2.6193 0.24899 -1.36591e-21)
(2.76648 -1.85143 0)
(2.67741 -1.28796 0)
(2.95339 -2.53504 -7.05183e-23)
(2.87713 -2.26621 -1.24541e-20)
(3.00286 -2.75452 -1.18445e-20)
(3.00033 -2.69425 0)
(2.85052 -2.58209 -7.61224e-20)
(2.94132 -2.7236 0)
(2.63158 -1.73093 5.58931e-21)
(2.71228 -2.24121 7.63088e-20)
(2.54016 -0.206243 2.48332e-22)
(2.54814 -1.01103 2.40875e-20)
(2.51702 0.546707 -9.71482e-20)
(2.57109 1.16961 1.40398e-20)
(2.47681 1.32445 0)
(2.89282 0.965584 -1.63677e-21)
(2.73281 1.05878 -3.85146e-21)
(3.79602 2.72211 0)
(3.64767 2.74912 0)
(3.53606 2.69216 -1.14442e-20)
(3.97177 2.41301 -4.42323e-21)
(3.75673 2.18081 0)
(3.41803 2.18784 -3.37384e-21)
(3.37054 2.41921 8.58366e-22)
(3.89228 2.61545 0)
(3.80453 2.87953 0)
(3.99494 2.80976 -6.84643e-20)
(2.58849 1.85263 5.19572e-20)
(2.72149 2.03615 0)
(3.03539 1.34142 1.93647e-21)
(3.06831 0.862 1.07291e-22)
(3.20408 1.2359 -3.69607e-20)
(2.97782 1.82127 0)
(2.96131 1.30657 -1.14055e-19)
(3.5921 2.76672 0)
(2.89356 0.0242696 -3.56754e-21)
(3.01603 0.439811 0)
(2.92078 -0.826902 -1.32502e-22)
(2.91062 -0.419738 3.99981e-21)
(3.17308 -1.54227 2.46996e-22)
(3.04431 -1.20851 0)
(3.56371 -2.04338 2.15796e-24)
(3.37414 -1.81994 -4.07464e-22)
(3.96887 -2.38292 -4.89986e-23)
(3.80029 -2.2347 -2.73816e-21)
(4.34421 -2.20635 2.14274e-20)
(4.18969 -2.39787 0)
(4.68528 -0.964725 0)
(4.55419 -1.7214 -2.18336e-20)
(4.89821 0.990019 -8.51497e-21)
(4.83879 -0.00227628 4.39287e-21)
(4.80358 2.44101 0)
(4.90077 1.84995 -9.62982e-22)
(4.42534 2.76264 -3.85339e-21)
(4.63587 2.72496 7.20356e-21)
(4.19279 2.63209 5.8642e-21)
(3.52432 2.37358 -6.52313e-21)
(3.73159 2.47392 2.90429e-23)
(3.04813 1.97854 -3.25582e-21)
(3.28015 2.24512 1.05342e-20)
(2.69735 0.922683 -2.92147e-22)
(2.85459 1.53803 -7.79118e-21)
(2.62906 -0.51521 0)
(2.6312 0.22026 9.68292e-21)
(2.83367 -1.74247 0)
(2.71339 -1.18152 0)
(3.07716 -2.47632 1.19596e-22)
(2.96307 -2.16844 0)
(3.18902 -2.79112 0)
(3.149 -2.67708 0)
(3.12739 -2.68608 0)
(3.16229 -2.80899 0)
(3.00937 -1.82437 6.24132e-20)
(3.04727 -2.37044 0)
(2.92306 -0.219301 -2.45977e-22)
(2.94108 -1.06996 -6.38112e-20)
(2.90599 0.626869 1.32553e-19)
(2.69136 1.58544 1.66025e-20)
(2.59042 1.71048 -4.87009e-20)
(2.85159 1.45521 1.36943e-20)
(3.55007 1.99071 4.20347e-21)
(3.60809 2.82296 0)
(3.39246 2.58773 1.41171e-20)
(4.06916 2.96793 7.38203e-20)
(3.75458 3.00966 0)
(3.18089 2.02209 3.42362e-21)
(3.14727 2.2809 1.55683e-20)
(3.1645 1.66742 4.98073e-21)
(3.37417 1.55319 3.84514e-21)
(2.66456 2.13091 4.07058e-20)
(2.75296 2.26097 5.58988e-20)
(3.45282 1.33228 1.31496e-19)
(3.42081 1.88601 0)
(3.26367 0.756112 -7.58035e-21)
(3.36821 1.11205 -2.24959e-20)
(3.31081 1.8123 -4.21498e-21)
(3.07401 1.57025 -1.31533e-21)
(2.94292 1.79791 -1.93184e-20)
(3.00431 2.14873 -2.03444e-20)
(3.50033 2.74799 0)
(3.08391 0.0140332 -5.97998e-21)
(3.15176 0.371737 2.44341e-20)
(3.11942 -0.734809 5.43068e-21)
(3.09529 -0.388283 -1.26732e-20)
(3.35738 -1.3665 0)
(3.24549 -1.08929 0)
(3.74823 -1.81791 -1.68691e-23)
(3.58124 -1.61108 8.65454e-28)
(4.20213 -2.14743 4.85581e-23)
(4.01543 -2.00672 0)
(4.71827 -1.9819 0)
(4.50179 -2.1662 -3.51837e-27)
(5.16243 -0.795869 0)
(4.99682 -1.52215 0)
(5.37318 1.02297 0)
(5.33568 0.100138 0)
(5.18123 2.33714 0)
(5.34528 1.81195 0)
(4.72418 2.55056 0)
(4.97865 2.558 0)
(4.22312 2.17812 -1.59291e-21)
(4.46699 2.39551 0)
(3.71806 1.73517 0)
(3.97735 1.94138 1.10517e-21)
(3.17452 1.24233 0)
(3.45491 1.50537 3.83721e-21)
(3.95162 2.47961 -1.02657e-20)
(4.32657 2.86365 -2.57426e-20)
(4.13041 2.69278 1.03092e-20)
(3.55101 2.17675 1.76264e-21)
(3.76259 2.30165 -2.90327e-23)
(3.10251 1.77902 -1.32102e-21)
(3.32731 2.03574 -2.30434e-21)
(2.79667 0.823584 -3.00628e-23)
(2.92701 1.38297 0)
(2.75638 -0.482197 0)
(2.74185 0.185806 0)
(2.97186 -1.63797 0)
(2.84376 -1.10465 0)
(3.25511 -2.38727 -1.87065e-23)
(3.11555 -2.06674 0)
(3.44395 -2.78004 0)
(3.36099 -2.62607 0)
(3.50358 -2.7393 0)
(3.47919 -2.8333 0)
(3.50639 -1.87411 2.91848e-20)
(3.50724 -2.42564 -3.03675e-20)
(3.46372 -0.234211 3.81381e-20)
(3.49713 -1.11003 -4.71139e-21)
(3.45567 0.612378 -1.84303e-19)
(2.80217 1.91451 -1.62526e-20)
(2.69226 2.01448 -4.31221e-20)
(2.96718 1.79202 0)
(4.12199 2.97656 0)
(4.52247 2.90536 2.39047e-20)
(2.8137 1.20129 2.03944e-21)
(2.92327 0.859375 0)
(3.49312 2.889 0)
(3.17567 2.50593 0)
(3.58629 1.41432 0)
(2.97269 2.34057 -1.63619e-19)
(4.01999 1.32048 1.06154e-19)
(3.939 1.85206 0)
(3.67521 2.98435 6.60975e-21)
(2.88812 2.07903 -1.88956e-20)
(4.67807 2.69709 3.28808e-20)
(4.12252 2.69859 -9.3416e-21)
(2.69544 1.42801 2.07993e-20)
(2.60408 0.654934 4.47267e-22)
(2.73335 0.358909 0)
(3.39693 2.21016 1.83492e-19)
(3.3085 2.74379 0)
(3.46087 0.665916 2.52921e-20)
(3.77694 1.25551 1.51592e-20)
(3.53478 1.00005 5.35945e-20)
(3.286 0.00225218 1.09944e-20)
(3.29992 0.343777 -2.55607e-20)
(3.30928 -0.663165 0)
(3.25192 -0.352832 -6.95357e-21)
(3.53489 -1.19986 -2.7285e-27)
(3.40416 -0.969112 2.83722e-27)
(3.90682 -1.61425 -1.46048e-23)
(3.73795 -1.42347 0)
(4.39693 -1.90308 0)
(4.17326 -1.78833 0)
(5.0034 -1.72061 -5.52881e-23)
(4.72824 -1.90431 3.51864e-27)
(5.5157 -0.628529 7.42012e-27)
(5.31891 -1.29587 -7.70499e-27)
(5.70751 1.02778 0)
(5.68702 0.191659 0)
(5.47717 2.1466 7.45977e-23)
(5.67109 1.7104 0)
(4.95467 2.2837 -1.88036e-23)
(5.25387 2.31558 0)
(4.35924 1.89378 3.82172e-23)
(4.66473 2.11976 0)
(3.78373 1.43299 -9.41752e-21)
(4.06989 1.65499 -9.55044e-22)
(3.25309 0.982588 -1.18572e-20)
(3.50555 1.20967 5.53401e-21)
(2.91781 0.295237 -2.55873e-20)
(3.05488 0.668714 1.18354e-20)
(4.62215 2.61814 1.69242e-20)
(5.1808 2.53046 -4.69345e-21)
(4.91397 2.68586 -1.93861e-20)
(4.08791 2.26886 1.02994e-20)
(4.33586 2.46167 -7.37735e-21)
(3.62777 1.9601 -1.33586e-21)
(3.85859 2.09612 -2.24013e-21)
(3.19347 1.59668 0)
(3.39829 1.82582 1.92477e-21)
(2.93268 0.742098 -5.0704e-24)
(3.03546 1.23341 -1.34996e-28)
(2.92871 -0.434181 0)
(2.89903 0.16772 0)
(3.16299 -1.51824 8.97997e-24)
(3.02324 -1.0104 0)
(3.48686 -2.27548 -3.20731e-23)
(3.31649 -1.94255 0)
(3.75625 -2.71291 0)
(3.61765 -2.53887 0)
(3.94936 -2.7108 0)
(3.85226 -2.79353 0)
(4.08286 -1.89674 0)
(4.03587 -2.42626 0)
(4.09365 -0.271972 0)
(4.12299 -1.13072 2.3761e-21)
(4.06982 0.58419 -7.18954e-20)
(4.78571 2.01935 -4.09297e-20)
(5.4091 1.93987 0)
(2.64694 -0.218133 -4.77304e-21)
(2.87491 -0.153039 3.11661e-20)
(3.31733 2.36586 0)
(3.8553 2.16348 -3.92964e-20)
(2.95088 2.42709 -5.05725e-20)
(3.24139 2.4052 4.49746e-20)
(2.71624 2.32805 2.17673e-20)
(2.76721 2.39218 -4.23287e-21)
(2.89245 2.16858 9.47021e-22)
(2.76442 2.24187 -1.87957e-20)
(3.29992 1.95665 -8.34512e-21)
(3.08031 2.07574 2.68882e-21)
(3.70741 1.69921 0)
(3.51411 1.83771 3.19919e-22)
(3.90038 1.53463 -2.0803e-20)
(3.3263 2.81376 -6.6645e-21)
(2.91593 2.33438 -1.22348e-26)
(3.56363 2.66128 9.38087e-21)
(2.62319 1.70609 0)
(4.07644 1.96973 0)
(2.48161 0.844144 0)
(5.51502 0.787825 9.74771e-21)
(4.8064 0.763023 8.69819e-22)
(2.43832 -0.0284874 -2.88926e-21)
(2.89945 -0.608646 -5.31138e-21)
(2.69565 -0.818205 -1.03635e-20)
(3.92473 1.1274 -2.18863e-20)
(4.10612 1.34182 1.66468e-20)
(3.06895 2.62118 -2.24795e-26)
(3.61715 0.585094 1.33324e-21)
(3.7138 0.875831 1.47073e-20)
(3.45655 -0.0358144 6.92608e-21)
(3.457 0.298811 0)
(3.48686 -0.61416 -3.61108e-27)
(3.39488 -0.318059 -7.93692e-21)
(3.70286 -1.06171 0)
(3.54609 -0.836161 0)
(4.05353 -1.3981 2.93323e-23)
(3.8565 -1.22775 0)
(4.56021 -1.60423 0)
(4.29269 -1.51883 0)
(5.20363 -1.43396 7.69095e-23)
(4.89019 -1.59179 0)
(5.71849 -0.470454 5.98041e-23)
(5.5132 -1.07109 0)
(5.84242 1.01236 0)
(5.856 0.269388 0)
(5.55966 1.91254 -4.09983e-23)
(5.76726 1.57506 0)
(5.01091 1.95069 2.46447e-23)
(5.32822 2.00832 0)
(4.3924 1.57725 -3.48456e-23)
(4.71404 1.78403 1.3273e-27)
(3.85377 1.15472 -1.11981e-23)
(4.12086 1.34949 0)
(3.40175 0.755857 5.60273e-22)
(3.61521 0.959329 -7.09942e-21)
(3.11448 0.111985 1.63445e-20)
(3.23186 0.461944 2.4109e-20)
(3.12911 -0.713122 -3.22998e-20)
(3.0795 -0.309122 -4.03613e-21)
(5.54956 2.2774 8.15426e-21)
(6.04621 0.754792 -1.05629e-20)
(5.87059 1.77112 0)
(4.81672 2.31637 -1.69179e-21)
(5.1837 2.39193 5.44508e-21)
(4.16092 2.0287 -5.37332e-22)
(4.45906 2.18655 -1.19255e-22)
(3.68953 1.74109 -4.76704e-24)
(3.90946 1.87244 -1.54561e-22)
(3.28342 1.43017 0)
(3.4675 1.61673 0)
(3.07417 0.694156 -9.00448e-24)
(3.1401 1.12656 2.24148e-27)
(3.12025 -0.366078 -2.7507e-27)
(3.06147 0.179962 2.91137e-27)
(3.37349 -1.3666 1.74419e-23)
(3.21493 -0.89038 0)
(3.7354 -2.11796 0)
(3.53493 -1.77584 0)
(4.0918 -2.59141 4.38647e-23)
(3.90949 -2.39603 0)
(4.41826 -2.62599 0)
(4.26316 -2.68702 0)
(4.68584 -1.86146 2.16373e-22)
(4.57771 -2.36427 0)
(4.75122 -0.312372 -5.34771e-22)
(4.75499 -1.1573 2.31355e-21)
(4.62677 1.26073 -8.91417e-20)
(4.70843 0.530407 0)
(4.30862 2.0884 -2.53645e-19)
(4.47129 1.78457 2.29741e-19)
(4.11594 2.1864 9.92812e-21)
(2.92582 2.42641 0)
(3.44498 2.24466 -3.39414e-20)
(3.14631 2.3835 -1.20558e-20)
(2.75956 2.43598 0)
(2.79183 2.4395 0)
(2.95269 2.36188 -1.297e-20)
(2.81362 2.40225 -3.83177e-27)
(3.40758 2.19408 9.5526e-22)
(3.14885 2.30293 2.03344e-20)
(3.94897 1.88444 0)
(3.68825 2.05176 -5.86683e-21)
(5.45166 -0.758494 -2.12786e-22)
(5.98137 -0.680594 7.55286e-21)
(3.0339 -0.999625 2.7148e-20)
(3.28788 -1.05673 5.80136e-20)
(4.31439 1.53294 8.47666e-21)
(4.15028 1.70336 -8.38472e-21)
(3.12992 2.45262 -6.71107e-25)
(2.64433 1.94301 0)
(3.42455 1.9173 0)
(2.39575 1.0831 -3.63166e-25)
(4.01267 0.716702 -1.71897e-22)
(2.33099 0.0512408 -6.96411e-21)
(4.73877 -0.864374 3.29312e-22)
(2.42271 -0.747123 0)
(5.71846 -2.13918 5.70782e-20)
(5.26164 -2.26702 -2.24096e-22)
(2.84821 -1.34053 1.87431e-20)
(3.48981 -1.30667 -6.25741e-20)
(3.25473 -1.26674 -1.42192e-20)
(5.90307 -1.88807 -3.84565e-20)
(5.4261 -3.12285 -5.7115e-20)
(5.49854 -2.80055 -1.90579e-20)
(3.66706 -1.50135 -2.93651e-20)
(3.29337 -0.858141 8.48691e-20)
(3.436 -1.04291 1.3117e-20)
(4.47164 1.32672 6.03564e-21)
(4.55516 1.63763 0)
(4.69528 1.42291 -6.59188e-21)
(2.80349 2.24388 -3.24774e-26)
(4.04464 0.958413 7.12607e-21)
(4.2396 1.18175 2.43738e-20)
(3.72476 0.472192 -1.52014e-20)
(3.842 0.762031 -7.04446e-21)
(3.58399 -0.0683868 0)
(3.59583 0.244137 0)
(3.63253 -0.549678 0)
(3.53929 -0.277576 0)
(3.8458 -0.922146 0)
(3.6834 -0.708769 0)
(4.19462 -1.19554 0)
(3.98505 -1.04244 0)
(4.69362 -1.32468 -3.86926e-27)
(4.42317 -1.27202 4.0209e-27)
(5.29177 -1.13595 -2.16222e-23)
(5.00089 -1.28509 3.35684e-28)
(5.77412 -0.316686 -5.98043e-23)
(5.57786 -0.828948 0)
(5.85021 0.959276 0)
(5.89162 0.307921 0)
(5.49693 1.71923 -3.37273e-23)
(5.73189 1.43613 0)
(4.94857 1.67148 1.98581e-23)
(5.25373 1.7535 0)
(4.36201 1.30579 3.48493e-23)
(4.67061 1.49092 0)
(3.84329 0.919523 1.09462e-22)
(4.10474 1.09634 3.36881e-27)
(3.40386 0.565083 7.3289e-21)
(3.61721 0.744088 0)
(3.12255 0.0918736 -9.13496e-21)
(3.23592 0.341254 -9.47114e-21)
(3.12359 -0.425602 3.73169e-20)
(3.08962 -0.178525 -2.37313e-20)
(3.1983 -0.648551 -7.52231e-20)
(6.30843 0.686836 -2.33152e-20)
(6.22277 -0.559693 5.68144e-20)
(5.72449 1.9017 -3.81043e-23)
(6.10002 1.51722 -1.78735e-21)
(4.9359 1.91011 -6.37434e-21)
(5.31297 1.97626 6.80222e-21)
(4.30871 1.7187 3.69802e-24)
(4.59539 1.81696 1.2113e-22)
(3.83641 1.5153 4.76298e-24)
(4.05473 1.61609 3.5348e-27)
(3.4152 1.26442 0)
(3.60659 1.4138 0)
(3.20088 0.663691 7.88708e-27)
(3.25958 1.02264 -8.3466e-27)
(3.28525 -0.276078 0)
(3.19936 0.217776 0)
(3.57086 -1.20398 1.25306e-23)
(3.40112 -0.76048 0)
(3.96464 -1.92043 0)
(3.7586 -1.59201 0)
(4.39779 -2.39669 -4.38657e-23)
(4.18889 -2.19534 0)
(4.84732 -2.45004 0)
(4.63282 -2.49488 0)
(5.23222 -1.77007 -3.9964e-23)
(5.05839 -2.21822 -4.58676e-26)
(5.35643 -0.341008 5.19604e-22)
(5.31805 -1.12215 0)
(5.15708 1.15021 0)
(5.27026 0.448581 2.62954e-23)
(4.71627 1.92195 4.65487e-20)
(4.93431 1.62873 1.37201e-22)
(4.4586 1.96953 1.1087e-20)
(3.31272 2.12276 -2.36274e-20)
(3.57091 1.96208 1.25773e-20)
(2.8889 2.35895 0)
(3.05832 2.27349 0)
(2.78096 2.44948 -2.35652e-24)
(2.79203 2.41877 -4.47917e-27)
(3.02202 2.44264 -1.98083e-24)
(2.86065 2.45744 -4.50336e-27)
(3.50631 2.33274 -1.45732e-21)
(3.23926 2.41253 -7.0767e-27)
(4.07519 2.0516 -1.01436e-20)
(3.78879 2.21125 5.08204e-21)
(4.33739 1.85304 -6.12289e-21)
(2.92295 1.69531 1.116e-24)
(2.4122 1.25404 -1.12297e-25)
(3.30826 0.68941 0)
(2.23644 0.227965 4.30522e-25)
(3.96148 -0.873569 2.24549e-22)
(2.29743 -0.836909 6.97634e-21)
(4.63183 -2.40037 -1.11635e-21)
(2.54147 -1.36367 -4.44336e-22)
(5.02769 -3.30389 -1.35718e-21)
(3.09335 -1.73845 0)
(5.11173 -3.08544 1.96799e-20)
(5.12687 -3.46403 0)
(3.54786 -1.41991 -1.18281e-20)
(3.67559 -1.18697 6.41723e-20)
(3.79647 -1.64169 2.59642e-20)
(4.86913 -2.57603 -1.73715e-21)
(4.68477 -2.91415 1.08475e-21)
(4.3947 -2.34759 -2.08777e-22)
(3.97899 -1.28482 -7.84635e-21)
(4.15273 -1.0851 7.46641e-20)
(4.30054 -1.14177 6.08331e-20)
(4.7539 1.69023 0)
(4.90563 1.50891 -6.35663e-21)
(4.51129 1.22772 1.59427e-20)
(4.8263 1.0794 -1.67316e-20)
(2.57109 1.51919 1.82211e-25)
(4.09459 0.861743 -1.27334e-20)
(4.34333 0.90118 -1.0079e-20)
(3.80339 0.373791 2.05517e-21)
(3.9437 0.577858 -7.39512e-21)
(3.688 -0.116319 -3.31233e-23)
(3.71287 0.174711 3.30723e-26)
(3.75697 -0.514539 0)
(3.67637 -0.239646 0)
(3.98477 -0.802504 0)
(3.83625 -0.595847 0)
(4.32839 -0.994585 5.67932e-23)
(4.14282 -0.864667 0)
(4.77199 -1.04872 0)
(4.54944 -1.01726 0)
(5.26887 -0.869416 0)
(5.03258 -0.996587 0)
(5.69666 -0.172039 0)
(5.52235 -0.601876 0)
(5.74498 0.858214 0)
(5.79225 0.337323 0)
(5.38637 1.45561 1.27218e-25)
(5.61728 1.22962 0)
(4.82987 1.37341 1.49731e-23)
(5.13423 1.45784 7.45612e-27)
(4.2508 1.01401 0)
(4.55483 1.17767 0)
(3.7676 0.677231 5.60078e-24)
(4.00751 0.81547 -3.36883e-27)
(3.45897 0.391912 6.63894e-23)
(3.60101 0.525972 1.71203e-26)
(3.37576 0.00239269 1.00296e-20)
(3.39446 0.219984 8.94793e-24)
(3.48525 -0.559224 -5.23825e-21)
(3.41289 -0.262619 -4.98707e-21)
(3.77102 -0.991154 -3.32338e-20)
(3.60593 -0.810811 2.29737e-20)
(3.96385 -1.05159 -8.39222e-20)
(5.93417 -1.48212 -3.20949e-21)
(5.38226 -2.31743 2.18759e-22)
(6.34524 0.648581 5.31145e-22)
(6.30211 -0.339623 0)
(5.72117 1.56661 3.76736e-23)
(6.09774 1.27162 1.8102e-21)
(5.0005 1.62059 0)
(5.33032 1.65273 0)
(4.45493 1.49657 7.33502e-24)
(4.70719 1.56449 0)
(4.01913 1.30302 0)
(4.22947 1.40523 0)
(3.57985 1.09672 0)
(3.79616 1.20733 0)
(3.3214 0.637861 -4.74589e-23)
(3.41219 0.915302 0)
(3.40017 -0.160253 0)
(3.32749 0.267033 0)
(3.71645 -1.01239 -3.89531e-23)
(3.54777 -0.598087 0)
(4.15796 -1.69817 -3.16009e-23)
(3.94155 -1.37799 0)
(4.66318 -2.16007 4.29226e-24)
(4.41512 -1.96235 1.06267e-27)
(5.20143 -2.2253 6.31855e-23)
(4.92953 -2.25812 3.15351e-26)
(5.65736 -1.63692 -4.70576e-23)
(5.42653 -2.03296 0)
(5.83064 -0.37103 0)
(5.74752 -1.07336 0)
(5.59563 0.976652 0)
(5.70356 0.348503 -2.63345e-23)
(5.06698 1.65633 -2.89342e-20)
(5.30311 1.40552 -1.34688e-22)
(4.72798 1.70021 2.58728e-20)
(3.60188 1.58065 0)
(3.81639 1.35709 5.37093e-20)
(3.17746 1.95519 1.23148e-20)
(3.38122 1.7932 -1.26977e-21)
(2.83215 2.21773 2.80081e-24)
(2.98247 2.11315 5.11727e-27)
(2.75198 2.34934 4.81127e-24)
(2.74519 2.29874 8.7745e-27)
(3.03227 2.40176 -1.05719e-26)
(2.84921 2.39161 1.07493e-26)
(3.62 2.346 -4.73379e-21)
(3.29447 2.39839 1.02557e-26)
(4.28744 2.07718 1.01017e-20)
(3.96342 2.2399 4.8242e-21)
(4.55037 1.88267 6.00342e-21)
(2.75665 0.53774 0)
(2.25486 0.275851 4.44232e-26)
(3.24654 -0.839012 0)
(2.19722 -0.770888 -1.76978e-24)
(3.92452 -2.37998 -2.76414e-22)
(2.3858 -1.64353 -6.52592e-24)
(4.50178 -3.44 7.34718e-22)
(2.7857 -1.8442 1.10759e-24)
(4.77615 -3.68819 1.81647e-21)
(3.4148 -1.87987 -2.3212e-23)
(4.80743 -3.33732 0)
(3.78203 -1.6367 -7.35903e-21)
(3.94163 -1.9217 -2.83835e-20)
(4.23097 -2.49021 1.02245e-20)
(3.98206 -1.6853 8.24708e-22)
(4.41996 -1.21778 -6.50678e-20)
(4.26005 -1.36233 -5.77702e-20)
(4.94479 1.35831 -1.49262e-20)
(2.39854 0.452323 -3.9917e-25)
(4.59483 0.85337 -2.55692e-20)
(5.12756 0.950226 7.92604e-20)
(4.73922 1.06203 -5.58942e-20)
(4.15379 0.577659 3.44204e-21)
(4.3129 0.869197 2.37803e-20)
(3.862 0.214423 -2.05266e-21)
(3.98168 0.54167 3.87067e-21)
(3.76679 -0.136162 -8.41416e-21)
(3.80474 0.165819 7.52629e-21)
(3.86594 -0.404703 -6.72423e-23)
(3.81561 -0.178892 3.41715e-26)
(4.09375 -0.615443 -6.53476e-23)
(3.98942 -0.459413 -3.35257e-26)
(4.40282 -0.778568 3.73267e-24)
(4.25819 -0.687317 0)
(4.78614 -0.838633 0)
(4.60521 -0.824865 0)
(5.19886 -0.670445 -4.33046e-23)
(5.0047 -0.80528 0)
(5.50267 -0.0741833 1.49322e-26)
(5.38638 -0.438912 -1.55046e-26)
(5.47282 0.767623 1.44885e-26)
(5.5329 0.343897 -1.50371e-26)
(5.14021 1.20285 -1.71713e-26)
(5.33215 1.05768 1.78139e-26)
(4.63594 1.05516 -9.18916e-23)
(4.89577 1.16731 2.23643e-26)
(4.12851 0.732335 6.08194e-23)
(4.37022 0.878404 2.81567e-26)
(3.77531 0.507571 4.02063e-24)
(3.92741 0.595868 0)
(3.60014 0.347858 7.40303e-23)
(3.67249 0.432699 3.60258e-26)
(3.5194 0.0681199 7.70892e-23)
(3.55227 0.241606 0)
(3.54815 -0.330151 5.47166e-21)
(3.51515 -0.116383 0)
(3.7206 -0.645663 2.29872e-20)
(3.61725 -0.488169 -2.52778e-20)
(3.94516 -0.928623 0)
(3.83187 -0.779062 2.55262e-21)
(4.26212 -1.04189 7.31616e-20)
(4.08215 -1.01943 -6.98144e-20)
(4.78852 -2.02131 1.12174e-21)
(3.95035 -1.4801 1.90176e-20)
(4.31039 -1.83869 -1.84856e-20)
(5.94113 -1.0494 2.11727e-22)
(5.37192 -1.75379 8.5021e-24)
(6.19153 0.525181 0)
(6.22702 -0.1915 0)
(5.57588 1.219 -3.88909e-24)
(5.92171 0.981483 0)
(4.94865 1.33936 0)
(5.22893 1.32311 0)
(4.5033 1.2693 -1.10322e-23)
(4.71649 1.31377 0)
(4.12656 1.09894 0)
(4.30807 1.20317 0)
(3.74742 0.888192 0)
(3.9534 0.98879 0)
(3.44094 0.579621 -5.50412e-24)
(3.5744 0.769492 0)
(3.4799 -0.0556328 0)
(3.43095 0.299155 0)
(3.8068 -0.809142 -5.01914e-26)
(3.63425 -0.436285 5.31304e-26)
(4.28315 -1.44061 3.1561e-23)
(4.04223 -1.14413 4.26189e-26)
(4.84174 -1.87375 8.31087e-24)
(4.54825 -1.6923 1.38144e-26)
(5.42617 -1.95535 -3.04972e-23)
(5.11294 -1.98157 0)
(5.92266 -1.46125 -1.295e-22)
(5.65845 -1.80761 9.40026e-26)
(6.11037 -0.379919 -1.25423e-25)
(6.01904 -0.999473 1.33087e-25)
(5.85702 0.789792 0)
(5.98315 0.231483 0)
(5.29673 1.36617 5.61713e-21)
(5.54476 1.14948 -7.45431e-21)
(4.69182 1.3919 0)
(4.92389 1.42551 4.3644e-22)
(4.40257 1.31091 0)
(3.48768 1.41265 0)
(3.85244 1.00753 3.28825e-21)
(3.6811 1.21873 -2.62882e-20)
(3.04546 1.72097 -4.46371e-22)
(3.26615 1.58386 1.38896e-21)
(2.71139 1.94573 -5.48733e-25)
(2.84705 1.85176 0)
(2.68613 2.10974 -2.45898e-24)
(2.65021 2.03722 0)
(3.02193 2.22253 0)
(2.80543 2.18145 0)
(3.66296 2.22665 9.84914e-25)
(3.31221 2.24839 0)
(4.43401 2.01487 0)
(4.04567 2.15337 0)
(5.03427 1.58392 0)
(4.78085 1.80707 9.66549e-21)
(5.2001 1.11255 0)
(5.18336 1.36667 -6.45846e-21)
(3.53715 -1.44052 6.12813e-20)
(3.6956 -1.11655 0)
(4.57634 -1.22927 3.17768e-21)
(4.48365 -1.03001 4.52919e-21)
(2.68647 -0.868815 1.10182e-23)
(2.20815 -0.85538 0)
(4.33347 0.947848 0)
(3.2623 -2.28726 4.00877e-23)
(2.27943 -1.71138 1.20283e-24)
(4.99597 0.874995 2.82934e-20)
(5.34729 1.04457 0)
(5.26028 0.829289 0)
(3.89449 -3.43186 8.28938e-23)
(2.61626 -2.21557 1.00604e-23)
(4.36251 -3.85617 0)
(3.10338 -2.15568 3.24936e-23)
(4.52878 -3.57094 0)
(3.76642 -1.89708 0)
(4.48428 -2.95773 0)
(3.95979 -1.89285 5.0796e-21)
(3.75629 -1.95641 9.30868e-21)
(4.2764 -1.67219 1.44512e-21)
(3.56081 -0.852203 0)
(3.2708 -1.01238 -3.4562e-20)
(4.4784 -1.44772 -2.21644e-20)
(4.78671 -1.15176 4.72433e-20)
(4.6806 -1.02446 -6.29273e-20)
(2.34293 -0.818413 2.71914e-25)
(4.51987 0.731817 1.32012e-20)
(4.73859 0.805135 0)
(4.14407 0.467439 -3.86254e-21)
(4.30752 0.64189 -6.14234e-21)
(3.92361 0.166008 0)
(4.02002 0.382024 3.64951e-21)
(3.88665 -0.0990325 0)
(3.90568 0.0994431 1.05569e-21)
(3.9925 -0.325467 6.72097e-23)
(3.95801 -0.161354 0)
(4.17212 -0.533396 1.31062e-22)
(4.10515 -0.406999 0)
(4.41965 -0.666301 2.45637e-24)
(4.3067 -0.603724 0)
(4.72761 -0.677927 -5.85735e-23)
(4.5758 -0.68365 -5.85307e-26)
(5.07078 -0.503991 4.32549e-23)
(4.89797 -0.616489 5.20901e-26)
(5.30787 -0.0321917 -5.12714e-23)
(5.21537 -0.303872 4.40085e-26)
(5.19999 0.645333 -4.60494e-26)
(5.29655 0.311197 4.45198e-26)
(4.82323 1.00356 -5.54341e-23)
(5.02087 0.899832 5.08517e-26)
(4.41908 0.83931 1.09734e-22)
(4.61071 0.964534 0)
(4.09085 0.565665 3.99551e-24)
(4.23366 0.687918 6.19493e-26)
(3.89431 0.419105 -1.3899e-22)
(3.97243 0.475834 0)
(3.7645 0.28533 -7.39928e-23)
(3.8231 0.366252 -7.48493e-26)
(3.655 -0.00397499 0)
(3.70197 0.170817 0)
(3.65446 -0.38335 1.03081e-20)
(3.63203 -0.187148 -1.08034e-20)
(3.81453 -0.644025 0)
(3.72052 -0.525731 -5.1162e-27)
(4.08337 -0.751753 3.25107e-21)
(3.93878 -0.70469 -5.07892e-21)
(4.37366 -0.819517 3.8592e-20)
(4.2404 -0.779172 -3.85163e-20)
(4.60842 -0.816773 0)
(4.48604 -0.836553 -4.50909e-21)
(4.1292 -1.21307 1.12771e-20)
(3.80963 -0.750559 -1.76842e-21)
(3.9324 -0.943802 -2.21879e-20)
(4.89855 -1.49742 1.84351e-20)
(4.43957 -1.44682 -1.11108e-20)
(5.82388 -0.700941 7.09489e-21)
(5.41277 -1.2258 -2.56279e-20)
(5.92024 0.36043 -1.70878e-23)
(5.98725 -0.119622 1.76886e-22)
(5.40749 0.87905 3.88918e-24)
(5.68988 0.680628 0)
(4.84144 1.1004 5.78291e-26)
(5.11055 1.01864 -6.11569e-26)
(4.40188 1.11232 -7.41019e-26)
(4.60791 1.13262 7.83769e-26)
(4.07006 0.981981 -2.47002e-23)
(4.22435 1.07182 0)
(3.82906 0.73967 9.84964e-26)
(3.9576 0.869625 -1.04216e-25)
(3.57123 0.496651 5.28557e-23)
(3.70319 0.632554 1.12307e-25)
(3.5436 0.0439585 0)
(3.52066 0.312445 0)
(3.84739 -0.597618 5.50622e-23)
(3.66484 -0.269954 -3.63789e-27)
(4.3341 -1.17441 -9.25865e-26)
(4.0677 -0.907861 9.80287e-26)
(4.90426 -1.57092 1.35308e-23)
(4.58986 -1.41141 0)
(5.49998 -1.6596 -3.27189e-23)
(5.17156 -1.67929 0)
(6.00068 -1.26942 4.26741e-23)
(5.7377 -1.54618 0)
(6.18927 -0.388622 -1.51176e-25)
(6.10011 -0.895175 1.60337e-25)
(5.95165 0.589031 0)
(6.08119 0.123332 0)
(5.39031 1.07149 3.19955e-21)
(5.65693 0.889812 -3.3588e-21)
(4.77743 1.10535 -7.48187e-21)
(5.03545 1.12448 8.47373e-21)
(4.51172 1.04403 0)
(3.70199 0.859186 -7.37858e-21)
(3.86667 0.701837 3.26306e-20)
(3.28434 1.13964 0)
(3.49655 1.00006 7.24478e-21)
(2.88921 1.37727 -1.69815e-24)
(3.08115 1.27562 0)
(2.59841 1.57529 -2.24737e-24)
(2.71744 1.48512 -9.89448e-27)
(2.58646 1.758 0)
(2.54481 1.6733 0)
(2.98323 1.8979 0)
(2.72579 1.84242 0)
(3.74968 1.9306 -9.79246e-25)
(3.33619 1.9349 0)
(4.56557 1.79246 0)
(4.17503 1.88497 0)
(5.17831 1.45863 1.1601e-20)
(4.90897 1.64146 -9.33567e-21)
(5.34492 1.26548 -5.29544e-21)
(3.49941 -0.64313 0)
(3.70979 -0.563231 1.58706e-20)
(4.83882 -0.988991 5.01437e-20)
(4.75207 -0.759616 -7.04536e-20)
(2.74952 -2.18589 4.67724e-25)
(2.29366 -1.92141 8.95973e-25)
(4.84717 0.613784 -4.79025e-20)
(4.98966 0.688018 2.79947e-20)
(3.33551 -3.29935 -2.24064e-22)
(2.49634 -2.42669 0)
(3.88751 -3.87644 -4.19138e-22)
(2.90925 -2.51972 -1.99208e-23)
(4.21033 -3.78608 0)
(3.50057 -2.29715 0)
(4.29013 -3.20151 -1.59759e-21)
(4.03626 -2.01027 -1.96667e-23)
(4.09856 -2.48213 0)
(4.20827 -2.07163 2.16344e-21)
(3.29291 -1.38959 -1.86276e-20)
(4.62658 -1.70506 0)
(3.16649 -0.688781 3.17121e-20)
(4.70917 -1.51875 1.8936e-20)
(3.64864 -0.357876 -3.61759e-20)
(3.48434 -0.417884 3.53269e-20)
(5.03008 -1.05629 -3.42206e-20)
(3.76827 -0.295334 -9.87536e-21)
(3.72806 -0.108892 -8.47791e-21)
(3.60211 -0.127838 4.39177e-20)
(3.85405 0.378064 -7.09663e-20)
(4.98093 -0.86408 -3.79558e-21)
(4.87638 -0.691236 1.58819e-19)
(2.41582 -2.02342 0)
(4.43989 0.526443 -5.63289e-21)
(4.62084 0.649723 1.82353e-20)
(4.13904 0.346149 0)
(4.27493 0.489652 0)
(3.99267 0.141721 0)
(4.05576 0.290553 0)
(3.9737 -0.0483619 0)
(3.98035 0.0905366 0)
(4.02263 -0.239837 6.57542e-23)
(4.00799 -0.108523 4.14672e-27)
(4.13259 -0.402786 -6.5811e-23)
(4.08471 -0.304003 1.34109e-25)
(4.34027 -0.492326 -6.311e-23)
(4.23504 -0.446958 1.31333e-25)
(4.63698 -0.49571 5.85087e-23)
(4.48036 -0.508428 1.25836e-25)
(4.96167 -0.34551 0)
(4.79725 -0.450326 -3.86269e-27)
(5.14963 0.0102049 5.12261e-23)
(5.07477 -0.19881 3.2829e-27)
(5.03149 0.503072 0)
(5.12226 0.249566 3.27201e-27)
(4.6529 0.806167 -7.22389e-24)
(4.84598 0.704496 0)
(4.31024 0.698776 -1.2255e-22)
(4.45329 0.791475 0)
(4.11205 0.483452 -6.50263e-23)
(4.18785 0.582912 1.31955e-25)
(3.98415 0.358396 1.43245e-22)
(4.03996 0.412751 0)
(3.8475 0.223711 0)
(3.91338 0.302789 0)
(3.73726 -0.0122979 0)
(3.78005 0.122219 0)
(3.75728 -0.29024 0)
(3.72832 -0.146794 0)
(3.89353 -0.513102 -8.20077e-23)