/*--------------------------------*- C++ -*----------------------------------*\
  =========                 |
  \\      /  F ield         | OpenFOAM: The Open Source CFD Toolbox
   \\    /   O peration     | Website:  https://openfoam.org
    \\  /    A nd           | Version:  10
     \\/     M anipulation  |
\*---------------------------------------------------------------------------*/
FoamFile
{
    format      ascii;
    class       volVectorField;
    location    "2";
    object      U;
}
// * * * * * * * * * * * * * * * * * * * * * * * * * * * * * * * * * * * * * //

dimensions      [0 1 -1 0 0 0 0];

internalField   nonuniform List<vector> 
33313
(
(0.678352 0.038026 -2.90591e-21)
(0.83669 0.0264735 1.4741e-21)
(0.831916 0.0347662 0)
(0.427108 0.0246904 0)
(1.01202 0.021781 6.74425e-22)
(1.00522 0.0213489 0)
(0.978127 0.0256566 -3.20867e-22)
(0.995562 0.0207066 0)
(1.0017 0.0127145 7.34853e-22)
(0.965961 0.0302007 -7.17035e-22)
(1.00024 0.0279247 0)
(-0.151841 0.131703 -3.03803e-20)
(-0.0586389 0.0430287 -1.08419e-19)
(-0.0526731 0.0426581 -2.28137e-19)
(0.455749 -0.37185 9.0569e-22)
(0.174537 -0.128569 -4.85207e-21)
(0.15526 -0.122494 2.22297e-22)
(1.51321 -0.365374 0)
(1.5656 -0.229108 0)
(1.51705 -0.169132 0)
(1.51757 -0.257199 3.25145e-20)
(0.535633 0.0186537 0)
(0.453213 0.324934 -1.29621e-19)
(0.301216 0.282303 3.92699e-19)
(0.409298 0.00850696 -8.43522e-20)
(1.00473 -0.0200446 -6.52536e-20)
(1.00457 -0.0391008 4.52383e-20)
(1.00495 -0.0783635 0)
(0.96365 0.105681 -6.02169e-20)
(1.03595 0.100502 4.79017e-20)
(1.01551 0.0813564 3.15241e-20)
(0.996635 -0.0191864 -4.03232e-20)
(0.88309 0.0569783 -2.2838e-20)
(-0.0595532 -0.122211 1.03369e-19)
(-0.0827597 -0.055746 -2.15062e-19)
(-0.0877835 -0.0565866 1.32893e-19)
(-0.139023 -0.11754 1.8669e-20)
(1.1063 -0.0201889 -2.08509e-22)
(1.1104 -0.0191225 -6.33023e-21)
(1.51954 0.1186 -1.68684e-20)
(1.4826 0.10188 3.1304e-20)
(1.02134 -0.173511 -5.80109e-20)
(1.02749 -0.169017 -4.83106e-21)
(-0.0958773 -0.0616825 -8.93538e-20)
(-0.0780181 0.122108 3.95201e-20)
(-0.106947 0.086543 -1.60788e-19)
(0.203367 0.504742 9.27086e-20)
(0.181932 0.365361 3.42961e-20)
(0.898932 -0.0791717 1.35915e-21)
(0.972518 -0.0390239 -3.73869e-21)
(1.04165 0.0677044 -4.21858e-20)
(1.06004 0.0619008 2.2451e-20)
(1.06411 -0.0973908 -5.69932e-20)
(1.01909 -0.0607388 1.51473e-19)
(0.492864 0.557457 1.24841e-19)
(0.425504 0.615152 -5.55437e-20)
(0.650697 0.745188 -9.05276e-20)
(0.38534 0.686961 2.13191e-19)
(0.232201 -0.389689 4.07432e-20)
(0.368994 -0.718137 -3.32755e-21)
(0.219616 0.550435 -5.91585e-20)
(0.418351 -0.274056 2.40037e-19)
(0.236309 -0.205659 -7.244e-20)
(0.102007 -0.147778 0)
(0.231632 -0.00865259 0)
(0.290186 -0.0217101 3.61149e-20)
(1.22006 -0.130252 5.53052e-21)
(1.39313 -0.211056 0)
(1.38859 -0.206676 0)
(0.525697 0.421335 1.08952e-20)
(0.583506 0.419861 0)
(0.729323 0.427712 0)
(0.404412 -0.00501758 1.25619e-20)
(1.56306 0.184956 6.79089e-20)
(0.0894198 0.306688 3.81897e-20)
(0.170736 0.337602 5.25988e-20)
(0.775214 0.29986 0)
(0.707597 0.362315 3.41524e-20)
(1.42992 0.258933 5.58945e-20)
(1.47633 0.184046 -3.45657e-20)
(0.827163 -0.0570296 1.51013e-19)
(0.841411 -0.0375933 -5.04821e-20)
(0.802367 -0.0922816 0)
(1.49147 0.0759126 1.78967e-20)
(1.38041 0.138403 -4.30685e-21)
(0.861692 0.0637176 -1.81603e-20)
(0.115798 0.0343105 0)
(-0.0212268 0.0665253 1.91788e-20)
(-0.0692069 0.0615807 1.08962e-19)
(0.0398108 -0.139124 2.90586e-19)
(-0.302898 -0.110967 9.42475e-21)
(-0.133245 -0.0755736 -3.81119e-21)
(-0.246906 -0.236798 -6.35664e-19)
(-0.316605 -0.220465 0)
(-0.342461 -0.192108 5.7839e-20)
(1.04196 0.0625402 0)
(1.0156 0.0601004 -5.17e-21)
(0.91522 -0.081086 -3.74525e-21)
(0.984016 -0.0513342 -4.08133e-24)
(1.49931 -0.170226 0)
(1.50176 -0.221033 -7.14022e-20)
(1.52434 -0.141875 0)
(1.53049 -0.0296667 3.29843e-20)
(1.54506 -0.0519852 5.32697e-21)
(1.53807 -0.0431637 -3.65313e-20)
(0.370388 -0.0154996 -3.42696e-21)
(0.238374 -0.0526066 -1.14199e-19)
(-0.0218674 -0.0646444 -8.03405e-20)
(-0.0141046 -0.0742238 -4.04105e-22)
(0.956328 -0.632285 6.19093e-21)
(1.14842 -0.788959 9.14697e-21)
(0.971771 -0.753353 2.73981e-20)
(0.760116 -0.525629 0)
(0.844664 -0.239014 9.48141e-20)
(0.321914 -0.0479837 4.67694e-20)
(0.766774 -0.101997 -4.24227e-20)
(0.212154 0.0644039 -4.45557e-19)
(0.17669 0.214313 5.08977e-20)
(1.5278 -0.0476841 1.53537e-21)
(1.51145 -0.0238039 0)
(-0.126685 -0.176806 0)
(-0.0985276 -0.0995923 1.39845e-19)
(-0.130365 -0.154547 0)
(0.821662 -0.0260831 -8.57822e-21)
(0.877053 -0.0242011 5.50962e-21)
(0.507982 -0.0788375 -1.74455e-20)
(0.797662 0.734 1.57701e-19)
(1.09397 -0.0669959 -7.31159e-22)
(1.08894 -0.0678129 0)
(0.0266244 -0.156813 3.22713e-20)
(0.0352738 -0.231649 -3.01568e-20)
(-0.183004 -0.187358 -2.00098e-19)
(-0.161227 -0.180641 3.73076e-19)
(0.927594 0.703116 2.50897e-20)
(1.08918 0.705444 3.17541e-20)
(0.964303 0.672954 0)
(0.794571 0.611162 0)
(0.522776 -0.359132 -1.00697e-20)
(0.64998 -0.45722 0)
(0.890187 -0.774456 -1.02189e-19)
(0.895781 -0.745761 -2.75414e-20)
(0.752202 -0.789865 1.14158e-19)
(1.09695 -0.0614938 -1.67501e-21)
(1.10049 -0.0598517 -1.34452e-20)
(1.09848 -0.0664961 1.65375e-22)
(1.06765 -0.00037835 0)
(1.07075 -0.00168271 -5.18819e-21)
(1.0724 -0.0039065 7.97355e-21)
(1.0752 -0.00665678 5.05043e-21)
(1.00607 -0.214346 4.34161e-20)
(1.02028 -0.21807 0)
(1.00065 -0.174005 -7.50805e-20)
(1.00871 -0.187202 4.30202e-20)
(0.942726 0.0957464 3.06098e-20)
(0.936166 0.114395 -4.7385e-20)
(0.956493 0.122455 2.91795e-20)
(0.950671 0.132627 1.6967e-19)
(0.455001 0.340301 2.19404e-20)
(0.307534 0.378079 0)
(0.413842 0.415899 -2.05102e-20)
(-0.14547 -0.163725 -3.21277e-19)
(0.468429 0.379824 7.73931e-21)
(0.495472 0.444687 -1.13035e-20)
(0.882846 0.721823 -3.92549e-20)
(0.500653 0.495883 -5.01897e-20)
(-0.215447 0.169978 0)
(-0.230825 0.251904 9.71978e-20)
(-0.328804 0.238954 -6.57746e-20)
(0.544229 0.0823876 0)
(1.02512 0.0209578 0)
(1.02764 0.0195757 -2.80915e-22)
(1.05512 0.013493 5.39711e-21)
(1.05569 0.0107184 -3.41222e-21)
(1.07084 0.013909 1.67165e-21)
(1.07391 0.0172631 -1.07094e-23)
(1.01329 -0.0913506 1.36873e-20)
(1.02503 -0.0756988 -6.00193e-20)
(0.905666 -0.303284 1.49301e-19)
(0.798882 -0.342283 -1.06376e-19)
(1.01773 0.0421636 0)
(1.01771 0.0445794 0)
(1.09491 0.0135526 -7.27542e-22)
(1.09852 0.0154964 -9.86887e-21)
(1.10707 0.159045 -3.55065e-20)
(1.10092 0.153008 1.22845e-20)
(1.06287 0.42467 0)
(1.03554 0.409707 -1.3746e-21)
(0.776892 -0.387691 2.15851e-20)
(0.773171 -0.42783 1.68574e-20)
(0.46606 -0.320147 4.60708e-22)
(-0.000227941 0.254947 -9.44902e-20)
(0.842713 0.0397996 -5.41006e-20)
(0.872198 0.0388906 2.30491e-20)
(0.309242 -0.383944 4.12267e-21)
(0.320828 -0.384754 0)
(0.932625 0.23641 0)
(0.908989 0.270738 -4.9354e-21)
(0.882087 0.3636 -5.87064e-20)
(0.975782 -0.267416 2.63251e-20)
(0.949335 -0.295515 0)
(0.954233 -0.458825 3.14598e-20)
(0.819066 -0.00266569 -4.53609e-20)
(0.847004 0.00356877 5.5113e-20)
(1.04037 -0.0677742 5.46025e-21)
(1.03353 -0.0608499 -1.19309e-20)
(-0.139548 0.29464 0)
(-0.100687 0.249969 -5.91507e-20)
(1.31135 -0.659416 -2.77412e-20)
(1.24516 -0.673221 1.21322e-20)
(1.02891 -0.0571767 -4.11085e-20)
(1.0339 -0.0660838 4.88391e-20)
(1.01298 0.025288 -1.9882e-24)
(1.0171 0.0212652 2.3066e-24)
(1.0193 0.0215211 -1.12269e-22)
(1.01564 0.023871 -1.35292e-22)
(0.589557 -0.450122 2.36386e-21)
(-0.113292 0.0792209 8.6546e-20)
(-0.104759 0.0752012 -5.12408e-20)
(0.988118 0.181116 1.28816e-20)
(0.986016 0.164551 -6.05624e-21)
(0.997694 0.162979 6.08203e-21)
(1.00175 0.179988 0)
(1.49152 -0.0314274 -2.24572e-20)
(1.47608 -0.00640013 1.29412e-21)
(1.4514 -0.006253 2.18779e-20)
(1.12086 0.263257 0)
(1.10292 0.262826 -3.45703e-20)
(1.12207 0.260185 0)
(-0.0750745 0.056714 -6.56663e-20)
(-0.0257893 0.0178451 -1.50055e-19)
(-0.0309072 0.0226181 0)
(0.208291 -0.141238 -5.52447e-20)
(0.176705 -0.124329 1.92254e-20)
(1.05389 0.0146772 3.67449e-21)
(1.06306 -0.00448537 -7.2449e-21)
(1.06452 -0.00156955 -3.4809e-21)
(1.45946 -0.415239 0)
(1.04315 -0.173723 0)
(1.0253 -0.000542275 1.58366e-21)
(1.02563 -0.000465433 1.42853e-21)
(1.02593 -0.00043422 -1.99505e-21)
(1.02617 -0.000395351 1.49214e-22)
(1.02643 -0.000417775 0)
(1.02668 -0.000399401 1.07685e-21)
(1.02693 -0.000381636 -1.07673e-21)
(1.02718 -0.000365817 -1.05076e-21)
(1.02742 -0.000354683 1.05011e-21)
(1.02764 -0.00034276 1.02456e-21)
(1.02786 -0.0003327 -1.02388e-21)
(1.02807 -0.000322079 -9.98723e-22)
(1.02827 -0.000314729 9.98017e-22)
(1.02846 -0.000309199 0)
(1.02863 -0.000309274 0)
(1.02878 -0.000313234 0)
(1.02891 -0.000322741 -9.3467e-22)
(1.02903 -0.000333597 9.35456e-22)
(1.02912 -0.00034446 0)
(1.02921 -0.00034998 0)
(1.0293 -0.000350139 0)
(1.02939 -0.00034277 -8.73822e-22)
(1.02949 -0.00033224 1.21457e-23)
(1.02959 -0.000318747 1.71218e-21)
(1.02968 -0.000308545 -8.50457e-22)
(1.02976 -0.000297901 8.2518e-22)
(1.02982 -0.000299596 -2.56861e-21)
(1.02988 -0.000290822 -6.85592e-24)
(1.02991 -0.000274081 0)
(1.02996 -0.000252945 -2.50052e-22)
(1.02999 -0.000250892 0)
(1.03004 -0.000225497 4.95034e-22)
(1.02531 -0.000731849 0)
(1.02492 -0.000649209 -3.32529e-21)
(1.02496 -0.000935771 -9.50464e-22)
(1.02494 -0.000372156 -8.96616e-22)
(1.03016 -0.000138094 5.08913e-22)
(1.03008 -0.000262414 -4.75814e-22)
(1.02995 -0.000291924 0)
(1.03004 -0.000263242 2.37187e-22)
(1.03 -0.000307531 2.45578e-22)
(1.02988 -0.000314953 0)
(1.02992 -0.000306646 0)
(1.02978 -0.000380614 0)
(1.02984 -0.00035657 0)
(1.02963 -0.000454213 -7.87959e-28)
(1.02971 -0.000424363 0)
(1.02946 -0.000496392 0)
(1.02955 -0.000480887 0)
(1.0293 -0.000505128 2.50191e-24)
(1.02938 -0.000503867 0)
(1.02914 -0.000509572 0)
(1.02922 -0.000505684 0)
(1.02893 -0.000534621 2.64282e-24)
(1.02904 -0.000519507 0)
(1.02865 -0.00057294 2.71442e-24)
(1.0288 -0.000553271 0)
(1.02829 -0.000614511 2.78683e-24)
(1.02848 -0.000593451 3.38849e-28)
(1.02789 -0.000658915 0)
(1.02809 -0.000636822 0)
(1.02744 -0.000698525 0)
(1.02767 -0.000679945 0)
(1.02696 -0.000735473 0)
(1.0272 -0.000716264 0)
(1.02643 -0.000778216 0)
(1.0267 -0.000758188 0)
(1.0259 -0.000772785 -7.55068e-22)
(1.02617 -0.000759782 -1.8573e-22)
(1.02563 -0.000715325 -3.9834e-24)
(1.02458 -0.00065586 2.85797e-24)
(1.02462 -0.000934025 -4.89467e-22)
(1.03012 -0.000395346 0)
(1.02459 -0.000370444 2.85505e-21)
(1.03009 -0.000250454 0)
(1.03017 -0.000152815 -5.76354e-22)
(1.02426 -0.000668497 -8.00583e-26)
(1.02429 -0.000996247 4.93496e-22)
(1.03014 -0.000394363 1.09159e-21)
(1.0302 -0.000132917 0)
(1.02425 -0.000350529 4.80442e-22)
(1.03025 -0.000115605 5.32553e-22)
(1.02392 -0.00098905 5.03188e-22)
(1.02388 -0.000358052 -4.87833e-22)
(1.0239 -0.00068861 0)
(1.02498 -0.000100108 -2.55424e-23)
(1.02426 -1.3747e-05 -8.28447e-22)
(1.02463 -6.06739e-05 -1.82272e-21)
(1.02559 -0.000154824 -4.82696e-23)
(1.0253 -0.000159733 8.45281e-22)
(1.02619 -8.90623e-05 1.5684e-24)
(1.02589 -9.18677e-05 1.63593e-21)
(1.02671 -0.000111778 0)
(1.02645 -9.74009e-05 0)
(1.02721 -0.000127516 0)
(1.02696 -0.000121956 0)
(1.02766 -0.000132145 0)
(1.02744 -0.000129753 0)
(1.02807 -0.000141295 0)
(1.02787 -0.000135626 0)
(1.02841 -0.000162151 0)
(1.02825 -0.000149698 0)
(1.02871 -0.000204817 0)
(1.02857 -0.000180203 0)
(1.02894 -0.000263053 0)
(1.02883 -0.000234191 0)
(1.02915 -0.000292275 0)
(1.02905 -0.000284309 0)
(1.02936 -0.00027013 0)
(1.02925 -0.000286125 0)
(1.02959 -0.000241283 -7.32146e-28)
(1.02947 -0.000252749 0)
(1.0298 -0.000251932 8.72514e-28)
(1.0297 -0.000242177 0)
(1.02994 -0.000280884 1.41575e-22)
(1.02988 -0.000277795 1.97665e-21)
(1.03002 -0.000276847 4.96849e-22)
(1.02998 -0.000295488 -8.94572e-22)
(1.0301 -0.00021216 -4.99582e-22)
(1.03006 -0.000247426 2.50125e-22)
(1.03014 -0.000181982 0)
(1.03015 -0.000256009 1.39328e-22)
(1.03029 -0.000135213 2.9599e-23)
(1.03021 -0.00017847 0)
(1.03005 -0.000385473 3.19863e-23)
(1.03019 -0.00044478 -1.06175e-21)
(1.03012 -0.00042859 0)
(1.02997 -0.000356793 0)
(1.03001 -0.000368309 -1.29489e-22)
(1.02987 -0.000373384 1.42942e-22)
(1.02992 -0.000365911 0)
(1.02975 -0.000442036 0)
(1.02982 -0.00040144 -1.43264e-22)
(1.0296 -0.000526492 -2.57466e-28)
(1.02968 -0.000486606 0)
(1.02943 -0.000572439 0)
(1.02951 -0.000556924 0)
(1.02927 -0.000574135 -2.49692e-24)
(1.02934 -0.00057632 0)
(1.02911 -0.000587154 0)
(1.02919 -0.000575601 0)
(1.02891 -0.000645943 -2.63754e-24)
(1.02901 -0.000611808 0)
(1.02864 -0.000722965 -2.70899e-24)
(1.02878 -0.000684783 0)
(1.02831 -0.000794897 -2.78125e-24)
(1.02848 -0.000759675 -3.38167e-28)
(1.02792 -0.000864282 0)
(1.02812 -0.000830217 0)
(1.02748 -0.000924868 0)
(1.0277 -0.000896318 0)
(1.02701 -0.000977402 0)
(1.02725 -0.00095152 0)
(1.02648 -0.00103787 -3.05744e-24)
(1.02675 -0.00100509 0)
(1.02591 -0.0010864 0)
(1.0262 -0.00107793 0)
(1.02535 -0.00111035 0)
(1.02563 -0.00109028 0)
(1.02467 -0.00123351 2.33273e-22)
(1.02502 -0.00119149 1.07893e-21)
(1.02395 -0.00130597 3.40709e-22)
(1.02431 -0.00129822 -1.38525e-21)
(1.03019 -0.000365054 -4.07421e-22)
(1.02388 4.26887e-06 8.63551e-22)
(1.02354 -0.00102674 -4.96627e-22)
(1.02356 -0.00136789 6.98367e-22)
(1.03032 -0.000137091 -3.00292e-22)
(1.03036 -9.44783e-05 -4.02819e-22)
(1.03039 -9.34429e-05 -2.00677e-22)
(1.0235 -0.000368784 0)
(1.03027 -0.000473804 -5.30482e-22)
(1.03025 -0.000430818 -1.3224e-22)
(1.03032 -0.000474148 -5.96477e-22)
(1.02349 1.84208e-05 5.78295e-24)
(1.02352 -0.000706691 0)
(1.02429 0.00031346 2.31543e-22)
(1.02351 0.000404212 1.1943e-21)
(1.02391 0.000362719 -4.66494e-22)
(1.025 0.000236033 8.61452e-22)
(1.02466 0.000274712 0)
(1.02561 0.00019641 -2.51455e-23)
(1.02531 0.000213529 -4.1029e-22)
(1.02622 0.000180746 9.78098e-23)
(1.02591 0.000190101 -1.23172e-22)
(1.02675 0.000142385 0)
(1.02649 0.000162309 0)
(1.02724 0.000112492 0)
(1.027 0.000126115 0)
(1.02768 8.68891e-05 0)
(1.02746 0.000100953 0)
(1.02806 4.92166e-05 0)
(1.02787 7.00934e-05 0)
(1.02837 -2.26613e-06 0)
(1.02822 2.54496e-05 0)
(1.02863 -7.11067e-05 1.3354e-24)
(1.02851 -3.40534e-05 0)
(1.02886 -0.000146192 0)
(1.02875 -0.000110326 0)
(1.02909 -0.000176981 0)
(1.02898 -0.000170101 0)
(1.02933 -0.000146197 0)
(1.02921 -0.000166494 0)
(1.02957 -0.000117317 -5.4483e-28)
(1.02945 -0.000126131 0)
(1.0298 -0.000143401 4.5843e-28)
(1.02969 -0.000122882 0)
(1.02997 -0.000195149 2.00163e-23)
(1.02989 -0.00016613 0)
(1.03008 -0.000220756 6.40803e-23)
(1.03003 -0.000214425 5.39105e-22)
(1.03018 -0.000192886 -1.32262e-22)
(1.03013 -0.000213763 -6.62771e-23)
(1.03027 -0.000136465 1.33858e-22)
(1.03022 -0.000162968 2.62848e-22)
(1.03033 -0.00010736 -1.35941e-22)
(1.03023 -0.000260964 1.68178e-22)
(1.03026 -0.000192398 0)
(1.03031 -0.000414776 -3.74855e-22)
(1.03025 -0.000351148 6.82001e-23)
(1.03013 -0.000453699 -1.43331e-23)
(1.03019 -0.000462488 0)
(1.03002 -0.000431943 -3.42549e-23)
(1.03008 -0.000443887 4.9956e-23)
(1.0299 -0.000453207 -2.2231e-24)
(1.02997 -0.000433663 -3.45934e-23)
(1.02975 -0.000518017 0)
(1.02983 -0.000477313 0)
(1.02958 -0.000608054 -1.98933e-28)
(1.02967 -0.000565042 0)
(1.0294 -0.000653739 2.42824e-24)
(1.02949 -0.000639137 0)
(1.02923 -0.000651444 0)
(1.02931 -0.000655058 0)
(1.02905 -0.000671889 0)
(1.02914 -0.000654264 0)
(1.02885 -0.000754935 0)
(1.02895 -0.000706903 0)
(1.0286 -0.000862836 2.70954e-24)
(1.02873 -0.000809005 0)
(1.0283 -0.000964379 0)
(1.02846 -0.000914491 0)
(1.02795 -0.00106127 0)
(1.02813 -0.00101364 0)
(1.02754 -0.00114623 0)
(1.02775 -0.00110583 0)
(1.02707 -0.00121885 0)
(1.02731 -0.00118353 0)
(1.02656 -0.00129315 3.08054e-24)
(1.02682 -0.00125416 0)
(1.02598 -0.0013935 0)
(1.02628 -0.00134166 0)
(1.02538 -0.00149062 -4.18405e-22)
(1.02568 -0.00144912 0)
(1.02472 -0.00158586 1.27422e-24)
(1.02506 -0.00152944 4.23918e-22)
(1.02399 -0.00170589 1.02806e-22)
(1.02436 -0.00164759 -8.8843e-22)
(1.02316 -0.00141113 9.34079e-22)
(1.02321 -0.00185297 0)
(1.02361 -0.00177911 6.80452e-22)
(1.02308 4.55624e-05 -2.45741e-21)
(1.0231 0.000471363 1.22538e-21)
(1.02309 -0.000357957 -1.02027e-21)
(1.02313 -0.00103129 0)
(1.03037 -0.000463317 5.88527e-22)
(1.02279 -0.00192848 0)
(1.02274 -0.0014875 -2.14387e-21)
(1.03036 -0.000141533 1.32226e-22)
(1.03042 -9.98186e-05 -1.94112e-22)
(1.03042 -7.01991e-05 -6.07785e-22)
(1.02266 8.75978e-05 0)
(1.02267 0.000550375 7.46117e-22)
(1.03044 -6.01706e-05 0)
(1.02311 -0.000696243 0)
(1.02356 0.000810106 -9.823e-22)
(1.02273 0.000964071 -7.38764e-22)
(1.02316 0.000882518 7.75514e-22)
(1.02434 0.000684885 1.67541e-22)
(1.02395 0.000749461 -5.10538e-22)
(1.02503 0.000608025 6.37715e-22)
(1.02469 0.00064397 -1.05841e-22)
(1.02566 0.000526847 1.51475e-22)
(1.02535 0.000569031 0)
(1.02627 0.000452595 1.07173e-27)
(1.02597 0.00048613 -1.01405e-22)
(1.0268 0.000397083 0)
(1.02654 0.000424962 0)
(1.02727 0.000342098 0)
(1.02704 0.00036913 0)
(1.02769 0.000284352 0)
(1.02749 0.000314343 0)
(1.02803 0.000213122 0)
(1.02787 0.000250493 0)
(1.02832 0.000132835 -1.37037e-24)
(1.02818 0.000173553 0)
(1.02856 4.80716e-05 -1.3354e-24)
(1.02844 9.09896e-05 0)
(1.0288 -2.83804e-05 0)
(1.02868 6.53084e-06 0)
(1.02905 -5.31954e-05 0)
(1.02893 -4.96871e-05 0)
(1.02931 -1.86636e-05 0)
(1.02918 -4.01247e-05 0)
(1.02956 5.70566e-06 -6.02152e-28)
(1.02944 3.3195e-07 0)
(1.02979 -3.4302e-05 5.0937e-28)
(1.02968 -5.35773e-06 0)
(1.02998 -0.000105397 1.12793e-24)
(1.02989 -6.59356e-05 0)
(1.03012 -0.000153444 2.1911e-24)
(1.03006 -0.000132264 0)
(1.03024 -0.000153575 1.36345e-22)
(1.03018 -0.000161021 0)
(1.03033 -0.000116723 1.36958e-22)
(1.03028 -0.00013633 -2.70324e-22)
(1.03038 -9.40576e-05 2.03128e-22)
(1.0303 -0.000262242 -3.2081e-23)
(1.03032 -0.00019407 -1.28489e-22)
(1.03036 -0.000402827 -5.28258e-22)
(1.03032 -0.000344007 -6.37042e-23)
(1.03034 -0.000503928 6.33981e-22)
(1.03044 -0.000502046 -5.26165e-22)
(1.03039 -0.000508253 3.32084e-23)
(1.03022 -0.000499851 -1.22003e-28)
(1.03028 -0.000497246 -1.33531e-22)
(1.03011 -0.000499721 1.36057e-22)
(1.03017 -0.000499521 0)
(1.02996 -0.000529484 2.22404e-24)
(1.03004 -0.000506934 0)
(1.02979 -0.000607314 0)
(1.02988 -0.000562334 0)
(1.0296 -0.000700667 -1.19399e-28)
(1.0297 -0.000656403 0)
(1.02941 -0.000746743 -2.42824e-24)
(1.02951 -0.000732027 0)
(1.02921 -0.000745233 0)
(1.02931 -0.000748141 0)
(1.02899 -0.000770144 0)
(1.0291 -0.000749632 0)
(1.02878 -0.000863943 0)
(1.02889 -0.000809577 0)
(1.02854 -0.000990693 -2.70954e-24)
(1.02866 -0.000926383 0)
(1.02828 -0.00111805 0)
(1.02841 -0.00105457 0)
(1.02796 -0.00124425 0)
(1.02812 -0.0011817 0)
(1.02758 -0.00135944 0)
(1.02778 -0.00130391 0)
(1.02714 -0.00146173 0)
(1.02737 -0.00141163 0)
(1.02664 -0.00156285 -3.08005e-24)
(1.0269 -0.00151146 0)
(1.02607 -0.00168199 0)
(1.02637 -0.00161903 0)
(1.02546 -0.00182058 2.40436e-29)
(1.02577 -0.00175169 0)
(1.0248 -0.00194522 0)
(1.02514 -0.00188417 0)
(1.02406 -0.00209431 -2.24277e-22)
(1.02444 -0.00201838 0)
(1.02327 -0.00227727 1.63721e-21)
(1.02367 -0.00218371 -1.13539e-22)
(1.02234 -0.00201362 1.93474e-21)
(1.02242 -0.00248205 -1.9114e-21)
(1.02285 -0.00237611 1.39075e-22)
(1.03042 -0.00044985 7.941e-24)
(1.02224 0.000596103 0)
(1.02228 0.00104554 6.15984e-24)
(1.02267 -0.000331498 1.00592e-21)
(1.0227 -0.00107351 4.80213e-22)
(1.03047 -6.37561e-05 5.21902e-22)
(1.02195 -0.00260071 -2.98254e-23)
(1.02251 -0.00297295 -1.84175e-21)
(1.02205 -0.00308929 3.811e-21)
(1.02222 0.000127866 1.04524e-21)
(1.02229 -0.00154518 9.42843e-22)
(1.02187 -0.00211286 -1.8725e-21)
(1.02178 0.000663315 0)
(1.03049 -0.000535933 4.92311e-22)
(1.03048 -0.00048904 6.464e-23)
(1.03052 -0.000520225 5.08759e-22)
(1.02181 0.00113132 -1.02215e-21)
(1.02267 -0.000696096 -4.92276e-22)
(1.0228 0.00138691 -4.85153e-22)
(1.02188 0.00161633 0)
(1.02235 0.00149904 1.47838e-21)
(1.02363 0.00120389 -2.29246e-22)
(1.02323 0.00129203 2.31678e-22)
(1.0244 0.00106102 -2.16128e-22)
(1.02402 0.00112682 4.42938e-22)
(1.0251 0.000949564 0)
(1.02476 0.00100343 0)
(1.02574 0.000833042 0)
(1.02542 0.000892884 0)
(1.02633 0.000729602 3.11051e-24)
(1.02604 0.000776196 0)
(1.02685 0.000645806 0)
(1.0266 0.000687905 0)
(1.0273 0.000558366 0)
(1.02708 0.000602467 0)
(1.02769 0.000464932 0)
(1.0275 0.000512875 0)
(1.028 0.000360803 0)
(1.02785 0.000413873 0)
(1.02827 0.000257562 1.37037e-24)
(1.02814 0.000308051 0)
(1.02852 0.000166626 0)
(1.02839 0.000210318 0)
(1.02877 9.84541e-05 0)
(1.02864 0.000128195 0)
(1.02905 8.1021e-05 0)
(1.02891 8.19831e-05 0)
(1.02933 0.00011126 0)
(1.02919 9.33695e-05 0)
(1.02957 0.000124126 -6.83504e-28)
(1.02945 0.000124721 0)
(1.02979 7.1056e-05 6.34551e-28)
(1.02968 0.000106144 0)
(1.02998 -1.8385e-05 -1.12786e-24)
(1.02989 2.7798e-05 0)
(1.03014 -8.65325e-05 0)
(1.03007 -5.75674e-05 0)
(1.03027 -0.000104772 0)
(1.03021 -0.000102524 0)
(1.03037 -8.88171e-05 -2.69362e-22)
(1.03032 -0.000102563 0)
(1.03045 -5.12301e-05 6.65358e-22)
(1.03041 -7.26863e-05 -1.31978e-22)
(1.03051 -4.31206e-05 -1.07751e-21)
(1.03048 -4.17107e-05 3.25828e-23)
(1.0304 -0.000145711 1.27787e-22)
(1.03049 -7.02513e-05 -1.26726e-22)
(1.03045 -0.000107156 0)
(1.03035 -0.000265643 0)
(1.03036 -0.00019768 0)
(1.03041 -0.000386401 6.18765e-23)
(1.03037 -0.000335813 -2.51124e-22)
(1.03051 -0.000467639 -3.19442e-22)
(1.03046 -0.000428845 4.97168e-22)
(1.03041 -0.000541196 2.05321e-24)
(1.03045 -0.000544064 5.61106e-22)
(1.03031 -0.000550779 -1.28508e-28)
(1.03036 -0.000543904 0)
(1.03019 -0.000567971 4.31549e-24)
(1.03025 -0.000556913 0)
(1.03004 -0.00061237 1.08312e-28)
(1.03012 -0.000585514 0)
(1.02986 -0.000701838 0)
(1.02995 -0.000652839 0)
(1.02966 -0.000799606 1.72846e-29)
(1.02976 -0.000753576 0)
(1.02946 -0.000851037 0)
(1.02956 -0.000833126 0)
(1.02923 -0.000857488 0)
(1.02934 -0.000856435 0)
(1.02897 -0.000886215 0)
(1.0291 -0.000864678 0)
(1.02872 -0.000979179 0)
(1.02885 -0.000925275 0)
(1.02848 -0.00111069 0)
(1.0286 -0.00104267 0)
(1.02823 -0.00125395 2.78153e-24)
(1.02835 -0.00118121 0)
(1.02794 -0.00140509 0)
(1.02809 -0.00132907 0)
(1.02761 -0.00155267 2.9285e-24)
(1.02779 -0.00148015 0)
(1.02721 -0.00169135 0)
(1.02742 -0.00162282 0)
(1.02673 -0.00182815 3.08005e-24)
(1.02698 -0.00175952 0)
(1.02618 -0.0019732 0)
(1.02647 -0.00189875 0)
(1.02557 -0.00213761 -8.35119e-28)
(1.02588 -0.00205316 0)
(1.0249 -0.00231565 0)
(1.02524 -0.00222518 0)
(1.02417 -0.00251159 -1.32086e-24)
(1.02454 -0.0024105 0)
(1.02337 -0.00273634 6.87661e-22)
(1.02378 -0.00262081 3.35727e-22)
(1.02295 -0.00285426 -5.80025e-22)
(1.02145 -0.00271829 -1.94732e-21)
(1.02156 -0.00322518 -2.02696e-21)
(1.03053 -4.51362e-05 0)
(1.02132 0.00120169 3.18802e-21)
(1.02139 0.00171772 -1.01472e-21)
(1.02221 -0.000286388 -1.04018e-21)
(1.02224 -0.00111086 -2.36466e-22)
(1.03055 -0.000502512 5.01376e-22)
(1.02175 0.000201717 0)
(1.02181 -0.00162592 0)
(1.02128 0.00072972 1.05911e-21)
(1.02138 -0.00221602 0)
(1.02104 -0.00336906 0)
(1.02093 -0.00285118 1.96814e-21)
(1.02081 0.00133461 -3.72257e-21)
(1.03053 -2.70864e-05 2.07957e-21)
(1.03055 -3.64952e-05 -6.39507e-22)
(1.02089 0.00186764 9.34905e-24)
(1.02222 -0.000686367 -2.41599e-22)
(1.02199 0.00206782 9.79467e-22)
(1.02098 0.00237267 5.07609e-22)
(1.0215 0.00221427 -1.00458e-21)
(1.0229 0.00182179 -2.75533e-24)
(1.02245 0.0019409 2.3641e-22)
(1.02373 0.00161328 1.73045e-24)
(1.02332 0.00171333 -2.28672e-22)
(1.02449 0.00144023 0)
(1.02412 0.00152488 0)
(1.02519 0.00128118 0)
(1.02485 0.0013582 0)
(1.02583 0.0011353 0)
(1.02552 0.00120714 0)
(1.0264 0.00100378 -3.10798e-24)
(1.02612 0.00106698 0)
(1.02689 0.000882851 0)
(1.02666 0.000943371 0)
(1.02732 0.000759037 0)
(1.02711 0.000821406 0)
(1.02767 0.000630935 0)
(1.0275 0.000695683 0)
(1.02797 0.000500445 1.40452e-24)
(1.02782 0.000565295 0)
(1.02824 0.000384035 -1.36851e-24)
(1.02811 0.000439261 0)
(1.02851 0.000295482 0)
(1.02837 0.000336092 0)
(1.02879 0.00023891 0)
(1.02865 0.000262674 0)
(1.02909 0.000224791 0)
(1.02894 0.000226182 0)
(1.02936 0.000241608 0)
(1.02923 0.000232092 0)
(1.0296 0.000235935 -7.61142e-28)
(1.02949 0.000245337 0)
(1.0298 0.000170099 7.27235e-28)
(1.0297 0.000210539 0)
(1.02998 6.99727e-05 1.12649e-24)
(1.02989 0.000121071 0)
(1.03015 -1.15993e-05 0)
(1.03007 2.42073e-05 0)
(1.03028 -4.78893e-05 0)
(1.03022 -3.54143e-05 0)
(1.03039 -5.07501e-05 2.05571e-24)
(1.03034 -5.16782e-05 0)
(1.03046 -3.58262e-05 8.10146e-24)
(1.03043 -4.66596e-05 0)
(1.0305 -3.14862e-05 2.52507e-22)
(1.03051 -8.72743e-05 1.258e-22)
(1.03058 -4.76452e-05 -1.25479e-22)
(1.03055 -6.02769e-05 0)
(1.03043 -0.000155389 0)
(1.03047 -0.000118233 1.22199e-22)
(1.03039 -0.000260643 0)
(1.0304 -0.000207092 0)
(1.03045 -0.000369061 -3.67295e-22)
(1.03042 -0.000321105 0)
(1.03054 -0.000446418 -5.56293e-22)
(1.0305 -0.000408027 2.78733e-22)
(1.03058 -0.000478059 6.59662e-23)
(1.03053 -0.000557759 6.55182e-23)
(1.03059 -0.000525005 -1.99022e-26)
(1.03056 -0.000543637 -5.14778e-22)
(1.03046 -0.000576152 -1.39243e-28)
(1.03049 -0.000566365 -6.48636e-23)
(1.03037 -0.000600531 -1.71917e-28)
(1.03042 -0.000589232 0)
(1.03026 -0.000633696 -1.36569e-28)
(1.03032 -0.0006146 0)
(1.03011 -0.000695813 -6.80302e-29)
(1.03019 -0.000660217 0)
(1.02994 -0.000795101 0)
(1.03003 -0.000741952 0)
(1.02975 -0.000899666 1.65497e-28)
(1.02984 -0.000850036 0)
(1.02954 -0.000963575 2.42808e-24)
(1.02965 -0.000938378 0)
(1.02929 -0.000986889 0)
(1.02942 -0.000977604 0)
(1.02901 -0.00102337 0)
(1.02915 -0.000999849 0)
(1.02871 -0.00111066 0)
(1.02886 -0.0010607 0)
(1.02844 -0.00123561 2.70899e-24)
(1.02857 -0.00117008 0)
(1.02818 -0.00138149 -2.78153e-24)
(1.02831 -0.00130611 0)
(1.02791 -0.0015469 0)
(1.02805 -0.00146211 0)
(1.02762 -0.00172285 -2.9285e-24)
(1.02777 -0.00163439 0)
(1.02726 -0.00190047 0)
(1.02745 -0.00181167 0)
(1.02682 -0.00207845 3.07879e-24)
(1.02705 -0.00198943 0)
(1.0263 -0.00225912 0)
(1.02657 -0.00216808 0)
(1.0257 -0.00245052 -6.47e-24)
(1.02601 -0.002353 0)
(1.02504 -0.00266097 0)
(1.02538 -0.00255297 0)
(1.02431 -0.00289573 -3.39546e-24)
(1.02468 -0.00277515 0)
(1.02352 -0.00315135 2.3056e-22)
(1.02392 -0.00301861 2.2484e-22)
(1.02264 -0.00344351 8.69436e-22)
(1.02309 -0.00329056 -1.39679e-21)
(1.02168 -0.0037508 1.89552e-21)
(1.02217 -0.00359256 -1.88852e-21)
(1.0205 -0.00352226 1.87288e-21)
(1.02063 -0.00412547 0)
(1.02117 -0.00392646 0)
(1.02035 0.00196723 -2.75764e-21)
(1.02047 0.00250131 1.55044e-21)
(1.02173 -0.000238017 9.98254e-22)
(1.02176 -0.00115037 0)
(1.02006 -0.00432826 0)
(1.01992 -0.00369765 -1.97441e-21)
(1.02125 0.000264695 6.33784e-24)
(1.02131 -0.00170986 -2.39988e-22)
(1.02076 0.000829905 1.06083e-21)
(1.02085 -0.00232193 -3.04113e-23)
(1.03059 -5.96374e-05 3.74229e-22)
(1.0306 -2.72911e-05 3.18737e-23)
(1.03061 -4.27523e-05 0)
(1.02027 0.00144318 1.08517e-21)
(1.02038 -0.0029925 1.2382e-22)
(1.01979 0.00216532 -1.08776e-21)
(1.03061 -0.000496399 7.63476e-26)
(1.01992 0.00272718 0)
(1.02173 -0.000679679 2.84856e-24)
(1.02114 0.0028825 7.43189e-22)
(1.02008 0.00329496 0)
(1.02062 0.00306493 -1.53572e-21)
(1.02212 0.00255273 -2.37166e-22)
(1.02164 0.00270981 2.42303e-22)
(1.02303 0.00226961 0)
(1.02259 0.00240454 0)
(1.02385 0.00202758 -1.71182e-24)
(1.02345 0.00214659 0)
(1.02461 0.00180568 -1.66923e-24)
(1.02424 0.00191317 0)
(1.0253 0.00160947 0)
(1.02497 0.00170455 0)
(1.02592 0.00143177 0)
(1.02562 0.0015191 0)
(1.02646 0.00126417 1.52201e-27)
(1.0262 0.00134685 0)
(1.02693 0.00110308 0)
(1.0267 0.00118328 0)
(1.02732 0.000943732 0)
(1.02713 0.00102321 0)
(1.02765 0.000787577 0)
(1.02749 0.00086508 0)
(1.02795 0.000641419 -1.40452e-24)
(1.0278 0.000712415 0)
(1.02824 0.000521823 1.36851e-24)
(1.0281 0.000577255 0)
(1.02854 0.000439383 1.33188e-24)
(1.02839 0.000476059 0)
(1.02885 0.000390561 0)
(1.02869 0.000411083 0)
(1.02915 0.000371709 0)
(1.029 0.000377761 0)
(1.02942 0.000367322 0)
(1.02929 0.000369834 0)
(1.02964 0.000338529 -8.37863e-28)
(1.02954 0.000358538 0)
(1.02982 0.00026032 8.03796e-28)
(1.02973 0.000305385 0)
(1.02999 0.000154407 -1.12649e-24)
(1.02991 0.000208095 0)
(1.03015 6.42369e-05 -2.18482e-24)
(1.03007 0.000105109 0)
(1.03028 1.32412e-05 0)
(1.03022 3.37185e-05 0)
(1.03039 -5.39571e-06 -2.0531e-24)
(1.03034 1.25017e-06 0)
(1.03047 -8.72836e-06 1.2913e-22)
(1.03043 -8.0496e-06 0)
(1.03054 -7.45257e-06 -1.54285e-21)
(1.03051 -9.5945e-06 -3.21143e-22)
(1.03057 -1.38195e-05 4.81759e-22)
(1.03054 -0.000101605 0)
(1.03057 -8.18392e-05 0)
(1.03047 -0.000171318 0)
(1.0305 -0.000133792 -1.21227e-22)
(1.03044 -0.000255923 0)
(1.03045 -0.000212681 0)
(1.03049 -0.000348887 1.79481e-22)
(1.03046 -0.000304222 0)
(1.03056 -0.000422779 1.84595e-22)
(1.03053 -0.000387784 -1.51131e-22)
(1.03062 -0.000543943 -1.0096e-21)
(1.03065 -0.000520636 4.93592e-22)
(1.03063 -0.000471838 -4.8945e-22)
(1.0306 -0.00045087 -1.85127e-22)
(1.03056 -0.000577092 1.99051e-24)
(1.03059 -0.000564632 2.56624e-22)
(1.03049 -0.000611994 -4.0517e-24)
(1.03053 -0.000592199 0)
(1.03041 -0.000648614 -2.81519e-28)
(1.03046 -0.000629777 0)
(1.0303 -0.000696679 -2.59741e-28)
(1.03036 -0.000670039 0)
(1.03017 -0.000773189 -2.22424e-24)
(1.03024 -0.000730628 0)
(1.03001 -0.000881365 0)
(1.03009 -0.000824317 0)
(1.02984 -0.00099496 3.13627e-28)
(1.02992 -0.000940096 0)
(1.02964 -0.00107739 -2.42808e-24)
(1.02974 -0.00104148 0)
(1.02939 -0.00112571 2.49687e-24)
(1.02952 -0.00110402 0)
(1.02909 -0.00117732 0)
(1.02924 -0.00114845 0)
(1.02876 -0.00126191 0)
(1.02893 -0.00121519 0)
(1.02845 -0.001376 -5.73646e-28)
(1.02861 -0.00131605 0)
(1.02816 -0.00151386 0)
(1.02831 -0.00144171 0)
(1.02789 -0.00168087 0)
(1.02803 -0.00159359 0)
(1.0276 -0.00187519 0)
(1.02775 -0.0017752 0)
(1.02728 -0.00208744 0)
(1.02745 -0.00197977 0)
(1.02688 -0.0023078 -3.07879e-24)
(1.02709 -0.00219718 0)
(1.0264 -0.00253092 0)
(1.02665 -0.00241904 0)
(1.02584 -0.00276011 6.46733e-24)
(1.02613 -0.00264432 0)
(1.0252 -0.00300572 0)
(1.02553 -0.00288008 0)
(1.02447 -0.00328058 3.39607e-24)
(1.02484 -0.00313898 0)
(1.02368 -0.00358611 0)
(1.02409 -0.00343015 0)
(1.02281 -0.00392561 1.15013e-22)
(1.02326 -0.00374881 -1.14822e-22)
(1.02186 -0.00431432 -3.52392e-22)
(1.02234 -0.00411697 4.59059e-22)
(1.02082 -0.00473501 9.6563e-22)
(1.02135 -0.00451259 -9.72725e-22)
(1.01948 -0.00455659 2.04762e-21)
(1.01969 -0.00520973 -2.04692e-21)
(1.02026 -0.00495714 0)