/*--------------------------------*- C++ -*----------------------------------*\
  =========                 |
  \\      /  F ield         | OpenFOAM: The Open Source CFD Toolbox
   \\    /   O peration     | Website:  https://openfoam.org
    \\  /    A nd           | Version:  10
     \\/     M anipulation  |
\*---------------------------------------------------------------------------*/
FoamFile
{
    format      ascii;
    class       volVectorField;
    location    "29.5";
    object      U;
}
// * * * * * * * * * * * * * * * * * * * * * * * * * * * * * * * * * * * * * //

dimensions      [0 1 -1 0 0 0 0];

internalField   nonuniform List<vector> 
28942
(
(0.00456242 -0.00232264 -3.2262e-22)
(0.00617504 -0.0024145 -5.88761e-23)
(0.0180831 -0.012481 -8.85843e-22)
(0.103304 0.0182422 -5.45173e-21)
(0.102341 0.0222836 1.78322e-21)
(0.0202566 0.000702112 0)
(0.0241201 0.000287679 1.74911e-23)
(0.0278108 0.000904063 -1.55833e-23)
(0.135182 -0.0171124 -2.86332e-22)
(0.133765 -0.0154803 8.12587e-22)
(0.0102879 0.00428977 -6.12114e-22)
(0.0167607 0.00598323 2.25313e-22)
(0.00747279 0.00333705 0)
(0.00496234 0.00220264 0)
(0.0603445 0.00241926 -2.27124e-23)
(0.0581772 0.00324295 -8.09174e-24)
(0.0893707 0.0158628 6.88345e-22)
(0.0870568 0.0138436 1.10674e-21)
(0.0122029 -0.0151536 3.06063e-21)
(0.0294297 -0.0305479 -8.06094e-22)
(0.0982889 0.0372594 9.86873e-22)
(0.0974433 0.0343063 0)
(0.0192414 0.00486323 1.12652e-21)
(0.00810392 0.00247526 5.25641e-22)
(0.0385106 0.00751245 8.99187e-22)
(0.0584411 0.00318604 -8.1973e-22)
(0.00766392 -0.0184986 8.70543e-21)
(0.00670655 -0.0165609 -3.2021e-21)
(0.0357046 -0.0254286 6.14484e-22)
(0.0194009 -0.0137423 2.13091e-22)
(0.0207309 -0.00195629 0)
(0.0259226 -0.00180966 -1.97048e-23)
(0.0326259 0.0055109 4.09868e-22)
(0.0462405 0.00223735 -7.25593e-23)
(0.0188998 0.0180702 1.36423e-21)
(0.0157776 0.0191813 -1.37335e-21)
(0.0322847 0.0377303 -3.14072e-21)
(0.0187305 0.0306309 -1.09108e-21)
(0.0112612 0.000126644 -1.4543e-23)
(0.00867878 0.0162491 -2.67939e-21)
(0.0306463 -0.00620344 0)
(0.0513387 -0.0109702 0)
(0.110233 -0.0182595 -3.93398e-23)
(0.109807 -0.0179391 1.17434e-22)
(0.112444 -0.0179632 1.00882e-22)
(0.0388381 0.000424254 1.76003e-23)
(0.0362075 -0.000541185 -2.88872e-23)
(0.0509197 -0.000521045 -1.24314e-22)
(0.0488982 -0.000581747 3.51072e-23)
(0.0401396 -0.00337775 -3.02506e-22)
(0.0303189 -0.00421769 1.94091e-22)
(0.127437 0.00245956 -4.6113e-22)
(0.126868 0.00197799 -4.25583e-22)
(0.134576 -0.0199848 -3.88007e-24)
(0.132957 -0.0182638 1.53924e-22)
(0.0842693 0.00719629 6.76377e-22)
(0.103633 0.000143967 2.22006e-22)
(0.003211 0.00170922 -5.32391e-22)
(0.00930937 0.00386833 0)
(0.00856506 0.00344416 2.2663e-22)
(0.00301913 0.00156613 4.58685e-22)
(0.000393902 0.000246301 -3.82838e-22)
(0.000217003 0.000137399 -3.64626e-22)
(0.11069 -0.0425586 0)
(0.106033 -0.0254444 1.10885e-22)
(0.122865 -0.0327315 -3.45975e-23)
(0.124289 -0.0434643 0)
(0.0902231 -0.032685 -6.58648e-22)
(0.0937378 -0.0351303 -4.33543e-22)
(0.00194451 -0.00116082 1.06535e-21)
(0.00257029 -0.0020727 -3.3599e-22)
(0.0050208 -0.003243 8.33705e-22)
(0.0850558 -0.0456618 0)
(0.0913596 -0.0394938 2.23915e-21)
(0.0807554 -0.0529634 6.05979e-22)
(0.115633 0.0117881 2.00857e-22)
(0.114419 0.00611378 -2.24251e-22)
(0.126667 0.0100248 -7.544e-23)
(0.00472175 -0.00288459 -5.7187e-23)
(0.00639092 -0.00446068 4.94851e-22)
(0.0514143 -0.0313121 1.43016e-22)
(0.03345 -0.02069 -2.68626e-22)
(0.00217432 -0.000627732 3.13747e-21)
(0.00528111 -0.00214034 -1.22366e-21)
(0.101728 0.0482923 2.44094e-23)
(0.0976327 0.0552851 -8.10112e-22)
(0.0811832 0.0541494 7.4288e-22)
(0.0474774 0.0346549 -2.82552e-21)
(0.0447046 0.0317544 2.0016e-21)
(0.0296631 0.020697 -1.21379e-22)
(0.0328933 0.0233563 -6.70896e-22)
(0.0381564 0.028478 9.11382e-22)
(0.00469929 0.00301302 -4.87618e-23)
(0.00825327 0.0043621 -1.45849e-23)
(0.00339417 0.00217648 2.92266e-23)
(0.00205079 0.00178779 -3.84981e-22)
(0.00155071 0.00172726 4.6809e-22)
(0.0158221 0.0115962 -3.41217e-21)
(0.0175788 0.0136921 7.84331e-22)
(0.00898318 -0.00394351 0)
(0.101389 0.00516081 0)
(0.0983999 0.0156859 -4.07229e-21)
(0.060435 0.0104758 2.03563e-21)
(0.0886733 0.0178828 0)
(0.136336 -0.00392031 0)
(0.135766 -0.0047562 0)
(0.134363 -0.00519645 -3.75383e-22)
(0.11507 0.0261649 -2.24238e-22)
(0.114177 0.0276007 2.21104e-21)
(0.113354 0.0250695 1.18637e-21)
(0.00242513 0.00137743 9.8441e-22)
(0.00161183 0.000830692 -1.1049e-21)
(0.0195883 -0.00574267 -5.13402e-22)
(0.020795 -0.00531196 4.31284e-22)
(0.00941328 -0.00304013 8.47537e-22)
(0.00649199 0.0111916 1.50853e-21)
(0.0190098 0.0182248 3.53138e-21)
(0.0135027 0.0228749 2.73003e-22)
(0.00493433 0.0143536 -8.80413e-21)
(0.117793 0.0476124 6.08771e-23)
(0.108404 0.0581599 1.1411e-21)
(0.118944 0.0546932 -1.96865e-21)
(0.039273 -0.0295206 7.64929e-22)
(0.0241182 -0.0173318 -4.9591e-22)
(0.00532777 -0.000721643 -4.18672e-21)
(0.00454378 -0.00357746 0)
(0.0125148 -0.0016435 2.0482e-21)
(0.0220544 -0.0161879 8.09014e-22)
(0.0343949 -0.0278715 -2.04328e-21)
(0.0483345 4.95402e-05 8.87797e-23)
(0.0512151 0.000217339 -6.1399e-23)
(0.0455317 0.000268468 -2.72713e-24)
(0.028145 -0.0420321 0)
(0.0296921 -0.0428981 0)
(0.0896124 -0.0186571 -4.86688e-22)
(0.0995797 -0.0220964 3.29426e-21)
(0.0870303 -0.02528 0)
(0.0473059 -0.040288 0)
(0.0583974 -0.0514657 -8.16025e-22)
(0.0414762 0.0394573 2.14626e-21)
(4.9992e-06 0.000227249 4.55496e-22)
(-0.000197324 0.000136948 -2.92461e-22)
(0.0224069 -0.0192999 -8.23847e-22)
(0.115093 -0.0177251 5.74945e-22)
(0.114491 -0.0175124 -1.09107e-22)
(0.117282 -0.00459415 -5.54285e-23)
(0.110418 0.00227729 7.38668e-23)
(0.119598 0.00115441 1.19289e-22)
(9.66265e-05 0.000271985 1.79388e-22)
(0.0439656 0.0345469 3.33275e-21)
(0.0622055 0.0464554 -8.22055e-22)
(0.0596913 0.0395312 -3.23653e-24)
(0.0320597 -0.00115326 7.90022e-24)
(0.0316023 -0.0012048 4.31298e-23)
(0.0341989 -0.00109957 2.19166e-24)
(0.0380696 -0.000932347 -2.13054e-23)
(0.0456264 0.0382146 1.34828e-22)
(0.0190441 0.0161179 0)
(0.00012411 9.33735e-06 3.17621e-22)
(0.000416064 -0.000238939 -3.52525e-22)
(0.00192057 -0.00101623 2.40532e-22)
(0.0372316 -0.00799561 -1.78598e-21)
(0.0658843 -0.00239285 -7.19953e-22)
(0.0439104 -0.000517206 -2.24747e-24)
(0.0753788 -0.0075161 2.64866e-22)
(0.0714633 -0.0157404 2.60738e-23)
(0.0944855 0.0398152 2.21811e-21)
(0.0916173 0.0453733 9.90664e-23)
(0.0888563 0.0290344 1.25455e-21)
(0.0915885 0.0307357 -9.09159e-22)
(0.0988938 0.0409411 0)
(0.125229 -0.00136532 1.67392e-22)
(0.125905 -0.00182072 3.19229e-22)
(0.127793 -0.0111741 -3.27151e-22)
(0.129232 -0.010902 5.61385e-22)
(0.117118 0.0236208 2.76677e-22)
(0.119188 0.0244652 -7.84352e-22)
(0.117191 0.0256525 0)
(0.11521 0.0244385 1.62106e-22)
(0.116788 0.0276051 0)
(0.11739 0.0356689 -5.82889e-22)
(0.115945 0.0377642 -3.16793e-22)
(0.111592 0.0416699 -5.67177e-22)
(0.113977 0.0397561 0)
(0.116724 0.0427091 1.88722e-21)
(0.114006 0.044684 4.73543e-23)
(0.108596 0.043929 -3.17155e-22)
(0.099913 0.0501473 -1.34187e-21)
(0.0986509 0.0453591 -2.36068e-22)
(0.0266532 -0.00940438 2.56171e-23)
(0.0349183 -0.0105048 -1.04099e-23)
(0.0065226 -0.00258074 -6.34847e-22)
(0.0432455 -2.32032e-06 -5.89856e-23)
(0.0545709 -0.000295781 0)
(-1.29134e-05 -3.41643e-05 3.77551e-22)
(6.27501e-06 -4.47586e-05 1.93824e-22)
(0.0496306 -0.00223119 2.63497e-23)
(0.0579527 -0.00215976 1.00047e-23)
(0.0573832 -0.00143854 0)
(0.0481081 -0.000922637 1.14822e-23)
(0.107859 0.00177226 -1.41467e-22)
(0.107763 0.00158369 6.75023e-22)
(0.108046 0.00160733 3.24083e-22)
(0.000727267 0.000296972 3.6118e-22)
(-0.000157671 -0.000130743 -5.31682e-22)
(-0.000203864 -0.000176212 4.46159e-22)
(0.00157714 0.000661564 0)
(9.56882e-05 0.000100124 1.10166e-21)
(0.00019199 -2.96688e-05 -7.83555e-22)
(0.00765901 0.00378134 -9.58498e-22)
(0.0015145 0.000815415 -1.15815e-21)
(0.00178209 0.000892777 0)
(0.0015761 0.00756945 0)
(0.000578625 0.00329205 0)
(0.000314154 0.00198358 0)
(0.137202 -0.00404583 7.79394e-23)
(0.137927 -0.00394087 0)
(0.136588 -0.00495775 -9.0183e-23)
(0.0881568 -0.0148 4.55662e-21)
(0.0901614 -0.0152058 -1.65429e-21)
(0.0890741 -0.0128301 0)
(0.111966 3.33328e-05 -7.97683e-24)
(0.112058 3.02302e-05 1.59662e-23)
(0.111869 3.73386e-05 -5.40317e-24)
(0.112145 2.7701e-05 0)
(0.112227 2.63317e-05 -1.01662e-23)
(0.112303 2.41329e-05 0)
(0.112302 -5.61789e-05 0)
(0.112376 2.04138e-05 3.76625e-23)
(0.112373 -5.66868e-05 0)
(0.112227 -5.77012e-05 -1.02329e-23)
(0.112145 -5.99768e-05 0)
(0.112058 -6.24919e-05 5.3418e-24)
(0.111966 -6.56609e-05 -7.97779e-24)
(0.111869 -6.87308e-05 5.39641e-24)
(0.112443 1.69395e-05 -3.60399e-23)
(0.112441 -5.62355e-05 -1.26082e-24)
(0.111765 4.18621e-05 8.35611e-28)
(0.111764 -7.09794e-05 -8.26262e-24)
(0.111653 4.66335e-05 4.39971e-23)
(0.112505 1.4734e-05 3.36687e-26)
(0.112505 -5.44337e-05 -1.2604e-24)
(0.111653 -7.43527e-05 1.62987e-23)
(0.112565 1.24073e-05 3.38835e-23)
(0.112622 1.0397e-05 -3.38556e-23)
(0.112565 -5.28192e-05 2.53942e-24)
(0.112622 -5.11511e-05 5.01478e-24)
(0.111538 5.45755e-05 -4.28071e-23)
(0.111537 -7.83626e-05 -1.07314e-23)
(0.112675 8.32413e-06 0)
(0.112676 -4.97002e-05 -4.94625e-24)
(0.111413 6.05528e-05 5.30258e-27)
(0.111412 -8.13064e-05 -5.31587e-27)
(0.112726 6.56352e-06 0)
(0.112726 -4.81854e-05 0)
(0.11128 6.62578e-05 0)
(0.111279 -8.51003e-05 0)
(0.112773 4.74588e-06 0)
(0.112774 -4.68498e-05 2.37439e-24)
(0.111138 7.25052e-05 -2.2319e-23)
(0.111137 -8.87841e-05 -5.44319e-27)
(0.112818 3.23545e-06 1.24452e-25)
(0.112819 -4.53977e-05 -2.53583e-24)
(0.110987 7.8909e-05 2.24257e-23)
(0.110985 -9.29993e-05 0)
(0.11286 1.64925e-06 0)
(0.112861 -4.40715e-05 0)
(0.110825 8.6116e-05 -1.42219e-24)
(0.110824 -9.69054e-05 2.44251e-23)
(0.1129 2.26267e-07 1.53849e-23)
(0.112901 -4.26317e-05 0)
(0.110653 9.31841e-05 -1.41015e-25)
(0.110652 -0.000101423 -2.31188e-23)
(0.112938 -1.36599e-06 -2.30122e-23)
(0.112939 -4.13989e-05 -6.67918e-24)
(0.110467 9.83638e-05 2.36122e-23)
(0.110466 -0.000106137 0)
(0.112974 -2.80848e-06 7.57976e-24)
(0.112975 -3.99408e-05 4.45447e-24)
(0.110269 0.000105984 -1.19805e-23)
(0.110268 -0.000112317 2.42978e-23)
(0.113007 -4.06179e-06 -3.02844e-23)
(0.113009 -3.77937e-05 3.41333e-23)
(0.11005 0.000109053 1.2381e-23)
(0.110052 -0.000119803 3.92267e-25)
(0.11304 -5.19471e-06 0)
(0.113041 -3.61371e-05 1.62747e-23)
(0.109816 0.000113227 -2.49581e-23)
(0.109819 -0.000130273 4.99345e-23)
(0.113072 -6.12693e-06 0)
(0.113072 -3.54282e-05 0)
(0.110065 0.000336119 -1.2251e-23)
(0.109831 0.000356475 -4.972e-23)
(0.109561 0.000115723 0)
(0.109567 -0.000145313 -2.55012e-23)
(0.110481 0.000296881 -7.67092e-24)
(0.11028 0.000316529 1.50686e-24)
(0.110838 0.000258705 0)
(0.110664 0.000277587 -2.47082e-23)
(0.111149 0.000224429 -4.74808e-26)
(0.110999 0.000241034 0)
(0.111423 0.000194098 0)
(0.111291 0.000208816 0)
(0.111666 0.00016584 0)
(0.111548 0.000179953 0)
(0.111876 0.000142672 1.06679e-23)
(0.111773 0.000153915 2.69256e-24)
(0.112064 0.000123565 -1.02772e-23)
(0.111974 0.00013268 -1.066e-23)
(0.112231 0.000107348 1.82124e-23)
(0.11215 0.000114319 2.33094e-23)
(0.112379 9.34098e-05 0)
(0.112307 0.000100609 0)
(0.11251 8.03597e-05 -7.98799e-26)
(0.112447 8.67061e-05 0)
(0.112626 6.87696e-05 0)
(0.11257 7.43775e-05 0)
(0.112729 5.85299e-05 0)
(0.112679 6.34898e-05 0)
(0.112821 4.94313e-05 0)
(0.112776 5.38521e-05 0)
(0.112903 4.13371e-05 0)
(0.112863 4.52574e-05 0)
(0.112976 3.41529e-05 0)
(0.112941 3.76384e-05 0)
(0.113043 2.65341e-05 -1.2383e-23)
(0.11301 3.08345e-05 0)
(0.113074 2.30194e-05 -4.00325e-24)
(0.113102 -7.44727e-06 3.90566e-24)
(0.113102 -3.4766e-05 -3.87316e-24)
(0.113011 -7.05229e-05 0)
(0.113074 -6.44218e-05 -1.58939e-23)
(0.113043 -6.71362e-05 -8.17914e-24)
(0.112941 -7.7946e-05 2.2385e-24)
(0.112977 -7.41535e-05 -8.76615e-24)
(0.112864 -8.52783e-05 7.25429e-26)
(0.112903 -8.17284e-05 0)
(0.112777 -9.27801e-05 0)
(0.112821 -8.89221e-05 0)
(0.112679 -0.0001013 0)
(0.112729 -9.69018e-05 0)
(0.112569 -0.000110987 0)
(0.112626 -0.000105983 9.5596e-30)
(0.112446 -0.000122069 8.07661e-26)
(0.112509 -0.000116327 0)
(0.112307 -0.000134349 0)
(0.112378 -0.000128266 0)
(0.11215 -0.000147305 0)
(0.112231 -0.000140718 0)
(0.111973 -0.00016299 0)
(0.112064 -0.000154403 -5.39617e-24)
(0.111772 -0.000182074 1.42334e-24)
(0.111875 -0.000173119 -6.97302e-24)
(0.111546 -0.000204862 0)
(0.111663 -0.000192353 -5.68199e-24)
(0.111288 -0.000229433 0)
(0.111421 -0.00021683 0)
(0.110995 -0.000257305 0)
(0.111147 -0.000242889 0)
(0.110661 -0.00028912 0)
(0.110834 -0.00027273 0)
(0.110279 -0.000325194 -6.27041e-24)
(0.110477 -0.000306025 0)
(0.109839 -0.000371029 -2.55518e-23)
(0.110067 -0.000345691 -6.32021e-24)
(0.10959 -0.000400205 2.60702e-23)
(0.109578 0.000378809 4.93437e-23)
(0.113103 2.00942e-05 7.83414e-24)
(0.113103 -6.19335e-05 -1.53115e-23)
(0.109293 -0.000165059 0)
(0.109322 -0.000436351 0)
(0.109306 0.000402938 0)
(0.109286 0.000115876 0)
(0.110096 0.000559641 0)
(0.10962 0.000640161 1.23469e-23)
(0.109867 0.000597866 1.24406e-23)
(0.110507 0.000488244 1.5759e-23)
(0.110309 0.000523159 -3.15145e-24)
(0.110861 0.0004246 4.85616e-26)
(0.11069 0.000455224 0)
(0.11117 0.000369729 0)
(0.11102 0.000396206 0)
(0.111441 0.000322023 0)
(0.11131 0.000345048 0)
(0.111681 0.000280804 0)
(0.111565 0.000300553 0)
(0.111891 0.000244368 0)
(0.111789 0.000262159 0)
(0.112077 0.00021367 -4.30783e-26)
(0.111986 0.000228896 1.11184e-23)
(0.112241 0.000186636 -4.13067e-26)
(0.112162 0.000199211 -2.16799e-23)
(0.112388 0.000162489 0)
(0.112316 0.000174102 0)
(0.112518 0.00014156 3.99009e-26)
(0.112455 0.000151681 0)
(0.112633 0.000123196 0)
(0.112577 0.000132083 0)
(0.112735 0.000106991 0)
(0.112685 0.000114841 0)
(0.112826 9.26557e-05 0)
(0.112782 9.96042e-05 0)
(0.112908 7.99533e-05 0)
(0.112868 8.61095e-05 0)
(0.112981 6.85714e-05 0)
(0.112945 7.41271e-05 0)
(0.113046 5.72451e-05 8.45774e-24)
(0.113014 6.29498e-05 0)
(0.11313 -8.69367e-06 0)
(0.113131 1.75591e-05 7.6655e-24)
(0.113106 4.70498e-05 0)
(0.113077 5.18834e-05 8.24425e-24)
(0.113077 -9.37186e-05 1.64113e-23)
(0.113106 -8.95636e-05 4.0336e-24)
(0.113131 -5.98851e-05 3.14562e-23)
(0.11313 -3.38218e-05 0)
(0.113015 -0.000103769 0)
(0.113047 -9.84505e-05 -2.47729e-23)
(0.112946 -0.000114716 7.05289e-26)
(0.112981 -0.000109047 8.81947e-24)
(0.112868 -0.000125974 -7.25426e-26)
(0.112908 -0.000120233 0)
(0.112782 -0.000138439 0)
(0.112827 -0.00013202 0)
(0.112685 -0.000152588 0)
(0.112735 -0.000145287 0)
(0.112576 -0.000168689 0)
(0.112632 -0.000160378 -9.55957e-30)
(0.112454 -0.000187014 -1.61498e-25)
(0.112517 -0.000177558 0)
(0.112316 -0.000207983 0)
(0.112387 -0.00019714 0)
(0.11216 -0.000231666 2.72352e-24)
(0.112241 -0.00021942 0)
(0.111985 -0.000258245 0)
(0.112075 -0.000244151 -2.71215e-24)
(0.111787 -0.000289578 5.69304e-24)
(0.111888 -0.000273628 5.65002e-24)
(0.111561 -0.000325148 0)
(0.111678 -0.000306824 0)
(0.111306 -0.000365862 0)
(0.111438 -0.000344808 0)
(0.111016 -0.000412696 0)
(0.111165 -0.000388447 0)
(0.110684 -0.000466792 0)
(0.110855 -0.00043877 0)
(0.110306 -0.000529453 1.00601e-25)
(0.110502 -0.000496925 0)
(0.109872 -0.000602686 -1.02452e-25)
(0.110097 -0.000564605 0)
(0.109369 -0.000698 -2.68838e-23)
(0.10963 -0.000647736 2.68714e-23)
(0.109355 0.00068572 2.52117e-23)
(0.109034 -0.000479017 0)
(0.109086 -0.000757427 -5.49682e-23)
(0.109 -0.000187613 0)
(0.113134 4.33515e-05 0)
(0.113134 -8.55991e-05 -3.91525e-24)
(0.109014 0.000429413 6.41176e-23)
(0.10907 0.000735443 2.56707e-23)
(0.108722 -0.000525747 1.39043e-23)
(0.108782 -0.000823721 6.94794e-23)
(0.108989 0.000116061 0)
(0.11311 7.51636e-05 3.22732e-23)
(0.113137 6.92561e-05 -1.59445e-23)
(0.113158 -5.7969e-05 -7.75205e-24)
(0.11316 -8.17275e-05 3.85528e-23)
(0.109156 0.0010333 8.97439e-23)
(0.10876 0.000790473 -5.05057e-23)
(0.108523 0.00120076 -2.28843e-22)
(0.108851 0.00111094 -5.12861e-23)
(0.109686 0.000895966 2.48895e-23)
(0.10943 0.000962308 -7.62872e-23)
(0.110146 0.000777413 -2.53981e-23)
(0.109924 0.000834635 -1.92176e-23)
(0.110548 0.00067573 -6.3029e-24)
(0.110354 0.000725095 -6.32189e-24)
(0.110896 0.000588476 -4.85616e-26)
(0.110728 0.000630409 0)
(0.1112 0.000513333 0)
(0.111053 0.000549539 0)
(0.111468 0.000448334 0)
(0.111338 0.00047967 0)
(0.111703 0.000392042 0)
(0.111589 0.000419169 0)
(0.111911 0.000343195 0)
(0.11181 0.000366708 0)
(0.112094 0.000300606 0)
(0.112005 0.000321175 0)
(0.112256 0.000263478 1.56241e-29)
(0.112178 0.000281514 0)
(0.112401 0.000230826 0)
(0.112331 0.000246566 0)
(0.112529 0.000202251 3.98811e-26)
(0.112467 0.000216076 0)
(0.112643 0.000177146 0)
(0.112587 0.000189298 0)
(0.112744 0.000155022 0)
(0.112695 0.000165738 0)
(0.112834 0.000135485 0)
(0.11279 0.000144952 0)
(0.112915 0.000118199 0)
(0.112876 0.000126582 0)
(0.112987 0.000102753 0)
(0.112952 0.000110285 0)
(0.113052 8.82374e-05 4.31085e-24)
(0.11302 9.53597e-05 -2.16895e-24)
(0.113082 8.15034e-05 -1.64596e-23)
(0.113156 -9.28552e-06 -3.67062e-24)
(0.11316 3.97997e-05 1.5357e-23)
(0.113158 1.511e-05 -1.17329e-23)
(0.113156 -3.32121e-05 0)
(0.113082 -0.000123327 -1.22261e-23)
(0.113138 -0.000111305 -3.53098e-23)
(0.11311 -0.000117133 2.84219e-23)
(0.11302 -0.000136988 0)
(0.113052 -0.000129974 0)
(0.112952 -0.000150862 -8.22178e-30)
(0.112987 -0.000143581 0)
(0.112876 -0.000166343 0)
(0.112915 -0.000158394 0)
(0.11279 -0.000183739 -7.45519e-26)
(0.112834 -0.000174776 0)
(0.112695 -0.000203467 0)
(0.112744 -0.000193292 0)
(0.112587 -0.000225892 0)
(0.112642 -0.000214322 0)
(0.112466 -0.000251396 8.07434e-26)
(0.112528 -0.000238238 0)
(0.11233 -0.000280436 8.2825e-26)
(0.1124 -0.000265436 0)
(0.112176 -0.000313523 0)
(0.112255 -0.000296424 0)
(0.112003 -0.000351283 0)
(0.112092 -0.00033179 0)
(0.111807 -0.000394526 0)
(0.111908 -0.000372137 0)
(0.111585 -0.000443943 0)
(0.111699 -0.000418379 0)
(0.111333 -0.000500803 -9.36755e-26)
(0.111462 -0.00047138 0)
(0.111046 -0.000566331 0)
(0.111194 -0.000532399 0)
(0.11072 -0.00064208 0)
(0.110888 -0.00060283 0)
(0.110347 -0.000729848 -4.53346e-29)
(0.11054 -0.000684339 0)
(0.109921 -0.000831809 5.65094e-29)
(0.110141 -0.00077891 0)
(0.109432 -0.000954243 1.06519e-25)
(0.109685 -0.000889342 0)
(0.108862 -0.00111028 -5.63889e-23)
(0.109157 -0.00102735 1.38138e-23)
(0.108456 -0.00089457 1.42059e-23)
(0.108549 -0.00120174 2.81365e-23)
(0.108701 0.000456467 -2.50269e-23)
(0.108683 -0.000213662 -2.69468e-23)
(0.113164 6.41363e-05 3.90799e-24)
(0.113164 -0.000106288 2.77542e-23)
(0.108416 0.000844209 3.0917e-24)
(0.108386 -0.000579018 0)
(0.108106 0.00126027 3.50473e-22)
(0.108212 -0.00130006 4.36591e-23)
(0.108109 -0.000972233 5.82219e-23)
(0.108214 0.00176728 -5.88523e-22)
(0.107952 0.00192468 1.05615e-22)
(0.108677 0.000117237 0)
(0.108704 0.00152807 5.78581e-23)
(0.108438 0.00165595 3.01032e-23)
(0.109265 0.00131816 5.2042e-23)
(0.108984 0.00141704 -7.9539e-23)
(0.109773 0.00114082 -2.57967e-23)
(0.109528 0.0012269 -1.29094e-23)
(0.110216 0.00098914 1.28912e-23)
(0.110002 0.00106167 1.30982e-23)
(0.110604 0.000859519 0)
(0.110416 0.000921779 -3.45927e-26)
(0.110943 0.000749085 0)
(0.110779 0.000802183 0)
(0.111241 0.000654183 4.73823e-26)
(0.111097 0.000699872 0)
(0.111502 0.000572262 0)
(0.111375 0.000611745 0)
(0.111733 0.0005013 0)
(0.111621 0.00053552 0)
(0.111937 0.000439712 0)
(0.111838 0.000469425 0)
(0.112117 0.000386052 4.30151e-26)
(0.112029 0.00041196 0)
(0.112276 0.000339158 1.62832e-29)
(0.112199 0.000361862 0)
(0.112418 0.00029806 0)
(0.112349 0.000317923 0)
(0.112544 0.000261978 -7.97487e-26)
(0.112483 0.000279441 0)
(0.112656 0.00023026 0)
(0.112601 0.000245614 0)
(0.112755 0.000202325 0)
(0.112707 0.000215855 0)
(0.112844 0.000177676 0)
(0.112801 0.00018962 0)
(0.112924 0.000155892 0)
(0.112885 0.000166452 0)
(0.112995 0.000136525 0)
(0.11296 0.000145945 0)
(0.113059 0.000118988 -2.15367e-24)
(0.113028 0.000127419 0)
(0.113116 0.000103177 0)
(0.113088 0.000110894 -4.17989e-24)
(0.113168 8.85241e-05 1.40121e-27)
(0.113143 9.56408e-05 0)
(0.113185 3.64252e-05 -1.55703e-23)
(0.113193 8.2395e-05 9.40778e-25)
(0.113188 5.97714e-05 7.63047e-24)
(0.113181 -9.74247e-06 5.60099e-24)
(0.113182 1.3143e-05 -3.8661e-24)
(0.113183 -5.62045e-05 -1.94612e-24)
(0.113181 -3.27949e-05 1.94296e-24)
(0.113188 -0.000102212 0)
(0.113185 -7.87195e-05 -1.76649e-23)
(0.113143 -0.000137712 -7.94087e-24)
(0.113192 -0.000125766 -1.5195e-23)
(0.113168 -0.000131297 3.49585e-23)
(0.113088 -0.000152465 -4.16299e-24)
(0.113116 -0.000144835 0)
(0.113028 -0.000169021 0)
(0.113059 -0.000160548 0)
(0.11296 -0.000186531 -1.17004e-29)
(0.112995 -0.00017757 0)
(0.112885 -0.000206208 0)
(0.112924 -0.000196077 0)
(0.112801 -0.000228442 7.45519e-26)
(0.112844 -0.000216982 0)
(0.112707 -0.000253663 0)
(0.112755 -0.000240656 0)
(0.112601 -0.000282313 0)
(0.112655 -0.000267534 0)
(0.112482 -0.000314888 0)
(0.112543 -0.000298081 0)
(0.112348 -0.000351966 -2.3156e-29)
(0.112417 -0.000332828 0)
(0.112197 -0.000394214 0)
(0.112274 -0.000372398 0)
(0.112026 -0.000442455 0)
(0.112114 -0.000417534 0)
(0.111833 -0.000497651 0)
(0.111933 -0.000469116 0)
(0.111615 -0.000560891 0)
(0.111728 -0.00052818 0)
(0.111368 -0.000633603 9.36755e-26)
(0.111495 -0.000595979 0)
(0.111087 -0.000717415 0)
(0.111232 -0.000674014 0)
(0.110767 -0.000814305 0)
(0.110932 -0.000764099 0)
(0.110403 -0.000926591 -1.00546e-25)
(0.110591 -0.000868371 0)
(0.109986 -0.00105696 1.02909e-25)
(0.110201 -0.000989342 0)
(0.10951 -0.00120916 -1.05315e-25)
(0.109756 -0.00113004 0)
(0.108963 -0.00139175 1.39084e-23)
(0.109246 -0.00129505 -2.74097e-23)
(0.108337 -0.00161678 -1.40818e-23)
(0.10866 -0.00149848 2.86301e-23)
(0.107851 -0.00140639 6.59651e-25)
(0.107991 -0.00174484 2.91328e-23)
(0.108363 0.000479937 -2.58755e-23)
(0.108347 -0.000237163 0)
(0.108057 0.000886101 -2.51209e-22)
(0.10803 -0.000627162 0)
(0.113175 0.000114079 -3.91186e-24)
(0.113198 0.000106566 2.86574e-24)
(0.113211 -9.80281e-05 -1.49515e-23)
(0.113215 -0.000120044 -1.69457e-23)
(0.107714 0.00128243 -2.4695e-22)
(0.107737 -0.00105565 -5.87915e-23)
(0.107637 0.00195764 0)
(0.108353 0.002095 -6.83484e-23)
(0.107465 -0.00152194 -2.88535e-23)
(0.107618 -0.00188265 4.43911e-23)
(0.108031 0.00221502 1.36856e-22)
(0.10834 0.000118258 0)
(0.108874 0.00182541 0)
(0.108614 0.00196108 -6.05576e-23)
(0.109397 0.00158411 0)
(0.109137 0.00170134 0)
(0.109878 0.00137211 0)
(0.109644 0.00147393 1.33743e-23)
(0.1103 0.00119187 0)
(0.110096 0.00127845 0)
(0.110673 0.0010375 0)
(0.110493 0.00111168 0)
(0.111001 0.000905272 0)
(0.110842 0.000968885 0)
(0.11129 0.000791517 -4.73823e-26)
(0.11115 0.000846289 0)
(0.111545 0.000693283 0)
(0.111421 0.000740631 0)
(0.111769 0.000608152 0)
(0.11166 0.000649216 0)
(0.111968 0.000534174 0)
(0.111872 0.000569883 0)
(0.112144 0.000469706 -2.09938e-29)
(0.112059 0.00050085 0)
(0.1123 0.000413363 1.90805e-29)
(0.112225 0.000440605 0)
(0.112439 0.000363972 0)
(0.112372 0.000387862 0)
(0.112562 0.000320588 1.60878e-29)
(0.112502 0.000341586 0)
(0.112672 0.000282429 0)
(0.112619 0.000300903 0)
(0.11277 0.000248816 0)
(0.112722 0.000265096 0)
(0.112857 0.000219164 0)
(0.112814 0.000233531 0)
(0.112935 0.000192978 0)
(0.112897 0.000205669 0)
(0.113005 0.000169808 0)
(0.112971 0.000181045 0)
(0.113067 0.000149282 0)
(0.113037 0.000159256 0)
(0.113123 0.000130387 4.14971e-24)
(0.113096 0.000139436 4.24336e-24)
(0.11315 0.000121818 -7.96679e-24)
(0.113208 3.34216e-05 -7.64356e-24)
(0.113216 7.7271e-05 0)
(0.113211 5.55965e-05 -7.71952e-24)
(0.113205 -1.02619e-05 0)
(0.113206 1.17159e-05 7.80075e-24)
(0.113206 -5.47261e-05 1.16435e-23)
(0.113205 -3.25744e-05 -3.93503e-24)
(0.113208 -7.60806e-05 -2.28828e-23)
(0.113149 -0.000163882 4.00467e-24)
(0.113198 -0.000147901 1.49175e-23)
(0.113174 -0.000156348 0)
(0.113096 -0.000181268 -8.2918e-24)
(0.113123 -0.000172307 8.31917e-24)
(0.113037 -0.000200448 0)
(0.113067 -0.000190766 0)
(0.112971 -0.00022157 -1.48553e-29)
(0.113005 -0.000210711 0)
(0.112897 -0.000245402 0)
(0.112935 -0.000233123 0)
(0.112815 -0.000272379 0)
(0.112857 -0.000258472 0)
(0.112722 -0.000302983 0)
(0.11277 -0.0002872 0)
(0.112618 -0.000337736 0)
(0.112672 -0.00031981 0)
(0.112501 -0.000377239 8.06812e-26)
(0.112561 -0.000356858 0)
(0.11237 -0.000422197 -8.28019e-26)
(0.112438 -0.000398994 0)
(0.112222 -0.000473427 0)
(0.112298 -0.000446977 0)
(0.112055 -0.0005319 0)
(0.112141 -0.000501695 0)
(0.111866 -0.000598788 0)
(0.111964 -0.000564222 0)
(0.111653 -0.000675451 0)
(0.111763 -0.000635805 0)
(0.111412 -0.000763558 0)
(0.111536 -0.000717969 0)
(0.111138 -0.000865084 0)
(0.111279 -0.000812515 0)
(0.110826 -0.000982392 -9.81087e-26)
(0.110987 -0.000921615 0)
(0.110472 -0.00111827 1.00419e-25)
(0.110655 -0.00104783 0)
(0.110068 -0.001276 -1.02764e-25)
(0.110277 -0.00119419 0)
(0.109607 -0.00145953 0)
(0.109845 -0.00136427 0)
(0.10908 -0.00167358 0)
(0.109352 -0.00156236 0)
(0.108481 -0.00192597 1.11386e-25)
(0.108792 -0.00179364 1.40777e-23)
(0.107795 -0.00222925 -7.42626e-23)
(0.108149 -0.0020706 0)
(0.107219 -0.00203698 -4.3957e-23)
(0.107414 -0.00240308 -6.71948e-25)
(0.108004 0.000502866 8.10777e-23)
(0.107988 -0.000259854 0)
(0.113221 9.92921e-05 -1.48918e-23)
(0.11322 -0.000141207 -2.87312e-23)
(0.107651 0.000911168 -4.32927e-23)
(0.10742 0.00172921 6.27702e-25)
(0.107302 0.00132222 1.25712e-22)
(0.107654 -0.000675784 0)
(0.10734 -0.00113714 1.48461e-23)
(0.107628 0.00232798 -1.25868e-22)
(0.107254 0.00239217 1.09459e-22)
(0.107087 0.00191053 -1.07871e-22)
(0.107051 -0.00164212 -4.46262e-23)
(0.106793 -0.00219745 2.99637e-23)
(0.107007 -0.00259741 2.92054e-23)
(0.107979 0.000118586 0)
(0.108495 0.0024022 3.8059e-24)
(0.107783 0.0027342 -7.12373e-25)
(0.108153 0.00256091 2.957e-23)
(0.10904 0.0021026 2.90829e-23)
(0.10878 0.00224885 -2.9234e-23)
(0.109539 0.00183034 5.30892e-26)
(0.109293 0.00196314 0)
(0.109994 0.00159155 0)
(0.109773 0.00170653 0)
(0.110397 0.00138583 0)
(0.110201 0.00148486 0)
(0.110754 0.00120868 0)
(0.110581 0.00129393 0)
(0.11107 0.00105617 4.84372e-26)
(0.110917 0.0011296 0)
(0.111348 0.000924616 0)
(0.111213 0.000987992 0)
(0.111595 0.000810825 0)
(0.111475 0.000865689 0)
(0.111813 0.0007121 0)
(0.111707 0.000759736 0)
(0.112006 0.000626209 0)
(0.111912 0.00066768 0)
(0.112177 0.000551294 -4.29941e-26)
(0.112094 0.000587491 0)
(0.112329 0.000485783 2.212e-29)
(0.112255 0.000517457 0)
(0.112464 0.000428345 0)
(0.112398 0.000456132 0)
(0.112584 0.000377879 7.96844e-26)
(0.112526 0.000402307 0)
(0.112691 0.000333466 0)
(0.112639 0.000354971 0)
(0.112786 0.000294331 0)
(0.11274 0.000313287 0)
(0.112872 0.000259806 0)
(0.11283 0.000276533 0)
(0.112948 0.000229323 0)
(0.112911 0.000244094 0)
(0.113016 0.00020239 0)
(0.112983 0.000215444 0)
(0.113077 0.000178587 6.75751e-26)
(0.113048 0.00019013 0)
(0.113132 0.000157204 -4.16784e-24)
(0.113106 0.000167716 0)
(0.113182 0.000137535 3.96658e-24)
(0.113158 0.000147096 0)
(0.113228 0.000120353 3.79027e-24)
(0.113205 0.000128714 -3.87294e-24)
(0.113238 7.23206e-05 7.49093e-24)
(0.113249 0.000112458 0)
(0.113243 9.30932e-05 1.11499e-23)
(0.11323 3.10808e-05 0)
(0.113233 5.1603e-05 0)
(0.113226 -1.08823e-05 0)
(0.113228 1.03075e-05 0)
(0.113228 -5.33727e-05 0)
(0.113226 -3.21881e-05 0)
(0.113233 -9.44171e-05 1.52381e-23)
(0.11323 -7.38428e-05 3.78785e-24)
(0.113242 -0.000135128 3.74937e-24)
(0.113237 -0.00011488 2.98751e-23)
(0.113205 -0.000170822 1.94551e-23)
(0.113247 -0.000155495 3.73432e-24)
(0.113226 -0.000162749 -7.58167e-24)
(0.113157 -0.000189106 3.99858e-24)
(0.113182 -0.000179651 -2.3969e-23)
(0.113105 -0.000209339 -1.04578e-29)
(0.113132 -0.000198963 0)
(0.113048 -0.000231199 0)
(0.113077 -0.000219947 0)
(0.112983 -0.000255879 -1.79957e-29)
(0.113016 -0.000243168 0)
(0.112911 -0.000283785 0)
(0.112948 -0.000269403 0)
(0.11283 -0.000315398 0)
(0.112872 -0.0002991 0)
(0.11274 -0.000351256 0)
(0.112787 -0.000332765 0)
(0.112639 -0.000391965 0)
(0.112691 -0.000370968 0)
(0.112525 -0.000438224 -1.61331e-25)
(0.112583 -0.000414358 0)
(0.112396 -0.000490855 0)
(0.112462 -0.000463693 0)
(0.112252 -0.000550813 0)
(0.112326 -0.000519858 0)
(0.112089 -0.000619229 0)
(0.112173 -0.000583891 0)
(0.111906 -0.000697452 0)
(0.112 -0.00065703 0)
(0.111698 -0.00078708 -9.1317e-26)
(0.111805 -0.000740738 0)
(0.111464 -0.000890029 0)
(0.111585 -0.000836767 0)
(0.111198 -0.00100858 0)
(0.111335 -0.000947208 0)
(0.110897 -0.00114544 9.81087e-26)
(0.111052 -0.00107455 0)
(0.110554 -0.0013038 -8.28307e-29)
(0.110731 -0.00122173 0)
(0.110165 -0.00148741 2.05436e-25)
(0.110366 -0.00139221 0)
(0.109722 -0.00170062 0)
(0.109951 -0.00159004 0)
(0.109218 -0.00194824 0)
(0.109478 -0.0018198 0)
(0.108644 -0.00223512 -1.46514e-28)
(0.108941 -0.00208645 0)
(0.107992 -0.00256776 0)
(0.108328 -0.00239527 0)
(0.107249 -0.00296917 -4.45065e-23)
(0.107633 -0.00275839 0)
(0.106573 -0.00280177 -6.62415e-25)
(0.106838 -0.00320132 7.60047e-23)
(0.107608 0.000520304 0)
(0.107417 0.00286839 1.71918e-22)
(0.10723 0.00093717 2.96754e-23)
(0.113235 0.000141224 -3.78314e-24)
(0.113255 0.000132828 0)
(0.113262 -0.000129698 3.65529e-24)
(0.113267 -0.000148527 -7.24558e-24)
(0.107605 -0.000282677 0)
(0.107251 -0.000727107 0)
(0.106907 0.00143601 0)
(0.106915 -0.00122255 -1.46221e-23)
(0.106607 -0.00177289 -2.96509e-23)
(0.106335 -0.00237433 0)
(0.106109 -0.0030207 7.68828e-23)
(0.106401 -0.00344571 -6.13181e-23)
(0.10759 0.000118434 0)
(0.10799 0.00309638 -1.42344e-26)
(0.107002 0.00301089 5.46155e-23)
(0.107248 0.00348119 -1.95312e-22)
(0.107631 0.00328792 5.66263e-23)
(0.108659 0.00270165 -1.83605e-23)
(0.108332 0.00289029 -2.93182e-23)
(0.109208 0.00236479 0)
(0.108947 0.00252799 0)
(0.109688 0.00206402 -5.30844e-26)
(0.109453 0.00221018 0)
(0.11012 0.00180003 0)
(0.109911 0.00192746 0)
(0.110504 0.00157082 0)
(0.110318 0.00168132 0)
(0.110845 0.00137254 0)
(0.11068 0.00146808 0)
(0.111147 0.00120116 -4.84372e-26)
(0.111 0.00128375 0)
(0.111415 0.0010529 0)
(0.111285 0.00112437 0)
(0.111652 0.000924378 0)
(0.111537 0.00098637 0)
(0.111862 0.000812706 0)
(0.11176 0.000866607 0)
(0.112048 0.000715432 0)
(0.111958 0.000762413 0)
(0.112214 0.000630497 4.29424e-26)
(0.112134 0.000671544 0)