/*--------------------------------*- C++ -*----------------------------------*\
  =========                 |
  \\      /  F ield         | OpenFOAM: The Open Source CFD Toolbox
   \\    /   O peration     | Website:  https://openfoam.org
    \\  /    A nd           | Version:  10
     \\/     M anipulation  |
\*---------------------------------------------------------------------------*/
FoamFile
{
    format      ascii;
    class       volScalarField;
    location    "32";
    object      p;
}
// * * * * * * * * * * * * * * * * * * * * * * * * * * * * * * * * * * * * * //

dimensions      [0 2 -2 0 0 0 0];

internalField   nonuniform List<scalar> 
33313
(
-0.00170472
-0.00300358
-0.00351094
-0.00637141
0.00508567
0.00473168
0.00305211
0.0123515
0.0116658
-0.00158509
0.00231293
-0.721442
-0.730184
-0.728544
0.12399
0.109714
0.128399
-0.150348
-0.239793
-0.184841
-0.105839
0.76391
0.662163
0.817951
0.84288
0.192703
0.198185
0.20073
0.291434
0.282467
0.294045
0.216112
0.325998
-0.339129
-0.347355
-0.336984
-0.322354
0.0920123
0.0869536
-0.424792
-0.389179
0.341734
0.329389
-0.322234
-0.766115
-0.802699
0.682918
0.778292
-0.00643702
-0.00558089
0.290779
0.319321
0.220474
0.267316
-0.0205817
0.00823401
0.306742
0.448668
0.542072
0.45184
0.312072
0.863151
0.924088
0.950827
-0.00866751
-0.0239496
-0.132471
-0.0097341
-0.00971434
-0.27051
-0.29735
-0.279245
-0.282518
-0.478163
-0.305906
-0.258302
-0.188751
-0.185716
-0.309849
-0.375504
0.563437
0.549072
0.580468
-0.577884
-0.635937
-0.727645
-0.855897
-0.839188
-0.830227
0.9437
-0.358527
-0.312434
-0.340616
-0.363985
-0.406172
0.278872
0.268154
0.00258591
0.000643646
-0.0848811
-0.0716069
-0.131027
-0.146381
-0.147245
-0.17237
-0.349753
-0.389137
-0.381667
-0.353032
0.0400292
0.21136
0.162369
0.0331623
-0.535022
-0.645156
-0.482177
0.90943
0.851181
-0.139535
-0.130275
-0.313876
-0.310336
-0.316835
-0.00863966
-0.00731601
-0.0200665
0.215306
0.0275681
0.0335335
-0.819339
-0.808944
-0.360708
-0.346214
-0.0622185
-0.0796226
-0.242219
-0.152128
0.00981939
0.0936972
0.294324
0.19339
0.402226
0.0232744
0.0180432
0.0216012
0.122557
0.118661
0.118749
0.115413
0.367405
0.351276
0.373106
0.360275
0.403885
0.405491
0.370167
0.371763
-0.214605
-0.288039
-0.254713
-0.33859
-0.0777553
-0.0304948
0.128977
-0.0111086
-0.622343
-0.671068
-0.678291
-0.86569
0.00131474
0.00250415
0.136758
0.135984
0.0357242
0.0330503
0.193883
0.177156
-0.784363
-0.780605
0.0427609
0.0382333
0.0151318
0.0113457
0.0758259
0.0794577
-0.2429
-0.269256
-0.759244
-0.716673
-0.803856
-0.34259
0.529048
0.503938
-0.732753
-0.685446
0.361956
0.375541
0.369129
0.414047
0.437954
0.43268
0.561305
0.535676
0.148459
0.153989
-0.746451
-0.744509
-0.0577975
-0.166398
0.167493
0.162749
0.0036763
0.00661015
0.00379507
0.00169789
0.118285
-0.693663
-0.705632
0.293722
0.300607
0.278472
0.269765
-0.113129
-0.110881
-0.0947222
0.0844155
0.110961
0.0791881
-0.791965
-0.788148
-0.793673
-0.00443938
0.0391319
0.138583
0.0460214
0.0436125
-0.362289
0.307579
-0.185138
-0.200576
-0.216281
-0.22914
-0.240776
-0.248694
-0.252704
-0.252919
-0.249053
-0.241397
-0.23042
-0.217086
-0.202301
-0.187038
-0.172067
-0.158037
-0.145346
-0.134239
-0.124786
-0.116979
-0.110731
-0.105949
-0.102526
-0.100372
-0.0994207
-0.099593
-0.100839
-0.103365
-0.106998
-0.112289
-0.118756
-0.126337
-0.173303
-0.162922
-0.158372
-0.16848
-0.144636
-0.13521
-0.122792
-0.141013
-0.130997
-0.110153
-0.115904
-0.102567
-0.105659
-0.100143
-0.100803
-0.102265
-0.100628
-0.1093
-0.105138
-0.121857
-0.114853
-0.140426
-0.130386
-0.164583
-0.151901
-0.191868
-0.17809
-0.21724
-0.205187
-0.234115
-0.227139
-0.237193
-0.237508
-0.226237
-0.233421
-0.204113
-0.216486
-0.189652
-0.149743
-0.144629
-0.151295
-0.153859
-0.158722
-0.153472
-0.137777
-0.133344
-0.162709
-0.13637
-0.140616
-0.14549
-0.122656
-0.129076
-0.126897
-0.172736
-0.142117
-0.156709
-0.205143
-0.189506
-0.235528
-0.220521
-0.256351
-0.247853
-0.260979
-0.260728
-0.24884
-0.256928
-0.223261
-0.237318
-0.191486
-0.20765
-0.160729
-0.175626
-0.135404
-0.147246
-0.116877
-0.125295
-0.104765
-0.110077
-0.0981953
-0.100845
-0.0964678
-0.096771
-0.0993457
-0.0973704
-0.107044
-0.102594
-0.119685
-0.112807
-0.127371
-0.169762
-0.154075
-0.162694
-0.143187
-0.16633
-0.153763
-0.124907
-0.133579
-0.111302
-0.117311
-0.102885
-0.10644
-0.0995284
-0.100629
-0.10077
-0.0995842
-0.10676
-0.10315
-0.117976
-0.111687
-0.134792
-0.125686
-0.156754
-0.145221
-0.181603
-0.16905
-0.204803
-0.193766
-0.220378
-0.213912
-0.2234
-0.223608
-0.213115
-0.219848
-0.191143
-0.203307
-0.164399
-0.177675
-0.138239
-0.151005
-0.117038
-0.126781
-0.175638
-0.129606
-0.113811
-0.108777
-0.163206
-0.143967
-0.152095
-0.119165
-0.168888
-0.180274
-0.183085
-0.118975
-0.117369
-0.141993
-0.117542
-0.128814
-0.173532
-0.157245
-0.206448
-0.190031
-0.238174
-0.222701
-0.259961
-0.250953
-0.26524
-0.264802
-0.252952
-0.26119
-0.226571
-0.241109
-0.193526
-0.21036
-0.161419
-0.176979
-0.134925
-0.147323
-0.115458
-0.124321
-0.102563
-0.108252
-0.0952725
-0.0982792
-0.0927747
-0.0934736
-0.0945744
-0.0931857
-0.100847
-0.0971962
-0.111827
-0.105826
-0.127059
-0.119008
-0.135578
-0.181785
-0.173167
-0.194304
-0.188922
-0.144209
-0.15576
-0.125137
-0.133992
-0.110954
-0.117374
-0.101986
-0.10586
-0.0977775
-0.099314
-0.0980653
-0.0973713
-0.102908
-0.0999035
-0.112658
-0.107149
-0.127596
-0.119484
-0.147269
-0.136925
-0.169636
-0.158326
-0.190604
-0.180619
-0.204722
-0.198858
-0.207496
-0.207666
-0.198033
-0.204222
-0.177864
-0.189073
-0.153187
-0.165526
-0.129693
-0.141217
-0.110149
-0.119118
-0.102172
-0.0968383
-0.10274
-0.109879
-0.107938
-0.110419
-0.10622
-0.197513
-0.0921955
-0.0967873
-0.172694
-0.160413
-0.132734
-0.102243
-0.0998789
-0.140102
-0.109105
-0.114796
-0.0963765
-0.104822
-0.140067
-0.126495
-0.171428
-0.15512
-0.205525
-0.188351
-0.238146
-0.222453
-0.260462
-0.251125
-0.266136
-0.265565
-0.253726
-0.262092
-0.22675
-0.241633
-0.192849
-0.210127
-0.159887
-0.175862
-0.132674
-0.145412
-0.112612
-0.121761
-0.0991721
-0.105132
-0.0913091
-0.0946088
-0.0881398
-0.0891834
-0.0891298
-0.0881398
-0.0942356
-0.0911705
-0.10368
-0.0984318
-0.117178
-0.110005
-0.124877
-0.193618
-0.183824
-0.207709
-0.201636
-0.169634
-0.198362
-0.183881
-0.144045
-0.156247
-0.123972
-0.133286
-0.109391
-0.116051
-0.0998879
-0.104037
-0.0949587
-0.0968808
-0.0943184
-0.0941128
-0.0979898
-0.0956066
-0.106227
-0.101523
-0.119225
-0.112138
-0.136547
-0.127422
-0.15636
-0.14633
-0.175005
-0.16612
-0.187602
-0.182361
-0.190118
-0.190256
-0.181508
-0.187149
-0.163573
-0.17347
-0.141286
-0.152586
-0.119853
-0.130245
-0.102414
-0.110479
-0.0906112
-0.0958392
-0.088758
-0.0838505
-0.0866325
-0.211438
-0.0933021
-0.0893946
-0.103126
-0.100193
-0.147263
-0.0821398
-0.0779962
-0.0768628
-0.0959762
-0.0926659
-0.0864904
-0.08794
-0.197109
-0.212654
-0.211464
-0.0837232
-0.102284
-0.0917809
-0.0784086
-0.0844717
-0.110656
-0.100455
-0.135979
-0.122505
-0.167402
-0.151003
-0.202302
-0.184691
-0.235018
-0.219408
-0.257472
-0.248005
-0.263436
-0.262732
-0.251137
-0.259472
-0.224028
-0.239011
-0.189783
-0.20725
-0.156421
-0.172593
-0.128854
-0.141762
-0.108469
-0.117779
-0.0946808
-0.100822
-0.0863856
-0.0899152
-0.0826531
-0.0839962
-0.0829185
-0.082308
-0.0870367
-0.0844943
-0.0950841
-0.0905768
-0.106726
-0.100531
-0.120673
-0.11364
-0.133514
-0.127315
-0.181588
-0.153695
-0.168074
-0.204497
-0.193877
-0.220252
-0.213421
-0.226219
-0.224545
-0.168253
-0.182524
-0.142376
-0.154788
-0.121701
-0.131324
-0.10667
-0.113513
-0.0966798
-0.101083
-0.0911192
-0.0933803
-0.0896194
-0.0898738
-0.0921513
-0.0903766
-0.0988905
-0.0949849
-0.109961
-0.103893
-0.124942
-0.117031
-0.142206
-0.133455
-0.158523
-0.150741
-0.1696
-0.164981
-0.171859
-0.171962
-0.164184
-0.169222
-0.148272
-0.157029
-0.128441
-0.138535
-0.109299
-0.118534
-0.094019
-0.10106
-0.083667
-0.0882526
-0.0802729
-0.0815704
-0.0767934
-0.138911
-0.0791422
-0.073566
-0.0971125
-0.0953714
-0.225052
-0.0908833
-0.0897649
-0.0836285
-0.0853786
-0.0779071
-0.0821902
-0.0755201
-0.119577
-0.124212
-0.0697383
-0.0968708
-0.0720928
-0.06275
-0.0670169
-0.0859235
-0.0784214
-0.10493
-0.0947252
-0.130156
-0.116715
-0.161612
-0.1452
-0.19645
-0.178917
-0.228754
-0.213365
-0.251096
-0.241625
-0.257281
-0.256446
-0.245285
-0.25347
-0.218399
-0.233287
-0.184268
-0.201687
-0.150986
-0.16712
-0.12348
-0.136362
-0.103092
-0.112414
-0.0891844
-0.095402
-0.0806198
-0.0843045
-0.076441
-0.0780307
-0.0760537
-0.0757974
-0.0792427
-0.0772039
-0.0859979
-0.0821828
-0.0959863
-0.0906444
-0.108027
-0.101919
-0.114051
-0.159181
-0.127788
-0.143625
-0.189185
-0.174475
-0.214115
-0.202446
-0.2315
-0.223962
-0.238175
-0.236284
-0.237172
-0.193552
-0.221312
-0.207831
-0.164829
-0.178996
-0.139017
-0.151387
-0.118175
-0.127909
-0.102843
-0.109841
-0.0924626
-0.0970788
-0.0863438
-0.0889074
-0.0840549
-0.0847359
-0.0855024
-0.0843103
-0.090794
-0.0876616
-0.0999973
-0.0949169
-0.112716
-0.105978
-0.127519
-0.120002
-0.14159
-0.13487
-0.151195
-0.147181
-0.153181
-0.153263
-0.146442
-0.15087
-0.132452
-0.140153
-0.114971
-0.123872
-0.0981815
-0.106264
-0.084958
-0.0910261
-0.0761286
-0.080006
-0.0715703
-0.0733272
-0.0712166
-0.0708488
-0.0802861
-0.0753718
-0.0727451
-0.0665298
-0.0591321
-0.0924445
-0.0918603
-0.0793544
-0.0839519
-0.0869497
-0.0881079
-0.0804042
-0.0854988
-0.130869
-0.112725
-0.114989
-0.0728847
-0.0841192
-0.0642299
-0.233404
-0.0563806
-0.09278
-0.0548123
-0.0476643
-0.0507793
-0.0647916
-0.0594024
-0.0787694
-0.0712241
-0.0977621
-0.0875679
-0.122849
-0.109503
-0.153876
-0.137727
-0.187986
-0.170841
-0.219564
-0.204516
-0.241541
-0.232188
-0.247858
-0.246908
-0.236323
-0.24425
-0.210024
-0.224613
-0.176488
-0.193612
-0.143763
-0.159626
-0.116715
-0.129385
-0.0966222
-0.105821
-0.0828123
-0.0890069
-0.0741364
-0.077903
-0.0696307
-0.0714114
-0.0686804
-0.0687374
-0.0710192
-0.0694455
-0.076576
-0.0734055
-0.0850076
-0.0804852
-0.0952363
-0.0900173
-0.105427
-0.100542
-0.109469
-0.163607
-0.147155
-0.195323
-0.179841
-0.222207
-0.209581
-0.240842
-0.232771
-0.248121
-0.245991
-0.215235
-0.227064
-0.243432
-0.247299
-0.187775
-0.20194
-0.15951
-0.173495
-0.134063
-0.146273
-0.113392
-0.123072
-0.0979857
-0.10505
-0.087342
-0.0921157
-0.0807507
-0.083578
-0.0777448
-0.0788173
-0.0781765
-0.0775327
-0.0820958
-0.0796971
-0.0895292
-0.0853837
-0.100113
-0.0944809
-0.112602
-0.106245
-0.12457
-0.118845
-0.132796
-0.12935
-0.134508
-0.134579
-0.12865
-0.132501
-0.116465
-0.123176
-0.101225
-0.108979
-0.0867099
-0.0936734
-0.0754489
-0.0805942
-0.068132
-0.0713109
-0.0646051
-0.0658995
-0.0649468
-0.064285
-0.0695487
-0.0666352
-0.0846719
-0.0790224
-0.0736917
-0.0547802
-0.045668
-0.0891386
-0.0915052
-0.0858979
-0.0890843
-0.0896752
-0.0842938
-0.0877511
-0.132933
-0.116433
-0.0783667
-0.0869572
-0.0713688
-0.0874085
-0.0633707
-0.236849
-0.0445725
-0.054454
-0.0959412
-0.100095
-0.0943585
-0.0445796
-0.0344628
-0.0978484
-0.0996694
-0.0336422
-0.0900176
-0.0384032
-0.0360035
-0.0459692
-0.0417324
-0.0564566
-0.0508425
-0.0705673
-0.0629908
-0.089496
-0.0793625
-0.114143
-0.10108
-0.14425
-0.128612
-0.177208
-0.160647
-0.207736
-0.193184
-0.229105
-0.219976
-0.235481
-0.234437
-0.224545
-0.232118
-0.199158
-0.213267
-0.16665
-0.183255
-0.134926
-0.150301
-0.108715
-0.120994
-0.0892059
-0.0981466
-0.0757036
-0.0817784
-0.0670714
-0.070848
-0.0623586
-0.0642739
-0.0609437
-0.0612664
-0.0625267
-0.0613703
-0.0669952
-0.064411
-0.0740207
-0.0702349
-0.0826149
-0.0782234
-0.0914029
-0.0871772
-0.0950351
-0.166966
-0.149945
-0.199969
-0.183785
-0.228259
-0.214965
-0.247868
-0.239378
-0.255723
-0.253334
-0.250976
-0.254899
-0.0874633
-0.104716
-0.0976734
-0.24423
-0.206795
-0.227909
-0.218344
-0.180004
-0.193733
-0.152519
-0.166095
-0.12771
-0.139623
-0.107463
-0.116964
-0.0921972
-0.0992272
-0.0814305
-0.0862979
-0.0744664
-0.0775116
-0.0708253
-0.0722497
-0.0703239
-0.0701862
-0.0729688
-0.071252
-0.0787595
-0.075481
-0.0873718
-0.0827594
-0.0977369
-0.0924425
-0.10778
-0.102964
-0.114742
-0.111819
-0.116194
-0.11626
-0.11114
-0.114463
-0.100619
-0.106414
-0.0874979
-0.0941624
-0.0751407
-0.0810455
-0.0657245
-0.0700022
-0.0597829
-0.0623264
-0.0572305
-0.0580891
-0.0581204
-0.0572271
-0.0630275
-0.0600577
-0.0723912
-0.0671082
-0.0791381
-0.087063
-0.0888361
-0.100582
-0.0829624
-0.0887846
-0.0777615
-0.0899085
-0.0714681
-0.0923032
-0.0639997
-0.0553749
-0.033858
-0.0456823
-0.104578
-0.110678
-0.109814
-0.117333
-0.234968
-0.0349525
-0.0221471
-0.216661
-0.223518
-0.0223405
-0.0886288
-0.0240976
-0.0227548
-0.0285825
-0.0259109
-0.0364962
-0.0320768
-0.0473614
-0.0415647
-0.0616006
-0.0539945
-0.0802737
-0.0703273
-0.104137
-0.0915341
-0.13299
-0.118026
-0.164472
-0.148656
-0.193645
-0.179731
-0.214195
-0.205381
-0.22056
-0.219452
-0.210334
-0.217475
-0.186132
-0.199605
-0.155038
-0.170922
-0.124717
-0.139407
-0.0996846
-0.111412
-0.0810174
-0.0895813
-0.0680122
-0.0738795
-0.0595664
-0.063286
-0.054761
-0.0567561
-0.0529832
-0.0535217
-0.0539132
-0.0531214
-0.0574131
-0.0553525
-0.0631888
-0.0600553
-0.0704175
-0.0666997
-0.077706
-0.074203
-0.0834416
-0.0809745
-0.0854987
-0.0849187
-0.13377
-0.100503
-0.116848
-0.168814
-0.151277
-0.202726
-0.186087
-0.231842
-0.21815
-0.252144
-0.243325
-0.260383
-0.257873
-0.255704
-0.259643
-0.23937
-0.248823
-0.196076
-0.207333
-0.17042
-0.183607
-0.144045
-0.15709
-0.120158
-0.131641
-0.100551
-0.10977
-0.0856046
-0.0925154
-0.0748493
-0.0797479
-0.0676165
-0.0708302
-0.0634313
-0.0651626
-0.0620928
-0.0624117
-0.0635801
-0.0624834
-0.0678797
-0.0653874
-0.0747111
-0.0710185
-0.0831671
-0.0788271
-0.0914864
-0.0874848
-0.0973107
-0.0948592
-0.0985182
-0.0985844
-0.0941807
-0.0970308
-0.0851704
-0.0901293
-0.0740138
-0.0796646
-0.0636638
-0.0685851
-0.0559459
-0.0594271
-0.0512605
-0.0532305
-0.0495363
-0.0500293
-0.0509319
-0.0498168
-0.0559484
-0.052965
-0.065153
-0.0599593
-0.07973
-0.0716598
-0.100999
-0.0893953
-0.124235
-0.114519
-0.085205
-0.0864736
-0.0894166
-0.227613
-0.083197
-0.0913527
-0.0787771
-0.0944944
-0.0730355
-0.0989597
-0.0659569
-0.0575093
-0.0479061
-0.0234613
-0.0370937
-0.11537
-0.123578
-0.132462
-0.141022
-0.130255
-0.0251609
-0.010344
-0.0715265
-0.0710258
-0.0111855
-0.0886612
-0.0105068
-0.0100975
-0.0132667
-0.0116066
-0.01839
-0.0154727
-0.0266297
-0.0221189
-0.0377666
-0.0318528
-0.0520005
-0.0444439
-0.0701946
-0.0605531
-0.093043
-0.0810131
-0.120413
-0.106239
-0.150161
-0.135223
-0.177738
-0.164575
-0.197265
-0.188872
-0.203554
-0.20224
-0.19414
-0.200793
-0.171336
-0.184049
-0.141979
-0.156971
-0.113404
-0.12724
-0.0898414
-0.100881
-0.0722382
-0.0803225
-0.0598949
-0.0654783
-0.0517629
-0.0553655
-0.0469715
-0.0489948
-0.0449305
-0.0456348
-0.0453133
-0.0448317
-0.0479687
-0.0463669
-0.0526398
-0.0500847
-0.0586084
-0.0555305
-0.0646916
-0.0617243
-0.0694968
-0.0673796
-0.0709523
-0.0995262
-0.0698972
-0.0840376
-0.133261
-0.116017
-0.168756
-0.150919
-0.203211
-0.186342
-0.232713
-0.21883
-0.253379
-0.24438
-0.261907
-0.259291
-0.257316
-0.261225
-0.240808
-0.2504
-0.11827
-0.148226
-0.134983
-0.228859
-0.203376
-0.213939
-0.209976
-0.183599
-0.194349
-0.159332
-0.171783
-0.134328
-0.146705
-0.111607
-0.122545
-0.0928334
-0.101681
-0.0783548
-0.0850763
-0.0677292
-0.0726026
-0.0603272
-0.063661
-0.0556929
-0.0576834
-0.0536224
-0.0543431
-0.0540823
-0.0535366
-0.057058
-0.0552633
-0.0623148
-0.0594345
-0.0690893
-0.0655893
-0.0758917
-0.0726068
-0.0807091
-0.0786771
-0.0816896
-0.0817624
-0.0779818
-0.0804137
-0.0703332
-0.0745349
-0.0609766
-0.0656962
-0.0524662
-0.0564881
-0.0462858
-0.0490488
-0.0427176
-0.0441811
-0.0417166
-0.041893
-0.0434837
-0.0422296
-0.0484832
-0.0455472
-0.0573373
-0.0523813
-0.0711246
-0.0635608
-0.0909938
-0.0802249
-0.10358
-0.0874182
-0.0915087
-0.0850109
-0.0955704
-0.0812659
-0.100906
-0.0684097
-0.0567725
-0.0554299
-0.0760138
-0.107661
-0.0692601
-0.0609776
-0.0511253
-0.0400268
-0.012618
-0.0276628
-0.128652
-0.139282
-0.150265
-0.160242
-0.153804
-0.168538
-0.215043
-0.0142628
0.00139948
-0.198649
-0.199874
0.000561501
-0.0902037
0.00204334
0.00189721
0.00119555
0.00184972
-0.00223623
-0.000265868
-0.00802657
-0.00480114
-0.0165738
-0.0119475
-0.0278317
-0.0218746
-0.0419016
-0.0344804
-0.0594492
-0.0501944
-0.0811338
-0.069751
-0.106855
-0.0935585
-0.134683
-0.120717
-0.160506
-0.148169
-0.178935
-0.170981
-0.185077
-0.183754
-0.176453
-0.182601
-0.155191
-0.167055
-0.127825
-0.14179
-0.101274
-0.11412
-0.0794162
-0.0896567
-0.0630552
-0.0705773
-0.0515085
-0.0567449
-0.0437981
-0.0472321
-0.0391157
-0.0411205
-0.0369054
-0.0377282
-0.0368451
-0.0366197
-0.0387785
-0.0375717
-0.0424842
-0.0404369
-0.0473455
-0.0448299
-0.0523016
-0.0498911
-0.0561885
-0.0544547
-0.0579264
-0.0574476
-0.0576687
-0.0979168
-0.0825457
-0.13148
-0.114282
-0.166964
-0.149133
-0.201361
-0.184538
-0.230813
-0.216945
-0.251492
-0.242475
-0.260211
-0.25748
-0.255728
-0.259584
-0.239249
-0.248829
-0.213492
-0.227276
-0.188208
-0.194692
-0.169739
-0.179741
-0.14705
-0.158688
-0.123633
-0.135231
-0.102272
-0.11257
-0.0844884
-0.0928915
-0.0706002
-0.0770746
-0.060205
-0.0650047
-0.0527249
-0.0561337
-0.0477355
-0.049937
-0.0450425
-0.0461076
-0.0446129
-0.0445451
-0.0464394
-0.0452501
-0.0503326
-0.0481553
-0.0556541
-0.0528797
-0.0611448
-0.0584802
-0.065084
-0.0634195
-0.0658558
-0.0659403
-0.0626951
-0.0647608
-0.0562641
-0.0597856
-0.0485384
-0.0524134
-0.0416892
-0.044901
-0.0368803
-0.0390052
-0.0342911
-0.0353134
-0.0339091
-0.0338177
-0.0359537
-0.0346061
-0.0408478
-0.0380127
-0.0492259
-0.0445505
-0.0620086
-0.0550128
-0.0802555
-0.0704356
-0.105182
-0.0918469
-0.137648
-0.120537
-0.174516
-0.156338
-0.0899128
-0.0952364
-0.0883543
-0.101622
-0.0666579
-0.0537526
-0.0853271
-0.109424
-0.0806105
-0.118617
-0.0740011
-0.0656111
-0.0554359
-0.0435457
-0.0304649
-0.198359
-0.00048498
-0.0162265
-0.14468
-0.157964
-0.170816
-0.182009
-0.191096
-0.196661
-0.176372
-0.00128193
0.0137937
-0.0446133
-0.0435303
0.0135888
-0.0933446
0.0142096
0.0140161
0.0143105
0.0143889
0.0126732
0.0137159
0.00865441
0.0109527
0.00233593
0.00580855
-0.00649678
-0.00176959
-0.0177492
-0.0118284
-0.0314949
-0.0242849
-0.0482762
-0.0394641
-0.0686907
-0.0580084
-0.0926511
-0.0802881
-0.118456
-0.105509
-0.142436
-0.130965
-0.159698
-0.152217
-0.165622
-0.164296
-0.157761
-0.163408
-0.138128
-0.149084
-0.112939
-0.125776
-0.0886189
-0.100374
-0.0686384
-0.0779994
-0.0536509
-0.0605497
-0.043003
-0.0478441
-0.0358006
-0.0390241
-0.0313084
-0.0332542
-0.0290143
-0.0299116
-0.0286093
-0.0285888
-0.0299384
-0.0290653
-0.0328147
-0.0312053
-0.036723
-0.0346904
-0.0407405
-0.0387866
-0.0438328
-0.0424673
-0.0454567
-0.0449218
-0.0454061
-0.0957622
-0.0806561
-0.12873
-0.111854
-0.163566
-0.146078
-0.197293
-0.180791
-0.226229
-0.2126
-0.24657
-0.237693
-0.255282
-0.252505
-0.250999
-0.254763
-0.234766
-0.244192
-0.209248
-0.222956
-0.154845
-0.196898
-0.173516
-0.194284
-0.18202
-0.182094
-0.183346
-0.171913
-0.178071
-0.154873
-0.164071
-0.133914
-0.144672
-0.112236
-0.122981
-0.092371
-0.101963
-0.0756922
-0.0835958
-0.0624899
-0.0686717
-0.0524086
-0.0570937
-0.0449319
-0.0483745
-0.0396779
-0.0420434
-0.036473
-0.0378241
-0.0352936
-0.0356297
-0.0361459
-0.03547
-0.0388824
-0.0373015
-0.0429711
-0.0408125
-0.0473449
-0.0452093
-0.0505277
-0.0491816
-0.0511104
-0.0512094
-0.0484235
-0.0501691
-0.0430779
-0.0459903
-0.0368179
-0.0399342
-0.0314475
-0.0339411
-0.0278396
-0.0294082
-0.0260928
-0.0267373
-0.0262251
-0.0259154
-0.0284625
-0.0270606
-0.0331895
-0.0304861
-0.0409692
-0.0366541
-0.0526182
-0.0462509
-0.0691134
-0.0602148
-0.0914746
-0.0794283
-0.120343
-0.105227
-0.137087
-0.09406
-0.100762
-0.0420736
-0.0934023
-0.109712
-0.0910504
-0.120219
-0.0867394
-0.132032
-0.0802533
-0.0714
-0.0604727
-0.0476399
-0.0332069
-0.0179231
0.0135177
-0.00189826
-0.163778
-0.179542
-0.194084
-0.206317
-0.215426
-0.219322
-0.19182
-0.217239
-0.178248
0.0139776
0.0271747
-0.164993
-0.161641
0.027809
-0.0982258
0.0265084
0.0267128
0.0266251
0.0265005
0.0260462
0.0264572
0.0237097
0.0251356
0.0191835
0.0217367
0.0124183
0.0160837
0.00343029
0.0081955
-0.00767851
-0.00186395
-0.0209739
-0.0140332
-0.0368993
-0.0285718
-0.0559713
-0.0460237
-0.0781207
-0.0667129
-0.101875
-0.0899605
-0.123995
-0.113399
-0.140048
-0.133069
-0.145682
-0.144384
-0.138528
-0.143695
-0.120564
-0.130578
-0.0976762
-0.109318
-0.0757223
-0.0863202
-0.0577285
-0.0661592
-0.0441977
-0.0504341
-0.0345173
-0.0389298
-0.0278869
-0.0308681
-0.0236512
-0.0255042
-0.021348
-0.022281
-0.0206889
-0.0208256
-0.0215241
-0.0209269
-0.0237004
-0.022462
-0.0268006
-0.0251767
-0.0300511
-0.0284634
-0.0326323
-0.031466
-0.033909
-0.0334969
-0.0334488
-0.0339111
-0.0313698
-0.0325837
-0.0645497
-0.0403401
-0.051833
-0.0930089
-0.0782628
-0.124987
-0.108641
-0.158669
-0.141776
-0.191234
-0.175296
-0.21919
-0.206022
-0.238853
-0.230268
-0.247342
-0.244612
-0.243329
-0.246909
-0.227543
-0.236742
-0.202625
-0.216042
-0.172318
-0.187983
-0.16427
-0.16592
-0.154955
-0.160523
-0.139403
-0.147801
-0.120256
-0.130087
-0.100406
-0.110255
-0.0821177
-0.0909659
-0.0666155
-0.0739847
-0.0541655
-0.0600218
-0.044464
-0.0490012
-0.0370626
-0.0405018
-0.0316298
-0.0341141
-0.028021
-0.0296009
-0.0262291
-0.0268966
-0.0262765
-0.0260254
-0.0280526
-0.0269672
-0.0311133
-0.0294689
-0.0345494
-0.0328591
-0.0370877
-0.0360147
-0.037502
-0.0376175
-0.0352272
-0.0366922
-0.0308493
-0.0332173
-0.0258965
-0.0283378
-0.0218244
-0.0236907
-0.0192502
-0.0203424
-0.0182153
-0.0185424
-0.0187648
-0.0182822
-0.0211224
-0.0196993
-0.0256343
-0.0230837
-0.032784
-0.0288435
-0.0432386
-0.0375498
-0.057852
-0.0499698
-0.077487
-0.0670043
-0.102829
-0.0894371
-0.133085
-0.117374
-0.165755
-0.149488
-0.208844
-0.181001
-0.0298787
-0.100019
-0.108265
-0.156147
-0.100259
-0.120053
-0.0985374
-0.133514
-0.0944338
-0.14824
-0.0877164
-0.0782535
-0.0660621
-0.0517795
-0.0358686
-0.0189379
-0.00188003
0.0286459
0.0147549
-0.185753
-0.203649
-0.219547
-0.232298
-0.240109
-0.241476
-0.236093
-0.223321
-0.193655
0.0296774
0.0405891
-0.0216463
-0.0203776
0.0412405
-0.105012
0.0392139
0.0397356
0.0385259
0.0387
0.0381298
0.0383351
0.0369297
0.0377065
0.0340432
0.0357343
0.0291005
0.0318412
0.0220772
0.0258424
0.0130846
0.0178182
0.00223887
0.00788942
-0.0105087
-0.00388202
-0.0255121
-0.0176983
-0.0432112
-0.0340083
-0.0635638
-0.0530989
-0.0853116
-0.0744051
-0.105609
-0.0958729
-0.12044
-0.113977
-0.1257
-0.124474
-0.119177
-0.123894
-0.102887
-0.111945
-0.082368
-0.0927767
-0.0628484
-0.0722579
-0.046889
-0.0543676
-0.0348519
-0.040408
-0.0261757
-0.0301409
-0.0201592
-0.0228761
-0.0162306
-0.0179641
-0.0139816
-0.0149167
-0.013149
-0.0134002
-0.0135918
-0.0132173
-0.0151874
-0.0142587
-0.0176108
-0.0163291
-0.0202266
-0.0189417
-0.0223187
-0.0213751
-0.0234181
-0.0230032
-0.0231833
-0.0234865
-0.0225688
-0.0384366
-0.0190705
-0.0283755
-0.0621082
-0.0497346
-0.0896718
-0.075421
-0.120366
-0.104708
-0.1525
-0.136397
-0.183495
-0.168332
-0.210062
-0.197552
-0.228735
-0.220581
-0.236804
-0.234207
-0.233039
-0.23641
-0.217945
-0.226795
-0.193947
-0.206846
-0.164685
-0.179759
-0.163615
-0.203159
-0.172028
-0.149038
-0.147377
-0.139891
-0.144688
-0.146214
-0.147972
-0.137743
-0.142762
-0.123693
-0.131282
-0.106388
-0.115277
-0.0883962
-0.0973331
-0.0717119
-0.0798017
-0.0574175
-0.0642359
-0.0457587
-0.0512689
-0.0364857
-0.0408492
-0.0292212
-0.0326242
-0.0236896
-0.0262501
-0.0197804
-0.021534
-0.0175067
-0.0184366
-0.0169079
-0.0169991
-0.0179045
-0.0172223
-0.020123
-0.0189009
-0.0227816
-0.021462
-0.0247757
-0.0239349
-0.0250434
-0.0251739
-0.0231329
-0.0243487
-0.0196203
-0.0215013
-0.0158244
-0.0176711
-0.0128746
-0.0142022
-0.0111738
-0.0118657
-0.0107286
-0.0107946
-0.0116064
-0.0109919
-0.0140205
-0.012605
-0.0182757
-0.0158961
-0.0247793
-0.0212171
-0.0340654
-0.0290373
-0.0468087
-0.0399571
-0.0637952
-0.0547308
-0.0854076
-0.07403
-0.111564
-0.0980009
-0.13953
-0.125465
-0.152248
-0.107932
-0.117947
-0.109035
-0.132851
-0.107774
-0.149484
-0.01801
-0.0109026
-0.00995934
-0.10364
-0.167319
-0.0962491
-0.0856151
-0.0719429
-0.0556869
-0.037915
-0.0193975
-0.00102576
0.0159547
0.0416701
0.0306401
-0.210276
-0.22989
-0.246499
-0.258578
-0.264096
-0.261884
-0.251707
-0.233604
-0.176939
-0.208181
-0.133324
0.0417039
0.0507226
-0.123584
-0.1179
0.0501779
-0.113877
0.0506164
0.0508083
0.0499854
0.0502809
0.0493729
0.0496816
0.0485292
0.049036
0.0467863
0.0478184
0.0434953
0.0453692
0.0382999
0.0411427
0.0312027
0.0349799
0.0223499
0.0269857
0.0118727
0.0173097
-0.00024764
0.00602906
-0.0142891
-0.00700321
-0.0306289
-0.0221564
-0.0492538
-0.0396913
-0.0690946
-0.0591451
-0.0876454
-0.0787395
-0.101255
-0.0953176
-0.106052
-0.104952
-0.100072
-0.104377
-0.0854438
-0.0935433
-0.0673136
-0.0764796
-0.0502329
-0.0584543
-0.036299
-0.0428306
-0.0257501
-0.0306274
-0.018085
-0.0215976
-0.0127036
-0.0151439
-0.00911775
-0.0107122
-0.00697439
-0.00788385
-0.00603838
-0.0063664
-0.00617981
-0.00597994
-0.0073027
-0.00662803
-0.00916401
-0.00816691
-0.011252
-0.0102192
-0.0129458
-0.0121812
-0.013822
-0.0134983
-0.013704
-0.0138912
-0.0126951
-0.0133334
-0.0118411
-0.0367793
-0.0269292
-0.0595458
-0.047682
-0.0859509
-0.072326
-0.115087
-0.100258
-0.14538
-0.130216
-0.174474
-0.160256
-0.199317
-0.187629
-0.21673
-0.209132
-0.224202
-0.221814
-0.220597
-0.223789
-0.206353
-0.214714
-0.183556
-0.195824
-0.155587
-0.170014
-0.125624
-0.140662
-0.129515
-0.127531
-0.128212
-0.129579
-0.120659
-0.125159
-0.108075
-0.114866
-0.0925884
-0.100546
-0.0764297
-0.0844673
-0.0613319
-0.0686708
-0.0482417
-0.054509
-0.0373884
-0.042543
-0.0285767
-0.0327479
-0.0215011
-0.0248395
-0.0159435
-0.018541
-0.0118303
-0.0137065
-0.00919634
-0.0103249
-0.00809666
-0.00845468
-0.00847631
-0.00811455
-0.0100169
-0.00913608
-0.0120379
-0.0110239
-0.0135757
-0.0129308
-0.0137207
-0.0138621
-0.0121409
-0.0131309
-0.0094056
-0.0108506
-0.00662399
-0.00795337
-0.00462832
-0.00550162
-0.00365157
-0.00401339
-0.00368459
-0.00354049
-0.00481146
-0.00410112
-0.00722985
-0.00584481
-0.0112018
-0.00900331
-0.0170631
-0.0138728
-0.0252337
-0.0208314
-0.0362175
-0.0303397
-0.050573
-0.0429446
-0.0686884
-0.0591432
-0.0906044
-0.0792268
-0.113728
-0.102331
-0.134221
-0.124611
-0.146295
-0.141793
-0.177182
-0.146981
-0.117927
-0.129988
-0.119762
-0.148234
-0.0171353
-0.00933869
-0.118686
-0.168202
-0.114085
-0.189208
-0.105577
-0.0931545
-0.0773956
-0.0590621
-0.0391223
-0.0189634
0.000349033
0.0175668
0.0313094
-0.110776
0.0491092
0.0412067
-0.236676
-0.257212
-0.273398
-0.283266
-0.285172
-0.278319
-0.262515
-0.238703
-0.208011
-0.00352673
-0.00289596
0.0474273
0.0554501
-0.172664
-0.143169
0.0534359
-0.124974
0.0581387
0.0570967
0.059376
0.0589905
0.0594243
0.059577
0.058899
0.0592537
0.0576807
0.0584002
0.055568
0.056771
0.0520172
0.0540008
0.0467287
0.0495943
0.0397155
0.043429
0.0311275
0.0356075
0.0211112
0.026292
0.00967864
0.0155799
-0.0033897
0.00337009
-0.0184229
-0.0106463
-0.0354316
-0.0267096
-0.0535026
-0.0444418
-0.0704096
-0.0622902
-0.0827905
-0.0774013
-0.0870306
-0.0861049
-0.081521
-0.0854413
-0.0685348
-0.0756814
-0.0527714
-0.0607095
-0.0380771
-0.0451395
-0.0261093
-0.0317226
-0.017006
-0.021223
-0.010333
-0.0133997
-0.00558973
-0.00774938
-0.00236843
-0.00381065
-0.000370333
-0.00123204
0.000609893
0.000237183
0.000689929
0.000757627
-5.61184e-05
0.000413711
-0.00145512
-0.000693228
-0.00310753
-0.00228216
-0.00448776
-0.00386098
-0.00521678
-0.00494448
-0.00522649
-0.00529816
-0.00466262
-0.00498746
-0.00416596
-0.0352667
-0.0257517
-0.0570416
-0.0457251
-0.0820559
-0.0691809
-0.109419
-0.09552
-0.137668
-0.123552
-0.16462
-0.15147
-0.187495
-0.17675
-0.203425
-0.196489
-0.210137
-0.20803
-0.206588
-0.209649
-0.19321
-0.201044
-0.171797
-0.183342
-0.145285
-0.158956
-0.116839
-0.13119
-0.113907
-0.134964
-0.107001
-0.102691
-0.107301
-0.0962548
-0.102538
-0.112016
-0.110514
-0.110761
-0.112064
-0.104008
-0.108023
-0.0928351
-0.0988598
-0.0790953
-0.0861587
-0.0646991
-0.0718717
-0.0511313
-0.057745
-0.0392128
-0.0449419
-0.0291592
-0.0339579
-0.0208281
-0.0247942
-0.013984
-0.0172337
-0.00846544
-0.0110646
-0.00423606
-0.00618808
-0.00135185
-0.00262132
0.000118953
-0.000438861
0.000213397
0.000327099
-0.000791099
-0.000182067
-0.00229386
-0.0015301
-0.00345199
-0.00297093
-0.00350123
-0.00364586
-0.00223194
-0.00301236
-0.000196989
-0.00125247
0.00170591
0.000820096
0.00290598
0.00240818
0.00329493
0.00319955
0.00288327
0.00319195
0.00157686
0.00235152
-0.000801982
0.000533857
-0.00447439
-0.00246142
-0.0097112
-0.00687888
-0.0168357
-0.0130162
-0.0262157
-0.0212206
-0.0382082
-0.0318687
-0.0530499
-0.0452628
-0.0707104
-0.0615694
-0.0894101
-0.0801567
-0.106358
-0.0983614
-0.116356
-0.11276
-0.116904
-0.130068
-0.144506
-0.00234074
-0.132375
-0.166253
-0.131041
-0.189584
-0.125396
-0.213533
-0.115131
-0.100434
-0.0820448
-0.0612571
-0.0393442
-0.0176393
0.00222124
0.018969
0.0316462
0.0401146
0.0509774
0.0453144
-0.263888
-0.284184
-0.298395
-0.304602
-0.301622
-0.289038
-0.267326
-0.237666
-0.201774
-0.162715
-0.0964861
-0.122488
-0.0887636
0.0483115
0.0557904
-0.0821544
-0.0756469
0.0529575
-0.138395
0.06063
0.0584244
0.0643521
0.0627701
0.0666409
0.0657367
0.0674279
0.0672076
0.0670228
0.0673664
0.0656431
0.0664444
0.0633004
0.0646149
0.0596154
0.0616453
0.0543676
0.0571904
0.0475632
0.0511525
0.0393438
0.0436192
0.0298639
0.0347547
0.0191566
0.0246696
0.00704322
0.013294
-0.00676794
0.000363381
-0.0223022
-0.0143444
-0.0387613
-0.030512
-0.0541274
-0.0467555
-0.065254
-0.0604421
-0.0688548
-0.0681445
-0.063771
-0.067322
-0.0524107
-0.0586144
-0.0389541
-0.0457018
-0.0265434
-0.0325009
-0.0164405
-0.0211835
-0.00870997
-0.0122989
-0.00298888
-0.0056259
0.0011292
-0.000753204
0.0039765
0.00269374
0.00580051
0.00500333
0.00677652
0.00638587
0.00700931
0.00698163
0.00655597
0.00686427
0.00553249
0.00610198
0.00423739
0.00489314
0.00310318
0.00362457
0.00246351
0.00271171
0.00236536
0.002357
0.00263816
0.00245211
0.00325123
0.00289966
0.00395462
0.00362452
-0.0163823