/*--------------------------------*- C++ -*----------------------------------*\
  =========                 |
  \\      /  F ield         | OpenFOAM: The Open Source CFD Toolbox
   \\    /   O peration     | Website:  https://openfoam.org
    \\  /    A nd           | Version:  10
     \\/     M anipulation  |
\*---------------------------------------------------------------------------*/
FoamFile
{
    format      ascii;
    class       volScalarField;
    location    "74";
    object      p;
}
// * * * * * * * * * * * * * * * * * * * * * * * * * * * * * * * * * * * * * //

dimensions      [0 2 -2 0 0 0 0];

internalField   nonuniform List<scalar> 
28942
(
-0.00377776
-0.00315207
0.00202139
0.00948001
0.00977994
8.46077e-05
0.000278006
2.18787e-05
0.00270306
0.00279094
-0.00232002
-0.00258877
-0.00297134
-0.00288886
0.000185782
0.000487233
0.00987008
0.0101401
0.00557265
0.00713277
0.00814197
0.00813362
-0.00522501
-0.00505044
-0.00357926
-0.00380319
0.0138685
0.0138175
0.00352633
0.00346899
1.64227e-05
5.06265e-05
0.00074406
0.000302541
0.00713321
0.00833891
0.0108765
0.012835
-8.93583e-06
0.0150297
0.00908075
0.0115787
0.00172812
0.00163972
0.00170252
0.000280546
0.000147797
0.00022325
0.000258258
0.000361232
0.000693935
0.00277465
0.0028458
0.00283573
0.0029907
-0.00235025
-0.00104835
-0.00337799
-0.00322373
-0.00349437
-0.00356753
-0.00356823
-0.00346636
-0.000115252
-0.00181456
-0.000361818
0.000968402
0.00941397
0.00891759
-0.00336959
-0.00357929
-0.00331453
0.00897975
0.00883129
0.0091236
-0.00148235
-0.00109486
-0.000756621
0.00235494
0.00275425
0.00184591
0.000751661
-0.00631758
-0.00754536
0.00107454
0.00379966
0.00484104
0.00562833
0.00401301
0.0041358
0.0061025
0.0054817
-0.00140337
-0.00169286
-0.00197046
-0.00180981
-0.00163643
0.00532405
0.00661486
-0.00785668
0.0112773
0.0104782
0.00577215
0.009369
0.000890813
0.000796935
0.000708031
0.00546186
0.00565459
0.0056487
-0.00322168
-0.00314245
-0.00313485
-0.00261836
-0.00274141
0.015822
0.0138172
0.0132586
0.0148895
0.00163451
0.00471362
0.00341213
0.00506503
0.00474192
0.0154948
0.01579
0.0144489
0.00590641
0.00698525
0.000183823
0.000282213
0.000104046
0.0104905
0.0109933
0.0076581
0.0073102
0.0127673
0.00669103
0.00798117
0.00904144
-0.00190906
-0.00241675
0.00735054
0.00164528
0.00173417
-0.00117467
-0.00143705
-0.000980029
-0.00251615
0.00658392
0.00571129
0.00370521
0.000258275
0.000204156
7.93467e-05
0.000205842
0.00752032
0.00678398
-0.00186843
-0.0019856
-0.00188076
-0.00414302
-0.00368844
6.07012e-05
-0.00285342
-0.000501151
0.00838416
0.00849312
0.00958727
0.00912257
0.00770028
0.00306924
0.0029866
0.00324265
0.00311839
0.00503157
0.00480941
0.00514453
0.00536503
0.00530304
0.00537417
0.00558535
0.00613942
0.00583343
0.00543141
0.00576155
0.00646724
0.00722111
0.00751309
-0.000585353
-0.000566138
-0.002477
0.000208038
5.67524e-05
-0.00199869
-0.00208704
0.000281937
0.000344344
0.000308169
0.000240603
0.00177047
0.00172229
0.00170372
-0.00292021
-0.00310685
-0.00277178
-0.00433808
-0.00481971
-0.00413195
-0.00471872
-0.00648329
-0.00518242
0.0160158
0.0167259
0.0164934
0.000924414
0.00106924
0.000957992
0.0103418
0.00991393
0.0099942
0.00143084
0.00141532
0.00144645
0.00139935
0.00138409
0.00136825
0.00136867
0.00135226
0.0013526
0.00138448
0.00139979
0.00141516
0.0014308
0.00144693
0.0013367
0.00133604
0.00146147
0.00146154
0.00147592
0.00132067
0.00131993
0.00147629
0.00130417
0.00128772
0.00130403
0.00128792
0.00149246
0.00149251
0.00127135
0.0012716
0.0015072
0.00150752
0.0012549
0.00125524
0.00152203
0.00152239
0.00123843
0.00123875
0.00153677
0.00153726
0.00122185
0.00122224
0.00155142
0.00155201
0.00120524
0.00120561
0.00156623
0.00156664
0.0011885
0.00118897
0.00158118
0.00158141
0.00117174
0.00117198
0.00159527
0.00159562
0.00115484
0.00115472
0.00161064
0.00161063
0.00113757
0.00113719
0.00162447
0.00162438
0.00111926
0.00111967
0.001639
0.00163868
0.00110142
0.0011022
0.00162381
0.00163835
0.00165355
0.00165307
0.00159348
0.00160939
0.00156421
0.00157936
0.00153555
0.00155001
0.00150593
0.00152085
0.00147526
0.00149084
0.00144512
0.00146157
0.00141491
0.00143044
0.00138321
0.0013981
0.00135071
0.00136713
0.00131886
0.00133492
0.00128654
0.00130279
0.00125386
0.00127027
0.00122088
0.00123744
0.0011876
0.00120431
0.00115408
0.0011709
0.00111914
0.0011371
0.00110145
0.00108369
0.00108408
0.00113718
0.0011018
0.00111937
0.00117165
0.00115425
0.00120511
0.00118855
0.00123819
0.00122171
0.001271
0.00125466
0.00130351
0.00128733
0.00133548
0.00131965
0.00136759
0.00135177
0.00139953
0.00138371
0.00142975
0.00141449
0.00146109
0.00144653
0.00149158
0.00147597
0.00152146
0.00150662
0.00155086
0.00153627
0.00157992
0.00156535
0.00160898
0.00159413
0.00163694
0.00162318
0.00165136
0.00165351
0.00108338
0.00108404
0.00166682
0.00166476
0.00166835
0.00166768
0.00162197
0.00165205
0.00163673
0.00159169
0.00160722
0.00156281
0.00157694
0.00153391
0.00154849
0.00150428
0.00151918
0.00147412
0.00148926
0.00144323
0.00145903
0.00141259
0.0014288
0.00138209
0.00139651
0.0013494
0.00136578
0.00131743
0.00133347
0.00128515
0.00130135
0.00125252
0.00126889
0.00121961
0.00123611
0.00118642
0.00120306
0.00115307
0.00116977
0.00111852
0.00113592
0.00106562
0.00106572
0.00108267
0.00110062
0.00110116
0.00108374
0.00106602
0.00106595
0.00113686
0.00111875
0.00117077
0.00115353
0.00120395
0.00118739
0.00123696
0.0012205
0.0012697
0.00125338
0.00130217
0.00128598
0.00133432
0.00131833
0.0013661
0.00135026
0.00139782
0.00138188
0.00142848
0.00141313
0.00145921
0.00144456
0.00148976
0.0014746
0.00151966
0.00150479
0.00154908
0.00153445
0.00157803
0.00156364
0.00160648
0.00159233
0.00163441
0.00162045
0.00166137
0.00164834
0.001667
0.0016786
0.00167537
0.00167999
0.00106507
0.00106558
0.00168145
0.00168021
0.00169221
0.00168951
0.0016813
0.00108221
0.00106399
0.00104792
0.00104754
0.00167854
0.00169541
0.00171776
0.00169982
0.00164918
0.00166425
0.00161897
0.0016338
0.00158922
0.00160459
0.0015604
0.00157437
0.00153152
0.00154611
0.00150193
0.0015168
0.00147183
0.00148695
0.00144128
0.00145661
0.00141044
0.00142599
0.00137926
0.0013948
0.00134754
0.00136353
0.00131551
0.00133155
0.00128324
0.00129943
0.00125068
0.00126701
0.00121784
0.0012343
0.00118475
0.00120133
0.00115151
0.00116815
0.00111729
0.00113441
0.00109965
0.00104803
0.00104723
0.00104765
0.00104815
0.00110039
0.00106484
0.00108297
0.00113574
0.00111807
0.00116913
0.00115225
0.00120225
0.00118572
0.00123516
0.00121874
0.0012678
0.00125152
0.00130016
0.00128402
0.00133222
0.00131624
0.00136396
0.00134813
0.0013953
0.00137971
0.00142632
0.00141085
0.00145689
0.00144174
0.00148721
0.00147213
0.00151705
0.0015022
0.00154642
0.00153181
0.00157528
0.00156094
0.0016035
0.00158952
0.001631
0.00161728
0.00165798
0.00164454
0.0016853
0.00167099
0.00170197
0.00169831
0.00169497
0.00169325
0.0010463
0.00104714
0.0017065
0.00170499
0.00170763
0.00171105
0.00171396
0.00164133
0.00171702
0.00169509
0.00170101
0.00169751
0.00167747
0.00169406
0.00164448
0.00166082
0.00161508
0.00162925
0.00158597
0.00160113
0.00155737
0.00157161
0.00152836
0.00154296
0.00149881
0.00151366
0.00146878
0.00148387
0.00143836
0.00145363
0.00140756
0.001423
0.00137634
0.001392
0.00134481
0.00136066
0.0013129
0.00132889
0.00128071
0.00129685
0.00124825
0.00126452
0.00121551
0.00123192
0.00118253
0.00119906
0.0011494
0.00116598
0.00111561
0.00113247
0.00108102
0.00109826
0.00104531
0.00106297
0.00102959
0.00102742
0.00102867
0.00103047
0.00103007
0.00103053
0.00103059
0.00102958
0.00103015
0.00106388
0.00102836
0.00104684
0.00109899
0.00108171
0.0011338
0.00111676
0.00116698
0.00115041
0.00120002
0.00118354
0.00123281
0.00121646
0.00126532
0.00124911
0.00129755
0.00128149
0.00132948
0.00131357
0.0013611
0.00134534
0.00139234
0.0013768
0.00142326
0.00140785
0.00145378
0.00143859
0.00148395
0.00146892
0.00151369
0.00149889
0.00154296
0.0015284
0.00157171
0.00155742
0.00159983
0.00158588
0.00162709
0.00161357
0.00165358
0.00164048
0.00168011
0.00166661
0.00170625
0.00169228
0.00172312
0.00171838
0.00170714
0.00170669
0.00172205
0.00171516
0.00104406
0.00102668
0.00101179
0.001011
0.00171397
0.00172618
0.00175137
0.00166858
0.00173287
0.00172934
0.00171072
0.00170735
0.00168854
0.00168445
0.00167189
0.00168501
0.00163901
0.0016553
0.0016109
0.0016249
0.00158226
0.00159677
0.0015535
0.00156788
0.00152446
0.00153905
0.00149497
0.00150978
0.00146503
0.00148006
0.00143469
0.00144992
0.00140397
0.00141939
0.00137288
0.00138848
0.00134145
0.00135723
0.00130967
0.0013256
0.00127761
0.00129368
0.00124526
0.00126148
0.00121266
0.001229
0.00117981
0.00119627
0.00114674
0.00116331
0.00111351
0.00113015
0.00107895
0.00109628
0.00106137
0.00101196
0.00100998
0.0010115
0.00101332
0.00101286
0.00101307
0.00101341
0.0010125
0.0010625
0.00102675
0.00104597
0.00109743
0.00108007
0.00113128
0.00111474
0.0011644
0.00114788
0.00119729
0.00118089
0.00122993
0.00121365
0.0012623
0.00124616
0.00129438
0.00127839
0.00132616
0.00131033
0.00135763
0.00134195
0.00138876
0.00137326
0.00141954
0.0014042
0.00144995
0.00143481
0.00147999
0.00146503
0.00150961
0.00149487
0.00153877
0.00152427
0.0015674
0.00155317
0.0015954
0.00158151
0.00162262
0.00160913
0.00164892
0.00163592
0.00167467
0.00166203
0.00169935
0.00168561
0.00172426
0.0017133
0.00173934
0.00173382
0.00172028
0.00171741
0.00100823
0.00100949
0.00172316
0.00168401
0.00170719
0.00172725
0.00173535
0.00175761
0.00173996
0.00174694
0.00174302
0.00174927
0.00174603
0.00171842
0.00168404
0.001747
0.001719
0.00167866
0.00167797
0.00166306
0.00167659
0.00163379
0.0016482
0.00160585
0.00161986
0.00157747
0.00159174
0.0015488
0.00156317
0.00151983
0.00153439
0.00149043
0.0015052
0.0014606
0.00147558
0.00143037
0.00144555
0.00139977
0.00141513
0.00136881
0.00138434
0.00133751
0.00135322
0.00130588
0.00132174
0.00127396
0.00128997
0.00124177
0.00125791
0.00120931
0.00122558
0.00117662
0.00119301
0.0011437
0.00116019
0.00111059
0.00112717
0.00107694
0.001094
0.00104179
0.00105947
0.00100664
0.00102439
0.000992565
0.00098888
0.000990914
0.000995174
0.00099389
0.000996452
0.000996039
0.00099626
0.000996493
0.000994608
0.000995599
0.000992218
0.000993497
0.0010256
0.000990718
0.001008
0.00106062
0.00104349
0.00109529
0.00107818
0.00112839
0.00111188
0.00116136
0.00114492
0.00119409
0.00117777
0.00122656
0.00121037
0.00125875
0.0012427
0.00129067
0.00127476
0.00132229
0.00130653
0.00135359
0.001338
0.00138457
0.00136914
0.0014152
0.00139994
0.00144547
0.00143041
0.00147538
0.00146049
0.00150486
0.0014902
0.00153389
0.00151946
0.00156239
0.00154823
0.00159026
0.00157643
0.0016174
0.00160396
0.00164367
0.00163067
0.00166899
0.00165656
0.00169345
0.00168102
0.00171654
0.00170582
0.00173909
0.0017259
0.00175757
0.0017518
0.00172671
0.00173869
0.0017253
0.00100441
0.000987328
0.000974699
0.000972998
0.00172771
0.00173735
0.0017332
0.00174513
0.00175216
0.00176164
0.00176731
0.00176238
0.00172755
0.00173413
0.00174573
0.00173862
0.00173791
0.00168888
0.00171283
0.00167132
0.00167612
0.00165467
0.00166718
0.00162738
0.00164096
0.00159991
0.00161375
0.00157186
0.00158597
0.00154339
0.00155768
0.00151454
0.00152903
0.00148526
0.00149997
0.00145555
0.00147047
0.00142546
0.00144057
0.00139499
0.00141029
0.00136418
0.00137964
0.00133303
0.00134866
0.00130156
0.00131735
0.00126981
0.00128574
0.00123779
0.00125385
0.00120551
0.00122169
0.00117299
0.00118929
0.00114025
0.00115666
0.0011073
0.00112381
0.00107431
0.00109082
0.00103954
0.00105713
0.00102179
0.000975598
0.000971441
0.000973999
0.000978436
0.000977149
0.000979532
0.000979153
0.00097931
0.000979581
0.000977548
0.000978588
0.000976186
0.00102393
0.000988748
0.00100623
0.00105847
0.00104139
0.00109215
0.00107561
0.00112512
0.00110866
0.00115791
0.00114156
0.00119044
0.00117422
0.00122272
0.00120663
0.00125473
0.00123878
0.00128646
0.00127065
0.00131789
0.00130223
0.00134902
0.00133352
0.00137983
0.00136449
0.0014103
0.00139512
0.00144041
0.00142542
0.00147016
0.00145536
0.0014995
0.00148491
0.00152838
0.00151402
0.00155673
0.00154265
0.00158448
0.00157071
0.0016115
0.00159811
0.00163769
0.00162473
0.00166293
0.00165049
0.00168717
0.00167517
0.00170961
0.00169881
0.00173246
0.00171982
0.00175439
0.00174253
0.00176325
0.00175193
0.00177195
0.00176547
0.00173274
0.000969566
0.000971228
0.0017417
0.00173762
0.00175337
0.00173904
0.00174758
0.00175684
0.00175632
0.00176455
0.00177086
0.00177655
0.00178179
0.00177619
0.00173632
0.00172814
0.00176009
0.0017591
0.00173511
0.00172207
0.00173109
0.00168797
0.00170293
0.00166526
0.0016744
0.0016463
0.001658
0.00162026
0.0016334
0.0015933
0.00160691
0.00156557
0.00157953
0.00153732
0.00155152
0.00150863
0.00152305
0.00147949
0.00149413
0.00144993
0.00146478
0.00141999
0.00143502
0.00138968
0.0014049
0.00135903
0.00137441
0.00132805
0.0013436
0.00129677
0.00131246
0.0012652
0.00128103
0.00123337
0.00124933
0.00120128
0.00121737
0.00116896
0.00118516
0.00113641
0.00115272
0.00110366
0.00112007
0.00107077
0.00108722
0.00103722
0.0010543
0.00100217
0.00101954
0.000967512
0.000985313
0.00095464
0.000950088
0.000952544
0.000958833
0.000956652
0.000961492
0.000960438
0.000962587
0.000962195
0.000962377
0.000962646
0.000960768
0.000961764
0.00095807
0.000959266
0.000954188
0.000956357
0.000986615
0.00095206
0.000969405
0.00102197
0.00100375
0.00105565
0.00103921
0.00108867
0.0010722
0.00112148
0.00110512
0.00115406
0.00113782
0.00118639
0.00117027
0.00121846
0.00120247
0.00125026
0.00123441
0.00128179
0.00126608
0.00131303
0.00129746
0.00134396
0.00132855
0.00137458
0.00135933
0.00140487
0.00138979
0.00143482
0.00141991
0.0014644
0.00144968
0.00149357
0.00147906
0.00152229
0.00150802
0.00155049
0.00153649
0.00157809
0.0015644
0.00160498
0.00159166
0.00163107
0.00161816
0.00165621
0.0016438
0.00168033
0.00166842
0.00170288
0.00169189
0.00172469
0.00171382
0.00174551
0.00173431
0.00176742
0.00175745
0.00176532
0.00176464
0.00178134
0.00177184
0.00174393
0.00174818
0.00176437
0.00177115
0.00176249
0.00175425
0.00175827
0.000965396
0.00094777
0.000936765
0.000934907
0.00176727
0.00176694
0.00177438
0.00177953
0.00178501
0.00178741
0.00176791
0.00176609
0.00176918
0.00178897
0.00178623
0.001782
0.00174712
0.00175501
0.001753
0.00172041
0.00173236
0.00171035
0.00172009
0.00168185
0.00169464
0.00165961
0.00167019
0.00163796
0.00164951
0.00161268
0.00162554
0.00158612
0.00159955
0.0015587
0.00157251
0.00153067
0.00154477
0.00150216
0.00151649
0.00147318
0.00148774
0.00144379
0.00145856
0.00141402
0.00142897
0.00138388
0.00139901
0.00135341
0.0013687
0.00132262
0.00133807
0.00129153
0.00130713
0.00126016
0.0012759
0.00122854
0.0012444
0.00119666
0.00121264
0.00116455
0.00118064
0.00113222
0.00114842
0.00109968
0.00111598
0.00106695
0.00108335
0.00103417
0.00105059
0.000999593
0.00101708
0.000982604
0.000938235
0.000933322
0.000936108
0.000942154
0.000940198
0.000944534
0.000943527
0.000945639
0.000945245
0.000945443
0.000945703
0.000944012
0.000944875
0.000941056
0.000942691
0.000939143
0.000984372
0.000949866
0.000967136
0.00101935
0.00100176
0.00105212
0.00103576
0.00108491
0.00106855
0.0011175
0.00110125
0.00114985
0.00113372
0.00118196
0.00116595
0.00121381
0.00119793
0.00124539
0.00122965
0.0012767
0.0012611
0.00130773
0.00129227
0.00133846
0.00132315
0.00136888
0.00135373
0.00139898
0.00138399
0.00142874
0.00141393
0.00145814
0.00144351
0.00148714
0.00147272
0.00151569
0.0015015
0.00154373
0.0015298
0.00157117
0.00155756
0.00159792
0.00158467
0.00162388
0.00161104
0.00164892
0.00163656
0.00167293
0.00166109
0.00169562
0.0016845
0.00171717
0.00170658
0.00173772
0.00172748
0.00175621
0.00174782
0.00177787
0.00176249
0.00177377
0.00178933
0.00179917
0.00179598
0.0017903
0.00177655
0.00177074
0.00177069
0.00175648
0.00175899
0.00093092
0.000932753
0.00178318
0.00176671
0.00176874
0.00177467
0.00177699
0.00178359
0.00178905
0.0017909
0.00179176
0.00177568
0.00176736
0.00177036
0.00178023
0.00179008
0.00179871
0.00178013
0.00178812
0.00179292
0.00179913
0.0018026
0.00175847
0.00176181
0.00175816
0.00174095
0.00174521
0.0017154
0.00172825
0.00169918
0.00170848
0.001675
0.00168713
0.00165239
0.0016635
0.00162967
0.00164136
0.0016047
0.0016174
0.00157845
0.00159172
0.0015513
0.00156499
0.00152351
0.0015375
0.00149518
0.00150943
0.00146639
0.00148086
0.00143718
0.00145186
0.00140759
0.00142245
0.00137764
0.00139268
0.00134736
0.00136256
0.00131677
0.00133212
0.00128589
0.00130139
0.00125474
0.00127037
0.00122333
0.00123908
0.00119168
0.00120755
0.00115979
0.00117578
0.00112769
0.00114378
0.00109538
0.00111157
0.00106289
0.00107917
0.00103025
0.00104658
0.000996913
0.0010139
0.000963097
0.000979771
0.000928592
0.000945398
0.000916466
0.00091186
0.000914023
0.000921647
0.000919001
0.000925321
0.000923743
0.000927608
0.000926607
0.00092869
0.000928307
0.000928503
0.000928756
0.000927083
0.000927941
0.000924034
0.000925811
0.000920067
0.000922083
0.000915816
0.000917988
0.000947209
0.00091288
0.00093087
0.000982225
0.000964386
0.00101568
0.000999301
0.00104831
0.00103199
0.00108086
0.00106463
0.0011132
0.00109708
0.00114532
0.00112931
0.00117719
0.0011613
0.0012088
0.00119305
0.00124016
0.00122453
0.00127124
0.00125575
0.00130204
0.0012867
0.00133255
0.00131736
0.00136276
0.00134772
0.00139266
0.00137778
0.00142223
0.00140751
0.00145144
0.00143691
0.00148025
0.00146592
0.00150862
0.00149453
0.00153649
0.00152265
0.00156377
0.00155024
0.00159038
0.00157719
0.0016162
0.00160342
0.00164112
0.00162882
0.00166503
0.00165325
0.00168773
0.00167658
0.00170926
0.00169868
0.00172956
0.0017196
0.00174753
0.00173904
0.00176465
0.00175617
0.00176635
0.001783
0.0017896
0.00180172
0.00179517
0.0017684
0.00176959
0.00177958
0.00177618
0.00177879
0.000925856
0.000909521
0.000898971
0.000896091
0.00178541
0.00178647
0.00179261
0.00179677
0.00179945
0.00180259
0.0017794
0.00177179
0.00178739
0.00178923
0.00179562
0.00178913
0.00179746
0.00180763
0.00180352
0.00179776
0.00180625
0.00176945
0.00176252
0.00175084
0.00174785
0.00175626
0.00172795
0.00173761
0.00170871
0.0017188
0.00168975
0.00169961
0.00166708
0.00167865
0.00164433
0.00165567
0.00162116
0.00163297
0.00159635
0.00160895
0.00157035
0.0015835
0.00154346
0.00155702
0.00151589
0.00152977
0.00148777
0.00150191
0.00145917
0.00147354
0.00143015
0.00144473
0.00140076
0.00141552
0.00137101
0.00138594
0.00134093
0.00135603
0.00131056
0.0013258
0.0012799
0.00129528
0.00124897
0.00126448
0.00121779
0.00123343
0.00118637
0.00120213
0.00115473
0.00117059
0.00112287
0.00113884
0.00109081
0.00110687
0.00105855
0.00107471
0.00102612
0.00104237
0.000993637
0.00100991
0.000960059
0.00097668
0.000942634
0.00089983
0.00089497
0.000897734
0.000905112
0.000902575
0.000908463
0.000906952
0.000910701
0.000909726
0.000911747
0.000911376
0.000911578
0.000911815
0.000910218
0.00091104
0.000907755
0.000909131
0.000903473
0.000905787
0.000900965
0.000944548
0.000910362
0.00092841
0.000979366
0.000961822
0.00101179
0.000995603
0.00104424
0.00102805
0.00107653
0.00106043
0.00110862
0.00109262
0.00114048
0.0011246
0.00117211
0.00115634
0.00120348
0.00118784
0.00123459
0.00121909
0.00126544
0.00125007
0.00129601
0.00128078
0.00132629
0.00131121
0.00135629
0.00134135
0.00138598
0.0013712
0.00141534
0.00140073
0.00144435
0.00142992
0.00147297
0.00145874
0.00150115
0.00148715
0.00152884
0.00151509
0.00155595
0.0015425
0.0015824
0.0015693
0.00160808
0.00159538
0.00163289
0.00162064
0.00165669
0.00164495
0.00167934
0.0016682
0.00170078
0.00169025
0.00172088
0.00171105
0.00173899
0.00173029
0.00175492
0.00174745
0.00176796
0.00176104
0.00178616
0.00177853
0.00180163
0.0017948
0.00178326
0.00179104
0.00178844
0.00177835
0.00177966
0.000892192
0.000893657
0.00179676
0.00178582
0.00178833
0.00179505
0.00179544
0.00180086
0.00180463
0.00180715
0.00180774
0.00179063
0.00177924
0.00177818
0.00178492
0.00178409
0.00179882
0.00178927
0.00180328
0.00179551
0.00180449
0.00179644
0.0018122
0.00181184
0.0018086
0.00180401
0.00177955
0.0017688
0.00177844
0.00175042
0.00174557
0.00173505
0.00174675
0.00171884
0.0017272
0.00170011
0.00170976
0.00168045
0.00169053
0.00165843
0.00166965
0.00163574
0.00164714
0.00161236
0.00162422
0.00158766
0.00160019
0.00156187
0.00157491
0.00153521
0.00154866
0.00150787
0.00152164
0.00147996
0.001494
0.00145157
0.00146584
0.00142275
0.00143723
0.00139356
0.00140822
0.00136402
0.00137885
0.00133416
0.00134915
0.00130401
0.00131914
0.00127358
0.00128885
0.00124289
0.00125828
0.00121195
0.00122747
0.00118078
0.00119641
0.00114938
0.00116512
0.00111777
0.00113362
0.00108597
0.00110191
0.00105397
0.00107
0.0010218
0.00103792
0.000989504
0.00100567
0.000957214
0.000973305
0.000922765
0.000939792
0.000889554
0.000906348
0.000878236
0.00087203
0.000875461
0.00088387
0.000880879
0.00088846
0.000886502
0.000891647
0.000890164
0.000893808
0.00089287
0.000894817
0.000894458
0.000894664
0.000894887
0.000893366
0.000894155
0.000891028
0.000892319
0.0008876
0.000889462
0.000882176
0.000884948
0.000876994
0.000879569
0.000907858
0.000874579
0.000891567
0.000941602
0.000925217
0.000975591
0.000958852
0.00100774
0.000991641
0.00103993
0.00102387
0.00107195
0.00105598
0.00110377
0.00108791
0.00113538
0.00111962
0.00116675
0.00115111
0.00119787
0.00118236
0.00122873
0.00121335
0.00125933
0.00124409
0.00128967
0.00127456
0.00131972
0.00130475
0.00134949
0.00133467
0.00137896
0.00136429
0.00140811
0.0013936
0.00143691
0.00142259
0.00146534
0.00145121
0.00149333
0.00147942
0.00152083
0.00150717
0.00154777
0.0015344
0.00157405
0.00156103
0.00159959
0.00158695
0.00162426
0.00161207
0.00164795
0.00163627
0.00167052
0.00165942
0.00169186
0.00168139
0.00171181
0.00170206
0.00172994
0.00172117
0.00174599
0.00173832
0.00176007
0.00175304
0.001773
0.00176775
0.00177282
0.00180055
0.00180173
0.00180249
0.00179649
0.00178795
0.00178925
0.0018027
0.00179504
0.00179736
0.000886619
0.000869563
0.000860557
0.000858284
0.00180417
0.00180381
0.00180863
0.00181194
0.00181366
0.00181381
0.00177722
0.00176936
0.00176874
0.00177957
0.00179017
0.0018013
0.00180998
0.00180247
0.00180841
0.00181759
0.00181502
0.00180896
0.00180603
0.00178729
0.00179275
0.00178918
0.00177097
0.00176472
0.00175452
0.00176795
0.00173853
0.00174434
0.00172577
0.00173361
0.00170939
0.0017178
0.00169078
0.00170033
0.00167093
0.00168107
0.00164929
0.00166031
0.0016267
0.00163811
0.00160325
0.00161513
0.00157867
0.00159112
0.00155307
0.001566
0.00152662
0.00153996
0.0014995
0.00151316
0.0014718
0.00148573
0.00144362
0.00145779
0.00141502
0.00142939
0.00138604
0.0014006
0.00135672
0.00137144
0.00132709
0.00134196
0.00129717
0.00131218
0.00126698
0.00128212
0.00123653
0.0012518
0.00120584
0.00122123
0.00117492
0.00119042
0.00114378
0.00115939
0.00111243
0.00112815
0.00108089
0.0010967
0.00104916
0.00106506
0.00101727
0.00103325
0.000985238
0.00100128
0.000953319
0.000969243
0.000919689
0.000936694
0.000902689
0.000862196
0.000855656
0.000859478
0.000867858
0.000865028
0.000871769
0.000869937
0.000874863
0.000873432
0.000876933
0.000876033
0.000877906
0.000877558
0.000877765
0.000877975
0.000876518
0.000877278
0.000874207
0.000875491
0.00087093
0.000872694
0.000865919
0.000868642
0.000863103
0.000905389
0.000871762
0.000889263
0.000938709
0.000921934
0.000971443
0.0009554
0.00100346
0.000987459
0.00103538
0.00101946
0.00106713
0.0010513
0.00109869
0.00108296
0.00113003
0.00111441
0.00116114
0.00114563
0.001192
0.00117662
0.00122261
0.00120736
0.00125296
0.00123784
0.00128306
0.00126807
0.00131288
0.00129802
0.00134241
0.00132771
0.00137166
0.0013571
0.00140059
0.00138619
0.00142919
0.00141496
0.0014574
0.00144337
0.0014852
0.00147139
0.00151251
0.00149895
0.00153927
0.00152599
0.00156538
0.00155244
0.00159077
0.00157821
0.00161531
0.00160319
0.00163888
0.00162726
0.00166136
0.0016503
0.0016826
0.00167218
0.00170243
0.00169274
0.00172054
0.00171176
0.00173667
0.00172891
0.00175098
0.00174396
0.0017627
0.00175758
0.00177159
0.00176689
0.0017843
0.00177345
0.00179064
0.00178237
0.00177671
0.00180845
0.00180918
0.00179709
0.00179833
0.000853069
0.000855201
0.00180647
0.00180384
0.00180582
0.00181229
0.00181166
0.00181591
0.00181851
0.00181959
0.00181912
0.00177188
0.00176216
0.00175642
0.001774
0.00176797
0.00177886
0.00177019
0.00178382
0.00178948
0.00180281
0.00180822
0.00181527
0.00181291
0.00182128
0.00181684
0.00180994
0.00180347
0.00179408
0.00178716
0.00179831
0.0017691
0.00176905
0.00175894
0.00174792
0.00174162
0.00175656
0.00172953
0.00173503
0.00171602
0.0017234
0.00169949
0.001708
0.00168106
0.00169051
0.00166119
0.00167133
0.00163978
0.00165068
0.0016173
0.00162867
0.00159386
0.00160573
0.00156939
0.00158178
0.00154397
0.00155681
0.00151773
0.00153097
0.00149082
0.00150438
0.00146335
0.00147717
0.00143538
0.00144944
0.001407
0.00142126
0.00137824
0.00139268
0.00134915
0.00136375
0.00131975
0.0013345
0.00129007
0.00130496
0.00126012
0.00127514
0.00122992
0.00124507
0.00119949
0.00121475
0.00116883
0.0011842
0.00113795
0.00115343
0.00110687
0.00112245
0.0010756
0.00109127
0.00104415
0.00105991
0.00101254
0.00102837
0.000980785
0.000996687
0.000948992
0.000964885
0.000916638
0.000933086
0.000883746
0.000899672
0.000850369
0.000867038
0.0008399
0.000833701
0.000837228
0.000846182
0.000842821
0.000851294
0.000849034
0.000855106
0.000853281
0.000858095
0.000856722
0.000860081
0.000859217
0.000861019
0.000860684
0.000860887
0.000861088
0.000859693
0.000860422
0.00085746
0.000858704
0.000854264
0.00085597
0.000850237
0.000852386
0.000844554
0.000847416
0.000839048
0.000841729
0.000869097
0.000836428
0.000852697
0.000902428
0.000885573
0.000935309
0.000918748
0.000967179
0.000951281
0.000998976
0.000983105
0.00103063
0.00101484
0.00106211
0.00104641
0.00109339
0.00107779
0.00112446
0.00110897
0.0011553
0.00113993
0.0011859
0.00117065
0.00121626
0.00120113
0.00124636
0.00123136
0.0012762
0.00126134
0.00130578
0.00129105
0.00133509
0.0013205
0.00136411
0.00134966
0.00139282
0.00137853
0.0014212
0.00140708
0.00144921
0.00143528
0.0014768
0.00146309
0.00150392
0.00149045
0.00153049
0.00151731
0.00155644
0.00154358
0.00158167
0.00156919
0.00160608
0.00159402
0.00162953
0.00161796
0.0016519
0.00164089
0.00167305
0.00166268
0.0016928
0.00168315
0.00171087
0.00170209
0.00172705
0.00171925
0.00174132
0.00173441
0.00175312
0.00174771
0.00176187
0.00175789
0.00176879
0.00176556
0.00176659
0.00181539
0.00181574
0.00178228
0.00177614
0.00180574
0.00180686
0.00181351
0.00181192
0.00181371
0.000847553
0.000830872
0.000822786
0.000819902
0.00181955
0.00181893
0.00182249
0.00182444
0.00182481
0.00182377
0.0017612
0.00175511
0.00174297
0.00174894
0.00177646
0.00178047
0.00179557
0.00179466
0.00180947
0.00181507
0.00181875
0.00182373
0.00181798
0.00181105
0.00179951
0.00179466
0.00178503
0.00176786
0.00177422
0.00180689
0.00175657
0.00173982
0.00175789
0.00176273
0.00174489
0.0017416
0.00173212
0.00174238
0.00171996
0.00172578
0.00170589
0.00171337
0.00168938
0.00169789
0.00167106
0.00168045
0.00165123
0.00166135
0.00162998
0.00164079
0.00160759
0.00161893
0.00158423
0.00159606
0.00155988
0.00157219
0.00153462
0.00154737
0.00150858
0.00152171
0.00148189
0.00149533
0.00145462
0.00146834
0.00142688
0.00144083
0.00139872
0.00141287
0.00137019
0.00138452
0.00134133
0.00135582
0.00131217
0.0013268
0.00128273
0.0012975
0.00125303
0.00126793
0.00122309
0.00123811
0.00119292
0.00120805
0.00116253
0.00117776
0.00113192
0.00114726
0.00110111
0.00111656
0.00107012
0.00108565
0.00103895
0.00105456
0.00100761
0.00102331
0.000976149
0.000991907
0.000944586
0.000960383
0.000913019
0.000928827
0.000880334
0.000896474
0.000863983
0.000824278
0.000817533
0.000821441
0.000830115
0.000827111
0.000834717
0.00083256
0.000838477
0.000836697
0.000841351
0.000840032
0.000843259
0.000842428
0.000844162
0.000843838
0.000844039
0.00084423
0.000842897
0.000843595
0.000840761
0.000841951
0.000837676
0.000839331
0.000833784
0.000835838
0.000828388
0.000831265
0.000825452
0.000866395
0.000834097
0.000850083
0.000899411
0.000882706
0.000931117
0.000915237
0.000962775
0.000946967
0.000994309
0.000978574
0.00102569
0.00101003
0.00105689
0.00104133
0.0010879
0.00107244
0.0011187
0.00110334
0.00114927
0.00113403
0.0011796
0.00116449
0.0012097
0.0011947
0.00123955
0.00122468
0.00126914
0.0012544
0.00129848
0.00128387
0.00132755
0.00131307
0.00135634
0.001342
0.00138482
0.00137065
0.00141298
0.00139897
0.00144078
0.00142696
0.00146817
0.00145456
0.0014951
0.00148173
0.00152149
0.0015084
0.00154727
0.00153449
0.00157235
0.00155994
0.00159661
0.00158462
0.00161995
0.00160844
0.00164222
0.00163126
0.00166329
0.00165295
0.00168296
0.00167334
0.00170101
0.00169224
0.00171723
0.0017094
0.00173149
0.00172463
0.00174335
0.00173782
0.00175246
0.00174825
0.00175851
0.0017561
0.00176087
0.00175975
0.00176639
0.00175799
0.00175963
0.00175455
0.00175959
0.00182154
0.00182082
0.00181374
0.00181478
0.00081486
0.000817255
0.00181984
0.00181924
0.00182098
0.00182613
0.00182552
0.00182839
0.00182962
0.00182929
0.00182734
0.00173345
0.00173695
0.00173538
0.00175114
0.00175665
0.00176553
0.00178644
0.00178843
0.0018022
0.00180573
0.00181439
0.00181979
0.00182513
0.00181846
0.00180994
0.00180174
0.00179102
0.00177835
0.00176549
0.00174758
0.00175846
0.00174749
0.00181486
0.00175274
0.0017284
0.00174374
0.00173965
0.00174417
0.00174707
0.00173248
0.00173716
0.00172287
0.00172907
0.00171007
0.00171649
0.00169565
0.00170319
0.00167913
0.00168764
0.00166086
0.00167022
0.00164108
0.00165117
0.00161993
0.00163068
0.00159765
0.00160894
0.00157437
0.00158615
0.00155014
0.00156239
0.00152505
0.00153772
0.00149921
0.00151224
0.00147272
0.00148606
0.00144567
0.00145928
0.00141815
0.00143199
0.00139022
0.00140425
0.00136192
0.00137613
0.0013333
0.00134767
0.00130438
0.00131889
0.00127519
0.00128983
0.00124575
0.00126051
0.00121606
0.00123095
0.00118616
0.00120115
0.00115603
0.00117114
0.0011257
0.00114091
0.00109517
0.00111048
0.00106446
0.00107985
0.00103357
0.00104905
0.00100252
0.00101808
0.000971344
0.000986959
0.00094006
0.000955723
0.000908773
0.000924414
0.000876693
0.000892674
0.000844714
0.000860794
0.0008122
0.000828238
0.000801974
0.000795655
0.000799277
0.000808478
0.000805027
0.000813838
0.000811383