/*--------------------------------*- C++ -*----------------------------------*\
  =========                 |
  \\      /  F ield         | OpenFOAM: The Open Source CFD Toolbox
   \\    /   O peration     | Website:  https://openfoam.org
    \\  /    A nd           | Version:  10
     \\/     M anipulation  |
\*---------------------------------------------------------------------------*/
FoamFile
{
    format      ascii;
    class       volScalarField;
    location    "7.5";
    object      p;
}
// * * * * * * * * * * * * * * * * * * * * * * * * * * * * * * * * * * * * * //

dimensions      [0 2 -2 0 0 0 0];

internalField   nonuniform List<scalar> 
14667
(
0.229566
0.23895
-0.0147519
-0.0119125
-0.00902098
0.197261
0.184648
-0.0128331
-0.00122634
-0.00315979
0.201097
0.215023
0.296223
0.227875
-0.0172421
0.182575
0.189705
0.0202137
0.010782
0.191
0.18347
0.263848
0.200187
0.191719
-0.387537
-0.399116
-0.433706
-0.412999
-0.401505
0.563639
0.527461
0.515218
-0.332783
-0.343003
-0.35637
-0.31749
-0.333425
0.0039392
-0.0112394
0.00361967
0.0187452
0.0384214
0.693185
0.714445
0.810297
0.778541
0.676851
-0.379456
-0.391494
-0.407022
-0.38322
0.635902
0.58213
0.539641
-0.152777
-0.192923
-0.268837
-0.247681
-0.361299
-0.352529
-0.399859
-0.386641
0.266397
0.325314
0.425913
0.35811
0.227592
0.366406
0.245621
0.487891
0.471462
0.46527
0.885232
0.816798
-0.433185
-0.45073
-0.426216
-0.417644
0.482009
0.491674
0.0123147
0.00649156
0.00414878
-0.00855635
-0.00693172
-0.441304
-0.43682
-0.372475
-0.370992
-0.360366
-0.366761
0.0245167
0.0338402
0.0225936
0.0224387
0.0737343
0.0743006
0.0850808
0.0891916
0.0846808
0.0900792
-0.290074
-0.234382
0.427602
0.462407
0.444741
0.417943
0.408381
0.397911
-0.0224784
-0.0278039
-0.0215864
-0.0196862
-0.0115306
-0.0159587
-0.063133
-0.0750271
-0.0722748
-0.0182875
-0.0250112
-0.0179681
0.0235255
0.0233669
0.0244458
0.0255419
0.0256189
0.0245048
0.0265809
0.0276751
0.0280352
0.0267918
0.0288334
0.0300614
0.0306101
0.0292876
0.0313181
0.0326303
0.0335737
0.0320426
0.034329
0.0358131
0.0366517
0.0350508
0.0374703
0.0393257
0.0403216
0.0384086
0.0412907
0.0434022
0.0445952
0.04238
0.045671
0.0480751
0.0494346
0.0469648
0.0506656
0.0536268
0.054713
0.0519659
0.0567936
0.0602151
0.0605138
0.0574426
0.0632252
0.0666163
0.066925
0.0635152
0.0705284
0.0703227
0.0216669
0.0215626
0.0740987
0.0216899
0.0208154
0.0207898
0.0223343
0.0214584
0.0695499
0.0622872
0.0659263
0.0558833
0.0586799
0.0499886
0.0529043
0.0451624
0.0475132
0.0408634
0.0429393
0.0369981
0.0389158
0.0338441
0.0354512
0.031122
0.0324657
0.0285859
0.0298261
0.0263101
0.0274278
0.0242712
0.0253001
0.0233104
0.0206528
0.0207124
0.0235395
0.0225991
0.0255888
0.024513
0.0278136
0.0267281
0.0303146
0.0290416
0.0331428
0.0316787
0.0363926
0.0347292
0.0400891
0.0381729
0.0443703
0.0421492
0.0493446
0.046773
0.0547833
0.0520378
0.0605626
0.0576239
0.066591
0.0634632
0.0701291
0.0199658
0.0199761
0.0735982
0.0780197
0.0205766
0.019771
0.0198468
0.0772587
0.0685912
0.0612591
0.0648982
0.0548498
0.0580224
0.0491607
0.0517942
0.0444692
0.0467181
0.0404037
0.0423678
0.0369997
0.0385922
0.0337006
0.0352618
0.0309257
0.0322709
0.028454
0.0296579
0.0262275
0.0273148
0.024203
0.0251957
0.022281
0.0232408
0.0214092
0.0199028
0.0199498
0.0216712
0.0207868
0.023482
0.0225668
0.0255215
0.0244716
0.027787
0.026638
0.0302913
0.0290071
0.0331086
0.0316577
0.0363061
0.0346572
0.0399607
0.0380714
0.0441405
0.0419808
0.0489536
0.0464609
0.0543284
0.0516003
0.0599075
0.057105
0.0659613
0.0628879
0.0725555
0.0692292
0.0808366
0.079171
0.0757578
0.0725027
0.078115
0.0817559
0.0190773
0.0844865
0.0826197
0.0189946
0.0198745
0.0204503
0.0196406
0.0190665
0.0191381
0.0767149
0.0777874
0.0748859
0.0670982
0.0709345
0.0598137
0.0634061
0.0535676
0.0564257
0.0483579
0.0508656
0.0438241
0.0460127
0.0398734
0.0417805
0.0364498
0.0380973
0.0333534
0.0348494
0.0306493
0.0319591
0.0282329
0.0294111
0.0260415
0.0271128
0.024033
0.025019
0.0221634
0.0230842
0.0212884
0.0191699
0.019137
0.0191772
0.0215768
0.0207111
0.0233769
0.0224579
0.0253791
0.0243478
0.0276015
0.0264619
0.0300789
0.0288062
0.0328675
0.0314309
0.0360266
0.0343978
0.0396166
0.0377644
0.0436834
0.0415888
0.0482815
0.0459114
0.0534187
0.0507948
0.0587965
0.0561009
0.0646758
0.0616513
0.0707515
0.0676735
0.0769715
0.0737188
0.0833179
0.0801442
0.0821279
0.0810779
0.0791697
0.0183588
0.01829
0.0857348
0.0861496
0.0883182
0.089547
0.0188814
0.0863967
0.0821138
0.0836466
0.0805611
0.0724266
0.0764699
0.0649939
0.0686238
0.05824
0.061514
0.0524348
0.0551742
0.0474376
0.0498664
0.0430399
0.0451617
0.0392255
0.0410655
0.0358979
0.0375071
0.0329357
0.034373
0.0303067
0.0315836
0.0279443
0.0290964
0.0257952
0.0268461
0.0238204
0.024789
0.021991
0.0228918
0.0203003
0.0211321
0.0187412
0.0195006
0.0181499
0.018346
0.0182648
0.0184179
0.0183988
0.018401
0.0181974
0.0197664
0.0189702
0.0214271
0.0205846
0.0232141
0.0223016
0.0251823
0.024173
0.0273583
0.0262423
0.0297825
0.028537
0.0325029
0.0311028
0.0355715
0.0339909
0.0390373
0.0372524
0.042936
0.0409316
0.0472871
0.0450545
0.0520905
0.0496358
0.0572457
0.0546309
0.062719
0.0599538
0.0683883
0.0655447
0.0741729
0.0712068
0.0799634
0.0771002
0.0826468
0.0180126
0.0864862
0.0856914
0.0899444
0.0849552
0.0883486
0.0921841
0.018084
0.01735
0.0174567
0.0928248
0.0921598
0.0185845
0.0178486
0.0875976
0.0866229
0.0893851
0.0845101
0.0768113
0.0806843
0.069355
0.0730083
0.0625114
0.0658442
0.0564496
0.059387
0.0510685
0.0536675
0.0463156
0.0486223
0.0421395
0.0441553
0.0385015
0.0402596
0.0353056
0.0368545
0.0324593
0.0338424
0.0299116
0.0311514
0.0276101
0.0287334
0.0255092
0.026537
0.0235758
0.0245234
0.0217809
0.0226639
0.0201193
0.0209335
0.0193375
0.0174353
0.0171429
0.0173008
0.0176328
0.0175503
0.0176917
0.017679
0.0176174
0.0176661
0.0175442
0.0196213
0.0188409
0.0212425
0.0204153
0.0230028
0.0221036
0.024932
0.0239448
0.0270568
0.025968
0.0294141
0.0282041
0.0320451
0.030693
0.0349909
0.0334766
0.0382871
0.0365936
0.0419618
0.0400761
0.0460268
0.0439464
0.0504637
0.0482009
0.0552575
0.0528147
0.0603798
0.0577885
0.0656229
0.063008
0.0709099
0.0682567
0.0760753
0.0735478
0.0805302
0.0784529
0.0826395
0.0909901
0.0904851
0.0167504
0.0166434
0.0942513
0.0930855
0.0960761
0.0884991
0.0938628
0.0964657
0.0952275
0.0169578
0.0921646
0.0861193
0.016474
0.0163048
0.0912676
0.0924533
0.0856995
0.0790471
0.0823998
0.0724466
0.0757259
0.0659536
0.0691625
0.0598846
0.0628453
0.0544332
0.0570922
0.0494679
0.0518874
0.0450345
0.0471837
0.0411287
0.0430182
0.0376935
0.039357
0.034649
0.0361272
0.0319229
0.0332499
0.029464
0.0306629
0.0272288
0.028321
0.0251806
0.0261834
0.0232909
0.0242177
0.0215353
0.0223979
0.0199108
0.0207071
0.0183945
0.0191418
0.0176692
0.0167512
0.0166222
0.0169333
0.0168564
0.016985
0.0169764
0.016912
0.0169596
0.0168408
0.0165203
0.0179357
0.0172116
0.0194332
0.018681
0.0210238
0.0202136
0.0227483
0.0218679
0.0246308
0.0236686
0.0266956
0.0256388
0.0289736
0.027806
0.0314983
0.0302033
0.0343003
0.0328632
0.0374035
0.0358133
0.0408266
0.0390742
0.0445817
0.0426631
0.0486537
0.0465802
0.0530354
0.0508039
0.0577193
0.0553471
0.0625015
0.0601188
0.0672743
0.0649014
0.0718438
0.0695945
0.0758468
0.073951
0.0791112
0.0775828
0.0871356
0.0800629
0.0799459
0.0956164
0.0952945
0.0986589
0.0979331
0.10022
0.0983235
0.100033
0.0888104
0.0962517
0.0979779
0.0938262
0.0800629
0.0875693
0.0167762
0.0806227
0.0163727
0.0158338
0.0156702
0.0157168
0.0158484
0.0740514
0.0161225
0.096039
0.0917744
0.083302
0.0787054
0.0812395
0.0733498
0.0760534
0.0679105
0.0706318
0.0623606
0.0651321
0.0570874
0.0596731
0.0521926
0.0545965
0.0476711
0.0498795
0.0436042
0.0455781
0.0399946
0.0417452
0.0367866
0.0383443
0.0339154
0.0353131
0.0313204
0.0325864
0.0289591
0.0301128
0.0267979
0.0278555
0.0248085
0.0257834
0.0229675
0.0238708
0.0212568
0.0220966
0.0196678
0.0204472
0.0181756
0.0189122
0.0174474
0.0160924
0.015974
0.0162547
0.0161884
0.0162996
0.0162913
0.0162373
0.0162815
0.0160756
0.016165
0.0159696
0.0177611
0.0170573
0.019214
0.0184754
0.0207715
0.0199785
0.0224542
0.0215959
0.0242833
0.0233494
0.0262798
0.0252593
0.0284685
0.0273487
0.0308745
0.0296431
0.0335186
0.0321658
0.0364162
0.0349352
0.0395797
0.0379641
0.0430212
0.0412655
0.0467376
0.0448463
0.0507164
0.0486946
0.0549327
0.0527999
0.0592568
0.0570939
0.0634765
0.061397
0.0674981
0.0655381
0.0709981
0.0693491
0.0732825
0.0723208
0.0733408
0.0736332
0.0729015
0.100384
0.100247
0.0152023
0.0150724
0.0694985
0.103166
0.102702
0.104229
0.102652
0.103366
0.0997247
0.100241
0.084929
0.0940027
0.0949866
0.0871767
0.0799719
0.0154934
0.101008
0.0859331
0.0764034
0.0751704
0.0761545
0.0718679
0.0736833
0.0677702
0.0698051
0.0633813
0.0656138
0.0587509
0.0610799
0.0541736
0.0564403
0.0498061
0.051959
0.045738
0.0477282
0.0420507
0.0438443
0.0387492
0.0403543
0.0357853
0.0372285
0.033102
0.0344121
0.0306499
0.0318494
0.0283965
0.0295
0.026318
0.0273368
0.0243941
0.0253379
0.0226074
0.0234847
0.0209435
0.0217609
0.0193904
0.0201538
0.0179261
0.0186489
0.0165681
0.0172322
0.0152972
0.015922
0.0148795
0.0152119
0.0150545
0.0154548
0.0153473
0.0155964
0.0155393
0.0156376
0.0156289
0.0155851
0.0156235
0.0154336
0.0155221
0.0153207
0.0149231
0.0162124
0.0155614
0.017548
0.0168701
0.018967
0.0182458
0.0204868
0.0197135
0.0221231
0.0212894
0.0238932
0.0229905
0.025815
0.0248341
0.0279069
0.0268387
0.030186
0.0290223
0.0326659
0.0314004
0.035354
0.0339837
0.0382593
0.0367789
0.0413939
0.0397974
0.0447627
0.0430496
0.0483507
0.0465315
0.0521051
0.0502125
0.055917
0.0540136
0.0596016
0.0577868
0.0630241
0.0613581
0.0658305
0.064547
0.0673186
0.0668212
0.0672092
0.0673128
0.0676694
0.0146901
0.105223
0.105237
0.0758676
0.0860562
0.107745
0.10742
0.108203
0.10667
0.10635
0.1027
0.102311
0.095663
0.0955644
0.0874305
0.0703216
0.0794931
0.0678578
0.0150877
0.0147633
0.0141591
0.0144865
0.0143128
0.106025
0.0744178
0.0644903
0.0674619
0.0664306
0.0674198
0.0677582
0.0654091
0.0665772
0.0624482
0.06398
0.05899
0.0607854
0.0551434
0.0570961
0.0511964
0.0531677
0.0473455
0.0492498
0.0437221
0.0454987
0.0404098
0.0420248
0.0374159
0.0388748
0.0347017
0.036027
0.0322149
0.0334328
0.029915
0.0310434
0.0277784
0.0288273
0.0257906
0.0267667
0.0239391
0.0248486
0.0222122
0.0230608
0.0205983
0.0213918
0.0190857
0.0198301
0.0176629
0.0183635
0.0163383
0.0169911
0.0157048
0.0851449
0.0716891
0.0613335
0.0142883
0.0139074
0.014104
0.014606
0.0144563
0.0148349
0.014732
0.0149608
0.01491
0.0149997
0.0149908
0.0149526
0.0149872
0.0148136
0.0148954
0.0145911
0.0147089
0.0144575
0.0160134
0.015382
0.0173129
0.0166558
0.0186946
0.0179924
0.0201722
0.0194209
0.0217577
0.0209507
0.0234642
0.022595
0.025306
0.0243674
0.0272964
0.0262821
0.0294455
0.0283508
0.0317589
0.0305816
0.0342409
0.032979
0.0368962
0.0355463
0.0397373
0.0382928
0.0427718
0.0412307
0.0459826
0.0443582
0.0493002
0.0476346
0.0526034
0.0509631
0.055723
0.0541969
0.0585024
0.0571645
0.0606495
0.0596934
0.061291
0.0612201
0.0610184
0.0610957
0.0626511
0.0616999
0.0576276
0.0619152
0.0499775
0.0510491
0.0430056
0.110134
0.110265
0.013729
0.0135811
0.112192
0.111921
0.111932
0.110297
0.109234
0.105077
0.103936
0.0964967
0.0963489
0.0880794
0.0771707
0.0616692
0.0830182
0.0568772
0.0675242
0.0508954
0.013694
0.0456096
0.0133517
0.0370634
0.0131484
0.111125
0.0474431
0.0414303
0.0554515
0.0520569
0.059268
0.0577718
0.0602618
0.0600354
0.0593369
0.0599547
0.0573896
0.0584688
0.0547179
0.0561311
0.0515705
0.0531859
0.0482166
0.0499046
0.0448671
0.0465306
0.0416704
0.0432423
0.0387178
0.040161
0.036023
0.0373393
0.0335549
0.0347636
0.0312661
0.0323907
0.0291227
0.0301775
0.0271093
0.0281003
0.0252189
0.0261491
0.023446
0.0243182
0.0217839
0.0226016
0.020224
0.0209917
0.0187579
0.0194798
0.0173788
0.018058
0.0160838
0.0167227
0.0148599
0.0154682
0.014269
0.0137152
0.0135423
0.0140139
0.0138745
0.0142286
0.0141342
0.0143465
0.014298
0.0143846
0.0143757
0.0143407
0.0143729
0.0142144
0.0142881
0.0140077
0.0141197
0.0138752
0.0134184
0.0145861
0.0139994
0.0157885
0.015177
0.0170545
0.0164125
0.0183982
0.017716
0.0198302
0.0191026
0.0213616
0.0205827
0.0229998
0.0221662
0.0247583
0.0238637
0.0266441
0.025685
0.0286621
0.0276366
0.0308121
0.0297208
0.0330944
0.0319364
0.0355114
0.0342855
0.0380748
0.0367741
0.0407919
0.0394145
0.0436422
0.0422037
0.0465507
0.0450962
0.0493859
0.0479875
0.0519786
0.050723
0.0541732
0.0531343
0.0556931
0.055056
0.0557877
0.0559494
0.055268
0.0554269
0.0550889
0.0553841
0.0481168
0.0528457
0.0370632
0.042913
0.0302859
0.0255846
0.0303901
0.11494
0.115126
0.116435
0.116169
0.11545
0.113388
0.111794
0.10661
0.105437
0.0962906
0.0968975
0.086721
0.0729078
0.0549875
0.0387396
0.0197817
0.0236789
0.00593196
0.079375
0.0617722
0.0432683
0.0128157
0.0134738
0.0132515
0.0127057
0.0128655
0.0129316
0.0126163
0.116071
0.02578
0.0167846
0.0390148
0.03309
0.0473049
0.0436938
0.0518386
0.0499709
0.0536611
0.0530072
0.0537207
0.0538748
0.0525692
0.0532702
0.050592
0.0516643
0.0480806
0.049387
0.0452829
0.0467034
0.0424087
0.0438442
0.0396168
0.0409946
0.0370052
0.0382855
0.0345962
0.0357761
0.0323647
0.0334609
0.0302693
0.0313021
0.0282828
0.0292633
0.026396
0.0273271
0.0246078
0.0254896
0.0229186
0.0237509
0.0213255
0.0221103
0.0198237
0.0205636
0.0184076
0.0191054
0.0170715
0.01773
0.0158117
0.0164325
0.014614
0.0152082
0.0140306
0.0131617
0.012997
0.0134414
0.0133102
0.0136386
0.0135514
0.0137525
0.013705
0.0137905
0.0137814
0.0137498
0.0137799
0.0136339
0.0137011
0.0134418
0.0135479
0.0131764
0.0133136
0.0130217
0.0143758
0.0138049
0.0155449
0.0149546
0.0167754
0.0161513
0.0180794
0.0174179
0.0194631
0.0187608
0.0209347
0.0201877
0.0225046
0.0217075
0.024177
0.0233277
0.0259568
0.0250534
0.0278442
0.0268873
0.0298355
0.0288273
0.031928
0.0308688
0.0341182
0.0330095
0.0364198
0.0352547
0.038836
0.0376142
0.0413424
0.0400814
0.0438618
0.0426076
0.04626
0.0450862
0.0483671
0.0473603
0.0500248
0.0492616
0.0509605
0.0506163
0.0506318
0.0509665
0.0496493
0.0501172
0.047662
0.0491024
0.0407075
0.0448258
0.0305607
0.0359691
0.0201891
0.0245866
0.119575
0.119778
0.0123339
0.0121739
0.120425
0.119941
0.118559
0.115765
0.113878
0.107268
0.106183
0.0948983
0.0961499
0.0831676
0.0663261
0.0481445
0.0314761
0.0118731
0.0164412
-0.000608858
-0.0086259
-0.0114571
0.000390025
-0.00698244
0.0739512
0.0542129
0.0336271
0.0128941
0.012411
0.120851
0.018857
0.0104704
0.0315405
0.0258058
0.0400366
0.0362369
0.0451199
0.0429521
0.0476785
0.0466613
0.0484686
0.0482618
0.0479882
0.04836
0.0466379
0.0474017
0.0447052
0.0457296
0.0424213
0.0435935
0.0399925
0.0412136
0.0375826
0.038777
0.0352936
0.0364196
0.0331547
0.0342057
0.0311474
0.0321367
0.029238
0.0301822
0.0274058
0.0283128
0.0256462
0.0265168
0.0239632
0.0247948
0.0223609
0.0231518
0.0208405
0.0215906
0.0194
0.0201105
0.0180356
0.0187086
0.0167431
0.0173808
0.0155176
0.0161224
0.014351
0.0149268
0.0132409
0.013787
0.0121921
0.0127093
0.0119026
0.0122929
0.0121019
0.0126258
0.0124686
0.0128842
0.0127648
0.0130675
0.0129853
0.0131782
0.0131317
0.0132159
0.0132065
0.0131789
0.0132066
0.0130702
0.0131333
0.0128909
0.0129895
0.0126377
0.0127735
0.0124896
0.0120119
0.0130595
0.0125293
0.0141467
0.013594
0.0152828
0.0147078
0.0164781
0.0158725
0.0177396
0.0171003
0.0190737
0.0183973
0.0204859
0.0197697
0.0219827
0.0212236
0.0235674
0.022764
0.0252409
0.0243932
0.027
0.0261102
0.0288376
0.0279096
0.0307449
0.0297832
0.0327265
0.0317272
0.0347823
0.0337446
0.0369148
0.0358397
0.0390961
0.0380029
0.041248
0.0401828
0.0432378
0.0422732
0.0448995
0.0441199
0.0460688
0.0455567
0.046477
0.0463948
0.0457668
0.0462629
0.0442316
0.0450732
0.0410874
0.0430429
0.0342204
0.0381216
0.0248069
0.0296732
0.0148018
0.0200194
0.00678962
0.0116902
0.12393
0.123998
0.124006
0.123021
0.121139
0.117216
0.115022
0.10667
0.105808
0.0919265
0.0936326
0.0780766
0.0594212
0.0408408
0.0234846
0.00676197
-0.0187795
-0.0129716
-0.0240554
-0.0303089
-0.0341168
-0.025192
-0.0220626
-0.0408426
-0.027285
-0.041323
0.0665692
0.0444532
0.021602
-0.00104721
0.0119684
0.0118267
0.0113352
0.0114633
0.0115037
0.125258
-0.0041835
-0.0149472
0.0129301
0.00509029
0.0250933
0.0195374
0.0336153
0.0297601
0.0390859
0.0366981
0.0421869
0.0408878
0.043558
0.0430582
0.0436623
0.0437431
0.042873
0.0433608
0.0414605
0.0422305
0.0396466
0.0405906
0.0376327
0.0386533
0.0355819
0.0366038
0.0335967
0.0345775
0.0317116
0.0326416
0.0299157
0.0308042
0.0281838
0.029043
0.0265012
0.0273366
0.0248678
0.025678
0.0232909
0.0240718
0.0217777
0.022526
0.0203323
0.0210464
0.0189552
0.0196353
0.0176443
0.0182917
0.0163967
0.0170128
0.0152085
0.0157955
0.0140752
0.014635
0.0129973
0.0135287
0.0124772
0.0114048
0.0109795
0.0111974
0.0117853
0.0116013
0.0121008
0.0119516
0.0123414
0.0122299
0.0125156
0.0124369
0.0126225
0.0125776
0.0126597
0.01265
0.0126262
0.0126517
0.0125237
0.0125834
0.0123548
0.0124473
0.012118
0.0122457
0.0118246
0.0119779
0.011666
0.0128476
0.0123313
0.0139027
0.0133703
0.0150057
0.0144474
0.0161644
0.0155779
0.0173825
0.0167658
0.0186647
0.0180154
0.0200152
0.0193312
0.021438
0.0207175
0.0229343
0.0221771
0.0245024
0.0237097
0.0261362
0.0253116
0.0278262
0.0269748
0.0295627
0.0286891
0.0313434
0.0304477
0.0331684
0.0322503
0.0350344
0.0340973
0.0369105
0.0359748
0.0387187
0.03783
0.0403299
0.0395585
0.041585
0.0410118
0.0423166
0.0420282
0.0422709
0.0424115
0.0412067
0.0418655
0.0391623
0.0403175
0.0353543
0.0375795
0.0286065
0.0323454
0.0199363
0.0243867
0.00879046
0.0150748
-0.00693482
0.00106461
-0.0154031
0.127721
0.127583
0.0110174
0.0108486
0.126927
0.125155
0.12277
0.117361
0.115152
0.104427
0.104021
0.0870479
0.0896383
0.0718752
0.0518816
0.0323385
0.0134814
-0.00591379
-0.0259755
-0.0452676
-0.0429309
-0.0473723
-0.0574653
-0.0582193
-0.0392951
-0.0568613
-0.0582953
-0.0548538
-0.0699555
-0.0738632
0.0566706
0.0320234
0.00682448
-0.0175192
0.0107484
0.0105144
0.0102976
0.129089
-0.0287331
-0.0411493
-0.00800286
-0.0176805
0.00782917
0.000480798
0.0194962
0.014122
0.0279275
0.0240781
0.0336366
0.0310953
0.0371454
0.0356302
0.0389928
0.0382487
0.0396013
0.0394294
0.0393041
0.0395488
0.0383554
0.0388975
0.0369693
0.0377045
0.0353394
0.0361738
0.0336238
0.0344845
0.0319233
0.0327679
0.0302762
0.0310926
0.0286793
0.0294725
0.0271159
0.0278942
0.0255776
0.0263436
0.0240679
0.0248186
0.0225967
0.0233268
0.0211735
0.0218786
0.0198044
0.0204819
0.018492
0.0191411
0.017236
0.017857
0.0160348
0.0166287
0.0148858
0.0154539
0.0137865
0.0143301
0.012737
0.0132549
0.0117327
0.0122324
0.0112387
0.0109205
0.0107231
0.0112866
0.0111099
0.0115837
0.011444
0.0118135
0.0117066
0.0119814
0.0119055
0.0120845
0.0120411
0.012121
0.0121111
0.0120906
0.0121141
0.0119943
0.0120506
0.0118347
0.011922
0.0116147
0.0117327
0.0113341
0.0114793
0.0111781
0.0106745
0.011629
0.011149
0.0126179
0.012121
0.0136442
0.013126
0.0147153
0.0141737
0.0158359
0.0152692
0.0170092
0.0164158
0.0182384
0.0176167
0.0195261
0.0188748
0.0208743
0.0201927
0.0222825
0.0215711
0.0237465
0.023008
0.0252585
0.0244972
0.0268071
0.026029
0.0283811
0.0275915
0.0299738
0.0291754
0.0315823
0.0307762
0.0331985
0.0323906
0.034789
0.0340006
0.0362772
0.0355526
0.037539
0.0369454
0.038423
0.0380378
0.0387619
0.0386727
0.0383257
0.0386565
0.036928
0.0377495
0.0344527
0.0358485
0.0302346
0.0326209
0.0236577
0.0272279
0.0152708
0.0196572
0.00386311
0.0101443
-0.0108852
-0.00318229
-0.0281789
-0.0193591
-0.0373067
0.130786
0.130253
0.128878
0.125994
0.123303
0.115851
0.113915
0.100163
0.100842
0.0799156
0.0842423
0.0643134
0.0431737
0.0221031
0.00132875
-0.0202673
-0.0398315
-0.0566392
-0.0699874
-0.070694
-0.0692149
-0.0825918
-0.0802625
-0.0858946
-0.0796093
-0.0939874
-0.102109
-0.0586102
-0.0772913
-0.0919612
0.0438218
0.0165374
-0.0109245
-0.036285
0.0100636
0.0105296
0.0104877
0.0100289
0.0102082
0.0100743
0.00985038
0.132083
-0.0526629
-0.0658082
-0.0297736
-0.0406239
-0.0111839
-0.0199495
0.00341865
-0.00342564
0.0145953
0.00940549
0.0228853
0.0190713
0.0287238
0.0260878
0.0325343
0.0308537
0.0347691
0.0338237
0.0358025
0.0354162
0.0359317
0.0359644
0.0353948
0.0357334
0.0343961
0.0349413
0.0331192
0.033782
0.0317144
0.0324252
0.0302796
0.0309968
0.0288547
0.0295648
0.0274451
0.0281486
0.0260416
0.026743
0.0246419
0.0253411
0.0232527
0.0239453
0.0218858
0.0225657
0.0205524
0.0212144
0.0192602
0.0199008
0.0180133
0.0186309
0.0168131
0.0174074
0.0156592
0.0162304
0.0145504
0.0150992
0.0134853
0.0140125
0.0124645
0.0129688
0.0114823
0.0119714
0.0109923
0.0104524
0.0102646
0.0107975
0.0106328
0.0110794
0.0109461
0.0113013
0.0111978
0.0114635
0.0113903
0.011563
0.0115212
0.011599
0.011589
0.0115714
0.0115931
0.0114811
0.011534
0.0113302
0.0114129
0.0111231
0.0112337
0.0108556
0.0109967
0.0105463
0.0107072
0.0103806
0.0114192
0.0109496
0.0123757
0.0118916
0.0133736
0.0128698
0.0144123
0.0138878
0.0154943
0.0149478
0.0166219
0.0160523
0.0177972
0.0172036
0.0190217
0.0184033
0.0202953
0.0196525
0.021616
0.0209501
0.0229781
0.0222924
0.0243721
0.0236719
0.0257854
0.0250772
0.0272051
0.0264951
0.0286211
0.0279139
0.0300268
0.0293257
0.0314095
0.0307224
0.032734
0.0320826
0.0339256
0.0333528
0.034867
0.0344361
0.0354142
0.0351991
0.035404
0.0354904
0.0346322
0.0351259
0.0329326
0.0339046
0.030115
0.0316881
0.0256565
0.0281277
0.0192117
0.0226719
0.010921
0.0153152
-9.43608e-05
0.00581394
-0.0139751
-0.00668956
-0.0304644
-0.0219402
-0.0489689
-0.0395886
-0.0588366
0.132782
0.13167
0.0097544
0.00957977
0.12956
0.125159
0.122372
0.112234
0.111169
0.093427
0.0960245
0.069999
0.0771442
0.0554198
0.0325083
0.0094412
-0.0134165
-0.0356815
-0.0553469
-0.0716144
-0.0851057
-0.0917759
-0.087777
-0.10342
-0.0978146
-0.124642
-0.108634
-0.0958438
-0.123181
-0.11862
-0.0797895
-0.0976039
-0.110546
0.0275775
-0.00255863
-0.0315867
-0.0574371
0.00963302
0.133903
-0.0990283
-0.111905
-0.0738877
-0.0863767
-0.0506777
-0.0619566
-0.0305612
-0.0401573
-0.0139056
-0.0218242
-0.000357845
-0.0067609
0.0103211
0.00532816
0.0184212
0.0146709
0.0243047
0.0216194
0.0283295
0.0265261
0.0308714
0.0297642
0.0322573
0.0316913
0.0327536
0.0326023
0.0325808
0.0327385
0.031931
0.0323044
0.0309763
0.031482
0.0298577
0.0304304
0.0286679
0.0292681
0.0274521
0.0280624
0.0262186
0.0268375
0.0249669
0.025595
0.0236999
0.0243349
0.0224276
0.0230636
0.021163
0.0217935
0.0199184
0.0205375
0.0187029
0.0193066
0.0175218
0.0181078
0.0163778
0.0169451
0.0152718
0.0158201
0.0142036
0.014733
0.0131729
0.0136836
0.0121799
0.0126717
0.0112167
0.0116951
0.0102947
0.0107491
0.0094068
0.00984629
0.00919957
0.00961983
0.00941288
0.0100001
0.00981639
0.0103216
0.010168
0.0105903
0.0104625
0.0108047
0.0107046
0.0109611
0.0108904
0.0110574
0.0110168
0.011093
0.0110828
0.011068
0.0110881
0.0109832
0.011033
0.0108403
0.0109188
0.0106435
0.0107484
0.0103917
0.0105246
0.0100927
0.0102472
0.00992822
0.00939776
0.0102865
0.00984063
0.0111914
0.0107373
0.0121238
0.0116526
0.013093
0.0126039
0.0140984
0.0135912
0.0151412
0.0146151
0.0162227
0.0156771
0.0173438
0.0167783
0.0185048
0.0179194
0.0197042
0.0190999
0.0209386
0.0203174
0.0222012
0.021567
0.0234812
0.0228399
0.024765
0.0241236
0.0260381
0.0254038
0.027288
0.0266666
0.0285038
0.0279009
0.0296689
0.0290943
0.0307465
0.0302222
0.0316648
0.0312316
0.0323135
0.0320308
0.0325569
0.0324948
0.0322387
0.0324787
0.0311782
0.0318118
0.0292165
0.0303187
0.0261395
0.0278389
0.0215518
0.024058
0.0152236
0.0186029
0.00707053
0.0114014
-0.00342185
0.00213592
-0.0163987
-0.00959609
-0.03183
-0.0238268
-0.0492732
-0.0403691
-0.0679298
-0.0584956
-0.0777332
0.00897733
0.133361
0.131441
0.128605
0.122184
0.119708
0.106012
0.106556
0.0836928
0.0892845
0.05682
0.0681755
0.044412
0.0193318
-0.00562578
-0.0301439
-0.0526511
-0.0720068
-0.0877969
-0.100288
-0.109427
-0.107835
-0.115124
-0.113062
-0.123456
-0.136942
-0.101113
-0.117515
-0.109429
-0.137642
-0.13541
-0.102901
-0.119074
-0.129594
0.00734247
-0.0251933
-0.0551891
-0.0814426
0.00917582
0.00920862
0.00878669
0.00874858
0.0089679
0.134162
-0.0907964
-0.102022
-0.0690284
-0.0797456
-0.0489955
-0.0587321
-0.0312655
-0.0397741
-0.0161559
-0.0234021
-0.00352466
-0.0095256
0.00662283
0.00185341
0.0144789
0.0108197
0.0203394
0.017641
0.0245031
0.0226144
0.0272809
0.0260469
0.0289559
0.0282407
0.0297659
0.0294559
0.029913
0.0299109
0.0295754
0.0297944
0.0289131
0.0292759
0.0280569
0.0285026
0.0270949
0.0275854
0.0260721
0.0265897
0.0250041
0.0255434
0.0238964
0.0244548
0.0227566
0.0233298
0.021597
0.0221784
0.0204322
0.0210144
0.0192751
0.019852
0.0181356
0.0187026
0.0170201
0.0175746
0.0159324
0.0164727
0.0148744
0.0153997
0.0138471
0.0143569
0.0128508
0.0133451
0.011885
0.0123643
0.010948
0.0114127
0.0100481
0.0104933
0.00960953
0.00876989
0.00833242
0.00855538
0.00918608
0.00898379
0.00955195
0.00937652
0.00985789
0.00971127
0.0101163
0.00999317
0.0103228
0.0102264
0.0104736
0.0104053
0.0105669
0.0105275
0.0106022
0.0105919
0.0105796
0.0105981
0.0104998
0.0105467
0.0103643
0.0104389
0.0101764
0.0102766
0.00993798
0.0100635
0.00965048
0.0098007
0.00931881
0.00948721
0.00914443
0.0100728
0.00963796
0.0109544
0.0105115
0.0118629
0.0114046
0.0128034
0.0123293
0.0137752
0.0132854
0.0147785
0.0142729
0.0158136
0.0152921
0.0168805
0.0163432
0.0179782
0.0174257
0.0191042
0.0185379
0.020254
0.0196766
0.0214196
0.0208355
0.0225896
0.0220049
0.0237496
0.0231718
0.0248837
0.0243209
0.025977
0.0254362
0.0270151
0.0265039
0.0279778
0.0275076
0.0288271
0.02842
0.0294944
0.0291891
0.0298771
0.0297287
0.0298479
0.0299224
0.0292599
0.0296335
0.0279519
0.0287053
0.0257703
0.02698
0.0225057
0.0242911
0.0178605
0.0203714
0.0116527
0.0149562
0.00371697
0.0079211
-0.00624275
-0.00100203
-0.0183302
-0.0120166
-0.0325494
-0.0251843
-0.0485475
-0.0403748
-0.0658262
-0.0570726
-0.0835945
-0.0747142
-0.0924335
0.132103
0.129097
0.0085563
0.00837717
0.125627
0.116548
0.114894
0.0966162
0.099742
0.0703888
0.0802731
0.0398381
0.0568844
0.0308427
0.00372919
-0.0231954
-0.0486949
-0.0713081
-0.0899732
-0.10473
-0.11579
-0.123118
-0.132839
-0.119592
-0.126533
-0.140532
-0.126734
-0.147928
-0.117321
-0.126861
-0.151635
-0.151919
-0.108562
-0.124704
-0.114817
-0.127811
-0.14143
-0.148831
-0.0171887
-0.0515306
-0.0821869
-0.107954
0.00810213
0.00793149
0.00770722
0.13241
-0.102613
-0.111562
-0.0834524
-0.0930932
-0.0648823
-0.0740261
-0.0474707
-0.0560239
-0.0317016
-0.0393445
-0.0178877
-0.0245448
-0.00615497
-0.0117505
0.00342846
-0.00109868
0.0109997
0.00745294
0.0167841
0.0141011
0.0210245
0.0190819
0.0239775
0.0226464
0.0258864
0.0250489
0.0269624
0.0265168
0.0273887
0.0272463
0.0273291
0.0274101
0.0269305
0.0271639
0.0263135
0.0266432
0.0255608
0.0259506
0.0247179
0.025149
0.0238052
0.0242695
0.0228339
0.0233263
0.0218158
0.0223299
0.0207651
0.0212935
0.0196972
0.0202324
0.0186257
0.0191612
0.0175611
0.018092
0.0165107
0.0170338
0.0154791
0.0159923
0.0144691
0.0149712
0.0134826
0.0139728
0.0125206
0.0129985
0.0115836
0.012049
0.0106725
0.0111247
0.00979228
0.0102284
0.00893539
0.009362
0.0085151
0.00835831
0.00814874
0.00875955
0.00856162
0.00911032
0.0089426
0.00940602
0.00926381
0.00965593
0.00953707
0.00985489
0.009762
0.0100004
0.00993448
0.010091
0.0100526
0.010126
0.0101155
0.0101055
0.0101227
0.0100302
0.0100746
0.00990152
0.00997244
0.00972189
0.00981785
0.00949394
0.00961385
0.00921853
0.00936247
0.00889909
0.00906176
0.00872798
0.00819419
0.0090067
0.00859796
0.00984861
0.00942628
0.0107085
0.0102754
0.011594
0.011148
0.012506
0.0120467
0.0134441
0.0129719
0.0144079
0.0139229
0.0153966
0.0148992
0.0164095
0.0159002
0.0174444
0.0169244
0.0184982
0.0179693
0.0195651
0.0190305
0.0206366
0.020101
0.0217006
0.0211704
0.0227421
0.0222252
0.0237442
0.0232492
0.0246899
0.0242251
0.0255619
0.0251363
0.0263367
0.0259632
0.0269756
0.0266764
0.0274136
0.0272249
0.0275555
0.0275284
0.027283
0.027479
0.0264602
0.0269491
0.0249417
0.0257964
0.0225814
0.0238765
0.0191884
0.0210282
0.0145344
0.0170304
0.00846179
0.0116827
0.000801811
0.00484372
-0.00862619
-0.00368673
-0.0198787
-0.0140244
-0.0329141
-0.0261839
-0.0474762
-0.0400298
-0.0631807
-0.0552226
-0.0791961
-0.0712198
-0.0945847
-0.0870393
-0.101808
0.128543
0.124115
0.120152
0.107659
0.107518
0.0834357
0.0903125
0.0529107
0.0686226
0.0185033
0.0429156
0.0145972
-0.0146268
-0.043108
-0.0692304
-0.0914782
-0.1092
-0.122528
-0.131488
-0.118418
-0.121671
-0.134732
-0.131778
-0.146365
-0.136829
-0.156822
-0.138081
-0.164569
-0.135897
-0.167954
-0.120463
-0.131569
-0.153844
-0.163811
-0.168115
-0.0462154
-0.0818459
-0.112465
-0.136771
0.00754063
0.00787017
0.00799838
-0.125431
-0.110623
-0.114565
0.00760477
0.00779358
0.00747438
0.00731642
0.128139
-0.107924
-0.113939
-0.0932976
-0.100913
-0.0772682
-0.0853221
-0.0612711
-0.0691723
-0.0460125
-0.0535394
-0.0318502
-0.0387618
-0.0192195
-0.025324
-0.00835841
-0.0135585
0.000663439
-0.00361922
0.0079278
0.00450693
0.0135965
0.0109506
0.0178637
0.0158928
0.020941
0.0195381
0.0230362
0.0220995
0.0243354
0.0237748
0.0250036
0.0247389
0.02519
0.0251484
0.0250283
0.0251452
0.0246284
0.0248525
0.0240678
0.0243647
0.0233917
0.0237424
0.0226249
0.0230186
0.021783
0.0222124
0.020881
0.0213385
0.019935
0.0204125
0.0189612
0.0194507
0.0179733
0.0184682
0.0169823
0.0174776
0.015996
0.0164882
0.0150198
0.0155064
0.0140575
0.0145368
0.0131116
0.0135824
0.012184
0.0126455
0.0112762
0.0117275
0.0103902
0.0108303
0.00952846
0.00995627
0.00868698
0.00910568
0.00827115
0.0079596
0.00775524
0.00834224
0.00815612
0.00867815
0.00851661
0.00896604
0.00882752
0.00920819
0.00909322
0.00940032
0.00931062
0.00954101
0.00947722
0.00962899
0.00959164
0.00966368
0.00965303
0.00964509
0.00966103
0.00957393
0.00961602
0.00945149
0.00951903
0.00927972
0.0093716
0.00906091
0.00917604
0.00879848
0.00893506
0.00849137
0.0086502
0.0081542
0.00832812
0.00797583
0.00879889
0.00839725
0.00961615
0.00920356
0.0104561
0.0100333
0.0113183
0.0108845
0.0122021
0.0117576
0.0131067
0.0126519
0.014031
0.0135665
0.0149736
0.0145002
0.0159329
0.0154514
0.016906
0.016418
0.0178888
0.0173965
0.0188748
0.0183819
0.019855
0.0193663
0.020817
0.0203391
0.0217453
0.0212864
0.0226219
0.0221912
0.0234287
0.0230352
0.0241452
0.0237996