/*--------------------------------*- C++ -*----------------------------------*\
  =========                 |
  \\      /  F ield         | OpenFOAM: The Open Source CFD Toolbox
   \\    /   O peration     | Website:  https://openfoam.org
    \\  /    A nd           | Version:  10
     \\/     M anipulation  |
\*---------------------------------------------------------------------------*/
FoamFile
{
    format      ascii;
    class       volScalarField;
    location    "0.5";
    object      p;
}
// * * * * * * * * * * * * * * * * * * * * * * * * * * * * * * * * * * * * * //

dimensions      [0 2 -2 0 0 0 0];

internalField   nonuniform List<scalar> 
28942
(
-0.439805
-0.336804
-0.342749
0.411608
0.426118
-0.000949809
0.0189159
-0.00233659
0.18396
0.19002
-0.0316589
-0.143591
-0.201896
-0.121644
0.00599616
0.00772901
0.536004
0.557463
0.195222
0.272168
0.420327
0.425369
-0.77435
-0.72104
-0.839645
-0.806357
0.835321
0.851823
-0.0351177
-0.00868557
-0.03198
-0.0290742
0.047002
0.0119237
0.168866
0.223535
0.497853
0.63205
0.0165878
0.509437
0.386301
0.406725
0.173124
0.171962
0.172872
0.00533609
0.0148251
0.00704234
0.00850618
0.0286196
0.0463248
0.210441
0.211815
0.184541
0.192797
-0.179449
-0.118934
-0.326919
-0.328988
-0.49136
-0.42303
-0.315877
-0.263351
-0.151238
-0.226076
-0.0521333
0.0131187
0.502285
0.474869
-0.349286
-0.444496
-0.481429
0.487975
0.475418
0.477813
-0.144486
-0.086383
-0.0115579
-0.297495
-0.405282
-0.250352
-0.473865
-0.966988
-1.10557
-0.0474156
0.0488691
0.124634
0.0622723
-0.0227195
-0.00674447
0.0408098
0.0725744
0.192231
0.167278
0.102461
0.137503
0.178241
0.0745134
0.132683
-1.10333
0.447233
0.448052
0.35244
0.38562
0.161408
0.164118
0.160208
0.289497
0.295739
0.298984
-0.239093
-0.180289
-0.38324
-0.179787
-0.165945
0.916664
0.850431
0.789918
0.864988
0.033897
0.180371
0.134915
0.0709759
0.0558224
0.961016
0.972884
0.939991
0.0922031
0.138709
0.00314846
0.00258036
0.00115148
0.487492
0.593163
0.375014
0.367409
0.427341
0.224829
0.379868
0.368979
0.0907541
0.0266541
0.161536
0.174355
0.172903
-0.0433379
-0.00300552
0.0265654
-0.00342261
0.165529
0.173577
-0.0914895
-0.0161903
-0.0201396
-0.0116432
-0.0141312
0.25438
0.158724
0.142126
0.113213
0.148328
-0.921796
-0.728854
-0.00113478
-0.784863
-0.76716
0.436543
0.441664
0.508902
0.487666
0.409094
0.220095
0.217973
0.210979
0.206965
0.272074
0.260819
0.27545
0.286334
0.280304
0.277006
0.284638
0.31103
0.296326
0.272225
0.287585
0.327451
0.370492
0.395149
0.202465
0.194215
-0.0674384
0.00402382
0.00585725
0.107552
0.0872522
0.0169495
0.0124507
0.0100255
0.0123235
0.13794
0.137271
0.136642
-0.13412
-0.151237
-0.0832404
-0.589816
-0.596491
-0.50247
-0.810447
-0.974207
-0.846227
0.903423
0.873402
0.916756
0.166722
0.17008
0.16891
0.55067
0.535836
0.543943
0.110254
0.108981
0.111516
0.107699
0.10642
0.105146
0.105209
0.103882
0.103972
0.106462
0.107744
0.109014
0.110287
0.111546
0.102622
0.102718
0.112796
0.112836
0.114094
0.101358
0.101426
0.114125
0.100104
0.098849
0.100147
0.0988787
0.11535
0.115386
0.0975706
0.0976085
0.116613
0.116662
0.0962876
0.0963332
0.117882
0.117936
0.0950202
0.0950608
0.119151
0.119224
0.0937559
0.0937931
0.120424
0.120507
0.0924927
0.0925265
0.121701
0.121776
0.0912251
0.0912581
0.122976
0.123039
0.0899593
0.0899886
0.124274
0.124311
0.088689
0.08871
0.125535
0.125578
0.0874166
0.0874058
0.126819
0.126859
0.0861053
0.0861021
0.128109
0.128151
0.0847452
0.0847726
0.126739
0.128008
0.129441
0.129463
0.124193
0.125484
0.121615
0.122919
0.11908
0.120341
0.116553
0.117822
0.114006
0.115281
0.111496
0.112757
0.108971
0.110226
0.10642
0.1077
0.103844
0.105138
0.10131
0.10257
0.0987844
0.100055
0.096225
0.0975034
0.0936871
0.0949542
0.0911477
0.0924147
0.0886186
0.0898799
0.0860499
0.0873538
0.0847292
0.0833978
0.0834194
0.0874164
0.0848181
0.0861262
0.0899865
0.0887071
0.0925272
0.0912596
0.0950625
0.0937935
0.0976099
0.0963371
0.100127
0.0988715
0.102695
0.101406
0.105243
0.103984
0.107766
0.106509
0.110309
0.109035
0.112859
0.111588
0.115396
0.114115
0.117946
0.116671
0.120503
0.119223
0.123065
0.121784
0.125616
0.124339
0.128162
0.126883
0.129462
0.129337
0.0834013
0.0834882
0.130785
0.130763
0.130703
0.13076
0.126736
0.129311
0.127957
0.124163
0.125479
0.121613
0.122873
0.11909
0.120356
0.116557
0.117826
0.114021
0.11529
0.111482
0.11275
0.108947
0.110228
0.106407
0.107667
0.103845
0.105123
0.101319
0.102582
0.0987876
0.100054
0.0962432
0.097516
0.0937021
0.0949702
0.091163
0.0924332
0.0886211
0.0898944
0.0860493
0.0873414
0.0820499
0.0820753
0.0834505
0.0847553
0.0848791
0.0835822
0.0821634
0.082078
0.0874377
0.0861642
0.0899882
0.0887068
0.0925305
0.0912602
0.0950704
0.0938003
0.0976195
0.0963442
0.100153
0.0988865
0.102692
0.10142
0.105241
0.103965
0.107788
0.106518
0.110322
0.109051
0.112867
0.111604
0.11541
0.114138
0.117959
0.116684
0.120502
0.119231
0.123044
0.121775
0.125575
0.124311
0.128129
0.126844
0.130706
0.129423
0.130792
0.132059
0.132001
0.132072
0.0821543
0.0822224
0.13203
0.132108
0.133348
0.1333
0.132049
0.08348
0.0821927
0.080811
0.0808677
0.13205
0.133224
0.134301
0.133129
0.129124
0.130716
0.126625
0.127764
0.124125
0.125417
0.121603
0.122849
0.119077
0.120346
0.116542
0.117809
0.114007
0.115276
0.111469
0.112738
0.108934
0.110203
0.106387
0.107661
0.103845
0.105115
0.101304
0.102575
0.0987693
0.100037
0.0962221
0.0974966
0.093681
0.0949504
0.0911417
0.0924117
0.0886038
0.0898729
0.0860516
0.0873279
0.0847667
0.0807362
0.0808154
0.0807615
0.0807639
0.0848997
0.0822808
0.0836045
0.087453
0.0861794
0.0899895
0.0887142
0.0925326
0.0912617
0.0950753
0.0938037
0.0976184
0.0963475
0.100161
0.0988886
0.102704
0.101434
0.105245
0.103973
0.107791
0.10652
0.110334
0.109062
0.112877
0.111607
0.115421
0.114149
0.117969
0.116694
0.120516
0.119243
0.12306
0.121789
0.125587
0.124327
0.128107
0.126844
0.130658
0.129381
0.133267
0.131953
0.134588
0.134582
0.133324
0.13336
0.0808732
0.0809491
0.134397
0.13461
0.135694
0.135893
0.13587
0.136359
0.137846
0.133316
0.13404
0.135154
0.131876
0.132866
0.129079
0.130621
0.126576
0.127715
0.124106
0.125387
0.121581
0.122832
0.119065
0.120329
0.116535
0.1178
0.114002
0.115269
0.111463
0.112732
0.108927
0.110196
0.106382
0.107655
0.103838
0.105109
0.101296
0.102566
0.0987595
0.100028
0.096218
0.0974896
0.0936768
0.0949468
0.0911361
0.0924067
0.0885929
0.0898647
0.0860462
0.0873178
0.0835048
0.0847771
0.0809108
0.0822163
0.0794856
0.0795806
0.0795328
0.0794248
0.0794399
0.0794697
0.0794379
0.0796302
0.0795491
0.0823382
0.0797376
0.0810367
0.0849063
0.0836276
0.0874541
0.0861806
0.0899947
0.0887232
0.0925374
0.0912661
0.0950806
0.0938089
0.0976235
0.0963531
0.100165
0.0988932
0.102711
0.101439
0.105255
0.103983
0.107799
0.106527
0.110343
0.109071
0.112887
0.111615
0.115432
0.11416
0.117977
0.116704
0.120522
0.11925
0.123066
0.121794
0.125605
0.124337
0.128124
0.126867
0.130641
0.129381
0.133197
0.131911
0.135822
0.134506
0.137191
0.137131
0.134546
0.134603
0.135575
0.135865
0.0809421
0.0796372
0.0783076
0.0783804
0.136888
0.137167
0.138639
0.136165
0.138476
0.138428
0.137311
0.13456
0.134305
0.13538
0.13179
0.132978
0.129223
0.130602
0.126608
0.127854
0.124124
0.125389
0.121588
0.122848
0.119066
0.120331
0.116529
0.117797
0.113993
0.115262
0.111454
0.112724
0.108915
0.110185
0.106372
0.107644
0.103829
0.105099
0.101289
0.10256
0.098749
0.100019
0.0962061
0.0974784
0.0936632
0.0949342
0.0911216
0.0923926
0.0885801
0.0898507
0.0860418
0.0873098
0.0835091
0.0847708
0.0822275
0.078158
0.0782662
0.0782072
0.0781145
0.0781388
0.0781645
0.0781315
0.0782286
0.0823712
0.0797765
0.0810943
0.0849103
0.0836428
0.0874539
0.0861831
0.0899968
0.0887253
0.0925401
0.0912683
0.095084
0.0938119
0.0976283
0.0963564
0.100171
0.0988998
0.102716
0.101444
0.105262
0.103989
0.107806
0.106534
0.110352
0.10908
0.112897
0.111624
0.115443
0.11417
0.117989
0.116716
0.120533
0.119261
0.123073
0.121804
0.125612
0.124342
0.128145
0.126881
0.130662
0.129404
0.133192
0.131924
0.135763
0.134465
0.13839
0.137075
0.139734
0.139714
0.13567
0.135837
0.0783032
0.0784524
0.136918
0.138448
0.138247
0.137142
0.138467
0.138837
0.13985
0.1396
0.139759
0.14104
0.141042
0.135752
0.136571
0.139184
0.137744
0.134486
0.135669
0.13164
0.132989
0.129231
0.130498
0.126608
0.127885
0.124118
0.125375
0.121582
0.122847
0.119055
0.120321
0.116521
0.117788
0.113986
0.115254
0.111447
0.112717
0.108908
0.110178
0.106365
0.107637
0.103822
0.105093
0.101279
0.102551
0.0987384
0.100009
0.0961967
0.097468
0.0936547
0.0949257
0.0911135
0.0923843
0.0885729
0.0898429
0.0860331
0.0873028
0.0834968
0.0847646
0.080958
0.0822293
0.0783337
0.0796705
0.0769427
0.0769941
0.0769614
0.0768584
0.076895
0.0768396
0.0768498
0.0768747
0.0768535
0.0769748
0.0769181
0.0771274
0.0770514
0.0798135
0.0772009
0.0785124
0.0823807
0.0811113
0.0849194
0.0836484
0.0874588
0.0861885
0.0900009
0.0887296
0.0925444
0.0912725
0.0950883
0.0938163
0.0976323
0.0963604
0.100177
0.0989045
0.102722
0.10145
0.105268
0.103996
0.107814
0.106541
0.11036
0.109087
0.112905
0.111632
0.115451
0.114178
0.117997
0.116724
0.120543
0.11927
0.123085
0.121814
0.125622
0.124354
0.128158
0.126891
0.13069
0.129425
0.133214
0.131953
0.135741
0.134475
0.138323
0.137023
0.140964
0.139642
0.142346
0.142284
0.136946
0.140351
0.13829
0.0783742
0.0770721
0.0757929
0.0758643
0.137097
0.138438
0.139621
0.139759
0.141054
0.142352
0.143641
0.14359
0.137019
0.139318
0.141567
0.14172
0.140505
0.136761
0.138059
0.134419
0.135628
0.131712
0.13304
0.129249
0.130506
0.126635
0.127928
0.12412
0.12538
0.121583
0.122851
0.119052
0.120318
0.116517
0.117785
0.11398
0.115249
0.11144
0.11271
0.108899
0.11017
0.106357
0.107628
0.103813
0.105085
0.101271
0.102542
0.0987291
0.1
0.0961866
0.097458
0.0936434
0.0949149
0.0911012
0.0923722
0.08856
0.0898304
0.0860203
0.0872901
0.083485
0.0847517
0.0809505
0.0822161
0.079669
0.0756166
0.0756848
0.0756559
0.0755781
0.0755902
0.075587
0.0755849
0.0756033
0.0756018
0.0756613
0.0756208
0.0757263
0.079842
0.0772634
0.0785588
0.0823755
0.0811103
0.0849191
0.0836483
0.0874608
0.0861895
0.090003
0.0887316
0.0925472
0.0912749
0.095092
0.0938195
0.0976372
0.0963646
0.100182
0.0989098
0.102729
0.101455
0.105275
0.104002
0.107822
0.106548
0.110368
0.109095
0.112915
0.111642
0.115462
0.114188
0.118008
0.116735
0.120553
0.119281
0.123096
0.121825
0.125637
0.124367
0.128172
0.126904
0.13071
0.12944
0.133249
0.131979
0.135784
0.134519
0.138312
0.137045
0.140891
0.139594
0.143518
0.142202
0.141118
0.14122
0.144892
0.144828
0.138291
0.0757693
0.0759324
0.142904
0.13839
0.142883
0.139654
0.139741
0.140984
0.141034
0.142345
0.143637
0.144925
0.146183
0.146142
0.138335
0.141744
0.14413
0.144264
0.142987
0.139168
0.140469
0.13658
0.137841
0.134298
0.135434
0.131715
0.133029
0.129208
0.130459
0.12664
0.127923
0.124116
0.125377
0.121581
0.122849
0.119048
0.120315
0.116511
0.11778
0.113972
0.115242
0.111432
0.112702
0.108891
0.110162
0.106349
0.10762
0.103805
0.105077
0.101262
0.102534
0.0987186
0.0999903
0.0961759
0.0974472
0.093633
0.0949045
0.091091
0.092362
0.08855
0.0898204
0.0860105
0.0872801
0.0834731
0.0847413
0.0809354
0.0822052
0.0784025
0.0796667
0.0758045
0.0771275
0.074388
0.0744756
0.0744262
0.0743315
0.0743638
0.0743197
0.0743084
0.0743408
0.0743318
0.0743435
0.0743534
0.0743787
0.0743413
0.0744642
0.0744163
0.0746016
0.0745289
0.077296
0.0746688
0.0759961
0.0798448
0.0785756
0.082384
0.081118
0.0849217
0.0836525
0.0874633
0.0861921
0.0900058
0.0887343
0.0925503
0.0912779
0.0950951
0.0938227
0.0976409
0.096368
0.100187
0.098914
0.102734
0.101461
0.105281
0.104008
0.107829
0.106555
0.110376
0.109103
0.112924
0.11165
0.115471
0.114198
0.118018
0.116745
0.120564
0.119291
0.123107
0.121836
0.125649
0.124379
0.128187
0.126918
0.130724
0.129455
0.133264
0.131993
0.135814
0.134539
0.138346
0.137082
0.140886
0.139613
0.143455
0.142164
0.146068
0.144757
0.142616
0.142716
0.147449
0.14739
0.139665
0.13969
0.145531
0.145358
0.144097
0.141008
0.141036
0.075824
0.0745277
0.0732781
0.0733468
0.1422
0.142306
0.143635
0.144915
0.146203
0.147473
0.146773
0.146838
0.148045
0.148735
0.148698
0.148026
0.139674
0.144395
0.145627
0.141967
0.143204
0.139342
0.140657
0.136776
0.138061
0.134316
0.135533
0.131732
0.133041
0.129204
0.130459
0.126651
0.127931
0.124117
0.125382
0.12158
0.122849
0.119044
0.120312
0.116506
0.117775
0.113967
0.115237
0.111426
0.112697
0.108884
0.110156
0.106341
0.107613
0.103797
0.105069
0.101253
0.102525
0.0987092
0.0999811
0.096166
0.0974376
0.0936223
0.0948942
0.0910794
0.0923507
0.0885376
0.0898083
0.0859975
0.0872675
0.0834598
0.0847282
0.0809267
0.0821922
0.0783946
0.0796587
0.0771198
0.0730683
0.0731587
0.0731087
0.0730625
0.073072
0.0730702
0.0730551
0.0730907
0.0730824
0.073095
0.0730977
0.0731094
0.0730892
0.0731662
0.0731329
0.0732225
0.0773081
0.074738
0.0760331
0.0798504
0.078574
0.0823846
0.0811163
0.0849229
0.0836537
0.0874645
0.0861936
0.0900076
0.0887359
0.0925529
0.0912801
0.0950987
0.0938258
0.0976452
0.096372
0.100192
0.0989184
0.10274
0.101466
0.105288
0.104014
0.107836
0.106562
0.110384
0.10911
0.112933
0.111659
0.115481
0.114207
0.118028
0.116754
0.120575
0.119302
0.12312
0.121848
0.125663
0.124392
0.128205
0.126934
0.130745
0.129475
0.133283
0.132013
0.135828
0.134554
0.138374
0.137102
0.140912
0.139644
0.143446
0.142178
0.146006
0.144722
0.148619
0.1473
0.146609
0.15001
0.150033
0.151313
0.151272
0.149952
0.143822
0.144048
0.140989
0.140982
0.0732129
0.0734062
0.145361
0.142259
0.142322
0.143397
0.143582
0.144917
0.146184
0.147485
0.148767
0.149258
0.149384
0.150623
0.151183
0.152492
0.152572
0.150513
0.149248
0.147926
0.151324
0.152609
0.140996
0.146856
0.148114
0.144326
0.145575
0.141787
0.143071
0.139262
0.140513
0.136741
0.138011
0.134256
0.135487
0.131723
0.133001
0.129196
0.130456
0.126653
0.127928
0.124115
0.125383
0.121578
0.122847
0.119041
0.12031
0.116502
0.117771
0.113961
0.115232
0.11142
0.112691
0.108877
0.110149
0.106333
0.107605
0.103788
0.105061
0.101244
0.102516
0.0986994
0.099972
0.0961549
0.097427
0.0936106
0.0948828
0.0910675
0.0923389
0.0885256
0.0897964
0.0859852
0.0872552
0.0834471
0.0847157
0.0809113
0.082179
0.0783758
0.0796444
0.0758422
0.0771106
0.0732554
0.0745533
0.0718517
0.07194
0.0718905
0.0717817
0.0718098
0.0718013
0.0717871
0.0718233
0.0718072
0.0718355
0.0718316
0.071849
0.0718426
0.071854
0.0718457
0.0718815
0.071867
0.0719628
0.0719177
0.0720802
0.0720218
0.0747569
0.0721325
0.0734568
0.0773099
0.076042
0.0798473
0.0785799
0.082384
0.0811154
0.0849233
0.0836534
0.0874655
0.0861943
0.0900091
0.0887372
0.0925548
0.0912818
0.0951012
0.093828
0.0976489
0.096375
0.100197
0.0989227
0.102745
0.101471
0.105294
0.10402
0.107843
0.106569
0.110393
0.109118
0.112942
0.111667
0.115491
0.114216
0.118039
0.116765
0.120586
0.119313
0.123132
0.121859
0.125676
0.124405
0.128218
0.126947
0.130761
0.12949
0.133304
0.132033
0.135847
0.134576
0.138393
0.13712
0.14094
0.139667
0.14348
0.142211
0.146007
0.144745
0.148553
0.147272
0.149855
0.145122
0.145345
0.153856
0.153788
0.142226
0.142258
0.146631
0.143543
0.14361
0.0732737
0.0719735
0.0707581
0.0708044
0.144658
0.144856
0.146198
0.147454
0.148765
0.150035
0.151826
0.151867
0.153034
0.153023
0.151757
0.150496
0.14922
0.152598
0.153883
0.155091
0.155135
0.14228
0.149502
0.15071
0.146953
0.148235
0.144392
0.145667
0.141837
0.143111
0.139314
0.140574
0.136776
0.138049
0.134262
0.135512
0.131733
0.133005
0.129195
0.130462
0.126654
0.127926
0.124115
0.125384
0.121577
0.122846
0.119038
0.120308
0.116498
0.117768
0.113956
0.115227
0.111414
0.112685
0.10887
0.110142
0.106325
0.107597
0.10378
0.105053
0.101235
0.102507
0.0986891
0.0999623
0.0961441
0.0974164
0.0935995
0.0948718
0.0910559
0.0923275
0.0885133
0.0897845
0.0859722
0.0872425
0.0834332
0.0847024
0.0808963
0.0821645
0.0783635
0.0796295
0.0758334
0.0770946
0.0745622
0.0705405
0.0706228
0.0705854
0.0705138
0.0705298
0.0705443
0.0705258
0.0705718
0.0705564
0.0705833
0.0705783
0.0705995
0.0705904
0.0706033
0.0706005
0.0706121
0.0706082
0.0706541
0.0706276
0.070701
0.0747644
0.072174
0.0734848
0.0773167
0.0760378
0.0798455
0.0785792
0.0823831
0.0811141
0.0849231
0.0836529
0.0874661
0.0861944
0.0900104
0.0887381
0.0925567
0.0912834
0.0951037
0.0938302
0.0976521
0.0963779
0.100201
0.0989265
0.10275
0.101476
0.1053
0.104025
0.10785
0.106575
0.110401
0.109125
0.112951
0.111676
0.1155
0.114226
0.118049
0.116775
0.120598
0.119324
0.123145
0.121872
0.125691
0.124418
0.128235
0.126963
0.130778
0.129507
0.133322
0.13205
0.135866
0.134594
0.13841
0.137137
0.140957
0.139683
0.143506
0.142232
0.146046
0.144779
0.14856
0.147303
0.151113
0.14983
0.153709
0.15241
0.156379
0.156321
0.155021
0.146421
0.146681
0.143504
0.143545
0.0706489
0.0708559
0.147926
0.14487
0.14489
0.145904
0.146132
0.147475
0.148727
0.15004
0.15131
0.154233
0.15432
0.155557
0.156237
0.157543
0.157615
0.155482
0.154243
0.152975
0.151751
0.150485
0.153869
0.155141
0.156402
0.157649
0.143574
0.151866
0.153086
0.149457
0.150642
0.146919
0.148214
0.144364
0.145633
0.14184
0.1431
0.139308
0.140576
0.136777
0.138042
0.134256
0.135513
0.131729
0.132997
0.129192
0.130459
0.126654
0.127924
0.124114
0.125384
0.121575
0.122845
0.119035
0.120306
0.116494
0.117764
0.113951
0.115223
0.111407
0.112679
0.108863
0.110135
0.106317
0.10759
0.103771
0.105045
0.101225
0.102498
0.098679
0.0999525
0.0961333
0.0974059
0.093588
0.0948607
0.0910436
0.0923156
0.0885001
0.0897718
0.0859583
0.087229
0.0834185
0.0846882
0.0808812
0.0821495
0.0783474
0.0796137
0.075822
0.0770826
0.073275
0.0745467
0.0706662
0.0719923
0.0693105
0.0693446
0.0693142
0.0692507
0.0692833
0.0692614
0.0692511
0.069295
0.0692791
0.0693192
0.0693041
0.0693342
0.0693258
0.0693475
0.0693409
0.0693553
0.0693523
0.0693606
0.0693579
0.0693726
0.0693523
0.0694497
0.0694104
0.0695598
0.0695002
0.0722094
0.0696174
0.0709237
0.0747671
0.073497
0.0773064
0.0760347
0.0798423
0.0785738
0.0823812
0.0811114
0.0849221
0.0836515
0.0874659
0.0861938
0.0900111
0.0887384
0.0925582
0.0912844
0.0951061
0.0938321
0.0976553
0.0963806
0.100205
0.09893
0.102755
0.10148
0.105306
0.104031
0.107857
0.106582
0.110408
0.109133
0.112959
0.111684
0.11551
0.114235
0.11806
0.116785
0.12061
0.119335
0.123158
0.121884
0.125705
0.124432
0.128251
0.126978
0.130796
0.129524
0.133342
0.132069
0.135886
0.134614
0.13843
0.137158
0.140972
0.139701
0.143516
0.142243
0.146067
0.144792
0.1486
0.147337
0.151118
0.149861
0.153656
0.152381
0.154938
0.147686
0.147958
0.158899
0.158841
0.14478
0.144822
0.149215
0.14615
0.146171
0.0706981
0.0694038
0.0682479
0.068293
0.147178
0.147409
0.148751
0.150001
0.151313
0.152585
0.156776
0.156814
0.157994
0.157992
0.156738
0.155481
0.154228
0.153017
0.151742
0.155135
0.156406
0.157666
0.158927
0.160121
0.160175
0.144858
0.154435
0.155639
0.151924
0.153192
0.149417
0.150656
0.146893
0.14817
0.144356
0.145616
0.141843
0.143102
0.139309
0.140576
0.136783
0.138045
0.134258
0.135519
0.131729
0.132996
0.129193
0.130461
0.126655
0.127924
0.124114
0.125385
0.121574
0.122844
0.119032
0.120303
0.11649
0.117761
0.113946
0.115218
0.111402
0.112674
0.108856
0.110129
0.10631
0.107582
0.103763
0.105036
0.101216
0.102489
0.0986687
0.0999427
0.0961222
0.0973952
0.093576
0.0948492
0.0910308
0.0923032
0.0884865
0.0897586
0.0859439
0.0872149
0.0834032
0.0846734
0.080865
0.0821338
0.0783299
0.0795968
0.0757976
0.0770634
0.0732624
0.0745283
0.0719849
0.0680038
0.0680404
0.0680193
0.0679742
0.0679983
0.0680125
0.0679908
0.0680476
0.0680333
0.0680673
0.0680546
0.0680857
0.0680764
0.0680974
0.0680922
0.0681078
0.0681028
0.0681153
0.06811
0.068116
0.0681029
0.0681459
0.0681353
0.0681854
0.0722286
0.0696553
0.0709603
0.0747621
0.0734976
0.0773
0.0760314
0.0798384
0.0785688
0.0823785
0.081108
0.0849205
0.0836493
0.0874652
0.0861926
0.0900112
0.0887382
0.0925591
0.091285
0.095108
0.0938335
0.0976581
0.0963831
0.100209
0.0989333
0.10276
0.101484
0.105312
0.104036
0.107864
0.106588
0.110416
0.10914
0.112968
0.111692
0.11552
0.114244
0.118071
0.116795
0.120622
0.119347
0.123171
0.121896
0.125719
0.124445
0.128267
0.126993
0.130813
0.12954
0.133359
0.132086
0.135905
0.134632
0.138451
0.137178
0.140996
0.139724
0.143536
0.142266
0.146076
0.144806
0.148619
0.147347
0.151151
0.149889
0.153661
0.152406
0.156189
0.15492
0.158756
0.157469
0.161401
0.16134
0.160047
0.148974
0.149238
0.146045
0.146098
0.0681015
0.0683449
0.150493
0.147441
0.147451
0.148458
0.148686
0.150026
0.151277
0.152586
0.153859
0.159202
0.159276
0.160506
0.161261
0.162559
0.162625
0.160453
0.159208
0.15798
0.156739
0.155503
0.154258
0.153023
0.156403
0.157672
0.158934
0.160197
0.161432
0.162661
0.146138
0.15689
0.15808
0.154485
0.155694
0.151928
0.153225
0.149407
0.150652
0.146907
0.148166
0.144378
0.14564
0.141851
0.143117
0.139318
0.140584
0.13679
0.138054
0.13426
0.135525
0.13173
0.132996
0.129193
0.130462
0.126655
0.127924
0.124114
0.125385
0.121573
0.122843
0.11903
0.120302
0.116486
0.117758
0.113941
0.115214
0.111396
0.112668
0.108849
0.110123
0.106302
0.107575
0.103754
0.105028
0.101206
0.10248
0.0986583
0.0999327
0.0961109
0.0973844
0.0935638
0.0948374
0.0910177
0.0922905
0.0884725
0.0897451
0.085929
0.0872004
0.0833872
0.084658
0.0808479
0.0821173
0.0783111
0.079579
0.075776
0.0770435
0.073242
0.0745095
0.0707075
0.0719739
0.0681167
0.0694263
0.0667514
0.0667909
0.0667686
0.0667282
0.0667361
0.0667236
0.0667297
0.0667663
0.0667444
0.0667968
0.0667826
0.0668197
0.0668065
0.0668377
0.0668291
0.06685
0.0668446
0.0668609
0.0668552
0.0668698
0.0668631
0.0668661
0.0668642
0.0668569
0.0668708
0.066935
0.0668931
0.0670393
0.0669856
0.0696792
0.0670891
0.0683909
0.0722267
0.0709649
0.0747586
0.073489
0.077295
0.0760265
0.0798338
0.078564
0.0823751
0.0811041
0.0849182
0.0836465
0.0874639
0.0861908
0.0900109
0.0887374
0.0925596
0.0912851
0.0951096
0.0938346
0.0976606
0.0963851
0.100212
0.0989363
0.102765
0.101488
0.105317
0.104041
0.10787
0.106594
0.110424
0.109147
0.112977
0.1117
0.11553
0.114253
0.118082
0.116805
0.120633
0.119358
0.123184
0.121909
0.125734
0.124459
0.128283
0.127008
0.13083
0.129557
0.133377
0.132104
0.135924
0.134651
0.138469
0.137196
0.141014
0.139742
0.143557
0.142285
0.146093
0.144826
0.148629
0.14736
0.151169
0.1499
0.153694
0.152435
0.156194
0.154946
0.158704
0.157447
0.15997
0.150224
0.150504
0.163875
0.163815
0.147329
0.147377
0.151758
0.148717
0.148728
0.0681293
0.066842
0.0657263
0.0657822
0.149735
0.149963
0.151301
0.152552
0.153859
0.155132
0.16173
0.161717
0.162884
0.162907
0.161696
0.160443
0.159245
0.158
0.156763
0.155505
0.154284
0.157672
0.158936
0.1602
0.161458
0.162693
0.163912
0.165038
0.165113
0.147421
0.159353
0.160549
0.156942
0.158163
0.154452
0.155688
0.151906
0.15319
0.149396
0.150639
0.146905
0.148158
0.144374
0.14564
0.141848
0.14311
0.139322
0.140585
0.136793
0.138058
0.134263
0.135528
0.131731
0.132997
0.129194
0.130463
0.126655
0.127925
0.124114
0.125385
0.121571
0.122843
0.119028
0.1203
0.116483
0.117755
0.113937
0.11521
0.11139
0.112663
0.108842
0.110117
0.106294
0.107568
0.103745
0.10502
0.101197
0.102471
0.0986478
0.0999226
0.0960993
0.0973733
0.0935513
0.0948254
0.0910042
0.0922775
0.088458
0.0897312
0.0859135
0.0871854
0.0833706
0.084642
0.08083
0.0821
0.0782918
0.0795606
0.0757558
0.0770238
0.0732261
0.0744898
0.070693
0.0719546
0.0694178
0.0654446
0.0654881
0.0654672
0.0654613
0.0654516
0.0654823
0.0654766
0.0655223
0.0655054
0.0655479
0.0655323
0.0655728
0.0655596
0.0655909
0.0655825
0.0656043
0.0655983
0.0656145
0.0656096
0.0656217
0.0656165
0.0656204
0.0656218
0.0656004
0.0656202
0.0656413
0.0656147
0.065681
0.0696898
0.0671376
0.0684182
0.0722208
0.0709511
0.0747523
0.0734852
0.0772894
0.0760203
0.0798287
0.0785587
0.0823711
0.0810996
0.0849154
0.0836431
0.087462
0.0861884
0.0900101
0.088736
0.0925598
0.0912847
0.0951108
0.0938353
0.0976628
0.0963868
0.100215
0.098939
0.102769
0.101492
0.105323
0.104046
0.107877
0.1066
0.110431
0.109154
0.112985
0.111708
0.115539
0.114263
0.118093
0.116816
0.120646
0.119369
0.123198
0.121922
0.125749
0.124473
0.128299
0.127024
0.130848
0.129573
0.133396
0.132122
0.135943
0.13467
0.138489
0.137216
0.141033
0.139762
0.143575
0.142304
0.146114
0.144846
0.148646
0.14738
0.151174
0.14991
0.153705
0.152439
0.15622
0.154968
0.158698
0.157462
0.161206
0.159944
0.163736
0.16248
0.166335
0.166243
0.164956
0.151508
0.151798
0.148603
0.148653
0.0655281
0.0658183
0.153019
0.149991
0.150006
0.151022
0.15124
0.152576
0.153828
0.155132
0.156403
0.164085
0.164089
0.165317
0.165287
0.164118
0.16294
0.1617
0.160499
0.159258
0.158036
0.156772
0.15555
0.158941
0.160202
0.161463
0.16271
0.163939
0.165168
0.166396
0.166066
0.167635
0.167472
0.148698
0.161831
0.162958
0.159407
0.160623
0.15692
0.158177
0.154388
0.155644
0.151904
0.153152
0.1494
0.150648
0.146901
0.148155
0.144375
0.145638
0.141855
0.143115
0.139328
0.140592
0.136798
0.138063
0.134267
0.135533
0.131733
0.133
0.129196
0.130465
0.126656
0.127926
0.124114
0.125385
0.12157
0.122842
0.119026
0.120298
0.11648
0.117753
0.113932
0.115207
0.111385
0.112658
0.108836
0.110111
0.106287
0.107561
0.103737
0.105012
0.101187
0.102462
0.0986371
0.0999124
0.0960876
0.0973621
0.0935385
0.0948132
0.0909904
0.0922641
0.0884431
0.0897169
0.0858975
0.0871699
0.0833534
0.0846254
0.0808115
0.0820821
0.078272
0.0795414
0.0757348
0.0770032
0.0732004
0.0744673
0.0706666
0.0719308
0.0681356
0.0694062
0.0655386
0.0668489
0.0641952
0.0642182
0.0641975
0.064172
0.064183
0.0642034
0.0641784
0.0642428
0.0642271
0.0642752
0.0642626
0.0643031
0.064287
0.0643267
0.0643145
0.0643453
0.0643367
0.0643593
0.064353
0.0643689
0.0643646
0.0643728
0.0643702
0.064374
0.0643733
0.0643534
0.0643741
0.0643708
0.0643481
0.0644187
0.0643894
0.0645086
0.0644603
0.0671422
0.0645396
0.0658474
0.0696823
0.0684169
0.0722121
0.070948
0.0747444
0.0734775
0.0772827
0.0760131
0.0798229
0.0785526
0.0823664
0.0810944
0.0849119
0.083639
0.0874596
0.0861855
0.0900087
0.0887342
0.0925595
0.0912839
0.0951117
0.0938356
0.0976647
0.0963882
0.100218
0.0989414
0.102773
0.101496
0.105328
0.104051
0.107883
0.106606
0.110439
0.109161
0.112994
0.111716
0.115549
0.114272
0.118104
0.116826
0.120658
0.119381
0.123211
0.121935
0.125763
0.124488
0.128315
0.127039
0.130865
0.12959
0.133415
0.13214
0.135963
0.134689
0.138509
0.137236
0.141054
0.139782
0.143595
0.142324
0.146134
0.144865
0.148668
0.147401
0.151193
0.149932
0.153712
0.152451
0.156235
0.154976
0.158724
0.157485
0.161191
0.159955
0.163695
0.162451
0.164864
0.152775
0.153073
0.167673
0.149884
0.149931
0.154286
0.151265
0.151282
0.065556
0.0642744
0.0632013
0.0632249
0.152303
0.152518
0.153852
0.155104
0.156405
0.157675
0.166551
0.166698
0.167703
0.168874
0.16888
0.167745
0.166478
0.165324
0.164159
0.162944
0.16174
0.160515
0.159306
0.158039
0.15682
0.160209
0.161469
0.162722
0.163963
0.16519
0.166427
0.167654
0.149976
0.164152
0.165406
0.161888
0.163008
0.159374
0.160653
0.156874
0.158123
0.154388
0.155624
0.151916
0.153158
0.149408
0.150662
0.146903
0.148157
0.144384
0.145645
0.141862
0.143124
0.139334
0.140599
0.136804
0.138069
0.134271
0.135538
0.131736
0.133004
0.129198
0.130468
0.126657
0.127928
0.124114
0.125386
0.12157
0.122842
0.119024
0.120297
0.116477
0.11775
0.113928
0.115203
0.111379
0.112654
0.108829
0.110105
0.106279
0.107554
0.103728
0.105004
0.101177
0.102452
0.0986262
0.0999021
0.0960757
0.0973507
0.0935254
0.0948007
0.0909762
0.0922505
0.0884278
0.0897022
0.085881
0.087154
0.0833356
0.0846083
0.0807923
0.0820636
0.0782514
0.0795216
0.075713
0.0769819
0.0731771
0.0744444
0.0706465
0.0719112
0.0681165
0.0693785
0.0668425
0.0628938
0.0629105
0.0629052
0.0629163
0.0629067
0.0629552
0.0629289
0.0630008
0.0629806
0.0630285
0.0630124
0.0630593
0.0630434
0.063082
0.0630705
0.0631008
0.0630922
0.0631148
0.0631087
0.0631239
0.0631201
0.0631268
0.0631254
0.0631254
0.0631259
0.0631129
0.0631263
0.0631081
0.0631009
0.0631268
0.0631149
0.063165
0.0671335
0.0645687
0.0658576
0.0696679
0.0683984
0.0722003
0.0709339
0.0747355
0.0734677
0.0772749
0.0760049
0.0798165
0.0785455
0.0823611
0.0810885
0.0849079
0.0836344
0.0874567
0.086182
0.0900069
0.0887318
0.0925589
0.0912827
0.0951122
0.0938354
0.0976662
0.0963892
0.100221
0.0989435
0.102777
0.101499
0.105333
0.104055
0.107889
0.106611
0.110446
0.109168
0.113002
0.111724
0.115559
0.114281
0.118115
0.116837
0.12067
0.119393
0.123225
0.121948
0.125778
0.124502
0.128331
0.127055
0.130883
0.129607
0.133433
0.132158
0.135982
0.134708
0.138529
0.137256
0.141074
0.139803
0.143616
0.142345
0.146153
0.144886
0.148686
0.14742
0.151213
0.149952
0.153728
0.152471
0.156239
0.154984
0.158743
0.157494
0.161212
0.159979
0.163717
0.162469
0.165978
0.164862
0.168911
0.167356
0.170744
0.169917
0.170038
0.154049
0.154351
0.168844
0.151164
0.151209
0.0629696
0.0632662
0.155556
0.169862
0.152537
0.152559
0.170806
0.153587
0.153796
0.155127
0.15638
0.157678
0.158948
0.168618
0.168834
0.167679
0.166519
0.165385
0.1642
0.162992
0.161769
0.16057
0.159307
0.15809
0.161479
0.162735
0.163982
0.165217
0.166448
0.167659
0.168834
0.151252
0.168491
0.169721
0.171034
0.16976
0.16676
0.167614
0.164153
0.165515
0.161798
0.162949
0.15932
0.160576
0.156864
0.158085
0.154405
0.155639
0.15192
0.153165
0.149414
0.150668
0.146908
0.148161
0.144391
0.145651
0.141867
0.143129
0.13934
0.140604
0.13681
0.138075
0.134276
0.135543
0.13174
0.133008
0.129201
0.130471
0.126659
0.12793
0.124115
0.125387
0.121569
0.122842
0.119022
0.120296
0.116474
0.117748
0.113924
0.115199
0.111374
0.112649
0.108823
0.110099
0.106271
0.107547
0.103719
0.104996
0.101167
0.102443
0.0986152
0.0998916
0.0960635
0.0973391
0.093512
0.094788
0.0909617
0.0922365
0.088412
0.0896871
0.085864
0.0871376
0.0833172
0.0845906
0.0807725
0.0820445
0.0782302
0.0795011
0.0756902
0.07696
0.0731534
0.0744211
0.0706203
0.0718866
0.0680947
0.0693559
0.0655575
0.0668203
0.062976
0.0642814
0.0616303
0.0616566
0.0616298
0.0616254
0.0616311
0.0616671
0.0616415
0.0617141
0.061688
0.0617526
0.0617346
0.0617849
0.0617682
0.0618156
0.0618003
0.0618388
0.0618273
0.0618569
0.061849
0.0618717
0.0618661
0.0618802
0.0618766
0.0618833
0.0618822
0.0618788
0.0618822
0.0618725
0.0618784
0.0618572
0.0618612
0.0618541
0.0618488
0.0619011
0.061874
0.0619672