/*--------------------------------*- C++ -*----------------------------------*\
  =========                 |
  \\      /  F ield         | OpenFOAM: The Open Source CFD Toolbox
   \\    /   O peration     | Website:  https://openfoam.org
    \\  /    A nd           | Version:  10
     \\/     M anipulation  |
\*---------------------------------------------------------------------------*/
FoamFile
{
    format      ascii;
    class       volVectorField;
    location    "29";
    object      U;
}
// * * * * * * * * * * * * * * * * * * * * * * * * * * * * * * * * * * * * * //

dimensions      [0 1 -1 0 0 0 0];

internalField   nonuniform List<vector> 
14667
(
(1.03724 0.0669632 -1.29862e-19)
(0.887 0.0445634 -5.57242e-20)
(0.538821 0.0256679 -9.01779e-22)
(0.656462 0.0231223 2.42848e-22)
(0.641217 0.0246513 2.38572e-22)
(0.990235 -0.0897682 -3.27331e-20)
(1.03223 -0.0827574 7.2245e-20)
(0.426212 0.0368433 -9.26114e-22)
(0.51035 0.0281594 0)
(0.6288 0.0274934 -7.37546e-24)
(1.03691 -0.0671184 -3.06872e-20)
(1.02563 -0.0395387 1.65095e-20)
(0.986132 -0.0231078 -4.03064e-20)
(0.885895 -0.0752369 1.1955e-19)
(0.472119 0.0234638 -1.12122e-21)
(1.01853 -0.0312734 0)
(1.01893 -0.0293782 0)
(0.583896 0.0126424 -9.36094e-22)
(0.351467 0.0143555 0)
(1.03982 -0.0589706 0)
(1.05564 0.0857547 -9.77225e-20)
(0.885689 -0.00320414 6.81369e-20)
(0.997496 0.0160101 0)
(1.0013 0.0408767 5.23285e-21)
(-0.0242223 -0.128651 6.73499e-20)
(0.394386 -0.109653 2.27036e-19)
(-0.0488048 -0.0483773 7.06632e-20)
(-0.15716 -0.128975 -2.76317e-19)
(-0.133647 -0.157469 5.00346e-21)
(0.80941 0.0562145 1.5838e-20)
(0.862005 0.0320483 -1.49302e-21)
(0.875746 0.00611418 -4.45085e-20)
(-0.0120206 -0.119919 1.88469e-20)
(-0.0490867 -0.0875596 1.01274e-19)
(-0.172425 -0.0401132 1.16925e-19)
(0.0780308 -0.0509622 -1.75465e-19)
(0.112527 -0.0294591 -2.45487e-21)
(0.448362 -0.055684 1.76137e-21)
(0.443992 -0.0341273 4.41863e-22)
(0.570842 -0.0243143 -2.8959e-22)
(0.560767 -0.0195394 0)
(0.458654 0.00578362 -1.53917e-20)
(0.553701 -0.244712 5.15787e-19)
(0.6147 -0.12819 -1.69344e-19)
(0.438311 -0.101055 -1.18787e-19)
(0.353634 -0.311276 7.98597e-20)
(0.591562 -0.48148 -1.02638e-20)
(0.905646 -0.0515923 -4.95785e-21)
(0.902237 -0.0333933 4.78287e-21)
(0.492755 -0.103939 0)
(0.55981 -0.127868 0)
(0.739447 -0.00837605 0)
(0.796974 -0.0229152 0)
(0.854957 -0.0181679 -7.79214e-20)
(1.42155 -0.240891 2.25822e-20)
(1.4648 -0.207625 1.40076e-20)
(1.36036 0.117407 4.55822e-20)
(1.38632 0.103265 2.5618e-20)
(0.041147 -0.306115 -2.49675e-20)
(0.301884 -0.26907 2.27768e-20)
(-0.0963585 -0.0754579 2.08815e-19)
(-0.0571965 -0.116531 0)
(1.02385 -0.503802 -2.39108e-21)
(1.03085 -0.415789 -5.36532e-20)
(0.954029 -0.37144 -4.81429e-21)
(0.890593 -0.671439 -8.54751e-21)
(0.980027 -0.583148 4.28585e-20)
(0.478475 0.651593 5.72821e-20)
(0.794805 0.686905 -2.16987e-20)
(0.905198 0.0158087 3.95768e-20)
(0.923356 0.00143627 -3.66324e-20)
(0.927405 0.0258417 -3.98898e-20)
(0.14721 -0.0571091 0)
(0.149372 -0.294668 3.94804e-20)
(0.434296 -0.0507325 -2.24581e-21)
(0.61242 0.0495025 -5.94036e-21)
(0.837546 0.0313765 1.5521e-20)
(0.791498 0.00193619 -5.52055e-21)
(0.913696 -0.016763 2.09618e-19)
(0.899104 -0.0485595 2.26173e-22)
(0.654857 -0.0175439 -1.03614e-21)
(0.735186 -0.0181497 0)
(0.663511 -0.0206473 2.34504e-21)
(0.859823 0.0221281 2.79104e-23)
(0.859154 0.0234489 0)
(0.162835 -0.312838 0)
(0.0385205 -0.338595 -1.4079e-19)
(0.247531 -0.237443 7.88406e-21)
(0.585401 -0.190671 -3.64401e-20)
(1.17092 -0.152097 -4.20048e-20)
(1.3941 -0.154979 5.7782e-20)
(1.16518 -0.407652 3.27111e-22)
(1.12727 -0.397264 -4.38431e-22)
(0.947673 -0.449501 8.63422e-21)
(0.971656 -0.467964 -4.36784e-21)
(1.00723 0.504995 1.25145e-20)
(0.963065 0.490803 9.0676e-21)
(1.02487 -0.354927 3.52466e-21)
(0.975854 -0.374118 -7.80281e-21)
(1.00905 -0.566838 6.61155e-21)
(0.977612 -0.584369 -2.94365e-21)
(1.54803 -0.292799 7.19275e-21)
(1.51881 -0.213624 4.23105e-20)
(0.933807 0.107008 7.00891e-21)
(0.913182 0.0818378 -2.46078e-20)
(0.939557 0.0678976 3.22124e-21)
(0.959008 0.0894948 3.08941e-21)
(0.960708 0.145066 2.12144e-20)
(0.952675 0.12077 4.57173e-22)
(0.38219 -0.0165697 3.02993e-22)
(0.235215 -0.0101494 -9.45483e-23)
(0.25376 -0.00558484 -4.86877e-22)
(0.402432 -0.0108094 0)
(0.496503 -0.0261185 3.76977e-22)
(0.509296 -0.0187729 -1.46462e-22)
(1.24275 -0.0690374 -5.55749e-21)
(1.26728 -0.0771896 1.62236e-20)
(1.25073 -0.0646787 0)
(0.346536 -0.0340555 -4.93124e-22)
(0.266624 -0.0312677 -2.28599e-22)
(0.394437 -0.0257428 5.31206e-23)
(0.930859 -0.380133 -3.97789e-21)
(0.956297 -0.401068 2.29695e-20)
(0.938694 -0.303917 -1.19367e-20)
(0.93108 -0.193346 1.62581e-20)
(0.909248 -0.165336 0)
(0.916343 -0.284549 2.50261e-21)
(0.926004 -0.0655401 -4.60964e-20)
(0.925895 0.0575629 2.33529e-20)
(0.898144 0.100594 0)
(0.904299 -0.0373524 0)
(0.930349 0.176639 0)
(0.932188 0.289212 -2.04242e-20)
(0.902642 0.338991 0)
(0.898147 0.225487 0)
(0.938137 0.383705 2.05214e-20)
(0.946045 0.458524 0)
(0.925507 0.503686 0)
(0.912832 0.433181 0)
(0.956187 0.510865 -1.4558e-20)
(0.967281 0.541681 1.44509e-20)
(0.957678 0.565006 0)
(0.941025 0.54696 0)
(0.979002 0.55372 0)
(0.990085 0.554273 1.0495e-20)
(0.989217 0.557822 2.59524e-24)
(0.974358 0.565178 0)
(0.999505 0.551183 -1.05629e-20)
(1.00652 0.550959 0)
(1.00984 0.553288 0)
(1.00121 0.552218 0)
(1.01087 0.556343 9.26331e-24)
(1.01278 0.566874 0)
(1.01818 0.573564 0)
(1.01525 0.56131 0)
(1.0119 0.582323 1.42934e-20)
(1.00935 0.597272 -1.25912e-20)
(1.02053 0.601009 -1.38219e-21)
(1.01983 0.586997 0)
(1.00311 0.607588 0)
(0.996446 0.612702 0)
(1.01713 0.620788 -2.96318e-21)
(1.01998 0.612722 1.48825e-21)
(0.984252 0.607834 3.70202e-21)
(0.969352 0.587924 4.74316e-21)
(0.999407 0.601709 -5.1043e-21)
(1.00937 0.619231 3.96224e-21)
(0.98486 0.561896 1.04225e-20)
(0.947947 0.544477 -9.89175e-21)
(0.965132 -0.497625 -7.88242e-22)
(0.985788 -0.512537 3.85443e-21)
(0.921502 0.470675 2.26655e-23)
(0.946636 -0.480034 2.44756e-21)
(0.965011 -0.511119 -4.80425e-21)
(0.981144 -0.526722 -1.64153e-22)
(1.00016 -0.489145 0)
(1.01025 -0.527543 -4.20952e-21)
(0.914944 0.52091 -1.9833e-21)
(0.961417 0.59062 -8.92758e-21)
(0.940293 0.566223 3.62235e-21)
(0.99127 0.59696 6.20457e-21)
(0.97879 0.599479 -6.38901e-21)
(1.00719 0.577254 0)
(1.0008 0.589549 0)
(1.01011 0.556716 -8.94884e-24)
(1.00981 0.565062 0)
(1.00461 0.558006 5.00318e-24)
(1.00833 0.554372 0)
(0.992759 0.565952 0)
(0.999202 0.564338 0)
(0.979182 0.5231 1.54748e-23)
(0.985982 0.554635 0)
(0.963229 0.386863 -4.72147e-25)
(0.971587 0.46795 0)
(0.949945 0.153303 0)
(0.955016 0.280702 0)
(0.964017 -0.120125 -3.615e-25)
(0.953994 0.0158404 0)
(0.97948 -0.350136 0)
(0.972796 -0.244047 0)
(0.991762 -0.431113 -1.22439e-20)
(1.01917 -0.548599 -3.56055e-21)
(0.999048 -0.539076 3.67255e-21)
(0.907279 -0.362096 -1.62875e-21)
(0.927081 -0.431596 0)
(0.877139 -0.164903 -2.1364e-22)
(0.890157 -0.271317 -2.14186e-21)
(0.867089 0.0706577 0)
(0.868441 -0.0501944 -7.3773e-23)
(0.879623 0.293563 0)
(0.872366 0.18748 0)
(0.904918 0.451142 0)
(0.89107 0.382244 0)
(0.938579 0.525138 0)
(0.921149 0.49832 0)
(0.973988 0.537309 0)
(0.956582 0.535707 0)
(1.00351 0.541207 0)
(0.989893 0.537313 0)
(1.02358 0.564729 0)
(1.01462 0.550664 0)
(1.03644 0.598105 -1.43877e-21)
(1.03087 0.581333 0)
(1.04146 0.624431 8.04181e-22)
(1.04009 0.61346 -1.81861e-22)
(1.03416 0.612884 -4.87264e-21)
(1.03941 0.626371 0)
(1.02373 0.574695 -1.45233e-20)
(0.994339 -0.540628 -1.94859e-21)
(0.981427 -0.527794 4.86183e-22)
(0.883847 0.444949 2.79748e-21)
(0.936957 0.384162 -6.49618e-21)
(1.04263 -0.551361 0)
(1.04525 -0.557894 8.10678e-22)
(1.02572 -0.556492 7.78353e-22)
(0.985191 0.399917 0)
(0.885779 0.493048 -1.64888e-21)
(0.941904 0.570466 -1.06526e-21)
(0.916289 0.542593 0)
(0.980126 0.583524 -5.2357e-21)
(0.963751 0.583231 5.89443e-21)
(1.00296 0.571046 0)
(0.99339 0.579476 2.06793e-21)
(1.01451 0.557947 8.73702e-24)
(1.01006 0.562751 0)
(1.01667 0.565488 -1.3609e-26)
(1.01652 0.55898 0)
(1.01379 0.576193 -6.3349e-24)
(1.01558 0.573752 0)
(1.00861 0.532325 2.01345e-25)
(1.01149 0.564661 0)
(1.00329 0.393885 -3.05148e-25)
(1.00549 0.475689 0)
(1.0035 0.169745 0)
(1.00298 0.289965 0)
(1.00141 -0.0933858 -4.94007e-25)
(1.00142 0.0404972 0)
(1.01287 -0.332191 0)
(1.00669 -0.221435 0)
(1.0281 -0.487768 6.86309e-23)
(1.02063 -0.421368 6.20397e-22)
(1.03638 -0.529592 6.71485e-21)
(1.00908 -0.550144 -6.09208e-24)
(0.971186 -0.512328 6.16833e-22)
(0.931823 -0.461016 2.2243e-21)
(0.952419 -0.493794 1.34685e-21)
(0.888527 -0.343052 8.76183e-22)
(0.910028 -0.411881 -7.83034e-22)
(0.856769 -0.152359 3.58127e-24)
(0.870192 -0.25411 5.74077e-23)
(0.843804 0.0807227 0)
(0.847468 -0.0382027 0)
(0.854183 0.297713 0)
(0.846317 0.194155 0)
(0.882732 0.452481 0)
(0.866694 0.385359 0)
(0.924592 0.517384 0)
(0.902394 0.495969 0)
(0.969774 0.521816 0)
(0.947779 0.522893 0)
(1.00519 0.528442 0)
(0.989084 0.522238 0)
(1.0309 0.555777 0)
(1.01876 0.540335 0)
(1.0529 0.590962 0)
(1.04236 0.572949 0)
(1.06804 0.622855 8.08823e-22)
(1.06165 0.608605 -7.91995e-22)
(1.07173 0.617682 7.52276e-21)
(1.07197 0.627958 0)
(1.05507 0.518523 -6.58615e-21)
(1.06506 0.58347 9.27897e-21)
(0.961944 0.263912 -8.09289e-21)
(1.01812 0.282145 6.03769e-21)
(1.03619 0.416992 -2.02107e-21)
(0.852405 0.417067 -1.53799e-22)
(0.892205 0.364362 -5.87895e-21)
(0.909054 0.246483 -4.61534e-22)
(1.02943 -0.555324 -7.23068e-22)
(0.938221 0.104589 0)
(0.994293 0.121227 -8.674e-21)
(1.04549 -0.554748 -1.47449e-21)
(0.963833 -0.494087 0)
(1.07024 -0.55539 -1.77919e-21)
(1.06754 -0.55766 4.52671e-24)
(0.982574 -0.504635 0)
(0.987766 -0.520687 -6.17197e-22)
(0.819145 0.314097 8.69147e-21)
(0.851995 0.33968 0)
(0.792601 0.284986 -1.6743e-21)
(0.861813 0.461341 2.09196e-21)
(0.826957 0.385329 8.83888e-22)
(0.923842 0.545338 -1.54543e-22)
(0.894721 0.51296 1.43562e-21)
(0.96944 0.567436 -3.71768e-23)
(0.948814 0.562052 3.35121e-23)
(1.00073 0.561709 0)
(0.98653 0.56645 2.60614e-22)
(1.02104 0.554224 -3.09893e-25)
(1.01228 0.556531 0)
(1.03125 0.564802 -5.02089e-24)
(1.02713 0.557132 0)
(1.03717 0.575793 6.33489e-24)
(1.03437 0.573385 0)
(1.04259 0.53304 -8.98427e-26)
(1.0399 0.564485 0)
(1.04759 0.396344 -6.50211e-27)
(1.04528 0.477517 0)
(1.04923 0.166083 0)
(1.04887 0.291141 0)
(1.0537 -0.108764 1.20042e-23)
(1.05102 0.0289451 0)
(1.06046 -0.353332 0)
(1.05696 -0.239534 0)
(1.0682 -0.502976 -4.63684e-22)
(1.06521 -0.442017 1.86584e-21)
(1.07031 -0.539127 -2.13505e-23)
(1.00472 -0.544311 -1.32394e-21)
(1.016 -0.551556 0)
(0.995042 -0.53381 6.97681e-22)
(0.920248 -0.439038 -1.39274e-21)
(0.942811 -0.473324 0)
(0.874341 -0.321695 0)
(0.896943 -0.3895 0)
(0.839963 -0.139996 -3.58213e-24)
(0.854975 -0.237271 0)
(0.826453 0.0775514 0)
(0.829975 -0.0327875 0)
(0.837545 0.281918 0)
(0.829123 0.184692 0)
(0.869691 0.425285 0)
(0.851289 0.363466 0)
(0.916725 0.487332 0)
(0.892067 0.465738 0)
(0.965426 0.499269 -1.82148e-24)
(0.941797 0.49594 0)
(1.00551 0.512239 -1.7631e-24)
(0.986676 0.503587 0)
(1.03891 0.541467 0)
(1.02267 0.525304 0)
(1.06971 0.578708 0)
(1.05463 0.559495 0)
(1.0956 0.61442 0)
(1.08366 0.597977 0)
(1.11057 0.616719 1.12488e-21)
(1.10499 0.62292 0)
(1.10593 0.529274 0)
(1.11066 0.588462 -5.50056e-21)
(1.07579 0.302055 1.00702e-20)
(1.09204 0.434825 -1.9356e-21)
(1.0269 -0.0383268 -4.31401e-21)
(1.05304 0.139798 0)
(0.862312 0.227412 -6.94127e-21)
(0.787763 0.184332 -5.52737e-21)
(0.761934 0.161591 2.92653e-21)
(1.00215 -0.522425 0)
(0.999696 -0.508414 -5.02905e-22)
(0.885519 0.0893969 1.1537e-20)
(0.970877 -0.0545923 4.37567e-21)
(0.916789 -0.0661642 0)
(0.948002 -0.227853 0)
(1.06314 -0.551113 2.13339e-21)
(1.00091 -0.214947 4.33858e-21)
(0.821392 0.205665 -2.77347e-21)
(0.737099 0.0233858 -2.97316e-21)
(0.719384 0.00953563 -2.12614e-21)
(0.773687 0.255764 8.17008e-22)
(0.743464 0.138504 -1.41266e-21)
(0.843545 0.427753 8.92667e-22)
(0.808015 0.352425 -1.93178e-21)
(0.909133 0.516644 -8.42403e-24)
(0.87766 0.480958 0)
(0.961318 0.547462 3.65954e-24)
(0.937051 0.537699 0)
(0.999987 0.547642 0)
(0.982179 0.549758 0)
(1.02774 0.544221 -4.54243e-25)
(1.01512 0.54464 0)
(1.04689 0.557533 0)
(1.0381 0.548719 0)
(1.06319 0.569498 -5.80433e-24)
(1.05507 0.566696 0)
(1.07925 0.527844 -8.12653e-24)
(1.07134 0.558696 0)
(1.09277 0.392009 1.03136e-23)
(1.08658 0.472731 0)
(1.10129 0.165008 0)
(1.09769 0.287793 0)
(1.10488 -0.106969 1.18181e-23)
(1.10348 0.0306883 0)
(1.10675 -0.348669 0)
(1.10627 -0.236594 -6.89849e-28)
(1.10431 -0.496997 -1.39045e-22)
(1.10661 -0.436025 0)
(1.09576 -0.54836 8.29733e-22)
(1.10102 -0.532721 -1.07391e-21)
(1.08073 -0.54163 -2.74717e-21)
(1.08903 -0.549552 -8.45227e-22)
(1.05695 -0.539506 -1.24873e-21)
(1.031 -0.54824 7.41519e-22)
(1.04351 -0.545556 6.33416e-22)
(1.01261 -0.541954 0)
(1.02071 -0.54692 0)
(1.00633 -0.533663 6.22266e-22)
(0.998832 -0.492377 7.66904e-22)
(0.95888 -0.473518 2.24216e-22)
(0.979677 -0.486378 4.38921e-22)
(0.912541 -0.415723 0)
(0.936178 -0.451061 2.50055e-22)
(0.865117 -0.300203 0)
(0.888189 -0.36593 0)
(0.829089 -0.126823 0)
(0.844974 -0.219631 0)
(0.814785 0.0787947 0)
(0.818695 -0.0253709 0)
(0.825827 0.271865 0)
(0.817228 0.17992 0)
(0.859684 0.407204 0)
(0.840162 0.349061 0)
(0.910223 0.464172 0)
(0.883574 0.44469 0)
(0.963726 0.475847 1.82148e-24)
(0.937637 0.47191 0)
(1.00835 0.492749 1.7631e-24)
(0.987302 0.481989 0)
(1.04712 0.523917 0)
(1.02791 0.507254 0)
(1.08579 0.561785 0)
(1.06648 0.542079 0)
(1.12247 0.600362 0)
(1.10464 0.58214 0)
(1.1506 0.61044 -1.09734e-21)
(1.13829 0.611881 0)
(1.15837 0.535157 0)
(1.15801 0.587659 0)
(1.13507 0.319804 0)
(1.15068 0.446645 1.72687e-21)
(1.08432 -0.0172843 -8.53852e-21)
(1.11321 0.16089 -4.23734e-21)
(1.05589 -0.194017 8.18577e-21)
(1.07063 -0.5291 3.04402e-21)
(0.838368 0.0728721 1.70226e-21)
(0.762663 0.0385638 6.05433e-21)
(0.865503 -0.0770637 -3.79213e-21)
(0.705104 -0.124605 1.48992e-21)
(0.720688 -0.120055 0)
(0.897004 -0.235436 3.88556e-21)
(0.999772 -0.474382 -1.6651e-21)
(1.01898 -0.47873 3.95388e-22)
(1.01614 -0.494931 -1.17322e-21)
(0.927864 -0.385375 7.75194e-21)
(0.957587 -0.504738 -3.71732e-21)
(1.09967 -0.529915 0)
(1.08507 -0.515731 0)
(1.00094 -0.486763 6.60111e-21)
(0.796912 0.0553616 1.54803e-22)
(0.701919 -0.248686 1.88957e-23)
(0.696483 -0.237134 -1.88701e-23)
(0.709911 -0.00477538 1.87988e-22)
(0.697458 -0.126352 0)
(0.760724 0.223995 7.37757e-22)
(0.731857 0.114591 0)
(0.829443 0.391115 0)
(0.794154 0.316802 -1.2663e-22)
(0.89792 0.485339 0)
(0.864608 0.446579 0)
(0.955459 0.523565 0)
(0.928319 0.510125 0)
(1.00029 0.529173 2.46945e-24)
(0.979384 0.528817 0)
(1.03482 0.529971 -6.51071e-24)
(1.01862 0.528374 0)
(1.06285 0.546041 0)
(1.04935 0.536137 0)
(1.08928 0.558543 4.86807e-25)
(1.07605 0.555641 0)
(1.11546 0.517518 7.28005e-24)
(1.10253 0.547859 0)
(1.13805 0.38506 -9.43815e-24)
(1.12757 0.463639 0)
(1.15183 0.162421 0)
(1.14628 0.283358 0)
(1.15633 -0.108034 -1.18181e-23)
(1.15504 0.0288242 0)
(1.15406 -0.349843 0)
(1.15605 -0.237738 6.89849e-28)
(1.14372 -0.496225 0)
(1.15013 -0.436951 0)
(1.12476 -0.541934 -7.64243e-22)
(1.13521 -0.529464 0)
(1.11278 -0.540217 1.33386e-21)
(1.04818 -0.526633 0)
(1.06947 -0.500901 4.67201e-22)
(1.05856 -0.515221 -1.15043e-21)
(1.02987 -0.538731 6.30401e-22)
(1.03854 -0.534387 -6.20558e-22)
(1.01815 -0.536538 0)
(1.02299 -0.539363 0)
(1.0139 -0.521375 0)
(1.01518 -0.530452 0)
(1.01424 -0.509384 1.455e-21)
(0.956423 -0.451842 0)
(0.979042 -0.466526 0)
(0.908173 -0.391413 0)
(0.93278 -0.427595 0)
(0.860058 -0.278471 1.79322e-24)
(0.883362 -0.34204 0)
(0.82336 -0.113672 0)
(0.839555 -0.201611 0)
(0.808309 0.0795371 0)
(0.812666 -0.0182371 0)
(0.819007 0.259816 0)
(0.810411 0.174212 0)
(0.854788 0.383688 0)
(0.833953 0.330934 0)
(0.908794 0.435449 0)
(0.880418 0.417386 0)
(0.96455 0.450706 0)
(0.937526 0.444233 0)
(1.01176 0.471647 0)
(0.98913 0.459397 0)
(1.05559 0.503031 0)
(1.03363 0.486523 0)
(1.10083 0.540709 -1.83752e-24)
(1.078 0.521021 -1.98298e-28)
(1.14704 0.580533 0)
(1.12396 0.561343 0)
(1.18883 0.596166 3.51334e-25)
(1.16921 0.59412 0)
(1.21078 0.534088 0)
(1.20356 0.57896 0)
(1.19712 0.336119 4.54044e-22)
(1.20919 0.453904 -1.62213e-21)
(1.14587 0.0124798 7.93815e-21)
(1.17594 0.184764 3.41498e-21)
(1.07472 -0.327819 -9.22027e-21)
(1.11266 -0.164701 -5.77941e-21)
(1.04158 -0.464777 -9.56444e-21)
(0.818821 -0.0896374 -3.31234e-21)
(0.744507 -0.113627 -3.48721e-21)
(1.03152 -0.497144 -7.2373e-22)
(1.03657 -0.482216 -3.99442e-22)
(0.849032 -0.24206 0)
(0.714804 -0.256054 -1.73149e-21)
(0.882349 -0.390255 -3.4595e-22)
(0.710017 -0.328258 6.8289e-23)
(0.711969 -0.351696 -6.81659e-23)
(0.915697 -0.51255 6.82019e-21)
(0.94073 -0.599258 2.67377e-21)
(1.0801 -0.483156 1.19243e-21)
(0.957854 -0.645033 4.37584e-21)
(0.979124 -0.631662 -9.74002e-22)
(1.05372 -0.485988 4.36862e-22)
(1.06202 -0.468061 0)
(0.777729 -0.102936 0)
(0.737683 -0.390396 -1.79366e-21)
(0.746317 -0.353049 3.22148e-22)
(0.698462 -0.224186 6.25062e-22)
(0.715407 -0.301839 -6.31841e-22)
(0.705764 -0.0186271 3.21169e-22)
(0.695839 -0.126802 0)
(0.753391 0.193125 8.57841e-23)
(0.726031 0.0908564 0)
(0.820759 0.355249 0)
(0.785812 0.282041 -8.63012e-23)
(0.890486 0.452808 0)
(0.856222 0.41183 0)
(0.951632 0.496627 -1.5538e-24)
(0.92244 0.480279 0)
(1.00172 0.507654 -2.46945e-24)
(0.978037 0.504673 0)
(1.04241 0.512749 5.39142e-24)
(1.02302 0.509223 0)
(1.07795 0.530451 3.32947e-24)
(1.0605 0.520123 0)
(1.11333 0.542663 5.31752e-24)
(1.09548 0.539934 0)
(1.14913 0.502803 -6.94166e-25)
(1.13141 0.532202 0)
(1.18002 0.374602 7.96365e-25)
(1.16569 0.450716 0)
(1.19923 0.157596 0)
(1.19135 0.275671 0)
(1.2054 -0.107923 0)
(1.20385 0.0267411 0)
(1.19968 -0.344374 0)
(1.20411 -0.235155 0)
(1.181 -0.484418 0)
(1.19201 -0.428197 0)
(1.15176 -0.525894 7.68616e-22)
(1.16733 -0.515136 0)
(1.11741 -0.512271 1.12242e-21)
(1.13471 -0.523342 -1.937e-21)
(1.09848 -0.498827 0)
(1.03828 -0.513662 0)
(1.04567 -0.501233 4.86081e-22)
(1.02657 -0.529065 -2.82692e-22)
(1.0318 -0.522932 2.85398e-22)
(1.02149 -0.531025 0)
(1.02306 -0.531721 0)
(1.02386 -0.519992 0)
(1.02181 -0.5271 0)
(1.02718 -0.509858 8.20231e-22)
(1.04205 -0.46537 3.54056e-22)
(1.00198 -0.454715 -2.52919e-22)
(1.02282 -0.460575 -3.24659e-22)
(0.95646 -0.42886 0)
(0.97985 -0.445204 0)
(0.906801 -0.366619 0)
(0.932017 -0.403092 0)
(0.858517 -0.256516 -1.79322e-24)
(0.881885 -0.317876 0)
(0.821754 -0.100182 0)
(0.83801 -0.183246 0)
(0.80611 0.0808331 0)
(0.810853 -0.0106066 0)
(0.816618 0.247989 0)
(0.807941 0.168935 0)
(0.853971 0.360312 0)
(0.83215 0.312879 0)
(0.910036 0.406892 0)
(0.880709 0.390337 0)
(0.967086 0.424561 -9.65936e-25)
(0.93946 0.41625 0)
(1.0163 0.448647 -1.00691e-24)
(0.992461 0.435219 0)
(1.06384 0.479688 0)
(1.03982 0.463686 0)
(1.11437 0.515969 1.83752e-24)
(1.08867 0.496968 1.98298e-28)
(1.16867 0.555392 0)
(1.14108 0.536091 0)
(1.22273 0.576077 4.37448e-25)
(1.19642 0.570464 0)
(1.26039 0.528333 0)
(1.24516 0.564855 0)
(1.25873 0.350995 0)
(1.26567 0.45835 0)
(1.20888 0.0432802 1.77285e-21)
(1.2399 0.2093 0)
(1.12688 -0.293882 0)
(1.16999 -0.131145 1.76816e-22)
(1.046 -0.534658 1.78546e-21)
(1.08358 -0.433152 -2.70055e-21)
(0.95729 -0.657643 -5.73319e-21)
(0.979972 -0.629854 -9.76246e-22)
(1.009 -0.600337 3.93791e-21)
(0.804791 -0.250348 1.60786e-21)
(0.736037 -0.258764 1.1499e-21)
(0.839036 -0.392734 0)
(0.721566 -0.371354 8.0991e-22)
(0.874137 -0.515413 -1.79963e-21)
(0.735634 -0.42478 -1.04418e-21)
(0.905541 -0.604639 -1.43721e-21)
(0.786022 -0.381285 0)
(0.775458 -0.424866 1.47297e-21)
(0.929571 -0.655406 0)
(0.943354 -0.669059 -4.32329e-21)
(0.955874 -0.63316 -1.07346e-21)
(0.94206 -0.657093 1.93204e-21)
(1.09077 -0.463294 -1.58012e-21)
(0.93706 -0.621527 4.2065e-21)
(1.04835 -0.446702 0)
(1.03731 -0.472295 -8.40982e-22)
(1.04347 -0.45376 -3.4541e-22)
(1.06899 -0.452525 -1.32646e-21)
(1.06116 -0.470627 9.8948e-22)
(0.932332 -0.601253 1.17926e-20)
(1.07029 -0.447968 3.10922e-22)
(0.766769 -0.256668 0)
(0.830005 -0.396197 5.59159e-22)
(0.843245 -0.354383 -1.89554e-23)
(0.761494 -0.314874 2.09727e-22)
(0.802037 -0.338636 -2.11762e-22)
(0.70713 -0.210691 3.53728e-22)
(0.727754 -0.274252 -1.44389e-22)
(0.707345 -0.0312095 1.50889e-22)
(0.700697 -0.127109 -1.92286e-22)
(0.75029 0.163137 0)
(0.724826 0.0679186 0)
(0.815871 0.31972 0)
(0.781486 0.248138 0)
(0.885979 0.419114 0)
(0.85125 0.376615 0)
(0.949771 0.46759 1.5538e-24)
(0.918999 0.448732 0)
(1.0042 0.483794 0)
(0.978189 0.478267 0)
(1.04998 0.492632 -6.19327e-25)
(1.02799 0.487561 0)
(1.09153 0.510934 -6.32565e-25)
(1.07089 0.500681 0)
(1.13441 0.522389 0)
(1.11264 0.519982 0)
(1.17842 0.483643 -8.3141e-25)
(1.15661 0.512088 0)
(1.21688 0.360265 9.80545e-25)
(1.19892 0.433484 0)
(1.2419 0.150798 0)
(1.23143 0.264968 0)
(1.2502 -0.107534 0)
(1.24813 0.0235884 0)
(1.24179 -0.337353 0)
(1.24822 -0.231443 0)
(1.216 -0.470959 6.46458e-24)
(1.23095 -0.417877 0)
(1.17733 -0.508223 -2.99772e-22)
(1.19772 -0.499185 0)
(1.13399 -0.492935 -9.65707e-22)
(1.15582 -0.504126 3.02361e-22)
(1.11147 -0.47879 4.47532e-22)
(1.02677 -0.50256 2.40681e-22)
(1.03162 -0.488676 -7.20595e-22)
(1.02112 -0.521564 0)
(1.02312 -0.513524 0)
(1.02269 -0.52785 0)
(1.02096 -0.526363 0)
(1.03146 -0.521005 0)
(1.02625 -0.526063 0)
(1.04584 -0.500882 4.85428e-22)
(1.0381 -0.512582 -3.60952e-22)
(1.05354 -0.486714 4.38715e-22)
(1.00535 -0.433783 5.69509e-22)
(1.02737 -0.440902 2.35009e-22)
(0.958366 -0.404575 0)
(0.982454 -0.422604 0)
(0.907921 -0.341518 0)
(0.933326 -0.378124 0)
(0.85981 -0.234591 0)
(0.883048 -0.293723 0)
(0.823225 -0.0865106 0)
(0.839458 -0.16484 0)
(0.807223 0.0824128 0)
(0.812194 -0.00264365 0)
(0.817937 0.235672 0)
(0.808984 0.163669 0)
(0.856937 0.335552 0)
(0.834175 0.293784 0)
(0.914254 0.377427 0)
(0.884511 0.361957 0)
(0.971155 0.398185 2.80144e-25)
(0.943658 0.387855 0)
(1.02137 0.424501 2.64323e-25)
(0.996741 0.41049 0)
(1.07172 0.454411 0)
(1.04617 0.4392 0)
(1.12609 0.488445 0)
(1.09828 0.470687 0)
(1.1866 0.525437 0)
(1.15551 0.507183 0)
(1.25084 0.548227 5.88354e-24)
(1.21886 0.540569 0)
(1.30331 0.513022 0)
(1.28016 0.541789 0)
(1.31534 0.359463 7.37012e-22)
(1.3162 0.453879 0)
(1.26933 0.0736156 -5.79407e-24)
(1.29978 0.229676 -7.45919e-22)
(1.17799 -0.255086 -2.79606e-21)
(1.22717 -0.0939505 3.10838e-21)
(1.08007 -0.499677 1.83936e-21)
(1.12701 -0.393298 2.45315e-21)
(0.993099 -0.607825 1.96988e-21)
(1.03287 -0.57156 -3.65568e-21)
(0.956537 -0.616199 -4.11035e-21)
(0.799188 -0.393838 -3.37138e-22)
(0.739253 -0.38431 9.45751e-22)
(1.07975 -0.477894 6.25022e-22)
(1.08974 -0.459575 -3.55587e-22)
(0.940432 -0.56066 5.51215e-22)
(0.835469 -0.514335 -2.81145e-21)
(0.740873 -0.454518 0)
(0.871499 -0.604238 -2.65595e-21)
(0.770304 -0.466162 1.0447e-21)
(0.902467 -0.657162 -8.20524e-23)
(0.819146 -0.439238 0)
(0.922396 -0.677073 1.79002e-21)
(0.879877 -0.372506 1.47904e-22)
(0.869408 -0.409577 -6.88653e-22)
(0.935556 -0.664881 0)
(0.926754 -0.64285 1.68921e-21)
(0.921683 -0.592259 -3.25155e-21)
(1.04994 -0.433528 -3.11689e-22)
(0.765399 -0.392126 0)
(0.912907 -0.394673 0)
(0.921636 -0.362098 1.95206e-23)
(0.858584 -0.316532 -7.43575e-23)
(0.891488 -0.338418 -3.38846e-25)
(0.782225 -0.276948 -1.48648e-24)
(0.82118 -0.297858 1.48936e-24)
(0.722286 -0.194373 0)
(0.746678 -0.244574 -2.18441e-23)
(0.713876 -0.0416337 -5.28929e-25)
(0.711256 -0.124854 0)
(0.751308 0.135348 0)
(0.728132 0.0475413 0)
(0.814066 0.285006 0)
(0.7808 0.215774 0)
(0.883793 0.384762 0)
(0.848937 0.341399 0)
(0.949546 0.437068 -1.19556e-25)
(0.917554 0.416068 0)
(1.00729 0.457867 5.18186e-25)
(0.979513 0.450072 0)
(1.05703 0.469898 -2.9306e-24)
(1.033 0.463554 0)
(1.10335 0.488346 -6.71349e-25)
(1.0802 0.47839 0)
(1.15201 0.498463 -3.2444e-24)
(1.12723 0.49669 0)
(1.20265 0.460512 -5.75447e-24)
(1.17743 0.488071 0)
(1.24784 0.342575 1.10073e-24)
(1.22659 0.412467 0)
(1.27817 0.141762 0)
(1.26533 0.251471 0)
(1.28945 -0.107546 0)
(1.28629 0.0190529 0)
(1.2793 -0.327641 0)
(1.28726 -0.226722 0)
(1.24696 -0.452118 -6.46458e-24)
(1.26569 -0.403232 0)
(1.19987 -0.484667 0)
(1.22465 -0.477223 0)
(1.14853 -0.46946 3.34643e-24)
(1.17455 -0.479953 0)
(1.10082 -0.440693 -2.58317e-22)
(1.1245 -0.455038 0)
(1.05665 -0.4118 2.17744e-22)
(1.07855 -0.425838 4.53865e-22)
(1.02899 -0.420591 4.78431e-22)
(1.01941 -0.461095 4.11749e-23)
(1.02392 -0.441522 7.00655e-22)
(1.01336 -0.494291 0)
(1.01585 -0.478822 2.16765e-22)
(1.01349 -0.517471 0)
(1.01239 -0.507257 0)
(1.02178 -0.528144 0)
(1.01666 -0.524522 0)
(1.03729 -0.524975 0)
(1.02873 -0.528297 0)
(1.05796 -0.50762 0)
(1.04714 -0.518095 0)
(1.06895 -0.494077 -8.01736e-22)
(1.09906 -0.439474 9.64641e-22)
(1.05489 -0.426302 -1.89565e-22)
(1.07651 -0.432885 0)
(1.00987 -0.411528 0)
(1.03258 -0.420036 -2.219e-22)
(0.961574 -0.379861 0)
(0.986262 -0.39877 0)
(0.910865 -0.316448 0)
(0.936291 -0.352878 0)
(0.863182 -0.212913 6.25837e-25)
(0.886174 -0.269792 0)
(0.826922 -0.0728563 0)
(0.843055 -0.146607 0)
(0.810959 0.0840307 0)
(0.815901 0.00541652 0)
(0.822536 0.222795 0)
(0.812983 0.158181 0)
(0.863209 0.310157 0)
(0.83964 0.273932 0)
(0.920616 0.348177 0)
(0.891143 0.33335 0)
(0.976212 0.371919 6.85791e-25)
(0.949334 0.359827 0)
(1.0267 0.399524 7.42586e-25)
(1.00166 0.38538 0)
(1.07878 0.427831 0)
(1.05229 0.413604 0)
(1.1356 0.458999 0)
(1.10644 0.442855 0)
(1.20017 0.492351 0)
(1.16676 0.475839 0)
(1.27192 0.515397 -4.87304e-24)
(1.23558 0.506655 0)
(1.33755 0.492233 0)
(1.30709 0.513072 0)
(1.36598 0.363967 0)
(1.35872 0.444607 0)
(1.32915 0.106629 8.23905e-25)
(1.35626 0.249233 0)
(1.23366 -0.205217 0)
(1.28675 -0.0504712 0)
(1.11818 -0.451398 -2.21361e-23)
(1.17632 -0.342011 -1.10402e-21)
(1.01538 -0.567417 1.01269e-21)
(1.06367 -0.526765 -1.18723e-21)
(0.972527 -0.57835 -3.35249e-22)
(1.03464 -0.398819 -6.97732e-22)
(0.801999 -0.507919 3.36922e-22)
(0.754066 -0.478366 0)
(0.951725 -0.384876 -5.84167e-24)
(0.943793 -0.418064 -6.85896e-25)
(0.840422 -0.59654 2.56445e-21)
(0.771464 -0.5037 0)
(0.875887 -0.652399 1.64249e-21)
(0.811718 -0.482543 0)
(0.904827 -0.673726 -2.02886e-21)
(0.860018 -0.44875 0)
(0.920881 -0.67197 -1.76758e-21)
(0.904274 -0.428027 0)
(0.927223 -0.647435 -2.7443e-21)
(0.913868 -0.619922 1.02193e-21)
(0.904004 -0.536974 -1.07705e-22)
(0.910908 -0.560494 -5.45176e-21)
(0.870417 -0.504289 -2.50894e-22)
(1.06323 -0.388894 1.5316e-22)
(1.10703 -0.418267 -1.79089e-21)
(1.13125 -0.424676 -4.0121e-22)
(1.04037 -0.376196 -4.26824e-22)
(1.12167 -0.446708 0)
(0.774539 -0.496147 0)
(0.984038 -0.404268 -2.75877e-23)
(0.991335 -0.370933 1.91717e-22)
(0.931224 -0.331144 -1.76647e-22)
(0.960233 -0.352884 -1.89281e-22)
(0.874365 -0.282915 -1.63968e-22)
(0.902868 -0.307435 1.53866e-22)
(0.806381 -0.24053 -9.49978e-23)
(0.842014 -0.261242 1.87563e-22)
(0.743537 -0.174297 0)
(0.771329 -0.213857 0)
(0.725478 -0.0481643 -4.4904e-25)
(0.727696 -0.1184 0)
(0.755893 0.110043 0)
(0.735737 0.0303 0)
(0.814862 0.251288 0)
(0.783141 0.185088 0)
(0.883523 0.350151 0)
(0.848874 0.306526 0)
(0.950451 0.405413 1.19556e-25)
(0.917655 0.382658 0)
(1.01053 0.430269 -5.18186e-25)
(0.981491 0.420438 0)
(1.06324 0.445204 1.65545e-24)
(1.03765 0.437709 0)
(1.11311 0.463501 -6.84573e-25)
(1.08812 0.454021 0)
(1.16596 0.47175 7.94761e-25)
(1.13898 0.470889 0)
(1.22175 0.434271 3.86331e-24)
(1.19384 0.461055 0)
(1.2724 0.321934 1.16163e-24)
(1.24846 0.388354 0)
(1.30757 0.130512 0)
(1.29236 0.235272 0)
(1.32222 -0.108086 0)
(1.31775 0.013059 0)
(1.31101 -0.316054 0)
(1.32018 -0.221318 0)
(1.27305 -0.430172 0)
(1.29493 -0.38593 0)
(1.21915 -0.458084 0)
(1.24718 -0.45228 0)
(1.16247 -0.442833 -2.13562e-24)
(1.19064 -0.453216 0)
(1.11024 -0.416229 3.77048e-22)
(1.1359 -0.429522 -1.20893e-22)
(1.08633 -0.40232 -1.32149e-22)
(0.976255 -0.438763 3.0806e-23)
(1.0169 -0.423028 0)
(1.02255 -0.388889 5.00817e-24)
(1.00726 -0.40951 -2.48129e-22)
(1.01771 -0.363988 2.84433e-23)
(1.01208 -0.386937 -1.8144e-22)
(0.999896 -0.452326 0)
(1.00299 -0.431503 0)
(0.997773 -0.489093 0)
(0.998026 -0.471679 -2.14365e-22)
(1.0037 -0.516383 0)
(0.999527 -0.504074 0)
(1.01893 -0.531041 0)
(1.01025 -0.525507 0)
(1.04171 -0.530928 0)
(1.0295 -0.532867 0)
(1.06936 -0.515664 0)
(1.05513 -0.525227 0)
(1.09741 -0.486387 -2.06754e-22)
(1.08366 -0.502588 -5.85878e-23)
(1.11028 -0.467427 3.57393e-22)
(1.06124 -0.404787 1.37726e-22)
(1.08356 -0.411938 8.40071e-23)
(1.01495 -0.388112 0)
(1.03814 -0.397842 -3.56545e-23)
(0.965747 -0.35485 0)
(0.990662 -0.374494 0)
(0.915043 -0.291553 0)
(0.940336 -0.32759 0)
(0.867912 -0.191546 -6.25837e-25)
(0.890595 -0.246151 0)
(0.832159 -0.0593705 3.59571e-25)
(0.848062 -0.12862 0)
(0.816838 0.0853104 0)
(0.821381 0.0133026 0)
(0.830074 0.209044 0)
(0.819555 0.152068 0)
(0.872303 0.284325 0)
(0.848166 0.253234 0)
(0.92856 0.319707 1.65351e-25)
(0.900037 0.304965 0)
(0.981878 0.346237 0)
(0.956012 0.332715 0)
(1.03203 0.374147 0)
(1.00689 0.360308 0)
(1.08485 0.400535 0)
(1.05794 0.387397 0)
(1.14288 0.428401 -6.4174e-25)
(1.11302 0.414146 0)
(1.20956 0.457068 0)
(1.17496 0.442938 0)
(1.28565 0.477763 5.14834e-25)
(1.24668 0.469485 0)
(1.36132 0.463427 2.50591e-24)
(1.3249 0.47774 0)
(1.40663 0.362681 0)
(1.39036 0.427377 0)
(1.38462 0.140208 8.94625e-25)
(1.40547 0.265827 0)
(1.29114 -0.149374 0)
(1.34501 -0.00340424 0)
(1.16412 -0.391344 7.11845e-22)
(1.22897 -0.282506 0)
(1.04395 -0.51564 -4.37465e-23)
(1.10222 -0.469055 -5.14831e-22)
(0.945199 -0.526277 4.82107e-24)
(0.9908 -0.533764 -1.01321e-22)
(0.861323 -0.472983 -7.31886e-21)
(0.901515 -0.50675 -1.12485e-21)
(0.815025 -0.437556 1.04969e-20)
(0.80691 -0.43557 1.80445e-21)
(0.785363 -0.390987 -2.18946e-21)
(0.814175 -0.58296 0)
(0.77952 -0.536273 0)
(1.14488 -0.452374 6.50527e-22)
(1.1564 -0.429151 -6.59376e-22)
(0.853012 -0.639198 0)
(0.809456 -0.52346 0)
(0.886357 -0.665594 4.22954e-22)
(0.852968 -0.488636 0)
(0.910332 -0.667315 0)
(0.896384 -0.462538 -2.48171e-22)
(0.91982 -0.655302 1.3205e-21)
(0.935514 -0.451075 0)
(0.916617 -0.629609 -9.86691e-22)
(0.898816 -0.594292 8.06231e-22)
(0.872847 -0.540619 5.36637e-22)
(0.828396 -0.463139 -1.76522e-21)
(1.00962 -0.458481 0)
(1.0558 -0.405179 -1.59738e-23)
(1.05128 -0.441049 1.44163e-23)