/*--------------------------------*- C++ -*----------------------------------*\
  =========                 |
  \\      /  F ield         | OpenFOAM: The Open Source CFD Toolbox
   \\    /   O peration     | Website:  https://openfoam.org
    \\  /    A nd           | Version:  10
     \\/     M anipulation  |
\*---------------------------------------------------------------------------*/
FoamFile
{
    format      ascii;
    class       volScalarField;
    location    "14.5";
    object      p;
}
// * * * * * * * * * * * * * * * * * * * * * * * * * * * * * * * * * * * * * //

dimensions      [0 2 -2 0 0 0 0];

internalField   nonuniform List<scalar> 
28942
(
-0.00307539
-0.00231655
0.00300169
0.0108329
0.0111325
0.00021983
0.000585861
8.34937e-05
0.00405778
0.00414071
-0.00131397
-0.00156808
-0.00201413
-0.00193729
0.000372095
0.000790606
0.0110285
0.0112981
0.00670173
0.00824982
0.00928108
0.0092809
-0.00462427
-0.00435159
-0.00296609
-0.00314596
0.0150515
0.0149991
0.00457383
0.00453526
5.45093e-05
0.000102628
0.00146101
0.000637444
0.00819663
0.00941582
0.0119865
0.0139726
6.36332e-05
0.0161915
0.0104155
0.012913
0.00348456
0.00344256
0.00347749
0.000533097
0.00036992
0.000426582
0.000491321
0.000738
0.00131226
0.00433889
0.00439736
0.004157
0.0043257
-0.0015634
-0.000311077
-0.00248363
-0.00233933
-0.00267009
-0.00270972
-0.00266033
-0.00255122
0.000749582
-0.0010794
0.000572131
0.00197531
0.0105826
0.010086
-0.00254079
-0.00281252
-0.00254163
0.0101276
0.00998841
0.0102714
-0.000700391
-0.000278754
0.000168191
0.00337191
0.00377618
0.00281302
0.00166599
-0.00581624
-0.00713521
0.00196891
0.00475277
0.00582236
0.00662467
0.00497089
0.00512696
0.00713066
0.00648291
0.000119899
-0.000316385
-0.000764804
-0.000528482
-0.000205742
0.00635376
0.00766978
-0.00744619
0.0126299
0.0118308
0.00712617
0.0107212
0.00252232
0.00255694
0.00236671
0.00666046
0.00684848
0.00684359
-0.00230149
-0.00221813
-0.00238861
-0.00179602
-0.00179747
0.0170035
0.0149927
0.0144148
0.0160596
0.00256666
0.00574825
0.00441514
0.00614413
0.00582874
0.0166871
0.0169774
0.0156167
0.00700965
0.00809362
0.000390768
0.000524357
0.000263173
0.0116429
0.0121538
0.0089932
0.00864416
0.0141018
0.00778489
0.00909792
0.0101241
-0.00064142
-0.00120982
0.00847288
0.00346474
0.00348098
-0.000285325
-0.000418688
7.11214e-05
-0.00137993
0.00761848
0.00673399
0.00463195
0.000447146
0.000367262
0.000200668
0.00037892
0.00857794
0.00784401
-0.000658641
-0.000779905
-0.000617455
-0.00363
-0.0030817
0.00017816
-0.00214202
0.000260931
0.00951776
0.00961768
0.0107387
0.0102706
0.00883023
0.00456708
0.00450068
0.00462072
0.00452078
0.00625103
0.006028
0.0063513
0.00657222
0.00649707
0.00653052
0.00673227
0.00727234
0.00697297
0.00655739
0.00688235
0.00759327
0.00833023
0.00863537
0.0011473
0.00112424
-0.00149119
0.000410351
0.000210901
-0.000905047
-0.000933602
0.000570586
0.000594401
0.000546141
0.00048898
0.00280944
0.00280352
0.00278664
-0.00196551
-0.00216547
-0.00167377
-0.00358617
-0.00412658
-0.00331485
-0.00403338
-0.00587143
-0.00447193
0.0171973
0.0179142
0.0176783
0.00267875
0.00280899
0.00268925
0.0115082
0.0110832
0.0111628
0.00225536
0.00223007
0.00228048
0.00220473
0.00217941
0.00215416
0.00215498
0.00212893
0.00213022
0.0021799
0.00220522
0.0022305
0.00225595
0.00228095
0.00210399
0.00210528
0.00230572
0.00230634
0.00233134
0.00207915
0.00208003
0.00233186
0.00205403
0.002029
0.00205498
0.00202986
0.00235619
0.00235697
0.00200396
0.00200477
0.00238128
0.00238232
0.00197896
0.00197969
0.00240654
0.00240772
0.00195397
0.00195458
0.00243189
0.0024331
0.001929
0.00192951
0.0024573
0.00245851
0.00190398
0.00190444
0.0024829
0.00248375
0.00187898
0.00187939
0.00250829
0.00250908
0.0018539
0.00185427
0.00253412
0.00253471
0.0018288
0.00182897
0.00255976
0.00256029
0.00180381
0.00180329
0.00258604
0.0025863
0.00177824
0.00177765
0.0026123
0.00261249
0.00175168
0.00175174
0.0025855
0.00261184
0.00263893
0.00263882
0.00253345
0.00255956
0.00248225
0.00250806
0.00243146
0.00245682
0.00238077
0.00240611
0.00232992
0.00235542
0.00228002
0.00230521
0.00222967
0.00225459
0.00217935
0.00220461
0.00212874
0.00215413
0.00207857
0.00210366
0.00202842
0.0020535
0.00197833
0.00200339
0.00192828
0.00195333
0.0018783
0.00190332
0.0018284
0.00185337
0.00177764
0.00180335
0.00175173
0.0017254
0.00172548
0.00180362
0.0017522
0.00177806
0.00185446
0.00182915
0.0019046
0.00187958
0.00195467
0.00192963
0.00200478
0.00197973
0.00205494
0.00202986
0.00210518
0.00208004
0.00215541
0.00213046
0.00220554
0.00218058
0.00225602
0.00223072
0.00230661
0.00228141
0.00235714
0.00233164
0.00240785
0.00238249
0.00245865
0.00243324
0.00250957
0.00248407
0.00256073
0.00253504
0.00261216
0.00258632
0.00263842
0.00263832
0.00172552
0.00172594
0.00266558
0.00266487
0.0026648
0.00266556
0.00258503
0.00263721
0.00261106
0.00253309
0.00255906
0.00248204
0.00250751
0.0024313
0.00245665
0.00238063
0.00240596
0.00233005
0.00235533
0.00227953
0.00230487
0.00222923
0.00225455
0.00217912
0.00220394
0.00212862
0.00215388
0.00207847
0.00210354
0.00202835
0.0020534
0.00197828
0.00200331
0.00192826
0.00195327
0.00187828
0.00190327
0.00182834
0.00185331
0.00177774
0.00180321
0.00169902
0.00169933
0.00172611
0.00175213
0.00175307
0.00172743
0.00170012
0.00169921
0.00180418
0.00177881
0.00185458
0.00182933
0.00190462
0.00187961
0.00195468
0.00192965
0.00200478
0.00197972
0.00205493
0.00202985
0.00210513
0.00208002
0.00215542
0.00213029
0.0022058
0.00218059
0.00225604
0.00223088
0.00230656
0.00228145
0.00235717
0.00233185
0.00240784
0.0023825
0.00245862
0.00243322
0.0025095
0.00248405
0.0025605
0.00253497
0.00261173
0.00258606
0.00266382
0.00263774
0.00266344
0.00269139
0.00269029
0.00269204
0.00170032
0.0017011
0.00269114
0.00268957
0.00271799
0.00271687
0.00269224
0.00172696
0.00170131
0.00167404
0.00167488
0.00268783
0.00271604
0.00274083
0.00271474
0.00263601
0.00266191
0.00258436
0.00261014
0.00253287
0.00255856
0.00248189
0.00250729
0.00243116
0.00245652
0.00238051
0.00240582
0.00232996
0.00235523
0.00227947
0.00230471
0.00222909
0.0022543
0.00217882
0.00220391
0.00212853
0.00215366
0.00207838
0.00210345
0.00202828
0.00205333
0.00197822
0.00200324
0.0019282
0.0019532
0.00187822
0.00190321
0.00182827
0.00185324
0.00177795
0.00180314
0.00175253
0.00167315
0.0016742
0.00167349
0.00167337
0.00175375
0.00170219
0.00172813
0.00180456
0.00177923
0.00185461
0.00182952
0.00190463
0.00187962
0.00195469
0.00192965
0.00200478
0.00197973
0.00205493
0.00202985
0.00210513
0.00208002
0.00215538
0.00213025
0.00220572
0.00218054
0.00225609
0.0022309
0.00230657
0.00228134
0.00235713
0.00233185
0.00240779
0.00238245
0.00245855
0.00243316
0.0025094
0.00248396
0.00256037
0.00253487
0.00261148
0.0025859
0.00266295
0.00263716
0.00271553
0.0026891
0.00274336
0.00274186
0.00271745
0.00271869
0.00167535
0.00167614
0.00274287
0.00274456
0.00277086
0.00276825
0.00276968
0.00277656
0.00280721
0.00271838
0.00273665
0.00275823
0.00268669
0.00271255
0.00263502
0.00266081
0.00258363
0.00260924
0.00253252
0.00255811
0.0024817
0.00250709
0.00243097
0.00245633
0.00238034
0.00240564
0.00232979
0.00235506
0.00227934
0.00230456
0.00222896
0.00225414
0.00217866
0.0022038
0.00212842
0.00215353
0.00207826
0.00210334
0.00202816
0.00205321
0.0019781
0.00200313
0.00192809
0.00195309
0.00187812
0.0019031
0.00182817
0.00185314
0.00177809
0.00180312
0.00172761
0.00175294
0.00167629
0.00170201
0.0016484
0.00165024
0.00164923
0.00164758
0.00164777
0.00164814
0.00164768
0.00165016
0.00164902
0.00170316
0.00165185
0.00167745
0.00175424
0.0017288
0.00180463
0.00177949
0.00185462
0.00182961
0.00190463
0.00187962
0.00195468
0.00192965
0.00200477
0.00197972
0.00205491
0.00202984
0.00210511
0.00208
0.00215535
0.00213022
0.00220566
0.0021805
0.00225605
0.00223085
0.00230651
0.00228127
0.00235706
0.00233178
0.00240771
0.00238238
0.00245846
0.00243307
0.0025093
0.00248387
0.00256026
0.00253477
0.00261132
0.00258578
0.00266255
0.00263692
0.00271423
0.00268829
0.0027667
0.00274041
0.00279471
0.00279308
0.00274377
0.00274487
0.00276898
0.0027707
0.00167705
0.0016513
0.00162429
0.00162533
0.0027981
0.00279604
0.00282378
0.00278252
0.0028211
0.0028196
0.00280953
0.00274442
0.0027359
0.00275953
0.00268593
0.00271138
0.0026343
0.00266011
0.00258321
0.00260872
0.00253227
0.00255774
0.00248147
0.00250686
0.00243075
0.0024561
0.00238013
0.00240543
0.0023296
0.00235486
0.00227916
0.00230437
0.0022288
0.00225397
0.00217851
0.00220364
0.00212828
0.00215339
0.00207813
0.0021032
0.00202803
0.00205307
0.00197798
0.002003
0.00192797
0.00195297
0.00187801
0.00190299
0.00182807
0.00185304
0.00177814
0.0018031
0.00172798
0.00175304
0.00170253
0.00162277
0.00162426
0.00162335
0.00162223
0.00162255
0.00162272
0.00162245
0.00162329
0.00170393
0.00165256
0.00167854
0.0017545
0.00172931
0.00180464
0.00177963
0.00185461
0.00182962
0.00190462
0.00187962
0.00195467
0.00192964
0.00200475
0.0019797
0.00205488
0.00202981
0.00210506
0.00207996
0.0021553
0.00213018
0.0022056
0.00218045
0.00225598
0.00223078
0.00230643
0.0022812
0.00235697
0.00233169
0.0024076
0.00238228
0.00245833
0.00243296
0.00250916
0.00248374
0.00256011
0.00253462
0.00261116
0.00258562
0.00266232
0.00263673
0.00271367
0.00268798
0.0027654
0.00273934
0.00281805
0.00279169
0.00284625
0.00284462
0.00276964
0.00277081
0.00162513
0.00162661
0.00279627
0.00282195
0.00282394
0.0027966
0.00282213
0.00283384
0.0028575
0.00285096
0.00284749
0.00287274
0.00287148
0.00277037
0.00278615
0.00283874
0.00281318
0.00273596
0.00276067
0.00268531
0.00271102
0.00263398
0.0026596
0.00258293
0.00260844
0.00253201
0.00255746
0.00248121
0.0025066
0.0024305
0.00245584
0.0023799
0.00240519
0.00232939
0.00235463
0.00227896
0.00230416
0.00222861
0.00225377
0.00217833
0.00220346
0.00212812
0.00215322
0.00207797
0.00210304
0.00202788
0.00205292
0.00197784
0.00200286
0.00192785
0.00195284
0.00187789
0.00190287
0.00182796
0.00185292
0.00177806
0.00180301
0.00172806
0.00175309
0.00167749
0.00170286
0.00162585
0.00165195
0.00159839
0.00159967
0.00159886
0.0015976
0.00159789
0.0015974
0.00159738
0.00159758
0.00159747
0.00159861
0.001598
0.0016008
0.00159956
0.00165343
0.00160203
0.00162779
0.0017044
0.0016791
0.00175467
0.00172958
0.00180463
0.00177966
0.0018546
0.00182962
0.0019046
0.0018796
0.00195464
0.00192962
0.00200471
0.00197967
0.00205483
0.00202976
0.002105
0.00207991
0.00215523
0.00213011
0.00220552
0.00218037
0.00225588
0.00223069
0.00230632
0.0022811
0.00235685
0.00233158
0.00240746
0.00238215
0.00245818
0.00243281
0.00250899
0.00248357
0.00255991
0.00253444
0.00261095
0.00258542
0.0026621
0.00263651
0.00271338
0.00268773
0.00276482
0.00273906
0.00281655
0.00279067
0.00286936
0.00284277
0.00289803
0.00289615
0.00279601
0.00286241
0.00282289
0.00162671
0.00160099
0.0015749
0.00157591
0.00279664
0.00282244
0.00284958
0.00284822
0.00287391
0.00289944
0.00292453
0.00292276
0.00279634
0.00283936
0.00288729
0.00288914
0.00286428
0.00278709
0.00281371
0.00273583
0.00276113
0.00268489
0.00271059
0.00263365
0.00265923
0.00258261
0.00260811
0.0025317
0.00255714
0.00248091
0.00250629
0.00243023
0.00245556
0.00237964
0.00240492
0.00232914
0.00235438
0.00227873
0.00230393
0.0022284
0.00225355
0.00217813
0.00220326
0.00212794
0.00215303
0.0020778
0.00210286
0.00202772
0.00205276
0.0019777
0.00200271
0.00192771
0.0019527
0.00187776
0.00190273
0.00182784
0.0018528
0.00177795
0.00180289
0.00172806
0.00175301
0.0016778
0.00170297
0.00165233
0.00157282
0.00157386
0.00157323
0.00157253
0.00157269
0.00157261
0.00157253
0.00157272
0.00157266
0.00157325
0.00157296
0.00157395
0.00165427
0.00160302
0.00162873
0.00170462
0.00167951
0.00175469
0.00172971
0.00180462
0.00177965
0.00185458
0.0018296
0.00190457
0.00187958
0.00195459
0.00192958
0.00200466
0.00197962
0.00205476
0.0020297
0.00210492
0.00207984
0.00215514
0.00213002
0.00220542
0.00218027
0.00225576
0.00223058
0.00230619
0.00228097
0.0023567
0.00233143
0.0024073
0.00238199
0.00245799
0.00243263
0.00250878
0.00248337
0.00255968
0.00253422
0.00261069
0.00258517
0.00266182
0.00263624
0.00271308
0.00268744
0.00276446
0.00273876
0.00281596
0.00279019
0.00286797
0.00284182
0.0029208
0.00289428
0.00287772
0.00288285
0.0029494
0.00294734
0.00282224
0.00157534
0.00157694
0.00291374
0.00282248
0.00291337
0.00284878
0.00284838
0.00287459
0.00287425
0.00290002
0.00292557
0.00295088
0.00297594
0.00297407
0.00282234
0.00288953
0.00293898
0.00294025
0.00291479
0.00283868
0.00286435
0.00278702
0.00281284
0.00273547
0.00276109
0.0026844
0.00271004
0.00263323
0.00265879
0.00258223
0.00260772
0.00253135
0.00255677
0.00248058
0.00250595
0.00242992
0.00245524
0.00237935
0.00240463
0.00232888
0.00235411
0.00227848
0.00230367
0.00222816
0.00225331
0.00217792
0.00220303
0.00212773
0.00215282
0.00207762
0.00210267
0.00202755
0.00205258
0.00197753
0.00200254
0.00192756
0.00195254
0.00187762
0.00190259
0.00182772
0.00185267
0.00177783
0.00180277
0.00172797
0.0017529
0.00167798
0.00170303
0.00162744
0.00165274
0.00157617
0.00160206
0.00154852
0.00155014
0.00154919
0.00154778
0.001548
0.00154767
0.00154766
0.0015478
0.00154773
0.00154789
0.00154785
0.00154821
0.00154796
0.00154911
0.00154854
0.00155104
0.00154984
0.00160382
0.00155223
0.00157814
0.00165468
0.00162934
0.00170476
0.0016798
0.00175468
0.00172973
0.00180461
0.00177964
0.00185456
0.00182958
0.00190453
0.00187954
0.00195454
0.00192953
0.00200459
0.00197956
0.00205468
0.00202963
0.00210482
0.00207975
0.00215503
0.00212992
0.00220529
0.00218015
0.00225562
0.00223045
0.00230603
0.00228082
0.00235652
0.00233127
0.0024071
0.0023818
0.00245777
0.00243242
0.00250853
0.00248314
0.0025594
0.00253396
0.00261038
0.00258488
0.00266148
0.00263592
0.0027127
0.00268708
0.00276405
0.00273836
0.00281551
0.00278977
0.00286712
0.0028413
0.00291908
0.00289298
0.00297175
0.0029454
0.00290457
0.0029107
0.00300064
0.00299835
0.00284839
0.00284839
0.00296527
0.00296431
0.00293876
0.00287407
0.00287435
0.00157694
0.00155138
0.00152525
0.00152636
0.00290063
0.00290025
0.00292604
0.00295169
0.00297717
0.00300227
0.00299014
0.00299107
0.00301593
0.00302723
0.00302534
0.00301563
0.00284833
0.00294133
0.00296636
0.00288898
0.00291481
0.00283788
0.00286371
0.00278628
0.00281196
0.00273502
0.00276063
0.00268386
0.00270945
0.00263277
0.0026583
0.0025818
0.00260727
0.00253096
0.00255637
0.00248022
0.00250558
0.00242958
0.00245489
0.00237904
0.0024043
0.00232859
0.0023538
0.00227821
0.00230339
0.00222791
0.00225305
0.00217768
0.00220279
0.00212752
0.00215259
0.00207741
0.00210246
0.00202736
0.00205238
0.00197736
0.00200236
0.0019274
0.00195238
0.00187748
0.00190244
0.00182758
0.00185253
0.00177771
0.00180265
0.00172787
0.00175279
0.00167803
0.00170296
0.00162784
0.00165297
0.00160252
0.00152304
0.00152436
0.00152352
0.0015228
0.00152292
0.00152287
0.00152281
0.00152298
0.00152293
0.00152308
0.00152304
0.00152322
0.00152312
0.00152387
0.0015235
0.00152444
0.00160449
0.00155338
0.00157902
0.00165488
0.0016297
0.00170478
0.00167985
0.00175467
0.00172972
0.00180458
0.00177963
0.00185452
0.00182955
0.00190448
0.00187949
0.00195447
0.00192947
0.0020045
0.00197948
0.00205458
0.00202954
0.00210471
0.00207964
0.0021549
0.0021298
0.00220514
0.00218001
0.00225546
0.00223029
0.00230585
0.00228064
0.00235632
0.00233107
0.00240687
0.00238158
0.00245751
0.00243218
0.00250825
0.00248287
0.0025591
0.00253366
0.00261004
0.00258456
0.0026611
0.00263556
0.00271227
0.00268667
0.00276357
0.00273791
0.00281497
0.00278926
0.00286648
0.00284072
0.00291809
0.00289227
0.00296987
0.00294398
0.00302272
0.00299587
0.00298968
0.00305183
0.00305406
0.00307848
0.00307638
0.0030491
0.00293036
0.00293945
0.00287436
0.00287438
0.00152564
0.00152732
0.00296535
0.00289991
0.00290037
0.00292691
0.00292629
0.00295212
0.00297782
0.00300334
0.00302865
0.00304091
0.0030411
0.00306618
0.00307341
0.00310035
0.00310351
0.00306608
0.0030408
0.00301566
0.00308001
0.003105
0.00287435
0.00299149
0.00301598
0.00294026
0.00296557
0.00288824
0.00291431
0.00283688
0.00286256
0.00278558
0.00281122
0.00273439
0.00275998
0.00268328
0.00270883
0.00263226
0.00265776
0.00258134
0.00260679
0.00253053
0.00255592
0.00247983
0.00250517
0.00242922
0.00245451
0.0023787
0.00240395
0.00232827
0.00235348
0.00227792
0.00230308
0.00222764
0.00225277
0.00217743
0.00220252
0.00212728
0.00215235
0.00207719
0.00210223
0.00202716
0.00205217
0.00197717
0.00200216
0.00192723
0.0019522
0.00187732
0.00190227
0.00182744
0.00185238
0.00177759
0.00180251
0.00172775
0.00175267
0.00167794
0.00170285
0.00162801
0.00165302
0.00157768
0.00160288
0.00152656
0.00155217
0.00149894
0.00150073
0.00149977
0.00149802
0.00149825
0.00149794
0.00149791
0.00149805
0.001498
0.00149816
0.00149811
0.00149827
0.00149822
0.00149839
0.00149832
0.00149873
0.00149856
0.00149968
0.00149909
0.00150132
0.00150043
0.00155398
0.00150239
0.00152836
0.00160488
0.00157956
0.00165492
0.00162996
0.00170478
0.00167985
0.00175465
0.00172971
0.00180455
0.0017796
0.00185447
0.00182951
0.00190441
0.00187944
0.00195439
0.0019294
0.00200441
0.0019794
0.00205447
0.00202943
0.00210458
0.00207952
0.00215475
0.00212966
0.00220498
0.00217985
0.00225527
0.00223012
0.00230564
0.00228045
0.00235609
0.00233085
0.00240661
0.00238134
0.00245723
0.00243191
0.00250794
0.00248258
0.00255875
0.00253334
0.00260966
0.00258419
0.00266067
0.00263516
0.0027118
0.00268622
0.00276303
0.0027374
0.00281437
0.00278869
0.00286581
0.00284008
0.00291733
0.00289157
0.00296889
0.00294311
0.00302061
0.00299476
0.0030463
0.00295528
0.00296553
0.00312996
0.00312689
0.00290031
0.00290043
0.00299079
0.00292588
0.00292644
0.0015272
0.00150158
0.00147543
0.0014763
0.0029531
0.00295239
0.00297824
0.00300397
0.00302957
0.00305496
0.00309108
0.00309128
0.00311647
0.00311617
0.00309194
0.00306617
0.00304143
0.00310628
0.0031309
0.0031534
0.00315602
0.00290043
0.00304156
0.00306598
0.00299052
0.00301612
0.00293869
0.00296463
0.00288733
0.00291302
0.00283606
0.00286168
0.00278485
0.00281045
0.00273372
0.00275928
0.00268268
0.00270819
0.00263171
0.00265718
0.00258084
0.00260626
0.00253007
0.00255545
0.0024794
0.00250473
0.00242882
0.0024541
0.00237833
0.00240357
0.00232793
0.00235312
0.0022776
0.00230275
0.00222734
0.00225246
0.00217715
0.00220224
0.00212703
0.00215208
0.00207696
0.00210199
0.00202694
0.00205195
0.00197697
0.00200195
0.00192705
0.00195201
0.00187715
0.0019021
0.00182729
0.00185222
0.00177745
0.00180237
0.00172764
0.00175254
0.00167784
0.00170274
0.00162804
0.00165295
0.00157801
0.001603
0.00155275
0.00147352
0.00147488
0.00147415
0.00147306
0.00147325
0.00147313
0.00147307
0.00147323
0.00147318
0.00147334
0.00147329
0.00147345
0.0014734
0.00147356
0.00147351
0.00147372
0.00147363
0.00147423
0.00147395
0.00147469
0.00155455
0.00150334
0.00152915
0.00160507
0.00157984
0.00165493
0.00163001
0.00170477
0.00167985
0.00175463
0.0017297
0.00180451
0.00177957
0.00185441
0.00182946
0.00190434
0.00187937
0.0019543
0.00192932
0.0020043
0.0019793
0.00205434
0.00202931
0.00210443
0.00207938
0.00215458
0.0021295
0.00220479
0.00217968
0.00225506
0.00222992
0.00230541
0.00228023
0.00235583
0.00233061
0.00240633
0.00238107
0.00245692
0.00243162
0.0025076
0.00248225
0.00255837
0.00253297
0.00260924
0.00258379
0.00266021
0.00263471
0.00271128
0.00268573
0.00276245
0.00273685
0.00281371
0.00278807
0.00286507
0.00283938
0.0029165
0.00289078
0.00296798
0.00294224
0.00301944
0.00299374
0.00307094
0.00304517
0.00312362
0.00309728
0.00317954
0.00317641
0.00314954
0.00298086
0.00299176
0.00292635
0.00292652
0.0014757
0.00147735
0.00301702
0.00295201
0.00295256
0.00297929
0.00297854
0.00300442
0.00303017
0.00305576
0.00308111
0.0031411
0.00314118
0.00316548
0.00317276
0.00319873
0.00320301
0.00316595
0.00314207
0.00311697
0.00309247
0.00306731
0.00313237
0.00315708
0.00318174
0.00320537
0.00292652
0.00309197
0.00311692
0.0030406
0.0030654
0.0029889
0.00301506
0.0029376
0.00296324
0.00288639
0.002912
0.00283521
0.0028608
0.00278408
0.00280964
0.00273302
0.00275854
0.00268203
0.00270752
0.00263113
0.00265657
0.00258031
0.00260571
0.00252958
0.00255493
0.00247895
0.00250425
0.0024284
0.00245367
0.00237794
0.00240316
0.00232756
0.00235274
0.00227726
0.0023024
0.00222703
0.00225214
0.00217686
0.00220194
0.00212676
0.0021518
0.00207671
0.00210173
0.00202671
0.00205171
0.00197676
0.00200173
0.00192685
0.0019518
0.00187698
0.00190191
0.00182713
0.00185205
0.00177731
0.00180222
0.00172751
0.00175241
0.00167773
0.00170262
0.00162796
0.00165284
0.00157817
0.00160306
0.00152768
0.00155295
0.00147629
0.00150226
0.00144919
0.00145036
0.0014496
0.00144842
0.00144871
0.0014482
0.0014482
0.00144832
0.00144826
0.00144841
0.00144836
0.00144852
0.00144846
0.00144863
0.00144857
0.00144875
0.00144869
0.00144889
0.00144882
0.0014491
0.00144896
0.00145001
0.00144948
0.00145181
0.00145079
0.00150418
0.00145303
0.00147887
0.00155496
0.0015297
0.00160511
0.00158007
0.00165493
0.00163002
0.00170476
0.00167985
0.0017546
0.00172968
0.00180446
0.00177953
0.00185434
0.0018294
0.00190425
0.0018793
0.00195419
0.00192922
0.00200417
0.00197918
0.0020542
0.00202918
0.00210427
0.00207923
0.00215439
0.00212932
0.00220458
0.00217948
0.00225483
0.0022297
0.00230515
0.00227998
0.00235555
0.00233034
0.00240602
0.00238077
0.00245658
0.00243129
0.00250722
0.00248189
0.00255796
0.00253258
0.00260878
0.00258336
0.0026597
0.00263423
0.00271072
0.0026852
0.00276182
0.00273626
0.00281301
0.00278741
0.00286427
0.00283863
0.00291559
0.00288993
0.00296695
0.00294127
0.00301831
0.00299264
0.00306957
0.00304397
0.00312078
0.00309523
0.00314613
0.00300659
0.00301802
0.00322897
0.00322596
0.00295244
0.00295265
0.0030431
0.00297817
0.00297874
0.00147716
0.00145163
0.00142611
0.00142701
0.00300552
0.00300475
0.00303065
0.00305641
0.00308199
0.00310734
0.00318969
0.00318878
0.0032125
0.00321448
0.00319123
0.00316727
0.00314324
0.00311834
0.00309356
0.00315853
0.00318309
0.00320734
0.00323123
0.00325117
0.00325369
0.00295265
0.00314065
0.00316477
0.00309014
0.00311577
0.0030387
0.00306448
0.0029876
0.00301318
0.00293652
0.00296206
0.0028854
0.00291096
0.00283431
0.00285986
0.00278327
0.00280879
0.00273228
0.00275777
0.00268136
0.00270681
0.00263051
0.00265592
0.00257974
0.00260511
0.00252906
0.00255439
0.00247846
0.00250375
0.00242795
0.0024532
0.00237753
0.00240273
0.00232718
0.00235234
0.0022769
0.00230203
0.00222669
0.00225179
0.00217655
0.00220161
0.00212647
0.0021515
0.00207644
0.00210145
0.00202647
0.00205145
0.00197654
0.0020015
0.00192665
0.00195159
0.00187679
0.00190172
0.00182697
0.00185188
0.00177717
0.00180207
0.00172739
0.00175228
0.00167762
0.0017025
0.00162786
0.00165274
0.00157812
0.00160299
0.00152801
0.0015531
0.00150264
0.00142368
0.0014245
0.00142404
0.00142337
0.00142355
0.0014234
0.00142335
0.0014235
0.00142345
0.00142359
0.00142354
0.00142369
0.00142364
0.00142381
0.00142375
0.00142394
0.00142387
0.00142408
0.00142401
0.00142425
0.00142415
0.00142473
0.00142447
0.00142523
0.00150484
0.0014539
0.00147963
0.0015552
0.00153011
0.00160513
0.00158021
0.00165493
0.00163003
0.00170475
0.00167984
0.00175457
0.00172966
0.00180441
0.00177949
0.00185427
0.00182934
0.00190416
0.00187921
0.00195408
0.00192911
0.00200404
0.00197905
0.00205404
0.00202903
0.00210409
0.00207906
0.00215419
0.00212913
0.00220435
0.00217926
0.00225458
0.00222946
0.00230487
0.00227972
0.00235524
0.00233005
0.00240568
0.00238045
0.00245621
0.00243094
0.00250682
0.0024815
0.00255751
0.00253215
0.00260829
0.00258289
0.00265916
0.00263372
0.00271012
0.00268463
0.00276115
0.00273563
0.00281226
0.0027867
0.00286343
0.00283784
0.00291464
0.00288903
0.00296586
0.00294025
0.00301707
0.00299147
0.0030682
0.00304265
0.00311911
0.00309369
0.0031698
0.00314452
0.00322163
0.00319519
0.00327691
0.00327253
0.00324659
0.00303241
0.00304423
0.00297859
0.00297883
0.00142612
0.00142814
0.00306941
0.00300438
0.00300496
0.00303181
0.00303102
0.00305694
0.00308271
0.00310827
0.00313357
0.00323693
0.0032363
0.00325965
0.0032687
0.00329355
0.00329779
0.00326162
0.00323951
0.0032163
0.00319314
0.00316909
0.0031447
0.00311979
0.0031847
0.00320911
0.00323306
0.0032567
0.00327905
0.00330153
0.00297882
0.00318963
0.00321347
0.00313922
0.00316329
0.00308794
0.00311405
0.00303718
0.00306258
0.00298633
0.00301177
0.00293537
0.00296086
0.00288437
0.00290987
0.00283338
0.00285887
0.00278242
0.00280789
0.0027315
0.00275696
0.00268065
0.00270607
0.00262986
0.00265524
0.00257914
0.00260449
0.00252851
0.00255382
0.00247795
0.00250322
0.00242748
0.00245271
0.00237709
0.00240227
0.00232677
0.00235192
0.00227652
0.00230163
0.00222634
0.00225142
0.00217622
0.00220127
0.00212617
0.00215119
0.00207616
0.00210116
0.00202621
0.00205118
0.0019763
0.00200125
0.00192643
0.00195136
0.0018766
0.00190151
0.00182679
0.00185169
0.00177701
0.0018019
0.00172725
0.00175213
0.0016775
0.00170238
0.00162777
0.00165264
0.00157804
0.0016029
0.00152818
0.00155315
0.00147783
0.00150301
0.00142669
0.00145248
0.00139936
0.00140048
0.00139993
0.00139867
0.0013989
0.00139852
0.00139854
0.00139859
0.00139855
0.00139867
0.00139863
0.00139876
0.00139871
0.00139886
0.00139881
0.00139898
0.00139892
0.00139912
0.00139905
0.00139927
0.00139919
0.00139943
0.00139935
0.00139966
0.00139951
0.0014006
0.00140004
0.00140259
0.00140146
0.00145472
0.00140372
0.00142929
0.00150532
0.0014802
0.00155536
0.00153033
0.00160515
0.00158027
0.00165493
0.00163004
0.00170472
0.00167983
0.00175453
0.00172962
0.00180434
0.00177943
0.00185418
0.00182926
0.00190405
0.00187911
0.00195395
0.001929
0.00200388
0.00197891
0.00205386
0.00202887
0.00210389
0.00207887
0.00215397
0.00212892
0.0022041
0.00217903
0.0022543
0.0022292
0.00230457
0.00227943
0.00235491
0.00232973
0.00240532
0.0023801
0.00245581
0.00243056
0.00250638
0.00248109
0.00255703
0.0025317
0.00260777
0.00258239
0.00265859
0.00263317
0.00270948
0.00268403
0.00276045
0.00273496
0.00281147
0.00278596
0.00286255
0.00283701
0.00291364
0.0028881
0.00296473
0.00293919
0.00301577
0.00299026
0.00306672
0.00304126
0.00311748
0.00309213
0.00316787
0.00314276
0.00321788
0.00319298
0.00324268
0.0030583
0.00307045
0.00332328
0.00331958
0.00300479
0.00300506
0.00309559
0.00303065
0.00303125
0.00142746
0.00140214
0.00137695
0.00137805
0.00305818
0.00305734
0.00308329
0.00310906
0.00313459
0.00315984
0.00328345
0.00328192
0.00330444
0.0033061
0.00328668
0.00326423
0.00324209
0.00321825
0.00319485
0.00317049
0.00314585
0.00321087
0.00323512
0.00325887
0.00328175
0.00330445
0.00332606
0.00334341
0.00334698
0.00300505
0.00323589
0.00325755
0.00318778
0.00321271
0.003137
0.00316154
0.00308621
0.00311187
0.00303571
0.00306096
0.002985
0.00301038
0.00293417
0.0029596
0.0028833
0.00290874
0.00283241
0.00285785
0.00278154
0.00280697
0.0027307
0.00275611
0.00267991
0.0027053
0.00262918
0.00265454
0.00257852
0.00260384
0.00252793
0.00255321
0.00247742
0.00250266
0.00242698
0.00245219
0.00237662
0.00240179
0.00232633
0.00235147
0.00227612
0.00230122
0.00222597
0.00225103
0.00217588
0.00220091
0.00212585
0.00215085
0.00207587
0.00210085
0.00202594
0.0020509
0.00197605
0.00200099
0.00192621
0.00195113
0.0018764
0.0019013
0.00182661
0.0018515
0.00177685
0.00180173
0.00172711
0.00175198
0.00167739
0.00170225
0.00162767
0.00165253
0.00157796
0.00160281
0.00152824
0.00155311
0.00147818
0.00150318
0.00145292
0.00137403
0.00137491
0.00137443
0.00137373
0.00137388
0.00137372
0.00137371
0.00137378
0.00137375
0.00137384
0.00137381
0.00137393
0.00137388
0.00137403
0.00137398
0.00137415
0.00137409
0.00137429
0.00137422
0.00137445
0.00137437
0.00137462
0.00137454
0.00137482
0.00137471
0.00137537
0.00137507
0.00137602
0.00145547
0.00140477
0.00143016
0.00150562
0.00148054
0.00155541
0.00153052
0.00160517
0.00158029
0.00165493
0.00163005
0.0017047
0.00167982
0.00175448
0.00172959
0.00180427
0.00177937
0.00185409
0.00182918
0.00190393
0.00187901
0.00195381
0.00192887
0.00200372
0.00197876
0.00205367
0.00202869
0.00210367
0.00207867
0.00215373
0.0021287
0.00220384
0.00217878
0.00225401
0.00222892
0.00230424
0.00227912
0.00235455
0.00232939
0.00240493
0.00237973
0.00245538
0.00243015
0.00250592
0.00248064
0.00255653
0.00253121
0.00260721
0.00258186
0.00265798
0.00263259
0.00270881
0.00268339
0.00275971
0.00273425
0.00281065
0.00278518
0.00286163
0.00283614
0.00291261
0.00288712
0.00296357
0.0029381
0.00301445
0.00298903
0.0030652
0.00303985
0.00311574
0.00309051
0.00316594
0.00314089
0.00321558
0.00319087
0.00326458
0.00324021
0.00331468
0.00328886
0.00336691
0.00336263
0.00333877
0.00308423
0.00309676
0.00303106
0.00303136
0.0013764
0.0013789
0.00312181
0.00305699
0.0030576
0.00308463
0.00308373
0.0031097
0.00313546
0.00316096
0.00318612
0.00332642
0.00332583
0.00334761
0.00335226
0.00333147
0.00331078
0.00328992
0.00326692
0.00324413
0.00322046
0.00319639
0.00317191
0.00323703
0.00326109
0.00328454
0.00330729
0.00332916
0.00334999
0.00336999
0.00335694
0.00338694
0.00338072
0.00303134
0.00328209
0.00330238
0.00323364
0.00325716
0.00318491
0.00320965
0.00313452
0.00315979
0.00308452
0.00310957
0.0030342
0.00305939
0.00298364
0.00300894
0.00293296
0.00295831
0.0028822
0.00290759
0.00283141
0.00285681
0.00278063
0.00280602
0.00272986
0.00275524
0.00267914
0.0027045
0.00262847
0.0026538
0.00257786
0.00260316
0.00252732
0.00255258
0.00247685
0.00250208
0.00242646
0.00245165
0.00237613
0.00240129
0.00232588
0.002351
0.0022757
0.00230078
0.00222557
0.00225063
0.00217551
0.00220054
0.00212551
0.00215051
0.00207556
0.00210053
0.00202565
0.0020506
0.00197579
0.00200072
0.00192597
0.00195088
0.00187618
0.00190107
0.00182642
0.0018513
0.00177668
0.00180155
0.00172697
0.00175182
0.00167726
0.00170211
0.00162757
0.00165242
0.00157788
0.00160272
0.00152819
0.00155303
0.00147834
0.00150325
0.00142813
0.00145333
0.00137693
0.00140272
0.00134977
0.00135104
0.00135033
0.00134906
0.00134932
0.00134889
0.00134891
0.00134892
0.0013489
0.00134895
0.00134893
0.00134901
0.00134898
0.00134909
0.00134905
0.0013492
0.00134914
0.00134932
0.00134925
0.00134946
0.00134939
0.00134963
0.00134954
0.00134981
0.00134972
0.00135
0.00134991
0.00135039
0.00135013
0.00135138
0.00135076
0.00135325
0.00135215
0.00140535
0.00135426
0.00137986
0.00145584
0.00143069
0.00150572
0.00148083