/*--------------------------------*- C++ -*----------------------------------*\
  =========                 |
  \\      /  F ield         | OpenFOAM: The Open Source CFD Toolbox
   \\    /   O peration     | Website:  https://openfoam.org
    \\  /    A nd           | Version:  10
     \\/     M anipulation  |
\*---------------------------------------------------------------------------*/
FoamFile
{
    format      ascii;
    class       volScalarField;
    location    "94.5";
    object      p;
}
// * * * * * * * * * * * * * * * * * * * * * * * * * * * * * * * * * * * * * //

dimensions      [0 2 -2 0 0 0 0];

internalField   nonuniform List<scalar> 
28942
(
-0.00372312
-0.00309801
0.00207438
0.00952889
0.00982877
7.13354e-05
0.000250083
1.451e-05
0.00275363
0.00284148
-0.00226654
-0.00253513
-0.00291739
-0.00283495
0.000167444
0.000450504
0.00992064
0.0101906
0.00562504
0.0071848
0.00819251
0.00818413
-0.00516985
-0.00499545
-0.00352435
-0.0037484
0.0139191
0.0138682
0.00357886
0.00352147
1.08485e-05
4.31345e-05
0.000680732
0.000272872
0.00718335
0.00838898
0.0109268
0.0128852
-1.52108e-05
0.0150797
0.0091289
0.0116269
0.00177038
0.00168088
0.00174487
0.000253696
0.000128166
0.000201138
0.000233106
0.000326841
0.000636034
0.00282366
0.00289498
0.00288641
0.00304124
-0.00229609
-0.000994469
-0.0033238
-0.00316963
-0.00344007
-0.00351323
-0.00351389
-0.00341207
-6.17569e-05
-0.00176034
-0.000308613
0.00102106
0.00946482
0.00896848
-0.00331547
-0.00352495
-0.00326034
0.00903091
0.00888233
0.00917479
-0.00142896
-0.00104154
-0.000703875
0.00240772
0.00280698
0.00189893
0.000805073
-0.00626217
-0.00748954
0.00112648
0.00385114
0.0048923
0.00567932
0.00406428
0.00418671
0.00615318
0.00553261
-0.00135106
-0.00163999
-0.00191737
-0.0017569
-0.00158363
0.00537452
0.00666516
-0.0078009
0.0113261
0.010527
0.00582099
0.00941775
0.000941689
0.000847095
0.00075877
0.00551207
0.00570481
0.00569893
-0.00316758
-0.00308841
-0.0030806
-0.00256429
-0.00268764
0.0158722
0.0138678
0.0133089
0.0149397
0.00168626
0.00476459
0.00346343
0.00511731
0.00479422
0.0155454
0.0158403
0.014499
0.00595856
0.00703725
0.000163602
0.000255823
8.92662e-05
0.0105419
0.0110445
0.00770627
0.00735834
0.0128155
0.00674309
0.00803292
0.00909183
-0.00185551
-0.00236286
0.00740251
0.00168776
0.00177697
-0.00112092
-0.00138303
-0.000926688
-0.00246231
0.00663459
0.00576208
0.00375678
0.000236155
0.000185379
6.77365e-05
0.000186516
0.00757083
0.0068342
-0.00181564
-0.00193271
-0.00182779
-0.00408809
-0.00363413
5.00199e-05
-0.00279887
-0.000447028
0.0084347
0.00854368
0.00963781
0.0091731
0.00775085
0.00311771
0.00303501
0.00329283
0.00316851
0.00508165
0.00485953
0.0051947
0.00541519
0.00535329
0.00542463
0.00563585
0.00618998
0.00588397
0.00548203
0.00581217
0.00651782
0.00727176
0.00756368
-0.000533534
-0.000514225
-0.00242334
0.000186953
4.45046e-05
-0.00194629
-0.0020345
0.000254248
0.000315374
0.000281024
0.00021584
0.00177397
0.00172471
0.00170735
-0.00286637
-0.00305277
-0.0027178
-0.00428337
-0.00476474
-0.00407734
-0.00466381
-0.00642779
-0.00512738
0.0160659
0.0167761
0.0165435
0.0009744
0.00111914
0.00100822
0.0103926
0.00996469
0.010045
0.00140741
0.00139119
0.00142386
0.0013745
0.00135876
0.00134244
0.00134266
0.00132586
0.00132615
0.00135916
0.00137513
0.00139118
0.00140756
0.00142459
0.00130988
0.00130923
0.00143985
0.0014401
0.00145509
0.00129357
0.00129284
0.00145581
0.00127684
0.00126026
0.00127676
0.00126055
0.00147274
0.00147307
0.00124387
0.00124422
0.00148864
0.00148919
0.00122751
0.00122793
0.00150463
0.00150522
0.00121122
0.0012116
0.00152058
0.00152126
0.00119492
0.00119533
0.0015365
0.00153722
0.00117868
0.00117904
0.0015525
0.00155322
0.00116238
0.0011628
0.00156883
0.00156935
0.00114608
0.0011463
0.00158423
0.00158495
0.00112965
0.00112965
0.00160107
0.00160136
0.00111288
0.00111274
0.0016163
0.00161653
0.00109507
0.00109574
0.00163232
0.00163229
0.00107814
0.00107899
0.00161559
0.00163162
0.00164838
0.00164818
0.00158234
0.00159981
0.00155047
0.00156697
0.00151933
0.00153502
0.00148743
0.00150345
0.00145451
0.00147132
0.00142254
0.00143999
0.00139076
0.00140714
0.00135789
0.00137307
0.00132419
0.00134127
0.0012918
0.00130806
0.0012592
0.00127554
0.0012266
0.00124292
0.00119407
0.00121036
0.00116159
0.00117786
0.00112918
0.0011454
0.00109539
0.00111291
0.00107836
0.00106121
0.00106168
0.0011128
0.00107865
0.00109542
0.00114621
0.00112927
0.00117864
0.00116254
0.00121113
0.0011949
0.00124375
0.00122746
0.00127645
0.00126013
0.00130899
0.0012928
0.00134193
0.00132573
0.00137519
0.00135867
0.00140689
0.00139082
0.00144006
0.00142471
0.00147276
0.00145598
0.00150488
0.00148888
0.00153675
0.00152091
0.00156846
0.00155256
0.00160028
0.00158402
0.00163109
0.0016159
0.001647
0.00164827
0.00106098
0.00106171
0.00166344
0.00166189
0.00166458
0.00166398
0.00161399
0.00164698
0.00163018
0.00158083
0.00159784
0.00154927
0.0015647
0.0015179
0.0015337
0.00148597
0.001502
0.00145365
0.00146987
0.00142084
0.00143769
0.00138878
0.00140579
0.00135704
0.00137179
0.00132316
0.00134015
0.00129061
0.00130688
0.00125805
0.00127435
0.0012255
0.00124178
0.00119302
0.00120926
0.00116063
0.00117682
0.00112848
0.00114452
0.00109505
0.00111197
0.00104407
0.00104429
0.0010604
0.00107767
0.00107797
0.00106146
0.00104436
0.00104435
0.00111269
0.00109485
0.00114546
0.00112865
0.00117767
0.00116155
0.00121014
0.0011939
0.00124274
0.00122645
0.00127546
0.0012591
0.00130824
0.00129187
0.00134098
0.00132465
0.00137403
0.00135737
0.0014062
0.00139
0.00143884
0.00142333
0.00147156
0.00145528
0.00150378
0.00148773
0.00153571
0.00151981
0.00156731
0.00155158
0.00159851
0.00158297
0.00162928
0.00161388
0.00165917
0.00164467
0.00166341
0.00167724
0.00167471
0.0016781
0.00104366
0.00104396
0.00167912
0.00167804
0.00169236
0.00169033
0.00167908
0.00106028
0.00104254
0.00102715
0.00102667
0.00167692
0.00169457
0.00171929
0.00169962
0.00164456
0.00166116
0.00161141
0.00162767
0.00157879
0.00159563
0.0015473
0.00156256
0.00151596
0.00153176
0.00148406
0.00150006
0.00145183
0.00146799
0.00141941
0.00143566
0.00138701
0.00140335
0.00135458
0.00137064
0.00132177
0.00133828
0.00128909
0.00130541
0.00125651
0.00127281
0.00122399
0.00124025
0.00119156
0.00120777
0.00115924
0.00117539
0.0011272
0.00114318
0.00109411
0.00111069
0.00107702
0.0010274
0.00102678
0.00102705
0.00102749
0.00107739
0.00104316
0.00106079
0.00111182
0.00109449
0.00114399
0.00112754
0.00117623
0.00116009
0.00120868
0.00119245
0.00124125
0.00122497
0.00127393
0.00125759
0.00130668
0.00129031
0.00133946
0.00132308
0.00137218
0.00135586
0.00140483
0.00138849
0.00143735
0.00142123
0.00146984
0.00145364
0.00150205
0.001486
0.00153396
0.00151806
0.00156549
0.0015498
0.00159647
0.0015811
0.00162678
0.00161166
0.00165667
0.00164175
0.00168699
0.00167117
0.00170427
0.00170148
0.00169407
0.00169283
0.00102579
0.00102629
0.00170659
0.00170663
0.00171206
0.00171567
0.00171772
0.00164596
0.00172111
0.0016943
0.00170273
0.00170037
0.00167658
0.00169458
0.00164047
0.0016584
0.00160813
0.00162374
0.00157618
0.0015928
0.00154494
0.00156047
0.00151344
0.00152927
0.00148157
0.00149756
0.00144942
0.00146554
0.00141712
0.0014333
0.00138472
0.00140095
0.00135219
0.00136845
0.00131961
0.00133596
0.00128699
0.00130329
0.00125446
0.00127073
0.00122199
0.00123823
0.00118962
0.00120581
0.00115737
0.00117349
0.00112538
0.00114134
0.00109276
0.00110901
0.00105946
0.00107598
0.00102491
0.00104186
0.00101018
0.0010079
0.00100914
0.00101097
0.00101048
0.00101091
0.00101108
0.00100975
0.00101042
0.00104229
0.00100816
0.00102626
0.00107615
0.00105964
0.00111009
0.00109355
0.00114205
0.00112598
0.00117433
0.00115819
0.00120675
0.00119054
0.00123929
0.00122302
0.00127192
0.00125561
0.00130462
0.00128828
0.00133736
0.00132101
0.00137004
0.00135374
0.00140268
0.00138637
0.00143519
0.00141899
0.00146759
0.00145143
0.00149975
0.00148372
0.00153159
0.00151573
0.00156303
0.00154739
0.00159393
0.00157859
0.00162401
0.00160908
0.00165333
0.00163881
0.00168279
0.00166779
0.00171187
0.00169642
0.00172919
0.00172542
0.00170762
0.00170768
0.00172489
0.00171815
0.00102387
0.0010075
0.000992961
0.000992089
0.0017176
0.00173138
0.00175749
0.00167227
0.00174034
0.00173779
0.00171637
0.00170801
0.00169097
0.00168776
0.00167178
0.00168633
0.00163577
0.00165364
0.00160476
0.00162019
0.00157331
0.00158922
0.00154188
0.00155758
0.00151034
0.00152617
0.00147852
0.00149448
0.00144646
0.00146253
0.00141423
0.00143038
0.00138188
0.00139808
0.00134943
0.00136566
0.00131692
0.00133321
0.00128439
0.00130066
0.00125193
0.00126817
0.00121953
0.00123574
0.00118723
0.00120338
0.00115503
0.00117113
0.00112297
0.001139
0.0010911
0.00110699
0.00105756
0.00107436
0.0010405
0.000993705
0.000991589
0.000993228
0.000995112
0.000994573
0.000994562
0.00099509
0.000993847
0.00104095
0.00100638
0.0010258
0.00107492
0.00105812
0.00110769
0.00109179
0.00113975
0.00112369
0.001172
0.00115587
0.00120437
0.00118819
0.00123686
0.00122062
0.00126945
0.00125316
0.00130209
0.00128578
0.00133477
0.00131845
0.00136741
0.00135112
0.00139999
0.00138372
0.00143246
0.00141627
0.00146478
0.00144866
0.00149687
0.00148088
0.00152863
0.00151282
0.00155998
0.00154439
0.00159077
0.00157548
0.00162082
0.00160592
0.00164995
0.00163554
0.00167851
0.00166446
0.00170605
0.00169082
0.00173385
0.00172149
0.00174919
0.00174479
0.00172233
0.00171985
0.000989595
0.000990284
0.00172669
0.00169064
0.00171214
0.00173161
0.00174191
0.00176745
0.00174823
0.00175517
0.00175186
0.00176047
0.00175839
0.0017205
0.00168934
0.00175691
0.00172652
0.00168192
0.00168222
0.00166378
0.00167878
0.00163149
0.00164739
0.00160065
0.0016161
0.00156948
0.00158514
0.00153815
0.00155383
0.00150667
0.00152246
0.00147493
0.00149084
0.00144295
0.00145898
0.0014108
0.00142691
0.00137853
0.0013947
0.00134618
0.00136237
0.00131376
0.00132999
0.00128133
0.00129755
0.00124895
0.00126515
0.00121663
0.00123279
0.0011844
0.00120052
0.00115227
0.00116833
0.00112026
0.00113626
0.00108838
0.0011043
0.00105607
0.00107251
0.00102186
0.00103908
0.000988321
0.00100526
0.000975384
0.000971478
0.000973602
0.000978295
0.000976775
0.0009796
0.000979256
0.000979214
0.00097955
0.00097713
0.000978358
0.000974117
0.000975699
0.00100554
0.000972425
0.00098868
0.00103944
0.00102325
0.00107313
0.0010566
0.00110497
0.00108906
0.00113705
0.00112101
0.00116924
0.00115315
0.00120156
0.00118541
0.00123399
0.00121779
0.00126651
0.00125026
0.00129909
0.00128282
0.00133169
0.00131541
0.00136427
0.00134801
0.00139679
0.00138056
0.00142919
0.00141303
0.00146143
0.00144536
0.00149343
0.00147749
0.0015251
0.00150933
0.00155634
0.0015408
0.00158702
0.00157178
0.00161699
0.00160213
0.00164609
0.00163168
0.00167422
0.00166039
0.00170142
0.00168762
0.00172721
0.00171516
0.0017525
0.00173789
0.00177126
0.00176661
0.00173004
0.00174877
0.00173007
0.000986046
0.000969996
0.000957674
0.000955596
0.00173154
0.00174314
0.00173993
0.00175305
0.00176235
0.00177421
0.00178228
0.00177847
0.001731
0.00174465
0.00175703
0.00175115
0.00174947
0.00169572
0.00172147
0.00167555
0.00168154
0.00165633
0.00167029
0.00162611
0.00164115
0.00159578
0.00161104
0.00156493
0.00158043
0.0015338
0.00154941
0.00150243
0.00151817
0.00147079
0.00148666
0.00143892
0.0014549
0.00140688
0.00142294
0.00137471
0.00139083
0.00134245
0.0013586
0.00131013
0.00132631
0.00127781
0.00129399
0.00124552
0.00126168
0.0012133
0.00122942
0.00118115
0.00119723
0.00114911
0.00116513
0.00111717
0.00113314
0.00108534
0.00110125
0.00105388
0.00106957
0.00102009
0.00103723
0.00100274
0.000959936
0.000954914
0.00095804
0.00096309
0.000961635
0.000964034
0.000963747
0.000963606
0.000963993
0.000961317
0.000962657
0.00095959
0.00100421
0.000970333
0.00098699
0.00103765
0.00102126
0.0010701
0.00105427
0.00110194
0.001086
0.00113396
0.00111795
0.00116609
0.00115003
0.00119834
0.00118222
0.00123069
0.00121453
0.00126314
0.00124693
0.00129563
0.0012794
0.00132815
0.00131192
0.00136065
0.00134443
0.00139308
0.0013769
0.0014254
0.00140929
0.00145755
0.00144152
0.00148944
0.00147356
0.001521
0.0015053
0.00155213
0.00153665
0.00158269
0.00156751
0.00161254
0.00159774
0.00164157
0.00162719
0.0016696
0.00165577
0.00169656
0.0016832
0.00172163
0.00170954
0.00174711
0.00173312
0.00177161
0.00175847
0.00177261
0.00176188
0.00178929
0.00178393
0.00173752
0.000952849
0.000953716
0.00175532
0.00174287
0.00176601
0.00174536
0.00175479
0.00176522
0.00176561
0.00177604
0.00178468
0.00179274
0.00180031
0.00179588
0.00174123
0.00174184
0.00177525
0.00177568
0.00175003
0.00173348
0.00174382
0.00169614
0.00171259
0.00167063
0.00168109
0.00164901
0.00166212
0.0016201
0.00163468
0.00159029
0.00160532
0.00155979
0.00157513
0.00152888
0.00154439
0.00149765
0.00151332
0.00146614
0.00148195
0.0014344
0.00145032
0.00140247
0.00141847
0.00137041
0.00138648
0.00133827
0.00135437
0.00130607
0.00132219
0.00127386
0.00128998
0.00124168
0.00125778
0.00120955
0.00122562
0.00117751
0.00119354
0.00114555
0.00116154
0.00111371
0.00112963
0.00108196
0.00109784
0.00105042
0.00106615
0.00101822
0.00103473
0.000983905
0.00100079
0.000950892
0.000968121
0.00093948
0.000934369
0.000937144
0.000944498
0.000941743
0.000947498
0.000946441
0.00094847
0.000948141
0.000948068
0.000948444
0.000946042
0.000947331
0.000942785
0.000944202
0.000938097
0.000940787
0.000968151
0.000935428
0.000951776
0.0010027
0.000984509
0.00103494
0.0010194
0.00106672
0.00105086
0.00109856
0.00108265
0.0011305
0.00111454
0.00116255
0.00114654
0.00119472
0.00117865
0.00122699
0.00121087
0.00125934
0.00124318
0.00129174
0.00127556
0.00132417
0.00130798
0.00135657
0.0013404
0.0013889
0.00137278
0.00142112
0.00140506
0.00145315
0.00143719
0.00148493
0.00146911
0.00151637
0.00150073
0.00154736
0.00153196
0.00157779
0.00156269
0.00160753
0.00159279
0.00163643
0.00162212
0.00166435
0.00165056
0.00169116
0.00167792
0.00171632
0.00170405
0.00174063
0.00172852
0.0017639
0.00175145
0.00178821
0.00177706
0.00177546
0.00177623
0.00180215
0.00179371
0.00175022
0.00175486
0.00178217
0.00178771
0.00177654
0.00176217
0.00176688
0.000948937
0.00093168
0.000921552
0.000919343
0.00177701
0.0017776
0.0017872
0.00179458
0.00180238
0.00180708
0.00178685
0.00178637
0.00179062
0.00181087
0.00180926
0.0018023
0.0017535
0.00177306
0.00177202
0.00173531
0.00174872
0.00172275
0.00173386
0.00169119
0.00170543
0.00166619
0.00167812
0.00164179
0.00165474
0.00161367
0.00162795
0.00158428
0.00159912
0.0015541
0.00156929
0.00152342
0.00153883
0.00149236
0.00150795
0.001461
0.00147674
0.00142939
0.00144524
0.0013976
0.00141354
0.00136567
0.00138167
0.00133365
0.00134969
0.00130157
0.00131763
0.00126949
0.00128555
0.00123743
0.00125347
0.00120542
0.00122143
0.00117348
0.00118946
0.00114164
0.00115757
0.00110989
0.00112577
0.00107824
0.00109407
0.0010467
0.00106247
0.00101542
0.00103105
0.000981619
0.000998792
0.000965438
0.000924871
0.000919052
0.000922371
0.000929365
0.000927033
0.00093188
0.000930858
0.000932932
0.00093258
0.000932543
0.000932916
0.000930828
0.000931849
0.000927045
0.000929211
0.000924497
0.000966002
0.000932852
0.000949324
0.00100032
0.000982911
0.00103147
0.0010159
0.00106312
0.0010473
0.00109486
0.001079
0.00112671
0.00111079
0.00115866
0.00114269
0.00119073
0.00117471
0.0012229
0.00120683
0.00125514
0.00123904
0.00128744
0.00127132
0.00131976
0.00130363
0.00135205
0.00133594
0.00138427
0.0013682
0.00141636
0.00140036
0.00144827
0.00143238
0.00147992
0.00146417
0.00151122
0.00149565
0.00154208
0.00152674
0.00157237
0.00155733
0.00160196
0.00158729
0.00163073
0.00161649
0.00165852
0.00164479
0.00168521
0.00167204
0.00171047
0.00169808
0.00173447
0.00172268
0.00175737
0.00174596
0.00177806
0.00176858
0.00180198
0.00178539
0.00179154
0.00181341
0.00182219
0.00182107
0.00181646
0.00180161
0.00178179
0.0017836
0.00176426
0.00176709
0.000916106
0.000916837
0.00179892
0.00177611
0.00177873
0.00178573
0.00178898
0.0017977
0.00180533
0.00180941
0.0018125
0.00179831
0.00179115
0.0017953
0.00180735
0.00181819
0.00182588
0.00180392
0.00180964
0.0018122
0.00182308
0.00182867
0.00176629
0.00178343
0.00178072
0.00175994
0.00176539
0.00173149
0.00174579
0.00171259
0.00172327
0.00168553
0.00169908
0.00166014
0.00167263
0.00163465
0.00164773
0.00160686
0.00162098
0.0015778
0.00159248
0.00154791
0.00156296
0.00151745
0.00153276
0.00148658
0.00150208
0.00145539
0.00147104
0.00142393
0.00143971
0.00139229
0.00140815
0.0013605
0.00137643
0.00132861
0.00134459
0.00129668
0.00131267
0.00126473
0.00128072
0.0012328
0.00124878
0.00120091
0.00121687
0.0011691
0.00118502
0.00113737
0.00115324
0.00110574
0.00112156
0.0010742
0.00108998
0.00104275
0.00105849
0.00101144
0.00102708
0.000979276
0.000995811
0.000946723
0.000962586
0.00091336
0.000929152
0.000903226
0.0008979
0.000900338
0.000909621
0.000906235
0.000913924
0.000912228
0.000916343
0.000915287
0.00091741
0.000917058
0.000917022
0.000917398
0.000915236
0.000916299
0.000911221
0.00091361
0.000906233
0.000908673
0.000901035
0.00090374
0.000929986
0.000897479
0.000915164
0.000964288
0.000946519
0.000996464
0.000980832
0.00102771
0.00101205
0.00105923
0.00104348
0.00109085
0.00107505
0.00112259
0.00110673
0.00115443
0.00113852
0.00118639
0.00117042
0.00121844
0.00120243
0.00125057
0.00123453
0.00128275
0.00126668
0.00131494
0.00129887
0.0013471
0.00133106
0.0013792
0.00136319
0.00141116
0.00139523
0.00144293
0.0014271
0.00147444
0.00145875
0.00150559
0.00149009
0.00153629
0.00152104
0.00156643
0.00155147
0.00159587
0.00158128
0.0016245
0.00161033
0.00165216
0.00163849
0.00167871
0.00166562
0.00170395
0.00169154
0.0017279
0.00171612
0.00175049
0.00173941
0.00177061
0.00176106
0.00178975
0.00178026
0.00179236
0.0017957
0.00180412
0.00182979
0.00182418
0.0017776
0.00177909
0.00179643
0.001787
0.00179013
0.000910414
0.000895387
0.000885406
0.000881951
0.0017979
0.00179978
0.00180797
0.00181427
0.00181911
0.0018244
0.00180552
0.00179905
0.0018159
0.00181653
0.00182075
0.00181185
0.00181802
0.00183255
0.00183041
0.00182762
0.00183517
0.00177869
0.0017876
0.00177674
0.00177045
0.00178012
0.00174785
0.00175887
0.00172591
0.00173735
0.00170424
0.00171546
0.00167875
0.00169173
0.00165323
0.00166595
0.00162728
0.00164048
0.00159968
0.00161368
0.00157088
0.00158543
0.00154125
0.00155618
0.00151102
0.00152622
0.00148035
0.00149575
0.00144933
0.0014649
0.00141804
0.00143374
0.00138655
0.00140234
0.00135492
0.00137077
0.00132319
0.00133908
0.0012914
0.00130732
0.00125959
0.00127551
0.0012278
0.00124371
0.00119606
0.00121194
0.00116438
0.00118023
0.00113278
0.00114859
0.00110128
0.00111704
0.00106986
0.00108558
0.00103854
0.00105421
0.00100728
0.00102291
0.000976237
0.000991766
0.000943786
0.000959693
0.000926427
0.000887967
0.000882089
0.000885587
0.00089459
0.000891301
0.000898391
0.000896729
0.000900848
0.000899785
0.000901905
0.000901555
0.000901538
0.000901899
0.00089981
0.00090083
0.000896854
0.000898536
0.000891178
0.000894258
0.000887966
0.00092724
0.000894454
0.000912613
0.00096167
0.000944177
0.000992476
0.000977052
0.0010237
0.00100809
0.00105507
0.00103939
0.00108656
0.00107082
0.00111817
0.00110237
0.00114989
0.00113404
0.00118172
0.00116582
0.00121364
0.0011977
0.00124564
0.00122966
0.00127768
0.00126169
0.00130974
0.00129374
0.00134176
0.00132579
0.00137371
0.00135778
0.00140553
0.00138967
0.00143715
0.0014214
0.0014685
0.0014529
0.00149949
0.00148408
0.00153003
0.00151486
0.00156001
0.00154513
0.00158929
0.00157478
0.00161777
0.00160368
0.00164529
0.00163169
0.00167171
0.00165868
0.00169687
0.00168449
0.00172069
0.00170898
0.00174304
0.0017321
0.00176326
0.00175352
0.00178114
0.00177272
0.00179599
0.00178817
0.00181605
0.00180751
0.00183229
0.00182633
0.00181391
0.00180522
0.00180425
0.00178896
0.00179054
0.000878662
0.000879085
0.00181508
0.00179804
0.00180101
0.00180896
0.00181003
0.00181746
0.00182331
0.00182793
0.00183061
0.00182018
0.00180977
0.00180965
0.00181724
0.00181712
0.00183115
0.00181978
0.00183182
0.00182177
0.00182859
0.00181818
0.00183809
0.00183964
0.00183829
0.00183543
0.00179018
0.00179731
0.00180805
0.00177643
0.00177259
0.00175852
0.00177157
0.00173973
0.00174938
0.00171834
0.00172932
0.00169598
0.00170743
0.00167119
0.0016838
0.00164574
0.00165852
0.00161959
0.00163285
0.00159212
0.00160603
0.00156355
0.00157798
0.00153416
0.00154897
0.00150415
0.00151925
0.00147368
0.00148899
0.00144285
0.00145833
0.00141174
0.00142735
0.00138042
0.00139613
0.00134895
0.00136473
0.00131738
0.0013332
0.00128575
0.00130159
0.0012541
0.00126995
0.00122247
0.0012383
0.00119087
0.00120668
0.00115934
0.00117512
0.00112788
0.00114362
0.00109652
0.00111221
0.00106524
0.00108089
0.00103406
0.00104966
0.00100294
0.00101851
0.000971909
0.000987425
0.000941231
0.000956384
0.000907214
0.000923814
0.000876083
0.000891866
0.000866423
0.000858912
0.000863015
0.000873788
0.000869821
0.000879346
0.000877137
0.000882945
0.000881263
0.000885372
0.000884329
0.000886415
0.000886068
0.00088607
0.000886416
0.000884383
0.000885386
0.00088156
0.00088311
0.000877393
0.000879719
0.00086987
0.000873786
0.00086345
0.000866667
0.000891796
0.000860387
0.000876757
0.000924404
0.000909065
0.000957793
0.000941489
0.000988356
0.000972972
0.00101943
0.0010039
0.00105064
0.00103504
0.00108199
0.00106633
0.00111346
0.00109774
0.00114505
0.00112927
0.00117674
0.00116091
0.00120852
0.00119265
0.00124037
0.00122447
0.00127227
0.00125635
0.00130418
0.00128825
0.00133605
0.00132015
0.00136784
0.00135199
0.0013995
0.00138372
0.00143096
0.00141529
0.00146214
0.00144662
0.00149296
0.00147764
0.00152333
0.00150824
0.00155314
0.00153834
0.00158226
0.00156782
0.00161057
0.00159656
0.00163795
0.00162442
0.00166423
0.00165127
0.00168928
0.00167695
0.00171296
0.00170134
0.00173512
0.00172429
0.00175531
0.00174553
0.00177327
0.00176467
0.00178912
0.00178122
0.0018037
0.00179765
0.00180425
0.00181611
0.00181894
0.00183555
0.00183033
0.00179996
0.00180149
0.00182234
0.00180865
0.00181135
0.000872868
0.000855995
0.000848351
0.000845521
0.00181948
0.00181967
0.00182645
0.00183176
0.00183553
0.0018377
0.00180964
0.00180265
0.00180293
0.00181299
0.00182172
0.00183091
0.00183751
0.00182772
0.00183148
0.0018444
0.0018437
0.00183942
0.00183818
0.00182175
0.00182639
0.0018012
0.00180244
0.00179703
0.00178374
0.00179841
0.00176533
0.00177233
0.00175013
0.00175921
0.00173121
0.00174089
0.00170997
0.00172084
0.00168745
0.00169894
0.00166308
0.00167547
0.00163775
0.00165053
0.00161154
0.00162481
0.00158419
0.00159803
0.00155583
0.00157015
0.00152667
0.00154136
0.00149688
0.00151186
0.00146662
0.00148182
0.00143598
0.00145136
0.00140506
0.00142057
0.00137392
0.00138954
0.00134263
0.00135831
0.00131123
0.00132696
0.00127977
0.00129553
0.00124828
0.00126405
0.00121681
0.00123257
0.00118538
0.00120111
0.001154
0.0011697
0.0011227
0.00113836
0.00109148
0.0011071
0.00106036
0.00107593
0.00102933
0.00104485
0.000998378
0.00101386
0.000967518
0.000982951
0.000937231
0.000952238
0.000904311
0.000921034
0.000887687
0.000852221
0.000843755
0.000848708
0.000859572
0.000855891
0.000863968
0.000861921
0.000867544
0.000865884
0.000869911
0.000868892
0.000870939
0.000870596
0.000870605
0.000870943
0.000868937
0.000869935
0.000866017
0.000867626
0.000861948
0.000864158
0.000855157
0.000858941
0.000851559
0.000889402
0.000857096
0.000874408
0.000921691
0.000905373
0.000953307
0.000937992
0.000983991
0.000968613
0.00101491
0.000999461
0.00104598
0.00103045
0.00107717
0.00106159
0.00110849
0.00109285
0.00113993
0.00112422
0.00117147
0.00115571
0.00120309
0.0011873
0.00123479
0.00121897
0.00126653
0.00125069
0.00129827
0.00128244
0.00132998
0.00131417
0.00136161
0.00134584
0.00139309
0.0013774
0.00142438
0.0014088
0.00145538
0.00143995
0.00148603
0.00147079
0.00151622
0.00150122
0.00154585
0.00153114
0.0015748
0.00156045
0.00160295
0.00158902
0.00163017
0.00161672
0.00165632
0.00164342
0.00168124
0.00166897
0.00170479
0.00169323
0.00172679
0.00171604
0.00174692
0.00173715
0.00176492
0.00175625
0.00178096
0.00177309
0.00179428
0.00178838
0.00180462
0.0017992
0.00181881
0.00180717
0.00182577
0.00181815
0.0018118
0.00182534
0.00182775
0.00181048
0.00181192
0.0008404
0.000841695
0.0018274
0.00181884
0.0018211
0.00182897
0.00182875
0.0018349
0.00183945
0.0018425
0.00184401
0.00180706
0.00179809
0.00179316
0.00181039
0.0018049
0.00181524
0.00180629
0.00181827
0.00182208
0.00183351
0.00183686
0.00184177
0.00183724
0.00184898
0.00184633
0.00184115
0.00183632
0.00182839
0.00182289
0.00181169
0.0018034
0.00180425
0.00179115
0.00178091
0.00177149
0.00178773
0.00175709
0.00176375
0.00174118
0.00174978
0.00172215
0.00173192
0.00170114
0.00171189
0.00167863
0.0016901
0.00165453
0.00166677
0.00162932
0.00164206
0.00160315
0.00161638
0.00157592
0.00158969
0.00154775
0.00156197
0.0015188
0.00153339
0.00148923
0.00150411
0.00145918
0.00147428
0.00142874
0.00144403
0.00139802
0.00141344
0.00136707
0.00138259
0.00133596
0.00135155
0.00130474
0.00132039
0.00127346
0.00128913
0.00124215
0.00125783
0.00121085
0.00122652
0.00117959
0.00119524
0.00114838
0.001164
0.00111725
0.00113282
0.00108619
0.00110173
0.00105523
0.00107072
0.00102436
0.00103981
0.00099359
0.00100898
0.000962917
0.000978259
0.000932494
0.000947655
0.000901321
0.000917319
0.000869646
0.000884452
0.000837472
0.000853321
0.000829479
0.000821727
0.00082611
0.000837629
0.000833038
0.000844176
0.000841497
0.000848594
0.000846452
0.000852143
0.000850515
0.000854463
0.000853463
0.000855477
0.000855137
0.00085515
0.000855481
0.000853506
0.00085449
0.000850596
0.000852207
0.000846564
0.000848698
0.00084158
0.000844314
0.000833991
0.000837845
0.000826727
0.000830157
0.000854342
0.000823612
0.0008388
0.000886666
0.000870172
0.000918311
0.000902208
0.000948768
0.00093356
0.000979409
0.000964092
0.00101018
0.000994804
0.00104109
0.00102564
0.00107212
0.00105661
0.00110328
0.00108771
0.00113455
0.00111893
0.00116593
0.00115025
0.00119739
0.00118168
0.00122892
0.00121318
0.00126049
0.00124473
0.00129206
0.0012763
0.00132359
0.00130786
0.00135504
0.00133936
0.00138634
0.00137074
0.00141744
0.00140195
0.00144826
0.00143293
0.00147872
0.00146358
0.00150873
0.00149382
0.00153817
0.00152356
0.00156695
0.00155269
0.00159494
0.00158109
0.001622
0.00160863
0.001648
0.00163518
0.0016728
0.0016606
0.00169623
0.00168473
0.00171811
0.00170741
0.00173816
0.00172841
0.00175617
0.00174748
0.00177213
0.0017644
0.00178549
0.00177932
0.00179566
0.00179098
0.00180388
0.00180001
0.00180227
0.00183359
0.00183566
0.00181927
0.00181372
0.00182049
0.00182176
0.00183573
0.00182827
0.00183026
0.000834322
0.000818013
0.000811543
0.000807793
0.00183758
0.00183724
0.00184263
0.00184647
0.00184875
0.00184961
0.00179886
0.00179339
0.00178198
0.00178734
0.00181356
0.00181588
0.00182926
0.00182635
0.00183922
0.00184273
0.00184429
0.00185229
0.00184828
0.001843
0.00183301
0.00182963
0.00182133
0.00180595
0.00181173
0.00182162
0.00179322
0.00177705
0.00179279
0.00179861
0.00177763
0.00177527
0.00176263
0.00177409
0.00174821
0.00175516
0.00173178
0.00174045
0.0017128
0.00172255
0.00169194
0.00170261
0.0016695
0.00168094
0.00164559
0.00165774
0.00162051
0.0016332
0.00159442
0.00160761
0.00156733
0.00158102
0.00153935
0.00155346
0.0015106
0.00152508
0.00148124
0.00149601
0.0014514
0.0014664
0.00142117
0.00143635
0.00139064
0.00140596
0.00135989
0.00137531
0.00132898
0.00134447
0.00129795
0.0013135
0.00126685
0.00128243
0.00123573
0.00125132
0.00120461
0.00122019
0.00117353
0.00118909
0.0011425
0.00115803
0.00111154
0.00112703
0.00108066
0.00109611
0.00104987
0.00106528
0.00101918
0.00103453
0.000988586
0.00100389
0.000958098
0.000973347
0.000927742
0.000942912
0.000897595
0.000912681
0.00086584
0.000881265
0.000850075
0.000815591
0.000806678
0.000811851
0.000823031
0.000819097
0.00082869
0.000826096
0.000833248
0.00083108
0.000836744
0.000835143
0.000839027
0.000838042
0.000840026
0.000839691
0.000839709
0.000840032
0.000838094
0.000839061
0.000835241
0.000836819
0.000831239
0.000833371
0.000826283
0.000828926
0.000819029
0.000822938
0.000815119
0.000851342
0.000820716
0.000835635
0.000883499
0.000867052
0.000913701
0.000898466
0.000944133
0.000928928
0.000974638
0.000959399
0.00100525
0.000989953
0.00103598
0.00102063
0.00106685
0.00105143
0.00109783
0.00108235
0.00112893
0.0011134
0.00116013
0.00114455
0.00119142
0.0011758
0.00122277
0.00120712
0.00125416
0.00123849
0.00128554
0.00126988
0.00131689
0.00130126
0.00134815
0.00133257
0.00137927
0.00136376
0.00141018
0.00139478
0.0014408
0.00142556
0.00147107
0.00145602
0.00150089
0.00148608
0.00153015
0.00151563
0.00155875
0.00154457
0.00158657
0.0015728
0.00161348
0.00160018
0.00163934
0.00162658
0.00166401
0.00165187
0.00168733
0.00167588
0.0017091
0.00169846
0.00172911
0.00171938
0.00174712
0.00173841
0.00176303
0.00175537
0.00177641
0.00177015
0.00178691
0.00178202
0.00179423
0.00179119
0.00179774
0.00179605
0.00180445
0.00179539
0.00179821
0.0017936
0.00179814
0.00184102
0.00184203
0.00182983
0.00183098
0.000803085
0.000804271
0.00184334
0.00183692
0.00183878
0.00184548
0.00184501
0.00184966
0.00185271
0.00185422
0.0018541
0.00177316
0.00177725
0.00177643
0.00179187
0.00179604
0.00180346
0.00182287
0.00182306
0.001835
0.00183655
0.00184318
0.00184652
0.00185452
0.00184953
0.0018426
0.0018359
0.00182658
0.00181519
0.0018035
0.001787
0.00179805
0.00178743
0.0018309
0.00179168
0.00176779
0.00178084
0.00177756
0.00177946
0.00178332
0.00176567
0.0017714
0.00175394
0.00176124
0.00173892
0.00174646
0.00172218
0.00173089
0.00170324
0.00171297
0.00168246
0.00169309
0.00166011
0.00167149
0.00163633
0.0016484
0.00161137
0.00162401
0.00158539
0.00159853
0.00155844
0.00157205
0.00153063
0.00154466
0.00150209
0.00151647
0.00147294
0.0014876
0.0014433
0.0014582
0.00141328
0.00142836
0.00138296
0.00139818
0.00135241
0.00136773
0.0013217
0.00133709
0.00129087
0.00130631
0.00125997
0.00127544
0.00122904
0.00124452
0.00119811
0.00121359
0.00116721
0.00118268
0.00113637
0.0011518
0.0011056
0.00112099
0.0010749
0.00109026
0.0010443
0.00105961
0.00101379
0.00102905
0.000983384
0.000998593
0.000953084
0.000968238
0.000922903
0.000937995
0.000892993
0.000907908
0.000861916
0.0008773
0.000831179
0.000846642
0.000800122
0.000814958
0.000792437
0.000784309