/*--------------------------------*- C++ -*----------------------------------*\
  =========                 |
  \\      /  F ield         | OpenFOAM: The Open Source CFD Toolbox
   \\    /   O peration     | Website:  https://openfoam.org
    \\  /    A nd           | Version:  10
     \\/     M anipulation  |
\*---------------------------------------------------------------------------*/
FoamFile
{
    format      ascii;
    class       volVectorField;
    location    "94.5";
    object      U;
}
// * * * * * * * * * * * * * * * * * * * * * * * * * * * * * * * * * * * * * //

dimensions      [0 1 -1 0 0 0 0];

internalField   nonuniform List<vector> 
28942
(
(0.00442715 -0.00225538 -3.37765e-22)
(0.00599246 -0.00233826 -6.26182e-23)
(0.0179329 -0.0123843 -8.33632e-22)
(0.103306 0.0182352 -5.27624e-21)
(0.102344 0.0222778 1.72737e-21)
(0.013235 0.000396725 0)
(0.0157205 -1.49838e-05 9.61614e-24)
(0.0182514 0.000511196 -8.46107e-24)
(0.135234 -0.0184498 -2.58446e-22)
(0.133891 -0.0168161 7.35278e-22)
(0.00979209 0.00401458 -6.61007e-22)
(0.0160634 0.00562767 2.49687e-22)
(0.0071354 0.00315221 0)
(0.00470616 0.00206972 0)
(0.0416466 0.00189607 -1.35702e-23)
(0.0399349 0.00241874 -5.55621e-24)
(0.0893151 0.0158896 6.6999e-22)
(0.0870031 0.0138581 1.07815e-21)
(0.0121629 -0.0151103 2.93374e-21)
(0.0293266 -0.0304628 -7.72192e-22)
(0.0981159 0.0374018 9.56024e-22)
(0.0972948 0.0344375 0)
(0.0187344 0.00462519 1.15438e-21)
(0.00786149 0.00236269 5.43519e-22)
(0.0377888 0.00720852 9.3077e-22)
(0.0575185 0.00291015 -8.48523e-22)
(0.00764705 -0.0184876 8.52825e-21)
(0.00669316 -0.0165523 -3.14053e-21)
(0.0355041 -0.025319 5.77875e-22)
(0.0192974 -0.0136799 1.99556e-22)
(0.013592 -0.00124026 0)
(0.0169906 -0.00106033 -1.23431e-23)
(0.021614 0.00396229 2.59733e-22)
(0.031226 0.00180632 -3.90344e-23)
(0.0188245 0.0180091 1.31951e-21)
(0.0157193 0.0191193 -1.31271e-21)
(0.0321681 0.0376173 -3.06217e-21)
(0.0186684 0.0305361 -1.07078e-21)
(0.00723579 -2.38206e-05 -8.00294e-24)
(0.00864853 0.0161971 -2.62127e-21)
(0.0306494 -0.00620317 0)
(0.0513427 -0.0109694 0)
(0.111768 -0.0116693 -2.75259e-23)
(0.111259 -0.0116667 8.1153e-23)
(0.11583 -0.0115622 7.07258e-23)
(0.0257758 0.000149972 1.03196e-23)
(0.0239923 -0.000593582 -1.65436e-23)
(0.0343733 -0.00048229 -7.62486e-23)
(0.0329251 -0.000550875 2.17671e-23)
(0.02671 -0.0025398 -1.90636e-22)
(0.0198164 -0.00302226 1.24098e-22)
(0.128659 0.00128171 -4.05256e-22)
(0.127973 0.00081094 -3.78425e-22)
(0.134551 -0.0212154 -3.76933e-24)
(0.133005 -0.0194896 1.40293e-22)
(0.0824662 0.0063483 7.05572e-22)
(0.101717 -0.000771642 2.4302e-22)
(0.00305751 0.00162025 -5.57424e-22)
(0.00893988 0.00367832 0)
(0.00825465 0.00328787 2.3445e-22)
(0.00288161 0.00148755 4.80907e-22)
(0.000362054 0.000226143 -4.00038e-22)
(0.000192776 0.000122609 -3.83956e-22)
(0.109753 -0.0426053 0)
(0.104882 -0.0256119 1.23129e-22)
(0.121752 -0.0331179 -4.17198e-23)
(0.123402 -0.0437707 0)
(0.0901036 -0.032803 -6.40724e-22)
(0.0936072 -0.0352703 -4.21177e-22)
(0.00188405 -0.00112898 1.11656e-21)
(0.00248743 -0.00201651 -3.51858e-22)
(0.00487074 -0.00315447 8.72936e-22)
(0.0848719 -0.0457588 0)
(0.0911983 -0.0396234 2.17533e-21)
(0.0805401 -0.0530238 5.87872e-22)
(0.114112 0.0124119 2.30564e-22)
(0.112709 0.00691099 -2.55832e-22)
(0.125079 0.011018 -1.06524e-22)
(0.00468293 -0.00286158 -5.39792e-23)
(0.00633789 -0.00442545 4.54299e-22)
(0.0510031 -0.0311443 1.28481e-22)
(0.0331508 -0.0205347 -2.58509e-22)
(0.00211009 -0.000595492 3.18327e-21)
(0.00515534 -0.00207158 -1.2406e-21)
(0.100975 0.0482493 1.51426e-23)
(0.0970248 0.0552167 -7.70573e-22)
(0.0807174 0.0540126 7.03726e-22)
(0.0472024 0.0345095 -2.69931e-21)
(0.0444306 0.0316053 1.91173e-21)
(0.0294903 0.0205947 -1.14467e-22)
(0.0327109 0.0232475 -6.44793e-22)
(0.0379518 0.0283573 8.74472e-22)
(0.00440707 0.00272974 -5.75334e-23)
(0.00775877 0.00398102 -1.66384e-23)
(0.00318776 0.00202195 3.33415e-23)
(0.00192295 0.00164642 -4.45474e-22)
(0.00144985 0.0015708 5.45925e-22)
(0.0157415 0.0115432 -3.27214e-21)
(0.0174943 0.0136351 7.49787e-22)
(0.0088022 -0.00384562 0)
(0.101389 0.00515937 0)
(0.0984003 0.0156831 -3.96822e-21)
(0.0604415 0.0104756 1.94938e-21)
(0.0886814 0.0178811 0)
(0.135442 -0.00106695 0)
(0.134879 -0.00178001 0)
(0.133185 -0.00227501 -2.63527e-22)
(0.114973 0.0266162 -2.13226e-22)
(0.114064 0.0280186 2.1076e-21)
(0.113266 0.0254783 1.13095e-21)
(0.00229329 0.00129904 1.03835e-21)
(0.00151099 0.000777212 -1.16545e-21)
(0.019041 -0.00553152 -5.42287e-22)
(0.0201196 -0.00505942 4.62081e-22)
(0.00909456 -0.00292507 9.13353e-22)
(0.00647653 0.0111507 1.48156e-21)
(0.0189674 0.0181626 3.46394e-21)
(0.0134647 0.0228014 2.72176e-22)
(0.00492075 0.0143072 -8.63947e-21)
(0.116979 0.0477553 5.61183e-23)
(0.107858 0.0582442 1.07718e-21)
(0.118317 0.0548834 -1.85773e-21)
(0.0390831 -0.0294121 7.34823e-22)
(0.0240044 -0.0172616 -4.70601e-22)
(0.0053207 -0.000740142 -4.11049e-21)
(0.00453779 -0.00359012 0)
(0.0124953 -0.00166949 2.00699e-21)
(0.0219598 -0.0161272 7.8149e-22)
(0.0342483 -0.0277788 -1.96443e-21)
(0.0324917 -3.96991e-05 5.24535e-23)
(0.0345662 0.000114259 -3.8792e-23)
(0.0304982 0.000133329 -1.62263e-24)
(0.0280498 -0.0419399 0)
(0.0295993 -0.0428311 0)
(0.0896238 -0.0186527 -4.64881e-22)
(0.0995917 -0.0220903 3.15746e-21)
(0.0870347 -0.0252785 0)
(0.0471079 -0.0401804 0)
(0.0581671 -0.0513748 -7.86438e-22)
(0.0413098 0.0393374 2.09135e-21)
(-2.31323e-06 0.000214459 5.03997e-22)
(-0.000194177 0.000130925 -3.31407e-22)
(0.0223222 -0.0192367 -7.94424e-22)
(0.120258 -0.0114334 3.99089e-22)
(0.119621 -0.0113773 -7.71698e-23)
(0.115408 -0.00572892 -6.44934e-23)
(0.108334 0.000973878 8.59465e-23)
(0.117598 -0.000328554 1.70581e-22)
(8.22162e-05 0.000258991 1.94892e-22)
(0.0437412 0.0344176 3.21809e-21)
(0.0618688 0.046307 -7.91785e-22)
(0.0593026 0.0393628 -3.04826e-24)
(0.0211738 -0.000778673 5.22305e-24)
(0.02086 -0.000755028 2.70166e-23)
(0.0226416 -0.000524171 9.73999e-25)
(0.0252931 -0.000548005 -1.3339e-23)
(0.045416 0.0380888 1.33757e-22)
(0.0189603 0.0160582 0)
(0.000137933 -2.71492e-05 3.61301e-22)
(0.000420748 -0.0002547 -4.00858e-22)
(0.00185733 -0.00100681 2.79204e-22)
(0.036542 -0.00771586 -1.82711e-21)
(0.0648477 -0.00209667 -7.43835e-22)
(0.029443 -0.00016738 -2.13015e-24)
(0.0744616 -0.0076442 2.69362e-22)
(0.0706743 -0.0157263 5.50566e-23)
(0.0943025 0.0399239 2.15105e-21)
(0.0914029 0.0454593 9.92837e-23)
(0.0887476 0.0290903 1.21957e-21)
(0.0914729 0.0308073 -8.8381e-22)
(0.0986943 0.0410854 0)
(0.126121 -0.000306272 1.50703e-22)
(0.126892 -0.000738659 2.84798e-22)
(0.128093 -0.0123573 -2.98015e-22)
(0.129557 -0.0121631 5.10202e-22)
(0.117053 0.0241613 2.61625e-22)
(0.119111 0.025063 -7.40976e-22)
(0.117099 0.0261735 0)
(0.115134 0.0249102 1.54145e-22)
(0.11667 0.0280953 0)
(0.117171 0.0361161 -5.54495e-22)
(0.115709 0.0381672 -3.02591e-22)
(0.111335 0.0419785 -5.43437e-22)
(0.113729 0.0401114 0)
(0.116417 0.0430871 1.7989e-21)
(0.113695 0.0450089 4.73859e-23)
(0.108328 0.0441887 -3.05116e-22)
(0.0996259 0.0502898 -1.29304e-21)
(0.098417 0.0455013 -2.27742e-22)
(0.0249374 -0.00846156 5.57652e-23)
(0.0327892 -0.00931738 -2.22353e-23)
(0.00627884 -0.00248452 -6.82627e-22)
(0.0288553 -9.91034e-05 -3.30151e-23)
(0.0370578 -0.000277407 0)
(-3.18592e-06 -3.9761e-05 4.25241e-22)
(1.30073e-05 -4.71239e-05 2.16715e-22)
(0.0335 -0.00174488 1.58735e-23)
(0.0396579 -0.00169957 6.60017e-24)
(0.0392298 -0.00117718 0)
(0.0323921 -0.000816548 6.99168e-24)
(0.0852461 0.0032825 -1.09704e-22)
(0.0844736 0.00296772 5.18318e-22)
(0.0853274 0.00304587 2.40118e-22)
(0.000670453 0.000271853 3.87299e-22)
(-0.000159423 -0.000129288 -5.6197e-22)
(-0.00020107 -0.000169029 4.78356e-22)
(0.00149958 0.000617109 0)
(7.98256e-05 8.77124e-05 1.1295e-21)
(0.000171799 -3.90355e-05 -8.13063e-22)
(0.00744567 0.00367223 -9.83329e-22)
(0.00145103 0.000780984 -1.17662e-21)
(0.00171991 0.000860305 0)
(0.00157196 0.00754433 0)
(0.000576935 0.00328136 0)
(0.000313304 0.00197696 0)
(0.136618 -0.00107734 5.80019e-23)
(0.137632 -0.000911134 0)
(0.13599 -0.00186107 -6.75508e-23)
(0.0881097 -0.0148526 4.43903e-21)
(0.0901165 -0.0152621 -1.61139e-21)
(0.089032 -0.0128773 0)
(0.0953473 0.000365283 -6.41055e-24)
(0.0958874 0.000360229 1.28303e-23)
(0.0948044 0.000369616 -4.33822e-24)
(0.0964216 0.000356584 0)
(0.0969537 0.000360585 -8.17872e-24)
(0.097479 0.000359302 0)
(0.09747 -0.000197658 0)
(0.0979954 0.000347292 3.03461e-23)
(0.0979809 -0.000212627 0)
(0.096951 -0.00019421 -8.23683e-24)
(0.0964189 -0.000196065 0)
(0.0958835 -0.00019727 4.29025e-24)
(0.0953408 -0.000202565 -6.4085e-24)
(0.0947993 -0.000207138 4.3328e-24)
(0.0984984 0.000333557 -2.90388e-23)
(0.0984893 -0.000222214 -1.01519e-24)
(0.0942519 0.000378939 8.57503e-29)
(0.0942416 -0.000205982 -6.62331e-24)
(0.0936887 0.000386178 3.52319e-23)
(0.0989939 0.00032556 2.71248e-26)
(0.0990007 -0.000224673 -1.01561e-24)
(0.0936813 -0.000212518 1.30553e-23)
(0.0994909 0.000316411 2.731e-23)
(0.0999845 0.000309208 -2.72875e-23)
(0.0995023 -0.000228147 2.04545e-24)
(0.099998 -0.000230344 4.04146e-24)
(0.0931411 0.000403459 -3.42788e-23)
(0.093126 -0.000217519 -8.59382e-24)
(0.100474 0.000300349 0)
(0.100489 -0.000233799 -3.98623e-24)
(0.0925705 0.000411292 4.2418e-27)
(0.0925564 -0.000217669 -4.25244e-27)
(0.100959 0.00029318 0)
(0.100975 -0.000236175 0)
(0.0919931 0.000415792 0)
(0.0919788 -0.000221271 0)
(0.101439 0.000284124 0)
(0.101456 -0.000239967 1.91397e-24)
(0.0914093 0.000420273 -1.77997e-23)
(0.0913942 -0.000224035 -4.3438e-27)
(0.101916 0.000276698 1.00323e-25)
(0.101933 -0.000242645 -2.04412e-24)
(0.0908184 0.000422928 1.78848e-23)
(0.090803 -0.00022837 0)
(0.102389 0.000267306 0)
(0.102406 -0.000246614 0)
(0.0902213 0.000426081 -1.13186e-24)
(0.0902053 -0.00023067 1.94276e-23)
(0.102857 0.0002596 1.23998e-23)
(0.102875 -0.000249128 0)
(0.0896182 0.000427572 -1.01958e-25)
(0.089601 -0.000233083 -1.8388e-23)
(0.103322 0.000250113 -1.8546e-23)
(0.103341 -0.000252826 -5.38192e-24)
(0.0889953 0.000422879 1.875e-23)
(0.0889812 -0.000235968 0)
(0.103785 0.000243253 6.1079e-24)
(0.103804 -0.000251784 3.58919e-24)
(0.0883685 0.000424566 -9.49323e-24)
(0.0883547 -0.000241497 1.92494e-23)
(0.104242 0.000238231 -2.43863e-23)
(0.104269 -0.000244979 2.74857e-23)
(0.0877103 0.000412016 9.78723e-24)
(0.0877057 -0.000252588 3.09783e-25)
(0.104703 0.00023518 0)
(0.104726 -0.000238994 1.30954e-23)
(0.0870434 0.000399749 -1.96906e-23)
(0.0870461 -0.000270503 3.93891e-23)
(0.105177 0.0002238 0)
(0.105185 -0.000238732 0)
(0.0880131 0.00107182 -9.68439e-24)
(0.0873401 0.00106855 -3.92039e-23)
(0.0863519 0.000381306 0)
(0.0863717 -0.000299589 -2.00708e-23)
(0.0893068 0.00106948 -6.0789e-24)
(0.0886641 0.00107148 1.19395e-24)
(0.0905288 0.00105268 0)
(0.0899169 0.00106056 -1.96309e-23)
(0.0917112 0.00103228 -3.78833e-26)
(0.091124 0.00104298 0)
(0.0928634 0.00100836 0)
(0.0922909 0.00102071 0)
(0.0939876 0.000977796 0)
(0.0934294 0.00099459 0)
(0.0950641 0.000945046 8.56495e-24)
(0.0945229 0.000960482 2.15998e-24)
(0.096135 0.000922325 -8.25893e-24)
(0.095606 0.000933677 -8.5536e-24)
(0.097182 0.000902772 1.46577e-23)
(0.0966549 0.000907214 1.87245e-23)
(0.0982274 0.000886005 0)
(0.0977074 0.000897166 0)
(0.0992326 0.000865631 -6.43289e-26)
(0.0987338 0.000875804 0)
(0.100216 0.000842203 0)
(0.0997264 0.000854157 0)
(0.101181 0.000817221 0)
(0.1007 0.000829753 0)
(0.102129 0.00079167 0)
(0.101657 0.000804423 0)
(0.103061 0.00076594 0)
(0.102597 0.000778737 0)
(0.103978 0.000740297 0)
(0.103521 0.000753063 0)
(0.104885 0.00069967 -9.96256e-24)
(0.104431 0.000726336 0)
(0.105341 0.000677561 -3.2164e-24)
(0.105643 0.000208366 3.14033e-24)
(0.105649 -0.000242755 -3.1142e-24)
(0.104442 -0.00069971 0)
(0.105351 -0.000692069 -1.27799e-23)
(0.104897 -0.000694475 -6.58591e-24)
(0.103522 -0.000710322 1.80383e-24)
(0.103983 -0.000705975 -7.05717e-24)
(0.102594 -0.000714549 5.84321e-26)
(0.10306 -0.000713538 0)
(0.10165 -0.000716152 0)
(0.102124 -0.000715184 0)
(0.100689 -0.00071917 0)
(0.101172 -0.000717368 0)
(0.0997087 -0.000724432 0)
(0.100201 -0.0007214 7.69826e-30)
(0.0987083 -0.000733163 6.49977e-26)
(0.0992109 -0.000728204 0)
(0.0976917 -0.000738427 0)
(0.0981998 -0.000736867 0)
(0.0966481 -0.000744709 0)
(0.0971709 -0.000740629 0)
(0.095582 -0.000758698 0)
(0.0961163 -0.000748943 -4.3359e-24)
(0.0944915 -0.000780382 1.14147e-24)
(0.095039 -0.000772177 -5.59628e-24)
(0.0933884 -0.000806027 0)
(0.0939469 -0.000791571 -4.55388e-24)
(0.0922485 -0.00082801 0)
(0.0928222 -0.000817026 0)
(0.0910788 -0.000850529 0)
(0.0916674 -0.000839163 0)
(0.0898742 -0.000872055 0)
(0.0904819 -0.000861476 0)
(0.0886286 -0.000894267 -4.9731e-24)
(0.0892578 -0.000881803 0)
(0.0873462 -0.00093504 -2.01528e-23)
(0.087992 -0.000909566 -4.99941e-24)
(0.0866817 -0.000965496 2.05186e-23)
(0.086652 0.0010668 3.88755e-23)
(0.105799 0.000658724 6.29608e-24)
(0.105807 -0.000690294 -1.22965e-23)
(0.0856747 -0.00033943 0)
(0.0860079 -0.00101012 0)
(0.0859497 0.00106475 0)
(0.0856452 0.000355625 0)
(0.0886069 0.00171804 0)
(0.0872816 0.00174799 9.73468e-24)
(0.0879499 0.00173107 9.82593e-24)
(0.0898825 0.00168727 1.24836e-23)
(0.0892518 0.00170357 -2.49548e-24)
(0.0910834 0.00164905 3.85808e-26)
(0.0904891 0.00166797 0)
(0.0922477 0.00161109 0)
(0.0916695 0.00163018 0)
(0.0933813 0.00157263 0)
(0.0928181 0.00159191 0)
(0.0944887 0.00153622 0)
(0.0939379 0.00155345 0)
(0.0955639 0.00149827 0)
(0.0950298 0.00151772 0)
(0.0966167 0.0014645 -3.46077e-26)
(0.0960897 0.00148207 8.92949e-24)
(0.0976369 0.0014288 -3.31958e-26)
(0.0971323 0.00144596 -1.74138e-23)
(0.0986538 0.00139181 0)
(0.0981466 0.00140934 0)
(0.0996436 0.00135815 3.21203e-26)
(0.0991518 0.00137479 0)
(0.100612 0.00132462 0)
(0.10013 0.00134142 0)
(0.101562 0.00129079 0)
(0.101089 0.00130771 0)
(0.102495 0.00125697 0)
(0.102031 0.00127385 0)
(0.103412 0.00122341 0)
(0.102956 0.00124014 0)
(0.104314 0.00118923 0)
(0.103865 0.00120662 0)
(0.105206 0.00114309 6.80478e-24)
(0.10476 0.00116831 0)
(0.106107 0.000197258 0)
(0.106253 0.000640272 6.15438e-24)
(0.106099 0.00109668 0)
(0.105651 0.00111948 6.62808e-24)
(0.105668 -0.00113854 1.31872e-23)
(0.106114 -0.00113317 3.23823e-24)
(0.106263 -0.000692744 2.52779e-23)
(0.10611 -0.000244557 0)
(0.104772 -0.00115288 0)
(0.10522 -0.00114529 -1.99107e-23)
(0.103867 -0.00116713 5.67582e-26)
(0.104321 -0.00115902 7.10009e-24)
(0.102952 -0.00117755 -5.84318e-26)
(0.103411 -0.00117261 0)
(0.102021 -0.00118766 0)
(0.102488 -0.00118243 0)
(0.101073 -0.00119974 0)
(0.101549 -0.00119338 0)
(0.100106 -0.00121464 0)
(0.100592 -0.00120678 -7.69824e-30)
(0.0991211 -0.00123296 -1.2992e-25)
(0.0996159 -0.00122338 0)
(0.0981185 -0.00125284 0)
(0.098622 -0.00124283 0)
(0.0970901 -0.00127532 2.1876e-24)
(0.0976078 -0.00126338 0)
(0.0960429 -0.00130019 0)
(0.0965675 -0.00128555 -2.17848e-24)
(0.0949712 -0.00133258 4.56331e-24)
(0.0955067 -0.00131606 4.53473e-24)
(0.0938745 -0.00136483 0)
(0.0944272 -0.0013487 0)
(0.0927495 -0.00140076 0)
(0.0933154 -0.00138245 0)
(0.0915951 -0.00143916 0)
(0.0921761 -0.00141965 0)
(0.0904078 -0.00148013 0)
(0.0910058 -0.00145923 0)
(0.089184 -0.00152526 7.95577e-26)
(0.0898008 -0.0015021 0)
(0.0879202 -0.0015774 -8.06884e-26)
(0.0885583 -0.00155056 0)
(0.0866202 -0.0016611 -2.11063e-23)
(0.087274 -0.0016158 2.10967e-23)
(0.0865974 0.00176517 1.98156e-23)
(0.0853274 -0.0010659 0)
(0.0859579 -0.0017186 -4.29356e-23)
(0.0849746 -0.000386045 0)
(0.106545 0.00107941 0)
(0.106562 -0.00112827 -3.13997e-24)
(0.0852396 0.00106254 5.01862e-23)
(0.0859056 0.00178319 2.00771e-23)
(0.0846297 -0.00112433 1.08542e-23)
(0.0852841 -0.00178352 5.42596e-23)
(0.0849242 0.000325709 0)
(0.106542 0.00153043 2.58993e-23)
(0.106974 0.00150749 -1.27893e-23)
(0.106712 -0.000692281 -6.21947e-24)
(0.107003 -0.00112167 3.09196e-23)
(0.0869092 0.00247697 7.04304e-23)
(0.0851928 0.0018007 -3.95445e-23)
(0.0855136 0.00253426 -1.76855e-22)
(0.0862086 0.00250268 -4.02406e-23)
(0.088226 0.00240895 1.95938e-23)
(0.0875745 0.00244412 -5.99144e-23)
(0.0894868 0.00234444 -2.00322e-23)
(0.088864 0.00237635 -1.5117e-23)
(0.0907144 0.0022873 -4.99169e-24)
(0.0901083 0.00231665 -4.99677e-24)
(0.0918884 0.00223273 -3.85808e-26)
(0.0913084 0.00226022 0)
(0.0930244 0.0021783 0)
(0.0924604 0.00220536 0)
(0.0941303 0.00212539 0)
(0.0935809 0.00215166 0)
(0.0952093 0.00207485 0)
(0.094673 0.00209967 0)
(0.0962614 0.00202673 0)
(0.0957384 0.00205017 0)
(0.0972882 0.00197893 0)
(0.0967773 0.00200243 0)
(0.0982916 0.00193285 6.00838e-29)
(0.0977935 0.0019568 0)
(0.0992768 0.00188594 0)
(0.098786 0.00190886 0)
(0.100243 0.00184142 3.20417e-26)
(0.0997623 0.00186349 0)
(0.101189 0.00179807 0)
(0.100718 0.00181964 0)
(0.102117 0.00175542 0)
(0.101655 0.00177667 0)
(0.103029 0.0017134 0)
(0.102575 0.00173433 0)
(0.103925 0.00167197 0)
(0.103479 0.00169263 0)
(0.104806 0.00162983 0)
(0.104367 0.00165124 0)
(0.105675 0.00158037 3.46439e-24)
(0.105242 0.00160584 -1.74376e-24)
(0.106109 0.00155563 -1.32152e-23)
(0.10656 0.000189914 -2.9479e-24)
(0.106987 0.00106156 1.23206e-23)
(0.106702 0.000627898 -9.42541e-24)
(0.106562 -0.000254037 0)
(0.106129 -0.00157591 -9.81354e-24)
(0.106995 -0.00155443 -2.8303e-23)
(0.106562 -0.00156559 2.27987e-23)
(0.105257 -0.00159949 0)
(0.105693 -0.00158685 0)
(0.104371 -0.00161517 -8.45164e-29)
(0.104814 -0.00160579 0)
(0.103475 -0.00163281 0)
(0.103925 -0.00162405 0)
(0.102563 -0.00165119 -5.99182e-26)
(0.103021 -0.00164177 0)
(0.101634 -0.00167201 0)
(0.102101 -0.00166125 0)
(0.100688 -0.00169597 0)
(0.101163 -0.00168358 0)
(0.0997242 -0.00172338 6.49311e-26)
(0.100208 -0.00170926 0)
(0.0987414 -0.00175379 6.64895e-26)
(0.0992353 -0.00173821 0)
(0.0977372 -0.00178808 0)
(0.0982419 -0.00177032 0)
(0.0967114 -0.00182615 0)
(0.0972274 -0.00180686 0)
(0.0956623 -0.00186875 0)
(0.0961891 -0.00184649 0)
(0.0945882 -0.00191378 0)
(0.0951286 -0.00189071 0)
(0.0934872 -0.00196362 -7.46761e-26)
(0.0940411 -0.00193818 0)
(0.0923575 -0.00201747 0)
(0.0929261 -0.00199005 0)
(0.091196 -0.00207564 0)
(0.0917809 -0.00204596 0)
(0.0899998 -0.00213934 -1.14054e-28)
(0.0906024 -0.00210674 0)
(0.0887668 -0.00220991 1.31216e-28)
(0.0893883 -0.0021738 0)
(0.0874996 -0.00229655 8.3399e-26)
(0.0881344 -0.00224884 0)
(0.0862045 -0.00241674 -4.38826e-23)
(0.0868547 -0.0023516 1.07857e-23)
(0.0845978 -0.00184859 1.1042e-23)
(0.0855559 -0.00248913 2.19347e-23)
(0.084517 0.00105406 -1.96477e-23)
(0.084256 -0.000436128 -2.10314e-23)
(0.107404 0.0014853 3.1291e-24)
(0.107429 -0.00154889 2.22404e-23)
(0.0844439 0.00179865 2.48032e-24)
(0.0839207 -0.00118946 0)
(0.0845743 0.00244917 2.711e-22)
(0.0848999 -0.00256404 3.37381e-23)
(0.0839153 -0.00191823 4.5024e-23)
(0.0862635 0.00339858 -4.46339e-22)
(0.0860297 0.00354317 8.18498e-23)
(0.0842071 0.00029808 0)
(0.0870004 0.003236 4.52566e-23)
(0.0865253 0.00333935 2.31167e-23)
(0.0881982 0.00312975 4.08363e-23)
(0.0875625 0.00317284 -6.22815e-23)
(0.0894473 0.00303614 -2.02904e-23)
(0.0888343 0.00308461 -1.01322e-23)
(0.0906416 0.00295088 1.01646e-23)
(0.0900491 0.00299216 1.03011e-23)
(0.0918054 0.00287173 0)
(0.0912251 0.00290962 -1.98717e-26)
(0.0929325 0.00279898 0)
(0.0923731 0.00283521 0)
(0.0940297 0.00272894 3.76666e-26)
(0.0934847 0.00276353 0)
(0.0950991 0.00266213 0)
(0.0945677 0.00269517 0)
(0.0961427 0.00259845 0)
(0.095624 0.00262988 0)
(0.0971615 0.00253763 0)
(0.0966551 0.00256766 0)
(0.0981569 0.00247862 3.44343e-26)
(0.0976619 0.00250776 0)
(0.0991302 0.00242144 6.40288e-29)
(0.0986464 0.00245022 0)
(0.100085 0.00236531 0)
(0.0996095 0.00239301 0)
(0.10102 0.0023113 -6.40249e-26)
(0.100555 0.00233811 0)
(0.101938 0.00225885 0)
(0.101481 0.00228491 0)
(0.102838 0.00220772 0)
(0.10239 0.00223314 0)
(0.103723 0.00215772 0)
(0.103283 0.00218259 0)
(0.104592 0.00210863 0)
(0.104159 0.0021331 0)
(0.105447 0.00205921 0)
(0.105021 0.00208415 0)
(0.106292 0.00200852 -1.73008e-24)
(0.10587 0.00203295 0)
(0.107126 0.00195388 0)
(0.106708 0.00198128 -3.35103e-24)
(0.107952 0.00189772 -2.96494e-27)
(0.107542 0.00192646 0)
(0.107422 0.00104468 -1.24917e-23)
(0.108372 0.00187609 7.51952e-25)
(0.107837 0.00146722 6.11292e-24)
(0.107002 0.000178774 4.49703e-24)
(0.107143 0.000614032 -3.10385e-24)
(0.107156 -0.000691926 -1.56363e-24)
(0.107008 -0.000258691 1.55967e-24)
(0.10786 -0.0015435 0)
(0.107442 -0.00112179 -1.41694e-23)
(0.107568 -0.00197696 -6.36003e-24)
(0.108407 -0.00195884 -1.21758e-23)
(0.107988 -0.00196758 2.79601e-23)
(0.106733 -0.002004 -3.33932e-24)
(0.107152 -0.00199021 0)
(0.105886 -0.0020294 0)
(0.10631 -0.00201608 0)
(0.105027 -0.00205259 -1.05131e-28)
(0.105458 -0.0020411 0)
(0.104155 -0.00207717 0)
(0.104593 -0.00206474 0)
(0.103269 -0.00210353 5.99182e-26)
(0.103714 -0.00209006 0)
(0.102366 -0.00213278 0)
(0.102819 -0.00211776 0)
(0.101446 -0.00216551 0)
(0.101908 -0.0021487 0)
(0.100509 -0.00220202 0)
(0.10098 -0.0021833 0)
(0.0995538 -0.00224241 -1.16564e-28)
(0.100034 -0.00222172 0)
(0.0985782 -0.00228727 0)
(0.0990685 -0.00226424 0)
(0.0975816 -0.00233653 0)
(0.0980827 -0.00231143 0)
(0.0965626 -0.00239058 0)
(0.0970748 -0.00236285 0)
(0.0955198 -0.00244878 0)
(0.0960444 -0.00241909 0)
(0.0944512 -0.00251223 7.46761e-26)
(0.0949888 -0.00247987 0)
(0.0933551 -0.00258091 0)
(0.0939067 -0.00254592 0)
(0.092229 -0.0026553 0)
(0.0927959 -0.00261734 0)
(0.0910707 -0.00273649 -7.94361e-26)
(0.091654 -0.00269498 0)
(0.0898786 -0.00282532 8.0962e-26)
(0.090479 -0.00277998 0)
(0.0886513 -0.00292336 -8.24567e-26)
(0.089269 -0.00287296 0)
(0.0873993 -0.00303838 1.08404e-23)
(0.0880238 -0.00297634 -2.13825e-23)
(0.0861477 -0.00318568 -1.09213e-23)
(0.086771 -0.00310699 2.22042e-23)
(0.0842306 -0.00263577 3.21931e-25)
(0.0855097 -0.00326467 2.24211e-23)
(0.0837751 0.00102804 -2.01534e-23)
(0.0835329 -0.000476435 0)
(0.0836755 0.00174823 -1.94971e-22)
(0.0832024 -0.00123924 0)
(0.108636 0.00230459 -3.11982e-24)
(0.109028 0.00227362 2.28552e-24)
(0.108285 -0.0015394 -1.19691e-23)
(0.108818 -0.00194534 -1.35407e-23)
(0.0836457 0.00239542 -1.89662e-22)
(0.0832221 -0.00198363 -4.54644e-23)
(0.0851434 0.00353391 0)
(0.0877083 0.00404772 -5.17204e-23)
(0.0835601 -0.00270809 -2.23213e-23)
(0.0848621 -0.00334159 3.39338e-23)
(0.0871525 0.00404433 1.03824e-22)
(0.0834763 0.000268193 0)
(0.088588 0.00386849 0)
(0.0881164 0.00396108 -4.60614e-23)
(0.0897245 0.00373688 0)
(0.0891397 0.00379938 0)
(0.090891 0.00362471 0)
(0.090311 0.00367804 1.04971e-23)
(0.0920168 0.00352409 0)
(0.0914568 0.00357379 0)
(0.09312 0.00342994 0)
(0.0925712 0.00347553 0)
(0.0941966 0.00334241 0)
(0.0936617 0.00338578 0)
(0.0952473 0.00325878 -3.76666e-26)
(0.0947251 0.00330008 0)
(0.0962729 0.00317914 0)
(0.0957631 0.0032185 0)
(0.0972747 0.00310324 0)
(0.0967767 0.00314075 0)
(0.0982535 0.00303067 0)
(0.0977669 0.00306657 0)
(0.0992106 0.00296084 -7.69596e-29)
(0.0987346 0.00299542 0)
(0.100147 0.00289349 7.48814e-29)
(0.0996814 0.002927 0)
(0.101065 0.0028281 0)
(0.100608 0.00286046 0)
(0.101965 0.00276509 7.04564e-29)
(0.101517 0.00279635 0)
(0.102849 0.00270407 0)
(0.102409 0.00273436 0)
(0.103716 0.00264483 0)
(0.103284 0.00267425 0)
(0.104567 0.00258717 0)
(0.104143 0.00261583 0)
(0.105405 0.0025308 0)
(0.104988 0.00255887 0)
(0.106228 0.00247488 0)
(0.105818 0.00250286 0)
(0.107041 0.00241985 0)
(0.106636 0.00244727 0)
(0.107842 0.00236297 3.31952e-24)
(0.107441 0.00239019 3.40192e-24)
(0.108239 0.00233304 -6.36853e-24)
(0.107851 0.00102824 -6.13167e-24)
(0.108789 0.00185494 0)
(0.108256 0.00144495 -6.18426e-24)
(0.107439 0.000169673 0)
(0.107575 0.000602201 6.25776e-24)
(0.10759 -0.000693767 9.34084e-24)
(0.107444 -0.000263443 -3.15864e-24)
(0.107873 -0.0011194 -1.83484e-23)
(0.108274 -0.00238802 3.19772e-24)
(0.109069 -0.0023547 1.18819e-23)
(0.108678 -0.00237613 0)
(0.10747 -0.00241739 -6.63655e-24)
(0.107875 -0.00240325 6.65843e-24)
(0.106654 -0.0024463 0)
(0.107065 -0.00243218 0)
(0.105826 -0.00247617 -1.24087e-28)
(0.106242 -0.00246116 0)
(0.104984 -0.0025077 0)
(0.105407 -0.0024917 0)
(0.104129 -0.00254172 0)
(0.104558 -0.00252436 0)
(0.103257 -0.00257905 0)
(0.103695 -0.00255995 0)
(0.10237 -0.00262024 0)
(0.102816 -0.00259915 0)
(0.101466 -0.00266563 6.459e-26)
(0.10192 -0.00264241 0)
(0.100544 -0.00271553 -6.6373e-26)
(0.101007 -0.00269001 0)
(0.0996032 -0.00277042 0)
(0.100076 -0.00274234 0)
(0.0986424 -0.00283032 0)
(0.0991254 -0.00279977 0)
(0.0976605 -0.00289553 0)
(0.0981541 -0.00286224 0)
(0.096656 -0.00296601 0)
(0.0971612 -0.00293009 0)
(0.0956273 -0.0030424 0)
(0.0961448 -0.00300347 0)
(0.0945729 -0.00312501 0)
(0.0951034 -0.00308293 0)
(0.0934909 -0.00321438 -7.75697e-26)
(0.0940355 -0.00316882 0)
(0.0923797 -0.00331138 7.91222e-26)
(0.092939 -0.00326188 0)
(0.0912384 -0.0034167 -8.06387e-26)
(0.0918129 -0.00336302 0)
(0.0900666 -0.0035307 0)
(0.0906562 -0.00347259 0)
(0.0888644 -0.00365328 0)
(0.0894687 -0.00359082 0)
(0.0876478 -0.00378935 8.59896e-26)
(0.088259 -0.00371906 1.09118e-23)
(0.0864187 -0.00394856 -5.6879e-23)
(0.087029 -0.00386566 0)
(0.084228 -0.00342657 -3.3704e-23)
(0.0858082 -0.00403555 -3.19099e-25)
(0.0830294 0.00100108 6.30134e-23)
(0.0827994 -0.000512062 0)
(0.109429 0.00224672 -1.18811e-23)
(0.109472 -0.00234366 -2.29048e-23)
(0.0828182 0.00168665 -3.32748e-23)
(0.0839938 0.00310042 1.11792e-24)
(0.0828706 0.00234438 9.47595e-23)
(0.0824826 -0.00127955 0)
(0.0825114 -0.00203149 1.13765e-23)
(0.086133 0.00402542 -9.75358e-23)
(0.0851963 0.00393856 8.31969e-23)
(0.0836021 0.00319407 -8.18535e-23)
(0.0828758 -0.0027708 -3.41716e-23)
(0.0835715 -0.0035061 2.27975e-23)
(0.0852083 -0.00413515 2.23769e-23)
(0.0827349 0.000238705 0)
(0.0893444 0.00461739 2.89753e-24)
(0.0879092 0.00464292 4.98125e-25)
(0.0886954 0.00461959 2.26532e-23)
(0.0903384 0.00445858 2.23633e-23)
(0.0898439 0.00454426 -2.24793e-23)
(0.0914269 0.00430354 4.13998e-26)
(0.0908662 0.00437698 0)
(0.0925229 0.00417942 0)
(0.0919792 0.00423854 0)
(0.0935913 0.00406646 0)
(0.0930599 0.00412225 0)
(0.0946374 0.00396025 0)
(0.0941172 0.00401227 0)
(0.0956594 0.0038602 3.8274e-26)
(0.0951515 0.00390969 0)
(0.096658 0.00376454 0)
(0.0961616 0.00381183 0)
(0.0976339 0.00367324 0)
(0.0971487 0.00371837 0)
(0.098588 0.0035861 0)
(0.0981137 0.00362918 0)
(0.0995211 0.00350276 0)
(0.0990572 0.00354399 0)
(0.100434 0.00342278 -3.43574e-26)
(0.0999801 0.00346237 0)
(0.101328 0.00334586 8.68952e-29)
(0.100884 0.00338401 0)
(0.102205 0.00327163 0)
(0.101769 0.00330839 0)
(0.103064 0.00320013 6.37437e-26)
(0.102636 0.00323558 0)
(0.103908 0.00313104 0)
(0.103488 0.00316531 0)
(0.104736 0.00306413 0)
(0.104324 0.00309734 0)
(0.10555 0.0029992 0)
(0.105145 0.00303145 0)
(0.106351 0.00293594 0)
(0.105952 0.0029674 0)
(0.107138 0.00287382 0)
(0.106746 0.00290478 0)
(0.107914 0.00281283 5.3995e-26)
(0.107527 0.00284319 0)
(0.108679 0.00275308 -3.33402e-24)
(0.108298 0.00278331 0)
(0.109431 0.0026888 3.17248e-24)
(0.109055 0.00272134 0)
(0.110178 0.00262205 3.01491e-24)
(0.109804 0.00265538 -3.09049e-24)
(0.109191 0.00183027 5.98336e-24)
(0.110555 0.00259094 0)
(0.109827 0.00222107 8.88994e-24)
(0.10827 0.00101189 0)
(0.108669 0.00142554 0)
(0.107869 0.000161335 0)
(0.108001 0.000588745 0)
(0.108017 -0.000694414 0)
(0.107874 -0.00026781 0)
(0.108703 -0.0015343 1.21985e-23)
(0.108295 -0.0011188 3.0373e-24)
(0.109865 -0.00233171 2.98557e-24)
(0.109227 -0.0019381 2.38722e-23)
(0.109859 -0.00274514 1.54998e-23)
(0.110613 -0.00271221 2.95887e-24)
(0.110234 -0.0027273 -6.02535e-24)
(0.1091 -0.00278091 3.18683e-24)
(0.109478 -0.00276172 -1.91087e-23)
(0.108332 -0.00281406 -1.19395e-28)
(0.108717 -0.00279704 0)
(0.10755 -0.00284719 0)
(0.107942 -0.00282996 0)
(0.106757 -0.00288336 -1.43581e-28)
(0.107155 -0.00286509 0)
(0.105951 -0.00292172 0)
(0.106355 -0.00290223 0)
(0.105131 -0.00296307 0)
(0.105543 -0.00294199 0)
(0.104296 -0.00300811 0)
(0.104715 -0.00298511 0)
(0.103447 -0.00305736 0)
(0.103873 -0.0030322 0)
(0.102581 -0.00311125 -1.2902e-25)
(0.103016 -0.00308372 0)
(0.101698 -0.00317015 0)
(0.102142 -0.00314006 0)
(0.100798 -0.00323447 0)
(0.10125 -0.00320163 0)
(0.0998787 -0.00330437 0)
(0.100341 -0.00326873 0)
(0.09894 -0.00338014 0)
(0.0994119 -0.00334152 0)
(0.0979803 -0.00346199 -7.2594e-26)
(0.0984628 -0.00342029 0)
(0.0969983 -0.00355041 0)
(0.0974921 -0.00350537 0)
(0.0959927 -0.00364581 0)
(0.0964985 -0.00359723 0)
(0.0949623 -0.0037487 7.75697e-26)
(0.0954807 -0.0036963 0)
(0.093906 -0.00385974 -2.01355e-28)
(0.0944375 -0.00380318 0)
(0.0928232 -0.0039794 1.61071e-25)
(0.0933679 -0.00391851 0)
(0.0917138 -0.00410766 0)
(0.0922718 -0.00404249 0)
(0.0905777 -0.00424413 0)
(0.0911489 -0.00417475 0)
(0.0894168 -0.00438719 -2.37643e-28)
(0.0900007 -0.00431588 0)
(0.0882316 -0.00454052 0)
(0.088826 -0.00446163 0)
(0.0870692 -0.00472193 -3.38379e-23)
(0.0876465 -0.00462748 0)
(0.0845887 -0.00422873 -3.11022e-25)
(0.0864954 -0.00482403 5.7478e-23)
(0.0822426 0.00095452 0)
(0.0871019 0.00465514 1.31453e-22)
(0.0820291 0.00163178 2.2734e-23)
(0.111035 0.00298429 -3.00923e-24)
(0.111394 0.00295397 0)
(0.11026 -0.00232248 2.9016e-24)
(0.110984 -0.00269445 -5.76647e-24)
(0.0820615 -0.000545662 0)
(0.0817525 -0.00131112 0)
(0.0822282 0.00241702 0)
(0.0817929 -0.00207218 -1.12049e-23)
(0.0821833 -0.00283515 -2.25594e-23)
(0.0829091 -0.00358932 0)
(0.0839557 -0.0043245 5.81205e-23)
(0.0859007 -0.00492738 -4.63608e-23)
(0.0819807 0.000204192 0)
(0.0899844 0.00523454 -1.09088e-26)
(0.0862584 0.00462389 4.1277e-23)
(0.0885577 0.00532596 -1.47154e-22)
(0.0892687 0.00529729 4.31048e-23)
(0.0912381 0.00515189 -1.40101e-23)
(0.0906302 0.00517532 -2.24602e-23)
(0.0922633 0.00500922 0)
(0.0917635 0.00509194 0)
(0.0933028 0.00484189 -4.1396e-26)
(0.0927729 0.00492096 0)
(0.0943398 0.00470467 0)
(0.0938255 0.00477081 0)
(0.0953489 0.00457951 0)
(0.0948473 0.00464113 0)
(0.096335 0.00446179 0)
(0.0958448 0.00451973 0)
(0.0972986 0.00435029 -3.8274e-26)
(0.0968196 0.00440541 0)
(0.0982407 0.00424367 0)
(0.0977723 0.00429639 0)
(0.0991622 0.00414176 0)
(0.098704 0.00419215 0)
(0.100064 0.00404436 0)
(0.0996154 0.00409252 0)
(0.100946 0.00395117 0)
(0.100507 0.00399727 0)
(0.10181 0.00386182 3.41671e-26)
(0.101381 0.00390604 0)