/*--------------------------------*- C++ -*----------------------------------*\
  =========                 |
  \\      /  F ield         | OpenFOAM: The Open Source CFD Toolbox
   \\    /   O peration     | Website:  https://openfoam.org
    \\  /    A nd           | Version:  10
     \\/     M anipulation  |
\*---------------------------------------------------------------------------*/
FoamFile
{
    format      ascii;
    class       surfaceScalarField;
    location    "34";
    object      phi;
}
// * * * * * * * * * * * * * * * * * * * * * * * * * * * * * * * * * * * * * //

dimensions      [0 3 -1 0 0 0 0];

internalField   nonuniform List<scalar> 
66213
(
0.00921857
-0.0113403
-0.00603265
0.00815439
0.0295771
-0.00483591
-0.0155226
0.00866049
-0.0139195
0.0348361
-0.0157345
0.024395
0.0232428
-0.0157999
-0.018779
0.0113362
0.0227147
-0.0218237
0.0223517
0.0408865
-0.0320913
-0.0437539
0.0326342
-0.0334375
-0.00163371
-0.0125209
-0.0179366
-0.00909936
-0.014358
8.43672e-05
-8.75022e-05
-0.000193723
0.000196858
-9.4235e-05
0.000178602
-0.000181737
-0.00267062
0.00138478
0.0120312
-0.0107454
0.00178548
-0.0044561
0.00317026
0.0890038
0.100024
-0.0987617
-0.0902656
0.0543139
0.0659428
-0.0312529
-0.0589875
0.0227938
0.0905076
-0.0211808
0.0622169
0.0347951
0.0392609
-0.0456122
-0.0284438
-0.000758245
0.00118081
0.0343725
-0.0131758
0.0111309
0.00128662
0.0145466
0.0115385
0.0535492
0.0176414
-0.00994087
-0.0612497
-0.00608709
0.0522333
0.00740295
-0.0746208
0.00656513
0.0619686
-0.0217076
0.0291425
0.0238375
-0.0312724
-0.0618357
0.00673812
0.03339
-0.0246786
-0.0695243
0.0323672
0.0301585
-0.0308142
0.0635174
-0.088196
-0.000349339
-0.0036639
0.000156861
0.00385638
-0.00338974
0.0030404
-0.00166819
-0.00172155
-0.000928992
-0.0044031
0.0436013
-0.00895018
0.00593135
-0.0405825
0.0328271
-0.0116069
0.0223812
0.0246049
-0.0280878
0.0445787
-0.0410958
0.0115779
0.0435195
-0.0304926
-0.000325903
0.0217309
-0.0302189
0.00881393
0.029726
0.00243346
-0.0324853
-0.00174033
-0.000228
0.00103934
0.00260849
-0.000370486
-0.00547898
0.00324098
0.00386013
-0.00190523
0.000653586
-0.0120401
0.0132417
0.000295953
-0.00149751
0.00218423
-0.00309347
-0.0103518
0.0242744
-0.0200663
0.00614367
-0.0175204
-0.0051225
0.0122911
-0.0374898
0.060811
0.0124466
-0.0357678
-0.0287267
-0.0782873
-0.0643948
-0.00273887
0.0382891
0.0288447
0.078012
-0.135842
-0.0221706
-0.00479149
0.0269621
-0.0092198
-0.0129508
-0.0270901
0.0379872
-0.0201168
0.00419878
-0.0096865
-0.0216024
-0.00156947
-0.00621443
0.0077839
-0.00698524
-0.00850555
0.0139213
-0.00875202
0.00635719
-0.0106892
0.0188786
0.0029664
-0.00263529
0.00602608
-0.00187216
0.00282827
0.0020103
0.00566174
-0.00343342
-0.00222832
0.00983016
-0.00416842
0.0430269
-0.0544005
-0.0168858
0.0282594
0.072287
-0.0187574
-0.0747105
0.0640224
0.0260133
-0.0177487
0.00168674
0.00115326
-0.0320869
0.0292469
-0.0281599
0.00276048
0.0270862
-0.0162122
0.0113228
-0.0232705
0.00111582
0.0294907
-0.019715
-0.0108915
0.0242499
0.0414721
-0.0938097
-0.0320974
-0.0147163
0.0175634
0.0292503
-0.0312073
-0.00310499
0.00221483
0.0298899
-0.00484959
-0.00248699
-0.0225533
0.034119
-0.00750889
0.00327981
0.0705367
0.03017
-0.0136763
-0.0870304
0.0804581
0.0147694
-0.0246908
-0.0430503
0.032036
-0.00446136
0.0154756
0.0125435
-0.0255204
-0.0300734
-0.0256531
0.0335054
0.0241837
-0.0534564
0.029881
0.0478252
-0.0225407
0.0465875
-0.0775033
-0.00350675
0.0202553
-0.0392892
-0.00573251
-0.00788455
0.0136491
-3.20676e-05
-0.00459862
-0.00134737
0.000213484
0.000187099
-0.000925587
0.00148176
0.000721507
-0.000254929
-0.00194833
-0.002339
0.00406401
0.000837331
-0.00256235
0.00341314
-0.00710336
0.00135122
-0.00886936
-0.00131381
0.0135963
-0.00651001
0.00170466
-0.00539811
-0.000274568
-0.0107295
0.0352397
0.0363008
0.0297584
-0.000922172
-0.0395657
0.0175122
-0.0313736
0.0381358
-0.0257453
0.00120444
0.042053
-0.0376448
-0.00563245
-0.0053621
0.0486394
0.0403109
-0.0157388
0.0574722
-0.0344712
-0.016723
0.0114858
0.0397084
0.00402382
-0.013151
-0.025344
0.0472359
-0.0599351
-0.0105944
-0.00124308
0.0161614
-0.0043239
-0.00060986
-0.00608086
-0.00390372
0.000297156
6.26334e-06
-0.00091328
-0.000789068
-0.0571175
-0.0437301
0.0297656
0.071082
-0.0197592
0.0283558
-0.0657141
0.0297315
-0.00451157
-0.0449792
-0.0152768
0.00127828
0.00536082
0.012484
-0.00701878
-0.010826
0.0029616
0.00239922
-0.000114231
0.0155598
0.00386378
0.00613777
0.00153694
0.00073906
0.00441135
0.0328606
-0.000352088
-0.0456595
0.00311344
0.041233
-0.00015294
-0.00347744
-0.00330271
0.00693309
-0.00118938
0.00137288
-0.000336441
-0.00378564
-0.000881179
0.00540006
0.0106491
-0.010635
-0.00541413
-0.00150442
-0.0131618
0.0266229
0.0438892
-0.0106935
0.045917
-0.0477977
-0.00378938
0.00567011
0.048894
0.00493121
-0.00790822
5.30503e-05
0.0194816
0.00526026
-0.0247949
0.0186853
0.00588455
-0.0245168
0.00604268
-0.00735649
0.00595031
9.23631e-05
0.0188988
0.0240572
-0.00503304
-0.037923
0.0177345
0.0549233
-0.053759
-0.0268757
0.0200703
0.0245399
-0.00644037
0.00362193
-0.0137719
-0.0030275
0.00152257
-0.0190216
0.000738099
0.0443109
-0.0413641
0.00295278
-0.00589962
0.00810043
-0.0087687
-0.0174003
-0.0321284
0.00816458
-0.0471503
-0.00166717
0.0477012
0.00111624
-0.0309605
-0.0205556
0.00436588
0.00437214
-0.053837
0.0382886
0.00625337
-0.0267335
-0.0178085
-0.0146693
0.0484672
0.00449062
0.0389057
-0.00505671
-0.0485182
0.0277526
0.0186375
-0.00748443
0.0216355
-0.0152846
-0.0247897
0.0184389
0.0144423
-0.0180937
0.0252868
0.0281095
0.0201184
-0.013519
-0.034709
-0.0110058
0.0238307
0.0394567
0.00649322
-0.0256634
-0.0202865
-0.0028695
0.00194609
0.0403801
0.0380662
0.00116001
-0.0420957
0.0255141
-0.00705167
0.0196037
0.0110342
-0.0228054
-0.0194361
-0.0309927
-0.00863137
0.0249078
-0.0329444
0.00158655
0.00436376
-0.0202795
0.0152464
-0.0255075
0.00522798
-0.00145464
0.0462239
-0.000880066
-0.000193248
-0.00114764
0.00144152
-0.000100631
-6.04289e-05
-3.89265e-05
-9.38929e-05
0.00126341
0.00166422
-0.00298806
0.00656809
-0.0110244
-0.00342825
-0.00286344
-0.02369
0.0223746
0.00417884
-0.0259975
-0.00208462
0.0252187
0.00571244
-0.0154562
0.0410584
-0.0313146
0.0388741
0.00362242
-0.036784
0.000656025
0.0338054
6.63433e-05
-0.0345278
0.0333934
0.00126227
-0.0339997
0.0140466
0.0366693
-0.0534547
0.0114463
0.0396397
-0.0370395
0.00324597
0.00949118
-0.00142077
-0.0113164
0.00507187
0.0105245
-0.0123504
-0.0538457
0.00311474
0.0520832
-0.00135226
0.00307708
-0.0530419
-0.00388091
-0.00086574
0.0334325
-0.0333295
0.000762754
0.0328361
0.000397027
-0.0340989
-0.0110433
-0.0298722
0.0397372
0.00117832
0.0244724
-0.00540482
-0.0301108
0.0296875
-0.0112754
-0.0315265
0.0131144
0.0281758
-0.0109511
0.0124628
0.00819082
-0.013942
0.0108231
0.0116033
0.0100522
-0.0134647
0.00607152
-0.00132822
-0.0165313
0.00178041
0.0323143
-0.0332123
-0.00797317
0.0364494
0.00473608
-0.0059574
-0.0308034
0.00354855
0.00245983
0.014373
-0.00381131
-0.0130215
0.0153674
0.00366895
-0.0165765
0.0350447
-0.0330825
0.0297859
-0.0317481
0.0556136
0.0248783
-0.0454472
0.024835
-0.0242677
0.0550463
0.0365004
-0.0438303
0.0442828
-0.0369529
0.0681926
0.031817
-0.0635092
0.0216534
0.0659838
-0.0194447
-0.0348747
0.00938707
0.0380312
-0.0323975
-0.0104504
-0.0369653
0.00665176
0.0386289
-0.00831537
-0.00763386
0.00714747
-0.0364789
0.00625154
0.00128845
-0.00437511
-0.00316487
0.00533153
0.000566649
0.000353361
0.0856561
-0.0615211
0.00764746
-0.0317825
0.0301145
0.0772675
-0.0217259
0.0371594
0.0047647
-0.0133573
-0.0285668
0.0409718
-0.000471248
-0.0244281
-0.0221551
0.00290487
-0.000635363
-0.020602
-0.000917792
-0.0180609
-0.00700255
0.00111008
-0.000209546
0.00017062
9.49056e-06
-0.000219037
-0.0313382
0.00384724
0.0294795
-0.00198851
0.00295466
-0.00254525
-0.0317476
0.0312313
0.00303753
-0.0313142
0.0298907
0.00518792
0.0335201
0.0129288
-0.0433354
-0.0201341
0.0534066
0.000247591
0.0229339
-0.0301392
-0.0246766
-0.00411899
0.0241027
0.00469289
0.0213123
-0.0420781
-0.00391088
-0.00547861
0.022672
-0.000277226
0.000449835
-0.00207784
0.000223118
-0.000500344
0.000672953
0.00199093
-0.00501844
0.0035135
0.02142
-0.00552111
-0.0313552
-0.000341183
0.0336775
-0.0330482
-0.000288119
0.0343996
-0.000651315
-0.0340895
0.0547481
-0.0116584
-0.043204
0.00431114
0.032411
-0.00408959
-0.0326325
0.0327365
-0.0270092
-0.000956367
-0.00477095
0.0317494
0.00205558
-0.00106846
0.0381335
-0.00593743
-0.000446704
0.0380144
-0.00580229
0.00592138
0.041814
-0.0128508
0.00905113
0.0421455
-0.0122417
0.0119102
0.0427943
-0.0148545
0.0142058
0.0432758
-0.0167465
0.016265
0.0440653
-0.0184241
0.0176346
0.0445606
-0.0193315
0.0188363
0.0453447
-0.0201606
0.0193764
0.0457515
-0.0203041
0.0198974
0.0464343
-0.0205498
0.019867
0.0467061
-0.0202454
0.0199737
0.0472565
-0.0201982
0.0196477
0.0473959
-0.0197159
0.0195765
0.0478259
-0.0195889
0.0191589
0.0478569
-0.0190962
0.0190652
0.0481913
-0.0190088
0.0186743
0.0481353
-0.0185893
0.0186453
0.0483922
-0.0186032
0.0183463
0.0482592
-0.0183003
0.0184334
0.0484501
-0.0184479
0.018257
0.0482484
-0.0182617
0.0184634
0.0483874
-0.0185038
0.0183648
0.0481216
-0.0183261
0.018592
0.0444364
-0.0184856
0.0221708
0.0442072
-0.018101
0.0183301
0.0383808
-0.015193
0.0210194
0.0369216
-0.0153419
0.0168012
0.0366691
-0.0150891
0.0153416
0.0367416
-0.0142924
0.0142199
-0.0259948
0.0332799
0.00722311
-0.0145082
0.00913561
-0.00302938
-0.0253854
0.0192792
-0.025848
0.00898881
-0.0255163
-0.00452223
-0.0391054
0.029374
0.00698671
0.00274472
-0.0128972
0.0105334
0.0361701
-0.0367574
-0.0145018
-0.0353409
0.0362983
-0.0138547
-0.0134631
0.0346616
-0.0329312
-0.0169234
-0.0174377
0.0332147
-0.0333693
-0.018331
-0.0178175
0.0335097
-0.0336381
-0.0183754
-0.0181857
0.0337428
-0.0338262
-0.0183644
-0.018157
0.0338846
-0.0339198
-0.018568
-0.0182419
0.0339306
-0.0339163
-0.019023
-0.0185785
0.0338743
-0.0337999
-0.0196632
-0.0191382
0.033689
-0.0335342
-0.020353
-0.0198268
0.0333325
-0.033077
-0.0208052
-0.0204471
0.0327712
-0.032414
-0.0205178
-0.02061
0.0320207
-0.0316016
-0.0188432
-0.0197248
0.0311847
-0.0307874
-0.0152518
-0.0171634
0.0304336
-0.0331462
-0.0101382
-0.0125955
0.0314734
-0.0336266
-0.00378418
-0.00747511
0.00170886
0.00992347
-0.00872968
-0.0265792
-0.027778
0.0118535
0.0293192
-0.0150912
0.0220703
-0.0256515
-0.00859446
0.00747349
-0.0125115
0.0298531
-0.0248151
0.00561465
0.0312328
0.0121924
-0.012073
-0.0266987
-0.0267977
0.0112121
-0.0123481
0.0291558
0.0338272
-0.0359069
0.00906638
-0.0257456
-0.0119789
0.0317473
0.00769457
-0.0141778
0.0157623
-0.0283821
0.0147882
-0.0143745
-0.0261592
-0.0260883
-0.0257384
0.0270031
-0.00578693
0.0250869
-0.0248796
-0.0121862
-0.00924596
-0.0291434
0.028923
-0.000848042
-0.00309665
-0.0269885
0.0277019
0.00520798
0.00148771
-0.0281539
0.0286565
0.0114076
0.00859913
-0.0291958
0.0297625
0.0156983
0.0136665
-0.0303274
0.0308783
0.0182853
0.0170698
-0.0313916
0.0318635
0.0194254
0.0188632
-0.0322808
0.0326487
0.0196058
0.0194497
-0.0329631
0.0332338
0.0193058
0.0193333
-0.0334616
0.0336563
0.0188705
0.0189311
-0.0338194
0.033958
0.0185067
0.0185113
-0.0340725
0.0341678
0.018338
0.0182318
-0.0342452
0.0343073
0.0184014
0.0181795
-0.0343614
0.0344095
0.0185438
0.0183106
-0.0375597
0.0377042
0.0181856
0.0190206
-0.0394968
0.0388938
0.0174042
0.0192268
-0.0377681
0.0376926
0.0142954
0.0164672
0.0123191
0.00688202
-0.00770669
0.0306777
-0.00645996
0.0325261
0.00568113
0.0316549
0.0331594
-0.0342465
-0.0127675
-0.0304843
-0.0108888
0.029025
-0.0124161
0.0329308
-0.0319914
-0.0154412
-0.0147789
0.0332496
-0.0326657
-0.0175073
-0.0161795
0.0327785
-0.0330042
-0.0181053
-0.0177047
0.0332165
-0.0334109
-0.018181
-0.0179734
0.0335813
-0.0337284
-0.0182173
-0.0179866
0.0338495
-0.0339478
-0.0184697
-0.0181208
0.034022
-0.0340735
-0.0189716
-0.0185043
0.0340994
-0.0340967
-0.0196659
-0.0191124
0.0340609
-0.0339857
-0.0204281
-0.0198626
0.0338672
-0.0336986
-0.0209738
-0.0205657
0.0334808
-0.0332118
-0.0207868
-0.0208278
0.0329032
-0.0325629
-0.0191835
-0.0200334
0.0322144
-0.0318725
-0.0155938
-0.0175119
0.0315594
-0.031732
-0.00996558
-0.0129086
0.0326904
-0.0335504
-0.00292423
-0.00651669
0.0326507
-0.0299956
0.00456801
0.000809172
0.0294444
-0.0289343
0.0113435
0.00843756
0.0312813
-0.0313491
0.01583
0.0135591
-0.0082184
0.0296675
-0.0250761
-0.0141781
0.0163109
-0.0157655
-0.0289275
-0.0327217
0.0176835
0.00306455
-0.00371961
0.0331812
0.0337215
-0.0336028
0.00556246
0.0337841
0.00300192
-0.0158369
0.0153231
-0.0256454
0.028848
-0.0300001
-0.0097367
-0.00822111
0.0290277
0.0282366
-0.00760964
-0.0151077
-0.0258052
-0.0265308
-0.0253206
0.0246946
-0.0115602
0.0254684
-0.0253186
-0.0152576
-0.0140302
-0.0254515
0.0263868
-0.00672228
-0.0100029
-0.0271073
0.0273518
-0.0010925
-0.00381716
-0.0269786
0.0269395
0.00524713
0.00186087
-0.0273974
0.0279376
0.0108674
0.00814123
-0.0285268
0.0291471
0.0150779
0.0130773
-0.0297662
0.0303722
0.0176794
0.0164507
-0.0309403
0.0314681
0.0188977
0.018295
-0.0319414
0.032366
0.0191812
0.0189763
-0.032737
0.0330646
0.0189782
0.0189624
-0.0333488
0.0336003
0.018619
0.0186468
-0.03382
0.0340163
0.0183105
0.0182915
-0.03419
0.0343467
0.0181813
0.0180581
-0.0344895
0.0346215
0.0182694
0.0180367
-0.0347493
0.0348713
0.0184217
0.0181829
-0.0356651
0.0355949
0.0182559
0.0182268
-0.0371029
0.0372064
0.0173007
0.0177188
-0.0374362
0.0364657
0.0152659
0.0162374
-0.0358093
0.0342557
0.01062
0.0129755
0.00834743
0.00426417
-0.00485767
0.0312712
0.0321994
0.00526366
-0.0054871
0.0292512
0.0300735
0.0313894
-0.0313966
-0.0127603
-0.0110268
0.0320289
-0.0318182
-0.0156519
-0.0141466
0.0317376
-0.0320608
-0.0171841
-0.0162601
0.0323759
-0.0326768
-0.0178044
-0.0173896
0.0329562
-0.0332165
-0.0179208
-0.017694
0.0334489
-0.0336576
-0.0180086
-0.0177542
0.033839
-0.0339989
-0.0183099
-0.0179394
0.0341355
-0.0342523
-0.0188548
-0.0183677
0.0343458
-0.0344152
-0.0195965
-0.0190188
0.0344549
-0.0344606
-0.0204224
-0.0198229
0.0344266
-0.0343472
-0.0210532
-0.0205998
0.0342205
-0.0340447
-0.0209626
-0.0209544
0.0338277
-0.0335765
-0.0194347
-0.0202504
0.0333099
-0.0330406
-0.0158631
-0.0177785
0.0327901
-0.0325674
-0.0101883
-0.0131591
0.03239
-0.0322562
-0.00305802
-0.00669407
0.03217
-0.032089
0.00448705
0.000722986
0.0316532
-0.0317624
0.0114527
0.00800172
0.0322723
-0.0326935
0.0162512
0.014069
0.0184299
-0.0190738
-0.0320777
0.0330425
-0.0333659
0.0187533
0.0180324
-0.0160897
0.0161704
-0.025886
-0.0259605
-0.0154478
0.0165425
-0.0260175
-0.0174732
-0.0305281
-0.00557577
0.0283252
-0.0191764
-0.0336108
0.0194213
-0.0188995
-0.0323547
0.00110392
-0.00128595
0.0333632
0.00031034
0.0345777
0.0348021
-0.0344957
0.00525608
-0.0172584
0.017395
-0.0260226
-0.01652
-0.0266989
0.0348772
0.00292679
-0.0274615
-0.0262835
0.0258509
-0.0148249
0.0260911
-0.0266109
-0.0160001
-0.0156402
-0.0254475
0.0256596
-0.0117723
-0.0136268
-0.0253604
0.0257109
-0.00707273
-0.00970371
-0.0260234
0.0260443
-0.00111337
-0.0041297
-0.0259934
0.0263303
0.00491021
0.00191176
-0.0267907
0.0273508
0.0103073
0.00768081
-0.0279713
0.0286309
0.0144183
0.0124568
-0.0292933
0.0299454
0.0170273
0.0157883
-0.0305606
0.0311368
0.0183215
0.0176798
-0.0316589
0.0321335
0.0187067
0.0184541
-0.0325547
0.0329334
0.0185995
0.0185412
-0.033269
0.0335727
0.0183153
0.0183112
-0.0338453
0.034096
0.0180598
0.0180189
-0.0343258
0.034542
0.017965
0.0178282
-0.0347469
0.0349465
0.0180699
0.0178318
-0.0351415
0.0353366
0.0182267
0.0179878
-0.0355246
0.0357119
0.0180686
0.0180388
-0.0358808
0.0360458
0.0171357
0.0175499
-0.0361881
0.0363778
0.0150762
0.016095
-0.0359144
0.0355342
0.0110002
0.0134389
0.00938595
0.00151604
-0.00212122
0.0318764
0.0324295
0.00247348
-0.00289167
0.0296694
0.0304257
0.0284295
-0.0292408
-0.0089254
-0.0279591
-0.00480421
0.0271875
-0.00713926
0.0297904
-0.0301339
-0.0124168
-0.0104772
0.0304959
-0.0309552
-0.0151926
-0.0137846
0.0312661
-0.0316523
-0.0167978
-0.0159493
0.0320267
-0.0323918
-0.0174393
-0.0170152
0.0327334
-0.0330546
-0.0175996
-0.0173524
0.0333457
-0.0336129
-0.0177413
-0.0174631
0.0338525
-0.0340724
-0.01809
-0.0176999
0.0342706
-0.0344526
-0.0186727
-0.0181694
0.0346145
-0.0347577
-0.0194534
-0.0188569
0.0348757
-0.0349662
-0.0203319
-0.0197049
0.0350218
-0.0350376
-0.0210373
-0.0205442
0.0350085
-0.0349319
-0.0210392
-0.0209835
0.0348111
-0.0346516
-0.0195943
-0.0203712
0.0344679
-0.0342722
-0.0160588
-0.0179622
0.0340828
-0.033908
-0.0103631
-0.0133485
0.0337572
-0.0336305
-0.00318473
-0.00684485
0.0335251
-0.033432
0.00439393
0.00061757
0.0333479
-0.0331458
0.0112506
0.00791761
0.0330984
-0.0334686
0.0166215
0.0140217
0.0337507
-0.0343488
0.0193514
0.0183145
0.0200994
-0.020027
-0.0336832
0.0348758
-0.0347994
0.020023
0.0199483
-0.00306159
0.0284951
-0.0164043
0.0162242
-0.0265188
-0.0264085
-0.0166067
0.0175241
-0.0261466
-0.0189974
-0.0304302
-0.000220051
0.0354076
0.0201395
-0.0202461
-0.0346928
-0.0350941
0.0345163
0.0206008
-0.0352503
0.0202957
0.0170134
-0.0268118
-0.019927
-0.0324547
-0.0203998
-0.0335295
-0.0172861
0.0173072
-0.0265398
0.0272156
-0.0275699
-0.00444986
-0.00287125
0.0269972
0.0269393
-0.00259503
-0.0176044
-0.0260903
-0.0289347
-0.0263043
0.0263007
-0.0159965
0.0265912
-0.0282301
-0.0159655
-0.0163198
-0.0261486
0.0258629
-0.0145392
-0.0154882
-0.0257332
0.0256688
-0.0117078
-0.0134971
-0.0253717
0.0252057
-0.00690669
-0.00940664
-0.0251759
0.0252817
-0.00121918
-0.0040999
-0.025504
0.0258553
0.00455898
0.00168942
-0.0263242
0.0268962
0.00973533
0.00721183
-0.0275347
0.028219
0.013734
0.0118184
-0.0289115
0.0295983
0.0163404
0.0150958
-0.0302511
0.0308674
0.0177052
0.017027
-0.0314312
0.031949
0.0181888
0.0178904
-0.0324144
0.0328387
0.0181752
0.0180758
-0.0332205
0.0335718
0.017964
0.0179294
-0.0338929
0.0341943
0.0177584
0.0176978
-0.0344765
0.0347489
0.0176926
0.017546
-0.0350122
0.0352754
0.0178066
0.0175686
-0.0355362
0.0358028
0.01796
0.0177271
-0.0360669
0.0363318
0.0178038
0.0177747
-0.0365854
0.0368272
0.0168939
0.0172962
-0.0370458
0.0372391
0.0148829
0.0158765
-0.0374065
0.0367642
0.0116424
0.0132715
-0.0366725
0.0362296
0.00569899
0.00947762
-0.0359368
0.0361419
-0.000425068
0.00321957
-0.00197153
0.00154887
0.0337859
0.0025828
-0.00267646
0.0355013
0.035189
-0.000899612
0.000611607
0.0321644
0.0330788
-0.00051637
0.000458112
0.0297276
0.030521
-0.000589045
-0.000152306
0.0277385
0.0283642
0.0282183
-0.0288855
-0.0082582
-0.00649082
0.0292267
-0.0296046
-0.0120389
-0.0101361
0.0300053
-0.0304281
-0.0147698
-0.0133839
0.0308607
-0.0313014
-0.0163571
-0.0155166
0.0317312
-0.0321532
-0.0170174
-0.0165853
0.0325506
-0.0329273
-0.0172229
-0.016955
0.0332725
-0.0335943
-0.0174194
-0.0171179
0.0338888
-0.0341661
-0.0178127
-0.0174054
0.0344237
-0.0346694
-0.0184271
-0.0179118
0.0348985
-0.0351147
-0.0192372
-0.0186278
0.035311
-0.0354871
-0.0201558
-0.0195086
0.035634
-0.035748
-0.0209233
-0.0203973
0.0358206
-0.0358487
-0.0210111
-0.0209109
0.0358302
-0.0357685
-0.019656
-0.0203897
0.0356725
-0.0355529
-0.0161784
-0.0180581
0.0354241
-0.0352943
-0.0104928
-0.0134774
0.0351705
-0.0350499
-0.00330536
-0.00696867
0.034929
-0.0348005
0.00426541
0.000496654
0.0346648
-0.0345278
0.0111135
0.00778197
0.0343903
-0.0341465
0.0163777
0.0138842
0.034124
-0.034324
0.0195515
0.0182919
0.0201406
0.0201511
-0.0202599
-0.034584
-0.0353792
0.02028
-0.0029201
0.0363855
-0.0152486
0.0165572
-0.0273988
-0.0275811
-0.0158976
0.0183064
-0.0274396
-0.0193649
-0.0309923
0.0269718
-0.000184786
0.0179345
-0.0274391
-0.0204792
-0.0323753
0.0170818
-0.0270645
-0.0203812
-0.0334082
-0.0200175
-0.0352634
0.0199017
-0.0201586
-0.0344429
-0.0168542
0.0164826
-0.0270272
0.0371263
-0.0370704
-0.000481046
0.0364952
-0.00228893
-0.0174924
-0.0269429
-0.0299932
-0.0277057
0.0278266
-0.0160864
0.0278781
-0.0299601
-0.0154104
-0.0157252
-0.027173
0.026704
-0.0155275
-0.0156662
-0.0264429
0.0262777
-0.014374
-0.0152272
-0.0257359
0.0253089
-0.0112808
-0.0129553
-0.0250051
0.0248311
-0.00673273
-0.00910281
-0.0247975
0.0249031
-0.00132486
-0.00406624
-0.0251389
0.0255028
0.00419503
0.0014537
-0.0259808
0.026561
0.00915512
0.00673385
-0.0272097
0.0279083
0.0130355
0.0111696
-0.0286197
0.0293304
0.0156297
0.0143844
-0.0300111
0.0306591
0.0170573
0.0163462
-0.0312571
0.0318116
0.0176343
0.0172924
-0.0323152
0.0327795
0.0177109
0.0175722
-0.0332024
0.0335966
0.0175698
0.0175065
-0.0339616
0.0343093
0.0174107
0.0173328
-0.0346397
0.034964
0.0173683
0.0172157
-0.0352818
0.0356044
0.017484
0.0172508
-0.035928
0.036262
0.0176261
0.0174035
-0.0365967
0.0369358
0.0174647
0.01744
-0.0372653
0.0375833
0.016576
0.0169667
-0.0378764
0.0381413
0.014618
0.0155833
-0.0383675
0.0385538
0.0114561
0.0130453
-0.0386925
0.0379443
0.00644719
0.00933898
0.00409349
-0.00414848
0.00393742
0.0357124
0.00463188
0.0367411
-0.00487778
0.0368689
-0.00424157
0.00361383
0.0344136
0.0348848
-0.00366508
0.00370657
0.0321229
0.0330275
-0.00329308
0.00322428
0.0297964
0.0309344
-0.0028283
0.00253967
0.0280272
0.0287602
0.00260265
0.0269089
0.0268605
-0.0273445
-0.00396584
-0.0264283
0.0262119
3.16718e-05
-0.0021629
0.0280943
-0.028407
-0.00794545
-0.00574106
0.028761
-0.0291637
-0.0116362
-0.00978211
0.029594
-0.0300548
-0.014309
-0.0129535
0.030527
-0.0310124
-0.0158717
-0.0150444
0.0314902
-0.0319619
-0.0165456
-0.0161075
0.0324086
-0.0328347
-0.0167968
-0.0165083
0.0332287
-0.0336006
-0.0170475
-0.016724
0.0339462
-0.0342776
-0.0174813
-0.0170598
0.0345921
-0.0348989
-0.0181202
-0.0175973
0.0351934
-0.0354811
-0.0189494
-0.0183334
0.0357548
-0.0360162
-0.0198944
-0.0192349
0.0362548
-0.0364681
-0.02071
-0.0201587
0.0366442
-0.0367791
-0.0208762
-0.0207349
0.0368655
-0.0369044
-0.0196171
-0.0203032
0.0368987
-0.0368568
-0.0162203
-0.0180638
0.0367888
-0.0367023
-0.0105793
-0.0135454
0.0366025
-0.0364868
-0.00342108
-0.00706845
0.0363515
-0.0361902
0.00410408
0.000361334
0.0360047
-0.0357996
0.0109084
0.00759651
0.0355814
-0.0353596
0.0161559
0.0136661
0.0349786
-0.0348198
0.0193926
0.0179109
0.0349624
-0.0350365
0.0206749
0.0202832
0.0353537
-0.0354844
0.0204108
0.0206129
0.0200696
-0.0354722
-0.0198608
0.0359196
-0.0355325
0.0196825
0.0203368
-0.013964
0.0155815
-0.0285604
-0.0295596
-0.0143645
0.0191018
-0.0286069
-0.0197759
-0.0316956
-0.0196882
-0.0353213
0.019477
-0.0352782
-0.0198822
0.0181065
-0.0284638
-0.0204483
-0.0323082
0.0175511
-0.0281329
-0.0205536
-0.0330132
-0.00697841
0.00646467
0.0372548
0.0376415
-0.0375325
-0.00498675
0.0379327
-0.0072696
0.0164741
-0.0279198
-0.0201764
-0.0341273
-0.0140642
0.0146405
-0.0291367
0.0022246
0.0265899
-0.0138673
-0.0297565
-0.0306673
-0.0295975
0.0296358
-0.0154486
0.0299336
-0.0295043
-0.0142966
-0.0140284
-0.0287013
0.0282372
-0.0156223
-0.0147908
-0.0279098
0.0274891
-0.0151068
-0.0153388
-0.0267443
0.0260756
-0.0137053
-0.0144824
-0.0255113
0.0250635
-0.010833
-0.012391
-0.0247493
0.024572
-0.00655539
-0.00878866
-0.0245377
0.0246458
-0.00143295
-0.00403193
-0.0248885
0.0252606
0.00382299
0.00121094
-0.025745
0.0263303
0.00856984
0.0062494
-0.0269844
0.0276903
0.0123295
0.0105156
-0.0284125
0.0291383
0.0149039
0.0136623
-0.0298384
0.0305101
0.0163856
0.0156461
-0.031135
0.0317198
0.0170495
0.0166674
-0.0322557
0.0327546
0.017212
0.0170362
-0.0332135
0.0336456
0.0171378
0.0170477
-0.0340498
0.0344392
0.0170213
0.0169285
-0.0348131
0.0351845
0.0169969
0.0168417
-0.0355522
0.0359289
0.0171073
0.0168831
-0.0363103
0.0367056
0.0172308
0.0170221
-0.037105
0.0375116
0.017058
0.0170406
-0.0379102
0.038299
0.0161872
0.0165681
-0.0386609
0.0389929
0.0142859
0.0152215
-0.0392799
0.0395203
0.0112157
0.0127583
-0.039703
0.039344
0.00680613
0.00915633
-0.0391189
0.0380555
0.000582327
0.0043186
-0.00176595
-0.00681152
0.00667138
0.0358525
0.0365221
-0.00626464
0.00633465
0.0343436
0.0352916
-0.00636779
0.00637148
0.0321193
0.0329944
-0.00634828
0.00588599
0.0302587
0.0309576
-0.00532942
0.00543991
0.0279167
0.0293168
0.0259841
-0.0263137
0.000361319
0.0261337
0.00207496
-0.00473852
0.00443463
0.0268938
0.0276103
0.0268542
-0.0274624
-0.00335768
-0.00162243
0.0277145
-0.0280271
-0.0076328
-0.00548895
0.0283932
-0.0288121
-0.0112172
-0.00941605
0.0292651
-0.0297551
-0.013819
-0.0125006
0.0302612
-0.0307851
-0.0153478
-0.0145384
0.0313036
-0.0318179
-0.0160314
-0.015589
0.0323069
-0.0327761
-0.0163277
-0.0160193
0.0332132
-0.0336302
-0.0166305
-0.0162869
0.0340226
-0.0344042
-0.0170997
-0.0166674
0.0347717
-0.0351364
-0.0177555
-0.0172298
0.035493
-0.0358495
-0.018593
-0.0179768
0.036198
-0.0365426
-0.0195498
-0.0188864
0.0368714
-0.0371831
-0.0203983
-0.0198299
0.0374625
-0.0377049
-0.0206338
-0.0204555
0.0378971
-0.0380373
-0.0194769
-0.020111
0.038122
-0.0381569
-0.0161854
-0.0179791
0.038148
-0.0381023
-0.0106251
-0.0135543
0.0380236
-0.0379102
-0.00353447
-0.00714713
0.0377597
-0.0375653
0.00390973
0.000210806
0.0373308
-0.0370585
0.0106361
0.00736203
0.0367604
-0.0364416
0.0158371
0.0133679
0.036116
-0.0357888
0.0190654
0.0175853
0.0353063
-0.0350047
0.0203733
0.0198007
0.0347468
-0.0347029
0.0203669
0.020355
0.0347772
-0.0347017
0.019607
0.0204112
0.0191283
-0.0193003
-0.0351493
0.0347173
-0.0351441
0.0195552
0.0194925
-0.0146878
0.0146301
-0.0296988
-0.0298484
-0.0143436
-0.0347046
-0.0198739
0.0193981
-0.0195334
-0.035014
-0.0348927
0.0191466
0.0191508
-0.0296512
-0.020147
-0.031997
0.018557
-0.0294697
-0.0202948
-0.032567
-0.00966868
0.00944646
0.037477
-0.0100259
0.0382899
0.0174711
-0.0291299
-0.020332
-0.0328576
0.0164713
-0.0297506
-0.0204035
-0.033606
0.015565
-0.0300716
0.0260005
0.00456784
0.0156873
-0.030283
-0.0152527
0.0164292
-0.0304407
-0.0340367
-0.0202013
0.0190365
-0.0198627
-0.0341878
0.0186454
-0.0345015
-0.0155284
0.0157698
-0.0305244
-0.0300316
0.0301189
-0.0153401
0.0386004
-0.0383424
-0.00524469
0.0387246
-0.00739386
-0.0311333
-0.0144266
-0.0316635
-0.0298923
0.0305068
-0.0149111
-0.0141171
-0.0305635
0.0300197
-0.0149048
-0.0140851
-0.0298322
0.0290476
-0.0148377
-0.0146033
-0.0282434
0.0274366
-0.0142999
-0.0145346
-0.0266706
0.0259742
-0.0130089
-0.0137164
-0.0253868
0.0249224
-0.0103685
-0.0118036
-0.0245989
0.0244183
-0.00637473
-0.00846518
-0.0243841
0.0244943
-0.00154309
-0.00399782
-0.0247406
0.0251165
0.00344706
0.000964639
-0.0256036
0.0261902
0.00798325
0.00576232
-0.0268454
0.0275536
0.0116212
0.0098604
-0.0282806
0.0290149
0.0141697
0.0129353
-0.0297275
0.030416
0.0156971
0.0149334
-0.0310616
0.0316705
0.0164406
0.0160218
-0.0322333
0.0327616
0.0166837
0.0164734
-0.0332516
0.0337167
0.0166726
0.0165577
-0.0341555
0.0345816
0.0165952
0.0164898
-0.0349942
0.0354073
0.0165838
0.0164291
-0.0358195
0.0362441
0.0166827
0.0164708
-0.0366767
0.0371267
0.0167808
0.0165895
-0.0375834
0.0380504
0.016591
0.0165838
-0.0385107
0.0389629
0.015735
0.0161079
-0.0393869
0.0397799
0.0138929
0.0147975
-0.040123
0.0404145
0.0109243
0.0124151
-0.04064
0.0405311
0.006915
0.00893083
-0.0403101
0.0395066
0.00138575
0.00453965
-0.00060173
-0.00890862
0.00875523
0.0360059
0.0370599
-0.00886322
0.00892551
0.0342813
0.0351836
-0.00893433
0.00889766
0.0321559
0.0329856
-0.00882228
0.00870317
0.0303778
0.031033
-0.0085384
0.00779754
0.0286575
0.0294815
-0.00758257
0.00715098
0.0273254
0.0278252
-0.0342656
0.0339167
0.0189943
0.0187741
-0.0193378
-0.0339378
-0.0338995
0.018408
0.00643375
0.0267178
0.0260957
-0.0264069
0.000672518
-0.0258254
0.0260443
0.00434896
0.00234523
0.0270339
-0.027199
-0.00319257
-0.000995424
0.0274354
-0.0277474
-0.00732079
-0.0052526
0.0281178
-0.0285469
-0.0107881
-0.00904562
0.0290162
-0.0295287
-0.0133065
-0.0120313
0.0300622
-0.0306179
-0.0147921
-0.014005
0.0311702
-0.0317198
-0.0154818
-0.0150367
0.0322442
-0.0327498
-0.0158221
-0.0154948
0.0332241
-0.0336808
-0.0161738
-0.0158125
0.0341152
-0.0345425
-0.0166724
-0.016233
0.0349589
-0.0353772
-0.0173372
-0.0168134
0.0357919
-0.0362129
-0.0181719
-0.0175622
0.0366323
-0.0370562
-0.019126
-0.018467
0.0374716
-0.0378788
-0.0199912
-0.0194144
0.0382592
-0.0386073
-0.0202856
-0.020075
0.0389042
-0.0391447
-0.0192364
-0.0198142
0.0393185
-0.0394282
-0.0160757
-0.0178053
0.0394753
-0.0394665
-0.0106339
-0.0135071
0.0394051
-0.0392907
-0.00364883
-0.00720849
0.039122
-0.0388945
0.00368217
4.21173e-05
0.0386111
-0.0382745
0.0102996
0.00707858
0.037899
-0.0374919
0.0154301
0.0129924
0.0370708
-0.0366424
0.0186371
0.0171641
0.036226
-0.0358258
0.0199731
0.0193844
0.0354508
-0.0351056
0.0200217
0.0199799
0.0344022
-0.0344162
0.0196209
0.0197078
0.0342906
-0.0340756
0.0193402
0.019367
0.0189877
0.0196652
-0.0307594
-0.0200181
-0.0322737
-0.0101682
0.0388669
0.018625
-0.0306236
-0.0201654
-0.0327336
0.0175718
-0.0302304
-0.0202488
-0.0330123
0.0171046
-0.0312902
-0.0203217
-0.0331581
0.0172322
-0.0308747
0.0166409
-0.0313118
0.0157911
-0.0318354
-0.015089
0.0167564
-0.0314897
-0.0334738
-0.0204257
-0.0200929
-0.0334327
-0.0188509
0.0185862
-0.0336348
-0.0195269
-0.0332618
0.00621191
0.0262661
-0.0154835
0.0156805
-0.0320324
-0.0319441
0.0300208
-0.0131657
0.025914
-0.0260502
0.00448515
0.0263223
0.00580356
-0.0326653
-0.0147623
-0.0320163
-0.0309311
0.0301088
-0.0145178
-0.0153369
-0.0312371
0.0305947
-0.0142687
-0.0152454
-0.0309422
0.0302434
-0.014206
-0.0144326
-0.0298668
0.0290872
-0.0140581
-0.0142268
-0.0282811
0.0274646
-0.0134834
-0.0137285
-0.0266829
0.0259667
-0.0122927
-0.0129348
-0.0253596
0.0248792
-0.00988806
-0.0111966
-0.0245453
0.0243594
-0.00618889
-0.00813129
-0.0243239
0.0244343
-0.00165348
-0.00396228
-0.0246814
0.0250576
0.00307082
0.000717536
-0.0255435
0.0261276
0.00739921
0.00527637
-0.0267798
0.027486
0.010915
0.00920816
-0.0282131
0.0289506
0.0134321
0.0122083
-0.0296704
0.0303703
0.0149973
0.0142136
-0.0310312
0.0316591
0.0158127
0.015361
-0.0322438
0.0327968
0.0161307
0.0158887
-0.0333133
0.033807
0.0161789
0.0160413
-0.0342757
0.0347338
0.0161371
0.0160211
-0.0351801
0.0356294
0.0161345
0.0159828
-0.0360802
0.0365463
0.0162166
0.0160201
-0.0370229
0.03752
0.0162838
0.0161128
-0.0380261
0.0385452
0.0160719
0.0160777
-0.0390588
0.0395659
0.0152278
0.0155943
-0.040044
0.0404904
0.0134466
0.0143194
-0.0408831
0.0412201
0.0105874
0.0120224
-0.0414825
0.0416726
0.00672491
0.00866838
-0.0417766
0.0410267
0.00213563
0.00443568