/*--------------------------------*- C++ -*----------------------------------*\
  =========                 |
  \\      /  F ield         | OpenFOAM: The Open Source CFD Toolbox
   \\    /   O peration     | Website:  https://openfoam.org
    \\  /    A nd           | Version:  10
     \\/     M anipulation  |
\*---------------------------------------------------------------------------*/
FoamFile
{
    format      ascii;
    class       surfaceScalarField;
    location    "12.5";
    object      phi;
}
// * * * * * * * * * * * * * * * * * * * * * * * * * * * * * * * * * * * * * //

dimensions      [0 3 -1 0 0 0 0];

internalField   nonuniform List<scalar> 
57492
(
-0.0278969
0.000888968
0.006088
0.02092
0.0122407
-0.0203813
-0.0197563
-0.0027362
0.00876828
0.0270076
-0.0330397
0.099041
0.0723014
-0.0164277
-0.154915
-0.209898
0.0849549
0.223984
0.0523419
-0.0514417
-0.0268328
0.0259326
-0.0958396
0.0233484
-0.0140702
0.0865614
0.0169124
-0.0604101
0.030671
-0.0996967
0.0948171
-0.0257915
0.0265918
0.0914128
-0.0873336
0.00676792
0.0086831
-0.028788
0.013337
0.0110575
0.0164008
-0.0206904
0.00975374
-0.00446209
0.0057659
0.000444362
0.0179925
0.109403
-0.0921219
-0.0408235
0.0235427
0.00199452
0.0826357
0.0247724
-0.00840274
0.0191709
0.0888133
-0.0995815
-0.0181547
0.0878973
-0.0781453
0.0124586
-0.0270655
0.0146069
-0.0793265
0.0527017
0.0390834
-0.121487
0.0123119
0.0887413
0.020434
0.0237853
-0.122556
-0.0227161
0.0152031
-0.00353964
0.000315885
-0.0119793
0.00570933
0.00679801
0.00269574
-0.100562
0.110088
0.0075282
-0.0170537
-0.147115
0.077528
-0.0309755
-0.0492877
0.0143263
0.0276014
0.00736002
-0.0363473
-0.0155429
0.00260249
-0.0236749
-0.063353
0.079486
0.00754185
-0.0291638
0.0101038
-0.0046149
0.0655882
-0.0415048
-0.040354
0.0162705
-0.0519901
0.0429839
0.0745944
-0.0781258
-0.135986
0.0800054
0.134107
-0.13534
-0.0439167
0.101131
-0.0709368
-0.0101448
0.0810816
-0.018058
-0.0528788
-0.0918229
0.109787
-0.0360222
0.0181232
-0.0632242
-0.046722
-0.0498546
0.073203
-0.0347556
-0.113121
0.054919
0.0582023
-0.204456
0.0913342
0.109436
0.0190289
-0.029516
-0.0989492
0.0783173
-0.0400859
0.0712049
0.0193372
0.118655
-0.118963
0.09443
0.0149519
-0.0924696
0.0922233
-0.0118635
0.102525
-0.0356715
-0.0751135
0.00825976
0.115789
0.0016884
0.0780749
-0.0430031
0.0571515
0.0276571
0.136979
-0.104066
-0.0119819
0.0101011
0.105946
-0.107337
-0.00452177
0.00779316
0.02127
0.0966585
-0.0952787
-0.0226499
0.0141796
-0.0926062
-0.0595917
0.109835
0.0898414
-0.140085
0.0210755
0.119425
-0.200093
-0.0074621
-0.011234
0.00296519
0.0157309
-0.00101554
-0.0109086
0.0102944
0.00347678
-0.0147867
-0.00503981
0.00410026
0.0117407
-0.00877552
8.46184e-05
0.0116561
0.227949
0.0873781
-0.154994
-0.160334
0.0797084
-0.0566339
0.204875
-0.197571
0.0758339
0.201446
0.0404351
-0.150628
0.0222481
-0.0776703
0.0635313
-0.00810911
0.06791
-0.0787299
0.033068
0.00481133
-0.00475624
0.000833881
0.00809196
0.00280737
0.0222424
0.0067695
-0.0857961
0.152834
0.0606741
-0.127712
0.0848504
-0.102737
0.0423094
0.137897
-0.0273723
0.377715
-0.0567331
-0.0822681
-0.238713
0.0667969
0.204025
0.106893
0.0377965
-0.153827
0.182827
0.00545159
-0.00818779
0.0142199
0.0473862
0.0792047
-0.0366789
-0.089912
0.0658789
0.00851489
0.0227498
-0.00897769
-0.0137721
0.0245879
-0.00183804
-0.208651
0.0960689
-0.0772831
0.189865
-0.175506
-0.103936
0.0707911
-0.100294
0.101343
-0.176555
0.121241
-0.00238169
-0.059962
-0.0588971
-0.0537895
0.135418
0.0396123
-0.0668681
-0.00803424
0.0211128
-0.0588104
-0.0104394
-0.0226763
-0.096096
-0.0696417
0.00873019
0.0329502
0.0279613
0.0202508
-0.0315187
-0.0583739
0.0451788
0.0179726
-0.0429006
0.0472362
0.00667278
0.0730578
0.00712861
-0.0618557
0.0391794
0.00746234
-0.0693181
0.0113476
0.0132402
0.117917
0.0764392
-0.00868821
0.0421875
-0.134169
-0.0154678
0.0957437
-0.0672343
-0.0130416
-0.0230494
0.100905
-0.0933237
0.0746184
0.0513738
-0.0209604
-0.105032
-0.017552
0.0035613
0.0886091
0.101071
-0.0672489
-0.0347732
-0.0738507
0.0218002
0.0868236
-0.035484
0.0859823
-0.0852715
0.00271133
-0.112046
0.0215814
0.0218932
0.000132534
0.00887714
0.00429329
-0.000929733
-0.00957745
-0.0032665
0.0217211
-0.0279689
-0.00198987
-0.0133718
0.0317358
0.00677434
-0.0251383
0.0559357
-0.0624579
-0.00684969
-0.034116
0.066576
0.0234758
-0.0180739
0.0156937
-0.180558
0.0929639
0.183663
0.189029
-0.070701
-0.222264
-0.0879577
0.0964292
-0.00572123
-0.0474664
-0.0101653
-0.0354685
0.000583507
-0.00520918
-0.0193775
0.0164341
0.00815254
-0.0114593
-0.00129616
0.0075463
-0.00904557
-0.0217913
-0.0154059
-0.0239155
0.00385293
-0.0402438
-0.0226285
-0.0482417
-0.050844
0.0617309
0.0373548
0.00337373
0.0218601
-0.0734755
-0.0679189
0.0204487
-0.109703
0.0372243
-0.00684776
-0.102824
0.00354474
-0.0104238
-0.00507725
-0.085879
0.0790866
0.0118697
-0.000341582
-0.0889574
0.0842217
-0.00957138
-0.280763
-0.0681016
0.0805595
0.0746237
-0.105501
0.117692
-0.0180496
-0.0415608
0.0595334
-0.0375056
-0.00405519
0.0209095
-0.0044546
0.124223
-0.0792757
-0.0800966
0.0351489
0.114937
0.0286241
0.135212
0.0255215
-0.139658
0.0661
0.105388
-0.0362764
0.0285302
-0.0702267
0.107797
-0.00463678
-0.0328688
0.0388509
-0.127485
-0.120341
0.0831068
0.153655
0.064928
-0.00395333
-0.0676587
0.006684
0.0201998
-0.0072619
-0.0826896
0.0145171
0.111156
0.010473
-0.0729628
-0.0117635
0.00197091
0.0378645
0.0221711
-0.0528836
-0.00715199
0.0140281
-0.00295882
0.0267953
0.045592
0.0781476
-0.109712
-0.0850457
0.132434
-0.0360412
0.20157
-0.196342
-0.0902737
-0.00379741
-0.102484
0.120799
-0.191289
-0.0124594
-0.143893
-0.0725184
0.0251219
0.0817917
0.0687365
-0.138216
0.0544265
0.128926
-0.101561
0.0518479
-0.0843701
0.0481822
-0.01566
0.0558757
-0.0809455
0.0769178
0.118773
0.0387043
0.106195
-0.00671341
-0.106264
0.00678229
0.11651
-0.015591
0.00527676
0.121127
-0.0176511
-9.4474e-05
-0.103382
0.0863953
-0.0281365
0.0628687
0.103907
-0.0250301
0.0188574
-0.0977342
0.0213038
0.105971
-0.0233684
-0.0948643
-0.0318434
0.101678
0.0173792
-0.0904432
-0.0337644
0.0887446
-0.0458894
-0.0817637
0.039538
0.088115
-0.0482852
-0.0835644
0.0859602
0.0449981
0.0801912
-0.0268504
-0.0983389
0.0791207
-0.0824078
-0.0519988
0.0514318
0.0796877
-0.0416292
0.0698217
-0.10466
0.0929493
-0.0151395
-0.136093
0.0131802
0.139068
-0.0161549
0.0371066
-0.0589495
0.102478
-0.0985049
0.0549761
-0.0431489
0.117773
-0.133574
0.00080143
-0.000473228
-0.0282971
-0.0664103
-0.0955855
0.0578269
-0.00621798
0.00325916
-3.29782e-05
-0.00618501
-0.0129664
-0.112108
0.0820716
-0.0930283
-0.0112068
0.0912687
0.00818298
-0.0972731
-0.0039382
-0.0639995
0.0333904
0.0618504
-0.0312413
0.074729
-0.0645896
-0.0741389
0.000541509
0.107578
-0.00138126
0.00627368
0.0170008
0.0104074
-0.0117886
0.016681
0.000668543
0.00348633
-0.00919468
0.00118893
-0.000520389
0.00467526
0.00471499
0.00068498
0.000309358
-0.00394045
0.00865544
-0.00325547
0.0109363
-0.0017821
-0.0272281
-0.00477378
0.0157101
-0.00655587
0.0258532
0.0745463
-0.0968382
0.0374267
-0.103577
0.0920038
0.103443
0.00852993
-0.0364436
-0.0614834
0.0364016
0.0615253
-0.0121248
0.0631179
-0.0874367
0.0116036
-0.0852117
0.0880406
-0.0877797
0.0709314
-0.0711923
0.0883819
0.0732254
-0.0735667
0.0691857
-0.0868575
-0.0701079
0.0898284
0.0720127
-0.0734591
0.0923477
0.0727773
-0.0752967
0.0713127
0.0952039
-0.0741688
0.0936996
-0.0922464
0.0698595
0.0651268
0.100854
-0.0707771
0.0907378
0.0680886
-0.0879252
0.0684561
-0.085963
0.0700506
-0.0842125
0.0714748
-0.0849367
0.0716556
-0.0817538
0.0660028
0.0656533
0.105169
-0.0699682
0.0863937
0.0699974
0.0663496
-0.084886
-0.0683211
-0.0801333
0.0647292
0.0609233
-0.0899672
-0.0558422
0.0701002
0.105304
-0.0702347
0.0869472
0.0695467
-0.0816985
0.0624885
0.104612
0.0706369
-0.0699453
0.0709442
0.104439
-0.0707709
0.0870104
0.0705737
0.0874142
0.0705404
0.0540284
-0.0879509
-0.0560447
-0.0809642
0.0532941
0.0717134
0.103483
-0.0707575
0.0873419
0.0717856
0.046263
-0.0866224
-0.0475915
-0.0791556
0.0444544
0.0718591
0.103134
-0.0715107
0.0876884
0.0715126
0.0358331
-0.0855284
-0.0369271
-0.0778514
0.0345289
0.0719491
0.102005
-0.0708195
0.0876166
0.0720209
0.024001
-0.0843746
-0.0251548
-0.0766387
0.0227884
0.070717
0.10152
-0.0702323
0.0880517
0.0702818
0.0111875
-0.083483
-0.0120791
-0.0758997
0.0104485
0.0687031
0.100251
-0.0674338
0.0881183
0.0686365
-0.00185738
-0.0830534
0.00142778
-0.0753218
-0.00243531
0.0648513
0.0995351
-0.0641357
0.0888049
0.0641646
-0.0148018
-0.0803243
0.0120727
-0.0740422
-0.0160814
0.0598592
0.0979598
-0.0582839
0.0882754
0.0603888
-0.0278595
-0.080327
0.0278623
-0.0741032
-0.0277984
0.0529805
0.0965309
-0.0515516
0.0876405
0.0536155
-0.0393089
-0.0782402
0.037222
-0.0731141
-0.040298
0.0482186
0.0908543
-0.042542
0.0903826
0.0454765
-0.0497549
-0.0785783
0.050093
-0.0739459
-0.0489231
0.0372621
0.0847644
-0.0311722
0.0918013
0.0358434
-0.0581391
0.0582057
-0.0786449
-0.075723
-0.056362
0.0216861
-0.0208953
0.0839736
0.0914461
0.0220412
-0.084435
0.0858881
0.0486399
-0.0841159
0.0578866
-0.0639335
0.0655157
-0.0802271
-0.0636358
-0.0760207
-0.0848879
0.0853208
0.0274294
0.0382222
-0.0826322
0.0828772
0.00118284
0.0147612
-0.0831967
0.0835245
-0.0254827
-0.0123986
-0.0838322
0.0841035
-0.0478627
-0.0372348
-0.0843301
0.0918294
-0.0633416
-0.0562713
-0.0914884
0.0909945
-0.069614
-0.06798
-0.0941099
0.0938135
-0.0732702
-0.0743077
-0.0899682
0.0881341
-0.0734627
-0.0696139
-0.0861088
0.0857795
-0.0704478
-0.0721435
-0.0853097
0.0847556
-0.0696806
-0.0694985
-0.0840598
0.0832187
-0.0699298
-0.0692495
-0.0822534
0.0811916
-0.0704488
-0.0697922
-0.080091
0.0789868
-0.069128
-0.0697189
-0.077949
0.0769816
-0.0631684
-0.066396
-0.0761147
0.0753798
-0.0508168
-0.057417
-0.0750358
0.0758173
-0.0319537
-0.0421979
0.075369
-0.0204469
0.00777763
-0.00687425
0.0830702
0.00815481
0.0910689
0.0978775
-0.0953594
0.0429584
-0.0989989
0.098773
0.0222672
0.034722
0.0947188
-0.092869
0.058539
0.0529749
0.0921461
-0.0914312
0.0679217
0.0634417
0.0907528
-0.0900991
0.0713673
0.0696034
0.0894802
-0.0888545
0.0711598
0.0708938
0.0882065
-0.087493
0.0698602
0.0698925
0.0866999
-0.0857341
0.0690316
0.0687536
0.0860332
-0.0851575
0.0689839
0.0683877
0.0852469
-0.0828325
0.0676361
0.0685455
0.0802939
-0.0774403
0.068802
0.0689363
0.0762372
-0.0749129
0.0634048
0.0647997
0.0699437
-0.0679541
0.0513045
0.0575194
0.066231
-0.064844
0.0331419
0.0427312
0.0638913
-0.0633639
0.00992102
0.0218357
0.0633146
-0.064413
-0.0149829
-0.00248463
0.0654185
-0.0679647
-0.0377518
-0.026793
0.0700143
-0.0710097
-0.0553666
-0.0468735
-0.0736878
-0.0609577
-0.0838136
0.0652134
0.0760131
-0.00751837
0.00824343
0.0986843
-0.0676144
0.0694429
-0.0778491
-0.0653479
-0.0759543
-0.0703411
0.0699049
-0.0833774
-0.0811254
-0.0897528
0.0892062
0.0491865
0.089398
-0.0888841
0.0646995
0.0575318
-0.0889068
0.089422
0.0269142
0.0385216
-0.0897367
0.0900141
0.000905418
0.0144465
-0.0901725
0.0901914
-0.0255015
-0.012557
-0.0900834
0.089877
-0.0476563
-0.0371268
-0.0896474
0.0894371
-0.0631313
-0.0560417
-0.0891585
0.0906942
-0.0711497
-0.0677014
-0.0886715
0.0883782
-0.072977
-0.072285
-0.0908174
0.0889006
-0.0715459
-0.072053
-0.086909
0.0861645
-0.0697033
-0.0701519
-0.0853074
0.0843217
-0.0686949
-0.0686414
-0.0831988
0.0819152
-0.0686463
-0.0681266
-0.0804946
0.0789519
-0.0689062
-0.0683715
-0.0773511
0.075723
-0.0675
-0.0681181
-0.0741536
0.0726652
-0.0616799
-0.0648265
-0.0713305
0.0702515
-0.0497377
-0.0560823
-0.0693144
0.0688758
-0.0315152
-0.0412608
0.0051804
-0.00579172
0.0836815
0.0043934
0.0768001
-0.0684967
0.0695677
-0.00858937
-0.0200678
0.104897
-0.104694
0.0220641
0.103958
0.00918306
0.00504479
-0.00367488
0.0973144
0.090322
0.104068
-0.101815
0.0407055
0.0340957
0.0993108
-0.0980706
0.0572988
0.0504706
0.0968022
-0.0955222
0.0666417
0.0621733
0.0942798
-0.0930798
0.0701673
0.0683609
0.0919381
-0.0908187
0.0700404
0.0697521
0.0897148
-0.0885667
0.0687121
0.0687886
0.0873578
-0.0860335
0.0677073
0.0675447
0.0845512
-0.0829063
0.0673389
0.0669054
0.0810821
-0.0805278
0.0670818
0.0667214
0.0776651
-0.0742949
0.0654318
0.0660735
0.0724136
-0.0691869
0.0601781
0.0629184
0.0666488
-0.0643678
0.0490235
0.0549813
0.0623882
-0.0608086
0.0315623
0.0407517
0.0597284
-0.0591674
0.00935997
0.0207555
0.059145
-0.0596927
-0.0144352
-0.00250697
0.0607883
-0.0623867
-0.0361534
-0.0256975
0.0643511
-0.0670447
-0.0526731
-0.044909
0.0694447
-0.0719422
-0.0628504
-0.0585577
-0.0880122
0.069033
-0.0693311
0.0702395
-0.0768627
-0.0746001
-0.0666732
0.0700585
-0.0776681
0.00418862
0.0697725
0.103638
-0.00335518
0.074017
-0.072475
-0.0849194
0.0731399
-0.087135
-0.0708642
0.0719511
-0.0779497
-0.069113
-0.0763513
-0.0835419
0.0641085
-0.0637639
-0.00893396
0.0643
0.00399709
-0.0161441
0.0173622
0.0960963
-0.0157029
0.103197
-0.0910279
0.0934995
0.0706683
0.0748227
-0.0754074
-0.0865503
0.0887232
-0.0823261
0.0736733
-0.0800704
0.072518
-0.0948674
0.0958134
0.0637536
0.0676651
-0.0959602
0.0962374
0.0489094
0.0573849
-0.0966327
0.0966004
0.0269465
0.0381264
-0.0969875
0.0971548
0.000738083
0.0140594
-0.0971096
0.0968509
-0.0252427
-0.0125118
-0.096378
0.0957224
-0.0470008
-0.0366539
-0.0949456
0.0941216
-0.0623074
-0.0552648
-0.0932833
0.0924497
-0.0703161
-0.0668631
-0.0916002
0.0907278
-0.0721045
-0.0714356
-0.0898237
0.0888612
-0.0705834
-0.0711489
-0.0878031
0.0866362
-0.0685364
-0.0690938
-0.0853694
0.0839711
-0.0672965
-0.0673746
-0.0824479
0.0807636
-0.0669619
-0.0666035
-0.0789311
0.0769507
-0.0669258
-0.0665391
-0.0748939
0.0728034
-0.0654095
-0.0660613
-0.0707821
0.0688674
-0.0597652
-0.0628052
-0.0671354
0.0656387
-0.048241
-0.0543504
-0.0644788
0.0634651
-0.0305015
-0.0401009
-0.0203666
0.0184352
-0.0180624
0.0833087
-0.0180895
0.01652
0.071342
0.0771458
0.0896218
0.111252
-0.110374
0.0211866
-0.111169
0.109982
-0.00216822
0.00926625
0.107597
-0.107098
0.0402071
0.0313179
0.104754
-0.103065
0.0556094
0.0481268
0.101323
-0.0995297
0.0648487
0.0604311
0.0977692
-0.0960547
0.0684528
0.0666005
0.0944111
-0.0928202
0.0684495
0.0681085
0.09128
-0.0897263
0.0671584
0.0672484
0.088143
-0.0864577
0.066022
0.0659614
0.0846515
-0.0826693
0.0653568
0.0650992
0.0805266
-0.0781456
0.0647008
0.0645787
0.0755626
-0.0727976
0.0626668
0.0634905
0.0699611
-0.0670257
0.0572428
0.0600819
0.0642385
-0.0616756
0.0464606
0.052194
0.059484
-0.0577527
0.029831
0.0385601
0.0565685
-0.0559777
0.0087692
0.0195713
0.0559901
-0.0566666
-0.0137587
-0.00249454
0.0579439
-0.0597418
-0.0343555
-0.0244202
0.0619491
-0.0644702
-0.050152
-0.0427017
0.0672366
-0.0694513
-0.0606357
-0.0557913
0.0723496
-0.0762135
-0.0652491
-0.0637749
-0.0688918
0.0717897
-0.0792492
-0.0784505
-0.0666548
-0.0736005
-0.0867263
0.0735165
-0.0792334
0.0157596
0.0650604
0.109339
-0.0150605
-0.0735143
-0.0953622
0.0726502
-0.0788102
-0.0590754
-0.0844102
0.144027
0.0692914
-0.067453
-0.0802888
0.0707519
-0.0807098
-0.0698635
0.100407
0.0770345
-0.0715159
0.0635028
-0.0836259
-0.0912577
0.0946081
0.070323
0.0731059
-0.0639567
-0.0965736
0.0982992
0.0689426
0.0705525
-0.099329
0.100281
0.0628012
0.0666354
-0.101519
0.10243
0.0479981
0.0561477
-0.102887
0.10356
0.0262732
0.0376692
-0.103903
0.104003
0.000638097
0.013717
-0.103815
0.103298
-0.0247258
-0.0123239
-0.102457
0.101341
-0.0458841
-0.0358135
-0.100055
0.0986767
-0.060929
-0.0539792
-0.097275
0.0958679
-0.068909
-0.0654614
-0.0944767
0.0930796
-0.0707074
-0.0700444
-0.0916854
0.0902586
-0.0691566
-0.0697548
-0.0887914
0.0872415
-0.0669865
-0.0676266
-0.0856109
0.0838604
-0.0655461
-0.0657439
-0.0819894
0.079949
-0.0649215
-0.0647325
-0.0777544
0.0753928
-0.0645641
-0.0643445
-0.072936
0.0704182
-0.0628916
-0.0636046
-0.0679704
0.0656432
-0.057438
-0.0603575
-0.0635554
0.0617433
-0.0464289
-0.0522626
-0.0601312
0.0594746
-0.0298449
-0.0384888
-0.0586446
0.0586257
-0.00891507
-0.0195367
-0.0596902
0.0613995
0.0140504
0.00293261
0.0287998
-0.0294981
0.0720403
-0.0277042
0.0255605
0.0635432
0.066156
0.0303445
-0.0295129
0.0824771
0.0779922
0.0293269
-0.029
0.0957694
0.0894358
0.0283245
-0.0277048
0.10872
0.102521
0.117423
-0.117418
-0.00217301
-0.118122
0.114159
-0.0237417
-0.0157603
0.11687
-0.115817
0.0201338
0.00871817
0.113316
-0.111662
0.0385526
0.0288173
0.109806
-0.107727
0.0535306
0.0462707
0.105554
-0.103305
0.0625989
0.0582586
0.101095
-0.0989167
0.0662747
0.0643907
0.0968348
-0.0948209
0.0664355
0.0660267
0.0928842
-0.0909629
0.0652372
0.0653116
0.0890394
-0.087035
0.0640175
0.0640379
0.084938
-0.0826778
0.0630965
0.0630023
0.0802573
-0.077615
0.0620585
0.0621582
0.0747949
-0.0717957
0.0596677
0.0606705
0.0687122
-0.0655856
0.0541162
0.0569983
0.0626203
-0.0598804
0.0437207
0.0492287
0.0575424
-0.0556953
0.0279839
0.0362221
0.0544398
-0.0538348
0.00816416
0.0183158
0.0538958
-0.0546671
-0.0129874
-0.0024335
0.0560802
-0.0580671
-0.0323685
-0.0230071
0.0604852
-0.0631926
-0.0474447
-0.0402836
0.0660505
-0.0689833
-0.0577029
-0.0529334
0.0720696
-0.0743426
-0.0629762
-0.0606886
0.0781589
-0.0807286
-0.0648833
-0.0628385
-0.067516
0.0699681
-0.082741
-0.0824876
-0.065757
-0.0738346
-0.0864059
0.0740876
-0.0806708
-0.0698418
-0.0845958
0.0726519
-0.0807101
0.0563476
-0.0555818
0.0132846
0.0584347
0.0234733
-0.0370436
0.0384715
0.107292
-0.0357801
0.112896
-0.0690893
-0.0799106
0.0711363
-0.0818779
-0.112589
0.00983134
-0.0866581
0.0935224
0.0701702
-0.0688487
0.0700009
-0.0838932
-0.0659485
-0.0853878
-0.0833615
0.0602062
-0.083373
-0.0955475
0.0972154
0.068655
0.0710809
-0.0990831
0.100265
0.0677611
0.0686848
-0.102135
0.104281
0.0606546
0.0647653
-0.106163
0.107761
0.0464002
0.0542658
-0.108973
0.109802
0.0254441
0.0364577
-0.110261
0.110366
0.000533419
0.0132571
-0.110045
0.109271
-0.0239522
-0.0120027
-0.108095
0.106586
-0.0443755
-0.0346366
-0.104861
0.102997
-0.0590648
-0.0522545
-0.101091
0.0991676
-0.0669852
-0.0635558
-0.0972702
0.0953876
-0.0688249
-0.068147
-0.0935384
0.0916838
-0.0673019
-0.0679056
-0.0898261
0.0879151
-0.0650756
-0.0657689
-0.0859447
0.0838634
-0.0634648
-0.0637735
-0.0816742
0.0793227
-0.0625699
-0.0625433
-0.0768228
0.0741496
-0.0618909
-0.0618446
-0.0713759
0.0685337
-0.0600495
-0.0608309
-0.0657516
0.0630873
-0.0547737
-0.0575754
-0.0606795
0.0585452
-0.0442945
-0.0498548
-0.0567864
0.0555578
-0.0286163
-0.03673
-0.0550696
0.0547679
-0.00861331
-0.0190485
0.0021187
0.039102
-0.0403697
0.0733079
-0.0367339
0.0361136
0.0641635
0.0685241
0.0390791
-0.0395142
0.0829122
0.0767017
0.0389025
-0.0385923
0.0954592
0.0888241
0.1024
0.123149
-0.123045
-0.00227657
-0.121023
0.119865
-0.0225836
-0.0136352
0.12225
-0.11983
0.0177137
0.00792354
0.118397
-0.116535
0.0366905
0.0273838
0.114379
-0.111968
0.0511201
0.0441147
0.109411
-0.10677
0.0599577
0.0557016
0.104167
-0.10159
0.0636972
0.0617879
0.099136
-0.0967602
0.0640598
0.0635729
0.0944847
-0.0922421
0.0629946
0.0630361
0.0900221
-0.0877409
0.0617364
0.0618179
0.0853935
-0.0828993
0.0606022
0.0606549
0.0802611
-0.0774222
0.0592196
0.05952
0.074433
-0.0712801
0.0565147
0.0576813
0.0680614
-0.0648326
0.0508874
0.0537797
0.0617702
-0.0589392
0.0408897
0.0461663
0.0565282
-0.0546209
0.0260766
0.0338111
0.05334
-0.0527424
0.0075665
0.017035
0.0528482
-0.0536784
-0.0121571
-0.00232771
0.0551716
-0.0572492
-0.030291
-0.0215139
0.0597399
-0.0625029
-0.0446817
-0.0377929
0.0653925
-0.0683761
-0.0547193
-0.0500437
0.0714465
-0.0745459
-0.0598768
-0.0576182
0.0766046
-0.079666
-0.0618219
-0.0607798
0.0830722
-0.0855309
-0.0634898
-0.0623508
-0.0677077
0.0692951
-0.0869753
-0.0887118
-0.0645268
-0.0729039
-0.0833438
0.0736942
-0.0817131
0.0343223
0.0602261
0.117669
-0.0335835
-0.0714654
-0.0822196
-0.081476
-0.105251
-0.0740517
-0.0873349
0.0724382
-0.0820121
0.0716618
-0.0835388
-0.117321
0.0437904
-0.0674202
0.0516125
-0.101513
-0.0756312
-0.0970403
0.0709483
-0.0855463
-0.0693672
0.0707682
-0.0883763
-0.066364
-0.091715
-0.0825827
-0.0865195
0.0915642
0.0651256
0.0868293
-0.0961383
0.0530994
0.0605159
-0.0951851
0.0971653
0.0666748
0.06746
-0.0999856
0.102942
0.064805
0.0658645
-0.105736
0.108338
0.0580517
0.0619715
-0.110688
0.112682
0.0444056
0.0519167
-0.114241
0.115346
0.0243392
0.0348987
-0.11596
0.116059
0.0004342
0.0126434
-0.115613
0.114631
-0.02297
-0.011557
-0.113177
0.111325
-0.0425236
-0.0331825
-0.109207
0.106916
-0.0567732
-0.0501366
-0.104566
0.102193
-0.0646125
-0.0612062
-0.099859
0.0975524
-0.0665183
-0.0658127
-0.0953029
0.0930754
-0.0650744
-0.065656
-0.0908757
0.0886469
-0.0628468
-0.0635692
-0.0863861
0.0840362
-0.0611148
-0.0615128
-0.0815984
0.0790043
-0.0599758
-0.0601055
-0.0762626
0.0733374
-0.0589657
-0.0591029
-0.0703019
0.0671915
-0.0569391
-0.0577954
-0.0641387
0.0612062
-0.0518412
-0.0545226
-0.0585481
0.0562058
-0.0419523
-0.0471967
-0.054286
0.0528182
-0.0271485
-0.0348102
-0.0519314
0.0520879
-0.00876979
-0.0181617
-0.0526615
0.0540831
0.011863
0.00154509
-0.0549903
0.0579274
0.0313852
0.0225661
0.0449394
-0.0462719
0.0654959
-0.0431024
0.0389266
0.0621032
0.0620631
0.0474756
-0.0469318
0.0727642
0.0697278
0.0478409
-0.048333
0.0834043
0.0776108
0.0483668
-0.047921
0.0950135
0.0888578
0.0468773
-0.0460432
0.106457
0.101357
0.0444391
-0.0417951
0.115025
0.111292
0.125462
-0.125662
-0.022383
-0.122462
0.119708
-0.0390408
-0.0305841
0.126954
-0.126794
-0.00243616
-0.0123437
0.125466
-0.124382
0.016629
0.00659557
0.122806
-0.120758
0.0346424
0.0258081
0.118358
-0.115683
0.0484451
0.041715
0.112824
-0.109866
0.0569999
0.052842
0.106934
-0.104032
0.0607953
0.0588565
0.101263
-0.0985829
0.0613799
0.0608032
0.0960229
-0.093509
0.0604807
0.0604761
0.0910409
-0.0885313
0.0592268
0.0593498
0.08598
-0.0833034
0.0579256
0.0581036
0.0805113
-0.0775463
0.0562546
0.0567278
0.0744588
-0.0712295
0.0532855
0.0545937
0.0679622
-0.0647056
0.0476308
0.0505123
0.0616172
-0.0587745
0.038047
0.0430779
0.056361
-0.0544571
0.0241727
0.0313976
0.0531917
-0.0526116
0.00698642
0.0157695
0.0527442
-0.0535892
-0.0113122
-0.00219515
0.0551044
-0.0571886
-0.0282067
-0.0199987
0.0596712
-0.0624474
-0.0419055
-0.0353103
0.0654108
-0.0685427
-0.0515873
-0.0470804
0.0717394
-0.0749337
-0.0566824
-0.0544215
0.078055
-0.0810777
-0.0587991
-0.0576585
0.0839391
-0.086495
-0.060934
-0.0594894
0.0891998
-0.092104
-0.0634598
-0.061822
-0.0688517
0.0705344
-0.0933977
-0.0952039
-0.0657517
-0.0730019
-0.0818073
-0.0972828
0.052757
-0.0733642
-0.0829072
0.0568169
-0.0542386
0.0288068
0.0595939
0.0361496
-0.0493061
0.0506918
0.113639
-0.0457879
0.11619
0.0732818
-0.0825567
0.0726568
-0.0830071
-0.0726821
-0.090284
0.0726613
-0.0852518
0.0730028
-0.0877809
0.0734358
-0.0912776
-0.0708267
0.073431
-0.096002
-0.0680658
-0.0979648
-0.0823028
-0.0900901
0.0865501
0.0566394
0.0534975
-0.0587213
-0.0920591
0.0922615
-0.094281
0.0555171
0.0549284
-0.0874483
0.0921189
0.0604549
0.0596177
-0.096374
0.0995004
0.0635484
0.0632049
-0.102644
0.105822
0.0616278
0.0627205
-0.10895
0.111951
0.0550508
0.0588434
-0.114679
0.117028
0.0420559
0.0491886
-0.118889
0.120205
0.0230235
0.0330377
-0.120914
0.120987
0.000360928
0.0119346
-0.120429
0.119258
-0.021799
-0.0109992
-0.117552
0.115404
-0.0403755
-0.0314758
-0.112969
0.110343
-0.0541471
-0.0477016
-0.107647
0.104917
-0.0618823
-0.0585109
-0.102222
0.0995573
-0.0638533
-0.063118
-0.0969653
0.0944137
-0.0625229
-0.063064
-0.091916
0.0894143
-0.0603451
-0.0610715
-0.0869059
0.0843244
-0.0585333
-0.0590044
-0.0816704
0.0788759
-0.0571814
-0.0574514
-0.0759536
0.0728561
-0.0558682
-0.0561806
-0.0696499
0.0663573
-0.0536465
-0.0545892
-0.0631148
0.0599857
-0.048712
-0.0512801
-0.0571412
0.0546285
-0.0394395
-0.0443522
-0.0525891
0.0510266
-0.025586
-0.0327708
-0.05003
0.0497056
-0.00844543
-0.0171651
-0.0505405
0.0518617
0.0105418
0.000710252
0.0201892
0.0507581
-0.0527568
0.0674946
-0.0476197
0.0459418
0.0637811
0.0652015
0.0527585
-0.0541106
0.0741163
0.0697295
0.0550403
-0.055485
0.083849
0.0785404
0.0554536
-0.0549465
0.0945064
0.0888264
0.053112
-0.0523739
0.105719
0.0995223
0.10961
0.12932
-0.130942
-0.0207612
-0.126838
0.123157
-0.0353594
-0.0281027
0.130798
-0.129837
-0.00339733
-0.0124876
0.129279
-0.128132
0.0154823
0.0060379
0.126442
-0.12425
0.0324511
0.0241177
0.121687
-0.118793
0.0455508
0.0391516
0.115721
-0.112525
0.0538038
0.0497707
0.109344
-0.106193
0.0576452
0.0556747
0.103176
-0.10025
0.0584536
0.0577857
0.0974605
-0.0947288
0.057749
0.057687
0.0920642
-0.0893789
0.0565415
0.0566851
0.0866761
-0.0838737
0.0551232
0.0554008
0.0809864
-0.0779549
0.0532232
0.0538406
0.074828
-0.0715859
0.0500434
0.0514668
0.068333
-0.0651098
0.0444076
0.0472594
0.0620659
-0.0592834
0.0352645
0.0400341
0.056929
-0.0550779
0.0223216
0.0290432
0.0538501
-0.0532883
0.00642466
0.0145417
0.0534293
-0.054261
-0.0104805
-0.00205421
0.0557405
-0.0577523
-0.0261949
-0.0185192
0.0601329
-0.0628102
-0.0392282
-0.0329297
0.0656981
-0.0687948
-0.0484907
-0.0441925
0.072023
-0.0753425
-0.053363
-0.0511932
0.0786082
-0.0817473
-0.0556601
-0.0543928
0.084708
-0.0875955
-0.0580464
-0.0565287
0.0901192
-0.0924555
-0.0611234
-0.0592983
0.0959318
-0.0998941
-0.0641035
-0.0622755
0.0687389
-0.0624149
-0.103364
-0.0914953
-0.0700078
0.0737361
-0.101693
-0.1032
-0.0667016
-0.0731445
-0.082027
0.0444251
0.0611106
0.120759
-0.0433896
-0.0602925
-0.0897535
0.055765
0.073193
-0.0830929
-0.0632086
-0.089143
-0.0735808
-0.0820085
0.0734433
-0.0837891
-0.0721751
-0.0805239
0.0741875
-0.0864365
0.0750421
-0.0893873
0.0758758
-0.0937224
0.0758325
-0.0980985
-0.0723133
0.0754601
-0.10484
-0.0683965
-0.107117
-0.0822543
-0.0900878
0.0884361
0.0571687
0.0537141
-0.085069
-0.0583986
0.0906768
-0.0853923
0.0484296
0.0563541
-0.0886139
0.0892446
0.0560087
0.0547506
-0.0913583
0.0934302
0.0583831
0.057504
-0.0977063
0.101559
0.0596958
0.0589288
-0.105063
0.108536
0.0581553
0.0592162
-0.11194
0.115205
0.0517865
0.0554387
-0.118172
0.120737
0.0394906
0.0462214
-0.122768
0.124194
0.0215975
0.0310067
-0.124953
0.125001
0.000313065
0.0111754
-0.124345
0.123015
-0.0204686
-0.0103435
-0.121113
0.11875
-0.038013
-0.0295733
-0.11609
0.113224
-0.0512812
-0.0450416
-0.110272
0.107266
-0.058876
-0.0555591
-0.104285
0.10133
-0.060898
-0.060137
-0.0984565
0.095639
-0.0597055
-0.0601905
-0.0929005
0.0901808
-0.0576254
-0.058333
-0.0874772
0.0847208
-0.0557769
-0.0563008
-0.0819142
0.0789861
-0.0542533
-0.0546448
-0.075946
0.0727368
-0.052659
-0.0531404
-0.0694225
0.066015
-0.050239
-0.0512749
-0.0626541
0.0594063
-0.0454642
-0.0479192
-0.0564366
0.0538119
-0.0368148
-0.0413825
-0.0516716
0.0500381
-0.0239525
-0.0306305
-0.0489821
0.0485441
-0.00800743
-0.0161091
-0.0487552
0.0501984
0.00909867
0.000499114
-0.0524121
0.0548345
0.0263844
0.0179754
-0.0569196
0.0602152
0.0411295
0.0340646
0.0526755
-0.0537268
0.0648325
-0.0500888
0.0460035
0.0643005
0.0636973
0.0557402
-0.0566498
0.0684042
0.0672149
0.0583494
-0.0597017
0.0754685
0.0714291
0.0605861
-0.06098
0.0842429
0.0794249
0.0608796
-0.060277
0.0939037
0.088726
0.0591443
-0.0567751
0.10335
0.0983896
0.0552784
-0.0532228
0.111584
0.108113
0.0527073
-0.047542
0.115593
0.115674
0.127231
-0.129251
-0.0333395
-0.12265
0.119623
-0.0445158
-0.0388084
0.131325
-0.131996
-0.020091
-0.026028
0.132652
-0.132759
-0.00329067
-0.0118309
0.13222
-0.131037
0.0142998
0.00549867
0.129266
-0.126989
0.0301741
0.0223461
0.124316
-0.121279
0.0425136
0.0364792
0.118067
-0.114711
0.0504485
0.0465584
0.111361
-0.10804
0.0543245
0.052324
0.104847
-0.101745
0.0553517
0.0545931
0.0987871
-0.0958953
0.0548572
0.0547287
0.0930859
-0.0902737
0.0537293
0.0538758
0.0874661
-0.0845839
0.0522411
0.0525931
0.0816453
-0.0785916
0.0501695
0.0509019
0.0754726
-0.0722701
0.0468409
0.0483477
0.0690862
-0.0659549
0.0412764
0.0440755
0.0630182
-0.0603488
0.0325951
0.0370974
0.0580927
-0.056319
0.0205479
0.0267871
0.0551379
-0.0545952
0.00588199
0.0133606
0.0547319
-0.0555207
-0.00969167
-0.00191753
0.0569105
-0.0587895
-0.0243158
-0.0171294
0.0610246
-0.0635847
-0.0366681
-0.0306947
0.0664063
-0.0694866
-0.0454104
-0.0413709
0.0727435
-0.0761023
-0.0500041
-0.0479363
0.0794029
-0.0825927
-0.0524703
-0.0510922
0.0856499
-0.0886797
-0.0550166
-0.0534715
0.0917791
-0.0950071
-0.0578954
-0.0561989
0.09796
-0.100744
-0.0613194
-0.0593226
0.10448
-0.107967
-0.0649102
-0.0629652
0.0773879
-0.0713309
-0.109421
-0.077316
-0.0697201
0.0737752
-0.111172
-0.113675
-0.0640113
-0.073524
-0.0820838
0.073766
-0.0834157
-0.0531872
-0.0796998
0.0474947
-0.0784392
-0.059817
-0.0698139
-0.0777277
-0.074109
-0.0800745
0.0748412
-0.0844428
0.0606276
-0.0565282
0.0370301
0.0632241
0.0434071
-0.0505229
0.0521805
0.113936
-0.0469397
0.11604
-0.0729548
-0.0788999
0.0761918
-0.0875862
0.0774641
-0.0909756
0.0784648
-0.0963547
0.0786055
-0.101244
0.0764069
-0.107472
0.0490757
-0.0743264
-0.0544492
-0.0739872
0.0801569
0.042906
-0.0470822
-0.0708819
0.0439768
-0.0689646
-0.113929
0.0717212
-0.0656304
-0.11701
-0.070283
-0.0511256
-0.0820123
-0.0772735
0.076363
0.0493401
0.0503781
-0.0814549
0.0855997
0.053024
0.0512622
-0.0871319
0.0892839
0.0538567
0.0532183
-0.0925358
0.0958818
0.0550371
0.0542521
-0.0994155
0.103173
0.0559379
0.0553952
-0.106956
0.110691
0.0544198
0.0554338
-0.114308
0.117747
0.0483475
0.0518219
-0.120868
0.123569
0.0367896
0.0431002
-0.125711
0.127218
0.0200902
0.0288649
-0.128013
0.12804
0.000285933
0.0103807
-0.127302
0.125852
-0.019018
-0.00960577
-0.123816
0.121319
-0.0355163
-0.0275374
-0.118527
0.115521
-0.0482745
-0.0422497
-0.112407
0.109212
-0.055681
-0.0524458
-0.106022
0.102848
-0.0577235
-0.0569468
-0.0997601
0.0967417
-0.056687
-0.0571031
-0.0938212
0.0909378
-0.0547421
-0.0554124
-0.088091
0.0852077
-0.0528936
-0.0534539
-0.0822915
0.0792736
-0.0512353
-0.0517286
-0.0761671
0.0729101
-0.0494021
-0.050034
-0.0695578
0.0661095
-0.0467907
-0.0479225
-0.0627008
0.0594002
-0.0421637
-0.0445105
-0.0563664
0.0536758
-0.0341243
-0.0383487
-0.0514692
0.0497802
-0.0222635
-0.0284238
-0.0486905
0.0482101
-0.00752706
-0.0150194
-0.0483513
0.0491468
0.00830326
0.000357871
-0.0512036
0.0534837
0.0241044
0.0159185
0.0310201
0.0556271
-0.0581382
0.0673436
-0.0526091
0.0498875
0.0670221
0.0667153
0.0587517
-0.0608158
0.0704684
0.0678283
0.0624988
-0.0637731
0.0767428
0.0731121
0.0645753
-0.0648853
0.084553
0.0802271