/*--------------------------------*- C++ -*----------------------------------*\
  =========                 |
  \\      /  F ield         | OpenFOAM: The Open Source CFD Toolbox
   \\    /   O peration     | Website:  https://openfoam.org
    \\  /    A nd           | Version:  10
     \\/     M anipulation  |
\*---------------------------------------------------------------------------*/
FoamFile
{
    format      ascii;
    class       volVectorField;
    location    "0.5";
    object      U;
}
// * * * * * * * * * * * * * * * * * * * * * * * * * * * * * * * * * * * * * //

dimensions      [0 1 -1 0 0 0 0];

internalField   nonuniform List<vector> 
28942
(
(-0.795783 0.816123 -5.10855e-19)
(-1.0468 0.994794 -1.11905e-19)
(1.9569 -1.36874 3.50107e-19)
(2.53898 0.0488221 -6.3551e-19)
(2.46172 0.0758883 2.11313e-19)
(2.49668 0.098879 0)
(2.51769 0.100047 -2.87334e-21)
(2.48007 0.0622236 3.88138e-21)
(2.90915 -0.171552 -2.44342e-20)
(2.88289 -0.15425 7.31097e-20)
(-0.0977977 -0.143447 -1.53465e-18)
(0.89026 0.398639 6.70813e-19)
(-0.478797 -0.626845 0)
(-0.787424 -0.658451 0)
(2.51589 -0.0392548 1.75332e-21)
(2.50986 -0.0386915 1.87968e-22)
(2.3637 0.238329 1.72097e-19)
(2.32074 0.195044 2.72941e-19)
(1.12748 -1.82312 2.96606e-19)
(1.74117 -1.92683 -9.1098e-20)
(2.53399 0.558251 2.18156e-19)
(2.5449 0.51925 0)
(0.285047 -0.425325 1.18003e-18)
(-0.725516 -0.916492 6.33606e-19)
(2.9587 -0.827423 1.16088e-18)
(3.77324 -0.905452 -1.0513e-18)
(0.826647 -1.38057 2.68453e-18)
(0.799857 -1.09473 -1.09435e-18)
(2.2332 -1.59724 -3.41721e-20)
(1.69739 -1.13527 -1.97091e-20)
(2.28091 -0.0472152 0)
(2.73807 -0.0639336 1.4558e-20)
(2.56764 -0.0785837 3.61777e-20)
(2.50391 -0.0458539 1.18315e-20)
(1.4417 1.84971 -6.16951e-21)
(1.05056 1.97968 4.71525e-20)
(1.64802 1.79674 -6.94902e-19)
(1.24342 1.7951 -2.7577e-19)
(1.47448 0.0388638 6.44787e-21)
(0.582141 1.81939 -3.05127e-19)
(2.02416 -0.0554477 0)
(2.37723 -0.149375 0)
(2.50389 -0.0687864 -6.55782e-21)
(2.50443 -0.0642447 1.96248e-20)
(2.50755 -0.0682938 1.68082e-20)
(2.49288 0.0644043 -2.17902e-21)
(2.5599 0.055364 2.60236e-21)
(2.53462 0.0336594 1.69095e-20)
(2.52432 0.0490573 -4.60395e-21)
(2.43003 0.0368756 -4.04873e-21)
(2.67934 0.0381203 3.15921e-21)
(2.69287 0.0266849 -6.20944e-20)
(2.69809 0.0154076 -5.47166e-20)
(2.91989 -0.221487 -1.20001e-21)
(2.88964 -0.204739 1.42227e-20)
(3.80689 0.229121 8.92998e-19)
(3.86115 -0.0199565 3.95101e-19)
(-0.898711 -0.970901 -8.046e-19)
(-0.276258 -0.810828 0)
(-0.457972 -0.735837 2.86584e-19)
(-0.98573 -0.904687 7.0932e-19)
(-0.658814 -0.65201 -5.53319e-19)
(-0.712828 -0.691308 -5.5874e-19)
(3.38744 -1.15269 0)
(3.84501 -0.951456 1.26092e-19)
(3.39896 -0.702942 -5.19797e-20)
(3.2 -0.84382 0)
(2.34323 -0.523378 -1.60858e-19)
(2.41053 -0.553833 -1.04568e-19)
(-0.674894 0.712837 1.63101e-18)
(-0.734772 0.595696 -5.16194e-19)
(-0.922391 0.771087 1.26253e-18)
(2.47122 -0.676112 0)
(2.36614 -0.652133 5.53539e-19)
(2.20625 -0.989266 1.36017e-19)
(3.74689 0.239187 3.20031e-19)
(3.71118 0.0251239 -3.62434e-19)
(3.52869 0.046623 -2.10998e-19)
(0.649746 -0.348902 1.81285e-20)
(0.990503 -0.582837 -3.62273e-19)
(2.87283 -1.76433 -6.58909e-20)
(2.71863 -1.71597 1.3026e-19)
(-0.770118 0.409305 2.63365e-18)
(-0.825733 0.334926 -1.01782e-18)
(3.30775 1.36431 -5.68163e-20)
(2.88862 1.01745 -1.3265e-20)
(2.77064 1.6722 -2.26051e-20)
(2.74985 1.73841 8.58714e-20)
(2.70744 1.82848 -6.47688e-20)
(2.33061 1.64499 1.56925e-20)
(2.34426 1.76486 6.95337e-21)
(2.37251 1.86376 2.02651e-20)
(0.00492348 0.594464 -9.95935e-20)
(0.230175 0.921257 -3.15504e-20)
(-1.05694 -0.165075 6.26254e-20)
(-1.03836 -0.227272 -7.26106e-19)
(-0.748717 -0.107268 8.84118e-19)
(1.25043 1.29888 1.35202e-20)
(1.44681 1.49821 -2.29627e-20)
(-0.639392 -0.0286014 0)
(2.52112 0.00141361 0)
(2.39529 0.0608042 -4.35494e-19)
(2.39373 0.171516 3.58642e-19)
(2.59046 0.16365 0)
(2.86677 -0.234188 0)
(2.84557 -0.249914 0)
(2.86328 -0.276258 3.20488e-20)
(2.70926 0.366371 -3.6398e-20)
(2.71246 0.397971 3.76806e-19)
(2.6885 0.339542 2.03735e-19)
(-0.986871 -0.980162 1.60073e-18)
(-0.994022 -0.954 -1.78912e-18)
(0.738225 0.292809 -9.8876e-19)
(1.14697 -0.321027 9.51957e-19)
(-0.0345029 0.286725 1.73838e-18)
(0.5154 0.722114 4.72762e-19)
(1.05316 0.543239 1.15821e-18)
(0.852029 1.25543 9.46403e-20)
(0.397094 1.20267 -2.70483e-18)
(3.29318 1.03071 2.80547e-21)
(2.97462 1.08586 9.11249e-20)
(3.0429 0.971218 -1.6399e-19)
(2.59655 -1.93264 2.62489e-20)
(1.91513 -1.38962 1.41169e-20)
(0.577902 0.0750868 -1.46721e-18)
(0.617243 -0.107828 0)
(0.958322 -0.152922 8.142e-19)
(1.76358 -1.34469 4.17485e-20)
(2.14705 -1.76705 -6.423e-20)
(2.53454 0.0411397 -1.87394e-20)
(2.54255 0.0382833 9.45623e-21)
(2.54498 0.0415717 6.41446e-22)
(1.37815 -1.90219 0)
(1.44895 -1.35774 0)
(2.56667 -0.167244 -8.22194e-20)
(2.49963 -0.167885 4.82381e-19)
(2.54498 -0.115823 0)
(2.20594 -1.84933 0)
(2.21322 -1.56595 -1.61176e-19)
(2.29261 1.86756 4.107e-19)
(-0.955969 -0.662265 7.99602e-19)
(-1.00627 -0.667392 -5.4886e-19)
(2.01464 -1.79125 -5.0331e-20)
(2.51321 -0.0726948 9.64046e-20)
(2.51368 -0.0699822 -1.7876e-20)
(3.64987 0.130031 -8.81557e-20)
(3.58384 0.353027 1.18634e-19)
(3.46712 0.308629 3.41165e-19)
(-1.0054 -0.700991 3.08199e-19)
(2.61275 1.87467 4.20136e-19)
(2.66179 1.63776 -1.12173e-19)
(3.25449 2.03981 9.67845e-22)
(2.58576 -0.0385464 -3.20455e-21)
(2.49317 -0.0374896 -3.19647e-20)
(2.67204 -0.0367012 -2.14773e-21)
(2.45956 -0.0563049 8.41804e-21)
(2.23387 1.79201 1.04759e-19)
(1.40183 1.61394 0)
(-0.505294 0.121499 4.39159e-19)
(-0.624044 0.338007 -4.85215e-19)
(-0.622063 -0.191246 3.43911e-19)
(2.85423 0.352048 -1.82406e-18)
(4.10873 0.702201 -9.25565e-19)
(2.53418 -0.0519618 3.5921e-21)
(3.93777 -1.57844 1.71388e-19)
(3.81113 -1.5808 4.53452e-19)
(2.50837 0.623714 5.04447e-19)
(2.45235 0.747134 4.43159e-20)
(2.39577 0.425052 2.98374e-19)
(2.42069 0.439272 -2.14396e-19)
(2.55727 0.621248 0)
(2.69026 0.00726883 2.23245e-20)
(2.68955 -0.00299268 4.31175e-20)
(2.79991 -0.125728 -3.64479e-20)
(2.81376 -0.120641 6.29836e-20)
(2.72249 0.34814 4.2481e-20)
(2.75199 0.363396 -1.17553e-19)
(2.72976 0.373671 0)
(2.70082 0.340546 2.66989e-20)
(2.73326 0.403347 0)
(2.77423 0.509765 -9.40881e-20)
(2.76654 0.565551 -5.40305e-20)
(2.72169 0.641469 -1.01934e-19)
(2.74457 0.621944 0)
(2.80338 0.611703 2.99447e-19)
(2.77531 0.663364 1.50305e-20)
(2.69945 0.684146 -6.32247e-20)
(2.59294 0.834267 -2.70817e-19)
(2.57157 0.688338 -4.95881e-20)
(1.89128 -1.196 8.18071e-21)
(2.24255 -1.22666 -1.14991e-20)
(-0.667359 0.0630817 -1.33761e-18)
(2.54898 0.0447593 1.8454e-20)
(2.53039 0.0414481 0)
(-0.422156 0.143102 4.5436e-19)
(-0.519827 0.226126 2.74615e-19)
(2.50721 0.0440516 -5.39569e-22)
(2.50985 0.0400716 -3.90418e-22)
(2.52254 0.0363749 0)
(2.52081 0.0354476 -1.14283e-21)
(2.51961 0.00368417 -2.05385e-20)
(2.52 -0.000717302 9.91639e-20)
(2.52059 -0.00071167 4.68256e-20)
(-1.12462 -0.976827 6.8788e-19)
(-0.763532 -0.688278 -8.17289e-19)
(-0.906761 -0.749847 7.70179e-19)
(-0.803151 -0.79342 0)
(-0.321974 -0.334983 1.16182e-18)
(-0.429755 -0.421763 -1.01828e-18)
(-0.716793 -0.464858 -9.76888e-19)
(-0.449068 -0.25382 -8.96648e-19)
(-0.267396 -0.155 0)
(0.170139 0.934547 0)
(0.085972 0.627089 0)
(0.0098765 0.38134 0)
(2.83135 -0.233661 1.43778e-21)
(2.81115 -0.212762 0)
(2.81171 -0.234292 -2.90063e-21)
(2.34305 -0.191485 1.12439e-18)
(2.3732 -0.19626 -4.1265e-19)
(2.36593 -0.162449 0)
(2.53056 -0.000645644 -1.15166e-21)
(2.53141 -0.000538953 2.30491e-21)
(2.52974 -0.000602362 -7.811e-22)
(2.53217 -0.000341952 0)
(2.53275 -0.000132301 -1.46463e-21)
(2.53316 5.44087e-05 0)
(2.5323 -0.000415607 0)
(2.53337 0.000133871 5.40888e-21)
(2.53246 -0.000265601 0)
(2.53203 -0.000606733 -1.47373e-21)
(2.53165 -0.000757481 0)
(2.53112 -0.000910556 7.71629e-22)
(2.53059 -0.00089996 -1.15217e-21)
(2.53001 -0.000769743 7.7988e-22)
(2.53346 0.000239984 -5.17403e-21)
(2.53262 -0.000148 -1.81231e-22)
(2.52901 -0.000559528 7.65691e-26)
(2.52922 -0.000467454 -1.19578e-21)
(2.52843 -0.000502011 6.37501e-21)
(2.53349 0.000299479 4.82924e-24)
(2.53285 -0.000103657 -1.80754e-22)
(2.52843 -0.00020348 2.36076e-21)
(2.53343 0.000361132 4.85538e-21)
(2.53334 0.000379011 -4.8514e-21)
(2.53301 -8.81818e-05 3.64495e-22)
(2.53319 -7.8121e-05 7.1804e-22)
(2.52801 -0.000451683 -6.20432e-21)
(2.52776 -1.2009e-05 -1.55414e-21)
(2.53325 0.000341854 0)
(2.53346 -9.86925e-05 -7.08231e-22)
(2.5279 -0.000708482 7.68538e-25)
(2.52727 0.000149229 -7.7052e-25)
(2.53315 0.000314402 0)
(2.53367 -0.000119958 0)
(2.5278 -0.000935523 0)
(2.5271 9.35901e-05 0)
(2.53312 0.000211692 0)
(2.53382 -0.000204534 3.38575e-22)
(2.52773 -0.00139995 -3.24471e-21)
(2.52703 -0.00010238 -7.90042e-25)
(2.53323 8.61339e-05 1.77322e-23)
(2.53393 -0.000305804 -3.61569e-22)
(2.52774 -0.00180923 3.2602e-21)
(2.52701 -0.000447735 0)
(2.53341 -2.55175e-05 0)
(2.53397 -0.000346351 0)
(2.52814 -0.00214533 -2.06605e-22)
(2.52713 -0.000748592 3.54567e-21)
(2.53361 -5.71619e-05 2.18433e-21)
(2.53398 -0.000303619 0)
(2.5286 -0.00224731 -2.22938e-23)
(2.52724 -0.000660533 -3.35623e-21)
(2.53383 -0.000153842 -3.26556e-21)
(2.53393 -0.000208526 -9.46664e-22)
(2.52854 -0.00192247 3.42725e-21)
(2.527 -0.000158115 0)
(2.53399 -0.000166987 1.07486e-21)
(2.53387 -6.65309e-05 6.31269e-22)
(2.52775 -0.00106547 -1.74117e-21)
(2.52639 0.000439809 3.53108e-21)
(2.53411 -0.000136558 -4.28367e-21)
(2.53392 -1.13573e-05 4.82358e-21)
(2.52685 -0.000726985 1.79847e-21)
(2.52562 0.00097819 5.70212e-23)
(2.53422 -0.000132909 0)
(2.53398 -1.28058e-06 2.29572e-21)
(2.5257 -0.000552111 -3.6274e-21)
(2.52484 0.001172 7.25873e-21)
(2.53433 -7.14919e-05 0)
(2.53403 -2.65394e-05 0)
(2.52528 0.00431645 -1.77971e-21)
(2.52447 0.0045243 -7.22849e-21)
(2.52457 -0.00110156 0)
(2.52394 0.00118391 -3.70685e-21)
(2.52696 0.00127193 -1.11289e-21)
(2.52612 0.00315174 2.18651e-22)
(2.52682 0.000102886 0)
(2.52696 0.00033218 -3.58527e-21)
(2.52677 0.000157116 -6.88685e-24)
(2.52678 0.00013043 0)
(2.52661 0.000459802 0)
(2.52661 0.000351794 0)
(2.52734 0.000688942 0)
(2.52677 0.000682074 0)
(2.52891 0.000863545 1.54191e-21)
(2.52802 0.000794516 3.8925e-22)
(2.53085 0.000733556 -1.48432e-21)
(2.52993 0.000812862 -1.54072e-21)
(2.53231 0.000411097 2.62496e-21)
(2.53171 0.000575034 3.36398e-21)
(2.53303 6.91101e-05 0)
(2.53274 0.0002517 0)
(2.53317 -0.000143966 -1.14621e-23)
(2.53316 -3.92192e-05 0)
(2.53313 -0.000296453 0)
(2.53316 -0.000237383 0)
(2.53311 -0.000290527 0)
(2.5331 -0.000320392 0)
(2.53324 -9.75014e-05 0)
(2.53315 -0.00021076 0)
(2.53348 7.98457e-05 0)
(2.53338 -1.46394e-05 0)
(2.53385 4.66289e-05 0)
(2.53364 9.81146e-05 0)
(2.53425 -0.000144966 -1.74404e-21)
(2.53406 -3.19695e-05 0)
(2.53447 -0.000268559 -5.62983e-22)
(2.53438 8.1847e-05 5.49057e-22)
(2.53413 -0.000102784 -5.44455e-22)
(2.53414 -0.000111286 0)
(2.53437 -1.50971e-05 -2.23712e-21)
(2.53427 -5.71087e-05 -1.15372e-21)
(2.53391 -0.000181804 3.17265e-22)
(2.534 -0.000128839 -1.24084e-21)
(2.53383 -0.000166074 1.03198e-23)
(2.53388 -0.000170409 0)
(2.53363 -0.000231408 0)
(2.53375 -0.000196139 0)
(2.53321 -0.000240423 0)
(2.53346 -0.00024094 0)
(2.53268 -0.00027627 0)
(2.53291 -0.000217634 1.36926e-27)
(2.53214 -0.000416614 1.1614e-23)
(2.53242 -0.000326803 0)
(2.53187 -0.000745508 0)
(2.53196 -0.00053972 0)
(2.53175 -0.00129824 0)
(2.53181 -0.00100955 0)
(2.53138 -0.00186209 0)
(2.5316 -0.00160889 -7.7907e-22)
(2.5304 -0.00189138 2.06099e-22)
(2.53102 -0.00198762 -1.00838e-21)
(2.52892 -0.00146852 0)
(2.52969 -0.0017426 -8.22373e-22)
(2.52761 -0.000941367 0)
(2.52816 -0.00112507 0)
(2.52711 -0.00108186 0)
(2.5272 -0.000875485 0)
(2.5274 -0.00200575 0)
(2.52727 -0.00157522 0)
(2.52686 -0.00224779 -9.11869e-22)
(2.52727 -0.00221175 0)
(2.52556 -0.00235074 -3.71502e-21)
(2.52628 -0.00223079 -9.19352e-22)
(2.52467 -0.00258476 3.78972e-21)
(2.52368 0.00348283 7.17405e-21)
(2.53464 -0.00038926 1.10014e-21)
(2.53446 -8.29147e-06 -2.14731e-21)
(2.52323 0.000944256 0)
(2.52397 -0.00297351 0)
(2.52287 0.00255667 0)
(2.52362 -0.00153735 0)
(2.52588 2.02851e-05 0)
(2.5243 -0.000731984 1.79844e-21)
(2.52504 -5.34766e-05 1.80783e-21)
(2.52779 -0.00289589 2.28431e-21)
(2.52711 -0.00133176 -4.5675e-22)
(2.52715 -0.0035963 7.06274e-24)
(2.52755 -0.00370234 0)
(2.52659 -0.00215888 0)
(2.5269 -0.00295687 0)
(2.5261 -0.000523455 0)
(2.52618 -0.00129103 0)
(2.52679 0.00057237 0)
(2.52632 9.29596e-05 0)
(2.52816 0.0011696 0)
(2.5274 0.000944707 0)
(2.5297 0.00118392 -6.21926e-24)
(2.52896 0.00124125 1.60652e-21)
(2.53092 0.000765372 -5.95242e-24)
(2.5304 0.000993478 -3.12679e-21)
(2.5318 0.00036696 0)
(2.5314 0.00054652 0)
(2.53232 0.000194231 5.7254e-24)
(2.53209 0.000258362 0)
(2.53276 0.000207715 0)
(2.53252 0.000174775 0)
(2.53327 0.000220911 0)
(2.53302 0.000226845 0)
(2.53365 0.000171592 0)
(2.53348 0.000203553 0)
(2.53387 0.000153984 0)
(2.53381 0.000152166 0)
(2.5339 0.000170986 0)
(2.53389 0.000164683 0)
(2.53402 0.000104665 1.19244e-21)
(2.53394 0.00015452 0)
(2.53442 0.000198354 0)
(2.5347 -0.00040198 1.07184e-21)
(2.5342 -2.96102e-05 0)
(2.53412 6.88881e-05 1.16003e-21)
(2.53429 -0.000193853 2.31481e-21)
(2.53436 -0.000151499 5.67212e-22)
(2.53454 2.02107e-05 4.42232e-21)
(2.53426 -0.000173018 0)
(2.53417 -0.000292703 0)
(2.53426 -0.000254939 -3.4907e-21)
(2.53396 -0.000365091 9.9934e-24)
(2.53408 -0.000321927 1.24876e-21)
(2.53366 -0.000390395 -1.03198e-23)
(2.53382 -0.000363654 0)
(2.53332 -0.00051313 0)
(2.53349 -0.000441508 0)
(2.53293 -0.000530835 0)
(2.53315 -0.00054251 0)
(2.53247 -0.000497834 0)
(2.5327 -0.000484457 -1.36925e-27)
(2.53194 -0.000534508 -2.32175e-23)
(2.5322 -0.000493042 0)
(2.53156 -0.000738325 0)
(2.53173 -0.000598293 0)
(2.53147 -0.00114755 3.93279e-22)
(2.53145 -0.00090821 0)
(2.53163 -0.00171243 0)
(2.53157 -0.001399 -3.91539e-22)
(2.53137 -0.00214676 8.23782e-22)
(2.53158 -0.00198525 8.17044e-22)
(2.5303 -0.00189921 0)
(2.53095 -0.00212748 0)
(2.52849 -0.0011792 0)
(2.52944 -0.00155094 0)
(2.52692 -0.000797228 0)
(2.52759 -0.000893804 0)
(2.52647 -0.000949979 0)
(2.52659 -0.00085281 0)
(2.52619 -0.0011655 1.46196e-23)
(2.52636 -0.00106153 0)
(2.52532 -0.00122532 -1.48969e-23)
(2.5259 -0.00123581 0)
(2.52378 -0.00135083 -3.90917e-21)
(2.52449 -0.00121171 3.9059e-21)
(2.52339 -0.00132096 3.66948e-21)
(2.52347 -0.00332504 0)
(2.52319 -0.00141238 -7.98323e-21)
(2.52298 0.000624495 0)
(2.53432 -4.10287e-05 0)
(2.53447 -0.00016774 -5.49594e-22)
(2.52269 0.0019526 9.30605e-21)
(2.523 -0.00146124 3.71955e-21)
(2.52274 -0.00337165 2.0122e-21)
(2.5225 -0.00139402 1.00842e-20)
(2.52352 -0.00190776 0)
(2.53429 -3.45671e-05 4.53406e-21)
(2.53434 -0.000108434 -2.2388e-21)
(2.53462 5.7007e-05 -1.08677e-21)
(2.53453 -0.000163717 5.39994e-21)
(2.5225 0.00393022 1.30392e-20)
(2.52301 -0.000924362 -7.33684e-21)
(2.52207 0.00421913 -3.2388e-20)
(2.52241 0.00398948 -7.44244e-21)
(2.52404 0.00555754 3.62384e-21)
(2.52339 0.00459679 -1.11002e-20)
(2.52321 0.00628747 -3.69531e-21)
(2.52354 0.0062644 -2.80082e-21)
(2.52419 0.00308293 -9.13306e-22)
(2.52387 0.00503327 -9.14928e-22)
(2.52436 0.000211414 -7.06274e-24)
(2.52416 0.00133869 0)
(2.52466 -0.000172504 0)
(2.52471 -0.000256543 0)
(2.52406 0.000917285 0)
(2.52425 0.000281669 0)
(2.52511 0.00210803 0)
(2.52439 0.00157667 0)
(2.52697 0.00254598 0)
(2.52601 0.00242635 0)
(2.5287 0.00219346 0)
(2.52788 0.00245557 0)
(2.52999 0.00142365 2.25869e-27)
(2.52939 0.00183807 0)
(2.53105 0.000730794 0)
(2.53054 0.00103739 0)
(2.53191 0.000358686 5.7236e-24)
(2.53151 0.000495995 0)
(2.53257 0.000235701 0)
(2.53225 0.000263389 0)
(2.5331 0.000242029 0)
(2.53286 0.000221568 0)
(2.53349 0.000247903 0)
(2.5333 0.000239466 0)
(2.53386 0.000227435 0)
(2.5337 0.000222024 0)
(2.53406 0.000175689 0)
(2.53397 0.000201388 0)
(2.53419 9.91081e-05 6.07805e-22)
(2.53413 0.00014005 -3.06119e-22)
(2.53425 3.52111e-05 -2.31328e-21)
(2.53448 0.000198955 -5.14413e-22)
(2.53443 -1.39018e-05 2.14841e-21)
(2.53469 -0.000423902 -1.64517e-21)
(2.53441 -0.000254049 0)
(2.53435 -0.000300186 -1.72033e-21)
(2.53449 -0.000133171 -4.95474e-21)
(2.53442 -0.00017385 3.99524e-21)
(2.53419 -0.000415892 0)
(2.53428 -0.000384966 0)
(2.53395 -0.000489007 -1.24718e-27)
(2.53409 -0.000473046 0)
(2.53363 -0.000506003 0)
(2.53379 -0.000482704 0)
(2.53332 -0.000627749 -1.06373e-23)
(2.53346 -0.000553951 0)
(2.53294 -0.000738081 0)
(2.53314 -0.000686969 0)
(2.53251 -0.000775208 0)
(2.53274 -0.000755847 0)
(2.53196 -0.000816031 1.16078e-23)
(2.53223 -0.00079183 0)
(2.53143 -0.000935468 1.19333e-23)
(2.5317 -0.000863081 0)
(2.53107 -0.0012673 0)
(2.5312 -0.00105955 0)
(2.53113 -0.00180799 0)
(2.53106 -0.00150353 0)
(2.53135 -0.00251675 0)
(2.53124 -0.00217228 0)
(2.53119 -0.00281349 0)
(2.53137 -0.00273933 0)
(2.53003 -0.00243928 -1.35945e-23)
(2.53075 -0.00269462 0)
(2.52818 -0.00197799 0)
(2.52912 -0.00215927 0)
(2.52671 -0.00193152 0)
(2.52736 -0.00189833 0)
(2.52586 -0.00231258 -1.28427e-27)
(2.52621 -0.00206251 0)
(2.52519 -0.00283912 1.4952e-27)
(2.52557 -0.00259679 0)
(2.52421 -0.00350725 1.54866e-23)
(2.52473 -0.00312771 0)
(2.52283 -0.00401058 -8.19349e-21)
(2.52357 -0.00379183 2.00847e-21)
(2.52174 -0.00140912 2.06268e-21)
(2.52207 -0.00423931 4.0887e-21)
(2.52213 0.00219349 -3.63819e-21)
(2.52235 0.000804789 -3.90358e-21)
(2.53443 -0.000130792 5.47333e-22)
(2.53452 -8.53153e-05 3.89405e-21)
(2.52251 -0.000195371 4.39496e-22)
(2.52191 -0.00344757 0)
(2.52145 0.00408469 5.1787e-20)
(2.52127 -0.00448801 6.34215e-21)
(2.52096 -0.00147613 8.44692e-21)
(2.52106 0.00125712 -8.44528e-20)
(2.51952 0.00473783 1.52154e-20)
(2.5228 -0.00167075 0)
(2.52243 0.000625714 8.34093e-21)
(2.52182 0.000895507 4.33842e-21)
(2.52253 0.000180609 7.56053e-21)
(2.52285 0.000344158 -1.14862e-20)
(2.5249 0.000191911 -3.75606e-21)
(2.52337 0.000277593 -1.87929e-21)
(2.52764 -0.000459652 1.87169e-21)
(2.52605 -0.000211309 1.90807e-21)
(2.53147 -0.0013512 0)
(2.53001 -0.000638628 -6.66449e-24)
(2.53196 -0.00343646 0)
(2.53176 -0.00250785 0)
(2.53224 -0.00297211 6.86922e-24)
(2.53231 -0.00358999 0)
(2.53101 -0.000475151 0)
(2.53167 -0.00184085 0)
(2.53025 0.00197789 0)
(2.53054 0.000871362 0)
(2.52996 0.0029624 0)
(2.53007 0.00266701 0)
(2.53 0.00265226 6.21109e-24)
(2.52993 0.00292392 0)
(2.53036 0.00190587 1.85815e-27)
(2.53015 0.00228343 0)
(2.53104 0.00127812 0)
(2.53066 0.00155582 0)
(2.53184 0.000933741 -1.14458e-23)
(2.53144 0.00106805 0)
(2.53256 0.000753316 0)
(2.53221 0.000822017 0)
(2.53312 0.000649297 0)
(2.53286 0.000690035 0)
(2.53352 0.000520674 0)
(2.53333 0.000580742 0)
(2.53384 0.000405674 0)
(2.53369 0.000451605 0)
(2.53405 0.000310213 0)
(2.53396 0.000341908 0)
(2.53421 0.00026864 -3.03505e-22)
(2.53415 0.000281044 0)
(2.53431 0.000215188 0)
(2.53425 0.000234839 -5.88094e-22)
(2.53443 0.00014207 9.41262e-26)
(2.53437 0.000178659 0)
(2.53451 9.01429e-05 -2.17962e-21)
(2.53452 8.07907e-05 1.31439e-22)
(2.5345 -0.000163986 1.06599e-21)
(2.53459 0.000157831 7.82835e-22)
(2.5347 -0.000390788 -5.40426e-22)
(2.5347 4.31883e-05 -2.71904e-22)
(2.53458 -0.000303393 2.71749e-22)
(2.53455 -7.30285e-05 0)
(2.5346 -0.000170451 -2.47811e-21)
(2.53444 -0.000326113 -1.11447e-21)
(2.53454 -0.000256361 -2.12855e-21)
(2.53452 -0.000282202 4.88928e-21)
(2.53434 -0.000466666 -5.86013e-22)
(2.53437 -0.000388262 0)
(2.53418 -0.00057069 0)
(2.53425 -0.000534871 0)
(2.53396 -0.000636964 -1.05334e-27)
(2.53408 -0.000619223 0)
(2.53366 -0.000684103 0)
(2.53384 -0.00066477 0)
(2.53337 -0.000791773 1.06373e-23)
(2.53351 -0.000754296 0)
(2.533 -0.000913272 0)
(2.53318 -0.000861168 0)
(2.53257 -0.0010098 0)
(2.5328 -0.000981662 0)
(2.53205 -0.001088 0)
(2.53233 -0.00105399 0)
(2.53144 -0.00116042 -3.7079e-28)
(2.53176 -0.00113469 0)
(2.53089 -0.0012875 0)
(2.53114 -0.00120874 0)
(2.53064 -0.00155985 0)
(2.53071 -0.00139748 0)
(2.53092 -0.00207124 0)
(2.53072 -0.00178857 0)
(2.53138 -0.00266339 0)
(2.53117 -0.00237496 0)
(2.53108 -0.00290858 1.35945e-23)
(2.53138 -0.00285633 0)
(2.5295 -0.0026775 0)
(2.53043 -0.00283719 0)
(2.52731 -0.00226118 0)
(2.5284 -0.00246404 0)
(2.52563 -0.00212399 -1.46169e-23)
(2.52635 -0.00212901 0)
(2.52468 -0.0024208 1.49625e-23)
(2.52509 -0.00222858 0)
(2.52405 -0.0030469 -1.53109e-23)
(2.52437 -0.00270948 0)
(2.52293 -0.00357946 2.02179e-21)
(2.52356 -0.00334433 -3.9842e-21)
(2.52143 -0.00393821 -2.04943e-21)
(2.52222 -0.00376774 4.16349e-21)
(2.52041 -0.00471204 9.61475e-23)
(2.52059 -0.0041171 4.23794e-21)
(2.5214 0.0026109 -3.7478e-21)
(2.52162 0.000650491 0)
(2.52167 7.62104e-05 -3.62077e-20)
(2.52103 -0.003397 0)
(2.53454 7.67112e-05 -5.46386e-22)
(2.53457 0.000119349 4.00092e-22)
(2.53462 -6.75439e-05 -2.08483e-21)
(2.53461 -0.000272378 -2.36517e-21)
(2.5198 0.00647794 -3.57726e-20)
(2.52013 -0.0015127 -8.53125e-21)
(2.51903 0.00112323 0)
(2.52137 0.00688367 -9.94273e-21)
(2.51954 -0.00492794 -4.19126e-21)
(2.51971 -0.00434245 6.46106e-21)
(2.52014 0.00787272 1.9962e-20)
(2.52175 -0.00192633 0)
(2.52263 0.00613274 0)
(2.52176 0.00632237 -8.78468e-21)
(2.52444 0.00618464 0)
(2.52389 0.00614004 0)
(2.52775 0.00783745 0)
(2.52587 0.00691979 1.94695e-21)
(2.52781 0.00731446 0)
(2.52811 0.00791058 0)
(2.52923 0.00465356 0)
(2.52839 0.00633618 0)
(2.53067 0.000313277 0)
(2.52976 0.00233966 0)
(2.53429 -0.00103266 -6.86923e-24)
(2.53239 -0.000778633 0)
(2.53629 -9.39485e-05 0)
(2.53564 -0.000747972 0)
(2.53588 0.00151979 0)
(2.53634 0.000741085 0)
(2.53412 0.00239082 0)
(2.53507 0.0020845 0)
(2.53258 0.00236697 -2.09112e-27)
(2.53326 0.00246114 0)
(2.5319 0.00197155 2.03342e-27)
(2.53213 0.00218649 0)
(2.53195 0.00152601 0)
(2.53185 0.00173859 0)
(2.53237 0.00117012 1.66351e-27)
(2.53213 0.00133048 0)
(2.53282 0.000913971 0)
(2.53261 0.0010312 0)
(2.53323 0.000748478 0)
(2.53303 0.000829135 0)
(2.53353 0.00062876 0)
(2.53339 0.000690637 0)
(2.53383 0.000520808 0)
(2.53368 0.000568747 0)
(2.53409 0.000404881 0)
(2.53396 0.000449934 0)
(2.5343 0.000314088 0)
(2.5342 0.000363545 0)
(2.53444 0.000233544 5.82424e-22)
(2.53438 0.000272363 5.97098e-22)
(2.5345 0.000149422 -1.11607e-21)
(2.5346 0.000121449 -1.0661e-21)
(2.53457 3.11081e-05 0)
(2.53453 -0.000137929 -1.07869e-21)
(2.53473 0.000196521 0)
(2.53476 -0.000375715 1.08842e-21)
(2.53475 -7.08668e-06 1.62417e-21)
(2.53471 -0.000381763 -5.48649e-22)
(2.53471 -0.000165507 -3.19598e-21)
(2.53452 -0.000365848 5.61734e-22)
(2.53458 -0.000293368 2.08111e-21)
(2.53456 -0.000329028 0)
(2.5344 -0.000548498 -1.1655e-21)
(2.53447 -0.000505797 1.16959e-21)
(2.53422 -0.000667502 0)
(2.53432 -0.000603957 0)
(2.534 -0.000746981 -1.56388e-27)
(2.5341 -0.000723558 0)
(2.53372 -0.000837923 0)
(2.53387 -0.000794835 0)
(2.53343 -0.000957216 0)
(2.53358 -0.000900229 0)
(2.5331 -0.0010894 0)
(2.53327 -0.00103151 0)
(2.53271 -0.00124635 0)
(2.53293 -0.00118807 0)
(2.53225 -0.0014045 1.16051e-23)
(2.53249 -0.00133823 0)
(2.53168 -0.00154701 -1.19329e-23)
(2.53198 -0.00148938 0)
(2.53106 -0.00165948 0)
(2.53137 -0.00161461 0)
(2.5305 -0.00177134 0)
(2.53076 -0.00170611 0)
(2.53027 -0.00200259 0)
(2.53033 -0.00186354 0)
(2.53051 -0.00254479 0)
(2.53034 -0.00222637 0)
(2.5308 -0.00335857 0)
(2.5307 -0.00293702 0)
(2.53039 -0.00399157 0)
(2.53073 -0.00373999 0)
(2.52879 -0.0039125 -1.42721e-23)
(2.52973 -0.00404985 0)
(2.52657 -0.00338521 1.46143e-23)
(2.52769 -0.00365107 0)
(2.52468 -0.00324742 -1.49591e-23)
(2.52553 -0.00322662 0)
(2.5237 -0.00370547 0)
(2.52409 -0.0034314 0)
(2.52291 -0.00447647 0)
(2.52334 -0.00405212 0)
(2.52173 -0.0052678 1.62203e-23)
(2.52238 -0.00488604 2.04823e-21)
(2.52003 -0.00590843 -1.08203e-20)
(2.52094 -0.0055943 0)
(2.51879 -0.00453106 -6.39558e-21)
(2.51909 -0.00623073 -9.90422e-23)
(2.52112 0.00275903 1.17011e-20)
(2.52087 0.000683756 0)
(2.53459 8.31952e-05 -2.0747e-21)
(2.53461 -0.000264963 -4.01836e-21)
(2.5202 -0.000806133 -6.25038e-21)
(2.51877 -0.00084447 1.0155e-22)
(2.5186 0.00515068 1.82902e-20)
(2.52008 -0.00350035 0)
(2.51935 -0.001723 2.15609e-21)
(2.51931 0.00784747 -1.84769e-20)
(2.5181 0.00515333 1.60077e-20)
(2.51788 0.000340078 -1.5762e-20)
(2.51857 -0.00508188 -6.48567e-21)
(2.51784 -0.00482402 4.35539e-21)
(2.51814 -0.00661673 4.25381e-21)
(2.52099 -0.00194674 0)
(2.52105 -0.000384534 5.54148e-22)
(2.51904 0.00105156 -8.56252e-23)
(2.51981 4.58276e-05 4.29333e-21)
(2.52203 -0.00069339 4.23032e-21)
(2.52132 -0.000815115 -4.25802e-21)
(2.52432 0.00121178 7.74985e-24)
(2.52347 0.000406956 0)
(2.52742 0.00181303 0)
(2.5257 0.00154331 0)
(2.52495 0.000705879 0)
(2.52702 0.00149371 0)
(2.52356 0.000241828 0)
(2.5237 0.000273041 0)
(2.52464 9.39821e-05 7.0351e-24)
(2.52375 0.000188902 0)
(2.5295 0.000254989 0)
(2.52676 0.000124047 0)
(2.5336 0.000443544 0)
(2.53191 0.000354805 0)
(2.53502 0.000838281 0)
(2.53462 0.000606289 0)
(2.53446 0.00130809 0)
(2.5349 0.0010887 0)
(2.53342 0.0015894 -6.209e-24)
(2.53392 0.00147746 0)
(2.53278 0.00164539 2.13638e-27)
(2.53304 0.00164247 0)
(2.53262 0.00153337 0)
(2.53265 0.00160682 0)
(2.53279 0.00134435 1.14393e-23)
(2.53268 0.00144059 0)
(2.53305 0.00114709 0)
(2.53291 0.0012499 0)
(2.53335 0.000960781 0)
(2.5332 0.00105032 0)
(2.53362 0.000796639 0)
(2.5335 0.000875265 0)
(2.53389 0.000648427 0)
(2.53376 0.000715023 0)
(2.53412 0.000531281 0)
(2.534 0.000587129 0)
(2.53431 0.00046339 9.52709e-24)
(2.53421 0.000491636 0)
(2.53447 0.000392892 -5.84925e-22)
(2.53441 0.000424084 0)
(2.53455 0.000303106 5.55242e-22)
(2.53451 0.000358586 0)
(2.53464 0.000191938 5.28288e-22)
(2.5346 0.000227052 -5.40885e-22)
(2.53465 2.7076e-05 1.04322e-21)
(2.53468 0.00017188 0)
(2.53464 2.39401e-05 1.55594e-21)
(2.53469 0.000135974 0)
(2.53461 -0.000128686 0)
(2.53483 0.000301066 0)
(2.53484 -0.0003241 0)
(2.53481 -7.05538e-05 0)
(2.53481 -0.000427026 0)
(2.53474 -8.27702e-05 2.12526e-21)
(2.53482 -0.000192934 5.26496e-22)
(2.53467 -0.000222593 5.21935e-22)
(2.5347 -0.000261732 4.16065e-21)
(2.53467 -0.000421528 2.71983e-21)
(2.53467 -0.000324765 5.19574e-22)
(2.53467 -0.000347426 -1.05764e-21)
(2.53455 -0.000570655 5.596e-22)
(2.53459 -0.000495957 -3.35397e-21)
(2.53444 -0.00068303 -1.98813e-27)
(2.53451 -0.000643853 0)
(2.53425 -0.000781753 0)
(2.53435 -0.000720836 0)
(2.53405 -0.000868458 -1.91952e-27)
(2.53416 -0.000820319 0)
(2.5338 -0.000982029 0)
(2.53392 -0.00091899 0)
(2.5335 -0.0011192 0)
(2.53365 -0.00103998 0)
(2.53318 -0.00126406 0)
(2.53334 -0.00119084 0)
(2.53283 -0.00142421 0)
(2.53302 -0.00134585 0)
(2.53243 -0.00161233 -2.32083e-23)
(2.53264 -0.00151941 0)
(2.53194 -0.00178757 0)
(2.5322 -0.00170219 0)
(2.53139 -0.00193403 0)
(2.53168 -0.00187231 0)
(2.53074 -0.00202056 0)
(2.53107 -0.00197987 0)
(2.53012 -0.00210636 0)
(2.53042 -0.00205988 0)
(2.52975 -0.00233279 -1.32536e-23)
(2.52989 -0.0021901 0)
(2.52982 -0.00285964 0)
(2.52973 -0.00255199 0)
(2.53011 -0.00365805 0)
(2.52998 -0.00324322 0)
(2.52977 -0.00435228 1.42721e-23)
(2.53008 -0.00404745 0)
(2.52816 -0.00449729 -3.35832e-27)
(2.52912 -0.00451589 0)
(2.52577 -0.00411692 2.99151e-23)
(2.52699 -0.00432625 0)
(2.52377 -0.00399261 0)
(2.52466 -0.0039868 0)
(2.5226 -0.0045219 0)
(2.5231 -0.00416766 0)
(2.52175 -0.00551172 -1.06742e-26)
(2.52218 -0.00499831 0)
(2.52042 -0.00647194 0)
(2.52119 -0.00601128 0)
(2.51855 -0.0073421 -6.48803e-21)
(2.51951 -0.00690036 0)
(2.51715 -0.00697593 -9.85691e-23)
(2.51754 -0.00781161 1.10846e-20)
(2.5201 0.00291466 0)
(2.51847 0.00157878 2.50434e-20)
(2.51886 -0.000447762 4.29197e-21)
(2.53472 0.000141752 -5.27499e-22)
(2.53471 0.000130454 0)
(2.53474 -0.000154543 5.08145e-22)
(2.53472 -0.000280374 -1.00653e-21)
(2.51999 0.000607714 0)
(2.51918 -0.00361819 0)
(2.51778 0.00627606 0)
(2.51842 -0.00187943 -2.123e-21)
(2.51755 -0.00531146 -4.31221e-21)
(2.51684 -0.005097 0)
(2.51611 -0.00739049 1.1198e-20)
(2.51651 -0.0082938 -8.94453e-21)
(2.52013 -0.00186691 0)
(2.52017 0.0108007 -2.0674e-24)
(2.51724 0.0021376 7.95712e-21)
(2.5179 0.0103968 -2.84318e-20)
(2.5194 0.0104889 8.22347e-21)
(2.52215 0.0102884 -2.67003e-21)
(2.52089 0.0108336 -4.25818e-21)
(2.52361 0.00906728 0)
(2.52283 0.00952235 0)
(2.52523 0.00957928 -7.74914e-24)
(2.52479 0.0095341 0)
(2.52623 0.00774938 0)
(2.52546 0.00872302 0)
(2.52534 0.00471478 0)
(2.52628 0.00648953 0)
(2.52556 0.00314108 0)
(2.52498 0.00339707 0)
(2.52666 0.0035569 -7.0351e-24)
(2.52615 0.00339076 0)
(2.52908 0.0034474 0)
(2.52764 0.0035663 0)
(2.53164 0.00256107 0)
(2.5305 0.00310477 0)
(2.53307 0.00159087 0)
(2.5325 0.00200199 0)
(2.53341 0.00129136 0)
(2.53336 0.00136347 0)
(2.5332 0.00140392 6.2044e-24)
(2.53333 0.00132315 0)
(2.53297 0.00155483 2.19532e-27)
(2.53307 0.00149084 0)
(2.53292 0.00155749 0)
(2.53292 0.00157787 0)
(2.53303 0.00143131 -1.97094e-27)
(2.53296 0.00150365 0)
(2.53323 0.00124316 0)
(2.53313 0.00134355 0)
(2.53347 0.00105948 0)
(2.53335 0.00114941 0)
(2.5337 0.000906748 0)
(2.5336 0.000980053 0)
(2.53394 0.000770024 0)
(2.53382 0.00082809 0)
(2.53416 0.000643951 0)
(2.53405 0.000701235 0)
(2.53437 0.000538302 -1.90503e-23)
(2.53427 0.000584153 0)
(2.53455 0.000428692 -9.20656e-24)
(2.53446 0.000487194 0)
(2.53463 0.00032244 1.12543e-21)
(2.53461 0.000393279 -1.14463e-21)
(2.53468 0.000209379 1.07763e-21)
(2.53475 8.04198e-05 2.59165e-22)
(2.53474 0.000129143 6.47669e-23)
(2.53472 3.89171e-05 -7.85227e-22)
(2.53478 0.000149105 0)
(2.53476 -0.000183786 0)
(2.5349 0.000400234 -8.025e-27)
(2.53485 -0.000248601 0)
(2.53487 -0.000134022 0)
(2.53497 -0.000389282 0)
(2.53483 -0.000134726 1.03984e-21)
(2.53489 -0.00032455 -1.06167e-21)
(2.53479 -0.00023524 -3.98118e-23)
(2.53473 -0.000493162 -1.99372e-25)
(2.53474 -0.000337943 -1.03726e-21)
(2.53474 -0.000406274 2.72713e-25)
(2.53465 -0.000655973 -5.68888e-22)
(2.53468 -0.000574881 5.69711e-22)
(2.53448 -0.000763635 -9.36108e-24)
(2.53457 -0.000707364 0)
(2.5343 -0.000876943 -9.67399e-24)
(2.53441 -0.000821732 0)
(2.5341 -0.00099331 -2.22761e-27)
(2.5342 -0.000928401 0)
(2.53386 -0.00111608 0)
(2.53397 -0.00104277 0)
(2.53358 -0.00126184 0)
(2.53372 -0.00117831 0)
(2.53327 -0.00143925 0)
(2.53343 -0.00134462 0)
(2.53295 -0.00162216 0)
(2.53311 -0.00152858 0)
(2.53258 -0.00183044 1.16033e-23)
(2.53277 -0.00172302 0)
(2.53217 -0.00204209 1.1928e-23)
(2.53238 -0.00193596 0)
(2.53169 -0.00223689 0)