/*--------------------------------*- C++ -*----------------------------------*\
  =========                 |
  \\      /  F ield         | OpenFOAM: The Open Source CFD Toolbox
   \\    /   O peration     | Website:  https://openfoam.org
    \\  /    A nd           | Version:  10
     \\/     M anipulation  |
\*---------------------------------------------------------------------------*/
FoamFile
{
    format      ascii;
    class       volScalarField;
    location    "4.5";
    object      p;
}
// * * * * * * * * * * * * * * * * * * * * * * * * * * * * * * * * * * * * * //

dimensions      [0 2 -2 0 0 0 0];

internalField   nonuniform List<scalar> 
28942
(
-0.448845
-0.443712
-0.211415
0.203163
0.212983
-0.0175996
-0.011118
-0.0200649
-0.0100181
-0.00481011
-0.42098
-0.415614
-0.421208
-0.421082
-0.00186119
0.00240216
0.444356
0.467783
0.164882
0.236916
0.329879
0.332393
-0.442543
-0.445724
-0.437253
-0.467802
0.7768
0.791807
-0.0144812
-0.000165603
-0.03255
-0.0294755
0.0312084
0.00223538
0.13565
0.184288
0.441978
0.571862
-0.0218548
0.457694
0.262773
0.290743
0.0524147
0.0548636
0.0472189
-0.0122377
-0.00925335
-0.0104472
-0.00897737
0.000785824
0.0146554
-0.00857885
-0.00591564
0.00164691
0.007859
-0.37234
-0.320989
-0.424181
-0.420211
-0.423451
-0.427038
-0.429036
-0.426965
-0.159258
-0.255467
-0.136062
-0.0640525
0.418216
0.389585
-0.457051
-0.457856
-0.458469
0.416594
0.395216
0.414175
-0.293528
-0.295752
-0.241267
-0.186371
-0.241806
-0.162537
-0.293139
-0.507741
-0.546657
-0.0611809
0.0295636
0.0982285
0.0672743
0.00330286
0.00655971
0.04462
0.0654778
-0.439307
-0.453367
-0.418645
-0.407795
-0.408677
0.0585639
0.108631
-0.583897
0.231514
0.233407
0.209869
0.216854
-0.205532
-0.203633
-0.221173
0.154537
0.164792
0.165194
-0.421448
-0.419439
-0.443252
-0.41238
-0.424558
0.855768
0.788245
0.727686
0.803084
-0.0215826
0.126372
0.0600792
0.0689131
0.0532576
0.899715
0.911694
0.877916
0.0827125
0.122627
-0.0122995
-0.0119361
-0.014871
0.438162
0.538864
0.189642
0.179892
0.259866
0.195027
0.335769
0.320743
-0.400803
-0.403439
0.140572
0.0366403
0.0415057
-0.283988
-0.305453
-0.284266
-0.408158
0.141449
0.14868
-0.0563157
-0.0223384
-0.0232004
-0.0192307
-0.0204748
0.216614
0.129823
-0.391247
-0.409777
-0.41919
-0.459366
-0.45476
-0.0127182
-0.448729
-0.42115
0.3522
0.364765
0.421582
0.39895
0.321288
0.00129697
-0.00243992
0.0168986
0.00808798
0.125876
0.112656
0.134684
0.146906
0.145644
0.158186
0.171927
0.210269
0.189603
0.168044
0.18976
0.232975
0.291347
0.310627
-0.575641
-0.581277
-0.430957
-0.013925
-0.0108878
-0.389866
-0.409504
-0.00297216
-0.00323871
-0.00569597
-0.00709031
0.0609209
0.0607005
0.0596202
-0.415712
-0.4192
-0.417581
-0.433894
-0.436056
-0.433859
-0.458494
-0.514419
-0.477921
0.842075
0.812097
0.855358
-0.185869
-0.172453
-0.187358
0.461017
0.444401
0.452996
0.0368975
0.036133
0.0376755
0.0353824
0.0346542
0.033944
0.0339602
0.0332513
0.0332824
0.0346567
0.0353867
0.0361339
0.0369045
0.037679
0.032582
0.0326088
0.0384796
0.0384878
0.0393246
0.0319291
0.0319372
0.039329
0.0312819
0.0306464
0.0312874
0.030654
0.0401661
0.0401771
0.0300245
0.0300324
0.0410335
0.0410532
0.0294154
0.0294227
0.0419334
0.0419606
0.0288183
0.0288242
0.0428638
0.0428984
0.0282324
0.0282371
0.0438307
0.0438667
0.0276574
0.027661
0.0448373
0.0448604
0.0270925
0.027096
0.0458725
0.0458863
0.0265368
0.0265404
0.046961
0.04696
0.0259897
0.0259888
0.0480768
0.0480714
0.0254523
0.0254371
0.0492577
0.0492399
0.0249065
0.0248918
0.0504862
0.0504654
0.024346
0.0243456
0.0492062
0.0504346
0.0517767
0.0517404
0.0469029
0.0480385
0.044781
0.0458327
0.0428251
0.043783
0.0409974
0.0418982
0.0392619
0.0401184
0.0376558
0.0384561
0.036115
0.0368678
0.0346468
0.0353756
0.0332355
0.0339344
0.0319069
0.0325641
0.0306252
0.0312602
0.0293949
0.0300037
0.0282123
0.0287982
0.027072
0.0276372
0.0259706
0.0265167
0.0248849
0.0254307
0.0243427
0.0238009
0.0238008
0.0254235
0.0243457
0.0248848
0.0265229
0.0259707
0.0276447
0.0270796
0.0288067
0.0282203
0.0300132
0.0294042
0.0312662
0.0306335
0.0325791
0.0319137
0.0339477
0.0332636
0.0353675
0.0346507
0.0368721
0.0361082
0.0384609
0.0376598
0.0401327
0.0392773
0.041914
0.0410097
0.0438127
0.0428485
0.0458355
0.0448067
0.0480129
0.0468997
0.0503641
0.049162
0.0516318
0.0517217
0.0238011
0.0238044
0.0530851
0.0529561
0.0530612
0.0531197
0.0490972
0.0515785
0.0503089
0.0468068
0.0479293
0.0447106
0.0457376
0.0427715
0.043724
0.0409492
0.0418472
0.039233
0.0400762
0.0376122
0.0384151
0.0360737
0.0368392
0.0346156
0.0353292
0.0332085
0.0339042
0.0318802
0.0325366
0.0306034
0.0312359
0.0293759
0.0299835
0.0281947
0.0287798
0.0270551
0.0276199
0.0259539
0.0264999
0.0248717
0.025412
0.0232644
0.0232672
0.023805
0.0243377
0.0243411
0.0238125
0.0232746
0.0232651
0.0254057
0.0248735
0.0264949
0.0259438
0.0276165
0.0270512
0.0287768
0.0281915
0.0299806
0.0293731
0.0312312
0.0305998
0.0325368
0.0318765
0.0339022
0.033213
0.0353299
0.0346073
0.0368188
0.0360639
0.0384004
0.0376045
0.0400651
0.0392194
0.0418362
0.0409376
0.0437202
0.0427636
0.0457274
0.0447075
0.0478795
0.0467834
0.0502028
0.0490178
0.0527428
0.051446
0.0529082
0.0543333
0.0541091
0.0544686
0.023283
0.0232764
0.0544517
0.0542861
0.0557675
0.0555366
0.0545244
0.0238019
0.0232854
0.0227482
0.0227496
0.0540321
0.0557032
0.0567377
0.0554517
0.0513641
0.052666
0.0489303
0.0501209
0.0466809
0.0477816
0.0446137
0.0456248
0.0426891
0.0436366
0.0408771
0.0417695
0.0391705
0.0400109
0.0375558
0.0383521
0.0360215
0.0367804
0.0345657
0.035284
0.0331702
0.0338599
0.0318441
0.0324994
0.0305712
0.0312017
0.0293466
0.029953
0.0281674
0.0287517
0.0270293
0.0275935
0.0259279
0.0264743
0.0248522
0.0253863
0.0243233
0.0227452
0.0227565
0.0227501
0.0227438
0.0243207
0.0232713
0.0237969
0.0253774
0.0248464
0.0264594
0.025912
0.0275788
0.0270147
0.0287363
0.0281526
0.0299365
0.0293309
0.0311835
0.0305538
0.0324831
0.0318265
0.0338401
0.033154
0.0352612
0.0345425
0.0367484
0.0359955
0.0383185
0.0375238
0.0399738
0.0391341
0.0417306
0.040839
0.043598
0.04265
0.0455873
0.0445766
0.0477143
0.0466327
0.0500001
0.0488357
0.0524778
0.051213
0.0552163
0.0538121
0.0570227
0.0566782
0.055894
0.0559169
0.022766
0.0227509
0.0571657
0.0572668
0.0586892
0.0582108
0.0585664
0.0587821
0.0606353
0.0559614
0.0563542
0.0574912
0.0537612
0.0551238
0.0511199
0.0524078
0.0487268
0.0498943
0.0465234
0.0476068
0.0444847
0.0454851
0.0425752
0.0435157
0.0407771
0.0416627
0.0390813
0.0399172
0.0374766
0.0382681
0.0359527
0.0367052
0.0345023
0.0352189
0.033117
0.0338018
0.0317944
0.0324483
0.0305258
0.031154
0.0293051
0.0299097
0.0281291
0.0287119
0.0269934
0.0275565
0.0258933
0.0264392
0.0248247
0.025354
0.0237861
0.0243032
0.0227592
0.0232704
0.0222453
0.0222482
0.0222488
0.0222351
0.0222398
0.0222342
0.0222316
0.0222413
0.0222394
0.0232543
0.0222478
0.0227471
0.0242872
0.0237696
0.0253374
0.0248088
0.0264163
0.0258722
0.0275317
0.0269696
0.0286851
0.0281035
0.0298805
0.0292774
0.0311223
0.0304953
0.0324155
0.0317623
0.0337643
0.0330825
0.0351757
0.0344619
0.0366556
0.0359066
0.0382129
0.0374241
0.0398563
0.0390232
0.0415967
0.0407137
0.0434448
0.0425067
0.0454126
0.044413
0.0475141
0.0464459
0.0497644
0.0486195
0.0521883
0.0509529
0.0548346
0.0534792
0.0577643
0.0562663
0.0598044
0.0593266
0.0573843
0.0574026
0.0587291
0.0588143
0.0227435
0.0222412
0.0217406
0.0217334
0.0604176
0.0601753
0.0616749
0.0586959
0.0614581
0.0609611
0.0603681
0.0574459
0.0561059
0.0573705
0.0534661
0.0548085
0.050854
0.0521314
0.0485089
0.0496533
0.0463423
0.0474069
0.0443242
0.0453159
0.042432
0.0433637
0.0406507
0.0415282
0.0389692
0.0397983
0.0373771
0.0381627
0.0358646
0.0366115
0.0344235
0.0351356
0.0330474
0.0337278
0.0317308
0.032382
0.0304678
0.0310931
0.0292523
0.0298544
0.0280806
0.0286613
0.0269485
0.0275099
0.0258517
0.026396
0.0247889
0.0253158
0.0237577
0.0242688
0.0232471
0.021745
0.0217452
0.0217452
0.0217362
0.0217441
0.0217376
0.0217366
0.0217394
0.0232274
0.0222228
0.0227278
0.0242436
0.0237332
0.0252887
0.0247626
0.0263647
0.0258227
0.0274752
0.0269155
0.0286234
0.0280444
0.0298128
0.0292127
0.0310479
0.0304244
0.0323332
0.031684
0.0336732
0.0329961
0.0350739
0.0343657
0.0365424
0.0357993
0.0380858
0.0373043
0.0397134
0.0388886
0.0414348
0.0405618
0.0432604
0.042334
0.0452022
0.044216
0.047274
0.046221
0.0494903
0.0483632
0.0518685
0.0506578
0.0544406
0.0531283
0.0572554
0.0558088
0.0603511
0.0587728
0.0626517
0.0620135
0.0589039
0.0589441
0.0217348
0.0217213
0.0604045
0.0619118
0.0621185
0.0604233
0.0618415
0.0620353
0.0635422
0.0636326
0.063183
0.0644267
0.063748
0.0589786
0.0584803
0.0616744
0.060051
0.0557314
0.057062
0.0530975
0.0544247
0.0505588
0.0517986
0.0482582
0.0493835
0.0461237
0.0471728
0.0441295
0.0451099
0.0422597
0.0431802
0.0404986
0.0413664
0.0388346
0.0396552
0.0372575
0.0380358
0.035758
0.0364986
0.0343284
0.0350349
0.0329622
0.0336378
0.0316538
0.0323011
0.0303977
0.0310196
0.0291886
0.0297876
0.0280222
0.0286003
0.0268948
0.0274539
0.0258028
0.0263446
0.0247438
0.0252693
0.0237168
0.0242261
0.0227147
0.0232139
0.0217123
0.0222167
0.0212487
0.0212129
0.021232
0.0212599
0.0212558
0.0212575
0.0212582
0.0212526
0.0212567
0.0212477
0.021253
0.0212285
0.021239
0.0221904
0.0212124
0.0217
0.0231852
0.0226885
0.024194
0.0236859
0.0252331
0.0247095
0.0263042
0.0257646
0.0274092
0.0268523
0.0285512
0.0279754
0.0297337
0.0291372
0.0309608
0.0303415
0.0322369
0.0315925
0.0335666
0.0328947
0.0349554
0.0342533
0.03641
0.0356741
0.0379376
0.0371643
0.0395465
0.0387314
0.041246
0.0403844
0.0430459
0.0421328
0.0449576
0.043987
0.0469942
0.0459595
0.0491708
0.0480642
0.0515039
0.0503167
0.0540145
0.0527361
0.0567286
0.0553426
0.0596866
0.058178
0.0629545
0.0612787
0.0655532
0.0646968
0.0605024
0.0632258
0.0622261
0.0216865
0.0211994
0.0207399
0.0207229
0.060564
0.0621085
0.0638455
0.0635936
0.0649944
0.0662854
0.0674303
0.0665074
0.0605824
0.0610954
0.0649238
0.0642962
0.0626768
0.0579867
0.059519
0.0552417
0.0565695
0.0526704
0.0539557
0.0502154
0.0514173
0.0479617
0.0490662
0.0458644
0.0468956
0.0439017
0.0448671
0.0420591
0.0429665
0.0403215
0.041178
0.0386777
0.0394886
0.037118
0.037888
0.0356336
0.0363669
0.0342171
0.0349173
0.0328624
0.0335325
0.0315637
0.0322064
0.0303159
0.0309338
0.0291141
0.0297096
0.0279541
0.0285291
0.0268323
0.0273887
0.0257455
0.0262847
0.0246911
0.0252144
0.0236678
0.0241756
0.0226713
0.0231662
0.0221778
0.0207638
0.0207256
0.0207479
0.0207823
0.0207762
0.020791
0.0207875
0.0207818
0.0207896
0.0207653
0.020775
0.0207539
0.022152
0.021183
0.0216668
0.0231297
0.022638
0.0241356
0.0236295
0.0251699
0.024649
0.0262352
0.0256986
0.027334
0.0267803
0.0284689
0.0278968
0.0296435
0.0290511
0.0308614
0.0302468
0.032127
0.031488
0.0334448
0.0327791
0.0348201
0.034125
0.0362591
0.0355313
0.0377687
0.0370047
0.0393565
0.0385523
0.0410313
0.0401826
0.0428025
0.0419043
0.0446805
0.0437275
0.0466775
0.0456634
0.0488077
0.0477251
0.0510874
0.0499278
0.0535356
0.0522895
0.056169
0.0548282
0.0590058
0.0575608
0.0621023
0.0605164
0.0655048
0.0637657
0.0655951
0.0654259
0.0684175
0.0673024
0.0622857
0.0207195
0.0206964
0.0660138
0.0622728
0.0668148
0.0640782
0.0638886
0.0656132
0.0654312
0.0668785
0.0681971
0.0693708
0.0703692
0.0691944
0.0623203
0.0634791
0.0678532
0.066865
0.0651311
0.060358
0.0619098
0.0573764
0.0588294
0.0546924
0.0559988
0.0521958
0.0534355
0.0498227
0.0509878
0.0476223
0.0487023
0.0455689
0.0465789
0.0436431
0.0445909
0.0418314
0.042724
0.0401204
0.0409641
0.0384993
0.0392992
0.0369592
0.0377197
0.0354919
0.036217
0.0340903
0.0347833
0.0327484
0.0334122
0.0314607
0.0320981
0.0302225
0.0308358
0.029029
0.0296205
0.0278763
0.0284478
0.026761
0.0273143
0.02568
0.0262164
0.0246308
0.0251516
0.0236111
0.0241174
0.0226192
0.0231118
0.0216505
0.0221317
0.0206894
0.0211732
0.0202546
0.0202071
0.0202325
0.0202941
0.0202754
0.0203177
0.0203064
0.0203313
0.0203268
0.0203194
0.0203292
0.0202946
0.0203055
0.0202602
0.0202789
0.020218
0.0202392
0.0211406
0.0201888
0.0206651
0.0220982
0.0216182
0.0230698
0.0225813
0.0240701
0.0235664
0.0250989
0.0245809
0.0261579
0.0256245
0.0272496
0.0266996
0.0283767
0.0278086
0.0295423
0.0289545
0.0307501
0.0301407
0.032004
0.031371
0.0333085
0.0326497
0.0346687
0.0339814
0.0360903
0.0353715
0.0375797
0.0368261
0.0391443
0.0383522
0.0407919
0.0399573
0.0425313
0.0416496
0.0443724
0.0434386
0.046326
0.0453345
0.048405
0.0473491
0.0506239
0.049496
0.053
0.0517914
0.0555495
0.0542525
0.0582827
0.0568924
0.061228
0.0597266
0.0644355
0.0627947
0.067923
0.0661483
0.0676487
0.0675416
0.0711568
0.069782
0.0641513
0.0640748
0.0686663
0.0697701
0.0687668
0.0659218
0.0657564
0.020649
0.0201786
0.0197454
0.0197182
0.0675105
0.067355
0.0688416
0.0702008
0.0713983
0.0723965
0.0705481
0.0692327
0.0710622
0.0731953
0.0717145
0.0725495
0.0641504
0.0657877
0.0674872
0.062482
0.0640816
0.0595152
0.060991
0.0566805
0.0580624
0.0540982
0.0553631
0.0516761
0.0528725
0.0493848
0.050512
0.0472445
0.0482964
0.0452401
0.0462266
0.0433552
0.0442835
0.0415778
0.0424539
0.039896
0.0407256
0.0383002
0.039088
0.0367819
0.0375319
0.0353334
0.0360494
0.0339483
0.0346334
0.0326206
0.0332776
0.0313453
0.0319768
0.0301178
0.0307259
0.0289337
0.0295206
0.0277892
0.0283567
0.0266811
0.0272308
0.0256065
0.0261398
0.024563
0.025081
0.0235483
0.0240522
0.0225612
0.0230513
0.0215996
0.0220772
0.0211245
0.0197854
0.0197341
0.019761
0.0198304
0.0198102
0.0198622
0.0198479
0.019876
0.019872
0.0198645
0.0198738
0.0198318
0.0198491
0.0197959
0.0198174
0.019772
0.0210891
0.0201533
0.0206211
0.0220348
0.0215582
0.0230031
0.022516
0.0239977
0.023497
0.0250202
0.0245054
0.0260724
0.0255425
0.0271564
0.0266103
0.0282747
0.0277111
0.0294305
0.0288478
0.030627
0.0300235
0.0318682
0.0312418
0.0331581
0.0325068
0.0345017
0.0338229
0.0359042
0.0351953
0.0373716
0.0366294
0.0389107
0.0381318
0.0405288
0.0397095
0.0422339
0.04137
0.0440349
0.0431219
0.0459419
0.0449746
0.0479658
0.0469385
0.0501195
0.0490256
0.0524173
0.0512495
0.0548739
0.053625
0.0575017
0.0561657
0.0603127
0.0588836
0.0633387
0.0617957
0.0666004
0.0649419
0.0701373
0.0683316
0.0717689
0.0737147
0.07531
0.0757855
0.073948
0.072002
0.0696254
0.0697195
0.0660738
0.0659658
0.019709
0.0196822
0.0708441
0.0678564
0.0677127
0.069554
0.0693698
0.0709102
0.0723037
0.0735216
0.0745395
0.072979
0.0712532
0.0731025
0.0720202
0.0738606
0.0759614
0.0750119
0.0746077
0.0738918
0.0774973
0.0779074
0.0660654
0.0678311
0.0694913
0.0645502
0.0661581
0.0614423
0.0629678
0.058609
0.0600031
0.0559386
0.0572506
0.053454
0.0546751
0.0511165
0.0522692
0.0489072
0.0499954
0.0468315
0.0478529
0.0448799
0.0458412
0.0430394
0.0439465
0.0412993
0.0421575
0.0396496
0.0404638
0.0380813
0.0388558
0.0365867
0.0373253
0.0351589
0.0358649
0.0337916
0.0344681
0.0324796
0.0331291
0.0312179
0.0318428
0.0300021
0.0306045
0.0288283
0.0294102
0.0276929
0.028256
0.0265928
0.0271387
0.0255253
0.0260552
0.0244879
0.025003
0.0234788
0.02398
0.0224963
0.0229844
0.0215392
0.0220147
0.0206027
0.0210687
0.0196715
0.0201354
0.019273
0.019209
0.0192419
0.0193289
0.0193007
0.0193772
0.0193533
0.0194127
0.0193976
0.0194255
0.019422
0.0194154
0.0194234
0.0193818
0.0194011
0.0193375
0.0193626
0.0192827
0.0193105
0.0192168
0.0192523
0.0200999
0.0191779
0.0196403
0.0210273
0.0205634
0.0219657
0.0214934
0.0229294
0.0224446
0.0239183
0.0234206
0.0249342
0.0244228
0.0259789
0.0254529
0.0270545
0.0265127
0.0281634
0.0276046
0.0293084
0.0287312
0.0304928
0.0298955
0.0317201
0.0311009
0.0329942
0.0323511
0.0343197
0.0336503
0.0357015
0.0350033
0.0371452
0.0364153
0.0386569
0.0378922
0.0402432
0.0394403
0.0419115
0.0410667
0.0436698
0.042779
0.0455269
0.0445855
0.0474925
0.0464955
0.0495773
0.0485193
0.0517931
0.0506682
0.0541517
0.0529539
0.0566653
0.0553885
0.0593445
0.0579837
0.062203
0.0607505
0.0652488
0.0637025
0.0684959
0.0668485
0.0702021
0.0716529
0.0717926
0.0779652
0.0757099
0.0680492
0.0679467
0.0728923
0.0698871
0.0697652
0.0196238
0.0191667
0.0187588
0.0187168
0.0716952
0.0714884
0.0730847
0.0745195
0.0757669
0.0767748
0.0750354
0.0728657
0.0746932
0.0770646
0.0771536
0.0767663
0.0760793
0.0798041
0.080128
0.0776004
0.0800373
0.0680594
0.0694613
0.0711018
0.066317
0.0678807
0.0632282
0.064754
0.0603579
0.0617674
0.0576809
0.0589986
0.0551506
0.0563981
0.0527681
0.0539411
0.050521
0.0516291
0.048394
0.0494427
0.046386
0.0473754
0.0444906
0.045425
0.0426974
0.0435819
0.0409975
0.0418364
0.0393821
0.0401798
0.0378434
0.0386037
0.0363745
0.0371007
0.0349689
0.0356642
0.033621
0.0342881
0.0323258
0.0329672
0.0310788
0.0316966
0.0298759
0.0304721
0.0287133
0.0292898
0.0275877
0.0281461
0.0264963
0.0270379
0.0254364
0.0259626
0.0244058
0.0249176
0.0234027
0.023901
0.0224253
0.0229109
0.0214727
0.0219459
0.0205434
0.0210043
0.0200837
0.0188174
0.0187499
0.0187865
0.0188785
0.0188497
0.0189329
0.0189072
0.0189681
0.0189535
0.0189803
0.018977
0.0189712
0.0189785
0.0189388
0.018958
0.0188878
0.0189152
0.0188275
0.0188588
0.0187949
0.0200391
0.0191283
0.0195853
0.0209575
0.0204958
0.0218913
0.0214214
0.0228493
0.0223673
0.0238321
0.0233376
0.024841
0.0243332
0.0258777
0.0253558
0.0269442
0.0264071
0.0280429
0.0274895
0.0291764
0.0286052
0.0303477
0.0297572
0.0315601
0.0309486
0.0328173
0.0321829
0.0341234
0.033464
0.0354831
0.0347963
0.0369014
0.0361847
0.0383839
0.0376343
0.0399365
0.0391511
0.0415658
0.0407412
0.0432789
0.0424115
0.0450833
0.0441692
0.0469875
0.0460225
0.0490003
0.0479798
0.051131
0.0500504
0.0533887
0.0522435
0.0557826
0.0545681
0.0583219
0.0570336
0.061015
0.0596491
0.0638633
0.06242
0.0668527
0.0653423
0.070033
0.0684093
0.0733745
0.0717047
0.0795047
0.0767878
0.0750687
0.0738431
0.0740277
0.0701137
0.0700231
0.0187086
0.0186732
0.0751379
0.0720435
0.0719231
0.0739346
0.0737193
0.0753769
0.0768603
0.0781268
0.0791175
0.0765459
0.0739534
0.075584
0.074023
0.0755425
0.078493
0.0784596
0.0791555
0.0793002
0.0790635
0.0783871
0.0822163
0.0824184
0.0821684
0.0814121
0.070142
0.0706957
0.0723113
0.0676097
0.0690798
0.064715
0.0661768
0.0618938
0.0632842
0.0592364
0.060547
0.0567151
0.0579594
0.0543177
0.0555014
0.052045
0.0531656
0.0498924
0.0509547
0.0478487
0.0488573
0.0459109
0.0468667
0.0440743
0.0449805
0.0423311
0.0431916
0.0406737
0.0414922
0.0390948
0.0398749
0.0375877
0.0383328
0.036146
0.0368591
0.0347642
0.035448
0.033437
0.0340941
0.0321598
0.0327925
0.0309286
0.0315388
0.0297394
0.030329
0.0285889
0.0291595
0.0274739
0.0280272
0.0263919
0.026929
0.0253402
0.0258624
0.0243169
0.0248251
0.0233201
0.0238153
0.0223483
0.0228312
0.0214001
0.0218713
0.0204765
0.0209347
0.0195666
0.0200195
0.0186566
0.0191146
0.0182981
0.0182034
0.0182506
0.0183726
0.0183379
0.0184375
0.0184038
0.0184946
0.0184688
0.0185286
0.0185144
0.0185407
0.0185373
0.018532
0.018539
0.0185013
0.0185195
0.0184496
0.0184777
0.0183827
0.018417
0.0183117
0.0183504
0.0182291
0.0182709
0.0190713
0.0181847
0.0186297
0.0199704
0.019521
0.020881
0.020423
0.0218108
0.0213432
0.0227632
0.0222841
0.0237394
0.0232483
0.0247408
0.0242369
0.025769
0.0252514
0.0268259
0.0262938
0.0279137
0.0273659
0.0290349
0.02847
0.0301922
0.0296089
0.0313888
0.0307854
0.0326279
0.0320028
0.0339136
0.0332647
0.0352498
0.0345751
0.0366412
0.0359384
0.0380928
0.0373592
0.0396099
0.0388429
0.0411983
0.0403949
0.042864
0.0420211
0.0446136
0.0437279
0.0464538
0.045522
0.0483919
0.0474102
0.0504349
0.0493999
0.0525894
0.0514979
0.0548614
0.0537104
0.0572564
0.0560432
0.0597788
0.0585017
0.0624273
0.0610878
0.065186
0.0637945
0.0680574
0.0666056
0.0710112
0.0695343
0.0725047
0.0761659
0.0763302
0.0801468
0.0769974
0.0722895
0.0722057
0.0774381
0.074317
0.0741964
0.0186034
0.0181596
0.0177874
0.0177396
0.0762994
0.0760738
0.0777984
0.0793281
0.0806113
0.0815919
0.0772266
0.0740407
0.0754313
0.0788722
0.0803645
0.0812249
0.0815884
0.0814237
0.0808068
0.0847329
0.0847891
0.0843349
0.0833372
0.0782951
0.081745
0.0723316
0.0713032
0.0726837
0.0684914
0.0699168
0.0657178
0.0670757
0.0631051
0.0644095
0.0605422
0.0618123
0.0580767
0.0592973
0.0557108
0.0568809
0.0534479
0.0545666
0.0512895
0.0523555
0.0492339
0.0502494
0.0472746
0.0482425
0.0454089
0.0463302
0.0436334
0.0445103
0.0419423
0.0427777
0.0403295
0.0411265
0.0387891
0.0395507
0.0373151
0.0380442
0.0359023
0.0366014
0.0345455
0.0352172
0.0332402
0.0338867
0.0319822
0.0326056
0.0307677
0.0313698
0.0295932
0.0301757
0.0284555
0.0290199
0.0273519
0.0278996
0.0262798
0.0268121
0.0252369
0.0257548
0.0242212
0.0247258
0.0232312
0.0237231
0.0222653
0.0227453
0.0213223
0.021791
0.0204018
0.0208593
0.0194986
0.0199477
0.0190501
0.0178543
0.0177563
0.0178077
0.0179336
0.0178976
0.0180053
0.0179697
0.0180612
0.0180363
0.0180943
0.0180804
0.0181066
0.018103
0.0180981
0.0181049
0.0180688
0.0180861
0.0180188
0.0180463
0.0179495
0.017986
0.0178706
0.0179123
0.017829
0.0190079
0.0181289
0.018571
0.0198946
0.0194499
0.0207995
0.0203445
0.0217247
0.0212596
0.0226711
0.0221952
0.0236403
0.0231528
0.0246338
0.024134
0.025653
0.0251401
0.0266998
0.0261729
0.0277761
0.0272342
0.0288843
0.0283261
0.0300269
0.0294512
0.0312067
0.030612
0.0324268
0.0318115
0.0336908
0.0330532
0.0350024
0.0343404
0.0363656
0.0356773
0.0377849
0.037068
0.0392649
0.038517
0.0408106
0.0400293
0.0424271
0.0416098
0.0441198
0.0432637
0.0458941
0.0449965
0.0477554
0.0468136
0.0497087
0.0487204
0.0517583
0.0507214
0.0539072
0.0528203
0.056157
0.0550195
0.0585074
0.0573199
0.060953
0.059719
0.0634799
0.0622072
0.066072
0.0647698
0.0686743
0.0673766
0.0712608
0.0699693
0.073763
0.0725511
0.0795414
0.0758524
0.0748569
0.0785953
0.0787186
0.0745876
0.0745052
0.0177187
0.0176884
0.0798918
0.0767175
0.0765969
0.078791
0.0785627
0.0803587
0.0819357
0.0832321
0.0841859
0.0767467
0.0730783
0.0740397
0.0722498
0.0728784
0.0767162
0.0780457
0.0804766
0.0822213
0.0833527
0.0838694
0.0838631
0.0833298
0.0873452
0.0872391
0.0865531
0.0852555
0.0833058
0.0806645
0.0746394
0.0709861
0.0720327
0.0686464
0.0697973
0.0662601
0.0674918
0.0638438
0.0650368
0.0614986
0.0626698
0.059165
0.0603278
0.0568838
0.058016
0.0546757
0.05577
0.0525485
0.0536018
0.0505059
0.0515165
0.0485489
0.0495169
0.0466751
0.0476018
0.0448829
0.0457689
0.0431702
0.0440169
0.041533
0.0423425
0.0399665
0.0407412
0.038466
0.0392084
0.0370268
0.0377391
0.0356441
0.0363287
0.0343137
0.0349727
0.0330314
0.0336668
0.0317935
0.0324072
0.0305966
0.0311902
0.0294376
0.0300126
0.0283135
0.0288714
0.0272219
0.0277639
0.0261603
0.0266875
0.0251267
0.0256401
0.0241192
0.0246198
0.0231363
0.0236248
0.0221766
0.0226536
0.0212389
0.0217051
0.0203218
0.0207779
0.0194241
0.0198705
0.0185423
0.0189806
0.0176624
0.0181043
0.0173249
0.0172176
0.0172734
0.0174227
0.0173746
0.0175053
0.0174652
0.017579
0.0175438
0.0176326
0.0176086
0.0176653
0.0176515
0.0176776
0.017674
0.0176695
0.0176761
0.0176412
0.0176579
0.0175929
0.0176196
0.0175234
0.0175608
0.0174381
0.0174822
0.0173523
0.0173972
0.0172564
0.0173051
0.018064
0.0172038
0.0176331
0.0189342
0.0185004
0.019814
0.0193709
0.0207136
0.0202613
0.0216331
0.0211709
0.0225733
0.0221006
0.0235352
0.0230515
0.0245204
0.0240248
0.0255302
0.0250221
0.0265662
0.0260448
0.0276305
0.0270948
0.028725
0.0281739
0.0298521
0.0292844
0.0310143
0.0304287
0.0322146
0.0316096
0.0334559
0.03283
0.0347417
0.0340931
0.0360756
0.0354025
0.0374613
0.0367617
0.0389028
0.0381749
0.0404045
0.0396459
0.0419703
0.0411791
0.0436045
0.0427787
0.0453113
0.0444487
0.0470942
0.0461931
0.0489565
0.0480154
0.0509
0.0499181
0.0529252
0.0519025
0.0550302
0.053968
0.0572102
0.0561114
0.0594547
0.0583254
0.0617474
0.0605961
0.0640646
0.0629057
0.06635
0.0652153
0.0685434
0.0674621
0.070558
0.0695859
0.0714608
0.0811683
0.0812581
0.0774054
0.0732961
0.0770167
0.0769341
0.0824356
0.0792534
0.0791361
0.0176013
0.0171723
0.0168265
0.0167759
0.0814288
0.0811981
0.08307
0.0846923
0.0859949
0.0869057
0.0748505
0.0706695
0.0710201
0.0755497
0.0792102
0.0820024
0.0840826
0.0854592
0.0861768
0.0863255
0.0859291
0.0900616
0.0897645
0.0888096
0.0871596
0.0847895
0.0816696
0.0734328
0.0778346
0.0770781
0.0695074
0.0701063
0.067972
0.0688191
0.0660559
0.0669989
0.064069
0.0650986
0.0619814
0.0630244
0.0598831
0.060936
0.0577642
0.0588238
0.055667
0.0567107
0.0536169
0.0546353
0.0516251
0.0526133
0.0496984
0.0506533
0.0478409
0.048761
0.0460533
0.0469384
0.0443357
0.0451858
0.042687
0.0435029
0.041105
0.0418879
0.0395863
0.040338
0.0381272
0.0388495
0.0367239
0.0374188
0.0353726
0.036042
0.0340695
0.0347153
0.0328112
0.033435
0.0315944
0.0321978
0.030416
0.0310006
0.0292732
0.0298403
0.0281634
0.0287143
0.0270843
0.0276202
0.0260338
0.0265556
0.0250099
0.0255187
0.024011
0.0245074
0.0230356
0.0235204
0.0220823
0.0225563
0.0211502
0.0216137
0.0202379
0.0206916
0.0193453
0.019789
0.0184696
0.0189042
0.0180348
0.0168967
0.0167852
0.0168442
0.0169965
0.0169482
0.0170845
0.0170422
0.0171571
0.0171231
0.0172091
0.0171856
0.0172414
0.0172277
0.0172537
0.0172501
0.017246
0.0172524
0.0172184
0.0172347
0.0171713
0.0171973
0.0171038
0.0171402
0.017017
0.0170627
0.016925
0.0169726
0.0168762
0.0179942
0.0171443
0.0175684
0.018853
0.0184207
0.0197283
0.019288
0.020623
0.0201734
0.0215365
0.0210774
0.0224699
0.0220007
0.0234243
0.0229444
0.0244007
0.0239097
0.0254007
0.0248977
0.0264256
0.02591
0.0274772
0.026948
0.0285575
0.0280137
0.0296684
0.029109
0.0308124
0.0302362
0.0319919
0.0313976
0.0332098
0.0325959
0.0344688
0.033834
0.0357722
0.0351148
0.0371233
0.0364417
0.0385252
0.0378177
0.0399815
0.0392464
0.0414954
0.0407311
0.04307
0.042275
0.044708
0.043881
0.0464116
0.0455516
0.048182
0.0472885
0.0500191
0.0490924
0.0519206
0.0509621
0.0538818
0.0528942
0.0558939
0.0548823
0.0579422
0.0569148
0.0600055
0.0589736
0.0620529
0.0610341
0.0640312
0.0630545
0.0658709
0.0649742
0.0674557
0.0667041
0.0686713
0.0681188
0.0693217
0.0691107
0.0733792
0.068928
0.0692481
0.0838834
0.08394
0.0795863
0.0795044
0.0167395
0.0167155
0.0850994
0.0819389
0.081827
0.0842189
0.0839929
0.0859434
0.0876078
0.0889055
0.0897517
0.0712924
0.0667505
0.066433
0.0715417
0.076148
0.0801958
0.0834686
0.0858838
0.0875853
0.0885643
0.0889028
0.0886314
0.0928803
0.0923545
0.0910869
0.089049
0.0861864
0.0825132
0.0780579
0.0647006
0.0683558
0.0638916
0.0796592
0.0666463
0.06671
0.0660705
0.0664373
0.0650288
0.0656196
0.0635458
0.064315
0.0619157
0.0627546
0.0601272
0.0610346
0.0582613
0.0592017
0.0563511
0.0573095
0.0544352
0.0553918
0.0525406
0.0534842
0.0506825
0.0516063
0.0488712
0.0497705
0.0471134
0.0479854
0.0454123
0.0462557
0.0437697
0.0445837
0.0421861
0.0429706
0.0406603
0.0414161
0.0391904
0.0399185
0.0377738
0.0384756
0.0364075
0.0370846
0.0350885
0.0357423
0.0338138
0.0344459
0.0325804
0.0331922
0.0313854
0.0319783
0.0302262
0.0308016
0.0291004
0.0296593
0.0280055
0.0285492
0.0269395
0.0274691
0.0259006
0.0264168
0.0248869
0.0253907
0.0238969
0.024389
0.0229292
0.0234104
0.0219828
0.0224535
0.0210565
0.0215172
0.0201493
0.0206005
0.0192606
0.0197027
0.0183891
0.0188219
0.0175336
0.0179609
0.0166743
0.0171054
0.0163659
0.0162436
0.0163057
0.0164781
0.0164237
0.0165788
0.0165284
0.0166686
0.0166261
0.0167394
0.0167064
0.0167906
0.0167674
0.0168225
0.016809
0.0168348
0.0168312
0.0168275
0.0168336
0.0168005
0.0168165
0.0167543
0.0167798
0.0166888
0.016724
0.016603
0.0166488
0.0165063
0.0165541
0.0164023
0.0164548
0.0162931
0.0163478
0.0170711
0.0162312
0.0166504
0.0179142
0.0174924
0.0187672
0.0183385
0.0196384
0.0192006
0.0205275
0.0200807
0.0214349
0.0209789
0.0223614
0.0218957
0.0233077
0.022832
0.0242752
0.0237888
0.0252649
0.0247672
0.0262782
0.0257686
0.0273168
0.0267943
0.0283822
0.027846
0.0294764
0.0289256
0.0306014
0.0300349
0.0317595
0.0311762
0.032953
0.0323517
0.0341846
0.0335639
0.0354567
0.0348154
0.0367721
0.0361089
0.0381335
0.0374469
0.0395435
0.0388323
0.0410045
0.0402676
0.0425185
0.0417549
0.044087
0.043296
0.0457107
0.044892
0.0473891
0.0465432
0.0491199
0.0482482
0.0508987
0.0500038
0.0527178
0.0518039
0.0545653
0.053639
0.056423
0.0554944
0.0582651
0.057348
0.0600543
0.0591694
0.0617367
0.0609128
0.06324
0.0625168
0.0644498
0.06389
0.0652328
0.0649032
0.0654081
0.065419
0.0651848
0.0867544
0.0867678
0.0730572
0.0823093
0.0822293
0.087891
0.0847842
0.0846831
0.0166061
0.0161894
0.0158747
0.0158119
0.0871748
0.0869598
0.0889904
0.0906913
0.091969
0.0927287
0.065999
0.061136
0.0599144
0.0673568
0.0627318
0.0650979
0.0712138
0.0765267
0.0810229
0.0847381
0.0876231
0.0897005
0.0910007
0.0915657
0.0914597
0.0957969
0.0949933
0.0933649
0.0908673
0.0874763
0.083203
0.0781231
0.0823953
0.062426
0.0619326
0.0629473
0.0627553
0.062844
0.063004
0.0621969
0.0625726
0.061133
0.0617096
0.0598061
0.0604963
0.058284
0.0590649
0.0566437
0.0574747
0.0549351
0.0557957
0.0531948
0.0540668
0.0514519
0.0523224
0.0497254
0.0505857
0.0480283
0.0488725
0.0463697
0.0471938
0.0447551
0.0455567
0.0431878
0.0439654
0.0416696
0.0424225
0.0402008
0.040929
0.0387805
0.0394847
0.0374072
0.0380881
0.0360789
0.0367376
0.0347931
0.0354308
0.0335476
0.0341655
0.0323398
0.0329391
0.0311674
0.0317493
0.030028
0.0305937
0.0289197
0.0294702
0.0278403
0.0283765
0.0267879
0.0273109
0.025761
0.0262714
0.0247578
0.0252565
0.0237771
0.0242648
0.0228176
0.0232948
0.0218782
0.0223455
0.020958
0.0214158
0.0200561
0.0205048
0.0191716
0.0196117
0.0183051
0.0187356
0.0174542
0.0178774
0.0170304
0.0159493
0.0158203
0.0158879
0.0160636
0.0160084
0.0161683
0.0161171
0.0162569
0.0162151
0.0163264
0.016294
0.016377
0.016354
0.0164086
0.0163952
0.0164208
0.0164171
0.0164138
0.0164197
0.0163875
0.0164031
0.0163422
0.0163672
0.0162781
0.0163125
0.0161945
0.016239
0.0160937
0.016145
0.015987
0.0160427
0.0159319
0.0169915
0.0161618
0.0165766
0.0178276
0.0174074
0.0186774
0.0182505
0.0195439
0.0191086
0.0204275
0.0199836
0.0213286
0.0208759
0.0222478
0.0217859
0.0231859
0.0227145
0.024144
0.0236625
0.0251231
0.0246309
0.0261245
0.025621
0.0271495
0.026634
0.0281996
0.0276713
0.0292765
0.0287346
0.030382
0.0298256
0.031518
0.0309461
0.0326866
0.0320982
0.0338899
0.0332838
0.0351299
0.0345052
0.036409
0.0357645
0.0377291
0.0370639
0.0390921
0.0384052
0.0404996
0.0397903
0.0419525
0.0412204
0.0434511
0.0426961
0.0449948
0.0442174
0.0465813
0.0457829
0.0482068
0.0473896