/*--------------------------------*- C++ -*----------------------------------*\
  =========                 |
  \\      /  F ield         | OpenFOAM: The Open Source CFD Toolbox
   \\    /   O peration     | Website:  https://openfoam.org
    \\  /    A nd           | Version:  10
     \\/     M anipulation  |
\*---------------------------------------------------------------------------*/
FoamFile
{
    format      ascii;
    class       volScalarField;
    location    "26.5";
    object      p;
}
// * * * * * * * * * * * * * * * * * * * * * * * * * * * * * * * * * * * * * //

dimensions      [0 2 -2 0 0 0 0];

internalField   nonuniform List<scalar> 
6397
(
0.272742
0.258173
0.010544
0.0132134
0.00505323
0.00286093
0.494136
0.259627
-0.387264
-0.405956
0.295903
0.190448
-0.000503048
-0.000502157
-0.00687929
-0.426243
-0.429647
-0.419996
0.848191
0.795408
0.756964
-0.515609
-0.450243
-0.438905
2.16917e-05
-0.000353467
0.000606709
-0.123912
-0.139393
-0.113545
-0.13225
0.0244411
0.0235551
0.0151696
0.0370238
0.0366664
0.031618
0.0312197
0.0434977
0.0439777
0.0411086
0.0407563
-0.0961981
-0.0258108
-0.0334286
-0.000761808
-0.00863517
-0.0129591
0.0458716
0.0453347
0.0454964
0.0449183
0.0453018
0.330183
0.314037
0.209719
0.221045
0.0599497
-0.0875387
-0.108707
-0.0712748
-0.06087
-0.055398
-0.0540559
-0.0572205
-0.0655527
-0.0793792
-0.0976998
-0.0931985
-0.130838
-0.111356
-0.0757528
-0.0632717
-0.0558868
-0.0530967
-0.0542884
-0.0600448
-0.0711486
-0.0880587
-0.110474
-0.1256
-0.14759
-0.118825
-0.136397
-0.132532
-0.154925
-0.138818
-0.161503
-0.131367
-0.150946
-0.151992
-0.178455
-0.123164
-0.110569
-0.15232
-0.181665
-0.108178
-0.0926853
-0.102246
-0.101854
-0.108479
-0.0750949
-0.0896644
-0.0530153
-0.0619985
-0.0474732
-0.0483035
-0.0576046
-0.0503456
-0.0892436
-0.0703842
-0.144776
-0.114629
-0.196068
-0.174639
-0.20138
-0.110096
-0.118347
-0.118487
-0.0791032
-0.0951049
-0.0551673
-0.064826
-0.0502216
-0.0501863
-0.0628131
-0.054285
-0.0964619
-0.076638
-0.145706
-0.121308
-0.171131
-0.164394
-0.150889
-0.165563
-0.0963485
-0.107435
-0.0811111
-0.18886
-0.168273
-0.0847122
-0.106566
-0.0738714
-0.159914
-0.196857
-0.166553
-0.11214
-0.0747334
-0.06431
-0.0940939
-0.13916
-0.0854318
-0.0819683
-0.0776002
-0.0838261
-0.0569189
-0.0679199
-0.0409617
-0.0473752
-0.0385736
-0.0381555
-0.0503783
-0.0424172
-0.0830132
-0.0636066
-0.141405
-0.109283
-0.200434
-0.174754
-0.209923
-0.0811104
-0.0873749
-0.0582727
-0.0704064
-0.0419298
-0.0484311
-0.0434596
-0.0406789
-0.0615753
-0.050519
-0.101027
-0.0783564
-0.153909
-0.127404
-0.178833
-0.172632
-0.153877
-0.171143
-0.13288
-0.0826948
-0.0919572
-0.054741
-0.0693665
-0.0581535
-0.0866905
-0.141226
-0.190904
-0.1608
-0.128483
-0.12408
-0.0303531
-0.0422667
-0.0195343
-0.0812006
-0.0783965
-0.047661
-0.0402289
-0.034992
-0.0862771
-0.104655
-0.115235
-0.0549015
-0.0479716
-0.062252
-0.0599619
-0.0551384
-0.0604153
-0.0385939
-0.0473719
-0.0276015
-0.0318563
-0.0278876
-0.0265433
-0.0400584
-0.032282
-0.070996
-0.0527578
-0.127561
-0.0963274
-0.189086
-0.161448
-0.201278
-0.0515575
-0.0424679
-0.0515959
-0.0547647
-0.036538
-0.0448731
-0.0275579
-0.0305121
-0.0344188
-0.029121
-0.0561538
-0.0433685
-0.0978208
-0.074294
-0.151971
-0.125213
-0.17706
-0.170992
-0.148982
-0.168644
-0.125824
-0.0705371
-0.0781592
-0.0599367
-0.120982
-0.066328
-0.10978
-0.0131292
-0.0317132
-0.0925681
-0.0914596
-0.0433203
-0.0325353
-0.0683793
-0.0653727
-0.091983
-0.0727204
-0.025868
-0.0227513
-0.082764
-0.0526914
-0.0640935
-0.0705132
-0.089315
-0.0359796
-0.0311315
-0.0404456
-0.0394768
-0.0342559
-0.039158
-0.0215219
-0.0278863
-0.0145627
-0.016907
-0.0163751
-0.0145202
-0.0277864
-0.0205853
-0.0552293
-0.0390834
-0.105555
-0.0774562
-0.164998
-0.137006
-0.172831
-0.179448
-0.103121
-0.144094
-0.0307831
-0.0627295
-0.00531332
0.00335424
0.000774022
-0.0207027
-0.0135082
-0.0229465
-0.023933
-0.0147707
-0.0193141
-0.0118069
-0.0117855
-0.0224545
-0.0155655
-0.0457798
-0.0323953
-0.0874189
-0.0640454
-0.141318
-0.114752
-0.165957
-0.160283
-0.137338
-0.15644
-0.114148
-0.0614004
-0.0669556
-0.0532647
-0.0111811
0.00292668
-0.0296112
-0.00699591
-0.0506469
-0.0825478
-0.0214199
-0.0580563
-0.0750158
-0.0573872
-0.0266394
-0.0669377
7.16587e-05
-0.0128157
-0.0433049
-0.0119589
0.0117075
-0.0579829
-0.068141
-0.0122064
-0.0104617
-0.0105974
-0.0181672
-0.0151357
-0.0209615
-0.0203219
-0.0156033
-0.0194188
-0.00623189
-0.0107071
-0.0022771
-0.0033473
-0.00482586
-0.00285759
-0.0147576
-0.00858923
-0.0374057
-0.0241577
-0.0785882
-0.055503
-0.130936
-0.105303
-0.143675
-0.146906
-0.0790054
-0.118666
-0.00177058
-0.0369542
0.0433831
0.0240599
0.0172051
0.0115373
0.0151856
0.015232
0.017487
0.00603454
0.0106974
0.00224442
0.00266031
0.00618942
0.00402693
0.0046905
0.00676586
-0.00820108
-0.000479352
-0.0317414
-0.018465
-0.0716431
-0.0493444
-0.12272
-0.0975829
-0.14577
-0.140614
-0.118664
-0.137408
-0.0963449
-0.00609167
0.00526218
0.0270575
0.0593389
-0.0469244
-0.0432623
-0.0483768
-0.0385093
-0.0586524
-0.05538
-0.0555577
-0.0588493
-0.0413982
-0.0494922
-0.0217111
-0.031982
-0.0113058
-0.0416666
-0.0632753
-0.0261948
-0.0505425
-0.0183925
-0.028328
-0.00469975
-0.0169681
0.0023534
0.0725489
0.0393705
0.000156915
-0.00148171
-0.0543951
0.000656456
0.000880086
-0.00216678
-0.000683417
-0.00384323
-0.00380075
0.000709867
-0.00228327
0.00696168
0.00413008
0.00868014
0.00844857
0.00608708
0.00785886
-0.0020075
0.00295486
-0.019396
-0.00932751
-0.0502505
-0.0329532
-0.091146
-0.0706677
-0.10533
-0.105201
-0.0525895
-0.0869119
0.0257538
-0.0116307
0.0758005
0.0545097
0.105274
0.092179
0.0214093
0.0063363
0.0151884
0.0283632
0.0254832
0.0309837
0.0302765
0.0270095
0.0295098
0.0234635
0.0245463
0.0242757
0.0237854
0.0200875
0.0233155
0.00642938
0.0142968
-0.0159126
-0.00350504
-0.0519157
-0.0318993
-0.0980902
-0.0752129
-0.119559
-0.11451
-0.0944448
-0.111394
-0.0565164
-0.0751705
-0.0279465
-0.0403035
-0.0189519
-0.0418091
-0.0207071
-0.0324269
-0.0532032
-0.0487829
-0.0529444
-0.0546228
-0.0416833
-0.0484357
-0.0237949
-0.0332759
-0.0188081
-0.00544742
0.0833234
0.115738
-0.00438677
-0.013929
-0.0384846
-0.0517275
-0.0307482
-0.0405238
-0.0299001
-0.018779
-0.0337627
0.011373
-0.0207195
-0.0380577
0.0479529
0.122472
0.0920897
-0.00605627
-0.0400263
-0.0207138
0.125205
0.132653
0.130462
0.00414521
-0.00829525
0.00100643
-0.047413
0.00981901
0.00782181
0.0120396
0.0115175
0.0110045
0.0117317
0.0105843
0.0103589
0.0141242
0.0119373
0.0178477
0.0163124
0.0182134
0.0184106
0.015942
0.0174021
0.0097294
0.01348
-0.00268761
0.004411
-0.0237291
-0.0120227
-0.0514836
-0.0374599
-0.0636478
-0.0619663
-0.0247216
-0.0514068
0.0456288
0.0104729
0.096672
0.0747633
0.123578
0.112565
0.130481
0.0161226
0.00627705
0.0298181
0.023809
0.0374262
0.0340512
0.0420758
0.0399783
0.0426842
0.0429998
0.0403884
0.0415678
0.038804
0.0396171
0.0331916
0.0368705
0.0201435
0.027484
0.000553353
0.011249
-0.0296434
-0.0128713
-0.0696456
-0.0495787
-0.0890688
-0.0843917
-0.068582
-0.0824728
-0.0365445
-0.0521964
-0.0132886
-0.0235451
-0.00560031
-0.017633
-0.00607563
-0.037675
-0.0281805
-0.0509119
-0.0454295
-0.0533794
-0.0536404
-0.0444264
-0.0501596
-0.0278893
-0.0367983
-0.0182292
-0.0410096
-0.0467198
-0.0420408
-0.0370928
-0.0490629
-0.0162243
-0.057842
0.0144859
-0.0637917
0.0537364
-0.0374915
-0.0634807
0.0998578
0.123905
0.122779
-0.0167648
-0.055387
-0.0291808
0.114214
0.119053
0.109981
-0.0145102
-0.00441666
0.0129375
0.00918304
-0.0467176
0.0187893
0.0162338
0.0217076
0.0205655
0.0217553
0.0218654
0.0221601
0.0216544
0.0247421
0.0232917
0.0265686
0.0259357
0.0262837
0.0266182
0.024507
0.0256219
0.0200407
0.0226913
0.0118149
0.0164458
-0.00110743
0.00594766
-0.0167599
-0.00900391
-0.022859
-0.0224208
0.00496186
-0.0140635
0.0596062
0.0313404
0.10453
0.0849235
0.127096
0.118394
0.130703
0.131124
0.126485
0.00647162
-0.00473813
0.0243788
0.0161547
0.0366099
0.0310125
0.044438
0.0409653
0.0499001
0.0473167
0.0532756
0.0519904
0.0530406
0.0535944
0.0504396
0.0519646
0.0443971
0.0480219
0.0330134
0.0393022
0.0172076
0.0256776
-0.00650603
0.00679773
-0.040482
-0.0231336
-0.0578726
-0.0534836
-0.042091
-0.0528789
-0.0176525
-0.0293233
0.000154093
-0.00773125
0.00607675
0.00635605
0.0162685
-0.0152345
-0.0043593
-0.0356756
-0.0257068
-0.0512256
-0.0444197
-0.0567842
-0.0554842
-0.0503353
-0.0549848
-0.0344595
-0.0432639
-0.0247142
-0.0510316
-0.0493527
-0.0624504
-0.0423778
-0.0778715
-0.0210361
-0.0912693
0.0138314
-0.0967985
0.0592976
-0.0903997
0.103727
-0.0407749
-0.0728775
0.114356
0.0928982
0.0983853
0.00385719
-0.0539002
0.0213405
0.0134979
0.0170254
0.02647
0.0234799
0.0294129
0.0278624
0.0301066
0.0298144
0.031106
0.0304064
0.0327695
0.0319578
0.033395
0.0332635
0.0329697
0.033264
0.0316974
0.032493
0.0287506
0.0304614
0.0238107
0.0265409
0.016885
0.0205385
0.0101586
0.0132093
0.0109961
0.00888319
0.0326258
0.0187321
0.0717379
0.0514085
0.105861
0.0905612
0.123324
0.116826
0.123891
0.125581
0.109113
0.118273
0.0843715
0.0954278
-0.00102916
-0.0173703
-0.00966647
0.0164262
0.00794744
0.0311232
0.024201
0.0419407
0.0369223
0.0496614
0.0461398
0.0554265
0.0526832
0.0599105
0.0578872
0.0616295
0.0613198
0.0598285
0.0611292
0.054613
0.0576497
0.0457787
0.050598
0.034018
0.0402771
0.0153763
0.0261261
-0.0136324
0.00124503
-0.0285018
-0.0246318
-0.0175684
-0.025082
-0.000381599
-0.00866515
0.0120154
0.00640596
0.0199186
0.0165017
0.0222473
0.00735
0.0249769
0.0168253
-0.0135605
-0.00282532
-0.0356314
-0.0246334
-0.0542658
-0.0457835
-0.0633851
-0.0603044
-0.0595796
-0.0631455
-0.0439099
-0.05289
-0.0220567
-0.0334351
0.000775876
-0.00967522
-0.0497575
-0.022941
0.0747879
0.0690537
-0.0708715
-0.0616248
0.0305023
-0.0941899
-0.0562539
0.0208115
-0.00109622
0.0143175
-0.118451
-0.0306494
-0.134894
0.0133017
-0.135903
0.0668901
-0.118574
0.10232
-0.0874442
0.100806
-0.0253799
-0.0538833
0.0792398
0.0543437
0.0512966
-0.0710887
0.0275825
0.0232432
0.0323242
0.0297158
0.0352224
0.0338143
0.0366494
0.035925
0.0377541
0.0371768
0.0386146
0.038279
0.0386881
0.0387381
0.0383732
0.0385664
0.0375662
0.0380705
0.0358694
0.0368301
0.0333468
0.0346999
0.0305146
0.0318878
0.029466
0.0295578
0.0349634
0.0309833
0.0533078
0.0424101
0.0812988
0.0669619
0.105308
0.094474
0.117258
0.113027
0.115706
0.118229
0.10174
0.110207
0.0783536
0.0904931
0.0487191
0.0643486
-0.000770371
-0.00611834
-0.00455154
0.0111253
0.00466152
0.0246189
0.017785
0.0365338
0.0307985
0.0460384
0.0415757
0.0533827
0.0499442
0.0591885
0.0564242
0.0639522
0.0617149
0.0668134
0.0656468
0.0665965
0.0670933
0.0634686
0.0653554
0.0578174
0.060929
0.0495193
0.054106
0.0337867
0.0430683
0.00937569
0.0216592
-0.00265853
0.000666704
0.00356076
-0.000883789
0.0141811
0.00896285
0.0222971
0.0183783
0.0277123
0.0253043
0.0292952
0.025293
0.0318563
0.00842301
0.0173594
-0.0130305
-0.00176768
-0.0378189
-0.0252669
-0.0601934
-0.0497652
-0.07323
-0.0682254
-0.0721159
-0.0746012
-0.0563586
-0.0658583
-0.0311091
-0.0443364
-0.0166268
-0.0242467
-0.00542326
0.0315494
0.0317994
-0.102431
-0.0835926
0.0299582
0.0275085
-0.139029
-0.0754956
-0.170562
-0.0399367
-0.185597
0.0177505
-0.176066
0.0730458
-0.142147
0.093365
-0.095217
0.0817624
-0.0522205
0.0564527
-0.00277479
-0.0199933
0.0311376
0.00918723
0.0112506
0.00119172
0.0374642
0.0106605
0.0143042
-0.0991877
0.0329139
0.0298877
0.0371524
0.0349243
0.0398731
0.0386945
0.0414571
0.0408102
0.0424339
0.0420591
0.0428137
0.0427227
0.0427717
0.042828
0.0426277
0.0427187
0.0422405
0.042483
0.0415202
0.0419131
0.0407003
0.0410987
0.0404869
0.040439
0.0426362
0.0411167
0.050193
0.045523
0.0658662
0.057021
0.0863733
0.0760277
0.103163
0.095685
0.110666
0.108212
0.107605
0.110431
0.0946052
0.102304
0.0738188
0.0850272
0.0474109
0.0611672
0.0181145
0.0328808
0.00738945
0.00765023
0.0114594
0.00873066
0.0204988
0.0155135
0.0309392
0.0256979
0.0407936
0.0359592
0.0491725
0.0451945
0.0560097
0.0527535
0.0616843
0.0589676
0.0664455
0.0641835
0.0698036
0.0683242
0.0709334
0.0706652
0.0698958
0.070638
0.0671119
0.0687317
0.0612961
0.0647911
0.0477568
0.0557342
0.0283514
0.0378686
0.0185879
0.021697
0.0205122
0.0186851
0.0257741
0.0231025
0.0303936
0.0282043
0.0339471
0.0323189
0.0358718
0.035238
0.0363596
0.0258257
0.0323341
0.00912871
0.0181821
-0.0141178
-0.00170842
-0.0421257
-0.0278551
-0.0684206
-0.055958
-0.0855303
-0.0785539
-0.0872277
-0.0885567
-0.0713507
-0.0813831
-0.041783
-0.0575814
-0.00431585
-0.0239156
0.0238909
0.0113643
-0.146629
-0.112955
0.00370836
-0.00316872
0.0357057
0.0208414
0.0315287
0.0219364
0.0100255
-0.194839
-0.0950854
-0.228122
-0.0437745
-0.234162
0.0258454
-0.207284
0.0730767
-0.153807
0.075828
-0.0935089
0.0569443
-0.0448741
0.0297035
0.0133638
0.0200625
0.0209213
0.0151118
-0.0131311
0.00562563
0.00522483
0.0121418
0.0406418
0.0204714
-0.137683
0.0378649
0.0383517
0.0385618
0.0380304
0.0413821
0.0399798
0.0436086
0.0427194
0.0449702
0.044463
0.0456614
0.0454466
0.0458529
0.0458232
0.0458731
0.0458747
0.0458995
0.0458935
0.045874
0.0458963
0.0458732
0.0458582
0.0461974
0.0459659
0.0475563
0.0466821
0.0512971
0.049028
0.0592868
0.0546579
0.0724278
0.0652821
0.087607
0.0800609
0.0994534
0.0942632
0.103947
0.102715
0.10005
0.103023
0.0882647
0.0950677
0.0698598
0.0797596
0.0468906
0.0587932
0.0344117
0.0178147
0.0188684
0.0172759
0.0172017
0.0206527
0.0184011
0.0274871
0.0237675
0.0358894
0.0316254
0.044142
0.0400789
0.0514955
0.0479571
0.0577905
0.0547588
0.0632133
0.0606
0.067857
0.0656346
0.0714057
0.0697893
0.073352
0.0725911
0.073732
0.0737014
0.0727633
0.0734545
0.0686372
0.0713124
0.057814
0.0641163
0.0431946
0.0503237
0.0345951
0.037882
0.0331667
0.0332733
0.0347205
0.0337837
0.0368137
0.0357665
0.0388073
0.0378556
0.040033
0.0395036
0.0403175
0.0378927
0.0415473
0.0266185
0.032947
0.00908221
0.0188188
-0.0164231
-0.00274406
-0.0473166
-0.0315254
-0.0772719
-0.0628815
-0.0983023
-0.0894205
-0.10282
-0.102971
-0.0869562
-0.0974181
-0.0532358
-0.071876
-0.0130948
-0.0330734
0.00460103
-0.0108158
0.0307175
-0.00998505
-0.00117426
-0.1999
-0.145129
-0.252752
-0.108627
-0.278388
-0.0374124
-0.0201433
-0.266196
0.0345168
-0.218617
0.0616472
-0.1483
0.0500378
0.0211381
0.0264091
0.0262027
0.0206472
-0.0812432
0.0261771
0.0157256
-0.03363
-0.000998911
0.00864136
-0.00540515
-0.0216219
0.0285219
0.0450157
0.0441765
-0.0227819
-0.0114768
0.0451218
-0.182381
0.0428693
0.0370806
0.0394918
0.0444641
0.044988
0.0441414
0.0445615
0.0451174
0.044572
0.0464878
0.0459421
0.0474339
0.0470761
0.0478943
0.04775
0.0480522
0.0480079
0.0481688
0.0481109
0.0483491
0.0482536
0.0486212
0.0484699
0.0491266
0.0488313
0.0501809
0.0495572
0.052404
0.0510965
0.0567658
0.0542538
0.0643417
0.0601093
0.0751453
0.0694287
0.0865518
0.0809513
0.0949761
0.0913629
0.0975039
0.0970517
0.0932785
0.0962156
0.0826587
0.0887099
0.0666205
0.0752066
0.0468818
0.0570447
0.0258209
0.0362968
0.00658346
0.0157721
-0.020391
-0.00882788
-0.00169919
0.0256478
0.0262006
0.0245742
0.0250603
0.0246936
0.0243717
0.0274963
0.025748
0.032921
0.0299507
0.0397571
0.0362559
0.0467153
0.0432646
0.0531866
0.0500341
0.0589494
0.0561529
0.0640484
0.0615777
0.0684941
0.066356
0.0720598
0.0704108
0.0744372
0.0734035
0.0756069
0.0751538
0.0755606
0.0757792
0.0726926
0.074641
0.0646098
0.069301
0.053542
0.0590424
0.0455261
0.0489598
0.0420598
0.0433375
0.0412922
0.041467
0.041664
0.041403
0.0424043
0.0420234
0.0430451
0.0427815
0.043308
0.0433221
0.0435529
0.0383687
0.0420093
0.0271121
0.0334581
0.008605
0.0189557
-0.0185497
-0.00398105
-0.0515339
-0.0346013
-0.0844662
-0.0684908
-0.10879
-0.0982752
-0.115823
-0.114904
-0.100243
-0.110906
-0.0646136
-0.0843999
-0.0246999
-0.0441075
0.00328112
-0.00710061
0.0158702
-0.251779
-0.171835
-0.0139731
0.00121015
-0.00257035
-0.298302
-0.109733
-0.0325849
-0.30518
-0.0246798
-0.269438
0.0338088
-0.0365105
0.0257536
0.0317657
0.0322568
0.0253884
-0.205064
0.0365608
0.0194369
-0.125112
0.0163705
-0.0273752
-0.034224
0.0150041
-0.0617926
-0.0105692
0.0102664
-0.0198912
-0.0347416
0.00117366
0.0415967
0.0346222
0.0394976
0.0248834
0.0450976
0.0449236
0.0319988
-0.223305
0.0469312
0.044241
0.0485729
0.0484439
0.0481119
0.0485548
0.0480506
0.0480564
0.048574
0.0483409
0.0491133
0.0488923
0.0494327
0.0493257
0.0496022
0.049529
0.0498108
0.0496999
0.0501261
0.0499534
0.0506247
0.050346
0.0514671
0.0509897
0.0529528
0.0521052
0.0555846
0.0540896
0.0600255
0.0575417
0.0668253
0.063124
0.0755636
0.0710516
0.0842977
0.0801122
0.0903218
0.0877993
0.0915784
0.0916062
0.0873428
0.0901347
0.0778524
0.0832048
0.0640188
0.0713896
0.0471977
0.0558436
0.0294773
0.0382698
0.0134434
0.0210872
0.00670502
0.0312769
0.0314667
0.0306032
0.0309838
0.0300132
0.0302189
0.0303751
0.0300254
0.0326943
0.0312415
0.0371361
0.0347128
0.0427392
0.0398064
0.0486858
0.0457197
0.0543931
0.0515871
0.0596392
0.0570777
0.0643767
0.0620702
0.0685652
0.0665483
0.0720354
0.0703663
0.0746006
0.0734421
0.0761565
0.0754972
0.0765507
0.0765379
0.0745294
0.0759529
0.0684454
0.0719896
0.0597574
0.0641687
0.0523978
0.0557414
0.0480016
0.049858
0.0459228
0.0467527
0.0451758
0.0454433
0.0450575
0.0450716
0.0451913
0.0451303
0.0451855
0.0452278
0.0452805
0.0442923
0.0455054
0.045486
0.0386049
0.04201
0.027471
0.0338616
0.0085408
0.0191119
-0.0192678
-0.004269
-0.0532867
-0.035755
-0.0879689
-0.0710412
-0.114374
-0.102804
-0.123142
-0.121457
-0.108283
-0.118724
-0.0731906
-0.0926242
-0.0340846
-0.0529284
-0.00118738
-0.0155296
0.0115786
-0.0173926
-0.00444707
-0.287877
-0.18294
-0.0497696
-0.316639
-0.0986692
0.0331749
0.0400731
0.0424267
0.0346784
-0.298138
-0.0151958
-0.0541886
0.0253645
-0.242131
0.0152808
0.0178774
-0.171298
0.000390695
-0.0327451
-0.051583
0.0129414
-0.094156
-0.0253806
-0.0438854
0.00964452
-0.0379534
-0.052981
0.00503081
-0.00737804
0.0373934
0.0458494
-0.0191591
-0.00484073
-0.247979
0.0445247
0.0405827
0.0426661
0.0490004
0.0469286
0.0506141
0.0502565
0.0502895
0.050582
0.0499087
0.0500889
0.0499373
0.049909
0.0502064
0.0500722
0.0504472
0.0503854
0.0506332
0.0505323
0.0509216
0.0507653
0.0513535
0.0511167
0.0520143
0.0516478
0.0530664
0.0524793
0.0547757
0.0538191
0.0575316
0.0559981
0.0617653
0.0594446
0.0676955
0.0645303
0.074797
0.0711783
0.0815109
0.078399
0.0858302
0.0840702
0.0862575
0.086578
0.082195
0.0847823
0.0738148
0.0784939
0.0619324
0.0682439
0.047661
0.0549782
0.0329087
0.0402077
0.0196322
0.0259239
0.00999996
0.0141731
0.00627109
0.00727063
-0.00387025
0.00927359
0.00685738
0.0371638
0.0383131
0.035856
0.03642
0.0349315
0.0353511
0.0344072
0.0345934
0.0347998
0.0344598
0.0367568
0.0355188
0.0403944
0.0383358
0.0450719
0.0426135
0.0501827
0.047618
0.0552211
0.0527265
0.059974
0.0576408
0.0643395
0.0622074
0.068248
0.0663575
0.071561
0.069971
0.0741196
0.0729422
0.0757959
0.0750699
0.0763343
0.0762413
0.074764
0.0758891
0.0699757
0.0727623
0.0629769
0.0665852
0.0564031
0.0594893
0.051779
0.053841
0.0490441
0.050221
0.0476104
0.0482049
0.0469466
0.0471904
0.0466261
0.0467006
0.0463683
0.0464141
0.0463644
0.0461364
0.0459772
0.0442908
0.0456237
0.0388094
0.0420279
0.0280426
0.0342691
0.0095058
0.019832
-0.0182058
-0.00288433
-0.0518923
-0.0344511
-0.086695
-0.0696563
-0.113526
-0.101712
-0.122866
-0.120875
-0.108938
-0.118863
-0.075123
-0.0939608
-0.0361019
-0.0549247
-0.000583254
-0.0164807
0.0233453
0.0120715
0.0360435
0.0306755
-0.0700608
-0.296506
-0.176985
0.0389928
0.0460144
0.0450615
0.0367084
-0.301092
-0.0839388
0.0130917
-0.000648193
-0.0774077
0.0258242
-0.259538
-0.0220211
-0.0194967
0.0163674
-0.191829
-0.0220586
-0.0364981
-0.0743364
0.0098675
-0.119312
-0.0459953
-0.0517736
0.00669966
-0.0572757
-0.0760229
-0.064716
0.00517328
-0.0162908
-0.09886
0.000774906
0.0182817
0.0290411
0.0329873
0.0481822
0.0528828
-0.247331
0.0419502
0.0394989
0.0411046
0.0459271
0.0440031
0.0497519
0.0480533
0.0514047
0.0509003
0.0512589
0.0514416
0.0508467
0.0510459
0.0506869
0.0507416
0.0508144
0.0507209
0.0510213
0.0510883
0.0512358
0.0511051
0.0516019
0.0514032
0.0521277
0.0518414
0.0529002
0.0524763
0.05407
0.0534244
0.0558656
0.0548742
0.0585784
0.0570912
0.0624729
0.0603706
0.0675733
0.0648923
0.0733284
0.0704353
0.0785307
0.0760497
0.081657
0.0804325
0.0815582
0.0820479
0.0777591
0.0801173
0.0704331
0.0744935
0.0602698
0.0656518
0.0482552
0.0544022
0.0360428
0.0420351
0.025124
0.0302846
0.0175798
0.0208037
0.0154403
0.0157893
0.019249
0.016482
0.0237292
0.0522182
0.059971
0.0555449
0.0460915
0.0490204
0.0420852
0.0437021
0.040014
0.0408539
0.0387573
0.0392886
0.0379917
0.0382354
0.0383384
0.0379609
0.039935
0.0389328
0.0429423
0.0412808
0.0468949
0.0448326
0.0512943
0.0490702
0.0557466
0.0535296
0.0600355
0.0579207
0.064032
0.062075
0.0676469
0.0658918
0.0707543
0.0692703
0.0731913
0.0720606
0.0748186
0.0741144
0.0753276
0.075242
0.0739737
0.0749329
0.0700564
0.0723232
0.0642946
0.0672955
0.0585205
0.0612852
0.0540278
0.0560931
0.051022
0.0523604
0.0491889
0.0499838
0.0481083
0.0485652
0.0474181
0.0477169
0.0468933
0.0471306
0.0464483
0.0466389
0.045809
0.046167
0.044305
0.0455616
0.03931
0.0422767
0.0290852
0.0350312
0.0112095
0.0211778
-0.0151158
-0.000879285
-0.0475667
-0.0308344
-0.0807545
-0.0645382
-0.106131
-0.0950048
-0.114627
-0.112946
-0.101054
-0.110605
-0.0687834
-0.0866892
-0.0302789
-0.0492592
0.00338691
-0.0117364
0.0249647
0.0152065
0.03567
0.0314036
0.0373495
0.0395918
-0.276445
-0.159067
0.0243501
0.0314548
0.0390812
0.0442483
0.0391099
0.00583351
-0.105675
0.0270804
-0.258832
-0.0801303
-0.0167512
0.0154387
-0.20182
-0.0531985
-0.0380318
-0.103448
0.00646086
-0.129451
-0.0759184
-0.0577571
0.00183334
-0.0651413
-0.10543
-0.0916312
-0.0755865
0.00139689
-0.0224392
-0.133506
0.00282256
-0.00120141
0.0672055
0.0504789
0.0438392
-0.226844
0.0424311
0.0406198
0.0462455
0.04426
0.0496334
0.0480583
0.0512629
0.0506537
0.051417
0.0514443
0.0511228
0.05127
0.0509377
0.0510067
0.0509099
0.0509182
0.0511077
0.0507939
0.0514831
0.0512992
0.0519259
0.0516891
0.0525272
0.0522031
0.0533735
0.0529135
0.0545995
0.0539296
0.0563959
0.0554148
0.0589759
0.057578
0.0624885
0.0606155
0.0668509
0.0645858
0.0715464
0.0692093
0.0756107
0.0737197
0.0778675
0.0770308
0.0774476
0.0780216
0.0739738
0.076085
0.067621
0.0711224
0.0589608
0.063527
0.0489092
0.0540337
0.0387842
0.043759
0.030042
0.0341278
0.0242646
0.0266216
0.0232252
0.0231506
0.0273558
0.0245842
0.0361484
0.0315404
0.02639
0.0372446
0.0463536
0.0407577
0.0576514
0.0665783
0.061395
0.0513531
0.0544152
0.0465281
0.0487234
0.0436752
0.0448668
0.0420136
0.0427534
0.0410772
0.0414364
0.0412078
0.0409908
0.0425048
0.0417095
0.0449663
0.0436057
0.0482956
0.046552
0.0520903
0.0501589
0.0560248
0.0540561
0.0598812
0.0579726
0.0635182
0.0617331
0.0668345
0.0652213
0.069706
0.0683348
0.0719635
0.0709146
0.0734556
0.0728166
0.0738638
0.0738193
0.0726261
0.0734815
0.0693207
0.0712179
0.0644928
0.0670183
0.0594409
0.0618991
0.0552215
0.0571991
0.0521554
0.0535509
0.0500967
0.0510169
0.048734
0.0493453
0.0477647
0.0482252
0.046978
0.0473756
0.0461924
0.0466027
0.0452761
0.0458366
0.0456387
0.0446547
0.044423
0.0454278
0.0400455
0.0427101
0.0304379
0.0360622
0.0134641
0.022921
-0.0112136
0.00203396
-0.0413033
-0.0258525
-0.0714398
-0.0568095
-0.0937349
-0.0840963
-0.100115
-0.0992971
-0.0864443
-0.0957547
-0.0562429
-0.0728551
-0.0207107
-0.0383347
0.00899237
-0.00418757
0.0277768
0.0194494
0.035996
0.0328503
0.0375184
0.0163456
-0.145752
0.0290306
-0.238517
-0.144552
0.0384032
0.0737036
-0.00881962
0.0154812
-0.204453
-0.100028
0.0358008
0.0475539
0.0553924
-0.0351125
0.0696836
0.0615632
-0.14009
0.00341705
-0.138141
-0.108938
-0.0605083
-0.0041279
-0.0670133
-0.147002
-0.126203
-0.0840592
-0.00573544
-0.0164771
-0.178571
-0.105734
-0.00172411
0.0032477
-0.194017
0.0179302
0.0299682
0.00442612
0.0408277
0.0389783
0.0322368
-0.19964
0.042289
0.0403018
0.0458429
0.0441004
0.048889
0.0474997
0.0505511
0.0498946
0.0510009
0.0508808
0.0509147
0.0509786
0.050805
0.0508465
0.0508179
0.050798
0.0510366
0.0508607
0.051443
0.0512318
0.0519502
0.0516811
0.0526128
0.0522588
0.0535082
0.0530261
0.054754
0.0540796
0.0565044
0.0555574
0.0589127
0.0576206
0.0620499
0.0603941
0.0657794
0.0638625
0.0696339
0.0677339
0.0728322
0.0713686
0.0744693
0.073886
0.0738697
0.0744705
0.0707515
0.0726209
0.0652601
0.0682716
0.0579098
0.0617697
0.0495314
0.053783
0.0412245
0.0452975
0.0342176
0.0374751
0.0299915
0.0316329
0.0297833
0.0292893
0.0340959
0.0313204
0.0421788
0.0379369
0.0528252
0.0465499
0.0822729
0.076733
0.0867681
0.0718458
0.0787486
0.0623926
0.0664931
0.0557277
0.0588881
0.0503635
0.0528078
0.0469412
0.0484374
0.0448727
0.0457853
0.0437197
0.0441834
0.0435948
0.0435221
0.0445663
0.0439513
0.0465595
0.0454478
0.0493565
0.0478808
0.0526312
0.0509546
0.0561001
0.0543568
0.0595534
0.0578388
0.0628456
0.0612264
0.0658651
0.0643948
0.0684795
0.0672338
0.0705474
0.0695918
0.0718753
0.0713149
0.0721714
0.0721715
0.0710165
0.0717943
0.0681637
0.0697874
0.0640538
0.0662059
0.0596111
0.0618029
0.0557009
0.0575596
0.0526769
0.0540779
0.0504949
0.0514939
0.0489317
0.0496564
0.047737
0.0483168
0.0467112
0.0472307
0.0456891
0.0462057
0.0445537
0.045162
0.0433328
0.0439716
0.0450031
0.0434246
0.0442214
0.0444467
0.0450913
0.0406791
0.0430644
0.0316386
0.0369596
0.0156127
0.0245255
-0.00727919
0.00492953
-0.0344386
-0.0205994
-0.060612
-0.0480609
-0.0787374
-0.0711278
-0.0821908
-0.0825797
-0.0683181
-0.0773306
-0.0410369
-0.0558269
-0.0102449
-0.0254363
0.0147457
0.00363712
0.030185
0.0234905
0.0364992
0.0341225
0.037926
0.0376729
0.0369307
0.00368818
0.0164443
-0.199508
-0.150153
0.0374623
0.0612062
0.0425233
-0.0262121
0.0185174
0.00448928
0.0819921
0.0746886
-0.191317
0.00118113
-0.153433
-0.147783
-0.0576875
-0.0101413
-0.0807498
-0.187894
-0.171025
0.031681
-0.0884048
-0.0151436
-0.0148346
-0.236235
-0.116631
-0.0119823
0.0186903
-0.261022
-0.144292
-0.000375821
0.0141211
0.0600139
0.0247508
0.050219
0.0366324
0.0532575
0.0186277
-0.183794
0.0414336
0.0394333
0.044985
0.0432945
0.0477982
0.0464809
0.0495309
0.0488024
0.0502225
0.0499706
0.0503582
0.0503225
0.050371
0.0503606
0.0504637
0.0504019
0.0507247
0.0505631
0.0511562
0.0509252
0.0517163
0.0514201
0.0524314
0.0520522
0.0533634
0.0528659
0.0546113
0.0539416
0.0562974
0.0553933
0.0585283
0.0573421
0.0613235
0.0598615
0.0645226
0.0628929
0.0677124
0.066154
0.0702558
0.0691071
0.0714502
0.0710565
0.0707648
0.0713583
0.0679914
0.0696339
0.0632673
0.0658466
0.0570514
0.0603037
0.0500843
0.053604
0.0433164
0.0466152
0.037795
0.0403317
0.0347244
0.0358817
0.0351305
0.0344452
0.0396567
0.0368658
0.0470877
0.043113
0.0579478
0.0518125
0.0704064
0.0739159
0.0654675
0.0659792
0.0921466
0.0875751
0.0902532
0.0986684
0.0957654
0.0761693
0.0827304
0.0663198
0.0707455
0.0592474
0.0625858
0.053665
0.0562644
0.0498018
0.0515269
0.0473685
0.0484432
0.0459733
0.0465527
0.0455846
0.0456521
0.046231
0.0457867
0.0478139
0.0469176
0.0501468
0.0489052
0.0529605
0.0515117
0.0560038
0.0544677
0.0590807
0.0575481
0.0620454
0.0605843
0.0647791
0.0634472
0.0671564
0.0660204
0.0690225
0.0681627
0.0701902
0.0697045
0.0703932
0.0704275
0.0693153
0.0700251
0.0668176
0.0682299
0.0632624
0.0651247
0.0593205
0.0612841
0.0557079
0.0574452
0.0527652
0.054149
0.0505107
0.0515623
0.0487883
0.0496021
0.0473957
0.0480739
0.0461518
0.0467697
0.0449179
0.0455295
0.0436508
0.0443288
0.0421015
0.0428774
0.0412209
0.0428515
0.0403023
0.0416908
0.0444965
0.0438889
0.0443225
0.0446805
0.0410443
0.0432046
0.0324592
0.0375308
0.017274
0.0256949
-0.00390438
0.00730115
-0.0280532
-0.0158895
-0.049998
-0.0396784
-0.0635886
-0.0581918
-0.0638744
-0.0655622
-0.0498489
-0.0584942
-0.0258179
-0.0386056
-0.000212379
-0.0127079
0.0199239
0.0109631
0.031936
0.0268191
0.0365001
0.0349163
0.0364022
0.036915
0.0342297
0.0354076
-0.0120356
0.0654948
0.0195004
0.0388773
0.0537024
-0.254143
0.0074216
0.00023087
-0.175507
-0.183706
-0.0480428
-0.0154991
-0.116876
-0.222368
0.0804044
0.0830567
-0.232209
0.0462699
0.0725706
0.0676083
0.0931224
0.101031
0.0393635
0.0388033
0.0378043
0.0329805
0.0327785
0.0313528
-0.0862773
-0.0252953
-0.0383258
-0.286713
-0.0130739
0.00340143
-0.122903
-0.0260583
0.0193709
-0.339008
-0.195297
-0.157811
-0.00286662
0.0202578
-0.0144312
0.0351418
-0.344913
0.00899872
0.00171201
-0.19272
0.0363723
0.034665
0.0402071
0.0382682
0.0437328
0.042049
0.0465226
0.0452273
0.0483354
0.0475502
0.0492243
0.0488694
0.0495553
0.0494297
0.0496985
0.0496314
0.0498759
0.0497745
0.0501834
0.0500086
0.0506499
0.050399
0.0512563
0.050936
0.0520188
0.0516166
0.0529844
0.0524727
0.0542319
0.053568
0.0558553
0.0549923
0.057924
0.0568333
0.0604239
0.0591273
0.0631875
0.0617911
0.0658528
0.0645616
0.0678991
0.0669868
0.0687736
0.06851
0.068064
0.0686289
0.0656167
0.0670515
0.0615698
0.0637699
0.0563327
0.0590626
0.0505581
0.0534629
0.0450732
0.0477261
0.0407947
0.0427258
0.0386984
0.0394223
0.0396467
0.0387499
0.0441413
0.0414765
0.0514339
0.047481
0.0621674
0.0562758
0.0768065
0.0690393
0.0769035
0.0948212
0.0826578
0.0891844
0.102688
0.0992402
0.107616
0.105386
0.0795982
0.0859102
0.0696315
0.0741979
0.0622113
0.0656896
0.0564469
0.059142
0.0522785
0.0541691
0.0495353
0.0507567
0.0478929
0.0485921
0.0472458
0.0474482
0.0475805
0.0472984
0.0487925
0.0480892
0.0507093
0.0496786
0.0531039
0.051863
0.0557544
0.0544102
0.0584796
0.0571175
0.061136
0.0598238
0.0636024
0.0623994
0.0657551
0.0647248
0.0674408
0.0666641
0.0684727
0.0680486
0.0686134
0.0686664
0.0676202
0.0682645
0.0654136
0.0666554
0.0622731
0.0639306
0.058761
0.0605299
0.0554111
0.0570395
0.0525512
0.053914
0.0502392
0.0513342
0.0483721
0.0492656
0.0467888
0.0475622
0.0453349
0.0460543
0.0439219
0.0446149
0.042481
0.0432054
0.0407257
0.0416169
0.0397657
0.0421336
0.0408201
0.0439014
0.0432811
0.0438896
0.0441114
0.0408805
0.0429206
0.0325469
0.037478
0.0179607
0.0260094
-0.00171836
0.00858711
-0.0230166
-0.0124568
-0.0408508
-0.0327048
-0.0500207
-0.0467804
-0.0472547
-0.0501869
-0.0330834
-0.0413795
-0.0120732
-0.0230145
0.00881012
-0.00123561
0.0245121
0.0175692
0.0333455
0.0296784
0.0361131
0.0353585
0.0351417
0.0359343
0.0341038
-0.0316154
0.0741749
-0.0151832
-0.0194007
-0.173471