/*--------------------------------*- C++ -*----------------------------------*\
  =========                 |
  \\      /  F ield         | OpenFOAM: The Open Source CFD Toolbox
   \\    /   O peration     | Website:  https://openfoam.org
    \\  /    A nd           | Version:  10
     \\/     M anipulation  |
\*---------------------------------------------------------------------------*/
FoamFile
{
    format      ascii;
    class       surfaceScalarField;
    location    "26.5";
    object      phi;
}
// * * * * * * * * * * * * * * * * * * * * * * * * * * * * * * * * * * * * * //

dimensions      [0 3 -1 0 0 0 0];

internalField   nonuniform List<scalar> 
57492
(
0.000244689
-1.10925e-05
-4.54374e-05
-0.000188159
-0.000169962
0.000278638
0.000136013
-2.90264e-05
8.16864e-05
0.000326402
-0.000379062
0.00315946
0.00338652
-0.000271925
-0.00627405
-0.00862818
0.00404533
0.0077423
0.00100469
-0.000931298
-0.000487521
0.000414127
-0.00180266
0.000336593
-0.000129547
0.00159562
0.000374745
-0.00117272
0.00152085
-0.00462943
0.00442445
-0.00131587
0.00128808
0.00424983
-0.00401706
-0.000655984
-0.000220322
0.000730444
0.000145862
-0.000126706
-0.000876581
0.000347304
0.000248742
-0.00034527
-3.01786e-05
-5.70498e-05
8.54695e-05
0.00229687
-0.0022023
-0.000827794
0.000733229
0.000317073
0.00184997
0.000129826
-0.000324041
0.000787552
0.00333815
-0.00380166
-0.000661082
0.00326397
-0.00292693
0.000135692
-0.000289388
0.000153697
-0.00166947
0.00122394
0.000581218
-0.0046683
0.000195628
0.00334405
0.00112863
0.0012231
-0.00473723
-0.00115417
-0.000134881
-0.000211805
-0.000723748
0.00107043
-0.000297659
0.000185436
-2.26585e-05
-0.00260915
0.00220751
0.000757959
-0.000356315
-0.00310019
0.000917716
-0.000426676
-0.00112683
0.000595284
0.000457
7.45469e-05
-0.00077865
-0.000361744
1.3562e-05
-0.00036903
-0.00113982
0.00129912
0.000209722
-0.000418273
0.000117158
-6.79146e-05
0.0010476
-0.000699028
-0.000650698
0.00030213
-0.000905242
0.000712492
0.00124035
-0.00122985
-0.00235852
0.00223221
0.00135616
-0.00274731
-0.000670516
0.00218797
-0.00071068
-0.000153123
0.000863803
-0.000272608
-0.000438071
-0.00138044
0.00190038
-0.000792548
0.000203974
-0.000770775
-0.000813636
-0.000808536
0.00114513
-0.000234098
-0.00190169
0.00115074
0.000750943
-0.00432133
0.00241965
0.00477087
-0.00101053
0.00054117
-0.00430151
0.00353367
0.000100058
0.00113714
-0.000909154
0.00465727
-0.00475864
0.0019561
0.00041044
-0.00199179
0.00196168
-0.000135135
0.00235397
-0.000880718
-0.00174772
0.000274477
0.00263732
0.000127082
0.00124132
-0.00076351
0.00148388
0.00115615
0.00168078
-0.00468973
-0.000659161
0.000584963
0.00476393
-0.00482297
-0.000331664
0.000464906
0.00115636
0.00451271
-0.00443617
-0.0012329
0.000825287
-0.00429836
-0.00291164
0.0025852
0.00262768
-0.00230124
-0.000362146
0.00327188
-0.00582137
1.47631e-05
-0.000124059
-7.4961e-07
0.000110046
-0.000337716
7.2087e-06
7.133e-05
-0.000142224
-0.000266822
-5.9966e-05
7.23691e-06
1.25558e-05
-1.33054e-05
9.55138e-06
3.00445e-06
0.0073824
0.00378469
-0.00592982
-0.00523727
0.00232319
-0.000691473
0.00575068
-0.00791792
0.00307282
0.00716829
0.00226725
-0.00640048
0.00161779
-0.00287134
0.00214067
-0.00088713
0.00236481
-0.00292091
0.0021739
-3.09578e-05
2.25798e-05
-2.71457e-06
-7.26847e-05
-3.71045e-06
-0.000230525
-3.03185e-05
-0.00295011
0.00536774
0.00338823
-0.00580586
0.00435913
-0.00494443
0.00297761
0.00476756
-0.00237743
0.0102309
-0.0015642
-0.00176204
-0.00690465
0.00218301
0.00552176
0.00252613
0.00156451
-0.00510539
0.00572389
4.72599e-05
-7.62863e-05
0.000128946
0.000825123
0.00176925
-0.000630583
-0.00196379
0.00105067
0.000100856
-9.92782e-05
2.74689e-05
7.18093e-05
-0.000306599
0.000207321
-0.00665061
0.00342255
-0.00202006
0.00524812
-0.00577004
-0.00253261
0.00165203
-0.00263691
0.00210539
-0.00523851
0.00196525
-2.63462e-05
-0.000949909
-0.000988993
-0.000716301
0.00224218
0.00043937
-0.000840422
-8.57457e-05
0.000209867
-0.000776655
-9.01129e-05
-0.000272972
-0.00145359
-0.000274779
-6.78133e-05
2.39883e-05
0.000318604
-0.000234121
-0.000582638
0.00054198
0.000153427
1.90534e-05
-0.000406601
9.00158e-05
-4.40202e-06
0.000116717
-2.71314e-06
-0.000644986
0.000372014
8.364e-05
-0.000728626
0.000175425
-0.000482024
0.00427351
0.00333168
-0.000178478
0.00212875
-0.00648342
-1.02249e-05
0.00226373
-0.00179739
-0.000456116
0.000292008
0.00316386
-0.00346609
0.00327968
0.00192806
-0.000587447
-0.0046203
-0.000978505
0.000427505
0.00383068
0.00408159
-0.00313203
-0.00163372
-0.00303808
0.00123294
0.00343886
-0.00119997
0.00351165
-0.0039454
0.000406415
-0.00464447
8.94184e-05
3.73895e-05
-5.0209e-06
0.00108756
-0.000637907
-0.000619619
8.33552e-05
-0.000350186
0.00135439
0.000381563
-1.95699e-05
-0.000187434
0.000333464
6.8551e-05
-0.000214581
0.00099629
-0.00122179
3.80687e-05
-0.00035954
0.000834672
0.000521158
-0.000125814
9.97382e-05
-0.00616787
0.00364319
0.00594723
0.00774397
-0.00203413
-0.00824244
-0.00288797
0.00446408
-9.71849e-05
-0.000878158
-0.000164473
-0.000524717
9.25868e-06
4.72371e-05
-0.000130817
3.85473e-05
4.50322e-05
-0.000129974
0.000143713
3.34976e-05
-0.000297996
3.72054e-05
-0.000266771
-0.000314094
5.6149e-05
-0.000807824
-0.000337105
-0.00110782
-0.00119139
0.0013666
0.000932614
4.65048e-05
0.000581217
-0.00173555
-0.00155773
0.000412848
-0.00294291
0.00133306
-5.96189e-05
-0.00350984
0.000807679
-0.000240751
0.000876317
-0.00334717
0.00256382
-9.29701e-05
0.000679278
-0.0027279
0.00292494
0.00252853
-0.010197
-0.00177476
0.00219088
0.00302926
-0.00347096
0.00207099
-0.000323737
-5.57899e-07
1.96113e-05
-4.66041e-06
4.10252e-06
0.000285524
-4.14106e-05
0.00531439
-0.00320958
-0.00220508
0.000100269
0.00456128
-0.000156043
0.00475903
6.7451e-05
-0.00518863
0.00132206
0.00338785
4.91228e-05
0.000501002
-0.00301951
0.00384057
5.75219e-06
-1.04126e-05
0.000762288
-0.00213224
-0.00286362
0.00124243
0.00310514
0.00117788
-6.61069e-05
-0.00123872
0.000126948
0.000386737
-0.000114096
-0.00151037
0.000318238
0.00190462
0.000268165
-0.0013918
-0.000135177
7.39258e-05
-6.448e-06
1.14413e-05
-4.55467e-06
-4.38593e-07
1.17007e-05
-2.83866e-07
-1.78648e-05
5.016e-05
-0.000108467
7.0008e-05
-0.00176716
0.00272083
-0.000778244
0.00295177
-0.00385855
-0.000860383
1.15591e-06
-0.00205125
0.00236833
-0.00404143
0.00024976
-0.00276704
-0.00186026
0.000585876
0.00270483
0.0029117
-0.00542091
0.0026025
0.00431091
-0.00420858
0.00223958
-0.0030886
0.0016103
-0.000761279
0.0024538
-0.00302801
0.00281378
0.0043843
0.00187145
0.00494944
-0.000263928
-0.00492044
0.000234928
0.00547541
-0.000686123
0.00016015
0.0055259
-0.000859226
3.2895e-05
-0.00469957
0.00396985
-0.00133099
0.00288705
0.00431377
-0.00138374
0.00111893
-0.00404896
0.001245
0.00439586
-0.00132709
-0.00388334
-0.00164828
0.00414788
0.00104736
-0.00369775
-0.00183762
0.00362819
-0.00236141
-0.00325002
0.00213415
0.00347727
-0.00238125
-0.00327919
0.00329903
0.00222349
0.00305934
-0.00146455
-0.00381828
0.00303376
-0.00319152
-0.0025779
0.00259834
0.00301331
-0.00203341
0.00251485
-0.00408025
0.00362665
-0.00101095
-0.00508221
0.00104307
0.0053921
-0.00135295
0.00190458
-0.000328231
0.00109284
-0.00115542
0.000390816
-0.000160715
0.00139163
-0.00155915
-5.5541e-05
0.000320868
0.000116236
-0.00150591
-0.00231341
0.0014983
-4.02581e-08
-2.4361e-07
2.80913e-07
-3.21168e-07
-0.000147136
-0.00257394
0.00195757
-0.00226774
-0.00010152
0.00222212
7.17559e-05
-0.00237716
3.76632e-05
-0.000391089
0.00191726
0.000419565
-0.00194573
0.002039
0.000458567
-0.00288866
0.00191719
0.00203907
-2.79975e-06
7.19909e-07
3.94693e-05
-4.8162e-06
2.01645e-06
-4.09629e-06
-5.93568e-06
4.79177e-06
-5.88221e-05
1.27676e-06
-7.21244e-06
6.06853e-06
-4.57765e-05
2.212e-05
-0.000274003
2.33605e-05
-6.9137e-05
4.54806e-05
5.34651e-05
-5.37905e-06
-0.0001739
-1.69967e-05
7.04618e-05
-2.23757e-05
0.00136935
0.00330115
-0.004243
0.00140957
-0.00453053
0.00449032
0.00471265
-1.92929e-06
-0.00118438
-0.00244491
0.00116022
0.00246906
-0.000709031
0.00272119
-0.00319653
0.000159417
-0.00331335
0.00414251
-0.00418043
-1.33312e-05
5.12589e-05
0.00414185
3.71915e-05
-3.65354e-05
-2.61407e-05
-0.00417284
1.85462e-05
0.00417391
-1.58715e-06
-3.04737e-05
0.0042491
6.03769e-05
-0.000135571
2.94924e-05
0.00435586
-0.000136247
0.00430346
-0.00427711
3.14321e-06
-0.000202999
0.00456015
-1.29656e-06
0.00418453
-8.40689e-05
-0.0041452
-7.15393e-05
-0.00412991
-1.68711e-05
-0.00412304
3.03224e-05
-0.00421027
7.38988e-05
-0.00414012
-9.6294e-05
-0.000196948
0.00475861
-1.50488e-06
0.00398975
-2.16945e-06
-2.08886e-05
-0.0041363
-1.56532e-05
-0.00417239
1.13835e-05
-2.95514e-05
-0.00437345
0.000266707
-5.5749e-07
0.0047602
-1.03504e-06
0.00399174
-2.53925e-06
-0.00432389
0.000121945
0.00476183
-3.71867e-07
-1.25987e-06
-5.01385e-07
0.00476313
-7.92933e-07
0.00399332
-1.95619e-06
0.00399517
-2.35024e-06
-2.49517e-05
-0.0043452
-3.29688e-06
-0.00434511
-3.72778e-06
-2.49806e-07
0.00476442
-1.04029e-06
0.00399669
-1.76951e-06
-4.31011e-07
-0.00434148
-3.29068e-06
-0.00434117
-4.37375e-06
-2.55618e-07
0.00476525
-5.78188e-07
0.00399862
-2.18221e-06
-2.84205e-07
-0.00433733
-3.86496e-06
-0.00433728
-4.17851e-06
2.43274e-07
0.00476585
-8.4556e-07
0.00400046
-1.60362e-06
-3.74616e-07
-0.00433308
-3.88085e-06
-0.00433281
-4.83906e-06
7.24007e-07
0.00476551
-3.87019e-07
0.00400322
-2.03398e-06
-1.99733e-07
-0.0043284
-4.47409e-06
-0.00432833
-4.6854e-06
2.20565e-06
0.00476398
-6.72513e-07
0.00400688
-1.45516e-06
9.77161e-06
-0.00433364
-4.53508e-06
-0.00431318
-5.37068e-06
4.64858e-06
0.00475955
-2.17174e-07
0.00401343
-1.89683e-06
2.80309e-05
-0.00420703
-0.00015464
-0.00423522
-4.99303e-05
1.00519e-05
0.00475002
-5.18852e-07
0.00400622
1.72555e-05
2.77834e-05
-0.00422275
-1.20639e-05
-0.00419925
-8.19267e-06
2.02477e-05
0.00472983
-6.38838e-08
0.0039788
4.76695e-05
5.99119e-05
-0.00406954
-0.000213127
-0.00407366
-6.56738e-05
0.000202266
0.00452794
-3.75255e-07
0.0041005
8.05709e-05
6.89786e-05
-0.00404663
-9.18804e-05
-0.00402455
1.98623e-05
0.000178567
0.00419472
0.000154651
0.00416872
0.000110342
0.00010997
-0.000159983
-0.00399662
-0.00400394
8.93608e-05
1.19847e-05
4.04367e-05
0.0041423
0.00414218
3.85282e-05
-0.00406162
0.00413008
-0.000160338
-0.00407973
-0.00014188
0.000187671
-0.000168441
-0.00401585
8.95462e-05
-0.00390581
-0.00404581
0.00408526
-5.15104e-05
-0.000128856
-0.00394072
0.00394538
-9.19288e-06
-1.01081e-05
-0.00394973
0.00395384
-7.98994e-06
-8.82758e-06
-0.00395769
0.00396133
-6.93115e-06
-7.71117e-06
-0.00396476
0.00423748
-6.01455e-06
-6.72791e-06
-0.00422771
0.00417176
7.45016e-05
-5.88164e-06
-0.00430788
0.00427583
-4.4914e-06
-8.48622e-05
-0.00414046
0.0040814
-7.65065e-05
0.000104896
-0.00398581
0.00398782
-3.30907e-06
-4.06561e-05
-0.00398971
0.0039915
-2.82474e-06
-3.39039e-06
-0.00399318
0.00399478
-2.39211e-06
-2.94221e-06
-0.00399628
0.00399771
-2.00781e-06
-2.54382e-06
-0.00399906
0.00400034
-1.66637e-06
-2.19055e-06
-0.00400154
0.00400269
-1.36286e-06
-1.87755e-06
-0.00400377
0.00400479
-1.0899e-06
-1.59908e-06
-0.00398207
0.00407642
6.03005e-05
2.23513e-05
0.0040668
5.00493e-05
-2.54014e-05
8.01332e-05
0.00408757
-4.44952e-06
0.00412123
0.00409154
-0.00402345
1.24865e-05
-0.00413198
0.00412373
4.67741e-05
6.99013e-05
0.00402234
-0.00400268
-2.39916e-06
4.65544e-05
0.00400155
-0.00400033
-2.66855e-06
-3.03438e-06
0.00399906
-0.00399771
-2.96048e-06
-3.3052e-06
0.00399628
-0.00399477
-3.28729e-06
-3.60446e-06
0.00399317
-0.00399147
-3.65621e-06
-3.94235e-06
0.00398969
-0.00398778
-4.07486e-06
-4.32508e-06
0.00406709
-0.00405939
-4.55173e-06
-4.76164e-06
0.00412568
-0.00407909
-6.34579e-05
-5.25375e-06
0.0040504
-0.00402174
4.52414e-05
1.62525e-06
0.00406983
-0.00409382
3.53703e-05
-4.82018e-05
0.0039647
-0.00396127
-7.15772e-06
-7.16982e-06
0.00395765
-0.00395378
-8.05276e-06
-7.99403e-06
0.00394968
-0.0039453
-9.07182e-06
-8.93543e-06
0.00394065
-0.00398034
-1.02395e-05
-1.00126e-05
0.00397729
-0.00403138
-1.15825e-05
-1.1249e-05
0.00399883
-0.00393617
2.67049e-05
-1.26872e-05
-0.00388852
4.18914e-05
-0.00410599
-0.000142174
0.0040799
6.70324e-05
-1.07689e-06
0.00412036
0.000142556
-0.000133249
-0.00391512
0.000107291
-0.00385325
0.000142494
-0.000138863
-0.00410962
-0.00400661
-0.00403875
0.00397764
-9.92322e-05
0.00408026
-0.00410946
-0.00011297
-0.000100368
-0.00393137
0.00393645
-5.6592e-05
-8.25831e-05
-0.00394135
0.00394598
-1.38166e-05
-1.50131e-05
-0.0039503
0.00395437
-1.20662e-05
-1.31467e-05
-0.00395819
0.00396179
-1.05376e-05
-1.15249e-05
-0.00396517
0.00396836
-9.20264e-06
-1.0108e-05
-0.00397135
0.0040539
-8.04144e-06
-8.8753e-06
-0.00397683
0.00397935
-7.01273e-06
-7.79587e-06
-0.0040911
0.0040207
-6.11104e-06
-6.85161e-06
-0.00398605
0.00398805
-5.30856e-06
-6.00224e-06
-0.00398992
0.0039917
-4.60429e-06
-5.26507e-06
-0.00399337
0.00399496
-3.98104e-06
-4.61291e-06
-0.00399646
0.00399788
-3.42855e-06
-4.03637e-06
-0.00399921
0.00400048
-2.9384e-06
-3.52577e-06
-0.00400168
0.00400282
-2.50316e-06
-3.07351e-06
-0.00400389
0.00400492
-2.11222e-06
-2.67167e-06
-0.00400557
0.00403867
2.72016e-05
2.16935e-05
9.4972e-06
-1.86024e-05
0.00409668
1.73144e-06
0.00408767
-0.0040272
0.00406765
2.65836e-05
6.15228e-05
0.00406949
-0.00406987
4.71514e-05
0.00403726
3.11498e-05
-1.34222e-06
4.65654e-05
0.00407514
0.00410128
0.00406988
-0.0040395
-1.78981e-05
6.99152e-05
0.0040039
-0.00400281
-3.48267e-06
1.09564e-05
0.00400168
-0.00400048
-3.87463e-06
-4.16682e-06
0.00399921
-0.00399787
-4.30732e-06
-4.56752e-06
0.00399646
-0.00399495
-4.79371e-06
-5.01597e-06
0.00399337
-0.00399168
-5.34287e-06
-5.52247e-06
0.00398991
-0.00398802
-5.96389e-06
-6.09582e-06
0.00398604
-0.00398392
-6.6686e-06
-6.74672e-06
0.00398169
-0.00403768
-7.46498e-06
-7.48296e-06
0.00402774
-0.00397413
-8.3662e-06
-8.32022e-06
0.00401306
-0.00396829
-9.39861e-06
-9.26931e-06
0.00396511
-0.00396171
-1.05634e-05
-1.03517e-05
0.00395811
-0.00395427
-1.18983e-05
-1.15881e-05
0.0039502
-0.00394585
-1.34256e-05
-1.30012e-05
0.00394124
-0.0039363
-1.51798e-05
-1.46226e-05
0.00393106
-0.00392544
-1.72005e-05
-1.64883e-05
0.00391948
-0.00387325
-1.95314e-05
-1.86458e-05
0.00384489
-0.00378595
4.8353e-05
1.35326e-05
-0.00413291
-0.000115412
9.2381e-05
-0.000157667
-0.00378797
-0.00375565
6.2086e-05
-0.000221331
-0.00385145
2.54625e-05
0.00404392
0.00404389
3.99384e-05
-7.39125e-05
9.27249e-05
-0.00412843
-7.66174e-05
-0.00413021
6.54879e-05
-0.000155097
-0.00369836
3.44916e-05
-0.00372466
-0.00413521
0.00407808
-0.00406554
1.40355e-05
0.00403683
6.67136e-05
7.08141e-05
-3.01636e-05
0.00403449
4.54631e-05
0.00406924
-0.00408419
0.00413433
-0.000126765
-0.000133356
0.000106748
-0.0041036
0.00416933
-6.5636e-05
0.000305222
-0.00440891
-4.82162e-05
-0.00413487
0.00410717
-8.52757e-05
-0.000115944
-0.00405873
0.00399853
-3.9027e-05
-5.19289e-05
-0.00397303
0.00393747
-2.10293e-05
-5.70881e-05
-0.00394231
0.00394687
-1.83783e-05
-1.98531e-05
-0.00395113
0.00395515
-1.60869e-05
-1.74071e-05
-0.00395891
0.00396247
-1.40938e-05
-1.52864e-05
-0.0039658
0.00396895
-1.23545e-05
-1.34389e-05
-0.0039719
0.0039747
-1.08336e-05
-1.1827e-05
-0.00397732
0.0039798
-9.49802e-06
-1.04167e-05
-0.00398213
0.00398434
-8.3236e-06
-9.17681e-06
-0.00398642
0.0039884
-7.28304e-06
-8.08209e-06
-0.00399025
0.00399201
-6.36534e-06
-7.11804e-06
-0.00399366
0.00399524
-5.55364e-06
-6.26608e-06
-0.00399671
0.00399812
-4.83497e-06
-5.51339e-06
-0.00399944
0.0040007
-4.19804e-06
-4.84735e-06
-0.00400188
0.00400301
-3.63312e-06
-4.25776e-06
-0.00400408
0.00400509
-3.12831e-06
-3.7348e-06
-0.0040171
0.00402468
1.96147e-05
9.68873e-06
2.06712e-05
2.65363e-05
-1.00212e-05
0.00408016
-4.25334e-05
1.10183e-05
0.00407543
0.00407167
0.0040611
0.00405823
-0.0040533
4.22153e-05
-0.00405298
0.00403143
6.14873e-05
3.64047e-05
0.00400604
-0.00401984
-4.09653e-06
2.26613e-05
0.00400407
-0.004003
-4.55646e-06
-4.81383e-06
0.00400188
-0.00400069
-5.06813e-06
-5.28671e-06
0.00399944
-0.00399811
-5.63981e-06
-5.81647e-06
0.00399671
-0.00399522
-6.28363e-06
-6.41209e-06
0.00399366
-0.00399199
-7.0106e-06
-7.08493e-06
0.00399024
-0.00398837
-7.8325e-06
-7.84621e-06
0.00398641
-0.00398431
-8.76374e-06
-8.70884e-06
0.00398211
-0.00397976
-9.8188e-06
-9.68687e-06
0.00397728
-0.00397463
-1.10146e-05
-1.07972e-05
0.00397184
-0.00396886
-1.23772e-05
-1.20599e-05
0.00396572
-0.00396235
-1.39267e-05
-1.34974e-05
0.0039588
-0.003955
-1.56974e-05
-1.51388e-05
0.00395099
-0.00394669
-1.77252e-05
-1.70172e-05
0.00394214
-0.00393726
-2.00552e-05
-1.91735e-05
0.00393209
-0.00392655
-2.27401e-05
-2.1656e-05
0.00392068
-0.00391436
-2.58431e-05
-2.45235e-05
0.00387298
-0.00379517
-2.94604e-05
-2.78464e-05
0.00374728
-0.00374861
3.58133e-05
1.41995e-05
4.82523e-05
-5.37601e-05
-0.00371915
-0.00372356
2.32046e-05
0.000127464
-0.00414915
-9.68016e-05
-0.00390975
3.85744e-05
0.00400928
0.0040458
3.10909e-05
0.000158248
-0.00432748
1.1242e-05
-0.00376336
0.0008693
-0.00346634
0.00451422
-4.2473e-05
1.23926e-05
-0.00369348
-8.54869e-05
-0.00367614
-0.00273875
0.00417553
0.00060229
-0.00212559
-0.000193592
-0.00410455
-0.00396602
0.00413908
0.000132157
0.000314826
-0.000105312
-0.00410388
0.00407133
-9.42232e-05
-1.301e-05
-0.00404258
0.00399166
-3.4355e-05
-8.71931e-05
-0.00397191
0.00396279
-2.99078e-05
-3.21788e-05
-0.00393379
0.00393886
-2.61015e-05
-2.80875e-05
-0.0039436
0.00394807
-2.28442e-05
-2.45896e-05
-0.00395224
0.00395618
-2.00296e-05
-2.1582e-05
-0.00395987
0.00396336
-1.75838e-05
-1.89765e-05
-0.00396663
0.00396973
-1.54496e-05
-1.67085e-05
-0.00397263
0.00397538
-1.35819e-05
-1.47276e-05
-0.00397795
0.0039804
-1.19425e-05
-1.2993e-05
-0.00398269
0.00398487
-1.04998e-05
-1.14694e-05
-0.00398691
0.00398885
-9.22584e-06
-1.01265e-05
-0.00399068
0.00399241
-8.09993e-06
-8.94213e-06
-0.00399404
0.00399559
-7.10387e-06
-7.89514e-06
-0.00399705
0.00399844
-6.22197e-06
-6.96967e-06
-0.00399974
0.00400098
-5.44079e-06
-6.15092e-06
-0.00400215
0.00400327
-4.74845e-06
-5.42639e-06
-0.00400432
0.00400532
-4.1331e-06
-4.78469e-06
-0.00401923
0.00404243
-3.58844e-06
-4.21567e-06
-0.00403342
0.00403166
1.58007e-05
2.9679e-05
-0.00404811
0.0040441
4.25903e-05
5.02583e-05
5.55578e-05
-3.10321e-05
0.00405091
-3.35702e-05
6.0632e-06
0.0040716
0.00403126
3.95613e-05
1.57721e-05
0.00402483
0.0040802
-2.67871e-05
1.76625e-05
0.00404361
0.00405008
-2.18359e-05
1.11293e-06
0.00406652
0.00406507
0.00406879
-0.00405391
4.66075e-05
-0.00413214
0.00402244
0.000110813
-3.22628e-05
0.00404329
-0.00403419
3.31205e-05
2.57787e-05
0.00400625
-0.0040053
-5.0492e-06
-5.28055e-06
0.0040043
-0.00400325
-5.61408e-06
-5.80549e-06
0.00400214
-0.00400097
-6.24483e-06
-6.39073e-06
0.00399973
-0.00399842
-6.95338e-06
-7.04778e-06
0.00399704
-0.00399558
-7.75194e-06
-7.78816e-06
0.00399404
-0.00399239
-8.65387e-06
-8.62461e-06
0.00399067
-0.00398883
-9.67357e-06
-9.57081e-06
0.00398689
-0.00398483
-1.08284e-05
-1.06425e-05
0.00398266
-0.00398034
-1.2137e-05
-1.18578e-05
0.0039779
-0.00397529
-1.36222e-05
-1.32374e-05
0.00397255
-0.00396961
-1.53114e-05
-1.48057e-05
0.00396652
-0.00396321
-1.72352e-05
-1.6592e-05
0.00395972
-0.00395598
-1.94327e-05
-1.86309e-05
0.00395204
-0.00394781
-2.19494e-05
-2.09642e-05
0.00394334
-0.00393856
-2.48406e-05
-2.36423e-05
0.00393349
-0.00392806
-2.81719e-05
-2.6725e-05
0.00392229
-0.00391611
-3.20241e-05
-3.02852e-05
0.00390955
-0.0039025
-3.65027e-05
-3.44127e-05
0.00384908
-0.00377153
-4.17432e-05
-3.92228e-05
0.00376816
-0.00374711
-8.66112e-06
1.98388e-05
1.88793e-05
-2.33481e-05
-0.00368901
-0.00371378
-1.4448e-05
0.000123602
-0.0041145
-2.86311e-05
-0.00386988
0.000316706
-0.00377489
1.21165e-05
-0.00386096
0.00404574
-0.00405114
4.79975e-05
0.00403206
1.97397e-05
4.82848e-05
-3.25796e-05
0.00405082
1.04733e-05
0.00406026
0.000313597
-0.00332137
2.36101e-05
-0.00372309
-0.00196425
-0.00210707
-0.00324745
0.00374125
0.000108493
4.50427e-05
-2.78656e-05
-0.00370619
1.2293e-05
-0.00368103
-0.003012
-0.000429046
-0.00400958
-0.00390967
0.00396685
7.49815e-05
0.0001464
-0.00400396
0.0039564
-4.66665e-05
-5.01175e-05
-0.00391282
0.00391908
-4.06181e-05
-4.36095e-05
-0.00392495
0.0039305
-3.54537e-05
-3.80509e-05
-0.0039357
0.00394061
-3.10131e-05
-3.32866e-05
-0.00394521
0.00394955
-2.71869e-05
-2.91871e-05
-0.00395362
0.00395746
-2.38735e-05
-2.56477e-05
-0.00396106
0.00396447
-2.09915e-05
-2.25773e-05
-0.00396766
0.00397069
-1.84755e-05
-1.99028e-05
-0.00397353
0.00397622
-1.62719e-05
-1.75651e-05
-0.00397874
0.00398113
-1.4337e-05
-1.55163e-05
-0.00398338
0.00398551
-1.26337e-05
-1.37164e-05
-0.00398752
0.00398942
-1.11307e-05
-1.21305e-05
-0.00399121
0.00399291
-9.80188e-06
-1.07312e-05
-0.00399451
0.00399603
-8.62593e-06
-9.49412e-06
-0.00399747
0.00399883
-7.58472e-06
-8.40004e-06
-0.00400011
0.00400133
-6.66229e-06
-7.43196e-06
-0.00400248
0.00400358
-5.84528e-06
-6.5753e-06
-0.00400461
0.0040056
-5.1211e-06
-5.81719e-06
-0.00400653
0.00400742
-4.47836e-06
-5.1459e-06
-0.00404165
0.00402834
2.9113e-05
-4.55238e-06
2.74494e-05
4.24401e-05
-6.8707e-05
0.00407717
-1.66982e-05
2.92711e-05
0.00405903
0.00405701
1.01275e-09
-6.74338e-07
0.0040255
0.0040115
-3.79571e-05
5.65286e-05
0.00402504
0.00401145
0.00408902
0.00407124
-0.00405865
3.40173e-05
-0.00402119
0.00406242
6.95871e-05
1.7791e-05
0.00404589
-0.00400738
-5.39018e-06
1.30161e-05
0.0040065
-0.00400556
-5.98519e-06
-6.16019e-06
0.00400459
-0.00400355
-6.65216e-06
-6.78041e-06
0.00400247
-0.00400131
-7.40079e-06
-7.47518e-06
0.0040001
-0.00399881
-8.24344e-06
-8.25731e-06
0.00399746
-0.00399602
-9.19387e-06
-9.13957e-06
0.00399451
-0.00399289
-1.02671e-05
-1.01364e-05
0.0039912
-0.00398939
-1.14807e-05
-1.12638e-05
0.00398749
-0.00398547
-1.28546e-05
-1.25405e-05
0.00398334
-0.00398106
-1.44115e-05
-1.39879e-05
0.00397867
-0.00397611
-1.61784e-05
-1.56305e-05
0.00397342
-0.00397055
-1.81872e-05
-1.74975e-05
0.00396752
-0.00396428
-2.04751e-05
-1.96234e-05
0.00396086
-0.0039572
-2.30874e-05
-2.20492e-05
0.00395334
-0.00394921
-2.6078e-05
-2.48242e-05
0.00394485
-0.00394018
-2.95119e-05
-2.80074e-05
0.00393523
-0.00392994
-3.34664e-05
-3.16695e-05
0.00392433
-0.00391832
-3.80361e-05
-3.5896e-05
0.00391194
-0.0039051
-4.33374e-05
-4.07913e-05
0.00389784
-0.00389008
-4.95109e-05
-4.64814e-05
0.00381712
-0.00376909
-5.66957e-05
-5.31155e-05
0.00372266
-0.00368561
-2.4765e-05
-6.08704e-05
5.02188e-05
-2.32799e-05
-0.00370797
-0.00365645
2.10626e-05
9.31165e-05
-0.00389091
2.05594e-06
-0.00385982
4.73087e-05
0.00401402
0.00404767
2.52151e-05
0.00018699
-0.00364828
-0.000459569
-0.00439334
-5.21066e-05
-0.00372883
1.30327e-05
-0.00385039
2.53515e-05
-0.00377631
-0.00432528
-0.00079379
0.000193581
-0.000497399
-0.00402146
-0.000286905
-0.00391286
-2.59472e-05
-0.00370352
7.39771e-06
-7.49789e-05
-0.00364039
4.00734e-05
-0.00368913
-0.00391441
-0.00354898
0.00371454
-5.70635e-05
0.00372539
-0.00409257
-0.000426613
-0.000252634
-0.00383571
0.00389597
1.47191e-05
2.52269e-05
-0.00390299
0.00390967
-5.33491e-05
-5.71312e-05
-0.00391598
0.00392197
-4.66058e-05
-4.99209e-05
-0.00392759
0.00393292
-4.07816e-05
-4.36783e-05
-0.00393792
0.00394266
-3.57466e-05
-3.82876e-05
-0.0039471
0.0039513
-3.13872e-05
-3.36262e-05
-0.00395523
0.00395896
-2.76013e-05
-2.9586e-05
-0.00396246
0.00396577
-2.4303e-05
-2.60732e-05
-0.00396888
0.00397182
-2.14201e-05
-2.30091e-05
-0.00397458
0.00397721
-1.88931e-05
-2.03283e-05
-0.00397967
0.003982
-1.66727e-05
-1.79767e-05
-0.00398419
0.00398628
-1.47172e-05
-1.59093e-05
-0.00398823
0.0039901
-1.29914e-05
-1.40875e-05
-0.00399184
0.00399351
-1.14655e-05
-1.24794e-05
-0.00399507
0.00399656
-1.01147e-05
-1.10576e-05
-0.00399796
0.00399929
-8.9184e-06
-9.79958e-06
-0.00400055
0.00400174
-7.85855e-06
-8.68612e-06
-0.00400287
0.00400394
-6.91965e-06
-7.7006e-06
-0.00400495
0.00400592
-6.08804e-06
-6.82856e-06
-0.00400683
0.00400771
-5.35177e-06
-6.05716e-06
-0.00400853
0.00404234
-4.69806e-06
-5.37409e-06
-0.00404596
0.00405593
3.80291e-05
2.38259e-05
-0.00400228
0.00401986
2.97334e-05
7.33862e-05
6.63577e-05
-4.90147e-05
0.00404169
-1.28475e-05
-1.06984e-05
0.00404341
0.00406753
4.96705e-05
6.10051e-07
0.00402689
0.00405766
2.69989e-08
-6.71097e-07
0.00402615
0.00401213
1.31011e-06
-1.95087e-06
0.00402568
0.00401209
-2.75506e-05
2.12228e-05
0.00405715
0.00405951
-1.4098e-05
1.89787e-05
0.00404279
0.00406738
0.00407611
-0.00402962
2.30944e-05
-0.00405772
0.00403438
4.23132e-05
4.36107e-05
0.00403722
-0.00402788
2.4686e-05
2.5389e-05
0.00400848
-0.00400766
-6.215e-06
-6.38585e-06
0.0040068
-0.00400588
-6.8999e-06
-7.02107e-06
0.00400493
-0.00400391
-7.668e-06
-7.73425e-06
0.00400285
-0.00400172
-8.53219e-06
-8.53658e-06
0.00400054
-0.00399927
-9.50588e-06
-9.44103e-06
0.00399795
-0.00399654
-1.06044e-05
-1.04618e-05
0.00399506
-0.00399348
-1.18451e-05
-1.16151e-05
0.00399183
-0.00399006
-1.32475e-05
-1.29194e-05
0.00398821
-0.00398623
-1.48349e-05
-1.43959e-05
0.00398414
-0.00398192
-1.66334e-05
-1.60692e-05
0.00397959
-0.00397709
-1.86738e-05
-1.79676e-05
0.00397446
-0.00397166
-2.09926e-05
-2.01244e-05
0.0039687
-0.00396554
-2.36328e-05
-2.25794e-05
0.00396221
-0.00395866
-2.66456e-05
-2.53792e-05
0.0039549
-0.00395089
-3.00926e-05
-2.85799e-05
0.00394664
-0.00394211
-3.40471e-05
-3.22487e-05
0.00393731
-0.00393218
-3.85972e-05
-3.64658e-05
0.00392675
-0.00392094
-4.38487e-05
-4.13275e-05
0.00391478
-0.00390819
-4.99291e-05
-4.69501e-05
0.0039012
-0.00389372
-5.69885e-05
-5.34714e-05
0.00388578
-0.00387729
-6.51941e-05
-6.10506e-05
0.00386828
-0.00381828
-7.47568e-05
-6.98813e-05
0.00376905
-0.00369283
-3.61515e-05
-2.81676e-05
-1.85193e-05
-2.4794e-05
-0.00364581
-0.00368237
-2.89828e-05
6.35297e-05
-0.00376745
-0.00413785
-0.000452121
3.61697e-05
-0.00373656
0.00407181
-0.00408147
3.93938e-05
0.00406868
-7.56604e-06
4.07244e-05
-3.48086e-05
0.00403688
5.10899e-05
0.00402402
2.28667e-06
-0.00384907
1.40263e-05
-0.00383906
-8.96817e-05
-0.00392605
2.71723e-05
-0.00382943
4.18923e-05
-0.00382039
5.82943e-05
-0.00372348
-4.6289e-06
2.79917e-05
-0.00366918
-5.77451e-05
-0.00362925
-0.00384859
-0.00400985
0.00382869
-0.000245449
-0.000384562
0.000497621
-0.00425091
0.00417109
-0.00432875
-0.000226899
-0.00029089
-0.00369835
0.00376977
-0.000128485
-0.000122295
-0.00385131
0.00390021
-3.41755e-05
-5.63141e-05
-0.00390696
0.00391337
-5.97564e-05
-6.38871e-05
-0.00391941
0.00392513
-5.23332e-05
-5.59569e-05
-0.00393052
0.00393563
-4.58871e-05
-4.90647e-05
-0.00394042
0.00394497
-4.02926e-05
-4.30851e-05
-0.00394924
0.00395328
-3.5432e-05
-3.78952e-05
-0.00395708
0.00396068
-3.11999e-05
-3.33832e-05
-0.00396406
0.00396726
-2.75059e-05
-2.94513e-05
-0.00397027
0.00397312
-2.42727e-05
-2.60161e-05
-0.0039758
0.00397834
-2.14359e-05
-2.3007e-05
-0.00398073
0.003983
-1.89412e-05
-2.03649e-05
-0.00398513
0.00398716
-1.67427e-05
-1.80403e-05
-0.00398906
0.00399087
-1.48017e-05
-1.59908e-05
-0.00399257
0.00399419
-1.30852e-05
-1.4181e-05
-0.00399571
0.00399716
-1.15653e-05
-1.25803e-05
-0.00399853
0.00399983
-1.02187e-05
-1.11636e-05
-0.00400105
0.00400222
-9.02541e-06
-9.9092e-06
-0.00400332
0.00400436
-7.9681e-06
-8.79856e-06
-0.00400535
0.0040063
-7.03167e-06
-7.8156e-06
-0.00400718
0.00400804
-6.20272e-06
-6.9462e-06
-0.00400884
0.00400961
-5.46715e-06
-6.17717e-06
-0.00403893
0.00405403
2.29311e-05
-5.49603e-06
4.59398e-05
1.813e-05
-4.35993e-05
0.00406716
-2.92521e-05
5.46154e-07
0.00407211
0.00405641
-1.15658e-06
5.50309e-07
0.0040275
0.00401291
5.75925e-08
-6.71061e-07
0.00402676
0.00401274
1.28198e-06
-1.89285e-06
0.00402629
0.0040127
-4.48349e-05
3.25084e-05
0.00406947
0.00401279
0.00406508
0.00407043
-0.00407247
2.51329e-05
-0.00406207
0.00404472
5.96575e-05
5.19723e-05
0.00404057
-0.00400954
-6.33699e-06
-6.51063e-06
0.00400879
-0.00400798
-7.02104e-06
-7.14378e-06
0.00400714
-0.00400625
-7.79144e-06
-7.85917e-06
0.00400532
-0.00400433
-8.65857e-06
-8.66423e-06
0.0040033
-0.00400219
-9.63533e-06
-9.57155e-06
0.00400104
-0.00399981
-1.07365e-05
-1.05951e-05
0.00399852
-0.00399714
-1.1979e-05
-1.17505e-05
0.0039957
-0.00399417
-1.33821e-05
-1.30559e-05
0.00399255
-0.00399083
-1.4968e-05
-1.45318e-05
0.00398903
-0.0039871
-1.67622e-05
-1.62021e-05
0.00398508
-0.00398291
-1.87944e-05
-1.80941e-05
0.00398064
-0.00397822
-2.1099e-05
-2.02398e-05
0.00397566
-0.00397294
-2.37168e-05
-2.26764e-05
0.00397007
-0.00396701
-2.66956e-05
-2.54482e-05
0.00396378
-0.00396033
-3.00926e-05
-2.86072e-05
0.0039567
-0.00395281
-3.39759e-05
-3.22157e-05
0.00394872
-0.00394434
-3.84265e-05
-3.63481e-05
0.00393971
-0.00393476
-4.35415e-05
-4.10927e-05
0.00392954
-0.00392395
-4.94367e-05
-4.65556e-05
0.00391804
-0.00391172
-5.62499e-05
-5.28632e-05
0.00390502
-0.00389787
-6.41427e-05
-6.01645e-05
0.00389029
-0.00388218
-7.33004e-05
-6.86332e-05
0.00387359
-0.00386441
-8.39366e-05
-7.84701e-05
0.00380269
-0.00374255
-9.62989e-05
-8.98829e-05
0.00371044
-0.00370579
-6.23996e-05
-6.10853e-05
-0.00026527
6.86795e-05
-0.00371627
-0.00378911
-2.01572e-05
4.33774e-05
-0.00365247
-0.00363703
-8.89187e-05
8.91502e-06
-0.0037402
4.48497e-05
0.00402438
0.00407909
1.67181e-05
0.000176534
-0.00428498
-0.000220306
2.58697e-06
-0.00383763
0.000281923
-0.00435629
-1.88019e-05
-0.00380744
1.50565e-05
-0.00382695
-1.57114e-05
-0.00384166
2.91336e-05
-0.00381667
4.49665e-05
-0.00380706
6.26407e-05
-0.00375812
4.19174e-05
-0.00366772
-5.88047e-05
4.61771e-05
-0.00363984
-6.67149e-05
-0.00362912
-0.00383709
-0.00426443
0.00410088
-6.33495e-05
-0.000325831
-0.00421156
0.000252419
0.00437397
-0.00425938
-0.000440427
-0.000110764
-0.00399304
0.00391254
-0.000164947
-0.000183051
-0.00388217
0.00383962
-8.59289e-05
-9.19284e-05
-0.00386361
0.00390465
-7.52132e-05
-8.03109e-05
-0.00391115
0.0039173
-6.59034e-05
-7.03879e-05
-0.00392307
0.00392855
-5.78078e-05
-6.17334e-05
-0.0039337
0.00393858
-5.0768e-05
-5.42126e-05
-0.00394317
0.00394752
-4.46446e-05
-4.76743e-05
-0.00395161
0.00395549
-3.93117e-05
-4.19859e-05
-0.00395914
0.00396259
-3.46586e-05
-3.70291e-05
-0.00396584
0.00396893
-3.05899e-05
-3.27012e-05
-0.00397183
0.00397458
-2.7024e-05
-2.8914e-05
-0.00397716
0.00397962
-2.38918e-05
-2.55924e-05
-0.00398193