/*--------------------------------*- C++ -*----------------------------------*\
  =========                 |
  \\      /  F ield         | OpenFOAM: The Open Source CFD Toolbox
   \\    /   O peration     | Website:  https://openfoam.org
    \\  /    A nd           | Version:  10
     \\/     M anipulation  |
\*---------------------------------------------------------------------------*/
FoamFile
{
    format      ascii;
    class       volScalarField;
    location    "19";
    object      p;
}
// * * * * * * * * * * * * * * * * * * * * * * * * * * * * * * * * * * * * * //

dimensions      [0 2 -2 0 0 0 0];

internalField   nonuniform List<scalar> 
25879
(
0.081712
0.0844939
0.0837068
0.0808933
-0.0786253
-0.0825946
-0.0677584
-0.0536224
-0.034678
-0.0419072
-0.14246
-0.110059
-0.179025
-0.482919
-0.510316
0.264402
0.18509
-0.120459
-0.258667
0.767318
0.749489
0.291228
0.396851
0.14203
0.143635
0.149659
0.147178
0.136606
0.140995
0.136783
0.136063
-0.479467
-0.477916
-0.467215
0.12548
0.142742
0.137815
-0.0482751
-0.0437066
-0.298134
-0.254408
-0.194625
0.328287
0.342917
0.347515
-0.215834
-0.235909
-0.436637
-0.409661
-0.428954
0.0296465
0.0640394
-0.713685
-0.510096
0.00340196
0.00488607
0.00701863
0.512713
0.519701
0.48098
0.466855
0.438546
0.433639
-0.000433989
0.00159833
0.000250654
-0.507698
-0.512254
-0.476421
-0.468295
-0.503921
0.198066
0.201649
0.206361
0.310678
0.453996
0.378665
0.0904088
0.0909906
0.0874067
0.360799
0.345972
0.832094
0.769072
0.767563
0.222288
0.230891
0.21816
0.0624771
0.0663962
-0.340289
-0.297475
-0.375933
0.13205
0.131526
-0.0306647
-0.0471597
-0.0539255
0.148718
0.148624
0.141707
0.131616
0.0657297
0.0641664
0.0585116
0.194618
0.192089
0.0448097
0.0946378
0.131728
0.123932
-0.00447477
-0.00159952
0.0194428
0.0197342
0.215998
0.203915
-0.123671
0.00305271
0.0383434
0.0447106
-0.285354
-0.290898
-0.179522
-0.178056
-0.292382
-0.27886
-0.517465
-0.544503
-0.510996
-0.488394
-0.475158
0.484059
0.464674
0.454384
0.468679
0.0848578
0.0880847
-0.0574052
0.00246805
-0.170286
-0.163133
-0.17559
-0.18811
-0.205308
-0.219211
-0.231684
-0.241134
-0.247284
-0.250864
-0.247932
-0.242325
-0.23345
-0.221892
-0.208065
-0.193168
-0.177789
-0.163252
-0.149948
-0.138745
-0.12952
-0.12251
-0.11731
-0.113965
-0.112221
-0.112219
-0.113939
-0.117527
-0.12311
-0.130778
-0.140715
-0.15277
-0.166907
-0.182321
-0.199709
-0.218999
-0.240332
-0.186617
-0.202547
-0.231903
-0.155925
-0.142449
-0.151274
-0.251729
-0.190757
-0.210708
-0.157064
-0.172971
-0.131833
-0.143285
-0.115798
-0.122694
-0.10798
-0.110906
-0.107259
-0.106738
-0.113038
-0.109266
-0.125862
-0.118411
-0.146469
-0.135106
-0.172765
-0.159058
-0.198934
-0.186156
-0.218326
-0.209697
-0.226466
-0.223854
-0.220608
-0.225103
-0.202589
-0.212987
-0.177612
-0.190457
-0.167184
-0.216712
-0.181454
-0.198561
-0.247206
-0.233137
-0.265968
-0.258363
-0.269109
-0.269191
-0.255794
-0.264776
-0.229347
-0.244219
-0.196447
-0.213599
-0.164822
-0.180337
-0.140331
-0.151691
-0.124571
-0.13153
-0.116437
-0.119704
-0.115166
-0.114964
-0.121124
-0.117151
-0.135174
-0.126973
-0.157492
-0.145202
-0.171576
-0.159269
-0.138625
-0.130645
-0.270982
-0.26238
-0.282294
-0.290016
-0.300562
-0.217996
-0.172837
-0.18586
-0.190193
-0.166004
-0.172168
-0.151331
-0.145518
-0.239251
-0.2617
-0.194694
-0.216366
-0.157248
-0.174817
-0.129501
-0.142103
-0.111432
-0.119313
-0.101761
-0.105636
-0.099161
-0.0996496
-0.10282
-0.100238
-0.112878
-0.107018
-0.129897
-0.120565
-0.152309
-0.140729
-0.175248
-0.164178
-0.192826
-0.185137
-0.200672
-0.19826
-0.197042
-0.200377
-0.183077
-0.191373
-0.1645
-0.173995
-0.143872
-0.154754
-0.121821
-0.132311
-0.227704
-0.20926
-0.260933
-0.245433
-0.281837
-0.273625
-0.286438
-0.285784
-0.27388
-0.2822
-0.2472
-0.261842
-0.212943
-0.230411
-0.178683
-0.195203
-0.150627
-0.163486
-0.131176
-0.139722
-0.119639
-0.124429
-0.115081
-0.116473
-0.117583
-0.115417
-0.127956
-0.121767
-0.146895
-0.136458
-0.159427
-0.248335
-0.155538
-0.277962
-0.112659
-0.112288
-0.104626
-0.303467
-0.315035
-0.199088
-0.212553
-0.231231
-0.126667
-0.12011
-0.136965
-0.132334
-0.287297
-0.322377
-0.306911
-0.241216
-0.264934
-0.194248
-0.217316
-0.154019
-0.172777
-0.124628
-0.137972
-0.105228
-0.113755
-0.0942202
-0.0987664
-0.0901035
-0.0913671
-0.0919305
-0.0902951
-0.0996709
-0.0950186
-0.113798
-0.105941
-0.133003
-0.122978
-0.153014
-0.143261
-0.168602
-0.161674
-0.175949
-0.17348
-0.17369
-0.17603
-0.163194
-0.169308
-0.148025
-0.155933
-0.13025
-0.139443
-0.120943
-0.197709
-0.159927
-0.177984
-0.237657
-0.217951
-0.272841
-0.256339
-0.295846
-0.286369
-0.301261
-0.300834
-0.288353
-0.297005
-0.260773
-0.276034
-0.225144
-0.243492
-0.188918
-0.206636
-0.158298
-0.172612
-0.136012
-0.146069
-0.121634
-0.127889
-0.114203
-0.117059
-0.113609
-0.113014
-0.120463
-0.116046
-0.135403
-0.126898
-0.157494
-0.145858
-0.180669
-0.168995
-0.323503
-0.332056
-0.140336
-0.261359
-0.104714
-0.0977147
-0.289087
-0.311398
-0.191446
-0.222113
-0.162973
-0.326124
-0.335355
-0.143043
-0.144978
-0.199165
-0.243054
-0.116093
-0.110853
-0.123976
-0.120554
-0.12763
-0.126151
-0.324927
-0.340407
-0.335934
-0.287828
-0.30847
-0.239026
-0.264126
-0.189796
-0.213773
-0.148418
-0.167736
-0.118135
-0.1319
-0.0978501
-0.106835
-0.0857899
-0.0908858
-0.0803768
-0.0823226
-0.0805404
-0.0797892
-0.0860984
-0.0826049
-0.0975466
-0.0910709
-0.113958
-0.105303
-0.131584
-0.122932
-0.14563
-0.139332
-0.15263
-0.150156
-0.1514
-0.15304
-0.143086
-0.148005
-0.130542
-0.137217
-0.116016
-0.123417
-0.101976
-0.108824
-0.0901726
-0.0957707
-0.203173
-0.182528
-0.245565
-0.224566
-0.282963
-0.265427
-0.307424
-0.297276
-0.313471
-0.312945
-0.300101
-0.309121
-0.271124
-0.287189
-0.233621
-0.252952
-0.195381
-0.214136
-0.162672
-0.178054
-0.138264
-0.149396
-0.121725
-0.12908
-0.111979
-0.116025
-0.108767
-0.109529
-0.112401
-0.109689
-0.123221
-0.11688
-0.140811
-0.131325
-0.160352
-0.150409
-0.175044
-0.16882
-0.332242
-0.337588
-0.202757
-0.177551
-0.271735
-0.227903
-0.128251
-0.29607
-0.0854073
-0.0822494
-0.0786992
-0.314114
-0.322864
-0.20387
-0.323132
-0.328298
-0.176936
-0.251101
-0.0975837
-0.0917851
-0.106785
-0.102591
-0.112398
-0.110119
-0.114057
-0.113746
-0.339838
-0.329099
-0.337961
-0.322582
-0.334642
-0.2835
-0.305134
-0.232302
-0.258509
-0.182218
-0.20648
-0.140719
-0.160125
-0.110115
-0.124058
-0.0893349
-0.0985969
-0.0765142
-0.082027
-0.0700318
-0.0725536
-0.0687595
-0.0687785
-0.0723882
-0.0699295
-0.0813712
-0.0761841
-0.095117
-0.0877838
-0.110449
-0.102862
-0.123042
-0.11734
-0.129731
-0.127256
-0.129451
-0.130458
-0.123158
-0.12695
-0.11317
-0.118481
-0.101909
-0.107594
-0.0911129
-0.096326
-0.0863639
-0.164264
-0.128477
-0.145429
-0.206215
-0.184794
-0.250693
-0.228586
-0.290098
-0.271604
-0.315866
-0.305184
-0.322288
-0.321705
-0.308491
-0.317817
-0.278319
-0.295078
-0.239012
-0.259295
-0.198771
-0.218526
-0.164126
-0.180459
-0.1379
-0.149928
-0.119567
-0.127827
-0.107857
-0.112921
-0.102338
-0.104307
-0.103136
-0.101926
-0.110278
-0.105911
-0.123102
-0.116097
-0.138527
-0.130686
-0.151785
-0.146051
-0.152867
-0.154163
-0.313057
-0.314104
-0.173514
-0.149046
-0.113836
-0.277355
-0.230042
-0.0815101
-0.0758657
-0.297912
-0.201173
-0.310413
-0.313574
-0.308318
-0.127062
-0.167105
-0.293506
-0.294126
-0.141529
-0.113125
-0.111781
-0.254806
-0.091374
-0.0866891
-0.0985713
-0.0953955
-0.102357
-0.10084
-0.102407
-0.10276
-0.0997083
-0.101211
-0.326078
-0.291324
-0.311366
-0.334999
-0.334215
-0.315498
-0.328613
-0.274134
-0.296929
-0.221952
-0.248405
-0.172077
-0.196162
-0.131095
-0.150254
-0.100756
-0.114606
-0.0799087
-0.0892505
-0.0666442
-0.072427
-0.0593447
-0.0623221
-0.0568635
-0.057541
-0.0587906
-0.0572528
-0.0655424
-0.0615283
-0.0768383
-0.0707244
-0.0900422
-0.083446
-0.101269
-0.0961319
-0.107639
-0.105178
-0.1082
-0.108642
-0.103767
-0.106514
-0.0962899
-0.100271
-0.0879857
-0.0920851
-0.0799746
-0.0837888
-0.0738871
-0.0767204
-0.0698157
-0.0715411
-0.163853
-0.144568
-0.206941
-0.184705
-0.253002
-0.230058
-0.293956
-0.274726
-0.320739
-0.309643
-0.327387
-0.326791
-0.313172
-0.322772
-0.282116
-0.299373
-0.241516
-0.262491
-0.19971
-0.220269
-0.163393
-0.180565
-0.135499
-0.148357
-0.115492
-0.124597
-0.101946
-0.107962
-0.094253
-0.0973608
-0.0924243
-0.0925921
-0.0963556
-0.0936836
-0.10519
-0.100266
-0.116498
-0.110732
-0.126027
-0.121915
-0.128693
-0.128439
-0.118142
-0.12529
-0.130175
-0.10851
-0.270453
-0.267293
-0.277078
-0.228278
-0.0977483
-0.293082
-0.193668
-0.0686603
-0.0633436
-0.0632215
-0.300556
-0.154497
-0.298667
-0.115696
-0.288464
-0.269867
-0.244607
-0.240776
-0.253915
-0.0784207
-0.0737533
-0.0861793
-0.0826097
-0.0913748
-0.0890864
-0.0934811
-0.0928327
-0.092248
-0.0932985
-0.0882565
-0.0905324
-0.284931
-0.233826
-0.260871
-0.318454
-0.304573
-0.325304
-0.32555
-0.303451
-0.317614
-0.260368
-0.283692
-0.208557
-0.234742
-0.159672
-0.183204
-0.11987
-0.138456
-0.0903512
-0.103855
-0.0698212
-0.0790669
-0.0564001
-0.0623184
-0.0485197
-0.0518382
-0.0450582
-0.0462787
-0.0455293
-0.0447876
-0.0502867
-0.0473314
-0.0593233
-0.0543396
-0.0705539
-0.064875
-0.0805301
-0.0759078
-0.0866115
-0.0841634
-0.0879247
-0.0878602
-0.0851685
-0.0869728
-0.0799899
-0.0827648
-0.0741065
-0.0770568
-0.0689279
-0.0713055
-0.065197
-0.0667683
-0.0640189
-0.12444
-0.095133
-0.10886
-0.161325
-0.141979
-0.205265
-0.182539
-0.252391
-0.228865
-0.294434
-0.274688
-0.321902
-0.310533
-0.328663
-0.32808
-0.314118
-0.323926
-0.282457
-0.300045
-0.241054
-0.262453
-0.198254
-0.219336
-0.160728
-0.178532
-0.131442
-0.145013
-0.109915
-0.119798
-0.0946492
-0.10156
-0.0848986
-0.0890857
-0.080588
-0.0820527
-0.0815847
-0.0804407
-0.0870086
-0.0838411
-0.0946974
-0.0907525
-0.100806
-0.0982697
-0.101828
-0.102052
-0.0939324
-0.0993441
-0.0872149
-0.213533
-0.205881
-0.0857053
-0.271957
-0.221581
-0.0681536
-0.063545
-0.282632
-0.183171
-0.285003
-0.141578
-0.278822
-0.104557
-0.264876
-0.243981
-0.217538
-0.0693646
-0.0915593
-0.186688
-0.178448
-0.082815
-0.0794034
-0.247966
-0.0760658
-0.0723182
-0.0819179
-0.0792703
-0.0852219
-0.083913
-0.0857551
-0.0858518
-0.0834721
-0.0849718
-0.0785558
-0.0812848
-0.072155
-0.0754747
-0.224313
-0.167627
-0.195898
-0.274837
-0.251153
-0.306661
-0.293757
-0.310643
-0.312181
-0.286811
-0.301964
-0.243167
-0.266692
-0.192426
-0.217917
-0.145392
-0.167954
-0.107425
-0.125139
-0.0791982
-0.0921388
-0.0593232
-0.0683176
-0.0460043
-0.0519356
-0.0377633
-0.0413159
-0.0335348
-0.0351903
-0.0327854
-0.0327187
-0.0357951
-0.0337767
-0.0427802
-0.0388301
-0.0521901
-0.0473583
-0.061016
-0.0568664
-0.0668223
-0.0643939
-0.0687872
-0.068282
-0.0674959
-0.0684777
-0.0643188
-0.0660478
-0.0607012
-0.0624897
-0.0578047
-0.0591161
-0.0562628
-0.0568671
-0.0565432
-0.0562028
-0.0584903
-0.0572847
-0.120388
-0.105037
-0.157039
-0.137682
-0.201209
-0.178308
-0.248839
-0.225034
-0.291478
-0.271443
-0.319322
-0.30781
-0.326103
-0.325551
-0.311352
-0.32128
-0.279393
-0.297139
-0.237617
-0.259214
-0.194321
-0.215672
-0.156071
-0.174272
-0.125781
-0.139887
-0.103007
-0.113542
-0.0862342
-0.0939364
-0.0746288
-0.0797929
-0.0680509
-0.070703
-0.066362
-0.0666123
-0.0687652
-0.067137
-0.0733399
-0.0709481
-0.0767524
-0.0754416
-0.0757695
-0.0769765
-0.0681853
-0.0727802
-0.0594507
-0.0636324
-0.152621
-0.140893
-0.0421517
-0.0262829
-0.261277
-0.210654
-0.068655
-0.267092
-0.1696
-0.0602236
-0.0530835
-0.0555775
-0.264948
-0.130364
-0.255319
-0.0933831
-0.23907
-0.0598433
-0.217367
-0.191042
-0.161419
-0.116692
-0.129187
-0.0374232
-0.0230235
-0.237019
-0.0682804
-0.0644562
-0.0744676
-0.0716274
-0.0784937
-0.0767776
-0.0800851
-0.0796183
-0.0791912
-0.079945
-0.0758189
-0.0777264
-0.0702646
-0.0732662
-0.0632236
-0.0667779
-0.154905
-0.102208
-0.127514
-0.211944
-0.183564
-0.261399
-0.238531
-0.290488
-0.279203
-0.291691
-0.294735
-0.266217
-0.281961
-0.222841
-0.246007
-0.174097
-0.198416
-0.129743
-0.150957
-0.0941544
-0.110754
-0.0675957
-0.0798013
-0.0486507
-0.0572662
-0.0356532
-0.0414927
-0.0272463
-0.030937
-0.022448
-0.0244376
-0.0207052
-0.0211953
-0.0222126
-0.0210093
-0.0273523
-0.0243408
-0.0350851
-0.0310357
-0.0428501
-0.0391362
-0.0483892
-0.0459894
-0.0508997
-0.050022
-0.0508585
-0.0511378
-0.0494116
-0.050231
-0.0477839
-0.0485531
-0.0469009
-0.0472098
-0.047403
-0.0469074
-0.0494183
-0.0481306
-0.0510161
-0.0868149
-0.0647938
-0.0751502
-0.114937
-0.099903
-0.151086
-0.131948
-0.194903
-0.172158
-0.242419
-0.218636
-0.285149
-0.265054
-0.313072
-0.301536
-0.3198
-0.319288
-0.304969
-0.314929
-0.273026
-0.290751
-0.231312
-0.25288
-0.187983
-0.209372
-0.149452
-0.167833
-0.118549
-0.133004
-0.0948528
-0.105885
-0.0768583
-0.085212
-0.063681
-0.0696792
-0.0551407
-0.0588243
-0.0511031
-0.0525742
-0.0508754
-0.0505843
-0.0527978
-0.0517131
-0.0540907
-0.0537229
-0.0518382
-0.0535794
-0.0448694
-0.0488006
-0.0372182
-0.0410296
-0.018446
-0.0300844
-0.0116158
-0.0129439
-0.0215675
-0.00912438
-0.00899963
-0.0594229
-0.0950822
-0.0796637
-0.246028
-0.196524
-0.0624899
-0.0585359
-0.247743
-0.155712
-0.242358
-0.117511
-0.230482
-0.0810368
-0.213162
-0.0534001
-0.191567
-0.0348843
-0.166579
-0.13868
-0.108242
0.00220941
-0.0755922
-0.0603073
-0.0555312
-0.0514374
-0.0593642
0.000910982
-0.00953338
-0.0208651
-0.222214
-0.0690185
-0.0659924
-0.0735556
-0.0715541
-0.0758806
-0.075018
-0.0758628
-0.07617
-0.0735922
-0.0750043
-0.0692045
-0.0716413
-0.0630632
-0.0663488
-0.0554879
-0.0594119
-0.0475943
-0.0515088
-0.0868555
-0.0420252
-0.0632352
-0.140678
-0.112889
-0.196907
-0.169193
-0.244438
-0.22269
-0.270555
-0.261002
-0.268961
-0.273276
-0.242365
-0.258382
-0.20016
-0.222467
-0.154277
-0.177021
-0.113235
-0.132814
-0.0804391
-0.0957414
-0.0558255
-0.067169
-0.0380202
-0.0461581
-0.0255215
-0.0311826
-0.0171166
-0.0208619
-0.0119242
-0.0141575
-0.0093987
-0.0103347
-0.00964522
-0.00913529
-0.013147
-0.010979
-0.0193341
-0.0160106
-0.0261095
-0.0228028
-0.0313815
-0.0290219
-0.0343355
-0.0331488
-0.0353438
-0.0350316
-0.0353705
-0.0354121
-0.0354422
-0.035344
-0.0363232
-0.0357439
-0.0384818
-0.0372246
-0.0421113
-0.0400953
-0.0473258
-0.0445284
-0.0541305
-0.0505184
-0.0812486
-0.0701452
-0.10849
-0.0939211
-0.143645
-0.125014
-0.186506
-0.164227
-0.233285
-0.209831
-0.275608
-0.255679
-0.303335
-0.291881
-0.309964
-0.309488
-0.29518
-0.305083
-0.263553
-0.28109
-0.222317
-0.243637
-0.179418
-0.200614
-0.14104
-0.159391
-0.109901
-0.124523
-0.0856085
-0.096981
-0.0666981
-0.0755507
-0.0522664
-0.0589369
-0.0421149
-0.0466489
-0.0361293
-0.0386139
-0.0337163
-0.0345358
-0.03346
-0.0334409
-0.0330578
-0.033442
-0.0299492
-0.0319878
-0.0236769
-0.0270414
-0.0159005
-0.02018
-0.0042851
-0.00961188
0.00201725
0.000327171
0.0028873
-0.0414222
-0.0232083
-0.0108621
-0.00115951
-0.227457
-0.180625
-0.0436639
-0.226068
-0.140864
-0.0582685
-0.0493293
-0.0540651
-0.218676
-0.103389
-0.206044
-0.0716404
-0.188949
-0.0492052
-0.168326
-0.0331435
-0.144824
-0.0214713
-0.118572
-0.0895649
-0.0582679
-0.0128895
-0.0254089
-0.00643242
-0.00378536
-0.204805
-0.0653346
-0.0620361
-0.0703552
-0.068101
-0.0732751
-0.0720922
-0.073965
-0.0739065
-0.0724505
-0.0734803
-0.0689149
-0.0709252
-0.0635851
-0.0664609
-0.0568543
-0.0603419
-0.0489911
-0.0530287
-0.0407148
-0.0447896
-0.0245629
0.012469
-0.00506434
-0.0710802
-0.0465518
-0.125394
-0.0973942
-0.180758
-0.153567
-0.22508
-0.205136
-0.247237
-0.239242
-0.243085
-0.24852
-0.21598
-0.231914
-0.175833
-0.196824
-0.13358
-0.154401
-0.0963451
-0.114074
-0.0666301
-0.0805114
-0.0441419
-0.0545409
-0.0276197
-0.0352106
-0.0157547
-0.0211701
-0.00749121
-0.0112203
-0.00205796
-0.00445528
0.00105955
-0.000220781
0.00184203
0.0017771
-0.000229488
0.00119009
-0.00499259
-0.00234524
-0.0108305
-0.00791189
-0.0158277
-0.0135212
-0.0191299
-0.0176964
-0.0210015
-0.0202008
-0.0222557
-0.021648
-0.0237523
-0.0229257
-0.0261245
-0.0247977
-0.0297337
-0.0277605
-0.0347744
-0.032057
-0.0412375
-0.0377821
-0.045091
-0.0368462
-0.0551981
-0.0394513
-0.0469378
-0.0750757
-0.064454
-0.101178
-0.0872282
-0.134913
-0.117025
-0.17624
-0.154726
-0.221678
-0.198849
-0.263111
-0.243564
-0.29039
-0.279114
-0.296902
-0.296442
-0.28231
-0.29206
-0.251269
-0.268468
-0.210888
-0.23176
-0.168848
-0.189634
-0.131047
-0.14916
-0.100048
-0.114657
-0.0754885
-0.087041
-0.0559733
-0.0651689
-0.0406134
-0.0477898
-0.029211
-0.0344101
-0.021687
-0.0249732
-0.0175438
-0.0192429
-0.0155673
-0.016388
-0.0138099
-0.0148012
-0.0100953
-0.0123082
-0.00419071
-0.00730726
0.00334049
-0.000688599
0.0105219
0.00746572
0.0136402
0.012725
0.012238
0.0134237
0.00776065
0.0103183
-0.00726188
0.000885926
0.00476573
0.00866996
0.0284162
-0.207045
-0.163663
-0.0630194
-0.0593531
-0.203833
-0.12547
-0.195771
-0.0917291
-0.183468
-0.0651615
-0.167539
-0.0464608
-0.148462
-0.0328791
-0.126287
-0.0228918
-0.101105
-0.0161181
-0.073288
-0.0431274
-0.0109517
0.0223702
0.00848997
-0.011855
-0.0328699
-0.00375182
0.00362509
0.0427237
-0.185938
-0.0687524
-0.0661619
-0.0722775
-0.0707997
-0.0735946
-0.0732207
-0.0727002
-0.0734204
-0.0697585
-0.0714766
-0.0650244
-0.0676012
-0.0587999
-0.0620801
-0.0514512
-0.0552387
-0.0433483
-0.0475008
-0.0349396
-0.0391214
-0.0270748
-0.0309498
0.0306391
0.0616718
0.0469677
-0.00780865
0.0125241
-0.0553844
-0.0304479
-0.109734
-0.081976
-0.162772
-0.137034
-0.203113
-0.185213
-0.221331
-0.215386
-0.214706
-0.22106
-0.187888
-0.203301
-0.150684
-0.169932
-0.112679
-0.131314
-0.0795517
-0.0953119
-0.0530482
-0.0654552
-0.0327647
-0.0421813
-0.0176059
-0.0246082
-0.00646896
-0.0115894
0.00154147
-0.00211344
0.0070852
0.004592
0.0106269
0.00909267
0.0122207
0.0116944
0.011371
0.0121391
0.00791512
0.00993117
0.00298254
0.00552136
-0.00172002
0.000516384
-0.00528164
-0.00365541
-0.0078475
-0.0066524
-0.0100995
-0.00896314
-0.0127641
-0.0113393
-0.016366
-0.0144223
-0.0211926
-0.0186128
-0.0273745
-0.0241066
-0.0349777
-0.0309676
-0.0441595
-0.0393434
-0.0552133
-0.0493933
-0.0349757
-0.0232722
-0.0288147
-0.0496477
-0.0419482
-0.0684844
-0.0584211
-0.0931841
-0.0799928
-0.125108
-0.108172
-0.164381
-0.143905
-0.207909
-0.185987
-0.247995
-0.229033
-0.2746
-0.263583
-0.280936
-0.280515
-0.26675
-0.27625
-0.23655
-0.25327
-0.19735
-0.217605
-0.156538
-0.176725
-0.119693
-0.137378
-0.0891986
-0.103616
-0.0647042
-0.0762738
-0.0449029
-0.0542822
-0.0289455
-0.0364595
-0.0166492
-0.0223309
-0.00797836
-0.0118656
-0.00252657
-0.00489225
0.00075567
-0.000702799
0.00354453
0.00209273
0.00760261
0.00534162
0.0130598
0.0102236
0.0191913
0.0161871
0.0234393
0.0217255
0.0238996
0.0241909
0.0211323
0.022883
0.0160129
0.0188288
0.0125513
0.0556193
0.0751644
-0.00958031
-0.00205468
-0.186418
-0.146694
-0.182647
-0.11187
-0.0219522
-0.0183325
-0.0616722
-0.0505858
-0.0574615
-0.174971
-0.082831
-0.163794
-0.0609723
-0.149369
-0.0453172
-0.131711
-0.033827
-0.11071
-0.0257633
-0.0864196
-0.0206032
-0.059382
-0.0177513
-0.0297911
0.00195658
0.0347213
-0.0163126
0.0675734
0.0874021
-0.00851817
-0.167133
-0.0684052
-0.0653665
-0.072777
-0.0709199
-0.0747823
-0.074115
-0.0744916
-0.0749232
-0.0720464
-0.0735277
-0.067715
-0.070102
-0.0618245
-0.0649464
-0.0547327
-0.0584072
-0.0468237
-0.0508545
-0.0384623
-0.0427165
-0.030002
-0.0342138
-0.0258293
0.103781
0.0986481
0.115102
0.0783487
0.0918062
0.0467453
0.0635019
0.00729308
0.0280908
-0.0409182
-0.0158254
-0.0940864
-0.0672966
-0.143509
-0.119933
-0.179025
-0.163606
-0.193168
-0.189082
-0.184624
-0.191558
-0.159023
-0.173437
-0.125534
-0.142699
-0.092165
-0.108469
-0.063245
-0.0770102
-0.0399504
-0.0508887
-0.0218692
-0.0303016
-0.00810153
-0.0144972
0.0022487
-0.00254376
0.00992058
0.0063857
0.0154663
0.0129345
0.0192888
0.0175786
0.0214954
0.0206132
0.0216594
0.0218749
0.0193911
0.0208205
0.0153478
0.0175052
0.0109751
0.0131188
0.00723782
0.00900723
0.00412809
0.00563391
0.00108506
0.00264121
-0.00251169
-0.000608714
-0.00710289
-0.0046614
-0.0129193
-0.00984678
-0.0200509
-0.0163142
-0.0286168
-0.0241113
-0.0386666
-0.0334036
-0.0443529
-0.0303959
-0.0194513
-0.0246265
-0.0439774
-0.0367762
-0.0616183
-0.0521983
-0.0846869
-0.0723742
-0.114474
-0.0986676
-0.151246
-0.132046
-0.19235
-0.171592
-0.230661
-0.212476
-0.2564
-0.245704
-0.262646
-0.262185
-0.248961
-0.258138
-0.21983
-0.235949
-0.182083
-0.201581
-0.142795
-0.162233
-0.10722
-0.12432
-0.0775522
-0.091616
-0.0534429
-0.0648702
-0.0336738
-0.043077
-0.0174494
-0.0251335
-0.00460931
-0.0105963
0.00484074
0.000538217
0.0112267
0.0083811
0.0154652
0.0135374
0.0190115
0.0172254
0.023251
0.0210008
0.0281535
0.025681
0.0324159
0.0305232
0.0343136
0.0338668
0.0329735
0.0340424
0.0291147
0.0313219
0.0233772
0.0265308
0.0154096
0.0196831
0.00498271
0.0105414
-0.0158937
-0.0083319
-0.00130145
-0.167129
-0.131296
-0.0147242
-0.0689327
-0.0652432
-0.163735
-0.100934
-0.157121
-0.0766978
-0.14736
-0.0588391
-0.134362
-0.0457503
-0.117902
-0.0363672
-0.0978097
-0.0301839
-0.0742478
-0.0265947
-0.0475967
-0.0248417
-0.0182719
-0.0241822
0.0132179
0.0457191
0.0784522
0.109346
-0.00140852
-0.0242853
-0.0162535
-0.00878501
-0.149827
-0.0745479
-0.0721438
-0.0774967
-0.0763688
-0.0779026
-0.078013
-0.0759688
-0.0772188
-0.0719706
-0.0742108
-0.0662633
-0.0693107
-0.0592397
-0.0628941
-0.0513003
-0.0553608
-0.0428376
-0.0471123
-0.0342263
-0.0385166
-0.0256929
-0.0298726
-0.0175996
-0.0215859
-0.0104716
-0.013942
0.132261
0.137186
0.115689
0.125866
0.0911403
0.104281
0.0595483
0.0763031
0.0195305
0.0405662
-0.0280166
-0.00345354
-0.0783558
-0.0533037
-0.123046
-0.102012
-0.153304
-0.140466
-0.163497
-0.161103
-0.153841
-0.160908
-0.130365
-0.143346
-0.101149
-0.116011
-0.0725492
-0.0864974
-0.0477484
-0.0595759
-0.0275432
-0.0370691
-0.0115911
-0.0190685
0.000802658
-0.0049886
0.0103389
0.00589291
0.0176105
0.0142303
0.02307
0.0205467
0.0270538
0.0252329
0.0296982
0.0285551
0.0306717
0.0304349
0.0294609
0.0303533
0.0262981
0.0280656
0.0223089
0.024329
0.018479
0.0203455
0.0149558
0.0167001
0.0113025
0.0131827
0.00698475
0.00925784
0.00162354
0.00445326
-0.00496964
-0.00151011
-0.012862
-0.00874828
-0.022125
-0.0173146
-0.032865
-0.0272857
-0.0454806
-0.03887
-0.0607248
-0.0526595
-0.0155756
-0.00725476
-0.0112499
-0.0256248
-0.020347
-0.0382554
-0.0315424
-0.0545989
-0.0458819
-0.0758694
-0.0645269
-0.103272
-0.0887323
-0.137183
-0.119454
-0.175416
-0.156051
-0.211557
-0.194327
-0.236257
-0.225935
-0.242469
-0.241918
-0.229446
-0.238207
-0.201579
-0.217001
-0.165497
-0.18413
-0.127954
-0.146532
-0.0938885
-0.11028
-0.0653104
-0.0788859
-0.041872
-0.053012
-0.0224364
-0.0317109
-0.00626357
-0.0139562
0.0067865
0.00066262
0.0166775
0.0121283
0.0236743
0.020507
0.0285881
0.0263241
0.0326712
0.0306543
0.0369232
0.034761
0.0410094
0.0390621
0.0435528
0.0425726
0.0434487
0.0438813
0.0407327
0.0423821
0.0361592
0.0386503
0.0299071
0.0332749
0.0217059
0.0260388
0.0114242
0.0168302
0.00533293
-0.025049
-0.0167344
-0.150229
-0.118424
-0.147823
-0.0928412
-0.00681111
-0.00364687
-0.0696374
-0.0556495
-0.0647085
-0.142526
-0.0730735
-0.134125
-0.0585076
-0.12232
-0.0478681
-0.106792
-0.0406766
-0.0874106
-0.0362661
-0.0642757
-0.0341632
-0.0377751
-0.0334322
-0.00847413
-0.0334979
0.0229598
-0.034158
0.0558103
0.0888693
0.118525
-0.0345088
-0.0251999
0.147078
0.151826
-0.134971
-0.0771731
-0.0738836
-0.0815025
-0.0797224
-0.0829283
-0.0825731
-0.0816693
-0.0826209
-0.0780426
-0.0801339
-0.0724569
-0.0754705
-0.0653608
-0.0690724
-0.0572058
-0.0613904
-0.0484214
-0.0528677
-0.0393975
-0.0439177
-0.0304612
-0.0348977
-0.021882
-0.0261079
-0.0138931
-0.0177823
-0.0101585
0.141944
0.149843
0.123364
0.132531
0.0998782
0.112506
0.0683516
0.0850999
0.0289814
0.0496037
-0.0163002
0.00686487
-0.0623529
-0.0396792
-0.101467
-0.0833055
-0.126368
-0.116087
-0.133179
-0.132122
-0.123391
-0.130088
-0.102824
-0.114035
-0.0781617
-0.0906462
-0.0542164
-0.0658994
-0.0332911
-0.043305
-0.0159697
-0.0241764
-0.0020233
-0.00859707
0.00904715
0.00384298
0.017767
0.0136743
0.0245974
0.0213967
0.0299009
0.0274241
0.0339487
0.0320702
0.0368821
0.0355603
0.0384709
0.0378806
0.0381721
0.0385865
0.0358754
0.037244
0.0323404
0.0341962
0.0285079
0.0304249
0.0246845
0.0266062
0.0205741
0.0226968
0.0157196
0.0182679
0.00978601
0.0129043
0.00261354
0.00636201
-0.00584661
-0.00145185
-0.0156299
-0.0105681
-0.0268582
-0.0210409
-0.0399544
-0.0331262
-0.0473714
-0.0117129
-0.00411145
-0.00781788
-0.0208957
-0.0160556
-0.0325583
-0.0263658
-0.047541
-0.039565
-0.06691
-0.0565954
-0.0917634
-0.0785831
-0.122551
-0.106438
-0.15755
-0.139768
-0.191164
-0.175055
-0.214653
-0.204759
-0.220883
-0.220194
-0.208712
-0.216959
-0.182284
-0.196923
-0.148022
-0.165715
-0.11237
-0.130014
-0.079969
-0.0955703
-0.0526746
-0.0656594
-0.030142
-0.0408726
-0.0113065
-0.0203155
0.00452492
-0.00302875
0.017482
0.0113733
0.0275171
0.0228674
0.0348589
0.0314976
0.0402288
0.0377328
0.0446493
0.0425027
0.04869
0.0467308
0.0517263
0.0504103
0.0526198
0.0524929
0.0509694
0.0521011
0.0473147
0.0493436
0.0422161
0.0449316
0.0355703
0.0391001
0.0273316
0.0317219
0.0172554
0.0225708
0.00505855
0.0114338
-0.00913935
-0.00188723
-0.0343947
-0.0250019
-0.016945
-0.136313
-0.10843
-0.000769732
-0.0794556
-0.0747583
-0.135128
-0.0874518
0.145635
0.150072
0.144735
-0.13112
-0.0715912
-0.123902
-0.0600204
-0.11307
-0.0518707
-0.0982918
-0.0469064
-0.0794128
-0.0442804
-0.0564803
-0.0434521
-0.0299906
-0.0437669
-0.000371035
-0.0441025
0.0315756
-0.0447744
0.0649844
-0.0445651
0.0980098
0.12632
0.146098
0.148808
-0.0165979
-0.0440342
-0.0336534
-0.0243298
-0.123043
-0.0861936
-0.0833439
-0.0892828
-0.0881586
-0.0891422
-0.0896042
-0.0861321
-0.0879726
-0.0807377
-0.0837048
-0.0735052
-0.0773196
-0.0649811
-0.0693738
-0.0556737
-0.0603971
-0.046032
-0.0508695
-0.0364362
-0.0412074
-0.0271936
-0.0317508
-0.0185453
-0.0227843
-0.0106081
-0.0144801
-0.00358137
-0.0069652
0.00228601
-0.00051391
0.146754
0.14556
0.142957
0.147009
0.12601
0.134713
0.103978
0.116
0.0737092
0.0898344
0.0364636
0.0558564
-0.00506643
0.0159897
-0.0457895
-0.0259404
-0.0789534
-0.0637475
-0.0988869
-0.0908712
-0.103239
-0.102996
-0.094314
-0.100179
-0.0771807
-0.0864352
-0.0570397
-0.0672209
-0.0374214
-0.04702
-0.0200189
-0.0283879
-0.00532014
-0.0123242
0.00677705
0.00104072
0.0165991
0.0119533
0.0245201
0.020778
0.0308862
0.027881
0.0359802
0.0335799
0.0400139
0.0381205
0.0431152
0.0416828
0.045142
0.0442915
0.045595
0.0456016
0.044129
0.0450976
0.0411277
0.0427707
0.0373972
0.0393127
0.0333793
0.0354241
0.028939
0.0312369
0.0237035
0.0264459
0.017372
0.0206901
0.00980215
0.0137482
0.000961584
0.0055433
-0.0091684
-0.00393559
-0.02073
-0.0147472
-0.0341557
-0.027165
-0.0501429
-0.0417451
-0.0693535
-0.0592495
-0.00102823
0.00485034
0.00197211
-0.00787203
-0.00427667
-0.0163135
-0.0118604
-0.0269666
-0.021317
-0.0405525
-0.0333343
-0.057975
-0.0487133
-0.0801999
-0.068425
-0.107707
-0.0933024
-0.139203
-0.123153
-0.169975
-0.15514
-0.192077
-0.18267
-0.198387
-0.197501
-0.187241
-0.194889
-0.162418
-0.176197
-0.13009
-0.146792
-0.0964044
-0.11308
-0.0657427
-0.0805143
-0.039846
-0.0521763
-0.0183885
-0.0286183
-0.000367867
-0.00899926
0.014878
0.00758813
0.0274866
0.0215209
0.0374239
0.0327914
0.0449019
0.0414464
0.0505384
0.0479059
0.0550622
0.0529125
0.0586069
0.0569918
0.0604327
0.0597931
0.0598668
0.0604597
0.0570818
0.0587151
0.0526932
0.0550695
0.0472044
0.0501144
0.0404903
0.0440289
0.0323443
0.0366171
0.0225741
0.0276823
0.0109999
0.0170999
-0.00232586
0.00456988
-0.00925311
-0.0426336
-0.0323551
-0.125525
-0.101286
0.145799
-0.125556
-0.0845169
0.00492005
0.00742053
-0.080194
-0.0631582
-0.0738771
-0.122726
-0.0721705
-0.116565
-0.0635097
-0.106605
-0.0580297
-0.0924582
-0.0551951
-0.0738991
-0.0542437
-0.0509723
-0.0548821
-0.0240907
-0.0557279
0.00622724
-0.0563625
0.0390118
-0.0565695
0.0730595
-0.05606
0.105761
-0.0544509
0.132423
0.145016
0.147508
-0.0520065
-0.0404341
-0.114111
-0.090063
-0.0856345
-0.0959946
-0.0936039
-0.0978635
-0.097405
-0.0961218
-0.0974229
-0.0913001
-0.0940619
-0.0840667
-0.0879458
-0.0751199
-0.0797677
-0.0651127
-0.0702122
-0.0546128
-0.0598931
-0.0440871
-0.0493274
-0.0339029
-0.0389322
-0.0243373
-0.029026
-0.0155811
-0.0198485
-0.00770826
-0.0115305
-0.000805616
-0.0041265
0.00225575
0.143069
0.143188
0.143695
0.143045
0.140085
0.143212
0.125567
0.13358
0.105039
0.116209
0.077087
0.0919652
0.0432035
0.0607457
0.00643429
0.0249327
-0.0284786
-0.0116144
-0.0559671
-0.0434845
-0.0717309
-0.0654686
-0.0747954
-0.0747944
-0.067525
-0.0722334
-0.0539933
-0.0612868
-0.0380593
-0.0461349
-0.022296
-0.0300483
-0.00800284
-0.0149192
0.00436205
-0.00156772
0.0147849
0.00981122
0.023449
0.0193252
0.0306033
0.0272017
0.0364964
0.0336953
0.0413418
0.0390408
0.0453
0.0434252
0.0484738
0.0469847
0.0507852
0.0497582
0.0518219
0.0514999
0.0511182
0.0517024
0.0487212
0.0501026
0.0452167
0.0470679
0.0411151
0.0432296
0.0364539
0.038871
0.0309657
0.0338352
0.0243859
0.0278268
0.0165823
0.0206429
0.00753093
0.0122148
-0.002784
0.00253881
-0.0145162
-0.00844992
-0.0280915
-0.0210296
-0.0441633
-0.0357603
-0.053248
0.00206761
0.00732094
0.00473262
-0.00416586
-0.000923524
-0.0118899
-0.00781793
-0.0215399
-0.0164349
-0.0337289
-0.0272674
-0.049213
-0.0409996
-0.0688096
-0.0584428
-0.0929854
-0.0803247
-0.120817
-0.106596
-0.148485
-0.135061
-0.168999
-0.160157
-0.175427
-0.174294
-0.165481
-0.172454
-0.142428
-0.155269
-0.112121
-0.127798
-0.0804225
-0.0961257
-0.0515015
-0.0654417
-0.0270352
-0.0386881
-0.00674383
-0.0164194
0.0103159
0.00214114
0.024794
0.0178622
0.0368594
0.0311341
0.0465136
0.0419888
0.0539529
0.0504913
0.0596428
0.0569898
0.0639656
0.0619748
0.0667241
0.065581
0.0673104
0.0673175
0.0655629
0.0667104
0.0619926
0.0639635
0.0572077
0.0597367
0.0514486
0.0544558
0.0446475
0.0481899
0.0366629
0.0408175
0.0273183
0.0321742
0.0164671
0.0221086
0.00415372
0.0104537
-0.00890491
-0.00226379
-0.0231937
-0.0159608
-0.0484383
-0.0371713
-0.0303437
-0.117743
-0.096817
0.0096865
-0.0916152
-0.0851861
-0.118958
-0.0839444
-0.11728
-0.0749754
-0.112172
-0.0693574
-0.103067
-0.0665721
-0.0894482
-0.0659056
-0.0709762
-0.0667446
-0.0476569
-0.0682858
-0.0199205