/*--------------------------------*- C++ -*----------------------------------*\
  =========                 |
  \\      /  F ield         | OpenFOAM: The Open Source CFD Toolbox
   \\    /   O peration     | Website:  https://openfoam.org
    \\  /    A nd           | Version:  10
     \\/     M anipulation  |
\*---------------------------------------------------------------------------*/
FoamFile
{
    format      ascii;
    class       surfaceScalarField;
    location    "19";
    object      phi;
}
// * * * * * * * * * * * * * * * * * * * * * * * * * * * * * * * * * * * * * //

dimensions      [0 3 -1 0 0 0 0];

internalField   nonuniform List<scalar> 
51391
(
-0.0352369
0.0127284
-0.0113046
0.0338131
0.0152718
-0.0166164
-0.0338922
0.0236462
-0.0153844
0.00701003
0.0356844
0.000690129
0.0262081
-0.0192817
0.0197545
-0.0266809
0.0199671
-0.0165097
0.0227506
-0.0553238
0.0361989
0.0418509
-0.0227261
0.00846784
-0.049403
-0.0143886
0.0576395
0.000119588
-0.0492912
0.0252768
0.0381921
-0.00582943
0.02172
-0.0266651
0.0596262
-0.0546811
0.0550288
0.0198787
-0.0531876
0.0697506
-0.0528995
-0.0435162
0.0135075
0.00799886
-0.00421317
-0.0172932
0.016116
0.00355959
-0.00616811
0.0539315
0.0373239
-0.049804
-0.0414515
0.0756639
0.0221531
-0.0438855
0.108604
-0.0642216
-0.0626201
0.0182381
0.0425303
0.0755843
-0.00951091
0.0422252
-0.0107567
-0.037647
0.0061786
0.0094071
0.0290343
0.00378375
0.0102426
-0.0339728
0.0237302
0.023291
0.0106644
-0.0237128
-0.0038188
-0.0427599
-7.83777e-05
0.046657
-0.0458997
0.0513238
-0.00924282
0.00595717
-0.00727099
-0.0445859
0.00629842
-0.0431011
-0.0439855
0.010557
0.0363516
-0.00292308
0.000146744
-0.0442106
0.025968
0.031246
0.0203765
0.0254784
-0.0198869
0.0108034
-0.00363013
-0.00717327
0.00691408
0.00388932
-0.0128553
0.0146175
-0.00539235
-0.017093
0.0221927
-0.0120559
0.00695614
-0.0439318
0.00802502
0.0350336
0.000873146
-0.0422869
-0.00394031
0.00229546
0.0614183
-0.00960457
-0.0587604
0.0069467
0.0430257
0.00158361
0.0168089
0.0204798
0.0489345
0.0172269
-0.0866413
0.0187524
-0.0530993
0.0548267
0.058034
0.0186516
-0.0579332
-0.0384331
0.00276063
0.00729248
0.02838
-0.0384967
2.0858e-06
6.15484e-05
0.00078359
-0.037776
-0.00150428
0.0683741
0.0244298
-0.0346697
-0.0581342
0.0153317
0.0735881
-0.0205456
-0.00127206
-0.00807004
0.00842874
0.000913354
-0.0305706
0.00743343
0.0218652
0.0223588
-0.029343
-0.0235865
0.0146639
-0.0485955
-0.0537581
0.0876897
-0.0158967
0.0892808
-0.0587203
-0.0481634
0.0306735
0.0174899
-0.03118
-0.0169833
0.0281217
-0.0178837
0.00299723
-0.0132353
0.00426342
0.000588868
0.0232694
0.00027416
-0.0218855
0.00372764
-0.0632005
-0.0194157
0.0280589
0.0545574
-0.017992
-0.0468535
0.00164505
0.0208742
-0.00268278
-0.0361835
0.0260168
-0.0245583
-0.051542
0.0259899
-0.0227646
0.0483167
0.0181172
-0.0416003
-0.0160018
0.00794291
-0.0159715
0.0240304
-0.0299664
-0.00724375
0.0212083
-0.0308352
-0.0046464
0.00551526
0.00795896
-0.00272876
-0.0052302
0.00357813
0.00438083
0.00235258
0.00456149
0.0183589
0.00537271
-0.0150449
-0.00868674
0.0057933
0.0125656
0.0191143
0.016756
-0.0062044
-0.0296659
0.0217876
0.0240163
-0.0266896
0.0465588
0.00496484
-0.0297361
-0.0471274
0.0468074
-0.0051804
0.00550042
0.00518259
0.0385658
-0.00643493
-0.00463139
0.00308521
0.0303282
0.00568407
-0.0390975
0.0290086
-0.0372705
0.0113471
0.0152402
0.0440966
0.0372978
-0.0373095
1.38019e-05
0.0254084
0.0146501
-0.0110616
0.0101166
-0.00385018
0.00479523
0.0180741
-0.0243568
-0.0047789
0.0173754
0.0108153
0.00892883
0.026124
-0.000258513
-0.0347944
0.0146963
0.0261212
-0.0318886
0.0259104
0.01491
0.00239051
-0.00435848
0.0391959
-0.0372279
0.0418228
0.00137837
-0.0408107
-0.00341162
0.00714536
-0.00770002
0.00396628
-0.00956692
0.00121765
0.00493765
-0.00763823
0.00408154
0.010702
-0.00973938
0.0319116
0.00907375
0.034426
-0.00781372
0.0304265
-0.0177578
0.00616073
-0.0188294
0.0260626
0.0246849
-0.020321
0.0264805
-0.0196996
0.0362055
-0.021552
-0.0280529
0.0133993
-0.010002
0.0371468
0.00906069
0.028308
-0.007803
-0.0305069
0.024435
-0.01322
-0.00460423
0.034744
0.00378431
-0.0339241
0.0262868
0.00103825
-0.0319293
0.0408909
-0.0105054
0.00286181
0.0427933
-0.0125519
-0.0331032
0.00213982
0.0397466
-0.0390246
-0.0557559
-0.0570612
0.0398311
-0.0504217
-0.0451652
-0.0415578
-0.00213499
0.00140584
0.000622124
-0.0417856
-0.000394328
0.00496675
0.0421375
-0.00831136
-0.0387929
0.041687
-0.0357432
-0.000977038
0.0119644
-0.0438494
0.0366925
-0.00480758
-0.0253555
-0.000481592
0.0378016
0.0405704
0.00676959
-0.00840146
-0.0389386
0.00747839
-0.00716063
0.0402527
0.0214291
0.0535982
-0.0199984
0.0280332
-0.0507506
-0.0437776
0.066495
0.0408611
-0.0694752
0.0566474
0.0186476
-0.0171173
0.0393308
0.0637658
0.0108628
-0.064205
-0.0104237
0.00592508
0.0717689
-0.0139281
0.0933054
0.00244648
0.0171092
-0.112861
-0.0141237
0.0543299
-0.0101645
0.00795625
-0.00735864
0.0204528
-0.0113365
-0.0192808
0.0205309
0.00883653
-0.009163
-0.0202044
0.00871448
0.0162635
-0.00444708
-0.0179624
0.0189532
0.00772368
0.0217365
-0.0308624
0.0146745
-0.00830267
-0.034181
0.0065515
0.0359322
-0.0278247
0.0436433
-0.0241213
0.00444426
0.00317054
-0.0354395
0.00403061
-0.0337673
-0.0299855
0.0298413
-0.0409179
0.0323387
0.029137
-0.00200068
-0.0216129
0.00140411
0.0222095
0.0188133
-0.00968427
-0.0341351
0.025006
-0.0246828
0.0141807
0.0293155
-0.0473851
0.013018
-0.0376373
0.0124132
-0.0221609
-0.0351174
0.0154595
-0.0179794
-0.0340868
0.0129036
-0.0139342
-0.0331338
0.00965217
-0.0106052
-0.0320628
0.00603933
-0.00711031
-0.0310704
0.00253148
-0.0035239
-0.0301513
-0.00121652
0.000297441
-0.0293263
-0.00495566
0.00413065
-0.028718
-0.00844433
0.00783606
-0.0281138
-0.0120598
0.0114557
-0.0278478
-0.0149356
0.0146696
-0.0275388
-0.0179681
0.0176591
-0.02769
-0.0198379
0.019989
-0.0277772
-0.0218634
0.0219507
-0.0283776
-0.0224825
0.0230828
-0.0288387
-0.0233861
0.0238473
-0.0297136
-0.0230322
0.0239071
-0.0302844
-0.0233302
0.023901
-0.031095
-0.0227811
0.0235917
-0.0314704
-0.0232144
0.0235899
-0.0320252
-0.0229978
0.0235525
-0.0321493
-0.0237867
0.0239107
-0.032512
-0.0238148
0.0241775
-0.0324839
-0.0247583
0.0247302
-0.0327317
-0.0248187
0.0250665
-0.032582
-0.0257708
0.025621
-0.0327268
-0.0257386
0.0258834
-0.0324341
-0.0265379
0.0262453
-0.0323133
-0.0263356
0.0262147
-0.0318974
-0.027187
0.0267711
-0.0324292
-0.026203
0.0267348
-0.0327711
0.0263748
-0.0260329
-0.0372025
0.0247093
-0.0202779
-0.0129969
-0.0303136
0.00610812
-0.0307103
0.0310717
0.0260134
-0.0315588
0.0255578
-0.0360315
0.0369329
-0.0211794
0.0292369
-0.031459
0.0164028
-0.0196715
0.0305549
0.0183535
-0.0205721
0.0302161
-0.0314005
-0.017628
-0.0354018
0.0349821
-0.0257834
-0.0245017
-0.0348849
0.0343393
-0.0257899
-0.0270897
-0.0347461
0.0342405
-0.025233
-0.0269447
-0.0345079
0.0339033
-0.0242141
-0.0260381
-0.0340397
0.0333503
-0.0231253
-0.0248948
-0.0333531
0.0325281
-0.0221728
-0.0237895
-0.0323083
0.0312488
-0.0217217
-0.0229945
-0.0308008
0.0296128
-0.0218442
-0.0228823
-0.0291867
0.0281887
-0.0214845
-0.02296
-0.028062
0.0274918
-0.0192676
-0.0217368
-0.0277261
0.0276207
-0.0148302
-0.0182024
-0.0281264
0.0284373
-0.00875523
-0.0125656
-0.0291219
0.0297817
-0.00187638
-0.00564026
-0.0305985
0.0316236
0.00501429
0.00171467
-0.0325463
0.0338937
0.0115563
0.00872942
-0.0355889
0.0339711
0.0140309
0.0137644
0.01553
0.0363498
-0.0362614
-0.0180678
-0.0355963
-0.0251692
0.0266304
-0.0214074
0.0359171
-0.0344542
-0.0120681
-0.0142786
0.0338394
-0.0331732
-0.00419015
-0.00772509
0.0319235
-0.0311219
0.00332906
-0.000952203
0.0303975
-0.0295532
0.0106113
0.00711163
0.0293701
-0.0285885
0.0168775
0.0144865
0.0289563
-0.0283835
0.0213779
0.0203568
0.0292882
-0.0290295
0.0235886
0.0239875
0.0302936
-0.0302197
0.0238271
0.0251712
0.0314903
-0.0313097
0.0234092
0.0248624
0.0323377
-0.0319019
0.0234749
0.0245806
0.0327129
-0.032073
0.0240903
0.0249886
0.032767
-0.0319668
0.0248208
0.0257606
0.032557
-0.0316888
0.0253771
0.0264736
0.0321871
-0.0309281
0.0255121
0.026713
0.0268784
-0.0241817
0.0286157
0.0194387
-0.020241
0.0310184
0.0188817
0.0311118
0.0148168
-0.0153114
-0.0309059
0.0146496
-0.0301464
-0.0333896
0.0348282
-0.01675
-0.0127812
0.0126774
-0.0308021
-0.0323365
-0.0138343
0.0246196
-0.021356
-0.0348223
-0.029609
0.031829
0.0237934
-0.0284795
0.0244282
0.0328877
-0.0355936
-0.0224633
-0.0263947
0.0288434
0.0299136
-0.0234205
0.0226965
-0.0246914
0.0308382
0.0310712
-0.0369741
0.0377615
-0.0219668
-0.0197738
-0.0379008
0.0379555
-0.0258381
-0.024641
-0.0376505
0.037824
-0.0259634
-0.0267847
-0.037407
0.0374211
-0.0252471
-0.0265278
-0.0368718
0.0367504
-0.0240927
-0.0254888
-0.0361063
0.035888
-0.022907
-0.0242507
-0.03517
0.0348393
-0.0218421
-0.0230715
-0.0339763
0.033447
-0.0211923
-0.0221316
-0.0323715
0.031682
-0.0211547
-0.0218068
-0.0305456
0.029923
-0.020862
-0.0218235
-0.0289958
0.0286271
-0.0188989
-0.0208096
-0.0280603
0.0279726
-0.0147426
-0.0176356
-0.0277781
0.0279226
-0.00889968
-0.012371
-0.0280719
0.0284029
-0.00220735
-0.00578961
-0.0288795
0.0293837
0.00451011
0.00123803
-0.0302344
0.0307587
0.011032
0.00787876
-0.0316736
0.0306414
0.0150631
0.0128494
-0.0300885
0.0292188
0.0172725
0.0160829
-0.0297124
0.0298387
0.0187554
0.0178599
0.0363494
-0.036871
-0.0175463
-0.0206516
0.0357195
-0.035712
-0.0120756
-0.0154301
0.0343846
-0.0334583
-0.00511646
-0.00905246
0.0331328
-0.0325189
0.00271507
-0.00127765
0.032235
-0.0319839
0.0103603
0.00682776
0.031766
-0.0318302
0.0169417
0.0142686
0.0316918
-0.0320422
0.0217284
0.0202183
0.0320531
-0.0326598
0.0241952
0.0239984
0.0328416
-0.0335686
0.0245541
0.025353
0.0337829
-0.0344193
0.0240456
0.0250767
0.0344811
-0.0349208
0.0239145
0.0246424
0.0347795
-0.035061
0.0243718
0.0248473
0.034756
-0.0349121
0.0249769
0.0254555
0.0344557
-0.0342853
0.0252066
0.0260172
0.033544
-0.0330526
0.0250206
0.0259717
0.0256549
0.0148417
-0.0289062
0.0287142
-0.0260546
0.0312768
0.0123115
-0.0297805
0.018542
-0.0187607
0.0300575
0.0305024
-0.0297143
0.0179673
0.0305235
0.0185208
-0.00929886
0.00885985
-0.0303631
-0.00933821
-0.0322971
-0.0257716
0.0219117
-0.0202241
0.018877
-0.0244245
-0.0267384
0.0198148
-0.0206662
0.0318697
0.0321659
0.0223086
-0.0244864
0.033016
0.0327137
-0.0354113
0.0367692
-0.0181079
0.0351828
-0.0339292
-0.0105918
-0.0140628
-0.0380627
0.0395441
-0.0234482
-0.0210674
-0.0399602
0.0396725
-0.0255504
-0.0250571
-0.0395434
0.0393064
-0.0257264
-0.0266556
-0.0389711
0.0385776
-0.0248536
-0.0261924
-0.038115
0.037624
-0.0236017
-0.0250262
-0.0370798
0.0365245
-0.0223517
-0.0237066
-0.0359201
0.0352956
-0.0212175
-0.0224671
-0.0345844
0.0338124
-0.0204203
-0.0214204
-0.0329202
0.0319894
-0.0202239
-0.0209146
-0.0310017
0.030079
-0.0199393
-0.0208359
-0.0292063
0.0284768
-0.0181694
-0.0199369
-0.0278548
0.0273911
-0.0142789
-0.0170136
-0.02705
0.0268569
-0.00870656
-0.01203
-0.026792
0.0268623
-0.00227764
-0.00572469
-0.0270656
0.0273858
0.00418986
0.00103474
-0.0278363
0.0289087
0.00995955
0.00742828
-0.0289852
0.0296234
0.0144249
0.012773
-0.0293658
0.0294629
0.0171754
0.0163405
0.0176085
0.033854
-0.0347238
-0.0215935
-0.0339397
-0.024847
0.0327322
-0.0235062
0.0354958
-0.0353036
-0.0177384
-0.0198796
0.0348619
-0.0344667
-0.0124708
-0.0158718
0.0341037
-0.0337991
-0.00542102
-0.00941547
0.033524
-0.0333146
0.00250567
-0.00155283
0.0331687
-0.0330919
0.0102834
0.00668193
0.0330919
-0.0331397
0.0169895
0.0142687
0.0332595
-0.03341
0.0218789
0.0203381
0.0336406
-0.0338986
0.0244532
0.024229
0.0342322
-0.034555
0.0248769
0.0256867
0.0348971
-0.0351594
0.024308
0.0254188
0.0353772
-0.0354819
0.0240192
0.0248601
0.0355281
-0.0354744
0.0243181
0.0248935
0.0353698
-0.0351666
0.0247737
0.025351
0.0348635
-0.0345661
0.0249093
0.0257141
0.0340971
-0.0332886
0.0242121
0.0255028
0.0317312
-0.030658
0.0227202
0.0240974
0.0265576
-0.0254364
0.0207905
0.0203279
-0.00568248
0.00455141
-0.031166
-0.0332291
-0.00638259
-0.025983
0.0327734
0.0123587
-0.0289534
0.0189231
-0.0203232
0.0314575
0.0183931
0.0310536
0.00868981
-0.0296105
0.00480453
-0.0306162
-0.0236296
0.0170701
0.0142161
-0.012929
-0.0257117
0.0347575
-0.0354912
-0.0241133
-0.00126362
0.00114685
-0.0310493
-0.00185169
-0.032641
-0.0263517
0.0331009
0.0327494
-0.0243436
0.0133998
-0.0228132
-0.0273087
0.019734
-0.0212107
0.0333464
0.0315767
0.0221278
-0.0229394
0.0338275
0.0336308
0.0248022
-0.0254323
0.033731
0.0346362
-0.0365256
0.0370155
-0.0110817
0.034732
-0.0346111
-0.00197258
-0.00817617
-0.0379255
0.0390252
-0.0192077
-0.0149728
-0.0404033
0.0405364
-0.0235814
-0.0224454
-0.0410507
0.040891
-0.0253907
-0.0255713
-0.0406006
0.0402181
-0.025344
-0.0263651
-0.0397435
0.0392282
-0.0243383
-0.0257178
-0.0386549
0.0380691
-0.0230158
-0.0244529
-0.0374386
0.0368073
-0.0217203
-0.0230761
-0.036134
0.0354515
-0.020535
-0.0217938
-0.0346928
0.0338807
-0.0196083
-0.0206617
-0.0329492
0.0319719
-0.0192466
-0.0199831
-0.0309282
0.0299423
-0.0189533
-0.0197922
-0.0290062
0.0282181
-0.0173812
-0.0190007
-0.0275474
0.027043
-0.0137745
-0.0163429
-0.0266723
0.0264567
-0.00849098
-0.0116593
-0.0263802
0.0264439
-0.00234135
-0.00564815
-0.0266491
0.026973
0.00386598
0.000829511
-0.0274214
0.0279604
0.0094206
0.00697985
-0.0285802
0.0292246
0.0137805
0.0121532
-0.0298535
0.030035
0.0169938
0.0157116
-0.0301956
0.0302541
0.0179089
0.0174479
-0.0307208
0.0312359
0.0178779
0.0180541
0.0362089
-0.0367719
-0.0210305
-0.0227885
0.0361787
-0.0358681
-0.018049
-0.0204728
0.0355459
-0.0352479
-0.0127687
-0.0161941
0.0349695
-0.034736
-0.00565455
-0.00969393
0.0345308
-0.0343684
0.00234332
-0.00175799
0.0342411
-0.0341605
0.0102028
0.00655462
0.0341232
-0.0341315
0.0169977
0.0142314
0.034181
-0.0342662
0.0219641
0.0203877
0.0343938
-0.034556
0.0246155
0.0243566
0.0347593
-0.0349732
0.0250908
0.02589
0.0351862
-0.0353534
0.0244752
0.0256317
0.0354612
-0.0354877
0.0240457
0.024968
0.0354323
-0.0353015
0.0241872
0.0248381
0.0350884
-0.034802
0.0244873
0.0251379
0.0344127
-0.0339339
0.0244304
0.0253249
0.0333253
-0.0326229
0.0235097
0.0248941
0.0317924
-0.0301976
0.0211254
0.023267
0.029729
-0.0257753
0.0168368
0.0198593
0.0230634
-0.0216049
0.0119413
0.0143583
0.00305977
-0.00389865
-0.0318021
-0.0333766
0.00182527
0.00973196
-0.0087897
-0.0237555
-0.0217921
0.00991916
0.0086361
-0.0288997
-0.00853873
-0.0259626
-0.0260986
0.0334157
0.00485847
-0.0296644
0.0183493
-0.018243
0.0311296
0.0308811
-0.0310312
0.018028
0.031059
0.0181714
0.000639851
-0.0301092
-0.00407202
-0.0308759
0.00416634
-0.00390172
-0.0240201
0.00758586
-0.00775563
-0.0316324
0.00705205
-0.0328428
0.00453863
-0.0221644
-0.0272113
0.0192855
-0.0195384
0.0317104
0.0320961
0.0208768
-0.0211591
0.0336287
0.0329151
0.0214239
-0.0223397
0.0347433
0.0338956
0.0219938
-0.0234144
0.0351517
0.0342903
-0.0363388
0.0382781
-0.00391183
0.0340635
-0.0341117
0.0071002
-0.000450024
-0.0387503
0.0402439
-0.0125754
-0.00864839
-0.0417565
0.0422988
-0.01975
-0.0164854
-0.042532
0.0425592
-0.0236086
-0.0226785
-0.0423983
0.0420835
-0.0250759
-0.0254105
-0.0416346
0.0411102
-0.0248196
-0.0259162
-0.040504
0.0398761
-0.0237104
-0.0251116
-0.0392012
0.0385295
-0.0223441
-0.0237781
-0.0378211
0.0371222
-0.0210214
-0.0223677
-0.0363877
0.0356562
-0.0198035
-0.0210594
-0.0348603
0.0340225
-0.0187705
-0.0198658
-0.0330678
0.032061
-0.0182398
-0.0190284
-0.0309735
0.0299319
-0.0179118
-0.0187047
-0.0289323
0.028085
-0.016534
-0.0180011
-0.0273631
0.0268206
-0.013232
-0.015621
-0.0264218
0.0261877
-0.00825688
-0.0112605
-0.0260992
0.0261571
-0.00239927
-0.00555958
-0.0263587
0.0266816
0.00354308
0.000627857
-0.0271302
0.0276632
0.00888753
0.00653131
-0.0282845
0.0289327
0.0131323
0.0115319
-0.0295764
0.0301214
0.0164489
0.0150679
-0.0306514
0.0304647
0.0180956
0.0169179
0.0174876
0.0368061
-0.0373635
-0.0235559
-0.0362454
-0.0239647
0.0341115
-0.0237829
0.0382478
-0.037745
-0.0215333
-0.0219042
0.0375217
-0.037272
-0.0182987
-0.0206961
0.0369995
-0.0367375
-0.0130308
-0.0164665
0.0364815
-0.0362548
-0.00588123
-0.0099499
0.0360439
-0.0358611
0.00216048
-0.00196889
0.0356934
-0.0355539
0.0100632
0.00638696
0.035437
-0.0353539
0.0169146
0.0141146
0.0352994
-0.0352771
0.0219418
0.0203332
0.0352871
-0.0353311
0.0246594
0.0243666
0.0354103
-0.0355075
0.025188
0.0259692
0.035607
-0.035674
0.0245421
0.0257313
0.035687
-0.0356266
0.0239854
0.024981
0.0354824
-0.0352624
0.0239673
0.0246939
0.0349536
-0.0345718
0.0241054
0.0248291
0.0340839
-0.033511
0.0238576
0.024837
0.0328094
-0.0320236
0.0227239
0.0241924
0.0311128
-0.0301576
0.0201701
0.0223562
0.0291156
-0.0280884
0.0158095
0.0188173
0.027089
-0.0248522
0.00970446
0.013359
0.0219419
-0.0210549
0.00365156
0.00700885
0.0113088
-0.0118985
-0.0322531
-0.03331
0.0105072
-0.00125777
0.00182668
-0.0227333
-0.0213533
-0.000959282
-0.0243473
0.0343486
0.0041735
-0.0282148
-0.00429752
-0.0255668
0.0180677
-0.0188813
0.0319433
0.0172025
0.0319242
-0.000351906
-0.0286727
0.00100254
-0.023196
-0.00457956
-0.0296017
-0.00870623
-0.0299253
-0.0130071
-0.0305238
0.0363057
-0.0367934
-0.023477
-0.00601797
0.00575768
-0.022473
0.0150452
-0.0164527
-0.0308456
0.0145448
-0.0328097
-0.00550947
-0.0218618
-0.0246625
0.0344266
0.0335618
-0.0219185
-0.0273354
0.0190336
-0.0200337
0.0327105
0.0322484
0.0201521
-0.0200194
0.033496
0.0330335
0.0211375
-0.020888
0.0344938
0.0350137
0.021629
-0.0218317
0.0353543
0.0350313
0.0234407
-0.0241514
0.0351374
0.0359576
-0.0362931
0.0389102
0.00448308
0.0347977
-0.0335622
0.0133092
0.00901183
-0.0385214
0.0402177
-0.00560811
-6.11922e-05
-0.0414814
0.0430009
-0.0140948
-0.00991215
-0.0438757
0.044081
-0.0199553
-0.0173603
-0.0441662
0.0440319
-0.0234744
-0.0227636
-0.0436984
0.0432232
-0.0246007
-0.0250769
-0.0426177
0.0419567
-0.0241586
-0.0253108
-0.0412268
0.0404947
-0.0229784
-0.0243817
-0.0397273
0.0389787
-0.0215955
-0.0230106
-0.0382019
0.0374451
-0.0202646
-0.021591
-0.0366584
0.0358854
-0.0190305
-0.0202727
-0.0350591
0.0342042
-0.0179156
-0.0190395
-0.033239
0.032219
-0.0172198
-0.0180631
-0.0311056
0.0300239
-0.0168301
-0.0175913
-0.0289715
0.0280705
-0.015633
-0.0169487
-0.0272987
0.026718
-0.0126513
-0.0148492
-0.0262911
0.0260389
-0.0080047
-0.0108336
-0.0259386
0.0259893
-0.00245001
-0.0054592
-0.0261858
0.026505
0.00322392
0.000431323
-0.0269506
0.0274781
0.00836002
0.00608567
-0.0280969
0.0287422
0.012487
0.0109132
-0.0292662
0.0303339
0.0153813
0.0145438
-0.0305648
0.0311775
0.0174829
0.016687
-0.0310977
0.0313648
0.0177609
0.0175675
-0.0320167
0.0315928
0.0176263
0.0175194
0.0378447
-0.0394538
-0.0219469
-0.0227315
0.038814
-0.0390688
-0.0212785
-0.022544
0.0389274
-0.0387444
-0.0184818
-0.0208374
0.038525
-0.0382979
-0.0132579
-0.0166858
0.038062
-0.0378394
-0.00610382
-0.0101858
0.0376175
-0.037409
0.00195194
-0.00219083
0.0371983
-0.0369998
0.00986474
0.00617629
0.0368048
-0.0366312
0.016741
0.0139195
0.0364721
-0.0363407
0.0218104
0.0201741
0.0362316
-0.0361559
0.0245837
0.0242576
0.0361095
-0.0360882
0.0251668
0.0259227
0.0360729
-0.036039
0.0245082
0.025716
0.0359577
-0.0358129
0.0238405
0.0248996
0.0355837
-0.03528
0.0236636
0.0244647
0.0348818
-0.0344115
0.0236351
0.0244309
0.0338333
-0.0331761
0.0232004
0.0242587
0.0323936
-0.0315377
0.021868
0.02341
0.0305661
-0.0295617
0.0191657
0.0213846
0.0284921
-0.0274624
0.0147798
0.0177477
0.0264581
-0.0255629
0.00880924
0.0123547
0.0240917
-0.0221483
0.00170825
0.00553766
0.0210943
-0.0217557
-0.00484812
-0.0020133
-0.00826355
0.00846652
-0.0220648
-0.00835173
-0.0216675
0.0187189
-0.0197945
-0.0317341
-0.0324929
0.0176496
-0.000974274
-0.0275924
0.001334
-0.0258983
-0.0242183
0.0336287
-0.0050739
-0.0281783
0.00646067
-0.023899
0.0173247
-0.0176056
0.0318736
0.0318195
-0.0316657
0.0174726
0.0320808
0.0170634
-0.0094905
-0.0288174
0.0100453
-0.0240518
-0.013527
-0.0294054
0.0106694
-0.0316511
-0.00108313
-0.0171787
-0.0297978
-0.0201681
-0.0304719
0.0214889
-0.0227804
-0.0304426
0.0211802
-0.0321842
-0.0269756
0.0178756
-0.0186417
0.0327094
0.0321943
0.0186644
-0.0190772
0.0331234
0.0322711
0.0203905
-0.0201534
0.033259
0.0343468
0.0202187
-0.0202424
0.0345175
0.035079
0.0202015
-0.0204778
0.0356307
0.0349904
0.0206519
-0.0217993
0.0362848
0.0361316
-0.0355836
0.0370672
0.0118257
0.0336136
-0.0325747
0.0201413
0.0156796
-0.0385606
0.0405709
0.00247285
0.0075184
-0.0424607
0.0434021
-0.00654953
-0.00195099
-0.0445386
0.0448696
-0.0144258
-0.0110487
-0.0456674
0.0458266
-0.0201145
-0.0181581
-0.0457377
0.0454272
-0.0231639
-0.0226747
-0.0449155
0.0442805
-0.0239658
-0.0245652
-0.043527
0.0427403
-0.0233719
-0.0245572
-0.041899
0.0410753
-0.0221546
-0.0235404
-0.0402276
0.0394136
-0.0207814
-0.022163
-0.0385797
0.0377755
-0.0194604
-0.0207571
-0.0369466
0.0361407
-0.0182245
-0.0194438
-0.0352921
0.034429
-0.0170525
-0.018191
-0.0334653
0.032447
-0.0162014
-0.0170995
-0.031324
0.030216
-0.0157222
-0.0164683
-0.0291205
0.0281703
-0.0146828
-0.0158531
-0.0273497
0.0267301
-0.0120317
-0.0140285
-0.0262739
0.0260027
-0.00773344
-0.0103774
-0.0258894
0.0259316
-0.00249217
-0.00534596
-0.0261213
0.0264345
0.0029108
0.000241554
-0.0268745
0.0273954
0.00783914
0.00564562
-0.028008
0.0286497
0.0118454
0.0103005
-0.029334
0.0299961
0.0147191
0.0138595
-0.0304431
0.0314308
0.0164952
0.01624
-0.0314112
0.0317854
0.0173867
0.017587
0.0176392
0.0379675
-0.039643
-0.0218015
-0.0378031
-0.0219336
0.0355185
-0.0217541
0.0401743
-0.0403241
-0.021797
-0.0222003
0.0404121
-0.0404261
-0.0212646
-0.022456
0.0403737
-0.0402626
-0.018593
-0.0208898
0.0400989
-0.0399077
-0.013449
-0.0168495
0.0396903
-0.0394687
-0.00632543
-0.0104032
0.0392315
-0.0389931
0.00171354
-0.00242798
0.0387362
-0.0384774
0.00960603
0.00591932
0.0382042
-0.0379405
0.0164774
0.0136462
0.0376766
-0.0374358
0.0215695
0.0199101
0.0372083
-0.0370144
0.0243898
0.02403
0.036845
-0.0367076
0.0250294
0.0257534
0.0365794
-0.036446
0.0243748
0.0255878
0.0362722
-0.0360452
0.0236135
0.0247258
0.0357346
-0.0353519
0.0232809
0.0241541
0.0348703
-0.0343183
0.0230832
0.0239494
0.0336576
-0.0329255
0.0224683
0.023598
0.032074
-0.031162
0.020956
0.0225585
0.0301458
-0.0291122
0.0181321
0.0203684
0.0280269
-0.0269959
0.0137488
0.0166625
0.0259918
-0.0251062
0.00792365
0.0113505
0.0243312
-0.0237917
0.00116874
0.00476266
0.0235055
-0.0225116
-0.00584199
-0.00229949
-0.0108962
0.0238575
-0.0251835
-0.0308583
-0.0318119
0.0230948
-0.0229465
0.0347759
-0.00539466
-0.0272716
0.00596757
-0.0254052
0.0173346
-0.0178157
0.0323547
0.016672
0.0327434
-0.00979241
-0.0278764
0.0106914
-0.024545
-0.0138264
-0.028518
0.0137428
-0.0271252
-0.0175384
-0.0290457
0.0155534
-0.0274501
-0.0207275
-0.0292384
-0.0234725
-0.0297799
-0.0254217
-0.0302043
0.0214417
-0.0234377
0.0364889
-0.0386309
-0.0197917
0.026103
-0.0266898
-0.0302715
0.0252434
-0.0309523
-0.0223692
0.0349411
0.0354355
-0.0213157
-0.0264027
0.0182385
-0.0187731
0.0332439
0.0326171
0.0197726
-0.0194428
0.0327936
0.0332706
0.0195352
-0.0195868
0.0333105
0.0344392
0.0195975
-0.0196488
0.0345688
0.0350897
0.0194635
-0.0194879
0.035655
0.0348051
0.0194671
-0.0197705
0.0365882
0.0361108
0.0208584
-0.0216725
0.0357551
0.0358638
-0.0343595
0.0363654
0.0181353
0.0327532
-0.0313437
0.023834
0.0214884
-0.0377029
0.0397702
0.00975833
0.0143421
-0.0416562
0.0431146
0.00101449
0.00563243
-0.0446679
0.045744
-0.00762566
-0.0035043
-0.0466127
0.0471805
-0.0149937
-0.0119173
-0.0474752
0.0474702
-0.0201096
-0.0184527
-0.0471934
0.0467029
-0.0226733
-0.0223979
-0.0460173
0.0452316
-0.0231801
-0.0238796
-0.044343
0.0434452
-0.0224741
-0.0236686
-0.042508
0.0416069
-0.0212535
-0.0226032
-0.0406929
0.0398255
-0.019914
-0.021249
-0.0389461
0.0381051
-0.0186193
-0.0198778
-0.0372441
0.0364133
-0.0173937
-0.0185829
-0.0355494
0.034685
-0.0161881
-0.0173271
-0.0337333
0.032731
-0.0151991
-0.0161477
-0.0316166
0.030499
-0.0146046
-0.0153538
-0.029373
0.0283796
-0.0136895
-0.0147271
-0.0275109
0.0268502
-0.0113711
-0.0131598
-0.0263618
0.026069
-0.00744066
-0.00988898
-0.025941
0.0259729
-0.00252415
-0.00521791
-0.0261541
0.0264591
0.0026058
6.04048e-05
-0.0268907
0.0274027
0.00732714
0.00521398
-0.0280059
0.0286391
0.0112122
0.00969736
-0.0293177
0.0299804
0.0140564
0.0131809
-0.0306467
0.0312624
0.0158796
0.0155736
-0.0320678
0.0322048
0.0172497
0.0167816
-0.0327172
0.0329366
0.0172531
0.0171267
-0.0333015
0.032705
0.0172685
0.0166985
0.0397664
-0.0409269
-0.020641
-0.0206187
0.0412392
-0.0414901
-0.0215462
-0.0218879
0.0416852
-0.0418011
-0.0211486
-0.0222609
0.041841
-0.0418045
-0.0186295
-0.0208499
0.0416988
-0.0415437
-0.0136042
-0.0169552
0.041343
-0.0411194
-0.00654902
-0.0106039
0.0408633
-0.0405915
0.00144174
-0.00268413
0.0402851
-0.0399647
0.00928563
0.00561296
0.0396133
-0.0392606
0.0161246
0.0132948
0.0388934
-0.0385443
0.0212205
0.0195429
0.0382
-0.0378908
0.0240806
0.0236858
0.0376025
-0.0373532
0.02478
0.0254651
0.0371163
-0.0368867
0.0241453
0.025351
0.0366232
-0.036317
0.0233073
0.0244623
0.0359289
-0.0354724
0.0228243
0.023766
0.0349142
-0.0342885
0.0224574
0.0233912
0.0335545
-0.0327576
0.0216714
0.022864
0.0318488
-0.0308928
0.02
0.0216496
0.0298443
-0.028793
0.0170808
0.01932
0.0277033
-0.0266813
0.0127268
0.0155728
0.025701
-0.0248644
0.00708714
0.0103701
0.0241675
-0.0237038
0.000705011
0.00406574
0.0234523
-0.0228329
-0.00646138
-0.00255101
0.0240126
-0.0140418
-0.00971646
0.0263575
-0.0273691
-0.0299407
-0.0304779
0.0254917
-0.0161535
0.0186489
-0.0228163
-0.025452
-0.00845929
-0.0100328
-0.0270313
0.0104384
-0.0251522
-0.0213492
0.0351122
-0.0139776
-0.0277253
0.0144788
-0.025281
0.0169681
-0.0172803
0.0330173
0.032932
-0.0326317
0.0169682
0.0333062
0.0165938
-0.0176428
-0.0284136
0.0165289
-0.0281008
-0.0208701
-0.028903
0.0206916
-0.0267
-0.0236574
-0.0290534
0.0208404
-0.0256293
-0.0259082
-0.0292934
-0.0271467
-0.0297474
-0.0278486
-0.0297921
-0.0264667
0.0256067
-0.029618
-0.0270542
-0.0293531
-0.0142165
0.0181814
-0.0267812
-0.0276579
-0.0120107
-0.0259971
0.0174214
-0.0181818
0.0331151
0.0328845
0.0182511
-0.0180436
0.0330365
0.0326864
0.018898
-0.0189688
0.0328644
0.034125
0.0190057
-0.0190048
0.0333096
0.034476
0.0189626
-0.0183457
0.0339519
0.0350474
0.0193471
-0.0184424
0.0347504
0.0358066
0.0184913
-0.0181117
0.0362085
0.0361597
0.0189594
-0.0190938
0.0358895
0.0367115
-0.0323582
0.034263
0.0219292
0.0307134
-0.0295699
0.0244632
0.0238469
-0.0360709
0.0386149
0.0155913
0.0196806
-0.0406263
0.0423866
0.00799799
0.0123307
-0.044087
0.0455583
-0.000456865
0.00393208
-0.0468654
0.0478794
-0.00863963
-0.00481136
-0.0486323
0.0490547
-0.0154162
-0.0126702
-0.049166
0.0489735
-0.0199171
-0.018564
-0.048501
0.0478312
-0.0220036
-0.0219254
-0.0469803
0.0460573
-0.0222571
-0.0230287
-0.0450509
0.0440599
-0.021483
-0.0226623
-0.0430447
0.0420824
-0.0202912
-0.021588
-0.0411169
0.0402089
-0.019006
-0.0202835
-0.0392957
0.0384285
-0.0177521
-0.0189646
-0.0375457
0.0366988
-0.0165468
-0.0177001
-0.0358264
0.0349666
-0.0153283
-0.0164547
-0.0340346
0.0330605
-0.014225
-0.0152157
-0.0319717
0.0308626
-0.0134956
-0.0142651
-0.0297214
0.0286932
-0.0126613
-0.0135858
-0.027778
0.0270733
-0.0106664
-0.0122446
-0.0265477
0.026229
-0.0071219
-0.0093634
-0.0260826
0.0261018
-0.0025434
-0.00507153
-0.0262722
0.026567
0.00231095
-0.000109943
-0.0269879
0.0274888
0.00682618
0.00479315
-0.0280805
0.0287035
0.0105892
0.0091057
-0.0293747
0.030032
0.0133991
0.0125097
-0.0306971
0.0313145
0.0152621
0.0149086
-0.0316993
0.0326162
0.0163328
0.0163968
-0.0325655
0.0329874
0.0168313
0.0171774
0.0170542
0.0398633
-0.0409402
-0.0187148
-0.0383734
-0.0191144
0.0361386
-0.0198258
0.0414376
-0.0418691
-0.0202095
-0.0201213
0.0422847
-0.0426428
-0.0211881
-0.0214724
0.0429486
-0.0431686
-0.0209286
-0.021955
0.0433056
-0.0433475
-0.0185876
-0.0207129
0.043302
-0.0431831
-0.0137231
-0.0170007
0.0429976
-0.0427691
-0.00677753
-0.0107894
0.0424903
-0.042182
0.00113344
-0.0029629
0.0418236
-0.0414402
0.00890227
0.00525451
0.0410104
-0.0405704
0.0156847
0.012865
0.0401026
-0.0396485
0.0207664
0.0190751
0.039191
-0.0387703
0.0236599
0.0232283
0.0383679
-0.0380116
0.0244237
0.0250627
0.0376707
-0.0373488
0.0238233
0.0250101
0.0369992
-0.0366173
0.0229254
0.0241127
0.0361566
-0.0356325
0.0223003
0.0233053
0.035006
-0.0343156
0.021767
0.0227647
0.0335186
-0.0326673
0.0208201
0.022067
0.0317119
-0.0307224
0.0190105
0.0206943
0.0296528
-0.0285949
0.0160229
0.0182503
0.0275135
-0.0265144
0.0117277
0.0144914
0.0255737
-0.0247918
0.00630515
0.00942945
0.0241613
-0.0237587
0.000302392
0.00343526
0.0235843
-0.0238698
-0.00617588
-0.00272541
0.024882
-0.027886
-0.0110378
-0.00870423
0.0372244
-0.0227176
-0.00834608
-0.0103612
0.0305726
-0.0281098
-0.010922
-0.0109744
-0.0127638
0.0138897
-0.0287837
0.0286294
-0.0121363
-0.0292569
-0.0114912
-0.0201674
0.0361859
0.0258095
-0.0269729
-0.0284547
-0.0284355
0.0246752
-0.0143199
-0.0266889
0.014489
-0.0251623
0.0170046
-0.0172682
0.0332809
0.0166016
0.0337092
-0.0179538
-0.0274142
0.0176346
-0.0263866
-0.0211557
-0.028128
0.0199418
-0.0273509
-0.0237792
-0.0287813
0.0210088
-0.0268684
-0.0257554
-0.0292062
0.0190474
-0.0264953
-0.0271668
-0.0292733
0.0162501
-0.0291416
-0.0281295
-0.0294665
-0.0279761
-0.0288702
-0.0275085
-0.0288174
-0.030593
0.0297434
-0.0112867
0.025964
-0.0268684
-0.0275502
0.0376729
-0.0393611
-0.0174262
-0.0201319
0.0361031
0.0365523
-0.0190113
0.0253784
-0.02785
0.0130295
-0.0303413
-0.0132812
0.0142788
-0.0305061
0.015275
-0.02978
-0.0258281
0.0176745
-0.0173179
0.0327585
0.0332907
0.0187435
-0.0184211
0.0327141
0.034112
0.0184703
-0.0184866
0.0328807
0.0341741
0.01847
-0.0184207
0.0332604
0.0344594
0.0183324
-0.0182115
0.033831
0.0349592
0.018045
-0.0178494
0.0345548
0.0356401
0.017549
-0.0175023
0.0361618
0.0358593
0.0173174
-0.0183942
0.0369663
0.0365266
0.0186142
-0.018582
0.0360709
0.0364059
-0.0300472
0.0317505
0.0227599
0.0286729
-0.0274272
0.0241327
0.0233009
-0.0339576
0.0364568
0.0194299
0.0216398
-0.0391362
0.0408428
0.0138847
0.0170012
-0.0430203
0.0445911
0.00642715
0.0101532
-0.0463551
0.0478087
-0.00191052
0.00216815
-0.0490397
0.0499418
-0.00954173
-0.00604232
-0.0505397
0.0507808
-0.0156572
-0.0132682
-0.0506856
0.0502907
-0.0195222
-0.0184688
-0.0496212
0.0487815
-0.0211638