/*--------------------------------*- C++ -*----------------------------------*\
  =========                 |
  \\      /  F ield         | OpenFOAM: The Open Source CFD Toolbox
   \\    /   O peration     | Website:  https://openfoam.org
    \\  /    A nd           | Version:  10
     \\/     M anipulation  |
\*---------------------------------------------------------------------------*/
FoamFile
{
    format      ascii;
    class       volVectorField;
    location    "8.5";
    object      U;
}
// * * * * * * * * * * * * * * * * * * * * * * * * * * * * * * * * * * * * * //

dimensions      [0 1 -1 0 0 0 0];

internalField   nonuniform List<vector> 
28942
(
(-0.110869 0.0683547 -4.00649e-20)
(-0.110467 0.0765618 -8.38447e-21)
(0.441953 -0.310699 2.96498e-20)
(1.01582 0.0417213 -1.01798e-19)
(0.99418 0.0516427 3.3525e-20)
(0.366421 0.0151279 0)
(0.446226 0.0408631 -6.70553e-22)
(0.493137 0.0103265 8.43594e-22)
(1.22293 -0.180673 1.18166e-21)
(1.21329 -0.16615 -2.0658e-21)
(-0.0829419 -0.143876 -9.54971e-20)
(-0.0608164 -0.12798 4.36626e-20)
(-0.0845284 -0.101404 0)
(-0.0890425 -0.111808 0)
(0.888089 -0.0186408 6.23875e-23)
(0.885843 -0.0158451 -4.21708e-23)
(0.932534 0.110375 3.02965e-20)
(0.916066 0.0951678 4.86775e-20)
(0.31516 -0.428149 9.2138e-20)
(0.608169 -0.690652 -2.58131e-20)
(0.988809 0.255111 3.95703e-20)
(0.989833 0.239693 0)
(0.0146902 -0.0288521 8.96918e-20)
(-0.064798 -0.0365839 4.99828e-20)
(0.566268 -0.152042 9.72689e-20)
(0.92553 -0.271106 -8.84095e-20)
(0.187433 -0.428201 4.77815e-19)
(0.194529 -0.35486 -1.83677e-19)
(0.714205 -0.520944 4.87024e-21)
(0.432987 -0.302094 8.72105e-22)
(0.363196 -0.021426 0)
(0.476338 -0.0304812 1.53126e-21)
(0.592722 -0.0163622 1.07987e-20)
(0.764514 -0.0227227 7.83022e-22)
(0.444453 0.487393 2.46847e-20)
(0.373225 0.538736 -2.04371e-20)
(0.590613 0.706257 -1.22274e-19)
(0.382887 0.635492 -4.96315e-20)
(0.187462 0.0182416 8.23382e-22)
(0.205323 0.492 -7.73637e-20)
(0.657603 -0.0597251 0)
(0.856563 -0.0777896 0)
(1.31695 -0.227398 1.47652e-21)
(1.30603 -0.235421 -3.76979e-21)
(1.30699 -0.216499 -3.78349e-21)
(0.669502 0.0151067 -3.46637e-22)
(0.637604 0.0293925 5.48201e-22)
(0.806899 0.0167513 2.66189e-21)
(0.787928 0.0163149 -7.42251e-22)
(0.68845 0.0167366 -3.50122e-21)
(0.58864 0.0115387 2.33603e-21)
(1.17337 -0.0338845 6.86647e-21)
(1.1693 -0.0389285 4.89388e-21)
(1.21587 -0.194733 -1.02175e-22)
(1.20471 -0.180255 3.30943e-22)
(1.19549 -0.242278 7.9235e-20)
(1.44365 -0.339166 4.30919e-20)
(-0.0704621 -0.0612923 -5.87982e-20)
(-0.0764278 -0.0834219 0)
(-0.0689567 -0.0616679 2.12431e-20)
(-0.0644455 -0.0492205 5.15558e-20)
(-0.0298575 -0.0234898 -4.12071e-20)
(-0.029557 -0.0249149 -4.2987e-20)
(1.29697 -0.588787 0)
(1.42351 -0.529463 1.58068e-20)
(1.32852 -0.470451 -6.66959e-21)
(1.268 -0.462032 0)
(0.92693 -0.226501 -2.85981e-20)
(0.945738 -0.24807 -1.85932e-20)
(-0.066301 0.0458678 1.33201e-19)
(-0.0820956 0.0516295 -4.2261e-20)
(-0.1079 0.0780587 1.06275e-19)
(0.917905 -0.310867 0)
(0.936204 -0.275735 9.91295e-20)
(0.866967 -0.42334 2.59904e-20)
(1.41879 0.347001 4.85909e-20)
(1.44854 0.332286 -5.23541e-20)
(1.43522 0.29458 -3.5731e-20)
(0.136057 -0.0777443 1.27457e-21)
(0.192889 -0.122796 -3.45206e-20)
(0.95232 -0.606291 -4.65928e-21)
(0.693242 -0.479099 1.17042e-20)
(-0.0774199 0.046188 2.25608e-19)
(-0.0829021 0.0480273 -8.67607e-20)
(1.24173 0.607532 -5.63271e-21)
(1.17934 0.577659 -1.46055e-20)
(1.07345 0.67575 9.61015e-21)
(0.922408 0.659512 -3.37584e-20)
(0.878788 0.630382 2.32252e-20)
(0.656829 0.455366 -1.32837e-22)
(0.723628 0.547578 -8.12298e-21)
(0.765341 0.63231 1.36475e-20)
(-0.169743 -0.148763 -1.26664e-20)
(-0.128582 -0.172786 -3.24876e-21)
(-0.116314 -0.139483 6.50861e-21)
(-0.135784 -0.13172 -8.85793e-20)
(-0.147271 -0.117894 1.12612e-19)
(0.367247 0.291967 -5.01882e-20)
(0.415306 0.359538 1.0054e-20)
(-0.0250268 0.0225619 0)
(1.00711 0.00414238 0)
(0.965167 0.0530442 -7.8064e-20)
(0.891025 0.135117 5.55316e-20)
(1.0811 0.117644 0)
(1.41638 0.115369 0)
(1.41972 0.111983 0)
(1.4337 0.119677 8.24029e-20)
(1.08659 0.189487 -5.75389e-21)
(1.08287 0.201286 6.24879e-20)
(1.07601 0.178794 3.26801e-20)
(-0.0722346 -0.070439 1.18069e-19)
(-0.071232 -0.0732489 -1.32483e-19)
(-0.00806506 0.0581407 -7.19975e-20)
(-0.0320384 0.0590134 6.82872e-20)
(-0.107671 0.0762771 1.34483e-19)
(0.165256 0.2526 8.03305e-20)
(0.381556 0.250143 1.96423e-19)
(0.292982 0.469874 1.57717e-20)
(0.130811 0.366396 -4.66722e-19)
(1.26477 0.484539 1.00547e-21)
(1.12416 0.46297 2.664e-20)
(1.16269 0.446471 -4.59946e-20)
(0.788486 -0.616253 1.35008e-20)
(0.534444 -0.39085 -6.27626e-21)
(0.160053 0.0102441 -2.4278e-19)
(0.146201 -0.0659178 0)
(0.307322 -0.033367 1.30435e-19)
(0.499146 -0.385425 1.57322e-20)
(0.7131 -0.606392 -3.61278e-20)
(0.7774 0.0179338 -2.75385e-21)
(0.811142 0.0157915 1.12714e-21)
(0.734058 0.0162303 8.45855e-23)
(0.496423 -0.748486 0)
(0.524205 -0.582299 0)
(1.06233 -0.13249 -1.17946e-20)
(1.04859 -0.113864 6.71615e-20)
(1.03241 -0.0809879 0)
(0.810244 -0.719344 0)
(0.81283 -0.663437 -3.16138e-20)
(0.741176 0.738257 7.58042e-20)
(-0.0641869 -0.0635012 7.98314e-20)
(-0.0552079 -0.055204 -5.93909e-20)
(0.540907 -0.500055 -1.77303e-20)
(1.30157 -0.196699 -2.39891e-20)
(1.29332 -0.199394 3.83066e-21)
(1.43152 -0.282804 -1.30848e-20)
(1.43055 -0.270693 1.74997e-20)
(1.44791 -0.256084 6.22651e-20)
(-0.0535045 -0.0504761 2.77615e-20)
(0.849429 0.712285 8.62018e-20)
(0.981722 0.692299 -2.60294e-20)
(1.05445 0.728952 6.95461e-23)
(0.559343 -0.0151997 -3.74927e-22)
(0.558407 -0.0166745 -3.35079e-21)
(0.611748 -0.0203984 -3.19536e-22)
(0.656141 -0.0206712 9.13838e-22)
(0.799115 0.707372 1.72103e-20)
(0.432854 0.416206 0)
(-0.0611124 0.0470579 6.65825e-20)
(-0.0709182 0.0736286 -7.37635e-20)
(-0.130639 0.0824566 5.89575e-20)
(0.445535 0.0782938 -1.59729e-19)
(0.974062 0.252904 -7.78241e-20)
(0.731975 -0.0214012 3.92073e-22)
(1.18841 -0.447736 1.85559e-20)
(1.15117 -0.522782 4.38113e-20)
(0.969901 0.279743 9.24135e-20)
(0.95216 0.317071 7.81579e-21)
(0.930064 0.197661 5.35076e-20)
(0.947361 0.204296 -3.86512e-20)
(0.994691 0.280898 0)
(1.14857 0.041927 -1.0782e-21)
(1.15392 0.0393213 -3.12976e-21)
(1.17287 -0.125564 -7.40855e-23)
(1.18484 -0.130651 -6.28677e-22)
(1.09901 0.178449 6.08715e-21)
(1.11217 0.187454 -1.67794e-20)
(1.09931 0.18958 0)
(1.08642 0.178519 4.18225e-21)
(1.09703 0.200809 0)
(1.10103 0.256726 -1.59117e-20)
(1.09429 0.270623 -9.4966e-21)
(1.07101 0.294724 -1.86106e-20)
(1.08418 0.283605 0)
(1.1044 0.304774 5.54336e-20)
(1.08735 0.31876 2.92269e-21)
(1.05435 0.311262 -1.14828e-20)
(1.00134 0.366571 -5.11791e-20)
(1.0005 0.307815 -9.10396e-21)
(-0.0157455 0.0644262 4.03285e-20)
(0.105402 0.0675927 -1.58968e-20)
(-0.107016 0.100255 -9.91568e-20)
(0.711376 0.0154207 2.73158e-21)
(0.842925 0.015753 0)
(-0.0323438 0.0222997 7.26994e-20)
(-0.0325901 0.0221798 3.74039e-20)
(0.796293 0.0180502 5.13389e-23)
(0.875957 0.0173945 -1.45661e-23)
(0.871642 0.0176071 0)
(0.783774 0.0201389 -1.38765e-22)
(0.929378 0.0218049 -6.02937e-21)
(0.892551 0.0126173 2.85631e-20)
(0.923062 0.0172146 1.26128e-20)
(-0.0674211 -0.0699505 5.0825e-20)
(-0.025001 -0.0236441 -6.52007e-20)
(-0.0285498 -0.0267844 6.25537e-20)
(-0.0528326 -0.0355113 0)
(-0.0237435 -0.0145726 8.75435e-20)
(-0.0229617 -0.015859 -7.60909e-20)
(-0.0639155 -0.0141313 -7.872e-20)
(-0.0873696 -0.0356033 -8.02907e-20)
(-0.051395 -0.0234642 0)
(0.0562564 0.239135 0)
(0.0257475 0.142607 0)
(0.00963119 0.0813244 0)
(1.4037 0.104406 -1.1791e-20)
(1.38885 0.0922459 0)
(1.40673 0.0974737 1.3069e-20)
(0.921705 -0.0908873 1.99642e-19)
(0.935424 -0.098121 -7.24935e-20)
(0.932321 -0.0790327 0)
(1.01396 0.0120025 -1.9782e-22)
(1.019 0.0132378 3.96168e-22)
(1.00884 0.0107901 -1.39494e-22)
(1.02351 0.0141812 0)
(1.02778 0.0150387 -2.38269e-22)
(1.03177 0.0157853 0)
(1.02898 0.011786 0)
(1.0351 0.0161427 8.38992e-22)
(1.03239 0.0124587 0)
(1.02523 0.0107019 -2.40842e-22)
(1.02106 0.00958461 0)
(1.01665 0.00824099 1.33287e-22)
(1.01187 0.00664001 -1.99737e-22)
(1.00694 0.00494842 1.39304e-22)
(1.03797 0.0163225 -8.02743e-22)
(1.03544 0.0129901 -2.75045e-23)
(1.00317 0.0093181 2.86295e-25)
(1.00143 0.00320532 -2.20418e-22)
(0.997071 0.0076053 1.20477e-21)
(1.04056 0.0164876 7.2623e-25)
(1.03831 0.0134979 -2.63249e-23)
(0.995867 0.001116 4.4432e-22)
(1.04287 0.0165078 7.09573e-22)
(1.04491 0.0163998 -7.08983e-22)
(1.04085 0.0138425 5.42271e-23)
(1.0431 0.0140338 1.02792e-22)
(0.991304 0.00621025 -1.1723e-21)
(0.990113 -0.0010852 -2.94937e-22)
(1.04668 0.0161685 0)
(1.04509 0.0140763 -1.01379e-22)
(0.984284 0.00405334 1.50952e-25)
(0.983849 -0.00341432 -1.51335e-25)
(1.04822 0.0158335 0)
(1.04686 0.0139854 0)
(0.97737 0.00198329 0)
(0.97746 -0.0059247 0)
(1.04955 0.0154002 0)
(1.04842 0.0137675 4.58783e-23)
(0.96983 -0.000340857 -6.7628e-22)
(0.970697 -0.00857867 -1.63079e-25)
(1.05072 0.0148821 2.38368e-24)
(1.0498 0.0134363 -4.89723e-23)
(0.962034 -0.00276558 6.79488e-22)
(0.96374 -0.0113817 0)
(1.05174 0.014287 0)
(1.05103 0.0130003 0)
(0.953779 -0.00533366 -4.49252e-23)
(0.956442 -0.0143307 7.82931e-22)
(1.05264 0.0136197 2.81868e-22)
(1.05213 0.0124719 0)
(0.945188 -0.00801596 -1.82545e-23)
(0.948884 -0.017453 -7.41756e-22)
(1.05345 0.0128991 -4.19156e-22)
(1.05314 0.0118616 -1.20235e-22)
(0.935781 -0.0111556 7.75525e-22)
(0.940817 -0.0206943 0)
(1.05418 0.0121076 1.36443e-22)
(1.05405 0.0111676 8.00023e-23)
(0.926378 -0.0139896 -4.1082e-22)
(0.932639 -0.0241176 8.33195e-22)
(1.05489 0.0113097 -5.30405e-22)
(1.05491 0.0104378 5.97613e-22)
(0.915796 -0.017693 4.34264e-22)
(0.923717 -0.0276507 1.40399e-23)
(1.05553 0.0104433 0)
(1.05567 0.00966041 2.79231e-22)
(0.905302 -0.0209129 -9.05091e-22)
(0.914885 -0.0313992 1.80991e-21)
(1.05621 0.00953911 0)
(1.05642 0.00880698 0)
(0.923475 -0.00637535 -4.29714e-22)
(0.911661 -0.00917132 -1.79645e-21)
(0.893898 -0.0246893 0)
(0.905711 -0.0354437 -9.49338e-22)
(0.945309 -0.000906445 -2.52963e-22)
(0.93489 -0.0033268 5.04854e-23)
(0.964169 0.00378031 0)
(0.955046 0.00159404 -7.97082e-22)
(0.980737 0.00786935 -1.41425e-24)
(0.972726 0.00588652 0)
(0.995395 0.0114122 0)
(0.988403 0.00975976 0)
(1.00814 0.0141846 0)
(1.00237 0.0130836 0)
(1.0191 0.0164858 2.70639e-22)
(1.01396 0.0155028 7.08707e-23)
(1.0289 0.0181672 -2.54965e-22)
(1.0241 0.0173696 -2.72368e-22)
(1.03671 0.0190246 4.2727e-22)
(1.0327 0.0185869 5.56696e-22)
(1.04341 0.0193259 0)
(1.04039 0.0193056 0)
(1.04824 0.0189614 -1.72107e-24)
(1.04601 0.019205 0)
(1.05171 0.01818 0)
(1.05013 0.0186151 0)
(1.05406 0.0170877 0)
(1.053 0.0176675 0)
(1.05558 0.0157637 0)
(1.0549 0.0164507 0)
(1.05657 0.0142689 0)
(1.05613 0.0150358 0)
(1.05727 0.0126519 0)
(1.05696 0.0134773 0)
(1.05781 0.0109338 -2.12795e-22)
(1.05761 0.0118233 0)
(1.05811 0.0100404 -6.72536e-23)
(1.05686 0.00861182 6.4941e-23)
(1.05718 0.00790632 -6.43992e-23)
(1.05704 0.00960293 0)
(1.05844 0.00807373 -2.65472e-22)
(1.05775 0.00887385 -1.40898e-22)
(1.05539 0.0108666 4.0475e-23)
(1.05623 0.0102816 -1.55034e-22)
(1.05335 0.0117899 1.35442e-24)
(1.05441 0.0113798 0)
(1.05085 0.0122594 0)
(1.05217 0.0120884 0)
(1.04769 0.012174 0)
(1.04936 0.0122914 0)
(1.04373 0.0114546 0)
(1.04582 0.0118967 1.96907e-28)
(1.0388 0.01006 1.77321e-24)
(1.04139 0.0108421 0)
(1.03274 0.00800957 0)
(1.03592 0.00909851 0)
(1.02563 0.00529298 0)
(1.02933 0.00667835 0)
(1.01752 0.00184332 0)
(1.02163 0.00369336 -1.32943e-22)
(1.00838 -0.00214731 3.94047e-23)
(1.01323 -0.000205036 -1.80232e-22)
(0.998828 -0.00703682 0)
(1.00383 -0.00451183 -1.52142e-22)
(0.988192 -0.0123604 0)
(0.993582 -0.00960665 0)
(0.97683 -0.0183327 0)
(0.982598 -0.0152733 0)
(0.964644 -0.0249357 0)
(0.970851 -0.0215533 0)
(0.951469 -0.0321203 -2.12424e-22)
(0.958113 -0.0284077 0)
(0.937391 -0.039879 -9.25483e-22)
(0.94436 -0.0358548 -2.19447e-22)
(0.930169 -0.0441834 9.70528e-22)
(0.89909 -0.0122868 1.80871e-21)
(1.05841 0.00912751 1.2951e-22)
(1.05914 0.00722513 -2.47108e-22)
(0.896252 -0.0396205 0)
(0.922795 -0.0486262 0)
(0.886054 -0.0153768 0)
(0.882342 -0.0284878 0)
(0.945763 0.00492195 0)
(0.921666 0.000523057 4.29276e-22)
(0.934024 0.00272795 4.307e-22)
(0.967043 0.00902058 5.15779e-22)
(0.956855 0.00706436 -1.04362e-22)
(0.984756 0.0124627 1.49299e-24)
(0.976231 0.0107727 0)
(1.00027 0.0155634 0)
(0.992776 0.0140671 0)
(1.01386 0.0181797 0)
(1.00734 0.0169464 0)
(1.02558 0.0202382 0)
(1.02003 0.0192929 0)
(1.03547 0.0215817 0)
(1.03095 0.0210545 0)
(1.04403 0.0223582 -1.05328e-24)
(1.0399 0.0220744 2.7794e-22)
(1.05042 0.0223525 -9.60858e-25)
(1.04724 0.0223738 -5.18078e-22)
(1.05549 0.0217784 0)
(1.05318 0.0221417 0)
(1.05895 0.0207074 8.58679e-25)
(1.0574 0.0212947 0)
(1.0611 0.019317 0)
(1.06018 0.0200412 0)
(1.06217 0.0177543 0)
(1.06175 0.0185506 0)
(1.06248 0.0161103 0)
(1.0624 0.0169385 0)
(1.06233 0.0144364 0)
(1.06244 0.0152753 0)
(1.062 0.0127564 0)
(1.06217 0.0135959 0)
(1.06163 0.0110605 1.45794e-22)
(1.06182 0.01191 0)
(1.05752 0.00768615 0)
(1.05879 0.00824012 1.22606e-22)
(1.06139 0.00934844 0)
(1.06148 0.0102064 1.39702e-22)
(1.06206 0.00745688 2.77555e-22)
(1.06255 0.00665324 6.63637e-23)
(1.05983 0.00635428 5.16796e-22)
(1.05791 0.00701029 0)
(1.06111 0.00888865 0)
(1.06159 0.00820861 -4.20256e-22)
(1.05989 0.0100228 1.26248e-24)
(1.06047 0.00950627 1.55996e-22)
(1.05832 0.0107565 -1.35441e-24)
(1.05912 0.0104519 0)
(1.05636 0.0109646 0)
(1.05739 0.0109342 0)
(1.05384 0.0105382 0)
(1.05518 0.0108361 0)
(1.05061 0.00940361 0)
(1.05232 0.0100614 -1.96906e-28)
(1.04654 0.00754113 -3.53572e-24)
(1.04869 0.00856225 0)
(1.04156 0.0049489 0)
(1.04417 0.00633556 0)
(1.03569 0.00169255 6.60518e-23)
(1.03874 0.00339566 0)
(1.02902 -0.00214319 0)
(1.03236 -0.000122806 -6.57698e-23)
(1.02164 -0.00656046 1.50224e-22)
(1.02548 -0.00432042 1.4562e-22)
(1.01385 -0.0115976 0)
(1.01792 -0.00904572 0)
(1.00555 -0.0172253 0)
(1.00978 -0.0143429 0)
(0.996817 -0.0234766 0)
(1.00125 -0.0202746 0)
(0.987602 -0.030368 0)
(0.992279 -0.0268424 0)
(0.977769 -0.0379177 3.39335e-24)
(0.982773 -0.0340617 0)
(0.967075 -0.0461771 -3.63902e-24)
(0.972543 -0.0419614 0)
(0.956004 -0.0553153 -1.00045e-21)
(0.961658 -0.0506596 9.99861e-22)
(0.908504 -0.00170485 9.41607e-22)
(0.915574 -0.0533298 0)
(0.950581 -0.0603115 -2.15454e-21)
(0.886563 -0.0437815 0)
(1.06142 0.00851679 0)
(1.06303 0.00580893 -6.33946e-23)
(0.872493 -0.018463 2.54068e-21)
(0.894754 -0.00393 1.02458e-21)
(0.907656 -0.0579892 5.66377e-22)
(0.944495 -0.0653787 2.73347e-21)
(0.870137 -0.0321248 0)
(1.06552 0.00919527 5.37684e-22)
(1.06509 0.00844862 -2.63494e-22)
(1.06044 0.00549012 -1.24061e-22)
(1.06342 0.00496781 6.12445e-22)
(0.933127 0.00960461 3.44328e-21)
(0.880645 -0.00600439 -1.98691e-21)
(0.90753 0.00711332 -9.14929e-21)
(0.919885 0.00821868 -1.99066e-21)
(0.957453 0.01245 8.74481e-22)
(0.945782 0.0110597 -2.86316e-21)
(0.978246 0.0151771 -8.75828e-22)
(0.968312 0.0138451 -6.98292e-22)
(0.99665 0.0179136 -2.04365e-22)
(0.987901 0.0166044 -2.07325e-22)
(1.01215 0.0203152 -1.49299e-24)
(1.0047 0.019141 0)
(1.02555 0.0224116 0)
(1.01909 0.0214114 0)
(1.03708 0.0240832 0)
(1.03155 0.023308 0)
(1.04684 0.0252446 0)
(1.04219 0.0247363 0)
(1.05494 0.0257845 0)
(1.05111 0.025591 0)
(1.06146 0.0256436 0)
(1.05838 0.0258021 0)
(1.06637 0.024863 7.80337e-27)
(1.0641 0.0253406 0)
(1.06978 0.0234947 0)
(1.06827 0.0242365 0)
(1.07172 0.0217275 8.50141e-25)
(1.07092 0.0226511 0)
(1.07238 0.0197481 0)
(1.0722 0.0207512 0)
(1.07203 0.0177406 0)
(1.07231 0.0187393 0)
(1.07097 0.0158138 0)
(1.07157 0.0167631 0)
(1.06955 0.0140093 0)
(1.07029 0.0148958 0)
(1.06807 0.0123214 0)
(1.06879 0.0131524 0)
(1.06667 0.010725 7.44783e-23)
(1.06733 0.0115109 -3.76666e-23)
(1.06603 0.00995126 -2.76388e-22)
(1.05817 0.00680559 -5.92335e-23)
(1.06151 0.00770118 2.4596e-22)
(1.0592 0.00737628 -1.91447e-22)
(1.05863 0.00613981 0)
(1.06687 0.0070838 -2.01974e-22)
(1.06716 0.00550528 -5.6882e-22)
(1.06703 0.00631079 4.66397e-22)
(1.06659 0.00845709 0)
(1.06675 0.00780215 0)
(1.06604 0.00949296 -8.6347e-27)
(1.06628 0.00902422 0)
(1.06526 0.0100705 0)
(1.06566 0.00984665 0)
(1.06416 0.0100568 -1.42756e-24)
(1.06475 0.0101449 0)
(1.06258 0.00933591 0)
(1.06343 0.00978992 0)
(1.06037 0.0078396 0)
(1.06156 0.00868568 0)
(1.05742 0.00556814 1.76293e-24)
(1.059 0.00679774 0)
(1.05369 0.00257104 1.87472e-24)
(1.05566 0.00415508 0)
(1.04923 -0.00105693 0)
(1.05155 0.000828388 0)
(1.04416 -0.00522601 0)
(1.04676 -0.00308202 0)
(1.03862 -0.00989849 0)
(1.04145 -0.00749711 0)
(1.03277 -0.0150862 0)
(1.03575 -0.0124258 0)
(1.02668 -0.0208571 -2.67886e-24)
(1.02977 -0.0178945 0)
(1.02035 -0.0272764 0)
(1.02356 -0.0239834 0)
(1.0137 -0.034392 0)
(1.01707 -0.0307457 0)
(1.00658 -0.0422374 -5.44475e-26)
(1.01021 -0.0382223 0)
(0.998811 -0.0508451 6.61793e-26)
(1.0028 -0.0464458 0)
(0.990393 -0.060326 3.90229e-24)
(0.9946 -0.0554634 0)
(0.981451 -0.0708779 -2.22161e-21)
(0.985964 -0.0654486 5.18483e-22)
(0.937721 -0.0704896 5.72007e-22)
(0.976466 -0.0764318 1.09692e-21)
(0.858613 -0.0213009 -9.67229e-22)
(0.876595 -0.0481892 -1.08697e-21)
(1.0648 0.00771487 6.29717e-23)
(1.06728 0.00467778 4.45585e-22)
(0.864805 -0.00856819 1.12968e-22)
(0.899421 -0.0626774 0)
(0.888064 0.00582564 1.47916e-20)
(0.971072 -0.0821303 1.81498e-21)
(0.930754 -0.0756991 2.45227e-21)
(0.949566 0.0204771 -2.39566e-20)
(0.953953 0.0247801 4.4492e-21)
(0.857989 -0.0357914 0)
(0.958541 0.0196589 2.25016e-21)
(0.953869 0.0205603 1.20223e-21)
(0.977991 0.0204864 1.97464e-21)
(0.967299 0.0197285 -3.07046e-21)
(0.998098 0.0221821 -9.08193e-22)
(0.988673 0.0214139 -4.63893e-22)
(1.01477 0.0237138 4.30504e-22)
(1.00677 0.0229347 4.60696e-22)
(1.0294 0.0253417 0)
(1.02238 0.0245545 -2.13463e-24)
(1.04191 0.02682 0)
(1.0359 0.0261106 0)
(1.05259 0.0279965 1.34735e-24)
(1.04747 0.0274516 0)
(1.06159 0.0287977 0)
(1.0573 0.0284497 0)
(1.069 0.0291357 0)
(1.06549 0.029033 0)
(1.07494 0.0289075 0)
(1.07215 0.0290984 0)
(1.07948 0.0280348 1.02428e-24)
(1.07738 0.0285546 0)
(1.08265 0.0265098 9.66753e-27)
(1.08124 0.0273522 0)
(1.08444 0.024425 0)
(1.08372 0.0255248 0)
(1.0849 0.0219886 -1.69354e-24)
(1.08484 0.0232364 0)
(1.08416 0.0194442 0)
(1.08467 0.020714 0)
(1.08245 0.0170182 0)
(1.08341 0.0182056 0)
(1.08009 0.0148436 0)
(1.08133 0.0158952 0)
(1.07743 0.0129552 0)
(1.07877 0.0138649 0)
(1.07479 0.0113186 0)
(1.07608 0.0121105 0)
(1.07238 0.00987443 -3.70226e-23)
(1.07352 0.0105789 0)
(1.07033 0.00857298 0)
(1.07128 0.00921831 -7.04558e-23)
(1.06871 0.00734631 -1.32144e-25)
(1.06946 0.00795081 0)
(1.06167 0.00691901 -2.49437e-22)
(1.06814 0.0067497 1.48906e-23)
(1.06461 0.00700493 1.20261e-22)
(1.05882 0.0059639 8.88428e-23)
(1.05966 0.00654072 -6.13813e-23)
(1.06108 0.0046359 -3.08583e-23)
(1.05933 0.00529379 3.0643e-23)
(1.06747 0.00385032 0)
(1.06388 0.0041313 -2.83494e-22)
(1.07186 0.00551196 -1.27905e-22)
(1.07151 0.00385593 -2.41168e-22)
(1.0717 0.00468402 5.49635e-22)
(1.07234 0.00707647 -6.9198e-23)
(1.07214 0.00631227 0)
(1.07279 0.00841215 0)
(1.0726 0.0077807 0)
(1.07311 0.00938677 -9.90874e-27)
(1.07295 0.00895048 0)
(1.07328 0.00984922 0)
(1.07321 0.00968899 0)
(1.07319 0.00965188 1.42756e-24)
(1.07328 0.00984076 0)
(1.07268 0.00867158 0)
(1.073 0.00926455 0)
(1.07158 0.00684945 0)
(1.07221 0.00786551 0)
(1.0698 0.00421251 0)
(1.07078 0.0056274 0)
(1.0673 0.000860472 -2.11213e-26)
(1.06864 0.00261695 0)
(1.06417 -0.00307014 0)
(1.06581 -0.00104164 0)
(1.06053 -0.00746678 0)
(1.0624 -0.00521595 0)
(1.05657 -0.0122866 0)
(1.05859 -0.00982332 0)
(1.05241 -0.0175759 0)
(1.05451 -0.0148692 0)
(1.04812 -0.0234277 2.67886e-24)
(1.05029 -0.0204244 0)
(1.04368 -0.0299539 0)
(1.04593 -0.0266011 0)
(1.03899 -0.0372392 0)
(1.04138 -0.0334983 0)
(1.03393 -0.0453372 -3.33862e-24)
(1.03652 -0.0411849 0)
(1.02833 -0.0542745 3.59048e-24)
(1.03122 -0.0497001 0)
(1.02199 -0.0640716 -3.85814e-24)
(1.02528 -0.0590657 0)
(1.01492 -0.0749033 5.21725e-22)
(1.01844 -0.0693274 -1.02843e-21)
(1.00708 -0.0869256 -5.38848e-22)
(1.01101 -0.0807805 1.14034e-21)
(0.965029 -0.0879387 7.85873e-23)
(1.00232 -0.0932375 1.19223e-21)
(0.843778 -0.0242177 -1.07803e-21)
(0.865796 -0.0522245 0)
(0.849667 -0.00978041 -1.05278e-20)
(0.889511 -0.0669214 0)
(1.07293 0.00659146 -6.15822e-23)
(1.072 0.0061615 4.51411e-23)
(1.06761 0.00304913 -2.29316e-22)
(1.07132 0.00303648 -2.58867e-22)
(0.855732 0.000693451 -1.04174e-20)
(0.923357 -0.0808808 -2.47639e-21)
(0.930292 0.0233672 0)
(0.993675 0.0318614 -2.82654e-21)
(0.958553 -0.093909 -1.19033e-21)
(0.997319 -0.0998205 1.85692e-21)
(0.988865 0.0332255 5.52057e-21)
(0.844827 -0.0392133 0)
(1.00442 0.030142 0)
(0.998955 0.0311009 -2.3714e-21)
(1.0205 0.0295896 0)
(1.01211 0.0296569 0)
(1.03616 0.0299511 0)
(1.02873 0.0297473 4.80599e-22)
(1.0492 0.0305758 0)
(1.04295 0.0302375 0)
(1.06044 0.0312723 0)
(1.05504 0.0309237 0)
(1.06997 0.0318706 0)
(1.06542 0.0315972 0)
(1.07789 0.032219 -1.34735e-24)
(1.07412 0.0320804 0)
(1.08433 0.032254 0)
(1.08129 0.0322808 0)
(1.08943 0.0318869 0)
(1.08705 0.032128 0)
(1.09329 0.0310044 0)
(1.09151 0.0315182 0)
(1.09599 0.0295014 -1.34849e-26)
(1.09479 0.0303351 0)
(1.09755 0.02734 1.16648e-26)
(1.09692 0.0284997 0)
(1.09792 0.0246178 0)
(1.09789 0.0260371 0)
(1.09711 0.021567 8.5741e-27)
(1.09766 0.0231151 0)
(1.09518 0.0184914 0)
(1.09628 0.0200129 0)
(1.09234 0.0156702 0)
(1.09386 0.0170353 0)
(1.08888 0.0132711 0)
(1.09066 0.0144127 0)
(1.08516 0.0113309 0)
(1.08703 0.012246 0)
(1.08151 0.0097896 0)
(1.0833 0.0105177 0)
(1.07819 0.00854888 0)
(1.07978 0.00914074 0)
(1.07531 0.00750802 6.85153e-23)
(1.07666 0.00801536 7.15291e-23)
(1.07405 0.00703845 -1.28843e-22)
(1.0619 0.00617163 -1.19629e-22)
(1.06773 0.00618411 0)
(1.06452 0.00634294 -1.21676e-22)
(1.05947 0.00516679 0)
(1.06014 0.00575983 1.22106e-22)
(1.06166 0.0038373 1.81018e-22)
(1.06 0.00449137 -6.12962e-23)
(1.06427 0.00333293 -3.56793e-22)
(1.07667 0.00586397 6.36792e-23)
(1.07558 0.00417553 2.27245e-22)
(1.07623 0.00503364 0)
(1.0779 0.00745749 -1.35376e-22)
(1.07734 0.00668797 1.35838e-22)
(1.07911 0.00880152 0)
(1.07854 0.00817475 0)
(1.08033 0.00975002 -1.11978e-26)
(1.07973 0.00933514 0)
(1.08146 0.0101316 0)
(1.08091 0.0100222 0)
(1.08236 0.00977521 0)
(1.08195 0.0100547 0)
(1.08285 0.00855118 0)
(1.08267 0.00927645 0)
(1.08277 0.00641455 0)
(1.0829 0.0075951 0)
(1.082 0.00342789 1.70783e-24)
(1.08247 0.00501913 0)
(1.08052 -0.00025702 -1.8536e-24)
(1.08134 0.00166053 0)
(1.07843 -0.004457 0)
(1.07954 -0.00230363 0)
(1.0759 -0.00903682 0)
(1.07721 -0.00670449 0)
(1.07311 -0.0139623 0)
(1.07453 -0.0114546 0)
(1.07018 -0.0193098 0)
(1.07166 -0.0165767 0)
(1.06715 -0.0252157 0)
(1.06868 -0.0221841 0)
(1.06401 -0.0318252 0)
(1.0656 -0.0284251 0)
(1.06066 -0.0392499 -2.96995e-24)
(1.06237 -0.0354309 0)
(1.057 -0.0475611 3.18393e-24)
(1.05888 -0.0432923 0)
(1.05291 -0.0567975 -3.4099e-24)
(1.05502 -0.0520628 0)
(1.04824 -0.066974 0)
(1.05066 -0.0617685 0)
(1.04282 -0.0781224 0)
(1.04563 -0.0724196 0)
(1.03664 -0.0905039 4.19613e-24)
(1.03974 -0.0841123 5.37901e-22)
(1.02934 -0.104089 -2.99197e-21)
(1.03302 -0.0971717 0)
(0.992301 -0.106661 -1.81734e-21)
(1.02547 -0.111374 -6.58354e-23)
(0.82863 -0.0268365 3.42349e-21)
(0.853815 -0.0558745 0)
(1.0712 0.00572482 -2.30136e-22)
(1.0751 0.00335766 -4.42565e-22)
(0.825861 -0.0148581 -1.87241e-21)
(0.889452 0.0132276 8.49939e-23)
(0.843221 -0.000147757 5.47526e-21)
(0.879738 -0.0712914 0)
(0.914158 -0.0858344 6.52641e-22)
(0.968743 0.0338176 -5.28369e-21)
(0.941816 0.0298569 4.95148e-21)
(0.891901 0.0178045 -4.7524e-21)
(0.951495 -0.0999264 -1.91299e-21)
(0.986324 -0.113585 1.30166e-21)
(1.02161 -0.118957 1.1399e-21)
(0.831215 -0.0424367 0)
(1.03402 0.0407916 1.45644e-22)
(1.01362 0.0430408 5.02746e-24)
(1.02631 0.041918 1.1642e-21)
(1.04506 0.0383766 1.09071e-21)
(1.03992 0.039607 -1.09697e-21)
(1.05741 0.036756 1.859e-24)
(1.05117 0.0374618 0)
(1.06907 0.0360803 0)
(1.06347 0.0363156 0)
(1.07886 0.0358547 0)
(1.07418 0.0359456 0)
(1.08707 0.0357149 0)
(1.08315 0.0357824 0)
(1.09383 0.0355212 1.39018e-24)
(1.09063 0.0356341 0)
(1.09921 0.0351542 0)
(1.09669 0.0353642 0)
(1.10337 0.0345418 0)
(1.10144 0.0348835 0)
(1.10641 0.0335933 0)
(1.10502 0.0341168 0)
(1.10847 0.0321803 0)
(1.10756 0.032954 0)
(1.10961 0.030166 -1.0108e-24)
(1.10915 0.0312551 0)
(1.10984 0.0274817 1.36496e-26)
(1.10985 0.0289061 0)
(1.1091 0.0242106 0)
(1.1096 0.0259071 0)
(1.10732 0.0206088 1.65926e-24)
(1.10834 0.0224295 0)
(1.10452 0.0170367 0)
(1.10604 0.0187956 0)
(1.10086 0.0138367 0)
(1.10279 0.0153729 0)
(1.0966 0.0112229 0)
(1.09878 0.0124497 0)
(1.09208 0.00924445 0)
(1.09435 0.0101572 0)
(1.08765 0.00782038 0)
(1.08983 0.00847203 0)
(1.08358 0.00680755 1.14456e-24)
(1.08555 0.00727339 0)
(1.08003 0.00606215 -6.88124e-23)
(1.08175 0.00640714 0)
(1.07702 0.00546769 6.38398e-23)
(1.07846 0.00575393 0)
(1.07465 0.00491925 5.86041e-23)
(1.07577 0.00519022 -6.10835e-23)
(1.0674 0.00565211 1.15098e-22)
(1.07372 0.00464081 0)
(1.07056 0.00530263 1.72287e-22)
(1.06219 0.00548462 0)
(1.06452 0.00571074 0)
(1.06013 0.00442126 0)
(1.06067 0.00503637 0)
(1.06225 0.00308061 0)
(1.06068 0.00373426 0)
(1.06777 0.00229467 2.33731e-22)
(1.06469 0.00258145 5.75224e-23)
(1.07465 0.0025807 5.63439e-23)
(1.07118 0.00228062 4.52918e-22)
(1.07945 0.00484344 3.0109e-22)
(1.0779 0.00316822 5.54052e-23)
(1.07863 0.0039823 -1.1474e-22)
(1.08117 0.0065777 6.22344e-23)
(1.08031 0.00571985 -3.73571e-22)
(1.08303 0.00822579 -9.26703e-27)
(1.08211 0.00743075 0)
(1.08496 0.00960988 0)
(1.08399 0.00896393 0)
(1.08698 0.0105621 -1.25594e-26)
(1.08597 0.010154 0)
(1.08894 0.0108792 0)
(1.08798 0.0108131 0)
(1.09067 0.0103675 0)
(1.08985 0.0107373 0)
(1.09198 0.00889201 0)
(1.09139 0.00975466 0)
(1.09266 0.00642736 0)
(1.09241 0.0077793 0)
(1.09262 0.00308099 -3.38895e-24)
(1.09274 0.00485257 0)
(1.09184 -0.000937599 0)
(1.09232 0.00114017 0)
(1.09046 -0.00539776 0)
(1.09122 -0.00312541 0)
(1.08865 -0.0101442 0)
(1.0896 -0.0077401 0)
(1.0866 -0.0151581 0)
(1.08765 -0.0126137 0)
(1.08443 -0.0205507 -2.35333e-24)
(1.08552 -0.0177971 0)
(1.08218 -0.0265012 0)
(1.08332 -0.023445 0)
(1.07984 -0.0331831 0)
(1.08103 -0.029742 0)
(1.07733 -0.0407225 2.96995e-24)
(1.07861 -0.0368404 0)
(1.07458 -0.0491965 -9.54649e-26)
(1.07599 -0.0448398 0)
(1.07153 -0.0586527 6.7096e-24)
(1.0731 -0.0538002 0)
(1.0681 -0.0691213 0)
(1.06987 -0.0637597 0)
(1.06421 -0.0806219 0)
(1.06622 -0.074742 0)
(1.05972 -0.0931598 -1.70861e-25)
(1.06205 -0.0867566 0)
(1.05447 -0.106946 0)
(1.05718 -0.0998959 0)
(1.04899 -0.122225 -1.7648e-21)
(1.05173 -0.114397 0)
(1.0169 -0.126588 -5.94425e-23)
(1.04602 -0.130362 3.02512e-21)
(0.811657 -0.0302438 0)
(0.998738 0.0433926 7.28252e-21)
(0.811315 -0.0152108 1.29402e-21)
(1.07786 0.00383765 -5.85029e-23)
(1.07672 0.00371153 0)
(1.07423 0.00185578 5.39074e-23)
(1.07715 0.00239036 -1.07433e-22)
(0.841471 -0.0594146 0)
(0.868241 -0.0753804 0)
(0.830314 0.00234673 0)
(0.904799 -0.0909535 -6.42737e-22)
(0.943663 -0.106084 -1.28831e-21)
(0.980215 -0.120716 0)
(1.01181 -0.134458 3.24367e-21)
(1.04253 -0.138638 -2.45553e-21)
(0.81688 -0.0454527 0)
(1.0541 0.0504495 -5.57484e-25)
(0.985723 0.044507 2.30508e-21)
(1.03535 0.0541356 -8.13991e-21)
(1.04466 0.0521697 2.33467e-21)
(1.06828 0.0467404 -6.83249e-22)
(1.06166 0.0484044 -1.15435e-21)
(1.07802 0.0440749 0)
(1.07362 0.0453697 0)
(1.08712 0.0419299 -1.85885e-24)
(1.0826 0.0429301 0)
(1.09547 0.0405507 0)
(1.09146 0.041151 0)
(1.10236 0.0395965 0)
(1.09909 0.0400494 0)
(1.10793 0.0387604 0)
(1.1053 0.0391719 0)
(1.11229 0.0379182 -1.39018e-24)
(1.11026 0.0383474 0)
(1.11554 0.0369659 0)
(1.11405 0.0374606 0)
(1.11778 0.0358311 0)
(1.11678 0.0364257 0)
(1.11916 0.0344239 0)
(1.11857 0.035169 0)
(1.11978 0.0326018 0)
(1.11955 0.0335753 0)
(1.11971 0.0301951 9.77841e-25)
(1.11983 0.0314807 0)
(1.11894 0.027097 1.54943e-26)
(1.11942 0.0287333 0)
(1.1174 0.0233685 0)
(1.11828 0.0252991 0)
(1.11498 0.0192812 -1.20951e-26)
(1.1163 0.0213455 0)
(1.11164 0.0152491 0)
(1.11342 0.0172306 0)
(1.10749 0.0116832 0)
(1.10966 0.0133864 0)
(1.10275 0.00885431 0)
(1.10518 0.0101674 0)
(1.09774 0.00683458 0)
(1.10026 0.0077461 0)
(1.0928 0.00552884 0)
(1.09524 0.00610291 0)
(1.08821 0.00475261 -2.27953e-24)
(1.09045 0.00508743 0)
(1.08419 0.00430809 -1.06898e-24)
(1.08612 0.00450092 0)
(1.08074 0.00404187 1.29073e-22)
(1.08238 0.00416406 -1.30838e-22)
(1.07921 0.00394057 1.20385e-22)
(1.06721 0.00515033 2.82595e-23)
(1.07299 0.00435644 7.00284e-24)
(1.07007 0.00491055 -8.58324e-23)
(1.06255 0.00484821 0)
(1.06462 0.00512605 0)
(1.06078 0.00372548 -8.75422e-28)
(1.06122 0.0043614 0)
(1.06282 0.00238973 0)
(1.06134 0.00303524 0)
(1.06792 0.00160725 1.12472e-22)
(1.06508 0.00189642 -1.15588e-22)
(1.07106 0.00158557 -6.91301e-24)
(1.08274 0.00578127 -4.5808e-25)
(1.08068 0.00400314 -1.11314e-22)
(1.08168 0.00486974 8.39724e-25)
(1.08494 0.00759582 -6.33957e-23)
(1.08381 0.00669287 6.35033e-23)
(1.08731 0.00932167 -1.08088e-24)
(1.08612 0.00848819 0)
(1.08985 0.0107741 -1.1361e-24)
(1.08857 0.0100964 0)
(1.09249 0.0117431 -1.39511e-26)
(1.09117 0.0113346 0)
(1.09507 0.0119946 0)
(1.0938 0.0119735 0)
(1.0974 0.0113123 0)
(1.09628 0.0117814 0)
(1.09924 0.00955901 0)
(1.09839 0.010573 0)
(1.1004 0.00673708 0)
(1.09991 0.00827479 0)
(1.10077 0.00300767 1.68112e-24)
(1.10069 0.00497002 0)
(1.10038 -0.00135667 1.76177e-24)
(1.10067 0.000885789 0)
(1.09937 -0.00607725 0)
(1.09994 -0.00368698 0)
(1.09794 -0.0109845 0)
(1.0987 -0.00851191 0)
(1.09629 -0.0160793 0)
(1.09713 -0.013502 0)
(1.09453 -0.0215119 2.35333e-24)
(1.09542 -0.0187406 0)
(1.09271 -0.0274994 -2.45155e-24)
(1.09362 -0.0244231 0)
(1.09082 -0.0342379 0)
(1.09177 -0.0307653 0)
(1.08882 -0.0418592 0)
(1.08983 -0.0379331 0)
(1.08668 -0.0504376 -1.03537e-25)
(1.08777 -0.046026 0)
(1.08439 -0.0600204 -6.48036e-24)
(1.08556 -0.0551014 0)
(1.08191 -0.0706501 0)
(1.08318 -0.0652021 0)
(1.07923 -0.0823648 0)
(1.0806 -0.0763716 0)
(1.0763 -0.0951679 -1.78701e-25)
(1.0778 -0.0886277 0)
(1.07311 -0.109131 0)
(1.07474 -0.102007 0)
(1.06971 -0.124328 1.1339e-21)
(1.07138 -0.116549 0)
(1.066 -0.140952 1.15734e-21)
(1.06782 -0.132475 -2.30344e-21)