/*--------------------------------*- C++ -*----------------------------------*\
  =========                 |
  \\      /  F ield         | OpenFOAM: The Open Source CFD Toolbox
   \\    /   O peration     | Website:  https://openfoam.org
    \\  /    A nd           | Version:  10
     \\/     M anipulation  |
\*---------------------------------------------------------------------------*/
FoamFile
{
    format      ascii;
    class       volScalarField;
    location    "34";
    object      p;
}
// * * * * * * * * * * * * * * * * * * * * * * * * * * * * * * * * * * * * * //

dimensions      [0 2 -2 0 0 0 0];

internalField   nonuniform List<scalar> 
28942
(
-6.49736
-6.5416
-0.526753
1.42189
1.46822
-0.0852635
-0.0703901
-0.0836165
0.556612
0.585099
-2.7919
-2.57499
-2.86774
-2.98253
0.00309506
0.00494705
2.26098
2.4339
0.947394
1.72022
1.32524
1.35022
-2.58492
-2.49841
-2.72407
-2.69723
4.46168
4.68394
0.39996
0.418202
-0.0894161
-0.0899961
0.0516927
-0.00151698
-0.32377
0.0694434
2.09361
2.87017
-0.0991695
1.655
1.15651
1.11473
-0.053835
-0.0464871
0.110719
-0.0682102
-0.05993
-0.0556858
-0.0544949
-0.046908
-0.0312757
0.567365
0.575714
0.606819
0.638932
-2.07494
-1.52897
-2.75803
-2.75516
-2.66204
-2.69913
-2.7427
-2.79837
-0.300538
-0.750203
-0.0354559
0.257188
2.62147
2.49559
-6.55908
-6.53336
-6.48157
2.63391
2.53211
2.65952
-3.32675
-3.31184
-2.62856
-0.479237
-0.793423
-0.2952
-0.915112
-6.88463
-7.26356
-1.76342
-1.1066
-0.531948
-0.781095
-1.33553
-1.15949
-0.862023
-0.494254
-3.26462
-2.92773
-3.24695
-3.39276
-3.49475
-0.691619
-0.463345
-7.24212
1.51464
1.52843
1.57842
1.51227
-0.719909
-0.643045
-0.740677
0.333979
0.371371
0.405936
-2.85688
-2.9435
-6.5821
-6.83868
-6.72422
4.75224
4.37398
4.01273
4.39543
-1.42108
-0.29955
-0.704122
0.77289
0.60512
5.26405
5.49021
5.18145
0.686303
0.945447
-0.0592312
-0.0547622
-0.0647429
2.83855
3.42153
0.835431
0.800063
1.00189
1.51057
2.32168
1.31616
-3.5106
-3.40892
0.920795
0.315785
0.24889
-1.17438
-1.30992
-1.16398
-3.37884
0.0266909
-0.131813
-1.71877
-0.0325204
-0.0506856
-0.0570351
-0.0430777
0.631184
-0.378629
-4.6889
-5.39806
-5.80226
-6.64256
-5.67719
-0.0217592
-2.21639
-1.91803
1.45663
1.50824
1.98735
1.84105
1.27103
0.0529408
0.0580321
0.680347
0.638994
0.20697
0.115223
0.233976
0.316507
0.269457
0.248187
0.314372
0.524218
0.408776
0.239678
0.371498
0.651792
0.998634
1.17001
-5.04063
-4.28065
-6.71095
-0.0692228
-0.052774
-4.99656
-5.35871
-0.0424054
-0.0358281
-0.0404214
-0.0494855
-3.6999
-3.7389
-3.63274
-3.05162
-3.01851
-3.19599
-2.59607
-2.57484
-2.63229
-2.52812
-2.7032
-2.55468
4.5729
4.28641
4.63269
-0.571582
-0.47307
-0.489705
2.69339
2.62193
2.64345
-2.21328
-2.45356
-2.00375
-2.71446
-2.98551
-3.24776
-3.28446
-3.47883
-3.51599
-3.02386
-2.74919
-2.4816
-2.23457
-2.02112
-3.66628
-3.71122
-1.82594
-1.83643
-1.6817
-3.8005
-3.85164
-1.68553
-3.86739
-3.85906
-3.91797
-3.9078
-1.5734
-1.57057
-3.77833
-3.82405
-1.49156
-1.48449
-3.63106
-3.67066
-1.43623
-1.42326
-3.42906
-3.45985
-1.40614
-1.38672
-3.18812
-3.20944
-1.40132
-1.37446
-2.9269
-2.93877
-1.42186
-1.38689
-2.66176
-2.66596
-1.4684
-1.425
-2.40664
-2.40414
-1.54417
-1.49096
-2.17026
-2.1612
-1.64839
-1.58485
-1.96133
-1.94321
-1.78902
-1.71115
-1.77728
-1.75629
-1.96528
-1.87036
-1.62177
-1.59905
-1.83131
-2.02303
-2.18201
-2.06266
-1.56659
-1.68162
-1.42849
-1.48396
-1.39735
-1.4001
-1.46819
-1.41982
-1.64741
-1.54356
-1.9443
-1.77831
-2.37186
-2.1461
-2.87554
-2.6173
-3.35176
-3.12738
-3.66111
-3.53147
-3.71993
-3.72709
-3.50132
-3.64196
-3.08183
-3.30949
-2.58439
-2.83496
-2.12171
-2.34354
-1.75453
-1.92533
-1.61672
-1.50443
-1.47383
-1.89404
-1.5489
-1.70699
-2.35367
-2.11064
-2.89112
-2.61687
-3.416
-3.1635
-3.78631
-3.62946
-3.88499
-3.87312
-3.68485
-3.82127
-3.24931
-3.48596
-2.71828
-2.9872
-2.20788
-2.45364
-1.80496
-1.98958
-1.53298
-1.65393
-1.37734
-1.44227
-1.31874
-1.33663
-1.35362
-1.32409
-1.49082
-1.4086
-1.73748
-1.59974
-1.90632
-2.25735
-1.51157
-1.42085
-2.28325
-2.09709
-2.52443
-2.42841
-1.84163
-2.28673
-2.04331
-1.55924
-1.68185
-1.40974
-1.47044
-1.36593
-1.37534
-1.42232
-1.38149
-1.58105
-1.4885
-1.85381
-1.70146
-2.24725
-2.03516
-2.71691
-2.47892
-3.16964
-2.95572
-3.46449
-3.34204
-3.52218
-3.52691
-3.31935
-3.45036
-2.9292
-3.14075
-2.46829
-2.7002
-2.04292
-2.24618
-1.71036
-1.86334
-1.42069
-1.43861
-1.4948
-1.5877
-1.47268
-1.34588
-1.32248
-1.38173
-1.81188
-1.62851
-2.26199
-2.0231
-2.79192
-2.52131
-3.30901
-3.06034
-3.67448
-3.51926
-3.7755
-3.76184
-3.58477
-3.71464
-3.15998
-3.39436
-2.63296
-2.90062
-2.13632
-2.37593
-1.73782
-1.92051
-1.46678
-1.58701
-1.30704
-1.37391
-1.24072
-1.26312
-1.2598
-1.23958
-1.36894
-1.30255
-1.57673
-1.45982
-1.87935
-1.71782
-2.56262
-2.29966
-2.05396
-2.51492
-1.43135
-1.24517
-2.80306
-2.84915
-2.50279
-2.22874
-2.68987
-1.45208
-1.3969
-1.25448
-1.17296
-2.85007
-3.12498
-3.36656
-3.13445
-2.2729
-2.55377
-1.81891
-2.02545
-1.52534
-1.65286
-1.36646
-1.4313
-1.31223
-1.32736
-1.35361
-1.32101
-1.4925
-1.41057
-1.73689
-1.60068
-2.09285
-1.90144
-2.5226
-2.30346
-2.93803
-2.74014
-3.21354
-3.09942
-3.26947
-3.272
-3.08775
-3.20571
-2.73504
-2.92638
-2.31839
-2.52792
-1.93529
-2.11807
-1.63991
-1.7745
-1.5321
-1.36865
-1.39348
-1.39381
-1.32077
-1.37517
-1.15307
-1.25178
-1.70093
-1.52497
-2.13316
-1.90389
-2.64288
-2.38244
-3.14135
-2.90139
-3.49573
-3.3447
-3.59751
-3.58213
-3.41738
-3.54044
-3.01667
-3.23843
-2.5111
-2.76835
-2.03066
-2.26184
-1.64541
-1.8235
-1.37944
-1.49821
-1.2185
-1.28661
-1.14546
-1.17182
-1.14994
-1.13827
-1.23212
-1.18109
-1.39795
-1.30418
-1.64491
-1.51302
-1.93828
-1.79072
-2.38768
-2.07105
-3.07328
-2.7487
-1.36608
-1.07872
-3.38422
-2.68357
-3.66612
-2.17851
-2.51055
-3.42269
-3.57509
-2.94537
-3.27961
-3.38833
-2.80103
-3.08142
-2.21167
-2.49621
-1.76005
-1.96496
-1.46469
-1.59454
-1.30048
-1.36818
-1.23799
-1.25784
-1.2652
-1.24039
-1.38335
-1.31284
-1.59817
-1.47813
-1.9132
-1.74388
-2.29728
-2.10084
-2.66889
-2.49112
-2.92044
-2.81578
-2.97481
-2.9748
-2.81747
-2.92034
-2.50703
-2.67569
-2.13895
-2.32412
-1.80042
-1.96182
-1.54194
-1.65941
-1.38132
-1.44967
-1.31342
-1.3355
-1.38072
-1.31407
-1.35952
-1.34407
-1.37529
-1.21549
-1.28935
-1.02737
-1.12655
-1.04773
-0.92014
-0.974434
-1.26025
-1.14262
-1.56815
-1.40207
-1.97469
-1.75934
-2.45414
-2.20915
-2.92318
-2.69726
-3.2589
-3.11519
-3.35921
-3.34243
-3.1938
-3.30754
-2.82186
-3.02738
-2.35155
-2.59132
-1.89886
-2.11714
-1.5345
-1.70338
-1.27788
-1.39332
-1.11817
-1.18685
-1.03956
-1.06949
-1.03088
-1.02689
-1.08864
-1.05145
-1.21525
-1.14319
-1.40855
-1.30433
-1.64446
-1.52526
-1.84774
-1.75643
-2.24883
-1.91039
-3.32522
-2.95825
-3.62266
-2.82978
-1.23734
-1.24673
-0.999976
-0.888476
-3.81983
-2.58805
-3.63724
-3.40943
-2.26886
-1.93634
-3.46627
-3.17855
-3.11183
-3.24915
-2.66776
-2.92361
-2.10415
-2.37927
-1.66954
-1.86725
-1.38015
-1.5081
-1.21438
-1.28344
-1.14596
-1.16947
-1.16048
-1.14299
-1.25793
-1.19871
-1.44217
-1.33889
-1.71458
-1.56801
-2.04924
-1.87752
-2.37563
-2.21924
-2.59986
-2.50592
-2.65212
-2.64975
-2.51951
-2.60698
-2.25253
-2.39787
-1.93423
-2.09445
-1.64121
-1.78086
-1.42013
-1.52
-1.28576
-1.34251
-1.2507
-1.39249
-1.33941
-1.37834
-1.3449
-1.38149
-1.20259
-1.28405
-1.10618
-0.933789
-0.810383
-0.862831
-1.13333
-1.02328
-1.41792
-1.26428
-1.79285
-1.59465
-2.23394
-2.0085
-2.66622
-2.45787
-2.97735
-2.8438
-3.07323
-3.05575
-2.92552
-3.02778
-2.5865
-2.77405
-2.15773
-2.3764
-1.74183
-1.94295
-1.40461
-1.56126
-1.16313
-1.27232
-1.00828
-1.07588
-0.926128
-0.958861
-0.906055
-0.908813
-0.942663
-0.917361
-1.03606
-0.982279
-1.18209
-1.10317
-1.36238
-1.27026
-1.53034
-1.45171
-1.60625
-1.58511
-1.91887
-1.59995
-3.53679
-3.12275
-1.27808
-0.773539
-3.78171
-3.76411
-3.85496
-2.93244
-2.60873
-3.48049
-3.42651
-3.72881
-2.2539
-1.8734
-1.56435
-3.36372
-3.16049
-3.22318
-3.24154
-2.8757
-3.01921
-2.47686
-2.70381
-1.96428
-2.21795
-1.55143
-1.74
-1.27418
-1.39716
-1.11157
-1.18001
-1.03977
-1.06574
-1.04338
-1.0324
-1.12129
-1.07302
-1.27518
-1.18854
-1.5053
-1.38128
-1.79017
-1.64372
-2.07054
-1.93585
-2.26597
-2.18358
-2.31499
-2.31077
-2.2059
-2.2786
-1.98108
-2.10373
-1.71168
-1.84735
-1.46408
-1.58191
-1.27946
-1.3625
-1.17224
-1.216
-1.14347
-1.14811
-1.19723
-1.15938
-1.38946
-1.2571
-1.33358
-1.42824
-1.42102
-1.36852
-1.41074
-1.21473
-1.30256
-0.995676
-1.10972
-0.756131
-0.87658
-0.697427
-0.637999
-0.660251
-0.815162
-0.749115
-0.998462
-0.898182
-1.25775
-1.1181
-1.59659
-1.4178
-1.9936
-1.79078
-2.38295
-2.19516
-2.66484
-2.54347
-2.75445
-2.7369
-2.62548
-2.71545
-2.32356
-2.49108
-1.93931
-2.13541
-1.56473
-1.74624
-1.25808
-1.40101
-1.03562
-1.13656
-0.88943
-0.953944
-0.806702
-0.840867
-0.77763
-0.785948
-0.79651
-0.781187
-0.862398
-0.823664
-0.970318
-0.91178
-1.1035
-1.03547
-1.23047
-1.17015
-1.29919
-1.27552
-1.28078
-1.30101
-1.50742
-1.23777
-3.69359
-3.13758
-3.81171
-1.09927
-1.16055
-0.756057
-0.632759
-3.23807
-2.97986
-3.81104
-2.59864
-2.19385
-1.79697
-1.43191
-1.1823
-3.49203
-2.92334
-2.99236
-2.66088
-2.81635
-2.87321
-2.95083
-2.61229
-2.74871
-2.2512
-2.45329
-1.79128
-2.02084
-1.40993
-1.5848
-1.15155
-1.26652
-0.996318
-1.06238
-0.923359
-0.950812
-0.918014
-0.91258
-0.97788
-0.939808
-1.10332
-1.03237
-1.29303
-1.19063
-1.5296
-1.40771
-1.76502
-1.65158
-1.93155
-1.86093
-1.97632
-1.97087
-1.88866
-1.94776
-1.70342
-1.8047
-1.48052
-1.59277
-1.27653
-1.37338
-1.12695
-1.1937
-1.04586
-1.07759
-1.03499
-1.03204
-1.05755
-1.46321
-1.33715
-1.41271
-1.48723
-1.48758
-1.41263
-1.46171
-1.24714
-1.34097
-1.01246
-1.13495
-0.884568
-0.585473
-0.525068
-0.548789
-0.69479
-0.634008
-0.860594
-0.769967
-1.09287
-0.968092
-1.39329
-1.23506
-1.74355
-1.5647
-2.08696
-1.92128
-2.33649
-2.22879
-2.41827
-2.40128
-2.30783
-2.38558
-2.04523
-2.19127
-1.70793
-1.8804
-1.3767
-1.5375
-1.10242
-1.23082
-0.900395
-0.992448
-0.764724
-0.82506
-0.683842
-0.718147
-0.648394
-0.660921
-0.652902
-0.645778
-0.695914
-0.669702
-0.77291
-0.730742
-0.869858
-0.820242
-0.962555
-0.91854
-1.0169
-0.99651
-1.0141
-1.02418
-0.948823
-0.987741
-3.5559
-3.26053
-1.11623
-0.902146
-3.79922
-1.24162
-0.514462
-2.49016
-3.29021
-2.77859
-3.78072
-2.94567
-3.67345
-2.53285
-2.10656
-1.70342
-1.34785
-1.04702
-0.848232
-3.54049
-2.30284
-2.27526
-1.96958
-2.13813
-2.57038
-2.46088
-2.54644
-2.59329
-2.32863
-2.45205
-1.99859
-2.17921
-1.59705
-1.79803
-1.25456
-1.41291
-1.01798
-1.12364
-0.872779
-0.935165
-0.800782
-0.828709
-0.788466
-0.787587
-0.832341
-0.803425
-0.931619
-0.87512
-1.08417
-1.00165
-1.27597
-1.17694
-1.46891
-1.37561
-1.6075
-1.54837
-1.64729
-1.64122
-1.57853
-1.62548
-1.42939
-1.51111
-1.24939
-1.34
-1.08582
-1.1632
-0.968852
-1.0204
-0.91135
-0.932387
-0.91637
-0.905989
-0.986527
-0.942877
-1.1302
-1.04862
-1.43911
-1.23037
-1.34459
-1.5578
-1.51171
-1.56792
-1.57642
-1.47581
-1.53353
-1.29646
-1.39659
-1.04776
-1.17833
-0.77518
-0.911485
-0.516128
-0.641981
-0.41704
-0.398984
-0.403259
-0.476556
-0.441667
-0.575434
-0.520346
-0.724205
-0.64316
-0.929142
-0.819431
-1.19067
-1.05328
-1.49346
-1.33897
-1.79023
-1.64698
-2.00661
-1.91304
-2.07924
-2.06348
-1.98676
-2.05258
-1.76289
-1.88757
-1.47319
-1.62164
-1.18593
-1.32574
-0.944958
-1.05827
-0.76407
-0.846986
-0.639493
-0.695338
-0.561697
-0.595383
-0.522016
-0.537553
-0.515197
-0.514645
-0.539412
-0.52354
-0.591095
-0.56224
-0.659877
-0.624351
-0.727214
-0.69516
-0.769483
-0.75266
-0.77333
-0.777073
-0.734763
-0.759218
-0.665413
-0.702408
-3.30973
-3.04115
-0.797689
-0.629386
-3.71732
-3.25645
-1.7877
-2.03668
-2.50604
-3.63857
-2.85783
-1.0051
-1.09886
-0.529868
-0.406148
-3.45029
-2.42155
-1.9906
-1.59853
-1.25972
-0.9807
-1.59139
-1.32064
-1.17131
-0.758572
-0.60051
-1.39671
-3.51056
-1.64585
-1.47295
-1.96813
-1.81858
-2.18831
-2.09533
-2.20971
-2.22648
-2.03364
-2.14238
-1.73793
-1.89629
-1.39222
-1.56582
-1.0899
-1.23066
-0.877531
-0.972638
-0.744854
-0.802348
-0.675699
-0.703242
-0.658228
-0.660935
-0.688473
-0.667468
-0.764876
-0.721052
-0.884415
-0.819629
-1.03594
-0.957542
-1.18998
-1.11523
-1.30244
-1.25416
-1.33674
-1.33061
-1.28414
-1.32053
-1.16692
-1.23127
-1.02519
-1.09646
-0.897711
-0.957725
-0.809708
-0.847822
-0.772551
-0.784466
-0.79001
-0.774329
-0.864206
-0.820015
-0.926172
-1.56042
-1.34482
-1.46437
-1.6722
-1.63005
-1.66867
-1.68468
-1.55718
-1.6251
-1.35992
-1.46811
-1.09778
-1.23524
-0.80721
-0.952337
-0.665182
-0.315637
-0.292434
-0.299776
-0.371169
-0.339991
-0.46057
-0.411017
-0.592414
-0.520868
-0.770866
-0.675773
-0.994849
-0.877573
-1.25173
-1.12083
-1.50309
-1.38172
-1.68712
-1.60737
-1.75013
-1.73602
-1.67432
-1.72882
-1.48709
-1.59157
-1.24287
-1.36825
-0.998249
-1.11768
-0.790103
-0.88839
-0.630782
-0.704292
-0.517958
-0.568991
-0.444192
-0.476716
-0.401947
-0.419541
-0.386405
-0.390998
-0.395617
-0.388025
-0.426984
-0.408808
-0.473572
-0.449057
-0.522083
-0.49867
-0.555403
-0.541509
-0.562103
-0.562639
-0.538824
-0.554208
-0.493195
-0.517124
-0.453263
-0.472344
-1.78219
-0.579862
-0.72809
-0.573744
-0.442375
-0.442841
-3.08404
-2.77911
-3.57612
-3.15421
-1.20778
-0.294521
-2.2349
-3.42954
-2.71913
-3.17129
-2.27785
-1.8579
-1.49015
-1.17697
-0.926097
-1.03228
-0.799233
-0.708806
-0.321239
-0.332126
-0.451754
-0.914021
-1.21777
-1.5621
-0.715058
-0.577853
-3.39043
-1.04393
-0.909241
-1.36121
-1.19957
-1.64419
-1.51672
-1.83217
-1.74909
-1.87132
-1.87683
-1.72787
-1.81744
-1.47891
-1.61301
-1.18424
-1.33249
-0.922741
-1.04518
-0.735706
-0.819808
-0.616593
-0.668626
-0.551573
-0.578071
-0.530564
-0.535982
-0.549444
-0.535121
-0.606224
-0.573284
-0.69742
-0.647865
-0.814032
-0.753566
-0.933748
-0.875487
-1.02252
-0.984171
-1.05108
-1.04537
-1.01175
-1.03933
-0.921765
-0.971249
-0.812944
-0.867582
-0.71646
-0.761572
-0.65312
-0.679818
-0.632962
-0.637295
-0.660175
-0.640443
-0.737706
-0.692448
-0.871638
-0.797204
-1.06168
-0.959863
-1.47068
-1.1736
-1.32776
-1.69245
-1.59416
-1.80117
-1.76242
-1.7858
-1.80865
-1.65474
-1.73337
-1.43518
-1.55407
-1.1567
-1.30174
-0.849003
-1.00338
-0.555017
-0.698444
-0.303568
-0.423462
-0.196144
-0.198095
-0.194319
-0.221852
-0.205425
-0.272015
-0.243588
-0.352318
-0.308026
-0.468134
-0.405581
-0.621679
-0.540239
-0.810678
-0.712123
-1.02477
-0.915872
-1.23367
-1.13277
-1.38721
-1.32053
-1.44081
-1.42843
-1.37998
-1.4242
-1.22616
-1.3122
-1.02362
-1.12785
-0.818458
-0.918967
-0.641145
-0.725243
-0.502789
-0.567016
-0.40218
-0.448091
-0.333465
-0.364261
-0.290225
-0.309013
-0.268275
-0.276736
-0.26595
-0.264735
-0.281624
-0.271702
-0.311023
-0.295041
-0.345229
-0.328294
-0.371813
-0.36017
-0.380247
-0.378726
-0.366123
-0.376004
-0.337668
-0.35231
-0.316498
-0.325197
-0.316035
-2.82196
-2.54564
-0.467197
-0.348164
-3.37339
-2.99264
-1.98594
-3.17559
-2.54498
-0.912396
-1.01418
-0.321626
-0.208001
-2.87205
-2.11522
-1.72152
-1.38605
-1.10896
-0.890194
-0.631876
-0.437312
-0.388784
-0.569496
-0.809676
-1.06676
-1.37315
-0.718004
-0.596618
-0.371912
-0.493612
-3.20513
-0.580635
-0.494919
-0.817828
-0.689698
-1.09552
-0.957132
-1.33507
-1.2241
-1.49898
-1.42808
-1.53801
-1.53688
-1.43795
-1.50367
-1.23033
-1.34446
-0.979581
-1.10534
-0.757103
-0.861615
-0.59555
-0.668511
-0.490697
-0.536837
-0.430967
-0.455815
-0.407915
-0.415222
-0.417742
-0.408825
-0.45831
-0.434393
-0.525868
-0.489031
-0.613107
-0.567791
-0.703481
-0.659376
-0.771461
-0.741932
-0.794267
-0.789362
-0.765361
-0.78586
-0.697752
-0.734969
-0.616209
-0.657048
-0.545444
-0.5782
-0.502475
-0.519776
-0.496136
-0.494399
-0.530818
-0.508176
-0.610236
-0.564837
-0.737525
-0.668286
-0.819
-1.60217
-1.28817
-1.45284
-1.83014
-1.72906
-1.93746
-1.90007
-1.91258
-1.94135
-1.76357
-1.85218
-1.52012
-1.65119
-1.22162
-1.37562
-0.899405
-1.0613
-0.588284
-0.739997
-0.448324
-0.109467
-0.105213
-0.104434
-0.134959
-0.119916
-0.180513
-0.154791
-0.252079
-0.2128
-0.35305
-0.29879
-0.483958
-0.414907
-0.6415
-0.559773
-0.817042
-0.727993
-0.987531
-0.905165
-1.1133
-1.05858
-1.15813
-1.14739
-1.11024
-1.14545
-0.985811
-1.05558
-0.820297
-0.905711
-0.650475
-0.733992
-0.50118
-0.572342
-0.382269
-0.437805
-0.293509
-0.334361
-0.230361
-0.259077
-0.187465
-0.20668
-0.161252
-0.172398
-0.150507
-0.153977
-0.154573
-0.150765
-0.171156
-0.16156
-0.194529
-0.182523
-0.215567
-0.205937
-0.224636
-0.222009
-0.217332
-0.222975
-0.200759
-0.209168
-0.193274
-0.194641
-0.207143
-0.197781
-0.23679
-0.220276
-0.405131
-0.289444
-0.259241
-2.5516
-2.30878
-3.12325
-2.7907
-1.11936
-0.109575
-1.77662
-2.89666
-2.35115
-2.57896
-1.94867
-1.59187
-1.29666
-1.05834
-0.869031
-0.339301
-0.173735
-0.133203
-0.182009
-0.214857
-0.325903
-0.295614
-0.508787
-0.721755
-0.949834
-1.21946
-0.734526
-0.62578
-0.531328
-0.446961
-2.97836
-0.27212
-0.21941
-0.409387
-0.33262
-0.617592
-0.506484
-0.846307
-0.73291
-1.04886
-0.952684
-1.19255
-1.13076
-1.23817
-1.22933
-1.16465
-1.21651
-0.992236
-1.08721
-0.784147
-0.888483
-0.598455
-0.68598
-0.4614
-0.523622
-0.370402
-0.410771
-0.31632
-0.339237
-0.292408
-0.30091
-0.295187
-0.290565
-0.322618
-0.306026
-0.370967
-0.344471
-0.434232
-0.401302
-0.500351
-0.467999
-0.550662
-0.52872
-0.568002
-0.564125
-0.546923
-0.561967
-0.497083
-0.524515
-0.437459
-0.467194
-0.387435
-0.410231
-0.360822
-0.370623
-0.365345
-0.358924
-0.405472
-0.380815
-0.485036
-0.440197
-0.605792
-0.540257
-0.764763
-0.681678
-0.952063
-0.855955
-1.4011
-1.04135
-1.22189
-1.72954
-1.57341
-1.96444
-1.86205
-2.07243
-2.03539
-2.04004
-2.07378
-1.87544
-1.97271
-1.61017
-1.75276
-1.28931
-1.45387
-0.952103
-1.12074
-0.62751
-0.786644
-0.342651
-0.477727
-0.118537
-0.22314
-0.0232221
-0.0286094
-0.0245213
-0.0318754
-0.0254691
-0.0560909
-0.0423209
-0.097441
-0.0742161
-0.160824
-0.126232
-0.248275
-0.201518
-0.359134
-0.300993
-0.489231
-0.42215
-0.631155
-0.559439
-0.767871
-0.701838
-0.869075
-0.824949
-0.90601
-0.896783
-0.868608
-0.896318
-0.769408
-0.825194
-0.635836
-0.704973
-0.496856
-0.565489
-0.372433
-0.432058
-0.27111
-0.318737
-0.193295
-0.229436
-0.135587
-0.162197
-0.0938037
-0.11294
-0.0650967
-0.0779148
-0.0486436
-0.0553349
-0.0445633
-0.0450636
-0.0520194
-0.0469913
-0.0674279
-0.0591008
-0.0838402
-0.0760318
-0.0926684
-0.0896402
-0.0897641
-0.092555
-0.0822682
-0.0856879
-0.0845239
-0.0814364
-0.102387
-0.0916611
-0.133015
-0.116025
-0.155229
-2.28661
-2.07985
-0.369697
-0.252192
-2.84758
-2.56624
-1.59566
-2.6115
-2.15463
-0.784458
-0.861075
-0.131644
-0.0376408
-2.31108
-1.79066
-1.47951
-1.22718
-1.02576
-0.864107
-0.0981936
0.0441428
0.0726337
-0.0677919
-0.255102
-0.452684
-0.650211
-0.856677
-1.10559
-0.764054
-0.666386
-0.579442
-0.499259
-0.294249
-0.422252
-2.72963
-0.0363581
0.00756338
-0.139877
-0.08589
-0.263355
-0.196662
-0.433319
-0.343196
-0.620997
-0.527492
-0.794603
-0.711039
-0.920352
-0.866138
-0.964383
-0.953775
-0.911951
-0.950304
-0.775232
-0.851806
-0.603456
-0.689824
-0.449581
-0.522192
-0.33475
-0.387122
-0.25699
-0.291719
-0.209047
-0.229697
-0.185325
-0.194428
-0.182809
-0.181503
-0.199885
-0.189071
-0.23309
-0.214754
-0.277311
-0.254239
-0.323957
-0.301079
-0.35969
-0.344093
-0.372045
-0.369267
-0.356676
-0.367632
-0.320556
-0.340399
-0.278061
-0.299106
-0.24427
-0.259278
-0.230331
-0.234345
-0.242971
-0.233088
-0.286465
-0.2607
-0.364206
-0.32089
-0.477924
-0.416535
-0.621987
-0.547644
-0.702763
-1.50343
-1.11822
-1.31507
-1.84482
-1.68216
-2.08555
-1.98014
-2.19631
-2.15872
-2.1583
-2.19597
-1.98075
-2.08525
-1.69747
-1.84959
-1.35568
-1.53077
-1.00128
-1.17762
-0.665576
-0.82993
-0.367982
-0.50997
-0.242064
0.0476265
0.0464893
0.0488648
0.0367804
0.0437941
0.0144615
0.0272667
-0.0230874
-0.00218565
-0.0788799
-0.0485995
-0.154239
-0.114132
-0.247724
-0.198972
-0.354527
-0.299843
-0.468009
-0.410974
-0.575889
-0.523847
-0.655845
-0.620919
-0.685462
-0.677922
-0.65649
-0.678118
-0.578312
-0.622396
-0.471605
-0.527018
-0.358878
-0.414791
-0.256033
-0.30559
-0.170264
-0.21086
-0.102352
-0.134196
-0.0497696
-0.0743531
-0.0094397
-0.0282348
0.0205529
0.00678867
0.0405591
0.0318309
0.0499612
0.0466242
0.0486615
0.0505822
0.0389275
0.0445698
0.0263676
0.0325455
0.0185662
0.0214802
0.0186808
0.0178407
0.0194074
0.0197307
0.0105969
0.0164976
-0.00910573
0.00197763
-0.039172
-0.0226588
-0.083279
-0.0594737
-0.142838
-0.111752
-0.345136
-0.219132
-0.178469
-2.05206
-1.87349
-2.56837
-2.33774
-0.928387
0.0429312
-1.43995
-2.33987
-1.96975
-2.07328
-1.6524
-1.39054
-1.17986
-1.01201
-0.875301
0.10046
0.22003
0.247167
-0.106687
-0.143444
-0.265823
0.124306
-0.0408289
-0.219925
-0.403752
-0.59047
-0.786801
-1.01621
-0.80693
-0.720225
-0.640778
-0.563043
-0.486167
-0.403876
-2.47841
0.15605
0.190553
0.0765742
0.119351
-0.0213521
0.0286573
-0.13042
-0.0728881
-0.2691
-0.196108
-0.424846
-0.346398
-0.572871
-0.501712
-0.680008
-0.633387
-0.724462
-0.710938
-0.689426
-0.71788
-0.57689
-0.640503
-0.435935
-0.506379
-0.311426
-0.370167
-0.217517
-0.260589
-0.152263
-0.181662
-0.11033
-0.128683
-0.0875046
-0.0967428
-0.0812686
-0.0823934
-0.0903325
-0.0840134
-0.111866
-0.0997996
-0.141408
-0.125958
-0.172826
-0.157381
-0.196905
-0.186435
-0.20481
-0.203031
-0.193556
-0.201503
-0.167735
-0.181855
-0.138241
-0.152684
-0.116735
-0.125856
-0.11222
-0.111948
-0.130506
-0.118266
-0.175441
-0.149447
-0.249925
-0.208813
-0.355278
-0.29881
-0.485702
-0.418363
-0.624914
-0.555104
-0.752823
-0.691772
-1.18448
-0.802776
-0.987897
-1.58511
-1.38751
-1.93577
-1.77061
-2.18387
-2.07446
-2.29877
-2.26004
-2.25745
-2.29768
-2.07031
-2.18028
-1.77325
-1.93263
-1.41525
-1.59868
-1.04455
-1.22878
-0.698193
-0.866817
-0.394193
-0.540045
-0.146484
-0.262077
0.0367963
-0.0474509
0.11141
0.107126
0.110157
0.108452
0.110985
0.0974203
0.103913
0.0765233
0.0883933
0.0426283
0.0613192
-0.00622071
0.0201433
-0.070888
-0.0366163
-0.14955
-0.108745
-0.237051
-0.19259
-0.327144
-0.282192
-0.411082
-0.370697
-0.473112
-0.445994
-0.496223
-0.490284
-0.473779
-0.490591
-0.412414
-0.447048
-0.327779
-0.371899
-0.236925
-0.282202
-0.152323
-0.193324
-0.0799393
-0.114457
-0.0207608
-0.0487803
0.027006
0.00439053
0.0655967
0.0473458
0.096043
0.081827
0.118057
0.108158
0.13063
0.125586
0.133213
0.133137
0.127462
0.131143
0.118214
0.122886
0.111899
0.114386
0.109949
0.11068
0.10553
0.10857
0.0928945
0.100287
0.0726655
0.0836555
0.0442481
0.0596572
0.0057655
0.026303
-0.0435358
-0.0175811
-0.0736362
-1.85035
-1.69271
-0.318395
-0.18291
-2.30878
-2.12242
-1.31483
-2.09937
-1.80778
-0.588868
-0.628039
0.0296576
0.102515
-1.87228
-1.54114
-1.32764
-1.15518
-1.01684
-0.902443
0.271987
0.374474
0.397714
0.292096
0.145431
-0.0164891
-0.189613
-0.366053
-0.543915
-0.73272
-0.949837
-0.865701
-0.790244
-0.716928
-0.641882
-0.561404
-0.472831
-0.225389
-0.375824
-2.24183
0.319313
0.349578
0.248991
0.285194
0.174515
0.212996
0.0857668
0.131166
-0.0114865
0.0388446
-0.126856
-0.0666177
-0.257425
-0.191217
-0.381509
-0.322109
-0.473962
-0.432745
-0.517164
-0.503069
-0.489971
-0.513129
-0.399055
-0.450118
-0.287071
-0.342981
-0.187647
-0.234712
-0.111359
-0.146552
-0.0570206
-0.0816973
-0.020768
-0.0368603
0.000645048
-0.00837964
0.00933379
0.00650863
0.00630716
0.00920178
-0.00636118
0.000968285
-0.0249473
-0.0151837
-0.0448049
-0.0350573
-0.0597993
-0.0533495
-0.0641382
-0.0630144
-0.0555786
-0.0614612
-0.0372574
-0.0471827
-0.01735
-0.0269235
-0.00484982
-0.00967035
-0.00703044
-0.00375426
-0.0288544
-0.0152517
-0.0736849
-0.0482095
-0.143946
-0.105517
-0.240175
-0.188987
-0.356711
-0.296717
-0.478555
-0.418116
-0.53688
-1.23365
-0.834903
-1.03287
-1.6395
-1.4378
-1.99508
-1.82743
-2.25129
-2.13762
-2.37041
-2.33034
-2.32839
-2.36955
-2.13604
-2.24917
-1.83008
-1.99428
-1.46185
-1.65049
-1.07994
-1.2699
-0.723681
-0.896706
-0.415292
-0.563037
-0.161335
-0.280627
-0.05805
0.165779
0.165243
0.166319
0.160759
0.163677
0.149857
0.156159
0.130362
0.141317
0.100025
0.116631
0.0574963
0.0803425
0.00219944
0.0313996
-0.0639441
-0.0297865
-0.13574
-0.0995346
-0.207115
-0.17183
-0.271695
-0.240779
-0.318998
-0.298316
-0.336476
-0.332058
-0.318764
-0.331818
-0.270644
-0.297859
-0.203713
-0.238719
-0.130659
-0.167244
-0.0611098
-0.0950271
3.20508e-05
-0.0293599
0.0517487
0.0270253
0.0951358
0.0743757
0.131699
0.114207
0.161863
0.147609
0.184752
0.174302
0.198973
0.19302
0.203842
0.202548
0.200916
0.203128
0.194579
0.197871
0.189781
0.191828
0.186013
0.188086
0.178002
0.182816
0.163497
0.171485
0.143613
0.154222
0.117563
0.131458
0.0842997
0.101847
0.0436699
0.0649588
-0.00584038
0.0199874
-0.0647999
-0.0349052
-0.274672
-0.131576
-0.0967951
-1.68464
-1.54346
-2.08211
-1.9339
-0.65464
0.162271
-1.21766
-1.89987
-1.67567
-1.7124
-1.46048
-1.29068
-1.15217
-1.04018
-0.946338
0.41603
0.501165
0.517116
0.428043
0.308897
0.165251
0.00397333
-0.166077
-0.338493
-0.512032
-0.6952
-0.900984
-0.943427
-0.878498
-0.811281
-0.736906
-0.651098
-0.552537
-0.442272
-0.00909257
-0.165768
-0.0296481
-2.03234
0.459088
0.483072
0.400622
0.430985
0.329955
0.366225
0.258324
0.294616
0.178323
0.219308
0.0919002
0.136042
-0.00633305
0.044684
-0.11586
-0.0605639
-0.219023
-0.169426
-0.299504
-0.263
-0.338692
-0.325818
-0.316616
-0.335694
-0.242829
-0.284056
-0.153864
-0.198067
-0.0757829
-0.112726
-0.0153138
-0.0433604
0.0289175
0.00865017
0.0596541
0.0458141
0.0792187
0.0707009
0.0892978
0.0853828
0.0906345
0.0910097
0.0845978
0.0883827
0.0740618
0.0796807
0.0626071
0.0682059
0.0541157
0.0577742
0.0526161
0.052004
0.0597539
0.0552153
0.0727605
0.0658326
0.0857703
0.0797005
0.0918667
0.0900823
0.0851778
0.0904157
0.0614993
0.0756676
0.0179219
0.0423456
-0.0474471
-0.0119811
-0.134417
-0.0884126
-0.23806
-0.184709
-0.3447
-0.292475
-0.437418
-0.394529
-0.495735
-0.470801
-0.853783
-0.506724
-0.67114
-1.25664
-1.05238
-1.66082
-1.46128
-2.0186
-1.84873
-2.2815
-2.16469
-2.40436
-2.36267
-2.36423
-2.40472
-2.17172
-2.28518
-1.86231
-2.02884
-1.49044
-1.68099
-1.10402
-1.29635
-0.741821
-0.917878
-0.429719
-0.57875
-0.173946
-0.294731
0.0216988
-0.0684437
0.159235
0.0963926
0.212321
0.209719
0.211412
0.210552
0.211987
0.205156
0.208365
0.194534
0.20061
0.176542
0.186572
0.149616
0.164254
0.112797
0.132487
0.0656854
0.0904826
0.0100789
0.0386955
-0.0490928
-0.0194547
-0.105848
-0.0780957
-0.155182
-0.131771
-0.190536
-0.175127
-0.203189
-0.20016
-0.188873
-0.199199
-0.151051
-0.172483
-0.098036
-0.12584
-0.0391117
-0.0687588
0.018259
-0.00991664
0.0701643
0.0450089
0.115621
0.0936829
0.155161
0.136073
0.189548
0.172972
0.218746
0.204845
0.241559
0.231054
0.256373
0.250045
0.262528
0.260494
0.261699
0.262758
0.257926
0.260077
0.254131
0.256016
0.248715
0.25187
0.238446
0.244268
0.223455
0.231435
0.204616
0.214554
0.181193
0.193511
0.152869
0.167648
0.119449
0.136828
0.0808755
0.100774
0.0378583
0.0596848
0.0143548
-1.55373
-1.42749
-0.32444
-1.89595
-1.78059
-1.14431
-1.74514
-1.57686
-0.349541
-0.358087
0.154926
0.20694
-1.59169
-1.41003
-1.27818
-1.17062
-1.08328
-1.00932
0.528288
0.597739
0.606976
-0.190842
-0.0452026
0.537899
0.441718
0.321369
0.180504
0.0203755
-0.148543
-0.321022
-0.493033
-0.67273
-0.871305
-1.04329
-0.988678
-0.92657
-0.850464
-0.756815
-0.644773
-0.515137
-1.85897
0.568812
0.584457
0.523641
0.548618
0.464581
0.495217
0.397668
0.432021
0.328858
0.363231
0.257171
0.293623
0.180425
0.219557
0.0952968
0.139071
0.00403799
0.0498233
-0.0830878
-0.0407057
-0.153319
-0.121446
-0.185492
-0.175658
-0.164587
-0.181468
-0.105623
-0.137931
-0.0379142
-0.0713978
0.0216346
-0.00668642
0.0690149
0.0468466
0.1049
0.0882904
0.130913
0.11904
0.148583
0.140694
0.159267
0.154739
0.16359
0.162196
0.162354
0.163564
0.157664
0.160275
0.152158
0.15485
0.148428
0.149902
0.149184
0.147862
0.155219
0.151629
0.164469
0.159666
0.172598
0.169002
0.174279
0.174561
0.164767
0.171169
0.140505
0.154657
0.0990211
0.122036
0.0389573
0.0713461
-0.0390392
0.00205683
-0.130391
-0.0835125
-0.223638
-0.177796
-0.302066
-0.266441
-0.330409
-0.854966
-0.503546
-0.673822
-1.25078
-1.0486
-1.648
-1.45189
-2.00522
-1.8346
-2.27095
-2.15294
-2.39709
-2.35354
-2.36126
-2.39951
-2.17392
-2.28465
-1.86589
-2.03351
-1.49824
-1.68709
-1.11364
-1.30526
-0.751488
-0.927836
-0.437901
-0.587534
-0.183004
-0.303231
0.0138846
-0.0768347
0.0912565
0.250838
0.250395
0.251219
0.247892
0.249483
0.242328
0.245556
0.232173
0.237931
0.215742
0.224812
0.192027
0.204829
0.160328
0.177209
0.120356
0.141335
0.0736511
0.0976323
0.0246082
0.0490524
-0.0209674
0.00106585
-0.0586597
-0.0410137
-0.0844113
-0.0733494
-0.0930935
-0.0911601
-0.0811266
-0.0896734
-0.0511942
-0.0681321
-0.00874512
-0.0310542
0.0390994
0.0148904
0.0868167
0.0632272
0.131276
0.109554
0.171505
0.151921
0.207645
0.190066
0.239827
0.224242
0.267547
0.254307
0.289503
0.279348
0.304146
0.297808
0.311014
0.308498
0.311808
0.311972
0.310048
0.310884
0.306703
0.308668
0.299875
0.30386
0.288545
0.294719
0.273933
0.281573
0.256504
0.265604
0.235871
0.246593
0.212091
0.224358
0.185208
0.199057
0.155172
0.170549
0.123526
0.139373
0.0941617
0.108019
0.0751752
0.0831331
0.0535942
-0.053676
0.0666222
-1.45472
-1.33859
-0.366387
-1.75157
-1.66518
-0.355681
0.248532
-1.09378
-0.20444
-1.63144
-1.5111
-0.0538954
-1.50643
-1.38749
-1.28985
-1.2116
-1.14859
-1.09413
0.610107
0.543168
0.450938
0.332
0.191404
0.0320192
-0.138751
-0.312027
-0.48607
-0.666347
-0.858515
-1.16963
-1.12483
-1.0658
-0.984868
-0.87868
-0.745982
-0.585295
-1.72582
0.657027
0.607118
0.639779
0.650921
0.647465
0.655834
0.616669
0.634492
0.571607
0.596202
0.51498
0.544203
0.452968
0.484542
0.38927
0.421016
0.324524
0.357315
0.255461
0.290605
0.181492
0.219054
0.104156
0.14305
0.0287886
0.0655845
-0.0297425
-0.00387766
-0.0523868
-0.0463862
-0.033321
-0.0474994
0.0118504
-0.0125458
0.062348
0.0373856
0.10719
0.0857608
0.143672
0.126485
0.172119
0.158834
0.193601
0.183662
0.209166
0.202055
0.219831
0.215058
0.226096
0.223504
0.228296
0.227652
0.22774
0.228235
0.226426
0.227065
0.226085
0.226029
0.228356
0.226725
0.233565
0.230663
0.240129
0.236841
0.244826
0.242959
0.243547
0.245185
0.232444
0.23943
0.208514
0.222233
0.169704
0.191065
0.115094
0.144392
0.0456255
0.0820786
-0.0342663
0.00656127
-0.114997
-0.0752608
-0.182464
-0.151314
-0.221457
-0.206465
-0.228229
-0.228883
-0.491139
-0.219209