/*--------------------------------*- C++ -*----------------------------------*\
  =========                 |
  \\      /  F ield         | OpenFOAM: The Open Source CFD Toolbox
   \\    /   O peration     | Website:  https://openfoam.org
    \\  /    A nd           | Version:  10
     \\/     M anipulation  |
\*---------------------------------------------------------------------------*/
FoamFile
{
    format      ascii;
    class       volVectorField;
    location    "0.5";
    object      U;
}
// * * * * * * * * * * * * * * * * * * * * * * * * * * * * * * * * * * * * * //

dimensions      [0 1 -1 0 0 0 0];

internalField   nonuniform List<vector> 
8711
(
(1.01591 0.0065244 0)
(1.02497 0.00737526 5.71396e-22)
(1.01143 0.0164662 6.53786e-21)
(1.03999 -0.011545 -2.38754e-20)
(1.04832 -0.0167086 -5.1604e-21)
(1.03757 -0.042047 -3.71593e-20)
(1.04514 -0.0148101 9.06134e-22)
(1.04934 -0.0083098 1.46431e-20)
(0.607785 -0.0547731 -1.35915e-21)
(0.604939 0.0479112 1.07334e-20)
(0.852207 -0.525609 0)
(0.462999 -0.739465 -3.51247e-20)
(1.01299 -0.00535746 -2.95423e-21)
(1.00222 0.00904125 2.33934e-23)
(1.00429 -0.00160067 1.10733e-20)
(1.00813 -0.00787253 0)
(1.04142 0.0298269 1.86597e-20)
(1.02052 0.0435181 -1.86633e-20)
(1.02089 0.0333134 -1.06548e-20)
(0.999207 0.00145202 2.88331e-21)
(1.0011 -0.00716021 -4.22324e-21)
(0.991702 0.00256718 -2.51254e-21)
(1.00831 0.00132229 0)
(1.01212 0.00746556 -3.06068e-21)
(1.3561 0.117137 2.15371e-20)
(1.37641 -0.00877122 -1.11199e-20)
(1.5679 -0.000116672 1.49833e-20)
(1.42165 0.182121 -2.09737e-20)
(1.00351 -0.00664319 -1.8112e-21)
(1.00045 0.000763351 2.42198e-21)
(1.00925 -0.00428359 -4.89668e-23)
(1.44274 -0.374626 9.13598e-20)
(1.21063 -0.194611 1.75043e-20)
(1.48913 -0.0642863 -1.17804e-21)
(1.46514 -0.133866 -1.84714e-20)
(1.04148 0.0896073 -8.31061e-20)
(1.05894 0.0599413 2.49488e-20)
(1.01099 -0.079001 0)
(1.00822 -0.0563122 -1.15344e-19)
(1.00555 -0.0894412 1.62287e-19)
(0.967811 -0.053933 0)
(0.985089 -0.0286593 0)
(0.324705 0.122657 -4.4396e-21)
(0.358659 0.224444 -1.0965e-20)
(0.523848 0.687186 5.03457e-20)
(0.856062 0.721617 2.84696e-20)
(0.53654 -0.435705 -5.90709e-20)
(0.732075 -0.501496 2.46134e-20)
(0.476834 -0.429113 -1.65029e-20)
(1.00806 0.00244375 7.37843e-21)
(1.0053 0.00124707 1.6334e-20)
(1.00116 0.00382387 4.97063e-21)
(1.02202 0.00349956 0)
(1.05862 0.00376217 0)
(1.06147 -0.00404754 8.40637e-21)
(1.05999 -0.00483593 -9.47404e-21)
(1.01311 0.000612756 4.62963e-21)
(1.01227 0.00734774 -9.28673e-21)
(1.00624 -0.000701816 0)
(1.00823 0.00857207 1.02771e-20)
(1.01107 -0.0156416 -6.27076e-21)
(1.01436 -0.00585168 -3.08577e-21)
(1.0104 0.00356583 7.43747e-21)
(1.01356 0.000439502 3.13582e-21)
(1.03872 -0.0189157 -2.31821e-20)
(1.05004 -0.00106007 0)
(1.04397 -0.00309398 1.40611e-20)
(1.01783 0.0244171 0)
(1.01295 -0.007061 5.06304e-21)
(1.01385 -0.00517083 -2.91211e-22)
(1.0172 0.00827533 1.17852e-20)
(1.0283 -0.00461879 -5.80147e-21)
(1.00143 -0.00908018 2.1975e-21)
(1.00903 0.000919076 0)
(1.04304 0.0107613 -2.07572e-20)
(1.04782 -0.000476153 0)
(1.04265 0.0129473 1.97839e-20)
(1.04123 0.00961871 -1.51679e-20)
(1.00649 -0.00471916 -4.8179e-21)
(1.0135 -0.00451666 -2.29653e-22)
(1.01923 -0.0077793 3.96944e-21)
(1.00684 -0.00154433 1.06651e-21)
(1.00982 0.00433604 0)
(1.01406 -0.00574517 -1.69162e-21)
(1.02102 -0.00150079 -5.47456e-21)
(1.0104 -0.00513621 7.8515e-21)
(1.00711 0.00644005 7.04248e-21)
(1.00724 0.00883494 -2.38441e-20)
(1.01624 0.00258452 2.70368e-21)
(1.00892 -0.00190848 2.19198e-23)
(1.04154 -0.000103899 -1.09688e-20)
(1.05181 -0.00392133 7.3718e-21)
(1.05672 0.00449676 4.85831e-21)
(1.10852 0.0129846 -2.93313e-20)
(1.09737 0.0104581 2.88761e-20)
(1.08408 0.0471764 4.22317e-20)
(1.06958 0.0502354 -2.34926e-22)
(1.06081 0.0452372 -1.54232e-20)
(1.08168 0.0330883 -6.24165e-21)
(1.08941 0.0413315 7.85205e-23)
(1.07408 0.0333746 0)
(0.98354 -0.170342 -7.98214e-21)
(0.998404 -0.198749 2.06033e-20)
(1.0072 0.00729431 2.70892e-21)
(1.00742 -0.000380814 1.30211e-21)
(1.00931 -0.00568552 1.26203e-22)
(1.01052 -0.00540102 0)
(1.01032 -0.00257442 1.81903e-21)
(1.01037 -0.00112233 -1.92288e-21)
(1.0101 0.000304276 -1.17692e-22)
(1.00942 0.00123596 -1.14816e-22)
(1.00992 0.000590994 8.15341e-22)
(1.01138 0.000571308 -1.10949e-21)
(1.01053 3.84559e-05 -4.17025e-22)
(1.00951 -0.00131213 -8.03964e-22)
(1.0103 -0.000889815 1.01887e-21)
(1.01214 0.00105467 3.94487e-22)
(1.01208 0.0016592 7.4128e-22)
(1.00675 -0.0023828 -1.51387e-21)
(1.01318 0.000335167 1.44565e-21)
(1.01611 0.00159523 -2.56422e-21)
(1.00998 -0.000185782 2.02289e-22)
(1.01219 -0.00203748 7.78268e-22)
(1.01153 -0.000713792 -5.27727e-23)
(1.01186 0.000135044 4.0615e-22)
(1.0099 -0.00172524 4.46609e-22)
(1.01072 -0.000707262 2.15422e-22)
(1.00857 -0.000418728 0)
(1.00956 -0.00174214 1.14006e-22)
(1.00926 0.000227717 2.38962e-22)
(1.00855 -0.000176293 0)
(1.01545 0.00334951 -6.38835e-23)
(1.01137 0.00296604 0)
(1.01679 -0.00981738 -1.06804e-21)
(1.01931 -0.000148088 -1.27806e-22)
(1.00861 -0.0108703 -4.70255e-21)
(1.00118 0.00423188 2.05597e-21)
(1.00611 0.003999 5.33402e-22)
(1.01024 0.00260412 1.82803e-21)
(1.00533 0.00345577 -1.00494e-21)
(1.0103 -0.000105124 -1.91702e-21)
(1.01103 0.000750619 -1.83238e-21)
(1.01226 -0.000833802 -1.84744e-21)
(1.01157 -0.000902073 2.97167e-21)
(1.00965 -0.00162863 2.12094e-21)
(1.01035 0.000586515 -1.67923e-22)
(1.01032 0.00166746 -5.27353e-23)
(1.01076 -0.00100538 -1.66003e-21)
(1.01008 -0.00150634 6.92777e-22)
(1.00913 0.00173055 -1.19008e-21)
(1.01295 -0.0027642 0)
(1.01155 -0.00140056 0)
(1.01364 -0.00305482 -6.61177e-22)
(1.00681 -0.00533542 8.89922e-21)
(1.01523 0.00481627 2.65322e-21)
(0.991867 0.00795105 -2.81046e-21)
(1.01227 0.00176871 -1.9231e-21)
(1.00979 0.00303827 -4.59952e-21)
(1.00695 -0.00725391 -8.42356e-21)
(1.003 0.00404902 1.47851e-21)
(1.02421 -0.00112192 1.30034e-21)
(1.00897 0.00116011 -7.80281e-22)
(1.0142 0.00087043 -4.80779e-22)
(1.0091 0.000354179 8.68119e-22)
(1.0101 -0.000184052 -7.33693e-22)
(1.01099 5.89274e-05 -4.42245e-22)
(1.01023 -0.000722887 0)
(1.01081 -0.000646164 -2.74648e-21)
(1.01081 0.00127951 1.83747e-21)
(1.01047 0.000783276 1.62698e-21)
(1.01091 -0.000368873 9.31699e-22)
(1.00785 0.00180568 3.13333e-22)
(1.01018 -0.000701657 -1.95173e-21)
(1.00715 -0.00203161 2.11939e-21)
(1.00449 0.00162625 -3.69835e-22)
(1.01904 -0.00245225 0)
(1.01544 -0.00230334 -2.15527e-21)
(1.0127 -0.00897734 -7.98782e-21)
(1.00842 0.00162377 2.52633e-21)
(1.01302 -0.00256872 1.05349e-21)
(1.00705 -0.0049495 -6.57545e-21)
(1.00873 0.000710989 1.00189e-21)
(1.01317 0.00133084 5.15012e-22)
(1.00786 -0.000790842 2.41913e-22)
(1.00818 0.00102046 5.3943e-23)
(1.00932 0.000975656 -9.77599e-22)
(1.00752 -0.00147218 9.564e-22)
(1.01027 -0.000890362 2.59777e-21)
(1.01005 0.00127942 0)
(1.0097 0.0015935 -3.95035e-22)
(1.01085 -0.000662787 -1.62943e-21)
(1.0128 -0.00287215 -8.3967e-22)
(1.01015 -0.000843806 8.32519e-22)
(1.00995 0.00325115 -1.59714e-21)
(1.01289 0.000701717 1.62498e-21)
(1.00897 0.00187865 -8.6392e-23)
(1.00828 0.00308736 -4.64066e-23)
(1.01193 -0.00106774 -2.54543e-21)
(1.01068 -0.000522669 -1.27867e-21)
(1.00929 -0.00256474 -1.3967e-20)
(1.01163 -0.00227405 1.25399e-21)
(1.01514 -0.00101761 0)
(1.01218 -0.00209205 0)
(1.01508 0.00239557 9.48867e-21)
(1.01204 0.00315767 -2.39446e-21)
(1.01569 -0.00840283 -8.75066e-21)
(1.01701 -0.00747973 8.1465e-21)
(0.997122 -6.30683e-05 4.8749e-20)
(1.01182 0.00481005 -2.12467e-20)
(1.01199 0.000985802 7.60755e-21)
(1.00158 -0.00285908 -5.10725e-21)
(1.00642 -0.000917923 -4.97651e-21)
(1.0031 -0.0137468 -3.90092e-22)
(1.02053 0.00585512 3.05904e-21)
(1.00556 -0.00545146 0)
(1.01911 0.00631492 3.69627e-22)
(1.00893 -0.00193851 1.46398e-21)
(1.01196 -0.000529668 -1.75878e-21)
(1.00953 -0.000460867 1.53636e-21)
(1.01024 -0.000920554 -1.85232e-21)
(1.01102 -0.000612309 5.05519e-21)
(1.01023 7.0201e-06 -3.62662e-21)
(1.01112 -0.000296972 -7.59494e-22)
(1.01119 -0.00226174 -9.08014e-22)
(1.01007 -0.00145937 0)
(1.01029 -2.18432e-05 -1.19838e-22)
(1.00923 -6.20362e-05 -3.91586e-21)
(1.01084 0.000753285 2.08467e-21)
(1.00735 -0.000297685 1.55573e-23)
(1.00649 -0.00159825 2.08083e-21)
(1.00959 0.00526863 2.36891e-21)
(1.01103 0.00135572 9.28376e-22)
(1.00633 0.000971982 -2.17092e-21)
(1.01057 0.00184684 -1.35967e-21)
(1.01074 0.000446087 0)
(1.00853 0.00299911 4.81022e-21)
(1.00805 0.000728993 -3.33991e-23)
(1.00816 0.00462533 7.62363e-21)
(1.00769 4.38431e-05 -2.51788e-21)
(1.00841 -0.00258925 -2.07162e-21)
(1.00761 0.00270349 6.86925e-21)
(1.00874 0.00251906 1.96947e-21)
(1.00906 -0.000688904 -2.62391e-21)
(1.00826 0.0010563 -1.14805e-22)
(1.00791 0.000663308 -6.2432e-23)
(1.01137 0.000626563 0)
(1.01069 0.00304791 0)
(1.00799 0.000344382 0)
(1.00885 -0.000526063 0)
(1.0118 -0.00118457 0)
(1.01044 -0.00137067 0)
(1.0113 0.00226764 -3.11526e-21)
(1.01105 0.00178751 3.42929e-21)
(1.01279 -0.00415667 -1.11083e-23)
(1.01289 -0.00144939 0)
(1.01007 -0.00117915 8.93863e-23)
(1.01113 -0.00223243 4.87547e-23)
(1.01015 0.000863514 2.68875e-21)
(1.01103 -0.00782624 0)
(1.0163 -0.0016823 1.23959e-21)
(1.01317 -0.00329662 0)
(1.01067 0.00111663 0)
(0.998382 0.00315562 1.24198e-20)
(1.00929 -0.00442815 0)
(0.996474 -0.00367992 -2.25584e-20)
(1.00446 -0.00382599 -5.11982e-21)
(1.007 -0.00760069 2.37422e-20)
(1.01098 0.000641773 -1.09308e-20)
(1.01147 -0.000597921 -2.51549e-21)
(1.0099 0.00559949 1.4045e-21)
(1.00793 0.00612829 0)
(1.01282 -0.00111004 1.29696e-21)
(1.01126 0.00535687 0)
(1.01684 -0.00212482 -1.14172e-21)
(1.00677 0.00130161 -6.70175e-22)
(1.0076 -0.00216249 1.30659e-21)
(1.02003 0.00346883 -4.39948e-21)
(1.00688 -0.0106633 1.40819e-21)
(0.983243 0.00120559 1.19271e-20)
(1.00246 0.0021802 -1.13704e-20)
(1.01814 -0.0063405 0)
(1.00702 0.00235001 3.43448e-22)
(1.01206 0.00412097 -7.30848e-22)
(1.00848 -7.74008e-05 0)
(1.01467 0.000968444 3.66662e-22)
(1.01088 0.000208643 0)
(1.01261 0.00161921 0)
(1.01173 0.000351423 2.98924e-24)
(1.01214 0.000294714 0)
(1.01016 0.000999774 -6.27339e-24)
(1.01078 0.000286584 0)
(1.01049 -0.000724184 -6.69587e-24)
(1.01069 0.000835357 0)
(1.01107 7.90115e-05 0)
(1.01053 -0.00122726 0)
(1.01008 -0.00106226 3.09195e-27)
(1.01045 -0.00063589 0)
(1.00958 -0.00187576 0)
(1.01018 -0.00105542 0)
(0.999823 0.00216508 0)
(1.00714 8.97379e-05 0)
(1.00098 0.00364795 5.67322e-22)
(0.993939 0.00165669 4.3656e-21)
(1.0052 -0.00452023 -4.46512e-21)
(1.00893 0.00475219 -3.98512e-21)
(1.01399 -0.0147647 5.1212e-21)
(1.01142 0.00243347 -3.62647e-23)
(1.01155 0.000451528 3.69786e-23)
(1.00801 0.000790878 -3.81272e-24)
(1.00933 -0.000812111 0)
(1.01 -9.62876e-05 0)
(1.0096 0.0016319 0)
(1.00923 0.00232373 0)
(1.00869 0.00163196 0)
(1.00842 -0.00077513 0)
(1.00952 0.000800846 0)
(1.0104 0.00105997 3.16801e-24)
(1.00919 8.49351e-05 0)
(1.01078 0.0016912 0)
(1.01013 0.00175518 0)
(1.00983 -0.000518364 0)
(1.01156 0.000253609 0)
(1.01041 0.00145774 0)
(1.00815 0.00047781 0)
(1.01176 0.000605718 1.62166e-22)
(1.01262 0.00164325 0)
(1.01176 -0.00187274 3.24275e-22)
(1.01138 -0.000582126 3.3797e-22)
(1.01152 0.000302289 2.55449e-21)
(1.0117 -0.000420773 -2.57147e-21)
(1.01388 0.00167896 1.05569e-21)
(1.01511 -0.00663337 -7.52168e-22)
(1.01171 -0.00155599 4.2292e-24)
(1.00699 0.00453196 -6.60887e-22)
(1.01352 -0.00199418 0)
(1.01392 0.00105866 -3.19891e-22)
(1.0112 -0.000534551 -2.49824e-21)
(1.01235 -0.000505468 2.21079e-21)
(1.01517 0.00151805 -7.83549e-23)
(1.01237 0.00442887 2.73015e-21)
(1.01885 -0.000175421 -2.86652e-21)
(1.01456 0.000851948 0)
(1.01054 0.0024078 0)
(1.00485 0.000803371 -1.3126e-21)
(1.0082 -0.00436016 -2.52432e-21)
(1.00502 0.00311202 9.9045e-21)
(1.01021 -0.00763953 -2.19891e-20)
(1.00484 0.00200747 2.01952e-21)
(1.00532 -0.00212552 2.70112e-21)
(1.00111 0.0119527 -1.43929e-21)
(1.0168 -0.000302695 -6.01426e-21)
(1.01102 0.00151036 5.05988e-24)
(1.01873 0.00552531 -3.54237e-21)
(1.00975 -0.00146143 0)
(1.0132 -0.00390371 0)
(1.01056 -0.00200801 8.7319e-23)
(1.0121 0.000512548 2.75589e-22)
(1.0106 -0.00115996 0)
(1.0113 -0.000787424 0)
(1.01077 -0.000931485 -2.99002e-24)
(1.01089 -0.000893177 0)
(1.01037 -0.00145683 1.25471e-23)
(1.011 -0.000975268 0)
(1.00962 -0.000466097 6.57045e-24)
(1.00937 -0.00119849 0)
(1.01005 -0.000432911 0)
(1.01033 -0.000396799 0)
(1.00974 -0.000595478 1.43197e-23)
(1.00974 -0.000218449 0)
(1.01037 -0.0037686 0)
(1.01007 -0.00180251 0)
(1.00626 -0.00455276 0)
(1.00858 -0.00507623 0)
(1.00396 -0.00493634 -7.11451e-23)
(1.0059 -0.00444723 -5.70466e-22)
(1.00362 0.0020042 2.95161e-21)
(1.00024 -0.000873895 5.59947e-22)
(1.01001 -0.00307534 -3.35363e-21)
(0.998051 -0.00111534 1.95392e-21)
(1.0114 0.00231064 -1.99302e-20)
(0.991965 0.00341054 0)
(0.990725 0.000101114 -3.96871e-21)
(1.00651 0.000982407 1.1863e-21)
(1.00359 0.000849644 1.81618e-21)
(1.00972 0.00186818 0)
(1.00973 0.00057325 0)
(1.00831 -0.0012079 -3.88123e-24)
(1.00719 0.00104874 0)
(1.01029 0.000857843 3.60125e-24)
(1.01008 -0.00119537 0)
(1.0103 0.00069244 0)
(1.01085 0.00130461 0)
(1.00955 0.00176341 0)
(1.00909 0.0011389 0)
(1.01142 0.000129993 -3.16735e-24)
(1.011 0.000746722 0)
(1.01032 -0.00041192 0)
(1.01084 -2.52529e-05 0)
(1.01068 -0.000147404 0)
(1.01001 0.00028138 0)
(1.01091 -0.000977442 0)
(1.01158 0.000417386 0)
(1.01114 -0.000526258 -8.64978e-23)
(1.01089 -0.00222465 3.89304e-25)
(1.01033 0.00148183 -6.70349e-22)
(1.0107 0.000943932 -4.29411e-23)
(1.0121 0.000939163 2.57076e-21)
(1.01322 -0.000943985 -2.9049e-21)
(1.00893 -0.00380179 5.10426e-22)
(1.01834 -0.000215636 1.17704e-21)
(1.01092 -0.000395783 6.51767e-22)
(1.00122 0.00246263 -1.37242e-21)
(1.01283 -0.000124819 6.31883e-22)
(1.01317 0.000864065 3.17582e-22)
(1.01219 0.00128814 0)
(1.01261 -0.000386744 -9.2806e-22)
(1.00778 0.00238513 0)
(1.00348 0.000208792 0)
(1.01093 -0.0138128 -6.51203e-21)
(1.00953 -0.00111105 -7.0227e-21)
(0.998118 0.00611341 0)
(1.00234 0.00376681 1.05202e-20)
(1.00491 0.00262307 -2.63771e-21)
(1.00432 5.99949e-05 0)
(1.00323 -0.000440177 1.38978e-21)
(1.00606 0.0027166 -1.35945e-21)
(1.00967 0.0130859 -4.55827e-21)
(1.00761 -0.00868446 -2.88034e-21)
(1.01136 -0.0144168 1.34948e-21)
(1.00077 0.00228309 2.74997e-20)
(1.00278 -0.0055446 0)
(1.00632 -0.00424374 8.47235e-21)
(1.01406 0.00942556 -2.63414e-21)
(0.993712 -0.011845 1.87294e-21)
(1.02778 0.00854404 -6.36208e-21)
(1.00552 -0.000934348 -5.2752e-22)
(1.02267 0.00685011 7.71011e-22)
(1.00981 0.000201899 -9.1275e-23)
(1.01315 0.000863314 -9.21486e-23)
(1.0108 0.000351791 0)
(1.01189 0.000354025 0)
(1.01089 -1.36037e-05 2.99003e-24)
(1.01116 4.86403e-05 0)
(1.01084 3.91164e-07 -1.25465e-23)
(1.01069 -0.000177522 0)
(1.0106 -0.000527683 6.56816e-24)
(1.01091 -0.000167946 0)
(1.00992 -0.00053047 0)
(1.01021 -0.000470955 0)
(1.00873 -0.00100924 -1.43152e-23)
(1.00942 -0.000770746 0)
(1.00834 -0.00254256 0)
(1.00819 -0.00188223 0)
(1.00918 -0.00212958 0)
(1.009 -0.00254446 0)
(1.00926 0.00188208 6.63982e-23)
(1.00919 -0.000268051 4.52487e-24)
(1.00619 0.000738002 2.24272e-21)
(1.00737 0.00209191 -2.38761e-21)
(1.00114 -0.00133625 0)
(1.0053 -0.00138438 6.1124e-22)
(1.00698 -0.00446405 0)
(1.00663 -0.00628438 0)
(1.00367 0.00870078 2.5442e-21)
(1.00799 0.00794775 -1.50367e-20)
(1.00627 0.00740559 1.25597e-21)
(1.00471 0.00813977 -2.5133e-21)
(1.00792 0.00429995 -5.85426e-21)
(1.00748 0.00484927 6.23708e-23)
(1.00885 -0.00191007 -3.19768e-21)
(1.00799 0.00179136 1.15355e-21)
(1.00956 0.00194191 3.81369e-24)
(1.00947 8.63633e-05 4.47048e-21)
(1.01073 0.00178644 -3.60128e-24)
(1.01016 0.00260027 0)
(1.01026 0.00121815 4.26947e-28)
(1.01049 0.00112916 -5.08288e-28)
(1.01053 0.000851132 0)
(1.01053 0.00100841 0)
(1.01007 0.00105301 0)
(1.01011 0.000909001 0)
(1.01068 0.00109604 0)
(1.01036 0.00106379 0)
(1.01087 0.00107148 0)
(1.01083 0.000402221 0)
(1.01071 0.00127745 0)
(1.01085 -0.000223799 0)
(1.01191 -0.00109744 -4.49248e-23)
(1.01129 0.00248415 -1.57444e-21)
(1.01123 -0.00190255 0)
(1.01282 0.000589304 1.51271e-21)
(1.00977 -0.00651161 -1.23668e-21)
(1.00954 0.00372018 0)
(1.01429 -0.00742946 3.64465e-21)
(1.00347 0.00576598 -4.44769e-21)
(0.999181 -0.00396183 -9.89324e-21)
(1.01134 0.0113672 3.10437e-21)
(1.00282 -0.000162626 0)
(1.02045 0.002808 -2.71909e-21)
(1.01161 -0.00295637 -3.26618e-22)
(1.01625 0.00620878 -7.53561e-22)
(1.01055 0.000905911 0)
(1.00613 0.000999503 3.24591e-22)
(1.01231 0.000241247 -1.2486e-21)
(1.01193 0.000318182 6.39314e-22)
(1.01347 0.00141704 0)
(1.01299 -0.00146079 6.16745e-22)
(1.01364 -0.0018115 0)
(1.00565 0.00178025 0)
(1.00381 -0.000850658 -6.65617e-22)
(1.00487 0.000163656 1.30594e-21)
(1.00669 -0.0029658 4.08704e-21)
(1.01608 -0.00693805 0)
(1.00288 0.00659901 1.33186e-20)
(1.00709 -0.00526215 -1.31271e-21)
(1.00782 -0.00249624 0)
(1.01077 -0.00202301 4.28597e-21)
(1.00019 -0.000299973 -1.32626e-21)
(1.004 0.0179904 -1.56759e-21)
(1.01207 -0.00731892 8.10912e-21)
(1.00311 -0.00256124 1.02312e-20)
(1.00688 -0.00925271 -4.78561e-21)
(1.01087 -0.0232812 4.88956e-21)
(1.00861 -0.00478096 0)
(1.00321 0.00352896 -3.6702e-22)
(1.00476 -0.00738206 3.55045e-21)
(1.01064 0.000172828 3.97923e-21)
(1.01356 -0.00411411 0)
(1.00889 0.00235582 7.34006e-22)
(1.01196 -0.00510467 6.64862e-22)
(1.00873 -0.00182117 -5.16768e-27)
(1.0153 -0.0013988 -3.91303e-22)
(1.01064 -0.000583683 8.7439e-23)
(1.01263 -0.000541894 -9.55754e-23)
(1.01086 -0.00157437 0)
(1.01124 -0.000501572 0)
(1.01074 -0.00113851 -2.98974e-24)
(1.01086 -0.000495005 0)
(1.01053 -0.00119368 1.25477e-23)
(1.01072 -0.00101781 0)
(1.01031 -0.000906846 -6.56816e-24)
(1.01037 -0.00106183 0)
(1.00992 -0.00106935 -6.86235e-24)
(1.01015 -0.000958437 0)
(1.00948 -0.00147541 3.00719e-28)
(1.0097 -0.00118624 0)
(1.00976 -0.0028293 0)
(1.00945 -0.00205481 0)
(1.01116 -0.00418783 0)
(1.01045 -0.00354032 0)
(1.00969 -0.00433836 0)
(1.01109 -0.00488384 0)
(1.00541 -0.00387454 -3.93229e-27)
(1.007 -0.00275421 0)
(1.00479 -0.00451175 3.10828e-22)
(1.00573 -0.00418104 -1.21606e-21)
(1.00202 -0.00319734 2.49149e-21)
(1.00446 -0.00568437 -3.06336e-22)
(1.00924 -0.00751597 -2.40132e-21)
(0.999491 -0.00579416 0)
(1.00876 -0.00905812 0)
(1.00396 -0.00577635 5.97483e-20)
(1.01579 -0.0054963 -1.80518e-20)
(1.00939 -0.000540686 -9.28787e-21)
(1.00658 0.00762726 4.66333e-21)
(1.00963 0.00763998 1.14914e-20)
(1.00624 0.00328287 -1.12058e-21)
(1.00731 -0.000708852 3.43436e-21)
(1.00688 0.00322551 0)
(1.0066 0.00453633 2.16369e-22)
(1.00513 0.00348364 -3.93988e-24)
(1.00518 0.0033769 0)
(1.01026 0.000156856 0)
(1.00838 0.00174954 0)
(1.00977 0.000536972 0)
(1.00991 -0.00014131 0)
(1.01028 0.000932663 0)
(1.01009 0.00100951 0)
(1.01045 0.00105508 0)
(1.01035 0.00088092 0)
(1.0107 0.000533071 0)
(1.01057 0.000927362 0)
(1.01072 0.000187373 0)
(1.0108 0.000333727 0)
(1.01093 3.0419e-05 5.76613e-24)
(1.01083 0.000286982 0)
(1.01131 -8.36222e-05 0)
(1.01099 0.000301386 0)
(1.00899 0.000581871 0)
(1.01132 -0.000790567 0)
(1.00637 -0.00108566 -4.97015e-24)
(1.01279 0.000633916 0)
(0.996482 0.00687753 1.31869e-21)
(1.02028 0.000539202 0)
(1.02075 0.00212674 -1.92521e-21)
(1.01008 0.00862526 -2.32509e-23)
(1.02212 -0.00115498 5.57085e-21)
(1.01137 -0.00142874 -3.06905e-22)
(1.01033 0.00211067 -6.47168e-22)
(1.01041 0.00208428 9.09593e-27)
(1.00969 0.00102978 3.09182e-22)
(1.01143 -2.60999e-05 5.67418e-28)
(1.0114 -5.51084e-05 0)
(1.01182 -0.00247165 -3.05947e-24)
(1.01328 -0.00201456 3.04718e-22)
(1.01895 -0.00241991 -2.3332e-21)
(1.00373 0.000415548 0)
(1.01324 0.00243401 0)
(1.01025 -0.00429574 1.06854e-21)
(1.01734 -0.00457586 -3.98408e-21)
(1.00645 -0.00322912 -9.39229e-23)
(1.00651 -0.00267265 0)
(1.01093 -0.00167131 1.40246e-21)
(1.00028 -0.00180561 1.31116e-21)
(1.00226 0.0106428 0)
(1.0036 -0.00453064 -6.42063e-21)
(0.991872 0.00871848 3.76621e-21)
(1.00553 0.00214875 1.25795e-21)
(1.00522 0.00844887 4.83102e-21)
(1.00411 0.000677291 3.79567e-21)
(0.994627 0.00985524 0)
(1.00386 -0.00423994 -5.40584e-21)
(0.999639 -0.00697735 6.41604e-21)
(1.00949 -0.00914505 0)
(1.01119 -0.0149079 -1.73997e-21)
(0.999165 -0.00202624 -2.61623e-20)
(1.01116 -0.000587162 -2.63232e-21)
(1.00958 0.0025962 0)
(1.01201 -0.00047692 3.46634e-22)
(1.01249 0.000472195 0)
(1.01104 -0.000509428 1.02865e-26)
(1.01101 0.000794721 -3.53177e-22)
(1.01111 -0.000466807 0)
(1.01204 0.000518829 -3.71533e-28)
(1.01127 1.81035e-06 0)
(1.011 -0.000167405 0)
(1.01093 -0.000315504 2.9901e-24)
(1.01108 -0.00040394 -4.22673e-28)
(1.01083 -0.000525468 -8.0453e-28)
(1.01091 -0.000474399 0)
(1.01057 -0.000828224 -6.56805e-24)
(1.01076 -0.000687361 -4.64559e-28)
(1.01013 -0.00110782 6.86235e-24)
(1.01035 -0.000938855 0)
(1.0096 -0.00150209 7.15474e-24)
(1.00987 -0.0012967 5.0622e-28)
(1.00929 -0.00194243 7.44549e-24)
(1.00938 -0.00175017 5.2668e-28)
(1.00943 -0.002234 0)
(1.00927 -0.00211062 0)
(1.01042 -0.00215681 0)
(1.01001 -0.00230877 0)
(1.00858 -0.00127112 9.70833e-29)
(1.00992 -0.00153989 0)
(1.00571 -0.0035135 -2.34972e-21)
(1.00667 -0.000938379 2.50308e-21)
(1.00415 -0.00203654 -3.33203e-21)
(1.006 -0.00747797 6.20375e-22)
(1.00781 -0.00275506 7.20016e-21)
(1.00229 0.00116305 2.99361e-22)
(1.01297 -0.00428043 -4.85108e-21)
(1.00628 0.00448617 1.18353e-21)
(1.00378 0.00912316 -7.28903e-21)
(1.00481 0.00827654 3.63109e-21)
(1.00433 0.00577698 -4.63625e-21)
(1.00516 0.00286936 2.31487e-21)
(1.0058 0.00194846 0)
(1.00799 0.00597909 -1.44452e-22)
(1.00755 0.00684206 -5.8357e-22)
(1.00635 0.00138711 2.12215e-21)
(1.00613 0.00445357 -2.9291e-22)
(1.00962 0.0015783 3.88379e-24)
(1.00864 0.00067984 -2.38133e-21)
(1.00906 0.00301187 0)
(1.009 0.00243365 0)
(1.01033 0.00186905 0)
(1.00986 0.00258389 0)
(1.01037 0.00131793 0)
(1.01037 0.0014721 0)
(1.01054 0.00113432 0)
(1.01047 0.00121208 0)
(1.0105 0.00102214 3.17299e-24)
(1.0105 0.00106553 0)
(1.01078 0.000947971 0)
(1.01063 0.000984877 0)
(1.01095 0.0007396 -1.1535e-23)
(1.01092 0.000790039 0)
(1.01106 0.000617126 0)
(1.01117 0.000693877 0)
(1.01175 9.75169e-05 0)
(1.0112 0.000857711 0)
(1.00836 -8.6121e-05 4.89952e-24)
(1.01242 0.000258792 0)
(1.01039 -0.00925569 5.9655e-22)
(1.01497 0.000437177 -1.36358e-21)
(1.01256 0.0110222 2.99384e-23)
(1.00667 0.0047803 1.37254e-21)
(1.01011 -0.000687022 2.74418e-21)
(1.00917 -0.00341487 -3.39395e-21)
(1.01311 0.00128912 -1.29375e-21)
(1.0207 -0.00276863 -2.58321e-21)
(1.0099 -0.000394542 0)
(1.00852 -0.00280977 0)
(1.01001 0.00161812 -9.09585e-27)
(1.01032 7.00491e-05 0)
(1.0102 -0.000163446 5.43762e-28)
(1.01056 7.80255e-05 0)
(1.00958 -0.0047703 1.42733e-22)
(1.01224 -0.000825723 0)
(1.01143 -0.0141705 -2.23517e-21)
(1.01652 0.00207582 1.44178e-21)
(1.01165 0.00178992 5.32491e-21)
(1.00577 0.0122351 -7.17322e-21)
(1.00584 -0.00182153 -6.20486e-28)
(1.00781 -0.000442065 2.04052e-21)
(1.005 -0.00107149 0)
(1.00485 0.00569772 -1.38092e-21)
(1.00263 -0.00300408 -1.32115e-21)
(1.00513 0.000493763 -2.01574e-21)
(1.01259 0.00331015 1.04066e-21)
(1.00873 0.00288132 9.88678e-22)
(0.997965 0.00569183 -5.48223e-21)
(1.01734 -0.0129033 0)
(0.998308 0.00362121 -4.94261e-21)
(1.00457 0.00760166 0)
(1.00253 0.00591453 0)
(1.00455 0.00232671 -2.52927e-23)
(0.997151 -0.00862515 -3.98879e-22)
(1.00546 -0.00918212 8.1579e-21)
(1.00159 -0.00521068 1.41216e-21)
(1.00307 -0.0135125 3.28083e-21)
(1.01246 -0.00486815 6.79834e-22)
(1.00996 -0.00600675 3.16479e-21)
(1.00594 -0.000779553 1.3904e-20)
(1.00983 -0.0163133 0)
(1.01156 -0.00571289 2.62313e-21)
(1.00993 -0.000914588 -6.97982e-22)
(1.01519 -0.00439304 1.29324e-21)
(1.011 0.00210057 -1.35611e-21)
(1.01384 -0.00160733 1.31676e-21)
(1.0089 -0.00111074 -6.58467e-22)
(1.01128 0.000349677 -1.2724e-21)
(1.01047 0.00113532 1.92409e-21)
(1.01146 -0.000905369 -9.97907e-27)
(1.0114 -0.0020171 0)
(1.01124 -0.00121418 -1.31767e-27)
(1.01104 -0.000120193 0)
(1.01102 -0.000903442 0)
(1.01122 -0.000712323 0)
(1.01093 -0.000960165 0)
(1.011 -0.000903125 0)
(1.01075 -0.00107651 -6.27384e-24)
(1.01084 -0.00101743 0)
(1.01055 -0.00114011 6.56844e-24)
(1.01065 -0.00109917 0)
(1.01026 -0.00136599 -4.14115e-28)
(1.01041 -0.00123443 4.85584e-28)
(1.00994 -0.001791 0)
(1.0101 -0.00154269 0)
(1.00974 -0.00246906 3.1491e-27)
(1.00981 -0.00212192 0)
(1.00967 -0.0031737 0)
(1.00971 -0.00281332 0)
(1.0096 -0.00353414 8.02722e-24)
(1.00964 -0.00345678 0)
(1.00927 -0.00541437 8.30951e-24)
(1.00968 -0.00403586 0)
(1.00761 -0.00750687 -5.79217e-27)
(1.00763 -0.00699004 0)
(1.00815 -0.00429654 6.02562e-22)
(1.0096 -0.00584948 0)
(1.00101 -0.00253864 7.69714e-23)
(1.00432 -0.00400393 -6.08658e-22)
(0.998579 -0.00622875 -2.77048e-21)
(0.997665 -0.00268462 2.54425e-21)
(0.986088 -0.000716863 0)
(0.996384 -0.00572253 -1.42796e-21)
(1.00485 0.00691971 3.68211e-21)
(1.00326 0.00856479 -2.52929e-21)
(1.0044 0.010492 -3.77579e-21)
(1.00524 0.00883229 -1.21227e-21)
(1.00503 0.00848473 -2.32308e-21)
(1.0044 0.00695842 0)
(1.00791 0.00425795 2.94283e-22)
(1.00569 0.00802945 1.77236e-21)
(1.00837 0.00349655 1.3555e-22)
(1.00969 0.00292832 -6.10996e-22)
(1.00695 0.00611356 -4.02811e-24)
(1.0068 0.0049953 -5.77334e-28)
(1.00948 0.00398725 0)
(1.00831 0.00531656 0)
(1.00946 0.00130737 3.74438e-24)
(1.00962 0.00247018 -5.49086e-28)
(1.00961 0.00112755 0)
(1.00946 0.0010061 0)
(1.01014 0.0012091 0)
(1.00987 0.00122737 0)
(1.01052 0.00110922 0)
(1.01036 0.00114995 0)
(1.01076 0.000853833 4.23061e-28)
(1.01064 0.0010196 0)
(1.01094 0.000580695 0)
(1.01085 0.000702378 0)
(1.0111 0.000333848 5.76882e-24)
(1.01096 0.000537686 0)
(1.01115 -0.000232671 0)
(1.01108 0.000640891 0)
(1.01076 0.000611658 0)
(1.01139 0.000740101 0)
(1.0125 0.00132543 -1.40344e-21)
(1.01107 -0.0016893 1.49059e-21)
(1.0103 -0.000421596 3.17746e-22)
(1.01129 0.00283238 1.03985e-23)
(1.01157 -0.00616982 -1.12155e-21)
(1.01391 0.00408461 -3.00765e-22)
(1.01254 -0.00455475 0)
(1.00675 0.00348351 0)
(1.01217 -0.00314067 -2.55067e-21)
(1.01392 -0.00174335 0)
(1.01796 -0.00300199 0)
(1.01111 9.99644e-05 0)
(1.00931 -0.00328058 0)
(1.01 0.000801449 0)
(1.01079 -0.000689913 0)
(1.00987 0.000129521 1.77218e-26)
(1.00991 0.000359252 0)
(1.0104 -0.00287187 -1.4906e-22)
(1.0105 0.00118454 3.53741e-23)
(1.01698 -0.0114669 1.6996e-21)
(1.01181 0.00491364 0)
(1.00857 0.00719283 2.15037e-21)
(1.00546 -0.00094283 0)
(0.991636 -0.0146601 -1.56492e-21)
(1.0034 -0.0117367 8.7323e-21)
(1.00703 -0.0213705 2.16377e-20)
(1.00474 0.00208641 1.36398e-21)
(1.00417 -0.00150759 6.39517e-28)
(1.00676 -0.00110146 2.13693e-21)
(1.00724 0.0013006 -2.08604e-21)
(1.00077 0.0017738 -1.37773e-21)
(1.00472 0.000169041 0)
(0.988955 0.0163572 -2.64291e-21)
(1.00448 0.00563435 -2.56134e-21)
(1.00156 0.00879443 5.17999e-21)
(1.00389 0.0110113 8.14774e-23)
(1.00264 0.00976712 -2.61289e-21)
(1.00096 -0.00418103 -4.05016e-26)
(1.0056 -0.00127607 -2.40176e-21)
(0.998786 -0.004276 -7.13547e-22)
(0.999928 -0.00608372 1.50562e-21)
(0.999092 0.00164163 0)
(1.00122 -0.00441795 7.03642e-21)
(1.01178 -0.00241177 2.9886e-21)
(1.01033 -0.00694125 1.01623e-20)
(1.0154 -0.00601713 4.99537e-24)
(1.01289 -0.00123049 4.07574e-21)
(1.0127 -0.00375351 -2.04812e-21)
(1.0125 -0.00244259 -3.31988e-21)
(1.0029 -0.00113853 6.46907e-28)
(1.01674 -0.00785994 -1.2467e-21)
(1.00544 0.0167403 1.31885e-21)
(1.01547 -0.00332192 0)
(1.00872 0.00696377 6.25616e-22)
(1.01081 -0.000615295 9.42337e-27)
(1.01039 -0.000692029 4.14351e-23)
(1.01179 -0.000509083 1.41785e-30)
(1.01143 0.000468956 0)
(1.01134 -0.000348746 1.31767e-27)
(1.01114 -0.000355841 0)
(1.01119 -0.000465389 0)
(1.0113 -0.000471703 0)
(1.01107 -0.00068066 0)
(1.01115 -0.00062623 0)
(1.01091 -0.000906948 0)
(1.01099 -0.000802194 0)
(1.0107 -0.00117231 -6.56942e-24)
(1.01082 -0.00104217 -4.64718e-28)
(1.01041 -0.00148297 0)
(1.01056 -0.00131817 0)
(1.01014 -0.00187585 4.32056e-28)
(1.01027 -0.00166791 -5.06417e-28)
(1.0099 -0.00235043 -7.44954e-24)
(1.01001 -0.00211699 5.27083e-28)
(1.00969 -0.00273683 4.67498e-28)
(1.00979 -0.00256428 -5.47561e-28)
(1.0093 -0.00291103 -8.02674e-24)
(1.00958 -0.00285885 -5.6788e-28)
(1.00879 -0.00245789 0)
(1.00885 -0.00285486 0)
(1.01077 -0.00371673 -1.09879e-26)
(1.00972 -0.00235878 -6.08022e-28)
(1.01078 -0.00600518 0)
(1.01086 -0.00516892 0)
(1.00779 -0.00590406 0)
(1.01044 -0.00606573 0)
(1.00696 -0.0134971 2.02693e-21)
(1.00555 -0.00981977 -1.32524e-21)
(0.995283 -0.0113027 -1.38999e-21)
(1.00384 -0.0130551 2.07969e-21)
(0.994358 -0.0296124 -1.39874e-20)
(1.00678 -0.0106486 7.45291e-21)
(0.998464 -0.0146964 -1.5462e-20)
(1.00479 0.00835124 1.24769e-21)
(1.00382 0.0126388 -8.10816e-23)
(1.00381 0.0102036 -2.59724e-21)
(1.00519 0.0104367 0)
(1.00535 0.00774402 1.28331e-21)
(1.00433 0.00627606 -2.44894e-21)
(1.00703 0.00563758 1.19164e-21)
(1.00674 0.0068319 0)
(1.00809 0.00460538 -3.01454e-22)
(1.0068 0.00493568 7.38548e-22)
(1.00874 0.00368696 0)
(1.0091 0.00420162 0)
(1.00897 0.00205372 4.02429e-24)
(1.00885 0.00251371 0)
(1.0081 0.00226598 4.7869e-28)
(1.00841 0.00196617 -5.6948e-28)
(1.00893 0.00251957 1.25379e-27)
(1.00838 0.00251543 0)
(1.00997 0.00207959 4.44545e-28)
(1.00952 0.0023527 -5.29106e-28)
(1.0104 0.00158764 0)
(1.01023 0.00180545 0)
(1.01065 0.00129313 3.31824e-24)
(1.01054 0.00142246 -4.8789e-28)
(1.01079 0.00108197 -3.17341e-24)
(1.01072 0.00118048 0)
(1.01097 0.000921491 3.74651e-28)
(1.01087 0.000998449 -4.46391e-28)
(1.01117 0.000819998 -5.77283e-24)
(1.01102 0.000810189 0)
(1.01131 0.001122 0)
(1.01113 0.000421357 0)
(1.01122 -5.44392e-05 -5.19738e-24)
(1.01145 -4.00301e-05 0)
(1.01192 -0.000922551 1.21705e-22)
(1.01172 0.00249971 -1.49055e-21)
(1.01225 -0.000919265 -3.28562e-22)
(1.01156 -0.00261749 1.34729e-21)
(1.00762 0.001166 3.41875e-21)
(1.01114 0.00497432 0)
(1.00994 -0.000538889 -2.23812e-21)
(1.0076 0.000942704 0)
(1.01485 0.00159883 -2.7047e-21)
(1.01331 -0.00204173 2.83969e-22)
(1.01536 -0.00118688 0)
(1.01258 8.78898e-05 0)
(1.01015 -0.00187534 -2.80084e-22)
(1.01053 0.000348824 0)
(1.01118 -0.000594483 0)
(1.01048 0.000672223 1.65107e-26)
(1.00999 0.000513815 0)
(1.01191 -0.000438729 2.77758e-22)
(1.00982 0.00191896 -3.57386e-23)
(1.01863 -0.00546061 5.53628e-22)
(1.00976 0.00479862 -5.36898e-22)
(1.01375 0.00137514 0)
(1.00415 -0.000129931 0)
(1.00824 0.00332088 0)
(1.00288 0.000971276 0)
(1.00218 0.00103992 -4.17132e-26)