/*--------------------------------*- C++ -*----------------------------------*\
  =========                 |
  \\      /  F ield         | OpenFOAM: The Open Source CFD Toolbox
   \\    /   O peration     | Website:  https://openfoam.org
    \\  /    A nd           | Version:  10
     \\/     M anipulation  |
\*---------------------------------------------------------------------------*/
FoamFile
{
    format      ascii;
    class       volScalarField;
    location    "20";
    object      p;
}
// * * * * * * * * * * * * * * * * * * * * * * * * * * * * * * * * * * * * * //

dimensions      [0 2 -2 0 0 0 0];

internalField   nonuniform List<scalar> 
8711
(
0.00722029
0.00649536
0.00821481
0.0247999
0.021329
0.0154764
0.0628277
0.0617078
0.69975
0.70565
0.458072
0.16319
-0.173997
-0.16361
-0.0166478
-0.0333595
-0.0181505
-0.0237308
-0.0292389
0.0176009
0.0171549
0.0129919
0.0134189
0.00802057
-0.292854
-0.231535
-0.346681
-0.394617
-0.00437388
-0.00459266
-0.00342577
-0.415058
-0.43922
-0.258999
-0.282471
0.192368
0.183583
0.216379
0.222948
0.215289
0.260099
0.233851
-0.498939
-0.469082
0.381671
0.253235
-0.405112
-0.3991
-0.400389
0.0260578
0.0249243
0.0253607
0.026245
0.0646724
0.069905
0.0752417
-0.164213
-0.178327
-0.172159
-0.191957
-0.0661093
-0.0774873
-0.0969385
-0.0849157
0.0785428
0.0740994
0.0651717
0.0102659
0.0104735
0.012447
-0.130237
-0.139172
-0.152805
-0.137236
0.109968
0.110271
0.102906
0.10256
0.0109169
0.0157485
0.0124679
-0.0206915
-0.0159644
0.00966343
0.00941868
0.00930403
-0.252558
-0.250112
-0.25228
-0.258417
0.0798224
0.0756162
0.0819118
-0.0204226
-0.00658803
0.108608
0.123142
0.125108
0.112371
0.0895086
0.0920419
0.340398
0.329458
-0.141365
-0.121502
-0.107213
-0.0996195
-0.0975973
-0.100184
-0.1081
-0.121448
-0.13978
-0.160471
-0.179194
-0.190704
-0.192632
-0.187537
-0.174617
-0.199512
-0.157161
-0.177182
-0.22479
-0.216274
-0.209825
-0.222637
-0.163972
-0.188868
-0.123009
-0.141033
-0.105036
-0.111412
-0.107108
-0.103504
-0.132775
-0.116829
-0.151335
-0.120496
-0.14363
-0.0925807
-0.103306
-0.0869104
-0.0872542
-0.100496
-0.0910023
-0.130471
-0.114893
-0.158392
-0.147712
-0.157473
-0.161015
-0.134279
-0.148108
-0.118918
-0.206559
-0.118596
-0.165079
-0.105426
-0.214089
-0.212584
-0.221529
-0.194031
-0.253065
-0.241877
-0.237685
-0.250549
-0.185686
-0.213358
-0.136027
-0.158429
-0.109354
-0.119785
-0.103485
-0.104141
-0.118492
-0.108252
-0.1501
-0.133673
-0.102297
-0.0942351
-0.17361
-0.212658
-0.114229
-0.140116
-0.0822168
-0.0953894
-0.0722037
-0.0750698
-0.0786979
-0.0729442
-0.101804
-0.0899849
-0.123816
-0.11468
-0.126882
-0.1293
-0.111054
-0.121355
-0.0911118
-0.100321
-0.11769
-0.109862
-0.239164
-0.0837262
-0.188677
-0.230501
-0.137531
-0.146511
-0.102851
-0.090071
-0.119393
-0.279363
-0.286881
-0.173766
-0.144391
-0.238483
-0.206259
-0.277543
-0.262911
-0.261265
-0.275677
-0.203713
-0.234231
-0.144993
-0.171941
-0.110115
-0.124665
-0.0963965
-0.101404
-0.101385
-0.096826
-0.120981
-0.111397
-0.129614
-0.0753857
-0.0711085
-0.247458
-0.306636
-0.308039
-0.284893
-0.165455
-0.206248
-0.104261
-0.132032
-0.0698622
-0.0842167
-0.0558895
-0.0613492
-0.0574714
-0.0551573
-0.0745684
-0.0647263
-0.0917938
-0.0851553
-0.096767
-0.0965781
-0.0877992
-0.0944178
-0.0810403
-0.0894676
-0.0917239
-0.0774303
-0.0847979
-0.261449
-0.19267
-0.152886
-0.153259
-0.116686
-0.115814
-0.0681237
-0.294292
-0.235855
-0.29826
-0.31157
-0.304316
-0.307011
-0.188992
-0.0976293
-0.135289
-0.0802976
-0.0500283
-0.0452349
-0.178182
-0.145919
-0.248127
-0.212867
-0.292722
-0.275902
-0.277288
-0.292471
-0.214482
-0.248637
-0.149235
-0.17973
-0.10707
-0.125245
-0.0860075
-0.0946756
-0.0823496
-0.0821115
-0.0910745
-0.0864553
-0.098106
-0.0965384
-0.0867663
-0.0956709
-0.0671453
-0.234944
-0.272612
-0.15258
-0.193457
-0.0902824
-0.118047
-0.0553927
-0.070604
-0.0396001
-0.045947
-0.0375495
-0.0373722
-0.0485566
-0.0415697
-0.0628722
-0.0563794
-0.0693622
-0.0674954
-0.0656545
-0.0683593
-0.0589485
-0.0617805
-0.0575298
-0.0575954
-0.0777257
-0.0734126
-0.0791897
-0.0793574
-0.0722061
-0.0767361
-0.0583507
-0.0660241
-0.270445
-0.293203
-0.28793
-0.0463583
-0.04998
-0.291352
-0.228146
-0.0235198
-0.0156866
-0.287562
-0.171673
-0.113896
-0.0673339
-0.111425
-0.0901338
-0.176418
-0.141605
-0.251106
-0.213674
-0.299518
-0.280868
-0.284538
-0.300017
-0.217861
-0.2545
-0.147301
-0.180616
-0.0998216
-0.120602
-0.0726989
-0.0844633
-0.0609799
-0.065045
-0.0621342
-0.0606899
-0.0611947
-0.0631348
-0.0464797
-0.0554138
-0.0367329
-0.273624
-0.206665
-0.193457
-0.240192
-0.278769
-0.286669
-0.21457
-0.252317
-0.133208
-0.173554
-0.0743078
-0.100589
-0.0407339
-0.0551494
-0.0242683
-0.0310537
-0.0190107
-0.0204487
-0.025225
-0.0207682
-0.0371561
-0.031328
-0.0439033
-0.0414879
-0.0444498
-0.0443064
-0.0428684
-0.0433971
-0.043699
-0.0560876
-0.0670959
-0.0624399
-0.070727
-0.0698157
-0.0682299
-0.0702397
-0.0599572
-0.0648426
-0.0536159
-0.264019
-0.0573135
-0.0483347
-0.131779
-0.0663184
-0.27056
-0.207732
-0.253615
-0.148836
-0.0527125
-0.216803
-0.0918392
-0.173075
-0.0567302
-0.0463806
-0.0474035
-0.104197
-0.0824625
-0.168256
-0.133856
-0.245417
-0.206888
-0.296688
-0.276592
-0.28255
-0.297935
-0.213861
-0.25181
-0.139675
-0.174928
-0.088721
-0.111246
-0.0573792
-0.0713593
-0.0392746
-0.0468227
-0.033532
-0.0353263
-0.0280478
-0.0319978
-0.0139216
-0.0231377
0.00122725
-0.00658445
-0.000353737
0.00136737
-0.171015
-0.111257
-0.250784
-0.219832
-0.249975
-0.260224
-0.18528
-0.223121
-0.10974
-0.147895
-0.0571395
-0.0805736
-0.0261708
-0.039589
-0.00987846
-0.0167647
-0.00261849
-0.00530329
-0.0050669
-0.00259484
-0.0144497
-0.00955168
-0.021659
-0.0186167
-0.0243837
-0.0237369
-0.027564
-0.0263297
-0.0348851
-0.0305875
-0.0408053
-0.0230845
-0.00563899
-0.0466439
-0.0340312
-0.0397757
-0.0580078
-0.0527996
-0.064206
-0.0617222
-0.0658965
-0.0656232
-0.0623235
-0.0648003
-0.0578971
-0.242516
-0.239063
-0.182127
-0.0592677
-0.0394513
-0.0536439
-0.214914
-0.122956
-0.178678
-0.0790722
-0.133528
-0.0480531
-0.073688
-0.0122025
-0.029685
-0.0294652
-0.0253598
-0.0349893
-0.0557972
-0.0410338
-0.0951107
-0.0737085
-0.155894
-0.122682
-0.231718
-0.194009
-0.283915
-0.263245
-0.270906
-0.28583
-0.202443
-0.240406
-0.127223
-0.163145
-0.0745151
-0.0979876
-0.0409745
-0.056135
-0.0190157
-0.0287482
-0.00810575
-0.0124715
-0.000374821
-0.00468757
0.0121343
0.00519996
0.0208366
0.0182332
0.0140015
0.0184228
0.00175897
0.00881075
-0.0238715
-0.0240423
-0.00890987
-0.151948
-0.050738
-0.0997824
-0.219321
-0.194943
-0.212251
-0.224178
-0.150609
-0.186727
-0.0851291
-0.116427
-0.0399988
-0.0601741
-0.0124128
-0.0245373
0.00308925
-0.00359804
0.011372
0.0079305
0.0119265
0.0127295
0.0049936
0.00895196
-0.00216746
0.00108686
-0.00710898
-0.00475949
-0.0130572
-0.00983876
-0.0238406
-0.0182079
-0.0303773
-0.0382872
-0.0310224
-0.0504597
-0.0447843
-0.0593508
-0.0553135
-0.0651118
-0.062685
-0.0658078
-0.0661408
-0.0637926
-0.213217
-0.0242065
-0.0318526
-0.0455948
-0.202756
-0.153799
-0.178249
-0.104379
-0.143137
-0.0735021
-0.0950513
-0.00711018
-0.0365288
-0.050995
-0.0409935
-0.0384423
-0.0469882
-0.00844787
-0.0221248
-0.0533259
-0.0477229
-0.034856
-0.0840436
-0.0636651
-0.140149
-0.109211
-0.210794
-0.175037
-0.262177
-0.241634
-0.250536
-0.264731
-0.184008
-0.220969
-0.110236
-0.145573
-0.0578756
-0.0812954
-0.0240672
-0.0394322
-0.00071661
-0.0113375
0.0133196
0.00723686
0.0233338
0.0182595
0.0335775
0.0286457
0.0364061
0.0363454
0.0266457
0.0318626
0.0135064
0.0206376
0.00398434
-0.0320774
0.0247605
0.0500126
0.0139189
-0.129131
-0.0817527
-0.178005
-0.163652
-0.167161
-0.181031
-0.114681
-0.144874
-0.0608739
-0.0860827
-0.0235534
-0.0403668
0.00021682
-0.0103954
0.0144691
0.00822854
0.022984
0.0192155
0.0258168
0.0252636
0.0212937
0.0242551
0.0143578
0.0177426
0.00793676
0.01114
-0.000458921
0.00411705
-0.0131903
-0.00622815
-0.0214985
-0.0187092
-0.00904261
-0.0136101
-0.0315542
-0.0248275
-0.0445295
-0.0381985
-0.056107
-0.0504529
-0.0656953
-0.0612959
-0.0708987
-0.0690146
-0.069769
-0.0716334
-0.0593931
-0.0653753
-0.181103
-0.168319
-0.12975
-0.144925
-0.094787
-0.0757571
-0.0506237
-0.0682749
-0.112318
-0.0679033
-0.0089153
0.0790806
0.0500032
-0.0720986
-0.058689
-0.0542499
-0.0573604
-0.0684776
-0.00511888
-0.0380383
-0.0756427
-0.0560733
-0.00301526
0.000500038
-0.0182235
-0.0111246
-0.0393105
-0.0276614
-0.0715892
-0.0537184
-0.121305
-0.0942003
-0.184704
-0.152396
-0.233106
-0.213362
-0.223171
-0.236396
-0.16012
-0.19526
-0.0895094
-0.123389
-0.0391687
-0.0617068
-0.00667271
-0.0214542
0.0162919
0.00570932
0.0317599
0.0247415
0.0429762
0.0376235
0.0502882
0.04747
0.0476821
0.0502886
0.037226
0.0427151
0.0226035
0.0303177
0.00142282
0.0128957
-0.0263176
-0.0112344
0.0631463
0.101677
0.115501
0.0928442
-0.0164003
0.0265397
-0.100646
-0.0608624
-0.137363
-0.128453
-0.122375
-0.135783
-0.0800007
-0.102499
-0.0384765
-0.05806
-0.00864443
-0.0222295
0.0113424
0.00227164
0.0241941
0.0184737
0.0324401
0.0286817
0.0367438
0.035201
0.0345823
0.0364579
0.028049
0.0315462
0.0206801
0.0244367
0.0105133
0.0162491
-0.00365556
0.00407274
-0.0237172
-0.0128152
-0.0364913
-0.0133951
-0.00786866
-0.0263115
-0.0196578
-0.0400252
-0.033048
-0.0543925
-0.0471621
-0.0678257
-0.0614011
-0.0780148
-0.0735811
-0.0825845
-0.0814682
-0.0805465
-0.151824
-0.0430203
-0.0740848
-0.0622548
-0.140512
-0.113824
-0.0949906
-0.0891219
-0.12145
-0.0898649
-0.043977
0.0106115
0.0700528
0.132291
0.119067
-0.0763253
-0.0713546
-0.0729643
-0.0837416
-0.0956682
-0.0978514
0.00167553
0.00593325
-0.00101491
-0.0585503
-0.0400129
0.00218813
-0.0909824
-0.0124364
-0.00616944
-0.0306658
-0.0206771
-0.0589912
-0.0434141
-0.100828
-0.0780154
-0.15531
-0.127359
-0.198667
-0.180662
-0.190917
-0.201749
-0.132895
-0.16552
-0.0664934
-0.0984348
-0.0189258
-0.0402081
0.0114114
-0.00234355
0.0329622
0.022952
0.0483877
0.0412559
0.0588554
0.054197
0.0622204
0.0615871
0.0558646
0.0599485
0.0448534
0.0506137
0.0300202
0.0377699
0.0103557
0.020375
-0.0145778
-0.00122407
-0.0857609
-0.0510958
-0.0304704
0.115888
0.14324
0.138727
0.130174
0.0674212
0.0951886
-0.000808613
0.0348164
-0.0652753
-0.0362818
-0.0929074
-0.0825185
-0.0800047
-0.0901101
-0.0494593
-0.06536
-0.0190786
-0.0336679
0.00427003
-0.00653092
0.0208608
0.013217
0.0323047
0.0271159
0.0400219
0.0364708
0.0450201
0.0429026
0.0450054
0.0457563
0.0395219
0.0427609
0.0314245
0.0356862
0.0208833
0.0263048
0.00556099
0.0137025
-0.0136949
-0.00346455
-0.0252266
-0.0087742
-0.00327786
-0.0218233
-0.015044
-0.0369032
-0.0289986
-0.0541256
-0.0453324
-0.0716342
-0.0630148
-0.0871145
-0.0798895
-0.0968113
-0.0928908
-0.0976674
-0.1298
-0.0798032
-0.121525
-0.103657
-0.0727752
-0.0281206
0.0275765
0.0857428
-0.0877891
-0.0909237
-0.100799
-0.115318
0.132432
0.141303
0.148293
-0.123727
-0.120703
-0.0714522
0.00820088
-0.105361
-0.10592
-0.0921173
-0.0916934
0.00360424
0.00691475
-0.00698768
-0.00108359
-0.022425
-0.0140031
-0.0460838
-0.0331526
-0.0803015
-0.0617822
-0.124747
-0.101824
-0.161724
-0.146021
-0.15645
-0.165262
-0.104582
-0.134117
-0.0430252
-0.0727939
0.00174254
-0.0183112
0.0298831
0.0172139
0.0494212
0.0403639
0.0631471
0.0568989
0.0704509
0.0676771
0.0701381
0.0710962
0.0614944
0.0661873
0.0502787
0.0561378
0.035798
0.0434851
0.0182066
0.0269879
-0.00355702
0.00800432
-0.033256
-0.0177856
-0.0914267
-0.0621305
-0.0488751
0.129346
0.138091
0.126306
0.130291
0.111535
0.1231
0.0707525
0.0939277
0.017208
0.0443492
-0.0297519
-0.00959762
-0.0524851
-0.0454594
-0.0442498
-0.0506273
-0.024138
-0.0347707
-0.00255838
-0.0131383
0.0153761
0.00694288
0.0289056
0.0225871
0.0388941
0.0342734
0.0459997
0.0427169
0.0511026
0.0487839
0.0527318
0.0524982
0.0489248
0.0514604
0.0410102
0.0453207
0.0300409
0.0359192
0.0160663
0.0230093
-0.00242836
0.00662622
-0.0282117
-0.0141089
-0.0693704
-0.0476019
0.00573248
0.00970289
-0.00453253
0.000924556
-0.0179395
-0.010837
-0.0349532
-0.0259723
-0.055202
-0.0447734
-0.0769303
-0.0660436
-0.0972173
-0.0875375
-0.111975
-0.105397
-0.115239
-0.115411
-0.105013
-0.111595
-0.0952986
-0.116138
-0.109951
-0.0919871
-0.0598933
-0.0148079
0.0409519
-0.107296
-0.11995
-0.137095
0.100361
0.141125
0.14716
-0.152066
-0.157675
-0.150754
0.117955
0.130181
-0.129784
-0.0731971
-0.1053
-0.0938801
0.0181233
0.0154617
-0.114641
-0.103442
-0.0796795
-0.100897
0.00751722
0.0117638
-0.00184262
0.00328138
-0.0149516
-0.00769326
-0.0338806
-0.0235576
-0.0607678
-0.0463259
-0.0950813
-0.0773732
-0.124659
-0.111811
-0.121617
-0.128256
-0.0771469
-0.102869
-0.0211439
-0.0485293
0.020975
0.0020006
0.0472103
0.0355273
0.0641561
0.0564858
0.0744663
0.0700645
0.0777158
0.0769705
0.0733296
0.0764512
0.0651828
0.0697807
0.0540983
0.0599084
0.0402754
0.047547
0.0242668
0.0323569
0.00534482
0.0151671
-0.0186274
-0.00639772
-0.0409187
-0.0307571
-0.0786462
-0.0535985
-0.0485569
0.113954
0.105437
0.0940453
0.105416
0.119227
0.118502
0.106037
0.115357
0.0749105
0.0925137
0.0347089
0.0553106
-0.000933751
0.0153275
-0.0188878
-0.0124186
-0.0161573
-0.0192329
-0.00385825
-0.0105847
0.0109661
0.00352708
0.0245068
0.0180072
0.03548
0.0302813
0.0441051
0.0400452
0.0506024
0.0475786
0.0555038
0.0532179
0.0581196
0.0572039
0.0561674
0.0577342
0.0495003
0.05333
0.0392062
0.044752
0.0259542
0.0329013
0.00853687
0.0172588
-0.0168555
-0.00293361
-0.0594299
-0.0359671
-0.0745524
0.00937024
0.0130875
-0.000747946
0.00471682
-0.0150368
-0.00731987
-0.0341843
-0.0240189
-0.0574103
-0.0453852
-0.0830085
-0.070087
-0.107673
-0.0957264
-0.126546
-0.118056
-0.133654
-0.131988
-0.126397
-0.1316
-0.118891
-0.109477
-0.104063
-0.0854124
-0.0518068
-0.0047976
-0.136839
-0.159284
0.0538408
0.112521
0.1447
-0.182301
-0.197038
-0.197278
0.140132
-0.178448
0.11694
-0.147021
0.0795933
0.0890243
-0.113043
-0.0552992
-0.08059
-0.0977161
0.0199471
0.017541
-0.125068
-0.108446
0.020352
0.0184322
-0.0688316
-0.118608
0.0111593
0.0145865
0.00299854
0.00707401
-0.007987
-0.00207219
-0.0228546
-0.0148548
-0.0430856
-0.0323181
-0.0679943
-0.0552112
-0.089561
-0.0800793
-0.0878216
-0.0925247
-0.0515447
-0.0728291
-0.00240676
-0.0268483
0.0366481
0.0188741
0.0609828
0.0502832
0.0750079
0.068948
0.0816044
0.0791031
0.0816413
0.0823527
0.0760944
0.0794328
0.0674634
0.0720824
0.0566283
0.0622901
0.0436375
0.0503776
0.0290011
0.0364747
0.0125963
0.0209104
-0.00701075
0.0029331
-0.0244819
-0.0166646
-0.0348392
-0.0306316
-0.0543578
-0.0363668
-0.0366065
0.0842954
0.0625327
0.0557724
0.0710182
0.103077
0.0950005
0.109692
0.108381
0.100653
0.107286
0.0783164
0.0910046
0.0485219
0.0637639
0.0215293
0.033953
0.00614163
0.0121333
0.0048944
0.00419883
0.0117689
0.00775437
0.0217838
0.0166148
0.0319408
0.0269643
0.0407912
0.0365389
0.0481499
0.0446371
0.0540217
0.0512573
0.0586083
0.0564457
0.0617815
0.0604159
0.0610942
0.0618672
0.0563946
0.0592724
0.0477078
0.0524988
0.0356588
0.0420437
0.0188519
0.0276813
-0.00551596
0.00777156
-0.0389386
-0.0230088
-0.05816
0.0125425
0.0160697
0.00217652
0.00792347
-0.0133688
-0.0049137
-0.0344975
-0.0232869
-0.0602417
-0.0468793
-0.0888919
-0.074386
-0.116943
-0.103271
-0.138851
-0.129007
-0.148092
-0.145408
-0.14193
-0.146564
-0.133661
-0.109677
0.0219053
-0.105106
-0.0849616
-0.0483987
-0.177369
0.00300805
0.0655856
0.123173
-0.20955
-0.236023
-0.246839
0.141374
-0.234741
0.127306
-0.200547
0.0980019
-0.157331
0.0701678
-0.114253
0.0391833
0.0433155
-0.0780336
-0.0353136
-0.0511561
-0.0960179
-0.121764
-0.12248
-0.0724973
-0.0657867
-0.146699
0.0191813
0.0229719
0.0212562
0.0139762
0.0166922
0.00708564
0.0105306
-0.0017046
0.00293721
-0.0131263
-0.00706743
-0.0277395
-0.0200719
-0.044603
-0.0360769
-0.0583229
-0.0524006
-0.055688
-0.0597705
-0.0277316
-0.0444383
0.0131812
-0.00753074
0.047891
0.0318841
0.0698405
0.0602712
0.0812178
0.0765478
0.0851013
0.083902
0.083336
0.0848013
0.0772788
0.0807094
0.0686812
0.0732196
0.0582479
0.063668
0.0461648
0.0523763
0.0328202
0.0396378
0.0181623
0.0256254
0.00253294
0.0101983
-0.0123404
-0.00557194
-0.020954
-0.0174882
-0.0226332
-0.022395
-0.0333224
-0.0231458
-0.0228935
-0.0213363
0.0507294
0.0218647
0.0212726
0.0362204
0.0760762
0.0640654
0.09378
0.0862872
0.100567
0.0989355
0.0954116
0.0994025
0.0795598
0.0885609
0.0574326
0.0687889
0.0363965
0.0463714
0.0235829
0.0289481
0.020249
0.0209227
0.0236633
0.0214168
0.0303156
0.0267725
0.0378692
0.0340896
0.044974
0.0415098
0.0512107
0.0481988
0.056444
0.0539512
0.0606499
0.0586593
0.0644685
0.0624521
0.0640794
0.0643229
0.0611706
0.0630764
0.0544952
0.0582989
0.0439171
0.0496606
0.0282599
0.0366325
0.00483282
0.0177752
-0.0259904
-0.00877115
-0.0440539
0.02363
0.0207146
0.022353
0.0149295
0.0184241
0.00402908
0.0101607
-0.0128147
-0.00366313
-0.0354462
-0.0234682
-0.0628873
-0.0486483
-0.0933907
-0.0779413
-0.123379
-0.108728
-0.147018
-0.136545
-0.156682
-0.153948
-0.149117
-0.154952
-0.137543
-0.117928
0.0244745
-0.0742049
-0.114089
-0.0910108
-0.185573
-0.0484411
0.0102456
0.076528
-0.228914
-0.267595
-0.291177
0.125199
-0.290927
0.131131
-0.262874
0.110336
-0.213595
0.0777928
-0.159396
0.0481913
-0.109417
0.0228237
-0.0722215
0.00646107
0.00405653
-0.046423
-0.0291588
-0.0115988
-0.00709496
-0.00896083
0.0250853
0.0238318
-0.146577
0.0218781
0.00953157
0.0205529
0.0223476
0.0162676
0.0185226
0.0107292
0.013615
0.00380413
0.00743233
-0.00474254
-0.000281994
-0.0148462
-0.00964886
-0.0253481
-0.0201926
-0.0323842
-0.0296297
-0.0279972
-0.0320104
-0.0059218
-0.0189203
0.0266302
0.00997784
0.0557368
0.0421419
0.0746523
0.0664144
0.0839238
0.0802481
0.0862122
0.0857394
0.0835615
0.0853695
0.0773937
0.0808006
0.0690571
0.0734309
0.0591575
0.0642726
0.0479834
0.0536967
0.0358623
0.042028
0.0228468
0.0294527
0.00956888
0.0161248
-0.00220816
0.00316377
-0.0102557
-0.00691768
-0.0126619
-0.0122058
-0.01166
-0.0126501
-0.00987739
0.0473219
0.03472
0.0697235
0.0589994
0.0858167
0.0788779
0.0926668
0.0903689
0.0901649
0.092472
0.0789932
0.085431
0.0625937
0.0710748
0.0463641
0.0541711
0.0354885
0.0402152
0.0313243
0.0326628
0.0325853
0.0314816
0.0369075
0.034512
0.0425044
0.0396427
0.0481976
0.045381
0.0534608
0.0508937
0.0580627
0.0558501
0.0617813
0.0600442
0.0636455
0.063122
0.0655275
0.0651139
0.063954
0.0651202
0.0589937
0.0619083
0.0499691
0.0549875
0.0358843
0.0435108
0.0145542
0.0259705
-0.0148225
0.000927811
-0.0447641
-0.0316807
-0.0568626
-0.0531072
0.0261225
0.0251717
0.0257778
0.0225356
0.0241103
0.0164354
0.0200857
0.00490904
0.011442
-0.0129378
-0.00328416
-0.0363901
-0.0240263
-0.064491
-0.04994
-0.0954526
-0.0798069
-0.125523
-0.110878
-0.14966
-0.139489
-0.158065
-0.156049
-0.147197
-0.155101
-0.114252
-0.132881
-0.074423
-0.0937736
-0.0564561
-0.135525
-0.00855702
-0.00254122
-0.130788
-0.18071
-0.101272
-0.0490461
0.0182369
-0.286944
-0.32521
0.0866081
-0.338864
0.120946
-0.32228
0.113267
-0.277021
0.0853369
-0.216445
0.0531225
-0.152774
0.024184
-0.0999759
0.00145997
-0.0646613
-0.014249
-0.0237567
-0.0409464
0.0261678
0.0269329
0.0267227
-0.0377746
-0.0237221
-0.0110784
-0.0043116
-0.0148207
0.0243408
0.0252907
0.0216563
0.0231054
0.0181815
0.0200506
0.0137979
0.0160881
0.00849286
0.0112467
0.00232995
0.00549548
-0.00427651
-0.000970902
-0.0100614
-0.00738606
-0.0121252
-0.0117592
-0.0056752
-0.0101572
0.0126384
0.00218722
0.0381678
0.0251082
0.0615413
0.050535
0.0771126
0.0703118
0.0845749
0.081679
0.0858595
0.0858113
0.0828082
0.084746
0.0767731
0.0800652
0.0688337
0.0729862
0.0595525
0.0643287
0.0492653
0.0545065
0.0382705
0.0438391
0.0267477
0.0325568
0.0152698
0.0209393
0.00561425
0.0099775
-0.00137682
0.00139304
-0.00470957
-0.00384967
-0.00270649
-0.00426306
-0.000269723
-0.00103346
-0.000790431
0.00223916
-0.0134775
-0.00564929
0.022797
0.0119064
0.0451868
0.0341134
0.0647098
0.0553197
0.0789038
0.0725433
0.0858044
0.0832264
0.08505
0.0862928
0.0772571
0.0818354
0.0651252
0.0714626
0.0525992
0.0587026
0.0434865
0.0475526
0.0391873
0.0407818
0.0391725
0.0387787
0.0419138
0.040314
0.0460576
0.0438918
0.0506179
0.0483299
0.055048
0.0528678
0.0590583
0.0571157
0.0623744
0.0608192
0.0645552
0.0636319
0.0660847
0.0655696
0.0652229
0.0659651
0.0613917
0.0637071
0.0537127
0.0580857
0.0410288
0.0481617
0.0215287
0.0323116
-0.00453231
0.00933376
-0.0268744
-0.0168255
-0.0387714
-0.0347726
-0.0392869
0.026464
0.0268607
0.0238881
0.0255175
0.0174198
0.0212885
0.00514174
0.0120765
-0.0132694
-0.00339055
-0.0367458
-0.0244297
-0.0644403
-0.0501419
-0.0945366
-0.0794007
-0.121984
-0.109137
-0.146224
-0.13813
-0.151926
-0.151208
-0.138274
-0.147611
-0.106331
-0.123684
-0.0715916
-0.089471
-0.0536118
-0.162094
-0.152749
-0.112014
-0.0238431
-0.0267128
-0.234453
-0.0468255
-0.342811
0.0299897
-0.372351
0.0909584
-0.369597
0.10786
-0.334447
0.0888153
-0.275625
-0.0358362
0.057317
-0.207558
-0.0378974
0.0252614
-0.135011
-0.0373302
-0.0032402
-0.0114622
-0.00148086
-0.0888554
-0.0324363
-0.0208767
-0.0205469
-0.0561118
-0.00249428
-0.025213
0.00653257
0.00516419
0.0259402
-0.0351268
-0.223172
-0.00899093
-0.288354
0.0263848
0.0276158
0.0272562
0.0245706
0.0252757
0.0225256
0.0235933
0.0197508
0.0212097
0.0163573
0.0181145
0.0124274
0.0144428
0.00819222
0.0103208
0.00423309
0.00612721
0.00178311
0.00273148
0.0030401
0.00182717
0.0109108
0.00607509
0.0267702
0.0180171
0.0471459
0.0368046
0.0656604
0.0569198
0.0781366
0.072679
0.0840039
0.0817667
0.0845933
0.0848111
0.0814127
0.0833597
0.0756542
0.0787712
0.0682044
0.0720925
0.059585
0.0640061
0.0501545
0.0549471
0.0402014
0.0452242
0.0299925
0.0351081
0.0200576
0.0249391
0.0117204
0.0156169
0.00566799
0.00837452
0.00249403
0.00359177
0.00383342
0.00274805
0.00397031
0.0041442
0.00404394
0.00643376
-0.00119353
0.0243835
0.0148184
0.0435293
0.0339954
0.0606
0.0524566
0.0731104
0.0674375
0.0798288
0.0771823
0.0802
0.0807224
0.0749025
0.0781021
0.0659528
0.0706795
0.0563092
0.0610876
0.0487506
0.0521891
0.0446756
0.0462976
0.0439594
0.0439851
0.0456419
0.0445889
0.048715
0.0470722
0.0523732
0.0505135
0.0560978
0.0542492
0.0595738
0.0578798
0.0625301
0.0611298
0.0646859
0.063714
0.0660092
0.0655116
0.0654921
0.0660045
0.0623881
0.0642902
0.0557985
0.059578
0.0445734
0.0508845
0.0274332
0.0367784
0.00613522
0.0168923
-0.0120305
-0.00412392
-0.0230253
-0.0192292
-0.0253539
0.0275308
0.027701
0.0248931
0.0265872
0.0179969
0.0221347
0.00499128
0.012241
-0.0134285
-0.00364836
-0.036158
-0.0242912
-0.0625061
-0.0489568
-0.090808
-0.0766332
-0.117101
-0.104477
-0.136556
-0.12881
-0.140014
-0.140392
-0.125684
-0.135045
-0.0973318
-0.112282
-0.0655542
-0.0820767
-0.0493688
-0.195215
-0.175736
-0.035371
-0.0210085
-0.0318261
-0.118136
-0.338721
-0.0387163
-0.38616
0.0395207
-0.39961
0.0864188
-0.377078
0.0855614
-0.3259
-0.0258876
-0.0393298
0.0588081
-0.258268
-0.0470166
0.00674037
-0.00283294
0.0255623
-0.190774
-0.0491778
-0.0119526
-0.00518554
-0.11986
-0.0492619
-0.0200432
-0.0279309
-0.0758003
-0.269142
-0.0424513
-0.0289632
-0.0153096
-0.0175627
0.0266968
0.0255978
0.0257893
0.024644
0.0252051
0.0230654
0.0239186
0.0209755
0.0220752
0.0184546
0.0197567
0.0156773
0.0170817
0.012976
0.0142901
0.0109876
0.0118482
0.0108208
0.0106119
0.0141161
0.0119661
0.0226097
0.0177055
0.0365644
0.0290693
0.0532005
0.0448322
0.0680204
0.0610358
0.0780045
0.0736366
0.0826023
0.0808794
0.0827382
0.083109
0.0796056
0.0814833
0.0742118
0.0771197
0.0672962
0.0709009
0.0593524
0.0634198
0.0507359
0.0551056
0.0417381
0.0462654
0.0326688
0.0371907
0.0240516
0.02826
0.016841
0.0202393
0.0116426
0.0139955
0.0089628
0.00994316
0.0094853
0.00888382
0.00944709
0.00957455
0.0121202
0.0104026
0.0147845
0.0136383
0.00690054
-0.00294703
-0.00995025
0.0111053
0.00426748
0.0262694
0.0183827
0.0425425
0.0343774
0.057223
0.0501645
0.0682973
0.0632474
0.0746367
0.0720506
0.0757783
0.0757825
0.0722992
0.0744954
0.0657114
0.0692343
0.0582807
0.0619661
0.0520936
0.054954
0.0484186
0.0499452
0.0473647
0.0476203
0.0483513
0.0476692
0.0506406
0.0493884
0.0535843
0.0520693
0.0567144
0.055149
0.0597145
0.0582453
0.0623283
0.0610803
0.0643131
0.0634059
0.0654664
0.0650207
0.0651021
0.065495
0.0624966
0.0640993
0.0568029
0.0600685
0.0470085
0.0524661
0.032444
0.0402785
0.0150012
0.0238549
-0.000715359
0.00659785
-0.0107232
-0.00645002
-0.015233
-0.0134337
0.0270809
0.028188
0.0276853
0.0282059
0.0284006
0.0255881
0.0273134
0.0181785
0.0226091
0.00463884
0.0119867
-0.0131765
-0.00381032
-0.0345482
-0.0234326
-0.0589123
-0.0464294
-0.0845338
-0.071754
-0.107748
-0.0967132
-0.123214
-0.11698
-0.124696
-0.125838
-0.11103
-0.119654
-0.086119
-0.0992767
-0.0578237
-0.0723909
-0.0439666
-0.230396
-0.0314464
0.0266266
-0.012447
-0.19534
-0.31087
-0.0482494
-0.112555
-0.375544
-0.0299805
-0.408314
0.0434745
-0.401593
-0.0178219
-0.0291705
0.0177297
0.0698924
-0.360576
-0.0419028
0.00876419
0.0551997
-0.298212
-0.0538232
-0.00249023
0.0236365
-0.227935
-0.0603743
-0.0122701
-0.00987708
-0.157284
-0.064326
-0.0207721
-0.0367642
-0.100065
-0.0632631
-0.0294457
-0.0544942
-0.0164795
-0.00877739
0.0261105
0.0246842
-0.00699233
0.0252566
0.0256644
0.0245117
0.0250331
0.0233994
0.0240508
0.0219048
0.0227092
0.0201392
0.0210504
0.0183196
0.0192203
0.0168265
0.0175066
0.0162868
0.0164006
0.0176449
0.0166833
0.0220957
0.019448
0.0306237
0.0258762
0.0429517
0.0364609
0.0567739
0.0498754
0.0688569
0.0631761
0.0769688
0.0734208
0.0806423
0.0792861
0.0805247
0.0809616
0.0775547
0.0793142
0.0725731
0.0752538
0.0662108
0.0695237
0.0589307
0.0626548
0.0510798
0.0550545
0.0429541
0.0470327
0.034873
0.0388864
0.0273418
0.0310041
0.0210557
0.0240237
0.0165483
0.0185704
0.0143659
0.0151601
0.0142697
0.0141858
0.0149476
0.0143548
0.0178758
0.0163319
0.0199735
0.019052
-0.00606733
-0.00813941
0.0033098
-0.00225849
0.015117
0.00919412
0.0280766
0.0212935
0.0418468
0.0348712
0.0544823
0.0484027
0.0642739
0.0597739
0.0701721
0.0677003
0.0718237
0.07147
0.0696498
0.0711185
0.0648501
0.0674494
0.0591083
0.0619756
0.0540962
0.0564437
0.0508865
0.0522588
0.0497161
0.0500819
0.0502548
0.049821
0.0519723
0.0510111
0.0543519
0.0531134
0.0569826
0.0556584
0.0595621
0.0582939
0.0618439
0.06075
0.0636016
0.0627978
0.0645843
0.0642064
0.0642654
0.0646049
0.0620035
0.0633927
0.0570469
0.0598815
0.0486034
0.0532639
0.0363808
0.0428881
0.0217797
0.0291986
0.008074
0.0146033
-0.00147322
0.00265223
-0.00641032
-0.0041244
-0.0112497
-0.00648734
-0.006945
0.0260657
0.0274266
0.0268807
0.0285401
0.0280303
0.0286321
0.0288022
0.0258631
0.027742
0.0181199
0.0226745
0.00423064
0.0112635
-0.0124438
-0.00372524
-0.032049
-0.0218997
-0.0539947
-0.042808
-0.0764834
-0.0653472
-0.0960716
-0.0868985
-0.108009
-0.103331
-0.107914
-0.109559
-0.0953343
-0.10306
-0.0736636
-0.0851174
-0.0496879
-0.0618628
-0.0276579
-0.0380414
-0.0184606
-0.261367
-0.0635584
0.0242492
-0.209908
-0.339436
-0.0425725
0.0247957
0.0238488
-0.0110816
-0.00650911
-0.111461
-0.391386
-0.00337397
-0.0129803
-0.0212491
-0.405466
-0.027486
0.0292312
0.0226047
0.0361665
-0.379247
-0.0430333
0.0109346
0.0417449
-0.323528
-0.0581697
-0.00119497
0.0173597
-0.255312
-0.0695685
-0.012667
-0.0168547
-0.186952
-0.0779706
-0.0216174
-0.0477287
-0.125467
-0.0824607
-0.0296722
-0.0687376
-0.0807909
-0.0801918
0.0257197
0.00225083
0.00531457
0.0103101
0.0244232
0.024772
0.0249793
0.0242845
0.0246061
0.0235702
0.0239863
0.0225861
0.0231132
0.0214594
0.0220314
0.0204295
0.0209157
0.0198839
0.0200727
0.0204011
0.0199803
0.0227566
0.0213192
0.0277979
0.0249276
0.0360353
0.031559
0.046922
0.0412759
0.0585844
0.0528026
0.0686194
0.063908
0.0753436
0.0724028
0.0783614
0.0772585
0.0781286
0.0785741
0.0753839
0.0770008
0.0708312
0.07328
0.0650185
0.0680443
0.0583782
0.0617732
0.0512452
0.0548518
0.0439189
0.0475881
0.0367177
0.0402823
0.0301047
0.0333116
0.0246081
0.0272032
0.0206996
0.0224397
0.0188535
0.0195359
0.0185773
0.0186006
0.0199042
0.0189033
0.0226675
0.0210438
0.0249606
0.0237307
0.0307524
0.0273557
0.0347512
0.0398911
0.0347735
0.0416553
0.0468745
-1.71936e-05
0.00172764
0.00185362
0.00034664
0.00902815
0.00472497
0.0186498
0.013655
0.0296258
0.0238433
0.0414239
0.0354688
0.0523198
0.0470779
0.0609252
0.056939
0.066367
0.0640385
0.0683131
0.0677305
0.067082
0.068017
0.0636112
0.0655271
0.0591953
0.0614292
0.0551657
0.0570743
0.0524242
0.0536211
0.0512658
0.0516687
0.0515249
0.0512544
0.0528259
0.0520815
0.0547597
0.0537434
0.056971
0.0558519
0.0591788
0.0580901
0.0611494
0.0602038
0.0626417
0.06197
0.0634652
0.0631612
0.0631234
0.0634524
0.0610837
0.0623283
0.0567089
0.0591986
0.0493966
0.0534087
0.038989
0.0445138
0.0265266
0.0328798
0.0144646
0.0203182
0.00544632
0.00951013
-0.000115786
0.00188819
-0.00232307
-0.00156847
0.0273584
0.0266001
0.0286814
0.0281345
0.0287393
0.028941
0.0256783
0.0277721
0.0172
0.0221405
0.00410659
0.0109491
-0.0112895
-0.00331448
-0.0289445
-0.0198489
-0.0482811
-0.0384835
-0.067511
-0.0580729
-0.0835256
-0.0761434
-0.0924346
-0.0890971
-0.0911958
-0.0931326
-0.0798971
-0.0866704
-0.0616356
-0.0712295
-0.0419351
-0.0518674
-0.0241356
-0.032501
-0.0167855
-0.281301
0.0154984
0.00934231
-0.0391774
0.0232177
0.0230211
-0.00268858
-0.201604
-0.348266
-0.00698737
-0.0541263
0.0249408
0.0236257
0.0578884
0.0498821
0.0221195
0.0210575
0.0282949
-0.101431
-0.384188
0.027891
0.0112243
0.0200527
-0.024627
0.0281008
-0.0191948
-0.379392
-0.0423462
0.0145056
0.014238
-0.337364
-0.0598516
0.00147333
0.00286353
-0.272652
-0.0761865
-0.011883
-0.0276822
-0.203946
-0.0893467
-0.0225548
-0.0614676
-0.143403
-0.0993209
-0.0308729
-0.0865189
-0.0958373
-0.104112
-0.0384628
-0.100596
0.0584311
0.0638076
0.0236001
0.0231907
0.0232661
0.023953
0.0238517
0.0239226
0.0239896
0.0235709
0.0237698
0.0230336
0.0233165
0.0224539
0.0227372
0.0220773
0.0222241
0.0222762
0.0220846
0.0235632
0.0227613
0.0265578
0.0248289
0.0318435
0.0289141
0.0396393
0.0354738
0.0492676
0.044344
0.0592393
0.0543194
0.0677116
0.0637384
0.0733934
0.0709069
0.0759399
0.0750137
0.0756742
0.0760958
0.0731805
0.0746467
0.06905
0.0712724
0.0637676
0.0665173
0.0577312
0.0608167
0.0512655
0.0545312
0.044666
0.047965
0.0382475
0.0414153
0.0324232
0.0352414
0.0276191
0.0298824
0.0242524
0.0257431
0.0226566
0.0232577
0.0225023
0.0224294
0.0240074
0.02304
0.0266287
0.0252611