/*--------------------------------*- C++ -*----------------------------------*\
  =========                 |
  \\      /  F ield         | OpenFOAM: The Open Source CFD Toolbox
   \\    /   O peration     | Website:  https://openfoam.org
    \\  /    A nd           | Version:  10
     \\/     M anipulation  |
\*---------------------------------------------------------------------------*/
FoamFile
{
    format      ascii;
    class       surfaceScalarField;
    location    "20";
    object      phi;
}
// * * * * * * * * * * * * * * * * * * * * * * * * * * * * * * * * * * * * * //

dimensions      [0 3 -1 0 0 0 0];

internalField   nonuniform List<scalar> 
17221
(
0.0859254
-0.0265766
-0.0709281
0.0115793
0.0016323
0.0784218
0.0058713
0.0687208
-0.020525
-0.0747724
0.0860804
-0.011399
-0.0776722
0.00299077
0.0131721
0.077412
-0.00450371
0.0737437
0.0165878
-0.0771594
0.00102001
-0.00478935
0.0693503
-0.0655809
-0.00684216
-0.0676223
0.0754844
-0.00123926
-0.0429582
0.011312
0.0328854
-0.0425623
0.00565756
0.0356655
0.000152899
0.0466765
-0.0543593
0.00752988
-0.0536299
0.0537828
0.0475003
0.0587222
-0.0629731
-0.0432494
0.0523699
0.0390382
-0.0439078
0.0543683
0.0374572
-0.0362965
-0.0555291
0.032392
0.00438583
0.0175905
0.0178329
0.0581211
-0.0696962
-0.00625785
0.00868175
0.0500999
-0.0409488
-0.0440293
-0.00670855
0.0594196
-0.0300713
-0.0641777
0.0764074
0.0178416
-0.0696553
0.00276756
0.0368165
0.0462877
0.0480966
-0.0538742
-0.0405101
0.106313
-0.0691436
0.00911792
-0.0312108
0.0118882
0.0880434
-0.117667
-0.0598058
0.0906967
0.0867762
-0.0468749
0.0279426
-0.0987347
0.107064
-0.101377
-0.0525614
0.0951381
-0.0478803
-0.0236378
-0.0421405
0.0108458
0.0549325
-0.0111943
-0.0469102
0.0344667
-0.053549
0.00299349
0.0393612
-0.100136
-0.000850398
0.070343
0.0306437
0.0206005
-0.0969715
-0.0237651
0.113589
0.0209486
-0.113937
0.0120387
0.1007
0.0664687
-1.55782e-05
-0.0191164
-0.0473368
0.0116884
0.0672313
-0.012451
-0.0417858
0.041071
0.063904
-0.0631892
0.10246
-0.0792992
-0.0249145
0.00175319
0.0713258
-0.0106511
0.0348959
0.0938392
-0.0376985
0.0238502
0.0345839
-0.00700929
-0.0275746
0.020413
-0.00657718
0.0207481
0.0864497
-0.0416751
-0.0447746
-0.0573775
0.045137
0.0986902
0.00345422
0.00103707
-0.00956084
0.00506955
0.00237439
-0.00555739
0.00663722
-0.00361594
0.0070274
0.0435136
0.0698142
-0.0655212
-0.0478067
0.0557302
-0.0749424
0.0627258
-0.0319482
0.0475729
0.0401056
-0.0205968
0.0584629
-0.0837588
0.0148577
0.0688939
7.19796e-06
-0.0740607
-0.00788239
-0.0018157
-0.00832335
-0.0658232
8.58049e-05
-0.0523223
-0.0233558
0.0566593
0.0190188
-0.0108275
-0.053815
0.0123202
-0.0484564
0.0547828
0.0236895
-0.0300159
-0.0111692
-0.060643
-0.0781359
0.0148949
0.0722964
-0.00905539
0.0141777
-0.0769518
-0.0153617
0.0777017
0.00759078
-0.0678791
-0.0174134
0.013714
0.0781654
0.00755671
-0.0579327
0.0023196
0.0480563
0.0629416
0.000885904
-0.0562708
0.0694932
-0.011341
-0.103152
0.00261264
0.0368767
0.0636631
-0.0031453
-0.109812
0.00980479
-0.00138196
0.10455
-0.0446974
-0.0476784
0.0400303
0.0523455
-0.054694
0.0516279
-0.0416313
0.0443658
-0.0532679
-0.0387762
-0.0514402
0.0367203
0.0590857
0.0142083
0.059282
-0.0136309
-0.0598594
0.0581299
-0.0615185
0.0175969
-0.0146849
0.0605595
0.0134073
-0.0128645
0.0588008
-0.0606212
0.0264945
-0.0882098
-0.0644822
-0.0113238
0.0102915
0.0655145
-0.0682199
0.0228296
-0.0190919
-0.023353
-0.05502
0.0210603
0.0573127
-0.056744
0.0578323
-0.0244413
0.0920383
-0.0769655
0.0114217
0.0953994
0.00644364
0.0774871
0.0248318
0.0614606
-0.0583214
-0.027971
0.0590052
0.0206531
-0.0548264
-0.0268591
0.053972
-0.0538993
0.0267864
0.0510182
-0.0290014
-0.0488759
0.0833029
-0.0518622
-0.0397641
0.0715872
0.00383336
-0.00125805
-0.00130376
-0.0632614
0.0237701
0.0775609
-0.0287948
-0.0725362
0.0190015
0.0755439
-0.0707753
-0.0477533
-0.0179302
0.0539792
0.0117043
-0.0069789
0.0398253
-0.0805998
0.0583276
0.00392775
-0.0692343
0.0433658
-0.0029683
-0.0101879
-0.0614496
0.0700191
0.00161846
-0.0365844
0.0803756
0.0678555
0.00585132
-0.008243
-0.0654638
0.0080242
0.0698169
-0.00998563
0.0565902
0.0414086
-0.0456289
0.0559743
0.0454063
-0.0447903
0.0569721
0.0445476
-0.0455454
0.0553343
0.0443009
-0.0426631
0.0551439
0.0403348
-0.0401444
0.0530118
0.0425813
-0.0404493
0.0509711
0.041679
-0.0396382
0.0479268
0.0419578
-0.0389136
0.0472389
0.0388826
-0.0381947
0.0451458
0.033141
-0.0310479
0.0457751
0.0236269
-0.0242563
0.0463749
0.0132191
-0.0138188
0.0471573
0.000679707
-0.00146215
0.0486588
-0.0105919
0.00909051
-0.0211774
0.0509755
0.0188607
0.0523492
-0.0502336
-0.023293
-0.0299933
0.0295287
-0.0309121
0.0495365
-0.048224
-0.000632859
-0.011289
0.047755
-0.0478937
0.0237656
0.0127501
0.0486624
-0.0493434
0.0395636
0.0339097
0.0513284
-0.053069
0.0434196
0.0439428
0.0552608
-0.0572923
0.0423663
0.0447732
0.0563473
-0.0553342
0.0435346
0.0433559
0.0556058
-0.0558368
0.0416397
0.0456779
0.0379842
-0.0592513
0.0591148
-0.0446537
-0.046158
-0.0583373
0.0569371
-0.0412628
-0.044768
-0.0560666
0.0524221
-0.0368048
-0.0392739
-0.0510738
0.0489414
-0.0367812
-0.03829
-0.0452949
0.0460331
-0.0317861
-0.0345482
-0.0451913
0.0444442
-0.0130717
-0.0234145
-0.0454275
0.0475007
0.00701732
-0.00244545
-0.0496523
0.0531139
0.026067
0.0167092
0.0536856
0.0361485
-0.0278337
-0.0572592
0.0739237
0.0415866
0.0575294
-0.0560153
-0.037455
0.0603823
0.0348899
-0.0144301
-0.0570404
-0.0318017
0.0550891
-0.0539961
-0.0243861
-0.0318383
0.0528503
-0.0519848
-0.00149833
-0.0124348
0.0502663
-0.0511957
0.024695
0.0110316
0.0513275
-0.0523055
0.0405416
0.0340416
0.0522883
-0.0561063
0.0472377
0.0439256
0.0544288
-0.0591666
0.0471041
0.0430956
0.0568973
-0.056879
0.0435163
0.0410866
0.0553618
-0.055034
0.0413118
0.0441606
0.0531351
0.0272137
0.0360853
0.0396194
-0.0428414
0.0607514
0.0379622
0.0620395
-0.0661279
0.06355
-0.0406715
-0.036469
-0.0621352
0.0623454
-0.0448639
-0.0447433
-0.0591748
0.0596073
-0.0416953
-0.0415974
-0.0570216
0.0544348
-0.034218
-0.0366882
-0.0513883
0.0509884
-0.0363812
-0.0352435
-0.0465884
0.046061
-0.0312587
-0.0301482
-0.0444589
0.0443485
-0.0129613
-0.0218125
-0.0454549
0.0465143
0.00595791
-0.0035518
-0.0490031
0.0525802
0.0224899
0.0142204
-0.058303
0.0596965
0.0334964
0.0304258
0.0586653
0.0254837
-0.0325212
0.0681694
-0.0510363
0.0369634
0.0606952
-0.00214036
-0.00439402
-0.0472806
-0.0106174
-0.0485633
-0.0466766
0.050834
0.00816276
-0.0478121
-0.00325844
0.0873898
-0.0543153
0.0316307
0.0694731
-0.0566757
-0.0301608
-0.0151534
0.00952767
-0.0492007
-0.0548213
-0.0186535
0.0577057
-0.0594925
-0.0356682
-0.0406013
0.0605836
-0.0584653
-0.0265044
-0.0307471
0.0572681
-0.0556807
-0.00308578
-0.0136319
0.0541515
-0.0543234
0.0248669
0.00950237
0.0514694
-0.0559986
0.0450708
0.0311876
0.0544574
-0.056298
0.0490782
0.0423843
0.0573603
-0.0579322
0.0476759
0.044158
0.0562159
-0.0582801
0.0455804
0.0393704
0.0522929
-0.0535724
0.0425913
0.0381735
0.0512121
-0.0508955
0.0268972
0.0337251
0.0189572
0.0564067
-0.053916
0.0310056
0.059619
0.0337511
-0.0611056
0.0651461
-0.0320115
-0.00688153
0.00347649
-0.0514163
0.0595939
-0.0102622
-0.0562133
-0.0201651
-0.0647058
0.0712761
-0.0472418
-0.0360287
-0.0661701
0.0652632
-0.043957
-0.0396373
-0.0635339
0.0618733
-0.0400347
-0.0398682
-0.0575954
0.0580242
-0.0346467
-0.0324103
-0.0532678
0.0510165
-0.03413
-0.0304871
-0.0483231
0.0462184
-0.0291539
-0.0274548
-0.0435171
0.0446833
-0.0141276
-0.0191112
-0.0450735
0.0460495
0.00498192
-0.00394202
-0.0487904
0.0500841
0.0211962
0.0114796
0.0265939
-0.0360937
0.0352224
0.0616228
0.0637064
-0.0350681
0.0360938
0.0596695
0.0621938
-0.0521261
-0.0143235
0.00559425
-0.0385513
-0.0288594
-0.0332763
-0.00519984
0.0153624
-0.039022
-0.0376533
-0.000822769
-0.0605291
-0.0375108
0.0345819
0.0611309
0.00383302
-0.0495572
0.00205874
-0.0450278
-0.058371
0.0647424
-0.0166336
0.00420763
-0.00871992
-0.051701
-0.056227
0.00206367
-0.00912169
-0.0510145
0.0152722
-0.0384611
0.0219213
-0.0381791
-0.0213956
0.022401
-0.0395017
-0.0275235
0.0292285
-0.0398841
-0.0312382
0.0371937
-0.033479
0.0238782
-0.0227244
0.0657727
-0.0648341
-0.0366068
-0.0353576
0.0631333
-0.0624696
-0.0271681
-0.032448
0.0611502
-0.0596277
-0.0046083
-0.0149514
0.0585518
-0.0576146
0.0239297
0.00842654
0.0571154
-0.0569584
0.0449138
0.0306884
0.0571141
-0.0594282
0.0513923
0.0425401
0.057983
-0.0581064
0.0477994
0.0427127
0.0575707
-0.0560897
0.0440995
0.0388346
0.0541895
-0.0514802
0.0398819
0.0362733
0.0477076
-0.0488929
0.0280825
0.0299525
0.04611
-0.0448612
0.00691394
0.0161743
0.0450937
-0.0360241
-0.00989236
-0.00302591
-0.0202259
-0.0697909
0.0714912
-0.0337117
-0.0252137
-0.0744346
0.0714125
-0.0442196
-0.0389721
-0.0697057
0.0691222
-0.0433735
-0.0379305
-0.06392
0.0627788
-0.0388934
-0.0346661
-0.0607213
0.0594462
-0.0333717
-0.0303529
-0.0553912
0.0518366
-0.0305754
-0.026432
-0.0490298
0.046437
-0.0265611
-0.024648
-0.0451458
0.0447438
-0.0137256
-0.01782
-0.0450881
0.0462734
0.00379662
-0.0042864
-0.0477002
0.049862
0.0190344
0.0100528
-0.0528454
0.0559634
0.0278876
0.0236105
-0.0581774
0.0595246
0.0332347
0.0315371
-0.0236897
0.0296382
0.0635246
0.0693706
-0.0310354
0.0322542
0.060404
0.0623092
-0.0337175
0.0333667
0.0600203
0.0607305
-0.0345127
0.033267
0.0607703
0.0599849
-0.0462343
0.0174589
-0.0181417
0.0152039
0.0602459
-0.0569272
0.029916
0.0612555
0.0322574
-0.0113441
-0.0473348
0.0115505
-0.0413061
-0.0519021
0.0388209
-0.0203978
-0.0195788
0.0051339
-0.0221314
-0.0470248
0.0232232
-0.0392832
0.0290181
-0.0392914
0.0269693
-0.0429753
0.0670532
-0.068286
-0.0362781
-0.027312
0.0669535
-0.0683851
-0.0351753
-0.0366901
0.0676647
-0.0667943
-0.0280385
-0.0331684
0.0655854
-0.0639939
-0.00619976
-0.0161602
0.0626961
-0.061335
0.0225686
0.0071287
0.0603709
-0.0595312
0.0440742
0.0297243
0.0591031
-0.0589223
0.0512115
0.0421119
0.058829
-0.0584575
0.0474279
0.0426195
0.0576313
-0.0558657
0.0423338
0.0380084
0.0537322
-0.0507844
0.0369341
0.0341398
0.0481188
-0.0451124
0.0250761
0.0272869
0.0432307
-0.0418991
0.00558237
0.0142926
0.0406209
-0.0385792
-0.0119341
-0.0043041
-0.0199842
-0.0581503
0.0637109
0.00964327
0.0541814
-0.038656
-0.0694247
0.054325
-0.0328127
0.0326691
0.0229612
-0.0710044
0.0724175
-0.0180466
-0.00522985
-0.0757648
0.076229
-0.034176
-0.028561
-0.0762622
0.0741162
-0.0420736
-0.0390053
-0.0719037
0.0690673
-0.0405371
-0.0357181
-0.0665788
0.0638308
-0.0361453
-0.0321775
-0.0617012
0.0591327
-0.0308031
-0.0282233
-0.0565356
0.0529802
-0.0270199
-0.023835
-0.0500542
0.0472494
-0.0237563
-0.0217221
-0.045783
0.0451509
-0.0130934
-0.0163536
-0.0453754
0.0463595
0.00281256
-0.00451097
-0.0471381
0.049974
0.0161985
0.00927424
-0.0519274
0.0548687
0.0249463
0.0216571
0.0294786
0.0230702
-0.0179803
0.0672065
-0.0283024
0.0289245
0.0629025
0.0641383
-0.031334
0.0308925
0.0608455
0.0598998
-0.0319683
0.0326075
0.059381
0.0596547
-0.0323568
0.032211
0.0609161
0.0602356
0.0327091
0.0607574
-0.0460279
0.0638404
-0.0920213
0.0191254
-0.0318039
0.0776641
-0.00572498
0.0326276
-0.0597153
-0.0733424
-0.0340406
-0.0222252
-0.047241
0.0233451
-0.0414281
-0.0297105
-0.0463157
0.0312693
-0.0415344
-0.0632628
-0.0302705
0.0671558
0.0263775
-0.0391524
-0.0483795
0.0340126
-0.0463347
-0.0415281
-0.0336216
0.0275347
-0.0661241
0.0374261
-0.0501046
-0.0648733
0.0343196
0.0677044
-0.0701131
-0.0338694
-0.03295
0.0718563
-0.0712504
-0.0357812
-0.0349468
0.071889
-0.0713085
-0.028619
-0.0325298
0.0702436
-0.0686052
-0.00783814
-0.0172251
0.0670912
-0.0652989
0.0207764
0.00561468
0.0638611
-0.0623482
0.0425613
0.0282865
0.0613081
-0.0604015
0.0503049
0.0410718
0.0597895
-0.0589841
0.0466226
0.0420074
0.057925
-0.056004
0.0404127
0.0369493
0.0537734
-0.0507053
0.0338661
0.0319092
0.047967
-0.0449463
0.0220553
0.0245487
0.042282
-0.0409051
0.00420548
0.0116283
0.0405821
-0.039189
-0.0133272
-0.00462713
0.0436389
-0.0470233
-0.0170134
-0.0155343
0.0461196
-0.0569333
-0.0254827
-0.0204825
-0.0515566
0.0599305
0.0242953
-0.0505181
0.0315891
-0.0651917
0.0711857
0.00364922
0.0177
-0.0762397
0.0797495
-0.0215564
-0.0102838
-0.0803052
0.0830446
-0.0369153
-0.0291168
-0.0779734
0.0763008
-0.040401
-0.0339341
-0.0735581
0.0703748
-0.0373538
-0.0329754
-0.0677652
0.0648077
-0.0331878
-0.0295679
-0.0625758
0.0600761
-0.0283034
-0.0259914
-0.0577375
0.054401
-0.0236834
-0.0214964
-0.0514532
0.0484208
-0.0207239
-0.0187742
-0.0467174
0.0458499
-0.0122259
-0.0146502
-0.0459458
0.0468587
0.00189965
-0.00460683
-0.0485436
0.0491802
0.0155618
0.00758932
-0.0533314
0.0538644
0.0244133
0.0175059
-0.0566371
0.0591115
0.0274416
0.026706
0.0264955
-0.0330328
0.0366021
-0.0590984
-0.0603411
-0.0296249
-0.022228
0.0253582
0.0640763
0.00415332
-0.0253856
0.0586584
0.0595894
-0.0270774
0.0289279
0.061052
0.0624192
-0.0284258
0.0286704
0.060601
0.0604018
-0.0303098
0.0301667
0.0595241
0.0580153
-0.0305099
0.031394
0.060032
0.0598924
0.0618809
-0.0449079
-0.0322623
-0.0446892
0.0329331
-0.0430919
0.032838
-0.0298925
0.0642102
-0.0538618
0.0442669
0.0439146
0.0364197
0.0667105
-0.0702921
-0.0396112
-0.0458569
0.0377026
-0.0452244
-0.0448969
-0.0450108
0.0347316
-0.0535316
-0.0492797
-0.0440571
0.0285583
-0.0580803
0.0389627
-0.0441287
-0.0453521
0.0336578
-0.0294771
-0.0645219
0.0370811
-0.0625217
-0.0513193
-0.0290863
0.0220092
0.0577095
0.0324933
-0.0279242
-0.0618456
0.0572765
0.0682596
-0.0706599
-0.0316403
-0.0331643
0.0726015
-0.0735952
-0.0328757
-0.0310084
0.0753143
-0.0742392
-0.0368563
-0.0332278
0.0770947
-0.0758235
-0.0298902
-0.0296743
0.074952
-0.0733053
-0.00948483
-0.0180966
0.0715518
-0.0693292
0.0185537
0.00386119
0.0674138
-0.0652368
0.0403843
0.0263711
0.0635822
-0.0619583
0.0486811
0.0394172
0.06083
-0.0595968
0.0453894
0.040879
0.0583407
-0.0563377
0.0384097
0.0356933
0.0541011
-0.0510203
0.0307853
0.0296726
0.0482647
-0.0452442
0.0190348
0.021793
0.0431313
-0.0416112
0.0026854
0.00951543
0.0416774
-0.0437102
-0.0112943
-0.00456095
0.0468109
-0.0494888
-0.0143354
-0.0124337
0.0522051
-0.0570497
-0.0206381
-0.0177663
0.0624562
-0.0662918
-0.0256416
-0.0242184
-0.0321818
0.0356284
-0.0679685
0.0780547
0.0397377
-0.0510318
-0.0667605
-0.0204189
-0.0626463
0.0678087
0.0191329
0.0580116
-0.051831
0.032782
0.0269544
-0.0767447
0.0827183
-0.00232437
0.00876398
-0.0853095
0.0868064
-0.0230533
-0.012875
-0.0853002
0.0839162
-0.0355314
-0.0276105
-0.0811005
0.0775664
-0.0368668
-0.0311184
-0.074598
0.071296
-0.0340519
-0.030007
-0.0686814
0.0656958
-0.0302023
-0.0269533
-0.0634074
0.0609688
-0.0258649
-0.023703
-0.0588873
0.0559349
-0.020731
-0.0194149
-0.0531254
0.0499491
-0.0175476
-0.0159647
-0.0479876
0.0468227
-0.011061
-0.0126887
-0.0467525
0.0475087
0.00114353
-0.00453666
-0.0486082
0.0503257
0.0138443
0.00648981
-0.0519009
0.0532377
0.0230766
0.0159308
-0.0570353
0.0582673
0.0262095
0.0229084
0.030901
-0.0203456
0.0244803
0.0599415
0.061253
-0.0261787
0.0253977
0.0618329
0.0607208
-0.0268315
0.0273269
0.0601056
0.0589681
-0.0277909
0.0282888
0.0590263
0.0575512
-0.0297175
0.0310468
0.0587027
0.0584637
0.0630352
-0.0442372
-0.0621353
-0.023695
0.0649128
-0.0571959
0.03655
0.0658956
0.0354368
-0.0399001
-0.0444003
0.0392966
-0.0446858
-0.0450692
-0.0456846
0.0393702
-0.0498629
-0.0472619
-0.0470285
0.0371324
-0.0621057
-0.0447019
-0.043484
-0.0403465
-0.0466036
0.0351192
-0.0429223
-0.0427762
0.0387104
-0.0597097
0.0379906
-0.0648839
0.0383559
-0.0665867
0.0402164
-0.0587549
-0.0597498
0.0686824
-0.0184166
0.00948402
-0.0633645
-0.0243095
0.0326906
-0.0299445
-0.0645917
0.0682304
-0.0717917
-0.028079
-0.0270692
0.0728701
-0.0746726
-0.0310732
-0.0299301
0.0770726
-0.0787847
-0.0351441
-0.0308278
0.0797688
-0.0801013
-0.0295577
-0.0286902
0.079511
-0.0778967
-0.0110991
-0.018687
0.0759493
-0.073288
0.0158924
0.00191378
0.07088
-0.0680555
0.0375597
0.0239631
0.0657912
-0.0634606
0.0463504
0.037153
0.0618036
-0.060108
0.0436938
0.0392221
0.0586231
-0.0565283
0.0363148
0.0342084
0.0543132
-0.0512934
0.0277655
0.0274575
0.0485928
-0.0456597
0.0161017
0.0190924
0.0437628
-0.042825
0.00174763
0.00761848
0.0436257
-0.0464385
-0.00848154
-0.0037602
0.049706
-0.0516501
-0.0123914
-0.00916623
0.0562096
-0.059547
-0.0173007
-0.0132068
0.0631221
-0.067908
-0.0208556
-0.0206433
-0.0196445
-0.0603708
0.0662825
0.0268703
0.0324941
-0.0365283
-0.0425695
0.0555929
-0.0496362
0.0265374
0.0303412
-0.0727467
0.0787376
0.013142
0.0204902
-0.0844595
0.0884289
-0.00629379
0.00304201
-0.0896678
0.0909653
-0.0243509
-0.0141139
-0.0883208
0.0852627
-0.0324733
-0.024966
-0.0821722
0.0783994
-0.0330941
-0.0280278
-0.0753592
0.0720198
-0.0307125
-0.0269667
-0.0694352
0.0665084
-0.0272755
-0.0243686
-0.0642181
0.0618089
-0.0234557
-0.0214127
-0.059936
0.0574442
-0.0182392
-0.017542
-0.0549537
0.0518168
-0.0144107
-0.0134742
-0.0496223
0.0480692
-0.00950786
-0.0104942
-0.0477574
0.0483581
0.000542813
-0.00422486
-0.049425
0.0511344
0.0121349
0.00542289
-0.0527081
0.0546568
0.0211279
0.0143571
-0.0554989
0.0562394
0.0254691
0.0220662
0.0299445
-0.023474
0.0224126
0.0587709
0.0245091
-0.0227623
0.0560855
0.0583479
-0.0227972
0.0228353
0.0599035
0.0608683
-0.0236821
0.024542
0.0609731
0.059874
-0.0253621
0.0262489
0.0592188
0.058148
-0.0271672
0.0281576
0.0580359
0.0566329
-0.0293947
0.0308383
0.057259
0.0572266
-0.0325891
0.0342104
0.062589
0.0612845
-0.0366055
0.065863
0.0366381
0.0643153
-0.0448407
-0.0436481
-0.0458215
0.0419875
-0.0473032
-0.0460395
-0.046907
0.0391557
-0.0518862
0.0382505
-0.0374352
0.0650477
0.0664416
-0.0669285
0.0371251
0.0670283
0.0376638
-0.0453892
-0.0463413
-0.0434995
-0.0429069
-0.0390475
-0.040257
-0.0290261
-0.0446132
0.0240031
-0.0329683
-0.0386273
-0.058262
0.0348668
0.0405966
-0.0623156
0.0385354
-0.0650633
0.0379401
-0.0643105
0.0363607
-0.062425
0.0555811
-0.0616834
-0.0166601
-0.0666216
-0.0266874
-0.0287924
0.0303368
-0.0661361
-0.0240694
-0.0713446
-0.0235945
0.0221524
0.0575276
0.0545207
-0.022534
0.0654316
-0.0663517
-0.0227749
-0.020693
0.0688376
-0.0722638
-0.0246528
-0.0245833
0.0755944
-0.0758765
-0.0307911
-0.0265994
0.0792753
-0.0815279
-0.0328915
-0.027429
0.0830284
-0.0839237
-0.0286624
-0.0271897
0.0837063
-0.0822481
-0.0125572
-0.0189044
0.0801346
-0.0770533
0.012811
-0.000199712
0.074178
-0.0707195
0.0341013
0.0210878
0.0678725
-0.0648258
0.0433037
0.034306
0.0626026
-0.060358
0.0414492
0.0369989
0.0585573
-0.056281
0.0340385
0.0324076
0.0540516
-0.0511304
0.0248443
0.0252281
0.0486067
-0.0460537
0.0135487
0.0165687
0.0447388
-0.0448029
0.0018117
0.00630358
0.0464619
-0.0497211
-0.0052223
-0.00210121
0.0527062
-0.055494
-0.00960354
-0.00618113
0.0578743
-0.0599147
-0.0152603
-0.0108265
0.0636441
-0.0652205
-0.0192791
-0.016914
0.0649072
-0.0642684
-0.0190554
-0.0199578
0.0665154
-0.0685474
-0.0246554
-0.0220626
-0.0595414
0.0630291
0.0230497
0.0215513
-0.0235829
-0.0425816
0.0560536
-0.0534807
0.0189783
0.0205153
-0.0692372
0.0758262
0.0202813
0.0241331
-0.0814965
0.0871044
0.0075341
0.01482
-0.0901657
0.0930593
-0.00918741
-1.93044e-05
-0.0932868
0.0919123
-0.0229764
-0.0143413
-0.089441
0.0857932
-0.0288255
-0.0224947
-0.0825331
0.0787128
-0.0292738
-0.0247678
-0.0757005
0.0724249
-0.027437
-0.0239544
-0.0699334
0.0671623
-0.0245045
-0.021877
-0.0649601
0.0625956
-0.0210913
-0.0192104
-0.0608616
0.0588049
-0.0161824
-0.015808
-0.056767
0.0539372
-0.0115809
-0.0114363
-0.0516511
0.0496792
-0.00753593
-0.0082082
-0.0489845
0.0492826
0.000244736
-0.00353015
-0.0502309
0.0518736
0.0104922
0.00447457
-0.0528503
0.0563511
0.0176271
0.0133803
-0.0568432
0.0583006
0.0240117
0.0215741
-0.060474
0.0648325
0.0321916
0.027771
0.0333408
-0.0214038
0.0216026
0.0585722
0.0590964
-0.021055
0.0209021
0.0600564
0.0614159
-0.0219145
0.0230554
0.0598322
0.0588616
-0.0242614
0.0255938
0.0578865
0.0569419
-0.0269199
0.0282479
0.056708
0.0553068
-0.0297515
0.031356
0.0556545
0.055723
-0.0335429
0.0368883
0.0592435
0.0590976
0.0637684
-0.0465012
-0.0664975
-0.0261193
-0.0258132
0.0171002
-0.0626316
-0.0358464
-0.0564643
-0.0443458
-0.0475152
0.0421047
-0.0502522
0.0351764
-0.0340177
0.063889
0.0369848
0.0652199
-0.0449324
-0.0473638
-0.0438753
-0.0459655
-0.0405035
-0.0414509
-0.0351655
-0.0380598
-0.0262349
-0.0359752
-0.0162654
-0.0531733
0.015958
-0.0179998
-0.0408473
-0.058246
0.0405806
0.0393071
-0.0630873
0.0386748
-0.065798
0.0393525
-0.0673022
0.0363333
-0.0684215
0.0256857
-0.0747216
-0.0261202
0.0215355
0.0621124
-0.035698
0.0640985
0.0637249
-0.0653765
-0.0150086
-0.0669255
0.0678634
0.0367259
-0.0666107
0.0368103
0.042635
-0.00144409
0.0391868
-0.0562062
0.0671642
-0.0693386
-0.0206005
-0.0189053
0.0715072
-0.0728575
-0.0233025
-0.0224147
0.076024
-0.0786049
-0.0282102
-0.023433
0.0809217
-0.0836223
-0.0301908
-0.0251122
0.0855952
-0.0871044
-0.0271532
-0.0252168
0.087346
-0.0861941
-0.0137092
-0.0186628
0.0840578
-0.0806203
0.00937344
-0.00233594
0.0772979
-0.0732423
0.0300457
0.0177654
0.0698484
-0.0661176
0.0395729
0.0309121
0.0632985
-0.0604241
0.0385748
0.0341798
0.0582087
-0.0556533
0.0314831
0.0301922
0.0533899
-0.0506907
0.0221451
0.0229647
0.0486195
-0.0469511
0.0118803
0.0144974
0.0466553
-0.0479157
0.00307215
0.00600776
0.050104
-0.053104
-0.00222226
8.70258e-05
0.0552893
-0.0572503
-0.00764248
-0.00399587
0.0587971
-0.060331
-0.0137263
-0.00927976
0.063473
-0.0647018
-0.0180503
-0.013772
0.0672325
-0.067562
-0.018726
-0.0174271
0.0696503
-0.0722729
-0.0220327
-0.0199743
0.00598067
-0.104459
0.0691802
-0.09562
-0.0300245
-0.0292121
-0.066752
0.0680045
0.0177258
0.0129513
-0.0116268
-0.0544978
0.0658304
-0.0656347
0.0127555
0.0150365
-0.069227
0.0731153
0.0191615
0.0192928
-0.0785846
0.0839724
0.0148936
0.0186637
-0.0880745
0.0920329
0.00357569
0.0107179
-0.0943126
0.0952221
-0.0100969
-0.00229905
-0.0943723
0.0919033
-0.0205074
-0.0134916
-0.0890534
0.0852547
-0.0250268
-0.0196448
-0.0820688
0.0784744
-0.0256795
-0.0215819
-0.0756758
0.072621
-0.0243822
-0.0211557
-0.0702891
0.0677215
-0.0219368
-0.0195451
-0.0656723
0.0633999
-0.0188189
-0.0171612
-0.0617392
0.0599812
-0.0144244
-0.0141473
-0.0584067
0.0561239
-0.00929796
-0.00986191
-0.0540013
0.0517606
-0.00529524
-0.0060856
-0.0506047
0.0503552
0.000494234
-0.00237434
-0.0509879
0.052468
0.00901207
0.00384192
-0.0546153
0.0548815
0.0173609
0.0112331
-0.0575327
0.0602548
0.0212896
0.0189229
-0.0618488
0.065324
0.0287164
0.026177
0.0320541
-0.0197225
0.0183585
0.0599362
0.0609093
-0.0187993
0.0199595
0.0588962
0.0609751
-0.020424
0.0219451
0.058311
0.0583971
-0.0235206
0.0251616
0.0562455
0.0553665
-0.0266745
0.0280677
0.0553148
0.0537939
-0.0300721
0.0295929
0.0561337
0.0537185
-0.0316841
0.0329086
0.058019
0.0570064
0.0626593
-0.0487424
0.0393496
0.0654986
-0.0435437
-0.0489039
-0.043523
-0.0477161
-0.0414701
-0.0449988
-0.036718
-0.0398985
-0.0296292
-0.0346654
-0.0204096
-0.0335654
-0.0605124
0.0415734
0.0414163
-0.0658288
0.0405618
-0.0670073
0.038728
-0.0696969
-0.0117304
-0.0407437
-0.00949066
-0.0662146
0.0100706
-0.00647694
-0.0575115
0.0318196
-0.0745554
0.0204783
-0.0892192
0.0230503
-0.0933557
-0.0253146
-0.0612829
0.0415695
-0.0526349
0.0155046
-0.096913
0.040602
-0.0562277
-0.0372126
0.0542451
0.0191794
-0.036212
0.0665632
-0.0670976
-0.0144741
0.00383624
0.0683901
-0.0703286
-0.018662
-0.0176129
0.0733113
-0.0739257
-0.0226882
-0.0194319
0.0768415
-0.07954
-0.0255117
-0.0205171
0.0820172
-0.0849987
-0.0272094
-0.022635
0.0873452
-0.0894445
-0.025054
-0.0228702
0.0902314
-0.0895997
-0.0143408
-0.0178758
0.0876497
-0.0840615
0.00578523
-0.00428595
0.0803546
-0.0757376
0.0254287
0.0140585
0.0718361
-0.0674792
0.0352161
0.0270105
0.0641026
-0.0606037
0.0350759
0.0308032
0.0579787
-0.0551952
0.0286997
0.0275672
0.0530397
-0.0508868
0.0199922
0.0208092
0.0496415
-0.049235
0.0114738
0.0132521
0.0499699
-0.0518968
0.00499903
0.0067427
0.0538988
-0.055964
-0.00015704
0.00208898
0.0572885
-0.0586286
-0.00630234
-0.00267138
0.0599376
-0.0617685
-0.0118955
-0.00797072
0.0635384
-0.0657027
-0.015886
-0.012002
0.0681749
-0.0687019
-0.018199
-0.0149549
0.0705747
-0.0728329
-0.0197745
-0.0181015
0.080436
-0.0883523
-0.0221083
-0.0216089
-0.0218819
0.0260874
-0.0975612
0.0912516
-0.0930287
-0.0201048
-0.0224153
-0.073306
0.0733229
0.0127386
0.00642923
-0.00492272
-0.0677212
0.0721915
-0.0711108
0.00534853
0.00895618
-0.0740439
0.0762239
0.0155458
0.0143154
-0.079199
0.0804073
0.0179533
0.0163177
-0.0857854
0.0882789
0.0124001
0.0132856
-0.0926704
0.0942993
0.00194674
0.00632644
-0.095408
0.0949677
-0.00965661
-0.00340771
-0.0934084
0.0905631
-0.0176621
-0.0119323
-0.0877461
0.084226
-0.0215067
-0.0168277
-0.0813308
0.0780738
-0.0224225
-0.0186867
-0.0755249
0.0727107
-0.021568
-0.0186068
-0.0705394
0.0681616
-0.0195591
-0.0173738
-0.0662873
0.0641763
-0.0167079
-0.0152869
-0.0625896
0.0609927
-0.0128275
-0.0125605
-0.0597693
0.0581154
-0.00764404
-0.00863853
-0.0564325
0.0542908
-0.00315353
-0.00440278
-0.0528131
0.0518974
0.00140994
-0.000896628
-0.0519702
0.0529112
0.00807108
0.0037691
-0.0541716
0.0559255
0.015607
0.00997271
-0.0588462
0.0576277
0.0225081
0.0160022
-0.0614756
0.0629105
0.0272815
0.0223291
-0.0662563
0.0683676
0.0346989
0.0287083
-0.0691549
0.0591366
0.0493679
0.0359387
-0.0192035
0.0170773
0.0642387
0.0677245
-0.0155758
0.0149543
0.0605578
0.0624108
-0.0172758
0.0168963
0.0592756
0.0586536
-0.0193116
0.021085
0.0565376
0.0559818
-0.0228019
0.0244505
0.0545969
0.0536496
-0.0258385
0.026996
0.0541572
0.0524059
-0.0278126
0.0282934
0.0556529
0.0529019
-0.0300204
0.0290058
0.0590336
0.0552794
-0.0303781
0.0308822
0.0633849
0.061287
-0.0312282
0.0351458
0.061581
0.0648739
0.0570698
-0.0507165
-0.04292
-0.0495068
-0.042541
-0.0466452
-0.0395455
-0.0421713
-0.0333883
-0.0361394
-0.0242775
-0.0307975
-0.0625783
0.0434822
0.0431725
-0.0684395
0.0420837
-0.070363
-0.0139045
-0.0313913
-0.00625859
-0.040962
-0.00476817
-0.0576661
0.0371938
-0.0750711
0.030193
-0.0842701
0.0246974
-0.0984121
-0.00302961
-0.0708397
0.00275854
-0.00551982
-0.0652309
0.0273485
-0.0981741
0.0210493
-0.0969668
-0.0171113
0.0210064
-0.0975183
0.0155679
-0.0631002
0.0973487
-0.0498164
-0.0683595
-0.00942465
0.0664604
-0.0764792
-0.0109721
-0.00714572
0.0769587
0.0419793
-0.0540122
-0.0564186
0.0124978
0.0429492
-0.0576035
0.0667732
-0.0678144
-0.013433
-0.0058698
0.06868
-0.071727
-0.015615
-0.0167472
0.0732387
-0.0753583
-0.0205686
-0.0179202
0.0773662
-0.0800464
-0.0228316
-0.0185092
0.0825427
-0.0856396
-0.0241126
-0.0201386
0.0882158
-0.0907937
-0.0224761
-0.020294
0.0921499
-0.0922501
-0.0142406
-0.0165196
0.0907962
-0.0874207
0.0024097
-0.0057399
0.0835717
-0.078545
0.020402
0.0102095
0.0742186
-0.0693482
0.0303457
0.0226841
0.0655461
-0.0616101
0.03114
0.027001
0.0587674
-0.0560385
0.0259709
0.0247245
0.0542713
-0.0529616
0.0186824
0.019042
0.0526247
-0.0531727
0.0120218
0.0129153
0.0542694
-0.0558492
0.00657884
0.00783934
0.057045
-0.0581088
0.000906788
0.00328477
0.058854
-0.0598865
-0.0052698
-0.00192621
0.0610354
-0.0626472
-0.0102837
-0.00682182
0.0641652
-0.0660746
-0.0139766
-0.0104841
0.067864
-0.0695738
-0.0164892
-0.0131654
0.0723383
-0.0750839
-0.0170289
-0.015337
0.0801503
-0.0853833
-0.0168754
-0.0165425
0.0884762
-0.0913926
-0.0171884
-0.0193224
-0.0135365
0.0143431
-0.0977734
0.0935339
-0.0942884
-0.0127819
-0.01497
-0.0721251
0.0728602
0.00461338
-0.000863063
-0.00147822
-0.0684984
0.0732525
-0.0731833
-0.000932325
0.00388602
-0.0732331
0.0741649
0.0118068
0.00858326
-0.0758469
0.0776453
0.0137474
0.0126335
-0.0805852
0.0842191
0.0143194
0.0133778
-0.0872124
0.0904722
0.00914024
0.0102923
-0.0925349
0.0939926
0.000488977
0.00426377
-0.094071
0.0929205
-0.00850608
-0.00348609
-0.091183
0.0884951
-0.0149742
-0.0101948
-0.0859781
0.082893
-0.0184216
-0.0143107
-0.0803492
0.0774605
-0.0195338
-0.0161429
-0.0751797
0.0726399
-0.0190283
-0.016326
-0.0706594
0.0684837
-0.0173834
-0.0153932
-0.0667884
0.0648859
-0.0148054
-0.0135916
-0.0634186
0.0619241
-0.011333
-0.0110931
-0.0608939
0.0597418
-0.00649195
-0.0076084
-0.058613
0.056973
-0.0015135
-0.00327391
-0.0555497
0.0541987
0.00276096
0.000526576
-0.0536687
0.0538451
0.0078947
0.00429917
-0.0546052
0.0559348
0.0142774
0.00921256
-0.0572171
0.0589233
0.020802
0.0147198
-0.0604168
0.0631726
0.0245257
0.0208355
-0.0640791
0.0687447
0.0300333
0.0278018
-0.0705641
0.100775
0.0191572
0.0341192
0.00814433
-0.0122777
0.0113749
0.0651415
0.0657383
-0.0135746
0.0134531
0.0606793
0.0602111
-0.0148764
0.0165705
0.0575816
0.0572303
-0.0182943
0.0200382
0.0547937
0.0542579
-0.0215711
0.0228956
0.0532724
0.0521166
-0.0238795
0.0245678
0.0534689
0.051422
-0.0249178
0.0249421
0.0556287
0.0525519
-0.0246326
0.02394
0.0597262
0.0555889
-0.0235837
0.0231075
0.0638611
0.0616432
-0.0208029
0.0177291
0.0646548
0.0671785
0.0676532
-0.0516572
-0.0432826
-0.0487652
-0.0418447
-0.0443461
-0.0369357
-0.0386239
-0.0284134
-0.0320035
-0.0642223
0.0448166
0.044178
-0.0705338
-0.0173488
-0.0273532
-0.00695033
-0.0306996
-0.00208444
-0.0436457
0.0419333
-0.0751025
0.035991
-0.0808691
0.0300979
-0.0896706
-0.0042019
-0.058984
0.0266036
-0.0976672
-0.00145124
-0.0652579
0.0234563
-0.100624
0.000622744
-0.0709009
-0.00290513
0.00147641
-0.0693521
0.0170611
-0.100236
0.00989918
-0.0943877
-0.00979993
0.0122175
-0.100092
0.00962743
0.0904169
-0.00269567
-0.071167
0.067331
-0.00558862
-0.0715435
-0.0105957
0.00182644
0.0847597
0.0434753
-0.0545384
0.00569856
-0.00523476
0.0659966
0.00614209
0.0650709
-0.0693416
0.032023
0.0446325
-0.0587538
0.0681471
-0.068567
-0.013013
-0.00926619
0.0714371
-0.0713899
-0.0156622
-0.0138771
0.0736945
-0.0757127
-0.0185504
-0.0156157
0.0776394
-0.0801902
-0.0202807
-0.0165825
0.0825883
-0.0856207
-0.0210802
-0.0177406
0.0882462
-0.0910934
-0.0196288
-0.0176685
0.0929191
-0.0938278
-0.0133319
-0.0146939
0.0931466
-0.0905076
-0.000229324
-0.00642107
0.0869959
-0.0819999
0.0154061
0.00669784
0.0775309
-0.0724419
0.0252567
0.0182151
0.0684746
-0.0644326
0.0270979
0.0230337
0.0616433
-0.0592057
0.0235332
0.0219353
0.0578734
-0.0571515
0.0179605
0.0177097
0.057167
-0.0576937
0.0125485
0.0129308
0.0583103
-0.0589525
0.00722111
0.00845593
0.0593393
-0.0597309
0.00129834
0.00367154
0.0602032
-0.0610593
-0.00441369
-0.00145386
0.0620485