/*--------------------------------*- C++ -*----------------------------------*\
  =========                 |
  \\      /  F ield         | OpenFOAM: The Open Source CFD Toolbox
   \\    /   O peration     | Website:  https://openfoam.org
    \\  /    A nd           | Version:  10
     \\/     M anipulation  |
\*---------------------------------------------------------------------------*/
FoamFile
{
    format      ascii;
    class       volScalarField;
    location    "30";
    object      p;
}
// * * * * * * * * * * * * * * * * * * * * * * * * * * * * * * * * * * * * * //

dimensions      [0 2 -2 0 0 0 0];

internalField   nonuniform List<scalar> 
28942
(
-0.00358533
-0.00294091
0.00227896
0.00983278
0.0101332
0.000146801
0.00041696
5.3599e-05
0.00303999
0.0031282
-0.00209495
-0.00236662
-0.00275958
-0.00267632
0.000272581
0.00064895
0.0101785
0.0104483
0.00587055
0.00742815
0.0084474
0.0084408
-0.0050701
-0.00488329
-0.0034139
-0.0036279
0.0141845
0.0141331
0.00380258
0.00375019
3.8052e-05
8.06466e-05
0.00106136
0.000451575
0.0074245
0.0086332
0.011178
0.013143
2.22943e-05
0.0153446
0.00943403
0.0119317
0.00249772
0.00245544
0.00247448
0.000404756
0.000246508
0.000324378
0.000374244
0.000531869
0.000976827
0.00317441
0.00324083
0.00316649
0.00332562
-0.00215325
-0.000854958
-0.00317675
-0.00302067
-0.00330065
-0.00337176
-0.00337227
-0.00326794
0.00011236
-0.00161755
-0.000123052
0.00122795
0.00972205
0.0092254
-0.00316652
-0.00338167
-0.00311087
0.00928292
0.00913633
0.00942776
-0.0012679
-0.000873775
-0.000515179
0.00262196
0.00302216
0.00210026
0.000991797
-0.00616791
-0.00741336
0.0013238
0.00406422
0.00511143
0.0059034
0.00427801
0.00440929
0.00638576
0.00575733
-0.00110573
-0.00141816
-0.00171384
-0.00153961
-0.0013497
0.00560716
0.00690446
-0.0077255
0.0116303
0.0108314
0.00612532
0.00972307
0.00123068
0.00116789
0.00105106
0.00577963
0.00597205
0.00596515
-0.00301621
-0.00293497
-0.00293171
-0.00240164
-0.00251487
0.0161394
0.0141324
0.0135701
0.0152046
0.00189333
0.00499703
0.00368732
0.00535024
0.0050291
0.0158138
0.0161079
0.0147626
0.00619833
0.00727887
0.000280622
0.000402907
0.000175144
0.0107968
0.0113019
0.00801116
0.0076635
0.0131201
0.00698027
0.00827688
0.00933661
-0.0016355
-0.00217284
0.00764783
0.00242849
0.00248324
-0.000957884
-0.00121384
-0.000740789
-0.00227809
0.00686784
0.00599228
0.00396294
0.00035615
0.000287543
0.000134708
0.000292996
0.00780982
0.00707466
-0.00159646
-0.00172185
-0.00161068
-0.00397449
-0.00350615
0.000112589
-0.00266414
-0.000296755
0.00868866
0.00879608
0.00989489
0.00942945
0.00800391
0.00345265
0.00337437
0.00358948
0.00347066
0.00535369
0.00513111
0.00546396
0.0056845
0.00561977
0.00568346
0.00589284
0.00644417
0.00613948
0.00573467
0.00606404
0.00677062
0.00752094
0.00781545
-0.000247769
-0.000239616
-0.00224383
0.000306163
0.00012096
-0.00173983
-0.00183381
0.000416523
0.000473722
0.000429922
0.000358953
0.00225751
0.0022409
0.00221789
-0.00270388
-0.00289834
-0.00254594
-0.00416104
-0.0046552
-0.00394817
-0.0045496
-0.006334
-0.00501474
0.0163335
0.0170456
0.016812
0.00130082
0.00144885
0.00132481
0.0106499
0.0102225
0.0103029
0.00174348
0.00172204
0.00176491
0.00170067
0.00167944
0.00165835
0.00165909
0.00163739
0.00163847
0.0016799
0.0017011
0.00172241
0.00174399
0.00176534
0.00161679
0.00161777
0.00178649
0.00178705
0.00180854
0.00159635
0.00159692
0.001809
0.00157575
0.00155525
0.00157635
0.00155586
0.00183018
0.00183087
0.00153483
0.00153547
0.00185204
0.00185295
0.00151452
0.00151515
0.00187422
0.00187521
0.00149428
0.00149491
0.00189659
0.00189763
0.00147417
0.0014747
0.00191918
0.00192022
0.00145412
0.00145457
0.00194207
0.00194284
0.00143412
0.00143452
0.00196496
0.00196568
0.00141414
0.00141449
0.00198835
0.00198889
0.0013942
0.00139436
0.00201183
0.00201234
0.00137437
0.00137399
0.00203593
0.00203618
0.00135413
0.00135373
0.00206026
0.00206047
0.0013332
0.0013333
0.00203523
0.00205962
0.00208513
0.00208507
0.00198744
0.00201132
0.00194113
0.00196438
0.00189591
0.00191842
0.00185133
0.00187356
0.00180716
0.00182922
0.00176431
0.00178595
0.00172158
0.0017427
0.00167922
0.00170041
0.00163707
0.00165815
0.00159568
0.00161634
0.00155463
0.00157512
0.00151396
0.00153426
0.00147362
0.00149376
0.00143357
0.00145357
0.00139379
0.00141366
0.00135359
0.00137393
0.00133316
0.00131254
0.00131265
0.00137423
0.00133365
0.00135401
0.00141459
0.00139446
0.00145464
0.00143463
0.00149491
0.00147474
0.00153547
0.00151515
0.00157637
0.00155588
0.00161766
0.00159696
0.00165934
0.00163858
0.00170131
0.00168037
0.00174393
0.00172249
0.00178721
0.00176562
0.00183084
0.00180875
0.0018752
0.00185296
0.00192018
0.00189762
0.00196588
0.00194291
0.00201248
0.00198898
0.00205998
0.00203606
0.00208454
0.00208445
0.00131255
0.00131309
0.00211017
0.00210935
0.0021095
0.00211021
0.00203421
0.0020829
0.0020584
0.00198654
0.00201028
0.00194047
0.00196335
0.00189532
0.00191781
0.0018508
0.00187298
0.00180691
0.00182878
0.00176355
0.00178523
0.00172084
0.00174231
0.00167877
0.00169955
0.00163671
0.00165769
0.00159533
0.00161597
0.00155432
0.00157478
0.00151367
0.00153395
0.00147335
0.00149348
0.00143333
0.00145331
0.00139358
0.00141342
0.00135353
0.00137365
0.00129184
0.00129201
0.00131288
0.00133333
0.00133419
0.00131394
0.00129275
0.001292
0.00137458
0.0013545
0.00141459
0.00139451
0.00145455
0.00143455
0.00149478
0.00147463
0.00153532
0.00151501
0.00157621
0.00155572
0.00161747
0.00159679
0.00165915
0.00163827
0.00170132
0.00168016
0.00174376
0.00172249
0.0017869
0.0017654
0.00183059
0.00180867
0.00187487
0.00185266
0.0019198
0.00189726
0.0019654
0.00194252
0.00201175
0.00198848
0.00205904
0.00203525
0.00210775
0.0020833
0.00210767
0.00213452
0.00213285
0.00213518
0.00129266
0.00129339
0.00213443
0.00213242
0.0021599
0.00215826
0.00213553
0.00131336
0.00129324
0.00127229
0.00127288
0.00212965
0.00215812
0.00218306
0.0021568
0.00208083
0.00210514
0.00203272
0.00205664
0.00198558
0.00200902
0.00193965
0.00196242
0.00189458
0.00191704
0.00185014
0.00187228
0.00180632
0.00182816
0.00176304
0.00178461
0.00172031
0.00174163
0.0016781
0.00169913
0.00163629
0.00165714
0.00159494
0.00161557
0.00155397
0.00157441
0.00151335
0.00153362
0.00147305
0.00149316
0.00143305
0.00145302
0.00139331
0.00141315
0.0013535
0.0013734
0.00133346
0.0012716
0.00127222
0.00127179
0.00127179
0.00133462
0.00129413
0.00131446
0.00137473
0.00135471
0.00141445
0.00139451
0.00145438
0.00143438
0.00149459
0.00147445
0.00153511
0.00151481
0.00157597
0.00155549
0.00161719
0.00159653
0.00165883
0.00163796
0.0017009
0.00167981
0.00174345
0.00172212
0.0017865
0.00176491
0.00183011
0.00180824
0.00187432
0.00185214
0.00191917
0.00189666
0.00196469
0.00194184
0.0020109
0.00198771
0.00205794
0.0020343
0.00210603
0.00208182
0.00215596
0.00213069
0.00218354
0.00218123
0.00215965
0.00216063
0.00127294
0.00127373
0.00218408
0.00218532
0.00220491
0.00220669
0.00220894
0.00219341
0.00224145
0.00216068
0.00217396
0.00219055
0.00212707
0.00215195
0.00207832
0.00210253
0.00203077
0.00205433
0.00198422
0.00200746
0.00193858
0.0019613
0.00189361
0.00191602
0.00184926
0.00187136
0.00180552
0.00182732
0.00176233
0.00178386
0.00171966
0.00174093
0.00167747
0.00169852
0.00163574
0.00165656
0.00159443
0.00161504
0.0015535
0.00157392
0.00151292
0.00153317
0.00147265
0.00149275
0.00143268
0.00145263
0.00139297
0.00141279
0.00135336
0.00137313
0.00131365
0.00133355
0.00127346
0.00129357
0.00125208
0.00125313
0.00125256
0.00125163
0.0012517
0.00125208
0.00125173
0.00125336
0.00125269
0.00129473
0.00125474
0.00127465
0.00133483
0.00131483
0.00137459
0.00135474
0.00141424
0.00139438
0.00145414
0.00143416
0.00149432
0.00147419
0.0015348
0.00151452
0.00157563
0.00155517
0.00161682
0.00159617
0.0016584
0.00163756
0.00170042
0.00167936
0.00174291
0.00172161
0.0017859
0.00176434
0.00182944
0.00180761
0.00187357
0.00185143
0.00191833
0.00189587
0.00196374
0.00194095
0.00200985
0.00198671
0.00205667
0.00203317
0.00210428
0.00208037
0.00215307
0.00212847
0.0022033
0.00217798
0.00223217
0.00222859
0.00218497
0.00218601
0.00220894
0.00221028
0.00127383
0.00125375
0.00123331
0.00123401
0.00223479
0.00223447
0.00226122
0.00220875
0.00225731
0.00225424
0.00223935
0.0021857
0.00216987
0.0021901
0.00212422
0.0021479
0.00207581
0.00209991
0.00202894
0.00205228
0.00198277
0.00200578
0.00193728
0.00195995
0.00189243
0.00191478
0.00184819
0.00187024
0.00180455
0.0018263
0.00176145
0.00178293
0.00171886
0.00174009
0.00167675
0.00169775
0.00163508
0.00165586
0.00159382
0.0016144
0.00155294
0.00157333
0.0015124
0.00153263
0.00147217
0.00149225
0.00143224
0.00145217
0.00139256
0.00141237
0.00135311
0.00137281
0.00131366
0.00133335
0.00129373
0.00123211
0.00123293
0.00123242
0.00123189
0.00123205
0.00123227
0.00123207
0.00123265
0.00129513
0.00125502
0.00127529
0.00133482
0.00131502
0.00137434
0.00135461
0.00141396
0.00139412
0.00145382
0.00143386
0.00149396
0.00147386
0.00153441
0.00151415
0.00157518
0.00155475
0.00161632
0.00159571
0.00165785
0.00163704
0.00169981
0.00167878
0.00174223
0.00172096
0.00178515
0.00176362
0.0018286
0.0018068
0.00187263
0.00185054
0.00191727
0.00189487
0.00196255
0.00193983
0.00200851
0.00198545
0.00205517
0.00203175
0.0021025
0.00207875
0.00215059
0.00212649
0.00219971
0.00217471
0.00225077
0.0022253
0.00227976
0.00227633
0.00221043
0.002211
0.00123337
0.0012348
0.0022354
0.00224075
0.00225574
0.00223556
0.00225943
0.00226293
0.00228681
0.00228003
0.00228272
0.00230518
0.00230241
0.0022109
0.00221453
0.00226752
0.002243
0.00216761
0.00218965
0.0021213
0.00214529
0.00207374
0.00209737
0.00202709
0.00205034
0.0019811
0.00200402
0.00193576
0.00195835
0.00189105
0.00191333
0.00184695
0.00186893
0.00180341
0.00182511
0.00176042
0.00178185
0.00171792
0.00173911
0.00167589
0.00169685
0.00163429
0.00165504
0.0015931
0.00161365
0.00155228
0.00157265
0.00151179
0.001532
0.00147162
0.00149167
0.00143173
0.00145164
0.0013921
0.00141188
0.0013527
0.00137237
0.00131342
0.00133307
0.00127386
0.00129369
0.00123366
0.00125396
0.00121284
0.00121334
0.00121298
0.00121255
0.00121263
0.00121257
0.0012125
0.00121273
0.00121265
0.00121337
0.00121299
0.00121475
0.00121397
0.00125546
0.00121551
0.0012355
0.00129525
0.00127547
0.00133468
0.00131498
0.00137404
0.00135434
0.00141361
0.00139379
0.00145343
0.00143349
0.00149353
0.00147345
0.00153392
0.00151369
0.00157464
0.00155424
0.00161572
0.00159514
0.00165718
0.0016364
0.00169907
0.00167807
0.0017414
0.00172018
0.00178423
0.00176276
0.00182758
0.00180584
0.00187149
0.00184946
0.00191599
0.00189367
0.00196112
0.00193848
0.00200691
0.00198393
0.00205336
0.00203005
0.00210049
0.00207684
0.00214824
0.00212431
0.00219663
0.00217233
0.00224569
0.00222114
0.00229644
0.0022705
0.00232788
0.00232266
0.00223573
0.00228979
0.0022599
0.00123402
0.0012141
0.00119468
0.00119527
0.00223609
0.00226062
0.00228314
0.00228465
0.00230793
0.00233118
0.00235313
0.00234831
0.00223601
0.00226484
0.00231327
0.00231058
0.00228812
0.00221376
0.0022403
0.0021653
0.00218869
0.00211856
0.00214239
0.00207139
0.00209485
0.00202496
0.0020481
0.00197917
0.00200199
0.00193402
0.00195652
0.00188948
0.00191167
0.00184552
0.00186743
0.00180212
0.00182375
0.00175924
0.00178062
0.00171685
0.00173798
0.00167491
0.00169582
0.0016334
0.0016541
0.00159228
0.00161279
0.00155153
0.00157186
0.00151111
0.00153128
0.00147099
0.00149101
0.00143115
0.00145104
0.00139157
0.00141133
0.00135222
0.00137186
0.00131307
0.00133262
0.00127377
0.00129343
0.00125393
0.00119302
0.00119323
0.00119312
0.00119311
0.00119309
0.00119332
0.00119321
0.00119343
0.00119339
0.00119371
0.00119356
0.00119411
0.00125585
0.00121603
0.00123598
0.00129514
0.00127553
0.00133436
0.00131478
0.00137367
0.00135399
0.0014132
0.00139341
0.00145297
0.00143306
0.00149301
0.00147296
0.00153335
0.00151314
0.00157401
0.00155364
0.00161501
0.00159446
0.0016564
0.00163566
0.0016982
0.00167725
0.00174044
0.00171926
0.00178316
0.00176174
0.00182638
0.00180471
0.00187016
0.0018482
0.00191451
0.00189226
0.00195946
0.00193691
0.00200504
0.00198218
0.00205126
0.00202808
0.00209813
0.00207462
0.0021456
0.0021218
0.00219361
0.00216956
0.00224202
0.00221777
0.00229153
0.00226646
0.00234206
0.00231645
0.00230653
0.00231051
0.00237364
0.00236757
0.00226046
0.00119433
0.00119583
0.00233294
0.00226118
0.00233842
0.00228522
0.00228595
0.00231042
0.00231022
0.00233372
0.00235625
0.00237813
0.00239874
0.00239307
0.00226106
0.00230564
0.00235781
0.00235482
0.002329
0.00225973
0.00228372
0.00221081
0.00223517
0.0021623
0.00218617
0.0021155
0.00213907
0.0020687
0.00209201
0.00202255
0.00204555
0.001977
0.0019997
0.00193206
0.00195446
0.00188771
0.00190982
0.00184392
0.00186575
0.00180067
0.00182223
0.00175792
0.00177923
0.00171564
0.00173672
0.00167381
0.00169467
0.00163239
0.00165305
0.00159136
0.00161183
0.00155069
0.00157098
0.00151034
0.00153047
0.00147028
0.00149028
0.00143051
0.00145036
0.00139098
0.00141071
0.00135168
0.0013713
0.00131259
0.00133211
0.00127356
0.00129309
0.00123424
0.0012539
0.00119454
0.00121456
0.00117375
0.00117442
0.00117402
0.00117365
0.00117362
0.00117385
0.00117372
0.0011741
0.00117399
0.00117419
0.00117417
0.00117431
0.0011742
0.00117474
0.00117445
0.00117581
0.00117512
0.00121637
0.00117648
0.0011965
0.00125587
0.00123616
0.00129492
0.00127545
0.00133399
0.00131444
0.00137324
0.00135359
0.00141272
0.00139296
0.00145244
0.00143255
0.00149242
0.0014724
0.00153269
0.00151252
0.00157327
0.00155294
0.0016142
0.00159369
0.0016555
0.0016348
0.0016972
0.0016763
0.00173933
0.00171821
0.00178193
0.00176057
0.00182502
0.00180341
0.00186864
0.00184677
0.00191282
0.00189066
0.00195758
0.00193513
0.00200293
0.00198018
0.00204889
0.00202584
0.00209545
0.0020721
0.00214258
0.00211895
0.00219022
0.00216635
0.00223822
0.00221419
0.0022865
0.00226239
0.00233526
0.0023106
0.00238526
0.00236044
0.00233056
0.0023388
0.00241706
0.00240911
0.00228591
0.00228656
0.00237778
0.00238195
0.00236278
0.00231023
0.0023115
0.00119478
0.00117505
0.00115591
0.00115652
0.00233721
0.00233573
0.00235908
0.00238129
0.00240281
0.00242259
0.00240034
0.00239631
0.00241766
0.00244118
0.00243495
0.0024249
0.00228651
0.00235156
0.00237284
0.00230084
0.00232533
0.00225446
0.00227843
0.0022063
0.00223012
0.00215893
0.00218258
0.00211212
0.00213549
0.00206572
0.00208886
0.00201988
0.00204274
0.00197461
0.00199718
0.00192991
0.00195219
0.00188576
0.00190777
0.00184215
0.00186389
0.00179906
0.00182054
0.00175645
0.0017777
0.00171431
0.00173533
0.00167259
0.0016934
0.00163128
0.00165189
0.00159035
0.00161077
0.00154976
0.00157001
0.00150949
0.00152958
0.00146951
0.00148946
0.0014298
0.00144962
0.00139033
0.00141004
0.00135109
0.00137068
0.00131205
0.00133154
0.00127319
0.0012926
0.00123418
0.0012537
0.00121456
0.00115412
0.00115456
0.00115423
0.00115435
0.00115425
0.00115467
0.00115451
0.00115491
0.00115481
0.001155
0.00115497
0.001155
0.00115499
0.00115524
0.0011551
0.00115551
0.00121659
0.00117709
0.00119689
0.0012557
0.00123614
0.00129455
0.00127512
0.00133356
0.00131403
0.00137276
0.00135314
0.00141218
0.00139245
0.00145183
0.00143198
0.00149175
0.00147176
0.00153194
0.00151181
0.00157244
0.00155215
0.00161328
0.00159282
0.00165448
0.00163384
0.00169608
0.00167523
0.00173809
0.00171703
0.00178055
0.00175927
0.0018235
0.00180197
0.00186695
0.00184516
0.00191094
0.00188888
0.00195547
0.00193314
0.00200058
0.00197796
0.00204626
0.00202335
0.00209249
0.00206931
0.00213923
0.0021158
0.00218644
0.00216279
0.00223396
0.00221017
0.00228162
0.00225782
0.00232919
0.00230545
0.00237633
0.00235292
0.00242548
0.00239972
0.00240555
0.00245726
0.00246551
0.00248004
0.00247217
0.00244701
0.00235462
0.00236856
0.00231157
0.00231217
0.00115522
0.001157
0.00239001
0.00233654
0.00233716
0.00236317
0.00236134
0.00238451
0.0024066
0.00242697
0.00244569
0.0024397
0.00243155
0.00245256
0.00246083
0.00248422
0.00249549
0.00246168
0.00244791
0.00243201
0.00248616
0.00250155
0.0023122
0.00239017
0.00240937
0.00234361
0.00236585
0.00229544
0.00231985
0.00224869
0.00227205
0.00220173
0.00222524
0.00215492
0.00217829
0.0021085
0.00213166
0.0020625
0.00208544
0.00201699
0.00203968
0.00197201
0.00199443
0.00192755
0.00194972
0.00188363
0.00190553
0.00184022
0.00186186
0.0017973
0.0018187
0.00175485
0.00177602
0.00171285
0.0017338
0.00167126
0.00169201
0.00163007
0.00165062
0.00158924
0.00160961
0.00154874
0.00156895
0.00150856
0.00152861
0.00146866
0.00148857
0.00142902
0.00144881
0.00138962
0.00140929
0.00135044
0.00137001
0.00131146
0.00133093
0.00127266
0.00129204
0.00123391
0.00125331
0.00119501
0.00121446
0.0011556
0.00117532
0.00113501
0.00113574
0.00113533
0.00113484
0.00113476
0.00113517
0.00113497
0.00113552
0.00113536
0.00113574
0.00113564
0.00113584
0.00113581
0.00113583
0.00113584
0.00113586
0.00113586
0.00113622
0.00113597
0.001137
0.00113657
0.00117724
0.00113753
0.00115752
0.00121657
0.00119698
0.00125535
0.00123599
0.00129412
0.00127471
0.00133308
0.00131358
0.00137222
0.00135263
0.00141158
0.00139188
0.00145116
0.00143134
0.001491
0.00147105
0.00153111
0.00151102
0.00157152
0.00155128
0.00161226
0.00159185
0.00165336
0.00163277
0.00169483
0.00167405
0.00173672
0.00171572
0.00177903
0.00175782
0.00182181
0.00180037
0.00186508
0.00184339
0.00190886
0.00188691
0.00195316
0.00193095
0.001998
0.00197552
0.00204337
0.00202062
0.00208925
0.00206625
0.00213559
0.00211237
0.00218233
0.00215892
0.00222932
0.00220581
0.00227641
0.00225288
0.00232331
0.00229993
0.00236951
0.00234653
0.0024149
0.00239252
0.00243604
0.0023771
0.00239555
0.00251615
0.00250539
0.00233746
0.00233794
0.00241262
0.00236232
0.00236289
0.00115572
0.00113607
0.00111712
0.00111751
0.00238892
0.00238697
0.00240996
0.0024316
0.00245175
0.00247044
0.00247354
0.00246471
0.00248749
0.00249537
0.00248596
0.00246965
0.00245543
0.00250915
0.00252112
0.00252484
0.00253552
0.00233807
0.00242508
0.00244091
0.00238147
0.00240409
0.00233509
0.00235846
0.00228937
0.0023124
0.0022432
0.00226628
0.00219687
0.00222007
0.00215059
0.0021737
0.00210462
0.00212757
0.00205903
0.00208178
0.00201387
0.00203639
0.00196919
0.00199147
0.00192501
0.00194704
0.00188133
0.00190311
0.00183813
0.00185967
0.0017954
0.00181671
0.00175312
0.00177421
0.00171127
0.00173215
0.00166982
0.0016905
0.00162875
0.00164924
0.00158803
0.00160835
0.00154764
0.0015678
0.00150755
0.00152756
0.00146774
0.00148761
0.00142818
0.00144793
0.00138886
0.00140849
0.00134975
0.00136928
0.00131083
0.00133027
0.00127209
0.00129144
0.0012335
0.00125278
0.00119485
0.00121413
0.00117537
0.00111548
0.00111592
0.00111568
0.00111563
0.00111554
0.00111605
0.00111584
0.00111639
0.00111624
0.0011166
0.00111651
0.00111671
0.00111667
0.00111669
0.00111672
0.0011166
0.00111665
0.00111665
0.00111662
0.00111679
0.00117734
0.00113797
0.0011578
0.00121634
0.00119685
0.00125493
0.00123563
0.00129366
0.00127427
0.00133255
0.00131308
0.00137163
0.00135207
0.00141091
0.00139125
0.00145042
0.00143064
0.00149017
0.00147027
0.0015302
0.00151015
0.00157052
0.00155032
0.00161115
0.00159079
0.00165213
0.0016316
0.00169347
0.00167275
0.00173521
0.00171429
0.00177737
0.00175624
0.00181998
0.00179862
0.00186305
0.00184146
0.0019066
0.00188477
0.00195065
0.00192857
0.00199521
0.00197287
0.00204025
0.00201767
0.00208575
0.00206295
0.00213167
0.00210867
0.00217791
0.00215476
0.00222435
0.00220112
0.0022708
0.0022476
0.002317
0.00229396
0.00236253
0.00233988
0.00240677
0.00238495
0.00244921
0.00242822
0.00249275
0.00247148
0.00254295
0.00253129
0.00251001
0.00240095
0.00241929
0.00236316
0.00236375
0.00111621
0.00111811
0.00243896
0.00238811
0.00238864
0.00241462
0.00241257
0.00243529
0.00245656
0.00247609
0.00249364
0.00250612
0.00249544
0.00251148
0.00251672
0.0025324
0.00254912
0.00252352
0.00251868
0.00250557
0.00249433
0.00247731
0.00253071
0.00254271
0.00255324
0.00255954
0.00236388
0.00245868
0.00247843
0.0024158
0.00243391
0.00237198
0.00239519
0.00232788
0.00235004
0.00228295
0.00230553
0.00223745
0.00226023
0.00219172
0.00221461
0.002146
0.00216884
0.00210051
0.00212322
0.00205533
0.00207788
0.00201054
0.00203289
0.00196619
0.00198831
0.00192229
0.00194419
0.00187886
0.00190052
0.00183589
0.00185732
0.00179336
0.00181457
0.00175126
0.00177226
0.00170957
0.00173037
0.00166827
0.00168888
0.00162734
0.00164776
0.00158674
0.001607
0.00154646
0.00156656
0.00150647
0.00152643
0.00146675
0.00148658
0.00142728
0.00144699
0.00138804
0.00140763
0.001349
0.00136849
0.00131015
0.00132955
0.00127147
0.00129079
0.00123295
0.00125219
0.00119454
0.00121373
0.00115569
0.00117512
0.00111629
0.0011362
0.00109624
0.00109647
0.00109624
0.00109623
0.00109617
0.00109653
0.00109631
0.00109697
0.00109676
0.00109728
0.00109714
0.00109749
0.0010974
0.0010976
0.00109756
0.0010976
0.00109761
0.0010975
0.00109756
0.00109736
0.00109742
0.00109761
0.00109744
0.00109846
0.00109794
0.00113825
0.00109907
0.00111876
0.00117729
0.00115786
0.00121596
0.00119664
0.00125448
0.0012352
0.00129315
0.00127379
0.00133197
0.00131254
0.00137098
0.00135146
0.00141019
0.00139056
0.00144961
0.00142987
0.00148928
0.00146942
0.00152921
0.00150921
0.00156942
0.00154928
0.00160994
0.00158964
0.00165079
0.00163032
0.001692
0.00167135
0.00173359
0.00171275
0.00177558
0.00175453
0.00181799
0.00179673
0.00186085
0.00183937
0.00190417
0.00188246
0.00194796
0.00192601
0.0019922
0.00197003
0.0020369
0.0020145
0.00208202
0.00205942
0.00212749
0.00210472
0.00217322
0.00215034
0.00221908
0.00219615
0.00226487
0.002242
0.0023103
0.00228766
0.00235501
0.00233278
0.00239848
0.00237697
0.00244002
0.00241956
0.00247897
0.00246008
0.00249608
0.0024254
0.00244533
0.00256446
0.00255214
0.00238889
0.00238957
0.00246307
0.00241382
0.00241437
0.00111657
0.00109702
0.00107879
0.0010792
0.0024402
0.00243809
0.00246046
0.00248121
0.00250006
0.00251673
0.00252633
0.00251256
0.00252583
0.00254181
0.00254081
0.0025367
0.00252892
0.00251452
0.00250163
0.00255201
0.00256216
0.00256945
0.00257501
0.00256198
0.00257323
0.0023897
0.00248416
0.00249757
0.002446
0.00246683
0.00240497
0.00242573
0.00236351
0.00238462
0.00232043
0.00234213
0.00227622
0.00229844
0.00223141
0.00225387
0.00218631
0.00220889
0.00214117
0.00216373
0.00209616
0.00211864
0.00205142
0.00207376
0.00200702
0.00202917
0.001963
0.00198496
0.0019194
0.00194115
0.00187624
0.00189777
0.0018335
0.00185482
0.00179119
0.00181229
0.00174928
0.00177019
0.00170777
0.00172848
0.00166662
0.00168715
0.00162582
0.00164618
0.00158536
0.00160555
0.00154519
0.00156524
0.00150531
0.00152522
0.0014657
0.00148547
0.00142632
0.00144598
0.00138716
0.00140671
0.0013482
0.00136766
0.00130943
0.0013288
0.00127082
0.0012901
0.00123236
0.00125157
0.00119404
0.00121318
0.00115552
0.00117479
0.00113606
0.00107672
0.00107683
0.00107672
0.00107704
0.0010769
0.00107749
0.00107725
0.0010779
0.00107771
0.0010782
0.00107806
0.00107841
0.00107832
0.00107852
0.00107848
0.00107853
0.00107854
0.00107845
0.0010785
0.00107829
0.00107837
0.00107825
0.00107827
0.00107838
0.00113843
0.00109943
0.00111913
0.00117708
0.0011578
0.00121553
0.00119634
0.00125399
0.00123474
0.00129259
0.00127327
0.00133135
0.00131195
0.00137028
0.00135079
0.0014094
0.00138982
0.00144874
0.00142905
0.00148831
0.0014685
0.00152814
0.00150819
0.00156824
0.00154815
0.00160863
0.0015884
0.00164935
0.00162895
0.00169041
0.00166984
0.00173184
0.00171108
0.00177365
0.0017527
0.00181587
0.00179471
0.0018585
0.00183714
0.00190157
0.00187999
0.00194508
0.00192327
0.00198901
0.00196699
0.00203335
0.00201113
0.00207806
0.00205567
0.00212307
0.00210054
0.00216828
0.00214566
0.00221354
0.00219092
0.00225865
0.00223614
0.00230332
0.00228107
0.00234718
0.00232539
0.00238972
0.00236866
0.0024304
0.00241034
0.00246813
0.00244974
0.00250218
0.00248572
0.00253553
0.00251765
0.00257425
0.00255863
0.00254543
0.00244974
0.00247018
0.00241462
0.00241538
0.00107743
0.00107975
0.00248675
0.00243946
0.00244004
0.00246562
0.00246348
0.00248541
0.00250552
0.00252354
0.00253917
0.00253992
0.0025266
0.00253493
0.0025438
0.00255073
0.00256669
0.00255183
0.00255695
0.00255631
0.00255461
0.00254752
0.00253812
0.00252402
0.00257221
0.00258042
0.00258516
0.00258766
0.00258509
0.00258161
0.00241551
0.00250514
0.00251788
0.00247169
0.00248327
0.00243365
0.00245492
0.00239536
0.00241473
0.00235492
0.00237542
0.00231265
0.00233396
0.00226923
0.00229106
0.00222514
0.00224725
0.00218068
0.00220294
0.00213611
0.0021584
0.00209161
0.00211385
0.00204731
0.00206943
0.0020033
0.00202527
0.00195964
0.00198143
0.00191636
0.00193795
0.00187347
0.00189486
0.00183098
0.00185217
0.00178889
0.00180989
0.00174718
0.00176799
0.00170585
0.00172647
0.00166487
0.00168531
0.00162422
0.0016445
0.00158389
0.00160402
0.00154385
0.00156384
0.00150409
0.00152394
0.00146458
0.0014843
0.0014253
0.00144491
0.00138623
0.00140574
0.00134736
0.00136677
0.00130866
0.00132799
0.00127013
0.00128938
0.00123173
0.00125091
0.00119347
0.00121258
0.00115521
0.00117437
0.00111669
0.00113593
0.00107765
0.00109731
0.00105753
0.00105783
0.00105762
0.00105761
0.00105748
0.00105802
0.00105779
0.00105848
0.00105826
0.00105886
0.00105868
0.00105915
0.00105901
0.00105935
0.00105926
0.00105946
0.00105941
0.00105948
0.00105948
0.00105942
0.00105946
0.00105927
0.00105936
0.00105908
0.00105916
0.00105931
0.00105913
0.00106026
0.00105969
0.00109971
0.0010608
0.0010803
0.00113841
0.00111918
0.00117679
0.00115758
0.00121507
0.00119592
0.00125347
0.00123425
0.00129199
0.00127271
0.00133068
0.00131132
0.00136953
0.00135008
0.00140856
0.00138902
0.00144781
0.00142816
0.00148728
0.00146751
0.00152699
0.0015071
0.00156697
0.00154695
0.00160724
0.00158707
0.00164782
0.00162749
0.00168872
0.00166823
0.00172998
0.00170931
0.0017716
0.00175074
0.00181361
0.00179256
0.00185601
0.00183476
0.00189882
0.00187737
0.00194203
0.00192038
0.00198563
0.00196379
0.0020296
0.00200758
0.00207389
0.00205172
0.00211843
0.00209614
0.00216311
0.00214076
0.00220777
0.00218546
0.00225219
0.00223003
0.0022961
0.00227424
0.00233911
0.00231775
0.00238073
0.00236014
0.00242039
0.00240085
0.00245724
0.00243924
0.00249021
0.00247435
0.00251858
0.00250518
0.00252983
0.00247397
0.00249463
0.00257568
0.00256176
0.00244031
0.00244113
0.00251051
0.00246496
0.00246558
0.00107779
0.0010584
0.00104071
0.00104125
0.00249083
0.00248866
0.00251003
0.0025294
0.00254643
0.00256084
0.00254511
0.00253087
0.00253335
0.002548
0.00256498
0.00256829
0.0025726
0.00256774
0.00256572
0.00255727
0.00254597
0.00259129
0.00259742
0.00260022
0.00259795
0.00259534
0.00258782
0.00256344
0.00257734
0.00244126
0.00251452
0.00251647
0.00249156
0.00250614
0.00245823
0.0024721
0.00242286
0.00244194
0.00238569
0.0024045
0.00234608
0.00236617
0.00230466
0.00232555
0.00226204
0.00228347
0.00221867
0.00224043
0.00217485
0.0021968
0.00213086
0.00215287
0.00208687
0.00210886
0.00204303
0.00206493
0.00199942
0.00202119
0.00195612
0.00197773
0.00191315
0.00193459
0.00187055
0.00189181
0.00182832
0.00184939
0.00178646
0.00180735
0.00174497
0.00176567
0.00170382
0.00172435
0.00166302
0.00168338
0.00162253
0.00164273
0.00158234
0.0016024
0.00154244
0.00156236
0.00150279
0.00152258
0.00146339
0.00148307
0.00142422
0.00144378
0.00138525
0.00140471
0.00134647
0.00136584
0.00130785
0.00132714
0.00126939
0.00128861
0.00123107
0.00125022
0.00119288
0.00121196
0.00115479
0.00117383
0.00111651
0.00113561
0.00109723
0.00103821
0.00103834
0.00103822
0.00103857
0.0010384
0.00103905
0.00103881
0.00103948
0.00103928
0.00103984
0.00103967
0.00104011
0.00103999
0.00104031
0.00104022
0.00104042
0.00104038
0.00104045
0.00104045
0.00104041
0.00104044
0.00104028
0.00104036
0.00104009
0.00104019
0.00104006
0.00104006
0.00104028
0.00109992
0.00106129
0.00108062
0.00113824
0.00111906
0.00117638
0.0011573
0.00121458
0.00119547
0.0012529
0.00123373
0.00129136
0.00127212
0.00132996
0.00131064
0.00136872
0.00134932
0.00140767
0.00138817
0.00144681
0.00142722
0.00148617
0.00146647
0.00152577
0.00150594
0.00156563
0.00154567
0.00160576
0.00158566
0.00164619
0.00162594
0.00168693
0.00166652
0.001728
0.00170743
0.00176943
0.00174867
0.00181122
0.00179028
0.00185338
0.00183225
0.00189591
0.0018746
0.00193882
0.00191733
0.00198209
0.00196042
0.00202568
0.00200385
0.00206954
0.00204758
0.0021136
0.00209155
0.00215773
0.00213567
0.00220178
0.00217978
0.00224553
0.00222372
0.00228868
0.00226721
0.00233086
0.00230993
0.00237157
0.00235144
0.00241022
0.0023912
0.00244606
0.00242856
0.00247818
0.00246265
0.0025054
0.00249258
0.0025266
0.00251686
0.0025453
0.00253415
0.0025629
0.00254902
0.002548
0.00249791
0.00251842
0.00246587
0.00246676
0.00103887
0.00104159
0.00253364
0.00249024
0.00249092
0.00251576
0.00251353
0.00253424
0.0025527
0.00256861
0.00258158
0.0025339
0.00252435
0.00252615
0.00254803
0.00255852
0.00256961
0.00258172
0.0025827
0.00258504
0.00258107
0.00257543
0.00256606
0.00260903
0.00261302
0.00261311
0.00260978
0.0026022
0.00259054
0.00257608
0.0025332
0.00255212
0.00253463
0.00246689
0.00252008
0.0025154
0.00249892
0.0025071
0.00247627
0.00248931
0.00244499
0.00246102
0.00241215
0.00242916
0.00237584
0.00239432
0.00233709
0.00235674
0.00229652
0.002317
0.00225469
0.00227574
0.00221202
0.00223344
0.00216885
0.00219048
0.00212543
0.00214716
0.00208196
0.00210369
0.00203858
0.00206025
0.00199538
0.00201695
0.00195244
0.00197388
0.00190981
0.00193109
0.00186751
0.00188862
0.00182554
0.00184648
0.00178392
0.00180469
0.00174265
0.00176324
0.0017017
0.00172213
0.00166107
0.00168135
0.00162075
0.00164088
0.00158071
0.0016007
0.00154095
0.0015608
0.00150143
0.00152116
0.00146215
0.00148177
0.00142309
0.00144259
0.00138422
0.00140363
0.00134553
0.00136485
0.001307
0.00132625
0.00126863
0.0012878
0.00123038
0.00124949
0.00119226
0.00121131
0.00115424
0.00117324
0.00111617
0.00113518
0.00107795
0.00109712
0.00103903
0.0010586
0.00101913
0.00101935
0.0010192
0.0010192
0.00101908
0.00101962
0.00101938
0.0010201
0.00101987
0.0010205
0.00102031
0.00102084
0.00102068
0.0010211
0.00102098
0.00102129
0.0010212
0.0010214
0.00102136
0.00102144
0.00102143
0.00102141
0.00102144
0.00102131
0.00102137
0.00102113
0.00102123
0.00102101
0.00102103
0.00102126
0.00102104
0.0010221
0.00102157
0.00106137
0.00102255
0.00104199
0.00109983
0.00108066
0.00113789
0.00111889