/*--------------------------------*- C++ -*----------------------------------*\
  =========                 |
  \\      /  F ield         | OpenFOAM: The Open Source CFD Toolbox
   \\    /   O peration     | Website:  https://openfoam.org
    \\  /    A nd           | Version:  10
     \\/     M anipulation  |
\*---------------------------------------------------------------------------*/
FoamFile
{
    format      ascii;
    class       volVectorField;
    location    "30";
    object      U;
}
// * * * * * * * * * * * * * * * * * * * * * * * * * * * * * * * * * * * * * //

dimensions      [0 1 -1 0 0 0 0];

internalField   nonuniform List<vector> 
28942
(
(0.00455624 -0.00231955 -3.23447e-22)
(0.00616661 -0.00241081 -5.9078e-23)
(0.0180769 -0.012477 -8.83014e-22)
(0.103304 0.0182421 -5.44326e-21)
(0.102341 0.0222835 1.78052e-21)
(0.0201203 0.00069554 0)
(0.023957 0.000279929 1.73423e-23)
(0.0276267 0.000895719 -1.54512e-23)
(0.135187 -0.0171646 -2.84908e-22)
(0.133772 -0.0155318 8.0865e-22)
(0.0102647 0.00427311 -6.15001e-22)
(0.0167291 0.00596363 2.26728e-22)
(0.00745726 0.00332687 0)
(0.00495008 0.00219447 0)
(0.0600142 0.00241296 -2.25406e-23)
(0.0578514 0.00323079 -8.04939e-24)
(0.0893681 0.0158629 6.87419e-22)
(0.0870543 0.0138431 1.1053e-21)
(0.0122014 -0.0151521 3.05389e-21)
(0.0294258 -0.030545 -8.04294e-22)
(0.0982806 0.0372648 9.85322e-22)
(0.0974362 0.0343112 0)
(0.0192195 0.00485254 1.12837e-21)
(0.00809345 0.00247031 5.26785e-22)
(0.0384799 0.00749923 9.01238e-22)
(0.0584021 0.0031741 -8.216e-22)
(0.00766325 -0.0184993 8.69637e-21)
(0.00670598 -0.0165615 -3.19896e-21)
(0.0356965 -0.0254243 6.12507e-22)
(0.0193967 -0.0137399 2.12362e-22)
(0.0205921 -0.00194192 0)
(0.0257493 -0.00179376 -1.95828e-23)
(0.0324156 0.00548503 4.06935e-22)
(0.0459635 0.00223284 -7.18967e-23)
(0.0188961 0.0180671 1.362e-21)
(0.0157746 0.019178 -1.37033e-21)
(0.032279 0.0377241 -3.13677e-21)
(0.0187274 0.0306255 -1.09005e-21)
(0.0111817 0.000122704 -1.4425e-23)
(0.00867726 0.0162463 -2.67648e-21)
(0.0306463 -0.00620344 0)
(0.0513387 -0.0109702 0)
(0.110381 -0.0182876 -3.89133e-23)
(0.109946 -0.0179989 1.16209e-22)
(0.112655 -0.0179878 9.97904e-23)
(0.0385913 0.000417706 1.7466e-23)
(0.0359762 -0.000544329 -2.86538e-23)
(0.0506166 -0.000522076 -1.23471e-22)
(0.0486042 -0.000583015 3.48764e-23)
(0.0398871 -0.00336471 -3.00372e-22)
(0.0301164 -0.00419725 1.9277e-22)
(0.127491 0.00244289 -4.58392e-22)
(0.126916 0.00195856 -4.2326e-22)
(0.134576 -0.0200339 -3.87605e-24)
(0.132961 -0.0183124 1.53228e-22)
(0.0841939 0.00715773 6.78261e-22)
(0.103552 0.00010315 2.23274e-22)
(0.00320401 0.00170476 -5.33937e-22)
(0.00929283 0.00385868 0)
(0.00855143 0.00343674 2.27129e-22)
(0.00301302 0.00156244 4.60052e-22)
(0.000392443 0.000245345 -3.83915e-22)
(0.000215831 0.000136629 -3.65824e-22)
(0.110652 -0.0425612 0)
(0.105985 -0.0254519 1.11619e-22)
(0.122819 -0.0327484 -3.50125e-23)
(0.124253 -0.043478 0)
(0.0902186 -0.0326914 -6.5773e-22)
(0.0937329 -0.0351376 -4.32908e-22)
(0.0019418 -0.00115944 1.06815e-21)
(0.00256655 -0.00207018 -3.36852e-22)
(0.00501395 -0.003239 8.35831e-22)
(0.0850486 -0.0456675 0)
(0.0913534 -0.0395009 2.23586e-21)
(0.0807469 -0.0529675 6.05037e-22)
(0.115565 0.0118167 2.02432e-22)
(0.114343 0.0061512 -2.25927e-22)
(0.126597 0.0100704 -7.70676e-23)
(0.00472015 -0.00288364 -5.70144e-23)
(0.00638872 -0.00445923 4.92628e-22)
(0.0513973 -0.0313054 1.42211e-22)
(0.0334376 -0.0206836 -2.681e-22)
(0.00217144 -0.000626289 3.14013e-21)
(0.0052754 -0.00213723 -1.22465e-21)
(0.101693 0.0482896 2.39303e-23)
(0.0976042 0.0552812 -8.08104e-22)
(0.0811613 0.0541423 7.40889e-22)
(0.0474644 0.0346478 -2.81913e-21)
(0.0446917 0.0317473 1.99706e-21)
(0.0296549 0.0206921 -1.21031e-22)
(0.0328846 0.023351 -6.69582e-22)
(0.0381467 0.0284721 9.0952e-22)
(0.00468177 0.00299352 -4.92594e-23)
(0.00822734 0.00433663 -1.47028e-23)
(0.00338279 0.00216541 2.94627e-23)
(0.00204247 0.00177744 -3.88427e-22)
(0.001543 0.00171599 4.72512e-22)
(0.0158183 0.0115937 -3.40515e-21)
(0.0175747 0.0136893 7.82602e-22)
(0.00897494 -0.00393907 0)
(0.101389 0.0051608 0)
(0.0983999 0.0156858 -4.06728e-21)
(0.060435 0.0104758 2.03147e-21)
(0.0886733 0.0178828 0)
(0.136327 -0.00379531 0)
(0.13576 -0.0046252 0)
(0.134342 -0.00506468 -3.69393e-22)
(0.115065 0.0261847 -2.2369e-22)
(0.114172 0.027619 2.20588e-21)
(0.113349 0.0250875 1.18362e-21)
(0.00241886 0.00137315 9.87706e-22)
(0.00160677 0.000827389 -1.1086e-21)
(0.0195626 -0.00573196 -5.14942e-22)
(0.0207627 -0.00529776 4.32916e-22)
(0.0093979 -0.0030337 8.51084e-22)
(0.00649121 0.0111887 1.50717e-21)
(0.0190078 0.0182205 3.52796e-21)
(0.0135008 0.0228703 2.72959e-22)
(0.00493365 0.0143507 -8.79583e-21)
(0.117755 0.047618 6.06363e-23)
(0.108378 0.0581628 1.13787e-21)
(0.118915 0.0547008 -1.96304e-21)
(0.0392655 -0.0295164 7.63328e-22)
(0.0241137 -0.0173291 -4.94557e-22)
(0.00532755 -0.000723401 -4.18286e-21)
(0.0045436 -0.00357893 0)
(0.012514 -0.001646 2.04613e-21)
(0.0220507 -0.0161856 8.07556e-22)
(0.0343891 -0.0278681 -2.03909e-21)
(0.0480421 4.66917e-05 8.81214e-23)
(0.0509104 0.000214563 -6.10094e-23)
(0.0452524 0.000265029 -2.70734e-24)
(0.0281415 -0.0420294 0)
(0.0296886 -0.0428968 0)
(0.0896125 -0.018657 -4.85654e-22)
(0.0995798 -0.0220963 3.28777e-21)
(0.0870304 -0.02528 0)
(0.0472982 -0.0402843 0)
(0.0583883 -0.0514632 -8.14456e-22)
(0.041468 0.0394509 2.14351e-21)
(3.67494e-06 0.000225536 4.58353e-22)
(-0.000197923 0.000135832 -2.94716e-22)
(0.0224037 -0.0192976 -8.2229e-22)
(0.115367 -0.0177239 5.68441e-22)
(0.114758 -0.0175349 -1.07953e-22)
(0.117207 -0.00464434 -5.60037e-23)
(0.110334 0.00221453 7.46333e-23)
(0.119519 0.00108877 1.22255e-22)
(9.53943e-05 0.000270785 1.80311e-22)
(0.0439549 0.0345405 3.32699e-21)
(0.0621896 0.0464479 -8.20532e-22)
(0.0596731 0.039523 -3.22696e-24)
(0.0318512 -0.001146 7.85646e-24)
(0.0313963 -0.00119558 4.28626e-23)
(0.0339783 -0.00108625 2.17039e-24)
(0.0378274 -0.000923988 -2.1168e-23)
(0.0456162 0.0382081 1.34776e-22)
(0.01904 0.0161149 0)
(0.00012402 8.07517e-06 3.20014e-22)
(0.00041555 -0.000238798 -3.55174e-22)
(0.00191559 -0.00101352 2.42666e-22)
(0.0372001 -0.00798277 -1.78829e-21)
(0.065837 -0.00237929 -7.2126e-22)
(0.0436404 -0.000508349 -2.25339e-24)
(0.0753403 -0.00752173 2.6518e-22)
(0.0714302 -0.01574 2.77624e-23)
(0.0944767 0.039819 2.21474e-21)
(0.091607 0.045376 9.90756e-23)
(0.0888511 0.0290357 1.25279e-21)
(0.091583 0.0307378 -9.07883e-22)
(0.0988843 0.0409465 0)
(0.12527 -0.0013417 1.66577e-22)
(0.12595 -0.00179919 3.17546e-22)
(0.127808 -0.0112188 -3.25683e-22)
(0.129248 -0.0109488 5.58805e-22)
(0.117115 0.0236446 2.75929e-22)
(0.119184 0.0244914 -7.82197e-22)
(0.117187 0.0256755 0)
(0.115207 0.0244593 1.6171e-22)
(0.116783 0.0276266 0)
(0.117379 0.0356884 -5.8147e-22)
(0.115934 0.0377817 -3.16082e-22)
(0.11158 0.041683 -5.65986e-22)
(0.113966 0.0397713 0)
(0.11671 0.0427254 1.88278e-21)
(0.113991 0.0446979 4.73564e-23)
(0.108584 0.0439397 -3.1655e-22)
(0.0998994 0.0501526 -1.33941e-21)
(0.0986397 0.0453645 -2.3565e-22)
(0.0265596 -0.0093342 2.723e-23)
(0.0348084 -0.01042 -1.10352e-23)
(0.00651031 -0.00257446 -6.37418e-22)
(0.0429762 -5.43485e-06 -5.85077e-23)
(0.0542537 -0.000296796 0)
(-1.28184e-05 -3.42038e-05 3.80133e-22)
(6.39178e-06 -4.4706e-05 1.95082e-22)
(0.0493346 -0.00222441 2.61534e-23)
(0.0576257 -0.00215374 9.94721e-24)
(0.0570583 -0.001436 0)
(0.0478186 -0.000922603 1.14017e-23)
(0.107757 0.00185235 -1.40977e-22)
(0.107656 0.00165578 6.72484e-22)
(0.107951 0.00168059 3.22571e-22)
(0.000724131 0.000295011 3.62727e-22)
(-0.000157897 -0.00013082 -5.33542e-22)
(-0.000203903 -0.000176033 4.48108e-22)
(0.00157376 0.000659585 0)
(9.50117e-05 9.95875e-05 1.10353e-21)
(0.00019113 -3.00565e-05 -7.85429e-22)
(0.00764987 0.00377665 -9.60135e-22)
(0.00151179 0.000813945 -1.15945e-21)
(0.00177943 0.000891396 0)
(0.00157589 0.0075678 0)
(0.00057854 0.00329136 0)
(0.00031411 0.00198313 0)
(0.137209 -0.00391948 7.68918e-23)
(0.137947 -0.00381527 0)
(0.136597 -0.00482541 -8.8998e-23)
(0.088155 -0.0148034 4.55062e-21)
(0.0901597 -0.0152093 -1.6521e-21)
(0.0890726 -0.0128332 0)
(0.112041 3.50688e-05 -7.93696e-24)
(0.112136 3.18107e-05 1.58864e-23)
(0.11194 3.92535e-05 -5.37661e-24)
(0.112226 2.91495e-05 0)
(0.112311 2.76963e-05 -1.01143e-23)
(0.112391 2.53978e-05 0)
(0.11239 -5.78877e-05 0)
(0.112466 2.15353e-05 3.74662e-23)
(0.112463 -5.8378e-05 0)
(0.112311 -5.94839e-05 -1.01807e-23)
(0.112226 -6.1861e-05 0)
(0.112136 -6.44806e-05 5.3151e-24)
(0.11204 -6.77952e-05 -7.93804e-24)
(0.11194 -7.09993e-05 5.36989e-24)
(0.112535 1.79206e-05 -3.58521e-23)
(0.112533 -5.78807e-05 -1.2542e-24)
(0.111832 4.39996e-05 8.34658e-28)
(0.111831 -7.33526e-05 -8.22256e-24)
(0.111715 4.90098e-05 4.37865e-23)
(0.1126 1.5617e-05 3.34911e-26)
(0.1126 -5.59967e-05 -1.25368e-24)
(0.111715 -7.68892e-05 1.62204e-23)
(0.112662 1.31973e-05 3.37029e-23)
(0.112721 1.11104e-05 -3.36752e-23)
(0.112662 -5.43076e-05 2.52598e-24)
(0.112721 -5.25637e-05 4.98787e-24)
(0.111595 5.72992e-05 -4.26022e-23)
(0.111594 -8.10683e-05 -1.068e-23)
(0.112776 8.96137e-06 0)
(0.112776 -5.10453e-05 -4.91971e-24)
(0.111465 6.35724e-05 5.27763e-27)
(0.111465 -8.4145e-05 -5.29087e-27)
(0.112828 7.13602e-06 0)
(0.112829 -4.94639e-05 0)
(0.111326 6.95686e-05 0)
(0.111326 -8.81108e-05 0)
(0.112877 5.25e-06 0)
(0.112878 -4.80718e-05 2.36141e-24)
(0.111178 7.61341e-05 -2.22172e-23)
(0.111177 -9.19677e-05 -5.4182e-27)
(0.112924 3.68497e-06 1.23769e-25)
(0.112924 -4.65607e-05 -2.52197e-24)
(0.111021 8.28648e-05 2.23234e-23)
(0.111019 -9.63843e-05 0)
(0.112967 2.04233e-06 0)
(0.112968 -4.51824e-05 0)
(0.110852 9.04306e-05 -1.41583e-24)
(0.110851 -0.000100484 2.43166e-23)
(0.113009 5.71058e-07 1.52994e-23)
(0.113009 -4.36911e-05 0)
(0.110673 9.78533e-05 -1.4123e-25)
(0.110671 -0.000105217 -2.30162e-23)
(0.113048 -1.0731e-06 -2.2884e-23)
(0.113048 -4.24139e-05 -6.64189e-24)
(0.110478 0.00010332 2.35089e-23)
(0.110477 -0.000110168 0)
(0.113085 -2.55817e-06 7.5374e-24)
(0.113085 -4.09047e-05 4.42958e-24)
(0.110271 0.000111325 -1.19292e-23)
(0.11027 -0.000116644 2.41938e-23)
(0.113119 -3.84802e-06 -3.0114e-23)
(0.113121 -3.86975e-05 3.39411e-23)
(0.110043 0.000114593 1.23288e-23)
(0.110045 -0.000124521 3.90626e-25)
(0.113153 -5.01287e-06 0)
(0.113154 -3.69885e-05 1.61826e-23)
(0.109799 0.000118981 -2.48545e-23)
(0.109801 -0.000135525 4.97272e-23)
(0.113186 -5.99739e-06 0)
(0.113186 -3.62437e-05 0)
(0.110059 0.000351868 -1.21993e-23)
(0.109814 0.000373233 -4.95142e-23)
(0.109532 0.000121589 0)
(0.109538 -0.000151328 -2.53971e-23)
(0.110493 0.000310663 -7.63754e-24)
(0.110283 0.000331293 1.50035e-24)
(0.110865 0.000270557 0)
(0.110684 0.000290385 -2.45992e-23)
(0.111191 0.000234543 -4.72626e-26)
(0.111033 0.00025199 0)
(0.111476 0.000202695 0)
(0.111338 0.000218144 0)
(0.111729 0.000173069 0)
(0.111606 0.000187861 0)
(0.111947 0.000148764 1.06151e-23)
(0.11184 0.000160547 2.67945e-24)
(0.112143 0.000128752 -1.02259e-23)
(0.112049 0.000138292 -1.06074e-23)
(0.112315 0.000111797 1.81193e-23)
(0.112231 0.000119091 2.31912e-23)
(0.11247 9.72469e-05 0)
(0.112395 0.000104757 0)
(0.112605 8.36562e-05 -7.94584e-26)
(0.112539 9.02618e-05 0)
(0.112725 7.15929e-05 0)
(0.112667 7.74288e-05 0)
(0.112832 6.0944e-05 0)
(0.11278 6.61003e-05 0)
(0.112927 5.14917e-05 0)
(0.112881 5.60838e-05 0)
(0.113012 4.30849e-05 0)
(0.11297 4.71561e-05 0)
(0.113087 3.56221e-05 0)
(0.113051 3.92427e-05 0)
(0.113156 2.77212e-05 -1.23129e-23)
(0.113122 3.21732e-05 0)
(0.113188 2.40757e-05 -3.98043e-24)
(0.113217 -7.37433e-06 3.88337e-24)
(0.113217 -3.55607e-05 -3.85106e-24)
(0.113123 -7.24742e-05 0)
(0.113188 -6.61636e-05 -1.58034e-23)
(0.113156 -6.89763e-05 -8.13289e-24)
(0.113051 -8.01499e-05 2.22602e-24)
(0.113088 -7.62298e-05 -8.71701e-24)
(0.112971 -8.77583e-05 7.21425e-26)
(0.113012 -8.40681e-05 0)
(0.112881 -9.55714e-05 0)
(0.112927 -9.15518e-05 0)
(0.11278 -0.000104456 0)
(0.112832 -9.98694e-05 0)
(0.112666 -0.000114562 0)
(0.112725 -0.000109341 9.50843e-30)
(0.112538 -0.000126132 8.03431e-26)
(0.112604 -0.000120136 0)
(0.112394 -0.000138943 0)
(0.112468 -0.000132593 0)
(0.112232 -0.00015251 0)
(0.112315 -0.000145605 0)
(0.112048 -0.000168925 0)
(0.112143 -0.000159954 -5.36907e-24)
(0.111839 -0.000188884 1.41655e-24)
(0.111946 -0.000179498 -6.93874e-24)
(0.111604 -0.000212722 0)
(0.111726 -0.000199647 -5.65448e-24)
(0.111335 -0.000238467 0)
(0.111474 -0.000225257 0)
(0.11103 -0.000267698 0)
(0.111188 -0.000252576 0)
(0.110681 -0.000301086 0)
(0.110862 -0.000283882 0)
(0.110282 -0.000338976 -6.24337e-24)
(0.110489 -0.000318845 0)
(0.109822 -0.000387146 -2.54457e-23)
(0.110061 -0.000360521 -6.29332e-24)
(0.109562 -0.000417797 2.59637e-23)
(0.10955 0.000396644 4.91412e-23)
(0.113218 2.10326e-05 7.78933e-24)
(0.113218 -6.35844e-05 -1.52236e-23)
(0.109251 -0.000172088 0)
(0.109282 -0.000455758 0)
(0.109265 0.000421911 0)
(0.109244 0.000121724 0)
(0.110091 0.000585412 0)
(0.109595 0.000669892 1.22951e-23)
(0.109852 0.000625533 1.23879e-23)
(0.110521 0.000510453 1.56903e-23)
(0.110314 0.000547117 -3.1378e-24)
(0.11089 0.000443608 4.83431e-26)
(0.110712 0.000475783 0)
(0.111212 0.000385969 0)
(0.111057 0.000413778 0)
(0.111495 0.000335887 0)
(0.111358 0.000360054 0)
(0.111744 0.000292642 0)
(0.111623 0.000313361 0)
(0.111963 0.000254481 0)
(0.111857 0.00027311 0)
(0.112156 0.000222349 -4.2862e-26)
(0.112062 0.000238273 1.10631e-23)
(0.112326 0.000194082 -4.10952e-26)
(0.112244 0.000207234 -2.157e-23)
(0.112478 0.000168873 0)
(0.112404 0.000180994 0)
(0.112613 0.000147053 3.96902e-26)
(0.112548 0.000157601 0)
(0.112732 0.000127927 0)
(0.112674 0.000137181 0)
(0.112838 0.000111066 0)
(0.112787 0.000119232 0)
(0.112932 9.61615e-05 0)
(0.112887 0.000103385 0)
(0.113016 8.29617e-05 0)
(0.112976 8.93585e-05 0)
(0.113092 7.11408e-05 0)
(0.113055 7.69102e-05 0)
(0.11316 5.93996e-05 8.40987e-24)
(0.113126 6.53113e-05 0)
(0.113246 -8.66498e-06 0)
(0.113247 1.83883e-05 7.62129e-24)
(0.113221 4.88359e-05 0)
(0.113191 5.38483e-05 8.19737e-24)
(0.113191 -9.63759e-05 1.63182e-23)
(0.113221 -9.20697e-05 4.01055e-24)
(0.113247 -6.14658e-05 3.12763e-23)
(0.113246 -3.45955e-05 0)
(0.113127 -0.000106768 0)
(0.11316 -0.000101272 -2.46324e-23)
(0.113056 -0.000118112 7.01352e-26)
(0.113092 -0.000112235 8.77003e-24)
(0.112976 -0.000129816 -7.21422e-26)
(0.113017 -0.000123846 0)
(0.112887 -0.000142793 0)
(0.112933 -0.000136109 0)
(0.112786 -0.000157537 0)
(0.112838 -0.000149928 0)
(0.112674 -0.000174326 0)
(0.112732 -0.000165658 -9.50841e-30)
(0.112547 -0.000193448 -1.60651e-25)
(0.112612 -0.000183579 0)
(0.112404 -0.000215332 0)
(0.112477 -0.000204018 0)
(0.112242 -0.000240083 2.70979e-24)
(0.112326 -0.000227281 0)
(0.11206 -0.000267878 0)
(0.112154 -0.000253149 -2.69848e-24)
(0.111854 -0.00030066 5.6653e-24)
(0.11196 -0.000283967 5.62221e-24)
(0.11162 -0.000337912 0)
(0.111741 -0.000318714 0)
(0.111354 -0.000380592 0)
(0.111491 -0.000358517 0)
(0.111051 -0.000429727 0)
(0.111207 -0.000404282 0)
(0.110706 -0.000486521 0)
(0.110884 -0.000457095 0)
(0.110311 -0.000552345 1.00168e-25)
(0.110515 -0.000518171 0)
(0.109858 -0.000629279 -1.02023e-25)
(0.110092 -0.000589277 0)
(0.109332 -0.000729363 -2.67743e-23)
(0.109604 -0.000676585 2.6762e-23)
(0.109317 0.000717633 2.51099e-23)
(0.10898 -0.000500555 0)
(0.109036 -0.000791717 -5.47519e-23)
(0.108945 -0.000195828 0)
(0.11325 4.49814e-05 0)
(0.11325 -8.79688e-05 -3.89278e-24)
(0.10896 0.000449609 6.38664e-23)
(0.10902 0.000769682 2.55712e-23)
(0.108654 -0.000549616 1.38505e-23)
(0.108718 -0.000861254 6.92066e-23)
(0.108933 0.00012183 0)
(0.113225 7.77923e-05 3.20887e-23)
(0.113253 7.16696e-05 -1.58532e-23)
(0.113274 -5.94751e-05 -7.70743e-24)
(0.113277 -8.39661e-05 3.83305e-23)
(0.10911 0.00108108 8.93881e-23)
(0.108695 0.000827204 -5.03078e-23)
(0.108448 0.00125602 -2.27933e-22)
(0.108792 0.00116224 -5.10846e-23)
(0.109664 0.000937225 2.47858e-23)
(0.109397 0.00100675 -7.59802e-23)
(0.110145 0.000812867 -2.52909e-23)
(0.109913 0.000872904 -1.91388e-23)
(0.110564 0.000706121 -6.27532e-24)
(0.110362 0.000757949 -6.2945e-24)
(0.110927 0.000614488 -4.83431e-26)
(0.110752 0.000658531 0)
(0.111244 0.00053558 0)
(0.111091 0.000573597 0)
(0.111523 0.000467364 0)
(0.111388 0.000500245 0)
(0.111768 0.000408331 0)
(0.111649 0.000436773 0)
(0.111983 0.000357165 0)
(0.111879 0.00038179 0)
(0.112174 0.000312606 0)
(0.112081 0.000334123 0)
(0.112342 0.000273805 1.60455e-29)
(0.112261 0.000292643 0)
(0.112492 0.000239712 0)
(0.112419 0.000256144 0)
(0.112625 0.000209913 3.96699e-26)
(0.11256 0.000224325 0)
(0.112742 0.000183762 0)
(0.112685 0.000196417 0)
(0.112847 0.000160738 0)
(0.112796 0.000171889 0)
(0.11294 0.000140422 0)
(0.112895 0.000150266 0)
(0.113024 0.000122457 0)
(0.112983 0.000131168 0)
(0.113098 0.000106414 0)
(0.113062 0.000114236 0)
(0.113165 9.13527e-05 4.28644e-24)
(0.113132 9.87419e-05 -2.15668e-24)
(0.113196 8.43683e-05 -1.63657e-23)
(0.113273 -9.2943e-06 -3.6495e-24)
(0.113277 4.12781e-05 1.52684e-23)
(0.113274 1.58467e-05 -1.16656e-23)
(0.113273 -3.39784e-05 0)
(0.113196 -0.000126887 -1.21563e-23)
(0.113254 -0.000114461 -3.51069e-23)
(0.113226 -0.000120486 2.82594e-23)
(0.113133 -0.000141028 0)
(0.113165 -0.000133761 0)
(0.113062 -0.000155436 -8.68438e-30)
(0.113099 -0.000147875 0)
(0.112983 -0.000171532 0)
(0.113024 -0.000163265 0)
(0.112895 -0.000189638 -7.41441e-26)
(0.112941 -0.000180307 0)
(0.112796 -0.000210187 0)
(0.112847 -0.000199586 0)
(0.112685 -0.000233563 0)
(0.112742 -0.0002215 0)
(0.112559 -0.000260167 8.03199e-26)
(0.112624 -0.000246439 0)
(0.112418 -0.000290477 8.23966e-26)
(0.112491 -0.00027482 0)
(0.112259 -0.00032504 0)
(0.112341 -0.000307176 0)
(0.112079 -0.000364516 0)
(0.112172 -0.000344124 0)
(0.111875 -0.000409768 0)
(0.11198 -0.00038634 0)
(0.111644 -0.000461529 0)
(0.111763 -0.000434745 0)
(0.111382 -0.000521135 -9.32366e-26)
(0.111517 -0.000490285 0)
(0.111083 -0.000589882 0)
(0.111237 -0.000554277 0)
(0.110743 -0.000669406 0)
(0.110919 -0.000628194 0)
(0.110354 -0.000761591 -4.74075e-29)
(0.110555 -0.000713788 0)
(0.109909 -0.000868691 5.90585e-29)
(0.110139 -0.000813127 0)
(0.109398 -0.000997223 1.06083e-25)
(0.109662 -0.000929108 0)
(0.108803 -0.00116086 -5.6169e-23)
(0.109111 -0.00107391 1.37582e-23)
(0.108377 -0.000935511 1.41512e-23)
(0.108475 -0.00125674 2.80261e-23)
(0.108632 0.000477846 -2.49274e-23)
(0.108613 -0.000223234 -2.68422e-23)
(0.11328 6.6347e-05 3.88546e-24)
(0.11328 -0.000109272 2.75946e-23)
(0.108336 0.000883286 3.08046e-24)
(0.108303 -0.000605524 0)
(0.108013 0.00131792 3.49127e-22)
(0.108124 -0.00135979 4.34945e-23)
(0.108014 -0.00101679 5.80036e-23)
(0.108128 0.00184802 -5.86102e-22)
(0.107855 0.00201177 1.05238e-22)
(0.108607 0.000122942 0)
(0.108639 0.00159826 5.76306e-23)
(0.108362 0.00173176 2.99807e-23)
(0.109225 0.00137876 5.18342e-23)
(0.108932 0.00148221 -7.9225e-23)
(0.109756 0.00119301 -2.56893e-23)
(0.109501 0.0012832 -1.28563e-23)
(0.110219 0.00103393 1.28359e-23)
(0.109995 0.00111002 1.30436e-23)
(0.110623 0.000897859 0)
(0.110427 0.000963224 -3.45508e-26)
(0.110977 0.000781898 0)
(0.110806 0.000837653 0)
(0.111287 0.00068227 4.71618e-26)
(0.111137 0.000730229 0)
(0.111559 0.000596318 0)
(0.111427 0.000637736 0)
(0.111799 0.000521926 0)
(0.111683 0.000557792 0)
(0.11201 0.000457426 0)
(0.111908 0.000488536 0)
(0.112197 0.000401291 4.27975e-26)
(0.112107 0.000428388 0)
(0.112363 0.000352289 1.67969e-29)
(0.112283 0.000376005 0)
(0.11251 0.000309387 0)
(0.112438 0.000330117 0)
(0.11264 0.000271763 -7.93258e-26)
(0.112577 0.000289966 0)
(0.112756 0.000238723 0)
(0.1127 0.000254713 0)
(0.112859 0.000209651 0)
(0.112809 0.000223729 0)
(0.112951 0.000184017 0)
(0.112906 0.000196436 0)
(0.113033 0.000161376 0)
(0.112993 0.000172351 0)
(0.113106 0.000141259 0)
(0.113071 0.000151043 0)
(0.113172 0.000123052 -2.14145e-24)
(0.11314 0.000131806 0)
(0.113231 0.00010664 0)
(0.113203 0.000114648 -4.15605e-24)
(0.113285 9.14554e-05 1.36895e-27)
(0.113259 9.8829e-05 0)
(0.113302 3.77652e-05 -1.54805e-23)
(0.11331 8.50956e-05 9.35329e-25)
(0.113306 6.17964e-05 7.58626e-24)
(0.113299 -9.79465e-06 5.56864e-24)
(0.1133 1.37884e-05 -3.84378e-24)
(0.1133 -5.76401e-05 -1.93489e-24)
(0.113299 -3.35445e-05 1.93174e-24)
(0.113305 -0.000105048 0)
(0.113302 -8.08426e-05 -1.75633e-23)
(0.113259 -0.000141645 -7.89528e-24)
(0.11331 -0.000129281 -1.51075e-23)
(0.113285 -0.000135007 3.47567e-23)
(0.113203 -0.000156918 -4.13928e-24)
(0.113232 -0.000149019 0)
(0.11314 -0.000174073 0)
(0.113172 -0.000165287 0)
(0.113071 -0.000192262 -1.22819e-29)
(0.113107 -0.000182949 0)
(0.112993 -0.000212721 0)
(0.113033 -0.000202185 0)
(0.112906 -0.000235858 7.41441e-26)
(0.112951 -0.00022393 0)
(0.112809 -0.000262122 0)
(0.112859 -0.000248574 0)
(0.112699 -0.00029198 0)
(0.112756 -0.000276575 0)
(0.112576 -0.000325952 0)
(0.112639 -0.00030842 0)
(0.112437 -0.000364646 -2.41751e-29)
(0.112509 -0.000344671 0)
(0.11228 -0.000408772 0)
(0.112361 -0.000385983 0)
(0.112103 -0.000459201 0)
(0.112194 -0.000433142 0)
(0.111903 -0.000516956 0)
(0.112006 -0.000487094 0)
(0.111676 -0.000583186 0)
(0.111793 -0.00054892 0)
(0.111419 -0.000659401 9.32366e-26)
(0.111552 -0.000619955 0)
(0.111126 -0.000747318 0)
(0.111277 -0.000701784 0)
(0.110793 -0.000849019 0)
(0.110965 -0.000796313 0)
(0.110413 -0.000966926 -1.00111e-25)
(0.110609 -0.000905788 0)
(0.109978 -0.00110383 1.02476e-25)
(0.110203 -0.00103282 0)
(0.109481 -0.00126359 -1.04884e-25)
(0.109738 -0.00118056 0)
(0.10891 -0.00145503 1.38525e-23)
(0.109205 -0.00135368 -2.72995e-23)
(0.108256 -0.00169071 -1.40263e-23)
(0.108593 -0.00156685 2.85197e-23)
(0.107746 -0.00147079 6.60443e-25)
(0.107894 -0.00182432 2.9022e-23)
(0.108279 0.000502223 -2.5777e-23)
(0.108262 -0.000247974 0)
(0.107959 0.000926668 -2.50248e-22)
(0.107931 -0.000656069 0)
(0.113292 0.000117724 -3.88916e-24)
(0.113316 0.000109922 2.84911e-24)
(0.113329 -0.000100706 -1.48646e-23)
(0.113334 -0.000123342 -1.68471e-23)
(0.107603 0.00134082 -2.46014e-22)
(0.107625 -0.00110421 -5.85711e-23)
(0.107526 0.00204572 0)
(0.108275 0.00219004 -6.80805e-23)
(0.107343 -0.00159138 -2.87449e-23)
(0.107505 -0.00196804 4.42249e-23)
(0.10794 0.00231469 1.36311e-22)
(0.108254 0.00012385 0)
(0.108819 0.00190879 0)
(0.108548 0.00205036 -6.0312e-23)
(0.109365 0.0016565 0)
(0.109094 0.00177914 0)
(0.109867 0.00143447 0)
(0.109623 0.00154115 1.33193e-23)
(0.110308 0.00124543 0)
(0.110094 0.00133626 0)
(0.110696 0.00108342 0)
(0.110508 0.00116128 0)
(0.111038 0.000944611 0)
(0.110873 0.00101139 0)
(0.111339 0.000825227 -4.71618e-26)
(0.111193 0.000882704 0)
(0.111603 0.000722192 0)
(0.111475 0.000771845 0)
(0.111837 0.000632972 0)
(0.111724 0.000675999 0)
(0.112044 0.000555516 0)
(0.111943 0.000592894 0)
(0.112226 0.000488088 -2.16931e-29)
(0.112138 0.000520653 0)
(0.112388 0.000429221 1.97081e-29)
(0.11231 0.000457675 0)
(0.112532 0.000377671 0)
(0.112462 0.000402599 0)
(0.112659 0.000332438 1.6604e-29)
(0.112597 0.000354325 0)
(0.112773 0.000292691 0)
(0.112718 0.000311929 0)
(0.112874 0.00025771 0)
(0.112825 0.000274649 0)
(0.112964 0.000226875 0)
(0.11292 0.000241812 0)
(0.113044 0.000199659 0)
(0.113005 0.000212847 0)
(0.113116 0.000175589 0)
(0.113081 0.000187262 0)
(0.113181 0.000154269 0)
(0.11315 0.000164628 0)
(0.113239 0.000134665 4.1259e-24)
(0.113211 0.000144054 4.21916e-24)
(0.113266 0.000125767 -7.92087e-24)
(0.113326 3.46344e-05 -7.59924e-24)
(0.113334 7.97563e-05 0)
(0.11333 5.74442e-05 -7.6748e-24)
(0.113323 -1.03529e-05 0)
(0.113324 1.22771e-05 7.75551e-24)
(0.113324 -5.61071e-05 1.1576e-23)
(0.113323 -3.33103e-05 -3.91223e-24)
(0.113326 -7.81056e-05 -2.27503e-23)
(0.113266 -0.000168578 3.98162e-24)
(0.113316 -0.000152039 1.48306e-23)
(0.113291 -0.000160765 0)
(0.113211 -0.000186591 -8.24438e-24)
(0.113239 -0.000177308 8.2716e-24)
(0.11315 -0.00020649 0)
(0.113181 -0.000196438 0)
(0.113082 -0.000228432 -1.55576e-29)
(0.113117 -0.000217149 0)
(0.113006 -0.000253208 0)
(0.113045 -0.000240441 0)
(0.11292 -0.000281277 0)
(0.112964 -0.000266804 0)
(0.112825 -0.00031314 0)
(0.112874 -0.000296705 0)
(0.112717 -0.000349351 0)
(0.112773 -0.00033067 0)
(0.112596 -0.000390539 8.02549e-26)
(0.112659 -0.000369284 0)
(0.11246 -0.00043745 -8.23724e-26)
(0.11253 -0.000413234 0)
(0.112307 -0.000490948 0)
(0.112386 -0.000463321 0)
(0.112133 -0.000552064 0)
(0.112223 -0.000520486 0)
(0.111938 -0.000622038 0)
(0.112039 -0.00058587 0)
(0.111716 -0.00070231 0)
(0.11183 -0.000660789 0)
(0.111465 -0.000794644 0)
(0.111594 -0.000746858 0)
(0.11118 -0.000901122 0)
(0.111327 -0.00084598 0)
(0.110855 -0.00102422 -9.76661e-26)
(0.111023 -0.000960437 0)
(0.110486 -0.00116686 9.99778e-26)
(0.110677 -0.00109291 0)
(0.110065 -0.00133243 -1.02324e-25)
(0.110282 -0.00124656 0)
(0.109584 -0.001525 0)
(0.109832 -0.00142507 0)
(0.109034 -0.00174934 0)
(0.109318 -0.00163281 0)
(0.108409 -0.00201323 1.10944e-25)
(0.108733 -0.00187497 1.40219e-23)
(0.107692 -0.00232982 -7.39793e-23)
(0.108062 -0.00216435 0)
(0.107089 -0.00212871 -4.37912e-23)
(0.107295 -0.00251084 -6.71653e-25)
(0.107903 0.000525929 8.07728e-23)
(0.107886 -0.00027189 0)
(0.11334 0.000102387 -1.4805e-23)
(0.113339 -0.000145114 -2.85644e-23)
(0.107535 0.000952555 -4.31316e-23)
(0.107297 0.00180738 6.26286e-25)
(0.107171 0.00138191 1.2521e-22)
(0.107537 -0.000707127 0)
(0.10721 -0.00118941 1.47915e-23)
(0.107519 0.00243154 -1.25387e-22)
(0.107128 0.00249763 1.09049e-22)
(0.10695 0.00199541 -1.07441e-22)
(0.106911 -0.00171662 -4.44608e-23)
(0.106644 -0.00229562 2.9853e-23)
(0.106871 -0.00271263 2.90919e-23)
(0.107877 0.00012399 0)
(0.108426 0.0025103 3.79066e-24)
(0.107684 0.00285485 -7.10193e-25)
(0.10807 0.00267514 2.94546e-23)
(0.108995 0.00219798 2.89643e-23)
(0.108723 0.00235064 -2.91148e-23)
(0.109515 0.00191339 5.28685e-26)
(0.109258 0.00205227 0)
(0.109989 0.00166333 0)
(0.109759 0.00178379 0)
(0.110409 0.00144762 0)
(0.110206 0.00155149 0)
(0.110781 0.00126175 0)
(0.110601 0.00135122 0)
(0.11111 0.00110171 4.82143e-26)
(0.110951 0.00117876 0)
(0.1114 0.000963694 0)
(0.111259 0.00103018 0)
(0.111656 0.000844379 0)
(0.111532 0.000901896 0)
(0.111882 0.000740945 0)
(0.111773 0.000790842 0)
(0.112083 0.000651041 0)
(0.111986 0.000694438 0)
(0.11226 0.000572705 -4.27758e-26)
(0.112174 0.000610545 0)
(0.112418 0.000504273 2.28598e-29)
(0.112341 0.000537351 0)
(0.112558 0.000444337 0)
(0.11249 0.000473325 0)
(0.112682 0.000391726 7.92595e-26)
(0.112622 0.000417186 0)
(0.112793 0.00034547 0)
(0.112739 0.000367862 0)
(0.112891 0.000304745 0)
(0.112843 0.000324467 0)
(0.112979 0.000268844 0)
(0.112937 0.000286235 0)
(0.113058 0.000237166 0)
(0.11302 0.000252514 0)
(0.113128 0.000209188 0)
(0.113094 0.000222747 0)
(0.113192 0.000184467 6.71899e-26)
(0.113161 0.000196454 0)
(0.113248 0.00016227 -4.14393e-24)
(0.113221 0.000173177 0)
(0.113299 0.000141871 3.94369e-24)
(0.113275 0.000151785 0)
(0.113346 0.000124038 3.76817e-24)
(0.113323 0.000132716 -3.85048e-24)
(0.113356 7.46035e-05 7.44723e-24)
(0.113368 0.000115842 0)
(0.113362 9.59505e-05 1.10849e-23)
(0.113349 3.21743e-05 0)
(0.113352 5.32933e-05 0)
(0.113345 -1.10055e-05 0)
(0.113346 1.07907e-05 0)
(0.113346 -5.4701e-05 0)
(0.113345 -3.29136e-05 0)
(0.113351 -9.69498e-05 1.51495e-23)
(0.113348 -7.57766e-05 3.76578e-24)
(0.113361 -0.000138817 3.72748e-24)
(0.113356 -0.000117996 2.9701e-23)
(0.113323 -0.000175618 1.93423e-23)
(0.113367 -0.000159748 3.71245e-24)
(0.113345 -0.000167263 -7.53747e-24)
(0.113274 -0.000194548 3.97543e-24)
(0.113299 -0.000184761 -2.38303e-23)
(0.113221 -0.00021551 -1.11491e-29)
(0.113248 -0.000204756 0)
(0.113161 -0.000238204 0)
(0.113192 -0.000226521 0)
(0.113095 -0.000263841 -1.88173e-29)
(0.113129 -0.000250635 0)
(0.11302 -0.000292849 0)
(0.113058 -0.000277897 0)
(0.112937 -0.000325735 0)
(0.11298 -0.000308778 0)
(0.112843 -0.000363063 0)
(0.112892 -0.000343811 0)
(0.112739 -0.00040547 0)
(0.112792 -0.000383593 0)
(0.112621 -0.000453692 -1.60477e-25)
(0.112681 -0.000428809 0)
(0.112488 -0.000508598 0)
(0.112556 -0.000480256 0)
(0.112338 -0.000571198 0)
(0.112415 -0.000538873 0)
(0.112169 -0.000642691 0)
(0.112256 -0.000605756 0)
(0.111979 -0.000724505 0)
(0.112077 -0.000682219 0)
(0.111763 -0.00081833 -9.0873e-26)
(0.111874 -0.000769807 0)
(0.11152 -0.00092619 0)
(0.111645 -0.000870376 0)
(0.111243 -0.00105049 0)
(0.111386 -0.00098613 0)
(0.110929 -0.00119406 9.76661e-26)
(0.111091 -0.00111969 0)
(0.110573 -0.00136024 -8.63968e-29)
(0.110757 -0.00127411 0)
(0.110167 -0.00155291 2.04551e-25)
(0.110377 -0.00145302 0)
(0.109705 -0.00177651 0)
(0.109944 -0.00166056 0)
(0.10918 -0.00203588 0)
(0.109451 -0.0019014 0)
(0.108582 -0.0023358 -1.5263e-28)
(0.10889 -0.00218047 0)
(0.107902 -0.00268282 0)
(0.108252 -0.002503 0)
(0.107127 -0.00309996 -4.43361e-23)
(0.107527 -0.00288124 0)
(0.106419 -0.00292449 -6.60486e-25)
(0.1067 -0.0033405 7.57146e-23)
(0.107488 0.000543799 0)
(0.107302 0.00299362 1.71266e-22)
(0.107095 0.000979226 2.95653e-23)
(0.113354 0.000145503 -3.76109e-24)
(0.113375 0.000136769 0)
(0.113382 -0.000133183 3.63385e-24)
(0.113387 -0.000152529 -7.20314e-24)
(0.107485 -0.000296002 0)
(0.107116 -0.000760881 0)
(0.106759 0.00149987 0)
(0.106767 -0.00127853 -1.45683e-23)
(0.106447 -0.00185274 -2.95413e-23)
(0.106167 -0.00247914 0)
(0.105936 -0.003151 7.65964e-23)
(0.106245 -0.00359318 -6.10848e-23)
(0.10747 0.000123523 0)
(0.107904 0.00323214 -1.41787e-26)
(0.106869 0.0031404 5.4405e-23)
(0.10713 0.00363 -1.9455e-22)
(0.10753 0.00343044 5.64083e-23)
(0.108601 0.00282231 -1.82864e-23)
(0.10826 0.00301829 -2.92038e-23)
(0.109173 0.00247126 0)
(0.108901 0.00264155 0)
(0.109673 0.00215694 -5.28636e-26)
(0.109428 0.00230977 0)
(0.110123 0.00188056 0)
(0.109904 0.00201403 0)
(0.110522 0.00164031 0)
(0.110328 0.00175616 0)
(0.110877 0.00143233 0)
(0.110705 0.00153255 0)
(0.111191 0.00125255 -4.82143e-26)
(0.111039 0.00133918 0)
(0.111469 0.00109705 0)
(0.111335 0.00117201 0)
(0.111716 0.000962344 0)
(0.111596 0.00102731 0)
(0.111934 0.000845385 0)
(0.111828 0.000901826 0)
(0.112128 0.000743596 0)
(0.112034 0.000792746 0)
(0.112299 0.000654808 4.27223e-26)
(0.112216 0.000697706 0)