/*--------------------------------*- C++ -*----------------------------------*\
  =========                 |
  \\      /  F ield         | OpenFOAM: The Open Source CFD Toolbox
   \\    /   O peration     | Website:  https://openfoam.org
    \\  /    A nd           | Version:  10
     \\/     M anipulation  |
\*---------------------------------------------------------------------------*/
FoamFile
{
    format      ascii;
    class       volVectorField;
    location    "29";
    object      U;
}
// * * * * * * * * * * * * * * * * * * * * * * * * * * * * * * * * * * * * * //

dimensions      [0 1 -1 0 0 0 0];

internalField   nonuniform List<vector> 
6397
(
(4.16358 -0.754732 2.0872e-19)
(4.08268 -0.453206 -1.02105e-18)
(5.07395 -1.90162 0)
(5.2073 -1.63202 2.37401e-21)
(4.66984 -1.48353 -1.01537e-19)
(4.68454 -1.8652 -1.64045e-19)
(3.1553 -1.82355 -1.02347e-18)
(1.58262 -2.83257 1.92309e-18)
(-0.0738656 -0.0307462 3.07365e-19)
(0.404769 -0.08088 -8.0832e-20)
(2.47343 3.28782 5.89194e-19)
(3.52561 3.9911 4.54211e-20)
(3.69741 0.110188 -3.97978e-20)
(3.68074 0.099075 -1.69051e-20)
(2.55347 0.112543 3.28776e-20)
(1.79745 1.35426 -5.0299e-18)
(2.21806 -0.546638 -2.37623e-18)
(0.0737806 0.281765 2.39989e-18)
(1.07932 0.435863 8.06284e-19)
(2.18048 -0.251235 -2.53441e-18)
(1.68466 0.207509 -1.30713e-18)
(-0.950822 0.671754 -8.95002e-19)
(-0.783798 0.616061 3.56831e-20)
(1.39481 0.235341 -4.00586e-19)
(4.0528 0.136072 0)
(4.32275 0.0798021 5.00768e-21)
(4.43207 0.131797 8.81069e-23)
(2.85369 -2.40535 2.26074e-19)
(2.82879 -2.13395 -4.8652e-20)
(2.83244 -2.49613 9.2834e-20)
(2.77035 -2.36293 -1.32493e-19)
(5.67339 -0.71643 -1.90885e-19)
(5.64407 -1.10272 -1.56e-19)
(5.21877 -1.30516 6.22612e-19)
(5.96605 0.201764 -3.88555e-21)
(6.03724 -0.0834523 0)
(5.95921 -0.14998 6.34907e-20)
(5.95601 -0.530753 1.19044e-19)
(5.54018 0.251707 4.20163e-20)
(5.41443 0.320922 -3.57615e-20)
(5.77297 0.416987 0)
(5.88319 0.141675 0)
(2.8335 -2.52488 -3.92439e-20)
(3.57889 -2.40688 -1.55866e-19)
(3.56821 -2.53843 1.21875e-19)
(4.61977 -2.12831 -2.82331e-19)
(4.09435 -2.01729 -1.78404e-19)
(4.09531 -2.28857 4.91024e-19)
(4.67374 0.194375 7.39873e-20)
(4.64296 0.0652253 -1.13522e-20)
(4.54581 0.0407433 1.38249e-19)
(4.52288 -0.0107764 -5.36822e-20)
(4.542 0.0257094 -3.7197e-19)
(4.48515 1.19458 -7.80898e-20)
(3.71585 0.698253 4.98278e-20)
(4.03922 0.0445213 8.3671e-20)
(4.05554 0.0610174 8.02719e-20)
(4.48345 -0.143682 -1.61299e-19)
(2.99496 2.04403 -1.52652e-19)
(2.88726 1.4211 1.54323e-19)
(3.10548 2.45984 1.07514e-19)
(3.18841 2.67066 -1.06118e-19)
(3.2524 2.73227 -8.55852e-20)
(3.25134 2.70251 8.4119e-20)
(3.2183 2.62401 0)
(3.10224 2.52626 9.74979e-20)
(2.9429 2.35664 -1.0287e-19)
(2.72053 2.06173 0)
(3.18918 1.58392 -1.9787e-19)
(2.80442 0.635142 2.63351e-21)
(3.12646 0.77406 1.88594e-19)
(3.27778 2.18771 0)
(3.34437 2.5767 0)
(3.39023 2.75762 0)
(3.40096 2.77368 -3.34925e-22)
(3.36617 2.68939 3.86205e-23)
(3.28566 2.55821 0)
(3.13959 2.39578 -7.43909e-24)
(2.94356 2.1739 0)
(2.7013 1.83551 0)
(3.06853 -0.111427 -2.20037e-19)
(2.75698 -0.218188 1.31233e-20)
(2.51875 1.54861 0)
(2.47913 1.32444 0)
(3.02948 -0.956534 1.75405e-20)
(2.76404 -1.03389 0)
(2.35378 0.804504 0)
(2.30301 0.628087 0)
(3.01996 -1.65067 3.66198e-19)
(2.76958 -1.67745 -3.17574e-20)
(2.30831 -0.132616 0)
(2.26848 -0.211455 0)
(3.02921 -2.12666 -2.44917e-19)
(3.05132 -2.38047 -1.28384e-19)
(2.37029 -1.10197 0)
(2.32361 -1.05843 1.23294e-20)
(3.41418 -1.52436 0)
(3.3605 -2.27976 2.50265e-19)
(3.35 -2.01579 1.96521e-20)
(3.50178 0.0993281 -2.32266e-19)
(3.42947 -0.796532 0)
(3.60731 1.78474 -8.97579e-20)
(3.55851 0.996855 2.33548e-19)
(3.66537 2.68692 6.15761e-20)
(3.64265 2.36563 7.35077e-20)
(3.61102 2.75734 3.35543e-22)
(3.65848 2.8006 -6.42384e-20)
(3.40413 2.42681 3.54326e-21)
(3.52646 2.61376 -3.24948e-20)
(3.02372 1.96105 -2.27502e-20)
(3.2312 2.2164 4.79875e-20)
(2.56812 1.1288 0)
(2.78835 1.61848 0)
(2.36762 -0.243183 0)
(2.42025 0.494218 0)
(2.40786 -0.970918 -1.85156e-20)
(2.57472 0.963762 -2.49933e-19)
(2.58877 -1.13294 -1.2375e-19)
(2.53467 -0.0478003 2.45888e-19)
(2.87144 2.2614 1.84655e-19)
(2.70125 1.76382 -1.8051e-19)
(3.16943 2.6142 7.67559e-22)
(3.04926 2.5095 3.62541e-21)
(3.22905 2.68537 0)
(3.24029 2.65838 0)
(3.08113 2.54159 8.67544e-20)
(3.18632 2.65596 8.75035e-21)
(2.82354 1.83428 1.83695e-20)
(2.96981 2.26496 -8.62147e-20)
(2.653 0.471185 6.91127e-20)
(2.71565 1.22154 -8.37499e-21)
(2.63381 -1.05675 -1.11743e-19)
(2.603 -0.318757 -6.20124e-20)
(2.72985 -2.0815 0)
(2.64929 -1.65576 1.31104e-19)
(3.09507 -2.44017 -9.2949e-20)
(2.92015 -2.49453 -9.67783e-21)
(3.33197 -2.35619 4.88165e-20)
(2.56732 -1.63471 -2.79263e-20)
(2.47729 -1.8112 6.89832e-21)
(2.97432 -1.17253 -2.67986e-21)
(2.72331 -2.09242 1.2395e-19)
(3.07357 -2.21495 0)
(2.79883 -2.14365 1.63182e-20)
(2.71518 -1.46736 -1.30845e-20)
(2.91546 -1.92679 1.30113e-20)
(2.84362 -2.45516 3.96055e-20)
(3.70765 -2.18698 -1.33717e-19)
(3.60889 -2.25625 -4.68304e-20)
(2.85617 -2.52822 3.85602e-20)
(2.52496 -1.95341 4.22192e-21)
(3.8854 -1.36821 0)
(3.78034 -1.88839 -4.10017e-20)
(4.04135 0.200996 7.70708e-21)
(3.95643 -0.640646 0)
(4.10574 1.79603 -3.95304e-20)
(4.07941 1.05447 7.15287e-20)
(4.02325 2.62134 0)
(4.06781 2.3198 8.0327e-21)
(3.85235 2.6321 0)
(3.94974 2.70309 3.16643e-21)
(3.57653 2.24449 0)
(3.72155 2.46468 3.40893e-21)
(3.1847 1.72687 -1.34142e-21)
(3.38161 2.00888 2.11474e-21)
(2.7444 0.916664 6.51189e-22)
(2.93984 1.38141 -1.24159e-21)
(2.52088 -0.280274 9.91716e-23)
(2.58144 0.347905 -4.03294e-22)
(2.55346 -0.895888 6.05391e-21)
(2.97078 1.16433 5.00874e-21)
(2.93044 0.0388558 4.54523e-21)
(3.16425 2.4762 -1.76074e-22)
(3.043 1.99385 0)
(3.34038 2.68675 0)
(3.26568 2.66455 -2.34719e-21)
(3.27472 2.60585 0)
(3.33181 2.65652 0)
(3.04466 2.37225 -4.88228e-23)
(3.17822 2.53017 -8.87375e-21)
(2.75761 1.67369 -1.08644e-20)
(2.91452 2.10641 0)
(2.56507 0.416719 -3.8371e-20)
(2.64687 1.11106 0)
(2.58428 -0.994703 2.9864e-21)
(2.5448 -0.308094 3.84611e-20)
(2.7324 -1.99444 4.94507e-23)
(2.63574 -1.5616 1.06352e-20)
(2.80496 -2.28915 -3.86207e-20)
(3.05459 -2.4272 2.55434e-20)
(2.90884 -2.49164 0)
(3.48292 -2.22358 1.0483e-20)
(3.25488 -2.33483 -1.21396e-20)
(3.20989 -2.95322 0)
(2.91932 -2.79195 0)
(2.73134 -2.38782 -1.25702e-20)
(2.88498 -1.28994 -3.13729e-22)
(3.05162 -1.70438 0)
(3.16386 -2.25556 -2.82699e-21)
(3.07316 -2.49393 3.85151e-22)
(3.66307 -3.03837 0)
(3.362 -3.33551 0)
(3.70461 -3.41207 -8.11944e-20)
(2.79777 -2.47994 3.84942e-20)
(2.81664 -2.53372 0)
(3.33036 -2.08706 -1.53363e-20)
(3.73048 -2.08235 -9.91478e-23)
(3.56464 -1.93505 2.96411e-21)
(2.99398 -2.53906 0)
(2.96815 -2.4129 -2.19014e-20)
(2.76475 -2.60516 0)
(4.07687 -2.03784 1.76378e-20)
(3.92488 -2.10319 0)
(4.3941 -1.25082 7.24833e-22)
(4.23203 -1.75244 6.10325e-21)
(4.60442 0.30677 -1.54496e-20)
(4.50359 -0.526371 0)
(4.6122 1.82661 1.79681e-22)
(4.61186 1.13097 -1.49581e-20)
(4.40797 2.56286 -1.00679e-22)
(4.51147 2.30438 -1.05635e-20)
(4.1036 2.49844 4.29864e-21)
(4.25307 2.59916 0)
(3.73948 2.05526 0)
(3.92596 2.29781 -4.38187e-21)
(3.3088 1.48876 -2.28792e-22)
(3.52443 1.78921 1.84603e-22)
(2.89256 0.73312 0)
(3.06938 1.14881 -2.51022e-23)
(2.71719 -0.246358 7.21223e-22)
(2.7386 0.26801 -4.26748e-22)
(2.74431 -0.77914 -7.81411e-22)
(3.53675 -1.22682 -4.30758e-20)
(3.59783 -2.30998 1.59337e-22)
(3.5001 1.20974 -1.64319e-20)
(3.50197 0.0400713 6.79979e-20)
(3.54556 2.55565 7.8281e-21)
(3.5086 2.06368 -3.08546e-20)
(3.58693 2.68617 0)
(3.57211 2.71363 2.59466e-20)
(3.43885 2.51734 0)
(3.53698 2.60088 0)
(3.12977 2.24375 7.36612e-23)
(3.2843 2.42039 0)
(2.80677 1.54152 0)
(2.96046 1.96505 0)
(2.59602 0.37387 0)
(2.67485 1.01184 0)
(2.61631 -0.926265 8.49499e-21)
(2.57928 -0.292323 0)
(2.81351 -1.905 -4.89873e-23)
(2.70873 -1.48449 -8.6844e-21)
(2.90906 -2.21339 2.52789e-20)
(2.98208 -2.3235 1.79277e-20)
(2.87539 -2.42258 -3.59959e-20)
(3.13762 -2.2155 2.77705e-20)
(3.29228 -1.99335 2.73416e-21)
(3.13796 -3.18176 0)
(3.01148 -2.73081 1.5179e-20)
(3.74534 -3.46747 8.61368e-20)
(3.48446 -3.41158 0)
(3.41808 -2.44962 3.18061e-21)
(3.34057 -2.6924 1.42035e-20)
(3.23721 -1.89491 5.04171e-21)
(3.4432 -1.7404 3.93643e-21)
(2.74542 -2.36648 3.3028e-20)
(2.79251 -2.46458 5.04592e-20)
(3.16511 -2.36086 1.34036e-20)
(3.21753 -2.52638 0)
(3.99887 -1.8859 5.72377e-21)
(3.84033 -1.74724 -1.36124e-20)
(3.53778 -2.19797 -2.74287e-21)
(3.78116 -2.38424 -2.26503e-21)
(3.66291 -2.61518 -2.77544e-20)
(2.9564 -2.57127 1.07645e-20)
(3.03284 -2.98747 0)
(4.44083 -1.84086 6.78635e-21)
(4.2371 -1.92845 -2.49066e-20)
(4.86714 -1.08064 -1.92207e-20)
(4.66782 -1.56549 4.4069e-20)
(5.12356 0.365166 0)
(5.01808 -0.404217 0)
(5.0706 1.75752 -3.42394e-23)
(5.11602 1.12395 -1.1226e-26)
(4.76103 2.42147 9.97958e-23)
(4.91356 2.19411 0)
(4.32705 2.31698 0)
(4.52882 2.43467 -2.61567e-27)
(3.85794 1.83555 0)
(4.08987 2.08571 0)
(3.39899 1.2582 0)
(3.62825 1.54986 0)
(3.04586 0.587497 0)
(3.20655 0.940492 0)
(2.91114 -0.259999 0)
(2.94337 0.190964 0)
(3.04127 -1.17805 1.66495e-21)
(2.93056 -0.738111 0)
(3.44869 -1.77645 0)
(3.21725 -1.52422 4.58583e-22)
(3.97361 -2.11025 0)
(3.70707 -1.95826 2.87318e-21)
(4.1985 -3.10461 -2.76945e-20)
(4.03261 -3.42787 -1.69181e-20)
(4.1347 -3.42173 2.78138e-20)
(4.23125 -1.2766 1.82258e-20)
(4.22739 -2.38236 -1.59315e-22)
(4.14773 1.20829 -1.06277e-20)
(4.19521 0.00468041 -2.56665e-20)
(4.01829 2.55494 -1.11586e-23)
(4.08159 2.07229 0)
(3.86813 2.64342 0)
(3.94248 2.70312 0)
(3.60977 2.36505 0)
(3.75838 2.50083 0)
(3.23747 2.06598 -2.10131e-23)
(3.41754 2.23921 0)
(2.91318 1.40017 0)
(3.05628 1.79432 0)
(2.71486 0.319867 0)
(2.78664 0.903561 0)
(2.74743 -0.890011 2.18815e-22)
(2.69883 -0.289579 -2.27636e-22)
(2.95771 -1.80674 2.19873e-21)
(2.84036 -1.39756 1.21953e-22)
(3.07632 -2.12391 -1.83376e-20)
(2.89013 -2.15946 -1.6473e-20)
(2.78151 -2.27239 -3.5303e-20)
(3.04688 -2.03288 0)
(3.72691 -3.30687 0)
(3.91071 -3.22298 1.39169e-20)
(4.0437 -2.56245 2.8981e-20)
(4.2784 -2.25168 0)
(3.31398 -3.30332 0)
(3.27041 -2.90739 0)
(3.64933 -1.56301 0)
(2.94811 -2.51982 -1.02287e-19)
(3.4157 -2.26515 5.06397e-21)
(3.49665 -2.44418 0)
(3.5454 -3.30437 3.60984e-21)
(3.5853 -2.81864 -1.72948e-20)
(3.7639 -2.91219 4.46963e-21)
(3.64931 -3.04563 -2.80944e-21)
(3.87686 -2.80099 3.02597e-20)
(4.33431 -2.71173 1.78781e-20)
(4.58305 -2.41115 0)
(3.22935 -2.60875 9.10149e-20)
(3.26451 -3.14118 0)
(4.24666 -1.6531 -6.91952e-21)
(3.8331 -1.36969 1.98405e-20)
(4.08538 -1.54965 1.97145e-20)
(4.75802 -1.61828 -1.53754e-20)
(4.53704 -1.71378 1.42242e-20)
(5.25805 -0.904643 0)
(5.04798 -1.37337 9.90653e-21)
(5.52698 0.418321 9.31667e-27)
(5.44941 -0.290631 -9.68806e-27)
(5.41276 1.64444 -4.02677e-23)
(5.51479 1.09336 0)
(5.00498 2.19336 0)
(5.21432 2.01858 0)
(4.47256 2.06629 3.93189e-24)
(4.71819 2.19878 2.61542e-27)
(3.95112 1.60498 -1.11708e-27)
(4.1885 1.84642 1.15964e-27)
(3.51077 1.07485 0)
(3.7169 1.3369 0)
(3.19717 0.483311 -4.83672e-23)
(3.35148 0.788323 0)
(3.06075 -0.244483 4.99849e-23)
(3.11933 0.136826 0)
(3.17731 -0.991082 1.1698e-21)
(3.09711 -0.633038 0)
(3.54907 -1.50043 -8.93859e-21)
(3.35301 -1.28052 -2.20801e-21)
(4.08872 -1.79706 -3.99593e-21)
(3.81365 -1.65784 6.01777e-21)
(4.71923 -2.08614 1.08648e-20)
(4.40785 -1.94018 3.98711e-21)
(4.38343 -3.33165 9.97468e-21)
(3.92183 -2.7507 4.1438e-22)
(4.15898 -3.09357 -1.09937e-20)
(4.76357 -3.06585 4.56587e-20)
(4.58872 -3.36049 -2.51989e-20)
(4.94529 -1.3128 -3.9304e-20)
(4.88204 -2.37802 -1.49969e-20)
(4.82214 1.11037 0)
(4.92265 -0.0574726 4.82143e-20)
(4.49285 2.42602 -3.55083e-22)
(4.66741 1.96138 -1.39586e-26)
(4.1587 2.49997 0)
(4.31354 2.56777 0)
(3.8208 2.18017 -1.32093e-23)
(4.00118 2.33853 0)
(3.39196 1.88792 -4.98523e-24)
(3.60277 2.04908 0)
(3.05427 1.27512 0)
(3.1949 1.63999 0)
(2.88466 0.277469 0)
(2.93785 0.810942 0)
(2.92048 -0.826228 0)
(2.87186 -0.285658 0)
(3.14205 -1.70817 0)
(3.0206 -1.31818 1.20545e-22)
(3.28797 -2.01689 -3.20657e-21)
(3.55467 -2.5854 -5.73945e-21)
(3.67418 -2.37474 0)
(4.90155 -2.55677 3.87041e-21)
(5.05435 -2.19707 -1.78924e-20)
(3.20116 -2.59002 0)
(3.58479 -2.54754 -1.93864e-20)
(2.87255 -2.36849 -5.82473e-20)
(3.17235 -2.42145 8.19053e-20)
(2.64426 -2.17069 2.00754e-20)
(2.69614 -2.30463 8.57245e-21)
(2.7539 -1.92634 2.02153e-21)
(2.66392 -2.04553 -1.74709e-20)
(3.0712 -1.6545 3.62474e-21)
(2.90013 -1.78849 2.51699e-21)
(3.50391 -1.35567 0)
(3.27289 -1.5051 -1.25222e-20)
(3.71768 -1.20882 -3.35652e-20)
(3.44614 -3.25394 -3.63882e-21)
(3.49094 -2.98068 -1.01252e-26)
(3.54071 -3.12237 2.82015e-21)
(3.76359 -2.96006 0)
(3.49119 -2.76628 0)
(4.10053 -2.97591 0)
(3.39995 -1.97865 -5.80159e-22)
(3.31603 -2.22601 2.95653e-23)
(4.60783 -2.8315 -4.40728e-20)
(5.39024 -2.18485 1.18355e-20)
(5.2025 -2.53582 6.37862e-20)
(4.01919 -1.16164 -2.1407e-20)
(3.91646 -1.04606 2.80889e-20)
(3.45616 -3.15453 -1.3589e-26)
(4.45694 -1.39494 -5.09967e-22)
(4.29509 -1.33438 5.79208e-21)
(4.99398 -1.33033 -5.15562e-21)
(4.76546 -1.45118 0)
(5.5311 -0.697226 4.31829e-27)
(5.31484 -1.12589 5.95995e-21)
(5.79491 0.452485 0)
(5.73863 -0.179773 0)
(5.6282 1.50141 -1.03711e-22)
(5.77098 1.02351 0)
(5.14941 1.93229 0)
(5.40935 1.80543 0)
(4.57329 1.77219 -2.47037e-23)
(4.84197 1.91754 0)
(4.05449 1.35049 -4.23206e-23)
(4.27528 1.58082 0)
(3.64761 0.881178 0)
(3.81944 1.12474 0)
(3.35287 0.351328 -8.47244e-24)
(3.48551 0.629987 0)
(3.22198 -0.290026 9.39655e-24)
(3.27339 0.0460258 0)
(3.34461 -0.938607 -5.99117e-23)
(3.26394 -0.62556 3.51179e-27)
(3.71371 -1.33069 -1.16401e-23)
(3.52177 -1.17663 0)
(4.16828 -1.49269 1.75607e-21)
(3.95977 -1.42313 -5.58049e-21)
(4.6738 -1.69183 -8.65361e-22)
(4.41108 -1.58905 1.15572e-20)
(5.45793 -1.76786 4.04662e-21)
(5.0441 -1.77711 -1.06672e-20)
(4.07198 -2.49919 3.83412e-22)
(3.49514 -1.71404 5.56243e-22)
(3.77565 -2.11512 0)
(4.71245 -3.10247 -9.86595e-22)
(4.38042 -2.85647 1.08719e-21)
(5.26656 -2.93585 -3.31454e-21)
(5.00764 -3.16888 -4.01997e-22)
(5.57322 -1.32008 1.21468e-22)
(5.4664 -2.31117 -2.25251e-21)
(5.4209 0.986062 0)
(5.56159 -0.125473 0)
(4.94921 2.23471 1.63187e-22)
(5.20552 1.79047 -2.26064e-26)
(4.44958 2.33896 9.09238e-27)
(4.69115 2.38593 -9.62601e-27)
(4.03262 1.98488 1.85154e-23)
(4.24325 2.17383 0)
(3.5641 1.6772 0)
(3.80417 1.82798 0)
(3.20698 1.15327 -4.29621e-23)
(3.35688 1.47003 0)
(3.06541 0.254801 0)
(3.09998 0.742106 0)
(3.13302 -0.760473 -5.06107e-23)
(3.06197 -0.253627 0)
(3.36494 -1.60026 7.7379e-23)
(3.21487 -1.21153 -2.44115e-22)
(3.70068 -2.15705 -6.87272e-21)
(3.49017 -1.9153 0)
(3.98362 -2.42465 -1.27386e-19)
(3.80606 -2.33734 5.88551e-20)
(4.05472 -2.40853 -2.42515e-20)
(2.7271 -2.04821 0)
(3.50684 -2.11664 -9.41831e-20)
(3.05127 -2.15026 1.12656e-20)
(2.47078 -1.84457 0)
(2.53055 -1.97743 0)
(2.61627 -1.59641 -3.5222e-21)
(2.5083 -1.71509 -2.45827e-27)
(2.97641 -1.3585 -2.32481e-21)
(2.78366 -1.4756 2.87546e-21)
(3.3503 -1.10036 0)
(3.17223 -1.23504 1.33983e-20)
(3.11871 -1.51696 -3.74891e-24)
(3.2401 -1.26225 -1.51649e-21)
(5.73184 -1.92916 -5.91922e-20)
(5.86108 -1.59626 -5.03257e-20)
(3.68258 -0.822742 3.3344e-20)
(3.51122 -0.963052 -1.64414e-20)
(3.49198 -3.13928 -2.22765e-25)
(3.63531 -3.05602 0)
(3.45064 -2.92773 0)
(3.89269 -3.11056 -4.95559e-25)
(3.25346 -2.47094 -2.16077e-23)
(4.31007 -3.05592 -2.25526e-20)
(3.03714 -1.76372 1.49835e-23)
(4.85577 -2.76349 0)
(2.99296 -0.694989 -9.93354e-21)
(2.86371 -0.928604 5.83769e-23)
(5.47092 -2.18756 -9.09447e-20)
(6.08767 -1.13784 5.59271e-20)
(5.94402 -1.26945 2.58806e-20)
(3.05423 -0.421063 1.27054e-20)
(2.79773 -0.006124 9.96392e-21)
(2.849 0.170638 1.5112e-20)
(6.07686 -0.316408 3.23532e-20)
(6.01555 -0.913631 4.60343e-21)
(6.12788 -0.367319 2.98501e-22)
(3.85131 -0.686088 1.84157e-20)
(3.65756 -0.650846 0)
(3.79985 -0.555994 -2.17999e-20)
(3.5527 -3.14186 -1.60722e-26)
(4.17093 -0.967222 5.89231e-21)
(4.06864 -0.887623 3.28423e-20)
(4.60095 -1.16009 -4.98709e-21)
(4.44266 -1.14129 -5.82513e-21)
(5.12464 -1.06338 0)
(4.9057 -1.21919 0)
(5.64735 -0.487232 0)
(5.43577 -0.888194 0)
(5.90621 0.466495 0)
(5.85222 -0.0631484 0)
(5.72774 1.30004 0)
(5.88458 0.92363 0)
(5.2232 1.62662 1.85012e-27)
(5.50609 1.54381 -1.92199e-27)
(4.6444 1.469 2.07692e-23)
(4.92097 1.61568 2.63534e-27)
(4.14542 1.10774 4.23205e-23)
(4.36146 1.32205 0)
(3.74855 0.706006 0)
(3.91162 0.932669 0)
(3.45626 0.251021 -5.4272e-24)
(3.5727 0.499013 0)
(3.34315 -0.255918 6.05416e-24)
(3.36789 0.00572297 0)
(3.50704 -0.703287 5.99042e-23)
(3.39629 -0.496874 0)
(3.86927 -1.00274 1.1798e-22)
(3.68871 -0.867902 4.09709e-27)
(4.27611 -1.26489 5.3657e-21)
(4.08019 -1.14392 0)
(4.79556 -1.41653 -4.14778e-21)
(4.53246 -1.37621 -6.82461e-21)
(5.41741 -1.32003 1.1516e-20)
(5.10931 -1.39732 -6.35697e-21)
(5.74839 -1.19869 -2.90732e-21)
(3.64788 -1.44268 7.12974e-21)
(3.34538 -0.983745 -2.0115e-20)
(4.22184 -2.17908 1.77589e-23)
(3.92365 -1.82811 7.99364e-22)
(4.90107 -2.73959 -1.65526e-21)
(4.5444 -2.49623 1.91571e-21)
(5.58174 -2.65726 -4.65193e-23)
(5.26721 -2.82116 4.08187e-22)
(5.98546 -1.25606 -1.21363e-22)
(5.83947 -2.14113 -4.78449e-26)
(5.85871 0.819961 0)
(6.00285 -0.178554 0)
(5.28622 1.94781 -2.98375e-26)
(5.60048 1.54525 3.15825e-26)
(4.64026 2.07214 0)
(4.95701 2.0926 0)
(4.14198 1.76423 1.75171e-23)
(4.37256 1.94256 0)
(3.69806 1.46224 0)
(3.9267 1.60083 0)
(3.34982 1.03623 4.29623e-23)
(3.49758 1.29303 0)
(3.24197 0.245456 0)
(3.25558 0.677409 0)
(3.34589 -0.677936 -1.1759e-23)
(3.24475 -0.215129 1.50593e-26)
(3.6035 -1.46956 -7.52098e-23)
(3.41815 -1.09676 0)
(3.94592 -2.03768 0)
(3.72173 -1.79283 -4.79476e-24)
(4.32437 -2.30941 3.91864e-20)
(4.13194 -2.21674 9.13599e-24)
(4.54387 -2.26332 8.57492e-20)
(3.50692 -1.64222 -2.29058e-19)
(4.08355 -1.5885 1.20539e-19)
(2.64042 -1.56319 0)
(3.00857 -1.66846 0)
(2.32193 -1.37853 -2.88288e-24)
(2.41028 -1.48571 -6.76571e-27)
(2.47486 -1.16381 -7.08311e-25)
(2.35687 -1.26896 -2.24736e-27)
(2.83916 -0.988151 1.16205e-21)
(2.64373 -1.06964 2.15695e-27)
(3.27207 -0.820612 1.5483e-20)
(3.04566 -0.904004 -6.38087e-21)
(3.48392 -0.73686 1.55127e-21)
(3.42921 -3.05531 4.44722e-25)
(3.68972 -3.16726 -9.7564e-26)
(3.25499 -2.7072 0)
(3.98927 -3.16347 5.55903e-25)
(2.96887 -2.04568 3.91616e-23)
(4.47637 -2.90842 2.25948e-20)
(2.77068 -1.13011 -6.25707e-23)
(5.07007 -2.32348 6.51207e-21)
(2.67601 -0.190385 2.89597e-23)
(5.62712 -1.32142 0)
(2.82614 0.648589 -1.71203e-20)
(2.69934 0.664686 0)
(5.89315 -0.155949 3.7159e-20)
(5.9061 0.419844 2.53747e-20)
(5.73532 0.80271 -3.05953e-20)
(3.16358 0.516768 -3.08299e-22)
(3.00933 0.915649 -2.81683e-20)
(3.3985 0.716886 -2.85438e-22)
(5.40763 1.18266 2.63481e-20)
(5.8393 0.227598 5.00714e-20)
(5.54048 0.754302 7.64745e-20)
(3.51259 -0.360778 0)
(3.67096 -0.322824 -7.73155e-20)
(3.98021 -0.541117 3.5967e-20)
(3.92829 -0.448455 -3.77062e-20)
(3.53889 -3.14664 9.95342e-26)
(4.27552 -0.760344 -1.54187e-20)
(4.17516 -0.731502 -1.63949e-20)
(4.66593 -0.895522 1.27386e-21)
(4.5191 -0.94212 -6.42693e-21)
(5.15864 -0.776816 -1.01833e-23)
(4.95208 -0.975177 9.69227e-27)
(5.64218 -0.285995 0)
(5.45303 -0.662111 0)
(5.8636 0.49197 0)
(5.82634 0.0338898 0)
(5.68761 1.13037 2.20617e-25)
(5.83926 0.82885 0)
(5.21953 1.34661 0)
(5.48974 1.29146 0)
(4.6638 1.19316 0)
(4.94122 1.32871 0)
(4.17166 0.872614 0)
(4.3989 1.0796 0)
(3.77964 0.514165 0)
(3.94652 0.735799 0)
(3.54545 0.131637 6.22659e-23)
(3.62739 0.353552 0)
(3.5384 -0.265396 2.42103e-24)
(3.50852 -0.0483119 1.70543e-26)
(3.75156 -0.672388 0)
(3.63068 -0.465856 0)
(4.04099 -1.00356 3.70277e-24)
(3.9024 -0.863413 -4.09705e-27)
(4.38103 -1.12315 5.45954e-23)
(4.21239 -1.09957 1.50953e-26)
(4.78444 -1.13189 6.41656e-21)
(4.58456 -1.14585 6.36506e-24)
(5.26723 -1.03197 -2.97429e-21)
(5.0284 -1.11478 -3.56658e-21)
(5.75124 -0.643367 -1.38833e-20)
(5.52655 -0.894192 1.04693e-20)
(5.89923 -0.277663 -5.26866e-20)
(3.10058 -0.164356 2.06083e-21)
(3.02963 0.237205 -3.33898e-22)
(3.68873 -1.11301 -2.3081e-22)
(3.34577 -0.643296 0)
(4.3836 -1.87024 -1.75543e-23)
(4.04607 -1.51522 -8.09565e-22)
(5.07649 -2.39273 0)
(4.72936 -2.16397 0)
(5.77784 -2.37539 2.76666e-23)
(5.44612 -2.49215 0)
(6.23485 -1.18146 0)
(6.05872 -1.94347 0)
(6.11029 0.63798 0)
(6.25644 -0.246847 0)
(5.48464 1.64437 3.04593e-23)
(5.82262 1.28518 0)
(4.7618 1.77668 0)
(5.10847 1.77508 0)
(4.20966 1.55304 -2.28234e-23)
(4.44274 1.69246 0)
(3.80923 1.26457 -5.40317e-23)
(3.99418 1.40054 0)
(3.48141 0.925857 -6.31747e-23)
(3.61163 1.12676 3.83528e-27)
(3.39103 0.262816 -6.85969e-23)
(3.38297 0.630483 -3.33454e-26)
(3.52554 -0.569891 -7.23029e-24)
(3.41118 -0.161489 0)
(3.79972 -1.30805 0)
(3.6327 -0.977629 0)
(4.16849 -1.86474 0)
(3.98385 -1.62743 4.80294e-24)
(4.62577 -2.12796 -2.63977e-20)
(4.43896 -2.03068 -8.97233e-24)
(4.92389 -2.05438 2.06016e-20)
(4.74302 -0.936841 0)
(5.27573 -0.827283 -2.80796e-19)
(3.51474 -1.01309 1.25967e-19)
(4.13111 -0.9998 4.1564e-20)
(2.56601 -0.928394 1.16773e-23)
(2.96847 -0.990984 2.4968e-26)
(2.23646 -0.8078 5.90367e-24)
(2.328 -0.877006 1.46594e-26)
(2.38657 -0.673854 -4.33251e-27)
(2.26481 -0.741294 4.40515e-27)
(2.78122 -0.562152 2.72895e-21)
(2.56814 -0.61025 -2.87772e-27)
(3.16837 -0.471207 -1.54221e-20)
(2.98493 -0.520525 -2.7806e-21)
(3.34229 -0.412745 -1.78525e-20)
(3.27105 -2.92052 0)
(3.68382 -3.17149 3.64396e-26)
(2.98786 -2.32497 0)
(4.04957 -2.96203 -4.06341e-24)
(2.68896 -1.38246 -4.70011e-23)
(4.56303 -2.37851 -6.42721e-23)
(2.56766 -0.301762 5.52198e-23)
(5.16547 -1.3307 2.85578e-22)
(2.59051 0.614875 -7.72756e-23)
(5.58592 0.023732 5.54742e-22)
(2.78739 1.12786 0)
(5.5397 1.21631 2.66678e-20)
(3.60434 0.924857 -3.16966e-20)
(3.25141 1.07843 5.41567e-20)
(5.16345 1.79222 1.89168e-22)
(5.09603 1.12133 -8.13191e-20)
(4.80851 1.63332 -5.2556e-20)
(3.80632 -0.302724 2.30671e-21)
(3.43166 -3.08869 -2.42656e-25)
(4.11033 -0.38392 -3.51247e-20)
(3.90848 -0.131206 2.37191e-19)
(3.99598 -0.37532 -1.45782e-19)
(4.37282 -0.616896 3.39707e-21)
(4.18966 -0.586687 3.25617e-20)
(4.72313 -0.739467 -1.2723e-21)
(4.4715 -0.73993 3.29449e-21)
(5.15499 -0.609188 -4.07515e-21)
(4.86822 -0.709921 3.51282e-21)
(5.54507 -0.175468 -2.13078e-23)
(5.30837 -0.395503 8.39451e-27)
(5.71809 0.44298 -1.5413e-23)
(5.62899 0.175093 -3.39237e-27)
(5.5495 0.931174 1.99524e-23)
(5.65312 0.77473 0)
(5.11072 1.06437 0)
(5.3449 1.09284 0)
(4.5757 0.911581 -4.82169e-23)
(4.84547 1.06421 0)
(4.10068 0.640839 2.64859e-26)
(4.33183 0.830457 -2.74954e-26)
(3.76273 0.367416 2.9742e-26)
(3.91715 0.542161 -3.08662e-26)
(3.61102 0.114643 -3.16742e-26)
(3.66965 0.264301 3.28622e-26)
(3.61804 -0.150831 -1.37147e-22)
(3.60879 -0.00173795 3.39567e-26)
(3.68865 -0.456419 7.04949e-23)
(3.65644 -0.303515 3.4958e-26)
(3.85296 -0.697496 3.69257e-24)
(3.75984 -0.599341 0)
(4.16522 -0.859329 6.72922e-23)
(3.99717 -0.792796 3.37188e-26)
(4.58507 -0.931788 5.69179e-23)
(4.36614 -0.924165 0)
(5.05007 -0.818794 4.06518e-21)
(4.81653 -0.905164 0)
(5.47269 -0.436523 1.72379e-20)
(5.27496 -0.673222 -1.92066e-20)
(5.57615 0.173203 0)
(5.58024 -0.140141 2.36649e-21)
(5.13012 0.750754 9.35431e-20)
(5.41508 0.492566 -8.98716e-20)
(3.33193 0.335464 2.35993e-21)
(3.47981 0.759764 1.87049e-20)
(3.41363 0.55027 -1.80823e-20)
(3.20259 -0.0917373 6.47694e-22)
(3.23334 0.135254 7.42644e-23)
(3.56946 -0.752687 0)
(3.31584 -0.385629 0)
(4.31628 -1.46564 -3.25785e-23)
(3.92904 -1.11756 0)
(5.12195 -1.99796 0)
(4.72546 -1.76671 0)
(5.84096 -2.05484 1.8846e-23)
(5.50765 -2.12003 0)
(6.2455 -1.09035 0)
(6.09284 -1.72047 0)
(6.12124 0.447715 0)
(6.25192 -0.30303 0)
(5.53397 1.29388 -3.6909e-23)
(5.84098 0.98864 0)
(4.87397 1.43283 0)
(5.18226 1.40539 0)
(4.31186 1.32335 -3.99327e-26)
(4.5436 1.39603 4.2288e-26)
(3.9228 1.08659 5.39775e-23)
(4.07573 1.20154 5.77807e-26)
(3.6079 0.813219 1.32519e-22)
(3.72033 0.963467 6.35502e-26)
(3.50744 0.282637 -4.49353e-24)
(3.49071 0.583866 0)
(3.66173 -0.454491 6.96722e-23)
(3.53832 -0.082036 -7.50639e-26)
(3.96879 -1.14576 6.48037e-26)
(3.80466 -0.820043 -6.87365e-26)
(4.37224 -1.66462 0)
(4.19072 -1.41722 0)
(4.88856 -1.89365 -7.61046e-22)
(4.65739 -1.79613 4.62126e-22)
(5.39779 -1.67055 0)
(5.16992 -1.82183 9.05603e-22)
(5.56439 -1.40913 0)
(4.71428 -0.306072 0)
(5.67772 -0.252937 -6.57457e-21)
(5.26689 -0.266628 9.30495e-20)
(3.49018 -0.280567 -1.5785e-20)
(4.10087 -0.30328 -3.22164e-20)
(2.56191 -0.189998 -3.24024e-28)
(2.96361 -0.224702 0)
(2.22221 -0.152679 -3.02855e-24)
(2.31917 -0.172318 0)
(2.35582 -0.127516 0)
(2.24269 -0.140001 0)
(2.73543 -0.0939638 -2.94458e-25)
(2.5261 -0.109412 0)
(3.20845 -0.117423 0)
(2.97114 -0.0978119 0)
(3.58094 -0.115856 0)
(3.41791 -0.127885 -9.20667e-21)
(3.84409 -0.119331 0)
(3.70999 -0.0930069 1.94751e-20)
(3.79387 1.12191 5.98801e-20)
(3.59026 0.91651 0)
(4.70675 1.20303 5.82385e-21)
(4.81899 0.870193 6.61574e-21)
(3.06116 -2.57828 5.40973e-24)
(3.63498 -2.9066 0)
(5.91586 -0.858522 0)
(2.71014 -1.64344 7.61692e-24)
(4.02818 -2.35296 2.9371e-24)
(4.00091 -0.157737 5.5178e-20)
(3.83757 0.0303578 0)
(3.92276 0.0114855 0)
(2.48905 -0.462853 2.78963e-23)
(4.5771 -1.30074 8.96728e-23)
(2.47911 0.622959 0)
(5.11009 0.133818 -5.33163e-22)
(2.66305 1.27964 0)
(5.32928 1.53239 0)
(3.02988 1.32714 0)
(5.07671 2.3256 -1.92259e-20)
(3.44111 1.26664 -3.52579e-21)
(4.55403 2.24736 1.38847e-21)
(3.73776 1.03423 0)
(4.03381 1.2249 -2.94924e-20)
(4.33253 1.62008 -5.17161e-20)
(4.4455 1.08611 1.07071e-19)
(4.58668 0.833088 -1.06631e-19)
(3.27961 -2.78192 1.72784e-25)
(4.16182 -0.377922 1.7417e-20)
(4.06704 -0.227 0)
(4.36844 -0.538506 -3.3863e-21)
(4.23333 -0.443961 -7.81221e-21)
(4.67242 -0.562487 0)
(4.49054 -0.561476 3.6895e-21)
(5.022 -0.40387 0)
(4.83698 -0.508501 6.39465e-22)
(5.30342 -0.0172052 2.12999e-23)
(5.16679 -0.241883 0)
(5.41644 0.472574 4.6201e-23)
(5.37842 0.231357 0)
(5.2702 0.794057 1.27915e-23)
(5.372 0.670542 0)
(4.89417 0.831083 -4.11446e-23)
(5.10327 0.859921 -3.60401e-26)
(4.43258 0.67086 4.817e-23)
(4.672 0.789105 4.80022e-26)
(4.04921 0.461688 -5.85641e-23)
(4.23999 0.592614 5.37611e-26)
(3.8324 0.279922 -6.07637e-26)
(3.93739 0.391787 5.91843e-26)
(3.76527 0.0860385 -6.69016e-23)
(3.79927 0.205554 6.71983e-26)
(3.76988 -0.194413 1.3884e-22)
(3.77088 -0.0338127 0)
(3.86854 -0.512393 6.63529e-25)
(3.80699 -0.356437 7.2598e-26)
(4.11135 -0.701276 -1.40968e-22)
(3.97843 -0.629953 0)
(4.39338 -0.739345 -6.72578e-23)
(4.25419 -0.733814 -7.02993e-26)
(4.66473 -0.719295 0)
(4.5284 -0.736216 0)
(4.94504 -0.600041 8.43011e-21)
(4.80008 -0.680608 -8.82023e-21)
(5.19642 -0.326785 0)
(5.08394 -0.482856 -4.4514e-27)
(5.24459 0.11928 3.39028e-21)
(5.25149 -0.125139 -4.97669e-21)
(4.98668 0.542023 4.9069e-20)
(5.15447 0.3624 -4.89717e-20)
(4.56645 0.61087 0)
(4.76945 0.621956 -6.5882e-21)
(3.65543 0.67604 1.0133e-20)
(3.97319 0.844948 -8.53893e-22)
(3.80984 0.776494 -1.83033e-20)
(3.48453 0.304894 2.1169e-20)
(3.54705 0.512059 -9.98393e-21)
(3.4101 -0.0906832 1.02756e-20)
(3.44398 0.0973594 -3.19177e-20)
(3.54412 -0.502116 -4.03285e-23)
(3.42876 -0.272316 3.40408e-22)
(4.11341 -1.04677 3.2578e-23)
(3.78547 -0.762301 0)
(4.90025 -1.56417 1.10733e-25)
(4.50256 -1.32281 -1.17038e-25)
(5.57317 -1.74808 -6.707e-26)
(5.26439 -1.73566 7.09078e-26)
(5.98523 -0.991433 -1.45503e-23)
(5.80814 -1.50956 0)
(5.9635 0.284026 1.01659e-26)
(6.03756 -0.341513 -1.0756e-26)
(5.46337 1.01644 6.41567e-24)
(5.7307 0.737976 3.56852e-26)
(4.89758 1.15871 0)
(5.15245 1.12522 0)
(4.39746 1.10531 6.07354e-23)
(4.60623 1.13824 -3.58985e-27)
(4.03125 0.926798 -1.25059e-25)
(4.1668 1.01845 1.32462e-25)
(3.7313 0.70329 4.29721e-24)
(3.84196 0.817173 0)
(3.59616 0.301847 7.31215e-23)
(3.60357 0.537939 0)
(3.74474 -0.326196 -7.55353e-23)
(3.62741 0.0131935 0)
(4.08588 -0.96157 1.37564e-25)
(3.90988 -0.635402 -1.45863e-25)
(4.5276 -1.43546 0)
(4.32164 -1.1831 0)
(5.05506 -1.64075 -2.94503e-21)
(4.80167 -1.53996 2.95501e-21)
(5.58751 -1.4251 1.28129e-20)
(5.336 -1.56907 -1.27593e-20)
(5.78346 -1.15764 0)
(5.65281 0.276642 2.22239e-20)
(5.90938 0.252044 -3.56062e-20)
(4.72688 0.402979 0)
(5.26203 0.355526 -2.18261e-20)
(3.48843 0.504068 6.11613e-23)
(4.11985 0.476163 0)
(2.54095 0.554294 -1.1603e-23)
(2.94174 0.544793 -1.00124e-25)
(2.22337 0.493337 0)
(2.30838 0.530445 0)
(2.37326 0.418001 0)
(2.2532 0.455754 0)
(2.76764 0.368142 2.92754e-25)
(2.55605 0.389118 0)
(3.1642 0.30306 0)
(2.97382 0.342055 0)
(3.54433 0.192069 -1.86351e-20)
(3.35745 0.247358 8.89486e-21)
(3.70461 0.127925 8.75511e-23)
(3.9033 1.16021 0)
(4.13965 0.890616 1.24153e-20)
(4.42222 0.751877 8.03169e-20)
(4.40566 0.562566 -1.00583e-19)
(2.84213 -1.88513 -4.51931e-25)
(3.52768 -2.24735 1.72669e-24)
(4.09214 -0.0370639 -8.71555e-20)
(4.0194 -0.0255069 5.50798e-20)
(2.49402 -0.633998 -1.0027e-22)
(3.96177 -1.22535 0)
(2.39749 0.608292 -1.53269e-22)
(4.50526 0.216919 -2.62151e-22)
(2.54625 1.45739 0)
(4.93699 1.69607 0)
(2.93276 1.6264 2.44967e-22)
(5.05401 2.64629 -9.82198e-22)
(3.27644 1.44316 0)
(4.66624 2.77093 -7.02656e-21)
(3.62238 1.4342 -2.07548e-20)
(4.06199 2.08039 0)
(4.2631 1.2979 1.75321e-20)
(4.03272 1.35116 4.57578e-20)
(4.30659 0.915252 -2.80262e-20)
(4.10709 1.23812 2.33931e-20)
(4.29519 0.95471 -8.04309e-20)
(4.20883 0.873854 -8.83881e-21)
(4.35303 0.869756 -7.34224e-21)
(4.46197 0.938084 3.47943e-20)
(5.84714 0.553323 4.1548e-20)
(4.2659 0.657446 1.53972e-21)
(4.27092 0.48706 2.2259e-19)
(3.10398 -2.08707 0)
(4.21871 -0.24315 -7.53644e-21)
(4.08744 -0.223623 2.93443e-20)
(4.40504 -0.377748 0)
(4.23216 -0.359353 0)
(4.6669 -0.397305 0)
(4.47451 -0.405332 0)
(4.93608 -0.274166 0)
(4.7697 -0.342581 0)
(5.10684 0.0462115 4.11183e-23)
(5.0204 -0.117914 2.7266e-27)
(5.10246 0.446812 -3.0857e-23)
(5.1162 0.268032 7.45572e-26)
(4.9357 0.677047 -3.30368e-23)
(5.03228 0.609146 7.54315e-26)
(4.6439 0.651253 4.10965e-23)
(4.80046 0.706358 8.52876e-26)
(4.31963 0.50051 0)
(4.4828 0.598478 -3.12011e-27)
(4.07289 0.358171 5.85079e-23)
(4.19327 0.443069 3.50233e-27)
(3.93504 0.24208 0)
(4.00655 0.317108 3.87845e-27)
(3.85943 0.0858897 4.73651e-25)
(3.90326 0.183776 0)
(3.8375 -0.135165 -1.38538e-22)
(3.84342 -0.0140973 0)
(3.91355 -0.350455 -7.13991e-23)
(3.86042 -0.247951 1.42284e-25)
(4.0778 -0.514044 1.4265e-22)