/*--------------------------------*- C++ -*----------------------------------*\
  =========                 |
  \\      /  F ield         | OpenFOAM: The Open Source CFD Toolbox
   \\    /   O peration     | Website:  https://openfoam.org
    \\  /    A nd           | Version:  10
     \\/     M anipulation  |
\*---------------------------------------------------------------------------*/
FoamFile
{
    format      ascii;
    class       volVectorField;
    location    "7.5";
    object      U;
}
// * * * * * * * * * * * * * * * * * * * * * * * * * * * * * * * * * * * * * //

dimensions      [0 1 -1 0 0 0 0];

internalField   nonuniform List<vector> 
8711
(
(1.0617 0.00698142 0)
(1.06165 0.00756983 -7.66796e-23)
(1.0633 0.00680238 -2.70225e-22)
(1.19526 0.00491093 6.81488e-21)
(1.19793 -0.006959 2.48112e-21)
(1.215 -0.00442525 1.41513e-20)
(1.08718 -0.0143111 1.04364e-22)
(1.08893 -0.0195727 1.97846e-21)
(0.609571 -0.0469399 -1.20245e-21)
(0.610322 0.0481916 9.43112e-21)
(0.787522 -0.502074 0)
(0.451995 -0.709034 -3.34784e-20)
(0.954614 0.0340048 -1.41966e-21)
(0.932419 0.0203634 4.98634e-23)
(1.06323 -0.079211 6.62422e-21)
(1.02831 -0.0684063 0)
(1.22516 0.0243456 -8.21134e-21)
(1.23805 0.0303006 8.3998e-21)
(1.25394 0.0258757 5.32905e-21)
(1.06366 0.00389136 3.01771e-22)
(1.06381 0.00387245 -4.41949e-22)
(1.06379 0.00497126 -1.54292e-22)
(1.06363 0.00462094 0)
(1.06345 0.00666794 9.71886e-23)
(1.42989 -0.315636 7.41821e-20)
(1.43168 -0.3341 -1.72951e-20)
(1.48888 -0.399794 3.09147e-20)
(1.26202 -0.284215 -6.03442e-20)
(0.970874 -0.0160763 1.00304e-21)
(1.01196 -0.0143956 -1.34122e-21)
(1.0407 -0.0125239 2.24143e-23)
(0.967558 0.232033 9.15977e-20)
(0.904665 0.255968 2.51073e-20)
(1.36068 0.323247 4.23137e-21)
(1.35783 0.280526 -3.00335e-20)
(1.03905 0.0572514 -3.56332e-20)
(1.04761 0.0689917 1.01811e-20)
(1.03937 -0.0760935 0)
(1.02317 -0.0449459 -5.05765e-20)
(1.02839 -0.0477984 7.09813e-20)
(1.01546 -0.0336118 0)
(1.0083 -0.0180694 0)
(-0.151845 -0.0372262 7.63157e-21)
(-0.150283 -0.111306 1.01188e-19)
(0.486329 0.680268 4.30568e-20)
(0.776879 0.691047 2.65961e-20)
(-0.0438848 0.0546418 -9.20598e-20)
(0.0698541 0.0595774 3.23416e-20)
(-0.0733804 0.0541723 -4.71785e-20)
(1.06412 0.00195984 1.1652e-21)
(1.06416 0.00214843 2.36949e-21)
(1.06413 0.00209744 7.67793e-22)
(1.06403 0.00203822 0)
(1.12875 0.0273715 0)
(1.12336 0.0320858 3.9221e-22)
(1.11597 0.0349758 -6.83497e-22)
(0.945793 -0.00359294 2.40503e-21)
(0.928116 -0.00227332 -5.04297e-21)
(0.927325 0.00803947 0)
(0.905556 0.0141441 5.36035e-21)
(1.06396 -0.00333631 -1.42171e-21)
(1.06438 -0.00371165 -7.38899e-22)
(1.06295 -0.00444055 1.78381e-21)
(1.06269 -0.00398375 7.50822e-22)
(1.07156 -0.00625009 -4.09083e-21)
(1.07535 -0.00817753 0)
(1.08485 -0.00704973 1.68377e-21)
(1.06389 0.00568515 0)
(1.06412 0.00553196 1.43571e-22)
(1.06344 0.00513869 -1.60176e-23)
(1.05492 -0.00369726 3.04334e-21)
(1.05758 -0.00521356 -1.51009e-21)
(1.05279 -0.00421677 5.66084e-22)
(1.05116 -0.00227436 0)
(1.06697 0.00334622 -4.11072e-21)
(1.06733 -0.00286542 0)
(1.07483 0.00427611 3.38907e-21)
(1.07556 0.0110207 -2.66758e-21)
(1.06433 0.00518201 -1.46959e-22)
(1.06445 0.000476697 -4.47363e-23)
(1.06469 0.000249995 7.71337e-22)
(1.0649 -0.00162027 2.27423e-22)
(1.0652 -0.00142479 0)
(1.06432 0.00566568 1.64908e-23)
(1.06414 0.00586188 3.3797e-23)
(1.06383 0.00614564 -8.72198e-23)
(0.99205 0.0596427 3.8164e-21)
(0.940866 0.0522157 -1.28366e-20)
(1.06634 0.125751 1.38682e-21)
(1.02028 0.118941 1.22598e-23)
(1.10701 0.0268516 -1.30929e-21)
(1.1116 0.0246369 2.98408e-22)
(1.10881 0.0395512 5.06859e-22)
(1.2178 -0.124726 4.48637e-21)
(1.19714 -0.10589 -4.41122e-21)
(1.11186 0.111561 1.07629e-20)
(1.09475 0.110181 -5.40488e-22)
(1.08601 0.0976251 -4.85765e-21)
(1.10051 0.101617 -1.77358e-21)
(1.13637 0.126259 2.23986e-23)
(1.12479 0.10054 0)
(0.980132 -0.175544 -6.11583e-21)
(0.986913 -0.237227 1.52134e-20)
(0.946921 0.0151221 1.32104e-21)
(0.958969 0.010506 5.90248e-22)
(0.970791 0.00634235 5.23728e-23)
(0.980323 0.00346377 0)
(0.989616 0.000483374 6.80668e-22)
(0.997217 -0.00122905 -7.2058e-22)
(1.00458 -0.00257004 -4.14271e-23)
(1.01102 -0.00339112 -3.89023e-23)
(1.01722 -0.00368491 2.62406e-22)
(1.02276 -0.00366256 -3.56252e-22)
(1.0281 -0.0035139 -1.26218e-22)
(1.03292 -0.00304579 -2.33553e-22)
(1.03738 -0.00278011 2.99375e-22)
(1.04136 -0.00241869 1.12399e-22)
(1.04507 -0.00224109 2.0362e-22)
(1.04746 -0.00513296 -4.18053e-22)
(1.04813 -0.00196219 3.86455e-22)
(1.05013 -0.00442497 -6.89035e-22)
(1.04092 -0.00646135 5.83063e-23)
(1.04421 -0.00566044 2.17232e-22)
(1.03309 -0.00790717 -1.61232e-23)
(1.03704 -0.00711037 1.20813e-22)
(1.02392 -0.00895996 1.45414e-22)
(1.02862 -0.00843804 6.82093e-23)
(1.01295 -0.00900972 0)
(1.01856 -0.00908975 3.86282e-23)
(0.999202 -0.00731331 9.012e-23)
(1.00646 -0.00831799 0)
(0.981255 -0.00356611 -2.67994e-23)
(0.990544 -0.00542278 0)
(0.956913 0.00209529 -4.82785e-22)
(0.969725 -0.000814632 -5.5859e-23)
(0.943412 0.00528645 -2.25691e-21)
(0.974486 0.020679 9.12582e-22)
(0.965996 0.0271597 2.89547e-22)
(0.990907 0.0112763 7.1507e-22)
(0.983425 0.0156003 -4.18173e-22)
(1.00383 0.00537523 -6.87717e-22)
(0.997822 0.00797679 -7.18719e-22)
(1.01533 0.00236088 -6.31443e-22)
(1.01002 0.00365549 1.05291e-21)
(1.02552 0.00128483 6.61531e-22)
(1.02055 0.00170777 -5.48389e-23)
(1.03468 0.00122073 -1.59352e-23)
(1.03034 0.00123081 -5.16857e-22)
(1.04233 0.000937214 1.97255e-22)
(1.03865 0.00104597 -3.40166e-22)
(1.04866 0.000563189 0)
(1.0457 0.000794393 0)
(1.05114 8.27144e-05 -1.70798e-22)
(0.912 0.0312118 4.58671e-21)
(1.05343 -0.00230435 6.7845e-22)
(1.05583 -0.00558588 -7.27915e-22)
(1.05329 -0.000285857 -4.99736e-22)
(0.889893 0.0197154 -2.48899e-21)
(0.943702 0.0411729 -4.26303e-21)
(1.05233 -0.00721075 4.07243e-22)
(1.05419 -0.00642218 3.48293e-22)
(1.04839 -0.00905278 -2.23276e-22)
(1.05031 -0.00809453 -1.30701e-22)
(1.04398 -0.0109713 2.60562e-22)
(1.04597 -0.00996869 -2.20564e-22)
(1.03908 -0.0125636 -1.43993e-22)
(1.04128 -0.0117714 0)
(1.0331 -0.0134507 -9.48055e-22)
(1.03595 -0.0130705 6.26364e-22)
(1.02503 -0.0134086 6.25356e-22)
(1.0291 -0.0135838 3.29454e-22)
(1.0126 -0.0122679 1.29115e-22)
(1.01877 -0.0128799 -7.48424e-22)
(0.994057 -0.00997252 9.67894e-22)
(1.00354 -0.0111907 -1.55592e-22)
(0.965902 -0.00687957 0)
(0.981276 -0.00871852 -1.00119e-21)
(1.05547 -0.00238427 -1.99052e-21)
(1.05503 -0.00060467 6.29592e-22)
(0.997765 0.0408951 5.10958e-22)
(0.993243 0.0494445 -3.31449e-21)
(1.00815 0.0265321 4.25761e-22)
(1.00334 0.0334005 2.3324e-22)
(1.01665 0.016119 9.58105e-23)
(1.01248 0.0208367 1.31464e-23)
(1.02299 0.00963725 -3.63377e-22)
(1.01989 0.0125144 3.55499e-22)
(1.02947 0.00639462 8.65861e-22)
(1.02636 0.00773243 0)
(1.03541 0.00499771 -1.24509e-22)
(1.03237 0.00558274 -5.40172e-22)
(1.04162 0.00453441 -2.51323e-22)
(1.03866 0.0047147 2.49186e-22)
(1.04672 0.00383211 -4.52425e-22)
(1.04409 0.00415496 4.60627e-22)
(1.0513 0.00290624 -2.27545e-23)
(1.04904 0.00334589 -1.25436e-23)
(1.05461 0.00161185 -6.4865e-22)
(1.05306 0.00215447 -3.28603e-22)
(1.05855 -0.00422454 -3.3679e-21)
(1.05714 -0.0037699 3.03559e-22)
(0.898584 0.039027 0)
(1.05587 0.00102147 0)
(0.906058 -0.000631561 5.25561e-21)
(0.867446 0.0242971 -1.37343e-21)
(0.994528 -0.0188662 -4.73183e-21)
(0.977484 -0.0202632 4.40551e-21)
(1.06051 -0.00446092 1.1658e-20)
(1.06055 -0.00405008 -5.0513e-21)
(1.06138 -0.0053607 1.85553e-21)
(0.930992 0.059989 -2.98348e-21)
(0.987849 0.0695541 -2.79619e-21)
(1.05981 -0.00664333 -1.01516e-22)
(1.06035 -0.00570524 7.8154e-22)
(1.05846 -0.00843691 0)
(1.05899 -0.00740715 9.61928e-23)
(1.05751 -0.0103433 4.11461e-22)
(1.05786 -0.00935093 -4.94023e-22)
(1.05706 -0.0121461 4.5576e-22)
(1.05708 -0.01124 -5.49206e-22)
(1.05744 -0.0136575 1.60981e-21)
(1.05689 -0.0129404 -1.14179e-21)
(1.05756 -0.0150192 -2.53932e-22)
(1.05708 -0.0143458 -2.85472e-22)
(1.05647 -0.0162683 0)
(1.05714 -0.0156156 -4.17325e-23)
(1.05236 -0.0174931 -1.56256e-21)
(1.0548 -0.0168656 8.13979e-22)
(1.04259 -0.0188342 6.89409e-24)
(1.04738 -0.0181682 8.47289e-22)
(1.02364 -0.0195557 1.14085e-21)
(1.03314 -0.0192351 4.34187e-22)
(1.00953 -0.0193224 -1.04714e-21)
(1.05702 0.00290503 -3.44732e-22)
(1.05771 0.00219071 0)
(1.03745 0.0642356 2.50174e-21)
(0.9841 0.079624 -1.06695e-23)
(1.03411 0.0857748 4.21498e-21)
(1.03483 0.0748321 -1.35448e-21)
(1.04141 0.0447284 -9.88844e-22)
(1.03804 0.0541443 3.36934e-21)
(1.04509 0.0291315 8.60112e-22)
(1.04265 0.0365646 -1.15444e-21)
(1.04685 0.0178372 -4.51512e-23)
(1.046 0.0228912 -2.56441e-23)
(1.0475 0.0111678 0)
(1.04672 0.0139636 0)
(1.04786 0.00808217 0)
(1.04743 0.00935271 0)
(1.04916 0.00681509 0)
(1.0484 0.00726992 0)
(1.05106 0.00606288 -9.21909e-22)
(1.04996 0.00641369 1.01484e-21)
(1.05312 0.00543134 -3.08671e-24)
(1.052 0.00573677 0)
(1.05525 0.0043479 2.35297e-23)
(1.05408 0.00490452 1.31783e-23)
(1.05618 0.00363115 6.86387e-22)
(1.05695 -0.00218682 0)
(1.05835 -0.00323682 3.03335e-22)
(1.05701 0.000565623 0)
(1.05646 -0.000747486 0)
(0.882595 0.0457733 7.08786e-21)
(0.876857 0.00294124 0)
(0.94967 -0.0210724 -1.32131e-20)
(0.89638 -0.0114078 -3.18175e-21)
(0.991357 -0.0289539 1.39053e-20)
(1.06335 -0.0050607 -2.66395e-21)
(1.05835 0.00156685 -6.03467e-22)
(0.92356 0.0694244 8.45971e-22)
(0.84451 0.0284168 0)
(1.06666 0.0886563 6.80889e-22)
(1.03017 0.09642 0)
(1.06523 0.100072 -5.97546e-22)
(0.976108 0.0889685 -4.02809e-22)
(0.843175 0.00740383 7.61079e-22)
(0.979294 -0.0355111 -2.70135e-21)
(0.905687 -0.0218488 8.78446e-22)
(0.966163 -0.0401952 7.48789e-21)
(1.03055 -0.0476354 -6.48634e-21)
(1.01869 -0.0566197 0)
(1.06346 -0.00654285 8.59311e-23)
(1.06331 -0.00584729 -2.11927e-22)
(1.06414 -0.00822156 0)
(1.06367 -0.007348 9.46358e-23)
(1.06576 -0.00978552 0)
(1.06482 -0.00901882 0)
(1.06864 -0.0110803 8.94671e-25)
(1.06703 -0.0104559 0)
(1.07298 -0.0121703 -1.95624e-24)
(1.07063 -0.0116222 0)
(1.07838 -0.0133557 -2.21668e-24)
(1.07561 -0.0126984 0)
(1.08344 -0.0153886 0)
(1.08092 -0.0142696 0)
(1.08581 -0.0186091 8.67056e-26)
(1.08504 -0.0168241 0)
(1.08301 -0.0228431 0)
(1.08514 -0.0205917 0)
(1.07446 -0.0270853 0)
(1.07911 -0.0250414 0)
(1.05912 -0.02984 3.73786e-22)
(1.06658 -0.0286978 2.12341e-21)
(1.03869 -0.032947 -2.34602e-21)
(1.04943 -0.0308552 -2.02909e-21)
(1.04567 -0.043663 2.81465e-21)
(1.06832 0.0669748 -1.78539e-23)
(1.06632 0.0774943 1.82057e-23)
(1.07113 0.0469024 -1.74e-24)
(1.06938 0.056821 0)
(1.07287 0.0295624 0)
(1.07212 0.0377044 0)
(1.0713 0.0171282 0)
(1.07208 0.022724 0)
(1.0681 0.0103858 0)
(1.06968 0.0131302 0)
(1.06458 0.00747592 1.02126e-24)
(1.06619 0.00859264 0)
(1.06198 0.00653409 0)
(1.06317 0.00684844 0)
(1.06032 0.00627481 0)
(1.06105 0.00636209 0)
(1.0595 0.00579793 0)
(1.0598 0.00608654 0)
(1.05942 0.0048331 4.18098e-23)
(1.05938 0.00535476 0)
(1.0597 0.00350978 7.82696e-23)
(1.05954 0.00417527 8.46251e-23)
(1.06002 0.00219741 6.12823e-22)
(1.05985 0.00284409 -6.20418e-22)
(1.06083 -0.00354749 2.53738e-22)
(1.06256 -0.00358621 -1.78504e-22)
(1.05805 -0.00192092 1.93123e-24)
(1.05917 -0.00280156 -1.71087e-22)
(1.05801 0.000227443 0)
(1.05764 -0.000821738 -7.58158e-23)
(1.06024 0.00161711 -5.8716e-22)
(1.05897 0.00105215 5.20093e-22)
(0.867323 0.0516516 -4.66777e-23)
(1.02863 0.107868 1.5246e-21)
(1.06681 0.112418 -1.59713e-21)
(1.06163 0.0023628 0)
(1.06152 0.00183518 0)
(0.906324 0.0754169 -7.91131e-22)
(0.819726 0.0317416 -1.57047e-21)
(1.06806 -0.0558524 5.64176e-21)
(1.06017 -0.0637947 -1.29867e-20)
(0.968977 0.0983026 1.24709e-21)
(0.824067 0.00315121 1.71968e-21)
(0.871717 -0.0223169 -9.68438e-22)
(0.952523 -0.0483738 -3.83573e-21)
(1.06515 -0.00464503 1.20779e-24)
(1.06478 -0.00411802 -8.47396e-22)
(1.06634 -0.00603171 0)
(1.06562 -0.00536454 0)
(1.06837 -0.00726712 2.27877e-23)
(1.0672 -0.00667098 6.99432e-23)
(1.07164 -0.00820573 0)
(1.06983 -0.0077828 0)
(1.07654 -0.00873415 -8.6383e-25)
(1.07389 -0.00851251 0)
(1.0832 -0.00911941 3.86936e-24)
(1.07967 -0.00890437 0)
(1.09119 -0.0100416 2.17512e-24)
(1.0871 -0.00944716 0)
(1.09901 -0.0125506 0)
(1.09526 -0.0110093 0)
(1.10442 -0.0174873 5.35301e-24)
(1.10216 -0.0147223 0)
(1.10512 -0.0243164 0)
(1.10544 -0.0207389 0)
(1.10046 -0.0314838 0)
(1.10338 -0.0279629 0)
(1.0916 -0.0369079 -4.41948e-23)
(1.09637 -0.0344965 -2.64305e-22)
(1.08053 -0.0418985 1.57235e-21)
(1.08628 -0.0392272 2.79481e-22)
(1.07674 -0.0482421 -1.90517e-21)
(1.08524 0.112404 9.63824e-22)
(1.06482 0.139853 -1.10305e-20)
(1.08648 0.138355 0)
(1.08626 0.125582 -2.00996e-21)
(1.08349 0.0892183 5.49765e-22)
(1.08331 0.100261 8.43272e-22)
(1.08443 0.0684611 0)
(1.08363 0.078764 0)
(1.08646 0.0476708 -1.60257e-24)
(1.08532 0.0582937 0)
(1.08742 0.0290201 1.38612e-24)
(1.08723 0.0379492 0)
(1.08542 0.0155241 0)
(1.08677 0.0214697 0)
(1.08101 0.00817913 0)
(1.0834 0.011164 0)
(1.07591 0.00528799 -1.02103e-24)
(1.07846 0.0062829 0)
(1.07118 0.00482851 0)
(1.07346 0.00488661 0)
(1.06736 0.00508092 0)
(1.06915 0.00493792 0)
(1.06462 0.00506232 0)
(1.06587 0.00514671 0)
(1.06293 0.00452506 -2.267e-23)
(1.06369 0.00486282 1.00939e-25)
(1.06207 0.00349701 -1.64866e-22)
(1.06241 0.00404963 -1.06478e-23)
(1.06181 0.0029191 6.20246e-22)
(1.06368 -0.00295244 -6.41883e-22)
(1.06117 -0.00305021 1.17407e-22)
(1.06256 -0.00314766 2.64529e-22)
(1.05896 -0.00175153 1.5213e-22)
(1.05983 -0.00247296 -3.1882e-22)
(1.05885 -3.29839e-05 1.45794e-22)
(1.05861 -0.000866501 7.40442e-23)
(1.0605 0.00113697 0)
(1.05955 0.000644305 -2.14624e-22)
(1.0615 0.00134746 0)
(0.843578 0.0560009 0)
(1.06509 -0.00311546 -1.45218e-21)
(1.06462 -0.00274931 -1.61511e-21)
(1.0872 0.151608 0)
(1.06534 -0.00319589 2.38191e-21)
(0.892913 0.0829937 -1.6403e-21)
(0.792498 0.0318866 0)
(0.954402 0.107346 8.58974e-22)
(0.794871 0.00118228 -9.29357e-22)
(1.06234 0.000950613 -1.00233e-21)
(1.01018 0.13103 -1.74173e-21)
(0.862113 -0.0323842 9.08031e-22)
(1.06504 0.152449 1.51666e-20)
(0.955149 -0.0590541 0)
(1.0649 -0.00235486 1.94937e-21)
(1.06245 0.00134781 -6.01666e-22)
(1.06643 -0.00409367 4.42733e-22)
(1.06602 -0.00370488 -1.4844e-21)
(1.06822 -0.00507656 -1.30868e-22)
(1.0673 -0.00464536 1.87616e-22)
(1.07097 -0.00581571 -2.35428e-23)
(1.06946 -0.00552279 -2.4728e-23)
(1.07501 -0.00605225 0)
(1.07282 -0.00601352 0)
(1.08068 -0.00575099 8.6383e-25)
(1.07765 -0.00595618 0)
(1.08801 -0.00537374 -3.77611e-24)
(1.08416 -0.005515 0)
(1.09649 -0.00598703 2.05542e-24)
(1.09218 -0.00546994 0)
(1.10474 -0.00903908 0)
(1.10077 -0.0071135 0)
(1.11082 -0.0155032 -5.13891e-24)
(1.10818 -0.0118637 0)
(1.1131 -0.0244452 0)
(1.11249 -0.0198106 0)
(1.11128 -0.0334072 0)
(1.11265 -0.0290927 0)
(1.10661 -0.0405269 3.04025e-23)
(1.10909 -0.0372324 2.00487e-24)
(1.10051 -0.0475004 1.04162e-21)
(1.10348 -0.0437331 -1.10872e-21)
(1.0929 -0.0613103 0)
(1.09704 -0.0532724 2.56208e-22)
(1.08461 -0.0820379 0)
(1.08849 -0.0707672 0)
(1.10732 0.141105 1.04555e-21)
(1.10877 0.15871 -7.01929e-21)
(1.09982 0.113322 5.43455e-22)
(1.10396 0.126938 -1.09157e-21)
(1.09392 0.0901254 -2.62106e-21)
(1.09639 0.101123 -3.25881e-23)
(1.09181 0.0697422 -1.33108e-21)
(1.09246 0.0799405 5.18556e-22)
(1.09221 0.0486458 1.57466e-24)
(1.09164 0.0595346 1.87628e-21)
(1.09255 0.0288716 -1.38613e-24)
(1.09255 0.038416 0)
(1.09079 0.0140823 1.52398e-28)
(1.09198 0.0206855 -1.81434e-28)
(1.08672 0.00583913 0)
(1.08899 0.00919856 0)
(1.08149 0.00278623 0)
(1.08418 0.00380656 0)
(1.07622 0.00258603 0)
(1.07881 0.0024737 0)
(1.07161 0.00327428 0)
(1.07381 0.00290019 0)
(1.068 0.00377185 0)
(1.06968 0.00358071 0)
(1.06548 0.00363514 -3.70882e-24)
(1.06658 0.00380022 -4.00538e-22)
(1.06387 0.00301498 0)
(1.06453 0.00342448 3.76229e-22)
(1.0629 0.00215492 -2.83982e-22)
(1.06331 0.0026201 0)
(1.06265 0.00177646 8.34016e-22)
(1.0292 -0.0809292 -3.15425e-21)
(1.07649 -0.0941366 -5.62467e-21)
(1.06355 -0.00265124 6.86268e-22)
(1.06466 -0.00203423 0)
(1.06441 -0.00247078 -5.99856e-22)
(1.06147 -0.00263283 -7.32958e-23)
(1.06258 -0.00273772 -1.69179e-22)
(1.05966 -0.00159122 0)
(1.06039 -0.00217485 7.28412e-23)
(1.05955 -0.000233752 -2.83249e-22)
(1.05938 -0.000900701 1.45223e-22)
(1.06079 0.000741098 0)
(1.06007 0.000330145 1.39725e-22)
(1.06158 0.000917276 0)
(0.822393 0.0598565 0)
(0.871845 0.0885899 -4.45631e-22)
(0.762384 0.0306123 8.92826e-22)
(1.0623 0.000605696 9.02464e-22)
(1.063 0.00119745 0)
(1.0629 0.000809448 2.83256e-21)
(0.935059 0.115736 -8.55786e-22)
(0.771586 -0.00708246 0)
(1.00286 0.142715 2.56384e-21)
(0.844374 -0.0431279 -9.66415e-22)
(1.05272 0.164671 -8.72313e-22)
(0.960952 -0.0741459 5.47512e-21)
(1.10673 0.169279 4.93081e-21)
(1.06987 -0.10776 -2.80267e-21)
(1.02747 -0.103639 2.86365e-21)
(1.06527 -0.00199076 0)
(1.06444 -0.00175782 -7.79732e-23)
(1.10049 -0.172693 5.96282e-22)
(1.06601 -0.00276706 8.90709e-22)
(1.06569 -0.0024801 0)
(1.06733 -0.00346424 1.73233e-22)
(1.06665 -0.0032247 1.55826e-22)
(1.06932 -0.00398845 -1.25429e-27)
(1.06822 -0.00379937 -9.41225e-23)
(1.07226 -0.00418926 2.25579e-23)
(1.07064 -0.00419288 -2.40152e-23)
(1.07641 -0.00376461 0)
(1.07418 -0.00406448 0)
(1.08194 -0.00273322 -8.22845e-25)
(1.07901 -0.00330038 0)
(1.08879 -0.00172969 3.67057e-24)
(1.08523 -0.00215297 0)
(1.09642 -0.00214682 -2.05542e-24)
(1.09258 -0.00165025 0)
(1.10364 -0.00575071 -2.17801e-24)
(1.10017 -0.00345574 0)
(1.109 -0.013503 1.19154e-25)
(1.10663 -0.00914129 0)
(1.11144 -0.0240815 0)
(1.11061 -0.0186366 0)
(1.11087 -0.0343029 0)
(1.11149 -0.0294427 0)
(1.10795 -0.0423534 0)
(1.10961 -0.0385562 0)
(1.10392 -0.050433 3.10511e-25)
(1.10595 -0.0459985 0)
(1.09905 -0.063626 1.42843e-22)
(1.10174 -0.0560568 -5.63399e-22)
(1.09255 -0.0850475 1.09652e-21)
(1.09569 -0.0732061 -1.40782e-22)
(1.08944 -0.11254 -1.00983e-21)
(1.09086 -0.0985095 0)
(1.06147 -0.126557 0)
(1.08435 -0.149082 2.4562e-20)
(1.08745 -0.130235 -8.16757e-21)
(1.11345 0.132957 -3.96241e-21)
(1.12635 0.163213 1.83795e-21)
(1.11916 0.147569 5.16446e-21)
(1.10388 0.108134 -4.86494e-22)
(1.10862 0.120055 1.44341e-21)
(1.09599 0.0876707 0)
(1.09963 0.0975083 8.14394e-23)
(1.09222 0.0688086 -1.49669e-24)
(1.09356 0.0784355 0)
(1.0914 0.0485491 0)
(1.09155 0.0588659 0)
(1.09128 0.0285203 0)
(1.09138 0.0382934 0)
(1.09002 0.0128246 0)
(1.09086 0.0199325 0)
(1.08692 0.00377092 0)
(1.08868 0.00748389 0)
(1.08253 0.000404531 0)
(1.08483 0.00152863 0)
(1.07779 0.000290808 0)
(1.08016 9.4176e-05 0)
(1.07339 0.00131452 1.53492e-24)
(1.07552 0.000754049 0)
(1.06973 0.00226214 0)
(1.07146 0.00184507 0)
(1.06696 0.00263334 0)
(1.06825 0.00253179 0)
(1.06504 0.00242929 -1.16696e-24)
(1.06593 0.00258889 0)
(1.06378 0.00184253 2.98785e-22)
(1.06438 0.0022243 0)
(1.06353 0.0015255 -4.35114e-22)
(1.06347 -0.00227707 -5.0737e-24)
(1.06419 -0.00214536 1.21355e-21)
(1.06169 -0.00226586 -6.91435e-23)
(1.06263 -0.0023737 -1.45472e-22)
(1.06023 -0.00145889 2.02611e-27)
(1.06081 -0.00190961 6.96573e-23)
(1.06011 -0.000358994 2.02449e-28)
(1.06 -0.000906821 0)
(1.06108 0.000423947 -1.822e-24)
(1.06051 9.68084e-05 6.73381e-23)
(1.0617 0.000594675 -5.05987e-22)
(0.793601 0.0618675 0)
(1.06559 -0.00171131 0)
(1.06358 0.000822079 2.35867e-22)
(1.06342 0.00060949 -8.34312e-22)
(0.844221 0.092806 -7.64404e-23)
(0.730377 0.0266287 0)
(0.916578 0.123987 8.92226e-22)
(0.738953 -0.0151418 9.55385e-22)
(0.987282 0.152483 0)
(0.826582 -0.0562654 -4.76713e-21)
(1.06886 0.171328 2.27192e-21)
(1.1345 0.176526 3.10615e-22)
(1.11274 0.186335 2.10995e-21)
(0.929185 -0.089104 2.85771e-21)
(1.00318 -0.117607 0)
(1.05365 -0.144184 -3.22811e-21)
(1.08233 -0.16868 2.36359e-21)
(1.10183 -0.148741 0)
(1.11011 -0.164899 -1.59531e-22)
(1.10813 -0.189972 -7.2283e-21)
(1.06639 -0.00224286 -5.86829e-22)
(1.06594 -0.00194008 0)
(1.06778 -0.00269002 8.08691e-23)
(1.06702 -0.00250016 0)
(1.06978 -0.00287407 2.47228e-27)
(1.06866 -0.00284043 -8.24013e-23)
(1.07263 -0.00258222 0)
(1.0711 -0.00279905 -9.02709e-29)
(1.07648 -0.00161197 0)
(1.07443 -0.00219075 0)
(1.08136 -2.81716e-05 8.22942e-25)
(1.0788 -0.000866392 -1.13483e-28)
(1.08712 0.0013907 -5.94923e-26)
(1.08416 0.00078935 0)
(1.09325 0.00101836 -1.90844e-24)
(1.09019 0.00155365 -1.36098e-28)
(1.09886 -0.00309074 2.17801e-24)
(1.09618 -0.00047558 0)
(1.10302 -0.0118375 2.39402e-24)
(1.10116 -0.00693232 1.6293e-28)
(1.10513 -0.0236403 2.4814e-24)
(1.10434 -0.0175818 1.78573e-28)
(1.1051 -0.034928 0)
(1.10537 -0.0295791 0)
(1.10317 -0.0436515 0)
(1.10432 -0.0395677 0)
(1.10024 -0.0522903 3.08287e-25)
(1.10175 -0.0476595 0)
(1.09718 -0.0654155 -9.46588e-22)
(1.09868 -0.0580969 1.00843e-21)
(1.0937 -0.0865193 -1.43835e-21)
(1.09528 -0.0748803 2.55324e-22)
(1.09518 -0.113625 2.7908e-21)
(1.09386 -0.099636 1.2099e-22)
(1.09741 -0.129144 -1.80085e-21)
(1.1299 0.152932 4.09597e-22)
(1.14337 0.190608 -2.55436e-21)
(1.15165 0.178018 1.14156e-21)
(1.14035 0.165904 -1.52948e-21)
(1.1132 0.126322 9.18144e-22)
(1.12069 0.139362 0)
(1.1025 0.103839 -5.06947e-23)
(1.10765 0.114616 -2.52533e-22)
(1.09379 0.0853059 7.863e-22)
(1.09776 0.0943516 -1.14205e-22)
(1.08922 0.0677146 1.4753e-24)
(1.09097 0.0766603 -8.82324e-22)
(1.08746 0.0483202 0)
(1.08812 0.0583017 0)
(1.08682 0.0283297 0)
(1.08708 0.0381893 0)
(1.08593 0.0120292 0)
(1.08648 0.0194907 0)
(1.08387 0.00228844 0)
(1.08506 0.00632552 0)
(1.08072 -0.00147823 8.95216e-25)
(1.0824 -0.000196268 0)
(1.07705 -0.00165544 0)
(1.07892 -0.00185781 0)
(1.07343 -0.000438474 -3.0267e-24)
(1.07521 -0.00111907 0)
(1.07026 0.000837141 0)
(1.07179 0.000245781 0)
(1.0677 0.00156898 0)
(1.06891 0.00129083 0)
(1.06578 0.00167493 1.15039e-24)
(1.06668 0.00170072 0)
(1.06445 0.00138729 1.36143e-22)
(1.06506 0.00159614 -3.08272e-22)
(1.06399 0.00124365 1.09427e-23)
(1.06424 -0.00152308 2.91995e-22)
(1.06489 -0.00115134 5.81221e-22)
(1.06463 -0.00134234 -7.20103e-22)
(1.06337 -0.00194558 -2.78924e-22)
(1.06398 -0.00184114 -5.51434e-22)
(1.06186 -0.00195656 0)
(1.06265 -0.002022 0)
(1.06067 -0.00133734 -2.02609e-27)
(1.06115 -0.00168981 0)
(1.06056 -0.000447787 1.93328e-28)
(1.06048 -0.000894285 0)
(1.06133 0.000194097 2.95495e-23)
(1.06088 -7.89181e-05 0)
(1.06232 0.000312713 -4.62856e-22)
(1.06183 0.000332542 3.15993e-22)
(1.06327 0.000334157 1.1125e-21)
(1.06279 0.00043819 -1.48182e-21)
(0.762597 0.0623115 -4.29708e-28)
(0.815855 0.096838 1.39306e-21)
(0.69295 0.0218696 0)
(0.893727 0.131762 -9.43627e-22)
(0.708665 -0.0263664 -1.00255e-21)
(1.06312 9.85437e-05 -4.0297e-22)
(1.06362 0.000171357 2.08003e-22)
(1.06345 1.68944e-06 1.9382e-22)
(0.980564 0.164272 -3.17296e-21)
(1.0525 0.187474 0)
(1.11128 0.198057 -2.15877e-21)
(1.16449 0.190256 0)
(1.15207 0.203234 0)
(0.801755 -0.0690284 7.10927e-23)
(0.910667 -0.106154 -2.86566e-22)
(0.996326 -0.139342 5.09085e-21)
(1.04811 -0.165807 7.93827e-22)
(1.08573 -0.193559 1.03677e-21)
(1.06506 -0.000892259 1.40632e-22)
(1.12074 -0.184774 6.81328e-22)
(1.11717 -0.213767 3.26137e-21)
(1.13265 -0.202685 0)
(1.06464 -0.00092137 5.47028e-22)
(1.06479 -0.000666559 -1.44386e-22)
(1.06575 -0.0013183 2.7496e-22)
(1.06537 -0.00110142 -2.82125e-22)
(1.06661 -0.00172637 2.90365e-22)
(1.06612 -0.00149837 -1.4428e-22)
(1.06796 -0.00191216 -2.87183e-22)
(1.06719 -0.00185873 4.32172e-22)
(1.06987 -0.00179708 -2.34717e-27)
(1.06882 -0.00191324 0)
(1.07247 -0.00111983 -3.17478e-28)
(1.07108 -0.0015295 0)
(1.07579 0.000251409 0)
(1.07404 -0.000520632 0)
(1.07978 0.00219298 0)
(1.07772 0.00118862 0)
(1.08423 0.00382332 -1.74803e-24)
(1.08197 0.00314381 0)
(1.08872 0.00337674 1.90855e-24)
(1.08651 0.00399078 0)
(1.09269 -0.00113972 -1.21369e-28)
(1.09081 0.00171589 1.42316e-28)
(1.09566 -0.0105461 0)
(1.09431 -0.00529137 0)
(1.0974 -0.0231378 -1.53892e-25)
(1.09669 -0.0166761 0)
(1.09774 -0.0352294 0)
(1.09775 -0.0294902 0)
(1.09664 -0.0445326 2.69642e-24)
(1.09734 -0.0402032 0)
(1.09476 -0.0533653 3.14303e-24)
(1.09573 -0.0487041 0)
(1.09315 -0.0664823 3.59784e-25)
(1.09387 -0.0591506 0)
(1.09265 -0.0865847 2.09488e-22)
(1.09253 -0.0755176 0)
(1.09637 -0.112493 2.32863e-23)
(1.09382 -0.0990682 -2.11586e-22)
(1.10625 -0.142488 -7.44532e-22)
(1.10061 -0.126857 6.80872e-22)
(1.12567 -0.176306 0)
(1.11422 -0.159272 -3.23905e-22)
(1.15035 0.16491 7.81113e-22)
(1.17843 0.201674 -5.61807e-22)
(1.17971 0.186301 -5.01915e-22)
(1.16435 0.175996 -3.17493e-22)
(1.1277 0.142812 -6.44898e-22)
(1.13854 0.154302 0)
(1.11013 0.119131 8.92927e-23)
(1.11808 0.130819 5.42948e-22)
(1.09862 0.0991537 4.75697e-23)
(1.10409 0.108603 -2.14185e-22)
(1.09 0.0824236 -1.43002e-24)
(1.09386 0.0905369 -1.95148e-28)
(1.08497 0.0660577 0)
(1.08709 0.0743614 0)
(1.08244 0.0476259 1.17337e-24)
(1.08348 0.0571955 -1.80209e-28)
(1.08131 0.0279921 0)
(1.08176 0.0377495 0)
(1.08061 0.011509 0)
(1.08097 0.0191161 0)
(1.07946 0.00134082 0)
(1.08012 0.00560111 0)
(1.07755 -0.00277592 -3.60105e-26)
(1.07859 -0.00134044 0)
(1.07511 -0.0030918 0)
(1.07637 -0.00325175 0)
(1.07251 -0.00181506 1.49178e-24)
(1.07381 -0.00254469 0)
(1.07006 -0.000357283 0)
(1.07125 -0.00104896 0)
(1.06793 0.000603633 0)
(1.06896 0.000212052 0)
(1.0662 0.000970451 -3.2156e-22)
(1.06702 0.000867502 3.41953e-22)
(1.06491 0.000857653 6.92811e-23)
(1.0655 0.000952949 2.34805e-24)
(1.06409 0.000486283 -2.34953e-22)
(1.06445 0.000718168 -6.55786e-23)
(1.06383 0.000307286 0)
(1.06404 -0.00131014 0)
(1.06439 -0.00110618 -5.3192e-22)
(1.06322 -0.00167137 0)
(1.06376 -0.00157122 0)
(1.06199 -0.00169773 0)
(1.06263 -0.0017282 0)
(1.06103 -0.00122103 0)
(1.06142 -0.00149956 0)
(1.06092 -0.000505305 3.84554e-27)
(1.06086 -0.000865556 0)
(1.06154 2.15847e-05 -3.16504e-23)
(1.06117 -0.000203429 7.56435e-24)
(1.06236 8.62112e-05 3.54338e-22)
(1.06195 0.000122812 0)
(1.06272 0.000154886 4.37147e-22)
(0.726726 0.0615366 0)
(1.13869 -0.192808 -7.08678e-23)
(1.14338 -0.219301 3.3041e-22)
(1.15126 -0.207524 -3.52541e-22)
(0.78213 0.0996251 9.40738e-22)
(0.653296 0.0140863 4.91519e-28)
(1.06301 -0.000108629 4.272e-22)
(1.06331 -0.0001837 -4.11234e-22)
(0.868294 0.138908 -9.2192e-22)
(0.959395 0.17225 0)
(1.04664 0.195897 -1.26637e-21)
(1.11355 0.211686 -8.99425e-22)
(1.16132 0.215503 1.32239e-21)
(1.19616 0.195029 3.16886e-24)
(1.19303 0.211722 -4.01743e-22)
(0.773676 -0.0858606 -3.14891e-26)
(0.889879 -0.126439 -1.61359e-21)
(0.980604 -0.160168 -3.81935e-22)
(1.04697 -0.192773 7.74623e-22)
(1.09199 -0.218565 0)
(1.13028 -0.235472 1.12959e-21)
(1.06441 -0.00065521 6.11983e-22)
(1.06463 -0.000480014 2.03039e-21)
(1.06517 -0.000571511 1.03722e-24)
(1.06374 -6.76455e-05 8.01316e-22)
(1.06392 6.95229e-05 -4.07407e-22)
(1.06487 -0.000292859 -6.64388e-22)
(0.669251 -0.0375359 5.10988e-28)
(1.06585 -0.000926667 -2.65062e-22)
(1.06544 -0.000701331 2.74374e-22)
(1.06674 -0.0011603 0)
(1.06621 -0.00101023 1.32671e-22)
(1.06798 -0.00121758 2.11879e-27)
(1.06725 -0.00121315 9.19648e-24)
(1.06973 -0.000816359 2.7425e-29)
(1.06878 -0.00106216 0)
(1.07199 0.000142204 3.17478e-28)
(1.07079 -0.000407144 0)
(1.07471 0.0017672 0)
(1.0733 0.000877858 0)
(1.07776 0.00388596 0)
(1.07621 0.00280583 0)
(1.08092 0.00556301 0)
(1.07935 0.00488124 0)
(1.08387 0.00497021 -1.75125e-24)
(1.08244 0.0056817 -1.25594e-28)
(1.08634 0.000150896 0)
(1.08518 0.00316885 0)
(1.08826 -0.00961919 1.24868e-28)
(1.08736 -0.00417872 -1.46359e-28)
(1.08962 -0.0226421 -2.3278e-24)
(1.08901 -0.0159523 1.5781e-28)
(1.09019 -0.0352853 1.44969e-28)
(1.09002 -0.0292598 -1.69796e-28)
(1.08976 -0.0450644 -2.69627e-24)
(1.09009 -0.0405339 -1.81352e-28)
(1.08879 -0.0538872 0)
(1.08927 -0.0493076 0)
(1.08843 -0.0664488 3.40077e-25)
(1.08845 -0.0594602 -1.9621e-28)
(1.09026 -0.0854058 0)
(1.08896 -0.0751051 0)
(1.09587 -0.109474 0)
(1.09232 -0.0969209 0)
(1.10815 -0.136398 4.01326e-22)
(1.10118 -0.122629 -2.81497e-22)
(1.12871 -0.166569 -1.5526e-22)
(1.11736 -0.151281 2.38108e-22)
(1.15875 -0.234806 1.93804e-22)
(1.15752 -0.197125 1.69449e-22)
(1.14163 -0.18113 6.83948e-23)
(1.17405 0.171514 1.97832e-22)
(1.21402 0.20288 -3.15348e-24)
(1.20829 0.185848 1.28054e-22)
(1.19044 0.179253 0)
(1.14517 0.152903 1.56323e-22)
(1.15877 0.162453 -4.05891e-22)
(1.12285 0.133164 3.21286e-22)
(1.13348 0.143451 0)
(1.10581 0.112272 -9.14699e-23)
(1.11362 0.122778 2.07823e-22)
(1.09391 0.0942469 0)
(1.09948 0.102835 0)
(1.08564 0.079197 1.17557e-24)
(1.08937 0.0864844 0)
(1.08039 0.0642075 1.4738e-28)
(1.08271 0.0719197 -1.75334e-28)
(1.07734 0.046653 -8.54114e-26)
(1.07865 0.0558198 0)
(1.07583 0.0275656 1.31376e-28)
(1.07643 0.0370958 -1.56366e-28)
(1.07527 0.0112236 0)
(1.07548 0.0188114 0)
(1.07486 0.000876379 8.87713e-25)
(1.07509 0.00525264 -1.35126e-28)
(1.07405 -0.00350557 -8.59207e-25)
(1.07451 -0.00193948 0)
(1.07276 -0.00399816 9.67221e-29)
(1.07345 -0.0040864 -1.15243e-28)
(1.07116 -0.00276658 -1.39834e-24)
(1.07199 -0.00349007 0)
(1.06948 -0.00125887 0)
(1.07033 -0.00198795 0)
(1.06784 -0.000193643 -1.17652e-24)
(1.06865 -0.000649759 0)
(1.06641 0.000272352 3.21974e-23)
(1.0671 0.000131176 -3.33632e-22)
(1.06525 0.000395501 -6.96314e-23)
(1.06577 0.000409331 2.96449e-22)
(1.06445 0.000251208 7.01986e-22)
(1.06482 0.000320679 0)
(1.06416 0.00015902 -4.54888e-22)
(1.06383 -0.00109306 0)
(1.06417 -0.000869617 -5.54762e-22)
(1.06309 -0.00144528 6.03116e-23)
(1.06354 -0.00132448 0)
(1.06208 -0.00148137 0)
(1.06259 -0.00150025 -5.94868e-23)
(1.06131 -0.00111013 0)
(1.06162 -0.00133103 0)
(1.06121 -0.000540193 3.48153e-27)
(1.06117 -0.000826832 0)
(1.06171 -0.000121776 5.80499e-23)
(1.06141 -0.000306529 -7.64231e-24)
(1.06239 -6.77428e-05 1.148e-22)
(1.06205 -3.47146e-05 -1.12029e-22)
(1.06269 -5.36286e-05 0)
(0.686291 0.0584964 0)
(1.06358 -0.000214397 0)
(0.743802 0.100524 0)
(0.832632 0.14217 -2.79942e-26)
(0.937317 0.179583 0)
(1.03121 0.207754 1.84928e-21)
(1.11034 0.221976 -2.21992e-22)
(1.16926 0.22592 2.21596e-22)
(0.742879 -0.104526 4.97141e-26)
(0.872719 -0.148575 9.05056e-25)
(0.976162 -0.188068 -1.20207e-21)
(1.04719 -0.220227 1.08473e-21)
(1.20816 0.220195 0)
(1.22705 0.190518 9.05309e-23)
(1.2326 0.208634 0)
(1.1023 -0.244867 -1.06057e-21)
(1.14655 -0.253979 -5.18612e-22)
(1.17761 -0.215899 1.47538e-22)
(1.06479 -0.000165779 9.53062e-23)
(0.608924 0.00446442 -1.02833e-27)
(1.17663 -0.23077 -3.24975e-22)
(0.636965 -0.0541394 -1.03354e-27)
(1.0634 -0.000549532 -2.31017e-21)