/*--------------------------------*- C++ -*----------------------------------*\
  =========                 |
  \\      /  F ield         | OpenFOAM: The Open Source CFD Toolbox
   \\    /   O peration     | Website:  https://openfoam.org
    \\  /    A nd           | Version:  10
     \\/     M anipulation  |
\*---------------------------------------------------------------------------*/
FoamFile
{
    format      ascii;
    class       surfaceScalarField;
    location    "7";
    object      phi;
}
// * * * * * * * * * * * * * * * * * * * * * * * * * * * * * * * * * * * * * //

dimensions      [0 3 -1 0 0 0 0];

internalField   nonuniform List<scalar> 
29080
(
0.0907666
-0.145255
-0.0153226
0.0698112
0.0509813
0.0397853
0.0147876
0.0372882
-0.0328626
-0.0192132
0.0509762
0.00691321
-0.0431018
0.0470662
-0.00220205
0.00611209
0.0314941
-0.0585298
0.047661
-0.0206253
-0.0485436
0.0290992
0.0509385
0.043557
0.00643175
-0.0596886
0.00969983
-0.0390562
0.0892891
-0.00667588
0.0144418
-0.103357
-0.0159542
0.0607809
-0.083806
0.0553037
0.0822764
0.0663221
-0.0246025
-0.107371
0.037766
0.0651875
0.00441704
0.000793408
0.0474472
-0.0154046
-0.0296199
0.0500034
0.0264778
0.0535938
-0.0883042
0.00823257
0.0200062
0.0748228
0.0204002
0.0635861
-0.00408587
0.00211636
-0.000494517
-0.00519928
0.00357744
-0.0100711
-0.0172859
0.0294734
-0.00665448
-0.00332124
-9.54129e-05
-0.00696751
-0.000181486
-0.00400224
-0.00816455
-0.0692115
0.00455088
0.00535801
0.0593026
-0.0337248
-0.0483128
0.0128261
0.0413833
-0.038603
-0.036505
-0.00151396
0.00142943
0.00415384
-0.00406931
0.00694191
-0.00845587
-0.00268443
0.00962634
0.00386182
-0.00511681
0.00435858
0.00365708
-0.0345911
-0.00395295
0.028718
0.00982614
0.00208157
-0.0267568
-0.00991593
0.0324698
0.00158163
-0.0319699
0.0212233
0.00729359
0.021151
0.0287902
-0.0364367
0.0123418
0.0310052
-0.00691032
0.0248412
-0.0481353
-0.0131426
0.018151
0.0120795
-0.00538936
0.0205466
0.00994627
0.020406
0.0311458
0.0774867
0.00339403
-0.0394511
-0.0414297
-0.00120317
0.0725541
0.00613573
-0.0459348
0.0497071
-0.00497549
-0.0338521
-0.00868866
-0.0577503
-0.00471137
0.0150277
0.047434
-0.0660795
0.0128801
-0.0447419
0.0200457
0.0754597
0.0291412
-0.0416838
-0.062917
-0.0295798
0.0258914
0.0791481
0.0711448
-0.100485
0.0634438
-0.0341036
-0.03622
0.0531483
0.0542165
0.00705945
0.0106965
-0.00936877
-0.0083872
0.0200792
0.00405418
-0.017074
-0.00575605
0.00557457
-0.00975829
-0.0608035
-0.0382105
0.00822694
0.0907871
-0.0281204
0.0248368
-0.05752
0.054217
-0.058302
-0.0240353
0.0530407
-0.0370342
0.0686442
-0.00737661
0.0871385
-0.0395585
-0.04758
-0.0595462
0.0501574
0.0965272
-0.0283285
-0.029896
0.0196215
-0.00392957
0.0170818
-0.0414807
0.0129125
-0.046738
0.00751848
0.00456105
0.0174647
0.00662043
0.0500977
-0.00701097
-0.0349881
0.0471041
0.00906092
-0.0211769
-0.0805152
-0.00244093
0.047968
-0.00134064
0.021418
-0.0408413
0.0192657
-0.0425895
0.0051603
-0.0338071
0.0359404
-0.0421377
2.11937e-05
0.0472769
-0.0346096
0.00238418
0.0479595
-0.0468153
-0.00241568
0.00127148
-0.00120936
-0.00126709
0.0504359
-0.00995967
-0.00600559
0.00419493
0.0117703
-0.0174861
0.0146705
-0.00714413
0.00337565
0.0250662
-0.00836265
0.0349606
0.00146294
-0.0330479
0.0762501
-0.0031932
-0.0872931
0.0142362
-0.00184694
0.0512687
0.0268283
0.0561349
-0.0101737
0.0106609
-0.0566222
0.0564247
0.00857448
-0.00886426
0.00027721
-0.0463168
0.046907
-0.000867337
-0.0468571
0.0474573
-0.000322894
0.000297179
0.0444585
-0.0444866
-0.000269055
0.044692
-0.000984823
-0.04341
0.00229463
0.0470989
-0.0475093
-0.00188418
0.0467844
0.00177878
-0.0462685
0.00489241
0.0472577
-0.0470274
-0.00512268
0.0475043
0.00382265
-0.0464346
0.0349085
0.0844001
-0.122502
-0.0727771
0.0781058
-0.0117456
-0.0513484
0.00943354
0.0536605
-0.0485519
-0.0167301
0.0535363
0.0114839
-0.0121365
-0.0478994
0.00904855
-0.048913
-0.0521821
0.00719429
0.0516981
-0.00671035
0.00983492
-0.0525834
-0.00105513
-0.0276038
0.00276313
0.0258958
-0.0165965
0.015705
-0.000163555
0.00170816
-0.0179455
-0.000359207
0.00354564
-0.0294412
-0.025873
-0.00428858
0.00340478
0.014808
-0.0379179
0.0184058
0.0411531
-0.0161355
-0.0434235
0.0245714
0.0557586
-0.0619242
0.0064409
0.0592836
-0.0129717
-0.0172821
0.0203378
-0.00432513
0.00705843
-0.000786434
-0.045046
-0.000484381
-0.0405408
-0.00710283
-0.0390711
-0.00135758
-0.000112074
-0.0135638
-0.025372
-0.000135314
0.0440001
-0.0541242
-0.00343973
-0.00240348
-0.025339
0.000125218
-0.000158191
0.000133067
-0.0252957
-0.00017635
0.0526281
-0.0525111
1.61161e-05
-0.00137087
-0.0252488
0.000142936
-0.000189881
0.000155813
-0.0251946
-0.000210024
0.0523836
-0.0522453
1.75527e-05
1.53668e-05
-0.0251353
0.000157489
-0.000216729
0.000163591
-0.0250689
-0.00023008
0.0520981
-0.0519409
6.38918e-06
1.0298e-05
-0.0249966
0.00015314
-0.000225366
0.000144208
-0.0249161
-0.000224764
0.0517772
-0.0516059
-2.70661e-05
-1.05809e-05
-0.0248287
0.000114883
-0.000202273
8.27254e-05
-0.024731
-0.000180426
0.0514305
-0.0512477
-0.000100132
-6.04969e-05
-0.0246263
3.05749e-05
-0.000135253
-2.61637e-05
-0.0245123
-8.78354e-05
0.0510576
-0.0508532
-0.000230503
-0.000159524
-0.0243806
-0.000116293
-1.53667e-05
-0.00022002
-0.0242306
6.99796e-05
0.0506466
-0.05043
-0.0004366
-0.00032292
-0.0367936
-0.000360151
0.0129232
-0.000480263
-0.0382443
0.00193094
0.0502195
-0.0511419
0.000442185
-0.000570725
-0.042768
0.00591667
-0.00139303
0.00179848
-0.0437401
-0.000826294
0.0468593
-0.0447602
-0.000300569
0.00163404
-0.0448527
0.00302292
-0.00191034
0.00212609
-0.0436333
-0.00334554
0.0438276
-0.0453199
0.00361837
0.00209027
-0.00133116
0.00070331
-0.0442149
-0.000749551
-0.000483536
-0.00109643
0.0484869
-0.000634721
0.0476084
-0.00176609
-0.0434336
0.0486314
-0.0464049
-0.00332296
0.00081072
0.0492957
-0.00147506
-0.00083602
0.0501337
0.0490667
-0.0492312
-0.00015834
0.0514801
-0.00304815
0.0465949
-0.0456187
-0.00172579
-0.0451306
0.0446067
-0.00138642
-0.00188123
-0.0441033
0.04272
-9.70929e-06
-0.00032289
-0.0377123
0.0506811
-4.56632e-05
0.00693865
-0.050894
0.0510863
-0.000207686
-0.000142904
-0.0512709
0.0514462
-0.000310553
-0.00027238
-0.0516147
0.0517745
-0.000362074
-0.000348929
-0.0519281
0.0520739
-0.000371209
-0.000378371
-0.0522134
0.0523441
-0.000347383
-0.000369564
-0.0524672
0.0525791
-0.000301788
-0.000333115
-0.0526833
0.0527706
-0.000245551
-0.000280551
-0.0528569
0.0540079
-0.00126308
-0.000221553
-0.00232619
0.00307509
-0.00206282
0.0504678
0.0498475
0.0452359
-0.0467018
0.000981584
-0.00203633
0.0480041
-0.0513763
-6.75543e-05
-0.00110121
0.0526675
-0.0525646
-8.67084e-05
-7.96736e-05
0.0524501
-0.0523265
-0.000106007
-9.9195e-05
0.0521964
-0.0520598
-0.000130232
-0.000119803
0.0519204
-0.051777
-0.000170435
-0.000149978
0.0516334
-0.0514888
-0.000244767
-0.000204132
0.0513456
-0.0512006
-0.000375451
-0.000302706
0.051054
-0.0509034
-0.000587262
-0.000469522
0.050749
-0.0494741
-0.000832696
-0.000725126
0.0473462
-0.0481142
0.000467434
-0.000493837
0.0473989
-0.044895
0.00111444
0.00137495
0.000266825
-0.000504486
-3.71958e-05
0.0506753
-0.00240979
0.051201
-0.000744534
-0.0466402
-0.00105797
0.000741623
-0.0430937
0.0508871
-0.0507876
-0.00216231
0.00174549
0.0503599
-0.00121824
0.00152017
0.0506932
-0.0452339
-0.00031069
0.0476439
-0.0478636
-0.00150611
-0.0471026
0.0453837
0.000332524
-0.00133994
-0.0456413
0.0445499
0.00108177
-0.000580524
-0.0511395
0.0513258
-0.00023192
0.000348983
-0.0514878
0.0516349
-0.000354813
-0.00030493
-0.0517704
0.0518962
-0.00043633
-0.000407888
-0.052016
0.0521302
-0.000476204
-0.000468761
-0.0522403
0.0523459
-0.000476799
-0.000488502
-0.0524477
0.0525443
-0.000444036
-0.000471339
-0.0526361
0.0527212
-0.000386929
-0.000424887
-0.0528001
0.052871
-0.000316412
-0.000359463
-0.052936
0.0519151
-0.000242194
-0.000286504
-0.0507085
0.0517096
-0.0011595
-0.00111957
-0.00212616
0.0513305
-0.0499644
-0.00251412
0.0500688
0.0493827
-0.0510845
-0.00162111
-0.00205682
0.053028
-0.0519413
-0.000105043
-9.29025e-05
0.0529189
-0.0528508
-0.000135644
-0.000123701
0.0527749
-0.0526929
-0.000168704
-0.000155538
0.0526053
-0.0525121
-0.000199247
-0.000186791
0.0524159
-0.0523171
-0.000229016
-0.000215938
0.0522191
-0.052122
-0.00026754
-0.000247981
0.0520291
-0.05194
-0.000333876
-0.000297086
0.051857
-0.0517791
-0.000453338
-0.000385647
0.0517074
-0.0516394
-0.000655246
-0.0005413
0.0515725
-0.0514406
-0.000964561
-0.000792022
0.0507763
-0.0498831
-0.000425794
-0.00115816
0.04807
-0.0450109
-0.00194459
-0.000438146
0.0452467
-0.044165
-0.00135083
0.000502617
8.47274e-05
-0.00084194
-0.0444767
0.0455346
-0.0460623
0.000612447
0.00105891
-0.0477549
-0.000853256
0.000115636
-0.0428076
-0.000545183
-0.0433904
-0.00148182
0.000630685
0.0515443
0.000253218
-0.000842613
-0.0438873
-0.000608657
-0.0452004
-0.00282828
0.0517063
0.0505834
-0.0507076
-0.00238993
0.0508225
-0.0511676
-0.00181719
0.0517517
-0.00214739
0.00253821
0.0508555
-0.00281027
0.00178982
0.0508172
5.28393e-05
-0.000268218
-0.0475395
-0.0464718
0.0513462
-0.050869
-0.000745468
-0.0514492
0.0505783
-0.000635213
-0.000956211
-0.0500792
0.0505521
-0.000140398
-0.000840882
-0.0501629
0.0514762
-0.000231538
-0.000191269
-0.052112
0.0522121
-0.000331995
-0.000286853
-0.052296
0.0523675
-0.000426341
-0.000388803
-0.0524311
0.052489
-0.000494197
-0.000471514
-0.052544
0.0525971
-0.00052937
-0.000523746
-0.05265
0.0527025
-0.000529342
-0.000541351
-0.0527553
0.0528075
-0.00049625
-0.000524124
-0.0528591
0.0529088
-0.000436639
-0.000476494
-0.0529565
0.0530009
-0.000360796
-0.000407151
-0.0530419
0.0530799
-0.000280165
-0.000327513
-0.0525339
0.0516931
-0.0003187
-0.000573528
-0.00160074
0.000281523
-0.00222259
0.0526164
0.0522427
0.0507683
0.0516006
-0.0531195
-0.000102239
-0.00116386
0.0530879
-0.0530522
-0.000140753
-0.000124417
0.0530119
-0.0529659
-0.000181631
-0.000164061
0.0529167
-0.0528638
-0.000221631
-0.000204739
0.0528091
-0.0527529
-0.000255429
-0.000241461
0.0526974
-0.0526434
-0.000283085
-0.000271407
0.0525932
-0.0525478
-0.000312911
-0.000298146
0.0525096
-0.0524793
-0.000364223
-0.000335287
0.0524581
-0.0524463
-0.000465157
-0.000406789
0.0524439
-0.0524499
-0.000649225
-0.000543718
0.0524615
-0.0524757
-0.000950354
-0.000780412
0.0524867
-0.0515183
-0.00139427
-0.00114718
0.050295
-0.0509263
-0.00131329
-0.00166144
0.0493359
-0.049127
-0.00155976
-0.00108772
0.047692
-0.0467622
-0.000317323
-0.000376084
0.0463796
0.0013394
-0.0461888
-0.00153013
-0.000991315
-1.2476e-05
-0.0433403
-0.000499059
0.000178242
-0.0472187
-0.049808
-0.00156004
-0.00245578
0.00136725
0.0519057
-0.00246701
0.0508667
-0.000696361
-0.0435367
0.00112178
-0.0449828
0.000834074
-0.0435996
-0.00304484
0.00269133
-0.0446293
-0.0024215
0.0513449
-0.00244932
-0.046306
-0.000465735
0.000457552
-0.0497998
0.0531162
-0.0520931
-0.00148884
-0.0530822
0.0536829
-0.00134616
-0.00152602
-0.0538003
0.053464
-0.000298889
-0.00107363
-0.0528898
0.0529959
-0.00024646
-0.000266741
-0.0530652
0.0531076
-0.000273949
-0.000260542
-0.0531317
0.0531405
-0.000340829
-0.000310969
-0.0531387
0.05313
-0.000417672
-0.000386926
-0.053118
0.0531051
-0.000481348
-0.000459525
-0.0530934
0.0530843
-0.000520244
-0.00051202
-0.0530788
0.0530774
-0.000527938
-0.000535864
-0.0530803
0.053087
-0.000502995
-0.000526988
-0.0530973
0.0531102
-0.00044954
-0.000486753
-0.0531251
0.0531411
-0.000376829
-0.000422087
-0.0531577
0.0531742
-0.00029672
-0.000344036
-0.0528649
0.0527661
-0.000219963
-0.000264187
-0.0518112
0.051164
-0.00116999
-0.00064581
-0.0511943
0.0516562
-0.00288344
-0.00217765
0.00253942
-0.00264613
0.0514516
-0.00188537
0.000859791
0.0525699
0.0523604
-0.000388434
-2.35708e-06
0.0530072
0.0527141
0.0521331
-0.0504339
-0.0026328
0.0505997
0.0512012
-0.0521295
-0.00146162
-0.00204306
0.0531896
-0.053173
-0.000118782
-0.000103783
0.0531549
-0.0531349
-0.000160747
-0.000142487
0.0531135
-0.0530903
-0.000204787
-0.000185553
0.0530669
-0.0530432
-0.000245252
-0.000228171
0.0530207
-0.0529999
-0.000276216
-0.000263991
0.0529823
-0.0529689
-0.000296488
-0.000289003
0.0529612
-0.0529605
-0.00031366
-0.000305868
0.052968
-0.0529852
-0.000347039
-0.000327747
0.0530125
-0.0530507
-0.0004269
-0.0003795
0.0530989
-0.0531565
-0.000591607
-0.000495586
0.0532202
-0.0532876
-0.000883013
-0.000716669
0.0533523
-0.0534106
-0.00133596
-0.00108247
0.0534522
-0.0527968
-0.00196864
-0.00161986
0.0515533
-0.0508765
-0.00223649
-0.00233126
0.0491658
-0.04786
-0.00162314
-0.00208681
0.046692
-0.0471568
-0.00106532
-0.00215929
-0.00250729
-0.00185646
0.0508665
5.54011e-05
-0.0440921
0.000377664
-0.0471388
0.00110234
-0.0438049
0.001102
-0.0516603
-0.00153478
0.000597989
-0.0492958
0.00242839
-0.0433366
0.0510133
-0.0517056
-0.00194055
0.00245846
0.0503362
-0.00178129
0.00186581
0.0511924
0.00179993
-0.0446504
-0.002179
0.00209956
-0.0461891
0.0511725
-0.0523796
-0.00167635
0.0512401
-0.00192397
-0.00218398
-0.0458729
-0.00116626
0.00114903
-0.0516431
0.0540695
-0.0535263
-0.00170949
-0.0541581
0.0543091
-0.00163993
-0.0016233
-0.0542516
0.0540584
-0.00115292
-0.00146852
-0.0539736
0.0540602
-0.00038551
-0.000988799
-0.054108
0.0541202
-0.000258661
-0.000314563
-0.0541018
0.0540615
-0.000233597
-0.000242173
-0.0540049
0.0539376
-0.000273475
-0.000254418
-0.0538637
0.0537878
-0.000341792
-0.000313063
-0.0537126
0.0536409
-0.000409635
-0.000384301
-0.053574
0.0535134
-0.000459676
-0.000445071
-0.0534596
0.0534133
-0.00048164
-0.000482106
-0.0533743
0.0533424
-0.000471127
-0.000487946
-0.0533171
0.0532979
-0.000430301
-0.00046147
-0.0532839
0.0532745
-0.000367395
-0.000408108
-0.0532688
0.0532661
-0.000294077
-0.000338317
-0.0532661
0.053268
-0.000221912
-0.000264119
-0.0532145
0.0529332
-0.000888629
-0.000592345
-0.0016241
-0.00104252
0.000846548
0.0516476
0.00129198
-0.000882036
0.0508301
0.051116
-0.000596748
0.000514665
0.0526519
0.0526102
-1.54431e-05
-1.37748e-06
0.053024
0.0532133
0.000428147
-0.000895908
0.0523735
0.0525599
0.0518366
0.0518657
-0.0532383
-8.90515e-05
-0.0018829
0.053232
-0.0532257
-0.000125147
-0.000110053
0.0532195
-0.0532138
-0.000166518
-0.000148637
0.0532088
-0.053205
-0.000208548
-0.000190529
0.0532031
-0.0532036
-0.000244813
-0.000230081
0.0532069
-0.0532139
-0.000269238
-0.000260657
0.053225
-0.0532415
-0.000280018
-0.000277817
0.0532638
-0.0532934
-0.000284084
-0.000283563
0.0533307
-0.0533773
-0.000300438
-0.000290476
0.053433
-0.053499
-0.000360862
-0.000323787
0.0535737
-0.0536568
-0.000508452
-0.000420945
0.0537446
-0.0538351
-0.00079254
-0.000628854
0.0539221
-0.0540016
-0.00125646
-0.000995462
0.0540668
-0.0541157
-0.00191973
-0.00155465
0.0541422
-0.0540172
-0.00236143
-0.00230481
0.0535269
-0.0526268
-0.00252322
-0.00257718
0.0521787
-0.0505106
-0.00273341
-0.0026074
0.049901
-0.0483856
-0.00339963
-0.00311684
-0.00331186
0.000617381
-0.0436071
0.000490523
-0.0470313
-0.00228962
0.00159276
0.0518892
-0.00279463
0.0508412
0.00184195
-0.0432185
0.000376137
-0.0485229
0.00310136
-0.0446381
0.001538
-0.0535984
-0.00146587
0.00100157
-0.0511067
0.0029023
-0.0454532
0.00358401
-0.0459504
0.0509098
-0.0487222
-0.00306967
-0.00542033
0.00567408
-0.0466883
-0.0469562
-0.00549156
-0.00208601
0.00172729
0.0511888
0.0512857
-0.00246188
-0.044765
-0.00276034
0.00216176
-0.0529999
0.0547787
-0.0547589
-0.00278021
-0.0552668
0.0555183
-0.00196098
-0.00195397
-0.0556584
0.0556561
-0.00163761
-0.00176337
-0.0557178
0.0553082
-0.000743364
-0.0015302
-0.0548947
0.054929
-0.000419795
-0.000575333
-0.0549246
0.0548851
-0.000219181
-0.000310091
-0.0548159
0.0547249
-0.000142565
-0.000173022
-0.054618
0.0545023
-0.000157762
-0.000147546
-0.054382
0.0542623
-0.000222098
-0.000192762
-0.0541456
0.0540352
-0.000299166
-0.00026761
-0.0539317
0.0538369
-0.000364879
-0.000341603
-0.0537507
0.0536738
-0.000404754
-0.000395905
-0.0536057
0.0535466
-0.000411988
-0.000419876
-0.0534957
0.0534528
-0.000387395
-0.000410577
-0.0534171
0.0533881
-0.000338422
-0.000372419
-0.0533651
0.0533473
-0.00027632
-0.000315248
-0.053334
0.0533245
-0.000212401
-0.000250839
-0.0529212
0.0525674
-0.000534835
-0.000189001
-0.0517612
0.0513159
-0.00123099
-0.000817935
0.000669673
-0.0011564
0.00104431
0.0517597
0.0516869
-0.000412788
2.658e-05
0.0530381
0.0532417
-1.28453e-05
-5.57376e-07
0.0530374
0.053227
0.000671787
-0.00133246
0.0530341
0.0532311
0.0520969
-0.0514113
-0.00179186
0.0504085
0.0511438
-0.0514664
-0.00161786
-0.00204881
0.0532705
-0.0532699
-8.9615e-05
-7.88593e-05
0.0532704
-0.053272
-0.000123547
-0.000109588
0.0532751
-0.0532802
-0.000161425
-0.000145515
0.0532876
-0.0532978
-0.000198322
-0.000183168
0.053311
-0.0533279
-0.000227938
-0.000216825
0.0533483
-0.053373
-0.000244582
-0.000240232
0.0534017
-0.0534354
-0.000246295
-0.000249111
0.053474
-0.0535189
-0.000239245
-0.000244972
0.0535698
-0.0536285
-0.000241724
-0.000239523
0.0536944
-0.0537688
-0.000286504
-0.00025789
0.0538497
-0.0539373
-0.000420849
-0.000339999
0.0540278
-0.0541197
-0.000700718
-0.000538347
0.0542074
-0.0542884
-0.00117548
-0.000907719
0.0543577
-0.0544137
-0.00186372
-0.00148535
0.0544537
-0.0540858
-0.00272929
-0.00226482
0.053487
-0.0529632
-0.00304701
-0.00317598
0.0520395
-0.0509456
-0.00382731
-0.00353111
0.0500497
-0.0479983
-0.00545109
-0.00401273
0.0477649
-0.0490229
-0.00386474
-0.00354518
-0.00460012
0.00497675
-0.0473328
0.0498076
-0.0488705
-0.00553719
-0.00470687
0.00172569
-0.0434909
-0.000796999
-0.0458582
0.00285289
-0.04297
0.000829171
-0.0483505
0.00270625
-0.044442
0.00147972
-0.0504246
0.00402464
-0.0458938
0.00249896
-0.0537881
-0.00346977
0.00250739
-0.0530083
0.00483302
-0.0451094
0.00438843
-0.0461
0.00588707
-0.0481474
-0.00661014
0.00506148
-0.0465073
0.0517628
-0.053284
-0.00154841
-0.0112741
0.00167374
-0.0385471
0.0515102
-0.0507043
-0.00259768
-0.00192545
0.0015445
0.0515698
-0.00273895
0.0520992
0.00299303
0.0508956
-0.00237851
0.0023975
0.051004
0.046155
-0.0267841
-0.030645
0.0517854
-0.00248453
-0.0438363
-0.00417721
0.00411233
-0.0537232
0.0551691
-0.0548691
-0.00447721
-0.0554857
0.0560639
-0.00335844
-0.00378633
-0.0559022
0.0561233
-0.00218208
-0.00179226
-0.0559453
0.0556222
-0.00131456
-0.00158534
-0.0551721
0.0552658
-0.000837085
-0.00108007
-0.055323
0.0553399
-0.000436721
-0.000632532
-0.0553186
0.0552627
-0.000163356
-0.000288709
-0.0551772
0.055069
-3.43758e-05
-8.74541e-05
-0.0549441
0.0548101
-2.3734e-05
-2.2673e-05
-0.0546713
0.0545334
-8.42299e-05
-5.39669e-05
-0.0543989
0.0542712
-0.000171453
-0.000133071
-0.0541509
0.0540399
-0.00025386
-0.000221362
-0.0539378
0.0538454
-0.000312334
-0.000293802
-0.053762
0.0536879
-0.0003379
-0.000336493
-0.0536224
0.0535655
-0.000330491
-0.000345096
-0.0535165
0.0534751
-0.000297044
-0.000323415
-0.0534407
0.0534126
-0.000248234
-0.000280779
-0.0533901
0.0533723
-0.000194647
-0.000228318
-0.0533588
0.0529678
-0.000143869
-0.000175488
-0.0522776
0.0511468
-0.000100231
-0.000127689
-0.00146752
-0.00068417
3.9629e-05
0.0524042
0.0525472
-3.15644e-05
2.13946e-05
0.0530483
0.0532498
-1.05765e-05
1.65432e-08
0.053048
0.0532378
1.01383e-05
-1.88144e-05
0.0530428
0.0532413
0.00117373
-0.00232737
0.0530429
0.0532518
0.0509113
0.0517339
-0.0532917
-6.01044e-05
-0.0010192
0.0532937
-0.0532972
-8.61372e-05
-7.68093e-05
0.0533022
-0.0533092
-0.000116586
-0.000104613
0.0533184
-0.0533304
-0.000149398
-0.000136308
0.0533453
-0.0533638
-0.000179822
-0.000168208
0.0533857
-0.0534114
-0.000202202
-0.000194971
0.0534405
-0.0534736
-0.000211547
-0.000211121
0.0535099
-0.0535503
-0.00020592
-0.000212804
0.0535942
-0.0536428
-0.000190604
-0.000201074
0.0536958
-0.0537547
-0.000182864
-0.000186531
0.0538187
-0.0538892
-0.000216032
-0.000193832
0.0539644
-0.0540445
-0.000340709
-0.000264802
0.0541264
-0.0542092
-0.000618014
-0.000456417
0.0542885
-0.054363
-0.00110093
-0.000828395
0.0544295
-0.0544879
-0.0018053
-0.0014189
0.0545384
-0.0545853
-0.00268236
-0.0022143
0.054629
-0.0540493
-0.00362672
-0.00313237
0.0535187
-0.052809
-0.00453702
-0.00406167
0.0518864
-0.0529814
-0.00435613
-0.00493527
0.051493
-0.049687
-0.00567069
-0.00503359
0.0496089
-0.0488937
-0.0062524
-0.00478497
-0.00934884
0.00168758
-0.0423256
-0.000668861
-0.0443602
-0.0023297
0.00123204
0.0521017
-0.00253023
0.0510962
0.0496063
-0.0624372
-0.0139532
0.00218706
-0.0424508
0.000435341
-0.0473061
0.00292298
-0.0433403
0.00214123
-0.0500585
0.0042295
-0.0452903
0.00306292
-0.0519589
0.00552289
-0.0462438
0.00423737
-0.054242
-0.00486444
0.00398838
-0.0534742
0.00502365
-0.0460622
0.00414653
-0.04898
-0.00176727
-0.0674248
-0.00224389
0.0512903
-0.0428176
-0.00502624
-0.0542876
0.00507182
0.0555983
-0.0555125
-0.00511206
-0.0551991
0.0551887
-0.00446681
-0.00446524
-0.0549269
0.0545423
-0.00297391
-0.00352448
-0.055044
0.0548496
-0.00198769
-0.0022939
-0.0549937
0.0551244
-0.0014453
-0.00172944
-0.055235
0.0553173
-0.000919389
-0.00119065
-0.0553682
0.0553848
-0.000453387
-0.000683387
-0.0553672
0.0553176
-0.000113778
-0.000271093
-0.0552398
0.0551393
6.60713e-05
-9.61303e-06
-0.0550216
0.0548937
0.000104238
9.5039e-05
-0.0547596
0.0546251
5.02287e-05
8.00921e-05
-0.0544927
0.0543659
-4.46378e-05
-6.21392e-07
-0.0542455
0.0541333
-0.000141731
-0.000100956
-0.0540292
0.053934
-0.000217088
-0.000189687
-0.053847
0.0537686
-0.000259539
-0.000249502
-0.0536983
0.0536361
-0.000268306
-0.000274752
-0.0535815
0.0535344
-0.000249975
-0.000268833
-0.0534943
0.0534607
-0.000214611
-0.000240625
-0.0534329
0.0534103
-0.000172055
-0.000200525
-0.0533921
0.0533778
-0.000129606
-0.000157308
-0.0533669
0.0533585
-9.17849e-05
-0.000116778
-0.0526767
0.0519807
-0.000852412
-0.000785706
-0.0517609
0.0516055
-0.0020885
-0.0022648
0.00173682
-0.00199686
0.0515504
-0.00132908
0.000754479
0.0521444
0.052507
-0.000689316
3.11104e-05
0.0530624
0.0526124
-2.47781e-05
1.69345e-05
0.0530562
0.0532561
-8.54678e-06
3.1811e-07
0.0530562
0.0532462
7.52712e-06
-1.44781e-05
0.0530498
0.0532491
2.02675e-05
-2.41309e-05
0.0530467
0.0532576
0.0521192
-0.0508543
-0.0027796
0.0511036
0.051622
-0.053009
-0.0012107
-0.00161077
0.0533058
-0.0533088
-5.70398e-05
-0.000722419
0.0533133
-0.0533192
-8.02412e-05
-7.2376e-05
0.0533268
-0.0533366
-0.000106708
-9.70268e-05
0.053349
-0.0533643
-0.000134023
-0.000123985
0.0533827
-0.0534046
-0.000157927
-0.000149843
0.0534296
-0.0534582
-0.00017365
-0.000169961
0.0534895
-0.0535241
-0.000176973
-0.000179765
0.053561
-0.053601
-0.000165977
-0.000175859
0.0536432
-0.0536888
-0.000145041
-0.000158831
0.0537372
-0.0537897
-0.00013036
-0.000138139
0.0538457
-0.0539062
-0.000155485
-0.000137845
0.05397
-0.0540374
-0.000273325
-0.000201031
0.0541061
-0.0541758
-0.000548323
-0.000387714
0.0542437
-0.0543097
-0.00103496
-0.000760446
0.0543719
-0.0544317
-0.00174549
-0.00135668
0.0544899
-0.05455
-0.00262228
-0.0021561
0.0546149
-0.0546912
-0.00355041
-0.00306751
0.0547806
-0.0548893
-0.00442832
-0.00397222
0.0550149
-0.0541232
-0.00524789
-0.00480966
0.0535409
-0.0542298
-0.00498181
-0.00561584
0.0531279
-0.0513739
-0.00800633
-0.00588692
-0.0111164
-0.00187387
0.0514826
0.00160412
-0.0417426
-0.000501917
-0.0434229
0.00504133
-0.0551876
-0.00536623
-0.0545525
0.00530617
0.00273464
-0.0422625
0.00073731
-0.0459022
0.00397763
-0.0430885
0.00229472
-0.0492903
0.00427326
-0.0440406
0.00355218
-0.0515227
0.00525279
-0.046473
0.00476763
-0.05317
0.00608852
-0.0480041
0.00379951
-0.0545468
0.00999812
-0.0609126
-0.0115228
0.0032687
-0.0606954
-0.0118173
0.0129189
-0.0620142
0.051229
-0.0519554
-0.00136211
0.0506175
-0.0508608
-0.00253626
0.00209963
0.0511766
-0.00265875
0.0507569
-0.00140177
0.00193108
0.0512722
-0.0417154
-0.00642394
0.00618372
-0.0549474
0.0556407
-0.0553341
-0.00673056
-0.0553789
0.0556287
-0.0053618
-0.00510448
-0.0553646
0.0552103
-0.00431247
-0.00420122
-0.0547501
0.0544771
-0.00270097
-0.00306426
-0.0546014
0.0547275
-0.00211385
-0.00241814
-0.0548487
0.0549583
-0.00155488
-0.00185057
-0.0550527
0.0551259
-0.000992672
-0.00128507
-0.0551748
0.0551963
-0.000474851
-0.000732281
-0.0551896
0.0551561
-8.02773e-05
-0.000264426
-0.0550973
0.0550182
0.000145175
4.92184e-05
-0.0549224
0.0548155
0.000211137
0.00019085
-0.0547012
0.0545845
0.000166893
0.000194374
-0.0544678
0.0543545
6.86844e-05
0.00011609
-0.0542455
0.0541429
-3.90659e-05
8.01324e-06
-0.0540465
0.0539574
-0.000127972
-9.32959e-05
-0.0538751
0.0538002
-0.000184608
-0.000167231
-0.0537321
0.0536712
-0.00020737
-0.000206688
-0.0536169
0.0535694
-0.000202474
-0.000214593
-0.0535282
0.053493
-0.000179393
-0.000199381
-0.0534632
0.0534383
-0.000147225
-0.000170732
-0.0534178
0.053401
-0.000112814
-0.000136755
-0.0533872
0.0533757
-8.03203e-05
-0.000102967
-0.0529471
0.0523577
-0.000262975
-0.000357099
-0.00186252
-0.0543712
0.00600249
-0.00679275
0.00711595
-0.0552706
-0.0555414
-0.00658544
-0.00118042
0.00115745
0.0515734
0.00140947
-0.00158504
0.0509325
0.0517116
-0.000894528
0.000697512
0.0523414
0.0527699
-2.75198e-05
2.41782e-05
0.0530657
0.0532824
-1.92454e-05
1.32062e-05
0.0530622
0.053261
-6.74256e-06
4.10431e-07
0.0530625
0.0532527
5.63107e-06
-1.09815e-05
0.0530551
0.0532552
1.52809e-05
-1.82062e-05
0.0530497
0.0532619
0.000602364
-0.00129067
0.05279
0.0527034
0.0517366
0.0519182
-0.0526436
-0.000485236
-0.000553452
0.0533188
-0.0533234
-5.2363e-05
-4.72803e-05
0.053329
-0.053336
-7.32523e-05
-6.68086e-05
0.0533446
-0.0533555
-9.58624e-05
-8.83842e-05
0.0533686
-0.0533846
-0.000118024
-0.000110834
0.0534033
-0.0534251
-0.000136134
-0.000131166
0.0534495
-0.0534768
-0.000146316
-0.00014556
0.0535063
-0.0535383
-0.000145022
-0.000150279
0.0535718
-0.0536075
-0.000130332
-0.000142301
0.0536445
-0.0536837
-0.000105882
-0.000121816
0.0537244
-0.0537678
-8.69991e-05
-9.73684e-05
0.0538132
-0.0538614
-0.000107208
-9.24696e-05
0.0539117
-0.0539645
-0.000220528
-0.00015078
0.0540185
-0.054074
-0.000492785
-0.000333727
0.0541297
-0.0541864
-0.000978315
-0.000704726
0.0542434
-0.0543027
-0.00168612
-0.00129967
0.0543654
-0.0544345
-0.00255314
-0.00209349
0.0545122
-0.0546029
-0.00345969
-0.00298982
0.0547086
-0.0548342
-0.00430275
-0.00386651
0.0549816
-0.0551562
-0.00507328
-0.00466221
0.0553516
-0.0544796
-0.00585372
-0.00542053
0.0541423
-0.0546826
-0.00746608
-0.00622423
0.0563269
-0.0605572
-0.00972285
-0.00947216
0.0620198
-0.0706755
-0.00316153
-0.0100602
-0.0321953
-0.0411266
0.00264629
-0.0128612
0.0280286
-0.0473626
-0.0516467
-0.00234114
0.00145566
-0.0404637
-0.000253651
-0.042432
-0.00247967
0.00123562
0.0525162
-0.00213636
0.0508333
0.00263493
-0.0409198
0.00110113
-0.0447086
0.00396802
-0.0427832
0.00234803
-0.0480861
0.00536702
-0.0441549
0.00404742
-0.0508025
0.0054402
-0.0458247
0.00538304
-0.0532469
0.00648498
-0.0506896
0.00744408
-0.0587222
0.0113673
-0.0591437
0.0163086
-0.0502943
-0.0541322
0.0068769
0.00769733
-0.0558315
-0.00740723
0.00782092
-0.0553942
-0.00829475
0.00853085
-0.0560676
0.0517156
-0.0508661
-0.00243454
-0.00738677
0.012562
-0.0525378
-0.00203359
0.00119632
0.0517697
-0.0505374
-0.00849605
-0.00162233
0.0513044
-0.0405134
-0.0559691
0.0556781
-0.00711627
-0.00783914
-0.0556717
0.0550671
-0.00612601
-0.006579
-0.0554303
0.0552141
-0.00514555
-0.00546765
-0.0549453
0.054117
-0.00348417
-0.0039324
-0.0541981
0.0542936
-0.00279645
-0.00314545
-0.0543943
0.0544947
-0.00221432
-0.00251877
-0.0545925
0.054682
-0.00164435
-0.00194833
-0.0547603
0.0548232
-0.00105559
-0.00136342
-0.0548684
0.0548934
-0.000499842
-0.00077747
-0.0548975
0.0548807
-6.34639e-05
-0.000268487
-0.054844
0.0547903
0.000198906
8.58592e-05
-0.0547218
0.0546425
0.00029043
0.000259364
-0.0545551
0.0544634
0.000258565
0.000281796
-0.0543695
0.0542765
0.000161685
0.000209956
-0.0541854
0.0540983
4.80995e-05
9.91272e-05
-0.0540152
0.0539374
-5.01623e-05
-1.02055e-05
-0.0538647
0.0537977
-0.000117664
-9.45402e-05
-0.0537362
0.0536806
-0.000151702
-0.000145207
-0.0536304
0.0535859
-0.000157937
-0.000164428
-0.0535466
0.0535124
-0.000145243
-0.000160098
-0.0534829
0.0534577
-0.000122034
-0.000141227
-0.0534363
0.0534181
-9.46489e-05
-0.000115301
-0.0534026
0.0533895
-6.71481e-05
-8.74868e-05
-0.0530932
0.0532499
-0.000419757
-6.07907e-05
-0.0520365
0.0517864
-0.00111195
-0.000649104
-0.000481526
-0.00127062
0.00067963
0.0521644
0.0516373
-0.000755573
2.11666e-05
0.0530758
0.0526939
-2.04153e-05
1.81288e-05
0.053068
0.0532831
-1.4571e-05
1.00473e-05
0.0530667
0.0532646
-5.15969e-06
3.73337e-07
0.0530673
0.0532576
4.19484e-06
-8.21984e-06
0.0530591
0.0532598
1.14558e-05
-1.36832e-05
0.0530519
0.0532652
0.000585348
-0.000848735
0.0530534
0.053275
0.0521235
-0.0499812
-0.0030529
0.0508978
0.0516707
-0.0530394
-0.00116758
-0.00096923
0.0528715
-0.0533265
-3.02288e-05
-0.000721417
0.0533305
-0.0533355
-4.73587e-05
-4.32604e-05
0.0533414
-0.0533485
-6.60855e-05
-6.09199e-05
0.0533571
-0.0533677
-8.53419e-05
-7.97916e-05
0.0533801
-0.053395
-0.000103121
-9.83485e-05
0.0534121
-0.0534318
-0.000116503
-0.000114068
0.0534534
-0.0534774
-0.000122392
-0.000123907
0.0535028
-0.0535301
-0.000117737
-0.000124795
0.0535584
-0.0535881
-0.000100648
-0.000113988
0.0536185
-0.05365
-7.43238e-05
-9.14503e-05
0.0536822
-0.0537157
-5.35436e-05
-6.51812e-05
0.0537499
-0.0537855
-7.15523e-05
-5.82609e-05
0.0538221
-0.0538604
-0.000182235
-0.000114189
0.0539
-0.0539418
-0.000450949
-0.000294162
0.0539858
-0.0540334
-0.000930732
-0.000660771
0.0540849
-0.0541428
-0.00162829
-0.0012481
0.0542076
-0.0542824
-0.00247836
-0.00202862
0.054368
-0.0544677
-0.00335997
-0.00290426
0.0545824
-0.0547166
-0.00416855
-0.00375176
0.0548712
-0.0550508
-0.00489368
-0.00450768
0.0552567
-0.0554969
-0.00561354
-0.0052146
0.055771
-0.0568648
-0.00637221
-0.00595013
0.0581118
-0.0598641
-0.00797061
-0.00822516
0.0634744
-0.0602077
-0.00642822
-0.00644994
0.0539807
-0.0515476
-0.00477426
-0.00358066
0.00282318
0.00372531
-0.0570859
0.0534788
-0.0421225
-0.00853311
-0.00656487
0.00122653
-0.0390553
5.99084e-05
-0.0413907
0.00246261
-0.0394144
0.00155107
-0.0439116
0.00389953
-0.0413158
0.00290147
-0.0469402
0.00541276
-0.0441274
0.00414236
-0.0495618
0.00689915
-0.0462388
0.00532633
-0.0525707
0.00716775
-0.0504133
0.00866891
-0.0560238
0.0125676
-0.0554027
0.0139261
-0.0516584
0.00709071
-0.0559032