/*--------------------------------*- C++ -*----------------------------------*\
  =========                 |
  \\      /  F ield         | OpenFOAM: The Open Source CFD Toolbox
   \\    /   O peration     | Website:  https://openfoam.org
    \\  /    A nd           | Version:  10
     \\/     M anipulation  |
\*---------------------------------------------------------------------------*/
FoamFile
{
    format      ascii;
    class       volScalarField;
    location    "43.5";
    object      p;
}
// * * * * * * * * * * * * * * * * * * * * * * * * * * * * * * * * * * * * * //

dimensions      [0 2 -2 0 0 0 0];

internalField   nonuniform List<scalar> 
28942
(
-0.00372522
-0.00309461
0.00208304
0.00957857
0.0098788
0.000118552
0.000351973
4.00135e-05
0.00279035
0.00287847
-0.00226918
-0.00253905
-0.00292504
-0.00284224
0.000232473
0.000577527
0.0099543
0.0102241
0.00564627
0.00720702
0.00822638
0.00821842
-0.00519533
-0.00501742
-0.00354615
-0.00376708
0.0139529
0.0139019
0.00359403
0.00353804
2.94146e-05
6.82626e-05
0.000911397
0.000381259
0.00721626
0.00842263
0.0109608
0.0129206
7.61372e-06
0.0151171
0.00918314
0.011681
0.00195894
0.00189323
0.0019355
0.00034875
0.000200004
0.000279331
0.000322183
0.00045175
0.000844543
0.00288228
0.00295209
0.00292132
0.00307776
-0.00230947
-0.00100217
-0.00333485
-0.00317987
-0.00345319
-0.00352594
-0.003527
-0.00342442
-6.24101e-05
-0.00177141
-0.000305539
0.00103134
0.00949537
0.00899871
-0.00331396
-0.00352511
-0.00325874
0.00905882
0.00891121
0.00920271
-0.00142266
-0.00103349
-0.000689932
0.00241946
0.00281907
0.00190671
0.000807829
-0.00627558
-0.00750799
0.00114471
0.00387398
0.00491703
0.00570602
0.00408795
0.00421341
0.00618262
0.00555964
-0.00133253
-0.00162905
-0.0019107
-0.00174593
-0.00156813
0.00540468
0.00669721
-0.00781942
0.011376
0.010577
0.0058709
0.00946832
0.000978255
0.00089259
0.000796689
0.00555019
0.00574279
0.00573668
-0.00317728
-0.00309741
-0.00307888
-0.00255898
-0.00268029
0.0159088
0.0139025
0.0133441
0.0149762
0.00170719
0.00479337
0.00348931
0.00513578
0.00481304
0.0155805
0.0158761
0.0145353
0.00597918
0.00705896
0.000236683
0.000349283
0.000142669
0.0105695
0.0110735
0.00776036
0.00741261
0.0128694
0.00676359
0.00805638
0.00912435
-0.00184631
-0.00236307
0.00742528
0.00188337
0.00195955
-0.00112883
-0.00139696
-0.000927583
-0.00246333
0.00666408
0.00579059
0.00377799
0.000313587
0.000251001
0.000109354
0.000254528
0.00760195
0.00686675
-0.00179879
-0.00191723
-0.00181133
-0.00409574
-0.00363716
8.86644e-05
-0.00281302
-0.000455806
0.00846833
0.00857697
0.00967174
0.00920701
0.00778426
0.00317592
0.00309427
0.00333395
0.00321102
0.00512118
0.00489888
0.00523335
0.00545388
0.00539107
0.00546009
0.00567075
0.00622397
0.00591839
0.00551557
0.00584552
0.00655143
0.00730415
0.00759676
-0.000497302
-0.000479902
-0.00241449
0.000262172
9.06796e-05
-0.00192876
-0.00201922
0.000354095
0.000416181
0.000375725
0.000304678
0.00210793
0.00207472
0.00204355
-0.00287226
-0.0030618
-0.00272256
-0.00430204
-0.0047875
-0.00409417
-0.00468493
-0.00645581
-0.00514934
0.0161029
0.0168134
0.0165808
0.00102181
0.00116753
0.00105208
0.010424
0.00999625
0.0100767
0.0015982
0.00157641
0.00162006
0.00155469
0.00153329
0.00151201
0.00151282
0.00149096
0.00149197
0.00153379
0.00155513
0.0015767
0.00159864
0.0016205
0.00147038
0.00147109
0.00164194
0.00164244
0.00166427
0.00144996
0.00145027
0.00166471
0.0014294
0.00140902
0.00142984
0.00140955
0.00168674
0.0016873
0.00138885
0.0013894
0.00170893
0.00170977
0.00136884
0.00136941
0.00173147
0.00173236
0.00134899
0.00134958
0.00175417
0.00175509
0.00132931
0.00132988
0.00177701
0.00177789
0.00130982
0.00131028
0.00180002
0.00180072
0.00129044
0.00129085
0.00182296
0.00182366
0.00127118
0.0012715
0.00184602
0.00184657
0.001252
0.00125213
0.00186935
0.00186986
0.00123299
0.00123262
0.00189255
0.00189275
0.0012136
0.00121329
0.00191593
0.00191614
0.00119372
0.00119389
0.00189166
0.00191502
0.00193949
0.00193944
0.00184465
0.00186831
0.00179842
0.00182175
0.00175303
0.00177572
0.00170778
0.00173039
0.00166281
0.00168521
0.00161917
0.00164144
0.00157588
0.00159733
0.00153285
0.00155422
0.00149037
0.00151156
0.00144898
0.00146962
0.00140823
0.00142853
0.00136815
0.00138812
0.00132869
0.00134835
0.00128983
0.0013092
0.00125152
0.00127062
0.00121305
0.00123249
0.00119363
0.00117418
0.00117432
0.00123276
0.00119411
0.00121346
0.00127151
0.00125212
0.00131024
0.00129085
0.00134947
0.00132979
0.0013893
0.00136932
0.00142977
0.00140946
0.00147088
0.00145026
0.00151281
0.00149186
0.00155526
0.00153405
0.00159835
0.00157665
0.00164254
0.00162057
0.00168692
0.0016644
0.00173207
0.00170949
0.00177752
0.00175478
0.00182328
0.00180032
0.00186939
0.00184614
0.00191517
0.00189238
0.00193848
0.00193879
0.00117411
0.00117467
0.00196253
0.00196125
0.00196242
0.00196285
0.00188974
0.00193665
0.00191314
0.00184285
0.00186635
0.00179712
0.00181982
0.00175177
0.00177443
0.00170667
0.00172918
0.00166208
0.00168429
0.00161789
0.00163996
0.0015745
0.0015964
0.00153209
0.00155297
0.00148969
0.00151079
0.00144831
0.00146892
0.00140762
0.00142788
0.00136759
0.00138753
0.00132819
0.00134782
0.00128937
0.00130871
0.00125111
0.00127017
0.00121281
0.00123201
0.00115463
0.00115474
0.00117421
0.00119359
0.00119441
0.00117521
0.00115545
0.00115481
0.00123295
0.00121373
0.00127132
0.00125201
0.00130994
0.00129057
0.00134912
0.00132946
0.00138891
0.00136894
0.00142935
0.00140905
0.00147044
0.00144982
0.00151225
0.00149125
0.00155481
0.00153341
0.00159784
0.00157625
0.0016417
0.00161984
0.00168616
0.0016639
0.00173114
0.0017086
0.00177649
0.00175378
0.00182203
0.00179926
0.00186758
0.00184485
0.00191313
0.00189036
0.00195837
0.00193596
0.00196001
0.00198416
0.0019812
0.00198504
0.00115515
0.00115585
0.00198501
0.00198249
0.00200666
0.00200387
0.00198588
0.00117445
0.00115544
0.00113618
0.00113657
0.00197846
0.00200639
0.00203216
0.00200633
0.00193319
0.001956
0.00188688
0.00191001
0.0018407
0.00186387
0.0017952
0.00181773
0.00175006
0.00177263
0.00170515
0.00172756
0.0016607
0.00168287
0.00161673
0.00163862
0.0015734
0.00159498
0.00153075
0.001552
0.00148879
0.0015097
0.0014475
0.00146806
0.00140688
0.00142711
0.00136691
0.00138682
0.00132756
0.00134717
0.0012888
0.00130811
0.00125057
0.00126962
0.00121254
0.0012315
0.00119348
0.00113562
0.00113593
0.00113569
0.00113579
0.0011946
0.00115632
0.00117551
0.00123284
0.00121372
0.00127092
0.00125176
0.00130947
0.00129013
0.0013486
0.00132897
0.00138833
0.00136839
0.00142869
0.00140843
0.00146972
0.00144913
0.00151143
0.00149048
0.0015538
0.00153254
0.00159691
0.00157529
0.00164059
0.00161865
0.00168489
0.0016627
0.00172968
0.00170723
0.00177484
0.00175223
0.00182016
0.0017975
0.0018654
0.00184284
0.00191041
0.00188791
0.00195504
0.00193275
0.00199967
0.00197706
0.00202523
0.00202127
0.00200767
0.00200759
0.00113636
0.00113717
0.00202836
0.00202834
0.00203377
0.00204235
0.00204618
0.00199176
0.00206774
0.00200861
0.00201506
0.00202136
0.00197443
0.00199791
0.00192825
0.00195126
0.00188295
0.00190539
0.00183772
0.00186053
0.00179275
0.00181521
0.00174783
0.00177028
0.00170315
0.00172545
0.00165888
0.00168096
0.00161513
0.00163693
0.00157196
0.00159345
0.00152942
0.00155063
0.00148759
0.00150843
0.00144642
0.00146693
0.0014059
0.00142608
0.00136602
0.00138588
0.00132675
0.00134631
0.00128805
0.00130733
0.00124988
0.0012689
0.00121209
0.00123091
0.00117444
0.00119326
0.00113655
0.00115546
0.00111707
0.00111744
0.00111728
0.00111689
0.00111687
0.00111724
0.00111699
0.00111822
0.00111767
0.0011566
0.00111892
0.00113774
0.00119449
0.00117556
0.00123237
0.00121345
0.00127034
0.0012513
0.00130884
0.00128952
0.00134789
0.00132829
0.00138754
0.00136764
0.00142781
0.0014076
0.00146874
0.0014482
0.00151033
0.00148945
0.00155258
0.00153138
0.00159552
0.00157398
0.00163906
0.00161721
0.00168317
0.00166106
0.00172775
0.00170541
0.00177266
0.00175017
0.00181771
0.00179518
0.00186264
0.00184022
0.00190713
0.00188496
0.00195091
0.00192915
0.00199411
0.00197253
0.00203652
0.00201508
0.0020625
0.00205654
0.0020293
0.00202991
0.00204786
0.00204824
0.00113663
0.00111793
0.00109936
0.00109972
0.00206249
0.00206658
0.00209204
0.0020218
0.00208092
0.00207568
0.00205812
0.00203002
0.00200487
0.00201602
0.00196836
0.0019891
0.00192284
0.00194558
0.00187887
0.00190091
0.00183439
0.0018567
0.00178972
0.00181206
0.00174509
0.0017674
0.00170069
0.00172286
0.00165667
0.00167863
0.00161313
0.00163484
0.00157017
0.00159158
0.00152782
0.00154892
0.00148613
0.0015069
0.00144509
0.00146553
0.00140469
0.00142481
0.00136492
0.00138473
0.00132575
0.00134526
0.00128713
0.00130637
0.00124905
0.00126803
0.00121146
0.0012302
0.00117407
0.0011927
0.00115529
0.00109841
0.00109868
0.00109852
0.00109846
0.00109848
0.00109872
0.0010986
0.00109894
0.00115665
0.00111898
0.00113805
0.00119415
0.0011754
0.00123172
0.00121295
0.00126962
0.00125061
0.00130803
0.00128876
0.001347
0.00132745
0.00138654
0.0013667
0.00142671
0.00140655
0.00146751
0.00144703
0.00150896
0.00148815
0.00155106
0.00152993
0.00159381
0.00157236
0.00163715
0.00161541
0.00168103
0.00165903
0.00172534
0.00170314
0.00176996
0.00174763
0.00181467
0.00179232
0.00185922
0.00183699
0.0019033
0.00188135
0.00194648
0.00192504
0.00198851
0.00196778
0.00202909
0.00200824
0.00206917
0.00205007
0.0020936
0.0020868
0.00205095
0.0020502
0.0010988
0.00110018
0.00206712
0.00204054
0.00207004
0.00206873
0.00208477
0.00208204
0.00209706
0.00209454
0.00209898
0.00211062
0.00210519
0.00205084
0.00203039
0.00208191
0.00206
0.00199759
0.00201161
0.00196114
0.00198209
0.00191788
0.00193948
0.00187443
0.00189626
0.00183041
0.00185248
0.00178614
0.00180829
0.00174188
0.00176401
0.00169781
0.00171981
0.00165407
0.00167589
0.0016108
0.00163237
0.00156806
0.00158936
0.00152592
0.00154692
0.00148441
0.00150509
0.00144353
0.00146389
0.00140328
0.00142333
0.00136363
0.00138338
0.00132457
0.00134403
0.00128607
0.00130525
0.00124808
0.00126701
0.00121059
0.00122928
0.00117344
0.001192
0.00113621
0.00115484
0.00109868
0.00111761
0.00108003
0.00107984
0.00107985
0.00108022
0.00108008
0.00108043
0.0010803
0.00108054
0.00108051
0.0010808
0.00108064
0.00108154
0.0010811
0.00111905
0.00108188
0.00110045
0.00115636
0.00113778
0.0011936
0.00117498
0.00123093
0.00121222
0.00126874
0.00124978
0.00130706
0.00128784
0.00134592
0.00132642
0.00138535
0.00136556
0.00142538
0.00140529
0.00146603
0.00144563
0.00150731
0.00148659
0.00154923
0.0015282
0.00159176
0.00157043
0.00163487
0.00161325
0.00167848
0.00165662
0.00172249
0.00170045
0.00176675
0.00174461
0.00181107
0.00178893
0.00185519
0.00183318
0.00189879
0.00187708
0.00194147
0.00192028
0.00198276
0.00196238
0.00202232
0.00200269
0.00205965
0.00204156
0.00209532
0.00207672
0.00212206
0.0021131
0.00206949
0.00209313
0.00208217
0.00109855
0.00108005
0.00106292
0.00106312
0.00206992
0.00208747
0.00209622
0.00210274
0.0021157
0.00212838
0.00213723
0.00212889
0.00207012
0.00207298
0.00210769
0.00209857
0.00208703
0.00202799
0.00205233
0.00199095
0.00200748
0.00195418
0.00197447
0.00191214
0.00193321
0.00186932
0.00189085
0.00182584
0.00184764
0.00178206
0.00180398
0.00173822
0.00176014
0.00169451
0.00171634
0.00165111
0.00167277
0.00160812
0.00162956
0.00156565
0.00158682
0.00152375
0.00154463
0.00148244
0.00150302
0.00144174
0.00146202
0.00140165
0.00142162
0.00136216
0.00138183
0.00132323
0.00134262
0.00128484
0.00130397
0.00124697
0.00126584
0.00120957
0.00122821
0.00117262
0.00119105
0.00113566
0.00115413
0.00111709
0.00106166
0.00106134
0.0010615
0.00106218
0.00106196
0.00106254
0.00106238
0.0010626
0.00106261
0.00106257
0.0010626
0.00106269
0.00111901
0.00108193
0.00110048
0.00115582
0.00113742
0.00119277
0.00117431
0.00123001
0.00121134
0.00126772
0.00124881
0.00130592
0.00128676
0.00134466
0.00132522
0.00138395
0.00136423
0.00142382
0.00140381
0.00146431
0.00144399
0.0015054
0.00148478
0.0015471
0.00152618
0.0015894
0.00156818
0.00163223
0.00161075
0.00167553
0.00165383
0.0017192
0.00169733
0.00176307
0.00174112
0.00180695
0.00178503
0.00185057
0.00182882
0.00189363
0.0018722
0.00193573
0.00191483
0.00197643
0.00195631
0.00201527
0.00199613
0.00205148
0.00203377
0.00208606
0.00206848
0.00211791
0.0021017
0.00211719
0.00211289
0.00214313
0.00213291
0.00208604
0.00106159
0.00106322
0.00211012
0.00208865
0.00212278
0.00210165
0.00210583
0.00212049
0.00212092
0.00213375
0.00214359
0.00215133
0.00215661
0.00214682
0.00208822
0.00208627
0.00212855
0.00212103
0.0020997
0.00206143
0.00207723
0.00202211
0.00204146
0.00198403
0.00200226
0.00194676
0.00196642
0.00190573
0.00192639
0.00186361
0.0018848
0.00182075
0.00184226
0.0017775
0.00179916
0.00173412
0.00175581
0.00169082
0.00171245
0.00164778
0.00166927
0.00160513
0.0016264
0.00156294
0.00158398
0.0015213
0.00154205
0.00148022
0.00150069
0.00143973
0.0014599
0.00139982
0.00141971
0.00136049
0.00138009
0.00132172
0.00134104
0.00128347
0.00130253
0.00124571
0.00126453
0.00120843
0.00122702
0.00117158
0.00118995
0.001135
0.0011533
0.0010983
0.0011166
0.0010615
0.00108004
0.00104322
0.00104292
0.00104304
0.00104375
0.00104342
0.00104434
0.00104405
0.00104473
0.00104457
0.00104477
0.0010448
0.00104462
0.00104469
0.00104453
0.00104451
0.00104475
0.00104456
0.00108181
0.00104487
0.00106343
0.00111859
0.00110017
0.0011551
0.00113689
0.00119182
0.00117342
0.00122896
0.00121033
0.00126655
0.0012477
0.00130462
0.00128553
0.00134322
0.00132386
0.00138235
0.00136272
0.00142206
0.00140214
0.00146235
0.00144213
0.00150323
0.00148272
0.00154469
0.00152389
0.00158672
0.00156564
0.00162925
0.00160793
0.00167221
0.00165069
0.00171549
0.00169382
0.00175893
0.00173721
0.00180233
0.00178066
0.00184542
0.00182394
0.00188789
0.00186676
0.00192935
0.00190878
0.00196937
0.00194958
0.0020075
0.00198871
0.00204306
0.00202565
0.00207598
0.00205993
0.00210591
0.00209082
0.00213409
0.002121
0.00213217
0.00213182
0.00215631
0.00214304
0.00210478
0.00210722
0.00213189
0.0021426
0.00213699
0.00212093
0.00212387
0.0010613
0.00104315
0.00102645
0.00102661
0.00213899
0.00213802
0.00214952
0.00215772
0.00216405
0.0021664
0.00214122
0.00213252
0.00213964
0.00216627
0.00215726
0.00215563
0.00210689
0.00211157
0.00211828
0.00207567
0.00209119
0.00204965
0.00206538
0.00201315
0.00203107
0.0019767
0.00199503
0.00193893
0.00195821
0.0018988
0.00191906
0.00185741
0.00187824
0.00181519
0.00183638
0.00177249
0.00179388
0.00172961
0.00175106
0.00168676
0.00170817
0.00164412
0.00166541
0.00160182
0.00162292
0.00155995
0.00158083
0.00151859
0.00153921
0.00147777
0.00149811
0.0014375
0.00145757
0.0013978
0.00141758
0.00135865
0.00137816
0.00132004
0.00133928
0.00128194
0.00130093
0.00124433
0.00126308
0.00120717
0.00122569
0.00117043
0.00118875
0.0011341
0.00115222
0.00109774
0.00111592
0.00107956
0.00102516
0.00102474
0.00102491
0.00102596
0.00102558
0.00102662
0.00102631
0.00102699
0.00102684
0.00102704
0.00102706
0.00102681
0.00102694
0.00102656
0.00102668
0.00102649
0.00108153
0.00104516
0.00106335
0.00111792
0.00109969
0.00115415
0.001136
0.00119075
0.0011724
0.00122777
0.00120921
0.00126523
0.00124645
0.00130317
0.00128414
0.00134161
0.00132233
0.00138057
0.00136102
0.00142009
0.00140026
0.00146016
0.00144006
0.00150081
0.00148042
0.00154201
0.00152134
0.00158374
0.00156281
0.00162594
0.00160479
0.00166853
0.00164719
0.00171139
0.00168994
0.00175437
0.00173289
0.00179725
0.00177585
0.00183977
0.00181858
0.00188161
0.00186081
0.0019224
0.00190217
0.0019617
0.00194227
0.00199906
0.00198066
0.00203394
0.00201686
0.00206593
0.00205037
0.00209468
0.00208072
0.00211936
0.00210787
0.00214343
0.00212904
0.00215212
0.00216278
0.00217673
0.00216985
0.00215809
0.00214635
0.00214782
0.00214898
0.00212369
0.00212538
0.00102486
0.00102659
0.00215682
0.00213948
0.00214116
0.00215463
0.00215423
0.00216431
0.00217163
0.00217452
0.00217433
0.00214833
0.00213401
0.00213936
0.00214258
0.00215073
0.00216531
0.00215523
0.00216476
0.00216987
0.00217951
0.00217551
0.00212533
0.0021211
0.00212411
0.00209605
0.0021055
0.00206584
0.00208157
0.00203762
0.00205247
0.00200385
0.00202113
0.00196816
0.00198621
0.00193078
0.00194975
0.00189143
0.00191132
0.00185076
0.00187124
0.00180919
0.00183006
0.00176708
0.00178819
0.00172473
0.00174592
0.00168235
0.00170353
0.00164013
0.00166122
0.00159821
0.00161913
0.00155669
0.0015774
0.00151563
0.0015361
0.00147508
0.00149529
0.00143506
0.00145501
0.00139558
0.00141526
0.00135664
0.00137605
0.00131821
0.00133736
0.00128027
0.00129918
0.00124281
0.00126148
0.00120578
0.00122424
0.00116917
0.00118743
0.00113295
0.00115102
0.00109696
0.00111497
0.00106098
0.00107893
0.00102476
0.00104285
0.00100681
0.00100664
0.00100661
0.00100746
0.00100703
0.0010083
0.00100788
0.00100897
0.00100867
0.00100933
0.00100918
0.00100938
0.00100939
0.00100915
0.0010093
0.00100873
0.00100898
0.00100841
0.00100853
0.00100831
0.00100835
0.00104471
0.00100827
0.00102654
0.00108103
0.00106289
0.00111697
0.00109904
0.00115308
0.00113498
0.00118957
0.00117128
0.00122646
0.00120797
0.00126378
0.00124507
0.00130156
0.00128261
0.00133983
0.00132063
0.0013786
0.00135915
0.00141791
0.00139819
0.00145776
0.00143777
0.00149815
0.00147789
0.00153906
0.00151854
0.00158047
0.00155971
0.00162231
0.00160134
0.00166451
0.00164338
0.00170693
0.0016857
0.00174941
0.00172818
0.00179175
0.00177062
0.00183367
0.00181279
0.00187485
0.00185438
0.00191494
0.00189507
0.00195349
0.00193445
0.00199007
0.00197207
0.00202418
0.00200748
0.0020554
0.0020402
0.00208327
0.00206981
0.00210682
0.0020957
0.00212664
0.00211736
0.0021311
0.00216159
0.00216842
0.0021678
0.00215459
0.00214187
0.00214288
0.00216315
0.00215553
0.00215754
0.00102434
0.0010064
0.000990167
0.00098997
0.00217036
0.00216941
0.00217822
0.00218362
0.00218583
0.00218599
0.00214745
0.00213293
0.00214483
0.00215596
0.00216807
0.00216963
0.00217827
0.00218739
0.00217689
0.00215557
0.00217018
0.00214313
0.00212192
0.00211718
0.00210445
0.00211453
0.00208066
0.00209286
0.002055
0.00206852
0.00202642
0.00204114
0.00199393
0.00201061
0.00195903
0.00197671
0.00192227
0.0019409
0.00188366
0.00190317
0.0018437
0.00186383
0.00180279
0.00182335
0.0017613
0.00178211
0.00171949
0.00174042
0.00167761
0.00169855
0.00163584
0.00165671
0.00159433
0.00161505
0.00155316
0.0015737
0.00151243
0.00153274
0.00147218
0.00149224
0.00143242
0.00145224
0.00139318
0.00141274
0.00135445
0.00137375
0.00131622
0.00133527
0.00127846
0.00129728
0.00124116
0.00125975
0.00120428
0.00122267
0.00116781
0.001186
0.00113171
0.00114971
0.00109595
0.0011138
0.00106027
0.00107805
0.00104233
0.000988962
0.000988457
0.00098873
0.00098987
0.000989431
0.000990755
0.000990334
0.000991387
0.000991108
0.000991731
0.000991594
0.000991793
0.000991798
0.000991566
0.000991716
0.00099109
0.000991352
0.000990511
0.000990819
0.00099025
0.0010443
0.00100823
0.0010265
0.00108025
0.00106224
0.00111592
0.00109806
0.00115191
0.00113387
0.00118828
0.00117005
0.00122502
0.0012066
0.00126219
0.00124356
0.0012998
0.00128094
0.00133788
0.00131879
0.00137646
0.00135711
0.00141554
0.00139594
0.00145514
0.00143528
0.00149525
0.00147513
0.00153586
0.0015155
0.00157692
0.00155634
0.00161839
0.00159762
0.00166016
0.00163925
0.00170212
0.00168113
0.00174408
0.00172312
0.00178585
0.00176501
0.00182715
0.00180658
0.00186766
0.00184754
0.00190703
0.00188753
0.00194483
0.00192616
0.00198062
0.00196302
0.00201394
0.00199763
0.00204433
0.00202954
0.00207134
0.00205831
0.00209428
0.00208339
0.00211267
0.00210425
0.00212592
0.00211958
0.00213944
0.00213404
0.00215642
0.00214284
0.00213644
0.00217417
0.00217585
0.00215823
0.00215938
0.000988304
0.000990178
0.00217996
0.00217095
0.00217292
0.00218473
0.0021835
0.00219085
0.00219485
0.00219564
0.00219282
0.0021477
0.00213042
0.00212925
0.00212693
0.0021235
0.00214289
0.0021469
0.00216654
0.00216984
0.00218249
0.00218231
0.00219148
0.00218254
0.0021702
0.00215534
0.00215968
0.00212184
0.00212928
0.00210572
0.0021052
0.0020884
0.00210004
0.00206791
0.00207868
0.00204315
0.00205607
0.00201506
0.00202953
0.00198353
0.00199969
0.00194947
0.00196677
0.0019134
0.00193169
0.00187553
0.00189467
0.00183628
0.00185606
0.00179605
0.00181627
0.00175517
0.00177568
0.00171393
0.00173458
0.00167257
0.00169326
0.00163127
0.0016519
0.00159017
0.00161069
0.00154939
0.00156974
0.001509
0.00152915
0.00146906
0.00148898
0.00142959
0.00144927
0.0013906
0.00141004
0.0013521
0.00137129
0.00131407
0.00133303
0.00127651
0.00129524
0.00123938
0.00125789
0.00120267
0.00122098
0.00116634
0.00118446
0.00113037
0.00114832
0.00109475
0.00111252
0.00105941
0.00107704
0.00102373
0.00104154
0.000987796
0.00100593
0.00097058
0.000969536
0.000970089
0.000971432
0.000970954
0.000972394
0.000971894
0.000973271
0.000972866
0.000973872
0.000973605
0.000974205
0.000974071
0.00097427
0.000974271
0.000974066
0.000974202
0.000973602
0.000973865
0.000972932
0.000973277
0.000972379
0.000972624
0.000972209
0.000972209
0.00100792
0.000972262
0.000990167
0.00104365
0.00102588
0.00107924
0.00106145
0.00111478
0.00109697
0.00115065
0.00113267
0.00118687
0.00116872
0.00122347
0.00120512
0.00126047
0.00124192
0.0012979
0.00127913
0.00133578
0.00131678
0.00137414
0.0013549
0.00141298
0.0013935
0.00145231
0.00143259
0.00149213
0.00147217
0.00153242
0.00151222
0.00157312
0.00155272
0.00161419
0.00159362
0.00165552
0.00163483
0.00169699
0.00167625
0.00173842
0.00171772
0.0017796
0.00175906
0.00182026
0.00180002
0.00186009
0.00184031
0.00189873
0.00187959
0.00193577
0.00191749
0.00197078
0.00195357
0.0020033
0.00198739
0.00203288
0.0020185
0.00205906
0.00204644
0.00208131
0.00207073
0.00209916
0.00209087
0.00211249
0.00210629
0.00212156
0.00211825
0.00212039
0.00218752
0.00219103
0.0021418
0.00212902
0.00217365
0.00217488
0.00218937
0.00218529
0.00218721
0.000987544
0.000969971
0.000954352
0.000954187
0.002198
0.00219642
0.0022023
0.0022048
0.00220383
0.00219942
0.00212708
0.00211134
0.00210867
0.00212641
0.00214637
0.00216515
0.00218061
0.00218343
0.0021935
0.00219539
0.0021836
0.00216784
0.00215316
0.00211728
0.00212963
0.0021752
0.00211511
0.00210982
0.00210347
0.00211307
0.00208957
0.0020957
0.00207486
0.00208346
0.00205497
0.00206542
0.0020309
0.00204342
0.00200346
0.0020176
0.00197281
0.00198851
0.00193956
0.00195648
0.00190421
0.00192214
0.00186708
0.00188585
0.00182854
0.00184797
0.00178898
0.00180887
0.00174873
0.00176893
0.00170807
0.00172844
0.00166724
0.00168767
0.00162642
0.00164682
0.00158577
0.00160607
0.00154539
0.00156554
0.00150536
0.00152533
0.00146574
0.0014855
0.00142656
0.0014461
0.00138785
0.00140715
0.00134959
0.00136866
0.00131179
0.00133064
0.00127443
0.00129306
0.00123749
0.00125591
0.00120094
0.00121917
0.00116477
0.00118281
0.00112895
0.00114682
0.00109345
0.00111116
0.00105826
0.00107582
0.00102296
0.00104063
0.00100521
0.00095289
0.000951976
0.000952452
0.00095399
0.000953466
0.000955017
0.000954512
0.000955847
0.000955465
0.00095642
0.000956165
0.000956742
0.000956613
0.000956811
0.000956808
0.000956628
0.000956751
0.000956196
0.000956443
0.000955537
0.000955888
0.000954776
0.000955176
0.000954456
0.0010075
0.000972069
0.000989974
0.00104286
0.00102521
0.00107813
0.00106052
0.00111355
0.0010958
0.00114929
0.00113138
0.00118536
0.00116728
0.00122179
0.00120353
0.00125862
0.00124016
0.00129585
0.00127719
0.00133353
0.00131464
0.00137165
0.00135253
0.00141024
0.00139089
0.00144929
0.00142971
0.0014888
0.00146899
0.00152874
0.00150873
0.00156907
0.00154887
0.00160972
0.00158937
0.0016506
0.00163015
0.00169156
0.00167108
0.00173244
0.00171203
0.00177302
0.00175279
0.00181304
0.00179313
0.00185218
0.00183275
0.00189009
0.00187132
0.00192638
0.00190848
0.00196061
0.00194379
0.00199236
0.00197684
0.00202116
0.00200717
0.00204658
0.00203434
0.00206815
0.00205789
0.00208546
0.00207739
0.00209842
0.00209244
0.00210633
0.00210327
0.00210908
0.00210802
0.00211171
0.00210757
0.00211427
0.00210013
0.00210133
0.00219924
0.0022017
0.00218804
0.00218931
0.000952007
0.000954261
0.00219667
0.00219856
0.00220035
0.00220984
0.00220815
0.00221254
0.00221337
0.00221068
0.00220453
0.00210766
0.00209143
0.002083
0.00208653
0.00207574
0.00209109
0.00210249
0.00212631
0.00214352
0.00216501
0.00217951
0.00219351
0.00219889
0.00219717
0.00218281
0.00216516
0.00214664
0.00212518
0.00210515
0.00218967
0.00210217
0.00209962
0.00209793
0.00208885
0.00208646
0.00209682
0.00207581
0.00208121
0.00206121
0.00206926
0.00204179
0.00205201
0.00201845
0.00203059
0.0019917
0.00200549
0.00196184
0.00197714
0.00192937
0.00194591
0.00189476
0.00191232
0.00185835
0.00187676
0.00182052
0.00183959
0.00178163
0.00180119
0.00174202
0.0017619
0.00170195
0.00172203
0.00166165
0.00168182
0.00162133
0.00164149
0.00158113
0.00160121
0.00154116
0.00156111
0.00150151
0.00152129
0.00146223
0.00148182
0.00142336
0.00144275
0.00138493
0.00140409
0.00134693
0.00136588
0.00130936
0.0013281
0.00127222
0.00129074
0.00123547
0.0012538
0.00119911
0.00121725
0.0011631
0.00118106
0.00112744
0.00114523
0.00109207
0.00110972
0.001057
0.0010745
0.00102208
0.00103956
0.000987023
0.00100449
0.000951672
0.000969505
0.000934556
0.000933812
0.000934156
0.000935577
0.000934998
0.000936693
0.000936136
0.0009377
0.00093722
0.000938483
0.000938121
0.00093903
0.000938786
0.00093934
0.000939215
0.000939412
0.000939406
0.000939247
0.000939359
0.000938849
0.000939077
0.000938213
0.000938561
0.000937403
0.000937816
0.000936746
0.000937034
0.000936685
0.000936549
0.000971754
0.000936599
0.000954266
0.00100695
0.000989402
0.00104194
0.00102439
0.00107695
0.00105942
0.00111224
0.00109456
0.00114783
0.00113
0.00118374
0.00116575
0.00122001
0.00120183
0.00125664
0.00123828
0.00129367
0.00127511
0.00133112
0.00131235
0.001369
0.00135001
0.00140732
0.00138811
0.00144608
0.00142665
0.00148527
0.00146563
0.00152486
0.00150502
0.00156479
0.00154479
0.00160501
0.00158488
0.00164541
0.0016252
0.00168586
0.00166565
0.00172618
0.00170606
0.00176615
0.00174623
0.00180552
0.00178594
0.00184398
0.00182489
0.00188117
0.00186276
0.00191671
0.00189918
0.0019502
0.00193375
0.00198119
0.00196605
0.00200927
0.00199564
0.00203399
0.00202209
0.00205494
0.00204498
0.00207173
0.0020639
0.00208421
0.00207852
0.00209187
0.00208876
0.00209432
0.00209378
0.00209241
0.00209396
0.00208627
0.00220962
0.00221087
0.00208696
0.00207538
0.00220136
0.00220258
0.00220503
0.00221055
0.00221229
0.000951231
0.000933686
0.000919016
0.000918972
0.00222033
0.00221863
0.00222141
0.00222056
0.0022161
0.00220826
0.0020817
0.00206879
0.00205377
0.0020666
0.00210255
0.00211959
0.00214459
0.00215677
0.00217939
0.00219347
0.00220435
0.00219714
0.0021806
0.00216178
0.00213822
0.00211935
0.00209656
0.00206138
0.00207298
0.002203
0.00207871
0.00206166
0.00208587
0.00208675
0.00208013
0.00207639
0.0020723
0.0020792
0.00206201
0.00206736
0.00204749
0.00205539
0.0020286
0.00203854
0.00200591
0.00201772
0.00197982
0.00199328
0.0019507
0.00196562
0.00191897
0.00193514
0.00188507
0.00190228
0.00184938
0.00186744
0.00181225
0.00183098
0.00177403
0.00179326
0.00173505
0.00175462
0.00169557
0.00171536
0.00165582
0.00167572
0.00161601
0.00163592
0.00157627
0.00159612
0.00153672
0.00155647
0.00149746
0.00151706
0.00145854
0.00147796
0.00141999
0.00143922
0.00138185
0.00140087
0.00134412
0.00136294
0.0013068
0.00132541
0.00126988
0.00128829
0.00123334
0.00125157
0.00119717
0.00121521
0.00116134
0.00117922
0.00112584
0.00114355
0.00109062
0.0011082
0.00105569
0.00107312
0.00102101
0.00103832
0.000986255
0.00100358
0.000968756
0.000917143
0.000916243
0.000916693
0.000918347
0.000917756
0.000919478
0.000918928
0.000920434
0.000919982
0.000921175
0.000920831
0.000921696
0.000921463
0.000921995
0.000921874
0.00092207
0.000922061
0.000921922
0.000922024
0.000921554
0.000921765
0.000920968
0.000921289
0.000920185
0.000920594
0.000919364
0.000919787
0.000919092
0.000971389
0.000936529
0.000953952
0.00100616
0.000988723
0.00104082
0.00102347
0.0010757
0.00105823
0.00111085
0.00109325
0.00114628
0.00112853
0.00118203
0.00116412
0.00121811
0.00120003
0.00125455
0.00123628
0.00129136
0.00127291
0.00132858
0.00130992
0.0013662
0.00134734
0.00140424
0.00138517
0.00144269
0.00142342
0.00148154
0.00146208
0.00152076
0.00150112
0.0015603
0.0015405
0.00160007
0.00158017
0.00163999
0.00162003
0.00167991
0.00165997
0.00171966
0.00169983
0.00175903
0.00173942
0.00179775
0.0017785
0.00183552
0.00181678
0.00187201
0.00185396
0.00190683
0.00188966
0.00193959
0.00192351
0.00196988
0.00195508
0.00199727
0.00198397
0.00202136
0.00200977
0.00204175
0.00203206
0.00205811
0.00205047
0.00207019
0.00206471
0.00207763
0.00207456
0.00208019
0.00207952
0.00207766
0.00207974
0.00206967
0.00207408
0.00206167
0.00206167
0.00204679
0.00203731
0.00204913
0.00221861
0.00221819
0.00221345
0.00221465
0.000916133
0.000918761
0.00221176
0.00222122
0.00222295
0.00222948
0.00222775
0.00222887
0.00222627
0.00222005
0.00221027
0.00204
0.00203596
0.00202824
0.0020482
0.00206645
0.00208819
0.00211929
0.00213497
0.00215918
0.00217438
0.00219206
0.00220536
0.00219538
0.00217699
0.00215582
0.00213405
0.0021097
0.00208373
0.00205786
0.00202709
0.00203244
0.00201914
0.00221511
0.00205932
0.00203488
0.00206144
0.00205418
0.0020685
0.00206763
0.00206405
0.00206582
0.00205868
0.00206262
0.00204826
0.00205386
0.00203391
0.00204164
0.00201548
0.00202519
0.00199335
0.00200487
0.00196788
0.00198102
0.00193943
0.00195402
0.00190841
0.00192423
0.00187521
0.00189207
0.00184021
0.00185792
0.00180376
0.00182215
0.00176621
0.00178511
0.00172785
0.00174712
0.00168897
0.00170847
0.00164977
0.0016694
0.00161047
0.00163013
0.0015712
0.00159083
0.00153209
0.00155163
0.00149323
0.00151263
0.00145467
0.00147391
0.00141646
0.00143552
0.00137863
0.0013975
0.00134118
0.00135986
0.00130411
0.0013226
0.00126743
0.00128573
0.00123111
0.00124922
0.00119513
0.00121308
0.00115949
0.00117727
0.00112415
0.00114179
0.0010891
0.00110659
0.00105431
0.00107167
0.00101976
0.001037
0.000985269
0.00100247
0.000950739
0.00096809
0.000915781
0.000933332
0.00089897
0.0008982
0.000898544
0.000900026
0.000899434
0.000901215
0.000900615
0.000902315
0.000901789
0.000903217
0.00090279
0.000903919
0.000903593
0.000904416
0.000904194
0.000904704
0.000904586
0.000904782
0.000904769
0.00090465