/*--------------------------------*- C++ -*----------------------------------*\
  =========                 |
  \\      /  F ield         | OpenFOAM: The Open Source CFD Toolbox
   \\    /   O peration     | Website:  https://openfoam.org
    \\  /    A nd           | Version:  10
     \\/     M anipulation  |
\*---------------------------------------------------------------------------*/
FoamFile
{
    format      ascii;
    class       volVectorField;
    location    "43.5";
    object      U;
}
// * * * * * * * * * * * * * * * * * * * * * * * * * * * * * * * * * * * * * //

dimensions      [0 1 -1 0 0 0 0];

internalField   nonuniform List<vector> 
28942
(
(0.00446908 -0.0022775 -3.37721e-22)
(0.00604791 -0.00236409 -6.25054e-23)
(0.0179828 -0.0124167 -8.3682e-22)
(0.103305 0.0182396 -5.30359e-21)
(0.102342 0.0222815 1.73607e-21)
(0.017412 0.000570998 0)
(0.0207161 0.000142216 1.43746e-23)
(0.0239541 0.000736683 -1.28041e-23)
(0.135253 -0.0180338 -2.61849e-22)
(0.133886 -0.0163972 7.44851e-22)
(0.00992873 0.00406896 -6.62054e-22)
(0.0162622 0.00570983 2.49585e-22)
(0.00722869 0.00319409 0)
(0.00477393 0.00209469 0)
(0.0531587 0.00225113 -1.90953e-23)
(0.0511236 0.00295281 -7.14963e-24)
(0.0893294 0.0158638 6.72267e-22)
(0.0870171 0.0138349 1.08167e-21)
(0.0121799 -0.0151306 2.94427e-21)
(0.0293689 -0.0305033 -7.74993e-22)
(0.0981595 0.037341 9.59911e-22)
(0.097332 0.0343802 0)
(0.0188866 0.00469226 1.15985e-21)
(0.00793344 0.0023947 5.4582e-22)
(0.0380118 0.00729783 9.35985e-22)
(0.0578072 0.00299099 -8.53277e-22)
(0.00765334 -0.0185093 8.54928e-21)
(0.00669769 -0.016572 -3.148e-21)
(0.0355747 -0.02536 5.80197e-22)
(0.0193342 -0.013703 2.00465e-22)
(0.0178379 -0.00166118 0)
(0.0223054 -0.00149074 -1.70266e-23)
(0.0282071 0.00493338 3.48868e-22)
(0.0403285 0.00210772 -5.88881e-23)
(0.0188418 0.0180209 1.32539e-21)
(0.015732 0.0191297 -1.32052e-21)
(0.0321946 0.0376328 -3.07219e-21)
(0.0186827 0.0305461 -1.07343e-21)
(0.00961494 5.35994e-05 -1.20364e-23)
(0.00865498 0.0162042 -2.62898e-21)
(0.0306475 -0.00620334 0)
(0.0513403 -0.0109699 0)
(0.112697 -0.0151738 -3.04913e-23)
(0.112207 -0.0152548 9.07997e-23)
(0.116162 -0.0149874 7.82846e-23)
(0.0336236 0.00029923 1.47539e-23)
(0.0313242 -0.000588089 -2.39864e-23)
(0.0444261 -0.000524996 -1.06128e-22)
(0.042612 -0.000590313 3.00998e-23)
(0.0347936 -0.00307712 -2.57641e-22)
(0.0260776 -0.00376652 1.66194e-22)
(0.12834 0.00179362 -4.14412e-22)
(0.127686 0.00130086 -3.85795e-22)
(0.134591 -0.020837 -3.80875e-24)
(0.133022 -0.0191099 1.4194e-22)
(0.0830383 0.00658629 7.1006e-22)
(0.102294 -0.000506057 2.44636e-22)
(0.00309953 0.00164204 -5.59363e-22)
(0.00904508 0.00372544 0)
(0.00834482 0.00332897 2.35463e-22)
(0.00292026 0.00150797 4.82533e-22)
(0.00037026 0.000231074 -4.0153e-22)
(0.000198491 0.000125762 -3.85205e-22)
(0.110061 -0.0426051 0)
(0.105253 -0.0255711 1.23831e-22)
(0.122115 -0.0330142 -4.18784e-23)
(0.123698 -0.0436932 0)
(0.0901504 -0.0327867 -6.42759e-22)
(0.0936584 -0.0352465 -4.22565e-22)
(0.00190362 -0.00113993 1.11629e-21)
(0.00251363 -0.00203435 -3.51801e-22)
(0.00491643 -0.00318263 8.72845e-22)
(0.0849427 -0.0457542 0)
(0.0912609 -0.0396055 2.1823e-21)
(0.0806217 -0.0530319 5.89714e-22)
(0.114536 0.0122359 2.29431e-22)
(0.113186 0.00669102 -2.54759e-22)
(0.125526 0.010742 -1.04398e-22)
(0.00469589 -0.00286928 -5.41998e-23)
(0.00635558 -0.00443726 4.56235e-22)
(0.0511401 -0.0312037 1.28999e-22)
(0.0332493 -0.020587 -2.59596e-22)
(0.00212933 -0.000605641 3.1904e-21)
(0.00519207 -0.00209199 -1.24344e-21)
(0.101179 0.0482517 1.57978e-23)
(0.0971866 0.0552229 -7.74719e-22)
(0.08084 0.0540375 7.07721e-22)
(0.0472743 0.0345438 -2.71312e-21)
(0.0445032 0.0316423 1.92155e-21)
(0.0295356 0.0206205 -1.15261e-22)
(0.0327581 0.0232743 -6.47858e-22)
(0.0380043 0.0283857 8.7867e-22)
(0.00447361 0.00275709 -5.70247e-23)
(0.00788696 0.00403285 -1.65619e-23)
(0.00323538 0.00203841 3.31882e-23)
(0.00194486 0.00165486 -4.42419e-22)
(0.00146241 0.00157721 5.41674e-22)
(0.0157622 0.0115563 -3.28956e-21)
(0.0175155 0.0136485 7.54095e-22)
(0.00885436 -0.00387411 0)
(0.101389 0.00516026 0)
(0.0984001 0.0156848 -3.9845e-21)
(0.0604373 0.0104758 1.96287e-21)
(0.0886761 0.0178822 0)
(0.135815 -0.00187713 0)
(0.135262 -0.00262483 0)
(0.133643 -0.00308989 -2.77335e-22)
(0.114998 0.0264723 -2.14723e-22)
(0.114093 0.027884 2.12153e-21)
(0.113289 0.0253466 1.13843e-21)
(0.0023276 0.00131626 1.04145e-21)
(0.00153539 0.000786607 -1.16893e-21)
(0.019196 -0.00559382 -5.41873e-22)
(0.0203076 -0.00513103 4.61102e-22)
(0.00918695 -0.00296191 9.10535e-22)
(0.00647976 0.0111459 1.48508e-21)
(0.0189776 0.0181553 3.47236e-21)
(0.0134733 0.022802 2.72331e-22)
(0.00492357 0.0143067 -8.66088e-21)
(0.117199 0.0477035 5.66605e-23)
(0.107999 0.0582048 1.08442e-21)
(0.118483 0.0548143 -1.8703e-21)
(0.0391522 -0.0294551 7.37243e-22)
(0.0240461 -0.0172885 -4.72524e-22)
(0.00532432 -0.000750197 -4.12015e-21)
(0.004541 -0.00360143 0)
(0.0125023 -0.00168411 2.01229e-21)
(0.0219955 -0.0161513 7.83832e-22)
(0.0343036 -0.0278176 -1.97087e-21)
(0.0420902 1.69628e-06 7.48276e-23)
(0.0446827 0.000168367 -5.29532e-23)
(0.0395842 0.000205529 -2.30675e-24)
(0.0280884 -0.0419912 0)
(0.0296365 -0.042879 0)
(0.0896168 -0.0186555 -4.68577e-22)
(0.0995843 -0.0220941 3.18066e-21)
(0.0870321 -0.0252794 0)
(0.0471825 -0.0402302 0)
(0.0582532 -0.051427 -7.88891e-22)
(0.0413488 0.0393572 2.09842e-21)
(-5.89487e-06 0.000210561 5.03367e-22)
(-0.000199611 0.00012765 -3.30131e-22)
(0.0223559 -0.0192638 -7.9695e-22)
(0.119979 -0.0146687 4.4279e-22)
(0.119354 -0.0146965 -8.51917e-23)
(0.11601 -0.00540764 -6.50645e-23)
(0.109 0.00129724 8.67078e-23)
(0.118244 9.29546e-05 1.70377e-22)
(8.2531e-05 0.000259315 1.94973e-22)
(0.043798 0.0344459 3.23205e-21)
(0.0619559 0.0463374 -7.95415e-22)
(0.0594062 0.0394036 -3.06703e-24)
(0.0276814 -0.0010034 6.93482e-24)
(0.0272785 -0.00101824 3.72677e-23)
(0.0295597 -0.000841952 1.74008e-24)
(0.03296 -0.000767938 -1.83314e-23)
(0.0454677 0.0381134 1.34017e-22)
(0.0189807 0.0160712 0)
(0.000140076 -3.32458e-05 3.58212e-22)
(0.000426614 -0.000259808 -3.97435e-22)
(0.00187776 -0.00102489 2.76204e-22)
(0.0367373 -0.00779656 -1.83102e-21)
(0.0651388 -0.00218228 -7.44961e-22)
(0.0381758 -0.000353004 -2.31737e-24)
(0.0747537 -0.00760953 2.70566e-22)
(0.0709279 -0.015736 5.57674e-23)
(0.0943483 0.0398716 2.15946e-21)
(0.0914564 0.0454125 9.92283e-23)
(0.0887748 0.029053 1.22396e-21)
(0.0915016 0.0307659 -8.8699e-22)
(0.0987448 0.0410235 0)
(0.125899 -0.000707166 1.53454e-22)
(0.126646 -0.00116037 2.90532e-22)
(0.128031 -0.0119771 -3.01881e-22)
(0.129489 -0.011757 5.16992e-22)
(0.11707 0.0239923 2.63701e-22)
(0.119132 0.0248778 -7.46934e-22)
(0.117123 0.02601 0)
(0.115154 0.0247606 1.55227e-22)
(0.116701 0.0279404 0)
(0.117228 0.0359725 -5.5821e-22)
(0.11577 0.0380356 -3.04432e-22)
(0.111401 0.0418723 -5.46447e-22)
(0.113793 0.0399927 0)
(0.116497 0.042963 1.81002e-21)
(0.113774 0.0448995 4.73918e-23)
(0.108396 0.0440948 -3.06638e-22)
(0.099701 0.0502277 -1.29898e-21)
(0.0984768 0.0454394 -2.2879e-22)
(0.0253384 -0.00863057 5.217e-23)
(0.0333097 -0.00953364 -2.08364e-23)
(0.00635056 -0.00251625 -6.80671e-22)
(0.0375306 -5.49687e-05 -4.89659e-23)
(0.0477408 -0.000302504 0)
(-3.63314e-06 -4.05555e-05 4.21411e-22)
(1.27726e-05 -4.75303e-05 2.15117e-22)
(0.0432955 -0.00206574 2.21981e-23)
(0.0508723 -0.00200724 8.73557e-24)
(0.050352 -0.00136155 0)
(0.0419216 -0.000903192 9.75387e-24)
(0.100736 0.00411161 -1.31255e-22)
(0.10038 0.00368729 6.21832e-22)
(0.101119 0.00380658 2.9057e-22)
(0.000682002 0.000273682 3.87798e-22)
(-0.000160226 -0.000130705 -5.63632e-22)
(-0.00020316 -0.000171857 4.79195e-22)
(0.00152159 0.000629114 0)
(8.42132e-05 9.10792e-05 1.13489e-21)
(0.000177392 -3.65821e-05 -8.1634e-22)
(0.00750959 0.00370453 -9.87725e-22)
(0.00146976 0.000791108 -1.18175e-21)
(0.00173835 0.000869902 0)
(0.0015728 0.00754307 0)
(0.000577286 0.00328095 0)
(0.000313455 0.00197647 0)
(0.136916 -0.00193889 6.06915e-23)
(0.137854 -0.00180769 0)
(0.136306 -0.00275932 -7.06137e-23)
(0.0881283 -0.014853 4.45266e-21)
(0.0901345 -0.01526 -1.61636e-21)
(0.0890486 -0.0128784 0)
(0.112269 0.000144704 -7.26907e-24)
(0.112569 0.000134587 1.45494e-23)
(0.11195 0.000156264 -4.93541e-24)
(0.11285 0.00012607 0)
(0.113114 0.000120986 -9.23242e-24)
(0.113361 0.000113599 0)
(0.113358 -0.000142574 0)
(0.113592 0.000101693 3.40948e-23)
(0.113585 -0.000142025 0)
(0.113114 -0.000148707 -9.29498e-24)
(0.112849 -0.000157479 0)
(0.112567 -0.00016699 4.86856e-24)
(0.112266 -0.000178937 -7.27319e-24)
(0.111949 -0.000190551 4.92924e-24)
(0.113805 8.99228e-05 -3.26259e-23)
(0.113798 -0.000138914 -1.13975e-24)
(0.11161 0.000169962 7.62231e-28)
(0.111606 -0.000199877 -7.56038e-24)
(0.111243 0.000183721 4.03243e-23)
(0.114003 8.16843e-05 3.04156e-26)
(0.114001 -0.000132369 -1.13641e-24)
(0.111242 -0.00021379 1.49308e-23)
(0.11419 7.34726e-05 3.05536e-23)
(0.114366 6.64517e-05 -3.05284e-23)
(0.11419 -0.000126514 2.29263e-24)
(0.114365 -0.000120536 4.51614e-24)
(0.110867 0.000205734 -3.92336e-23)
(0.110862 -0.000228641 -9.83536e-24)
(0.114529 5.93608e-05 0)
(0.114529 -0.000115279 -4.45441e-24)
(0.110458 0.00022155 4.86981e-27)
(0.110454 -0.000240465 -4.88202e-27)
(0.114682 5.32852e-05 0)
(0.114683 -0.000109948 0)
(0.110024 0.000235453 0)
(0.11002 -0.000255255 0)
(0.114826 4.70832e-05 0)
(0.114826 -0.000105292 2.13068e-24)
(0.109564 0.000249837 -2.05602e-23)
(0.10956 -0.00026991 -5.01126e-27)
(0.114959 4.18023e-05 1.11611e-25)
(0.11496 -0.000100509 -2.27547e-24)
(0.109077 0.000263198 2.06584e-23)
(0.109072 -0.000286453 0)
(0.115084 3.64415e-05 0)
(0.115085 -9.62117e-05 0)
(0.108562 0.000277215 -1.31227e-24)
(0.108557 -0.000302125 2.25482e-23)
(0.115201 3.18105e-05 1.37597e-23)
(0.115202 -9.1729e-05 0)
(0.10802 0.000289332 -1.43165e-25)
(0.108014 -0.000318995 -2.1343e-23)
(0.11531 2.69578e-05 -2.05742e-23)
(0.115311 -8.78043e-05 -5.9684e-24)
(0.107438 0.000294612 2.18181e-23)
(0.107435 -0.000336532 0)
(0.115412 2.28613e-05 6.77206e-24)
(0.115414 -8.31946e-05 3.97979e-24)
(0.106828 0.000305439 -1.10845e-23)
(0.106824 -0.000357625 2.24789e-23)
(0.115507 1.94517e-05 -2.70157e-23)
(0.115511 -7.72813e-05 3.04491e-23)
(0.106166 0.000301494 1.14598e-23)
(0.106169 -0.000383464 3.63186e-25)
(0.115598 1.65246e-05 0)
(0.115601 -7.22837e-05 1.45033e-23)
(0.105469 0.000297978 -2.31133e-23)
(0.105477 -0.000417153 4.62406e-23)
(0.115685 1.28651e-05 0)
(0.115686 -6.91542e-05 0)
(0.10624 0.000982478 -1.13394e-23)
(0.105545 0.0010129 -4.60375e-23)
(0.104724 0.000287404 0)
(0.104744 -0.000463151 -2.36203e-23)
(0.107508 0.000912282 -7.08786e-24)
(0.10689 0.000949188 1.39311e-24)
(0.108624 0.000828137 0)
(0.108077 0.000870806 -2.28171e-23)
(0.10962 0.000742615 -4.37068e-26)
(0.109136 0.000785161 0)
(0.110507 0.000659632 0)
(0.110077 0.000700721 0)
(0.111298 0.000576148 0)
(0.110913 0.000618726 0)
(0.111985 0.00050184 9.7358e-24)
(0.111649 0.000537938 2.46264e-24)
(0.112597 0.00043869 -9.36683e-24)
(0.112304 0.000468988 -9.73324e-24)
(0.113134 0.000383727 1.65399e-23)
(0.112873 0.000407852 2.1193e-23)
(0.11361 0.000335327 0)
(0.113379 0.000360361 0)
(0.114022 0.000290052 -7.21532e-26)
(0.113823 0.000312041 0)
(0.114382 0.000249184 0)
(0.114208 0.000269015 0)
(0.114696 0.000212999 0)
(0.114544 0.000230493 0)
(0.114971 0.000181267 0)
(0.114838 0.000196595 0)
(0.115211 0.000153455 0)
(0.115095 0.000166877 0)
(0.115421 0.000129113 0)
(0.115319 0.000140871 0)
(0.115606 0.000104793 -1.10322e-23)
(0.115515 0.00011798 0)
(0.115691 9.37281e-05 -3.56154e-24)
(0.115766 8.62335e-06 3.47406e-24)
(0.115767 -6.67645e-05 -3.44516e-24)
(0.115518 -0.000169298 0)
(0.115692 -0.000149925 -1.41438e-23)
(0.115608 -0.000158889 -7.2897e-24)
(0.115319 -0.000192429 2.00093e-24)
(0.115422 -0.000180702 -7.82671e-24)
(0.115094 -0.00021666 6.49756e-26)
(0.11521 -0.000204556 0)
(0.114837 -0.000242994 0)
(0.11497 -0.000229376 0)
(0.114542 -0.000273136 0)
(0.114694 -0.000257545 0)
(0.114204 -0.000307718 0)
(0.114378 -0.000289804 8.61282e-30)
(0.113816 -0.000347718 7.30465e-26)
(0.114016 -0.000326937 0)
(0.113376 -0.000391149 0)
(0.113602 -0.000369486 0)
(0.112872 -0.000438981 0)
(0.113131 -0.000414429 0)
(0.112295 -0.000495998 0)
(0.112593 -0.000465206 -4.91468e-24)
(0.11164 -0.000563242 1.30514e-24)
(0.111977 -0.000530945 -6.36871e-24)
(0.110902 -0.00064075 0)
(0.111285 -0.000599129 -5.20001e-24)
(0.110065 -0.00072237 0)
(0.110496 -0.000680806 0)
(0.109123 -0.000810825 0)
(0.109608 -0.000765692 0)
(0.108066 -0.000905212 0)
(0.10861 -0.000857364 0)
(0.106884 -0.00100467 -5.7996e-24)
(0.107493 -0.000952885 0)
(0.105567 -0.0011234 -2.366e-23)
(0.106245 -0.00105842 -5.84752e-24)
(0.104845 -0.00119507 2.41473e-23)
(0.104808 0.00104413 4.56992e-23)
(0.115772 8.41184e-05 6.96474e-24)
(0.115772 -0.000141645 -1.36004e-23)
(0.10396 -0.000521383 0)
(0.104084 -0.00128223 0)
(0.104032 0.00107535 0)
(0.103937 0.000268586 0)
(0.106391 0.00165058 0)
(0.105001 0.00179669 1.14187e-23)
(0.105714 0.00172172 1.15092e-23)
(0.107638 0.00150265 1.45561e-23)
(0.107032 0.00157774 -2.91199e-24)
(0.108738 0.00135233 4.47575e-26)
(0.108204 0.00142698 0)
(0.109719 0.00120917 0)
(0.109243 0.00127977 0)
(0.110593 0.00107441 0)
(0.110169 0.00114068 0)
(0.111368 0.000949585 0)
(0.110992 0.00101045 0)
(0.112052 0.000834142 0)
(0.11172 0.000891316 0)
(0.112653 0.000732101 -3.92255e-26)
(0.11236 0.000782814 1.01384e-23)
(0.11318 0.000639075 -3.74956e-26)
(0.112927 0.000683033 -1.97125e-23)
(0.113646 0.000554737 0)
(0.11342 0.000595513 0)
(0.114053 0.000481021 3.60369e-26)
(0.113857 0.000516689 0)
(0.114409 0.000415981 0)
(0.114237 0.000447484 0)
(0.114719 0.000358723 0)
(0.114569 0.000386418 0)
(0.114991 0.000308563 0)
(0.114859 0.000332804 0)
(0.115228 0.000264715 0)
(0.115113 0.000285894 0)
(0.115435 0.000226219 0)
(0.115335 0.000244892 0)
(0.115618 0.000189851 7.53611e-24)
(0.115529 0.000207951 0)
(0.115842 5.12583e-06 0)
(0.115846 7.54766e-05 6.80266e-24)
(0.115781 0.000157988 0)
(0.115702 0.000173254 7.33881e-24)
(0.115703 -0.000230365 1.46154e-23)
(0.115782 -0.000216775 3.58684e-24)
(0.115847 -0.000134787 2.79671e-23)
(0.115842 -6.40675e-05 0)
(0.115531 -0.000261823 0)
(0.115619 -0.000245389 -2.2066e-23)
(0.115335 -0.000297339 6.3025e-26)
(0.115436 -0.000278819 7.87432e-24)
(0.115112 -0.000335902 -6.49753e-26)
(0.115227 -0.000316104 0)
(0.114857 -0.00037953 0)
(0.114989 -0.000356981 0)
(0.114565 -0.00042953 0)
(0.114716 -0.000403679 0)
(0.114231 -0.000486856 0)
(0.114404 -0.000457213 -8.6128e-30)
(0.11385 -0.000552543 -1.46043e-25)
(0.114047 -0.000518598 0)
(0.113414 -0.00062693 0)
(0.113639 -0.000588699 0)
(0.112916 -0.000711115 2.4781e-24)
(0.113173 -0.000667661 0)
(0.11235 -0.000804803 0)
(0.112642 -0.0007554 -2.46776e-24)
(0.111705 -0.000912768 5.20582e-24)
(0.112036 -0.000858126 5.15949e-24)
(0.110975 -0.00103173 0)
(0.111351 -0.000970791 0)
(0.11015 -0.00116273 0)
(0.110575 -0.00109574 0)
(0.109222 -0.00130567 0)
(0.109699 -0.00123272 0)
(0.108181 -0.0014603 0)
(0.108716 -0.00138151 0)
(0.10702 -0.00162634 9.29543e-26)
(0.107616 -0.00154182 0)
(0.10573 -0.00180329 -9.47516e-26)
(0.106392 -0.00171357 0)
(0.104291 -0.00201728 -2.48787e-23)
(0.105028 -0.00190658 2.48673e-23)
(0.104247 0.00187201 2.33408e-23)
(0.103285 -0.00138169 0)
(0.103514 -0.0021434 -5.08471e-23)
(0.103146 -0.000586077 0)
(0.115855 0.000145316 0)
(0.115856 -0.00020412 -3.47853e-24)
(0.103219 0.0011081 5.93841e-23)
(0.103459 0.00194922 2.37757e-23)
(0.102443 -0.00148518 1.28735e-23)
(0.102698 -0.00227811 6.42721e-23)
(0.10311 0.000246909 0)
(0.115795 0.000232823 2.8695e-23)
(0.115867 0.000214376 -1.41702e-23)
(0.115917 -0.000128085 -6.88246e-24)
(0.115925 -0.000192032 3.42157e-23)
(0.103821 0.00276306 8.30918e-23)
(0.102622 0.00202897 -4.67706e-23)
(0.102153 0.00301405 -2.10295e-22)
(0.103006 0.00288044 -4.74895e-23)
(0.105296 0.00252805 2.30104e-23)
(0.104576 0.00264605 -7.06036e-23)
(0.106628 0.00229725 -2.3482e-23)
(0.10598 0.00241217 -1.7785e-23)
(0.107833 0.00207614 -5.81944e-24)
(0.107247 0.00218693 -5.83672e-24)
(0.108907 0.00186553 -4.47575e-26)
(0.108386 0.00196955 0)
(0.109864 0.00166652 0)
(0.109399 0.00176444 0)
(0.110716 0.00148078 0)
(0.110303 0.00157194 0)
(0.111473 0.0013093 0)
(0.111106 0.00139317 0)
(0.112141 0.00115308 0)
(0.111817 0.00122926 0)
(0.112729 0.00101147 0)
(0.112444 0.0010806 0)
(0.113246 0.000884388 3.30509e-29)
(0.112997 0.000946223 0)
(0.113701 0.000770006 0)
(0.113481 0.000825488 0)
(0.1141 0.00066912 3.59949e-26)
(0.113907 0.000717958 0)
(0.114448 0.000580315 0)
(0.11428 0.000623301 0)
(0.114753 0.000502326 0)
(0.114606 0.000540043 0)
(0.115019 0.000434066 0)
(0.114891 0.000467053 0)
(0.115252 0.000374449 0)
(0.11514 0.00040325 0)
(0.115456 0.000322184 0)
(0.115358 0.000347514 0)
(0.115636 0.000274658 3.84065e-24)
(0.115549 0.000297827 -1.93296e-24)
(0.115718 0.000253037 -1.46412e-23)
(0.115912 2.78067e-06 -3.25918e-24)
(0.115924 0.000133252 1.36274e-23)
(0.115916 6.7967e-05 -1.04231e-23)
(0.115912 -6.25466e-05 0)
(0.115719 -0.000310304 -1.0875e-23)
(0.115869 -0.000272855 -3.13639e-23)
(0.115796 -0.000291046 2.52722e-23)
(0.115549 -0.000353708 0)
(0.115637 -0.000331109 0)
(0.115357 -0.000400426 -2.4372e-29)
(0.115456 -0.000375919 0)
(0.115138 -0.000453582 0)
(0.115251 -0.000426178 0)
(0.114887 -0.000514214 -6.68903e-26)
(0.115017 -0.000482877 0)
(0.114601 -0.000583688 0)
(0.114749 -0.000547779 0)
(0.114273 -0.00066322 0)
(0.114442 -0.000622129 0)
(0.113898 -0.00075403 7.30071e-26)
(0.114092 -0.000707154 0)
(0.113471 -0.000857053 7.50575e-26)
(0.113692 -0.000803967 0)
(0.112983 -0.000973793 0)
(0.113235 -0.000913611 0)
(0.112428 -0.00110499 0)
(0.112714 -0.00103748 0)
(0.111797 -0.00125218 0)
(0.112122 -0.0011767 0)
(0.111082 -0.00141518 0)
(0.111451 -0.00133153 0)
(0.110276 -0.0015949 -8.60107e-26)
(0.110691 -0.00150299 0)
(0.109369 -0.00179102 0)
(0.109836 -0.00169095 0)
(0.108354 -0.00200311 0)
(0.108875 -0.00189512 0)
(0.107221 -0.00223026 -1.23038e-28)
(0.107802 -0.00211486 0)
(0.105966 -0.00247092 1.49505e-28)
(0.106609 -0.00234902 0)
(0.104578 -0.00273268 9.8415e-26)
(0.105288 -0.00259679 0)
(0.103045 -0.00303733 -5.20734e-23)
(0.103829 -0.00287882 1.27583e-23)
(0.101848 -0.00241326 1.31194e-23)
(0.102236 -0.00320374 2.59988e-23)
(0.102369 0.00113529 -2.31936e-23)
(0.102287 -0.000656444 -2.49395e-23)
(0.115935 0.000197561 3.46816e-24)
(0.115937 -0.000256763 2.46478e-23)
(0.101717 0.00209232 2.8844e-24)
(0.101564 -0.00159856 0)
(0.101084 0.00302267 3.22578e-22)
(0.101395 -0.0033714 4.02193e-23)
(0.100975 -0.00255288 5.36872e-23)
(0.101647 0.00423483 -5.36683e-22)
(0.101081 0.00447595 9.77361e-23)
(0.102262 0.000227241 0)
(0.102825 0.00387016 5.34602e-23)
(0.102167 0.00407739 2.75544e-23)
(0.104283 0.00353418 4.81268e-23)
(0.103539 0.00369262 -7.35103e-23)
(0.10568 0.00322194 -2.38404e-23)
(0.105 0.00337916 -1.19212e-23)
(0.106947 0.00292095 1.19012e-23)
(0.106329 0.00306914 1.21046e-23)
(0.108096 0.00263338 0)
(0.107534 0.00277504 -3.03365e-26)
(0.109129 0.00236335 0)
(0.108627 0.0024963 0)
(0.110053 0.00211047 4.35105e-26)
(0.109604 0.00223472 0)
(0.110877 0.00187548 0)
(0.110477 0.00199071 0)
(0.111609 0.00165904 0)
(0.111254 0.0017649 0)
(0.112257 0.00146177 0)
(0.111943 0.00155803 0)
(0.112828 0.0012833 3.91084e-26)
(0.112551 0.00137026 0)
(0.11333 0.001123 3.64762e-29)
(0.113087 0.00120095 0)
(0.113772 0.000979683 0)
(0.113558 0.00104926 0)
(0.11416 0.000852738 -7.19599e-26)
(0.113972 0.000914238 0)
(0.1145 0.000740921 0)
(0.114335 0.00079504 0)
(0.114797 0.000642777 0)
(0.114653 0.000690238 0)
(0.115057 0.000556901 0)
(0.114931 0.000598399 0)
(0.115284 0.000481924 0)
(0.115174 0.000518142 0)
(0.115484 0.00041635 0)
(0.115387 0.000448084 0)
(0.115659 0.0003583 -1.91816e-24)
(0.115574 0.00038619 0)
(0.115814 0.000306792 0)
(0.115739 0.000331715 -3.71823e-24)
(0.115951 0.000261157 4.1487e-28)
(0.115885 0.000283208 0)
(0.115988 0.000122099 -1.38167e-23)
(0.116014 0.000241741 8.34023e-25)
(0.115999 0.000182577 6.76449e-24)
(0.115977 3.47103e-07 4.96894e-24)
(0.115981 6.11528e-05 -3.42985e-24)
(0.115981 -0.000121931 -1.72668e-24)
(0.115977 -6.07983e-05 1.72372e-24)
(0.116001 -0.00024256 0)
(0.115989 -0.00018218 -1.56864e-23)
(0.115887 -0.0003421 -7.05371e-24)
(0.116015 -0.000303085 -1.34861e-23)
(0.115953 -0.000321502 3.10112e-23)
(0.11574 -0.00038902 -3.70455e-24)
(0.115816 -0.000364756 0)
(0.115574 -0.000442427 0)
(0.11566 -0.000414779 0)
(0.115386 -0.000501558 -3.21618e-29)
(0.115483 -0.000471067 0)
(0.115172 -0.000569011 0)
(0.115283 -0.000534171 0)
(0.114927 -0.000646215 6.68903e-26)
(0.115054 -0.00060631 0)
(0.114647 -0.000734656 0)
(0.114792 -0.000688952 0)
(0.114327 -0.000835794 0)
(0.114493 -0.000783559 0)
(0.113962 -0.0009511 0)
(0.114151 -0.0008916 0)
(0.113546 -0.00108197 -6.13183e-29)
(0.113761 -0.00101452 0)
(0.113071 -0.00122998 0)
(0.113316 -0.00115376 0)
(0.112531 -0.00139637 0)
(0.112809 -0.00131078 0)
(0.111918 -0.0015824 0)
(0.112234 -0.00148695 0)
(0.111225 -0.00178859 0)
(0.111582 -0.0016829 0)
(0.110443 -0.00201551 8.60107e-26)
(0.110845 -0.00189949 0)
(0.109565 -0.00226292 0)
(0.110016 -0.0021367 0)
(0.108583 -0.00253022 0)
(0.109087 -0.00239417 0)
(0.107489 -0.00281618 -9.28224e-26)
(0.10805 -0.00267098 0)
(0.106278 -0.00311877 9.50771e-26)
(0.106899 -0.00296556 0)
(0.104944 -0.00343699 -9.73029e-26)
(0.105627 -0.00327593 0)
(0.103486 -0.00377839 1.28336e-23)
(0.10423 -0.00360174 -2.53035e-23)
(0.101913 -0.00415635 -1.29685e-23)
(0.102711 -0.00396264 2.63964e-23)
(0.10052 -0.00353838 5.03261e-25)
(0.101081 -0.00435048 2.67523e-23)
(0.101476 0.0011444 -2.39404e-23)
(0.101402 -0.00071583 0)
(0.100796 0.00210443 -2.31552e-22)
(0.100659 -0.00169183 0)
(0.115971 0.000325488 -3.4665e-24)
(0.116032 0.000301399 2.53966e-24)
(0.11606 -0.000229225 -1.32454e-23)
(0.116074 -0.000284955 -1.50088e-23)
(0.100095 0.00298132 -2.27223e-22)
(0.100066 -0.00269218 -5.42125e-23)
(0.100278 0.00445127 0)
(0.102227 0.00501328 -6.2395e-23)
(0.0996165 -0.0037071 -2.65955e-23)
(0.100217 -0.00454269 4.061e-23)
(0.101474 0.00512317 1.25023e-22)
(0.101373 0.000205473 0)
(0.103481 0.00462722 0)
(0.102845 0.00483074 -5.53591e-23)
(0.104831 0.00424517 0)
(0.104152 0.0044363 0)
(0.106135 0.00386855 0)
(0.105495 0.00405465 1.23505e-23)
(0.107327 0.00350862 0)
(0.106744 0.00368667 0)
(0.108415 0.00316484 0)
(0.107884 0.0033344 0)
(0.109399 0.00284077 0)
(0.10892 0.00300033 0)
(0.110283 0.00253736 -4.35105e-26)
(0.109853 0.00268642 0)
(0.111072 0.00225567 0)
(0.110689 0.00239377 0)
(0.111775 0.00199639 0)
(0.111434 0.00212321 0)
(0.112398 0.00175998 0)
(0.112096 0.00187535 0)
(0.112948 0.00154617 -4.85007e-29)
(0.112681 0.00165032 0)
(0.113433 0.0013542 4.35239e-29)
(0.113198 0.00144752 0)
(0.113859 0.00118282 0)
(0.113653 0.00126602 0)
(0.114234 0.00103089 3.59181e-29)
(0.114053 0.00110452 0)
(0.114563 0.000896965 0)
(0.114404 0.000961793 0)
(0.114851 0.000779385 0)
(0.114711 0.000836247 0)
(0.115103 0.000676487 0)
(0.114981 0.000726213 0)
(0.115324 0.000586651 0)
(0.115217 0.000630045 0)
(0.115518 0.000508254 0)
(0.115424 0.000546136 0)
(0.115688 0.00043968 0)
(0.115606 0.000472847 0)
(0.115838 0.000378656 3.68681e-24)
(0.115766 0.000407839 3.7747e-24)
(0.115907 0.00035085 -7.07052e-24)
(0.116048 0.000111989 -6.77502e-24)
(0.116072 0.000224235 0)
(0.116058 0.000168388 -6.84344e-24)
(0.116037 -1.84529e-06 0)
(0.11604 5.54099e-05 6.91435e-24)
(0.116041 -0.000116595 1.03212e-23)
(0.116037 -5.93813e-05 -3.48834e-24)
(0.116049 -0.000172817 -2.02881e-23)
(0.115909 -0.000410294 3.55527e-24)
(0.116034 -0.000360923 1.32126e-23)
(0.115973 -0.000385925 0)
(0.115767 -0.000465934 -7.3723e-24)
(0.11584 -0.000437278 7.39665e-24)
(0.115606 -0.000529004 0)
(0.115689 -0.000496732 0)
(0.115423 -0.000600153 -3.96526e-29)
(0.115517 -0.000563408 0)
(0.115214 -0.000681546 0)
(0.115322 -0.000639482 0)
(0.114976 -0.000774797 0)
(0.115099 -0.000726598 0)
(0.114705 -0.000881574 0)
(0.114845 -0.000826403 0)
(0.114395 -0.00100358 0)
(0.114555 -0.000940581 0)
(0.114041 -0.00114256 7.28426e-26)
(0.114223 -0.00107086 0)
(0.113638 -0.00130023 -7.49962e-26)
(0.113846 -0.00121897 0)
(0.113179 -0.00147837 0)
(0.113415 -0.00138666 0)
(0.112657 -0.00167846 0)
(0.112926 -0.00157559 0)
(0.112067 -0.00190183 0)
(0.112371 -0.00178722 0)
(0.1114 -0.00214927 0)
(0.111743 -0.00202251 0)
(0.110648 -0.00242123 0)
(0.111035 -0.00228221 0)
(0.109806 -0.00271746 0)
(0.110239 -0.00256638 0)
(0.108865 -0.00303711 -9.025e-26)
(0.109348 -0.00287447 0)
(0.107819 -0.00337858 9.24832e-26)
(0.108355 -0.00320527 0)
(0.106664 -0.00373951 -9.46922e-26)
(0.107256 -0.00355681 0)
(0.105395 -0.00411715 0)
(0.106044 -0.00392645 0)
(0.104011 -0.00450831 0)
(0.104717 -0.00431108 0)
(0.102521 -0.00491272 1.0224e-25)
(0.103281 -0.00470756 1.29609e-23)
(0.100919 -0.00533923 -6.7945e-23)
(0.101731 -0.00512281 0)
(0.0993303 -0.00474599 -4.0278e-23)
(0.10008 -0.00555952 -4.68511e-25)
(0.100557 0.00114662 7.49368e-23)
(0.100483 -0.000769849 0)
(0.11609 0.00027892 -1.3185e-23)
(0.116091 -0.000339759 -2.54597e-23)
(0.0997839 0.00208236 -3.9852e-23)
(0.099595 0.00390381 6.07049e-25)
(0.0991075 0.00296278 1.1447e-22)
(0.0997316 -0.00177583 0)
(0.0991256 -0.00281186 1.36308e-23)
(0.100481 0.00518896 -1.15242e-22)
(0.0995772 0.00516513 9.98853e-23)
(0.0988829 0.00414349 -9.82543e-23)
(0.0986812 -0.00386481 -4.09078e-23)
(0.0984116 -0.00493724 2.73498e-23)
(0.0992188 -0.00579197 2.67258e-23)
(0.100448 0.000181592 0)
(0.102849 0.00572146 3.47403e-24)
(0.101184 0.00605562 -2.92105e-25)
(0.102048 0.00588149 2.70181e-23)
(0.104156 0.00532105 2.66508e-23)
(0.103521 0.00552763 -2.67893e-23)
(0.105429 0.00489418 4.88216e-26)
(0.10479 0.00510896 0)
(0.106641 0.00447124 0)
(0.106046 0.00468122 0)
(0.10776 0.00406111 0)
(0.107213 0.00426441 0)
(0.108784 0.00366739 0)
(0.108284 0.0038619 0)
(0.109713 0.00329421 4.44569e-26)
(0.10926 0.00347808 0)
(0.11055 0.00294406 0)
(0.110143 0.00311614 0)
(0.1113 0.00261868 0)
(0.110935 0.00277821 0)
(0.111968 0.00231911 0)
(0.111644 0.00246564 0)
(0.112562 0.0020458 0)
(0.112274 0.00217919 0)
(0.113088 0.00179854 -3.90599e-26)
(0.112833 0.00191898 0)
(0.113552 0.00157649 5.07449e-29)
(0.113327 0.00168445 0)
(0.113961 0.00137835 0)
(0.113763 0.00147454 0)
(0.114321 0.00120262 7.18165e-26)
(0.114146 0.0012878 0)
(0.114637 0.0010476 0)
(0.114484 0.00112265 0)
(0.114914 0.00091143 0)
(0.11478 0.00097729 0)
(0.115157 0.000792216 0)
(0.115039 0.000849832 0)
(0.11537 0.000688104 0)
(0.115267 0.000738395 0)
(0.115558 0.000597297 0)
(0.115467 0.000641158 0)
(0.115722 0.000518045 6.01165e-26)
(0.115643 0.000556339 0)
(0.115867 0.000448258 -3.70292e-24)
(0.115797 0.000482207 0)
(0.115996 0.00038596 3.51968e-24)
(0.115934 0.000416102 0)
(0.11611 0.000331604 3.3552e-24)
(0.116054 0.000357958 -3.43255e-24)
(0.116127 0.000207548 6.6308e-24)
(0.116162 0.000307214 0)
(0.116143 0.000258707 9.87121e-24)
(0.116103 0.000103119 0)
(0.116113 0.000155465 0)
(0.116092 -3.91609e-06 0)
(0.116096 4.99003e-05 0)
(0.116097 -0.000111632 0)
(0.116093 -5.79221e-05 0)
(0.116115 -0.000217155 1.34992e-23)
(0.116104 -0.000164636 3.35376e-24)
(0.116144 -0.000320234 3.3182e-24)
(0.116128 -0.000269017 2.64504e-23)
(0.116057 -0.000419134 1.72457e-23)
(0.116163 -0.000370757 3.30256e-24)
(0.116112 -0.000393794 -6.71235e-24)
(0.115935 -0.000476085 3.54565e-24)
(0.115998 -0.000446624 -2.12552e-23)
(0.115798 -0.000540549 -3.39724e-29)
(0.115869 -0.000507251 0)
(0.115642 -0.000612956 0)
(0.115723 -0.000575551 0)
(0.115466 -0.000695753 -4.70846e-29)
(0.115557 -0.000652964 0)
(0.115264 -0.000790603 0)
(0.115368 -0.000741576 0)
(0.115034 -0.00089928 0)
(0.115153 -0.000843112 0)
(0.114772 -0.00102365 0)
(0.114908 -0.000959399 0)
(0.114474 -0.00116565 0)
(0.114628 -0.00109234 0)
(0.114133 -0.00132728 -1.45606e-25)
(0.114309 -0.00124391 0)
(0.113746 -0.00151053 0)
(0.113946 -0.0014161 0)
(0.113306 -0.00171735 0)
(0.113533 -0.0016109 0)
(0.112807 -0.00194944 0)
(0.113064 -0.00183016 0)
(0.112242 -0.00220824 0)
(0.112533 -0.00207547 0)
(0.111605 -0.00249465 -8.34133e-26)
(0.111933 -0.00234797 0)
(0.11089 -0.00280907 0)
(0.111258 -0.00264839 0)
(0.110089 -0.00315115 0)
(0.1105 -0.00297673 0)
(0.109196 -0.00351976 9.025e-26)
(0.109654 -0.00333227 0)
(0.108207 -0.00391288 -2.15404e-28)
(0.108714 -0.00371344 0)
(0.107116 -0.0043276 1.89144e-25)
(0.107675 -0.00411778 0)
(0.105922 -0.0047601 0)
(0.106532 -0.00454193 0)
(0.104623 -0.00520534 0)
(0.105285 -0.00498141 0)
(0.103221 -0.00565598 -3.46141e-28)
(0.103935 -0.00543059 0)
(0.101719 -0.00610839 0)
(0.102481 -0.00588212 0)
(0.100129 -0.00658291 -4.04664e-23)
(0.100934 -0.0063421 0)
(0.098332 -0.00601425 -4.17131e-25)
(0.099304 -0.00683112 6.87666e-23)
(0.0995713 0.0011318 0)
(0.100335 0.00614794 1.57007e-22)
(0.098775 0.00205542 2.72891e-23)
(0.116134 0.000383688 -3.34889e-24)
(0.116184 0.000356846 0)
(0.116194 -0.000302485 3.23168e-24)
(0.116212 -0.000348815 -6.40775e-24)
(0.0995346 -0.000820946 0)
(0.0987704 -0.00185484 0)
(0.0982127 0.0030975 0)
(0.0981563 -0.00292388 -1.34252e-23)
(0.0977143 -0.00402402 -2.70642e-23)
(0.0974634 -0.00513373 0)
(0.0974183 -0.00623332 6.96812e-23)
(0.0984541 -0.00707011 -5.54746e-23)
(0.0994824 0.000154952 0)
(0.102057 0.00684052 -1.29832e-26)
(0.0994038 0.00621683 4.94913e-23)
(0.100433 0.00716824 -1.76523e-22)
(0.101258 0.00701865 5.15072e-23)
(0.103571 0.00640797 -1.6743e-23)
(0.102824 0.00661547 -2.67879e-23)
(0.104865 0.00596733 0)
(0.104241 0.00619297 0)
(0.106066 0.00549948 -4.88172e-26)
(0.105469 0.00573436 0)
(0.107197 0.00503381 0)
(0.106642 0.00526578 0)
(0.10824 0.00457823 0)
(0.107729 0.00480436 0)
(0.109196 0.00413896 0)
(0.108729 0.00435622 0)
(0.110065 0.00372103 -4.44569e-26)
(0.109641 0.0039271 0)
(0.110851 0.00332797 0)
(0.110468 0.00352123 0)
(0.111556 0.00296222 0)
(0.111213 0.00314159 0)
(0.112187 0.00262519 0)
(0.11188 0.00279008 0)
(0.112748 0.00231748 0)
(0.112476 0.00246768 0)
(0.113247 0.00203892 3.894e-26)
(0.113005 0.00217462 0)
(0.113687 0.00178863 5.75842e-29)
(0.113474 0.00191033 0)
(0.114076 0.00156523 0)
(0.113888 0.00167368 0)
(0.114419 0.001367 -4.72729e-29)
(0.114253 0.0014631 0)
(0.114721 0.00119203 0)