/*--------------------------------*- C++ -*----------------------------------*\
  =========                 |
  \\      /  F ield         | OpenFOAM: The Open Source CFD Toolbox
   \\    /   O peration     | Website:  https://openfoam.org
    \\  /    A nd           | Version:  10
     \\/     M anipulation  |
\*---------------------------------------------------------------------------*/
FoamFile
{
    format      ascii;
    class       volVectorField;
    location    "21";
    object      U;
}
// * * * * * * * * * * * * * * * * * * * * * * * * * * * * * * * * * * * * * //

dimensions      [0 1 -1 0 0 0 0];

internalField   nonuniform List<vector> 
6397
(
(4.33742 -0.797549 8.2038e-20)
(4.41342 -0.721611 -3.44781e-19)
(3.55077 0.931921 0)
(3.42998 0.687959 6.27554e-21)
(3.175 0.492288 3.1319e-20)
(3.25104 0.819227 5.67122e-20)
(3.59026 -2.58403 -1.60228e-20)
(1.88117 -4.24808 8.77247e-19)
(-1.1324 -0.360769 6.05154e-19)
(-1.86495 -0.355789 -2.94906e-19)
(1.73249 2.44141 1.49013e-18)
(3.48111 3.19394 -2.12612e-19)
(3.71483 0.104321 -2.20593e-20)
(3.71146 0.0926986 -8.15404e-21)
(2.56029 0.112166 1.39165e-20)
(-0.721836 -0.779667 -1.08244e-18)
(-0.171061 -0.716862 -4.18431e-19)
(-1.40518 0.39241 6.51493e-19)
(1.30584 -0.44491 7.89897e-19)
(2.15069 -1.006 -2.40265e-18)
(1.79158 -0.494086 -1.19696e-18)
(3.06628 -0.0686758 -4.32827e-18)
(1.30809 0.12613 1.98971e-19)
(4.66749 0.631947 -2.88099e-18)
(4.08301 0.131889 0)
(4.34272 0.0774222 -4.43504e-21)
(4.45313 0.129422 -3.40565e-21)
(2.93777 2.36309 1.66311e-19)
(2.82833 2.16601 -4.70942e-20)
(2.98376 2.51153 1.0157e-19)
(2.93993 2.4553 -1.32302e-19)
(3.51412 0.064935 1.09304e-19)
(3.5973 0.367278 6.83048e-20)
(3.39727 0.415342 -2.34121e-19)
(3.92861 -0.390692 3.05333e-20)
(3.88919 -0.163277 0)
(3.77355 -0.19801 -3.41793e-20)
(3.67356 0.0466114 -6.93279e-20)
(4.17539 -0.406685 5.68327e-20)
(4.27777 -0.498079 -2.56745e-20)
(4.13659 -0.540433 0)
(4.01517 -0.281445 0)
(2.95808 2.50719 -4.08961e-20)
(2.97151 1.44207 2.20559e-20)
(3.13588 1.70848 -1.3236e-20)
(3.35787 1.09306 8.51386e-20)
(3.05425 0.956095 3.56256e-20)
(3.16479 1.2715 -9.82753e-20)
(4.653 -0.616522 3.81025e-20)
(4.53441 -0.447788 -6.38571e-21)
(4.586 -0.358296 7.03539e-20)
(4.45138 -0.24826 -2.25278e-20)
(4.47634 -0.324988 -1.71533e-19)
(4.2195 0.834953 -1.56055e-19)
(3.46996 0.476182 1.0109e-19)
(4.03525 0.0539766 3.48579e-20)
(4.05188 0.0675424 3.40945e-20)
(4.31544 0.0470756 8.39238e-21)
(2.29301 -1.24267 -1.34671e-19)
(2.21376 -0.527705 1.35712e-19)
(2.45398 -1.8331 1.0824e-19)
(2.64441 -2.27436 -1.06409e-19)
(2.82674 -2.5802 -9.55045e-20)
(2.97489 -2.76679 9.38995e-20)
(3.08435 -2.85497 0)
(3.13679 -2.85963 1.1864e-19)
(3.13314 -2.77329 -1.24268e-19)
(3.07255 -2.53028 0)
(2.28072 -0.56395 -7.64941e-20)
(2.22128 0.224895 -3.28005e-21)
(2.2796 0.108885 7.08468e-20)
(2.37463 -1.2001 0)
(2.5319 -1.7436 0)
(2.71725 -2.16 0)
(2.88669 -2.46049 -2.33026e-22)
(3.0558 -2.66163 4.16811e-23)
(3.18549 -2.78326 0)
(3.27102 -2.83823 -1.3178e-23)
(3.31159 -2.79343 0)
(3.29913 -2.57182 0)
(2.37646 0.748589 -7.4747e-20)
(2.33404 0.915472 7.10794e-21)
(3.00117 -2.043 0)
(3.28248 -2.05325 0)
(2.53352 1.28947 5.62934e-21)
(2.49028 1.47631 0)
(2.92686 -1.25435 0)
(3.26855 -1.21 0)
(2.72259 1.71418 1.26767e-19)
(2.67291 1.88344 -2.7672e-20)
(2.91179 -0.245894 0)
(3.28704 -0.120495 0)
(2.8957 2.01258 -1.00021e-19)
(3.02618 2.23378 -4.89026e-20)
(2.9505 0.818108 0)
(3.34626 1.00134 3.57823e-20)
(2.80124 1.50986 0)
(3.13557 2.10989 7.40895e-20)
(2.96256 1.84386 4.5245e-21)
(2.49724 0.579406 -3.33424e-20)
(2.63408 1.08672 0)
(2.4322 -0.593269 -1.69019e-20)
(2.43464 0.00820551 3.26745e-20)
(2.67771 -1.62856 1.91404e-20)
(2.53544 -1.14283 1.48877e-20)
(3.03914 -2.3265 2.33378e-22)
(2.85807 -2.01956 -1.97963e-20)
(3.3895 -2.68269 -1.16626e-20)
(3.21632 -2.54047 -3.65136e-20)
(3.61149 -2.73183 -5.37016e-20)
(3.50676 -2.76107 1.00513e-19)
(3.70548 -1.96303 0)
(3.64782 -2.49971 0)
(3.82342 0.0405147 0)
(3.75273 -1.07198 0)
(3.87742 1.16526 -7.33857e-20)
(2.74397 -1.26768 -1.67171e-19)
(2.70984 0.663363 -8.32398e-20)
(2.69058 -0.344969 1.65216e-19)
(2.95748 -2.43291 1.35085e-19)
(2.85228 -1.97341 -1.32055e-19)
(3.08024 -2.82463 8.15917e-22)
(3.04736 -2.68918 3.6737e-21)
(2.98077 -2.81274 0)
(3.05975 -2.86301 0)
(2.68789 -2.3748 1.48254e-19)
(2.86156 -2.65899 1.59638e-20)
(2.38194 -1.28286 3.52492e-20)
(2.51288 -1.91724 -1.46774e-19)
(2.33481 0.333387 9.62552e-20)
(2.31203 -0.493541 -9.74396e-21)
(2.57366 1.68648 -1.38865e-19)
(2.42142 1.10207 -8.88672e-20)
(2.86434 2.32811 0)
(2.72398 2.09113 1.45795e-19)
(3.11084 2.40897 -6.98538e-20)
(2.99457 2.48857 -2.59348e-21)
(3.26528 2.29016 1.92676e-20)
(3.95975 2.10349 -9.21941e-20)
(3.44288 1.93791 2.46482e-20)
(2.61566 0.556396 -7.34694e-22)
(2.82615 1.57292 8.34697e-20)
(2.72648 1.41096 0)
(3.98027 2.73952 6.01443e-20)
(4.47349 2.19465 -1.14816e-19)
(4.43383 2.77208 1.14155e-19)
(3.02963 2.52758 4.59197e-20)
(3.26678 1.97028 -2.69538e-20)
(3.43374 2.19389 -1.84205e-20)
(2.98339 2.47366 4.015e-20)
(3.06248 1.76494 6.74803e-21)
(2.96585 1.34592 0)
(3.10439 1.69994 1.54129e-21)
(2.69625 0.46493 -1.49698e-21)
(2.79314 0.9371 0)
(2.65234 -0.561071 1.47171e-22)
(2.61835 -0.0478221 -1.64309e-21)
(2.86819 -1.48782 0)
(2.71672 -1.04674 1.57876e-21)
(3.22304 -2.13585 0)
(3.00747 -1.85157 8.11402e-22)
(3.62032 -2.50252 0)
(3.40543 -2.33923 2.9589e-21)
(3.94998 -2.61922 -2.03943e-23)
(3.7788 -2.61659 4.88127e-21)
(4.22012 -1.85897 6.51526e-21)
(4.07875 -2.40661 -1.06712e-20)
(4.41634 0.162405 -4.46794e-21)
(4.33299 -0.961356 -4.65631e-21)
(4.45442 1.27828 3.71735e-20)
(2.66055 -1.15851 1.37457e-21)
(2.60438 -0.344204 2.25279e-21)
(2.93854 -2.27853 -1.0472e-22)
(2.79727 -1.81578 0)
(3.13164 -2.78039 0)
(3.06594 -2.5863 -1.11613e-21)
(3.1174 -2.88403 0)
(3.15608 -2.87576 0)
(2.89039 -2.49993 -1.81665e-22)
(3.01913 -2.76619 -1.62043e-20)
(2.67194 -1.29878 -2.58994e-20)
(2.75431 -1.99893 0)
(2.62479 0.479604 -1.14123e-19)
(2.60597 -0.431097 0)
(2.77013 1.8852 5.2779e-21)
(2.66311 1.2803 1.1437e-19)
(2.98942 2.44794 1.26018e-22)
(2.86868 2.26174 1.71684e-20)
(3.01671 2.5213 -5.02505e-20)
(3.1257 2.51432 1.25708e-20)
(3.01022 2.52722 0)
(3.52273 2.35685 1.56457e-20)
(3.30474 2.42992 -1.63977e-20)
(2.89643 2.08471 0)
(2.98324 2.28939 0)
(3.52038 2.61481 -2.25607e-20)
(4.9524 2.25091 -1.78256e-20)
(4.84658 2.75464 0)
(4.3598 3.01599 -9.71233e-21)
(3.9889 3.05324 4.73982e-21)
(2.91332 1.87744 0)
(3.10466 2.50103 0)
(3.15915 2.26772 -2.60524e-20)
(2.90711 2.44143 4.32836e-20)
(2.89857 2.36573 0)
(3.66423 2.41294 -4.02218e-20)
(3.77241 2.24999 -1.93796e-22)
(3.94196 2.3223 7.73273e-20)
(3.09164 2.37677 0)
(3.18078 2.46905 -4.24149e-20)
(3.19441 2.47482 0)
(3.43652 1.82758 -1.60772e-21)
(3.6504 2.04495 0)
(3.11175 1.20027 -1.33753e-22)
(3.28627 1.53728 3.46951e-21)
(2.88617 0.372361 1.05304e-21)
(2.97223 0.807379 0)
(2.86622 -0.530447 -3.54332e-23)
(2.83493 -0.0683572 1.07038e-21)
(3.05796 -1.3601 2.7784e-23)
(2.91535 -0.960029 6.75286e-22)
(3.43437 -1.94235 6.84895e-22)
(3.20717 -1.67996 0)
(3.87247 -2.32391 0)
(3.64117 -2.15037 -6.97883e-22)
(4.29348 -2.44245 -3.66186e-21)
(4.07835 -2.44047 1.22154e-21)
(4.71256 -1.70703 0)
(4.49781 -2.23563 -6.63559e-22)
(4.97663 0.275849 -7.33381e-21)
(4.87483 -0.83398 1.66094e-20)
(4.99619 1.37939 3.03089e-20)
(2.63503 0.497674 -7.81295e-21)
(2.73581 1.26777 2.31218e-23)
(2.71141 -1.05794 -4.0999e-21)
(2.63207 -0.313931 1.26827e-20)
(3.00913 -2.13733 -8.5592e-23)
(2.84979 -1.66807 -7.29186e-21)
(3.27309 -2.73218 0)
(3.16152 -2.48344 8.69928e-21)
(3.35375 -2.95382 0)
(3.3423 -2.88752 0)
(3.2495 -2.62359 3.72435e-22)
(3.31241 -2.88441 0)
(3.12035 -1.3928 0)
(3.17786 -2.12396 0)
(3.05067 0.466889 0)
(3.06106 -0.495011 0)
(3.10673 1.95908 4.79442e-20)
(3.0541 1.32562 0)
(3.19578 2.49049 -1.24769e-22)
(3.1373 2.32705 -4.89862e-20)
(3.17841 2.52048 4.80152e-20)
(3.14525 2.52651 2.37889e-20)
(2.9926 2.50194 -4.05837e-20)
(3.38162 2.48254 4.02377e-20)
(4.6935 2.94491 4.98904e-20)
(3.17236 2.71908 0)
(3.57889 2.97939 2.78647e-20)
(3.43016 2.43723 2.75594e-20)
(3.32657 2.67594 0)
(4.23574 2.99845 7.05864e-21)
(3.94179 3.08564 1.92406e-20)
(3.76623 2.3617 3.39496e-21)
(4.13359 2.27325 2.84705e-21)
(2.80039 2.3075 4.24486e-20)
(2.76551 2.20519 3.27016e-20)
(3.37998 2.38138 3.80643e-20)
(3.23572 2.26683 0)
(4.04609 2.08841 -5.39361e-21)
(4.22777 2.16216 -1.05569e-20)
(4.52249 2.88024 -5.00213e-20)
(4.33241 2.67875 -3.72038e-21)
(4.09065 2.83552 -2.68656e-20)
(2.97758 2.24269 5.68564e-21)
(3.3258 2.89867 0)
(3.60735 1.68562 -2.10309e-21)
(3.84718 1.88852 5.54335e-21)
(3.26113 1.06929 5.07098e-21)
(3.47178 1.38431 -1.04075e-20)
(3.06839 0.308519 0)
(3.19716 0.706249 0)
(3.04737 -0.499032 -1.51047e-23)
(3.0677 -0.0837392 2.85677e-27)
(3.24235 -1.21407 -2.75349e-23)
(3.1278 -0.872324 0)
(3.64038 -1.71413 0)
(3.42659 -1.48045 2.3904e-27)
(4.12725 -2.07988 0)
(3.8798 -1.90604 0)
(4.61755 -2.22956 0)
(4.37267 -2.21045 0)
(5.12234 -1.52408 0)
(4.87074 -2.03328 0)
(5.42309 0.345901 0)
(5.31749 -0.706119 0)
(5.36057 2.19815 -1.72184e-20)
(5.42061 1.39576 0)
(4.97843 2.77839 0)
(5.20288 2.6387 2.96089e-21)
(4.46364 2.41244 0)
(4.74768 2.6593 -3.70272e-21)
(2.99511 1.67012 -3.27182e-21)
(3.53319 2.15926 -5.15458e-21)
(3.23893 2.00616 3.28579e-21)
(2.73745 0.46313 1.56149e-21)
(2.82167 1.13552 -2.31139e-23)
(2.84136 -0.940595 -1.38077e-21)
(2.7427 -0.254132 -1.84812e-21)
(3.17381 -2.00375 -2.46616e-23)
(2.99958 -1.52784 0)
(3.48474 -2.64816 0)
(3.34163 -2.36806 0)
(3.66464 -2.95556 0)
(3.59468 -2.84657 0)
(3.71154 -2.67862 3.10032e-24)
(3.69668 -2.92241 0)
(3.69027 -1.45525 0)
(3.69937 -2.19428 0)
(3.63918 0.454893 0)
(3.65359 -0.53399 0)
(3.56719 1.98181 3.16049e-20)
(3.59248 1.327 -3.28807e-20)
(3.49853 2.48405 1.42392e-20)
(3.52462 2.35303 -2.74541e-21)
(3.43713 2.45812 -5.67451e-20)
(3.13034 2.43102 -3.63627e-20)
(2.92063 2.38578 -4.59089e-20)
(3.42079 2.41947 0)
(3.70211 2.46788 0)
(3.81774 2.22102 4.30308e-21)
(4.1282 2.44361 9.09783e-21)
(4.19196 2.13522 0)
(3.34688 2.875 0)
(3.59872 3.07748 0)
(4.49081 2.11944 0)
(2.82763 2.05337 -4.96095e-20)
(3.62115 2.22217 2.17042e-20)
(3.4561 2.08931 0)
(3.53621 2.69683 2.62687e-21)
(3.87758 2.95585 -2.61643e-20)
(4.04976 2.33055 6.07325e-21)
(3.92345 2.52018 -2.38756e-21)
(3.91955 2.62852 3.08435e-20)
(3.88846 2.25379 -6.05833e-21)
(3.87067 1.88047 0)
(3.11691 2.10652 4.36613e-20)
(3.43635 3.02284 0)
(4.2958 1.90539 1.24342e-21)
(4.79754 1.91995 -2.21454e-20)
(4.48779 1.98251 -4.65229e-20)
(3.81827 1.54076 8.18683e-21)
(4.03052 1.7464 -6.72448e-21)
(3.4495 0.953879 0)
(3.66495 1.25053 -5.52888e-21)
(3.2321 0.256964 -3.50445e-27)
(3.40481 0.60778 3.6439e-27)
(3.20325 -0.454872 -1.02464e-23)
(3.2674 -0.102286 0)
(3.41399 -1.05239 0)
(3.33172 -0.770238 0)
(3.81035 -1.49232 4.23818e-23)
(3.6269 -1.28549 -2.3905e-27)
(4.30584 -1.84388 -1.03753e-27)
(4.073 -1.67579 1.07739e-27)
(4.859 -1.96286 0)
(4.58591 -1.96551 0)
(5.42484 -1.31025 8.37141e-23)
(5.16391 -1.77169 0)
(5.71813 0.384884 -1.15813e-22)
(5.63263 -0.568956 0)
(5.52002 2.05392 -4.41875e-21)
(5.66921 1.33738 0)
(5.02759 2.4612 6.85442e-21)
(5.30197 2.41161 6.38335e-21)
(4.40531 2.04582 -4.32589e-21)
(4.72898 2.2994 -3.11587e-21)
(3.82446 1.54339 -2.10456e-20)
(4.11844 1.77649 4.31878e-21)
(3.64128 1.87859 1.38102e-21)
(4.14344 2.11063 5.15274e-23)
(3.91318 1.96572 -1.76096e-21)
(3.11085 1.47026 2.08878e-22)
(3.34877 1.75193 -2.64279e-22)
(2.88588 0.425354 4.18868e-22)
(2.95511 1.01322 -1.4366e-22)
(3.01336 -0.825861 0)
(2.90739 -0.206939 -1.54928e-22)
(3.36414 -1.83692 -1.23531e-23)
(3.17422 -1.37392 -1.36127e-28)
(3.74193 -2.52508 0)
(3.55651 -2.21863 0)
(4.04023 -2.90851 -8.71408e-23)
(3.90016 -2.76408 0)
(4.24122 -2.69076 -1.98282e-22)
(4.14212 -2.90316 0)
(4.33643 -1.50079 0)
(4.29274 -2.21945 0)
(4.27216 0.389048 0)
(4.31207 -0.582128 0)
(4.09482 1.91291 0)
(4.18662 1.26456 0)
(3.86436 2.38584 0)
(3.97574 2.26651 1.46639e-21)
(3.75311 2.34323 -1.63249e-20)
(4.23753 2.5149 -7.24922e-21)
(4.34111 2.27854 0)
(3.55059 1.68834 -4.16296e-21)
(3.58303 1.38281 2.59306e-20)
(2.95161 1.90642 0)
(3.29298 1.90967 8.04918e-23)
(2.68936 1.77265 -2.584e-20)
(2.81329 1.61967 5.72945e-21)
(2.70969 2.02152 2.84786e-20)
(2.64601 1.9364 -6.1856e-21)
(3.12219 2.17 -2.21931e-21)
(2.86517 2.11624 -2.56093e-20)
(3.85095 2.15459 -7.41745e-20)
(3.46517 2.1951 7.36634e-21)
(4.61333 1.94963 0)
(4.23741 2.07584 6.79154e-20)
(4.94919 1.79332 4.85715e-20)
(3.50801 2.85187 -2.6486e-21)
(3.59682 2.97928 -1.1308e-26)
(3.70183 2.70858 2.39746e-21)
(3.76334 2.7852 0)
(4.06597 2.67588 0)
(3.72601 2.47403 0)
(4.59503 2.44191 1.59217e-21)
(4.43548 2.72361 1.77686e-22)
(3.58412 2.10183 -3.454e-21)
(3.33316 1.2124 -5.34557e-21)
(3.22985 1.45404 -1.15255e-20)
(5.02729 1.71283 2.33089e-20)
(5.22926 1.61013 -3.93555e-20)
(3.51581 2.97156 -1.18901e-26)
(4.50009 1.69255 4.98889e-21)
(4.71081 1.7997 1.65434e-21)
(4.02216 1.3418 6.06019e-21)
(4.20856 1.58613 0)
(3.63686 0.804263 -3.57375e-27)
(3.81779 1.10604 -6.82658e-21)
(3.39681 0.185355 0)
(3.53969 0.501171 0)
(3.37263 -0.417295 6.04964e-23)
(3.41636 -0.12486 0)
(3.56736 -0.914404 0)
(3.49853 -0.684438 0)
(3.92029 -1.27633 -9.53409e-23)
(3.76987 -1.11207 0)
(4.37197 -1.57515 -3.51453e-23)
(4.16578 -1.44111 0)
(4.97493 -1.66367 0)
(4.67696 -1.68028 0)
(5.59971 -1.09393 -4.77683e-23)
(5.32184 -1.5064 0)
(5.89702 0.389337 6.0204e-23)
(5.82645 -0.446532 0)
(5.61133 1.86347 3.19381e-23)
(5.82216 1.2255 -4.16104e-27)
(5.02589 2.18208 -3.09728e-23)
(5.33557 2.17221 0)
(4.40078 1.74206 -1.20381e-21)
(4.70016 1.99834 -3.0902e-21)
(3.89237 1.26462 1.67439e-20)
(4.13765 1.4758 1.83794e-20)
(3.4261 0.930181 -3.24569e-20)
(3.6618 1.10829 -1.16103e-21)
(4.15028 1.93344 1.01855e-21)
(4.69759 2.20557 -1.75683e-21)
(4.39544 2.09367 0)
(3.69111 1.63091 1.57336e-22)
(3.92945 1.76225 -1.88057e-23)
(3.21688 1.28446 1.25267e-22)
(3.43993 1.50732 8.52305e-23)
(3.03439 0.421588 -1.36243e-23)
(3.0799 0.92204 7.38199e-23)
(3.19946 -0.698778 0)
(3.07742 -0.138794 0)
(3.56805 -1.65335 -4.33771e-24)
(3.36579 -1.20962 2.21906e-27)
(3.99087 -2.34201 8.23079e-28)
(3.76944 -2.02585 -8.71032e-28)
(4.39937 -2.76384 2.17515e-23)
(4.18634 -2.59265 0)
(4.74997 -2.60226 0)
(4.57374 -2.78503 0)
(4.95534 -1.49667 2.46353e-22)
(4.87873 -2.17419 0)
(4.91617 0.313876 0)
(4.97995 -0.626265 0)
(4.63315 1.77678 1.77368e-22)
(4.81354 1.1597 0)
(4.24901 2.23483 -1.67789e-22)
(4.45878 2.13116 1.26482e-21)
(3.87534 2.03396 -9.75171e-21)
(4.08599 2.16939 0)
(3.47985 1.71819 1.8019e-20)
(3.69011 1.89307 3.28049e-21)
(3.32302 1.51274 -4.37704e-21)
(2.61412 1.38614 0)
(2.8487 1.10675 1.52391e-21)
(2.70164 1.27319 -7.52272e-21)
(2.65475 1.5743 0)
(2.59164 1.49448 0)
(3.08177 1.73789 -4.13222e-20)
(2.811 1.67692 -8.78048e-27)
(3.91112 1.78416 1.81648e-20)
(3.45408 1.79916 7.34684e-20)
(4.84684 1.61367 0)
(4.40045 1.72512 -6.18116e-20)
(4.89577 2.59052 -6.11335e-23)
(5.03306 2.3036 1.57192e-21)
(3.12608 1.01638 3.03837e-20)
(3.22429 0.69425 6.99513e-20)
(5.45068 1.32129 -5.35143e-20)
(5.19383 1.47339 1.96466e-20)
(3.62183 2.80141 -2.09327e-25)
(3.57143 2.84085 0)
(3.80315 2.81275 0)
(3.62601 2.68263 -2.09793e-25)
(4.18816 2.89267 -4.90923e-23)
(3.48168 2.36755 -4.05794e-21)
(4.66992 2.90317 9.94971e-23)
(3.24015 1.90167 0)
(5.39828 2.38359 3.31451e-20)
(5.23865 2.72093 -8.14123e-23)
(2.94649 1.1812 2.02906e-20)
(3.05978 0.336408 -7.50609e-20)
(2.92734 0.673316 -1.40213e-20)
(5.40874 1.91884 -9.72908e-21)
(5.82824 2.30853 -3.33712e-20)
(5.86468 1.84846 -2.62075e-20)
(2.97364 -0.102939 -4.58174e-20)
(3.04941 0.297426 9.44461e-20)
(3.00304 0.0530158 1.59703e-20)
(5.60014 1.14306 -1.49909e-20)
(5.55141 0.99154 0)
(5.70316 0.902587 1.77951e-20)
(3.53927 2.88594 -1.20057e-26)
(5.15863 1.49231 2.07345e-22)
(5.38898 1.42647 -1.09599e-20)
(4.61649 1.46058 -6.38313e-21)
(4.85682 1.58569 -2.04913e-22)
(4.13998 1.12015 0)
(4.33178 1.36627 0)
(3.76096 0.645349 0)
(3.91463 0.925475 0)
(3.54443 0.129522 0)
(3.63877 0.398958 0)
(3.52255 -0.359459 0)
(3.5385 -0.128837 0)
(3.68711 -0.760175 -8.1933e-27)
(3.62041 -0.59136 8.51354e-27)
(3.98416 -1.07551 5.29519e-23)
(3.86129 -0.945614 7.61895e-27)
(4.40856 -1.3225 3.51452e-23)
(4.20527 -1.23913 0)
(5.02012 -1.35261 0)
(4.72425 -1.39785 0)
(5.60676 -0.861565 -3.95085e-23)
(5.3524 -1.21942 0)
(5.88574 0.393712 5.06328e-23)
(5.81524 -0.311487 0)
(5.65029 1.59939 -3.19389e-23)
(5.84053 1.08091 0)
(5.04202 1.85291 4.13068e-23)
(5.37342 1.86089 1.38676e-27)
(4.37105 1.44255 6.09988e-21)
(4.69537 1.69078 0)
(3.80164 0.990168 -8.77973e-21)
(4.06896 1.20282 -7.6988e-21)
(3.33559 0.687337 3.76395e-20)
(3.54969 0.837745 -2.45071e-20)
(3.16019 0.515552 -8.34664e-20)
(4.6931 1.8184 -2.73515e-21)
(5.02497 1.89028 1.19381e-20)
(4.10532 1.66067 8.82528e-24)
(4.37718 1.75443 1.59109e-22)
(3.69616 1.39998 2.48799e-21)
(3.8964 1.52753 -2.63582e-21)
(3.30703 1.11396 1.77655e-23)
(3.48981 1.29006 -8.65689e-23)
(3.15714 0.420983 1.36117e-23)
(3.18958 0.824352 8.54387e-27)
(3.34128 -0.546577 0)
(3.20465 -0.0518107 0)
(3.74744 -1.44868 7.74769e-27)
(3.51691 -1.01881 -8.19701e-27)
(4.21653 -2.12736 0)
(3.96563 -1.81515 0)
(4.70293 -2.55049 2.47535e-23)
(4.4507 -2.37882 0)
(5.17214 -2.43871 0)
(4.95183 -2.58748 0)
(5.49054 -1.45881 -2.46357e-22)
(5.38087 -2.06684 0)
(5.48016 0.219694 0)
(5.55853 -0.64984 0)
(5.11722 1.58319 -3.95657e-23)
(5.35216 1.00592 -4.73296e-26)
(4.60886 2.01756 1.63027e-22)
(4.88448 1.91979 0)
(4.13003 1.82252 0)
(4.38391 1.96107 3.27141e-24)
(3.67668 1.51905 -1.61529e-20)
(3.92374 1.66867 -1.66002e-23)
(3.51797 1.31876 -2.82884e-20)
(2.80233 0.702006 2.27929e-20)
(2.96527 0.590594 -1.51617e-20)
(2.5622 0.853412 0)
(2.6622 0.807065 0)
(2.58447 1.0032 -3.47993e-24)
(2.52821 0.925696 -5.71263e-27)
(3.06062 1.15674 -5.0765e-24)
(2.75438 1.09145 -9.83401e-27)
(3.93716 1.24758 -6.08879e-21)
(3.46589 1.22896 -2.37637e-26)
(4.87154 1.17407 -4.42346e-20)
(4.42034 1.23381 2.87047e-20)
(5.26414 1.08803 -4.06018e-21)
(3.67906 2.84791 3.89758e-25)
(3.51665 2.76819 -5.78935e-26)
(3.87334 3.00578 0)
(3.4094 2.64146 2.45686e-25)
(4.32117 3.07089 9.8276e-23)
(3.20052 2.21145 4.06575e-21)
(4.9029 3.01209 -6.77778e-22)
(2.87653 1.58537 -5.76051e-22)
(5.58614 2.63401 -1.78925e-21)
(2.74415 0.761944 0)
(6.31275 1.59221 2.89655e-20)
(6.23072 1.9106 0)
(2.74691 0.216167 -1.50711e-20)
(3.04734 -0.197046 8.19536e-20)
(3.02647 -0.613362 4.14641e-20)
(6.15252 1.17522 -1.96839e-21)
(6.60275 0.966109 7.18862e-20)
(6.45465 0.765671 8.96861e-23)
(3.13282 -0.443956 -4.8462e-21)
(3.34746 -0.425958 9.34336e-20)
(3.41124 -0.704872 8.58854e-20)
(5.6394 0.530088 0)
(5.77657 0.510835 4.78251e-20)
(5.60991 0.946582 -1.41638e-20)
(5.76044 0.785687 1.48806e-20)
(3.51743 2.87199 7.68545e-26)
(5.17066 1.22704 -3.90779e-22)
(5.42553 1.24481 1.11011e-20)
(4.64398 1.18072 1.49192e-21)
(4.91193 1.3647 -2.5172e-21)
(4.18283 0.882394 -3.09347e-23)
(4.40226 1.14573 2.86494e-26)
(3.83713 0.479955 0)
(3.99769 0.756691 0)
(3.6502 0.051711 0)
(3.73985 0.309399 0)
(3.64194 -0.345137 7.38142e-23)
(3.64807 -0.14161 0)
(3.80806 -0.671964 0)
(3.73909 -0.53511 0)
(4.07936 -0.930618 0)
(3.96612 -0.846141 0)
(4.48325 -1.05203 0)
(4.29178 -1.05277 0)
(5.0091 -1.02803 0)
(4.76148 -1.09198 0)
(5.53421 -0.644651 3.56308e-24)
(5.30203 -0.936906 0)
(5.71106 0.391883 3.56394e-23)
(5.69994 -0.199769 4.07218e-27)
(5.4323 1.35482 0)
(5.61856 0.952412 0)
(4.89089 1.48018 1.96498e-23)
(5.19061 1.5303 -1.38677e-27)
(4.24487 1.08611 5.42826e-23)
(4.56886 1.31913 1.42827e-26)
(3.71926 0.72747 9.65407e-21)
(3.95158 0.898034 7.96282e-24)
(3.43846 0.525733 -5.23767e-21)
(3.5494 0.63324 -4.60926e-21)
(3.34539 0.177459 -3.68145e-20)
(3.37202 0.395218 2.50818e-20)
(3.33238 -0.109417 -1.04326e-19)
(5.3827 1.52024 -1.0852e-21)
(5.77067 1.39156 2.39963e-22)
(4.68463 1.52737 2.74453e-24)
(5.00595 1.56394 0)
(4.12739 1.43392 -8.72204e-24)
(4.38708 1.48077 -1.61142e-22)
(3.75839 1.22863 0)
(3.91727 1.34793 0)
(3.41176 0.984611 4.8209e-24)
(3.58262 1.11759 0)
(3.26298 0.444142 0)
(3.28625 0.772079 0)
(3.44651 -0.384915 0)
(3.31117 0.0445395 0)
(3.85102 -1.20264 -4.35918e-23)
(3.61986 -0.808198 0)
(4.36387 -1.85953 0)
(4.09743 -1.55776 0)
(4.92555 -2.28519 4.06411e-23)
(4.6516 -2.11307 0)
(5.48746 -2.22997 7.90078e-23)
(5.23581 -2.34003 0)
(5.88736 -1.37178 1.38708e-22)
(5.7423 -1.90972 -7.24721e-27)
(5.90788 0.121015 1.47743e-22)
(5.97027 -0.651968 9.33944e-26)
(5.49463 1.34945 -4.38601e-23)
(5.74866 0.828605 0)
(4.87506 1.74974 0)
(5.19301 1.64944 0)
(4.32774 1.57626 0)
(4.57805 1.70435 -3.2759e-24)
(3.87188 1.29993 2.04237e-20)
(4.08875 1.43378 1.62978e-23)
(3.67671 1.13519 -1.76806e-20)
(3.14749 0.141118 0)
(3.32627 0.0846547 1.02283e-19)
(2.79041 0.212275 -9.13069e-21)
(2.97195 0.190103 -6.28271e-21)
(2.49333 0.255274 2.28348e-24)
(2.61454 0.242841 2.79276e-27)
(2.49453 0.365685 6.95371e-24)
(2.44229 0.312047 1.15954e-26)
(2.98343 0.476393 -2.02651e-26)
(2.66585 0.425269 2.0605e-26)
(3.9264 0.57333 -1.30021e-20)
(3.41185 0.538934 2.52368e-26)
(4.96708 0.582659 4.40534e-20)
(4.46739 0.59404 1.32487e-20)
(5.3644 0.555557 3.67646e-20)
(3.6631 2.99338 0)
(3.39982 2.78175 2.17235e-26)
(3.9096 3.1729 0)
(3.14996 2.54743 -1.20478e-24)
(4.42686 3.1244 -1.30982e-22)
(2.86314 1.88756 -4.37557e-24)
(5.10595 2.84676 4.96916e-22)
(2.54505 1.09932 7.52742e-25)
(5.87441 2.08907 2.17115e-21)
(2.63313 0.210003 -2.94769e-23)
(6.42524 1.0173 0)
(2.62458 -0.375727 -1.61312e-20)
(6.51398 0.0706671 1.29011e-20)
(6.53565 -0.11721 -1.322e-19)
(3.26775 -0.999756 1.24485e-21)
(3.53599 -0.88558 -9.13428e-20)
(3.22639 -0.736203 -7.95091e-20)
(5.79153 0.479585 -3.26129e-20)
(3.4319 2.94995 -1.80418e-25)
(5.52525 0.76103 -4.34025e-21)
(5.74729 0.221415 -4.28347e-20)
(5.70299 0.72777 1.75952e-20)
(5.09889 1.00977 3.54792e-22)
(5.3873 1.05097 3.94267e-21)
(4.60601 0.960968 -1.49016e-21)
(4.90595 1.10584 2.78609e-21)
(4.17971 0.709272 -7.72921e-21)
(4.42235 0.901548 6.92301e-21)
(3.86938 0.376636 -7.03136e-23)
(4.03856 0.567751 3.49285e-26)
(3.71992 0.0359487 -7.36694e-23)
(3.80013 0.203575 -3.69762e-26)
(3.75777 -0.26042 1.40113e-24)
(3.7387 -0.135787 0)
(3.93306 -0.51472 0)
(3.84563 -0.420744 0)
(4.20267 -0.721919 -7.16352e-23)
(4.05574 -0.659561 0)
(4.58156 -0.827888 3.20807e-26)
(4.37688 -0.808459 -3.33119e-26)
(5.00958 -0.820828 2.747e-26)
(4.78294 -0.855198 -2.85146e-26)
(5.42141 -0.498197 -2.24803e-26)
(5.22076 -0.713672 2.33268e-26)
(5.50277 0.30884 -8.41595e-23)
(5.51705 -0.142395 2.20872e-26)
(5.11791 1.1402 6.1451e-23)
(5.3443 0.798248 2.61752e-26)
(4.59479 1.20169 1.38483e-23)
(4.85411 1.28928 0)
(4.12241 0.830789 7.30331e-23)
(4.34601 1.04026 3.40734e-26)
(3.81126 0.59462 7.50364e-23)
(3.94366 0.703347 0)
(3.63523 0.474988 5.9837e-21)
(3.71703 0.551954 0)
(3.49475 0.183321 2.61132e-20)
(3.56066 0.367427 -2.85028e-20)
(3.48882 -0.256651 0)
(3.46979 -0.0349714 2.97687e-21)
(3.6771 -0.612115 8.84243e-20)
(3.56852 -0.44914 -8.39982e-20)
(5.82619 0.903168 -6.63797e-22)
(6.19005 0.0548106 3.81792e-21)
(6.06707 0.550099 -3.92653e-21)
(5.28509 1.20646 1.91772e-22)
(5.54945 1.10661 -1.12452e-23)
(4.77437 1.22938 0)
(5.00921 1.23998 0)
(4.34445 1.17935 -2.00584e-23)
(4.55302 1.19899 0)
(3.94451 1.04454 0)
(4.11788 1.13691 0)
(3.59324 0.813842 -2.25826e-23)
(3.76399 0.928274 0)
(3.35684 0.449119 0)
(3.42514 0.672871 0)
(3.50115 -0.229329 0)
(3.37723 0.139016 0)
(3.9017 -0.968768 -6.0268e-24)
(3.67965 -0.609445 0)
(4.42787 -1.56951 0)
(4.16362 -1.29003 0)
(5.02866 -1.96768 -5.71081e-27)
(4.73678 -1.79811 6.04455e-27)
(5.64963 -1.94341 -7.8966e-23)
(5.36089 -2.02285 -4.54316e-26)
(6.0939 -1.23547 -2.23149e-22)
(5.91623 -1.67829 -9.4143e-26)
(6.13655 0.0332831 -5.66486e-23)
(6.17058 -0.638858 0)
(5.71032 1.08673 -9.40231e-23)
(5.96138 0.634855 8.90281e-26)
(5.05361 1.44368 -2.95661e-26)
(5.36822 1.32998 3.1378e-26)
(4.48546 1.3449 0)
(4.71342 1.41681 0)
(4.05895 1.09748 -2.86348e-21)
(4.21894 1.20063 4.9864e-21)
(3.73435 0.810054 0)
(3.81341 0.947142 -7.89014e-22)
(3.57527 0.581087 0)
(3.18395 -0.252322 0)
(3.60777 -0.213756 -1.25904e-21)
(3.40756 -0.245751 -3.40071e-20)
(2.74644 -0.332442 1.24505e-21)
(2.95595 -0.286414 5.12077e-21)
(2.44821 -0.339563 -1.48849e-25)
(2.57152 -0.334368 0)
(2.45529 -0.306671 -3.47956e-24)
(2.39296 -0.316963 0)
(2.95262 -0.253436 0)
(2.63684 -0.281593 0)
(3.86853 -0.129328 1.51946e-24)
(3.37231 -0.19506 0)
(4.8975 0.00450073 0)
(4.39321 -0.0497047 0)
(5.62016 0.0770274 0)
(5.32235 0.0431607 1.64151e-20)
(5.78098 0.218403 0)
(5.76442 0.122909 -1.26509e-20)
(6.19167 -0.825596 -7.25688e-21)
(6.04822 -0.539955 0)
(3.73552 -0.955585 4.86907e-21)
(3.79391 -0.776576 5.46986e-21)
(3.58646 3.10068 6.15777e-24)
(3.2053 2.75668 0)
(3.74286 0.311457 0)
(3.90413 3.18037 2.27434e-23)
(2.8321 2.27191 7.74659e-25)
(5.61761 0.266579 1.88684e-20)
(5.69053 -0.0768331 0)
(5.59129 -0.0303641 0)
(4.46717 2.87268 8.30872e-23)
(2.55044 1.30949 1.29611e-23)
(5.23418 2.13673 0)
(2.32466 0.45862 4.33849e-23)
(5.94894 0.929308 0)
(2.58522 -0.47612 0)
(6.27379 -0.374683 0)
(2.62854 -0.899027 8.08302e-21)
(6.0571 -1.36785 2.68368e-20)
(3.63191 -1.24079 2.27697e-21)
(5.66074 -1.06713 0)
(5.59584 -1.58548 -5.65401e-21)
(3.33364 -1.02645 -3.94984e-20)
(3.96769 -0.983347 7.05385e-20)
(3.88971 -0.91758 -7.84171e-20)
(3.29326 2.99503 1.27458e-25)
(5.39885 0.671887 6.45348e-21)
(5.55692 0.539758 0)
(4.9977 0.829611 -3.36561e-21)
(5.23974 0.827217 -3.00343e-21)
(4.54215 0.755136 0)
(4.80667 0.850905 2.65819e-21)
(4.15854 0.536879 0)
(4.37529 0.676304 9.61206e-22)
(3.9168 0.269159 7.02793e-23)
(4.04064 0.410155 0)
(3.84694 0.00794793 1.47355e-22)
(3.87178 0.140663 0)
(3.92361 -0.238762 3.84783e-26)
(3.87553 -0.108011 0)
(4.08708 -0.482392 -7.51491e-23)
(3.99438 -0.360255 -7.66256e-26)
(4.32868 -0.654512 7.15638e-23)
(4.19184 -0.583693 7.46228e-26)
(4.60858 -0.708822 -7.10195e-23)
(4.46064 -0.696246 6.61838e-26)
(4.90804 -0.639597 -6.36316e-26)
(4.74344 -0.693896 6.16606e-26)
(5.23186 -0.362222 -6.52093e-23)
(5.06815 -0.534662 6.18613e-26)
(5.33109 0.226642 1.20832e-22)
(5.3271 -0.106807 0)
(4.95665 0.883668 1.15237e-23)
(5.193 0.591457 6.78379e-26)
(4.439 0.991169 -1.42976e-22)
(4.6807 1.02988 0)
(4.12013 0.703193 -7.29905e-23)
(4.25507 0.865794 -7.62571e-26)
(3.9516 0.519917 0)
(4.0312 0.60269 0)
(3.78585 0.392348 1.07258e-20)
(3.87921 0.476731 -1.12488e-20)
(3.62183 0.101917 0)
(3.69858 0.278731 -5.57699e-27)
(3.5953 -0.290303 3.8066e-21)
(3.58731 -0.0962018 -5.93813e-21)
(3.74404 -0.563941 4.65879e-20)
(3.65624 -0.445805 -4.64913e-20)
(3.99436 -0.716489 0)
(3.85958 -0.65074 -5.44539e-21)
(5.80067 -0.0042661 5.66251e-21)
(5.47394 -0.7288 -7.0303e-21)
(5.71891 -0.389709 -1.98376e-20)
(5.52802 0.63998 8.52329e-21)
(5.71433 0.348129 -5.57985e-21)
(5.05048 0.966663 4.20909e-21)
(5.28353 0.839018 -1.28256e-20)
(4.65693 1.09437 -2.14004e-23)
(4.83042 1.04687 1.69119e-22)
(4.3719 1.05351 2.0059e-23)
(4.49926 1.08852 0)
(4.06067 0.917901 9.34683e-26)
(4.20382 0.997618 -9.88374e-26)
(3.78274 0.668681 -1.02536e-25)
(3.9108 0.799909 1.08445e-25)
(3.51092 0.396776 -2.82206e-23)
(3.62456 0.543846 0)
(3.5309 -0.0800566 1.07986e-25)
(3.46703 0.196311 -1.14237e-25)
(3.89767 -0.725158 4.95148e-23)
(3.68662 -0.393276 1.09678e-25)
(4.43308 -1.28949 0)
(4.1646 -1.01814 0)
(5.04139 -1.65683 2.20768e-23)
(4.74018 -1.49377 -2.20934e-27)
(5.66 -1.66423 2.58423e-26)
(5.36407 -1.71061 -2.73606e-26)
(6.1051 -1.10993 4.53733e-23)
(5.91399 -1.46743 0)
(6.19072 -0.0471616 -9.11837e-23)
(6.19604 -0.615729 0)
(5.77589 0.818079 1.75223e-23)
(6.0189 0.442582 0)
(5.13885 1.14025 -8.8033e-27)
(5.43437 1.01961 9.33917e-27)
(4.58464 1.11297 0)
(4.79778 1.14004 0)
(4.19529 0.911009 5.95923e-21)
(4.31923 0.988236 5.84522e-21)
(3.87598 0.680371 -2.99756e-20)
(3.94236 0.766351 1.61767e-20)
(3.70377 0.479815 0)
(3.58987 -0.565672 -7.88791e-21)
(3.78362 -0.499206 3.27079e-20)
(3.19329 -0.684806 0)
(3.39531 -0.635074 7.7475e-21)
(2.78713 -0.827844 -5.09864e-24)
(2.99437 -0.768634 0)
(2.45024 -0.881873 -2.12831e-24)
(2.59277 -0.845695 -9.19707e-27)
(2.43237 -0.922117 0)
(2.38406 -0.899766 0)
(2.89784 -0.920603 0)
(2.59978 -0.925098 0)
(3.83149 -0.811708 -1.51077e-24)
(3.32255 -0.87725 0)
(4.84976 -0.608171 0)
(4.36053 -0.71147 0)
(5.54164 -0.356415 1.53125e-20)
(5.25502 -0.484742 -1.58616e-20)
(5.68899 -0.208348 -3.17387e-21)
(5.15744 -1.35334 0)
(5.11197 -0.950492 1.74922e-20)
(4.01921 -1.01218 6.10992e-20)
(4.1426 -0.776965 -7.61763e-20)
(3.4504 3.00995 1.18606e-24)
(2.94451 2.51785 7.2741e-25)
(5.3681 0.244845 -3.4245e-20)
(5.3539 0.108427 3.25819e-20)
(3.81137 2.83477 -2.73114e-22)
(2.51718 1.70704 0)
(4.43339 2.06237 -9.51276e-22)
(2.28083 0.499171 -2.81442e-23)
(5.19128 0.772662 0)
(2.25894 -0.263026 0)
(5.71994 -0.746263 -1.32631e-20)
(2.54762 -1.22518 2.23668e-22)
(5.75004 -1.89037 0)
(2.87681 -1.19546 7.7834e-21)
(5.32795 -2.28544 3.30002e-20)
(3.88054 -1.37764 0)
(4.95908 -1.90931 4.14746e-20)
(3.49946 -1.24507 3.453e-20)
(4.76692 -0.977569 -5.46315e-20)
(4.72386 -1.32328 5.59242e-20)
(4.18226 -1.06504 -5.29426e-20)
(4.72294 -0.719414 -1.27537e-20)
(4.50436 -0.675313 -1.30604e-20)
(4.50298 -0.893576 6.65842e-20)
(4.05659 -0.654706 -6.58682e-20)
(4.20405 -1.02544 -2.00913e-21)
(4.27495 -0.82306 1.66207e-19)
(3.08605 2.84434 0)
(5.19901 0.523395 -3.09031e-21)
(5.3174 0.435992 1.45307e-20)
(4.84707 0.629258 0)
(5.03766 0.635227 0)
(4.45741 0.552875 0)
(4.66024 0.638336 0)
(4.148 0.393387 0)
(4.3063 0.504584 0)
(3.98282 0.218426 6.97087e-23)
(4.05874 0.312433 4.27716e-27)
(3.94436 0.040608 -7.37924e-23)
(3.94775 0.121692 1.47431e-25)
(3.97671 -0.1564 -7.54002e-23)
(3.93946 -0.0678388 1.51726e-25)
(4.05816 -0.345989 7.50765e-23)
(3.98877 -0.266052 1.52876e-25)
(4.21919 -0.478764 0)
(4.10887 -0.425066 -4.79602e-27)
(4.46139 -0.546282 7.09513e-23)
(4.3144 -0.522618 4.59398e-27)
(4.77653 -0.483343 0)
(4.60171 -0.534844 4.38824e-27)
(5.0675 -0.235293 -7.7664e-24)
(4.92744 -0.379517 0)
(5.15848 0.183059 -1.43194e-22)
(5.14552 -0.0435811 0)
(4.8912 0.651683 -7.32133e-23)
(5.06841 0.435049 1.54416e-25)
(4.44226 0.792227 1.57773e-22)
(4.65994 0.784998 0)
(4.16511 0.612949 0)
(4.27866 0.724421 0)
(4.01605 0.449359 0)
(4.09097 0.528683 0)
(3.85387 0.309743 0)
(3.94405 0.394048 0)