/*--------------------------------*- C++ -*----------------------------------*\
  =========                 |
  \\      /  F ield         | OpenFOAM: The Open Source CFD Toolbox
   \\    /   O peration     | Website:  https://openfoam.org
    \\  /    A nd           | Version:  10
     \\/     M anipulation  |
\*---------------------------------------------------------------------------*/
FoamFile
{
    format      ascii;
    class       surfaceScalarField;
    location    "40";
    object      phi;
}
// * * * * * * * * * * * * * * * * * * * * * * * * * * * * * * * * * * * * * //

dimensions      [0 3 -1 0 0 0 0];

internalField   nonuniform List<scalar> 
29080
(
0.0907396
-0.145251
-0.01531
0.069821
0.0509741
0.0397656
0.0110528
0.0273932
-0.0245078
-0.0139382
0.0392629
0.00535363
-0.0335638
0.0360493
-0.00156903
0.0047827
0.0315579
-0.0584834
0.0475799
-0.0206543
-0.0485016
0.0291883
0.0508712
0.0317439
0.00460862
-0.0436311
0.00727864
-0.0294701
0.0665339
-0.00531992
0.0111878
-0.103353
-0.0159912
0.060861
-0.0838527
0.0553537
0.0822297
0.0662385
-0.017807
-0.107402
0.0377118
0.0652289
0.0044616
0.000811605
0.0352999
-0.0120301
-0.0216121
0.0500712
0.0264873
0.0535639
-0.0882963
0.00824509
0.0200107
0.074822
0.0204055
0.0635867
-0.00407471
-0.00483879
0.00345091
0.00328179
-0.00189391
-0.0080272
-0.0201598
0.0233482
-0.00368058
-0.00548109
0.00113448
-0.00324843
0.00301876
0.00477326
-0.0047399
-0.0697684
0.00120523
0.00808412
0.0604791
-0.0361718
-0.0483755
0.0147788
0.0390231
-0.037726
-0.0374689
-0.00190853
0.0007169
0.00499744
-0.00380582
0.0127491
-0.0146577
-0.00380287
0.016552
0.00866381
-0.0117498
0.00179419
0.0118671
-0.0238049
-0.00273301
0.0198349
0.00670295
0.00144764
-0.0186102
-0.00664235
0.0234154
0.00128697
-0.0232547
0.0150483
0.00563406
0.0156614
0.0192218
-0.0321598
0.0135775
0.0287105
-0.0101283
0.0259946
-0.0493819
-0.00877246
0.0131623
0.0131563
-0.000323995
0.016368
0.0103718
0.0162946
0.0287839
0.0820144
0.0237081
-0.0571128
-0.0486098
0.0223501
0.075307
-0.0156426
-0.0716829
0.0689459
0.0250871
-0.0716459
0.0236711
-0.0586268
-0.00129353
0.0112693
0.048651
-0.0668729
0.00945139
-0.0455337
0.0176838
0.0732739
0.0271116
-0.0394546
-0.0609309
-0.0272812
0.0240125
0.0765426
0.0669847
-0.118248
0.080915
-0.0296515
-0.0482361
0.0645603
0.0506604
-0.0191058
0.0348102
-0.0219949
0.00629051
0.0436999
-0.0202947
-0.0425111
-0.000295671
0.00331443
0.00447759
-0.060593
-0.0349706
0.00923671
0.0863269
-0.0247333
0.0210356
-0.0568953
0.052755
-0.0571749
-0.0203134
0.0508046
-0.0330201
0.0658202
-0.00577896
0.0973167
-0.0422942
-0.0550225
-0.0647191
0.0556037
0.106432
-0.0293114
-0.0296695
0.0212548
-0.00286382
0.0154168
-0.0418644
0.0145054
-0.0470387
0.00414979
0.0090065
0.0145216
-0.0183213
0.064591
0.0226761
-0.0505918
0.05115
-0.00665337
0.00609522
-0.0760585
-0.0183155
0.0437822
-0.0190729
0.0192934
-0.0413455
0.0166456
-0.0428858
0.00422644
-0.0255249
0.0269325
-0.0333393
0.000134112
0.0374317
-0.0261798
0.00194185
0.041461
-0.0403209
-0.00240295
0.00126282
-0.00132313
-0.000907061
0.0436912
-0.0120802
-0.00787543
0.00579311
0.0141625
-0.0156524
0.0059214
-0.00234919
-0.0321802
0.0556476
0.0202324
0.0472337
-0.0205789
-0.0588349
0.0737338
-0.00585417
-0.0844814
0.0166018
-0.00400048
0.0497287
0.0280056
0.0603033
0.0130919
-0.0178695
-0.0555257
0.065177
-0.0149066
0.0100329
0.0272291
-0.041692
0.0432616
-0.0287987
-0.0429352
0.0434622
0.0267022
-0.0320134
0.0473377
-0.0472323
0.0319079
0.0490593
-0.0327457
-0.048327
-0.0251084
0.039275
-0.0378027
0.023636
0.0414725
-0.0272765
-0.0393043
-0.0133868
0.0342827
-0.0322243
0.0113284
0.0358502
-0.0158719
-0.0333651
0.0315631
0.0818429
-0.11926
-0.0715086
0.0757906
-0.0132991
-0.0521159
0.0108215
0.0545934
-0.0491403
-0.0185565
0.0543977
0.0128281
-0.0136747
-0.0482936
0.0101638
-0.0494517
-0.0531301
0.00842334
0.0528598
-0.00815309
0.0110215
-0.0533301
-0.00068325
-0.018908
0.00195638
0.0176348
-0.0111256
0.0104867
-4.43721e-05
0.00119827
-0.0120588
-0.000265082
0.00252859
-0.0202383
-0.0181083
-0.00298083
0.00247898
0.0107582
-0.0269101
0.0182892
0.0400316
-0.0161129
-0.0422079
0.0235184
0.0544874
-0.0597166
0.00580393
0.0577461
-0.00860813
-0.0116786
0.0136444
-0.00297536
0.00485396
0.0272988
-0.0403877
-0.0286031
-0.0347163
0.0190799
-0.0311281
-0.0310672
0.0274791
-0.0440277
-0.0149716
0.0278712
0.0402796
-0.0521017
-0.0322057
-0.0311753
-0.0146102
-0.0284243
0.0280629
-0.028812
-0.01404
0.0282418
0.0503922
-0.049874
-0.0293302
-0.0301338
-0.013788
-0.0281642
0.0279122
-0.0273875
-0.0135287
0.0271282
0.0491964
-0.0483745
-0.0282094
-0.0288418
-0.0137749
-0.0251606
0.0254068
-0.0222555
-0.0143081
0.0227887
0.0474771
-0.0465742
-0.0231584
-0.026058
-0.0155253
-0.0176874
0.0189045
-0.0122396
-0.0172635
0.0139778
0.0457851
-0.0451887
-0.012836
-0.0184765
-0.0196332
-0.00558636
0.00795606
0.00122751
-0.0219852
0.00112446
0.0448204
-0.045225
0.00163213
-0.00595465
-0.0247466
0.00841001
-0.00564859
0.01516
-0.0276195
-0.0122871
0.0454368
-0.0455777
0.0153009
0.00862182
-0.0300826
0.0206268
-0.0181636
0.0249005
-0.032125
-0.0228581
0.0457992
-0.0463845
0.0254858
0.0208483
-0.0418827
0.0275394
-0.0177817
0.0290134
-0.0427797
-0.0281164
0.0470649
-0.0478482
0.0297967
0.0282197
-0.0453324
0.0324374
-0.0298847
0.0302295
-0.0465419
-0.02902
0.0474895
-0.0473431
0.0300831
0.0320787
-0.0481014
0.0323817
-0.0308222
0.0320314
-0.0483111
-0.0318217
0.0468209
-0.04868
0.0338905
0.0318595
-0.0316304
0.0320098
-0.0488421
-0.0310994
0.0270541
-0.0284376
0.0446451
0.0257969
0.0447194
-0.0327201
-0.0488678
0.0442945
-0.0421191
-0.030613
0.0279723
0.0447958
-0.0284736
0.0265356
0.0460819
0.0468535
-0.0469138
0.0267625
0.048836
0.0238144
0.0491855
-0.0499365
-0.0303484
-0.047507
0.0460265
-0.0293418
-0.0301432
-0.0456251
0.0431291
-0.0273887
-0.0286185
-0.0370857
0.0445006
-0.0251967
-0.022073
-0.0437321
0.0431051
-0.0175365
-0.0220896
-0.0427419
0.0424651
-0.00537179
-0.0119239
-0.042498
0.0431858
0.00726826
0.00109148
-0.0440992
0.0451293
0.0178744
0.0130644
-0.0462001
0.0472404
0.0243665
0.0217179
-0.0481872
0.0490088
0.0270905
0.0261815
-0.049687
0.0502269
0.0275229
0.0275637
-0.05068
0.0526581
0.025501
0.0274181
0.0248241
-0.0245271
0.0249232
0.0484399
0.0467278
0.0419344
-0.0441752
-0.0263624
-0.0289834
0.0466272
-0.0502281
-0.0286047
-0.0287233
0.0514707
-0.0512566
-0.0295444
-0.0288912
0.0508933
-0.0503765
-0.0287262
-0.029205
0.0497498
-0.0490633
-0.023845
-0.0266846
0.0484165
-0.0478839
-0.0133685
-0.0191233
0.0475591
-0.0470242
0.00109721
-0.00627944
0.0470354
-0.0473534
0.015619
0.00863303
0.047772
-0.0482327
0.0259464
0.0212668
0.0486736
-0.0489238
0.0300469
0.0286607
0.0475793
-0.048838
0.0313418
0.0307342
0.0488754
-0.0474334
0.0324484
0.031897
0.0319141
-0.0274877
0.0270465
0.0465231
-0.028951
0.046259
-0.0304325
-0.0522241
0.0316961
-0.0315824
-0.0484407
0.0490718
-0.0492472
0.0250986
-0.0258321
0.048956
0.0259479
-0.0257209
0.0483287
-0.0480328
0.0324966
0.050006
-0.0508936
-0.0294608
-0.0478694
0.0452575
-0.0267299
-0.0280066
-0.0435695
0.0413994
-0.0252186
-0.0269304
-0.0443921
0.0430222
-0.0238268
-0.0250657
-0.0419613
0.0412153
-0.0167906
-0.0210287
-0.0409072
0.0411647
-0.00562932
-0.0116158
-0.0416029
0.0421714
0.00669975
0.000653316
-0.0430128
0.0440496
0.0168376
0.012223
-0.0451921
0.0463446
0.023214
0.0205754
-0.0474319
0.0484074
0.026115
0.0250942
-0.0492588
0.0499752
0.0268066
0.0267123
-0.0505852
0.049416
0.0266701
0.0268082
-0.0489075
0.0500997
0.0255703
0.0253327
0.0246669
0.0480535
-0.04534
-0.0285728
0.0449618
0.045602
-0.048439
-0.027776
-0.0282115
0.0512056
-0.0505884
-0.0269796
-0.0262167
0.0519522
-0.0521851
-0.0283718
-0.0273595
0.0523026
-0.0522919
-0.0295551
-0.0287737
0.0521433
-0.0518559
-0.0290136
-0.0293536
0.051465
-0.0510153
-0.0242946
-0.0270755
0.0505765
-0.0501953
-0.0137497
-0.0195622
0.0498839
-0.0498317
0.00104497
-0.0065908
0.0497788
-0.0498007
0.0156409
0.0085802
0.0499257
-0.0501128
0.0261335
0.0213918
0.0503059
-0.0507998
0.0305407
0.0288539
0.0506874
-0.0503747
0.0310291
0.0306218
0.0490168
-0.0461709
0.0296025
0.030539
0.0459011
-0.0446233
0.0306301
0.0316444
0.0329914
-0.0337888
-0.0472354
0.0453311
-0.0461769
0.0338372
0.0332044
-0.0521413
-0.0291847
-0.0316627
-0.0487875
-0.0336484
-0.0485811
0.0254666
-0.0260312
0.0488932
0.0331579
-0.0338461
-0.0465473
0.0320513
-0.0450703
0.0239392
0.0504834
0.0447251
-0.046245
-0.0270529
0.050215
-0.0502462
0.0251297
0.051575
0.024588
0.0275936
0.0441954
-0.027064
0.0277712
0.0447842
0.0311064
-0.0296752
-0.0535725
-0.0527803
0.0542623
-0.0550188
-0.0289187
-0.0528114
0.0503018
-0.0269513
-0.0277338
-0.0483839
0.0469236
-0.0252696
-0.0260887
-0.0449714
0.0444597
-0.0247069
-0.0249782
-0.0435811
0.0423015
-0.0225472
-0.0241871
-0.0412441
0.0404927
-0.0160392
-0.0199713
-0.0401063
0.0400754
-0.00559841
-0.0112293
-0.0404701
0.0411724
0.00599742
0.0002586
-0.0421257
0.0432557
0.0157076
0.0112697
-0.0444839
0.0457256
0.0219723
0.0193472
-0.0469195
0.0480157
0.0250188
0.0239003
-0.0490028
0.0498632
0.0259462
0.0257251
-0.0506126
0.0512487
0.026034
0.0260587
-0.0510019
0.0504077
0.0261645
0.0255795
0.0248284
0.0269159
-0.0285298
0.0481369
0.0489382
0.0455005
0.0483219
-0.0507149
-0.0253831
-0.0261346
0.0514184
-0.0520343
-0.0263636
-0.0255132
0.052571
-0.0530444
-0.0278984
-0.0268229
0.0534287
-0.0537064
-0.0292774
-0.0283893
0.0538485
-0.0538486
-0.0290135
-0.0292115
0.0537125
-0.0534723
-0.0245349
-0.0272116
0.0531885
-0.0529195
-0.0140188
-0.0198459
0.0527142
-0.0525553
0.000886078
-0.00679603
0.052463
-0.0524002
0.0155781
0.00848782
0.0523079
-0.052178
0.0260036
0.0212995
0.0520399
-0.0519314
0.0304322
0.0287157
0.0518173
-0.0511533
0.0303651
0.0305077
0.0500882
-0.0500051
0.0295194
0.0294739
0.0481484
-0.0476073
0.030089
0.0297877
0.0458678
-0.0443952
0.0323647
0.0314649
0.0434905
-0.0311665
-0.0425691
0.0302451
0.0311466
-0.0327621
-0.0496738
-0.0313752
0.0320858
-0.0542831
-0.0556283
-0.0307657
-0.0262976
0.0260503
0.0450315
-0.0254323
0.0433301
-0.0341369
-0.0482902
-0.0320931
-0.0441438
-0.0328196
-0.0458207
0.0283551
-0.0294829
-0.0430159
0.0239959
0.0515182
0.0272584
-0.0534567
-0.0305019
0.0321323
-0.0572588
0.0578822
-0.0582664
-0.0301177
-0.0559367
0.0547781
-0.0277601
-0.0288202
-0.0535632
0.0513181
-0.0247061
-0.026519
-0.049433
0.047803
-0.0236396
-0.0242035
-0.0463272
0.044759
-0.0231387
-0.0235025
-0.0432174
0.041832
-0.0211618
-0.0226456
-0.0406842
0.0398589
-0.0152139
-0.0188235
-0.0394137
0.0394015
-0.00558621
-0.0107841
-0.0397901
0.0405288
0.00525876
-0.000130009
-0.0415408
0.0427325
0.014516
0.0102576
-0.044024
0.0453306
0.0206658
0.0180556
-0.0466011
0.0477863
0.0238336
0.0226298
-0.0488751
0.0498506
0.0249707
0.0246363
-0.0507244
0.0514966
0.0252618
0.0251849
-0.0516106
0.0520396
0.0257355
0.0254655
-0.0515327
0.051543
0.0251193
0.0253354
-0.0520297
0.0531453
0.0228803
0.0241013
-0.0232081
0.0226414
0.052085
0.0240644
-0.0252802
0.050109
0.0513397
0.0252285
-0.0252195
0.048128
0.0488865
0.0463312
-0.043594
-0.0245799
0.0427415
0.0455751
-0.0476473
-0.0249807
-0.025083
0.04994
-0.0508781
-0.024445
-0.0238419
0.0517142
-0.0524854
-0.0255925
-0.0246771
0.0531971
-0.0538706
-0.0272249
-0.0261112
0.0544812
-0.0550176
-0.028741
-0.0277787
0.0554433
-0.0557463
-0.0287105
-0.0287859
0.0559105
-0.0559461
-0.0244992
-0.0270474
0.0558797
-0.0557505
-0.014148
-0.0199123
0.0555959
-0.0554312
0.000721442
-0.00695068
0.05524
-0.0549968
0.0153348
0.00829664
0.0546895
-0.0542987
0.0256129
0.0209922
0.0538609
-0.0534186
0.0299899
0.0282779
0.0529824
-0.0525518
0.0299346
0.0300715
0.0521149
-0.0513228
0.0287273
0.029037
0.04978
-0.0482664
0.0285754
0.0282449
0.0461521
-0.0436944
0.0299069
0.0293506
0.0416434
-0.0405953
0.029197
0.0290956
0.0259381
0.0232011
0.0525856
-0.033359
-0.0504517
0.0331208
-0.0552716
-0.0327853
-0.0483245
0.032225
-0.0596292
-0.0308622
0.0331072
-0.058141
-0.0307
-0.0446037
0.0430132
-0.0448729
-0.0227201
0.0225014
0.0414124
-0.0209006
0.0226939
0.042549
-0.0292292
-0.0410633
0.0217422
-0.0235792
-0.0374673
0.0539844
-0.0546835
0.0235794
0.0543578
0.0228277
0.0197898
-0.0536949
-0.0309028
0.0326502
-0.0613765
0.0616073
-0.0626007
-0.0299094
-0.0592876
0.0571934
-0.0280235
-0.0285425
-0.0553154
0.0533178
-0.0257625
-0.0269423
-0.0517231
0.0504797
-0.0234627
-0.0249243
-0.0491938
0.0478045
-0.0222503
-0.0229176
-0.0462802
0.0446667
-0.0215252
-0.0219782
-0.0430534
0.041593
-0.0197014
-0.0210322
-0.0403906
0.0395406
-0.0143639
-0.0176211
-0.0390845
0.0390526
-0.00555429
-0.010328
-0.039426
0.0401703
0.00451442
-0.000503397
-0.0412034
0.0424256
0.0132938
0.00922458
-0.0437556
0.0451069
0.0193145
0.0167256
-0.0464324
0.0476853
0.0225806
0.0213043
-0.0488551
0.0499268
0.023899
0.0234665
-0.0509089
0.0518081
0.0243626
0.0242028
-0.0526428
0.0534391
0.0249391
0.0246309
-0.054103
0.0544958
0.0247265
0.0246715
0.0239136
0.0230168
-0.0234423
0.0525104
-0.0221657
0.021802
0.0547216
0.0534367
0.0238749
-0.0237139
0.0499481
0.0517723
0.023939
-0.0233245
0.0475134
0.0491116
0.0229496
-0.0226302
0.0447122
0.0459563
0.0433939
0.0465035
-0.0489344
-0.0225497
-0.0234524
0.0500551
-0.0510962
-0.0234038
-0.0227213
0.0520555
-0.0529801
-0.0246679
-0.0237178
0.0538732
-0.0547586
-0.0263395
-0.0252181
0.055605
-0.0564057
-0.0279402
-0.0269324
0.0571144
-0.0577103
-0.0281147
-0.0280772
0.058151
-0.0584316
-0.0242187
-0.0266067
0.0585563
-0.0585557
-0.0141486
-0.0197876
0.0584546
-0.0582658
0.000532646
-0.00705182
0.0579686
-0.0575484
0.0149146
0.00799946
0.0570047
-0.056349
0.0249572
0.0204485
0.0556329
-0.0548924
0.0292495
0.0275618
0.0541635
-0.0534481
0.0292192
0.0293425
0.052743
-0.0519947
0.027979
0.0283319
0.0511754
-0.0502016
0.0276016
0.0274256
0.0486256
-0.0465477
0.0278291
0.0277746
0.0446727
-0.0416021
0.0261265
0.0272206
0.0395206
-0.0367935
0.0209089
0.0238566
0.0172789
-0.03301
-0.050227
0.0340062
-0.0561706
-0.0195617
0.0198429
0.0422678
-0.0191196
0.0409703
-0.0319346
-0.0470899
0.0329383
-0.0584292
-0.0294416
-0.0443913
0.0314449
-0.0644654
-0.0295802
0.0320839
-0.0620155
-0.0248289
-0.0398136
-0.0180724
-0.0352667
0.0563972
-0.0530416
0.0184464
0.00754423
-0.00904733
-0.031862
-0.0305417
0.00586163
0.0182648
-0.0193215
0.0557782
0.0576743
0.0169877
-0.0526986
-0.0308798
0.0314285
-0.0650141
0.0653585
-0.0670594
-0.0291789
-0.063731
0.061694
-0.0278724
-0.0279527
-0.0598952
0.0578771
-0.0260053
-0.0267438
-0.0561285
0.0539412
-0.0235752
-0.0251937
-0.0519888
0.0506717
-0.0221456
-0.022972
-0.0493361
0.0479304
-0.0208446
-0.0215819
-0.0463929
0.0447585
-0.0198908
-0.0204407
-0.0431079
0.0416
-0.0181935
-0.0193816
-0.040356
0.0394777
-0.0134856
-0.0163771
-0.039004
0.0389531
-0.00550335
-0.00985437
-0.039321
0.0400475
0.003788
-0.000871331
-0.0410737
0.0423001
0.0120674
0.00819837
-0.0436461
0.045025
0.0179357
0.0153795
-0.0463902
0.0476964
0.0212745
0.0199391
-0.0489316
0.0500823
0.0227483
0.0222313
-0.0511549
0.0521609
0.0233566
0.0231302
-0.0531173
0.0540498
0.0240066
0.0236744
-0.054268
0.0548551
0.0241395
0.0244533
-0.0547418
0.0549024
0.0234188
0.0240268
0.0246884
0.0203443
-0.0205576
0.0527237
0.0544596
0.0213009
-0.0216601
0.0503073
0.0525156
0.0211959
-0.0205796
0.0468971
0.0486474
0.0203874
-0.0202472
0.044572
0.0457641
0.0429895
-0.0421852
-0.0175167
0.0405823
0.043161
-0.044815
-0.021066
-0.0199248
0.0478097
-0.0490667
-0.0212927
-0.0204577
0.0502503
-0.0513775
-0.0222766
-0.0215377
0.0524408
-0.0534921
-0.0236165
-0.0226546
0.054535
-0.0555985
-0.025276
-0.0241752
0.056653
-0.0576985
-0.0268947
-0.0258779
0.0586803
-0.0595697
-0.0272253
-0.0270954
0.0602951
-0.0608263
-0.0236874
-0.0258813
0.0611352
-0.0612397
-0.0140441
-0.0194787
0.0611633
-0.0609232
0.000292542
-0.00712827
0.0605167
-0.059924
0.0143219
0.00759298
0.0591606
-0.0582503
0.024047
0.0196851
0.0572684
-0.0562567
0.0282378
0.0265798
0.0552701
-0.0543074
0.0282565
0.0283559
0.0533727
-0.05241
0.0270162
0.0273973
0.0513803
-0.0501513
0.0263726
0.0263959
0.0482933
-0.0463243
0.0258601
0.0259166
0.0441183
-0.0414837
0.0234919
0.0250146
0.0390293
-0.0355501
0.0174298
0.0214022
0.0333694
-0.0322345
0.0101934
0.0150982
0.000827682
-0.00202339
-0.029346
0.0311613
-0.029613
-0.000720587
0.00478845
-0.0320907
-0.050071
0.0323029
-0.0555351
-0.0301436
-0.0463879
0.032916
-0.0592613
-0.0266868
-0.0425333
0.0313723
-0.0619594
-0.0196601
-0.0382259
0.0288179
-0.066828
-0.0290493
0.0296459
-0.0658422
-0.0115105
-0.0328035
-0.00398214
-0.0299033
0.00494064
-0.0286143
-0.00593933
0.00390948
-0.0283148
0.0588935
-0.0599152
0.0194681
-0.0111558
0.00675626
-0.0242148
0.0416688
-0.0418978
-0.0172878
0.015258
-0.016222
0.0567423
0.013579
0.0593533
0.0155953
0.0405039
-0.0144303
0.0156783
0.0404993
0.0270296
-0.0241251
-0.0140603
0.059923
0.0159582
-0.0524864
-0.0272096
0.0280015
-0.0676199
0.0697229
-0.0700915
-0.0268411
-0.0679567
0.0666021
-0.0278242
-0.0272831
-0.0639751
0.0618766
-0.0257739
-0.0253257
-0.0596965
0.0573161
-0.0236249
-0.0245636
-0.0551057
0.053648
-0.0221175
-0.0229833
-0.0522367
0.050872
-0.0207809
-0.0215606
-0.0495115
0.0481129
-0.0194461
-0.0202214
-0.0466051
0.0449976
-0.0182832
-0.018933
-0.0433514
0.0418199
-0.016662
-0.0177355
-0.0405395
0.0396277
-0.0125737
-0.0150967
-0.0391313
0.0390656
-0.00543769
-0.009358
-0.0394102
0.0401146
0.00308356
-0.0012159
-0.0411186
0.0423303
0.0108557
0.00719437
-0.0436735
0.0450639
0.0165452
0.0140364
-0.0464548
0.0478001
0.0199291
0.0185483
-0.0490861
0.050298
0.0215364
0.0209454
-0.0514433
0.0525329
0.022267
0.0219849
-0.0535918
0.0546415
0.0229569
0.0226155
-0.0557082
0.0561275
0.0237202
0.0233865
-0.0562598
0.0560253
0.0236534
0.0238945
0.0207986
0.0176112
-0.0185317
0.0536442
0.0558488
0.0183695
-0.0180529
0.0499907
0.0523533
0.0175946
-0.0170183
0.0463208
0.0481891
0.0163523
-0.0156306
0.0438503
0.045098
0.0158838
-0.016193
0.042577
0.0432428
0.0404555
0.0440949
-0.0466979
-0.018463
-0.0177277
0.0479937
-0.049284
-0.0200024
-0.0191619
0.0505107
-0.0516967
-0.0210905
-0.020311
0.0528406
-0.054
-0.0224572
-0.0215107
0.0551738
-0.0563943
-0.0240554
-0.0230014
0.0576319
-0.0588939
-0.0256328
-0.0246403
0.0601188
-0.0612718
-0.0260722
-0.0258705
0.0622561
-0.0630184
-0.0229251
-0.0248971
0.0634967
-0.0636908
-0.0138499
-0.0190004
0.0636188
-0.0633039
-2.2415e-05
-0.00720023
0.0627743
-0.0620141
0.0135617
0.00706339
0.0610516
-0.059916
0.0229113
0.0187225
0.0586992
-0.0574514
0.0269899
0.0253631
0.056244
-0.0550757
0.0270882
0.0271485
0.0539503
-0.0528053
0.0258713
0.0262719
0.0515959
-0.0502468
0.0250235
0.0251865
0.0487568
-0.0468591
0.0239623
0.0244266
0.0445127
-0.042147
0.0211262
0.0226682
0.0393078
-0.0379403
0.0160622
0.0185631
0.0349014
-0.0320815
0.00737354
0.0120593
0.0306996
-0.0294193
-0.00200085
0.00340654
-0.00832904
-0.0311723
-0.0490422
0.0317589
-0.054378
-0.0115276
0.0110582
0.0409687
-0.0112639
0.0402402
0.0303248
-0.0402503
-0.0141996
-0.0280758
-0.0449989
0.0305726
-0.0584615
-0.0220591
-0.0401343
0.0294017
-0.0617152
-0.0137327
-0.0360037
0.0263079
-0.0641485
-0.00457305
-0.0322126
0.0230423
-0.0694386
-0.0236952
0.0219936
-0.0665713
0.0031297
-0.0291235
0.00863088
-0.0301894
0.00758454
-0.0458596
0.0134044
0.0600975
-0.0518998
-0.0183286
-0.0684896
0.0173796
0.0733904
-0.0728476
-0.0188713
-0.0718406
0.0699387
-0.0249392
-0.0221454
-0.0674672
0.0644353
-0.0247924
-0.0248115
-0.0630044
0.0604595
-0.023229
-0.0238948
-0.0586424
0.0569624
-0.0219449
-0.0227465
-0.0553882
0.0539068
-0.0206361
-0.0214092
-0.0524764
0.051096
-0.0194005
-0.0201301
-0.0497325
0.0483591
-0.0180727
-0.0188579
-0.0469056
0.0453602
-0.0167378
-0.0174795
-0.0437553
0.0422279
-0.0151347
-0.0161305
-0.0409192
0.0399676
-0.0116221
-0.013788
-0.0394352
0.0393397
-0.00534219
-0.00882562
-0.0396552
0.0403295
0.00240933
-0.00153141
-0.0413015
0.0424856
0.00967158
0.00622238
-0.0438112
0.0451984
0.015158
0.0127108
-0.0466004
0.0479707
0.0185589
0.0171462
-0.049293
0.0505511
0.0202782
0.0196231
-0.0517532
0.0529094
0.0211108
0.0207829
-0.0540485
0.0551909
0.0218146
0.0214764
-0.0563664
0.0575741
0.0225125
0.022211
-0.0588214
0.0600429
0.0224318
0.0226472
-0.0602919
0.0605174
0.0192426
0.0205496
-0.0612616
0.061991
0.012675
0.015214
-0.0109649
0.0100489
0.0610135
0.0119969
-0.0131037
0.0578491
0.0603853
0.0134287
-0.0141469
0.0543625
0.0561737
0.0139471
-0.0136301
0.0496737
0.0521535
0.0132119
-0.0127163
0.0458251
0.047771
0.0121607
-0.0115823
0.043272
0.0445425
0.0110012
-0.0104438
0.0420196
0.0426617
0.0410699
-0.0406818
-0.0111268
0.0405447
0.0420513
-0.0443039
-0.0150352
-0.0130608
0.0456856
-0.0469566
-0.017192
-0.016346
0.0482581
-0.0495633
-0.0186972
-0.0178605
0.0508129
-0.0520385
-0.0198649
-0.0190614
0.0532431
-0.0544843
-0.021216
-0.0203061
0.055758
-0.0571007
-0.0227127
-0.0217277
0.0584857
-0.0599281
-0.0241904
-0.0232552
0.0613624
-0.062749
-0.0246856
-0.0244361
0.0639676
-0.0649403
-0.0219525
-0.0236785
0.0655685
-0.0658308
-0.0135877
-0.0183721
0.0657393
-0.0653353
-0.000426358
-0.00729172
0.0646696
-0.0637491
0.0126413
0.00639759
0.0626103
-0.0612846
0.0215857
0.0175837
0.0598741
-0.0584363
0.0255521
0.0239526
0.0570516
-0.055718
0.0257546
0.0257638
0.0544388
-0.0531451
0.0245775
0.0249927
0.0517939
-0.0503087
0.0235383
0.0238353
0.0486839
-0.046889
0.0221674
0.0228017
0.044973
-0.0429353
0.0190885
0.0207522
0.040873
-0.0383189
0.0135082
0.0165007
0.0359564
-0.0347917
0.00620888
0.00969678
0.03302
-0.0313474
-0.00367349
0.00163481
-0.00935159
0.0094606
0.0625793
-0.0289852
-0.0481329
0.0299937
-0.0537992
0.0110125
-0.0706714
-0.0131887
-0.0665631
0.00908611
-0.0233764
-0.0436816
0.0276924
-0.0567522
-0.0153476
-0.0385194
0.0248577
-0.060265
-0.00672477
-0.033852
0.0204463
-0.0626012
0.00245959
-0.0315425
0.0153904
-0.064582
0.00996426
-0.0304569
0.012404
-0.0350089
0.0160882
-0.0419783
-0.0143602
0.0118769
-0.0416483
-0.0163611
0.0187759
-0.0443931
0.0625206
-0.062612
0.0127665
0.0404025
-0.0410669
-0.0104624
0.00714177
0.0408607
-0.00759998
0.0624823
0.00949885
0.00715995
0.0405265
-0.0508913
-0.00722145
0.00392343
-0.0673734
0.0743955
-0.0716795
-0.00993738
-0.0748951
0.0747686
-0.0187448
-0.0136884
-0.0728787
0.0705391
-0.0225995
-0.0202556
-0.0676317
0.0647138
-0.0218745
-0.0219041
-0.0626205
0.060663
-0.0212715
-0.0218015
-0.0588404
0.0571648
-0.0202694
-0.0209239
-0.0555948
0.0541198
-0.0191611
-0.0198392
-0.052696
0.0513228
-0.0180274
-0.0187063
-0.049975
0.0486411
-0.0167387
-0.01751
-0.0472603
0.0458063
-0.0152837
-0.0160988
-0.0442805
0.0427907
-0.0136449
-0.0146047
-0.0414713
0.0404765
-0.0106274
-0.0124686
-0.0398907
0.0397454
-0.00519689
-0.00823974
-0.0400168
0.0406498
0.0017763
-0.00180283
-0.0415814
0.0427294
0.0085236
0.0052908
-0.0440271
0.0453992
0.0137859
0.0114131
-0.0468
0.0481824
0.0171764
0.0157455
-0.0495284
0.0508206
0.018986
0.0182771
-0.0520657
0.0532744
0.0199021
0.0195377
-0.0544735
0.0556859
0.0206022
0.0202773
-0.0569363
0.0582286
0.0212201
0.0209606
-0.0595564
0.0608866
0.0211017
0.0213194
-0.0615635
0.0620188
0.0187873
0.0198727
0.0146208
-0.06313
0.000490309
0.000563077
-0.00406822
-0.0638682
-0.0684311
-0.00268539
0.00689219
-0.00727177
0.0613931
-0.00629483
0.00548185
0.0632953
0.0631767
0.00793337
-0.00836563
0.0582813
0.0610469
0.00917372
-0.00904741
0.0542361
0.0569818
0.00882768
-0.00853937
0.0493854
0.0519338
0.008199
-0.00782605
0.0454522
0.0474306
0.00742961
-0.00703734
0.0428797
0.044146
0.00665964
-0.00630956
0.0416695
0.042284
0.00644744
-0.00676063
0.0412818
0.0412078
0.0406395
0.0427261
-0.0442958
-0.0134656
-0.0114015
0.0460362
-0.0473006
-0.0159276
-0.0146056
0.0485946
-0.0498918
-0.0174
-0.0165664
0.0511422
-0.0523872
-0.0186199
-0.017811
0.0536304
-0.0549278
-0.0199186
-0.0190628
0.0562716
-0.0577019
-0.0212824
-0.0203839
0.0591951
-0.0607733
-0.0226122
-0.021762
0.0623708
-0.0639477
-0.0231087
-0.0228387
0.0653669
-0.0665284
-0.020791
-0.0222593
0.0672951
-0.0676161
-0.0132667
-0.0176054
0.0674916
-0.0669797
-0.000938247
-0.00741623
0.0661708
-0.065092
0.0115625
0.00558871
0.0638007
-0.0623237
0.0201087
0.0162923
0.0607623
-0.0591802
0.02397
0.0223912
0.0576606
-0.0561999
0.024294
0.0242441
0.0548026
-0.0533952
0.0231702
0.0235953
0.0519387
-0.0503567
0.0219563
0.0223788
0.0486475
-0.046787
0.020307
0.0210925
0.0448342
-0.0428057
0.0170601
0.0187993
0.040796
-0.0388685
0.0115806
0.014491
0.0371919
-0.035285
0.00430192
0.00802024
0.0341429
-0.0343612
-0.00345515
0.000492703
0.0362413
-0.0408386
-0.00960225
-0.0074715
0.0440151
-0.0538135
-0.00656262
-0.0111838
-0.0190455
-0.0315308
-0.00323727
-0.0151201
0.0301739
-0.0340993
-0.0390121
-0.00763876
-0.0251258
-0.0463835
0.0265881
-0.0526949
-0.00396288
0.00285892
0.0416305
-0.00379754
0.0406954
-0.0174668
-0.0415624
0.0229014
-0.0547959
-0.00796882
-0.0372754
0.0179386
-0.0577573
0.00188853
-0.0332809
0.0128282
-0.060039
0.00952402
-0.0311023
0.00683066
-0.0623266
0.0152888
-0.0333417
0.0174615
-0.0405935
0.0195813
-0.0424537
0.0223622
-0.0365814
-0.0591506
-0.00804769
-0.00771129
-0.0643327
0.00361287
-0.0119797
-0.0595999
0.00965822
-0.0141722
-0.0598187
0.0652245
-0.0636164
0.0038737
-0.0132738
0.0191296
-0.0399552
0.000852274
-0.00216657
0.0646096
-0.0393492
-0.0129367
0.00118812
0.0648887
-0.049429
-0.069341
0.0727832
0.000170656
0.0054942
-0.075425
0.0758217
-0.0103341
-0.00532719
-0.0762558
0.0747642
-0.0172532
-0.0141224
-0.0725722
0.0690046
-0.0190319
-0.0180636
-0.0667884
0.0646176
-0.0197037
-0.019688
-0.0625576
0.060656
-0.0193699
-0.0197415
-0.0588855
0.0572532
-0.0186371
-0.0191534
-0.0557197
0.0542783
-0.0177196
-0.0183057
-0.0528876
0.0515459
-0.0166857
-0.0173157
-0.0502318
0.0489472
-0.0154542
-0.0161959
-0.0476471
0.0463021
-0.0139387
-0.0147987
-0.0448877
0.0434735
-0.0122307
-0.0131903
-0.0421716
0.0411403
-0.00959603
-0.0111668
-0.0404868
0.0402674
-0.00497751
-0.00758622
-0.0404708
0.0410449
0.00120227
-0.00200627
-0.0419244
0.0430281
0.00741999
0.00441121
-0.0442904
0.0456391
0.0124372
0.0101507
-0.047029
0.0484133
0.0157922
0.0143555
-0.0497719
0.0510865
0.0176714
0.0169185
-0.0523621
0.0536082
0.0186561
0.0182621
-0.0548495
0.0561081
0.0193436
0.019036
-0.0574062
0.0587507
0.0198756
0.0196626
-0.0601324
0.0615312
0.0197028
0.0199378
-0.062368
0.0639363
0.0172189
0.0190359
-0.0634375
0.0640649
0.0121391
0.0151196
0.00994744
0.00220392
-0.00307382
0.062263
0.063214
0.00295632
-0.00376688
0.0590919
0.0609294
0.00362088
-0.00343416
0.0540494
0.0568358
0.00322099
-0.00299179
0.0491562
0.0517206
0.00276812
-0.00254825
0.0452323
0.047207
0.00235459
-0.0021853
0.0427104
0.0439524
0.00204675
-0.00194198
0.0415647
0.0421454
0.00232218
-0.00252317
0.0414828
0.041588
0.0409753
-0.0402425
-0.00474371
0.0411887
0.0418374
-0.0434378
-0.00886204
-0.00600507
0.0440695
-0.0453417
-0.0121934
-0.0107697
0.0464701
-0.047715
-0.0146827
-0.0134772
0.0489793
-0.0502476
-0.0161317
-0.0153022
0.0514818
-0.0527288
-0.0173729
-0.0165769
0.0539902
-0.0553178
-0.0185911
-0.0178014
0.0567008
-0.0581821
-0.0198011
-0.0190009
0.0597417
-0.0614083
-0.0209456
-0.0202024
0.063119
-0.0648379
-0.0213898
-0.021128
0.0664192
-0.0677466
-0.0194636
-0.020678
0.0686464
-0.0690322
-0.0128809
-0.0167056
0.0688792
-0.0682565
-0.00156093
-0.00756923
0.0672832
-0.0660499
0.0103292
0.00461546
0.0646202
-0.0630232
0.0185117
0.0148626
0.0613535
-0.0596638
0.0222803
0.0207216
0.0580472
-0.0564963
0.0227432
0.0226275
0.0550169
-0.0535352
0.0216885
0.0221159
0.0520144
-0.0503794
0.0203213
0.020858
0.0486296
-0.0467431
0.0184204
0.0193427
0.0447827
-0.0427753
0.0150526
0.0168389
0.0408316
-0.0390375
0.00978652
0.0125474
0.0375789
-0.0366164
0.00333944
0.00656159
0.0363502
-0.0373477
-0.00245768
0.000226566
0.0392047
-0.0419206
-0.00688639
-0.00561449
0.0462442
-0.0449569
-0.00784992
-0.0068602
0.0413224
-0.0401748
-0.00878637
-0.0068718
-0.00533332
0.0115488
-0.0455646
0.0422357
-0.0356463
-0.0119227
-0.0108758
-0.0194701
-0.0443802
0.0213079
-0.0511014
-0.0100206
-0.0395106
0.0161371
-0.0529943
0.000264529
-0.0356514
0.00993946
-0.0548686
0.00971905
-0.033476
0.00327244
-0.0564808
0.0167316
-0.0325451
-0.00317545
-0.0586608
0.0193865
-0.0352667
0.019857
-0.0408692
0.0214756
-0.041567
0.0217596
-0.0392114
0.015607
-0.0440134
0.0030268
0.0270514
-0.0657246
0.0111427
-0.0536805
0.0623791
0.0121505
-0.0582699
-0.0162597
-0.0553084
-0.0158219
-0.0187223
-0.0550498
-0.019171
-0.0555543
-0.00325686
0.0033071
0.0645594
0.0653609
-0.0660457
0.00455849
0.0412609
-0.042024
-0.00398061
0.00127288
0.0412119
-0.00122395
0.000415543
0.042046
0.0663073
0.000241743
-0.00411066
0.0657425
-0.0475911
-0.0662091
0.0703839
0.00585802
0.00926197
-0.0738175
0.0761355
-0.00214729
0.00206061
-0.0772173
0.0770362
-0.0101531
-0.00640899
-0.0753707
0.0726161
-0.0144987
-0.0124569
-0.0706246
0.0684747
-0.0168819
-0.016072
-0.0663133
0.0642531
-0.0176435
-0.0175266
-0.0623059
0.0605059
-0.0175699
-0.0177942
-0.0588226
0.0572612
-0.0170756
-0.0174701
-0.0557864
0.0543968
-0.01633
-0.016831
-0.0530563
0.0517632
-0.0153926
-0.0159752
-0.0504973
0.049269
-0.0142258
-0.01493
-0.04805
0.0468188
-0.0127075
-0.0135798
-0.0455364
0.0442342
-0.0109285
-0.0119078
-0.0429882
0.0419433
-0.00855103
-0.00992084
-0.0412207
0.0409065
-0.0046633
-0.00686363
-0.0410132
0.0415026
0.000712853
-0.00211302
-0.0423117
0.0433587
0.00637295
0.00360216
-0.0445771
0.0458947
0.0111197
0.00893237
-0.0472658
0.0486426
0.0144153
0.0129844
-0.0500041
0.0513298
0.0163458
0.015557
-0.0526237
0.0538918
0.0173879
0.0169682
-0.0551583
0.0564411
0.0180607
0.0177695
-0.0577633
0.0591303
0.0185086
0.0183404
-0.0605373
0.0619634
0.0182767
0.0185308
-0.0633626
0.0640588
0.0165226
0.0176368
-0.0643413
0.0648059
0.0116744
0.0148371
0.00870768
-0.00250816
0.00213853
0.0626326
0.064013
-0.00167495
0.00193432
0.0588325
0.061393
-0.00218748
0.00240776
0.0538291
0.0565827
-0.00258713
0.00271724
0.0490261
0.0515412
-0.00279991
0.00282762
0.0452046
0.0471243
-0.00280732
0.00273624
0.0427815
0.0439727
-0.00261859
0.00246038
0.0417229
0.0422631
-0.00225945
0.00202321
0.0417191
0.0417889
-0.000829506
0.000846017
0.041614
0.042169
0.0419569
0.0425963
-0.0435912
-0.00786722
-0.0054327
0.0449037
-0.04586
-0.0112371
-0.00945722
0.0469656
-0.0481739
-0.0134743