/*--------------------------------*- C++ -*----------------------------------*\
  =========                 |
  \\      /  F ield         | OpenFOAM: The Open Source CFD Toolbox
   \\    /   O peration     | Website:  https://openfoam.org
    \\  /    A nd           | Version:  10
     \\/     M anipulation  |
\*---------------------------------------------------------------------------*/
FoamFile
{
    format      ascii;
    class       surfaceScalarField;
    location    "10";
    object      phi;
}
// * * * * * * * * * * * * * * * * * * * * * * * * * * * * * * * * * * * * * //

dimensions      [0 3 -1 0 0 0 0];

internalField   nonuniform List<scalar> 
12623
(
0.0955151
0.0236275
-0.0364715
-0.0826711
0.0742819
-0.0387268
0.05996
0.0903439
-0.00942273
-0.0837264
0.00280517
-0.00956701
0.0909282
0.00898276
-0.0911246
0.0082735
-0.00647638
0.0893274
-0.089777
-0.0109146
-0.00169325
0.0433949
-0.0496505
0.00794881
-0.0498819
0.0481887
0.00673461
-0.010047
0.00331243
0.00408316
-0.00966516
0.0123166
0.0919876
-0.0403857
-0.0516019
-0.0603445
0.0506188
0.101713
-0.0351722
-0.0233736
0.0260216
0.0325241
0.00386773
0.00667349
-0.0457134
-0.0307509
0.011245
0.00456052
-0.00303961
-0.00563297
0.00411206
-0.00308543
-0.00242659
0.0100725
-0.00542247
-0.000702564
-0.000775505
-0.0131881
0.00143217
0.0125314
-0.0270092
0.00685246
0.0193813
-0.0239495
-0.0162478
5.76036e-06
0.00816739
-0.0077391
-0.00043405
0.00216932
-0.00382369
0.00166013
-0.0118165
0.0221532
-0.0522809
0.00591063
0.0530438
0.00841644
-0.0589853
-0.00171212
-0.063635
0.00589324
0.0636524
-0.0837204
0.00246653
-0.00366769
0.0849216
-0.0824838
-0.00210423
0.000867543
-0.0910407
0.0907832
-0.00194527
0.00220273
-0.0881593
-0.000414871
-0.0908658
0.0117449
-0.00838086
0.0875018
-0.00974038
-0.0882222
0.00709678
0.0894613
-0.0904119
0.0088584
-0.00716145
0.088715
-0.00924739
-0.0880778
0.00691326
-0.0925953
-0.00654958
0.0898975
-0.0882792
0.00742877
0.0876592
-0.0114232
-0.092075
0.0158391
-0.00664212
0.0167901
0.0775112
-0.0897294
-0.0089679
0.0872741
-0.0888305
0.00795953
0.00251361
-0.00259828
0.0908679
-0.0936989
0.0112814
-0.010172
0.0925895
-0.0115776
-0.0907813
0.00865993
-0.0102815
-0.0889182
-0.0911284
-0.00835576
0.0885696
-0.0901285
-0.00869418
-0.0706652
0.00524831
0.0741111
0.0551593
0.00941662
-0.0732701
-0.0571413
0.0187948
0.0935058
-0.0222794
0.0877797
-0.0720752
0.00657495
-0.0700041
0.0731611
0.0162423
-0.0144348
-0.0749686
0.0193694
0.071033
-0.0172414
-0.0106311
0.00708882
0.0808449
-0.0773026
-0.08309
0.0828358
-0.0103769
0.0831442
-0.00598733
0.00680813
-0.083965
0.0737531
-0.0725926
-0.000694321
-0.00046619
0.000574275
0.075692
-0.0025131
-0.0711265
-0.00225936
0.00079323
-0.0694495
-0.0035012
0.00182421
-0.0675893
-0.00528974
0.00342954
-0.0661972
-0.00653776
0.00514567
-0.0646839
-0.00792974
0.00641647
-0.0635138
-0.00912036
0.00795019
-0.0619803
-0.010134
0.00860055
-0.0113333
-0.0601938
0.00954677
0.0734393
-0.0725864
-0.00027858
0.00217365
0.0772923
-0.00377404
0.0752606
0.000352373
-0.0720819
-0.0011988
-0.071541
-0.00280028
-0.0704566
-0.00458562
-0.0701834
-0.00556294
-0.0697279
-0.00699326
-0.0695087
-0.00814888
-0.0689728
-0.00965631
-0.0683251
-0.0107817
-0.067421
-0.0122374
-0.00198903
0.076257
0.000992548
0.079078
-0.00377472
-0.012382
-0.0587087
0.010897
-0.0668742
-0.0129288
-0.00160645
0.0773928
0.000470653
0.0809473
-0.00347569
-0.0128402
-0.0565734
0.0107049
-0.0650912
-0.0146232
-2.98405e-05
0.0782935
-0.000870874
-0.00156631
-0.0129864
-0.0540312
0.0104441
-0.0629656
-0.015112
0.0794863
-0.00329695
-0.00545873
0.0812773
-0.0131188
0.00912768
-0.0500401
-0.0152222
-0.0608622
0.0763489
-0.0766682
-0.000551547
-0.0733341
0.075429
-0.00755358
-0.000282197
0.0768406
-0.076091
0.000243005
0.000643031
0.0754508
-0.0749684
-0.000760969
-0.00028788
0.0750783
-0.0745671
-0.0033114
-0.00108893
0.0751991
-0.0749462
-0.00581587
-0.00395363
0.0756918
-0.0753416
-0.00849909
-0.00624766
0.0759902
-0.0752216
-0.0115503
-0.00900774
0.0749857
-0.0744404
-0.0134741
-0.0124732
0.0739502
-0.0719887
-0.0170734
-0.0151134
-0.0701145
-0.0170965
-0.0529951
0.0555818
0.00811819
0.0497875
0.0059687
-0.0466286
0.00723661
-0.0582003
0.0604354
0.00731167
0.0082784
-0.0633867
0.0650685
0.00626835
0.00564928
-0.0681629
0.0698634
0.00344522
0.00332208
-0.0730181
0.0744056
0.000436695
0.000274795
-0.0777004
0.078452
-0.00121779
-0.00250158
-0.0813033
0.0809882
-0.00345898
-0.00536435
-0.0830934
0.0843069
-0.0046892
-0.00587987
-0.0865889
-0.000702829
-0.00384833
0.00339007
-0.00535549
0.0832427
0.0863664
-0.00250653
0.07258
0.0143434
-0.0672306
-0.0172273
0.00988014
-0.0563989
-0.0516989
0.0541221
0.00354555
0.00406834
-0.00670973
-0.0439872
-0.0504157
0.00278506
-0.0168703
0.0125049
-0.0628652
-0.0763495
0.0778465
-0.0187244
-0.0193746
-0.0738452
0.0959573
-0.0931135
-0.000641014
0.0740034
-0.0784491
-0.00310787
0.0762695
-0.00477265
0.0943845
0.00408642
-0.0468697
0.0775314
-0.0781273
4.43251e-05
-0.00119991
0.0784979
-0.0781232
-0.000131706
0.00101371
0.0787345
-0.0779807
-0.00151478
0.000323438
0.077714
-0.078137
-0.00288834
-0.00135568
0.0782471
-0.0788425
-0.0052205
-0.00384357
0.078784
-0.0793248
-0.00795828
-0.0063061
0.0791358
-0.0795401
-0.011146
-0.00919677
0.0794056
-0.0791075
-0.0137722
-0.0126077
0.0788667
-0.0790213
-0.0169189
-0.0153542
-0.0182712
-0.0569685
0.059867
0.00521971
0.00439017
-0.0629224
0.0657014
0.00453259
0.00522306
-0.0675551
0.0709598
0.00286365
0.00379564
-0.0728131
0.0760912
0.00016714
0.00146875
-0.0775173
0.0804109
-0.00245691
-0.00115127
-0.0812395
0.0843878
-0.00436609
-0.00333023
-0.0837446
0.0856985
-0.00541284
-0.00472115
-0.0853101
0.0859698
-0.00534898
-0.00549148
-0.0869446
0.0911524
-0.00491061
-0.00482306
-0.00237603
0.00289895
0.00335496
0.0769888
0.0866671
-0.000266872
0.0751538
0.00138254
0.0756681
-0.00161356
0.000178114
-0.0489802
-0.00422266
-0.0413781
0.0079395
-0.0518335
-0.0838355
0.0833619
-0.0182507
-0.0827077
-0.0205024
0.015458
-0.0188478
-0.0704553
0.0108417
-0.0582489
-0.0628613
0.0630746
-3.51313e-05
-0.00198303
0.00172704
-0.0487242
-0.0636647
-0.00117962
0.00584426
-0.00108835
0.086112
0.0925315
0.00769719
-0.00282203
0.00173832
0.0762375
0.0752587
-0.0741765
0.00030029
0.0778443
-0.00540764
-0.0949235
0.00400947
0.0950005
-0.0915094
-0.00405512
-0.0431528
0.0767483
-0.0780351
-0.00182111
-0.00220084
0.0794698
-0.0807358
0.00131033
0.000234818
0.0803971
-0.0808258
0.000296974
0.000675058
0.0801937
-0.0806862
-0.00102229
-0.000308712
0.0802588
-0.0803543
-0.00279287
-0.00178301
0.08046
-0.0805961
-0.00508442
-0.0037379
0.080731
-0.0808912
-0.00779804
-0.00617114
0.0811707
-0.0815696
-0.0107471
-0.00891732
0.0823398
-0.0822666
-0.0138454
-0.0118376
0.0827541
-0.0827389
-0.0169341
-0.0148667
-0.0176482
-0.0644824
0.0655088
0.00251922
0.00137718
-0.0671962
0.0694504
0.0029655
0.00270277
-0.0717026
0.0737476
0.00248759
0.00297084
-0.0760079
0.078316
0.000555584
0.00153536
-0.0803868
0.0823657
-0.0018118
-0.000602063
-0.0839608
0.0853277
-0.00382376
-0.00274637
-0.0863013
0.0870078
-0.00507262
-0.00430388
-0.0874084
0.0875929
-0.00559733
-0.00512167
-0.087428
0.0876056
-0.00552661
-0.00532662
-0.0877628
0.0882756
-0.00542334
-0.00498027
-0.00560986
0.000470852
-0.00050062
0.0770186
0.0860496
0.0769058
-0.0810281
-0.0205274
-0.000975775
-0.0386753
0.00565321
-0.046645
0.00453937
-0.00360438
-0.0645997
0.00467764
-0.0488625
0.0134594
-0.0179831
-0.0659316
0.0081501
-0.0529396
-0.00263444
0.00157546
0.0772965
-0.00459943
0.0798093
0.00671257
-0.00192025
0.0813197
0.00818769
0.0910564
0.0861606
-0.0870577
-0.00315794
-0.000168781
0.0903388
0.0788415
-0.0771171
-0.00142411
0.0789168
-0.00548302
-0.0786928
-0.0203184
0.0155852
-0.0197508
-0.0745272
0.0105402
-0.0608867
0.0944018
0.0082958
-0.0384754
0.0784024
-0.0811767
0.000953187
-0.000915502
0.0823268
-0.0820631
0.00104662
0.00138492
0.0819561
-0.0817461
8.69446e-05
0.000568049
0.0815727
-0.0814361
-0.00115887
-0.000482085
0.0813441
-0.0812893
-0.00284764
-0.00187501
0.0812773
-0.0813251
-0.00503663
-0.0037499
0.081445
-0.0816732
-0.00756985
-0.00605127
0.0820032
-0.0824751
-0.0102753
-0.00858726
0.0830446
-0.0837575
-0.0131325
-0.011268
0.0845424
-0.0854299
-0.0160467
-0.0140818
0.0862455
-0.0867563
-0.0177399
-0.0168326
0.087493
-0.0888015
-0.019219
-0.0197657
0.0875022
-0.0875266
-0.0197264
-0.0216178
-0.0757967
0.0758193
-5.7718e-05
0.0751041
-0.0753577
-0.00335071
-0.00187227
-0.076553
0.0776934
0.00137885
0.000643487
-0.0785001
0.079594
0.00187158
0.00189608
-0.0811383
0.0827471
0.000878787
0.00142655
-0.084243
0.0857248
-0.000926184
3.9401e-05
-0.0869413
0.0879848
-0.00285533
-0.00181852
-0.0887067
0.0891883
-0.0043053
-0.00346832
-0.0893901
0.0893763
-0.00505882
-0.00450566
-0.0891915
0.0888722
-0.00527803
-0.00493691
-0.0885625
0.0880498
-0.00501394
-0.00501688
-0.087575
0.0870696
-0.00491799
-0.00450545
-0.00559796
-0.00272132
0.00082193
0.078918
0.081408
0.0793032
-0.00639629
0.0074639
-0.0656673
-0.0756417
-0.00611228
-0.016253
0.0126402
-0.0709143
-0.0856555
-0.0181241
0.00228881
-0.0362864
0.0023005
-0.0407954
-0.0038158
0.0781332
0.0113696
0.09122
0.0863737
-0.0857841
-0.00374758
0.0872196
-0.0010147
0.00826808
-0.0496667
0.00439476
-0.0467941
0.00934874
-0.00887129
-0.0761192
0.010571
-0.0668896
0.00702559
-0.0552721
-0.0146873
0.00982705
-0.0660541
-0.0169872
-0.0833555
0.09334
0.00529459
-0.0338861
0.0818002
-0.0818792
-0.00134511
-0.0793845
0.0792
-0.00363126
-0.00306729
0.0833051
-0.0835839
0.00123207
0.000510328
0.08307
-0.0827466
0.000723259
0.000870944
0.082437
-0.0821401
-0.00020992
0.000258437
0.0818897
-0.0816731
-0.0013755
-0.000732504
0.0815124
-0.0814051
-0.00295495
-0.00203571
0.081369
-0.0814165
-0.00498919
-0.00378593
0.0815594
-0.0818246
-0.00730456
-0.00590838
0.082205
-0.08274
-0.00974032
-0.00820691
0.0833989
-0.084241
-0.0122903
-0.0106091
0.0852123
-0.0863859
-0.0148731
-0.0131105
0.0876874
-0.0881993
-0.017228
-0.015531
0.0904267
-0.0907544
-0.0188913
-0.0175383
0.0933469
-0.0946405
-0.0184328
-0.0190253
0.0949903
-0.0946373
-0.0173402
-0.0177743
-0.0805842
0.081598
-0.0043645
0.0801449
-0.0803138
-0.0087024
-0.00655159
-0.0820394
0.0831023
-0.00112065
-0.00231365
-0.083667
0.0843868
0.000659
7.88565e-05
-0.0854226
0.0864668
0.000827351
0.00086027
-0.0874565
0.0884407
-0.00010537
0.000436876
-0.0892623
0.0899492
-0.00161313
-0.000782222
-0.0904044
0.0906647
-0.00311564
-0.00227371
-0.0907041
0.0905468
-0.00414801
-0.0035077
-0.0902427
0.0897991
-0.00461522
-0.00420152
-0.089307
0.088748
-0.00471904
-0.00444482
-0.0881511
0.0876822
-0.00454513
-0.00441994
-0.0872708
0.086733
-0.00438018
-0.00409399
-0.00464907
-0.0121999
0.0128978
-0.076817
-0.0806777
-0.011836
-0.0147423
0.0109412
-0.0795545
-0.0932105
-0.0161691
0.093132
0.00173292
0.00638179
-0.00451738
0.0893556
0.0893418
-0.00274022
0.000636687
0.0834232
0.0837988
-0.00171786
0.00151928
0.0791166
0.0803268
-0.000541209
-0.00106524
0.078903
0.0802812
0.0023082
-0.00281805
0.0786431
0.0810523
-0.00263134
0.0790132
0.00624541
-0.0342638
-0.00163936
-0.0347613
0.0114248
-0.0505205
0.000304166
-0.0400727
0.0134055
-0.0673973
0.00319009
-0.0486352
0.0156953
-0.0144287
-0.0819442
0.0162466
-0.0773684
0.00581275
-0.0609256
0.0124316
-0.0146086
-0.0910336
0.00797001
-0.0750929
0.0786537
-0.0795491
-0.0027359
0.0784894
-0.00246705
-0.02928
0.0808077
-0.0820025
-0.00015027
-0.00180867
0.0830149
-0.0829963
0.0012135
0.00152267
0.0828966
-0.082557
0.000383655
0.000771225
0.0822336
-0.0819232
-0.000520304
-6.49598e-05
0.0816603
-0.0814376
-0.00159815
-0.000995428
0.0812812
-0.0811897
-0.00304648
-0.00219216
0.0811801
-0.0812634
-0.00490593
-0.0037955
0.0814435
-0.0817447
-0.0070034
-0.00572823
0.0821543
-0.0827141
-0.00918048
-0.00779729
0.0833948
-0.0842601
-0.011425
-0.00992843
0.0852575
-0.0864652
-0.0136654
-0.0121131
0.0877993
-0.0893599
-0.0156675
-0.0141969
0.090993
-0.0927804
-0.0171039
-0.0159052
0.0949327
-0.0963103
-0.0170552
-0.0168729
0.0971234
-0.0988963
-0.0155673
-0.0169612
0.0999935
-0.100838
-0.0137644
-0.0150719
-0.081876
0.0822973
-0.00912366
0.0822191
-0.0831921
-0.0134557
-0.011493
-0.0826433
0.0832383
-0.00495954
-0.0068976
-0.0840911
0.0849659
-0.00199541
-0.00316647
-0.0859811
0.0869976
-0.000357534
-0.000936344
-0.0879314
0.0888327
-7.39014e-05
-7.35484e-05
-0.0895726
0.0901998
-0.000732545
-0.000303021
-0.090624
0.0908776
-0.00186683
-0.0012064
-0.0909337
0.090809
-0.00299088
-0.00232979
-0.0905379
0.0901196
-0.00372972
-0.00323662
-0.089636
0.0890687
-0.00404793
-0.00371793
-0.0885127
0.0879283
-0.00413473
-0.00388876
-0.0873938
0.0868558
-0.00400714
-0.00388535
-0.086358
0.0854515
-0.00347368
-0.0035962
-0.0842403
0.0838283
-0.00333553
-0.00343791
-0.0847781
0.0864666
4.43857e-05
-0.00196454
0.00499809
0.00152364
0.0019664
0.0858655
-0.0061489
0.0903827
0.0847165
-0.00234223
0.00254114
0.0832243
0.083423
-0.00250647
0.0005575
0.0810655
0.0803615
-0.000678173
-0.00203921
0.0816203
0.0801606
0.0014463
-0.00294504
0.0801418
0.0804594
-0.0175329
0.0189743
-0.0833856
-0.0845781
-0.0161469
-0.0113552
0.00947198
-0.0891503
-0.10076
-0.0114324
0.00206202
-0.00103869
0.0774661
0.0781302
0.0103416
-0.0331806
-0.00603136
-0.0284258
0.0147796
-0.0518946
-0.00414735
-0.0327352
0.0168641
-0.0680148
-0.00119047
-0.041632
0.0200644
-0.0784586
0.00197023
-0.0549259
0.0205077
-0.0187193
-0.0863666
0.0224427
-0.0853206
0.00498958
-0.0706105
0.0092935
-0.0992929
-0.0107611
0.00659634
-0.0864532
-0.0874913
0.0853412
-0.0165692
-0.0207956
0.0233217
-0.0888926
-0.0894843
-0.0188026
-0.00851866
0.00729377
-0.098068
-0.103509
0.102888
-0.0101399
-0.103035
-0.00899267
0.0780893
-0.0781754
-0.000952592
-0.00277102
0.00184317
0.078394
0.0746157
0.000702597
-0.0249698
0.0785914
-0.0810597
-0.000267604
-0.00205105
0.0821265
-0.0831525
0.000875704
-0.000741843
0.0829229
-0.082645
0.000935615
0.00129308
0.0823527
-0.0820383
6.92429e-05
0.000478954
0.0817445
-0.0814634
-0.000801396
-0.000358777
0.0812296
-0.0810383
-0.00178943
-0.00122925
0.0809154
-0.0808621
-0.00309978
-0.00231511
0.0808914
-0.0810138
-0.00478357
-0.00376616
0.0812268
-0.0815541
-0.00667619
-0.00551514
0.0819793
-0.0825451
-0.00861468
-0.00737207
0.0832215
-0.0840706
-0.0105759
-0.00925202
0.0850389
-0.0862034
-0.0125008
-0.0111449
0.087485
-0.088976
-0.0141765
-0.0129154
0.0905583
-0.092316
-0.0153462
-0.0143229
0.0940892
-0.095488
-0.0156564
-0.0150996
0.0974237
-0.0990232
-0.0139678
-0.0150255
0.100247
-0.10256
-0.0114517
-0.0138479
-0.0111047
-0.0840014
0.0837343
-0.0131886
-0.0148071
-0.0830989
0.0832427
-0.00926754
-0.0108575
-0.0832439
0.0838387
-0.00555432
-0.00689877
-0.0844955
0.0853194
-0.00281927
-0.00382329
-0.0861862
0.0871026
-0.00127395
-0.00180318
-0.0879133
0.0886653
-0.000825832
-0.000884245
-0.0892417
0.0896862
-0.00117701
-0.000879468
-0.08994
0.0900313
-0.0019581
-0.00146025
-0.0899587
0.0897311
-0.00276319
-0.00225723
-0.0893974
0.0889501
-0.00328234
-0.00290301
-0.0884712
0.0879362
-0.00351301
-0.00323902
-0.0874285
0.0869036
-0.00360981
-0.00338101
-0.0864271
0.0859463
-0.0035263
-0.00340889
-0.0855142
0.0850842
-0.00304365
-0.00316412
-0.0841618
0.0835385
-0.00271227
-0.00251556
-0.0831073
0.0841841
-0.00103239
-0.0015333
0.000263962
0.00445775
0.000738021
0.0851869
0.086551
-0.00115869
0.0016098
0.0854144
0.0842958
-0.00198508
0.00219139
0.083018
0.0830477
-0.00217469
0.00200658
0.0812336
0.0803782
-0.00182147
0.00215476
0.0812871
0.0803457
-0.00133694
-0.000466384
0.0819451
0.0812772
0.079507
0.0143899
-0.0327909
-0.0105574
-0.0220157
0.0180318
-0.0530622
-0.00861213
-0.0253136
0.0205373
-0.0684877
-0.00516852
-0.0344932
0.0238317
-0.0798475
-0.00123437
-0.0487019
0.0257345
-0.0877334
0.00215758
-0.0661717
0.0229896
-0.0196664
-0.0928075
0.0258326
-0.0917356
0.00463575
-0.0837952
0.00704578
-0.103048
-0.00703278
0.00527104
-0.0962932
-0.0923566
0.0901672
-0.0174771
-0.0212114
0.0240216
-0.0956177
-0.0949824
-0.0185856
-0.00569954
0.00472461
-0.102073
-0.103399
0.103947
-0.00758118
-0.103002
-0.00609633
-0.00462876
0.00271605
0.0803067
-0.00602964
0.0760166
0.0777778
-0.0789113
0.000180928
0.0782164
0.000264011
-0.0211373
0.0797565
-0.0810302
0.00100609
-0.0012059
0.0820569
-0.0824139
0.0012327
0.000284873
0.0822016
-0.0819535
0.000687541
0.00108078
0.0817002
-0.0814342
-0.000196743
0.000225623
0.0811877
-0.0809544
-0.00103463
-0.000605295
0.0807647
-0.0806168
-0.00193737
-0.00141897
0.0805336
-0.0805195
-0.00311385
-0.00239831
0.0805837
-0.0807373
-0.00462999
-0.00370195
0.0809732
-0.0813143
-0.00633509
-0.00527924
0.0817418
-0.0822974
-0.00805911
-0.00694455
0.0829506
-0.0837603
-0.00976614
-0.00859882
0.0846744
-0.085765
-0.0114102
-0.0102308
0.0869545
-0.0883262
-0.0128047
-0.011726
0.0897733
-0.0913833
-0.0137363
-0.0128758
0.0930167
-0.0947303
-0.0139429
-0.0134662
0.0965269
-0.097315
-0.0131798
-0.0132289
0.0992036
-0.0996617
-0.0109936
-0.0119593
0.100983
-0.102674
-0.00844886
-0.00978345
-0.00771958
-0.0880364
0.0865777
-0.0151106
-0.0166717
-0.0852781
0.0844888
-0.0123993
-0.0135074
-0.0837926
0.0835131
-0.00898809
-0.0101613
-0.0835665
0.08386
-0.00584783
-0.00695215
-0.0843378
0.0849741
-0.00345556
-0.00430108
-0.0856454
0.0863709
-0.00199939
-0.00247453
-0.0870161
0.0876113
-0.00142107
-0.00152948
-0.0880614
0.0883996
-0.00151521
-0.00132949
-0.0885811
0.0886269
-0.00200391
-0.00164183
-0.0885387
0.0883207
-0.00254511
-0.00216902
-0.0880181
0.0876236
-0.00288786
-0.00260046
-0.0872095
0.0867529
-0.00305643
-0.00282488
-0.0863223
0.0858764
-0.00316393
-0.00295038
-0.0854686
0.0850512
-0.00310889
-0.00300107
-0.0846729
0.0842932
-0.002664
-0.00278582
-0.0839698
0.0832592
-0.00200163
-0.0021921
-0.0834198
0.082944
-0.000556585
-0.00169395
-0.000518404
0.00636722
-0.0025156
0.0854758
0.0874476
0.000192793
0.000475729
0.0845184
0.0842282
-0.000879278
0.00131079
0.0849829
0.0838923
-0.00166901
0.00186285
0.0828241
0.0826895
-0.00184957
0.00170128
0.0813819
0.0803915
-0.00154533
0.000785122
0.0820473
0.0805016
0.00059019
-0.00147848
0.0828334
0.0826525
0.0807446
0.0181109
-0.03287
-0.014851
-0.0157768
0.0211739
-0.0536988
-0.0126699
-0.0178122
0.0242019
-0.0688579
-0.00862898
-0.0270986
0.0272924
-0.0814055
-0.00395463
-0.0425897
0.0286028
-0.0905036
0.000174598
-0.0617106
0.0278261
-0.09554
0.00285663
-0.0813807
0.0217913
-0.0189339
-0.0978398
0.0246382
-0.0984646
0.00370241
-0.095271
0.00459739
-0.00500825
-0.102591
0.00359962
-0.101075
0.012223
0.0599638
-0.0178774
0.0767952
-0.0784831
0.00186881
-0.0713783
0.0509729
0.0326284
0.00568088
0.080721
-0.080827
0.00111209
0.00103203
0.0816891
-0.0817954
0.00133901
0.00114696
0.0815018
-0.0812814
0.000467099
0.000787215
0.0810726
-0.0808585
-0.000410844
1.68524e-05
0.0806629
-0.0804809
-0.00121661
-0.000800918
0.0803372
-0.0802329
-0.00204166
-0.00156271
0.0801876
-0.0802082
-0.00309324
-0.00244364
0.0803008
-0.0804775
-0.00445327
-0.00360931
0.0807283
-0.0810752
-0.00598819
-0.00502852
0.0814973
-0.082034
-0.00752246
-0.00652241
0.0826541
-0.0834124
-0.00900788
-0.00797865
0.0842587
-0.085258
-0.0104109
-0.00938451
0.0863365
-0.0875689
-0.0115723
-0.0106474
0.0888589
-0.090286
-0.0123091
-0.0115859
0.0917216
-0.0932251
-0.0124393
-0.0120306
0.0946553
-0.0960475
-0.0117876
-0.0117987
0.0972781
-0.0981116
-0.01016
-0.0107287
0.0983176
-0.0991633
-0.00760312
-0.00957754
0.0999974
-0.101511
-0.00606758
-0.00688552
0.101726
-0.101685
-0.00505002
-0.00588089
-0.0917222
0.0895739
-0.0153289
0.0930994
-0.0971352
-0.014898
-0.0172084
-0.0877662
0.0865566
-0.013901
-0.014864
-0.0853894
0.0845715
-0.0115814
-0.0123402
-0.0839813
0.0836446
-0.00865138
-0.00957105
-0.0835684
0.0837085
-0.00598792
-0.00687596
-0.0840076
0.084451
-0.00389894
-0.0046002
-0.0849381
0.0854767
-0.0025379
-0.00296171
-0.0859632
0.086417
-0.0018749
-0.00201604
-0.0867635
0.0870263
-0.00177801
-0.00167591
-0.0871678
0.0872011
-0.00203725
-0.00178337
-0.0871254
0.0869422
-0.00236197
-0.00209325
-0.08669
0.0863632
-0.0025611
-0.00234818
-0.0860221
0.0856471
-0.0026814
-0.00248382
-0.0852924
0.0849217
-0.00279328
-0.00259565
-0.084578
0.0842213
-0.00275219
-0.00265739
-0.0838949
0.083565
-0.00233413
-0.00245938
-0.0832601
0.0826947
-0.00143623
-0.00188713
-0.08233
0.0827477
-0.000974369
-0.00132925
-0.0823035
0.0836297
0.00147888
-7.41153e-05
0.00439032
0.00259721
-0.000462301
0.0833409
-0.00479059
0.0857428
0.0852543
-0.000614808
0.000284286
0.0848489
0.083151
-0.000667389
0.00106972
0.0845806
0.0835092
-0.00139501
0.00156285
0.0826563
0.0823642
-0.00154302
0.00140783
0.0815171
0.0804113
-0.0012763
0.000390794
0.0829328
0.0806332
-0.000518331
0.000179544
0.0831722
0.082525
0.00286483
-0.00511626
0.0825581
0.083789
0.0146805
0.0962561
0.0855808
-0.0180155
0.0214969
-0.101321
-0.0992073
-0.0159434
-0.00307492
0.00321273
-0.102729
-0.101564
-0.00319585
0.0213486
-0.0330447
-0.0186009
-0.00984587
-0.0862436
0.00506122
0.0241349
-0.0536318
-0.0159797
-0.0104615
0.0923697
-0.0735883
0.0138471
0.00271276
0.00599361
0.0875497
0.00718262
0.0878998
0.0275187
-0.0690841
-0.0111705
-0.0198827
0.0301334
-0.0829361
-0.00569225
-0.0367229
0.0307503
-0.0934278
-0.000990756
-0.0578632
0.029036
-0.0999379
0.00195209
-0.0796304
0.0255089
-0.102477
0.00270491
-0.0943763
0.017919
-0.0155743
-0.101552
0.0209381
-0.10434
0.00291087
-0.100773
-0.00240582
0.00221468
-0.102538
-0.00248437
-0.101485
-0.0151297
0.077739
-0.0794076
0.00353748
0.00983156
0.079993
-0.0807349
0.00185404
0.00161736
0.0810821
-0.0809221
0.00117895
0.00149417
0.0808564
-0.0806903
0.00030104
0.000721524
0.0805232
-0.0803558
-0.00057819
-0.000150267
0.0802079
-0.0800737
-0.00135081
-0.000948817
0.0799734
-0.0799092
-0.00210578
-0.00166309
0.0798976
-0.0799474
-0.00304353
-0.00245524
0.0800621
-0.0802551
-0.00426032
-0.00349454
0.0805142
-0.0808611
-0.00564132
-0.0047694
0.0812731
-0.0817869
-0.0070087
-0.00611032
0.0823711
-0.0830756
-0.00830336
-0.00739449
0.0838527
-0.0847603
-0.00950329
-0.0086074
0.0857295
-0.0868261
-0.0104758
-0.0096782
0.0879629
-0.089209
-0.011063
-0.010449
0.0904528
-0.0917537
-0.0111384
-0.0107868
0.0929843
-0.0941873
-0.0105845
-0.0105682
0.0951833
-0.0959239
-0.00941933
-0.00973276
0.0971208
-0.0968724
-0.00785146
-0.0083807
0.0970932
-0.0971954
-0.00596537
-0.00666476
0.098022
-0.0991292
-0.00394284
-0.00505427
0.0990488
-0.0993216
-0.00221149
-0.00327628
-0.0944763
0.0938477
-0.0142695
0.0970929
-0.0997407
-0.0129265
-0.0133268
-0.0909294
0.0895652
-0.0139647
-0.01429
-0.0877162
0.0865891
-0.0127739
-0.0130149
-0.0855396
0.0846276
-0.0106694
-0.0112907
-0.0840201
0.0836308
-0.0082621
-0.00896355
-0.0834688
0.0834855
-0.00600463
-0.00671392
-0.0836452
0.0839278
-0.00418155
-0.00475988
-0.0842608
0.0846419
-0.002919
-0.00329475
-0.0849943
0.0853296
-0.0022102
-0.00236844
-0.0855905
0.085792
-0.00197952
-0.00193675
-0.0859018
0.0859267
-0.0020621
-0.00189321
-0.0858639
0.085714
-0.00221212
-0.00203045
-0.0855087
0.0852442
-0.00229653
-0.0021429
-0.0849688
0.0846655
-0.00237809
-0.00220846
-0.0843763
0.0840701
-0.00248711
-0.00230642
-0.0837818
0.0834788
-0.00244926
-0.00236905
-0.0831993
0.0829176
-0.00205238
-0.00217986
-0.0826511
0.082514
-0.00129914
-0.00162064
-0.0820016
0.0814484
-0.000421262
-0.000816845
-0.0813188
0.0826629
0.000134739
5.55305e-05
0.000809653
0.00388455
-0.0022601
0.0841183
0.0866206
-0.00026733
-0.000395275
0.0840035
0.0827268
0.000152247
0.000157842
0.0845388
0.082908
-0.000512513
0.000877537
0.0842155
0.0831545
-0.00116128
0.00129573
0.0825218
0.0820805
-0.00126388
0.00113732
0.0816437
0.0804432
-0.00102596
0.00101183
0.0829469
0.0807445
-0.0011197
0.000815
0.0834769
0.0824171
-0.000491129
-0.00144919
0.0844984
0.0841128
0.0901252
-0.0133239
0.01589
-0.104118
-0.101637
-0.0114276
-0.0015327
0.00121686
-0.101169
-0.0995317
-0.00132262
0.0239562
-0.032866
-0.0215138
-0.00431178
0.0878064
-0.0819235
0.00796413
0.0866335
0.00835547
0.0267077
-0.0528208
-0.018167
-0.00346505
0.0300683
-0.0690191
-0.0124705
-0.0131044
0.03201
-0.0841959
-0.00627947
-0.0314341
0.0318363
-0.0962281
-0.00120229
-0.0547088
0.0292185
-0.103647
0.0017812
-0.0787067
0.0247554
-0.106294
0.00304955
-0.094515
0.0191903
-0.107641
0.00214514
-0.100704
0.011847
-0.0106675
-0.102817
0.0145391
-0.10681
0.000993187
-0.102314
-0.0997549
0.0978296
-0.0087422
0.00730344
-0.0995112
-0.0075471
0.00959393
-0.105107
-0.00494686
0.0846939
0.000203914
0.000301485
-0.101675
-0.000864702
-0.0984631
-0.0126873
0.0797143
-0.0802599
0.00408302
0.00762243
0.0809712
-0.0808167
0.00169956
0.00232869
0.0806603
-0.0805
0.00101864
0.00133777
0.0803484
-0.0802001
0.000152707
0.000569929
0.0800671
-0.0799409
-0.00070438
-0.000283215
0.0798342
-0.0797429
-0.00144206
-0.00105558
0.0796814
-0.0796536
-0.00213359
-0.00172459
0.0796716
-0.0797457
-0.00296942
-0.00243728
0.0798774
-0.080081
-0.0040567
-0.00336281
0.0803434
-0.0806855
-0.00529918
-0.00450706
0.0810839
-0.0815721
-0.00652046
-0.00571194
0.0821189
-0.0827696
-0.00765265
-0.00684776
0.083479
-0.084299
-0.00868334
-0.00789794
0.0851659
-0.0861372
-0.00950454
-0.00881123
0.0871343
-0.088217
-0.00998029
-0.00945192
0.0892901
-0.0904068
-0.0100217
-0.00971378
0.0914587
-0.0924889
-0.00955428
-0.00951625
0.093401
-0.0942193
-0.00860107
-0.00882064
0.0948784
-0.0954001
-0.00732972
-0.00772164
0.095629
-0.095611
-0.0059834
-0.00643587
0.0954612
-0.0950463
-0.00435765
-0.00520409
0.0948841
-0.0954657
-0.00162997
-0.0034385
0.0960382
-0.0960599
-0.000843013
-0.000750067
-0.0965054
0.0948874
-0.0113085
-0.0101033
-0.0939572
0.0921717
-0.012484
-0.0123965
-0.0902775
0.0888542
-0.0125414
-0.0123958
-0.0876661
0.0864922
-0.0116001
-0.0118268
-0.0853902
0.0845507
-0.00983
-0.0101886
-0.0839604
0.0835423
-0.007844
-0.00837326
-0.0833219
0.0832488
-0.00593153
-0.00649344
-0.0833036
0.0834612
-0.00433924
-0.00481466
-0.0836719
0.0839271
-0.0031742
-0.00350537
-0.0841715
0.0844105
-0.00244924
-0.00261287
-0.0846007
0.0847498
-0.00212865
-0.00212694
-0.0848306
0.0848452
-0.00207664
-0.00197401
-0.0847908
0.0846672
-0.0020886
-0.00197602
-0.0845007
0.0842877
-0.00208357
-0.00197635
-0.0840665
0.0838215
-0.00213313
-0.00198723
-0.0835853
0.0833314
-0.00223321
-0.00207023
-0.0830891
0.082832
-0.00219216
-0.0021267
-0.0825946
0.0823566
-0.00181442
-0.00194245
-0.0821536
0.0819682
-0.00111383
-0.00141757
-0.0818274
0.0817127
-0.00030656
-0.00067597
-0.0817693
0.0821539
-0.000249812
-1.13933e-06
-0.0817544
0.0852124
0.00160325
0.0012091
0.00456338
0.00242778
-0.00113914
0.0828297
0.0841015
0.00060078
-0.000429238
0.083832
0.0821885
0.000204908
8.10668e-05
0.0842529
0.0826837
-0.000403121
0.000725496
0.0838932
0.0828324
-0.000963927
0.00106285
0.0824229
0.081842
-0.00101746
0.000897583
0.0817636
0.0804886
-0.000803505
0.000805934
0.0829445
0.0808386
-0.000922413
0.000208952
0.0841904
0.0823006
-0.00134246
0.00076989
0.085071
0.0829793
-0.00665864
0.00552338
0.088685
0.0842365
-0.00107783
-0.0109338
0.0986452
0.0923454
0.0257968
-0.0319551
-0.0233414
0.000862625
0.000138906
-0.000738687
-0.0954601
-0.000806322
-0.0975179
0.0868921
-0.0933942
-0.00443166
-0.0172922
0.059308
0.0566294
0.0766072
-0.00700731
-0.0922703
0.0915658
-0.000138476
-0.0913749
-0.0016341
0.0285399
-0.0512924
-0.0189919
0.00305628
0.0314492
-0.0684582
-0.0123869
-0.00699694
0.0325624
-0.084922
-0.0056587
-0.0269777
0.0315591
-0.0985687
-0.000478851
-0.0524487
0.0281398
-0.107032
0.00224824
-0.0779054
0.0229203
-0.110024
0.00263877
-0.0950086
0.0168499
-0.109951
0.00174251
-0.101453
-0.00615734
-0.100497
0.00714356
-0.0981903
0.0971779
-0.00514493
0.0039535
-0.0986184
-0.00352549
-0.101586
0.0050419
0.0116185
-0.108835
0.000326129
-0.102339
-0.106137
0.00817407
0.0121289
-0.0257404
0.0729195
-0.0857665
0.00384929
-0.00956374
0.078322
-0.0102319
0.0869352
-0.0842902
0.00531913
0.00189646
0.0820754
-0.0806216
0.00262919
0.00540764
0.0805522
-0.0803879
0.00153518
0.00225931
0.0802317
-0.0800771
0.000863971
0.00118165
0.0799405
-0.0798139
2.61116e-05
0.000433343
0.0797082
-0.0796155
-0.00079711
-0.000388906
0.0795438
-0.0794901
-0.00149583
-0.00112721
0.0794632
-0.079468
-0.00212882
-0.00175145
0.0795122
-0.0796073
-0.00287436
-0.00239306
0.0797524
-0.079963
-0.00384614
-0.00321764
0.0802252
-0.0805597
-0.00496461
-0.00424488
0.0809427
-0.081405
-0.00605821
-0.00532897
0.0819153
-0.0825148
-0.0070531
-0.00633745
0.083161
-0.0839003
-0.00794408
-0.00725175
0.0846745
-0.0855339
-0.00864517
-0.00803696
0.086408
-0.0873492
-0.00903911
-0.00857782
0.0882755
-0.089234
-0.00906318
-0.00878744
0.090134
-0.0910162
-0.00867204
-0.00861633
0.0917967
-0.0925108
-0.00788695
-0.0080401
0.0930944
-0.0935812
-0.00684287
-0.0071381
0.0939478
-0.0942152
-0.00571604
-0.00606927
0.0944151
-0.0941094
-0.00466333
-0.00500421
0.0934806
-0.0924115
-0.00269901
-0.00406733
-0.0015958
-0.0967751
0.0960022
-0.00796929
-0.00714431
-0.0954096
0.0942471
-0.010146
-0.00951075
-0.0926368
0.0913295
-0.0111768
-0.0107862
-0.0898614
0.0884261
-0.0111061
-0.0109277
-0.0872134
0.0860878
-0.0104745
-0.010614
-0.0851902
0.0844228
-0.00906256
-0.00929108
-0.0838591
0.0834309
-0.00741575
-0.00780963
-0.0831722
0.0830348
-0.00579415
-0.00623477
-0.0830114
0.0830738
-0.00440159
-0.00479123
-0.0831892
0.0833457
-0.00333064
-0.00362082
-0.0835046
0.0836662
-0.0026108
-0.00277182
-0.0837978
0.0839013
-0.0022322
-0.00225853
-0.0839548
0.083957
-0.00207891
-0.00202746
-0.0839065
0.0838023
-0.00198439
-0.00192548
-0.0836658
0.0834933
-0.00191107
-0.00183989
-0.0833143
0.0831145
-0.00193333
-0.00180819
-0.0829193
0.0827065
-0.00202035
-0.00187504
-0.0825013
0.0822828
-0.00197369
-0.0019215
-0.0820821
0.0818833
-0.00161568
-0.00174171
-0.0817176
0.0815718
-0.000967972
-0.00125186
-0.0814659
0.0813882
-0.000228889
-0.00057008
-0.0812998
0.080667
0.000382931
8.72969e-05
-0.0813016
0.0825344
0.000370362
0.000574554
0.00133128
0.00472277
-0.00307287
0.083044
0.0853548
0.00126363
-0.000698288
0.0822643
0.0822923
0.000585366
-0.000426305
0.0836729
0.0820756
0.000219763
4.03774e-05
0.0839927
0.0824771
-0.000327271
0.000604939
0.0836155
0.0825456
-0.000798185
0.000863402
0.0823577
0.0816488
-0.000805926
0.000692626
0.0818769
0.080546
-0.000613443
0.000628032
0.0829299
0.0809178