/*--------------------------------*- C++ -*----------------------------------*\
  =========                 |
  \\      /  F ield         | OpenFOAM: The Open Source CFD Toolbox
   \\    /   O peration     | Website:  https://openfoam.org
    \\  /    A nd           | Version:  10
     \\/     M anipulation  |
\*---------------------------------------------------------------------------*/
FoamFile
{
    format      ascii;
    class       surfaceScalarField;
    location    "25";
    object      phi;
}
// * * * * * * * * * * * * * * * * * * * * * * * * * * * * * * * * * * * * * //

dimensions      [0 3 -1 0 0 0 0];

internalField   nonuniform List<scalar> 
81299
(
0.0328914
0.0257671
-0.0395428
-0.0191157
0.0506246
-0.0301114
0.0123783
-0.0525191
-0.0245942
0.0197203
0.057393
-0.00892518
0.0292707
-0.0728647
0.0748186
-0.0784857
-0.0052581
0.0579791
-0.00775462
0.0823164
-0.00461709
-0.0434049
0.0341784
0.0666196
0.0439285
-0.0580627
-0.0569598
-0.0307488
0.0106166
0.077092
0.00186888
-0.0348859
-0.0239428
0.0363653
-0.00753093
-0.0269655
-0.0172936
0.0229101
-0.0420505
-0.000676124
0.0533432
-0.0196112
0.00898489
-0.0314242
-0.02873
-0.125112
0.0306519
0.10947
-0.0150096
-0.00861761
0.0181898
-0.0195834
0.0204099
0.0248379
-0.0199712
-0.0252767
0.00147766
0.0524915
-0.0335592
-0.0376273
-0.0337598
-0.0111527
0.00331569
0.0153163
-0.00747928
-0.0173354
-0.00134825
-0.000662633
-0.0376407
-0.0783014
0.0266712
0.0822821
0.0357322
-0.0474139
0.0793021
0.0138492
-0.0664801
0.0744546
-0.00651779
0.0113653
-0.0600659
0.0334376
0.04621
-0.0195817
-0.00893668
-0.0903321
0.0392028
0.0728277
-0.00730977
-0.0145678
0.00940181
0.0123272
-0.00718867
-0.0145403
0.0115136
0.00841267
-0.0105244
-0.00667142
0.00872599
0.00945898
0.00752693
-0.00187116
0.021183
-0.0211701
-0.00780362
0.00779075
-0.000442252
0.0230054
-0.00138019
0.00293763
-0.013455
-0.0106527
-0.0179804
0.0192156
0.00170235
0.000455763
-0.0189558
0.000519693
0.00229955
-0.0152988
-0.0172155
0.00886235
0.00117462
-0.0191692
-0.000961272
0.00394716
-0.0180714
-0.0156888
0.0024204
-0.035407
-0.0355306
0.0224008
0.0485368
-0.0318724
0.0193627
-0.0228973
0.0210357
-0.0442895
-0.0086186
-0.0376751
0.0231802
-0.0434902
0.0265577
0.0399764
-0.0230439
0.0224258
-0.0435152
0.0895706
0.0180694
-0.0533358
-0.0543042
-0.00447478
0.0267005
0.0673449
-0.0633348
0.0571972
0.00166282
0.0106769
-0.0559424
0.0216662
-0.0415644
0.063216
-0.0713102
0.0915755
-0.0459347
0.0175752
0.0598497
0.0584264
-0.0452406
0.0365277
0.0407238
-0.0320109
0.0283151
-0.0469981
0.0507728
0.0234265
-0.0458842
0.0167199
0.0705805
0.000899313
-0.000439911
-0.00164663
0.00118723
-0.00105769
0.001957
-0.0014976
-0.000386288
0.000295856
0.00136883
-0.00127839
0.000284428
-0.000670717
0.000580285
3.40342e-05
0.000539058
0.000508639
-0.00108173
0.000300481
-0.000266447
0.000839539
0.0307342
0.00135958
-0.00561369
-0.02648
0.0218462
-0.0179507
0.0268387
-0.021713
-0.0106815
-0.00967187
0.0047745
-0.00844081
-0.00462225
0.00828855
-0.0293263
0.0108787
0.0180053
-0.013751
-0.0108008
-0.0133227
0.0242014
0.00981425
-0.0247562
0.0309533
-0.0160114
-0.0293519
-0.00512337
-0.000866277
-0.0019504
-0.0265353
-0.000869465
-0.024753
-0.0204513
-0.0235562
0.0291242
0.0148833
-0.00782945
0.0190565
-0.0316784
0.00423877
-0.0356244
0.0680848
0.0414169
-0.0213494
-0.0881523
0.0153909
-0.119089
0.106328
-0.00262983
0.0935414
-0.0100657
0.00283321
-0.0638513
-0.0580706
0.0440295
-0.0786458
-0.0095592
0.0441755
0.0119221
0.0214539
-0.0131244
-0.0173234
0.00899396
-0.0190532
0.0382529
0.0022542
-0.0087406
-0.0159263
-0.00300611
-0.0188589
-0.0207066
0.00037707
0.117958
0.00174088
-0.0476332
0.0455289
0.0716676
0.000761419
-0.0026869
0.000499378
-0.00123944
0.00342696
-0.000292649
0.00242675
-0.00482101
-0.00451667
0.00419618
-0.000824562
0.00114504
-0.0036998
0.00119446
-0.00201132
0.0284457
0.0225
-0.031366
-0.0195798
0.021724
0.0149186
0.0014871
-0.0123023
-0.00410344
0.00293277
0.00563277
0.00635308
-0.00173284
-0.0028971
0.00432818
0.000301759
0.00873915
-0.00294506
-0.0146735
0.0374068
0.0227955
0.0119194
0.00620639
-0.00449789
-0.0136279
-0.0129012
-0.00165941
0.0161308
-0.00880213
0.0156767
0.0124335
0.0217026
-0.0255507
-0.00449119
0.0300419
-0.0110183
-0.0145323
-0.0246458
0.0353726
-0.0217451
0.00491831
-0.0122919
-0.0172722
-0.000974814
-0.00416933
0.00514415
-0.00640498
-0.00714666
0.0125768
-0.00961402
0.00186749
-0.00189103
-0.0180478
-0.0150194
0.00119814
-0.0126923
-0.012309
0.00203715
0.0057493
-0.00303831
-0.002711
-0.00493221
0.0341037
0.0024868
0.00222869
0.0247777
-0.0379802
0.00368586
0.0334463
0.000848076
-0.0281375
0.00284747
-0.0126902
0.0296625
0.0140276
-0.0260973
-0.0175928
0.0230695
0.0277558
-0.0317687
0.0146467
0.037547
0.0528637
0.016309
-0.00493826
0.0358788
0.0055834
-0.036524
0.0399628
-0.0380645
-0.0068366
0.00334854
-0.00322079
0.039835
-0.00171891
0.0409463
0.0363202
-0.0275631
-0.0117076
0.00295044
0.041464
0.000439641
-0.00617655
0.000168856
9.86323e-05
0.00590907
-0.004379
0.00122562
-0.00302317
-0.00460881
-0.00167584
0.00190565
-0.00341672
0.00270352
0.00122184
-0.000687844
-0.000596191
0.000202304
-0.00117179
0.0162565
-0.0166513
0.0305842
0.0534119
0.0447978
-0.00425181
0.000156459
0.0013667
0.00267302
-0.000498449
0.000527108
0.0001278
-0.00132855
5.53414e-06
0.000230428
0.00166338
0.000131506
-0.00131388
-0.00251743
-0.00117959
-1.74535e-05
-0.00224852
-0.000244942
-0.00889326
0.0101764
-0.000155486
-0.0011277
-0.0143528
0.00721712
-0.00175757
-0.0151443
0.00128908
-0.000497547
-0.00062793
0.000943246
0.0185723
1.69854e-05
-0.0308916
0.023034
0.00117104
-0.0266988
-0.00167253
0.0514054
-0.0439037
0.0193314
0.0470522
0.00243004
-0.0393058
0.00688545
-0.00826582
-0.000292154
-0.000877544
0.00774837
1.46172e-05
0.0235623
-0.00766183
0.000567051
-0.0236139
-0.0122798
0.0164428
0.019451
-0.00331179
0.0281719
0.0238848
-0.0118747
-0.040182
-0.0150986
0.00570618
0.0375643
0.032324
-0.0235377
-0.0007237
0.00195933
-9.05841e-05
0.000733983
-0.000263226
-0.00749528
0.0055879
0.00207623
-0.00649438
0.000224719
0.0635463
-0.00264166
-0.0489825
0.0247024
-0.00709076
0.0280563
0.00788449
-0.00122832
-0.0347125
-0.0189046
0.00480308
0.0421579
0.0228507
-0.0338708
-0.0184578
-0.0165405
0.0229183
0.01208
0.00399763
0.00200629
-0.0244617
0.0154199
-0.0279628
0.0225061
-0.0428411
0.017949
-0.0393466
0.00319589
0.00213365
0.0068627
-0.0121922
-0.00139657
0.0045958
-3.34091e-06
-0.00260718
0.000582682
-0.00457697
0.0487648
0.0152308
-0.0285202
-0.0354754
0.0134104
0.0760782
-0.0291879
0.000891992
0.0417063
-0.0261069
0.0121498
-0.00405896
-4.68801e-05
0.0010301
0.00307574
-0.000215252
-0.00413636
0.002027
-0.00224225
0.00198012
-0.0312726
0.0363159
-0.000240238
0.00300881
-0.0355098
-0.00427223
0.000635249
0.00129379
-0.00832364
-0.00264202
-0.0010195
-0.0105879
0.0382347
-0.00519564
-0.0477125
0.0182919
0.0238852
-0.0039424
0.0502441
0.0354569
0.0381198
-0.0222135
-0.0513632
0.029695
0.0357943
-0.0300324
-0.0252064
0.0263072
0.0285943
-0.0202026
0.033116
0.0590311
0.0237172
-0.0110806
-0.00686989
0.0436875
0.0174814
-0.0179303
0.0230903
-0.0276266
0.0220177
-0.0199027
-0.0011575
0.000992962
-0.0197568
-0.00113882
-0.00300658
0.040299
0.0129517
-0.0270353
0.0171068
0.00992847
0.0218321
0.0226566
-0.0181814
-0.00576644
0.003641
0.0105381
-0.04519
0.020117
-0.00529809
0.030371
-0.0409431
0.000712143
-0.00495904
0.00515155
-0.000241469
-0.00418594
-0.000724147
0.00426952
-0.000357404
0.039409
-0.0230606
0.0142358
0.000412807
-0.0037948
-0.00115049
0.00453248
-0.00361613
0.00281053
0.0012184
0.00364054
-0.00550861
-0.00174806
0.00213932
-0.00229358
-0.00496384
0.00279157
0.00102178
0.00604459
-0.00604948
0.00332058
0.00406729
0.00129985
-6.17201e-05
-0.00123813
0.000250347
0.00104951
0.0182572
0.0137408
-0.00854566
-0.0234523
0.0183594
-0.0286224
-0.0218331
0.0140856
-0.0110399
0.00294758
0.0364284
-0.00736532
-0.0341865
-0.00495009
0.0327599
-0.0338645
0.00454545
0.024369
-0.011943
-0.0292868
0.0173276
0.0339568
-0.010824
-0.0404605
0.0265979
-0.040771
0.0315008
-0.0164365
0.00345238
0.039582
0.042031
-0.0245106
0.0046118
-0.0205304
-0.00283243
0.018751
-0.0186442
-0.00430702
-0.0190576
-0.0028298
5.28203e-06
0.00144406
-0.00366771
-0.000606143
0.00172617
-0.000276832
0.000259139
-0.000273967
-0.00288227
1.6192e-06
0.00025752
-0.000272348
0.0018178
0.000162627
0.00261538
-0.00102488
0.00284268
-0.000862252
-0.0150346
-0.0101373
0.0160035
0.00916835
0.00353767
0.00540542
-0.0239777
0.0181311
-0.0247307
-0.00880182
-0.0143007
0.00608725
0.0170153
0.0158158
-0.0350065
0.0420413
-0.0408113
0.00706405
0.0502714
-0.0165242
-0.0330335
0.000563787
0.0325816
-0.000111951
0.00152374
0.0332276
-0.0326594
-0.00209192
0.00120513
0.0345306
-0.034212
0.00163533
0.0345487
-0.0349789
0.0015589
0.0348426
-0.0347662
0.000445023
0.0346203
-0.0335064
0.00251475
0.0339166
-0.0359863
0.00469145
0.0329221
-0.0350988
0.00464304
0.0341648
-0.0341164
0.00600101
0.0326966
-0.0340546
0.00594538
0.0337776
-0.0337219
0.00712979
0.0325078
-0.0336922
0.00707452
0.033448
-0.0333928
0.00810164
0.0323619
-0.033389
0.00804831
0.0331713
-0.0331179
0.00893455
0.0322514
-0.0331376
0.00888439
0.0329416
-0.0328914
0.0108552
0.0309608
-0.0329317
0.0102023
0.0333638
-0.0327109
0.0102547
0.0327192
-0.0327715
0.0102132
0.0326088
-0.0325673
0.0107741
0.0320868
-0.0326476
0.0107381
0.0325001
-0.0324641
0.0112203
0.0320804
-0.0325626
0.0111901
0.0324275
-0.0323972
0.0116066
0.032097
-0.0325136
0.0115826
0.0323904
-0.0323664
0.0119454
0.0321381
-0.032501
0.0119281
0.0323894
-0.0323722
0.012248
0.032206
-0.0325258
0.0122383
0.0324261
-0.0324164
0.0125251
0.0323041
-0.0325908
0.012524
0.0325034
-0.0325023
0.012784
0.0324385
-0.0326985
0.00954604
0.0358708
-0.0326328
0.0110882
0.0313124
-0.0328546
0.0210006
0.0270252
-0.0369376
-0.0124984
0.00356727
0.0299318
-0.0379703
0.0291577
-0.0355878
-0.00283874
0.0037562
0.0346703
-0.00270564
0.000582381
-0.0334645
-0.00397802
0.0354408
-0.0341684
0.0356553
-0.00524398
-0.0343894
0.00358631
-0.00421675
0.0362858
0.0361884
-0.0048068
0.00226453
0.0357698
0.0345485
-0.0355991
-0.00189318
0.00127658
0.0351653
0.034902
-0.000866925
0.000831127
0.0346561
0.0352523
-0.00101501
0.00113245
0.0328047
0.0337327
-0.00103956
0.000948618
0.0327876
0.0342577
-0.000855439
0.000766736
0.0325965
0.0338707
-0.000677846
0.000593431
0.0324463
0.0335369
-0.000509078
0.000428357
0.0323321
0.0332556
-0.000918156
-0.000937831
0.0328168
0.0324518
0.000406497
0.000120766
0.0321919
0.0328325
-4.64159e-05
-2.56256e-05
0.0321588
0.0326831
9.719e-05
-0.000166872
0.0321501
0.0325716
0.000236355
-0.000304313
0.032165
0.032497
0.000372082
-0.00043859
0.0322046
0.0324582
0.000504929
-0.000570226
0.0322713
0.0324558
0.000635379
-0.000699636
0.0323683
0.0324912
0.000763662
-0.000594509
0.0322693
0.0325674
-0.00305124
0.00172679
0.0326369
0.032225
0.0323192
0.00277498
0.00130637
-0.0367407
-0.0343336
0.037691
-0.0021588
0.00188163
-0.0347018
-0.0350645
-0.00151367
0.00324498
-0.0352377
-0.0343982
-0.00314242
0.00198337
-0.0339398
-0.0358838
-0.00112302
0.00101459
-0.0339462
-0.0332561
-0.000908209
0.000807994
-0.033592
-0.0336155
-0.000709453
0.000616036
-0.0332956
-0.0332942
-0.000524286
0.000436548
-0.0330499
-0.0330262
-0.000350342
0.000268199
-0.0328495
-0.0328052
-0.00018494
0.000105487
-0.0326921
-0.0326277
-2.85666e-05
-4.71145e-05
-0.032572
-0.0324903
0.000121756
-0.000195138
-0.0324892
-0.0323895
0.000267332
-0.000338619
-0.0324423
-0.032325
0.000408814
-0.000478422
-0.0324313
-0.0322962
0.000547018
-0.000615304
-0.0324576
-0.0323036
0.000682622
-0.000749666
-0.0325237
-0.0323491
0.000814995
-0.000877905
-0.0326355
-0.032437
0.000937992
0.000381512
-0.0341741
-0.0325727
0.00269303
-0.00782299
-0.0328403
-0.0338631
-0.00514183
-0.0365357
0.0374608
-0.0375407
-0.00545059
0.0378495
0.0060469
-0.0071886
-0.036399
-0.0357328
-0.0378942
-0.00871254
0.0411562
-0.0369916
-0.00809117
-0.011061
-0.0384225
-0.00318038
0.00188397
0.0312282
-0.00456639
0.0305437
-0.00119681
-0.0347637
0.00328838
-0.00462896
-0.0328278
0.00278102
-0.0329572
-0.00502298
-0.0339954
-0.00692888
0.00575248
-0.0352226
-0.0358272
-0.00809336
-0.0470851
-0.00477368
0.0410348
-0.00816077
-0.0433607
-0.00243715
0.0373903
-0.00259688
0.00309542
0.037351
0.0361221
-0.00308865
0.00249224
0.0368822
0.0374676
-0.00247237
0.00104243
0.0361003
0.0362082
-0.000721795
0.000883929
0.0356077
0.0348691
-0.00096523
0.00136521
0.0347653
0.0348207
-0.00125776
0.00147061
0.0344432
0.0353597
-0.00184834
0.00104906
0.033604
0.033355
-0.000954983
0.000866903
0.0328756
0.0343518
-0.00078177
0.000698066
0.0326802
0.0339559
-0.000616393
0.000536127
0.0325266
0.0336186
-0.000457821
0.000380928
0.032409
0.0333339
-7.31257e-05
0.000230665
0.0326593
0.0327596
-0.00015819
8.70886e-05
0.032263
0.0329049
-1.65687e-05
-5.32129e-05
0.0322286
0.0327537
0.000121829
-0.000189605
0.0322178
0.0326403
0.000256469
-0.000322657
0.0322312
0.0325638
0.000388098
-0.000452951
0.0322695
0.0325236
0.000517188
-0.000580914
0.032335
0.03252
0.000644154
-0.000706908
0.0324311
0.0325545
0.000768999
-0.00106212
0.0325624
0.0326295
0.000969375
-0.00123362
0.0329011
0.0321323
0.0329696
-0.00317263
0.0320525
-0.0343114
-0.00435538
0.03747
-0.0342102
0.0362427
-0.00118448
-0.00658287
-0.0247798
-0.00264297
0.00165493
-0.0357527
-0.0341956
-0.00162369
0.00165424
-0.0347323
-0.0350332
-0.00240986
0.00216332
-0.0349912
-0.0351539
-0.000713754
0.000619258
-0.0338453
-0.0344342
-0.00123497
0.00111798
-0.0338292
-0.0338718
-0.00100899
0.000903149
-0.0334862
-0.0335065
-0.000802674
0.000704478
-0.0331974
-0.0331937
-0.000610857
0.00051899
-0.032958
-0.0329326
-0.000431192
0.000344928
-0.0327633
-0.0327174
-0.000261938
0.000179252
-0.0326094
-0.0325447
-9.95164e-05
2.07427e-05
-0.0324932
-0.0324106
5.55411e-05
-0.000131397
-0.0324133
-0.0323132
0.000205072
-0.000278583
-0.0323688
-0.0322514
0.000350202
-0.000421851
-0.0323597
-0.0322246
0.000491844
-0.000562029
-0.0323874
-0.0322336
0.000630763
-0.000700021
-0.0324545
-0.0322804
0.000768973
-0.000840097
-0.0325644
-0.0323681
0.000909995
-0.00175885
-0.0333252
-0.0325028
0.00276837
-0.00168815
-0.0339205
-0.0328535
0.00268628
-0.0341604
-0.00283735
-0.0337656
-0.0350033
0.00375928
-0.00410102
-0.0324861
0.00297847
-0.0321764
-0.0048413
-0.0332551
-0.00502961
0.00477063
-0.0349637
-0.00479795
-0.0360588
-0.00266419
0.00242568
-0.0339219
-0.0338291
0.0348343
-0.00384249
-0.00240368
-0.0340896
-0.0102708
-0.0449751
-0.0388582
-0.00765551
0.000254846
0.0328152
-0.0388529
-0.00809861
-0.0327317
-4.69282e-05
-0.00533589
0.00590136
0.0414655
-0.0456455
6.05437e-05
0.0449782
-0.043392
0.00547784
-0.0038908
0.041156
0.00771305
0.0410448
-0.00497008
0.00390058
0.0384598
0.0405132
-0.00208652
0.00179823
0.0376393
0.0379362
-0.00215074
0.00281072
0.0362222
0.0371151
-0.00136906
0.00246344
0.0350059
0.0376499
-0.000527006
0.00172816
0.0344065
0.0368055
-0.000466896
0.00130274
0.0339295
0.0360819
-0.00120914
0.00211784
0.0335345
0.0354533
-0.000564211
0.000953074
0.0332151
0.0349086
-0.00086914
0.000785664
0.0329591
0.0344357
-0.000707348
0.00062835
0.0327592
0.0340342
-0.000553259
0.000477296
0.0326025
0.0336937
-0.000404651
0.000331354
0.0324823
0.0334066
7.67777e-05
0.000189491
0.032393
0.0331677
-0.000120723
5.16511e-05
0.0323321
0.0329737
1.53373e-05
-8.25576e-05
0.0322958
0.0328206
0.000148057
-0.000213817
0.0322836
0.0327058
0.000278047
-0.000342427
0.0322956
0.0326281
0.00040553
-0.000468723
0.0323327
0.0325867
0.000530859
-0.00059303
0.0323972
0.0325821
0.000654349
-0.000715726
0.0324925
0.0326158
0.000776626
-0.000837443
0.0326233
0.0326904
0.00127681
-0.00141384
0.0330382
0.0325716
0.00108708
-0.00223234
0.0323734
0.0326428
0.0029828
-0.00265375
0.0317235
0.0312942
0.0307253
0.0315785
-0.0339573
-0.00420408
-0.00233771
-0.00347838
-0.00253191
0.0019929
-0.0352137
-0.033749
-0.00217632
0.0023992
-0.0349552
-0.0352166
-0.0019037
0.00144363
-0.0345311
-0.0346584
-0.00117823
0.00142216
-0.0340892
-0.0341688
-0.00129545
0.00117033
-0.033704
-0.0337451
-0.00105354
0.00094081
-0.0333734
-0.0333898
-0.000834535
0.000730838
-0.0330937
-0.0330875
-0.000632574
0.000536232
-0.0328616
-0.0328343
-0.000444623
0.000354219
-0.0326729
-0.0326258
-0.000267815
0.000182288
-0.0325239
-0.0324583
-0.000100431
1.90558e-05
-0.0324118
-0.0323288
5.92395e-05
-0.000137493
-0.0323351
-0.0322349
0.000212992
-0.000288713
-0.0322931
-0.0321759
0.000361985
-0.000435737
-0.0322859
-0.0321513
0.000507295
-0.000579537
-0.0323151
-0.032162
0.000649769
-0.00072078
-0.0323835
-0.0322101
0.000789545
-0.000858218
-0.0324958
-0.0322993
0.000925381
-0.0015913
-0.0326593
-0.0324357
0.00164087
-0.00210851
-0.0334529
-0.032804
-0.0334484
-0.035074
-0.00601261
-0.0376383
0.00375843
-0.00380316
-0.0324414
0.00399618
-0.0324141
-0.0348087
0.0337415
-0.00277532
-0.034558
-0.00265434
-0.00333657
-0.0337217
-0.0515142
-0.00440212
0.00476085
0.00211938
0.0257014
-0.0303608
0.0201845
0.0149372
0.00287601
-0.0462075
-0.0107992
-0.040217
-0.0409797
-0.0147947
-0.001322
0.00146531
0.0410127
-0.038167
-0.00510379
0.0419488
0.0159904
-0.0464444
-0.0388827
-0.00943288
-0.00605534
-0.03884
-0.00160172
0.00276956
0.0402977
0.0409084
-0.00375385
0.00315916
0.0390545
0.0395289
-0.00192421
0.00282709
0.0367364
0.0391712
-0.00124844
0.00164225
0.0358284
0.0386937
-0.00156609
0.00147541
0.0350966
0.037726
-0.00139764
0.00130579
0.0344984
0.0368833
-0.00123209
0.00115161
0.03401
0.0361556
-0.00108038
0.000999869
0.033615
0.0355246
-0.000929339
0.000849352
0.0332951
0.0349791
-0.000779273
0.000701654
0.0330367
0.0345058
-0.000632691
0.000557732
0.0328342
0.0341031
-0.000490338
0.000417756
0.0326751
0.0337611
-0.000351635
0.000281098
0.0325528
0.0334727
-0.000215839
0.000147113
0.0324618
0.033233
-8.32256e-05
1.62436e-05
0.032399
0.0330376
4.67697e-05
-0.000112226
0.0323613
0.0328837
0.000174321
-0.000238396
0.0323477
0.0327679
0.000299673
-0.000362514
0.0323584
0.0326893
0.000423037
-0.000484786
0.0323944
0.0326473
0.000544639
-0.000605445
0.032458
0.032642
0.000664737
-0.000724821
0.0325525
0.0326751
0.000783801
-0.000843436
0.0326829
0.0327494
0.00114118
-0.000961916
0.0328589
0.0328694
0.00136673
-0.00147165
0.0324784
0.0330476
0.00266557
-0.0021334
0.0311913
0.0324881
0.0307113
0.0319415
-0.0317564
-0.000231994
0.00146877
0.0319665
-0.033194
-0.0029766
-0.00212766
-0.00293082
-0.00329534
0.00249313
-0.0344115
-0.0330482
-0.00230212
0.00212323
-0.0347763
-0.0350256
-0.0019547
0.00179146
-0.0343679
-0.0344898
-0.00164196
0.00150124
-0.0339485
-0.0340193
-0.00137001
0.00124175
-0.0335758
-0.0336139
-0.00112163
0.00100409
-0.0332559
-0.0332696
-0.000894289
0.000786326
-0.0329858
-0.0329777
-0.000685124
0.000585053
-0.0327616
-0.0327331
-0.000490958
0.000397365
-0.0325793
-0.0325317
-0.000309081
0.000220677
-0.0324355
-0.03237
-0.000136973
5.28295e-05
-0.0323277
-0.032245
2.70051e-05
-0.000107688
-0.0322544
-0.0321551
0.000184493
-0.000262483
-0.0322151
-0.032099
0.000336935
-0.000412861
-0.03221
-0.0320768
0.000485539
-0.000559954
-0.0322407
-0.0320894
0.000631415
-0.000704959
-0.0323099
-0.0321387
0.000775947
-0.00084942
-0.0324223
-0.0322283
0.000920629
-0.000994694
-0.0325852
-0.0323645
0.00124408
-0.00188971
-0.0328072
-0.0325546
0.00186871
-0.0022369
-0.0335537
-0.0334694
0.0402678
0.0293766
-0.053654
-0.00845757
0.0436216
-0.0384585
-0.0119541
0.00401003
-0.0449766
0.00221066
-0.0342496
-0.00251908
-0.0341159
0.00418759
-0.00483432
-0.0343169
-0.034223
0.00422062
-0.0048617
-0.0369972
-0.0366725
-0.0400919
-0.00442188
0.0414183
-0.0204992
0.00247899
-0.052123
0.00261038
-0.044711
0.00593757
-0.00628616
0.0417669
0.00466551
0.0448936
-0.00244607
0.00286794
-0.032836
-0.00144475
-0.0334427
-0.0515366
-0.0147722
0.0415793
-0.0617555
-0.000323023
-0.00553766
0.0408308
-0.00568946
-0.0380123
-0.00248758
0.00224283
-0.0340049
-0.0346369
0.034865
-0.00274715
-0.00232788
-0.0347966
-0.0544872
-0.00478928
0.00189277
-0.0525024
-0.00948077
-0.0400318
-0.00283708
0.00204186
0.0418079
0.0437772
-0.00240294
0.00267598
0.0400246
0.0405473
-0.00112794
0.00225948
0.0379229
0.041077
-0.00157067
0.00149891
0.0368081
0.03986
-0.00145652
0.00137638
0.0359085
0.0387361
-0.00133467
0.00125606
0.0351752
0.0377678
-0.00120985
0.00113103
0.0345772
0.0369295
-0.00108154
0.00100351
0.034088
0.0362051
-0.00095279
0.000876367
0.0336915
0.0355753
-0.000822475
0.00074642
0.0333711
0.035033
-0.000690561
0.000616039
0.0331113
0.0345617
-0.00055929
0.000486403
0.032907
0.0341599
-0.000428955
0.000357816
0.0327463
0.0338185
-0.000299964
0.000230531
0.0326222
0.0335305
-0.000172475
0.000104688
0.0325295
0.033291
-4.65906e-05
-1.95463e-05
0.0324652
0.0330957
7.75301e-05
-0.000142129
0.0324259
0.0329416
0.000200026
-0.000263242
0.0324109
0.0328257
0.000320915
-0.000382871
0.0324204
0.032747
0.000440286
-0.000501114
0.0324553
0.0327047
0.000558264
-0.000618113
0.0325178
0.0326991
0.000675027
-0.000734085
0.0326116
0.032732
0.000790895
-0.000849456
0.0327415
0.0328062
0.000906551
-0.000964514
0.0329169
0.0329265
0.00102089
-0.00132183
0.0327793
0.033104
0.00189419
-0.00304801
0.0323451
0.0330604
0.00652966
0.0393562
0.0341929
0.032679
-0.0323154
-0.000595609
-0.0314754
0.0409792
0.00543339
0.00267237
0.0327145
-0.0337786
-0.00191252
-0.00172858
0.034607
-0.0349643
-0.00241802
-0.00210236
-0.0027537
-0.00318379
0.00261608
-0.0338438
-0.033364
-0.00241433
0.00222524
-0.0345872
-0.0348239
-0.00204738
0.00187569
-0.0341962
-0.034312
-0.00171995
0.00156883
-0.0337974
-0.0338636
-0.00143077
0.00129448
-0.0334395
-0.0334758
-0.00116973
0.00104607
-0.0331322
-0.0331449
-0.000932848
0.000819758
-0.0328727
-0.0328644
-0.000715962
0.00061148
-0.0326571
-0.0326293
-0.000515382
0.000417902
-0.0324818
-0.0324356
-0.000328049
0.000236265
-0.0323437
-0.0322801
-0.000151516
6.43366e-05
-0.0322405
-0.0321603
1.63407e-05
-9.98859e-05
-0.0321709
-0.0320744
0.000177378
-0.000258105
-0.0321343
-0.0320216
0.000333152
-0.000411759
-0.0321314
-0.0320018
0.000485001
-0.000562085
-0.0321636
-0.0320161
0.000634052
-0.000710053
-0.0322339
-0.0320667
0.000781052
-0.000856308
-0.032347
-0.0321573
0.000927085
-0.00100247
-0.0325098
-0.0322937
0.00107298
-0.00114841
-0.0327318
-0.0324841
0.00187891
-0.00175518
-0.0336774
-0.0327389
-0.0336282
-0.00246673
-0.0326997
0.00344615
-0.003723
-0.0340401
-0.0332435
0.0044457
-0.00538988
-0.036053
-0.0359498
-0.0231284
-0.0403623
0.000771595
-0.00378974
0.044785
0.00184937
0.0438159
-0.0381183
0.0382868
-0.050316
-0.00067592
0.00304795
0.0369842
0.00299379
0.0373095
-0.0376976
-0.00808382
-0.00728222
-0.0361199
-0.0351351
0.0352522
-0.00286429
-0.0348242
-0.00263879
-0.0272412
-0.0367268
0.0159551
-0.0587733
-0.00659258
0.0436336
-0.0515434
-0.0157312
-0.0337938
0.0169243
-0.0279147
0.0447842
0.00194543
-0.00242969
-0.0329584
0.00242734
-0.0333179
-0.00242008
0.00220924
0.0420187
0.0432065
-0.00147645
0.00116068
0.0403404
0.0412801
-0.00122013
0.00118441
0.0379587
0.0410175
-0.00122764
0.00117011
0.0368657
0.0398167
-0.00118524
0.00111547
0.0359783
0.038721
-0.00111594
0.00104133
0.0352498
0.0377673
-0.0010317
0.000954919
0.034654
0.0369391
-0.00093698
0.000858177
0.0341668
0.0362231
-0.000832852
0.000754138
0.0337702
0.0356006
-0.000722935
0.000644617
0.0334495
0.0350642
-0.000608008
0.00053081
0.0331885
0.0345983
-0.000490463
0.00041501
0.0329825
0.0342002
-0.000371375
0.000297771
0.0328199
0.0338622
-0.000251496
0.00017989
0.0326938
0.0335768
-0.000131578
6.19947e-05
0.0325991
0.0333394
-1.20633e-05
-5.54969e-05
0.0325327
0.0331456
0.000106677
-0.000172388
0.0324916
0.0329928
0.000224521
-0.000288489
0.0324749
0.0328779
0.000341292
-0.000403667
0.0324827
0.0327998
0.000456949
-0.000517903
0.0325162
0.032758
0.000571524
-0.000631243
0.0325775
0.0327528
0.000685115
-0.000743803
0.0326703
0.0327859
0.000797929
-0.000855899
0.0327994
0.0328603
0.000910542
-0.00096786
0.0329742
0.0329811
0.00102241
-0.00144368
0.0332006
0.0331586
0.00177932
-0.00279846
0.0333643
0.0333961
0.0344424
0.033246
-0.0332721
-0.000569498
-0.0347155
0.0375817
0.00256716
0.00120293
0.0335507
-0.0339899
-0.00147338
-0.00144999
0.034603
-0.0351068
-0.00191421
-0.00148919
-0.00260832
-0.00255644
0.00273711
-0.0340244
-0.0334931
-0.00251735
0.00231524
-0.0343851
-0.0346041
-0.00213049
0.00195062
-0.0340163
-0.0341272
-0.0017905
0.0016309
-0.0336378
-0.0337034
-0.00148982
0.00134696
-0.0332966
-0.0333347
-0.00122051
0.00109091
-0.0330026
-0.0330184
-0.000976382
0.00085788
-0.0327542
-0.0327499
-0.000753258
0.000643881
-0.0325477
-0.0325247
-0.000547387
0.000445453
-0.0323799
-0.0323391
-0.000355579
0.000259661
-0.0322478
-0.0321902
-0.000175112
8.40156e-05
-0.0321494
-0.0320757
-3.73243e-06
-8.35451e-05
-0.0320836
-0.0319941
0.0001605
-0.000244846
-0.03205
-0.0319446
0.000319283
-0.000401472
-0.0320492
-0.0319274
0.000474102
-0.000554811
-0.0320829
-0.0319435
0.000626278
-0.000706154
-0.032154
-0.0319952
0.000777098
-0.00085681
-0.0322673
-0.0320864
0.000927813
-0.00100784
-0.0324298
-0.0322227
0.00107921
-0.0011593
-0.0326517
-0.0324127
0.0012306
-0.0019641
-0.0329439
-0.0326676
0.00186516
-0.00208579
-0.0337842
-0.0337272
-0.0597855
0.00468019
0.0030195
0.037556
-0.0373575
-0.00762234
-0.00150618
-0.0403714
0.00227141
-0.0345311
-0.00256443
-0.034611
-0.0513179
0.00924885
-0.00840893
0.0367244
0.00665661
-0.00781265
-0.0349639
-0.00216678
-0.0329626
-0.00271108
-0.0326992
-0.00336757
-0.0333836
-0.00511946
-0.0341979
-0.0345159
-0.0577475
-0.0740466
-0.0224657
0.0190369
-0.00177745
0.00104263
0.0445507
-0.00117862
0.0441862
-0.00236335
0.00213014
-0.0330847
-0.00224197
-0.0330798
0.0369729
-0.03579
0.00138428
0.0382402
0.00175219
-0.0346647
-0.0105054
0.0314663
-0.00755128
0.0149495
-0.0443703
-0.00220121
0.00232137
-0.0346513
-0.0351222
0.0351708
-0.00261296
-0.0346774
-0.00264607
-0.000360677
0.00056906
0.0418104
0.0438885
-0.000680531
0.000288958
0.040732
0.0411686
-0.00142518
0.00080695
0.0385769
0.0398813
-0.000919499
0.000853461
0.0369317
0.0397042
-0.000938341
0.000858504
0.0360582
0.0386361
-0.000920096
0.000831398
0.0353385
0.0377057
-0.000874196
0.000781487
0.0347467
0.0368964
-0.000809308
0.000714849
0.0342613
0.0361952
-0.000728996
0.000634629
0.0338645
0.0355865
-0.000637639
0.000544827
0.0335423
0.0350612
-0.000537654
0.000447093
0.033279
0.0346055
-0.000431812
0.000344469
0.0330698
0.0342155
-0.000322195
0.000238208
0.0329039
0.0338844
-0.000210002
0.00012949
0.0327744
0.033605
-9.63649e-05
1.92749e-05
0.0326762
0.0333725
1.79807e-05
-9.1694e-05
0.0326065
0.0331829
0.000132199
-0.000202914
0.0325623
0.0330333
0.000246157
-0.000314079
0.0325428
0.0329211
0.000359477
-0.000424879
0.0325481
0.0328452
0.000471987
-0.000535167
0.0325794
0.0328051
0.000583625
-0.000644885
0.0326388
0.0328012
0.000694423
-0.000754072
0.0327299
0.0328354
0.000804521
-0.000862978
0.0328579
0.0329108
0.00091446
-0.000971866
0.0330316
0.0330326
0.0010238
-0.00108107
0.0332578
0.0332105
0.00113345
-0.00131196
0.0335428
0.0334485
0.00102768
0.000438866
0.0355177
0.0341581
-0.00250881
0.00275267
0.0373121
0.0352395
0.034654
-0.0341513
-0.00107216
6.6939e-05
0.0341277
-0.0341005
-0.00150057
-0.00147357
0.0340687
-0.0344322
-0.00155073
-0.00152102
0.0348202
-0.0352206
-0.00246386
-0.00222031
-0.00268868
-0.00289165
0.00283804
-0.0339708
-0.0342546
-0.00260415
0.00239221
-0.0341731
-0.0343702
-0.00220292
0.00201267
-0.0338261
-0.0339379
-0.00185083
0.00168128
-0.0334682
-0.0335416
-0.0015395
0.00138746
-0.0331446
-0.033193
-0.00126128
0.00112363
-0.032865
-0.0328923
-0.00101015
0.000884336
-0.0326284
-0.0326364
-0.00078128
0.000665147
-0.0324316
-0.0324216
-0.00057062
0.000462347
-0.0322716
-0.0322446
-0.000374751
0.000272823
-0.0321458
-0.0321027
-0.000190814
9.39501e-05
-0.0320525
-0.0319937
-1.63655e-05
-7.65451e-05
-0.0319907
-0.0319165
0.000150712
-0.000240624
-0.0319601
-0.0318704
0.000312242
-0.000399993
-0.0319615
-0.0318557
0.000469823
-0.00055614
-0.0319966
-0.0318737
0.000624835
-0.000710335
-0.0320685
-0.0319265
0.000778453
-0.000863724
-0.032182
-0.0320182
0.000931845
-0.00101742
-0.0323442
-0.0321546
0.00108594
-0.00117225
-0.0325654
-0.0323442
0.00124125
-0.00132814
-0.032857
-0.0325986
0.00167739
-0.00200984
-0.0334518
-0.0333779
-0.0342995
0.031871
-0.0673728
0.0431671
-0.00258917
-0.0326154
-0.00292008
-0.0323683
-0.0038143
-0.0324894
-0.00505677
-0.0329555
-0.00608212
-0.0334905
-0.00800568
-0.0330403
0.00338887
0.037604
0.000879255
0.0369898
-0.00360588
0.0353712
-0.0326654
-0.010005
0.00415607
-0.00638513
-0.0312615
0.00363354
-0.0324329
-0.0385082
-0.00948562
-0.00301918
0.0308796
0.0288404
-0.0205072
0.0263911
-0.00510193
-0.00282356
0.00230507
-0.0341328
-0.00226591
-0.035235
-0.0353231
0.035513
-0.00280283
-0.0353055
-0.00266363
4.50933e-05
-0.000183272
0.0446889
0.0451105
6.96718e-06
1.57226e-05
0.0417877
0.0437122
-0.000253607
0.000686865
0.0402987
0.0409307
-0.000938126
0.000445531
0.0390695
0.0396301
-0.000670315
0.00055379
0.0370482
0.0394794
-0.00074241
0.000611509
0.0361891
0.0384475
-0.00076768
0.000628534
0.0354776
0.0375495
-0.000755642
0.000613804
0.0348885
0.0367692
-0.000716137
0.000575527
0.0344019
0.0360929
-0.000655493
0.000518494
0.0340015
0.0355065
-0.000578918
0.000447478
0.0336737
0.0350008
-0.000490189
0.000365182
0.033404
0.0345628
-0.000392768
0.00027517
0.0331874
0.0341879
-0.000289557
0.000179414
0.033014
0.03387
-0.000182335
7.95057e-05
0.0328772
0.0336021
-7.26047e-05
-2.33047e-05
0.0327721
0.0333794
3.85093e-05
-0.000127888
0.0326958
0.0331981
0.000150106
-0.000233625
0.0326458
0.0330555
0.000261702
-0.000339964
0.0326211
0.0329492
0.00037285
-0.000446472
0.0326218
0.0328781
0.000483289
-0.000552879
0.032649
0.0328419
0.000592889
-0.000659032
0.0327049
0.0328412
0.000701637
-0.000764895
0.0327932
0.032878
0.000809643
-0.000870634
0.0329189
0.0329555
0.000917355
-0.000976403
0.0330906
0.0330793
0.00102432
-0.00108195
0.0333155
0.0332584
0.00113032
-0.00118428
0.0335967
0.0334969
0.000812882
0.00048891
0.0342159
0.0337867
-0.000296377
0.0024809
0.0351276
0.0354321
0.0376682
-0.0363647
0.00208536
-0.00317283
0.00383779
0.0370033
0.036912
0.0367763
-0.035179
-0.000213019
0.00216377
0.0344364