/*--------------------------------*- C++ -*----------------------------------*\
  =========                 |
  \\      /  F ield         | OpenFOAM: The Open Source CFD Toolbox
   \\    /   O peration     | Website:  https://openfoam.org
    \\  /    A nd           | Version:  10
     \\/     M anipulation  |
\*---------------------------------------------------------------------------*/
FoamFile
{
    format      ascii;
    class       volVectorField;
    location    "25";
    object      U;
}
// * * * * * * * * * * * * * * * * * * * * * * * * * * * * * * * * * * * * * //

dimensions      [0 1 -1 0 0 0 0];

internalField   nonuniform List<vector> 
40874
(
(0.709836 -0.228654 0)
(0.608559 -0.200084 3.77524e-19)
(1.07846 -0.580869 -5.06917e-20)
(1.0162 -0.515047 1.82494e-19)
(1.01907 -0.745243 1.15586e-19)
(1.0117 -0.756128 4.75682e-20)
(1.04308 -0.753029 2.58964e-20)
(1.15717 -0.51624 1.37053e-20)
(1.05588 -0.459429 -4.5711e-21)
(0.760639 -0.655113 1.34532e-19)
(0.754592 -0.474347 -1.79502e-19)
(0.454687 -0.642343 1.68832e-19)
(0.838739 -0.687564 1.51965e-20)
(0.836421 -0.416495 1.02354e-19)
(0.841171 -0.31192 -1.00013e-19)
(0.784329 -0.290229 9.49039e-20)
(0.996824 -0.661498 8.10657e-22)
(1.14389 -0.726238 0)
(0.952664 -0.74503 -3.24759e-19)
(0.988047 -0.310014 -9.00197e-20)
(0.981147 -0.376583 -4.48124e-21)
(0.96948 -0.463193 -1.66302e-19)
(0.598625 -0.556287 1.39068e-20)
(0.570665 -0.67576 5.39145e-20)
(0.917861 -0.36376 1.4129e-19)
(1.14262 -0.494665 -1.21741e-20)
(1.16986 -0.498688 2.27811e-20)
(1.15131 -0.431992 1.15107e-20)
(1.18694 -0.454296 0)
(1.28599 -0.478494 -6.83533e-21)
(1.28184 -0.50671 1.74969e-21)
(1.223 -0.447807 -2.66314e-21)
(1.17026 -0.502303 0)
(-0.133836 -0.196587 5.13668e-20)
(-0.0806246 -0.234752 0)
(-0.055381 -0.199321 0)
(-0.0946111 -0.175701 4.31149e-22)
(0.534684 0.00823149 -9.95404e-23)
(0.498112 0.00645269 1.28801e-21)
(0.564658 0.0115808 -1.16491e-20)
(0.641002 0.00873002 0)
(0.648416 0.00655417 -3.16819e-21)
(0.58627 0.0100394 4.53043e-21)
(0.519125 0.0113786 1.70409e-21)
(0.646452 0.0078717 3.19217e-21)
(0.578279 0.00879424 -2.05554e-21)
(0.499476 0.0101067 0)
(0.902215 0.583789 -2.19195e-20)
(0.784368 0.57782 4.5152e-20)
(0.77183 0.441871 -1.38173e-20)
(0.883925 0.455705 0)
(1.06457 0.577714 0)
(1.00607 0.530596 3.46725e-21)
(1.36516 -0.442174 2.78448e-20)
(1.42197 -0.393874 0)
(1.34005 -0.354851 0)
(1.30744 -0.375902 0)
(1.28713 -0.441181 -5.84561e-21)
(1.43245 -0.464766 -1.55745e-20)
(1.24186 -0.336144 8.12315e-20)
(1.40561 -0.324733 -1.07481e-19)
(1.23779 0.541995 0)
(1.13681 0.553796 0)
(1.15049 0.494998 -4.36184e-22)
(1.29838 0.533642 3.63241e-22)
(-0.0594587 -0.0378603 5.42394e-20)
(-0.0826972 -0.034181 -4.42514e-20)
(-0.056282 -0.0333668 -4.11804e-20)
(-0.0623783 0.0493904 0)
(-0.0275444 0.0208287 -1.38055e-19)
(-0.026745 0.0193148 -1.45084e-19)
(0.028665 -0.0682437 2.49245e-19)
(0.00878829 -0.0222351 4.32851e-20)
(0.0158689 -0.0408298 4.12658e-20)
(0.379151 -0.0429365 2.58853e-23)
(0.422934 0.000612927 8.88304e-21)
(0.258292 0.0275046 -2.80742e-21)
(0.182061 -0.0243082 -1.9758e-22)
(0.237868 0.0177508 1.65e-21)
(0.37789 0.0116513 0)
(0.365865 0.0132848 -1.40686e-21)
(0.18336 0.0142278 -4.26201e-21)
(0.833528 0.353245 6.73698e-20)
(0.786473 0.336939 7.35607e-20)
(0.804469 0.260202 -3.70553e-20)
(0.845965 0.258698 1.64906e-19)
(1.28801 0.246989 -4.90503e-23)
(1.28805 0.257076 -1.56481e-20)
(1.27109 0.242718 -1.14879e-21)
(1.36378 0.297508 1.01876e-20)
(1.5215 0.273097 6.63454e-20)
(1.44396 0.23371 -5.42928e-21)
(1.55399 0.393355 7.06184e-20)
(1.26036 -0.704798 0)
(1.289 -0.471765 -3.18544e-20)
(0.634824 -0.0140144 7.57823e-22)
(0.573417 -0.0197639 6.05019e-23)
(0.512557 -0.022591 -9.49616e-22)
(0.592181 -0.0177594 2.33859e-22)
(0.659725 -0.0129107 3.77668e-22)
(0.995598 -0.0388375 0)
(0.988917 -0.0319976 3.76963e-22)
(0.0216299 0.0225644 -6.14131e-21)
(0.104996 -0.0033381 -4.14282e-20)
(-0.0700834 -0.0273436 0)
(-0.0694484 -0.0294265 0)
(0.92051 0.332294 0)
(0.899492 0.378578 -6.55755e-20)
(0.213757 -0.12583 5.7985e-19)
(0.191578 -0.214873 -8.84766e-19)
(-0.0517705 -0.055315 0)
(-0.0729353 -0.119522 1.65792e-20)
(0.993985 -0.0369877 -3.02906e-20)
(0.475713 -0.00996003 -3.11036e-22)
(0.434892 -0.00699216 -9.39201e-23)
(0.533877 0.00037871 -5.11091e-21)
(0.440399 -0.00388104 2.17502e-21)
(0.518926 0.58244 5.08061e-21)
(0.461204 0.642168 -1.84065e-20)
(0.649764 0.759531 3.7529e-21)
(0.393278 0.637859 1.09178e-19)
(0.174238 -0.293278 -1.02578e-19)
(0.323266 -0.627982 1.09732e-19)
(0.227037 0.54741 -2.15871e-20)
(0.568065 0.00826259 0)
(0.490699 0.00798535 0)
(0.462524 0.0111442 2.89511e-21)
(0.414036 0.00994531 0)
(0.0891397 -0.00672622 0)
(0.119168 -0.00712867 2.51201e-22)
(1.00311 -0.0159417 -7.66018e-20)
(0.613753 0.00731912 3.57711e-21)
(1.1066 -0.0392097 0)
(1.10626 -0.0395587 -2.19734e-21)
(0.669843 -0.0352652 0)
(1.31969 0.249176 1.01685e-20)
(1.31578 0.239655 -8.69624e-21)
(1.35902 0.267422 -7.7839e-21)
(1.34392 -0.114376 3.51156e-20)
(1.43689 -0.0903702 -2.67362e-20)
(1.41783 -0.113316 1.37201e-20)
(1.32106 -0.137422 4.98489e-20)
(1.22447 -0.109001 -1.92616e-22)
(1.2182 -0.127856 -9.81676e-21)
(0.158785 -0.129256 -4.64583e-20)
(0.0807671 -0.125514 5.66509e-20)
(0.0194666 -0.109345 -4.95678e-20)
(0.0694249 -0.153815 -2.11492e-19)
(0.0351281 -0.0553278 -2.86197e-19)
(0.0918847 -0.13003 1.81747e-19)
(1.1482 -0.640172 0)
(1.42628 -0.365228 -6.76859e-21)
(1.36413 -0.329959 1.97551e-20)
(-0.073071 -0.0277237 1.11829e-19)
(-0.0381209 -0.0143388 0)
(-0.0402524 -0.0141487 0)
(-0.0599138 -0.0242446 0)
(-0.0645786 -0.0284477 -2.04574e-20)
(-0.04335 -0.0146139 4.03615e-20)
(-0.0478822 -0.0213117 0)
(0.133805 0.0295795 1.00954e-19)
(0.328737 0.0361068 -2.13863e-19)
(0.420219 0.0676015 -7.34505e-20)
(0.0695311 -0.0141214 0)
(0.375323 -0.219616 -2.25194e-21)
(0.32677 -0.421477 2.8568e-19)
(0.460612 -0.496352 -2.72937e-20)
(0.622987 -0.336412 -3.28204e-19)
(1.075 0.478426 -3.7525e-21)
(0.80022 0.0583416 0)
(0.107329 -0.407462 -1.01737e-19)
(0.116074 -0.460842 -1.9463e-19)
(0.475412 -0.560283 -1.21695e-19)
(0.119875 -0.356707 9.81407e-20)
(0.639165 -0.0112107 0)
(0.571353 -0.0116324 -4.59749e-21)
(1.37073 0.077834 1.33346e-19)
(1.32583 0.0354871 -7.04481e-20)
(1.18507 0.0246323 -1.0115e-19)
(-0.0323103 -0.0261787 -5.82248e-20)
(-0.00302907 -0.0212407 2.52349e-20)
(0.239428 -0.101439 1.14528e-20)
(0.184275 -0.0875994 1.65629e-20)
(1.16062 -0.404378 5.32545e-20)
(1.02868 -0.296702 1.61368e-20)
(1.20965 0.077687 1.28998e-22)
(1.20709 0.0751573 0)
(1.2099 0.0724699 0)
(0.907264 0.27353 4.17364e-20)
(0.900994 0.248685 -1.02763e-19)
(0.920356 0.254505 -6.72079e-22)
(0.978096 0.447336 2.10036e-20)
(1.04005 0.42891 4.3413e-21)
(0.261975 0.125984 3.515e-19)
(0.0848583 0.144889 0)
(0.0612632 0.0574464 0)
(0.207535 0.0353173 0)
(1.20996 0.7123 1.69936e-20)
(1.34156 0.651874 8.14893e-20)
(1.32444 0.686746 -2.68032e-20)
(1.09124 0.664949 -1.71472e-20)
(-0.0849128 0.0527088 -5.54092e-20)
(-0.0953542 0.0519293 -2.10346e-19)
(-0.0689868 0.0436459 -3.96559e-20)
(-0.0735273 0.040312 0)
(1.20457 0.080272 9.03903e-23)
(1.20827 0.0818413 5.22691e-23)
(-0.10743 0.0679305 4.33549e-19)
(0.315255 0.00446354 1.00888e-21)
(0.363413 0.0013973 0)
(1.01365 -0.0343987 -2.67031e-20)
(1.01774 -0.0375739 6.11874e-20)
(0.835975 0.74491 -1.06557e-19)
(1.09907 -0.0942562 -6.47044e-20)
(1.01799 -0.117505 0)
(1.08366 -0.11909 -4.50262e-20)
(1.088 -0.101799 3.68296e-20)
(1.01845 -0.0774205 1.17581e-20)
(1.00967 -0.0964094 2.00992e-20)
(0.625131 -0.104908 -2.42115e-19)
(0.483466 -8.26347e-05 1.44629e-19)
(0.408302 -0.101828 -4.18326e-19)
(0.641929 0.0082744 0)
(0.637915 0.00793521 -6.95613e-22)
(0.882403 0.779121 1.02138e-19)
(0.468578 0.484726 -4.72134e-21)
(0.531425 0.536294 0)
(1.03283 -0.128251 0)
(-0.00572691 -0.245235 0)
(1.38527 -0.0417094 0)
(1.36315 -0.0275774 3.55292e-21)
(-0.0996418 0.0712997 1.24716e-19)
(-0.0969496 0.0696383 5.14623e-20)
(1.42162 -0.323996 0)
(-0.0993066 0.0663408 -8.94421e-20)
(-0.0719269 0.0401834 1.34665e-19)
(-0.0980877 -0.0182774 -2.774e-19)
(-0.107346 0.0241235 2.49931e-19)
(-0.101081 0.0831526 -3.74764e-20)
(0.537258 -0.317905 0)
(0.665461 -0.407466 -5.22412e-20)
(-0.0486117 0.0420247 3.68357e-20)
(-0.0464024 0.0389726 -4.47601e-20)
(0.927753 0.691382 0)
(1.09188 0.716096 -1.73166e-21)
(0.958167 0.61861 -4.70854e-20)
(0.7048 0.522167 0)
(0.689696 0.301816 -1.14003e-19)
(0.627865 0.405173 8.04099e-20)
(0.475665 0.28289 -2.99432e-19)
(0.598576 0.188819 3.66115e-20)
(1.36296 0.116689 -1.67728e-20)
(1.34417 0.107764 2.10717e-20)
(1.35673 0.0971745 8.32165e-21)
(1.37763 0.106487 0)
(1.28614 -0.0932017 2.05059e-20)
(1.2134 -0.0928846 -1.76264e-20)
(1.2889 -0.0631842 0)
(-0.0970542 0.0690185 0)
(-0.096231 0.0405418 3.33947e-20)
(-0.0826224 0.0595527 4.46363e-20)
(-0.0385964 -0.0423695 1.34073e-20)
(-0.00173107 -6.16897e-05 -5.38502e-20)
(-0.00285286 0.00363305 1.52068e-19)
(0.0959886 0.245486 -4.98259e-19)
(0.0248268 0.149435 -2.96826e-19)
(0.0166605 0.0935061 -4.19789e-20)
(0.761222 0.00925078 5.80492e-20)
(0.7843 -0.00627742 -1.13324e-19)
(0.778833 0.0314066 0)
(0.326441 -0.0579863 3.6264e-20)
(1.21055 0.0691464 6.43076e-23)
(1.41356 0.106239 0)
(1.12251 -0.0428351 -9.10119e-21)
(1.20172 0.0672558 0)
(1.1909 0.0621117 -3.11514e-22)
(1.18047 0.0578036 7.23985e-23)
(1.17059 0.0536902 2.31187e-23)
(1.1609 0.0504091 -7.68369e-23)
(1.15231 0.0467814 -3.0963e-23)
(1.14471 0.0417589 -2.49549e-21)
(1.13718 0.0382889 4.62559e-22)
(1.13025 0.0349624 -3.3364e-22)
(1.12408 0.0316754 -6.28413e-28)
(1.11826 0.028451 1.8842e-22)
(1.11309 0.0253738 1.80975e-21)
(1.10823 0.022347 -2.04894e-21)
(1.10392 0.0194447 -1.2281e-25)
(1.0999 0.0165795 2.7223e-22)
(1.09637 0.0138319 -4.75598e-21)
(1.0931 0.0111177 4.50775e-21)
(1.09036 0.00858344 0)
(1.08775 0.00593044 -6.32249e-22)
(1.08553 0.0033643 0)
(1.08362 0.00086625 -5.64566e-21)
(1.08206 -0.00155939 5.57569e-21)
(1.08076 -0.00397607 3.58917e-22)
(1.07979 -0.00633226 -1.77781e-25)
(1.07909 -0.00867879 0)
(1.07872 -0.0109743 -6.07144e-21)
(1.07862 -0.0132634 5.64474e-21)
(1.07885 -0.0155097 -6.16183e-21)
(1.07938 -0.0177515 1.22915e-20)
(1.08025 -0.0199564 -1.2351e-20)
(1.08145 -0.0221585 6.14939e-21)
(1.08301 -0.0243328 0)
(1.08494 -0.0265373 6.53598e-21)
(1.08749 -0.0288809 -1.13973e-20)
(1.09054 -0.0309145 6.86236e-21)
(1.09423 -0.0331904 0)
(1.09738 -0.0345495 5.34567e-21)
(1.10106 -0.0370964 0)
(1.23038 0.0732581 2.65162e-22)
(1.22361 0.0799011 7.70202e-22)
(1.23714 0.0859083 3.79953e-22)
(1.25119 0.0925322 0)
(1.25859 0.0838596 7.40704e-22)
(1.24381 0.0781255 8.30252e-22)
(1.20613 0.0628879 0)
(1.21824 0.0673227 6.24607e-21)
(1.18417 0.0538955 -1.54693e-22)
(1.19471 0.0579762 8.3364e-22)
(1.16426 0.0466089 0)
(1.17388 0.0497957 0)
(1.14718 0.0393237 0)
(1.15498 0.043521 2.1326e-23)
(1.13299 0.0330938 -1.04061e-23)
(1.1398 0.0362025 1.26448e-26)
(1.12093 0.0269699 -1.02091e-22)
(1.12674 0.0300347 -3.49786e-26)
(1.11078 0.0211301 7.12636e-23)
(1.11566 0.024043 5.15712e-26)
(1.10232 0.0155741 -8.41709e-23)
(1.10637 0.0183461 3.70772e-26)
(1.09552 0.010222 -7.68986e-22)
(1.09871 0.0129572 -1.6036e-22)
(1.08986 0.00523869 2.08828e-22)
(1.09252 0.00773674 7.48875e-22)
(1.08565 0.000314509 -1.05773e-22)
(1.08761 0.00276722 1.03068e-25)
(1.08268 -0.00443007 -1.1896e-22)
(1.08402 -0.00205732 0)
(1.0809 -0.00903663 1.17561e-25)
(1.08164 -0.0067322 5.45891e-26)
(1.08031 -0.0135334 1.29167e-22)
(1.08046 -0.011283 -5.62826e-26)
(1.08096 -0.0179389 0)
(1.08048 -0.0157337 0)
(1.08291 -0.0222638 -6.49303e-26)
(1.08176 -0.0201 -6.16276e-26)
(1.08633 -0.026565 9.23771e-22)
(1.08441 -0.0243885 1.29206e-25)
(1.09174 -0.0306152 -1.33314e-21)
(1.08862 -0.0287788 0)
(1.0951 -0.0329977 0)
(1.19748 0.0715984 0)
(1.21069 0.0757428 0)
(1.1766 0.0619364 0)
(1.1868 0.0666998 2.16184e-22)
(1.15747 0.0537184 -3.41507e-23)
(1.16675 0.0573082 -2.25036e-23)
(1.14127 0.0428405 1.42971e-21)
(1.14916 0.0488737 -1.70529e-22)
(1.12734 0.0356409 0)
(1.13418 0.039276 0)
(1.11542 0.0285557 6.40136e-26)
(1.12109 0.0319995 1.91227e-28)
(1.10555 0.0220615 -1.51396e-25)
(1.11025 0.0252384 -6.42904e-26)
(1.09742 0.0159901 0)
(1.10128 0.0189654 0)
(1.09088 0.0103084 0)
(1.09395 0.0130871 0)
(1.08572 0.00482707 0)
(1.08813 0.00750374 0)
(1.08191 -0.000317101 -7.14691e-27)
(1.08365 0.00222232 0)
(1.07935 -0.00528792 -5.85559e-26)
(1.08048 -0.00282912 0)
(1.078 -0.010104 0)
(1.07853 -0.00772075 6.25931e-26)
(1.07787 -0.0147903 -6.64078e-26)
(1.07779 -0.0124672 0)
(1.07901 -0.0193726 -6.93305e-26)
(1.07828 -0.0170982 6.77262e-26)
(1.08151 -0.023873 -7.13337e-26)
(1.08009 -0.0216353 6.96108e-26)
(1.08544 -0.0282713 -6.95969e-26)
(1.08332 -0.0261075 7.10619e-26)
(1.09043 -0.0322531 0)
(1.08761 -0.0301603 7.16674e-26)
(1.09796 -0.0365111 0)
(1.09461 -0.0348141 0)
(1.27462 0.0900753 5.27539e-23)
(1.29207 0.0962142 0)
(1.28284 0.107142 5.1619e-22)
(1.26637 0.09947 3.12864e-21)
(1.31172 0.102418 -3.85443e-21)
(1.30068 0.115772 5.0421e-22)
(1.33211 0.106471 9.2705e-21)
(1.09982 -0.0347933 -3.75848e-21)
(1.1039 -0.0372098 -1.17705e-21)
(1.10178 -0.038492 0)
(1.22982 0.0939802 -2.46202e-22)
(1.21725 0.0886178 -7.37906e-22)
(1.24301 0.100848 9.62919e-25)
(1.27325 0.116391 1.39295e-21)
(1.29008 0.12539 -3.91201e-21)
(1.38546 0.124749 1.08413e-20)
(1.35222 0.126099 6.1245e-21)
(1.33733 0.0918 -1.38219e-20)
(1.29914 0.084196 -1.05731e-21)
(1.31764 0.0884527 2.28952e-21)
(1.26475 0.0747834 9.68227e-23)
(1.2813 0.0798877 -1.33958e-21)
(1.23546 0.065785 2.37935e-22)
(1.24955 0.0700286 -1.28616e-21)
(1.21022 0.0569744 1.90075e-22)
(1.22284 0.0605787 -5.67472e-22)
(1.18752 0.049751 -5.67624e-22)
(1.19849 0.0530082 -8.33905e-22)
(1.16763 0.0426794 6.15738e-23)
(1.17732 0.0458471 -1.92532e-23)
(1.15099 0.0363326 0)
(1.15886 0.0398871 1.6853e-23)
(1.13694 0.0303016 -4.711e-23)
(1.14368 0.0333026 1.47655e-26)
(1.12483 0.0245864 8.75963e-24)
(1.13067 0.0274419 -1.9124e-26)
(1.11452 0.0191387 0)
(1.11947 0.0218672 -5.32543e-26)
(1.10589 0.0139116 0)
(1.11001 0.0165307 1.20836e-25)
(1.09881 0.00888252 0)
(1.1022 0.0114103 1.67379e-22)
(1.0931 0.00405319 3.66112e-25)
(1.09579 0.00646696 -3.59844e-25)
(1.08869 -0.000650922 6.10834e-24)
(1.09073 0.00170447 0)
(1.08554 -0.00522751 -1.10459e-22)
(1.08696 -0.00293355 0)
(1.0836 -0.00968467 -2.30076e-25)
(1.08442 -0.00745019 1.12556e-25)
(1.08287 -0.0140463 0)
(1.08309 -0.0118592 -1.1118e-25)
(1.08337 -0.018328 1.27141e-22)
(1.08296 -0.0161805 2.42447e-25)
(1.08518 -0.0225348 0)
(1.0841 -0.0204281 3.80519e-25)
(1.08844 -0.0267319 -1.12234e-21)
(1.08661 -0.0245937 1.24717e-25)
(1.09349 -0.030795 1.08139e-21)
(1.09065 -0.0289021 -1.48051e-22)
(1.09667 -0.0329462 3.12408e-22)
(1.10874 -0.0392271 1.16676e-21)
(1.108 -0.0411041 0)
(1.11252 -0.040953 -5.75174e-21)
(1.11124 -0.0412192 1.71695e-21)
(1.19343 0.0768787 4.93085e-23)
(1.20495 0.0830365 -8.66355e-23)
(1.172 0.0657149 0)
(1.18223 0.0708851 7.02609e-23)
(1.15372 0.0563463 1.69047e-22)
(1.16244 0.0610724 1.48445e-23)
(1.13809 0.0466876 -8.34348e-23)
(1.14554 0.0509364 -1.93498e-22)
(1.12506 0.0391675 0)
(1.13132 0.0428377 0)
(1.11359 0.0318279 0)
(1.11911 0.035427 -4.97748e-28)
(1.1039 0.0250847 7.72564e-26)
(1.10854 0.0283947 -3.36453e-28)
(1.09583 0.0188047 0)
(1.09968 0.0218962 0)
(1.08922 0.0129068 1.31927e-25)
(1.09236 0.0158176 0)
(1.084 0.00734056 -1.43607e-26)
(1.08646 0.0101031 -1.06231e-25)
(1.07999 0.00199 7.64667e-27)
(1.08185 0.00463401 0)
(1.0772 -0.00312477 0)
(1.07845 -0.00058944 0)
(1.07559 -0.00806755 2.09615e-27)
(1.07625 -0.00561353 0)
(1.07515 -0.0128717 -5.23278e-28)
(1.07522 -0.0104832 0)
(1.07592 -0.0175663 5.56179e-28)
(1.07538 -0.0152296 0)
(1.07799 -0.0221813 -1.43501e-25)
(1.07679 -0.0198797 0)
(1.08157 -0.0267797 -1.11726e-27)
(1.07957 -0.0244737 1.44071e-25)
(1.08724 -0.0316312 2.93651e-22)
(1.08414 -0.0291692 0)
(1.09523 -0.0365817 1.43626e-21)
(1.09083 -0.0340564 -1.14975e-21)
(1.10532 -0.0413091 -1.13253e-21)
(1.10026 -0.0391107 -2.86047e-22)
(1.25752 0.108125 -1.3887e-21)
(1.2217 0.100934 -2.59225e-22)
(1.21007 0.0941815 1.59957e-23)
(1.23435 0.108419 4.17154e-22)
(1.26293 0.125804 6.10784e-22)
(1.27899 0.136195 -1.16721e-21)
(1.10272 -0.0414441 0)
(1.11134 -0.0435923 1.39931e-21)
(1.10856 -0.0437277 -2.89074e-22)
(1.3756 0.135381 3.34102e-21)
(1.32021 0.125932 -4.94729e-21)
(1.11369 -0.0405938 -1.92055e-21)
(1.30871 0.134401 3.41588e-21)
(1.12006 -0.0427301 -4.62216e-21)
(1.3873 0.0871576 -1.19299e-20)
(1.41172 0.126358 -5.01987e-22)
(1.43978 0.10999 -2.86246e-20)
(1.4401 0.0916279 5.73352e-21)
(1.41421 0.0878783 4.18901e-21)
(1.34083 0.0805475 -1.2062e-20)
(1.36222 0.0834801 6.84941e-21)
(1.3037 0.0729551 7.82687e-22)
(1.32175 0.0773048 -3.7688e-21)
(1.26945 0.0654583 5.60889e-23)
(1.28599 0.0691886 4.06257e-22)
(1.23927 0.0584077 -2.78975e-22)
(1.25387 0.0617037 0)
(1.21363 0.0509101 0)
(1.22602 0.054175 5.78667e-22)
(1.19059 0.0448434 5.3841e-22)
(1.20187 0.0474683 0)
(1.17111 0.0387208 1.17002e-22)
(1.18052 0.0416231 2.1329e-25)
(1.15432 0.0329873 0)
(1.16246 0.0360441 -1.16119e-22)
(1.13993 0.027483 7.22388e-24)
(1.14681 0.0302732 -1.55852e-25)
(1.12769 0.0221716 6.72385e-24)
(1.13358 0.0248236 -8.96785e-26)
(1.11728 0.0170988 4.98792e-23)
(1.12227 0.0196434 0)
(1.10854 0.0121992 -6.48369e-23)
(1.11271 0.0146584 -1.2084e-25)
(1.10134 0.00743182 7.73695e-23)
(1.10478 0.00981395 0)
(1.09556 0.00282682 8.85666e-23)
(1.09828 0.00514082 0)
(1.09108 -0.00166989 1.02682e-22)
(1.09316 0.000585328 0)
(1.08786 -0.00607146 1.10457e-22)
(1.08932 -0.00386384 0)
(1.08586 -0.0103765 -4.41543e-25)
(1.08671 -0.0082161 4.37459e-25)
(1.08508 -0.014602 -2.32297e-25)
(1.08532 -0.0124812 4.62853e-25)
(1.08553 -0.0187599 -2.5048e-22)
(1.08515 -0.0166724 4.66945e-25)
(1.0873 -0.0228571 0)
(1.08624 -0.0208025 -7.36898e-25)
(1.09049 -0.0269219 0)
(1.0887 -0.0248602 -7.57437e-25)
(1.09545 -0.0309644 4.14126e-22)
(1.09269 -0.0290397 2.66839e-22)
(1.102 -0.0348732 -1.26779e-21)
(1.09865 -0.0329629 -2.75232e-22)
(1.11109 -0.0391629 0)
(1.10628 -0.0371672 1.18348e-21)
(1.11607 -0.0406613 5.94995e-22)
(1.11668 -0.0432981 3.1413e-22)
(1.11894 -0.0431856 4.95696e-21)
(1.11371 -0.0430819 0)
(1.18756 0.0812355 -1.42479e-22)
(1.19889 0.0875323 0)
(1.16708 0.0698596 0)
(1.17693 0.0752461 5.3555e-23)
(1.14927 0.0591114 4.02641e-24)
(1.15783 0.0645241 -2.17839e-23)
(1.13377 0.0494782 7.65749e-23)
(1.14135 0.0541251 1.10177e-22)
(1.12049 0.0410266 0)
(1.12684 0.0452183 0)
(1.10931 0.0332035 1.59622e-25)
(1.11466 0.0370245 1.63891e-27)
(1.09993 0.0260584 0)
(1.10441 0.0295534 6.12472e-28)
(1.09216 0.0194571 -4.08843e-25)
(1.09585 0.022696 0)
(1.08584 0.013299 -2.6563e-26)
(1.08882 0.016327 4.10516e-25)
(1.08086 0.0074879 1.43609e-26)
(1.08319 0.0103496 4.34301e-28)
(1.07713 0.00198409 2.45893e-25)
(1.07884 0.00470231 0)
(1.07459 -0.0032833 2.65561e-25)
(1.07571 -0.000676397 -2.54572e-25)
(1.07322 -0.00836318 8.13559e-29)
(1.07376 -0.00584475 -2.66642e-25)
(1.07302 -0.0132941 2.84803e-25)
(1.07297 -0.0108455 0)
(1.07404 -0.0181104 2.91127e-25)
(1.07337 -0.0157151 -2.85398e-25)
(1.07637 -0.0228388 2.96362e-25)
(1.07503 -0.020485 -2.92292e-25)
(1.08012 -0.0274609 -1.18707e-27)
(1.07807 -0.0251684 -2.97586e-25)
(1.08549 -0.0320469 -2.99287e-22)
(1.08255 -0.0297209 0)
(1.09278 -0.0366624 0)
(1.08891 -0.0343819 0)
(1.09733 -0.0390395 0)
(1.24803 0.116599 -5.97767e-22)
(1.29734 0.146353 4.93879e-22)
(1.21341 0.107449 -4.25501e-23)
(1.20238 0.100129 -1.40529e-22)
(1.11759 -0.0457277 -1.40405e-21)
(1.11506 -0.0460753 0)
(1.22534 0.115204 0)
(1.40246 0.14538 -1.31612e-20)
(1.12222 -0.0423455 1.59806e-20)
(1.12892 -0.0432512 -1.66173e-20)
(1.43534 0.126899 0)
(1.34133 0.135561 2.28037e-21)
(1.36385 0.14946 -2.61772e-20)
(1.43718 0.0716844 1.24444e-21)
(1.46858 0.075564 -3.83939e-22)
(1.46446 0.0931357 1.43604e-20)
(1.32945 0.145478 5.35175e-21)
(1.31756 0.156912 1.27087e-21)
(1.39135 0.0696301 4.0318e-21)
(1.41377 0.0692751 -5.85623e-21)
(1.34692 0.0673279 -4.01037e-22)
(1.36816 0.0682689 8.6098e-22)
(1.3069 0.0621876 -3.10852e-22)
(1.32595 0.0653612 1.3106e-21)
(1.27266 0.0559701 0)
(1.28935 0.0589211 -3.9855e-24)
(1.24228 0.050631 -5.75308e-24)
(1.25694 0.0532351 8.4159e-24)
(1.21622 0.0448423 0)
(1.22866 0.0475511 0)
(1.19362 0.0396501 0)
(1.20458 0.0420402 0)
(1.17402 0.0344726 -1.66288e-24)
(1.18343 0.0369909 1.37418e-24)
(1.15708 0.029458 -1.82279e-23)
(1.16529 0.032115 -5.85096e-25)
(1.14242 0.0245469 1.18469e-23)
(1.14942 0.0270419 -1.18583e-27)
(1.13004 0.0197188 3.23676e-23)
(1.13598 0.022142 4.27469e-26)
(1.11954 0.0150319 -9.543e-23)
(1.12457 0.0173887 9.29411e-25)
(1.11074 0.0104592 3.767e-24)
(1.11494 0.0127576 8.96632e-25)
(1.10349 0.00597011 -7.64827e-23)
(1.10694 0.00822304 -1.10545e-24)
(1.09767 0.00159289 -8.85614e-23)
(1.1004 0.00379287 0)
(1.09316 -0.0027037 -9.38562e-23)
(1.09526 -0.000546192 0)
(1.08991 -0.00692877 7.96188e-25)
(1.09138 -0.00480797 -7.87212e-25)
(1.0879 -0.01108 8.51863e-25)
(1.08875 -0.00899539 -8.44032e-25)
(1.08709 -0.0151682 0)
(1.08734 -0.0131151 0)
(1.08754 -0.0192014 1.22626e-22)
(1.08716 -0.0171753 9.06221e-25)
(1.0893 -0.0231888 0)
(1.08825 -0.0211866 1.43e-24)
(1.0925 -0.0271345 0)
(1.09071 -0.025141 4.99967e-25)
(1.09746 -0.0310866 -1.32024e-22)
(1.09471 -0.0291691 -2.64305e-22)
(1.10415 -0.0349351 -6.69439e-22)
(1.10067 -0.0330353 2.64333e-22)
(1.11309 -0.0389649 5.60193e-22)
(1.10843 -0.0370649 1.39032e-21)
(1.11771 -0.0405699 -5.96417e-22)
(1.12612 -0.0444384 0)
(1.12778 -0.0439382 2.19234e-21)
(1.12244 -0.0451813 -1.20495e-21)
(1.12468 -0.0449654 0)
(1.12007 -0.0453549 -8.7208e-22)
(1.18126 0.0864039 1.05604e-22)
(1.19177 0.0932308 -1.0663e-22)
(1.16129 0.0736129 -1.20871e-24)
(1.17093 0.0797963 -8.58623e-26)
(1.14425 0.0623788 -6.51883e-25)
(1.15244 0.0678312 3.03317e-26)
(1.12931 0.0523359 0)
(1.1365 0.0571692 0)
(1.11669 0.0434854 1.51024e-25)
(1.12273 0.0477845 0)
(1.10595 0.0353986 -3.37831e-25)
(1.11111 0.0393567 -1.14114e-27)
(1.09685 0.027986 0)
(1.1012 0.0316129 0)
(1.08929 0.0211532 0)
(1.09289 0.0245047 0)
(1.08312 0.0147943 4.43539e-25)
(1.08604 0.0179209 0)
(1.07824 0.00882494 0)
(1.08053 0.0117677 -4.75412e-25)
(1.07456 0.00316281 0)
(1.07626 0.0059587 0)
(1.07204 -0.00224148 0)
(1.07316 0.000432223 0)
(1.07066 -0.0074429 -2.17758e-27)
(1.07121 -0.00486429 0)
(1.07042 -0.0124869 -5.61319e-28)
(1.0704 -0.00998181 0)
(1.07137 -0.0174126 -1.16973e-27)
(1.07074 -0.0149621 0)
(1.07361 -0.0222569 6.12017e-25)
(1.07232 -0.0198424 0)
(1.07732 -0.0270687 6.20618e-25)
(1.07526 -0.0246619 -6.1389e-25)
(1.08277 -0.0319037 -4.92729e-27)
(1.07982 -0.0294885 -6.20693e-25)
(1.09029 -0.0368098 0)
(1.08622 -0.0343451 0)
(1.1002 -0.041731 6.18201e-22)
(1.09496 -0.0392941 0)
(1.54839 0.119888 3.72448e-21)
(1.53491 0.0926542 0)
(1.35037 0.157334 -1.56746e-21)
(1.47116 0.115147 1.07778e-20)
(1.11259 -0.0465184 -6.10274e-22)
(1.10612 -0.0441547 -6.08211e-22)
(1.25237 0.13416 -7.80583e-22)
(1.23845 0.123898 0)
(1.28472 0.157139 1.87797e-21)
(1.2673 0.145955 1.00557e-21)
(1.3402 0.168324 3.25079e-21)
(1.55358 0.0753243 3.98059e-20)
(1.56206 0.128073 3.48994e-20)
(1.4571 0.129918 -2.09734e-20)
(1.54198 0.0473915 -2.25932e-20)
(1.52923 0.0633397 0)
(1.19418 0.104965 1.52741e-22)
(1.20489 0.113022 -1.61692e-22)
(1.38943 0.165464 2.41591e-20)
(1.5528 0.0793293 -4.34092e-20)
(1.52501 0.04825 0)
(1.3041 0.170183 8.84488e-22)
(1.11001 -0.0469652 1.22163e-21)
(1.11939 -0.0488328 -1.18263e-21)
(1.11688 -0.0494076 1.19724e-21)
(1.56121 0.105022 1.0002e-20)
(1.43309 0.148824 7.12977e-21)
(1.55536 0.171564 0)
(1.43592 0.0540239 1.27806e-21)
(1.47045 0.0560428 0)
(1.39266 0.0537855 -1.84507e-21)
(1.41287 0.0532457 2.34111e-21)
(1.35043 0.0533516 3.91265e-22)
(1.37106 0.0530702 0)
(1.30963 0.0507514 6.13321e-22)
(1.32928 0.0525819 -1.05799e-23)
(1.27492 0.0467675 -4.68539e-22)
(1.29161 0.0488121 -1.10774e-23)
(1.24468 0.0429163 1.20177e-23)
(1.25928 0.044834 -1.43319e-23)
(1.21853 0.0386879 -2.62697e-22)
(1.23106 0.0407386 4.58541e-24)
(1.19598 0.0345066 8.96325e-23)
(1.20687 0.0365246 -3.2499e-24)
(1.17636 0.0302039 0)
(1.1858 0.0323396 0)
(1.15939 0.0258876 1.89332e-23)
(1.1676 0.0281562 0)
(1.14468 0.0215664 0)
(1.15172 0.0237681 0)
(1.13223 0.0172406 6.07322e-25)
(1.1382 0.0194251 -8.96007e-25)
(1.12169 0.0129512 4.60686e-23)
(1.12674 0.0151167 -1.91637e-24)
(1.11285 0.00870498 1.15915e-22)
(1.11707 0.0108449 0)
(1.10556 0.00449851 0)
(1.10902 0.00661559 0)
(1.09971 0.000353176 -2.48563e-24)
(1.10246 0.00243802 3.59429e-24)
(1.09518 -0.00374554 3.87066e-24)
(1.09729 -0.0016837 1.31354e-24)
(1.09191 -0.00779519 -1.53206e-24)
(1.09339 -0.00576032 6.02027e-26)
(1.08987 -0.0117927 -1.64507e-24)
(1.09074 -0.0097838 5.46968e-26)
(1.08906 -0.0157435 0)
(1.08931 -0.0137582 -1.67776e-24)
(1.08949 -0.0196516 -1.15924e-22)
(1.08911 -0.0176875 -9.09122e-25)
(1.09125 -0.0235256 0)
(1.0902 -0.0215786 8.90275e-25)
(1.09445 -0.0273608 0)
(1.09266 -0.0254281 1.891e-24)
(1.0994 -0.0312044 0)
(1.09665 -0.0293086 9.92666e-25)
(1.10614 -0.0349766 2.63566e-22)
(1.10259 -0.0331009 0)
(1.11511 -0.0388845 -1.12774e-21)
(1.11038 -0.0369703 -1.30029e-22)
(1.12605 -0.0428011 5.16708e-21)
(1.12034 -0.0408124 0)
(1.13168 -0.045831 -1.13552e-21)
(1.13325 -0.0440525 3.55371e-21)
(1.13354 -0.0454859 -2.14547e-21)
(1.12834 -0.0468633 -1.15885e-21)
(1.13036 -0.0464663 2.29397e-21)
(1.12415 -0.0477908 2.28046e-21)
(1.12637 -0.047324 2.80048e-21)
(1.12186 -0.0483037 5.9018e-22)
(1.17408 0.0905449 1.158e-23)
(1.184 0.0975583 4.17174e-24)
(1.15521 0.0772227 3.44243e-24)
(1.16437 0.0836976 0)
(1.13874 0.065313 2.33002e-25)
(1.1467 0.0711116 -3.03168e-26)
(1.12442 0.0547697 -1.43617e-25)
(1.13132 0.0598804 4.19872e-25)
(1.11216 0.0453871 1.36852e-24)
(1.11804 0.049957 0)
(1.10177 0.0369127 -1.92814e-26)
(1.10675 0.0410463 -1.34655e-24)
(1.09302 0.0292017 -1.72231e-24)
(1.0972 0.03297 0)
(1.08575 0.0221235 0)
(1.08921 0.0255913 1.72915e-24)
(1.07984 0.0155611 1.03249e-24)
(1.08263 0.0187842 0)
(1.07518 0.0094166 1.07647e-24)
(1.07736 0.0124414 -1.00647e-24)
(1.07169 0.00361416 0)
(1.07329 0.00647735 -1.06386e-24)
(1.06934 -0.00191637 1.15668e-24)
(1.07037 0.000818787 0)
(1.0681 -0.00723388 -2.34931e-27)
(1.06858 -0.00459853 -1.15665e-24)
(1.06799 -0.0123878 1.21969e-24)
(1.0679 -0.00982839 0)
(1.06905 -0.0174213 1.24432e-24)
(1.06837 -0.0149172 -1.22387e-24)
(1.0714 -0.0223693 1.26248e-24)
(1.07006 -0.0199044 -1.2486e-24)
(1.07515 -0.0272556 1.27261e-24)
(1.07309 -0.0248187 -1.26743e-24)
(1.08054 -0.0321248 1.28643e-24)
(1.07762 -0.0296872 -1.2801e-24)
(1.08783 -0.0369824 -1.29165e-24)
(1.08393 -0.0345545 -1.28641e-24)
(1.09762 -0.0419968 -6.26546e-22)
(1.09239 -0.03947 1.26922e-24)
(1.10351 -0.0444964 6.20461e-22)
(1.2164 0.121516 6.10722e-22)
(1.24112 0.141115 8.81725e-22)
(1.2285 0.130615 -9.94273e-22)
(1.27081 0.166952 -3.21598e-22)
(1.25503 0.154055 -8.83644e-22)
(1.37584 0.179924 6.22826e-22)
(1.52995 0.0234218 -6.83699e-21)
(1.52496 0.0372633 -6.3752e-21)
(1.44993 0.0427234 8.81724e-21)
(1.48391 0.079992 -2.03303e-20)
(1.12804 -0.0425016 3.2967e-21)
(1.13449 -0.0438304 -1.74336e-21)
(1.32607 0.186038 5.15512e-22)
(1.2881 0.181071 -2.59764e-21)
(1.12621 -0.0509979 -1.76723e-21)
(1.12392 -0.0516729 1.1859e-21)
(1.55363 0.149244 -5.61187e-20)
(1.4553 0.152229 -6.12165e-20)
(1.49831 0.020302 2.49005e-20)
(1.42569 0.17514 -4.6948e-20)
(1.36946 0.199826 0)
(1.19629 0.118542 8.36734e-24)
(1.18594 0.109969 0)
(1.43769 0.0363022 -3.87922e-21)
(1.47411 0.0355221 -1.64036e-22)
(1.39206 0.0384168 0)
(1.41323 0.0370938 0)
(1.35104 0.0395549 0)
(1.37108 0.0388559 -2.69485e-23)
(1.31105 0.039283 6.40784e-22)
(1.33049 0.0397847 1.05067e-23)
(1.2764 0.0376275 9.78576e-22)
(1.29304 0.0386057 0)
(1.2464 0.0353662 -3.73662e-22)
(1.26086 0.0365672 0)
(1.22038 0.0325405 1.07779e-22)
(1.2329 0.0339668 1.27012e-23)
(1.19784 0.0294185 -1.96793e-22)
(1.20872 0.0309927 2.22001e-23)
(1.17829 0.0259668 5.90654e-23)
(1.18771 0.0277187 0)
(1.16139 0.0223534 0)
(1.16955 0.0242514 0)
(1.14673 0.0186062 2.8041e-24)
(1.15376 0.0205285 9.21328e-25)
(1.1343 0.014763 -1.77616e-23)
(1.14027 0.0167157 1.79698e-25)
(1.12375 0.0108684 3.60801e-23)
(1.1288 0.0128439 4.793e-25)
(1.1149 0.00694731 -5.57575e-23)
(1.11912 0.00893008 0)
(1.10759 0.003018 0)
(1.11106 0.00500098 1.79551e-24)
(1.10173 -0.000897333 -7.65103e-23)
(1.10449 0.00107592 -1.14937e-24)
(1.09718 -0.00479803 8.99586e-23)
(1.09929 -0.00283313 -3.82669e-24)
(1.09389 -0.00867452 0)
(1.09538 -0.0067244 4.2533e-24)
(1.09183 -0.0125197 -3.17698e-24)
(1.09271 -0.0105858 4.72447e-24)
(1.09099 -0.0163339 -1.09342e-22)
(1.09125 -0.0144161 3.35102e-24)
(1.0914 -0.0201174 1.17678e-22)
(1.09104 -0.0182152 -1.75563e-24)
(1.09315 -0.0238762 0)
(1.0921 -0.021986 -1.83425e-24)
(1.09635 -0.0276053 9.41998e-25)
(1.09456 -0.0257279 -2.82966e-24)
(1.10127 -0.0313425 -1.2214e-22)
(1.09855 -0.0294827 0)
(1.10808 -0.0350522 0)
(1.10445 -0.0331915 0)
(1.11711 -0.0388591 -5.19815e-22)
(1.11234 -0.0369728 1.32409e-22)
(1.12226 -0.0406713 1.06101e-21)
(1.1365 -0.0471887 -5.30497e-22)
(1.1383 -0.0458253 -5.6282e-21)
(1.13775 -0.0465498 4.05261e-22)
(1.13376 -0.0483641 -6.8599e-26)
(1.13528 -0.0477875 0)
(1.13041 -0.049669 -2.94148e-22)
(1.13217 -0.049 -1.13305e-21)
(1.12841 -0.0503303 -1.71469e-21)
(1.16663 0.0945787 -1.16215e-23)
(1.17612 0.102055 -4.15045e-24)
(1.14871 0.0804483 -2.61858e-24)
(1.15745 0.0873693 0)
(1.13301 0.0679821 -1.10939e-24)
(1.14058 0.074002 3.8483e-25)
(1.1194 0.057013 2.9249e-24)
(1.12595 0.0623273 7.74742e-26)
(1.10774 0.0472837 -1.72636e-25)
(1.11334 0.0520081 -2.62217e-24)
(1.0978 0.0385407 -3.42293e-24)
(1.10257 0.0428034 -1.87833e-26)
(1.0894 0.0305969 -1.18495e-25)
(1.09342 0.0344776 3.41597e-24)
(1.08242 0.0233192 6.35157e-26)
(1.08574 0.0268828 0)
(1.07672 0.0165875 3.36268e-26)
(1.07942 0.019892 4.10573e-27)
(1.07224 0.0103001 8.5758e-28)
(1.07433 0.0133942 2.16263e-27)
(1.06888 0.00436972 0)
(1.07042 0.00729509 0)
(1.06663 -0.00127486 1.88317e-28)
(1.06762 0.00151583 -5.85718e-28)
(1.06545 -0.00669673 -8.95074e-29)
(1.0659 -0.00401006 0)
(1.06538 -0.01195 -6.02522e-28)
(1.06528 -0.00934117 0)
(1.06646 -0.0170828 -2.57068e-24)
(1.06577 -0.0145287 0)
(1.0688 -0.022138 -2.60595e-24)
(1.06746 -0.0196175 2.58028e-24)