/*--------------------------------*- C++ -*----------------------------------*\
  =========                 |
  \\      /  F ield         | OpenFOAM: The Open Source CFD Toolbox
   \\    /   O peration     | Website:  https://openfoam.org
    \\  /    A nd           | Version:  10
     \\/     M anipulation  |
\*---------------------------------------------------------------------------*/
FoamFile
{
    format      ascii;
    class       volVectorField;
    location    "30";
    object      U;
}
// * * * * * * * * * * * * * * * * * * * * * * * * * * * * * * * * * * * * * //

dimensions      [0 1 -1 0 0 0 0];

internalField   nonuniform List<vector> 
6397
(
(1.03239 -0.172203 1.17487e-20)
(1.03549 -0.183882 -5.57002e-20)
(0.898683 0.00343658 0)
(0.909879 -0.0544454 2.62927e-22)
(0.917032 -0.129594 -1.15502e-22)
(0.897208 -0.0664707 -1.88289e-22)
(0.761588 -0.470313 -5.30576e-20)
(0.460732 -0.672033 1.14587e-19)
(-0.0594872 -0.0243273 1.625e-20)
(-0.0662941 -0.0707283 -4.99552e-21)
(0.517869 0.744349 5.32558e-20)
(0.838886 0.753162 -4.38437e-21)
(0.478611 0.0302614 -2.64351e-22)
(0.543709 0.0183495 -9.24619e-23)
(0.351146 0.0283464 1.03657e-21)
(0.0749911 0.0198724 -1.66518e-19)
(0.301134 -0.0170384 -9.32708e-20)
(-0.0399779 0.0381927 7.7644e-20)
(0.330739 0.0335886 5.43012e-20)
(0.441613 -0.141995 -1.66096e-19)
(0.543509 0.00345451 -8.6466e-20)
(0.082882 -0.0304815 -6.2776e-20)
(-0.0855114 -0.0253507 2.69873e-21)
(0.300136 -0.0307764 -4.01419e-20)
(0.681968 0.0193942 0)
(0.680627 0.017169 5.48781e-23)
(0.81061 0.0227368 -3.09004e-23)
(0.976792 0.48738 9.44556e-21)
(0.995363 0.501411 -2.26014e-21)
(0.93617 0.416949 4.32291e-21)
(0.956821 0.457749 -6.73488e-21)
(0.96104 -0.133349 9.03398e-22)
(0.9399 -0.088227 2.73224e-22)
(0.927595 -0.109377 -2.7242e-22)
(1.02651 -0.149788 4.25575e-22)
(1.00209 -0.120784 0)
(0.996487 -0.146905 -2.55515e-22)
(0.971905 -0.110045 -5.8436e-22)
(1.04793 -0.124487 1.17251e-21)
(1.06664 -0.146311 -6.34574e-22)
(1.05028 -0.148818 0)
(1.02712 -0.122633 0)
(0.920287 0.347634 -2.33807e-21)
(0.869039 0.00233869 -1.49294e-21)
(0.865392 0.0865102 1.50099e-21)
(0.88528 0.000950452 -1.22927e-21)
(0.888033 -0.0764027 -1.14294e-21)
(0.875048 0.000287822 3.46257e-21)
(1.11368 -0.169273 1.08802e-21)
(1.10661 -0.151257 -1.97738e-22)
(1.12836 -0.145391 2.65738e-21)
(1.12588 -0.115841 -9.56367e-22)
(1.12351 -0.127722 -6.24166e-21)
(0.993243 0.205399 -6.81032e-21)
(1.04559 0.231503 4.49491e-21)
(1.03245 0.0510319 4.94761e-21)
(1.03799 0.06392 4.97776e-21)
(1.14994 -0.0339613 -4.05235e-21)
(1.03975 0.52471 -4.46987e-21)
(1.04572 0.520993 4.45022e-21)
(1.02785 0.504309 5.85573e-21)
(1.00692 0.452094 -5.75657e-21)
(0.977532 0.355914 -8.01663e-21)
(0.944486 0.211275 7.87966e-21)
(0.913931 0.0218918 0)
(0.89285 -0.185843 8.16935e-21)
(0.886172 -0.376156 -8.58158e-21)
(0.894949 -0.512805 0)
(1.0273 0.515953 -3.6747e-21)
(1.04685 0.506149 3.97161e-24)
(1.0375 0.506752 3.49091e-21)
(1.01182 0.511603 0)
(0.990081 0.480874 0)
(0.960572 0.415339 0)
(0.925768 0.30877 -2.44156e-23)
(0.890406 0.160375 3.84095e-24)
(0.862043 -0.0223421 0)
(0.846635 -0.215068 -8.13978e-25)
(0.848642 -0.384704 0)
(0.86761 -0.500972 0)
(1.04051 0.49942 -3.78897e-21)
(1.04252 0.493394 2.46734e-22)
(0.917924 -0.579158 0)
(0.902802 -0.550158 0)
(1.03721 0.502033 -1.56756e-22)
(1.03186 0.491077 0)
(0.950342 -0.584179 0)
(0.944978 -0.5495 0)
(1.02692 0.512615 8.00569e-21)
(1.01523 0.497677 -9.00259e-22)
(0.981211 -0.56451 0)
(0.982201 -0.537341 0)
(1.01542 0.517891 -6.41707e-21)
(1.00149 0.508122 -4.98986e-21)
(1.00127 -0.55723 0)
(1.0075 -0.542379 3.81916e-22)
(1.04099 0.519237 0)
(1.02863 0.519014 9.85786e-21)
(1.03509 0.529089 6.10379e-22)
(1.03959 0.49593 -3.25982e-21)
(1.04359 0.503701 0)
(1.0104 0.50003 -1.74595e-21)
(1.02878 0.497897 3.26601e-21)
(0.957607 0.448242 2.38677e-21)
(0.986797 0.488001 1.38281e-21)
(0.887382 0.263429 2.44562e-23)
(0.923969 0.374663 -2.51112e-21)
(0.827192 -0.0567658 3.26752e-23)
(0.852791 0.116584 -3.42243e-21)
(0.824341 -0.38195 -2.5553e-21)
(0.81663 -0.232576 5.53363e-21)
(0.896142 -0.51293 0)
(0.852024 -0.477615 0)
(0.986466 -0.504219 0)
(0.945579 -0.50889 0)
(1.01568 -0.519939 -7.13849e-22)
(0.964572 -0.606785 -4.32543e-21)
(0.999354 -0.566447 -1.61094e-21)
(0.986565 -0.585969 4.27269e-21)
(0.93612 -0.507415 6.83108e-21)
(0.947312 -0.590239 -6.67527e-21)
(0.954231 -0.145426 7.20917e-23)
(0.942129 -0.35013 2.58858e-22)
(1.00982 0.261309 0)
(0.982484 0.0727975 0)
(1.05869 0.481931 5.97549e-21)
(1.0397 0.399734 9.83913e-22)
(1.06996 0.528426 8.33931e-22)
(1.07012 0.519586 -5.9419e-21)
(1.05734 0.497279 1.86355e-21)
(1.0656 0.516653 -2.38996e-22)
(1.0282 0.472811 -3.34948e-21)
(1.04543 0.479247 -1.69322e-21)
(0.981003 0.474914 0)
(1.00545 0.474395 3.80501e-21)
(0.989833 0.466105 -5.69777e-21)
(0.960263 0.445283 2.30086e-22)
(1.02444 0.476069 3.17348e-21)
(1.03861 -0.549569 -1.19295e-21)
(1.02277 -0.566207 2.86595e-22)
(0.998959 -0.569096 -2.24663e-23)
(0.997974 -0.567413 1.61428e-21)
(0.989295 -0.555078 0)
(1.06049 -0.578214 8.00365e-22)
(1.05158 -0.522452 -1.38229e-21)
(1.08431 -0.550684 1.37435e-21)
(0.918998 0.38281 2.17065e-21)
(1.05659 0.524192 -5.17042e-21)
(1.06069 0.479934 -3.03702e-21)
(0.901301 0.317033 2.29568e-21)
(1.00808 -0.57212 9.66139e-23)
(1.05659 0.517513 0)
(1.05724 0.530195 -1.00834e-21)
(1.04201 0.484399 7.19875e-23)
(1.05195 0.497297 0)
(1.00043 0.476181 -4.51364e-22)
(1.02404 0.480132 8.99732e-22)
(0.936045 0.4154 0)
(0.969978 0.459734 2.35395e-22)
(0.862224 0.228199 0)
(0.899143 0.339726 1.4473e-22)
(0.805378 -0.0758993 0)
(0.828921 0.0867066 3.45303e-22)
(0.811308 -0.362507 -7.10737e-23)
(0.797872 -0.233719 2.72413e-22)
(0.896186 -0.465428 9.78689e-23)
(0.845842 -0.438879 -2.0275e-22)
(0.98948 -0.468007 -2.51288e-23)
(0.947964 -0.463725 -3.80958e-23)
(1.02164 -0.490962 3.27607e-22)
(0.987104 -0.622496 7.59166e-23)
(0.996464 -0.599559 6.00749e-23)
(0.9863 -0.501919 -7.62679e-24)
(0.983451 -0.59853 0)
(1.02801 -0.107009 0)
(1.00267 -0.328614 -1.45704e-22)
(1.08652 0.306169 0)
(1.05863 0.117637 0)
(1.11389 0.50093 -6.26955e-24)
(1.10544 0.432492 -9.9819e-22)
(1.10055 0.522383 -5.53544e-22)
(1.11166 0.524225 0)
(1.06862 0.481683 -1.50263e-21)
(1.0856 0.505296 0)
(1.02796 0.448071 9.58346e-23)
(1.05029 0.460225 1.50534e-21)
(0.969842 0.442191 2.67979e-24)
(1.00012 0.44585 3.8451e-22)
(0.942367 0.424014 -1.89073e-21)
(0.979662 0.390577 1.14795e-21)
(0.947274 0.373321 0)
(1.06036 0.393801 1.95167e-21)
(1.01755 0.394447 -1.67481e-21)
(0.964864 -0.554171 0)
(0.982913 -0.579526 0)
(1.03252 -0.593022 -4.80461e-22)
(1.06392 -0.487293 -1.28238e-22)
(1.10532 -0.511606 0)
(1.11779 -0.574246 -2.42384e-22)
(1.08182 -0.597791 1.14721e-22)
(0.951528 -0.52059 0)
(0.927654 -0.545314 0)
(0.905216 -0.50214 -7.74396e-22)
(0.910526 0.254229 3.03594e-21)
(0.889266 0.231083 0)
(1.06214 0.271097 -4.16221e-21)
(1.10388 0.392797 -3.11314e-23)
(1.11222 0.266357 1.03015e-20)
(0.888602 0.28946 0)
(0.908814 0.350281 -1.26717e-21)
(1.00505 -0.592839 0)
(1.08802 0.52023 5.63536e-22)
(1.10061 0.477342 0)
(1.07259 0.51039 1.16898e-23)
(1.08309 0.526194 1.14711e-23)
(1.04497 0.466113 -1.70694e-22)
(1.06195 0.485603 0)
(0.992971 0.445414 1.94662e-24)
(1.02227 0.455514 -1.66854e-22)
(0.91978 0.377165 -2.22292e-24)
(0.957588 0.424373 -1.81619e-22)
(0.843408 0.192156 4.31417e-22)
(0.880423 0.301085 0)
(0.791766 -0.0890998 0)
(0.811796 0.0586244 -4.39677e-22)
(0.807546 -0.335458 -1.07315e-22)
(0.78894 -0.228078 6.26471e-23)
(0.900335 -0.414563 0)
(0.847437 -0.395631 -1.13698e-23)
(0.99351 -0.430658 -4.40495e-23)
(0.951868 -0.417607 1.0825e-22)
(1.02816 -0.457968 2.32922e-22)
(1.0017 -0.562344 -3.59789e-22)
(0.984209 -0.534305 8.1855e-25)
(1.01477 -0.622657 -1.9435e-22)
(1.00937 -0.600747 6.39456e-22)
(1.04149 -0.488931 -1.92683e-22)
(1.02352 -0.594532 -8.91588e-22)
(1.10457 -0.0778553 0)
(1.06935 -0.306046 1.26319e-21)
(1.16056 0.324454 0)
(1.13739 0.145483 0)
(1.16545 0.496665 1.1749e-23)
(1.16906 0.440116 0)
(1.13099 0.503809 0)
(1.15156 0.511683 0)
(1.0828 0.461196 0)
(1.10656 0.485248 0)
(1.03257 0.421389 5.68708e-22)
(1.05854 0.437778 0)
(0.967955 0.408741 -2.65384e-24)
(1.00194 0.414643 -5.81018e-22)
(0.935025 0.389379 1.45238e-21)
(0.974272 0.276065 1.71067e-21)
(0.93888 0.26951 -2.84423e-21)
(1.01493 0.275804 3.77782e-21)
(1.14789 -0.53652 1.79567e-21)
(0.959282 -0.579355 0)
(1.03939 -0.606287 6.15478e-22)
(0.850429 -0.453563 8.13374e-22)
(0.883358 -0.504475 0)
(1.14573 -0.592434 3.13427e-22)
(1.09389 -0.605132 1.16766e-21)
(1.06963 0.121223 -4.96176e-23)
(1.1246 0.112347 7.84787e-23)
(0.908108 0.133586 2.89107e-21)
(0.88571 0.125014 2.36517e-21)
(0.906312 0.319725 9.08989e-22)
(0.883204 0.262247 0)
(1.14962 0.38513 5.85829e-22)
(1.16426 0.258049 1.25788e-21)
(1.18884 -0.560052 -1.80109e-21)
(1.22507 -0.570071 -3.6938e-22)
(1.16298 -0.592064 -3.25998e-21)
(0.875782 0.208885 5.71195e-22)
(0.995845 -0.600618 0)
(1.12119 0.512666 6.32586e-22)
(1.14049 0.4708 -2.79289e-21)
(1.09078 0.498173 -3.91203e-22)
(1.10938 0.517227 1.09132e-21)
(1.05095 0.443848 0)
(1.0737 0.469207 0)
(0.990047 0.411403 -6.63631e-25)
(1.02345 0.427196 -1.0379e-28)
(0.909867 0.337425 2.20305e-24)
(0.950868 0.385624 0)
(0.831443 0.158181 0)
(0.868508 0.261868 -9.56407e-29)
(0.785142 -0.0988478 0)
(0.801516 0.0334465 0)
(0.811793 -0.304174 0)
(0.787136 -0.21823 0)
(0.909614 -0.363149 0)
(0.856281 -0.348523 0)
(0.997854 -0.393162 0)
(0.958393 -0.372683 0)
(1.0747 -0.445564 -1.67448e-22)
(1.03397 -0.421299 0)
(1.16844 -0.48956 0)
(1.12107 -0.465551 8.61383e-24)
(1.2693 -0.526082 0)
(1.21866 -0.512166 -3.38223e-22)
(0.94829 -0.479937 -8.08085e-23)
(0.836135 -0.395643 -8.27941e-23)
(0.897329 -0.449987 8.1158e-23)
(1.01062 -0.545865 1.2833e-22)
(0.985517 -0.507598 -8.1827e-25)
(1.04556 -0.610513 -1.36798e-22)
(1.02758 -0.589366 -1.64486e-22)
(1.09965 -0.462949 -7.51524e-25)
(1.06815 -0.576148 0)
(1.18228 -0.0451969 0)
(1.13973 -0.274091 0)
(1.23284 0.33737 0)
(1.21589 0.171005 0)
(1.21436 0.484231 -7.65592e-25)
(1.23079 0.438992 0)
(1.15873 0.478119 0)
(1.18904 0.490835 0)
(1.09576 0.434847 0)
(1.12672 0.457881 0)
(1.03834 0.392552 2.30523e-22)
(1.06704 0.410965 -2.39757e-22)
(0.970362 0.372534 2.32962e-22)
(1.00564 0.38061 -2.27193e-23)
(0.93541 0.354769 -1.29219e-21)
(0.973518 0.132638 -2.52331e-21)
(0.936282 0.135774 -3.11427e-21)
(1.01801 0.128501 0)
(0.790054 -0.363488 0)
(0.771349 -0.303345 4.93483e-23)
(1.24972 -0.546542 4.15198e-21)
(1.31393 -0.516404 0)
(0.927296 -0.547376 0)
(1.03562 -0.600031 0)
(1.17907 0.103529 0)
(0.870775 0.114693 -3.73736e-21)
(0.908735 0.287664 4.79183e-22)
(0.883539 0.236801 0)
(0.82978 -0.420169 1.24984e-22)
(1.09083 -0.588691 -1.47332e-21)
(0.708026 -0.174257 7.22489e-23)
(0.727649 -0.23151 -9.38758e-23)
(1.16554 -0.548761 3.65884e-21)
(1.25194 -0.473429 8.91969e-22)
(1.34152 -0.470918 0)
(0.870169 0.187715 3.13718e-21)
(0.977665 -0.580471 0)
(1.19469 0.371587 -2.89943e-21)
(1.23005 0.09241 -2.58237e-21)
(1.21436 0.246467 -9.03265e-21)
(1.15394 0.497015 -7.10565e-22)
(1.17783 0.457085 2.5957e-21)
(1.10835 0.478357 0)
(1.13444 0.499996 4.09001e-22)
(1.05683 0.41761 8.94871e-29)
(1.08519 0.446252 -9.30517e-29)
(0.988993 0.374409 -6.39737e-25)
(1.02595 0.395362 0)
(0.904538 0.295899 0)
(0.947722 0.344728 0)
(0.82585 0.12588 -7.34972e-25)
(0.862471 0.222787 9.56395e-29)
(0.786507 -0.102941 7.21854e-29)
(0.798506 0.0124358 -7.49473e-29)
(0.825451 -0.267483 0)
(0.794702 -0.201398 0)
(0.92292 -0.315054 1.18784e-25)
(0.872518 -0.300071 0)
(1.00202 -0.356879 -1.57839e-25)
(0.965999 -0.331882 0)
(1.08165 -0.401051 -3.2192e-23)
(1.03923 -0.382066 0)
(1.17658 -0.438252 4.7565e-22)
(1.1281 -0.418492 8.78985e-23)
(1.28911 -0.467926 9.41187e-22)
(1.23094 -0.456684 -1.3505e-22)
(1.39613 -0.437414 3.11917e-21)
(1.34686 -0.464854 -9.39263e-22)
(0.830282 -0.331179 -8.9493e-23)
(0.70081 -0.120579 7.99612e-23)
(0.761852 -0.23901 8.79841e-23)
(0.950885 -0.435984 -2.11267e-23)
(0.895754 -0.393682 2.96576e-23)
(1.02128 -0.522597 -1.81189e-22)
(0.990859 -0.476246 -1.46405e-23)
(1.07567 -0.585725 0)
(1.04735 -0.567304 2.23911e-22)
(1.15582 -0.424818 -1.20604e-23)
(1.11058 -0.545556 -3.43001e-28)
(1.25834 -0.00742514 0)
(1.20849 -0.231819 0)
(1.29883 0.341123 -6.18157e-24)
(1.29064 0.194405 0)
(1.25513 0.457959 -4.86349e-24)
(1.28434 0.424838 0)
(1.18084 0.443715 0)
(1.21892 0.458462 0)
(1.10783 0.40341 0)
(1.143 0.424282 0)
(1.04491 0.361806 0)
(1.07534 0.381768 0)
(0.976636 0.33622 0)
(1.01214 0.346899 1.53566e-23)
(0.940418 0.319002 -3.35013e-22)
(0.656169 -0.0226271 -6.79545e-23)
(0.66269 0.00698793 0)
(1.33792 -0.373392 6.93882e-22)
(1.4229 -0.371437 -4.17934e-21)
(0.864217 0.101023 0)
(0.870286 0.166332 -3.38403e-22)
(0.877247 0.00438549 -2.09558e-21)
(0.870006 0.00510442 1.44251e-21)
(0.914724 -0.00691607 1.7014e-21)
(0.892857 0.00197256 -2.23398e-22)
(0.978782 -0.0219206 -3.77452e-23)
(0.942479 -0.0137045 -1.51516e-21)
(1.0756 -0.039572 -4.24557e-21)
(1.02355 -0.0299129 4.74029e-22)
(1.18765 -0.0567782 0)
(1.13188 -0.0491662 4.17802e-21)
(1.23968 -0.0639179 4.36954e-21)
(0.881519 -0.475431 -1.26006e-22)
(1.01456 -0.564811 -7.8462e-28)
(0.766292 -0.291734 9.42399e-23)
(1.07016 -0.524036 0)
(0.668911 -0.0658675 0)
(1.14276 -0.447543 0)
(0.663785 0.113488 -4.84911e-23)
(0.631163 0.123994 -4.91388e-25)
(1.21874 -0.339223 -4.75255e-21)
(1.41247 -0.259082 1.12713e-21)
(1.29645 -0.2183 3.9361e-21)
(1.27457 0.0784559 3.4499e-21)
(1.28594 -0.0702444 -3.45665e-21)
(0.942707 -0.526167 -7.64887e-28)
(1.23368 0.353001 2.37912e-22)
(1.25731 0.229841 -1.36281e-21)
(1.18126 0.473752 -2.65309e-22)
(1.20955 0.43632 0)
(1.1226 0.450942 1.08782e-28)
(1.15348 0.4747 3.20203e-22)
(1.06145 0.386835 0)
(1.09315 0.418032 0)
(0.989618 0.335405 -6.27478e-25)
(1.02793 0.360523 0)
(0.904349 0.253871 0)
(0.947897 0.30266 0)
(0.82735 0.0951618 6.92146e-25)
(0.862742 0.184154 0)
(0.796753 -0.102066 -1.08221e-25)
(0.803324 -0.00531871 0)
(0.847898 -0.227537 0)
(0.812122 -0.179118 0)
(0.937882 -0.272473 -5.14838e-25)
(0.89412 -0.253339 0)
(1.00759 -0.32191 4.67945e-25)
(0.974102 -0.296036 0)
(1.08679 -0.357973 -6.06019e-26)
(1.04507 -0.342682 -5.28575e-30)
(1.17679 -0.388015 -6.53184e-25)
(1.13027 -0.372807 0)
(1.28725 -0.405819 6.52452e-23)
(1.22964 -0.399967 2.09251e-22)
(1.4083 -0.384627 -1.25039e-21)
(1.34819 -0.403244 -1.13698e-21)
(1.47945 -0.262377 2.41404e-21)
(1.4569 -0.339831 -1.368e-22)
(0.709076 -0.0819567 -2.69362e-23)
(0.729202 0.0761616 4.91418e-23)
(0.699176 0.0101479 0)
(0.813057 -0.266503 3.32652e-23)
(0.751961 -0.180439 -7.77087e-23)
(0.933419 -0.389023 6.79522e-24)
(0.876503 -0.335092 6.54116e-24)
(1.01828 -0.492034 -8.79901e-26)
(0.979827 -0.439705 -8.38612e-25)
(1.0947 -0.549514 0)
(1.0545 -0.536269 0)
(1.20655 -0.372457 5.45829e-24)
(1.1444 -0.501058 -5.24896e-28)
(1.32795 0.0319929 7.6509e-28)
(1.27322 -0.179483 -8.0979e-28)
(1.35166 0.333822 1.46092e-24)
(1.35493 0.211433 0)
(1.28443 0.421705 0)
(1.32469 0.398861 0)
(1.19659 0.404428 1.58438e-24)
(1.2401 0.418968 0)
(1.11738 0.369249 0)
(1.1555 0.386921 0)
(1.0516 0.331151 5.0266e-25)
(1.08301 0.350427 0)
(0.985348 0.299878 -7.51123e-25)
(1.01972 0.313947 7.20852e-24)
(0.916672 0.255452 -3.44041e-22)
(0.949495 0.282936 0)
(0.875776 0.147218 -1.61085e-21)
(0.890637 0.210301 1.14836e-21)
(0.871333 0.0752591 -4.39867e-22)
(0.894169 -0.110182 0)
(0.883392 -0.0847133 -1.23786e-21)
(0.885095 -0.0935459 -2.34561e-22)
(0.928131 -0.141254 0)
(0.908225 -0.125016 0)
(0.9906 -0.168374 -1.80512e-21)
(0.954699 -0.154937 -3.978e-28)
(1.08624 -0.188363 1.05934e-21)
(1.03465 -0.178519 3.25984e-21)
(1.19333 -0.198908 0)
(1.14049 -0.194371 -2.99123e-21)
(0.708595 0.177056 2.58867e-25)
(0.785116 0.11599 -7.19005e-23)
(1.35778 -0.106567 -3.58875e-21)
(1.46415 -0.151238 -4.258e-21)
(1.28289 -0.198997 -3.19729e-21)
(1.24175 -0.200443 1.57481e-21)
(0.821027 -0.357081 -1.26336e-26)
(0.974422 -0.480316 0)
(0.700733 -0.120503 0)
(1.02597 -0.396111 -3.67388e-26)
(0.626529 0.110325 -6.43609e-25)
(1.08597 -0.279487 -1.49742e-21)
(0.649559 0.229478 -2.58637e-26)
(1.15086 -0.146258 0)
(0.838637 0.153135 -4.19778e-22)
(0.777102 0.207738 2.3207e-24)
(1.21064 -0.0257926 -5.93425e-21)
(1.4102 -0.0232436 4.7296e-21)
(1.2665 0.0577451 2.28336e-21)
(0.882499 0.122895 5.26178e-22)
(0.874712 0.205475 4.20647e-22)
(0.905679 0.179158 4.20374e-22)
(1.32421 0.100457 1.08337e-21)
(1.47933 -0.0626029 -2.61099e-21)
(1.43236 0.0340554 -1.77965e-22)
(1.31593 -0.194981 -1.07999e-21)
(1.27193 -0.288494 0)
(1.30222 -0.269996 1.24728e-21)
(0.889382 -0.423292 -1.03242e-27)
(1.31002 0.0631234 -5.92164e-22)
(1.32306 -0.0766147 -2.23663e-21)
(1.26227 0.329888 1.05945e-21)
(1.29198 0.20995 5.85557e-22)
(1.20149 0.44338 0)
(1.23513 0.409303 0)
(1.13325 0.418746 0)
(1.16859 0.442409 0)
(1.06652 0.353799 0)
(1.10025 0.385896 0)
(0.993178 0.296007 0)
(1.03177 0.324551 0)
(0.908004 0.211648 -4.5816e-29)
(0.951417 0.260415 4.7603e-29)
(0.834314 0.0664247 4.27764e-26)
(0.867252 0.145884 5.01737e-29)
(0.81685 -0.0942785 1.08221e-25)
(0.815677 -0.0182476 0)
(0.876429 -0.187268 0)
(0.839333 -0.151088 0)
(0.951461 -0.237316 -4.07738e-25)
(0.916682 -0.212419 0)
(1.01414 -0.287629 3.88655e-25)
(0.981993 -0.264164 0)
(1.08901 -0.317938 6.06059e-26)
(1.05059 -0.304558 0)
(1.17161 -0.341294 -4.1959e-25)
(1.12863 -0.330635 1.8951e-29)
(1.27195 -0.348244 -1.29339e-22)
(1.21973 -0.347442 0)
(1.38632 -0.324326 2.83796e-22)
(1.32858 -0.341952 1.87739e-22)
(1.48006 -0.235404 -1.32305e-21)
(1.43976 -0.289789 8.15177e-22)
(1.49521 -0.156689 2.43373e-21)
(0.813726 0.0297421 3.38216e-22)
(0.853656 0.0719841 -8.5397e-22)
(0.7543 -0.0727259 1.42609e-24)
(0.773682 -0.0146902 4.67381e-23)
(0.799055 -0.213647 2.95863e-22)
(0.76457 -0.142836 -3.13262e-22)
(0.898885 -0.339222 1.00252e-24)
(0.847392 -0.279294 -6.64364e-24)
(0.996069 -0.450542 8.77616e-26)
(0.948278 -0.395832 2.38519e-28)
(1.10289 -0.497308 0)
(1.04562 -0.492096 0)
(1.25566 -0.302862 -6.57186e-28)
(1.17342 -0.437797 6.95392e-28)
(1.38689 0.0701978 0)
(1.33364 -0.117903 0)
(1.38655 0.314643 1.49272e-24)
(1.4032 0.219333 0)
(1.30023 0.377136 0)
(1.34831 0.361982 0)
(1.20515 0.361973 -1.58438e-24)
(1.25114 0.373867 0)
(1.12457 0.333307 0)
(1.16326 0.34767 0)
(1.05766 0.300851 -4.0882e-25)
(1.08951 0.318011 -9.16949e-29)
(0.995968 0.266316 7.30268e-25)
(1.02755 0.282887 0)
(0.929195 0.224043 0)
(0.961721 0.248938 -5.46808e-27)
(0.885438 0.13261 1.87285e-22)
(0.902867 0.186653 4.31311e-26)
(0.881583 0.0678439 2.27257e-22)
(0.906993 -0.168341 -1.69189e-21)
(0.909873 -0.148906 8.25196e-22)
(0.915638 -0.214553 0)
(0.907549 -0.188577 0)
(0.945329 -0.255842 -1.46158e-25)
(0.927405 -0.23567 -2.81997e-28)
(1.00429 -0.288611 -2.01321e-25)
(0.970433 -0.273074 -3.65649e-28)
(1.09152 -0.307745 -2.1097e-22)
(1.04506 -0.300016 -8.13447e-28)
(1.18898 -0.308628 -1.46846e-21)
(1.14011 -0.310713 1.12215e-21)
(1.23402 -0.301319 2.43735e-22)
(0.750953 -0.18709 2.24548e-26)
(0.914892 -0.331786 -7.06915e-27)
(0.644219 0.0766054 0)
(0.955391 -0.201722 4.13842e-26)
(0.618942 0.259864 1.01286e-24)
(1.00054 -0.05447 1.49984e-21)
(0.711962 0.278731 7.58885e-25)
(1.04794 0.0798889 3.27608e-22)
(0.836275 0.240861 3.16636e-24)
(1.09118 0.174921 0)
(0.936824 0.22868 -4.6663e-22)
(0.904602 0.264245 0)
(1.1472 0.205901 1.44762e-21)
(1.36694 0.117335 1.01511e-21)
(1.22528 0.197734 -9.7296e-22)
(0.95979 0.195102 -6.51702e-24)
(0.977619 0.267155 -2.75529e-22)
(0.992976 0.229078 -4.90558e-24)
(1.29592 0.176462 1.47865e-21)
(1.40808 0.066036 8.50451e-22)
(1.35901 0.116164 2.67686e-21)
(1.24979 -0.344568 0)
(1.27244 -0.320735 2.68476e-21)
(1.33717 -0.189753 -1.56098e-21)
(1.32478 -0.247081 1.63179e-21)
(0.82129 -0.260567 5.76807e-27)
(1.33478 0.0460067 8.39836e-22)
(1.3508 -0.0811694 1.24058e-21)
(1.28086 0.301619 -6.08707e-23)
(1.31614 0.186844 4.19479e-22)
(1.21446 0.408978 3.93494e-25)
(1.25159 0.377635 -7.48586e-28)
(1.14231 0.383116 0)
(1.18007 0.406864 0)
(1.07115 0.318982 0)
(1.10728 0.351513 0)
(0.994611 0.255784 8.979e-25)
(1.03457 0.287559 0)
(0.910085 0.169896 0)
(0.952396 0.217739 0)
(0.846479 0.043557 0)
(0.872797 0.110275 0)
(0.847243 -0.07855 0)
(0.83719 -0.022604 0)
(0.905485 -0.152015 0)
(0.873158 -0.120527 0)
(0.962738 -0.20886 8.03794e-25)
(0.936017 -0.180387 0)
(1.02077 -0.254612 3.12286e-25)
(0.989952 -0.234717 2.29064e-28)
(1.08879 -0.281656 0)
(1.05439 -0.269306 0)
(1.16388 -0.298927 4.54413e-25)
(1.12478 -0.292029 -1.89509e-29)
(1.25183 -0.298899 -5.56893e-25)
(1.20641 -0.301348 -1.01583e-29)
(1.34917 -0.271651 -1.09204e-22)
(1.3002 -0.289883 -1.21971e-25)
(1.43675 -0.198117 6.52422e-23)
(1.39693 -0.241611 4.57253e-23)
(1.46604 -0.0712641 3.1478e-22)
(1.46224 -0.140194 -2.14077e-22)
(1.4468 0.000484004 -8.01481e-22)
(0.911814 0.103996 7.36361e-23)
(0.931133 0.153866 -9.87569e-24)
(0.880712 -0.000337112 -1.10998e-23)
(0.897044 0.0504463 0)
(0.836421 -0.0890744 -1.40989e-24)
(0.858212 -0.0450261 -4.73291e-23)
(0.833029 -0.186523 0)
(0.826365 -0.135967 0)
(0.891879 -0.291434 3.51145e-25)
(0.856369 -0.238402 0)
(0.988065 -0.395467 0)
(0.936081 -0.34482 0)
(1.12555 -0.422751 0)
(1.04978 -0.429306 0)
(1.31149 -0.219292 1.32407e-24)
(1.21618 -0.352732 0)
(1.42969 0.0993413 0)
(1.38879 -0.054711 0)
(1.40006 0.283428 3.22786e-24)
(1.42996 0.213771 0)
(1.30264 0.328438 9.67949e-25)
(1.35398 0.317196 0)
(1.20737 0.319374 3.30724e-25)
(1.25286 0.327151 -3.96993e-29)
(1.12921 0.297786 -5.46516e-26)
(1.16664 0.308884 1.28613e-28)
(1.06347 0.271177 -3.57402e-25)
(1.09489 0.285621 0)
(1.00629 0.235996 0)
(1.03472 0.254157 0)
(0.945628 0.194813 0)
(0.97578 0.217321 5.47744e-27)
(0.900454 0.118937 5.87575e-23)
(0.918899 0.163718 -4.23649e-26)
(0.894658 0.0632533 -6.84117e-23)
(0.942734 -0.185568 0)
(0.951209 -0.159738 1.48686e-22)
(0.934623 -0.242474 9.91494e-22)
(0.937193 -0.213352 1.92119e-22)
(0.939696 -0.297723 1.83797e-25)
(0.933866 -0.269459 3.39501e-28)
(0.964556 -0.343067 2.77166e-25)
(0.948906 -0.321188 5.10276e-28)
(1.01747 -0.376602 -6.38553e-28)
(0.98717 -0.361409 6.49273e-28)
(1.0944 -0.390859 -3.621e-22)
(1.05355 -0.386494 7.05403e-28)
(1.18029 -0.379464 1.46187e-21)
(1.13747 -0.388444 3.6897e-22)
(1.2184 -0.364898 1.3259e-21)
(0.682811 0.0248389 0)
(0.838607 -0.12003 2.36764e-27)
(0.61361 0.265632 0)
(0.864042 0.0427036 -1.69713e-25)
(0.659966 0.347657 -1.02698e-24)
(0.890662 0.196576 -2.73758e-24)
(0.789388 0.298515 -1.53431e-25)
(0.918886 0.304626 8.7832e-24)
(0.873177 0.296272 -5.52315e-24)
(0.952403 0.343185 1.19123e-23)
(0.946329 0.311684 0)
(1.01416 0.312704 1.25624e-22)
(1.02947 0.258692 -9.08887e-23)
(1.02176 0.300294 1.79165e-22)
(1.12383 0.256202 2.36109e-23)
(1.30668 0.147833 -2.82851e-21)
(1.22954 0.208544 -2.58926e-21)
(1.28639 -0.296378 -9.73558e-22)
(0.746388 -0.0429 -1.19931e-26)
(1.34848 -0.176889 1.19013e-21)
(1.28151 -0.268159 -5.5969e-21)
(1.33162 -0.232547 3.27208e-21)
(1.35138 0.0286135 -2.64197e-22)
(1.36563 -0.0872661 -1.12191e-21)
(1.28865 0.268818 6.07931e-23)
(1.32861 0.157366 -8.50225e-23)
(1.21329 0.374143 7.82961e-23)
(1.25242 0.34333 -7.31052e-23)
(1.14063 0.346511 -5.33068e-25)
(1.17862 0.370214 6.31025e-29)
(1.06581 0.281549 -9.49493e-25)
(1.10422 0.314791 -3.29196e-28)
(0.987049 0.214851 3.49108e-25)
(1.02723 0.248582 0)
(0.911099 0.133201 0)
(0.947317 0.176905 0)
(0.868407 0.0317835 -1.48922e-24)
(0.883206 0.0834246 0)
(0.884021 -0.0587741 6.71613e-28)
(0.869352 -0.0170583 -6.9732e-28)
(0.929553 -0.125918 6.64333e-28)
(0.906386 -0.0940518 -6.89523e-28)
(0.973201 -0.184342 -6.26801e-28)
(0.951184 -0.156498 6.50347e-28)
(1.0268 -0.224226 -2.26682e-24)
(0.998486 -0.206995 5.97667e-28)
(1.08718 -0.248901 1.09508e-24)
(1.05655 -0.237783 5.18868e-28)
(1.15455 -0.261346 3.5463e-25)
(1.11973 -0.256993 0)
(1.23008 -0.257065 6.17993e-25)
(1.19144 -0.26154 2.47399e-28)
(1.31056 -0.228767 -3.12621e-25)
(1.27022 -0.246585 0)
(1.3817 -0.166538 1.39618e-23)
(1.34908 -0.202399 0)
(1.41407 -0.0688994 1.32265e-22)
(1.40488 -0.121378 -1.37623e-22)
(1.38287 0.0343004 0)
(1.40583 -0.0148186 4.72033e-23)
(1.309 0.0992493 2.87484e-21)
(1.34875 0.0733849 -2.76174e-21)
(0.981484 0.168185 5.46947e-23)
(1.04194 0.224473 2.73557e-22)
(1.00996 0.198419 -2.65006e-22)
(0.938803 0.089874 2.06555e-23)
(0.956764 0.132459 2.11213e-24)
(0.92367 -0.00888004 0)
(0.928482 0.0418822 0)
(0.914924 -0.101254 -1.67366e-24)
(0.919961 -0.056935 0)
(0.912879 -0.180261 0)
(0.911217 -0.141773 0)
(0.946995 -0.257274 -1.35363e-24)
(0.924199 -0.217994 0)
(1.03266 -0.335673 0)
(0.982675 -0.29803 0)
(1.18402 -0.333845 0)
(1.09933 -0.354832 0)
(1.36866 -0.138099 -1.20034e-24)
(1.27979 -0.258423 0)
(1.44735 0.110977 0)
(1.42806 -0.00488183 0)
(1.39199 0.243366 1.3174e-27)
(1.43077 0.193374 -1.39484e-27)
(1.29403 0.279869 -9.67256e-25)
(1.3437 0.269127 -7.34446e-28)
(1.20461 0.27856 -1.52981e-25)
(1.2472 0.281863 -1.33402e-28)
(1.13155 0.263833 -3.70189e-25)
(1.16647 0.272004 0)
(1.06895 0.242543 2.63998e-25)
(1.09908 0.254207 -4.04906e-28)
(1.01577 0.209531 4.8646e-28)
(1.04145 0.227417 -5.1587e-28)
(0.963176 0.167849 0)
(0.989609 0.189715 0)
(0.919616 0.104654 -4.10543e-23)
(0.938509 0.140513 6.71078e-23)
(0.912892 0.0100865 0)
(0.91065 0.0594586 -4.74077e-24)
(0.922829 -0.0407178 0)
(0.972701 -0.235097 0)
(0.987138 -0.174149 -5.79945e-23)
(0.97959 -0.204629 -7.7238e-23)
(0.963652 -0.299141 -1.07168e-22)
(0.967458 -0.267025 -1.38848e-22)
(0.965146 -0.356059 -1.52314e-26)
(0.961661 -0.328057 0)
(0.984225 -0.401647 -1.31232e-25)
(0.971614 -0.379953 0)
(1.02829 -0.431777 0)
(1.00302 -0.419001 0)
(1.09316 -0.437941 3.4432e-26)
(1.05857 -0.438238 0)
(1.16512 -0.415365 0)
(1.12939 -0.43008 0)
(1.22408 -0.365671 0)
(1.19745 -0.393741 4.12052e-22)
(1.26345 -0.290961 0)
(1.24451 -0.331088 -4.71941e-22)
(1.07001 0.283194 -2.02334e-22)
(1.07763 0.24383 0)
(1.25662 0.159758 2.68488e-22)
(1.26788 0.110449 2.17954e-22)
(0.631165 0.246351 1.68018e-25)
(0.753415 0.131993 0)
(0.951912 -0.0700655 0)
(0.627354 0.400796 1.43418e-25)
(0.761832 0.303188 1.32157e-25)
(1.27367 -0.247932 -9.7252e-23)
(1.22312 -0.297868 0)
(1.2319 -0.258683 0)
(0.739704 0.375068 4.20316e-25)
(0.768347 0.432539 1.97518e-24)
(0.847727 0.335046 0)
(0.779199 0.485126 -1.24411e-23)
(0.908602 0.356345 0)
(0.808249 0.454728 0)
(0.997934 0.345958 0)
(0.885639 0.364121 -3.85016e-22)
(1.06838 0.329669 -4.47201e-22)
(1.03497 0.276099 1.02965e-22)
(1.11633 0.258224 0)
(1.11539 0.30154 3.28189e-22)
(1.17213 0.215216 -2.71367e-21)
(1.21367 0.153251 4.55844e-21)
(1.22992 0.10747 -3.81765e-21)
(0.675792 0.201259 8.02233e-27)
(1.35167 -0.164164 -2.67865e-22)
(1.32297 -0.205998 0)
(1.36025 0.00972634 5.86905e-24)
(1.36898 -0.0871956 1.40009e-22)
(1.28938 0.227998 0)
(1.33342 0.124149 -2.41118e-23)
(1.19764 0.335887 0)
(1.24306 0.302761 -6.78008e-24)
(1.12101 0.310137 5.33007e-25)
(1.15852 0.334038 0)
(1.0479 0.243759 2.26249e-24)
(1.08472 0.277769 0)
(0.977085 0.177986 2.91306e-25)
(1.01177 0.210624 0)
(0.9213 0.107706 -1.67207e-24)
(0.945973 0.143876 -1.5518e-27)
(0.901246 0.0304704 1.48763e-24)
(0.905806 0.0691772 1.6436e-27)
(0.918536 -0.0423321 -1.71306e-24)
(0.906655 -0.00706356 1.54985e-27)
(0.948122 -0.108039 -1.54542e-27)
(0.933036 -0.0760014 1.49765e-27)
(0.984484 -0.162128 -1.54684e-24)
(0.96476 -0.137342 1.51345e-27)
(1.03251 -0.19743 2.69448e-24)
(1.00753 -0.181832 0)
(1.08587 -0.219561 2.0959e-25)
(1.0586 -0.209928 1.27084e-27)
(1.14517 -0.228541 -2.02657e-24)
(1.1148 -0.225832 0)
(1.20934 -0.221896 -6.17371e-25)
(1.1768 -0.227384 -8.93606e-28)
(1.27475 -0.194573 0)
(1.24237 -0.211179 0)
(1.3302 -0.141545 9.38356e-23)
(1.30496 -0.171382 -9.7147e-23)
(1.35663 -0.0655624 0)
(1.34867 -0.105801 -7.26925e-29)
(1.33762 0.0128794 7.96022e-23)
(1.35309 -0.0245403 -1.07622e-22)
(1.28314 0.0631421 1.414e-21)
(1.31313 0.0427104 -1.41038e-21)
(1.22112 0.0716468 0)
(1.25138 0.0724599 -2.16939e-22)
(1.04964 0.193192 1.5883e-22)
(1.11326 0.22185 1.39808e-22)
(1.08026 0.20988 -5.59062e-23)
(0.998253 0.143987 5.33963e-22)
(1.02213 0.17086 -1.56472e-22)
(0.962789 0.0768625 2.9948e-22)
(0.977752 0.112893 -8.48531e-22)
(0.953259 -0.00836396 -1.5235e-24)
(0.954357 0.0363514 1.16876e-23)
(0.966619 -0.0976137 1.67367e-24)
(0.958245 -0.0537604 0)
(0.989994 -0.172281 6.78246e-27)
(0.977152 -0.137308 -7.17104e-27)
(1.03122 -0.231569 -6.61513e-27)
(1.00721 -0.202904 6.99539e-27)
(1.11321 -0.279644 -1.50078e-24)
(1.06532 -0.258631 0)
(1.25691 -0.24803 4.17803e-27)
(1.17772 -0.281217 -4.41989e-27)
(1.40282 -0.0776747 -1.25255e-25)
(1.33823 -0.175625 1.62261e-27)
(1.43387 0.103734 0)
(1.43522 0.0212664 0)
(1.36721 0.200785 2.14562e-25)
(1.4073 0.162677 -1.13056e-29)
(1.27823 0.235387 -1.16154e-28)
(1.32251 0.223277 1.23016e-28)
(1.19845 0.241184 4.17057e-25)
(1.23667 0.240657 0)
(1.13185 0.23247 4.2472e-25)
(1.16373 0.238051 0)
(1.074 0.215295 -8.18264e-25)
(1.10203 0.224817 0)
(1.02439 0.186166 1.4669e-27)
(1.04793 0.202454 -1.55547e-27)
(0.980154 0.14468 0)
(1.00192 0.166539 0)
(0.940746 0.089735 7.67466e-23)
(0.958761 0.119481 1.03652e-22)
(0.928667 0.0124674 -4.06709e-22)
(0.929333 0.0532688 1.9883e-22)
(0.93689 -0.0301551 0)
(1.0172 -0.209428 -9.31174e-24)
(1.02469 -0.179791 3.46526e-22)
(1.00457 -0.274797 0)
(1.01126 -0.242005 9.14433e-24)
(0.992822 -0.338629 3.87081e-25)
(0.998174 -0.307608 0)
(0.990339 -0.392893 -1.67765e-25)
(0.98951 -0.36665 -1.1541e-27)
(1.00259 -0.435063 0)
(0.993747 -0.415434 0)
(1.0358 -0.458967 0)
(1.01655 -0.449705 0)
(1.0866 -0.457162 -3.42304e-26)
(1.05937 -0.461559 0)
(1.14394 -0.426523 0)
(1.11534 -0.445352 0)
(1.19225 -0.369238 4.55456e-22)
(1.17014 -0.400787 -3.98037e-22)
(1.21025 -0.3332 -5.7384e-24)
(1.15781 0.265801 0)
(1.14802 0.227829 -6.29883e-23)
(1.19754 0.0935988 2.78579e-21)
(1.19469 0.0624005 -2.97435e-21)
(0.615054 0.429157 -4.44205e-26)
(0.674291 0.382931 5.3299e-26)
(1.26732 -0.205115 6.29563e-23)
(1.23671 -0.214103 4.30396e-22)
(0.692351 0.457305 -1.53856e-24)
(0.667835 0.530354 0)
(0.820699 0.392391 -2.64252e-24)
(0.65498 0.606817 -5.23056e-24)
(0.88659 0.399146 0)
(0.648326 0.594084 0)
(0.961138 0.398502 -4.43943e-23)
(0.674713 0.499304 8.92255e-24)
(1.04891 0.377614 0)
(0.771523 0.364288 2.60392e-22)
(1.12045 0.35251 5.01008e-22)
(0.966635 0.263205 0)
(1.16464 0.313084 -1.0371e-21)