/*--------------------------------*- C++ -*----------------------------------*\
  =========                 |
  \\      /  F ield         | OpenFOAM: The Open Source CFD Toolbox
   \\    /   O peration     | Website:  https://openfoam.org
    \\  /    A nd           | Version:  10
     \\/     M anipulation  |
\*---------------------------------------------------------------------------*/
FoamFile
{
    format      ascii;
    class       surfaceScalarField;
    location    "13";
    object      phi;
}
// * * * * * * * * * * * * * * * * * * * * * * * * * * * * * * * * * * * * * //

dimensions      [0 3 -1 0 0 0 0];

internalField   nonuniform List<scalar> 
57492
(
-0.0258353
0.00293679
0.00569915
0.0171994
-0.000952446
-0.0213878
-0.00349507
-0.00354
0.0117441
0.0335973
-0.0418014
0.0989104
0.0723644
-0.0163812
-0.154894
-0.209906
0.0849817
0.223835
0.0527578
-0.0518476
-0.0271297
0.0262195
-0.0965527
0.0236596
-0.0141364
0.0870295
0.0171156
-0.0609105
0.0233613
-0.101147
0.0960201
-0.0182342
0.0213663
0.0924571
-0.090462
0.00416896
-0.00590888
0.0146837
-0.0129438
-0.00976503
-0.0071303
0.0210643
-0.00860609
0.00293939
-0.00409833
-0.00138973
-0.0131252
0.105918
-0.0884721
-0.0396301
0.0221845
0.00113718
0.0794096
0.025371
-0.00150859
0.0127465
0.0862548
-0.0974927
-0.0115669
0.0853664
-0.0753081
0.0164172
-0.0343808
0.0179636
-0.0933559
0.0626867
0.0470864
-0.115362
0.0145915
0.0845387
0.0162321
0.0194892
-0.116953
-0.0178984
0.000513226
0.00518826
-0.0236539
0.0179524
0.0108237
-0.0115829
0.00127245
-0.161445
0.171223
0.0155562
-0.0253345
-0.18733
0.0703013
-0.044416
-0.0722482
0.0251635
0.0371846
0.00990001
-0.0491085
-0.0262621
0.00312249
-0.0279063
-0.0741474
0.0939189
0.0081349
-0.03505
0.0126351
-0.00549135
0.0651354
-0.0412668
-0.0399181
0.0160495
-0.0516991
0.0424143
0.0744202
-0.0775661
-0.134837
0.076232
0.136171
-0.131715
-0.0433822
0.0975307
-0.0603156
-0.00948084
0.0697965
-0.0164644
-0.0438512
-0.0765748
0.0941786
-0.0340682
0.0159577
-0.0503544
-0.0421782
-0.0506214
0.074281
-0.0278935
-0.113239
0.0549613
0.0582775
-0.204627
0.0913882
0.0857864
-0.0149994
0.00748702
-0.0782741
0.0614221
-0.00286534
0.0272297
-0.012582
0.0857
-0.0881174
0.0953494
0.0151436
-0.0933774
0.0931727
-0.0119596
0.103829
-0.0360461
-0.0760765
0.00829329
0.117322
0.00165063
0.0786833
-0.0434754
0.0579648
0.0285748
0.137138
-0.100246
-0.0121782
0.0106108
0.101814
-0.103545
-0.00534225
0.00864032
0.0145086
0.0984662
-0.0972672
-0.0157076
0.00728985
-0.0939285
-0.109485
0.117988
0.124706
-0.133209
-0.0171721
0.12535
-0.217662
0.00204868
0.00574943
-0.000904836
-0.00689328
0.0017588
0.00322928
-3.5867e-05
0.00726924
-0.00547458
0.0062517
-0.000538135
-0.0048478
0.00394297
0.000334178
-0.00518198
0.254707
0.0847692
-0.177457
-0.162019
0.068432
-0.0492281
0.235503
-0.216641
0.0662835
0.218789
0.0344496
-0.166322
0.0290434
-0.0798786
0.063904
-0.0130687
0.0689633
-0.0808726
0.0409528
0.00361496
-0.00179083
0.00111267
0.00732921
0.0019849
0.0201709
0.00435771
-0.0881952
0.160489
0.0711557
-0.143449
0.0949257
-0.114158
0.051258
0.151314
-0.0420827
0.365412
-0.0321592
-0.111471
-0.221782
0.0982501
0.199941
0.0672211
0.054972
-0.13749
0.180768
0.00739222
-0.0109322
0.0191364
0.0596198
0.0874048
-0.0419984
-0.105026
0.0805697
0.0126473
0.0101265
-0.00380924
-0.00631725
0.0175217
-0.00739525
-0.189983
0.0948581
-0.0736715
0.168797
-0.160726
-0.09145
0.0621928
-0.0898911
0.088384
-0.159219
0.107081
-0.00232329
-0.05322
-0.0515374
-0.0474096
0.120733
0.0337572
-0.0583506
-0.00694018
0.0178812
-0.0515836
-0.00909033
-0.0200022
-0.0848013
-0.0314594
0.0124864
0.0102168
0.00875626
0.00928171
-0.0316341
-0.00910699
-0.0169869
-0.00460666
0.0308753
-0.0095716
0.00507102
-0.00495123
0.00559639
-0.0534074
0.0334052
0.00658207
-0.0599895
0.00735377
0.010168
0.117887
0.0764615
-0.00868115
0.0422541
-0.134273
-0.015377
0.0956311
-0.0671886
-0.0130655
-0.0229081
0.100802
-0.0932711
0.0836035
0.0481007
-0.0138391
-0.117865
-0.026252
0.0113305
0.0985251
0.106838
-0.0849893
-0.0334357
-0.0714534
0.0213239
0.0835653
-0.0343419
0.082492
-0.0815858
0.00268571
-0.108481
-0.0106574
-0.0114535
-0.000593658
-0.0353498
0.0252074
0.00918996
0.0194906
-0.00726356
-0.0475769
-0.0149964
0.0130992
-0.0147144
0.0240024
0.00612994
-0.0154179
0.0448779
-0.0419213
-0.017671
-0.024126
0.0544805
0.0145234
-0.0124402
0.0123166
-0.16276
0.0934547
0.164163
0.175256
-0.0647964
-0.20191
-0.0785388
0.0910354
-0.0065548
-0.0558525
-0.0117402
-0.0423383
0.000733503
0.00125608
-0.0141801
0.00665258
0.00627144
-0.0122271
0.00714796
0.00633518
-0.0188904
-0.00751681
-0.018075
-0.0289165
0.0046532
-0.0464933
-0.0274342
-0.0488053
-0.0513423
0.0624181
0.0377295
0.00346462
0.0220123
-0.0742822
-0.0685766
0.0206989
-0.129181
0.0464424
-0.0106171
-0.124524
0.0106454
-0.0153027
-0.00522592
-0.0859273
0.0791613
0.0119919
-0.00044686
-0.0891257
0.0843466
-0.00971355
-0.280841
-0.0769524
0.0931458
0.0864027
-0.116913
0.102377
-0.0176788
0.0208332
-0.0254399
0.0208336
-4.39453e-07
0.0252798
-0.0056276
0.0992412
-0.0611925
-0.042994
0.00494516
0.0851206
0.00153862
0.149208
-0.0117377
-0.154642
0.0339022
0.111201
0.00410478
0.0095176
-0.0893598
0.113744
0.00232418
0.0185094
0.0343515
-0.112571
-0.107077
0.0716538
0.137463
0.0642505
-0.00414896
-0.0668553
0.00675373
0.0195962
-0.00704481
-0.0815326
0.0137721
0.110175
0.0098555
-0.0717919
-0.00980701
-0.000387167
-8.01346e-05
0.0022169
-0.000164523
-0.00197225
0.00568887
-0.000721078
-0.00504792
0.0332845
0.0165416
-0.0441372
-0.0265046
0.0555556
-0.0216972
0.191588
-0.151084
-0.0670083
-0.00408307
-0.100049
0.117904
-0.227674
-0.00888436
-0.174678
-0.0935833
0.0405875
0.0806765
0.0624151
-0.1285
0.046802
0.121425
-0.0875508
0.0440985
-0.0816297
0.0485877
-0.0110565
0.0481457
-0.0788349
0.0747877
0.112957
0.033997
0.108955
-0.00526556
-0.108678
0.00498837
0.119952
-0.0145214
0.00352396
0.122226
-0.0136413
-0.00463522
-0.103949
0.0874008
-0.0241992
0.0590242
0.100439
-0.025099
0.0193596
-0.0946992
0.0220995
0.102154
-0.023815
-0.0916285
-0.031332
0.0978614
0.0173566
-0.0876612
-0.0330038
0.0852371
-0.0433472
-0.0778467
0.0377754
0.0834185
-0.0451981
-0.0794234
0.0812744
0.0416676
0.0755173
-0.0241269
-0.093058
0.0746823
-0.0782128
-0.0486315
0.0489652
0.0743486
-0.0383955
0.0652813
-0.0986337
0.0871797
-0.0126729
-0.127419
0.00987947
0.128488
-0.0109491
0.0323403
0.0696422
0.0451784
-0.0246579
-0.0901627
0.0447571
0.0532381
-0.028353
0.00856275
-0.0197088
-0.00385031
-0.0670054
-0.0967739
0.058427
-0.0031885
0.00246742
0.000674734
-0.00386324
-0.0131353
-0.11367
0.0833299
-0.0944705
-0.0114469
0.0927822
0.0083073
-0.0987043
-0.0040735
0.00568045
0.0244809
-0.00441438
-0.025747
0.0222979
0.0197215
-0.036339
0.027423
0.0193558
0.000338815
-0.00358829
-0.00820404
-0.00543682
0.00577564
-0.00902511
0.00165858
-0.00185227
0.00644539
-0.00155257
0.00321114
-0.00340483
0.00448576
-0.0014625
0.00780042
-0.00515281
0.00963858
-0.00661532
0.00814322
-0.00100364
-0.0195798
-0.00330758
0.0114508
-0.00431122
0.0339022
0.0822988
-0.10487
0.0347171
-0.109403
0.108588
0.117815
-0.000798694
-0.034164
-0.0640383
0.0339831
0.0642192
-0.0156007
0.0678719
-0.0864351
0.00709123
-0.0867302
0.0806637
-0.0822893
-0.070537
0.0721626
0.0804384
-0.067628
0.0678533
-0.072706
-0.082602
0.0730187
0.0803744
-0.0641807
0.0642447
0.0810534
-0.0577474
0.0570684
-0.0512946
0.0827508
0.0495973
0.0763446
-0.0768531
-0.050786
-0.046434
0.0858581
0.0433267
0.0740332
-0.0441226
-0.0760188
-0.0585817
-0.0773636
-0.0628359
-0.0787219
-0.0662697
-0.0811299
-0.0681289
-0.0812057
-0.0726303
-0.0367908
0.0899258
0.0327231
0.070508
-0.0332656
-0.0740028
-0.0824893
0.0738902
-0.0835946
-0.0716139
-0.0743663
-0.0863271
0.078204
-0.0221281
0.0906328
0.0214211
0.0705611
-0.0221812
-0.0872522
-0.0707087
0.0916817
-0.0101827
0.00913377
0.00207164
0.0928778
-0.00326782
0.0709593
-0.0105809
0.0716526
0.00137833
-0.0742107
-0.0865247
0.0744083
-0.0877805
-0.0736824
0.0140981
0.0941116
-0.0153318
0.0725367
0.013214
-0.0748304
-0.086681
0.0749868
-0.0886358
-0.0739751
0.0253515
0.0956049
-0.0268448
0.0737446
0.0241435
-0.0755507
-0.0862062
0.0750759
-0.0887181
-0.0754685
0.0357149
0.0967724
-0.0368824
0.0749269
0.0345327
-0.0766737
-0.0857905
0.0762579
-0.0890305
-0.0763612
0.0445821
0.09824
-0.0460498
0.0764919
0.0430171
-0.0779747
-0.0847481
0.0769324
-0.088621
-0.0783842
0.0523192
0.0990038
-0.053083
0.0778764
0.0509346
-0.079065
-0.0840683
0.0783852
-0.0882895
-0.0793965
0.0583202
0.100024
-0.0593403
0.0797914
0.0564052
-0.079889
-0.0808676
0.0766882
-0.0864316
-0.0817469
0.0634107
0.0998826
-0.0632694
0.0804606
0.0627416
-0.0805367
-0.0793662
0.0790353
-0.0860503
-0.0809181
0.0671044
0.0995405
-0.0667624
0.0809373
0.0666277
-0.0789663
-0.0767526
0.0763527
-0.0836307
-0.0813858
0.0738826
0.093746
-0.0680881
0.0847987
0.0700212
-0.0760158
-0.0757886
0.0750518
-0.0829867
-0.0766598
0.0750317
0.0885846
-0.0698702
0.0870618
0.0727686
-0.0706386
0.0692499
-0.0743999
-0.0834592
-0.0701662
0.0724814
-0.0723169
0.08842
0.0876069
0.0719363
-0.0700377
0.0732838
0.0718057
-0.0680063
0.0672185
-0.0615819
0.0619039
-0.0747218
-0.0631154
-0.0819257
-0.0749829
0.0766183
0.0773999
0.0746536
-0.0764022
0.0780004
0.076787
0.0769044
-0.0792899
0.0802881
0.0752597
0.0756429
-0.0810029
0.0815006
0.0744891
0.0743611
-0.0818776
0.0858895
0.0741921
0.0740312
-0.0862238
0.0846045
0.074638
0.073556
-0.0873378
0.086397
0.0687942
0.0694292
-0.0843833
0.0836854
0.0577662
0.0662584
-0.0817827
0.0819643
0.0431451
0.0515
-0.0822219
0.0826093
0.0210338
0.0324655
-0.083127
0.0837114
-0.00385228
0.00861605
-0.0843384
0.0849569
-0.0274632
-0.0159588
-0.0855194
0.085999
-0.0465293
-0.0374449
-0.0863837
0.0866772
-0.0596337
-0.0534678
-0.0868879
0.0870202
-0.0668947
-0.0634801
-0.0877005
0.0880328
-0.0702025
-0.0687684
0.0866541
-0.0709382
0.0726239
-0.0708995
0.0866956
0.0722742
0.0879567
0.0840731
-0.0801901
0.0661383
-0.0865099
0.087647
0.0707991
0.0703317
0.0784237
-0.0755289
0.0598469
0.0648612
0.073798
-0.0721048
0.0492415
0.0546742
0.070525
-0.0690826
0.0330902
0.0414374
0.0678685
-0.066922
0.0122675
0.0229294
0.0663405
-0.0661372
-0.0107842
0.00079684
0.0664178
-0.0670694
-0.032614
-0.0219006
0.0695901
-0.0705179
-0.0498583
-0.0416018
0.0732622
-0.0741672
-0.0619309
-0.0558374
0.0756376
-0.0770534
-0.0667132
-0.0647993
0.0797266
-0.0814925
-0.0698479
-0.0699571
0.0809236
-0.082104
-0.0725019
-0.0712777
0.0831695
-0.0840606
-0.0745773
-0.0729096
0.0847619
-0.0853022
-0.0778439
-0.0756599
0.085717
-0.0869389
-0.080525
-0.0789817
0.0876653
-0.0897259
-0.0793252
-0.0801917
0.0906899
-0.0897313
-0.0711248
-0.0756958
-0.0904108
-0.0624359
-0.0667362
0.0606338
0.0872963
-0.0715417
0.0699801
0.0899411
-0.0517109
0.0523215
-0.0825363
-0.051354
-0.0907677
-0.0520271
0.0513197
-0.0660288
-0.0744274
-0.0647843
0.0667006
0.0698895
0.0624409
-0.0606618
0.0588547
0.0648751
-0.0690042
0.0719076
0.0744965
0.07235
-0.0742582
0.0763696
0.0746756
0.0745538
-0.0781777
0.0796871
0.0737503
0.0738348
-0.0809074
0.0819266
0.07347
0.0731408
-0.0827592
0.0833459
0.0736054
0.0731985
-0.0839453
0.0860339
0.0725494
0.0729566
-0.084838
0.085299
0.0683331
0.0706251
-0.0876171
0.0865583
0.058825
0.0639404
-0.086843
0.0874326
0.0425555
0.0512152
-0.0880252
0.0886234
0.0204355
0.0318729
-0.0891946
0.0897298
-0.00438757
0.00804493
-0.0901776
0.0905157
-0.0278014
-0.0164065
-0.0907228
0.0907958
-0.0466022
-0.037652
-0.0907347
0.0905559
-0.0594549
-0.0534067
-0.0902841
0.0899408
-0.0665514
-0.0632083
-0.0892963
0.0881935
-0.0690997
-0.0681239
-0.0721808
0.0727421
0.0861343
-0.0705396
0.085655
-0.086516
0.0855308
-0.0705564
-0.0692607
0.0863165
-0.0843037
0.0687864
0.0875379
0.0687587
-0.0706896
0.0719387
0.088692
0.0900092
0.0819401
-0.0783682
0.0625665
0.0679681
0.0749018
-0.0727987
0.0577438
0.0613947
0.070756
-0.0687661
0.0472515
0.0526315
0.0669378
-0.0653091
0.0314615
0.0396091
0.0639793
-0.0630041
0.0112922
0.0215996
0.062469
-0.0624042
-0.010849
0.000261799
0.0628346
-0.0637789
-0.0316697
-0.0214702
0.0651195
-0.0668466
-0.0481312
-0.0402612
0.0688132
-0.0716726
-0.0590716
-0.0538708
0.0741617
-0.0753386
-0.0655363
-0.0623102
0.0782899
-0.0792373
-0.0689005
-0.0670058
0.0810586
-0.0827511
-0.0708095
-0.0694564
0.084264
-0.0856318
-0.0732095
-0.0713966
0.0868709
-0.0880272
-0.0766876
-0.0744209
0.0891257
-0.0902148
-0.0794359
-0.0778832
0.09131
-0.092496
-0.0781392
-0.0790966
0.0937351
-0.0953863
-0.0694736
-0.0744566
0.0962878
-0.0967084
-0.0509334
-0.0615344
-0.0592735
0.0499314
-0.0397548
0.038709
-0.0897219
-0.0971674
-0.0392958
0.0376897
-0.081517
-0.0700182
0.0850093
0.0886541
0.0708225
0.0411583
-0.0399974
-0.0671897
0.0403639
-0.0584791
-0.0261973
0.0247147
-0.0882393
-0.0264979
-0.0968668
-0.0767351
0.0875158
-0.0896916
-0.0683806
0.0852973
-0.0677997
0.0724986
-0.0715043
0.0876977
0.0697245
0.0914281
-0.0523851
0.0542078
0.0385411
0.0277878
-0.0276676
-0.0585994
0.0525154
-0.0170223
0.0198764
-0.0553695
0.0279181
-0.0560688
0.0584435
0.05648
0.0480705
-0.0607922
0.0638958
0.0667858
0.0625264
-0.0667811
0.0698553
0.0714223
0.0694647
-0.0726783
0.0752223
0.0721316
0.0717308
-0.0774536
0.0794081
0.0717957
0.0716036
-0.0810842
0.0825531
0.072001
0.0714647
-0.0838412
0.0849947
0.0724519
0.0719104
-0.0860664
0.0870522
0.0715635
0.0718849
-0.0880767
0.0890709
0.0673389
0.0696007
-0.0900503
0.0911047
0.0577706
0.0629609
-0.0921118
0.0930834
0.0415839
0.0502081
-0.0939716
0.094732
0.0196752
0.0309847
-0.0953357
0.0957828
-0.00483465
0.00744122
-0.0960528
0.0961401
-0.0278887
-0.0166765
-0.0960299
0.0957136
-0.0462859
-0.0375418
-0.0952078
0.094541
-0.0587881
-0.052901
-0.0937665
0.0929152
-0.0657001
-0.0624337
-0.0919816
0.0902861
-0.0674042
-0.0671903
-0.0686662
-0.070508
0.0694906
0.0871517
0.0702365
-0.0702167
0.0849895
0.0853835
0.0879955
0.0848348
-0.0819241
0.0658756
-0.0871526
0.0896087
0.0683664
0.0664409
0.0776254
-0.0762195
0.0611605
0.0636694
0.0729942
-0.070588
0.0553375
0.0581695
0.0682644
-0.0660228
0.04501
0.0503079
0.0639961
-0.0622223
0.0296877
0.0375824
0.0608185
-0.0598396
0.0103133
0.0201958
0.0593664
-0.0594437
-0.0107717
-0.00021136
0.0600551
-0.0612383
-0.0304864
-0.0208588
0.0628745
-0.0649248
-0.0460809
-0.038625
0.0672539
-0.0697024
-0.0566231
-0.0515417
0.0721849
-0.0746758
-0.0630453
-0.0598277
0.0770309
-0.0793334
-0.066598
-0.0646508
0.0815204
-0.0835964
-0.0687335
-0.0672694
0.0855294
-0.0873513
-0.0713877
-0.0694635
0.0890781
-0.0907887
-0.074977
-0.072694
0.092494
-0.0942462
-0.0776836
-0.0761779
0.0960505
-0.0979506
-0.0762392
-0.0772923
0.0998898
-0.10185
-0.0675131
-0.0725173
0.103564
-0.103705
-0.0507925
-0.0598208
0.104264
-0.105578
-0.025184
-0.0387362
-0.0111122
0.0114566
-0.0972112
-0.105331
-0.01136
-0.0265331
-0.0683242
0.0264182
-0.0832205
-0.0681253
0.083206
0.0914887
0.0678445
-0.01245
-0.0631717
0.013016
-0.0897988
0.0117188
-0.0460234
0.0617276
-0.00439874
0.00361391
-0.104546
-0.00542995
-0.09618
-0.0322145
0.0494094
0.00216093
-0.0201375
-0.0164914
-0.07685
-0.0465586
0.0486206
0.0178144
0.00920896
-0.00635819
-0.0491606
0.05068
0.0370217
0.0273781
-0.0525537
0.0552179
0.0538157
0.0461968
-0.0585539
0.0617216
0.0636182
0.0591904
-0.0651227
0.0685032
0.0680418
0.0660635
-0.0716575
0.074552
0.069237
0.0685765
-0.0771292
0.0794425
0.0694825
0.0690264
-0.0814995
0.0833718
0.0701287
0.0694077
-0.0851032
0.0867456
0.0708096
0.070179
-0.0883098
0.0898592
0.0700141
0.0703207
-0.0913928
0.0929189
0.0658128
0.0680671
-0.0944484
0.0959712
0.0562478
0.0614314
-0.0973995
0.0987192
0.0402642
0.0487797
-0.0998522
0.100749
0.0187786
0.0298516
-0.101378
0.10176
-0.00521649
0.00681189
-0.101866
0.101688
-0.0277106
-0.0167823
-0.101224
0.100483
-0.0455452
-0.037078
-0.0995152
0.0983646
-0.0576375
-0.051933
-0.0971091
0.0957835
-0.0643745
-0.0611781
-0.0940888
0.0933488
-0.0666642
-0.0654957
-0.0912053
0.0889114
-0.0660867
-0.0665227
-0.0872857
0.0838015
-0.0646411
-0.066174
-0.06801
0.0691787
0.0838209
0.0687962
-0.0677013
0.0827066
0.0839922
-0.0692413
0.0705019
0.0858911
0.0853209
-0.0709043
0.0698941
0.0887078
0.0875931
-0.070053
0.068423
0.0931188
0.0912693
0.0894312
-0.086495
0.0654302
-0.0939486
0.0912506
0.0711209
0.0633271
0.0834563
-0.0807042
0.0631235
0.0634022
0.076712
-0.074145
0.0585935
0.0596773
0.0715365
-0.0689017
0.0527027
0.055561
0.0663569
-0.0639219
0.042575
0.0477631
0.0617507
-0.059879
0.027816
0.0354112
0.058441
-0.0574835
0.0093559
0.0187577
0.0570849
-0.0573088
-0.0105479
-0.00060999
0.0581115
-0.0594939
-0.029104
-0.0200561
0.0613975
-0.0637022
-0.0437762
-0.0367214
0.0662562
-0.0689627
-0.0539166
-0.0489877
0.0716849
-0.0743986
-0.0603316
-0.0571055
0.077035
-0.0796378
-0.0639952
-0.0620143
0.0821476
-0.0845719
-0.0663092
-0.0647596
0.0868789
-0.0891254
-0.0691412
-0.0671566
0.0913295
-0.0935711
-0.0727355
-0.0704899
0.0958622
-0.0982537
-0.0752921
-0.0738868
0.100737
-0.103336
-0.0736395
-0.0748094
0.105985
-0.108615
-0.0648835
-0.0698684
0.111057
-0.113203
-0.0486469
-0.0573787
0.114102
-0.113385
-0.025901
-0.0378367
0.114279
-0.113841
0.0031753
-0.0104658
0.019038
-0.0194993
-0.104084
-0.112614
0.0178112
-0.012193
-0.0685812
0.0128971
-0.0831016
0.00446752
-0.0559204
-0.00225726
-0.0929715
0.0875862
-0.088995
-0.0632323
0.0837326
-0.0638477
0.0702572
-0.0702357
0.0930973
0.0663838
0.0951241
0.0191147
-0.0454167
-0.0177736
-0.0979057
0.000211368
-0.0460958
-0.0350631
0.0410209
-0.00379684
0.0350274
-0.0342463
-0.104866
0.0326863
-0.110273
-0.0304125
-0.021142
-0.0761459
-0.0430558
0.0444303
0.0164398
0.0071741
-0.0458976
0.0474291
0.0354902
0.0259108
-0.0500644
0.0532588
0.0506214
0.0435615
-0.056727
0.0604109
0.0599343
0.0557222
-0.0640913
0.0677107
0.0644224
0.0623831
-0.0711208
0.0742881
0.0660698
0.0651664
-0.0771544
0.0797707
0.0668662
0.06616
-0.0821599
0.0843966
0.067892
0.0670185
-0.0865264
0.0886082
0.0687278
0.0680492
-0.0906407
0.0926853
0.0679696
0.0682882
-0.0947151
0.0967568
0.0637712
0.0660372
-0.0987596
0.100711
0.0542962
0.0594286
-0.102539
0.104147
0.038656
0.0469525
-0.10549
0.106536
0.0177331
0.0285082
-0.10717
0.107477
-0.00552382
0.00617776
-0.107396
0.106938
-0.0272528
-0.0167009
-0.106131
0.105
-0.0444136
-0.0362713
-0.103615
0.102027
-0.0560495
-0.0505485
-0.100328
0.0985498
-0.0625958
-0.0594794
-0.0967644
0.0949908
-0.0648906
-0.0637103
-0.0928418
0.0908659
-0.0641108
-0.0643737
-0.0643031
-0.0680357
0.0677351
0.0841215
0.0666456
-0.0664375
0.0824984
0.0826021
-0.0684818
0.0687009
0.085672
0.0845742
-0.0699935
0.0710681
0.0876333
0.0863005
0.0921016
0.0888351
-0.0857467
0.0623418
-0.0892683
0.0950699
0.0653193
0.062894
0.0828542
-0.0787165
0.0589858
0.0605096
0.076088
-0.0733473
0.0558528
0.0570488
0.0705509
-0.067748
0.0498998
0.0527647
0.0650444
-0.0624884
0.040019
0.0450595
0.0602286
-0.0583124
0.0258998
0.0331515
0.0568768
-0.0559675
0.00844655
0.0173222
0.0556732
-0.0559893
-0.0102318
-0.00090421
0.0569724
-0.0585425
-0.0275339
-0.0190731
0.0606282
-0.0631162
-0.0412881
-0.0346358
0.0658314
-0.0687071
-0.0510409
-0.0462725
0.0715942
-0.0744925
-0.0574333
-0.0542185
0.0773428
-0.080174
-0.061164
-0.059164
0.0829347
-0.0856436
-0.0636002
-0.0619989
0.088265
-0.0908702
-0.066536
-0.0645353
0.0934809
-0.0961783
-0.070038
-0.0678792
0.0989585
-0.101874
-0.0723762
-0.0711067
0.104898
-0.108049
-0.0704886
-0.0717862
0.111245
-0.114433
-0.0616963
-0.0666715
0.117435
-0.120094
-0.0459874
-0.0543767
0.12229
-0.124036
-0.0241554
-0.0356407
0.123117
-0.121935
0.00199421
-0.0113851
0.119389
-0.116769
0.0300659
0.0152651
0.0477146
-0.0469047
-0.111083
-0.113255
0.0442007
0.00237171
-0.0664854
-0.00174137
-0.0836174
-0.0639319
0.081227
0.096143
0.0653107
0.0186609
-0.0554666
0.0205413
-0.0566689
0.0273689
-0.0522442
-0.0174515
-0.0932935
-0.032136
-0.100016
-0.0430564
-0.0334519
0.0407917
-0.0384102
-0.045438
0.0325577
-0.0484349
-0.0473221
-0.104448
0.0566216
-0.0604648
-0.107239
0.0561825
-0.112816
-0.0755155
-0.0375394
0.039071
-0.0053284
0.0403939
-0.0455358
-0.02831
-0.0182875
-0.0404508
0.0415726
0.015318
0.00579425
-0.043387
0.0459197
0.0329576
0.0240965
-0.0489491
0.0523964
0.047174
0.0405321
-0.0560711
0.059893
0.0561124
0.0520476
-0.0637016
0.0674421
0.060682
0.0585744
-0.0709968
0.0743485
0.0627181
0.0616117
-0.0774451
0.0803291
0.0639822
0.0630634
-0.0830238
0.0856019
0.0653139
0.0643238
-0.0880969
0.090572
0.0662527
0.0655542
-0.0930258
0.0955022
0.0654931
0.0658344
-0.0979743
0.100465
0.0612808
0.0635652
-0.102875
0.105204
0.0519668
0.0570185
-0.107348
0.109228
0.0367765
0.0448081
-0.110742
0.111863
0.0166117
0.0269944
-0.112557
0.112754
-0.00572075
0.00548333
-0.112492
0.111776
-0.0265374
-0.0164382
-0.110651
0.109149
-0.0429118
-0.0351455
-0.107367
0.105368
-0.05405
-0.048767
-0.103265
0.101095
-0.0604253
-0.0573766
-0.0989315
0.0967641
-0.0627232
-0.0615473
-0.0946449
0.0928316
-0.0622975
-0.0622546
-0.0900315
0.0875133
-0.0607142
-0.061503
-0.0840829
0.0811924
-0.0610414
-0.0604172
-0.0645665
0.0662015
0.0808635
0.064981
-0.0612091
0.0774206
0.0816414
-0.0670037
0.0680448
0.0830804
0.0817998
-0.0688126
0.0691735
0.0853111
0.0838065
-0.0691148
0.0686024
0.0881456
0.0863592
-0.0695643
0.0691001
0.0935615
0.0911397
-0.0675382
0.0653848
0.0982964
0.096686
0.0947857
-0.0910882
0.0616219
-0.0973823
0.0983604
0.0644067
0.062714
0.0879289
-0.0850636
0.0594765
0.0597347
0.0812419
-0.0785637
0.0563077
0.0566879
0.0757995
-0.0729214
0.0529747
0.0542846
0.0700119
-0.0671093
0.0469972
0.0498552
0.0643196
-0.0617112
0.0374106
0.0422698
0.0594188
-0.0575084
0.0239894
0.0308591
0.0561063
-0.0552667
0.00760692
0.0159201
0.0550657
-0.0555082
-0.00978927
-0.00110521
0.0566145
-0.0583234
-0.025825
-0.0179667
0.0605147
-0.0631035
-0.0386994
-0.0324445
0.0659016
-0.0688495
-0.048093
-0.0434744
0.0718245
-0.0748423
-0.0544155
-0.0512435
0.0778476
-0.0808688
-0.0581428
-0.0561586
0.0838388
-0.08678
-0.060659
-0.0590289
0.0896668
-0.0925844
-0.0636184
-0.0616484
0.0955522
-0.0986525
-0.0669377
-0.0649114
0.10187
-0.105254
-0.068992
-0.067889
0.108762
-0.112399
-0.0668515
-0.0682785
0.116056
-0.119667
-0.0580857
-0.0630146
0.123057
-0.126105
-0.0429399
-0.0509859
0.128618
-0.130483
-0.0222904
-0.0331272
0.13167
-0.132234
0.00255819
-0.0101988
0.132074
-0.129193
0.0271847
0.0151053
0.125349
-0.118874
0.0497081
0.0403569
0.0620891
-0.0655765
-0.109329
-0.115413
0.0586273
0.017328
-0.0651524
-0.047008
-0.0369381
0.0301205
-0.0582182
0.0822643
-0.0859797
-0.057326
0.0791608
-0.0581056
0.068257
-0.0682558
0.0982952
0.065648
0.100969
-0.0169558
-0.0841132
-0.0318502
-0.0935793
0.0370885
-0.056775
-0.0451366
-0.102201
-0.0557808
-0.109132
-0.0632369
-0.109579
0.0687904
-0.0695183
-0.108601
0.0632311
-0.109853
-0.0751433
-0.0467547
0.0429345
-0.0244898
-0.0434129
0.0511537
-0.0547487
0.0509972
-0.0561058
-0.0383044
-0.0326955
-0.0394356
0.0396141
-0.00550692
-0.0147886
-0.0404688
0.0415412
0.0142456
0.00493958
-0.043187
0.0456678
0.0304768
0.0224507
-0.0487813
0.0523385
0.0436167
0.0374187
-0.0561129
0.0600059
0.0522194
0.0482732
-0.0638668
0.0676517
0.0568972
0.0547135
-0.0712703
0.0747233
0.0592651
0.057993
-0.0779746
0.0810685
0.0608883
0.0598121
-0.0840203
0.0868969
0.0624373
0.0613719
-0.0897154
0.0925363
0.0634318
0.0627357
-0.0953569
0.0982083
0.0626417
0.0630138
-0.101058
0.10391
0.0584293
0.0607154
-0.106675
0.109305
0.0493371
0.054253
-0.111702
0.113812
0.034666
0.0424111
-0.115466
0.116663
0.0154147
0.025341
-0.117335
0.117443
-0.00582937
0.00481122
-0.117009
0.116048
-0.025577
-0.0160033
-0.114623
0.112788
-0.0410765
-0.0337205
-0.110664
0.108323
-0.0517088
-0.0466434
-0.105888
0.103391
-0.0579278
-0.054942
-0.100912
0.0984383
-0.0602491
-0.0590688
-0.0960155
0.0936283
-0.0599104
-0.0598317
-0.0908999
0.0886861
-0.0585003
-0.0587746
-0.0577109
-0.0644866
0.0655385
0.0798116
0.0607932
-0.0604621
0.0770895
0.077948
-0.0670714
0.0683705
0.0817813
0.080267
-0.0692494
0.0696831
0.0848773
0.0829276
-0.0696622
0.0691821
0.0886258
0.0863801
-0.0699616
0.0692141
0.0943089
0.0903602
0.0976443
0.0947279
-0.092087
0.058981
-0.0972932
0.100424
0.0612761
0.0601487
0.0880601
-0.0841345
0.0555509
0.0557077
0.0814684
-0.0786751
0.0535144
0.0540218
0.0758168
-0.072858
0.0500159
0.0514263
0.0698974
-0.0669545
0.0440542
0.0468947
0.064149
-0.0615462
0.0348077
0.0394643
0.0592762
-0.0574145
0.0221277
0.0285891
0.0560762
-0.0553216
0.0068524
0.0145817
0.0552115
-0.0557606
-0.00924017
-0.00121535
0.0569561
-0.0587397
-0.0240413
-0.0167713
0.0609763
-0.0635867
-0.0360889
-0.0302079
0.0663961
-0.0693549
-0.0451342
-0.040665
0.0723646
-0.0754502
-0.0513299
-0.0482338
0.0785569
-0.0817043
-0.0549954
-0.053052
0.0848168
-0.0879216
-0.0575542
-0.0559164
0.0910002
-0.0941494
-0.0604691
-0.0585699
0.0973842
-0.100779
-0.0635425
-0.0616767
0.104307
-0.108009
-0.0652899
-0.0643611
0.11183
-0.115781
-0.062901
-0.0644574
0.119754
-0.12369
-0.0541499
-0.0590413
0.127405
-0.130765
-0.0395795
-0.0472712
0.13355
-0.135628
-0.0202121
-0.0303426
0.136918
-0.137363
0.00300373
-0.00890942
0.136967
-0.135713
0.0259309
0.0147095
0.131135
-0.126056
0.0446295
0.0357786
0.120972
-0.116796
0.0590547
0.0535433
-0.0518613
0.0433468
-0.0399204
-0.0461456
0.0691663
-0.0710204
-0.107999
-0.109558
0.0619281
0.030521
-0.0655529
-0.0575902
0.0762889
0.104396
0.0616754
0.0476925
-0.059764
-0.0440343
-0.0312964
-0.084667
0.0553437
-0.0624
0.040954
-0.0620837
-0.0449281
-0.0937879
0.0483887
-0.0618169
-0.0562933
-0.101689
-0.0645328
-0.107836
-0.0692573
-0.10984
-0.0724926
-0.107129
0.0692542
-0.0724218
-0.104832
0.0654033
-0.105707
-0.0759188
-0.0573825
0.052296
-0.0332179
-0.0503589
-0.0629917
0.0535866
0.0617107
-0.0636853
-0.0483842
-0.0397061
-0.0480556
0.0448468
-0.021281
-0.0284551
-0.0425911
0.0412386
-0.00415442
-0.0125329
-0.0416219
0.0427407
0.0131267
0.00455628
-0.0442937
0.0466058
0.0281647
0.0208977
-0.0495616
0.0530101
0.0401682
0.0344629
-0.0567287
0.0605943
0.0483537
0.0445546
-0.0644481
0.068239
0.0531062
0.0508597
-0.0718839
0.0753923
0.0557568
0.0543481
-0.0787395
0.0819777
0.0576502
0.0564649
-0.0851167
0.0882214
0.0593326
0.0582328
-0.0912981
0.094404
0.0603259
0.059659
-0.0975263
0.10069
0.0594784
0.0598915
-0.103847
0.10699
0.0552859
0.0575581
-0.110037
0.112907
0.0464669
0.0512068
-0.115509
0.117764
0.032411
0.0398092
-0.119557
0.120775
0.0141974
0.0235473
-0.12141
0.121422
-0.00584145
0.00417563
-0.120824
0.119645
-0.0243981
-0.0154046
-0.117966
0.115856
-0.0389665
-0.0320421
-0.113455
0.110836
-0.0490908
-0.0442415
-0.108134
0.105373
-0.0551671
-0.0522391
-0.10264
0.0999185
-0.0575273
-0.0563361
-0.0972621
0.0946235
-0.0572718
-0.0571754
-0.0920493
0.0894732
-0.0559242
-0.0562003
-0.086851
0.0837745
-0.0542495
-0.0550887
-0.0795549
0.0763244
-0.0543597
-0.053886
-0.0591691
0.0611439
0.0751147
0.0579514
-0.0540172
0.0723902
0.0750712
-0.0630324
0.0653975
0.0774465
0.0760595
-0.0671815
0.0685695
0.0803934
0.0784829
-0.0695141
0.0699962
0.0843953
0.0819829
-0.0699975
0.0695329
0.0890904
0.0863788
-0.0686019
0.0688081
0.0941027
0.0912912
-0.0676831
0.0657618
0.100217
0.0987693
-0.0629852
0.0612404
0.106141
0.103746
0.101606
-0.0979103
0.0575803
-0.104955
0.107909
0.0582869
0.0583264
0.0946007
-0.0899758
0.0543561
0.0568391
0.0873352
-0.0846184
0.0528341
0.0530671
0.0818832
-0.0790144
0.0506455
0.0512866
0.0761127
-0.0731265
0.0470297
0.0485246
0.0701678
-0.0672403
0.0411267
0.0439359
0.0644768
-0.0619282
0.0322591
0.0367007
0.0597287
-0.0579494
0.0203484
0.0263896
0.0567004
-0.0560395
0.00619148
0.0133327
0.056015
-0.056646
-0.00860917
-0.00123977
0.057879
-0.0596852
-0.0222351
-0.0155383
0.0619098
-0.0644736
-0.0335251
-0.0279833
0.0672274
-0.070141
-0.0422206
-0.0379113
0.0731362
-0.0762438
-0.0482223
-0.0452386
0.0794056
-0.0826299
-0.0517711
-0.0498902
0.0858346
-0.0890554
-0.0543334
-0.0527117
0.0922822
-0.0956161
-0.0571352
-0.055343
0.099066
-0.102704
-0.0599046
-0.0582268
0.106491
-0.110456
-0.0613245
-0.0605741
0.114518
-0.11867
-0.0587497
-0.0603955
0.1228
-0.126869
-0.0500811
-0.0549106
0.130708
-0.134187
-0.0361005
-0.0434326
0.13709
-0.139286
-0.0180158
-0.0274393
0.140626
-0.141046
0.00342389
-0.00756985
0.140517
-0.139068
0.0244815
0.0141809
0.136885
-0.133912
0.0416564
0.0335951
0.128192
-0.121868
0.0527308
0.0478236
0.115671
-0.108042
0.0577745
0.0557309
-0.0692666
0.0558243
-0.026478
-0.0600684
0.0674702
-0.070184
-0.102993
-0.104292
0.063721
0.0432614
-0.0678604
-0.0442897
-0.0853054
0.0539494
-0.0675781
-0.0500566
-0.0675637
0.0585214
0.054463
-0.0632765
0.0507928
-0.0644878
-0.0561859
-0.0938953
0.0778706
-0.0813022
-0.0509281
0.0738702
-0.0500169
0.0607528
-0.0626775
0.108066
0.0587639
0.109897
0.057283
-0.0632757
-0.0652198
-0.101002
-0.070848
-0.106246
-0.0730371
-0.109295
-0.0723094
-0.107241
-0.0723295
-0.102686
-0.0521588
-0.0709167
0.0554975
-0.0729566
0.069943
-0.0491452
0.0536421
-0.0776449
-0.0489538
0.0656952
-0.0969741
-0.0717145
0.0605124
-0.0991096
-0.0754374
0.0581627
-0.0769471
-0.0638458
0.0578352
-0.0423736
-0.0439594
-0.0555546
0.0531953
-0.0308586
-0.0374256
-0.0493847
0.0462257
-0.018122
-0.0246444
-0.0446153
0.0437704
-0.00330951
-0.0109225
-0.0438159
0.0447092
0.0122335
0.00451077
-0.0462496
0.0484183
0.025996
0.0193572
-0.0511546
0.0543725
0.0369503
0.0317266
-0.057896
0.0616112
0.0446385
0.0410312
-0.065365
0.0691002
0.0493711
0.0471059
-0.07273
0.0762621
0.0522247
0.0507183
-0.0796702
0.0830083
0.0543121
0.0530567
-0.0862808
0.0895526
0.0560609
0.0549603
-0.0928232
0.0961473
0.0570018
0.0563884
-0.0994986
0.102902
0.0560748
0.0565401
-0.106292
0.109659
0.0519197
0.0541678
-0.112899
0.115959
0.0434067
0.0479664
-0.118699
0.121054
0.0300552
0.03707
-0.122899
0.124125
0.0129714
0.0217024
-0.124694
0.124603
-0.00575012
0.00360656
-0.12386
0.122499
-0.0230371
-0.0146616
-0.120614
0.118287
-0.0366391
-0.0301575
-0.115675
0.112856
-0.0462727
-0.0416292
-0.109966
0.107021
-0.0522223
-0.0493485
-0.104107
0.101202
-0.0546226
-0.0534221
-0.0983669
0.0955557
-0.0544606
-0.0543399
-0.092807
0.090069
-0.0531863
-0.0534516
-0.0869903
0.0843565
-0.0516157
-0.05201
-0.0508316
-0.0585668
0.0604187
0.0732628
0.0552579
-0.0539064
0.0710386
0.0717623
-0.0628594
0.065063
0.0752429
0.0736188
-0.0668967