/*--------------------------------*- C++ -*----------------------------------*\
  =========                 |
  \\      /  F ield         | OpenFOAM: The Open Source CFD Toolbox
   \\    /   O peration     | Website:  https://openfoam.org
    \\  /    A nd           | Version:  10
     \\/     M anipulation  |
\*---------------------------------------------------------------------------*/
FoamFile
{
    format      ascii;
    class       volScalarField;
    location    "61";
    object      p;
}
// * * * * * * * * * * * * * * * * * * * * * * * * * * * * * * * * * * * * * //

dimensions      [0 2 -2 0 0 0 0];

internalField   nonuniform List<scalar> 
28942
(
-0.00378423
-0.00315765
0.0020145
0.00948135
0.00978136
9.65589e-05
0.000302931
2.86113e-05
0.00270131
0.00278926
-0.00232841
-0.00259745
-0.00298069
-0.00289812
0.000201644
0.000518378
0.00986907
0.010139
0.00556748
0.00712824
0.00814128
0.00813297
-0.00523729
-0.00506222
-0.00359094
-0.00381448
0.013867
0.013816
0.00352052
0.00346335
2.15075e-05
5.72441e-05
0.000799608
0.000328836
0.00713333
0.00833908
0.0108762
0.0128347
-3.17818e-06
0.0150297
0.00908391
0.0115818
0.00174545
0.00166065
0.00172022
0.000304144
0.000165383
0.000242917
0.000280431
0.000391483
0.000744192
0.0027765
0.00284741
0.00283373
0.002989
-0.0023604
-0.00105777
-0.00338791
-0.0032335
-0.0035046
-0.00357772
-0.00357854
-0.00347655
-0.000123486
-0.00182453
-0.000369424
0.000962058
0.00941179
0.00891532
-0.00337529
-0.00358531
-0.00332032
0.0089769
0.00882869
0.0091207
-0.00148706
-0.00109937
-0.000760204
0.00234854
0.00274793
0.00183891
0.000743768
-0.00632543
-0.00755393
0.00107193
0.00379773
0.00483942
0.00562716
0.00401138
0.00413477
0.00610181
0.00548062
-0.00140824
-0.00169921
-0.0019774
-0.00181598
-0.00164186
0.00532368
0.00661476
-0.00786519
0.0112786
0.0104796
0.00577354
0.00937054
0.00089036
0.000797717
0.000707819
0.00546192
0.00565461
0.0056487
-0.00323136
-0.00315199
-0.00314066
-0.00262377
-0.00274648
0.0158215
0.0138161
0.013258
0.0148892
0.00163225
0.00471252
0.00341053
0.00505983
0.0047367
0.0154936
0.0157891
0.0144486
0.00590153
0.00698068
0.000202316
0.000305823
0.000117708
0.0104873
0.0109904
0.00766122
0.00731336
0.0127704
0.00668631
0.00797713
0.00904106
-0.00191631
-0.00242546
0.00734609
0.00166379
0.00175142
-0.00118386
-0.00144698
-0.000988224
-0.00252476
0.00658319
0.00571039
0.00370314
0.000278038
0.000220825
8.98275e-05
0.00022308
0.00751982
0.006784
-0.00187251
-0.00198966
-0.00188496
-0.00415006
-0.00369458
7.04729e-05
-0.00286403
-0.000510818
0.00838345
0.00849239
0.00958642
0.00912178
0.00769957
0.0030724
0.0029899
0.00324178
0.00311766
0.00503186
0.00480968
0.00514468
0.00536519
0.00530305
0.00537383
0.00558493
0.00613886
0.00583294
0.00543081
0.00576093
0.00646663
0.00722033
0.00751235
-0.000586488
-0.000567336
-0.00248191
0.000227029
6.85579e-05
-0.00200161
-0.00209024
0.000306306
0.000369177
0.00033161
0.000262485
0.001863
0.00181844
0.00179587
-0.00292917
-0.00311642
-0.00278094
-0.00434926
-0.00483154
-0.00414288
-0.00473035
-0.0064962
-0.00519428
0.0160154
0.0167255
0.0164931
0.000925467
0.00107042
0.000958549
0.01034
0.00991209
0.00999241
0.00150591
0.00148783
0.00152385
0.0014693
0.00145118
0.00143257
0.00143346
0.0014139
0.00141469
0.0014518
0.00146982
0.00148789
0.0015061
0.00152437
0.00139556
0.00139548
0.00154113
0.00154144
0.00155809
0.00137685
0.00137654
0.00155849
0.00135764
0.00133844
0.00135777
0.00133885
0.00157633
0.00157656
0.00131933
0.00131976
0.00159291
0.00159337
0.00130018
0.00130067
0.00160949
0.00160992
0.00128105
0.00128151
0.00162583
0.00162631
0.00126189
0.00126239
0.00164194
0.0016424
0.00124276
0.00124324
0.00165786
0.00165833
0.00122363
0.00122412
0.00167369
0.0016741
0.00120458
0.00120484
0.00168876
0.00168917
0.00118551
0.00118546
0.00170462
0.00170479
0.00116634
0.0011659
0.00171908
0.00171905
0.00114646
0.00114651
0.00173389
0.00173371
0.00112662
0.00112712
0.00171815
0.00173295
0.00174857
0.00174818
0.00168691
0.00170315
0.00165568
0.00167179
0.00162431
0.00164022
0.00159134
0.00160802
0.00155696
0.00157429
0.00152244
0.0015409
0.00148726
0.00150511
0.00145032
0.00146828
0.00141263
0.00143157
0.00137516
0.00139403
0.00133728
0.00135629
0.00129917
0.00131827
0.00126097
0.0012801
0.00122279
0.0012419
0.00118476
0.00120378
0.00114604
0.00116572
0.00112654
0.00110705
0.00110733
0.00116593
0.00112697
0.00114641
0.00120466
0.00118518
0.00124294
0.00122388
0.00128118
0.00126208
0.00131939
0.00130032
0.00135747
0.00133848
0.00139504
0.00137641
0.00143272
0.00141404
0.00146976
0.00145143
0.00150525
0.00148747
0.00154116
0.00152401
0.00157557
0.00155811
0.00160908
0.00159253
0.00164136
0.00162542
0.00167263
0.00165706
0.00170313
0.0016877
0.00173185
0.00171781
0.00174634
0.00174819
0.00110686
0.00110743
0.00176189
0.00175968
0.00176302
0.00176274
0.00171575
0.00174616
0.00173084
0.00168455
0.00170053
0.00165384
0.00166903
0.00162229
0.00163826
0.00158942
0.00160601
0.00155552
0.00157258
0.00152039
0.00153823
0.00148481
0.00150333
0.00144905
0.00146647
0.00141132
0.0014302
0.00137381
0.00139263
0.00133603
0.00135497
0.00129802
0.00131706
0.00125992
0.00127898
0.00122184
0.00124088
0.00118392
0.00120286
0.00114549
0.00116474
0.00108727
0.0010876
0.00110638
0.00112598
0.00112669
0.00110741
0.00108797
0.00108767
0.0011658
0.00114616
0.00120407
0.00118472
0.00124213
0.00122309
0.00128029
0.00126122
0.00131842
0.00129938
0.00135641
0.00133745
0.00139409
0.00137534
0.00143138
0.00141277
0.00146831
0.00144982
0.00150408
0.00148629
0.00153934
0.00152222
0.00157382
0.00155678
0.00160719
0.00159067
0.00163941
0.00162347
0.00167044
0.0016551
0.00170026
0.00168553
0.00172888
0.00171469
0.00175582
0.00174285
0.00176101
0.00177325
0.00176944
0.00177486
0.00108721
0.00108786
0.00177609
0.00177418
0.00178636
0.00178302
0.00177625
0.00110629
0.00108687
0.0010685
0.00106847
0.00177122
0.00178926
0.00180942
0.00179209
0.00174242
0.00175722
0.00171207
0.00172712
0.00168143
0.00169721
0.00165084
0.00166587
0.00161942
0.00163535
0.00158671
0.00160321
0.00155293
0.00156996
0.00151816
0.00153563
0.0014826
0.0015005
0.00144635
0.00146454
0.00140946
0.00142802
0.00137206
0.00139081
0.00133438
0.00135326
0.00129649
0.00131546
0.00125851
0.00127751
0.00122055
0.00123953
0.00118274
0.00120162
0.00114464
0.00116363
0.00112537
0.00106826
0.00106793
0.00106813
0.00106844
0.00112641
0.00108774
0.00110725
0.00116512
0.00114577
0.00120296
0.00118391
0.00124092
0.00122193
0.00127896
0.00125994
0.00131695
0.00129798
0.00135479
0.00133591
0.00139234
0.00137363
0.00142949
0.00141096
0.00146602
0.00144787
0.00150199
0.00148412
0.001537
0.00151961
0.00157121
0.00155426
0.00160438
0.00158794
0.00163642
0.00162055
0.00166725
0.00165201
0.00169672
0.0016822
0.00172482
0.00171088
0.00175162
0.00173836
0.00177792
0.00176427
0.00179484
0.0017902
0.0017894
0.0017878
0.00106754
0.0010685
0.00180067
0.0017985
0.00179625
0.00180208
0.00180608
0.00173295
0.00181028
0.00178975
0.00179194
0.00178849
0.00176863
0.00178478
0.00173673
0.00175256
0.00170726
0.00172163
0.00167734
0.00169287
0.00164707
0.00166226
0.00161568
0.00163154
0.00158313
0.00159955
0.00154954
0.00156647
0.00151501
0.00153239
0.00147965
0.00149741
0.00144353
0.0014617
0.00140688
0.0014253
0.0013697
0.00138834
0.0013322
0.00135099
0.00129449
0.00131337
0.00125667
0.00127559
0.00121887
0.00123777
0.00118118
0.00120001
0.00114345
0.00116225
0.00110555
0.00112447
0.00106725
0.00108619
0.00104899
0.00104811
0.00104853
0.00104937
0.00104916
0.00104953
0.00104948
0.00104959
0.00104958
0.00108734
0.00104932
0.00106862
0.00112561
0.00110657
0.00116383
0.00114489
0.00120149
0.00118266
0.00123931
0.00122039
0.00127719
0.00125826
0.00131502
0.00129613
0.00135267
0.00133388
0.00139002
0.0013714
0.00142696
0.00140856
0.0014633
0.00144524
0.001499
0.00148126
0.00153384
0.00151653
0.00156779
0.00155095
0.00160072
0.0015844
0.00163251
0.00161677
0.00166309
0.00164797
0.00169231
0.0016779
0.00172
0.00170635
0.00174623
0.00173334
0.00177163
0.00175886
0.00179599
0.00178309
0.00181311
0.00180705
0.00180125
0.00180077
0.00181315
0.00180818
0.00106675
0.00104787
0.00103058
0.00103039
0.00180727
0.00181731
0.00184052
0.00176202
0.00182185
0.00181689
0.00180104
0.00180153
0.00177855
0.0017755
0.00176181
0.00177453
0.00173015
0.00174589
0.00170197
0.00171611
0.00167261
0.00168753
0.00164235
0.00165758
0.0016111
0.00162688
0.00157877
0.00159508
0.00154542
0.00156223
0.00151113
0.00152839
0.00147602
0.00149368
0.00144018
0.00145819
0.00140374
0.00142204
0.00136681
0.00138533
0.00132953
0.00134821
0.00129203
0.00131081
0.00125442
0.00127324
0.0012168
0.00123561
0.00117928
0.00119803
0.00114197
0.00116061
0.00110427
0.00112309
0.00108542
0.00103021
0.00102926
0.00102992
0.00103087
0.00103066
0.0010309
0.001031
0.00103068
0.00108674
0.00104853
0.00106826
0.00112457
0.00110564
0.00116215
0.00114354
0.00119967
0.00118091
0.00123732
0.00121849
0.001275
0.00125617
0.00131262
0.00129383
0.00135005
0.00133137
0.00138717
0.00136866
0.00142385
0.00140558
0.00145995
0.001442
0.00149537
0.00147776
0.00152995
0.00151278
0.00156362
0.00154692
0.00159626
0.00158009
0.00162777
0.00161218
0.00165805
0.00164309
0.001687
0.00167272
0.00171446
0.00170094
0.00174032
0.00172762
0.00176491
0.00175294
0.00178776
0.00177521
0.00181022
0.00180042
0.00182563
0.00181851
0.00181356
0.00181091
0.00102847
0.00102979
0.00181601
0.0017741
0.00180051
0.00181947
0.00182561
0.0018389
0.00182796
0.00183384
0.00183081
0.00183413
0.00182911
0.00181217
0.00177434
0.00182955
0.00180563
0.00176771
0.00176781
0.00175199
0.00176497
0.00172366
0.0017377
0.00169575
0.00170984
0.00166675
0.00168141
0.00163674
0.00165187
0.00160574
0.00162139
0.00157368
0.00158985
0.00154061
0.00155727
0.00150661
0.00152373
0.00147178
0.0014893
0.00143623
0.0014541
0.00140007
0.00141823
0.00136342
0.00138181
0.00132641
0.00134496
0.00128916
0.00130781
0.00125178
0.00127048
0.00121439
0.00123308
0.00117707
0.00119572
0.00113994
0.00115849
0.00110284
0.00112149
0.00106518
0.00108405
0.00102762
0.00104649
0.00101068
0.00100867
0.0010098
0.00101204
0.00101135
0.00101276
0.0010125
0.00101273
0.00101283
0.00101205
0.00101243
0.00101128
0.00101169
0.00104793
0.00101067
0.0010292
0.0010855
0.0010668
0.00112312
0.00110437
0.00116018
0.00114163
0.00119751
0.00117883
0.00123494
0.00121622
0.0012724
0.00125368
0.00130978
0.00129112
0.00134695
0.00132841
0.0013838
0.00136543
0.00142019
0.00140207
0.001456
0.00143819
0.00149111
0.00147366
0.00152539
0.00150837
0.00155874
0.0015422
0.00159106
0.00157505
0.00162225
0.00160682
0.00165221
0.00163741
0.00168084
0.00166672
0.00170804
0.00169465
0.00173368
0.00172108
0.00175772
0.00174601
0.00178028
0.00176892
0.00180094
0.00179144
0.00182043
0.00180902
0.00183891
0.00183126
0.0018199
0.0018235
0.0018182
0.0010263
0.00100795
0.000992736
0.000991923
0.00182057
0.00182859
0.00182417
0.00183429
0.00183865
0.00184479
0.00184694
0.00184005
0.00182077
0.00181631
0.0018297
0.00182056
0.00181991
0.00177596
0.0017976
0.001759
0.00176394
0.00174243
0.00175445
0.00171593
0.0017292
0.00168859
0.00170244
0.00166002
0.00167446
0.00163036
0.00164533
0.00159966
0.00161516
0.00156791
0.00158392
0.00153515
0.00155166
0.00150148
0.00151844
0.00146698
0.00148433
0.00143175
0.00144946
0.00139591
0.00141391
0.00135957
0.0013778
0.00132285
0.00134125
0.00128588
0.0013044
0.00124877
0.00126734
0.00121162
0.0012302
0.00117454
0.00119307
0.00113761
0.00115606
0.00110096
0.00111927
0.00106362
0.00108236
0.00104484
0.00099245
0.000990263
0.000991636
0.000994062
0.000993337
0.000994786
0.000994516
0.000994723
0.000994849
0.00099383
0.000994384
0.000993242
0.00104698
0.00100967
0.0010283
0.00108406
0.00106553
0.00112102
0.00110266
0.00115791
0.00113943
0.00119501
0.00117645
0.00123221
0.00121361
0.00126941
0.00125082
0.00130652
0.00128799
0.0013434
0.001325
0.00137994
0.00136173
0.00141602
0.00139806
0.0014515
0.00143385
0.00148627
0.00146899
0.0015202
0.00150336
0.00155321
0.00153684
0.00158518
0.00156934
0.00161602
0.00160076
0.00164564
0.00163101
0.00167394
0.00165998
0.00170083
0.00168759
0.00172622
0.00171374
0.00175002
0.00173837
0.00177222
0.00176131
0.00179217
0.00178265
0.00181188
0.00180101
0.00183019
0.00182023
0.00184943
0.00183797
0.00184778
0.00183931
0.00182526
0.000989438
0.000991204
0.00182305
0.00182957
0.00183625
0.00183045
0.0018377
0.00184542
0.00184413
0.00184948
0.00185247
0.00185444
0.0018557
0.00184796
0.00182869
0.00180812
0.0018392
0.00183544
0.00181409
0.00180303
0.00181107
0.00177252
0.00178613
0.00175122
0.00175996
0.00173272
0.00174398
0.00170744
0.00172027
0.00168068
0.00169426
0.00165257
0.0016668
0.0016233
0.00163808
0.00159294
0.00160826
0.00156152
0.00157737
0.00152912
0.00154545
0.0014958
0.00151258
0.00146165
0.00147883
0.00142677
0.0014443
0.00139128
0.0014091
0.00135527
0.00137334
0.00131888
0.00133712
0.00128222
0.00130058
0.0012454
0.00126383
0.00120853
0.00122697
0.00117171
0.00119011
0.00113501
0.00115335
0.00109855
0.00111675
0.00106206
0.00108044
0.00102506
0.00104344
0.000988344
0.00100691
0.000972389
0.000969967
0.000971292
0.000974654
0.000973464
0.000976189
0.000975537
0.000976917
0.000976649
0.000976836
0.000976979
0.000975988
0.000976499
0.000974693
0.000975156
0.000972833
0.000973794
0.00100863
0.000971948
0.000990283
0.00104569
0.00102687
0.00108222
0.00106414
0.00111865
0.00110041
0.00115534
0.00113698
0.00119219
0.00117376
0.00122913
0.00121067
0.00126605
0.00124761
0.00130286
0.00128449
0.00133942
0.00132119
0.00137563
0.00135759
0.00141136
0.00139358
0.00144648
0.00142902
0.00148089
0.0014638
0.00151446
0.0014978
0.00154709
0.00153091
0.00157869
0.00156304
0.00160916
0.00159409
0.00163842
0.00162397
0.00166638
0.00165259
0.00169295
0.00167987
0.00171805
0.00170571
0.0017416
0.00173006
0.00176354
0.00175279
0.00178345
0.00177383
0.00180216
0.00179292
0.0018194
0.00181013
0.00183725
0.00182931
0.00185202
0.00184892
0.00185129
0.00183985
0.00183529
0.00183901
0.00183949
0.00184848
0.00184383
0.00184381
0.0018471
0.000987096
0.000968827
0.00095458
0.000953941
0.00185476
0.00185326
0.0018577
0.00185948
0.00186109
0.00185948
0.00184189
0.00183741
0.00183912
0.00185687
0.00185184
0.00185393
0.00183835
0.00182856
0.00182606
0.00179833
0.00180859
0.00178988
0.00179844
0.00176439
0.00177595
0.00174368
0.00175365
0.00172294
0.001734
0.00169844
0.00171096
0.00167219
0.00168553
0.00164452
0.00165853
0.00161564
0.00163023
0.00158564
0.00160079
0.0015546
0.00157026
0.00152256
0.00153871
0.00148962
0.00150621
0.00145584
0.00147284
0.00142134
0.00143869
0.00138621
0.00140386
0.00135057
0.00136846
0.00131453
0.0013326
0.0012782
0.0012964
0.0012417
0.00125997
0.00120513
0.00122342
0.00116858
0.00118685
0.00113215
0.00115035
0.00109591
0.00111401
0.00105997
0.00107792
0.0010234
0.00104175
0.00100528
0.000954721
0.000952024
0.000953571
0.000956993
0.000955874
0.000958445
0.000957815
0.000959155
0.000958896
0.000959079
0.000959216
0.000958265
0.000958753
0.000956731
0.000957541
0.000955761
0.00100725
0.000970949
0.000989094
0.00104396
0.00102553
0.00107985
0.00106188
0.00111605
0.00109792
0.00115249
0.00113426
0.00118908
0.00117078
0.00122573
0.00120741
0.00126234
0.00124405
0.00129882
0.00128062
0.00133505
0.00131698
0.0013709
0.00135304
0.00140626
0.00138866
0.00144101
0.00142373
0.00147502
0.00145813
0.0015082
0.00149174
0.00154044
0.00152446
0.00157166
0.0015562
0.00160175
0.00158687
0.00163064
0.00161637
0.00165825
0.00164463
0.00168449
0.00167157
0.0017093
0.00169711
0.00173259
0.00172117
0.0017543
0.00174367
0.00177422
0.00176453
0.00179257
0.00178364
0.00180956
0.00180115
0.00182424
0.00181774
0.00184144
0.00182865
0.00184996
0.00185294
0.00186477
0.00185746
0.00184959
0.0018384
0.0018573
0.00185422
0.00184645
0.00184854
0.000950933
0.000952886
0.00186187
0.00185482
0.00185615
0.00186113
0.00186174
0.00186523
0.00186717
0.00186524
0.001862
0.00184401
0.00183345
0.00183488
0.0018377
0.00184519
0.00185566
0.00184688
0.00185845
0.00186664
0.001863
0.00186188
0.00184839
0.00183046
0.00182604
0.00181303
0.00181608
0.00179107
0.00180219
0.00177716
0.00178524
0.00175558
0.0017665
0.00173468
0.00174504
0.00171313
0.00172426
0.00168904
0.00170135
0.00166321
0.00167634
0.00163595
0.00164976
0.00160746
0.00162187
0.00157785
0.00159281
0.00154719
0.00156266
0.00151554
0.0015315
0.00148299
0.00149938
0.00144961
0.00146641
0.0014155
0.00143265
0.00138076
0.00139821
0.0013455
0.0013632
0.00130982
0.00132771
0.00127385
0.00129187
0.00123768
0.00125579
0.00120143
0.00121956
0.00116518
0.0011833
0.00112903
0.0011471
0.00109305
0.00111102
0.00105732
0.00107515
0.00102158
0.00103958
0.000985777
0.00100354
0.000949791
0.000967605
0.000934329
0.00093202
0.000933194
0.000937268
0.000935831
0.000939414
0.00093845
0.00094082
0.000940203
0.000941501
0.000941254
0.000941433
0.000941562
0.000940627
0.000941116
0.000938975
0.000939928
0.000936584
0.000937879
0.000935059
0.000936345
0.00096946
0.00093347
0.000951803
0.00100581
0.000987474
0.00104157
0.00102386
0.00107723
0.00105935
0.00111321
0.0010952
0.00114937
0.00113128
0.00118567
0.00116752
0.00122201
0.00120385
0.0012583
0.00124018
0.00129444
0.00127641
0.0013303
0.00131242
0.00136578
0.00134811
0.00140075
0.00138335
0.0014351
0.00141803
0.00146872
0.00145203
0.0015015
0.00148524
0.00153334
0.00151756
0.00156415
0.0015489
0.00159386
0.00157917
0.00162238
0.00160829
0.00164963
0.00163619
0.00167555
0.00166279
0.00170006
0.00168801
0.0017231
0.0017118
0.00174458
0.00173406
0.00176441
0.00175474
0.00178265
0.00177375
0.00179933
0.00179122
0.00181347
0.0018069
0.00182652
0.00182012
0.00182643
0.00186711
0.00187071
0.00185659
0.0018481
0.00185695
0.00185775
0.00185762
0.00186286
0.00186467
0.000948212
0.000930739
0.000917259
0.000915737
0.00187021
0.00186958
0.00187248
0.00187302
0.00187179
0.00187071
0.00184198
0.00183212
0.00184544
0.00184986
0.00186004
0.00185794
0.00186956
0.00186936
0.00186096
0.00184858
0.00185903
0.00185801
0.00182606
0.00181369
0.00181483
0.00182152
0.00179846
0.00180643
0.00178236
0.00179092
0.00176601
0.00177457
0.00174582
0.0017562
0.00172493
0.00173541
0.00170311
0.00171428
0.00167929
0.00169145
0.00165383
0.00166677
0.00162696
0.00164058
0.00159886
0.00161307
0.00156964
0.0015844
0.00153936
0.00155464
0.00150811
0.00152387
0.00147596
0.00149216
0.00144299
0.00145958
0.00140929
0.00142623
0.00137495
0.0013922
0.00134008
0.00135758
0.00130479
0.00132249
0.00126918
0.00128702
0.00123337
0.0012513
0.00119745
0.00121542
0.00116152
0.00117949
0.00112567
0.00114359
0.00108997
0.0011078
0.00105448
0.00107219
0.00101929
0.00103686
0.000983777
0.00100142
0.000965883
0.000916912
0.000914316
0.000915769
0.000919943
0.000918545
0.00092195
0.000921032
0.000923307
0.000922714
0.00092396
0.000923722
0.000923899
0.000924019
0.000923123
0.000923599
0.000921671
0.000922476
0.000919422
0.000920573
0.00091823
0.000967867
0.000932173
0.000950404
0.00100388
0.000985791
0.00103897
0.0010214
0.00107442
0.00105666
0.00111012
0.00109225
0.001146
0.00112805
0.00118199
0.001164
0.00121801
0.00120001
0.00125396
0.00123601
0.00128973
0.00127188
0.00132522
0.00130753
0.00136031
0.00134284
0.00139488
0.00137768
0.00142882
0.00141195
0.00146203
0.00144554
0.00149439
0.00147834
0.00152583
0.00151025
0.00155624
0.00154118
0.00158556
0.00157106
0.00161371
0.00159981
0.00164061
0.00162734
0.00166621
0.00165361
0.00169044
0.00167853
0.00171322
0.00170204
0.00173449
0.00172407
0.00175417
0.00174456
0.00177226
0.00176344
0.0017887
0.00178072
0.00180292
0.00179618
0.00181483
0.00180938
0.0018238
0.00181897
0.00183738
0.00183201
0.00185036
0.0018417
0.00183263
0.00187321
0.00186844
0.00186544
0.00186633
0.000912891
0.000914535
0.00187247
0.00187095
0.00187259
0.00187812
0.0018768
0.00187888
0.00187894
0.00187745
0.0018738
0.00184699
0.00183367
0.00183108
0.00183033
0.00182756
0.00184353
0.00184411
0.00186162
0.00185828
0.00187089
0.00186714
0.0018718
0.00186703
0.00185939
0.00185069
0.00186663
0.00182659
0.00183431
0.00181223
0.00180621
0.00180047
0.00181015
0.00178759
0.00179431
0.00177195
0.00178009
0.00175501
0.00176377
0.00173546
0.00174549
0.00171473
0.00172521
0.00169284
0.00170401
0.00166926
0.00168127
0.00164412
0.00165689
0.00161762
0.00163105
0.0015899
0.00160392
0.00156106
0.00157563
0.00153118
0.00154626
0.00150033
0.00151589
0.00146859
0.00148458
0.00143603
0.00145242
0.00140274
0.00141948
0.00136881
0.00138586
0.00133435
0.00135165
0.00129945
0.00131695
0.00126422
0.00128188
0.00122878
0.00124653
0.00119321
0.00121101
0.00115761
0.00117541
0.00112207
0.00113984
0.00108666
0.00110435
0.00105145
0.00106903
0.0010165
0.00103394
0.000981841
0.000999131
0.000946289
0.000963967
0.000911285
0.000928902
0.000896901
0.000893446
0.000895379
0.000899948
0.000898299
0.000902657
0.000901455
0.000904601
0.000903704
0.000905902
0.000905336
0.000906529
0.0009063
0.000906477
0.000906588
0.000905748
0.000906197
0.000904378
0.000905137
0.000902423
0.00090345
0.000899728
0.000901079
0.000897133
0.000898403
0.000930824
0.000895996
0.000913502
0.000965939
0.000948525
0.00100135
0.000983725
0.0010362
0.00101873
0.00107139
0.00105377
0.00110681
0.00108908
0.00114239
0.00112459
0.00117806
0.00116022
0.00121373
0.00119591
0.00124933
0.00123156
0.00128473
0.00126707
0.00131983
0.00130233
0.00135452
0.00133724
0.00138868
0.00137169
0.00142221
0.00140555
0.001455
0.00143872
0.00148695
0.0014711
0.00151797
0.0015026
0.00154798
0.00153313
0.00157692
0.00156261
0.0016047
0.00159098
0.00163127
0.00161817
0.00165655
0.0016441
0.0016805
0.00166872
0.00170304
0.00169198
0.0017241
0.00171379
0.00174363
0.00173409
0.00176156
0.00175283
0.00177781
0.00176994
0.00179204
0.00178524
0.00180404
0.00179841
0.00181403
0.00180906
0.00182277
0.00181958
0.00182072
0.00188084
0.00187971
0.00184515
0.0018375
0.00187346
0.00187432
0.00187666
0.0018785
0.0018799
0.000909564
0.00089218
0.000879879
0.000878767
0.00188543
0.00188335
0.00188474
0.00188425
0.00188189
0.00187777
0.00182847
0.00181869
0.00181644
0.00182891
0.00184319
0.00185796
0.00187039
0.00186728
0.00187692
0.00187505
0.0018681
0.00185778
0.00185067
0.00182658
0.00183377
0.00187468
0.00182346
0.00181589
0.00181092
0.00182212
0.00179883
0.00180284
0.00178953
0.00179559
0.00177648
0.00178326
0.00176097
0.001769
0.00174389
0.00175269
0.00172474
0.00173456
0.00170419
0.00171463
0.00168235
0.00169348
0.00165898
0.00167088
0.00163416
0.00164676
0.001608
0.00162125
0.00158065
0.00159448
0.00155218
0.00156656
0.00152269
0.00153758
0.00149225
0.0015076
0.00146091
0.0014767
0.00142877
0.00144495
0.00139589
0.00141243
0.00136238
0.00137922
0.00132833
0.00134543
0.00129384
0.00131114
0.001259
0.00127646
0.00122393
0.0012415
0.00118872
0.00120635
0.00115347
0.0011711
0.00111826
0.00113586
0.00108316
0.0011007
0.00104823
0.00106568
0.00101354
0.00103086
0.000979171
0.000996319
0.000944222
0.000961764
0.000926687
0.000879862
0.000876276
0.000878373
0.00088305
0.00088145
0.000885486
0.000884342
0.000887363
0.000886501
0.000888606
0.000888064
0.000889208
0.000888987
0.000889165
0.000889267
0.00088848
0.000888903
0.000887166
0.000887899
0.000885292
0.000886291
0.000882613
0.00088406
0.000881188
0.000929263
0.000894485
0.000912197
0.000963975
0.000946527
0.000998614
0.00098142
0.00103325
0.0010159
0.00106816
0.00105069
0.00110328
0.00108571
0.00113854
0.0011209
0.00117388
0.00115621
0.00120921
0.00119156
0.00124443
0.00122685
0.00127945
0.00126198
0.00131415
0.00129686
0.00134843
0.00133137
0.00138218
0.0013654
0.00141529
0.00139884
0.00144766
0.00143159
0.0014792
0.00146356
0.00150982
0.00149465
0.00153944
0.00152478
0.001568
0.00155388
0.00159543
0.00158188
0.00162166
0.00160872
0.00164665
0.00163434
0.00167033
0.00165868
0.00169263
0.00168168
0.0017135
0.00170328
0.00173287
0.00172341
0.00175067
0.00174201
0.00176678
0.00175898
0.00178097
0.00177417
0.00179307
0.00178734
0.00180327
0.00179831
0.00181089
0.0018078
0.00181573
0.00181308
0.00182412
0.00181565
0.00182789
0.00181835
0.00181483
0.00188686
0.0018853
0.00188091
0.00188169
0.000875042
0.000877186
0.00187872
0.00188554
0.00188655
0.00189168
0.0018893
0.00189004
0.00188878
0.00188573
0.00188095
0.0018176
0.00180627
0.00179894
0.00180887
0.00180113
0.001813
0.00181409
0.00183112
0.00184059
0.00185752
0.00186689
0.0018778
0.00187946
0.00187662
0.00186784
0.00185676
0.0018462
0.00183312
0.00182258
0.00188211
0.00181625
0.00181452
0.00180993
0.00179774
0.00179675
0.00180931
0.00178831
0.00179205
0.00177827
0.00178392
0.00176507
0.00177194
0.00174974
0.00175767
0.00173268
0.00174145
0.00171378
0.00172346
0.00169341
0.00170377
0.00167169
0.00168274
0.00164853
0.0016603
0.00162398
0.00163644
0.00159816
0.00161124
0.00157115
0.00158481
0.00154306
0.00155725
0.00151395
0.00152864
0.0014839
0.00149905
0.00145297
0.00146856
0.00142124
0.00143722
0.00138879
0.00140511
0.0013557
0.00137233
0.00132206
0.00133895
0.00128797
0.00130507
0.00125354
0.0012708
0.00121885
0.00123623
0.00118401
0.00120145
0.00114912
0.00116657
0.00111424
0.00113167
0.00107946
0.00109684
0.00104483
0.00106213
0.00101042
0.0010276
0.000976272
0.00099331
0.000942162
0.000959325
0.000907892
0.000924797
0.000873496
0.000890743
0.000859598
0.000856251
0.000858224
0.000863138
0.000861287
0.00086609
0.00086472
0.000868437
0.000867325
0.00087023
0.000869409
0.000871417
0.000870899
0.000871996
0.000871784
0.000871961
0.000872055
0.000871317
0.000871715
0.000870071
0.000870767
0.000868252
0.000869229
0.000865937
0.000867155
0.000862973
0.000864441
0.000860289
0.000861599
0.000892911
0.000858953
0.000875883
0.000927271
0.000909998
0.000961663
0.00094439
0.000995742
0.000978683
0.00103012
0.0010129
0.00106474
0.00104741
0.00109955
0.00108213
0.00113448
0.00111701
0.00116948
0.00115199
0.00120444
0.00118698
0.00123929
0.0012219
0.00127391
0.00125665
0.00130822
0.00129113
0.00134209
0.00132523
0.00137542
0.00135884
0.00140812
0.00139187
0.00144007
0.00142421
0.0014712
0.00145576
0.00150142
0.00148645
0.00153066
0.00151619
0.00155885
0.00154491
0.00158594
0.00157256
0.00161186
0.00159907
0.00163656
0.00162439
0.00165998
0.00164846
0.00168207
0.00167122
0.00170276
0.00169262
0.00172198
0.00171259
0.00173966
0.00173105
0.00175567
0.00174792
0.00176984
0.00176303
0.00178199
0.00177621
0.00179218
0.00178732
0.0017999
0.00179652
0.00180466
0.00180266
0.00180765
0.00180639
0.00180366
0.0018919
0.00188995
0.00181444
0.00180716
0.00188778
0.00188843
0.00188382
0.00189176
0.00189256
0.000871834
0.000854812
0.000843414
0.000841995
0.00189703
0.00189461
0.00189459
0.00189263
0.00188884
0.00188348
0.0018017
0.00179416
0.00178053
0.00178791
0.00181822
0.00182589
0.00184447
0.00184772
0.00186618
0.00187571
0.00188326
0.00187696
0.00186692
0.00185583
0.00184039
0.00183171
0.00181866
0.00179727
0.00180474
0.00188891
0.00179907
0.00178121
0.00180376
0.00180668
0.00179479
0.00178997
0.00178594
0.00179407
0.0017774
0.00178145
0.00176681
0.00177255
0.00175361
0.00176048
0.00173839
0.00174626
0.00172139
0.00173013
0.00170266
0.00171225
0.00168246
0.00169275
0.00166088
0.00167186
0.00163793
0.00164959
0.00161365
0.00162597
0.00158813
0.00160106
0.00156146
0.00157495
0.00153373
0.00154774
0.001505
0.0015195
0.00147534
0.00149029
0.00144481
0.00146019
0.00141349
0.00142926
0.00138145
0.00139757
0.00134877
0.0013652
0.00131555
0.00133224
0.00128188
0.00129877
0.00124784
0.00126491
0.00121355
0.00123073
0.00117909
0.00119634
0.00114455
0.00116183
0.00111002
0.00112729
0.00107557
0.00109279
0.00104126
0.0010584
0.00100714
0.00102418
0.000973259
0.000990171
0.000939686
0.000956449
0.000905758
0.000922621
0.000888824
0.000843092
0.000839422
0.000841544
0.000846476
0.000844765
0.000849233
0.000847925
0.000851495
0.00085043
0.000853201
0.000852419
0.000854336
0.00085384
0.000854891
0.000854686
0.000854864
0.000854951
0.000854258
0.000854634
0.000853082
0.00085374
0.000851352
0.000852285
0.000849131
0.000850299
0.00084622
0.000847756
0.000844711
0.000891326
0.000857777
0.000874479
0.000925325
0.000908208
0.000958891
0.00094208
0.00099272
0.000975772
0.00102682
0.00100975
0.00106114
0.00104396
0.00109562
0.00107837
0.00113022
0.00111292
0.00116486
0.00114755
0.00119946
0.00118218
0.00123392
0.00121672
0.00126815
0.00125108
0.00130205
0.00128516
0.00133551
0.00131885
0.00136843
0.00135206
0.00140071
0.00138467
0.00143225
0.00141659
0.00146298
0.00144774
0.00149281
0.00147803
0.00152168
0.00150739
0.00154952
0.00153575
0.00157628
0.00156306
0.0016019
0.00158926
0.00162633
0.00161429
0.00164951
0.0016381
0.0016714
0.00166065
0.00169192
0.00168186
0.00171102
0.00170168
0.00172859
0.00172003
0.00174454
0.00173681
0.00175869
0.00175188
0.00177091
0.00176509
0.00178111
0.00177629
0.00178894
0.00178542
0.0017941
0.00179185
0.00179631
0.00179579
0.00179499
0.00179571
0.00179666
0.0017904
0.00178745
0.00178155
0.00178824
0.00189608
0.00189311
0.00189393
0.00189448
0.000838115
0.000840678
0.00188808
0.00189717
0.00189789
0.00190163
0.00189919
0.00189843
0.0018957
0.00189119
0.00188493
0.00176943
0.0017715
0.00176816
0.00178474
0.00179338
0.00180556
0.00182967
0.00183553
0.001853
0.00186052
0.00187308
0.00188232
0.00187627
0.00186535
0.00185272
0.00184062
0.00182627
0.00181031
0.00179445
0.00177409
0.00178363
0.00177228
0.00189501
0.00179029
0.00176504
0.00178524
0.00177951
0.00178919
0.00179022
0.00178144
0.00178422
0.00177551
0.00177983
0.00176633
0.00177097
0.00175538
0.00176119
0.00174216
0.00174904
0.00172699
0.00173483
0.00171005
0.00171875
0.00169146
0.00170097
0.0016714
0.00168162
0.00164998
0.00166087
0.00162722
0.00163878
0.0016032
0.00161538
0.00157797
0.00159074
0.00155163
0.00156495
0.00152424
0.00153807
0.00149587
0.00151018
0.00146659
0.00148135
0.00143645
0.00145163
0.00140553
0.0014211
0.00137391
0.00138982
0.00134165
0.00135786
0.00130884
0.00132532
0.00127558
0.00129227
0.00124195
0.00125881
0.00120805
0.00122503
0.00117397
0.00119103
0.00113981
0.0011569
0.00110563
0.00112272
0.00107151
0.00108856
0.00103752
0.0010545
0.00100371
0.00102059
0.00097011
0.000986885
0.000936786
0.000953414
0.000903337
0.000920009
0.000870114
0.000886775
0.000836586
0.000853308
0.000823071
0.000819683
0.000821673
0.000826717
0.000824821
0.000829851
0.000828365
0.000832496
0.00083123