/*--------------------------------*- C++ -*----------------------------------*\
  =========                 |
  \\      /  F ield         | OpenFOAM: The Open Source CFD Toolbox
   \\    /   O peration     | Website:  https://openfoam.org
    \\  /    A nd           | Version:  10
     \\/     M anipulation  |
\*---------------------------------------------------------------------------*/
FoamFile
{
    format      ascii;
    class       volScalarField;
    location    "11.5";
    object      p;
}
// * * * * * * * * * * * * * * * * * * * * * * * * * * * * * * * * * * * * * //

dimensions      [0 2 -2 0 0 0 0];

internalField   nonuniform List<scalar> 
40874
(
0.617686
0.697731
0.156201
0.233533
0.144152
0.0572883
-0.0526189
0.126985
0.211472
0.35016
0.537135
0.485879
0.34383
0.455511
0.471099
0.533585
-0.131447
-0.106704
0.240074
0.329936
0.329076
0.29823
0.201866
0.397142
0.382518
0.0884392
0.113167
0.116421
0.0687737
-0.0983337
-0.0772061
0.0212105
0.00742066
-0.326161
-0.330196
-0.331866
-0.325515
-0.00154888
0.000237001
-0.00445307
-0.00188198
-0.00225627
-0.0016547
-0.00599988
-0.00354193
-0.00379123
-0.00645589
0.34953
0.456355
0.525532
0.430383
0.193547
0.284874
-0.149036
-0.187928
-0.0859922
-0.0571906
-0.0757456
-0.194557
-0.315105
-0.294914
0.0219871
0.141835
0.115079
0.0134198
-0.42588
-0.462763
-0.424295
-0.324049
-0.323556
-0.32406
0.920587
0.925502
0.911897
-0.00487979
0.0256279
0.0326512
-0.0307121
-0.002502
0.00418001
-0.00225561
0.000226122
0.498631
0.548963
0.554399
0.517898
-0.0121263
-0.00421718
0.00730435
-0.0833985
-0.211448
-0.155062
-0.159047
-0.298636
-0.234987
0.000872974
0.0033035
-0.00624846
-0.00397569
-0.000777361
0.199315
0.184509
-0.328463
-0.337105
-0.348244
-0.343212
0.428469
0.436213
0.905112
0.888307
-0.329154
-0.328794
0.172206
-0.0117182
-0.00987208
0.00232379
0.00579388
0.170406
0.205924
0.470719
0.614576
0.558087
0.448824
0.485583
-0.00574982
-0.00648523
-0.000785735
-0.00742096
-0.0163998
-0.0278209
0.184273
-0.0023052
0.00894254
0.00967785
0.680052
-0.0282235
-0.0360584
-0.0766264
-0.318608
-0.309048
-0.315734
-0.325891
-0.313054
-0.319703
-0.337177
-0.338192
-0.338417
0.895538
0.927246
0.919661
-0.153085
-0.188034
-0.108644
-0.348484
-0.348734
-0.344452
-0.35309
-0.340889
-0.340546
-0.338229
-0.456186
-0.466397
-0.448275
0.899658
0.827666
0.725562
0.626964
0.662116
0.227698
-0.359338
0.759077
0.702412
0.575073
0.800483
0.00778369
0.0127049
-0.301506
-0.302585
-0.314218
-0.355159
-0.345841
-0.335299
-0.33817
-0.406823
-0.397529
-0.000160726
-0.000152544
-0.000215583
0.453975
0.463941
0.442129
0.339427
0.278254
0.869475
0.890933
0.904408
0.861276
-0.0315018
-0.119286
-0.224859
-0.132765
-0.37302
-0.366533
-0.360146
-0.375652
-0.000111627
-0.000126253
-0.35368
-0.0112689
-0.0183131
0.164053
0.159884
0.35165
0.207166
0.206282
0.16865
0.168368
0.194369
0.185844
0.703651
0.79974
0.817201
-0.00482043
-0.00594608
0.24157
0.143428
0.179133
0.160806
-0.329029
-0.299927
-0.299785
-0.332833
-0.333512
-0.173445
-0.317865
-0.317343
-0.321729
-0.318009
-0.315879
0.119431
0.182645
-0.312342
-0.316448
0.0335095
0.0209201
-0.0859177
-0.0623336
0.634096
0.645367
0.759366
0.718388
-0.128318
-0.121584
-0.134009
-0.144396
-0.31914
-0.315615
-0.308901
-0.316447
-0.313753
-0.313164
-0.324621
-0.31945
-0.316588
0.8682
0.831094
0.882806
0.619889
0.59782
0.603231
-0.313841
-0.000236974
-0.169695
0.00263039
-0.041673
-0.03746
-0.0334293
-0.0294013
-0.0250706
-0.0212816
-0.0187678
-0.0165167
-0.0137236
-0.0113042
-0.0090099
-0.00706203
-0.00515576
-0.00350257
-0.00188257
-0.000467917
0.00087862
0.00199288
0.00323623
0.00430569
0.00527411
0.00611908
0.00693278
0.00763555
0.00829815
0.00885945
0.00937747
0.00980147
0.0101798
0.0104701
0.0107077
0.0108523
0.010958
0.0109583
0.0108093
0.0100982
0.0089911
0.00947158
-0.0585789
-0.0468541
-0.0528485
-0.0588981
-0.0707317
-0.0642293
-0.0491233
-0.053813
-0.0404187
-0.0446268
-0.0315612
-0.0360812
-0.023951
-0.0270017
-0.0183462
-0.0211888
-0.0133464
-0.015712
-0.00920917
-0.0111982
-0.00567393
-0.00737573
-0.00279535
-0.00410414
1.03956e-05
-0.00133844
0.0022024
0.00115489
0.00406569
0.00316978
0.00562446
0.00488128
0.00688858
0.00629118
0.0078695
0.00741179
0.00858365
0.00825845
0.00897716
0.00883254
0.00865621
0.00898266
0.00853001
-0.0340789
-0.0399669
-0.0262361
-0.0298794
-0.0187839
-0.0225722
-0.0142025
-0.0160944
-0.0100795
-0.0122747
-0.00581776
-0.00789062
-0.00222248
-0.00395602
0.000843168
-0.000641752
0.00349105
0.00220787
0.00568292
0.00461289
0.00762571
0.00669295
0.00923614
0.00846386
0.0105689
0.00993317
0.0116378
0.0111336
0.0124492
0.0120735
0.0129989
0.0127576
0.0132637
0.0131613
0.0133607
0.0133697
0.0123706
0.0127992
-0.0780331
-0.0863311
-0.0729688
-0.0654937
-0.0962532
-0.0815258
-0.106781
0.00662835
0.00651805
0.0124298
-0.0412318
-0.0359645
-0.0466102
-0.0595047
-0.067427
-0.140842
-0.115245
-0.120114
-0.0989759
-0.108794
-0.0820697
-0.0899471
-0.0687639
-0.0750345
-0.0574672
-0.0632294
-0.0474031
-0.0523463
-0.0384924
-0.0429628
-0.0310195
-0.0343284
-0.0252483
-0.0281067
-0.0199598
-0.0225024
-0.015384
-0.017584
-0.0114313
-0.013328
-0.0080112
-0.00967341
-0.00500634
-0.006463
-0.00243798
-0.00366574
-0.00024809
-0.00129817
0.00160789
0.000721374
0.00315278
0.00241905
0.00440144
0.0038122
0.00538251
0.00492403
0.00604602
0.00577183
0.00630811
0.00619432
0.00650125
0.00634132
0.0121806
0.00738763
0.00868071
-0.026405
-0.0312541
-0.0186624
-0.0222191
-0.0125146
-0.0152873
-0.00769948
-0.0102141
-0.00351602
-0.00539662
0.000132193
-0.00164942
0.00328399
0.00177897
0.00596171
0.00467638
0.00824926
0.00715572
0.01018
0.00925471
0.0118415
0.0110453
0.0132254
0.0125676
0.0143569
0.0138222
0.0152474
0.0148325
0.015898
0.0156031
0.0162999
0.0161314
0.016472
0.0164088
0.016296
0.0164585
0.0158782
0.0160238
0.0152042
0.0156068
-0.0526412
-0.0294374
-0.0252308
-0.0342391
-0.0455912
-0.0529838
0.0182594
0.0147082
0.0177233
-0.128571
-0.0911223
0.00564257
-0.0767009
0.00465562
-0.15875
-0.159482
-0.187613
-0.195772
-0.177785
-0.128577
-0.142837
-0.110215
-0.119329
-0.0925404
-0.101012
-0.0777707
-0.0849681
-0.0658345
-0.0717115
-0.054846
-0.0603674
-0.0457736
-0.0501692
-0.0378873
-0.0417102
-0.0314827
-0.0345814
-0.0257999
-0.0285439
-0.0208251
-0.0232246
-0.0164933
-0.0185782
-0.0127268
-0.0145639
-0.00946227
-0.0110446
-0.00661927
-0.0079837
-0.00418493
-0.00535289
-0.00211449
-0.00310517
-0.000376747
-0.00120474
0.0010476
0.000371725
0.00218904
0.00165161
0.00305172
0.00266804
0.00352691
0.00327988
0.00383681
0.00376363
0.00337654
0.00372073
0.00303457
0.00889066
0.00666651
0.011756
-0.0175804
-0.0213995
-0.0105506
-0.0138365
-0.00536019
-0.00773572
-0.000748859
-0.00309398
0.00301455
0.00129202
0.00607532
0.00458607
0.00874644
0.00746558
0.0110217
0.00992887
0.0129661
0.0120334
0.0146106
0.0138231
0.0160182
0.0153423
0.0171956
0.016636
0.0181515
0.0177005
0.018894
0.0185496
0.0194199
0.0191847
0.0197163
0.019598
0.0197632
0.0197739
0.0194747
0.0196624
0.0190006
0.0192743
0.0186667
-0.0394447
-0.0621929
-0.0177807
-0.0142187
0.0141403
0.017059
-0.021821
-0.146903
0.000166994
-0.000941486
-0.177291
-0.101898
-0.114183
-0.200801
-0.217921
-0.213586
-0.0876622
-0.0728671
-0.16953
-0.184826
-0.141376
-0.154788
-0.120194
-0.130216
-0.102332
-0.111143
-0.0866932
-0.0942156
-0.0738027
-0.0798871
-0.0626352
-0.0680771
-0.0529996
-0.0575843
-0.0445493
-0.0486176
-0.0374428
-0.0408627
-0.031277
-0.0342459
-0.0259109
-0.0284997
-0.0212278
-0.0234864
-0.0171726
-0.0191257
-0.0136339
-0.0153425
-0.0105657
-0.0120411
-0.00792651
-0.009194
-0.00567576
-0.00675366
-0.00378253
-0.00468501
-0.00221695
-0.0029596
-0.000958832
-0.00155139
1.99243e-05
-0.00042727
0.000606764
0.000330259
0.00101241
0.000839459
0.000638353
0.000965923
0.000268466
0.00383103
0.0014679
0.00860109
0.00615702
0.0112674
-0.00781088
-0.0110274
-0.00186653
-0.00463322
0.00255334
0.000460898
0.00647526
0.00456505
0.00965139
0.00816823
0.0122195
0.0109869
0.0144146
0.0133619
0.016278
0.0153843
0.0178609
0.0171023
0.0192026
0.0185599
0.0203361
0.0197938
0.0212764
0.0208303
0.022028
0.0216756
0.0225922
0.0223339
0.0229614
0.022802
0.0231213
0.0230684
0.0230515
0.0231179
0.0227097
0.022912
0.022174
0.0224703
0.0213477
0.0218212
-0.236169
-0.235889
-0.0996594
-0.20172
0.0200368
0.0207611
-0.031538
-0.0264074
-0.0461297
-0.0377586
-0.0865957
-0.259591
-0.227325
-0.192769
-0.264181
-0.242128
-0.00303477
-0.00602779
-0.13164
-0.276415
-0.277888
-0.056371
0.0230768
0.0192095
0.0222106
-0.271052
-0.169165
-0.213956
-0.206612
-0.222285
-0.179432
-0.192413
-0.153246
-0.166236
-0.130365
-0.141197
-0.111575
-0.120557
-0.0954013
-0.10319
-0.0817124
-0.0882036
-0.0700453
-0.0756867
-0.0598545
-0.0647274
-0.0509383
-0.0552284
-0.0433101
-0.0469895
-0.0366822
-0.0398713
-0.0309283
-0.0337026
-0.0259095
-0.0283308
-0.0215528
-0.0236496
-0.0177522
-0.0195863
-0.0144571
-0.0160427
-0.0116147
-0.0129808
-0.00918212
-0.0103482
-0.00713046
-0.00810789
-0.00542073
-0.00623257
-0.00404066
-0.00469065
-0.00295401
-0.00345877
-0.00224023
-0.00256093
-0.00174092
-0.00195739
-0.00185252
-0.00167186
-0.00234259
-0.00217897
0.00302636
-0.00221046
0.00067003
0.00803686
0.00551105
0.0134327
0.0106766
0.0162802
0.00215713
-0.000362709
0.00700178
0.00470951
0.0107061
0.00896503
0.01379
0.0123132
0.0162967
0.0151166
0.0183209
0.0173549
0.0200308
0.0192109
0.0214799
0.0207853
0.0227086
0.0221196
0.0237473
0.0232501
0.0246209
0.0242037
0.0253398
0.0249997
0.025904
0.0256413
0.0263094
0.0261271
0.0265441
0.0264492
0.0265893
0.0265919
0.0264148
0.0265322
0.025996
0.0262347
0.0253467
0.0257028
0.0244472
0.0249218
0.0238207
-0.00958342
-0.0174274
-0.0133056
-0.0295778
-0.0227025
-0.118447
-0.268565
-0.250465
-0.290641
-0.29011
-0.0047698
-0.00477709
-0.0692428
-0.0378803
0.0182594
0.0211677
-0.253318
-0.190372
-0.282239
-0.157494
-0.107229
0.00572824
0.00822249
-0.215783
-0.231645
-0.188719
-0.201961
-0.163426
-0.175819
-0.140105
-0.151249
-0.120541
-0.129865
-0.103844
-0.111877
-0.0895062
-0.0963623
-0.0771936
-0.0831244
-0.0664872
-0.0716276
-0.0571386
-0.0616369
-0.0490722
-0.0529651
-0.042035
-0.0454247
-0.0359095
-0.038863
-0.0305641
-0.0331429
-0.0259075
-0.0281513
-0.0218456
-0.023805
-0.0183175
-0.0200162
-0.0152664
-0.0167337
-0.0126465
-0.0139037
-0.0104304
-0.0114832
-0.00856671
-0.00945204
-0.00705182
-0.00776663
-0.00584978
-0.00641195
-0.00499114
-0.00538269
-0.00439385
-0.00465622
-0.00423336
-0.00422558
-0.0043973
0.00237791
-0.00259595
-0.000121182
0.00732169
0.00483613
0.0126072
0.00991863
0.0153946
0.0124024
0.0103958
0.0160201
0.0142848
0.0188635
0.0175314
0.0211438
0.020062
0.0229863
0.0221168
0.0244687
0.0237655
0.0256977
0.0251106
0.0267302
0.0262365
0.0276003
0.0271841
0.0283328
0.0279829
0.0289425
0.0286526
0.0294352
0.0292037
0.0298076
0.0296371
0.0300503
0.0299462
0.0301471
0.0301184
0.0300757
0.0301342
0.0298066
0.0299681
0.0293134
0.0295889
0.0285773
0.0289784
0.027554
0.0281041
0.0261462
0.0269313
-0.295615
-0.00473837
-0.0472557
-0.0825618
0.0241517
0.0252295
-0.211956
-0.301889
-0.293467
-0.0193914
0.00306212
5.20671e-05
-0.00337419
-0.00770066
-0.0128865
-0.137677
-0.283401
-0.185067
-0.25938
-0.274861
0.0195125
0.0177126
-0.00279747
-0.004896
-0.0272998
-0.307156
-0.0982941
0.0272308
0.0229565
0.0259565
-0.22675
-0.242641
-0.1981
-0.212051
-0.17238
-0.184725
-0.149156
-0.1603
-0.129166
-0.138753
-0.111934
-0.120218
-0.0970431
-0.10419
-0.0841444
-0.0903537
-0.0729377
-0.0783234
-0.0631597
-0.0678669
-0.0546765
-0.0587685
-0.0472618
-0.0508358
-0.0407861
-0.0439092
-0.0351256
-0.0378563
-0.0301815
-0.0325654
-0.0258642
-0.0279464
-0.0221064
-0.0239165
-0.0188493
-0.0204162
-0.016045
-0.0173912
-0.0136561
-0.0147988
-0.0116451
-0.0126028
-0.00999234
-0.0107743
-0.00866944
-0.00929023
-0.00768121
-0.00813627
-0.0069836
-0.00729461
-0.00667814
-0.00676454
-0.00692287
-0.00673008
-0.00680358
-0.00688501
0.00176608
-0.000604635
0.00658193
0.00416973
0.0116798
0.00907165
0.0171915
0.0143976
0.0200336
0.0226407
0.021231
0.025094
0.0239193
0.0270207
0.0261253
0.0285031
0.0278077
0.0296674
0.0291215
0.0305843
0.0301526
0.0313282
0.030975
0.0319451
0.0316514
0.0324605
0.0322149
0.0328906
0.0326861
0.0332435
0.033077
0.0335193
0.0333919
0.0337099
0.0336265
0.0338015
0.0337697
0.0337732
0.0338043
0.0335984
0.0337065
0.0332433
0.033446
0.0326749
0.032988
0.0318573
0.0323002
0.0307458
0.0313414
0.029267
0.0300649
0.0283184
-0.229861
-0.310088
-0.287476
0.0157191
0.0135001
0.0108201
0.00762883
0.00373346
-0.00129723
-0.00693608
-0.291367
-0.299497
-0.00681828
0.0198634
0.0229723
-0.0586353
-0.303298
-0.325476
-0.311718
-0.126796
0.0303734
0.0290976
0.0216188
0.0245563
-0.267973
-0.282099
-0.23655
-0.252091
-0.207117
-0.221538
-0.180963
-0.193564
-0.157671
-0.168828
-0.137372
-0.147146
-0.11966
-0.128178
-0.104268
-0.111663
-0.0908662
-0.0973165
-0.0791883
-0.0848021
-0.0689863
-0.0738979
-0.0600978
-0.0643818
-0.0523203
-0.0560685
-0.0455126
-0.0487951
-0.0395511
-0.0424261
-0.0343343
-0.0368495
-0.0297723
-0.0319718
-0.0257942
-0.0277104
-0.0223391
-0.0240014
-0.0193562
-0.0207888
-0.0168039
-0.0180272
-0.0146476
-0.0156759
-0.0128606
-0.0137079
-0.0114176
-0.0120963
-0.0103142
-0.0108248
-0.00952748
-0.00987962
-0.00911569
-0.00926625
-0.00905357
-0.00905288
-0.00888273
-0.00899314
-0.00726839
-0.00929572
-0.0089945
-0.00319365
-0.00520094
0.00119008
-0.00103714
0.00584792
0.00350808
0.0107224
0.00824277
0.0160158
0.0133351
0.0187804
0.0133528
0.0164097
0.0284539
0.0252085
0.0270104
0.0310056
0.029775
0.0328639
0.0319807
0.0341724
0.0335528
0.0351524
0.0347068
0.0358407
0.035528
0.0363323
0.0361089
0.0366849
0.0365246
0.0369464
0.0368261
0.0371496
0.0370554
0.0373119
0.0372365
0.0374418
0.0373819
0.0375405
0.0374965
0.0376023
0.0375778
0.0376148
0.0376168
0.0375596
0.0375981
0.0374114
0.0374999
0.0371398
0.0372941
0.0367079
0.0369473
0.0360746
0.03642
0.0351927
0.0356689
0.034004
0.0346419
0.0324521
0.0332694
0.0314775
-0.011355
-0.0350152
-0.306941
0.0109086
-0.309559
-0.310293
-0.0074564
-0.00987355
0.0275695
0.0202048
0.0230074
-0.0685982
-0.308424
-0.30855
-0.306763
-0.30841
-0.30007
-0.303217
-0.276165
-0.290605
-0.24507
-0.260392
-0.21585
-0.230157
-0.189432
-0.202262
-0.165843
-0.177141
-0.14517
-0.155123
-0.127024
-0.135749
-0.111167
-0.118783
-0.0973124
-0.103974
-0.0851986
-0.0910198
-0.0745925
-0.0796947
-0.0653205
-0.069784
-0.0571965
-0.0611079
-0.0500741
-0.0535052
-0.0438276
-0.0468375
-0.0383528
-0.0409906
-0.0335588
-0.0358685
-0.0293713
-0.0313874
-0.0257275
-0.02748
-0.0225743
-0.0240888
-0.0198661
-0.0211634
-0.0175696
-0.0186659
-0.0156535
-0.0165634
-0.014093
-0.0148285
-0.0128788
-0.013443
-0.0119932
-0.0123939
-0.011458
-0.0116779
-0.0112208
-0.0113122
-0.011083
-0.0111247
-0.011164
-0.0110701
-0.00363402
-0.00564581
0.000583129
-0.00155952
0.0050913
0.00282787
0.00977914
0.00740875
0.0148028
0.0122419
0.0174387
0.0245414
0.0331421
0.030917
0.0367914
0.0350793
0.0398065
0.0385075
0.0414629
0.0407229
0.0424154
0.0419784
0.042993
0.0427625
0.0432085
0.0431272
0.0432361
0.0432457
0.0431285
0.0431986
0.0429474
0.0430476
0.0427329
0.0428455
0.0425135
0.0426252
0.0423073
0.0424106
0.0421218
0.0422142
0.0419574
0.0420394
0.0418087
0.0418838
0.0416644
0.0417389
0.0415075
0.0415907
0.0413152
0.0414192
0.0410579
0.0411985
0.040701
0.040896
0.0402024
0.040474
0.0395137
0.0398867
0.0385783
0.0390823
0.0373258
0.0379985
0.0356848
0.0365579
0.0335874
0.0347104
-0.0116041
0.0259319
0.030744
0.0322714
0.00942481
-0.315063
-0.317922
-0.307642
-0.317778
-0.0134925
0.0289726
-0.316839
0.738937
0.175678
0.176858
-0.0197437
0.676095
-0.324044
-0.31815
-0.318306
-0.319535
-0.309091
-0.283934
-0.297564
-0.253238
-0.268597
-0.224147
-0.238361
-0.19764
-0.21056
-0.173718
-0.185203
-0.152627
-0.162773
-0.134057
-0.142982
-0.117764
-0.125588
-0.103482
-0.110344
-0.0909606
-0.0969755
-0.0799747
-0.0852561
-0.0703449
-0.0749768
-0.0618937
-0.0659598
-0.0544736
-0.0580456
-0.0479575
-0.0510953
-0.0422382
-0.0449924
-0.0372237
-0.0396386
-0.0328371
-0.0349485
-0.0290131
-0.0308521
-0.0256966
-0.0272897
-0.0228399
-0.0242087
-0.0204079
-0.02157
-0.018367
-0.0193376
-0.0166912
-0.0174828
-0.0153658
-0.0159846
-0.0143719
-0.0148269
-0.0137098
-0.0139971
-0.0133597
-0.0134991
-0.0131944
-0.0132509
-0.0132384
-0.013209
-0.0145823
-0.0135011
-0.00900978
-0.00653465
-0.00956081
-0.00952464
-0.00984048
-0.0102876
-0.0107799
-0.0113211
-0.0118809
-0.0124606
-0.013053
-0.0136528
-0.0142819
-0.0149178
-0.0155612
-0.016211
-0.0168662
-0.0175257
-0.0181885
-0.0188536
-0.0195201
-0.0201868
-0.020852
-0.0215142
-0.0221745
-0.0228318
-0.023485
-0.0241335
-0.0247767
-0.025414
-0.0260451
-0.0266696
-0.0272873
-0.0278979
-0.0285012
-0.0290973
-0.0296859
-0.0302671
-0.0308408
-0.0314072
-0.0319662
-0.0325178
-0.0330622
-0.0335993
-0.0341292
-0.0346519
-0.0351673
-0.0356754
-0.0361762
-0.0366694
-0.0371551
-0.0376328
-0.0381025
-0.0385639
-0.0390166
-0.0394602
-0.0398944
-0.0403188
-0.0407328
-0.0411359
-0.0415276
-0.0419071
-0.0422739
-0.0426271
-0.0429662
-0.0432901
-0.0435979
-0.0438879
-0.04416
-0.044417
-0.044659
-0.0448622
-0.0449824
-0.0450933
-0.0455685
-0.0464202
-0.0451316
-0.0457024
-0.0456253
-0.0457097
-0.0456689
-0.0456285
-0.0455378
-0.0454188
-0.0452608
-0.0450675
-0.0448359
-0.0445659
-0.0442562
-0.0439061
-0.0435144
-0.0430805
-0.0426034
-0.0420824
-0.0415167
-0.0409056
-0.0402485
-0.0395449
-0.0387941
-0.0379957
-0.0371493
-0.0362545
-0.0353111
-0.0343185
-0.0332763
-0.0321842
-0.0310429
-0.029853
-0.0286098
-0.0272955
-0.0258882
-0.0244224
-0.0230705
-0.0218894
-0.0195217
-0.0175769
-0.0155303
-0.0169272
-0.0119845
-0.0130661
-0.00786879
-0.00908963
-0.00417285
-0.00595688
-3.95816e-05
-0.00212369
0.00431522
0.00213063
0.00883632
0.0065549
0.0136085
0.0111826
0.0186948
0.0161205
0.0241568
0.0213875
0.0321559
0.0300858
0.027055
0.160555
0.033275
0.0365988
0.0399509
0.0434613
0.0471662
0.0511637
0.055449
0.0600681
0.0650142
0.0704584
0.0764898
0.0831349
0.0904368
0.0984256
0.106868
0.11574
0.126065
0.140601
-0.316216
-0.413115
-0.341513
-0.36815
0.0339939
0.0355457
0.0368453
0.0379958
0.0390214
0.0399295
0.040725
0.0414177
0.0420185
0.0425397
0.0429908
0.043382
0.043721
0.0440163
0.0442743
0.0445025
0.044706
0.0448915
0.0450632
0.0452263
0.0453845
0.0455428
0.0457037
0.0458713
0.0460475
0.0462359
0.0464376
0.0466556
0.0468904
0.0471446
0.0474179
0.0477124
0.0480274
0.0483642
0.0487212
0.0490991
0.0494954
0.0499106
0.0503412
0.0507869
0.0512427
0.0517075
0.0521767
0.052646
0.0531
0.0534971
0.0539171
0.0542826
0.0546261
0.0548111
0.0547548
0.0544207
0.0537188
0.0540382
0.0530953
0.0515309
0.0456103
0.0315018
0.000714119
-0.0790081
0.0354413
0.0388589
0.0423535
0.0459875
0.0498229
0.0539057
0.0582511
0.0628981
0.0678629
0.0731311
0.0789568
0.0852278
0.0919558
0.0990309
0.106251
0.113462
0.122323
0.134934
0.149654
0.159363
0.162796
-0.00910687
0.161924
-0.31692
0.141702
0.128335
0.117253
0.10663
0.096743
0.0878043
0.0799947
0.0730743
0.0669237
0.0614512
0.0565248
0.0520127
0.0478742
0.0440235
0.040492
0.0370838
0.0341376
0.0310087
0.0280028
0.0251148
0.0224245
0.0197817
0.0172821
0.0148427
0.0124564
0.0101461
0.00789757
0.00570252
0.00354699
0.00144703
-0.000629449
-0.00261342
-0.00460864
-0.00630602
-0.007867
-0.00978694
-0.0122448
-0.0140633
-0.0153245
-0.0171846
-0.0183511
-0.0199967
-0.0217199
-0.0231559
-0.0244734
-0.0258195
-0.0271532
-0.028436
-0.0296642
-0.0308432
-0.0319751
-0.0330597
-0.0340964
-0.0350851
-0.0360262
-0.0369199
-0.0377666
-0.0385666
-0.0393202
-0.0400278
-0.0406898
-0.0413069
-0.0418795
-0.0424084
-0.0428941
-0.0433373
-0.0437389
-0.0440997
-0.0444205
-0.0447021
-0.0449456
-0.0451514
-0.0453218
-0.0454542
-0.0455574
-0.0456127
-0.045664
-0.0456023
-0.0456801
-0.0452929
-0.046228
-0.0452941
-0.0450172
-0.0450084
-0.0449168
-0.0447308
-0.0445062
-0.0442637
-0.0440031
-0.0437231
-0.0434249
-0.04311
-0.0427796
-0.0424346
-0.0420755
-0.0417032
-0.0413184
-0.0409216
-0.0405135
-0.0400946
-0.0396653
-0.0392261
-0.0387775
-0.0383198
-0.0378533
-0.0373784
-0.0368952
-0.0364039
-0.0359049
-0.035398
-0.0348836
-0.0343616
-0.033832
-0.033295
-0.0327504
-0.0321983
-0.0316386
-0.0310713
-0.0304965
-0.0299139
-0.0293238
-0.0287261
-0.0281209
-0.0275083
-0.0268885
-0.0262618
-0.0256283
-0.0249886
-0.0243429
-0.0236917
-0.0230357
-0.0223753
-0.0217114
-0.0210452
-0.0203786
-0.0197104
-0.0190417
-0.0183743
-0.0177091
-0.0170473
-0.0163901
-0.0157389
-0.0150953
-0.0144614
-0.0138408
-0.0132127
-0.0126029
-0.0120097
-0.0114375
-0.0108749
-0.0103677
-0.00974768
-0.00973612
-0.00955619
0.162247
-0.369523
-0.374281
-0.417573
-0.387116
-0.427059
-0.419408
-0.426527
-0.366946
-0.0159896
-0.015443
-0.0153039
-0.0152246
-0.0152055
-0.0152798
-0.015426
-0.0156212
-0.0158918
-0.0162407
-0.0166719
-0.0171828
-0.0177751
-0.01845
-0.0192106
-0.0200596
-0.0209991
-0.0220313
-0.0231604
-0.0243892
-0.0257223
-0.0271638
-0.0287195
-0.0303929
-0.0321906
-0.0341185
-0.0361842
-0.0383942
-0.0407574
-0.0432817
-0.0459775
-0.0488537
-0.0519232
-0.0551966
-0.0586883
-0.062411
-0.0663816
-0.0706149
-0.0751312
-0.0799471
-0.0850848
-0.0905668
-0.0964162
-0.102652
-0.109309
-0.116408
-0.123983
-0.132061
-0.140681
-0.149867
-0.159654
-0.170071
-0.181148
-0.192902
-0.205367
-0.218511
-0.232221
-0.246568
-0.261551
-0.276906
-0.291879
-0.304954
-0.328233
-0.319275
-0.323044
-0.32922
-0.322341
-0.325495
-0.329106
-0.322389
-0.325779
-0.328855
-0.321846
-0.324648
-0.329456
-0.319356
-0.320665
-0.333224
-0.329621
-0.0174684
-0.0183155
-0.0171202
-0.0185938
-0.0170543
-0.0186762
-0.0170398
-0.0187274
-0.0170794
-0.0188663
-0.0172149
-0.0190776
-0.0174183
-0.0193429
-0.0176761
-0.0196621
-0.0180066
-0.0200506
-0.018413
-0.0205118
-0.0188982
-0.0210493
-0.0194624
-0.0216648
-0.0201077
-0.0223613
-0.0208363
-0.0231414
-0.0216508
-0.024008
-0.0225545
-0.0249645
-0.0235496
-0.0260136
-0.0246396
-0.0271591
-0.0258279
-0.0284047
-0.0271186
-0.0297548
-0.0285157
-0.0312136
-0.0300243
-0.0327862
-0.0316488
-0.0344777
-0.0333954
-0.0362941
-0.0352692
-0.0382413
-0.0372775
-0.0403264
-0.0394266
-0.0425564
-0.0417251
-0.0449395
-0.0441802
-0.0474839
-0.0468022
-0.0501994
-0.0495992
-0.0530953
-0.0525835
-0.0561831
-0.0557647
-0.0594739
-0.0591572
-0.062981
-0.062772
-0.0667171
-0.066626
-0.0706979
-0.0707318
-0.0749379
-0.0751092
-0.0794555
-0.0797732
-0.0842676
-0.0847468
-0.0893953
-0.0900456
-0.0948574
-0.0956983
-0.100679
-0.101721
-0.10688
-0.108143
-0.113487
-0.114986
-0.120525
-0.122285
-0.128024
-0.130059
-0.136009
-0.138348
-0.144514
-0.147175
-0.153565
-0.156578
-0.163196
-0.166577
-0.173429
-0.177212
-0.184297
-0.188492
-0.195811
-0.200451
-0.207989
-0.21308
-0.220818
-0.22635
-0.234281
-0.240243
-0.248393
-0.254776
-0.263136
-0.269883
-0.278364
-0.285213
-0.293686
-0.299909
-0.308237
-0.312738
-0.320738
-0.322879
-0.330014
-0.329964
-0.336247
-0.332144
-0.339776
-0.333823
-0.34142
-0.33318
-0.340427
-0.333268
-0.339343
-0.333767
-0.33811
-0.333244
-0.337045
-0.329727
-0.336031
-0.336137
-0.328328
-0.337346
-0.332656
-0.330832
-0.330784
-0.00565316
-0.00524283
-0.00562961
-0.00533815
-0.00519047
-0.00449747
-0.0042833
-0.00380589
-0.00364733
-0.0033549
-0.00292956
-0.00273763
-0.00251362
-0.00227658
-0.00206123
-0.00186997
-0.00169781
-0.00154332
-0.00140725
-0.00128943
-0.00118851
-0.00110321
-0.00103277
-0.000976013
-0.000930817
-0.000890035
-0.000846292
-0.000783943
-0.000797119
-0.00078327
-0.000939119
-0.000701721
-0.000790742
-0.000963831
-0.00107301
-0.00111043
-0.00106914
-0.00127719
-0.00138774
-0.00144257
-0.0013833
-0.00156262
-0.00170326
-0.00179103
-0.00183799
-0.00224001
-0.00210997
-0.00230153
-0.00249131
-0.00286371
-0.00276908
-0.00313496
-0.00325337
-0.00328053
-0.00362903
-0.00392083
-0.00413192
-0.00428177
-0.00459327
-0.00478177
-0.00518315
-0.00549389
-0.00553775
-0.00608135
-0.00621438
-0.00636121
-0.00675411
-0.00693047
-0.00695977
-0.00704765
-0.00687547
-0.00714364
-0.00670832
-0.0196096
-0.0222566
-0.0234302
-0.0246526
-0.0260677
-0.02748
-0.0288074
-0.0300612
-0.0312613
-0.0324133
-0.0335152
-0.0345655
-0.0355642
-0.0365119
-0.0374091
-0.0382562
-0.0390536
-0.0398018
-0.0405015
-0.0411531
-0.0417575
-0.0423152
-0.0428271
-0.0432941
-0.0437169
-0.0440965
-0.0444338
-0.04473
-0.0449857
-0.0452025
-0.0453806
-0.0455227
-0.0456261
-0.0456994
-0.0457267
-0.0457429
-0.0456777
-0.0456825
-0.0455195
-0.0456838
-0.0454553
-0.0451201
-0.044927
-0.044764
-0.0445505
-0.0442967
-0.0440236
-0.0437358
-0.0434314
-0.0431101
-0.042773
-0.0424213
-0.042056
-0.0416778
-0.0412875
-0.0408856
-0.0404729
-0.0400499
-0.0396172
-0.0391752
-0.0387245
-0.0382653
-0.037798
-0.037323
-0.0368405
-0.0363507
-0.0358539
-0.03535
-0.0348394
-0.0343219
-0.0337977
-0.0332668
-0.0327291
-0.0321846
-0.0316333
-0.0310751
-0.03051
-0.0299379
-0.0293588
-0.0287728
-0.0281797
-0.0275797
-0.0269729
-0.0263595
-0.0257396
-0.0251135
-0.0244817
-0.0238445
-0.0232023
-0.0225559
-0.0219058
-0.021253
-0.0205979
-0.0199409
-0.0192832
-0.0186259
-0.0179701
-0.0173169
-0.0166673
-0.0160224
-0.0153834
-0.0147515
-0.0141284
-0.0135153
-0.0129161
-0.0123279
-0.0117547
-0.0112008
-0.0106715
-0.0101701
-0.00972082
-0.0092104
-0.00891391
-0.00768836
-0.00801235
-0.00674087
-0.00582437
-0.00526735
-0.00501265
-0.00477069
-0.00442609
-0.00413104
-0.00378793
-0.00332963
-0.00312744
-0.00290766
-0.00260771
-0.00238274
-0.00217541
-0.00197592
-0.00179244
-0.00162686
-0.00147873
-0.00134806
-0.00123444
-0.00113658
-0.0010532
-0.000983331
-0.000925891
-0.000879284
-0.000840937
-0.000809598
-0.000787608
-0.000776586
-0.000755608
-0.000829437
-0.00085412
-0.000869239
-0.000968215
-0.0010436
-0.00110983
-0.00114435
-0.00123225
-0.00139294
-0.00147358
-0.00140184
-0.00145657
-0.00165567
-0.00184128
-0.00192499
-0.00209462
-0.0021894
-0.00231024
-0.00249537
-0.00272749
-0.00285076
-0.00299746
-0.00317638
-0.0033293
-0.00355223
-0.00382637
-0.00403179
-0.00429633
-0.00434006
-0.00476139
-0.0050291
-0.00525675
-0.00544282
-0.0057268
-0.00594576
-0.00611954
-0.00634359
-0.00652901
-0.00654166
-0.00654061
-0.0064779
-0.00657153
-0.0200817
-0.0219358
-0.0234431
-0.0248308
-0.0262612
-0.0276837
-0.0290387
-0.0303215
-0.0315453
-0.0327162
-0.033834
-0.0348976
-0.035907
-0.0368628
-0.0377657
-0.0386162
-0.0394148
-0.0401622
-0.040859
-0.041506
-0.0421038
-0.0426534
-0.0431556
-0.0436113
-0.0440214
-0.0443872
-0.0447094
-0.0449894
-0.045228
-0.0454268
-0.0455861
-0.0457086
-0.0457928
-0.0458448
-0.0458562
-0.0458474
-0.045789
-0.0457448
-0.0456278
-0.0455385
-0.0454046
-0.0451578
-0.0449206
-0.0447044
-0.0444668
-0.0441977
-0.0439068
-0.0436
-0.0432774
-0.0429389
-0.0425852
-0.0422175
-0.0418368
-0.0414439
-0.0410394
-0.0406242
-0.0401989
-0.039764
-0.0393202
-0.0388678
-0.0384074
-0.0379393
-0.0374639
-0.0369815
-0.0364924
-0.0359967
-0.0354947
-0.0349864
-0.0344719
-0.0339514
-0.0334248
-0.0328921
-0.0323533
-0.0318084
-0.0312573
-0.0306999
-0.0301362
-0.0295662
-0.0289896
-0.0284067
-0.0278173
-0.0272216
-0.0266195
-0.0260113
-0.0253972
-0.0247773
-0.0241521
-0.0235218
-0.0228871
-0.0222483
-0.0216062
-0.0209613
-0.0203144
-0.0196662
-0.0190175
-0.0183692
-0.0177225
-0.0170784
-0.0164379
-0.0158022
-0.0151723
-0.0145497
-0.0139354
-0.0133307
-0.0127375
-0.0121568
-0.0115909
-0.0110419
-0.0105126
-0.0100021
-0.00951291
-0.00902557
-0.00851117
-0.00797302
-0.00748357
-0.00673526
-0.00580011
-0.00523916
-0.00488705
-0.0046171
-0.00430281
-0.00396912
-0.00365746
-0.00329671
-0.00305649
-0.00284448
-0.00254985
-0.00230556
-0.00210017
-0.00190924
-0.00173126
-0.00156929
-0.00142444
-0.00129688
-0.00118581
-0.00108981
-0.00100746
-0.000937732
-0.00087981
-0.00083255
-0.000796223
-0.000768818
-0.000753555
-0.000735468
-0.00074983
-0.000781266
-0.000877812
-0.00093036
-0.000968876
-0.00103274
-0.00110186
-0.00117781
-0.00122658
-0.0013652
-0.00143375
-0.00140552
-0.00139783
-0.00162498
-0.00183572
-0.00193815
-0.00205013
-0.0021758
-0.00230118
-0.00244972
-0.00263101
-0.00278341
-0.0029533
-0.00311446
-0.00327171
-0.00347626
-0.00370027
-0.00389211
-0.0041296
-0.00423874
-0.00468666
-0.00482012
-0.00499945
-0.00520752
-0.0054272
-0.00562577
-0.00579309
-0.00593245
-0.00604586
-0.00605222
-0.00604797
-0.00600541
-0.00584744
-0.00512675
-0.00428138
-0.00333728
-0.00257701
-0.001851
-0.00206126
-0.0202209
-0.021884
-0.0235207
-0.0250407
-0.026506
-0.027937
-0.0293133
-0.0306242
-0.0318733
-0.033065
-0.0342005
-0.0352794
-0.0363017
-0.0372679
-0.0381786
-0.0390346
-0.0398364
-0.0405847
-0.0412802
-0.0419238
-0.0425162
-0.0430584
-0.0435514
-0.0439963
-0.0443939
-0.0447456
-0.0450525
-0.0453157
-0.0455364
-0.0457162
-0.0458559
-0.0459575
-0.0460209
-0.0460506
-0.0460429
-0.0460091
-0.0459366
-0.0458508
-0.0457172
-0.0455798
-0.0454197
-0.0451897
-0.0449324
-0.0446765
-0.0444091
-0.0441184
-0.043806
-0.0434766
-0.0431318
-0.0427721
-0.0423979
-0.0420105
-0.0416107
-0.0411993
-0.0407773
-0.0403452
-0.0399039
-0.0394537
-0.0389955
-0.0385295
-0.0380564
-0.0375764
-0.0370901
-0.0365975
-0.0360991
-0.035595
-0.0350853
-0.0345703
-0.0340499
-0.0335243
-0.0329935
-0.0324573
-0.0319158
-0.031369
-0.0308168
-0.030259
-0.0296957
-0.0291267
-0.0285521
-0.0279716
-0.0273855
-0.0267936
-0.0261961
-0.0255931
-0.0249847
-0.0243712
-0.0237528
-0.02313
-0.0225031
-0.0218727
-0.0212393
-0.0206036
-0.0199661
-0.0193277
-0.018689
-0.0180511
-0.0174148
-0.0167812
-0.0161513
-0.0155262
-0.0149068
-0.0142944
-0.0136901
-0.0130953
-0.0125113
-0.0119393
-0.0113804
-0.0108357
-0.010306
-0.00978905
-0.00928556
-0.00877811
-0.00828141
-0.00770694
-0.00715597
-0.00652017
-0.00580539
-0.00524958
-0.00487111
-0.00455319
-0.00422199
-0.00388811
-0.00356964
-0.00326299
-0.0029896
-0.00273907
-0.00248456
-0.00224928
-0.00204195
-0.00185308
-0.00167857
-0.00151951
-0.00137711
-0.0012516
-0.00114214
-0.00104741
-0.000966249
-0.000897701
-0.000841205
-0.000795973
-0.000762882
-0.000740536
-0.000732314
-0.000724977
-0.000741801
-0.00077509
-0.00086488
-0.000913907
-0.000952548
-0.00100983
-0.00107482
-0.00114837
-0.00120682
-0.00132454
-0.00138367
-0.00139271
-0.00142137
-0.00162192
-0.00178631
-0.00189347
-0.00200071
-0.00212211
-0.00225207