/*--------------------------------*- C++ -*----------------------------------*\
  =========                 |
  \\      /  F ield         | OpenFOAM: The Open Source CFD Toolbox
   \\    /   O peration     | Website:  https://openfoam.org
    \\  /    A nd           | Version:  10
     \\/     M anipulation  |
\*---------------------------------------------------------------------------*/
FoamFile
{
    format      ascii;
    class       volScalarField;
    location    "18";
    object      p;
}
// * * * * * * * * * * * * * * * * * * * * * * * * * * * * * * * * * * * * * //

dimensions      [0 2 -2 0 0 0 0];

internalField   nonuniform List<scalar> 
28942
(
-2.92257
-2.97836
-2.77202
0.936809
0.985831
-0.0338454
-0.0348895
-0.0363644
-0.333237
-0.264971
-6.31224
-6.15481
-5.95958
-5.95271
-0.0269328
-0.0164107
2.59356
2.70696
0.144331
0.881202
2.07707
2.07212
-6.17775
-6.15895
-6.26122
-5.69607
4.0743
4.32639
-1.04886
-0.958158
-0.141487
-0.138129
0.0311807
-0.0343872
0.372036
0.624471
2.74897
3.38113
-0.0625405
2.15235
1.69494
1.65446
0.496403
0.518525
0.537624
-0.0226758
-0.0227933
-0.00666884
-0.010089
-0.0172618
-0.00802688
0.207697
0.193761
-0.340876
-0.261779
-4.2889
-3.52352
-5.90704
-5.88309
-5.88606
-5.93499
-5.90086
-5.87783
-2.30162
-2.85947
-1.80846
-1.38434
2.05396
1.86422
-2.85886
-2.9203
-3.04075
1.89142
1.8532
1.86737
-1.30885
-1.29334
-0.827263
-2.59242
-3.22244
-2.32922
-3.3779
-2.98967
-3.09927
-0.0111855
0.439237
0.833061
0.555227
0.194284
0.163213
0.379389
0.6838
-5.67127
-6.21964
-5.71557
-5.30572
-5.06598
0.345536
0.492272
-3.19485
1.02963
1.045
1.10135
1.03423
-0.407746
-0.418627
-0.483639
1.24445
1.28228
1.29045
-5.88299
-5.84632
-3.11126
-2.93619
-2.94876
5.04217
4.63266
4.39221
4.76561
0.223709
1.02761
0.696579
-0.47688
-0.647234
5.40194
5.50785
5.16975
-0.453818
-0.160906
-0.000810712
0.00812346
-0.00283239
2.12956
2.83884
1.37429
1.3392
1.54338
0.457104
1.42138
2.14602
-5.15418
-5.34904
-0.0363404
0.542653
0.562283
-2.90588
-2.94266
-2.57923
-5.48755
1.11049
1.08216
-0.0242091
-0.0965254
-0.108268
-0.103249
-0.0998425
1.6138
0.473263
-3.64876
-3.50155
-3.45189
-2.69819
-2.47925
-0.0692066
-5.25074
-5.06085
2.20421
2.28075
2.51714
2.41805
2.06899
0.563576
0.54571
-0.0616688
-0.0905493
1.1233
1.06029
1.16402
1.21746
1.20969
1.26098
1.32684
1.51197
1.4113
1.31007
1.42236
1.6246
1.93093
2.0264
-3.49469
-3.2092
-3.08467
-0.0168665
0.00195854
-3.65996
-3.5501
-0.0108206
-0.00406001
-0.00120006
-0.011116
-3.16466
-3.40994
-3.24465
-5.77533
-5.75374
-5.66043
-6.02628
-6.036
-5.98102
-6.27836
-6.50603
-6.32559
4.94941
4.69765
5.01331
-0.338957
-0.268044
-0.337178
2.41105
2.31687
2.37746
-2.04906
-2.2212
-1.89387
-2.40548
-2.58537
-2.74323
-2.55081
-2.86973
-2.66067
-2.41227
-2.24977
-2.08297
-1.92615
-1.78789
-2.94491
-2.73084
-1.75857
-1.66651
-1.6472
-2.96161
-2.74825
-1.57113
-2.91794
-2.82685
-2.71309
-2.63461
-1.56983
-1.50672
-2.69362
-2.51697
-1.52052
-1.47004
-2.5298
-2.36977
-1.50008
-1.4605
-2.34665
-2.20361
-1.50855
-1.47957
-2.15722
-2.03093
-1.54775
-1.52836
-1.97159
-1.86144
-1.61985
-1.60944
-1.79922
-1.70433
-1.72723
-1.7253
-1.64554
-1.56414
-1.8762
-1.88241
-1.51482
-1.44491
-2.06736
-2.0828
-1.40766
-1.34686
-2.31116
-2.33628
-1.32338
-1.2729
-2.60327
-2.63846
-1.26064
-1.22266
-2.22367
-2.49712
-2.93839
-2.98238
-1.8188
-2.00043
-1.58894
-1.68551
-1.50322
-1.52975
-1.53972
-1.50688
-1.69894
-1.6033
-1.96606
-1.81886
-2.32121
-2.13744
-2.70441
-2.51517
-3.00188
-2.87101
-3.09145
-3.07808
-2.95087
-3.04871
-2.63342
-2.8083
-2.2378
-2.43899
-1.85756
-2.04102
-1.55372
-1.69392
-1.34511
-1.43806
-1.27683
-1.22366
-1.19525
-1.27134
-1.16642
-1.20726
-1.46493
-1.35758
-1.73167
-1.59034
-2.03913
-1.88398
-2.31792
-2.18736
-2.48751
-2.42047
-2.49383
-2.51344
-2.32432
-2.42649
-2.05592
-2.19777
-1.77496
-1.91125
-1.54787
-1.65128
-1.4175
-1.47082
-1.39048
-1.39077
-1.47399
-1.41787
-1.6848
-1.56175
-2.05618
-1.84766
-2.6137
-2.31146
-2.95882
-2.80754
-1.23257
-1.14762
-3.35591
-3.32952
-3.13737
-3.29624
-2.07943
-2.59857
-2.32131
-1.722
-1.87989
-1.53038
-1.60743
-1.47407
-1.48711
-1.53396
-1.4896
-1.71182
-1.60812
-1.99948
-1.84183
-2.37492
-2.17755
-2.77099
-2.57993
-3.07
-2.94005
-3.1596
-3.14517
-3.01151
-3.11344
-2.68095
-2.86298
-2.27088
-2.47919
-1.87747
-2.06737
-1.56208
-1.70785
-1.34419
-1.44109
-1.21179
-1.2133
-1.22242
-1.27179
-1.09164
-1.07964
-1.14909
-1.19102
-1.17665
-1.12383
-1.34135
-1.24897
-1.57488
-1.45096
-1.84442
-1.70845
-2.08749
-1.97395
-2.23235
-2.17586
-2.23076
-2.25153
-2.07978
-2.17081
-1.84128
-1.96636
-1.60194
-1.71833
-1.41189
-1.49687
-1.30843
-1.34896
-1.29942
-1.29156
-1.39473
-1.33323
-1.61336
-1.48682
-1.9883
-1.7791
-2.54136
-2.24266
-3.23546
-2.87783
-2.89767
-3.70047
-3.59868
-3.72468
-1.19652
-1.08609
-3.46596
-3.19571
-4.04848
-3.94264
-3.65505
-1.19313
-1.16191
-1.1726
-1.11245
-2.86484
-3.47277
-3.2646
-3.11086
-2.33767
-2.59825
-1.89557
-2.09943
-1.60004
-1.72842
-1.44966
-1.50779
-1.41995
-1.42127
-1.49797
-1.44531
-1.68786
-1.57875
-1.98788
-1.82456
-2.37752
-2.17408
-2.77919
-2.58411
-3.07799
-2.94929
-3.16549
-3.152
-3.01208
-3.11711
-2.67474
-2.86004
-2.25953
-2.47018
-1.8621
-2.05396
-1.54247
-1.69044
-1.32079
-1.41918
-1.24571
-1.22537
-1.1948
-1.21953
-1.21011
-0.998692
-1.00249
-0.992222
-1.06439
-1.02317
-1.20072
-1.12378
-1.39903
-1.29346
-1.62943
-1.51319
-1.83679
-1.74007
-1.95841
-1.91162
-1.95192
-1.97243
-1.82002
-1.89907
-1.6171
-1.72272
-1.4148
-1.51242
-1.26061
-1.32926
-1.18136
-1.21087
-1.1883
-1.17347
-1.29207
-1.22721
-1.51298
-1.38601
-1.88385
-1.67774
-2.42266
-2.13294
-3.08707
-2.74574
-3.76346
-3.43369
-4.23932
-4.04744
-3.77607
-4.06558
-1.15291
-1.02995
-3.71632
-4.34443
-3.54559
-4.26098
-4.45821
-2.94598
-2.93878
-3.97926
-2.83941
-2.90877
-2.50588
-2.71007
-2.05488
-2.27556
-1.69148
-1.85716
-1.45953
-1.56015
-1.34726
-1.38938
-1.33831
-1.33066
-1.42916
-1.3709
-1.62771
-1.5145
-1.9364
-1.769
-2.32998
-2.12598
-2.73041
-2.53585
-3.0242
-2.89824
-3.10795
-3.09608
-2.95324
-3.05841
-2.6183
-2.80208
-2.20726
-2.41569
-1.81405
-2.00393
-1.49643
-1.64375
-1.27494
-1.37353
-1.14451
-1.19928
-1.09579
-1.1097
-1.21907
-1.10261
-1.16809
-1.26435
-1.25192
-1.21871
-1.25418
-1.07603
-1.15786
-0.902395
-0.97693
-0.931613
-0.890744
-0.88889
-0.940573
-0.90885
-1.04994
-0.98754
-1.21363
-1.1262
-1.4052
-1.30851
-1.57742
-1.49722
-1.67673
-1.63904
-1.66737
-1.6864
-1.55519
-1.62184
-1.38718
-1.47421
-1.22163
-1.30107
-1.09951
-1.15349
-1.0423
-1.06195
-1.0622
-1.04202
-1.17043
-1.10438
-1.38762
-1.2636
-1.74525
-1.54706
-2.25935
-1.98373
-2.88533
-2.56425
-3.5113
-3.20761
-3.98017
-3.77881
-4.3787
-4.09019
-4.04567
-4.34839
-3.91063
-4.55884
-1.02298
-1.02392
-1.14349
-1.04554
-3.66345
-4.57535
-3.04421
-2.54344
-4.38054
-4.09745
-2.6058
-4.25336
-2.442
-2.50577
-2.14971
-2.31981
-1.77469
-1.95846
-1.48679
-1.61645
-1.30735
-1.38458
-1.22444
-1.25433
-1.23189
-1.21701
-1.33342
-1.27035
-1.53905
-1.42272
-1.85031
-1.68242
-2.2381
-2.03811
-2.62882
-2.43949
-2.91227
-2.79099
-2.99113
-2.98092
-2.8394
-2.9421
-2.51362
-2.69221
-2.11544
-2.31718
-1.73484
-1.91873
-1.42584
-1.56946
-1.20881
-1.30567
-1.0788
-1.134
-1.04185
-1.26991
-1.13319
-1.21004
-1.32947
-1.3105
-1.28614
-1.32173
-1.22549
-0.793062
-0.87114
-0.823277
-0.77516
-0.776898
-0.809342
-0.785884
-0.8949
-0.845737
-1.02603
-0.955732
-1.18068
-1.10258
-1.31942
-1.25495
-1.3978
-1.36853
-1.3873
-1.40411
-1.29473
-1.3493
-1.15954
-1.22929
-1.02858
-1.09107
-0.93458
-0.97563
-0.896183
-0.907558
-0.925813
-0.901893
-1.03483
-0.969484
-1.24324
-1.12492
-1.57963
-1.39383
-2.05767
-1.8019
-2.63488
-2.33952
-3.20155
-2.92806
-3.62844
-3.44045
-3.74366
-3.73646
-3.99206
-3.6529
-4.23825
-4.55798
-1.04515
-0.933598
-4.0083
-3.31121
-3.64975
-4.675
-4.57951
-2.68378
-2.69003
-3.18335
-4.27459
-3.79902
-3.46911
-4.45307
-2.15866
-2.22824
-2.22045
-2.0488
-2.11177
-1.80978
-1.9494
-1.50947
-1.65484
-1.28467
-1.38565
-1.14563
-1.2051
-1.08636
-1.10606
-1.10859
-1.08704
-1.21954
-1.15241
-1.42798
-1.31121
-1.7333
-1.56946
-2.10715
-1.91494
-2.47991
-2.29975
-2.74823
-2.63362
-2.82187
-2.81286
-2.67629
-2.77449
-2.36691
-2.53626
-1.99018
-2.181
-1.62943
-1.80393
-1.33466
-1.47197
-1.12537
-1.21917
-0.998483
-1.05245
-0.939592
-0.961294
-0.94866
-0.934482
-1.19143
-0.983117
-1.09086
-1.34723
-1.27805
-1.41813
-1.3958
-1.37618
-1.41146
-1.2332
-1.31506
-1.01661
-1.13271
-0.756934
-0.891901
-0.816103
-0.680786
-0.712517
-0.655906
-0.662691
-0.675972
-0.660309
-0.739945
-0.702632
-0.841598
-0.786842
-0.962613
-0.901436
-1.07092
-1.02069
-1.13075
-1.10878
-1.12034
-1.13459
-1.04621
-1.0896
-0.940702
-0.994904
-0.840262
-0.887954
-0.770419
-0.800386
-0.747649
-0.752328
-0.784063
-0.757863
-0.89063
-0.827713
-1.08583
-0.975628
-1.39486
-1.22479
-1.82738
-1.59673
-2.34452
-2.08018
-2.8501
-2.60659
-3.21914
-3.05937
-3.31939
-3.30901
-3.09658
-3.24757
-3.21695
-2.86962
-4.32586
-2.19051
-4.00811
-0.845656
-0.869216
-1.11959
-0.988455
-4.67297
-4.6841
-3.58274
-4.47605
-4.06945
-3.52651
-2.91575
-2.59826
-4.55779
-1.79233
-2.13198
-1.67144
-1.74801
-1.76616
-1.79916
-1.66942
-1.72341
-1.48524
-1.59197
-1.25619
-1.36701
-1.08343
-1.16123
-0.977859
-1.02241
-0.940053
-0.950215
-0.975857
-0.948355
-1.0927
-1.0237
-1.29747
-1.18378
-1.58984
-1.43352
-1.94327
-1.7621
-2.292
-2.12372
-2.54108
-2.43512
-2.60909
-2.60078
-2.47304
-2.56474
-2.18598
-2.34293
-1.83714
-2.01384
-1.50224
-1.66446
-1.22643
-1.35527
-1.02818
-1.1174
-0.9059
-0.958209
-0.847063
-0.869709
-0.838773
-1.27625
-1.03786
-1.16303
-1.45176
-1.37314
-1.52905
-1.50505
-1.48846
-1.52292
-1.34583
-1.42817
-1.2418
-0.640593
-0.765346
-0.695366
-0.568017
-0.599296
-0.536604
-0.547368
-0.544167
-0.535541
-0.58886
-0.562051
-0.664621
-0.623502
-0.756211
-0.70981
-0.83809
-0.800182
-0.882399
-0.866384
-0.872749
-0.88448
-0.815429
-0.848705
-0.73585
-0.776574
-0.661317
-0.696543
-0.611465
-0.63233
-0.601012
-0.600538
-0.641296
-0.614252
-0.742588
-0.683514
-0.921618
-0.821049
-1.19981
-1.04727
-1.5826
-1.37937
-2.03143
-1.80301
-2.46916
-2.25755
-2.78315
-2.65021
-2.85816
-2.85406
-2.67532
-2.79907
-2.25686
-2.49006
-3.00744
-2.57787
-2.30339
-2.00152
-4.32413
-0.9112
-0.852174
-1.58289
-4.68117
-2.01867
-3.93275
-4.58286
-3.44984
-4.27336
-3.7934
-3.20958
-2.5965
-2.01269
-1.73914
-4.55952
-1.28923
-1.48878
-1.16288
-1.22434
-1.40341
-1.35902
-1.39424
-1.41234
-1.31699
-1.36205
-1.18073
-1.258
-1.01409
-1.09534
-0.885529
-0.943487
-0.80981
-0.840843
-0.791771
-0.793198
-0.838233
-0.806542
-0.955947
-0.88777
-1.15196
-1.04378
-1.42686
-1.28037
-1.75471
-1.58715
-2.075
-1.92085
-2.30194
-2.20558
-2.36341
-2.35606
-2.23977
-2.32307
-1.97975
-2.12181
-1.66408
-1.82405
-1.35951
-1.50736
-1.10602
-1.22483
-0.921136
-1.00472
-0.804681
-0.854863
-0.747224
-0.769346
-0.738164
-0.736652
-0.786031
-0.753839
-1.11747
-0.835845
-0.975896
-1.38385
-1.25667
-1.57816
-1.49283
-1.66141
-1.63516
-1.62449
-1.6573
-1.48066
-1.56521
-1.24434
-1.37272
-0.95419
-1.10251
-0.637712
-0.804315
-0.714454
-0.526103
-0.575629
-0.454937
-0.485867
-0.419489
-0.433227
-0.416767
-0.414143
-0.444948
-0.427172
-0.498656
-0.469148
-0.565404
-0.531468
-0.625226
-0.597562
-0.656963
-0.645682
-0.648627
-0.657861
-0.606004
-0.630572
-0.548053
-0.577598
-0.494562
-0.519726
-0.460622
-0.474304
-0.459355
-0.455179
-0.501162
-0.474381
-0.595113
-0.540906
-0.755854
-0.665989
-1.0012
-0.867146
-1.33356
-1.15779
-1.71516
-1.52222
-2.07844
-1.90346
-2.34076
-2.22911
-2.39917
-2.39948
-2.23601
-2.34226
-1.90164
-2.08823
-1.46822
-1.68898
-2.7865
-2.41746
-1.49495
-1.25578
-4.23428
-4.58136
-1.09133
-1.3805
-1.88337
-3.78295
-4.37957
-0.662516
-0.698146
-1.07035
-0.907827
-3.21453
-3.98716
-3.46141
-2.86803
-2.27772
-1.73989
-1.01505
-0.750466
-0.691988
-1.28264
-1.06899
-0.933698
-4.46079
-0.864089
-0.804188
-0.969603
-0.920694
-1.06011
-1.02104
-1.0613
-1.07128
-1.00421
-1.03787
-0.905854
-0.960327
-0.788626
-0.846169
-0.697152
-0.73818
-0.647442
-0.666681
-0.645801
-0.640246
-0.69871
-0.665033
-0.813319
-0.747806
-0.997694
-0.89642
-1.25167
-1.11686
-1.55029
-1.39808
-1.83887
-1.70038
-2.04212
-1.95584
-2.09673
-2.09034
-1.98767
-2.06117
-1.75799
-1.8835
-1.47852
-1.6203
-1.20678
-1.33905
-0.977716
-1.08549
-0.807899
-0.88507
-0.698398
-0.745994
-0.642013
-0.664156
-0.629276
-0.630939
-0.6394
-1.22001
-0.901965
-1.06163
-1.51265
-1.37226
-1.72219
-1.63062
-1.81498
-1.78418
-1.78374
-1.81473
-1.63594
-1.7235
-1.38389
-1.52096
-1.23122
-0.513518
-0.658188
-0.579661
-0.413248
-0.45951
-0.345111
-0.375244
-0.306986
-0.322676
-0.296209
-0.298376
-0.310846
-0.300551
-0.346353
-0.326451
-0.392761
-0.369032
-0.43476
-0.415346
-0.456626
-0.448985
-0.450009
-0.456877
-0.41963
-0.437028
-0.379049
-0.399678
-0.342027
-0.359356
-0.320298
-0.328511
-0.325584
-0.318906
-0.367025
-0.341372
-0.452335
-0.403583
-0.593879
-0.515135
-0.80593
-0.690508
-1.08833
-0.939608
-1.40666
-1.24652
-1.70086
-1.5607
-1.90802
-1.81952
-1.95546
-1.9559
-1.81231
-1.90507
-1.53866
-1.68798
-1.1931
-1.36973
-0.86356
-1.02404
-1.27483
-0.905109
-1.09618
-0.767509
-0.60028
-0.721112
-2.53948
-2.2079
-4.06032
-4.37948
-0.749286
-0.74882
-1.72182
-3.55772
-4.09025
-2.9343
-3.64195
-3.09872
-2.52715
-1.9805
-1.4973
-0.642807
-0.457982
-0.436809
-0.445154
-0.356814
-0.501969
-0.610968
-0.857471
-1.17256
-0.943585
-0.653844
-4.2656
-0.534775
-0.492187
-0.625399
-0.581088
-0.707444
-0.670774
-0.767651
-0.740669
-0.774157
-0.77885
-0.734175
-0.758203
-0.66583
-0.703124
-0.585964
-0.625295
-0.524196
-0.55153
-0.495291
-0.505213
-0.505407
-0.49514
-0.56092
-0.52702
-0.670048
-0.608229
-0.840656
-0.747423
-1.07098
-0.949211
-1.33811
-1.20236
-1.59366
-1.47128
-1.77261
-1.69663
-1.82131
-1.81525
-1.72794
-1.79103
-1.52995
-1.63823
-1.28784
-1.41089
-1.04987
-1.16613
-0.84606
-0.942399
-0.692144
-0.762479
-0.590396
-0.63504
-0.535438
-0.557537
-0.520355
-0.523357
-0.541426
-0.525859
-0.605738
-0.567054
-0.984853
-0.657591
-0.815232
-1.33634
-1.1612
-1.65489
-1.50421
-1.88098
-1.78144
-1.98838
-1.95075
-1.96264
-1.99272
-1.80541
-1.89903
-1.53584
-1.68282
-1.19833
-1.37178
-0.84712
-1.02241
-0.521032
-0.682068
-0.59783
-0.396589
-0.453264
-0.304883
-0.347051
-0.24048
-0.269275
-0.201052
-0.217827
-0.184297
-0.190017
-0.18828
-0.1839
-0.20925
-0.197035
-0.239479
-0.223862
-0.267498
-0.254528
-0.281907
-0.276949
-0.27704
-0.281858
-0.256438
-0.268172
-0.229224
-0.243049
-0.204561
-0.216032
-0.191824
-0.196047
-0.2014
-0.193252
-0.240905
-0.217083
-0.316757
-0.273758
-0.439381
-0.371456
-0.619906
-0.522014
-0.856027
-0.73229
-1.1156
-0.985947
-1.34876
-1.23856
-1.50682
-1.44014
-1.54012
-1.54195
-1.42237
-1.49906
-1.19424
-1.31744
-0.922725
-1.06039
-0.660084
-0.787791
-0.546546
-2.27924
-2.01573
-0.416263
-0.280057
-3.81265
-4.09118
-1.56293
-3.27199
-3.73888
-0.470995
-0.509265
-0.952831
-0.769816
-2.64014
-3.26564
-2.73538
-2.2054
-1.7181
-1.29755
-0.429056
-0.284983
-0.293482
-0.42959
-0.59228
-0.793366
-1.07209
-0.822231
-0.565641
-0.214588
-0.347109
-3.9914
-0.289047
-0.27899
-0.346449
-0.31458
-0.417349
-0.383062
-0.480748
-0.451141
-0.522822
-0.504533
-0.530627
-0.532065
-0.50474
-0.520704
-0.459734
-0.484092
-0.407999
-0.433455
-0.369348
-0.386015
-0.356054
-0.359142
-0.373808
-0.360719
-0.42929
-0.396307
-0.531172
-0.473918
-0.685991
-0.601834
-0.891047
-0.783003
-1.126
-1.00696
-1.34876
-1.24228
-1.50423
-1.43814
-1.54797
-1.54173
-1.47051
-1.52319
-1.30403
-1.39521
-1.09869
-1.20336
-0.893707
-0.994319
-0.714781
-0.799789
-0.576958
-0.640301
-0.48349
-0.524876
-0.43041
-0.452294
-0.412586
-0.41745
-0.425313
-0.415612
-0.443285
-1.07883
-0.717728
-0.893629
-1.46188
-1.27028
-1.8031
-1.64183
-2.05144
-1.94065
-2.17649
-2.13136
-2.15359
-2.18441
-1.98346
-2.08499
-1.69606
-1.85261
-1.33391
-1.52008
-1.14265
-0.393268
-0.528904
-0.45741
-0.286146
-0.336602
-0.202795
-0.24141
-0.142496
-0.169805
-0.102895
-0.120196
-0.081997
-0.0902316
-0.077989
-0.0780655
-0.0877893
-0.0814887
-0.10556
-0.0961816
-0.122947
-0.114855
-0.131935
-0.128867
-0.128619
-0.131788
-0.115504
-0.12295
-0.0981302
-0.106989
-0.0823654
-0.0896281
-0.0760146
-0.0774305
-0.0881322
-0.0792988
-0.12475
-0.103123
-0.191022
-0.153745
-0.295387
-0.237837
-0.446483
-0.364815
-0.641331
-0.539608
-0.850321
-0.746883
-1.03012
-0.946142
-1.14696
-1.09846
-1.16664
-1.17074
-1.07357
-1.13368
-0.888538
-0.989406
-0.671656
-0.780322
-0.466486
-0.566024
-0.295896
-0.376198
-0.15332
-0.22097
-0.156567
-0.0395776
-0.09253
-2.02151
-1.82098
-3.50641
-3.7425
-0.556101
-0.600865
-1.41242
-2.96465
-3.35564
-2.34469
-2.88717
-2.39294
-1.91844
-1.49384
-1.12977
-0.300902
-0.174884
-0.189448
0.067651
0.111929
0.00809794
-0.313988
-0.432496
-0.580621
-0.748149
-0.987265
-0.724338
-0.492257
-0.288053
-0.107725
-3.66062
-0.15754
-0.16492
-0.157711
-0.154
-0.196019
-0.173496
-0.245113
-0.220853
-0.289202
-0.268186
-0.318624
-0.306125
-0.326058
-0.325656
-0.310948
-0.3206
-0.283622
-0.298333
-0.252982
-0.267941
-0.232029
-0.240545
-0.23021
-0.228385
-0.252833
-0.238122
-0.306688
-0.275336
-0.399957
-0.347965
-0.537825
-0.463238
-0.717486
-0.623104
-0.921066
-0.818185
-1.1125
-1.02111
-1.24609
-1.18919
-1.28573
-1.27901
-1.22368
-1.26636
-1.08722
-1.16216
-0.916469
-1.00389
-0.742461
-0.828369
-0.587175
-0.661362
-0.465035
-0.521498
-0.380064
-0.418024
-0.329415
-0.350749
-0.308985
-0.315716
-0.315545
-0.309138
-0.347099
-0.328545
-0.410576
-0.373819
-0.785293
-0.450129
-0.608715
-1.1766
-0.975678
-1.58777
-1.38482
-1.95239
-1.77863
-2.22772
-2.10389
-2.36933
-2.31783
-2.3466
-2.37932
-2.16236
-2.27251
-1.8546
-2.02148
-1.46988
-1.66849
-1.05539
-1.26167
-0.673663
-0.858157
-0.387769
-0.505912
-0.446991
-0.275939
-0.329764
-0.183383
-0.227984
-0.108208
-0.143195
-0.0522311
-0.077884
-0.0133151
-0.0307164
0.0102299
0.000286149
0.0199647
0.0166673
0.0183981
0.0203332
0.00987431
0.0146295
0.000309779
0.00483029
-0.00484219
-0.00307586
-0.00285207
-0.00472842
0.00480701
0.000445685
0.0153293
0.00989461
0.0249828
0.020614
0.0270027
0.0274634
0.0137483
0.022635
-0.019259
-9.35066e-05
-0.076131
-0.0443513
-0.163658
-0.115597
-0.28836
-0.221172
-0.447121
-0.364496
-0.614064
-0.53208
-0.750782
-0.688092
-0.833419
-0.799981
-0.841945
-0.847966
-0.768403
-0.814848
-0.625698
-0.704287
-0.451601
-0.539079
-0.289745
-0.367773
-0.152419
-0.218167
-0.0325498
-0.0901796
0.0195142
-1.79719
-1.64648
0.0517076
0.153442
-3.17231
-3.36383
-1.27155
-2.65502
-2.97017
-0.277512
-0.306049
-0.744249
-0.565289
-2.06955
-2.52994
-2.08697
-1.67367
-1.30772
-0.992767
-0.211038
-0.1019
-0.127357
-0.238377
-0.332044
-0.44009
-0.574376
-0.720496
-0.923057
-0.64349
-0.430513
-0.236887
-0.0650258
0.19044
0.0882464
-3.30032
-0.0658349
-0.0810754
-0.0480686
-0.0559365
-0.0421899
-0.0430516
-0.0630977
-0.0491616
-0.0969733
-0.079896
-0.127937
-0.113158
-0.14892
-0.140069
-0.155734
-0.15431
-0.148424
-0.153428
-0.133924
-0.141685
-0.118596
-0.125886
-0.110703
-0.113206
-0.117163
-0.111839
-0.142886
-0.127275
-0.194253
-0.1649
-0.278385
-0.231872
-0.39947
-0.334248
-0.554838
-0.47348
-0.728926
-0.64115
-0.891453
-0.813926
-1.00514
-0.956537
-1.04145
-1.03409
-0.993753
-1.02717
-0.884735
-0.944871
-0.745307
-0.817137
-0.599298
-0.671883
-0.465735
-0.529912
-0.35843
-0.408319
-0.281862
-0.316362
-0.234081
-0.254605
-0.211784
-0.219942
-0.212739
-0.209502
-0.234005
-0.22148
-0.2527
-0.854089
-0.489875
-0.66524
-1.27374
-1.05745
-1.70568
-1.49233
-2.09761
-1.9092
-2.39929
-2.26353
-2.55436
-2.49793
-2.53055
-2.5655
-2.33224
-2.45111
-2.00175
-2.18031
-1.59444
-1.80431
-1.15458
-1.37449
-0.943171
-0.260922
-0.359515
-0.309376
-0.169366
-0.21392
-0.0884558
-0.127542
-0.0217034
-0.0531202
0.0297206
0.0058602
0.0672469
0.0501398
0.0922125
0.0812247
0.105858
0.100329
0.110139
0.108972
0.10823
0.109688
0.104215
0.106216
0.101747
0.10262
0.102594
0.101729
0.106555
0.104259
0.112631
0.10941
0.118272
0.115814
0.117472
0.119125
0.104083
0.112594
0.0749796
0.0916395
0.0268848
0.0535977
-0.0454779
-0.00591586
-0.14697
-0.0924439
-0.274925
-0.208468
-0.407576
-0.342839
-0.511128
-0.46465
-0.567475
-0.545703
-0.567806
-0.574759
-0.508311
-0.545061
-0.400768
-0.459623
-0.264827
-0.334318
-0.133721
-0.197036
-0.0207082
-0.0752909
0.0797085
0.0310138
0.167509
0.125315
0.244903
0.206979
0.221721
0.309161
0.279555
-1.61007
-1.4832
-2.83775
-2.9833
-0.335574
-0.404242
-1.15719
-2.35987
-2.6063
-1.82926
-2.21014
-1.82528
-1.47147
-1.15777
-0.883373
-0.155231
-0.0492587
-0.0783038
0.383931
0.406346
0.333104
-0.190177
-0.271192
-0.357227
-0.455938
-0.57316
-0.707714
-0.875906
-0.578099
-0.378051
-0.194958
-0.0291569
0.11791
0.24587
-2.93769
-0.00419941
-0.0245242
0.0298143
0.0154491
0.045661
0.038669
0.0541264
0.0512346
0.0468227
0.0529567
0.026469
0.0372296
0.00607996
0.0159229
-0.00880334
-0.00237175
-0.0150831
-0.0130794
-0.0133021
-0.0149596
-0.00793274
-0.0107773
-0.00338883
-0.00526716
-0.00477479
-0.00300081
-0.0170851
-0.00930464
-0.0446916
-0.0286675
-0.0931031
-0.0659153
-0.168192
-0.127021
-0.273435
-0.216999
-0.406267
-0.336953
-0.553424
-0.479381
-0.690046
-0.624901
-0.786259
-0.744882
-0.819549
-0.81167
-0.78484
-0.809914
-0.700065
-0.747177
-0.58793
-0.646205
-0.466391
-0.527287
-0.352264
-0.407413
-0.258673
-0.302429
-0.190227
-0.221329
-0.145593
-0.165123
-0.122136
-0.131371
-0.117999
-0.117749
-0.131292
-0.122719
-0.159545
-0.143399
-0.203131
-0.179888
-0.531893
-0.227024
-0.368307
-0.916857
-0.716077
-1.35762
-1.13271
-1.81005
-1.58504
-2.22999
-2.02759
-2.55321
-2.40794
-2.71875
-2.65859
-2.69321
-2.73046
-2.48146
-2.60857
-2.12861
-2.31893
-1.69871
-1.91928
-1.24222
-1.47085
-0.807388
-1.01805
-0.444412
-0.615732
-0.228134
-0.294907
-0.263959
-0.14924
-0.189079
-0.0723769
-0.110637
-0.00239307
-0.0363793
0.0563901
0.0283918
0.103182
0.0811993
0.138783
0.122304
0.164161
0.152694
0.180261
0.17329
0.188519
0.185236
0.19117
0.190364
0.190946
0.191241
0.190239
0.190541
0.190343
0.190145
0.191983
0.190933
0.195446
0.193539
0.198592
0.197344
0.19607
0.198402
0.18328
0.191109
0.158202
0.172388
0.118199
0.140296
0.0592389
0.0913481
-0.0223519
0.0213823
-0.124607
-0.0715321
-0.230054
-0.178758
-0.309067
-0.274424
-0.345984
-0.332976
-0.34115
-0.346897
-0.293345
-0.322784
-0.210667
-0.255266
-0.107339
-0.160782
-0.000574201
-0.05308
0.0954821
0.0489279
0.181096
0.139438
0.258466
0.220832
0.327598
0.29433
0.35769
-1.45564
-1.34059
0.351977
0.424071
-2.52574
-2.62482
-1.07484
-2.08902
-2.28035
-0.0865894
-0.101807
-0.476419
-0.320039
-1.63171
-1.93602
-1.60934
-1.30935
-1.03874
-0.796502
-0.11088
-0.00639024
-0.0366038
-0.149411
-0.230218
-0.309172
-0.391179
-0.481893
-0.582192
-0.705698
-0.846979
-0.525492
-0.33666
-0.161282
-0.00102977
0.141134
0.263831
0.436034
0.364133
-2.59875
0.0433337
0.020802
0.0795465
0.0618333
0.109992
0.0962221
0.127857
0.119833
0.139216
0.134509
0.140336
0.141437
0.130035
0.136075
0.117128
0.123516
0.106458
0.111294
0.100406
0.10284
0.0982523
0.0989938
0.0971179
0.0977538
0.0941174
0.0960214
0.086194
0.0909912
0.0697865
0.0792646
0.0412793
0.0572983
-0.00377327
0.0211274
-0.070197
-0.0340618
-0.160901
-0.112496
-0.273422
-0.214909
-0.396689
-0.334787
-0.510739
-0.456347
-0.591936
-0.556758
-0.622559
-0.614231
-0.599213
-0.617034
-0.535045
-0.571152
-0.445775
-0.492703
-0.344992
-0.395904
-0.247908
-0.295063
-0.166762
-0.204898
-0.105976
-0.133822
-0.0646634
-0.0830362
-0.0406764
-0.0506382
-0.0323821
-0.0346681
-0.0385597
-0.0338005
-0.0567259
-0.0464048
-0.0704381
-0.570541
-0.247512
-0.400309
-0.96915
-0.760267
-1.423
-1.19147
-1.8962
-1.65963
-2.33824
-2.12546
-2.67735
-2.52495
-2.85022
-2.7877
-2.82203
-2.8618
-2.59876
-2.73263
-2.22716
-2.42756
-1.77625
-2.00696
-1.30707
-1.54119
-0.857568
-1.0768
-0.655919
-0.114031
-0.166568
-0.14176
-0.0511788
-0.0840127
0.0140711
-0.0182425
0.0742969
0.0450664
0.125935
0.101209
0.168246
0.148205
0.201604
0.185996
0.22664
0.215129
0.244046
0.23625
0.254827
0.250182
0.260469
0.258179
0.262722
0.26191
0.263138
0.263081
0.262859
0.263014
0.263353
0.262906
0.265488
0.264266
0.267107
0.266638
0.263624
0.266264
0.251917
0.258882
0.230705
0.242594
0.197871
0.215911
0.150501
0.176186
0.0859289
0.120455
0.00523886
0.0471702
-0.0787822
-0.0377931
-0.140965
-0.114126
-0.165371
-0.158049
-0.15656
-0.161785
-0.118181
-0.141453
-0.0530435
-0.0880811
0.0260405
-0.0147034
0.111468
0.0684895
0.194332
0.153704
0.269728
0.23298
0.338322
0.304828
0.399694
0.370199
0.448909
0.426346
0.48268
0.467687
0.442373
0.500596
0.494056
-1.33822
-1.22928
-2.24428
-2.30525
-0.116531
-0.186911
-1.01769
-1.85402
-2.00189
-1.4802
-1.70979
-1.43628
-1.182
-0.946177
-0.727883
-0.0735828
0.0339293
0.00816164
-0.115258
-0.196214
-0.277198
-0.355008
-0.434884
-0.517931
-0.606689
-0.714934
-0.834791
-0.485383
-0.305019
-0.136277
0.0185911
0.156459
0.27409
0.369886
0.546989
0.502659
0.549516
-2.2983
0.0853175
0.0614165
0.124044
0.105617
0.153588
0.139463
0.179321
0.166951
0.197465
0.189338
0.210384
0.20446
0.217381
0.214924
0.215239
0.217319
0.208262
0.212016
0.200762
0.204392
0.194857
0.197599
0.190007
0.192401
0.184369
0.18741
0.176169
0.180685
0.163668
0.170591
0.144491
0.155074
0.115894
0.131566
0.0743327
0.0969879
0.0157721
0.0473886
-0.0620482
-0.0207429
-0.156842
-0.107717
-0.259552
-0.208062
-0.354346
-0.309119
-0.42284
-0.39289
-0.451299
-0.442549
-0.437432
-0.449243
-0.390015
-0.417221
-0.319182
-0.356939
-0.23559
-0.278142
-0.153234
-0.193406
-0.0832357
-0.116294
-0.029578
-0.0543539
0.00836005
-0.00876728
0.0323444
0.0219823
0.0437485
0.0395357
0.0433714
0.0449408
0.0332369
0.0391282
0.0147081
0.0246936
-0.00761805
0.00461244
-0.266898
-0.0180617
-0.131733
-0.599074
-0.423339
-1.00549
-0.793841
-1.46892
-1.23156
-1.9577
-1.71318
-2.41295
-2.19402
-2.76169
-2.6051
-2.93792
-2.87455
-2.90648
-2.94872
-2.67456
-2.81321
-2.2899
-2.49731
-1.82336
-2.06203
-1.34323
-1.58161
-0.889697
-1.11182
-0.499123
-0.683017
-0.198895
-0.338377
-0.0575372
-0.0803635
-0.0717791
-0.0166662
-0.0385807
0.0351861
0.00840067
0.0902298
0.0628741
0.141894
0.116755
0.187175
0.165403
0.225256
0.207106
0.256214
0.241602
0.280396
0.269131
0.29826
0.290088
0.310464
0.305022
0.317918
0.314722
0.321679
0.320191
0.322851
0.322534
0.322468
0.322727
0.322772
0.322458
0.324362
0.32346
0.325032
0.325058
0.321153
0.323832
0.310847
0.316842
0.29326
0.303045
0.266735
0.281238
0.229186
0.249468
0.178701
0.205627
0.115871
0.148553
0.0493474
0.0820482
-0.00143009
0.020633
-0.0213096
-0.0152361
-0.0104535
-0.0229778
0.0244369
0.00494276
0.0763749
0.0484372
0.139218
0.107
0.207246
0.172675
0.27757
0.242469
0.344746
0.311805
0.406046
0.376208
0.459825
0.434061
0.502748
0.482943
0.53183
0.519262
0.541392
-1.25121
-1.14938
0.44344
-1.99927
-2.03503
-0.981517
-1.66237
-1.77425
0.0866337
0.080259
-0.204152
-0.0832317
-1.36803
-1.52984
-1.30109
-1.08362
-0.87528
-0.675826
-0.0223136
0.0869229
0.066918
0.50241
0.548163
-0.0544216
-0.152084
-0.247043
-0.332046
-0.40825
-0.488332
-0.565337
-0.64614
-0.738623
-0.840255
-0.457627
-0.283856
-0.119955
0.0303259
0.163882
0.276957
0.367933
-2.04388
0.124608
0.105423
0.161473
0.143561
0.191817
0.176797
0.216805
0.205041
0.238757
0.227982
0.257143
0.248593
0.271224
0.264613
0.281384
0.276942
0.284901
0.284047
0.282598
0.284296
0.277517
0.280209
0.271838
0.274734
0.265288
0.268739
0.256702
0.261323
0.245053
0.25131
0.229456
0.237819
0.208523
0.219765
0.18029
0.195471
0.141905
0.162576
0.090143
0.117859
0.02341
0.0586201
-0.0563014
-0.0151444
-0.14173
-0.0989678
-0.220413
-0.182842
-0.278369
-0.252758
-0.305034
-0.295952
-0.298647
-0.305731
-0.264193
-0.284542
-0.207665
-0.238256
-0.138074
-0.173712
-0.0683626
-0.102473
-0.00826953
-0.0367807
0.0388557
0.0169265
0.0734606
0.0576257
0.0969798
0.0865118
0.110542
0.10494
0.114839
0.113775
0.110772
0.113723
0.100283
0.10581
0.093776
-0.282024
-0.025152
-0.145023
-0.616615
-0.438985
-1.02483
-0.812197
-1.4937
-1.25313
-1.98865
-1.74127
-2.4483
-2.22734
-2.79921
-2.64201
-2.97443
-2.91184
-2.93927
-2.98365
-2.70247
-2.84375
-2.31145
-2.52212
-1.83718
-2.08002
-1.34999
-1.59107
-0.900874
-1.11966
-0.50965
-0.692898
-0.344684
0.0358242
0.0193252
0.0257424
0.0674962
0.0493908
0.110588
0.0882792
0.156702
0.133622
0.200924
0.179269
0.240579
0.221403
0.274731
0.258351
0.303242
0.289678
0.326243
0.315416
0.343979
0.33575
0.356811
0.350983
0.365217
0.361535
0.369803
0.367941
0.371448
0.370929
0.371465
0.371514
0.372043
0.371613
0.3735
0.372751
0.373579
0.373897
0.369719
0.37224
0.360949
0.365968
0.346622
0.354547
0.325502
0.336993
0.296198
0.31196
0.257397
0.278036
0.209278
0.234342
0.157244
0.183075
0.115158
0.133862
0.0974249
0.102894
0.107507
0.0977571
0.138486
0.121377
0.181157
0.158483
0.232877
0.206197
0.28882
0.260482
0.347466
0.317896
0.406104
0.377059
0.460583
0.434083
0.507783
0.485251
0.545383
0.527915
0.571669
0.560081
0.584543
0.580188
0.582197
0.585477
0.561526
0.543034
0.573944
-1.19563
-1.09957
0.441233
-1.79336
-1.81649
0.0753802
0.0178496
-0.963728
0.499266
-1.51451
-1.59612
0.534454
-1.29162
-1.39162
-1.19845
-1.00997
-0.823073
-0.638252
0.0380894
-0.092639
-0.194639
-0.299569
-0.394108
-0.473354
-0.553284
-0.625237
-0.699891
-0.778285
-0.864163
-0.442035
-0.273123
-0.112973
0.0341005
0.163754
0.273271
0.36238
-1.8351
0.149135
0.00475302
0.112379
0.129079
0.174142
0.163078
0.198548
0.18512
0.226018
0.21239
0.249548
0.238175
0.270661
0.260411
0.289955
0.280466
0.307301
0.298983
0.321817
0.314882
0.33367
0.328129
0.340968
0.338046
0.342555
0.34244
0.339607
0.341506
0.334277
0.33718
0.326759
0.330836
0.316341
0.321952
0.302498
0.309866
0.28492
0.2942
0.262958
0.274553
0.235257
0.249941
0.199626
0.21859
0.153682
0.17806
0.0962944
0.126394
0.0291518
0.0636868
-0.0420077
-0.00645275
-0.107532
-0.0761645
-0.15681
-0.134806
-0.181926
-0.172636
-0.181019
-0.184644
-0.155958
-0.171343
-0.110156
-0.135277
-0.0519469
-0.0818556
0.00690247
-0.0219528
0.0582541
0.0337804
0.0994582
0.0801358
0.130843
0.116304
0.153536
0.143202
0.168466
0.161923
0.176182
0.173188
0.17711
0.177419
0.172607
0.175301
0.16563
0.169008
0.157306
0.161668
-0.0311004
0.153609
0.0703826
-0.289642
-0.151504
-0.622219
-0.44667
-1.02817
-0.816278
-1.49536
-1.25584
-1.98662
-1.7413
-2.44152
-2.22305
-2.78672
-2.63244