/*--------------------------------*- C++ -*----------------------------------*\
  =========                 |
  \\      /  F ield         | OpenFOAM: The Open Source CFD Toolbox
   \\    /   O peration     | Website:  https://openfoam.org
    \\  /    A nd           | Version:  10
     \\/     M anipulation  |
\*---------------------------------------------------------------------------*/
FoamFile
{
    format      ascii;
    class       surfaceScalarField;
    location    "18";
    object      phi;
}
// * * * * * * * * * * * * * * * * * * * * * * * * * * * * * * * * * * * * * //

dimensions      [0 3 -1 0 0 0 0];

internalField   nonuniform List<scalar> 
57492
(
-0.0265781
0.00286568
0.00586968
0.0178428
-7.74921e-05
-0.0221679
-0.00433269
-0.00345783
0.0114292
0.0328226
-0.0407939
0.0989206
0.0723582
-0.0163842
-0.154895
-0.2099
0.0849766
0.223844
0.052479
-0.0514674
-0.0268584
0.0258468
-0.0959249
0.0233676
-0.013921
0.0864783
0.0172854
-0.0607312
0.0239974
-0.100655
0.0955288
-0.0188708
0.0218408
0.0920083
-0.0898516
0.00615234
-0.00201768
0.00570854
-0.0098432
-0.00930919
-0.00526574
0.0207273
-0.00902519
0.00331862
-0.00360262
-0.000638065
-0.0104048
0.101069
-0.0856171
-0.0376825
0.0222304
0.00220293
0.0761007
0.0227655
-0.002497
0.0136555
0.0866053
-0.0977638
-0.0125204
0.0857279
-0.0757045
0.0156689
-0.0331045
0.0174356
-0.0909436
0.0608718
0.0457407
-0.116206
0.0141447
0.0851007
0.0169607
0.0201958
-0.117712
-0.0186898
0.0010632
0.00488049
-0.021774
0.0158304
0.0105083
-0.0107231
0.001278
-0.155966
0.166159
0.0145217
-0.024715
-0.183231
0.070213
-0.042948
-0.068471
0.0234365
0.0355528
0.00948161
-0.0466515
-0.024845
0.00302551
-0.027267
-0.0724261
0.0918533
0.00783982
-0.0342298
0.0123447
-0.00538187
0.0596621
-0.0378262
-0.0363683
0.0145324
-0.0476901
0.0395647
0.0677874
-0.0721479
-0.124791
0.072593
0.124346
-0.124947
-0.0402895
0.0930887
-0.0621133
-0.00945533
0.0715686
-0.0166693
-0.045444
-0.079464
0.0969837
-0.0341889
0.016342
-0.0527969
-0.0430092
-0.0499833
0.0733509
-0.029102
-0.113224
0.0549559
0.0582679
-0.204606
0.0913822
0.0851119
-0.00988073
0.00240746
-0.0776387
0.0605845
-0.00787467
0.0324021
-0.00801862
0.0861482
-0.0880103
0.0954042
0.0153595
-0.0934783
0.0933251
-0.0118419
0.104377
-0.0363057
-0.0765253
0.00845434
0.117955
0.00178075
0.0785159
-0.0435068
0.058316
0.0288796
0.136115
-0.100687
-0.0118177
0.0100889
0.102416
-0.103982
-0.00489845
0.00819346
0.0150593
0.0979292
-0.0967525
-0.0162359
0.00791132
-0.0935075
-0.105677
0.116583
0.121827
-0.132733
-0.0142721
0.123795
-0.2152
0.0016956
0.00469691
-0.000796955
-0.00559555
0.00166534
0.00334888
0.00069336
0.0069896
-0.00601763
0.00574997
-0.000359707
-0.00433969
0.00354273
0.000344998
-0.00468468
0.250668
0.0840219
-0.174484
-0.160206
0.0684612
-0.0492259
0.231433
-0.213659
0.0662832
0.215837
0.034336
-0.163973
0.0279755
-0.0796488
0.0639441
-0.0122708
0.0689299
-0.0806667
0.0397123
0.00380878
-0.00206423
0.00112114
0.00758695
0.00209151
0.0208216
0.00460808
-0.0879629
0.159679
0.0694287
-0.141145
0.0933184
-0.112351
0.0494689
0.149493
-0.0392823
0.369746
-0.0343063
-0.110582
-0.224857
0.096592
0.201906
0.0712482
0.0539837
-0.139816
0.182424
0.0072012
-0.010659
0.0186304
0.0582914
0.0858955
-0.0412188
-0.102968
0.0788624
0.0122516
0.0114026
-0.00426163
-0.007141
0.0185865
-0.00718384
-0.193065
0.0963677
-0.0749631
0.171661
-0.163672
-0.092596
0.0632027
-0.0919446
0.0901245
-0.161852
0.109366
-0.0024496
-0.0544258
-0.0524903
-0.0484135
0.123229
0.0345506
-0.0595806
-0.00709335
0.0182604
-0.0527041
-0.00932603
-0.0204779
-0.0866521
-0.0532549
0.0162884
0.0203818
0.0165846
0.0147926
-0.0385037
-0.0295438
-0.00746984
-0.000593241
0.0228557
0.00108511
0.00773349
0.013815
0.00765196
-0.0545166
0.0340387
0.00681918
-0.0613358
0.00783451
0.010752
0.117888
0.0764605
-0.00868089
0.0422478
-0.13426
-0.0153867
0.0956437
-0.0671938
-0.0130632
-0.0229233
0.100811
-0.0932749
0.0831818
0.0491623
-0.0151494
-0.117195
-0.0251783
0.0101599
0.0982002
0.107339
-0.0833547
-0.0336995
-0.0717673
0.0215368
0.08393
-0.0343803
0.0829435
-0.0822627
0.00282633
-0.108974
-0.00885317
-0.00908919
-0.000402045
-0.0343242
0.02434
0.00990673
0.0190118
-0.00670925
-0.0466268
-0.0164637
0.0133075
-0.0147504
0.0254468
0.00636084
-0.0170573
0.0470748
-0.046109
-0.0157162
-0.0258947
0.0567963
0.0161732
-0.0133819
0.012934
-0.165064
0.0945593
0.166873
0.177894
-0.0652199
-0.20527
-0.0794606
0.0922899
-0.00630179
-0.0543756
-0.0117488
-0.0412704
0.000738761
0.000448445
-0.0153444
0.00826367
0.00663224
-0.0121063
0.00601062
0.00654413
-0.0170416
-0.0104091
-0.0177357
-0.0280988
0.00456405
-0.0455515
-0.0265597
-0.0490363
-0.0516224
0.0626074
0.0380513
0.00339779
0.0222757
-0.0747098
-0.0688729
0.0206483
-0.125611
0.044701
-0.0100334
-0.120496
0.00944551
-0.0145608
-0.00520656
-0.0859208
0.0791529
0.0119745
-0.000433109
-0.0891052
0.0843318
-0.00969676
-0.28083
-0.0756669
0.0909872
0.0842075
-0.115174
0.105105
-0.0175769
0.01423
-0.0148232
0.0150689
-0.000838909
0.0245908
-0.00540984
0.0979232
-0.0607561
-0.0452762
0.00810909
0.0850389
0.00486571
0.147144
-0.00907115
-0.152345
0.0359187
0.109766
0.00145921
0.0108398
-0.0871862
0.112265
0.000830203
0.0142387
0.0353254
-0.115158
-0.109109
0.073196
0.140157
0.0597387
-0.00350458
-0.0622861
0.006052
0.018772
-0.00672336
-0.0762089
0.01357
0.102204
0.00997089
-0.0674078
-0.0102329
0.000179771
0.00579246
0.00864837
-0.0112707
-0.00317009
0.00932285
-0.000949753
-0.00258064
0.04516
0.0232543
-0.0590914
-0.0303329
0.0608673
-0.0226998
0.19432
-0.155519
-0.0691331
-0.00314305
-0.0948423
0.111555
-0.223435
-0.00902229
-0.171099
-0.0915403
0.0392051
0.0806198
0.063449
-0.129924
0.0481256
0.122377
-0.0898825
0.0452931
-0.0819971
0.0484669
-0.0117629
0.0493283
-0.079106
0.0750708
0.113714
0.0348353
0.108722
-0.00564842
-0.108494
0.00541982
0.119609
-0.0148779
0.00399125
0.121763
-0.0140625
-0.00407057
-0.10363
0.0870159
-0.024584
0.0593307
0.100908
-0.025263
0.0194587
-0.0951032
0.0221849
0.102676
-0.0239536
-0.0920401
-0.0315725
0.0983496
0.017513
-0.0880163
-0.0333457
0.0857031
-0.0439526
-0.0783295
0.0382613
0.0840207
-0.0458787
-0.0799251
0.0818512
0.0423749
0.0761034
-0.0247276
-0.0937506
0.0752299
-0.0787338
-0.0494109
0.0496576
0.0749833
-0.0390881
0.0657805
-0.0994594
0.0879925
-0.0132608
-0.128606
0.010657
0.130019
-0.0120705
0.0332341
0.0648442
0.0525578
-0.0320076
-0.0853944
0.0409343
0.0590579
-0.0351479
0.00936566
-0.0208635
-0.00496582
-0.0671766
-0.0974211
0.0589471
-0.00342282
0.00247307
0.000682159
-0.00410498
-0.0130642
-0.114327
0.0838845
-0.095146
-0.011384
0.0934658
0.00821361
-0.0993895
-0.00397009
-0.0116297
0.0219636
0.0119124
-0.0222464
0.0313964
-0.0040417
-0.0389843
0.0144196
0.0389403
0.000439161
-0.00272622
-0.00680214
-0.00464756
0.00508673
-0.00737378
0.00163271
-0.00169695
0.00581422
-0.00148607
0.00311878
-0.00318302
0.00440205
-0.00141421
0.00752046
-0.00506328
0.00946533
-0.00647749
0.00863018
-0.00111045
-0.0209016
-0.00353842
0.0121686
-0.00464887
0.032926
0.0820578
-0.104824
0.0356687
-0.109736
0.106993
0.116904
0.000822029
-0.0344903
-0.0636953
0.0343369
0.0638487
-0.0151191
0.067215
-0.0865862
0.00771458
-0.0865289
0.0777723
-0.0795602
-0.0658351
0.0676229
0.0774462
-0.0607774
0.0611035
-0.0696547
-0.0802087
0.0703033
0.0774027
-0.0548632
0.0549066
0.0782773
-0.0457706
0.044896
-0.0366492
0.0801738
0.0347527
0.0732048
-0.0732926
-0.0365614
-0.0297337
0.0837504
0.0261571
0.0711483
-0.0276772
-0.0722086
-0.0468547
-0.0734482
-0.0536235
-0.0748645
-0.059361
-0.0774588
-0.0632409
-0.0779258
-0.0691876
-0.0183344
0.0881353
0.0139496
0.0680102
-0.0151964
-0.0722631
-0.0804929
0.0725473
-0.0806911
-0.0694978
-0.0735012
-0.0846792
0.0776874
-0.00273215
0.0892769
0.00159053
0.0686363
-0.00335823
-0.0846591
-0.0695332
0.0905965
0.00931484
-0.0106345
0.0207998
0.0921724
-0.0223756
0.0695054
0.00844571
0.070705
0.0196003
-0.073842
-0.0854024
0.0745652
-0.0856603
-0.0728408
0.0314772
0.0935494
-0.0328542
0.0719439
0.0302383
-0.0745496
-0.0861096
0.0752569
-0.0870484
-0.0731615
0.0407596
0.0952798
-0.04249
0.073548
0.0391555
-0.0749442
-0.0862505
0.0750851
-0.0877263
-0.0742662
0.0488932
0.0964906
-0.0501039
0.0749891
0.0474521
-0.0755295
-0.0865027
0.0757817
-0.0886412
-0.0746146
0.0552709
0.0980974
-0.0568777
0.0768393
0.0534207
-0.0763763
-0.0861326
0.0760061
-0.0888199
-0.0761976
0.060554
0.0988972
-0.0613538
0.0784109
0.0589824
-0.0773872
-0.0860557
0.0773103
-0.0889772
-0.0772299
0.0641479
0.100032
-0.0652829
0.0805175
0.0620413
-0.0787495
-0.0833199
0.0760137
-0.087544
-0.0801827
0.0670953
0.0999506
-0.0670138
0.0812688
0.066344
-0.0806603
-0.0821705
0.0795109
-0.087428
-0.0807763
0.0689523
0.0996869
-0.0686886
0.0818212
0.0684
-0.0812607
-0.0797363
0.0788265
-0.08522
-0.0834687
0.0742749
0.093963
-0.068551
0.0857263
0.0703697
-0.0813128
-0.078814
0.0803904
-0.0846727
-0.08186
0.0744225
0.0888837
-0.0693431
0.088029
0.0721198
-0.0797039
0.0781805
-0.0772906
-0.0852171
-0.0791596
0.0712758
-0.0711457
0.0887536
0.0885827
0.070722
-0.0743292
0.0775504
0.0771692
-0.07199
0.0758413
-0.0747409
0.0748338
-0.0773835
-0.0762485
-0.0837095
-0.0789165
0.0800444
0.0783831
0.0774604
-0.0791708
0.0801132
0.0763679
0.0768873
-0.0807638
0.0811496
0.0753959
0.0753556
-0.081319
0.0813317
0.0752441
0.0749157
-0.0812814
0.0848086
0.0741603
0.0746155
-0.0847973
0.0829186
0.072182
0.0725585
-0.0854097
0.0843845
0.0621287
0.0651317
-0.0822376
0.0815036
0.04563
0.0570536
-0.0797074
0.0799902
0.0258744
0.0365489
-0.0803764
0.0808957
0.00107123
0.0135633
-0.0815382
0.0822565
-0.023094
-0.011277
-0.0829842
0.0836762
-0.043182
-0.0335819
-0.0843039
0.0848615
-0.0574353
-0.0507316
-0.0853497
0.0857715
-0.0657046
-0.061842
-0.08612
0.0863827
-0.0689513
-0.0673622
-0.0871953
0.0876231
-0.069771
-0.0693635
0.0863622
-0.0698847
0.0711912
-0.0695323
0.0870947
0.0708115
0.0889624
0.0856673
-0.0817666
0.0664689
-0.0880866
0.0892134
0.0695952
0.0697005
0.0799389
-0.0768742
0.0632794
0.0665723
0.0749488
-0.0729902
0.0570238
0.0601159
0.0710805
-0.0692394
0.0456109
0.051511
0.0675593
-0.066071
0.0287501
0.0374754
0.0648761
-0.0640219
0.00759148
0.0184053
0.0636588
-0.0637178
-0.0151374
-0.00372126
0.0656221
-0.0661778
-0.0360057
-0.0257729
0.068613
-0.0695057
-0.0527308
-0.0444195
0.071075
-0.0727185
-0.0615974
-0.0577917
0.0756801
-0.0778088
-0.0673692
-0.0662259
0.0777254
-0.0793026
-0.0712636
-0.0696166
0.0808144
-0.082189
-0.0728916
-0.0716498
0.0833643
-0.0843351
-0.0752268
-0.0734393
0.085121
-0.0866411
-0.0786626
-0.0764439
0.0876132
-0.0898441
-0.0812379
-0.0798042
0.0910184
-0.0901752
-0.0800028
-0.0806857
-0.0912795
-0.0751441
-0.0700885
0.0729323
0.0870792
-0.0702493
0.0685271
0.0914979
-0.0687339
0.0693223
-0.084298
-0.0679724
-0.092041
-0.068693
0.0672116
-0.0686071
-0.0767542
-0.0700558
0.0718407
0.0753844
0.0674451
-0.0650899
0.0705771
0.0732306
-0.0737853
0.0761445
0.0760239
0.0755158
-0.0778986
0.0793423
0.0749242
0.0751332
-0.0804951
0.0814012
0.0744898
0.0742028
-0.0820955
0.0826659
0.0746737
0.0742213
-0.083112
0.0833136
0.0739587
0.0741694
-0.0835903
0.0853995
0.0703728
0.0722819
-0.084017
0.0842902
0.0618555
0.0665143
-0.0865427
0.0854383
0.0467344
0.054801
-0.0855215
0.086058
0.0253379
0.0364657
-0.0865925
0.0871296
0.00053413
0.0130288
-0.0876463
0.0881236
-0.0235713
-0.0117937
-0.0885156
0.0888054
-0.0434718
-0.033974
-0.0889824
0.0890583
-0.0575113
-0.0509086
-0.0890477
0.0889676
-0.0656245
-0.0618314
-0.0888276
0.0886286
-0.0687524
-0.0672223
-0.0881347
0.0871643
-0.0688006
-0.0688696
-0.0708843
0.0713821
0.0865968
-0.0693304
0.0855253
-0.0856285
0.0847508
-0.0693716
-0.0683489
0.0884101
-0.0864446
0.0676297
0.0895918
0.0673454
-0.069303
0.070509
0.0902919
0.0910415
0.0841464
-0.0805741
0.0628966
0.0674024
0.0770264
-0.074789
0.061042
0.0630245
0.0725303
-0.0702338
0.0547272
0.0578572
0.0680153
-0.0659051
0.0435007
0.0492926
0.0640093
-0.0623799
0.0271207
0.0355796
0.0611231
-0.0602987
0.00676708
0.0171485
0.0599813
-0.0601996
-0.0149191
-0.00403867
0.0608889
-0.0621302
-0.0347643
-0.0250837
0.06378
-0.0664847
-0.0500261
-0.0427697
0.0689932
-0.0704625
-0.0601281
-0.0552832
0.0736715
-0.0749993
-0.0660413
-0.063017
0.077177
-0.0792495
-0.0691911
-0.0674389
0.0811701
-0.0829541
-0.0711077
-0.0697292
0.0845803
-0.086064
-0.0737431
-0.0718131
0.0874248
-0.0887063
-0.0773811
-0.0750832
0.0899374
-0.0911871
-0.0799882
-0.0785731
0.0924664
-0.0944431
-0.0780261
-0.0794064
0.0956909
-0.096804
-0.0668593
-0.0738963
-0.0628385
0.0649602
-0.0597808
0.0589976
-0.0912578
-0.0980011
-0.0585837
0.0578002
-0.0831006
-0.0688869
0.0843074
0.0907486
0.0693522
0.0604317
-0.059585
-0.0694537
0.058666
-0.0610728
-0.0487092
0.0477779
-0.0903265
-0.048513
-0.0981972
-0.078539
0.0861425
-0.0881897
-0.0673245
0.0840354
-0.0667799
0.0712727
-0.0703504
0.0893696
0.0684189
0.0936024
-0.0555956
0.0585992
0.0556624
0.0490806
-0.0498886
-0.0602648
0.0538232
-0.0414335
0.0393429
-0.0517325
0.0473081
-0.0613404
0.0642963
0.0676212
0.0622191
-0.0668242
0.0698321
0.0723764
0.0707027
-0.072356
0.0748762
0.0735037
0.0729919
-0.0770737
0.0789574
0.0730405
0.0729357
-0.0805504
0.0819311
0.0731091
0.0726098
-0.0831181
0.0841726
0.0736192
0.0730343
-0.0850969
0.0859289
0.0731268
0.073245
-0.0867253
0.0874805
0.0696176
0.0714854
-0.0883055
0.0891249
0.0610361
0.0656893
-0.0899413
0.0907957
0.0458801
0.0539845
-0.0915904
0.0923321
0.0245962
0.035671
-0.0929646
0.0934752
2.34982e-05
0.0123963
-0.0938477
0.0940829
-0.0238065
-0.0121661
-0.0941661
0.0940836
-0.0433893
-0.0340571
-0.0938325
0.0934281
-0.0571069
-0.0506575
-0.0929094
0.0923068
-0.0650218
-0.0613127
-0.0916559
0.0909609
-0.0680575
-0.0665714
-0.0901878
0.0886531
-0.0672659
-0.0680965
-0.0678855
-0.0695142
0.0684319
0.0876791
0.0693014
-0.06933
0.084336
0.0853124
0.089123
0.0874278
-0.0845864
0.0647884
-0.0896997
0.092138
0.0669139
0.0650734
0.0803385
-0.0789674
0.0615256
0.0631544
0.0756871
-0.0731522
0.0585071
0.0597441
0.0706057
-0.0680294
0.0521509
0.0553107
0.0655667
-0.0632425
0.0411765
0.0468299
0.0611903
-0.0594642
0.0253946
0.0335274
0.0581789
-0.0573933
0.0059815
0.0158632
0.0571351
-0.0575103
-0.0145439
-0.00429683
0.0584234
-0.0599099
-0.0332778
-0.0241706
0.0618852
-0.0641879
-0.0477235
-0.0407944
0.0667301
-0.0694095
-0.0574487
-0.052741
0.0720134
-0.0745927
-0.0634621
-0.0604131
0.0770722
-0.0794721
-0.0667912
-0.0649593
0.0817503
-0.0839152
-0.0689428
-0.067451
0.0859342
-0.0878658
-0.0718115
-0.069794
0.0897243
-0.0915758
-0.0755296
-0.0732247
0.0934245
-0.0953232
-0.0780895
-0.0767243
0.097271
-0.0993336
-0.0759635
-0.0774586
0.10153
-0.102412
-0.065978
-0.0716996
0.103915
-0.106327
-0.0461009
-0.0570806
-0.0350345
0.0361872
-0.0993499
-0.106894
-0.0344671
-0.0489994
-0.0703429
0.0492182
-0.0845409
-0.0673115
0.0820169
0.0941044
0.0664525
-0.0366134
-0.065085
0.0373526
-0.0914919
-0.0131041
-0.050035
0.0775586
0.0211701
-0.0212358
-0.106829
0.0206436
-0.0988233
-0.0346861
0.0520763
0.0215502
-0.0267396
0.00396598
-0.0783202
-0.0489325
0.0514452
0.0368302
0.0289698
-0.0258261
-0.0532932
0.0559071
0.0530485
0.0454602
-0.0584947
0.0616368
0.0644791
0.0596314
-0.0651349
0.0681628
0.0693486
0.0672046
-0.071215
0.0741037
0.070615
0.0699397
-0.076666
0.078937
0.0707694
0.0703734
-0.0809205
0.0827084
0.0713212
0.0706263
-0.0843292
0.0858337
0.0721147
0.0714136
-0.0872588
0.0886413
0.0717443
0.07182
-0.0899867
0.0913452
0.0682591
0.07014
-0.0926943
0.0940464
0.059684
0.0643402
-0.0953462
0.0965815
0.0446449
0.0526847
-0.0976863
0.0985946
0.0236879
0.0345661
-0.0992986
0.0997809
-0.000458861
0.0116924
-0.100025
0.10003
-0.0238108
-0.0124104
-0.0997888
0.0992981
-0.0428986
-0.0338163
-0.0985832
0.0976788
-0.0562026
-0.0499426
-0.0966523
0.0955435
-0.0639131
-0.0602861
-0.0944055
0.0932451
-0.0668971
-0.0654333
-0.0917133
0.0911331
-0.0666857
-0.0665646
-0.0891598
0.0870117
-0.0651764
-0.0659122
-0.0854901
0.0820932
-0.0639146
-0.0652583
-0.0675
0.0685998
0.0832362
0.0683173
-0.067232
0.081008
0.0828342
-0.0685784
0.069736
0.0865215
0.0853338
-0.0700285
0.0688837
0.0905144
0.0888305
-0.0688776
0.067072
0.0959101
0.0936085
0.0924065
-0.0894718
0.0639791
-0.0970215
0.0944334
0.0696601
0.0618375
0.0864774
-0.0838037
0.0621147
0.0620791
0.0798747
-0.0773421
0.058993
0.0592254
0.0747092
-0.0719602
0.0557582
0.0571112
0.0691919
-0.0664085
0.0493676
0.0525423
0.0637682
-0.0612947
0.0387029
0.0441897
0.0591442
-0.0573646
0.023615
0.0313769
0.0560807
-0.0553416
0.00524237
0.0145793
0.055208
-0.0556917
-0.0140602
-0.00443041
0.0568266
-0.0585317
-0.0315727
-0.0230357
0.0607116
-0.0632546
-0.0451805
-0.0386145
0.0659997
-0.0688487
-0.0545997
-0.0499959
0.0716664
-0.0744808
-0.0606477
-0.0575953
0.0772223
-0.0799157
-0.0640979
-0.0622177
0.0825053
-0.0850089
-0.0664392
-0.0648613
0.0873995
-0.0897455
-0.0694655
-0.0674034
0.0920764
-0.0944662
-0.0731398
-0.0708938
0.0969154
-0.0994694
-0.0755355
-0.0742752
0.102114
-0.10487
-0.0732069
-0.0748142
0.107666
-0.110412
-0.063232
-0.0689043
0.112417
-0.112834
-0.0456839
-0.0550756
0.114998
-0.115609
-0.0206249
-0.0323031
-0.0061538
0.00646829
-0.107143
-0.11525
-0.00651285
-0.0368143
-0.070142
0.0375273
-0.0847156
-0.0203006
-0.0578885
0.0234699
-0.0943182
0.0853717
-0.0867106
-0.0625757
0.0815641
-0.0634244
0.0688927
-0.0690953
0.0961127
0.0647938
0.0985322
-0.00610544
-0.0479712
0.00798881
-0.100344
-0.0197723
-0.0292136
-0.0381119
0.0436166
0.0160454
0.0106393
-0.00961189
-0.10817
0.00945278
-0.114063
-0.0331729
-0.000972953
-0.0776072
-0.0461533
0.0484025
0.0345811
0.0264331
-0.0506982
0.0530646
0.050682
0.0431645
-0.0564177
0.060013
0.0608839
0.0562783
-0.0636163
0.0671849
0.06578
0.0636012
-0.0705593
0.0737208
0.0674535
0.0665653
-0.0765936
0.0792013
0.0681617
0.0675005
-0.0815454
0.0837093
0.0691572
0.0682822
-0.0857346
0.0876777
0.0701715
0.0693883
-0.0895752
0.0914625
0.069857
0.0699224
-0.0933404
0.0952228
0.0663768
0.0682621
-0.0970833
0.098925
0.0578423
0.0624797
-0.100645
0.102234
0.0430556
0.0509648
-0.103606
0.10468
0.0226137
0.0331943
-0.10544
0.105885
-0.000903698
0.0109324
-0.105984
0.105738
-0.023565
-0.0125094
-0.105164
0.104276
-0.042011
-0.0332422
-0.103131
0.10177
-0.0548416
-0.0487967
-0.100281
0.0987047
-0.062337
-0.0587973
-0.0971077
0.0954887
-0.0652781
-0.0638364
-0.0938851
0.0922946
-0.0650952
-0.064961
-0.0902994
0.0884787
-0.0633556
-0.063917
-0.0634903
-0.0678252
0.0674422
0.0836193
0.0664837
-0.0663056
0.0808299
0.0814927
-0.0680612
0.0681353
0.0864474
0.0847147
-0.0692718
0.0701578
0.0896284
0.087694
0.094671
0.0921685
-0.0890896
0.0609002
-0.0926484
0.0985758
0.0637327
0.0613576
0.0862411
-0.0821706
0.0580441
0.0592306
0.0796177
-0.0769243
0.0562996
0.0566726
0.0741137
-0.0712099
0.0528544
0.0543006
0.0682856
-0.0653777
0.0464596
0.049618
0.0626267
-0.0600748
0.0361511
0.0414387
0.0578796
-0.0560916
0.021827
0.0291817
0.0548387
-0.054169
0.00457266
0.0133264
0.0541477
-0.0547744
-0.0134335
-0.00445175
0.0560598
-0.057928
-0.0297045
-0.0217503
0.060253
-0.0629433
-0.0424902
-0.0362895
0.0658071
-0.0687794
-0.0516274
-0.0471321
0.0717447
-0.0747183
-0.0576741
-0.05463
0.0776455
-0.0805566
-0.0611868
-0.0592905
0.0833911
-0.086166
-0.0636644
-0.0620268
0.0888623
-0.0915613
-0.0667665
-0.064707
0.0942865
-0.0971157
-0.0703105
-0.0681687
0.100039
-0.103101
-0.0724736
-0.0713521
0.106268
-0.109557
-0.0699172
-0.0716471
0.112886
-0.11617
-0.0599478
-0.0655755
0.119246
-0.122007
-0.0429227
-0.0520002
0.12227
-0.122645
-0.0202501
-0.03204
0.121884
-0.120475
0.00804308
-0.00727348
0.0260513
-0.0248528
-0.115262
-0.118248
0.0238243
-0.0228541
-0.0675884
0.0239166
-0.0851624
-0.0638151
0.0790737
0.0998548
0.0635149
-0.007093
-0.0569009
-0.00167913
-0.0570775
0.00370048
-0.0533508
0.00854393
-0.0948733
-0.00744167
-0.102514
-0.0455636
-0.016823
0.0220331
-0.0229228
-0.0446739
0.0130996
-0.048144
-0.0248365
-0.108187
0.0380199
-0.0412026
-0.112079
0.038162
-0.11839
-0.0765447
-0.0379469
0.0407923
0.0132
0.0388513
-0.0434173
-0.012257
-6.85572e-05
-0.0432344
0.0453031
0.0325124
0.023991
-0.048297
0.05176
0.0472191
0.0401706
-0.0554568
0.0593011
0.0570396
0.0525814
-0.0631147
0.0668429
0.0620519
0.0597876
-0.0703765
0.0737137
0.0641164
0.0630317
-0.0768015
0.0796765
0.0652868
0.0644127
-0.0823402
0.0848626
0.0666349
0.0656184
-0.0872778
0.089645
0.0678044
0.0669731
-0.0919808
0.094328
0.0675099
0.0675866
-0.0966746
0.099024
0.0640273
0.0659155
-0.101335
0.103587
0.0555901
0.0601686
-0.105694
0.107572
0.0411779
0.0488581
-0.109159
0.11042
0.0213524
0.0316072
-0.111202
0.111598
-0.00129904
0.0101502
-0.111542
0.111056
-0.0230782
-0.0124542
-0.110169
0.10891
-0.0407516
-0.0323561
-0.107355
0.10556
-0.0530464
-0.0472414
-0.103635
0.101626
-0.0603279
-0.056873
-0.0996135
0.0975967
-0.0632613
-0.0618237
-0.0956174
0.0936403
-0.0631181
-0.0629817
-0.0916936
0.0900082
-0.0616702
-0.0619703
-0.0873314
0.0848887
-0.0601329
-0.0608135
-0.0815268
0.0786132
-0.0609015
-0.0600625
-0.0646009
0.0661742
0.0792566
0.0650026
-0.0612045
0.0748151
0.0794754
-0.0668788
0.0677737
0.0827245
0.080788
-0.0683782
0.0685452
0.0862804
0.0841102
-0.0682632
0.0674993
0.0903924
0.0879759
-0.0681943
0.067433
0.096874
0.0939759
-0.0655844
0.0631947
0.102245
0.100381
0.098583
-0.0947233
0.0598729
-0.101337
0.102551
0.0619808
0.0607611
0.0915307
-0.0886619
0.0580315
0.0581649
0.0848962
-0.0822987
0.0554466
0.0554649
0.0796144
-0.0767894
0.0534745
0.0539883
0.0738745
-0.0708763
0.0498562
0.0513857
0.0678718
-0.0649113
0.043499
0.0466136
0.0621182
-0.0595553
0.0335882
0.0386456
0.0573672
-0.0556163
0.0200762
0.0269936
0.0544238
-0.0538393
0.00398817
0.0121338
0.0539227
-0.0546713
-0.0126849
-0.00436831
0.0560587
-0.058029
-0.0277342
-0.0203629
0.060426
-0.0631672
-0.039749
-0.0338925
0.0660692
-0.0690834
-0.0486132
-0.0442301
0.0721169
-0.075196
-0.054595
-0.0515965
0.0782661
-0.0813491
-0.0581038
-0.0562205
0.0843778
-0.0873786
-0.0606636
-0.058998
0.0903371
-0.0933477
-0.0637559
-0.0617485
0.0964288
-0.0996576
-0.0670817
-0.0650876
0.103017
-0.106547
-0.068943
-0.0679931
0.110191
-0.11394
-0.0661685
-0.0680034
0.117682
-0.121358
-0.0562716
-0.0618333
0.124787
-0.127789
-0.0399201
-0.0485716
0.130186
-0.132038
-0.0183985
-0.029643
0.133239
-0.131942
0.00674687
-0.00607277
0.129458
-0.124352
0.0330562
0.0213395
0.0474033
-0.0504993
-0.115294
-0.121616
0.0446678
-0.00848639
-0.066195
-0.0442172
-0.0221229
0.00538814
-0.0585886
0.0792916
-0.0830213
-0.0571719
0.076137
-0.0580499
0.0652993
-0.0656317
0.102577
0.0624758
0.105374
0.00893203
-0.0855505
-0.00688436
-0.0954306
0.0163221
-0.0565733
-0.0224902
-0.10486
-0.036455
-0.112934
-0.0478687
-0.11471
0.0577176
-0.0582545
-0.114757
0.0525967
-0.116495
-0.0760991
-0.0433045
0.0403276
-0.00928009
-0.0309115
0.03649
-0.0497957
0.0464605
-0.0507427
-0.0266294
-0.0189669
-0.0387702
0.0405631
0.0114071
0.00148881
-0.0427744
0.0450599
0.0302269
0.0217797
-0.0479483
0.051412
0.0437554
0.0372822
-0.0552148
0.0591834
0.053071
0.0487786
-0.0631202
0.0669606
0.0582114
0.0558508
-0.0706042
0.0740592
0.0606614
0.0593882
-0.0772957
0.0803664
0.0622161
0.0611762
-0.0832808
0.0861065
0.0638092
0.062704
-0.0888618
0.0916035
0.0650628
0.0642177
-0.094329
0.0970833
0.0647556
0.064861
-0.0998349
0.102597
0.0612649
0.0631639
-0.105287
0.107892
0.0529847
0.0574792
-0.110312
0.112452
0.039038
0.0464383
-0.11423
0.11558
0.0200029
0.0298289
-0.116438
0.116751
-0.00161225
0.0092922
-0.116544
0.115826
-0.0223601
-0.0122473
-0.114643
0.113037
-0.0391455
-0.0311731
-0.111113
0.108941
-0.0508746
-0.0453172
-0.106647
0.104275
-0.0579558
-0.0545795
-0.101912
0.0995519
-0.0609015
-0.0594602
-0.0972451
0.0949563
-0.0608293
-0.0606749
-0.0927108
0.0904799
-0.0594394
-0.0597247
-0.0878595
0.0857148
-0.0579883
-0.058193
-0.057369
-0.064325
0.0652801
0.0783015
0.0607195
-0.0603967
0.0744923
0.0758698
-0.0666573
0.0677735
0.0816083
0.0794109
-0.0684308
0.0686082
0.086103
0.0834529
-0.0683045
0.0675164
0.0911806
0.0882796
-0.0680047
0.0669086
0.0979701
0.0934877
0.101658
0.0987258
-0.0959721
0.0571192
-0.101457
0.10475
0.0586878
0.0580298
0.0918798
-0.0879431
0.0540947
0.0540727
0.0853298
-0.0826136
0.0527304
0.0528516
0.0798342
-0.0769289
0.0505692
0.051209
0.0739656
-0.0709291
0.0468197
0.0484224
0.0679147
-0.0649614
0.0405458
0.0435991
0.0621919
-0.0596735
0.0310698
0.035876
0.0575419
-0.055866
0.0184002
0.024862
0.0547584
-0.0542702
0.00350002
0.0110262
0.0544363
-0.0552767
-0.0118446
-0.0042022
0.0567214
-0.0587265
-0.0257292
-0.0189181
0.0611291
-0.0638443
-0.0370339
-0.0314899
0.0667169
-0.0697171
-0.045613
-0.0413575
0.0727683
-0.0759019
-0.0514614
-0.0485453
0.0790628
-0.0822596
-0.054907
-0.0530596
0.0854146
-0.088564
-0.0575141
-0.055843
0.091705
-0.094936
-0.0605249
-0.0586076
0.0982671
-0.101766
-0.0635824
-0.0617564
0.105404
-0.109221
-0.0651265
-0.0643551
0.113153
-0.117194
-0.0621272
-0.0640716
0.12123
-0.125201
-0.0522999
-0.0577976
0.128924
-0.132236
-0.0366081
-0.044849
0.13491
-0.136839
-0.0164689
-0.0269693
0.137947
-0.138094
0.00689447
-0.00496529
0.13509
-0.131223
0.0291896
0.0183348
0.127178
-0.123612
0.0490305
0.0406228
-0.0356128
0.0282743
-0.0408055
-0.0437967
0.0617583
-0.0635137
-0.11474
-0.116596
0.0547421
0.00560575
-0.0664126
-0.0575423
0.0732825
0.10895
0.0582757
0.0371989
-0.0537999
-0.0341416
-0.00635234
-0.0860825
0.0435812
-0.056178
0.0190285
-0.061295
-0.022073
-0.0958479
0.0303527
-0.0586517
-0.0365768
-0.104739
-0.0487741
-0.112029
-0.0577571
-0.115207
-0.0649354
-0.113335
0.0648161
-0.0680764
-0.11148
0.0608801
-0.11266
-0.0768456
-0.0518041
0.0475068
-0.0223321
-0.0424451
-0.0565575
0.0452027
0.0555018
-0.0571893
-0.0407577
-0.0304439
-0.0443762
0.0423221
-0.00722593
-0.0158363
-0.0415007
0.0416663
0.0112415
0.00231016
-0.0436179
0.0460083
0.0278364
0.0198282
-0.048778
0.0520775
0.0404559
0.0345125
-0.0557438
0.0596333
0.0491815
0.0451123
-0.063553
0.0674212
0.0543432
0.0519311
-0.0711288
0.074676
0.0571142
0.0556806
-0.0780339
0.0812602
0.0589898
0.0578183
-0.0843679
0.0874275
0.0607496
0.0595963
-0.090449
0.0934899
0.0620218
0.0611962
-0.0965368
0.0996302
0.0616622
0.0618141
-0.102723
0.105824
0.0581639
0.0600712
-0.108831
0.111728
0.0500869
0.0544724
-0.114393
0.116764
0.0366665
0.0437741
-0.118673
0.120099
0.0185775
0.0279197
-0.12096
0.121199
-0.0018516
0.00843079
-0.120844
0.119912
-0.0214291
-0.0118914
-0.118468
0.116567
-0.0372444
-0.0297287
-0.114336
0.111854
-0.0483925
-0.043086
-0.109257
0.106586
-0.055285
-0.0519826
-0.103933
0.10129
-0.0582583
-0.0568069
-0.0987124
0.0961653
-0.0582822
-0.0580978
-0.0936808
0.0911969
-0.0569555
-0.0572402
-0.0887425
0.086227
-0.0554729
-0.0557386
-0.083609
0.0805059
-0.0540688
-0.0547509
-0.0762762
0.0729997
-0.0542657
-0.0538203
-0.0586819
0.0605526
0.0726217
0.0574848
-0.0535989
0.0691137
0.0720855
-0.0622944
0.0644685
0.0761275
0.074128
-0.0660412
0.0671777
0.0804718
0.0778381
-0.0678357
0.0680027
0.0859361
0.0827948
-0.0676716
0.0668612
0.0919909
0.0886107
-0.0655845
0.0654799
0.0980746
0.0947644
-0.0640215
0.0617976
0.104801
0.103116
-0.0586668
0.0568447
0.110772
0.108505
0.106059
-0.102163
0.0547923
-0.109508
0.112613
0.0537395
0.0548266
0.0986978
-0.0939667
0.0523882
0.0545642
0.0912741
-0.0885664
0.0513869
0.0513801
0.0858786
-0.0830824
0.0499342
0.0501638
0.0802537
-0.0773164
0.0476319
0.0483803
0.0743517
-0.0713302
0.0437981
0.0454577
0.0683609
-0.0654659
0.0376508
0.0406299
0.0627744
-0.0603449
0.0286403
0.0331845
0.0583108
-0.0567376
0.016827
0.022828
0.0557309
-0.0553363
0.00310541
0.0100195
0.0555755
-0.056466
-0.0109542
-0.00396292
0.0579291
-0.0599051
-0.0237532
-0.0174549
0.0622466
-0.0648762
-0.0344042
-0.0291483
0.0676644
-0.070603
-0.0426744
-0.0385693
0.0736312
-0.0767799
-0.0483127
-0.0455171
0.0799845
-0.0832431
-0.0516484
-0.049855
0.0864775
-0.0897353
-0.0542563
-0.0526086
0.0930213
-0.0964371
-0.0571092
-0.0553216
0.0999848
-0.103726
-0.0598408
-0.0582087
0.107616
-0.111671
-0.0610711
-0.0604659
0.115802
-0.11999
-0.057939
-0.0599405
0.124119
-0.128145
-0.0482743
-0.0536683
0.131913
-0.135306
-0.0332151
-0.041081
0.138098
-0.140104
-0.014463
-0.0241777
0.141165
-0.141291
0.00702076
-0.00390369
0.140508
-0.138807
0.0274884
0.0175519
0.134192
-0.128539
0.0433773
0.0360076
0.122698
-0.11503
0.0532127
0.0489008
-0.0536683
0.0417627
-0.0288999
-0.0538838
0.0651171
-0.0680901
-0.109687
-0.111098
0.0611851
0.0205907
-0.0679748
-0.0214545
-0.0867009
0.0481853
-0.0608707
-0.0445039
-0.0605157
0.0521434
0.0463149
-0.0572902
0.032065
-0.0630073
-0.0363126
-0.0961121
0.0742299
-0.0777594
-0.0507362
0.0702519
-0.0496209
0.0550527
-0.0572223
0.112942
0.0529633
0.114703
0.0428791
-0.0597681
-0.049187
-0.104326
-0.0590562
-0.11073
-0.0652957
-0.114847
-0.0679496
-0.113462
-0.070484
-0.109086
-0.0484485
-0.064377
0.0519548
-0.0658513
0.0629843
-0.0455814
0.0514904
-0.0703792
-0.0469626
0.0648583
-0.103149
-0.0713965
0.0592066
-0.105446
-0.0690251
0.0561386
-0.0777095
-0.0573435
0.051899
-0.0353131
-0.0388631
-0.0500947
0.0483643
-0.0206017
-0.0286396
-0.0455994
0.0437573
-0.00538379
-0.0130714
-0.0434712
0.0440611
0.0106516
0.0025962
-0.0455203
0.0477209
0.0256358
0.018369
-0.0504117
0.0535333
0.0373343
0.0318217
-0.056981
0.0606669
0.0454955
0.0416647
-0.0644358
0.0682147
0.0505642
0.0481623
-0.071898
0.0754782
0.0535339
0.0519973
-0.0789181
0.082268
0.0556399
0.0543785
-0.0855322
0.0887789
0.0575029
0.056332
-0.0920124
0.0952889
0.0587453
0.0579627
-0.0985906
0.101949
0.0583035
0.0585124
-0.105309
0.108666
0.0548062
0.0567118
-0.111926
0.115041
0.0469712
0.0512132
-0.11789
0.120403
0.0341535
0.040926
-0.122403
0.123855
0.0171254
0.0259196
-0.124675
0.124832
-0.00200825
0.00761023
-0.12434
0.123227
-0.0203157
-0.0113993
-0.121565
0.119425
-0.0351036
-0.0280675
-0.116951
0.114231
-0.0456727
-0.0406121
-0.111408
0.108518
-0.0523943
-0.0491601
-0.105651
0.102794
-0.0554017
-0.0539399
-0.10001
0.0972592
-0.0555319
-0.0553132
-0.0945824
0.0919177
-0.0542908
-0.0545633
-0.0892871
0.0866262
-0.052812
-0.0531081
-0.0835618
0.0808928
-0.0513998
-0.0516864
-0.0506869
-0.0571408
0.0588252
0.0709372
0.0540199
-0.0527606
0.0678544
0.0689647
-0.061042
0.0629822
0.0741873
0.0719111
-0.0645183