/*--------------------------------*- C++ -*----------------------------------*\
  =========                 |
  \\      /  F ield         | OpenFOAM: The Open Source CFD Toolbox
   \\    /   O peration     | Website:  https://openfoam.org
    \\  /    A nd           | Version:  10
     \\/     M anipulation  |
\*---------------------------------------------------------------------------*/
FoamFile
{
    format      ascii;
    class       volVectorField;
    location    "18";
    object      U;
}
// * * * * * * * * * * * * * * * * * * * * * * * * * * * * * * * * * * * * * //

dimensions      [0 1 -1 0 0 0 0];

internalField   nonuniform List<vector> 
28942
(
(-0.551794 0.0667988 -2.89332e-19)
(-0.582273 -0.0466642 -6.4346e-20)
(1.9942 -1.38967 5.50948e-19)
(2.52997 0.0504332 -5.1354e-19)
(2.49168 0.0795712 1.71006e-19)
(1.15976 0.0598997 0)
(1.35367 0.083306 -2.38271e-21)
(1.50959 0.0538524 2.7138e-21)
(2.91145 -0.145592 2.76528e-20)
(2.88321 -0.130819 -6.35295e-20)
(0.0255375 -0.158048 -1.71159e-18)
(0.15895 -0.314731 7.99238e-19)
(0.0337598 -0.273832 0)
(-0.00108345 -0.28535 0)
(2.51023 -0.118124 2.19819e-21)
(2.5413 -0.11766 2.36275e-22)
(2.33981 0.23983 1.76389e-19)
(2.3058 0.196912 2.7489e-19)
(1.10397 -1.77426 1.48057e-19)
(1.72063 -1.846 -4.96536e-20)
(2.50348 0.579646 2.46114e-19)
(2.52407 0.546363 0)
(0.333467 0.225582 1.47654e-18)
(-0.294734 -0.116493 8.08602e-19)
(3.15088 -0.665512 1.5363e-18)
(3.68443 -0.809385 -1.39007e-18)
(0.767741 -1.32604 2.53342e-18)
(0.759709 -1.06245 -1.04603e-18)
(2.21059 -1.56765 -1.36877e-19)
(1.69825 -1.12713 -5.37227e-20)
(1.13546 -0.0454854 0)
(1.54888 -0.0786793 1.06516e-20)
(1.91914 -0.126894 1.70754e-20)
(2.24897 -0.107492 1.44071e-20)
(1.4295 1.91874 9.10779e-21)
(1.04807 2.05371 1.30081e-20)
(1.63997 1.88779 -7.6051e-19)
(1.28509 1.88577 -2.82538e-19)
(0.535636 0.0589393 2.91493e-21)
(0.590628 1.88357 -3.26993e-19)
(2.03981 -0.0239955 0)
(2.36099 -0.0742063 0)
(1.98627 -0.0925112 -8.36695e-21)
(1.93315 -0.0172501 2.47683e-20)
(2.03038 -0.0855354 2.14427e-20)
(1.93319 0.069142 -1.17896e-21)
(1.89647 0.0859755 2.22324e-21)
(2.30139 0.0821842 3.03262e-21)
(2.24442 0.0827395 -7.84185e-22)
(2.00396 0.0799946 5.70841e-21)
(1.84886 0.0904421 -3.1987e-21)
(2.70079 -0.00905096 -3.19815e-20)
(2.69884 -0.013008 -2.3935e-20)
(2.9248 -0.181229 -1.90776e-21)
(2.89175 -0.164036 -1.21437e-20)
(3.67057 0.0352191 1.15125e-18)
(3.90651 -0.127859 5.83871e-19)
(-0.0906811 -0.107465 -9.64237e-19)
(0.0298027 -0.105504 0)
(-0.139757 0.0597426 3.49113e-19)
(-0.167604 -0.0309445 8.47507e-19)
(-0.0871274 -0.0934008 -6.71726e-19)
(-0.0972455 -0.120612 -6.98819e-19)
(3.35201 -1.11913 0)
(3.86841 -0.839266 2.08203e-19)
(3.35149 -0.70248 -9.42433e-20)
(3.25473 -0.763825 0)
(2.34177 -0.496617 -1.39969e-19)
(2.41023 -0.532316 -8.80494e-20)
(-0.278464 0.125382 9.47556e-19)
(-0.380182 0.220536 -3.04866e-19)
(-0.523026 0.310714 7.71941e-19)
(2.43193 -0.647588 0)
(2.36882 -0.586029 4.63465e-19)
(2.24132 -0.91889 1.0724e-19)
(3.80843 0.825508 2.40685e-19)
(3.94424 0.720436 -2.66796e-19)
(3.77544 0.552904 -1.41767e-19)
(0.686715 -0.366934 3.00147e-20)
(1.03851 -0.603077 -5.45076e-19)
(2.8828 -1.69952 -1.2659e-19)
(2.74179 -1.71063 1.80171e-19)
(-0.325822 0.148165 1.44599e-18)
(-0.480051 0.128506 -5.58307e-19)
(3.31289 1.4893 -1.8064e-20)
(2.8122 1.21816 -1.15377e-19)
(2.82073 1.69821 8.60448e-20)
(2.68553 1.82626 -2.35662e-19)
(2.67044 1.86647 1.47858e-19)
(2.25799 1.63956 1.52009e-21)
(2.3179 1.80577 -5.00182e-20)
(2.34659 1.90051 1.02078e-19)
(-0.622903 0.572569 -1.99582e-19)
(-0.299539 0.746972 -5.46373e-20)
(-0.435387 0.112368 1.0895e-19)
(-0.525673 0.278058 -1.31035e-18)
(-0.52608 0.359595 1.66177e-18)
(1.16414 1.31452 -1.99699e-19)
(1.38931 1.53536 2.86033e-20)
(-0.497393 -0.0789734 0)
(2.51604 -0.000940111 0)
(2.43029 0.0786142 -3.70162e-19)
(2.39934 0.177894 3.09062e-19)
(2.60652 0.15017 0)
(3.45367 -0.13176 0)
(3.45953 -0.154634 0)
(3.51341 -0.139855 1.79001e-19)
(2.70551 0.378407 -4.72156e-20)
(2.69035 0.40511 4.84161e-19)
(2.6885 0.362794 2.59744e-19)
(-0.0752861 -0.201299 1.94482e-18)
(-0.101869 -0.229098 -2.1807e-18)
(-0.697553 0.00374052 -5.55199e-19)
(-0.749522 -0.277335 5.12242e-19)
(-0.682049 -0.266041 1.07606e-18)
(0.561776 0.784615 4.77092e-19)
(1.04136 0.624667 1.15404e-18)
(0.884178 1.33567 9.2772e-20)
(0.423977 1.27578 -2.74014e-18)
(3.44317 1.21734 1.12872e-20)
(3.00844 1.16034 2.26502e-19)
(2.91824 1.05017 -3.9267e-19)
(2.54045 -1.8657 -3.71749e-20)
(1.89627 -1.36545 6.96414e-20)
(0.639146 0.109107 -1.44973e-18)
(0.64462 -0.0818028 0)
(1.02897 -0.0318424 8.19154e-19)
(1.74298 -1.31825 -1.10431e-20)
(2.11574 -1.72014 1.01402e-19)
(2.22223 0.0772296 -2.22816e-21)
(2.29423 0.0759769 -1.70104e-21)
(2.08366 0.0696922 -2.67135e-23)
(1.3449 -1.80483 0)
(1.4301 -1.28346 0)
(2.57317 -0.16505 -9.86168e-20)
(2.53047 -0.154598 5.74353e-19)
(2.53244 -0.0457295 0)
(2.19101 -1.77937 0)
(2.17834 -1.5024 -9.98225e-20)
(2.30332 1.96609 4.47818e-19)
(-0.323345 -0.209252 1.21146e-18)
(-0.268907 -0.232665 -8.64598e-19)
(1.96631 -1.71871 -1.18166e-21)
(2.12469 -0.150333 1.21741e-19)
(2.11131 -0.084682 -2.41574e-20)
(3.63801 0.0657448 -1.50461e-19)
(3.612 0.212808 2.02503e-19)
(3.53874 0.1943 6.34528e-19)
(-0.233378 -0.240342 4.34655e-19)
(2.60553 1.95791 6.17003e-19)
(2.65545 1.72618 -1.67626e-19)
(3.08161 2.08493 2.7189e-22)
(1.69127 -0.05857 -2.24129e-21)
(1.68553 -0.0590669 -2.33068e-20)
(1.90458 -0.0682603 -1.90591e-21)
(1.91177 -0.0854005 6.67831e-21)
(2.22764 1.84942 9.93214e-20)
(1.36368 1.66304 0)
(-0.00167032 0.430206 6.80041e-19)
(0.0541327 0.0908007 -7.55512e-19)
(-0.0148528 1.28498 5.38934e-19)
(1.83049 0.627514 -1.00714e-18)
(3.0283 1.03211 -4.87445e-19)
(2.13836 -0.0928553 2.17434e-21)
(4.0635 -1.48493 2.37081e-19)
(3.87015 -1.53812 6.49883e-19)
(2.49201 0.636513 5.67519e-19)
(2.32164 0.756689 3.99242e-20)
(2.36233 0.445027 3.18022e-19)
(2.40655 0.461955 -2.28514e-19)
(2.53895 0.646899 0)
(2.74688 -0.0327715 2.7317e-20)
(2.75321 -0.0458264 5.16594e-20)
(2.79504 -0.0945349 7.14302e-21)
(2.80546 -0.0981827 -1.39139e-20)
(2.72926 0.344685 5.7411e-20)
(2.76237 0.363472 -1.61371e-19)
(2.73314 0.372301 0)
(2.70266 0.348732 3.46329e-20)
(2.73274 0.406093 0)
(2.73357 0.528271 -1.28175e-19)
(2.73007 0.592712 -7.11532e-20)
(2.70726 0.660049 -1.3297e-19)
(2.72868 0.642729 0)
(2.79604 0.656989 4.23658e-19)
(2.74342 0.711456 1.40652e-20)
(2.66985 0.71268 -7.83249e-20)
(2.53649 0.854675 -3.39457e-19)
(2.53171 0.702354 -5.91086e-20)
(1.38144 1.39631 3.52515e-19)
(1.59195 0.953631 -1.27409e-19)
(-0.546747 -0.0323413 -7.75284e-19)
(2.02757 0.0731298 3.07238e-21)
(2.38548 0.0799127 0)
(0.160465 -0.0301212 7.9815e-19)
(0.191422 -0.0869322 3.76528e-19)
(2.27961 0.0897996 -6.8771e-22)
(2.46934 0.0957839 -1.07458e-23)
(2.47218 0.092924 0)
(2.25815 0.0874167 -3.26896e-22)
(1.31914 -0.244784 1.95872e-19)
(1.34936 -0.166672 -1.02772e-18)
(1.35632 -0.435093 -4.14472e-19)
(-0.163566 -0.241937 8.33254e-19)
(-0.151261 -0.156521 -1.05776e-18)
(-0.197371 -0.190721 9.9976e-19)
(-0.244918 -0.119871 0)
(-0.137321 -0.0717253 1.43548e-18)
(-0.120757 -0.0859728 -1.23903e-18)
(-0.29268 -0.147458 -1.27463e-18)
(-0.353116 -0.202951 -1.18639e-18)
(-0.24672 -0.164295 0)
(0.185241 0.987052 0)
(0.0909236 0.651324 0)
(0.0131054 0.392985 0)
(3.40461 -0.161138 -2.00026e-20)
(3.33706 -0.181473 0)
(3.39152 -0.189154 2.04947e-20)
(2.34162 -0.205846 1.02899e-18)
(2.37311 -0.217634 -3.77055e-19)
(2.368 -0.180463 0)
(2.13884 -1.84819 1.00203e-20)
(2.11066 -1.71459 -1.9643e-20)
(2.1671 -1.94327 5.60738e-21)
(2.09109 -1.53548 0)
(2.0762 -1.30913 1.68247e-20)
(2.07142 -1.03783 0)
(1.92497 -1.03306 0)
(2.07257 -0.731918 -6.69226e-20)
(1.91507 -0.738126 0)
(1.9471 -1.29396 1.51306e-20)
(1.97686 -1.51078 0)
(2.01267 -1.68494 -5.6674e-21)
(2.05582 -1.81575 9.12894e-21)
(2.0991 -1.91082 -5.59453e-21)
(2.07478 -0.401778 6.39869e-20)
(1.91182 -0.421202 2.13645e-21)
(2.1939 -2.00928 1.15546e-22)
(2.14091 -1.97859 7.55989e-21)
(2.21805 -2.0485 -3.87807e-20)
(2.08435 -0.0623525 -6.36032e-23)
(1.91839 -0.0862074 2.17911e-21)
(2.1802 -2.02195 -1.39944e-20)
(2.10026 0.274197 -6.18322e-20)
(2.12275 0.596092 6.17793e-20)
(1.93547 0.246804 -4.35138e-21)
(1.96284 0.565238 -8.33151e-21)
(2.24088 -2.07425 3.78026e-20)
(2.21479 -2.04949 9.00649e-21)
(2.1489 0.892471 0)
(1.99632 0.858143 8.22119e-21)
(2.2591 -2.08944 -4.27295e-24)
(2.24737 -2.06814 4.25866e-24)
(2.17826 1.15557 0)
(2.0343 1.11822 0)
(2.2714 -2.09995 0)
(2.2749 -2.08358 0)
(2.20831 1.37908 0)
(2.07527 1.33967 -3.38069e-21)
(2.27894 -2.11371 1.78489e-20)
(2.29658 -2.10333 4.25418e-24)
(2.23865 1.5611 -1.75298e-22)
(2.11779 1.52091 3.61127e-21)
(2.27943 -2.13631 -1.79356e-20)
(2.31241 -2.13252 0)
(2.26807 1.70086 0)
(2.16103 1.66084 0)
(2.27322 -2.16846 1.18054e-21)
(2.32147 -2.17161 -2.06482e-20)
(2.29613 1.80156 -1.85e-20)
(2.2036 1.76264 0)
(2.2601 -2.20721 1.13249e-21)
(2.32535 -2.21513 1.95853e-20)
(2.32259 1.86652 2.7032e-20)
(2.24429 1.83042 7.14747e-21)
(2.24098 -2.24488 -2.14632e-20)
(2.32365 -2.25543 0)
(2.34659 1.9023 -8.48283e-21)
(2.2827 1.87004 -4.76754e-21)
(2.216 -2.26845 1.23075e-20)
(2.32 -2.28024 -2.48745e-20)
(2.3679 1.91626 3.01225e-20)
(2.31867 1.88903 -3.40779e-20)
(2.18853 -2.26553 -1.37276e-20)
(2.31269 -2.27785 -4.74068e-22)
(2.38476 1.9149 0)
(2.34935 1.89323 -1.48387e-20)
(2.16145 -2.21975 3.16182e-20)
(2.30983 -2.23003 -6.33391e-20)
(2.39841 1.90487 0)
(2.37535 1.88889 0)
(2.07862 -2.22788 1.35975e-20)
(2.0314 -2.18697 6.06734e-20)
(2.13793 -2.11706 0)
(2.31232 -2.12357 3.61577e-20)
(2.16716 -2.2097 6.92394e-21)
(2.12363 -2.23035 -1.43584e-21)
(2.2336 -2.14703 0)
(2.20335 -2.17855 2.14327e-20)
(2.27054 -2.1089 3.76541e-23)
(2.25544 -2.1231 0)
(2.27991 -2.09727 0)
(2.27807 -2.10189 0)
(2.27178 -2.06638 0)
(2.27879 -2.08854 0)
(2.24963 -1.96277 -1.24372e-20)
(2.26154 -2.02864 -2.68545e-21)
(2.22869 -1.726 1.31718e-20)
(2.23856 -1.86409 1.19208e-20)
(2.22022 -1.31441 -2.86559e-20)
(2.2207 -1.54461 -3.49243e-20)
(2.23778 -0.724912 0)
(2.22827 -1.03952 0)
(2.26439 -0.0344323 1.53301e-22)
(2.24998 -0.385406 0)
(2.30001 0.641432 0)
(2.28119 0.312311 0)
(2.33965 1.20329 0)
(2.32004 0.941083 0)
(2.37366 1.60055 0)
(2.35756 1.42358 0)
(2.39978 1.82996 0)
(2.38755 1.7352 0)
(2.41868 1.92002 0)
(2.41034 1.88954 0)
(2.42779 1.92213 1.21053e-20)
(2.42502 1.92857 0)
(2.42771 1.9092 3.71718e-21)
(2.40772 1.895 -3.57656e-21)
(2.3974 1.88355 3.54839e-21)
(2.27762 1.85199 0)
(2.35693 1.86331 1.38207e-20)
(2.31961 1.86187 7.89622e-21)
(2.1817 1.78695 -2.38185e-21)
(2.23126 1.82896 8.14218e-21)
(2.07465 1.61531 -8.19988e-23)
(2.12919 1.71718 0)
(1.9685 1.29719 0)
(2.02091 1.47598 0)
(1.87449 0.823763 0)
(1.91912 1.07904 0)
(1.80702 0.226181 0)
(1.83606 0.536802 -1.40453e-26)
(1.78669 -0.418536 -1.17335e-22)
(1.79069 -0.0969302 0)
(1.80956 -1.01443 0)
(1.79251 -0.728456 0)
(1.88234 -1.47012 0)
(1.84165 -1.26439 0)
(1.98813 -1.76467 0)
(1.93171 -1.63787 6.2191e-21)
(2.09691 -1.92621 -1.3371e-21)
(2.04413 -1.85775 6.18809e-21)
(2.19992 -2.00654 0)
(2.15071 -1.97394 4.73508e-21)
(2.28547 -2.05024 0)
(2.24441 -2.02988 0)
(2.35151 -2.11154 0)
(2.32146 -2.07637 0)
(2.3957 -2.20477 0)
(2.37612 -2.15629 0)
(2.42663 -2.27409 6.08995e-21)
(2.41178 -2.24803 0)
(2.45637 -2.21823 3.24099e-20)
(2.44039 -2.26924 6.78354e-21)
(2.47873 -2.10423 -3.69604e-20)
(1.99116 -2.09536 -6.32993e-20)
(2.42372 1.89507 -7.3121e-21)
(2.39074 1.86268 1.35404e-20)
(2.32061 -1.95027 0)
(2.50584 -1.9215 0)
(1.95821 -1.94158 0)
(2.12393 -1.94895 0)
(1.98619 -2.16336 0)
(1.86175 -2.03732 -1.18514e-20)
(1.92204 -2.1231 -1.28555e-20)
(2.10815 -2.15617 -1.36895e-20)
(2.0486 -2.16921 2.83215e-21)
(2.20525 -2.11279 -3.7129e-23)
(2.16012 -2.13396 0)
(2.27039 -2.09247 0)
(2.24159 -2.09803 0)
(2.30876 -2.09309 0)
(2.2928 -2.09238 0)
(2.33152 -2.07088 0)
(2.32229 -2.08927 0)
(2.34254 -1.97031 0)
(2.33819 -2.0341 0)
(2.35711 -1.73082 5.86292e-23)
(2.34652 -1.8709 -1.373e-20)
(2.37504 -1.3111 6.79809e-23)
(2.36317 -1.54554 3.2374e-20)
(2.40663 -0.713953 0)
(2.39048 -1.03103 0)
(2.43917 -0.0215084 -7.77515e-23)
(2.42309 -0.372709 0)
(2.46905 0.649902 0)
(2.45487 0.323884 0)
(2.48965 1.20519 0)
(2.48088 0.945958 0)
(2.49821 1.59944 0)
(2.49541 1.42342 0)
(2.49653 1.82866 0)
(2.49821 1.73375 0)
(2.48782 1.91824 0)
(2.49269 1.8884 0)
(2.47067 1.91831 -8.34304e-21)
(2.48074 1.92589 0)
(2.41356 1.8887 0)
(2.41612 1.8845 -7.3093e-21)
(2.44135 1.88557 0)
(2.45762 1.90315 -7.824e-21)
(2.34324 1.8262 -1.34543e-20)
(2.38656 1.83044 -3.16173e-21)
(2.41954 1.86511 -2.75903e-20)
(2.4148 1.88242 0)
(2.24514 1.8028 0)
(2.2962 1.81858 2.05891e-20)
(2.12901 1.73026 -6.29937e-23)
(2.18884 1.7768 -8.19736e-21)
(2.00191 1.55698 8.19966e-23)
(2.06601 1.65914 0)
(1.87816 1.24328 0)
(1.93909 1.41888 0)
(1.77219 0.781365 0)
(1.82207 1.02983 0)
(1.70155 0.203387 0)
(1.73099 0.503169 1.40452e-26)
(1.68324 -0.416081 2.21177e-22)
(1.68567 -0.107423 0)
(1.72128 -0.982689 0)
(1.69431 -0.71128 0)
(1.81253 -1.42016 -2.81599e-21)
(1.76166 -1.2205 0)
(1.93873 -1.70675 0)
(1.87284 -1.58161 2.80389e-21)
(2.06997 -1.87114 -4.6849e-21)
(2.00567 -1.80053 -5.00784e-21)
(2.19243 -1.95568 0)
(2.13251 -1.92068 0)
(2.30077 -2.00658 0)
(2.24873 -1.98183 0)
(2.39234 -2.07707 0)
(2.34891 -2.03663 0)
(2.46841 -2.17754 0)
(2.43189 -2.12562 0)
(2.53759 -2.25253 -9.63452e-23)
(2.5033 -2.2235 0)
(2.61181 -2.19931 1.22987e-22)
(2.57354 -2.24952 0)
(2.70032 -1.9128 3.90461e-20)
(2.65412 -2.08993 -3.90198e-20)
(1.80478 -1.8936 -3.276e-20)
(2.54159 -1.67098 0)
(2.75266 -1.66598 9.61847e-20)
(2.33619 -1.71227 0)
(2.42223 1.87138 0)
(2.42622 1.83695 3.14244e-21)
(1.93245 -1.72148 -1.06063e-19)
(1.75188 -1.68429 -4.13305e-20)
(2.57575 -1.3657 -2.63336e-20)
(2.80439 -1.36183 -1.22861e-19)
(2.11692 -1.71735 0)
(2.46488 1.86535 -2.92529e-20)
(2.43468 1.84866 1.4317e-20)
(2.44521 1.87299 6.92553e-21)
(2.46197 1.84735 -3.44834e-20)
(1.61834 -1.63421 -1.23132e-19)
(1.70395 -1.40538 7.82566e-20)
(1.51263 -1.09669 3.42701e-19)
(1.57292 -1.38809 7.12357e-20)
(1.75445 -1.95624 -2.49707e-20)
(1.68028 -1.82285 9.8436e-20)
(1.91505 -2.08235 2.47261e-20)
(1.83396 -2.03918 2.22599e-20)
(2.06629 -2.09102 5.25159e-21)
(1.99315 -2.09474 5.15457e-21)
(2.18827 -2.06802 3.7129e-23)
(2.13129 -2.07903 0)
(2.27819 -2.06373 0)
(2.23756 -2.06214 0)
(2.34425 -2.07437 0)
(2.31441 -2.06975 0)
(2.39601 -2.05764 0)
(2.37163 -2.07348 0)
(2.43993 -1.95772 0)
(2.41756 -2.02169 0)
(2.4846 -1.71816 0)
(2.45954 -1.85839 0)
(2.53262 -1.29436 -5.06019e-25)
(2.50822 -1.5299 0)
(2.58106 -0.697827 0)
(2.55775 -1.01434 0)
(2.61827 -0.00826781 -7.803e-23)
(2.60135 -0.357689 0)
(2.64008 0.661011 0)
(2.63144 0.335672 0)
(2.64332 1.21365 0)
(2.6441 0.956279 0)
(2.62765 1.60103 0)
(2.63784 1.42882 0)
(2.59741 1.82313 0)
(2.61385 1.73153 0)
(2.56005 1.90722 0)
(2.57904 1.87983 0)
(2.51645 1.90273 -4.20538e-21)
(2.53898 1.91252 2.16641e-21)
(2.49182 1.88509 1.50638e-20)
(2.41583 1.88937 3.50726e-21)
(2.40039 1.8643 -1.45992e-20)
(2.4058 1.88126 1.10281e-20)
(2.42957 1.88677 0)
(2.33637 1.77665 9.31599e-21)
(2.43593 1.79529 2.77368e-20)
(2.38762 1.78551 -2.12893e-20)
(2.22043 1.74299 0)
(2.28153 1.76326 0)
(2.08735 1.66324 7.22278e-24)
(2.15586 1.7133 0)
(1.94394 1.48819 0)
(2.01584 1.59077 0)
(1.80585 1.18051 7.52791e-23)
(1.87349 1.35201 0)
(1.69097 0.733765 0)
(1.74468 0.973272 0)
(1.6188 0.180523 0)
(1.64836 0.46677 0)
(1.60468 -0.408849 -1.0386e-22)
(1.60391 -0.115334 0)
(1.6551 -0.945327 -8.38364e-23)
(1.62173 -0.688921 0)
(1.76367 -1.35807 0)
(1.70332 -1.1693 0)
(1.90616 -1.63339 0)
(1.83294 -1.51197 0)
(2.05453 -1.80064 0)
(1.98091 -1.72801 0)
(2.19401 -1.89307 0)
(2.12552 -1.85464 0)
(2.32253 -1.951 5.59856e-23)
(2.2599 -1.92241 0)
(2.43622 -2.02904 0)
(2.38115 -1.98537 0)
(2.54044 -2.13304 0)
(2.48886 -2.08033 0)
(2.64451 -2.20574 6.05146e-24)
(2.59213 -2.17867 0)
(2.75582 -2.148 -7.02861e-24)
(2.69865 -2.20039 0)
(2.87882 -1.86022 -1.5065e-22)
(2.81623 -2.03601 0)
(3.00796 -1.3258 1.01168e-19)
(2.94184 -1.62183 -2.14789e-20)
(2.84787 -1.01008 -2.68576e-20)
(3.06661 -0.988276 -4.91675e-20)
(1.91539 -1.44145 3.91214e-20)
(2.35776 -1.41343 5.02529e-20)
(2.40075 1.83798 -3.43005e-21)
(2.47887 1.80947 -2.19278e-20)
(1.67175 -1.06444 -9.42825e-22)
(2.61236 -1.01888 0)
(1.52325 -0.675502 -5.93336e-19)
(3.1169 -0.612655 -8.57765e-20)
(2.8888 -0.622276 -1.17809e-19)
(1.22155 -0.444952 8.17995e-19)
(1.24347 -0.186274 -1.42437e-19)
(2.12182 -1.4228 0)
(1.36708 -1.064 -7.39608e-20)
(1.27957 -0.757708 -4.27575e-20)
(1.52552 -1.5584 -6.43264e-20)
(1.45845 -1.33077 9.99116e-20)
(1.67935 -1.85838 2.5768e-20)
(1.5963 -1.73306 1.29584e-20)
(1.86312 -1.9875 -1.07562e-20)
(1.77007 -1.93979 -1.29652e-20)
(2.03865 -2.01497 0)
(1.95442 -2.00882 -5.74931e-23)
(2.18248 -2.01177 0)
(2.11557 -2.01338 0)
(2.294 -2.02117 -3.20165e-23)
(2.24288 -2.01394 0)
(2.38459 -2.0392 0)
(2.34199 -2.0317 0)
(2.46397 -2.02617 0)
(2.42506 -2.04015 0)
(2.53944 -1.92778 0)
(2.50096 -1.9913 0)
(2.61521 -1.68816 -5.68566e-23)
(2.57625 -1.82871 0)
(2.69048 -1.26602 -1.87115e-24)
(2.6535 -1.50036 0)
(2.75494 -0.675478 0)
(2.725 -0.988285 0)
(2.79633 0.0046516 1.53891e-22)
(2.77893 -0.339978 0)
(2.81051 0.663216 0)
(2.80699 0.343613 0)
(2.79577 1.2019 0)
(2.8068 0.951685 0)
(2.75398 1.57772 0)
(2.77784 1.41049 0)
(2.69509 1.79523 0)
(2.72593 1.70511 0)
(2.63037 1.87901 0)
(2.663 1.85154 0)
(2.56278 1.87395 2.05171e-21)
(2.59669 1.88417 0)
(2.48948 1.83474 0)
(2.52716 1.85558 3.6328e-21)
(2.4049 1.80196 2.00028e-22)
(2.44885 1.81557 0)
(2.37532 1.86584 1.48129e-20)
(2.35728 1.79382 -7.93131e-22)
(2.36377 1.83449 -7.26742e-21)
(2.41554 1.89733 -5.61176e-21)
(2.39295 1.88645 3.86928e-21)
(2.46946 1.88549 1.98793e-21)
(2.44134 1.8979 -1.87449e-21)
(2.52471 1.82363 0)
(2.4967 1.86117 1.49787e-20)
(2.44898 1.7413 5.80755e-21)
(2.55209 1.77458 1.16569e-20)
(2.49966 1.75735 -2.62442e-20)
(2.33517 1.71505 2.92845e-21)
(2.39162 1.72947 0)
(2.20471 1.67546 0)
(2.27194 1.69879 0)
(2.0571 1.58888 7.58112e-24)
(2.1323 1.6418 0)
(1.90132 1.41242 0)
(1.9791 1.51524 0)
(1.75284 1.11243 -7.52792e-23)
(1.82504 1.27915 0)
(1.6321 0.683855 0)
(1.68809 0.912994 0)
(1.55993 0.158562 0)
(1.58905 0.429749 0)
(1.55126 -0.39717 0)
(1.54729 -0.120704 0)
(1.61322 -0.900656 1.30476e-23)
(1.57367 -0.660074 0)
(1.73456 -1.29109 0)
(1.66788 -1.11196 0)
(1.88854 -1.5584 0)
(1.80962 -1.43886 0)
(2.04786 -1.72699 0)
(1.96868 -1.65342 0)
(2.20234 -1.82258 0)
(2.12603 -1.78197 0)
(2.34829 -1.88603 -5.59855e-23)
(2.27677 -1.8546 0)
(2.48273 -1.96936 0)
(2.41689 -1.92352 0)
(2.61349 -2.07406 0)
(2.54782 -2.02133 0)
(2.75135 -2.14527 9.03585e-23)
(2.6812 -2.11907 0)
(2.90131 -2.08626 -1.16606e-22)
(2.82474 -2.13869 0)
(3.06043 -1.8103 1.48942e-22)
(2.98083 -1.97828 0)
(3.2084 -1.29836 -2.17517e-20)
(3.13665 -1.58218 4.27399e-20)
(3.33252 -0.599075 2.34543e-20)
(3.2743 -0.966689 -5.24791e-20)
(3.15218 -0.206778 -1.56227e-21)
(3.36874 -0.203603 -5.30205e-20)
(1.90258 -1.1048 4.9116e-20)
(2.37892 -1.06683 0)
(1.67215 -0.72816 4.29034e-19)
(2.63678 -0.639117 0)
(2.4133 1.75652 2.96685e-21)
(2.35836 1.74553 -2.15758e-21)
(2.56755 1.84008 1.44614e-20)
(2.60599 1.79096 1.48458e-20)
(1.49319 -0.31465 3.94127e-19)
(2.91754 -0.209043 1.19003e-19)
(1.2558 0.119227 0)
(1.1376 -0.388189 7.93844e-20)
(3.17286 0.216207 5.73957e-20)
(3.39106 0.21037 -7.70699e-20)
(1.18052 -0.0848518 -1.57731e-19)
(2.12402 -1.07033 0)
(1.26508 -0.995045 0)
(1.18017 -0.701043 6.92107e-20)
(1.45384 -1.46436 0)
(1.36391 -1.24877 0)
(1.63225 -1.7529 0)
(1.54058 -1.63156 -1.34204e-20)
(1.83284 -1.88793 0)
(1.73187 -1.83546 0)
(2.02399 -1.93065 0)
(1.93214 -1.91637 0)
(2.18524 -1.94401 0)
(2.10977 -1.93766 0)
(2.31669 -1.96555 3.20166e-23)
(2.25525 -1.95323 0)
(2.43002 -1.98992 0)
(2.37538 -1.97965 0)
(2.53572 -1.98004 0)
(2.48313 -1.99248 0)
(2.6406 -1.88297 0)
(2.58764 -1.94604 0)
(2.74543 -1.64409 2.77336e-24)
(2.69302 -1.78421 0)
(2.84478 -1.2273 -3.11726e-24)
(2.7967 -1.45853 0)
(2.92387 -0.647979 0)
(2.88789 -0.954521 0)
(2.9687 0.0168092 -3.55823e-24)
(2.95111 -0.319926 0)
(2.97456 0.659092 0)
(2.97668 0.347614 0)
(2.94113 1.18327 0)
(2.96256 0.939953 0)
(2.87514 1.54825 0)
(2.91148 1.38586 0)
(2.79026 1.75975 0)
(2.83411 1.67197 0)
(2.69974 1.84117 0)
(2.74519 1.81457 0)
(2.60929 1.83456 0)
(2.65423 1.84546 0)
(2.51554 1.79361 -3.2588e-21)
(2.56301 1.81554 -3.6881e-21)
(2.4658 1.77275 6.36638e-21)
(2.34869 1.87323 7.96698e-21)
(2.30644 1.79297 0)
(2.32481 1.83805 7.35304e-21)
(2.41424 1.91 0)
(2.37879 1.89743 -8.1369e-21)
(2.49105 1.89927 -1.19556e-20)
(2.45191 1.91124 4.14431e-21)
(2.52976 1.87576 2.22869e-20)
(2.46199 1.68125 -2.26472e-21)
(2.58204 1.71563 -1.05883e-20)
(2.5249 1.69447 0)
(2.33791 1.64779 4.83035e-21)
(2.40214 1.66343 -4.84375e-21)
(2.19565 1.60243 0)
(2.26848 1.62792 0)
(2.03825 1.50986 7.68468e-24)
(2.11797 1.56466 0)
(1.87416 1.33262 0)
(1.95563 1.43476 0)
(1.71951 1.0417 0)
(1.79399 1.20281 0)
(1.59603 0.633396 0)
(1.65255 0.851227 0)
(1.52542 0.138294 0)
(1.55319 0.393389 0)
(1.52309 -0.381311 -6.22671e-23)
(1.51541 -0.123185 0)
(1.59393 -0.850946 7.07886e-23)
(1.54994 -0.626772 0)
(1.72417 -1.21792 0)
(1.65325 -1.04869 0)
(1.88522 -1.47662 0)
(1.80286 -1.35967 0)
(2.05235 -1.64613 0)
(1.96902 -1.57148 0)
(2.21726 -1.74427 0)
(2.13517 -1.7024 0)
(2.37687 -1.81244 0)
(2.29815 -1.77832 0)
(2.52846 -1.89888 0)
(2.45334 -1.85206 0)
(2.68147 -2.00008 5.79737e-23)
(2.60399 -1.94994 0)
(2.84595 -2.06333 -7.40596e-23)
(2.76199 -2.04155 0)
(3.02533 -1.9933 9.67578e-23)
(2.93384 -2.05151 0)
(3.21474 -1.71563 0)
(3.11975 -1.88132 0)
(3.38807 -1.23648 0)
(3.30614 -1.49979 0)
(3.52191 -0.576165 -1.72968e-22)
(3.45857 -0.927614 -2.32772e-20)
(3.58516 0.190404 1.22567e-19)
(3.56346 -0.200377 0)
(3.39509 0.619398 7.77293e-20)
(3.58816 0.581252 -3.56935e-21)
(1.90012 -0.716635 -1.49896e-19)
(2.38803 -0.67872 0)
(2.29765 1.74144 1.29219e-20)
(2.64318 1.73095 2.05859e-20)
(1.67578 -0.261982 7.68174e-20)
(1.34449 0.175228 1.31926e-20)
(1.49581 0.124903 -1.9376e-19)
(2.66196 -0.223441 0)
(2.93 0.219896 -2.94885e-20)
(1.22106 0.261494 1.36715e-19)
(1.22885 0.550928 -1.34184e-19)
(1.37629 0.545311 1.54845e-19)
(3.18092 0.634422 8.33547e-20)
(3.38361 0.997538 -5.08692e-20)
(3.57086 0.946967 -4.81225e-20)
(2.12697 -0.672378 0)
(1.11865 -0.373392 -3.3643e-21)
(1.17651 0.256081 -1.32509e-20)
(1.15118 -0.0566351 -2.64225e-20)
(1.2159 -0.935681 -2.76435e-20)
(1.14547 -0.667375 2.77988e-20)
(1.40849 -1.36947 -4.11068e-23)
(1.31249 -1.17043 0)
(1.60839 -1.64767 0)
(1.50638 -1.52801 0)
(1.82167 -1.78696 0)
(1.71553 -1.73156 0)
(2.02137 -1.84024 0)
(1.92528 -1.82024 0)
(2.19461 -1.86673 -2.52477e-23)
(2.11239 -1.85382 0)
(2.34388 -1.89922 0)
(2.2725 -1.88197 0)
(2.47917 -1.92953 0)
(2.41287 -1.91664 0)
(2.60958 -1.92155 0)
(2.54441 -1.93331 0)
(2.74071 -1.82441 0)
(2.67484 -1.88747 0)
(2.87106 -1.58742 5.40834e-23)
(2.80637 -1.72602 0)
(2.99083 -1.179 -4.19133e-24)
(2.93332 -1.40519 0)
(3.08267 -0.615871 0)
(3.04135 -0.913378 0)
(3.13026 0.028118 -1.39854e-22)
(3.11285 -0.297605 0)
(3.12737 0.648367 0)
(3.13516 0.347683 0)
(3.0764 1.15239 0)
(3.10749 0.91886 0)
(2.98751 1.50224 0)
(3.03575 1.34645 0)
(2.8782 1.70762 0)
(2.93424 1.62183 0)
(2.76432 1.78908 0)
(2.82119 1.76204 0)
(2.65259 1.78399 -5.34935e-23)
(2.70812 1.79415 0)
(2.54187 1.74297 3.2723e-21)
(2.59726 1.7651 0)
(2.42399 1.70305 -3.30845e-21)
(2.48424 1.72166 0)
(2.29226 1.68001 -2.73995e-21)
(2.35978 1.689 3.00441e-21)
(2.25396 1.79599 -7.01366e-21)
(2.21938 1.67183 0)
(2.23369 1.73894 -9.42795e-21)
(2.3202 1.88241 0)
(2.28322 1.84433 0)
(2.41112 1.92213 0)
(2.36342 1.90919 0)
(2.51311 1.90865 0)
(2.4613 1.92254 0)
(2.61406 1.84917 -1.47369e-20)
(2.56425 1.88454 -4.29682e-21)
(2.706 1.7406 -2.92647e-21)
(2.66179 1.80084 -2.78638e-20)
(2.61217 1.64721 -1.11266e-20)
(2.74847 1.67061 -2.14369e-21)
(2.67851 1.66332 4.60819e-21)
(2.48012 1.61292 -2.0463e-21)
(2.5473 1.62954 1.35155e-20)
(2.34391 1.57657 5.89901e-24)
(2.41584 1.59342 0)
(2.19343 1.5253 0)
(2.2709 1.55383 0)
(2.03 1.42759 7.58669e-24)
(2.11287 1.48389 0)
(1.86166 1.25072 0)
(1.94509 1.35113 0)
(1.70493 0.970085 0)
(1.77991 1.12454 0)
(1.58189 0.583533 0)
(1.63741 0.789157 0)
(1.51458 0.120164 0)
(1.54004 0.358403 0)
(1.51834 -0.362375 1.11758e-22)
(1.50719 -0.123036 0)
(1.5955 -0.797746 0)
(1.54839 -0.589686 0)
(1.73014 -1.14279 0)
(1.6574 -0.982592 0)
(1.89338 -1.39388 0)
(1.81 -1.27923 0)
(2.06417 -1.56227 0)
(1.97847 -1.4879 0)
(2.23702 -1.66094 3.35405e-23)
(2.15056 -1.61855 0)
(2.40756 -1.73182 0)
(2.32306 -1.69615 0)
(2.5739 -1.81938 0)
(2.49082 -1.77274 0)
(2.74698 -1.91654 -5.79737e-23)
(2.65889 -1.86891 0)
(2.93602 -1.97406 9.45685e-24)
(2.83929 -1.95506 0)
(3.14198 -1.90035 -1.81684e-22)
(3.03731 -1.96005 0)
(3.35456 -1.62077 0)
(3.24859 -1.78708 0)
(3.54889 -1.15502 0)
(3.45663 -1.40775 0)
(3.68646 -0.537522 2.11686e-23)
(3.62614 -0.864746 0)
(3.74671 0.188682 0)
(3.72872 -0.180102 0)
(3.72563 0.898579 6.0783e-20)
(3.74595 0.556741 0)
(3.52996 1.26716 -7.20227e-21)
(3.67638 1.19964 -8.83427e-20)
(1.90602 -0.307459 0)
(1.2066 0.538083 -1.83365e-19)
(1.67165 0.151487 -5.26592e-20)
(2.29409 1.61408 2.73579e-21)
(2.21659 1.60287 0)
(2.77406 1.73609 -2.82047e-21)
(2.82231 1.66688 6.35408e-21)
(2.40161 -0.254485 0)
(2.6734 0.204204 0)
(1.53633 0.482078 0)
(2.94259 0.640131 2.90409e-20)
(3.17508 1.0255 5.03824e-20)
(3.3582 1.33072 0)
(3.47087 1.53139 -1.00216e-19)
(3.60392 1.44993 7.14865e-20)
(2.13535 -0.24846 0)
(1.18 0.226636 1.13031e-23)
(1.26891 0.823149 -4.48269e-20)
(1.26513 0.768871 1.41487e-19)
(1.21675 0.502118 -4.8522e-20)
(1.13602 -0.352048 1.37106e-20)
(1.1512 -0.0549452 2.62097e-20)
(1.21504 -0.877359 0)
(1.15737 -0.629199 0)
(1.39568 -1.27428 4.10834e-23)
(1.30192 -1.09145 0)
(1.60349 -1.54019 0)
(1.49663 -1.42383 0)
(1.82407 -1.68257 0)
(1.71464 -1.62461 0)
(2.02948 -1.74532 0)
(1.93038 -1.72021 0)
(2.21093 -1.78277 2.52477e-23)
(2.1237 -1.76444 0)
(2.37434 -1.82396 0)
(2.29474 -1.80278 0)
(2.52881 -1.85846 0)
(2.45232 -1.84393 0)
(2.68116 -1.85064 0)
(2.60488 -1.86262 0)
(2.83534 -1.75299 0)
(2.75808 -1.81605 0)
(2.98739 -1.51953 -4.60271e-23)
(2.91228 -1.65568 0)
(3.12442 -1.12261 -5.03858e-24)
(3.05892 -1.34179 0)
(3.22682 -0.579997 0)
(3.18144 -0.866063 0)
(3.27619 0.0377119 5.70244e-24)
(3.25887 -0.27444 0)
(3.26462 0.631227 0)
(3.27795 0.343684 0)
(3.19701 1.11215 0)
(3.23721 0.889432 0)
(3.0875 1.4472 0)
(3.14621 1.29752 0)
(2.95753 1.64719 0)
(3.02377 1.56312 0)
(2.82399 1.72855 0)
(2.8905 1.70119 0)
(2.69396 1.72473 1.01914e-22)
(2.7583 1.73428 0)
(2.56739 1.68428 4.24581e-23)
(2.63017 1.70634 0)
(2.43715 1.64243 -5.63907e-21)
(2.50315 1.66253 5.4312e-21)
(2.36782 1.62633 -4.81816e-21)
(2.20167 1.79339 -1.89817e-21)
(2.14461 1.66062 -3.78577e-22)
(2.16979 1.73315 5.42453e-21)
(2.29162 1.88397 0)
(2.24217 1.84373 0)
(2.40681 1.92461 7.77242e-26)
(2.34698 1.91211 0)
(2.53494 1.90822 0)
(2.46937 1.9244 0)
(2.66088 1.84629 -8.36474e-21)
(2.59925 1.88177 8.75241e-21)
(2.72012 1.79689 -1.13326e-21)
(2.64131 1.57374 3.54293e-22)
(2.78784 1.59467 5.04695e-21)
(2.71257 1.5885 -7.39073e-22)
(2.50111 1.53994 1.83395e-21)
(2.57143 1.55731 -1.8366e-21)
(2.35418 1.50244 2.95414e-23)
(2.43015 1.52106 0)
(2.19796 1.44525 2.38131e-23)
(2.27875 1.47681 0)
(2.03156 1.34327 7.31291e-24)
(2.11635 1.401 0)
(1.86256 1.16807 0)
(1.94655 1.26616 0)
(1.7073 0.898908 0)
(1.78154 1.0459 0)
(1.58756 0.535229 0)
(1.64113 0.727904 0)
(1.52508 0.104589 0)
(1.54775 0.325441 0)
(1.53404 -0.340578 -4.94904e-23)
(1.52014 -0.120068 0)
(1.61491 -0.742718 -3.53067e-23)
(1.56619 -0.550058 0)
(1.74982 -1.06711 0)
(1.6774 -0.915374 0)
(1.91144 -1.31042 0)
(1.82881 -1.19848 0)
(2.0831 -1.47626 0)
(1.9964 -1.40298 0)
(2.26102 -1.57386 -3.35405e-23)
(2.1716 -1.53166 0)
(2.43861 -1.64648 2.84207e-23)
(2.35037 -1.60984 0)
(2.6152 -1.73208 0)
(2.52642 -1.68727 0)
(2.80238 -1.82116 0)
(2.70687 -1.77809 0)
(3.00716 -1.86805 9.8013e-24)
(2.90246 -1.85449 0)
(3.22929 -1.78667 1.57553e-22)
(3.1165 -1.84924 0)
(3.4576 -1.51062 0)
(3.34388 -1.67356 0)
(3.66934 -1.06126 0)
(3.56766 -1.30394 0)
(3.82012 -0.482027 2.18935e-23)
(3.75576 -0.786725 0)
(3.87769 0.191568 0)
(3.86084 -0.151137 0)
(3.84482 0.846145 -3.53358e-20)
(3.872 0.528785 0)
(3.71096 1.35917 -3.09069e-20)
(3.78735 1.12768 6.48963e-20)
(1.39382 0.859659 2.3049e-19)
(1.33424 0.877563 1.98792e-19)
(3.51567 1.64191 2.80624e-20)
(3.61053 1.53696 -2.80445e-20)
(1.91061 0.132731 0)
(2.13689 1.59108 -4.7978e-21)
(2.86584 1.58999 2.29159e-20)
(1.35164 0.999802 -2.96129e-20)
(2.41038 0.183676 0)
(1.35163 1.03637 -1.03121e-20)
(1.69811 0.557842 0)
(2.68847 0.627046 0)
(1.59154 0.860708 0)
(2.94307 1.03004 0)
(3.15728 1.36356 0)
(3.30608 1.60447 9.99121e-21)
(3.39707 1.73337 2.29179e-20)
(3.4138 1.77221 0)
(3.50008 1.65881 4.24575e-20)
(2.15009 0.174879 0)
(1.28114 0.680746 -5.57555e-20)
(1.46446 1.22093 -1.01639e-19)
(1.47 1.0735 -4.62102e-20)
(1.36993 0.891219 5.64224e-20)
(1.20159 0.194363 -4.33126e-21)
(1.23431 0.445599 1.97094e-20)
(1.17126 -0.325833 -1.01957e-20)
(1.17303 -0.0607933 8.76783e-24)
(1.24844 -0.812759 -2.91841e-23)
(1.19692 -0.582034 0)
(1.41417 -1.1791 -2.60163e-23)
(1.32579 -1.01061 0)
(1.61722 -1.43034 0)
(1.51205 -1.31896 0)
(1.83679 -1.57443 0)
(1.72723 -1.51412 0)
(2.04539 -1.64699 0)
(1.94399 -1.61653 0)
(2.23366 -1.69462 0)
(2.14226 -1.67152 0)
(2.40804 -1.74185 0)
(2.32218 -1.71824 0)
(2.57746 -1.77766 0)
(2.49301 -1.76296 0)
(2.74787 -1.76854 0)
(2.66232 -1.78129 0)
(2.92142 -1.67076 0)
(2.83452 -1.73354 0)
(3.09128 -1.44232 4.89124e-24)
(3.00761 -1.57517 0)
(3.24256 -1.05939 -5.43422e-23)
(3.17061 -1.27028 0)
(3.35295 -0.540966 0)
(3.30447 -0.813793 0)
(3.40217 0.0453523 1.17324e-22)
(3.386 -0.250993 0)
(3.38227 0.608063 0)
(3.40074 0.33565 0)
(3.30002 1.06296 0)
(3.34811 0.85233 0)
(3.17339 1.3817 0)
(3.24076 1.23875 0)
(3.02646 1.576 0)
(3.10114 1.49363 0)
(2.87664 1.65812 0)
(2.95127 1.62985 0)
(2.7314 1.65707 -4.84203e-23)
(2.80327 1.66511 0)
(2.59137 1.61858 -5.15295e-24)
(2.66085 1.63968 0)
(2.4518 1.57648 -2.54147e-21)
(2.5217 1.59659 0)
(2.30062 1.54292 0)
(2.37783 1.55858 5.94948e-21)
(2.13448 1.51198 5.17557e-21)
(2.21964 1.52893 0)
(2.07116 1.64199 6.46156e-21)
(2.04431 1.48638 0)