/*--------------------------------*- C++ -*----------------------------------*\
  =========                 |
  \\      /  F ield         | OpenFOAM: The Open Source CFD Toolbox
   \\    /   O peration     | Website:  https://openfoam.org
    \\  /    A nd           | Version:  10
     \\/     M anipulation  |
\*---------------------------------------------------------------------------*/
FoamFile
{
    format      ascii;
    class       surfaceScalarField;
    location    "9.5";
    object      phi;
}
// * * * * * * * * * * * * * * * * * * * * * * * * * * * * * * * * * * * * * //

dimensions      [0 3 -1 0 0 0 0];

internalField   nonuniform List<scalar> 
57492
(
-0.0270982
0.00274228
0.00597733
0.0183786
0.00120502
-0.0230057
-0.00529752
-0.00328787
0.010782
0.0313166
-0.0388108
0.0989526
0.072341
-0.0163945
-0.154899
-0.209888
0.0849626
0.223878
0.0557755
-0.0526881
-0.0291409
0.0260536
-0.0949619
0.0202995
-0.00773267
0.082395
0.0229018
-0.0620882
0.0255765
-0.0999125
0.0947935
-0.0204575
0.0230076
0.0913357
-0.0887668
0.0090261
0.00573314
-0.0144011
-0.000358109
-0.00541007
0.000461015
0.0139751
-0.0076716
0.0036692
-0.00140767
0.00137742
-0.00331589
0.101554
-0.0870311
-0.0375571
0.0230341
0.00311449
0.0769125
0.0215271
-0.00421255
0.0152391
0.087223
-0.0982496
-0.0141842
0.0863598
-0.0763881
0.0144126
-0.0309217
0.0165092
-0.0868223
0.0577996
0.0434353
-0.117683
0.0134123
0.0860852
0.0181852
0.0213929
-0.119045
-0.0200308
0.00263989
0.00395974
-0.0174896
0.0108899
0.010313
-0.00905736
0.00138421
-0.143991
0.155249
0.0119886
-0.0232469
-0.174862
0.0709924
-0.040121
-0.061932
0.020436
0.032745
0.00875108
-0.042633
-0.0221617
0.00286264
-0.0261485
-0.0694375
0.0881391
0.0074468
-0.0327501
0.0117785
-0.00517689
0.0592272
-0.0375335
-0.036028
0.0143342
-0.0474592
0.0398662
0.0668203
-0.0717063
-0.124485
0.0744761
0.121715
-0.126479
-0.0397219
0.0944943
-0.0651052
-0.00944073
0.0745459
-0.0170266
-0.0480786
-0.0841728
0.101638
-0.0344916
0.0169712
-0.0567813
-0.0443627
-0.0538496
0.0741491
-0.0311075
-0.113193
0.0549449
0.0582483
-0.204563
0.0913699
0.0875322
-0.00322835
-0.00468544
-0.0796184
0.0623079
-0.0150228
0.0402471
-0.00215414
0.089703
-0.0907772
0.0963824
0.0217839
-0.0952644
0.0951796
-0.00652991
0.112618
-0.0431967
-0.0837495
0.0143287
0.127059
0.00734192
0.0706148
-0.0392698
0.0638346
0.0398459
0.113164
-0.101687
-0.0112011
0.00919396
0.103694
-0.104984
-0.00410347
0.00740056
0.0164689
0.0970951
-0.0959447
-0.0176193
0.00943638
-0.09288
-0.0971508
0.114062
0.115681
-0.132591
-0.00802181
0.121475
-0.210604
8.44296e-05
0.00244175
-0.000151455
-0.00237473
0.00196907
0.00178456
0.00263722
0.00683676
-0.00750491
0.00472558
0.000353399
-0.00239136
0.00223991
0.00012565
-0.00251701
0.243356
0.083416
-0.168873
-0.157899
0.0694517
-0.0499985
0.223902
-0.208279
0.0671308
0.2106
0.0348983
-0.159762
0.0261876
-0.079165
0.0639261
-0.0109487
0.0687626
-0.0802116
0.0376366
0.0039236
-0.0022847
0.00110338
0.00770561
0.00219532
0.0212015
0.00488269
-0.087436
0.158027
0.0665028
-0.137094
0.0906133
-0.109287
0.0466259
0.146125
-0.0347237
0.376019
-0.0383802
-0.107838
-0.229801
0.0928623
0.204702
0.0784554
0.0518057
-0.143721
0.184777
0.00679516
-0.010083
0.0175772
0.0556107
0.083388
-0.0398426
-0.0991561
0.0755231
0.0114042
0.0135223
-0.00500992
-0.00851238
0.0201208
-0.0065985
-0.198195
0.0984286
-0.0768498
0.176616
-0.168424
-0.0948016
0.0650304
-0.0952455
0.0931656
-0.166344
0.113175
-0.00261048
-0.0563731
-0.0541917
-0.0500729
0.127311
0.0359374
-0.0616641
-0.00735304
0.0189442
-0.0545692
-0.00970538
-0.0212446
-0.0896976
-0.0903513
0.0192806
0.0345576
0.0365131
0.0200734
-0.0537659
-0.0566588
0.0130926
0.00800412
-0.00102339
0.0232406
0.00913266
0.0480209
0.00977729
-0.0564406
0.035196
0.0071836
-0.0636242
0.0086643
0.0114565
0.117893
0.0764562
-0.00868136
0.0422299
-0.134224
-0.015413
0.0956779
-0.0672083
-0.0130567
-0.0229644
0.100838
-0.0932869
0.0822918
0.0507578
-0.0172035
-0.115846
-0.0233875
0.00828461
0.0973947
0.107806
-0.0804359
-0.0341418
-0.0723291
0.0218721
0.0845989
-0.034482
0.0837451
-0.0834049
0.00303846
-0.10985
-0.00365675
-0.00239812
0.000118795
-0.030856
0.0219789
0.0100822
0.0179272
-0.00682215
-0.0419611
-0.0187912
0.0137126
-0.0146921
0.0278154
0.00670708
-0.0198304
0.0506504
-0.0529531
-0.0123894
-0.0288039
0.0605719
0.0188825
-0.0149398
0.0139513
-0.169101
0.0960661
0.171464
0.182189
-0.0660917
-0.210899
-0.0811815
0.0942699
-0.00593076
-0.0518874
-0.0116193
-0.039412
0.000731186
-0.00129844
-0.0169694
0.0110333
0.00723448
-0.0119466
0.00386886
0.00677927
-0.0139549
-0.014961
-0.0171116
-0.0266912
0.00439075
-0.0439105
-0.0250885
-0.0529137
-0.058233
0.0651722
0.0459745
0.000732767
0.030265
-0.0839115
-0.0765075
0.0190073
-0.119632
0.0417953
-0.00898537
-0.113766
0.00737369
-0.0132397
-0.00516794
-0.0859072
0.0791355
0.0119397
-0.000405874
-0.0890637
0.0843017
-0.00966212
-0.280808
-0.0734005
0.0872896
0.0805917
-0.112197
0.10969
-0.017493
-0.00168629
0.00969041
0.000852038
-0.00253833
0.0233915
-0.00504474
0.098788
-0.0615883
-0.0497746
0.0125749
0.0874004
0.00923349
0.142933
-0.00288412
-0.148071
0.0409506
0.107454
-0.00547118
0.0139701
-0.082731
0.109712
-0.00202598
0.00287802
0.0368274
-0.119341
-0.11261
0.0758701
0.144606
0.0598642
-0.00314812
-0.0625526
0.00583652
0.019348
-0.00694301
-0.0765438
0.0142896
0.10212
0.0106768
-0.0678726
-0.0109217
0.00127048
0.0113303
0.0214646
-0.0274193
-0.00537565
0.0143457
-0.00113351
-0.00188184
0.0613519
0.033445
-0.0804512
-0.038625
0.0721146
-0.0248253
0.198274
-0.163821
-0.073078
-0.00255969
-0.0958761
0.112725
-0.21515
-0.00971069
-0.164019
-0.0872781
0.0361468
0.080603
0.0651953
-0.132386
0.0503411
0.12405
-0.0937883
0.0473393
-0.0826402
0.0482778
-0.0129768
0.0513584
-0.0795851
0.075566
0.115046
0.0362347
0.108335
-0.00629535
-0.108187
0.00614779
0.119037
-0.0154774
0.00477491
0.121063
-0.0150583
-0.00282077
-0.103184
0.0864171
-0.0255227
0.0601682
0.10174
-0.0255066
0.0195915
-0.0958247
0.0222858
0.1036
-0.0241457
-0.0927789
-0.0319492
0.0992214
0.0177491
-0.0886559
-0.0338779
0.0865276
-0.0449415
-0.0791936
0.0390497
0.0850854
-0.0469952
-0.080825
0.0828786
0.0435362
0.0771418
-0.0257064
-0.0949716
0.0762037
-0.0796627
-0.0506739
0.0507587
0.0761189
-0.0402198
0.0666878
-0.1009
0.089401
-0.0142073
-0.130674
0.0119091
0.132672
-0.0139072
0.0347131
0.0507833
0.0612683
-0.040363
-0.0716886
0.0305057
0.0714208
-0.0511432
0.0109021
-0.0233509
-0.00634244
-0.073289
-0.110434
0.0726589
-0.00522478
0.00409126
0.000543968
-0.00576874
-0.00711449
-0.122867
0.0907115
-0.105061
-0.00413425
0.102081
0.00233728
-0.110471
0.0030725
-0.0460874
0.0211382
0.04447
-0.0195208
0.0530522
-0.0482832
-0.0508564
-0.00527147
0.0794619
0.000481559
-0.00036178
-0.0025179
-0.00191666
0.00239822
-0.00227844
0.00168042
-0.00124117
0.00428633
-0.00135214
0.00303256
-0.00259331
0.00432727
-0.00142545
0.00741122
-0.00505705
0.00938431
-0.00648249
0.00943725
-0.00129328
-0.0230838
-0.00392827
0.0133655
-0.00522156
0.0313081
0.0814563
-0.10448
0.0370653
-0.110005
0.104248
0.115178
0.00334374
-0.0350462
-0.0630811
0.0349377
0.0631897
-0.0142778
0.0660561
-0.0868245
0.00880382
-0.0861628
0.0510665
-0.0540548
-0.0469054
0.0498938
0.0494705
-0.0405032
0.0420992
-0.0524688
-0.0565544
0.0549684
0.0484522
-0.0336733
0.0346915
0.0484795
-0.0250501
0.0250229
-0.0168753
0.0496199
0.0157348
0.0475999
-0.0476116
-0.0168636
-0.010975
0.052628
0.0079669
0.0466758
-0.0100509
-0.047237
-0.0254247
-0.048908
-0.0320022
-0.0511572
-0.0382541
-0.0545901
-0.0434725
-0.0565605
-0.0504985
-0.00271646
0.0566587
-0.0013142
0.0454725
-0.00151318
-0.0573049
-0.0588368
0.0595873
-0.0605592
-0.0533062
-0.0608342
-0.064071
0.0660684
0.0076866
0.0590867
-0.0101146
0.0472363
0.0059228
-0.0655769
-0.0558165
0.061864
0.015206
-0.0179833
0.0218695
0.0652389
-0.0252444
0.0493586
0.0130837
0.0519883
0.0192398
-0.0635231
-0.0669152
0.0663674
-0.0682004
-0.0608996
0.0277248
0.0686558
-0.0311417
0.0548086
0.0249046
-0.0664218
-0.0697299
0.0692365
-0.0712575
-0.0633647
0.0324209
0.0725831
-0.0363483
0.0580395
0.02919
-0.0685943
-0.072036
0.0709005
-0.0737747
-0.0660772
0.0362982
0.0762111
-0.0399261
0.0612146
0.0331231
-0.0703456
-0.0745093
0.0728188
-0.076579
-0.0675413
0.038997
0.0802106
-0.0429966
0.0646926
0.035519
-0.0717305
-0.0764507
0.073672
-0.0787592
-0.0695503
0.0411116
0.0835907
-0.0444917
0.0679573
0.0378469
-0.0728809
-0.0786714
0.0751016
-0.0808805
-0.0707596
0.0422446
0.0871527
-0.0458066
0.0715179
0.038684
-0.0743822
-0.0783403
0.0740511
-0.0814751
-0.0737875
0.0432231
0.0897295
-0.0457999
0.0740923
0.0406487
-0.0767197
-0.079294
0.0776734
-0.0831066
-0.0750883
0.0436024
0.0920684
-0.0459413
0.076315
0.0413797
-0.0786405
-0.0788998
0.0782463
-0.0827118
-0.0790353
0.0476122
0.0895671
-0.0451109
0.0816274
0.0422999
-0.0810588
-0.0797644
0.0819234
-0.0837866
-0.079984
0.0469995
0.0863416
-0.043774
0.0854786
0.0431483
-0.0832236
0.0833489
-0.0798898
-0.0858279
-0.0811822
0.0432332
-0.0448946
0.088003
0.0875107
0.0412011
-0.0768061
0.0779674
0.080762
-0.0761488
0.0826917
-0.0835598
0.0850439
-0.0813738
-0.0836306
-0.0857572
-0.0770669
0.0758117
0.0789286
0.0791469
-0.0727375
0.0712696
0.0765695
0.0771252
-0.0695895
0.067675
0.0747334
0.075352
-0.065581
0.063274
0.0715434
0.0729944
-0.0608264
0.0609675
0.0659273
0.068815
-0.0586306
0.0550476
0.0585513
0.0619243
-0.054749
0.0524642
0.0443841
0.0501924
-0.0500467
0.0490104
0.0260591
0.0371089
-0.0478866
0.0485902
0.00726326
0.0168587
-0.0497575
0.0514647
-0.0118218
-0.00248147
-0.0536745
0.0562383
-0.0278082
-0.0201932
-0.0590414
0.062019
-0.039326
-0.0339448
-0.0650673
0.0681354
-0.0460647
-0.0429743
-0.0711229
0.0740137
-0.0486974
-0.0474792
-0.0767164
0.0792817
-0.0485066
-0.0485025
-0.0819036
0.0849918
-0.0468623
-0.0477328
0.086239
-0.0461418
0.0421356
-0.0426305
0.088498
0.0401917
0.0894546
0.0814163
-0.0767813
0.0376649
-0.0849729
0.0873137
0.0388603
0.0395917
0.0738517
-0.0699208
0.0367177
0.0384502
0.0667979
-0.0635614
0.0346104
0.0355612
0.0603482
-0.0571605
0.0299353
0.0323059
0.0541471
-0.0513568
0.0221143
0.0261766
0.0489346
-0.0469439
0.011093
0.0168176
0.0455542
-0.0447552
-0.0023121
0.00453309
0.0454839
-0.0457226
-0.0166249
-0.00932224
0.0476616
-0.0489245
-0.0307393
-0.0234857
0.0510225
-0.0533821
-0.0411129
-0.0361561
0.0568952
-0.0600312
-0.0501702
-0.0469854
0.0614022
-0.064113
-0.0581888
-0.0544454
0.0668341
-0.0695427
-0.0633685
-0.0606437
0.0721638
-0.074634
-0.0670801
-0.0649202
0.0768945
-0.0797896
-0.0708924
-0.0684991
0.0821438
-0.0856761
-0.075503
-0.0727341
0.0882252
-0.0887834
-0.0806241
-0.0774349
-0.0913617
-0.0810522
-0.0754373
0.0843323
0.0889629
-0.0453545
0.0372518
0.0902536
-0.0826306
0.0844864
-0.087613
-0.0803955
-0.0935968
-0.0849674
0.084185
-0.0746548
-0.0818548
-0.0735752
0.0732356
0.0811016
0.0727004
-0.0716844
0.0833164
0.0818168
-0.0728935
0.0727444
0.0790776
0.079489
-0.0720132
0.0709624
0.0776203
0.0778565
-0.0696319
0.06806
0.0763054
0.0766825
-0.0662746
0.0643089
0.0735092
0.0747798
-0.0621926
0.0597701
0.0683497
0.0709313
-0.0574389
0.0564141
0.0595761
0.0642555
-0.0535245
0.0520918
0.0458168
0.053082
-0.0524979
0.0513543
0.0272027
0.0367029
-0.0513598
0.052155
0.00646799
0.0168532
-0.0534579
0.0551884
-0.0135523
-0.00378437
-0.0572884
0.0597053
-0.030225
-0.0222932
-0.0623197
0.0650876
-0.0420939
-0.0365592
-0.0679036
0.0707362
-0.0488973
-0.0457903
-0.0734899
0.0761472
-0.0513547
-0.0502329
-0.0786359
0.0809733
-0.050844
-0.0509913
-0.0829534
0.0847562
-0.0486651
-0.049713
-0.0432516
0.0415014
0.0902481
-0.0443791
0.0900904
-0.0858294
0.0877809
-0.0473059
-0.047215
0.0859301
-0.0832748
0.036205
0.0877588
0.0354231
-0.0386498
0.0381337
0.0907697
0.0923062
0.0803622
-0.0764874
0.03379
0.0366791
0.0725608
-0.0695698
0.0337267
0.0345235
0.0665461
-0.0634022
0.0314665
0.0325375
0.0603081
-0.0572475
0.0268748
0.0292117
0.0543831
-0.0517503
0.0194814
0.0233123
0.0494978
-0.0476902
0.00928539
0.0145651
0.0464507
-0.0458054
-0.00295742
0.00329354
0.0457357
-0.0463244
-0.0160361
-0.0093919
0.0475594
-0.0498853
-0.0284134
-0.0222507
0.0522298
-0.0541078
-0.0392348
-0.0338116
0.0575118
-0.0595269
-0.048155
-0.0435815
0.0623029
-0.0651398
-0.0553519
-0.0516694
0.0679607
-0.0707884
-0.0605408
-0.0578227
0.0735495
-0.0762147
-0.0644148
-0.0621592
0.0787224
-0.0810958
-0.068519
-0.0659913
0.0833831
-0.0856551
-0.073231
-0.0704469
0.0879211
-0.0909566
-0.0775886
-0.0751689
0.0933492
-0.0959237
-0.077821
-0.0786596
-0.0702655
0.0827661
-0.0791207
0.0797309
-0.094207
-0.0988156
-0.0762288
0.0794972
-0.0873792
-0.0460843
0.089486
0.0899546
0.0359379
0.0837853
-0.0820285
-0.0764117
0.0824642
-0.0689444
-0.0743
0.0751461
-0.0950532
-0.0723767
-0.100739
-0.0843861
0.0892955
-0.0884173
-0.0481841
0.0897429
-0.0465317
0.0380764
-0.0387393
0.0914326
0.0348529
0.0931781
-0.0639143
0.0668156
0.0795629
0.0793579
-0.0799413
-0.0683611
0.0608701
-0.0795123
0.0706745
-0.0520324
0.0763138
-0.0687543
0.0703596
0.081711
0.0808274
-0.0710368
0.0719415
0.0801969
0.0811397
-0.0721366
0.0721902
0.0790241
0.0792939
-0.0718349
0.0711425
0.0783127
0.0782117
-0.0701757
0.0689601
0.077521
0.0776494
-0.0675248
0.0658792
0.0751548
0.076215
-0.064038
0.0620693
0.0703184
0.0727725
-0.060199
0.0584297
0.0613454
0.0661258
-0.0570439
0.0560856
0.0467751
0.0544678
-0.0555237
0.0554758
0.0272506
0.0372647
-0.0559664
0.0569238
0.00551057
0.0163626
-0.0582586
0.0599533
-0.015247
-0.0051191
-0.0619369
0.0641736
-0.0324617
-0.0242768
-0.0665599
0.0690586
-0.0445926
-0.0389455
-0.0715749
0.0740901
-0.0514125
-0.0483066
-0.0765214
0.07886
-0.0536932
-0.0526643
-0.081045
0.083082
-0.052881
-0.0531763
-0.0849918
0.0862238
-0.0498971
-0.0516228
-0.0494085
-0.0413266
0.0389219
0.0926529
0.0430725
-0.0455464
0.09196
0.0918364
0.0924887
0.0849398
-0.0819798
0.0332451
-0.0874621
0.089828
0.0335721
0.0329007
0.0778514
-0.0758211
0.0317598
0.0325506
0.0724717
-0.0696101
0.0308651
0.0311741
0.0667015
-0.0637133
0.0284782
0.029629
0.0607857
-0.057908
0.023997
0.0262842
0.0552402
-0.0528048
0.017046
0.0206445
0.0507523
-0.0491298
0.00766291
0.0125127
0.0480484
-0.0475184
-0.00348733
0.0022121
0.0475762
-0.048261
-0.0153513
-0.00933412
0.0495227
-0.0512458
-0.0266903
-0.020989
0.0533442
-0.0557659
-0.0368132
-0.0317132
0.0583035
-0.0609435
-0.045515
-0.0410439
0.0636672
-0.0664627
-0.0525564
-0.0489458
0.0693096
-0.0722126
-0.0576378
-0.0549758
0.0750732
-0.0778813
-0.0616068
-0.0592985
0.0805839
-0.0832365
-0.0658664
-0.0632887
0.0858465
-0.0884746
-0.0706028
-0.0678369
0.0911243
-0.0939011
-0.0748118
-0.0725193
0.0969922
-0.0991108
-0.0757024
-0.0755685
0.102222
-0.106683
-0.0679155
-0.0731181
-0.0641316
0.067556
-0.104163
-0.109294
-0.06152
-0.077917
-0.078436
0.0773871
-0.0896202
-0.0462125
0.0904089
0.0922952
0.0323857
-0.0722048
-0.0756686
0.0694568
-0.096954
-0.0530176
-0.0636176
0.111364
0.0551199
-0.0529781
-0.111436
0.0567096
-0.105753
-0.0444176
0.0636511
0.0602283
-0.0455469
0.0455993
-0.084916
-0.0580835
0.0598594
0.0688987
0.064899
-0.0593314
-0.0621116
0.0645513
0.0771232
0.0740615
-0.0662227
0.0680358
0.079898
0.0791559
-0.0697968
0.0707549
0.0792389
0.0793786
-0.0715795
0.0720417
0.0785619
0.0784692
-0.0720959
0.0718015
0.0786071
0.0781576
-0.0712243
0.0703976
0.0783477
0.0782266
-0.0693502
0.0680959
0.0764091
0.0772623
-0.0666971
0.0652195
0.071796
0.0741713
-0.0638135
0.06258
0.0625789
0.0675318
-0.0616496
0.0610712
0.0473535
0.0553982
-0.0608828
0.0611029
0.0270305
0.0374531
-0.0617249
0.0627206
0.00451485
0.0157405
-0.0640474
0.0656523
-0.0168519
-0.00644585
-0.0674632
0.0694462
-0.0344447
-0.0260877
-0.0715178
0.0736532
-0.046728
-0.0410172
-0.0757808
0.0778929
-0.0535246
-0.0504341
-0.0799266
0.081881
-0.0556477
-0.054698
-0.0837031
0.0854003
-0.0545782
-0.0549984
-0.0867303
0.0887954
-0.0519622
-0.0529527
-0.0896067
0.0902327
-0.04881
-0.0502198
-0.0914682
0.0912174
-0.0459617
-0.0477672
-0.0429265
0.0417677
0.0931187
0.0459855
-0.0479035
0.0931355
0.0934679
-0.0396259
0.0390158
0.093263
0.0939781
-0.0376246
0.0353535
0.0937038
0.0938799
-0.0339868
0.0315764
0.0947055
0.0945448
0.0897386
-0.0869212
0.0307547
-0.0939195
0.092602
0.032894
0.0282048
0.0840733
-0.0813797
0.0305514
0.0300528
0.07786
-0.0753141
0.0292138
0.029031
0.0726787
-0.0699699
0.0281563
0.0285387
0.0672111
-0.0644172
0.0256843
0.0268702
0.0616846
-0.0590285
0.0213409
0.0235516
0.0565798
-0.054368
0.0148343
0.0181958
0.0525267
-0.0510968
0.00623298
0.0106713
0.0501746
-0.0497701
-0.00389183
0.00128998
0.0499241
-0.050644
-0.0146315
-0.00918012
0.0518571
-0.0534988
-0.0250486
-0.0197759
0.0554736
-0.0576993
-0.0345876
-0.0297383
0.0600611
-0.0625826
-0.0429935
-0.0386821
0.0652104
-0.0679837
-0.0497831
-0.0463179
0.0708499
-0.0737951
-0.0546927
-0.0521096
0.0767179
-0.0796115
-0.0587132
-0.0563758
0.0824517
-0.0853184
-0.0629997
-0.0604486
0.0882216
-0.0912226
-0.0676018
-0.0649336
0.094309
-0.0975411
-0.0715798
-0.0694328
0.100935
-0.104526
-0.0721115
-0.0721742
0.108082
-0.110466
-0.0655314
-0.0695624
0.114986
-0.117904
-0.0500601
-0.0570004
-0.041966
0.0448377
-0.114308
-0.119801
-0.0400684
-0.0716991
-0.0789417
0.0712289
-0.0913923
-0.0602132
-0.068473
0.0605811
-0.100826
0.0944343
-0.0931505
-0.0472455
0.0938315
-0.0473007
0.032242
-0.0334396
0.0959031
0.0287318
0.0961122
-0.0514182
-0.0604826
0.0475053
-0.108421
-0.0679658
0.00289818
-0.0502396
0.0544583
0.0560097
-0.0293486
0.0317956
-0.116755
-0.0274888
-0.121661
-0.0469957
0.0423554
-0.0853861
-0.0561338
0.0580987
0.0669337
0.0632235
-0.0598972
0.0616943
0.0753261
0.0722631
-0.064258
0.0665899
0.0775662
0.0765922
-0.0685946
0.0702335
0.0776
0.0773739
-0.0714798
0.0723098
0.0777319
0.0772229
-0.0727568
0.0728833
0.0784806
0.0777105
-0.0727325
0.0723493
0.0787309
0.0783774
-0.0717518
0.070975
0.0771859
0.0778598
-0.0700921
0.0691656
0.0727225
0.0750542
-0.068318
0.0676332
0.0632637
0.0683795
-0.0671942
0.0670456
0.0475022
0.0558371
-0.0672015
0.067656
0.0265761
0.0372972
-0.068404
0.0694193
0.00349961
0.0149925
-0.0706797
0.0721375
-0.0183098
-0.00770622
-0.0737236
0.0754051
-0.0361262
-0.0276738
-0.0771148
0.0788375
-0.0484507
-0.0427268
-0.0805247
0.0821786
-0.0551785
-0.0521213
-0.08376
0.085273
-0.0571606
-0.0562795
-0.086683
0.0880005
-0.0558956
-0.0564085
-0.0892149
0.0903233
-0.0530706
-0.0541671
-0.0912044
0.0920225
-0.0496281
-0.0511009
-0.0488952
-0.0424009
0.0396859
0.0958338
0.0440044
-0.0462235
0.0953546
0.0950714
-0.038807
0.0370819
0.0949881
0.094857
-0.0365243
0.0356761
0.094552
0.0944375
0.0967813
0.0891837
-0.0864725
0.0280435
-0.0899084
0.0941887
0.0286138
0.0274801
0.0838667
-0.080388
0.0270727
0.027447
0.0780518
-0.0756326
0.0267946
0.0266948
0.0731395
-0.0705861
0.0256029
0.0260456
0.0680057
-0.065422
0.0231007
0.0242898
0.062905
-0.0604875
0.0189234
0.0210345
0.0582702
-0.0562943
0.0128583
0.0159785
0.0546672
-0.0534308
0.00499663
0.00904423
0.0526596
-0.0523738
-0.00417761
0.000518726
0.0525863
-0.053294
-0.0139238
-0.0089676
0.0544291
-0.0559435
-0.0235343
-0.0186408
0.0577433
-0.0597778
-0.0325531
-0.0279385
0.0619786
-0.0643711
-0.0406011
-0.0364812
0.0669242
-0.0696727
-0.0470346
-0.0437648
0.0725449
-0.0755114
-0.0517261
-0.0492374
0.0784682
-0.0814277
-0.0557536
-0.053419
0.0843759
-0.0873968
-0.0599788
-0.0575004
0.0904979
-0.093742
-0.0643576
-0.0618326
0.0971105
-0.10065
-0.0680403
-0.0660644
0.104334
-0.108193
-0.0682522
-0.0684906
0.112205
-0.11637
-0.0613668
-0.06555
0.118695
-0.121856
-0.0468997
-0.0546748
0.124427
-0.125875
-0.0260411
-0.0374973
-0.0134171
0.0160607
-0.124305
-0.1267
-0.0125921
-0.0624105
-0.0767444
0.062528
-0.0933392
-0.0466692
0.0942772
0.095589
0.0273314
-0.051792
-0.0680992
-0.0488635
-0.0699588
-0.0437363
-0.0656098
0.0497962
-0.103116
0.0351332
-0.111758
-0.0636464
0.0195489
-0.0235036
0.0147884
-0.0549313
-0.0321093
-0.0613531
0.0178253
-0.11852
-0.000837326
-0.000219991
-0.123247
0.00134615
-0.128883
-0.0852687
-0.0451211
0.0490608
0.05207
0.0434274
-0.0489277
0.0250491
0.0406618
-0.0520694
0.0541255
0.0648776
0.0602149
-0.0572815
0.0603988
0.0722088
0.069107
-0.0633217
0.0659883
0.0748996
0.0736693
-0.0683099
0.0702569
0.075653
0.0750522
-0.0718072
0.0729835
0.0765556
0.0756726
-0.073813
0.07436
0.0779337
0.076881
-0.0746595
0.0747535
0.078637
0.0780779
-0.074665
0.0744261
0.0774248
0.0779483
-0.0741191
0.0737985
0.073043
0.0753612
-0.0735574
0.0734512
0.0633698
0.0686206
-0.0735292
0.0738135
0.0472179
0.0557592
-0.0742934
0.0749644
0.0259051
0.0368173
-0.0758057
0.0768149
0.00249037
0.0141512
-0.0779676
0.0792307
-0.019573
-0.00885889
-0.0805429
0.0818734
-0.0374567
-0.028986
-0.0831691
0.0844245
-0.0497062
-0.0440225
-0.0856159
0.0867588
-0.0563214
-0.0533127
-0.0878379
0.0888648
-0.0581875
-0.0573585
-0.0898211
0.0907153
-0.0567898
-0.0573648
-0.0915378
0.0923026
-0.0538354
-0.0549896
-0.0930134
0.0940598
-0.0506744
-0.0518118
-0.0942095
0.09465
-0.047686
-0.0490449
-0.0940459
0.0944066
-0.0470299
-0.0466966
-0.0439205
0.042742
0.0965331
0.0473625
-0.0472192
0.0942633
0.0977192
-0.0409128
0.0398642
0.0968823
0.0969006
-0.0382717
0.0365668
0.0966931
0.0964495
-0.0347609
0.0328691
0.0964438
0.0962434
-0.0322192
0.0305415
0.0975808
0.0974312
-0.0284898
0.026506
0.0975728
0.0981639
0.0936181
-0.0903845
0.0253802
-0.0954948
0.0966296
0.0253712
0.0254547
0.0881262
-0.0857136
0.0256308
0.0252218
0.0828091
-0.0806203
0.024884
0.0245425
0.0784131
-0.0761133
0.0244949
0.0244876
0.0737829
-0.0713975
0.0232176
0.0237151
0.069016
-0.066646
0.0207307
0.0219083
0.0643582
-0.0621813
0.0167465
0.0187467
0.0602015
-0.0584596
0.0111164
0.0139986
0.0570423
-0.0559882
0.00394247
0.007627
0.0553517
-0.0551499
-0.00437943
-0.000117775
0.0553924
-0.0560523
-0.0132639
-0.0087251
0.0570812
-0.0584421
-0.0221734
-0.0176118
0.0600579
-0.0619076
-0.0307034
-0.0263227
0.0639536
-0.0662321
-0.0383225
-0.0344352
0.0687177
-0.0714295
-0.0443228
-0.0412793
0.0742741
-0.077215
-0.0487853
-0.0463928
0.0801621
-0.0831481
-0.0527676
-0.0504719
0.0861753
-0.0893295
-0.0568246
-0.0544732
0.0926155
-0.096099
-0.0608741
-0.0585466
0.0997611
-0.103642
-0.0641597
-0.0624022
0.107673
-0.111847
-0.0640779
-0.0644596
0.116066
-0.120276
-0.0571566
-0.0613312
0.124341
-0.128251
-0.0429892
-0.0506101
0.131843
-0.133603
-0.0242814
-0.0339052
0.134324
-0.132481
-0.00049623
-0.0118716
0.0125198
-0.0138982
-0.127505
-0.132109
0.0121476
-0.0522915
-0.076245
-0.0487051
0.0145659
-0.0420052
-0.0698303
0.0956049
-0.0961631
-0.0464718
0.0956923
-0.0473065
0.0271994
-0.0282958
0.0986693
0.0252547
0.0985742
0.0516273
-0.0951702
0.0372393
-0.105222
-0.0291477
-0.0685714
0.021304
-0.115237
0.0053125
-0.124052
-0.0099711
-0.127174
0.02581
-0.0250207
-0.128294
0.0226708
-0.12897
-0.0859329
-0.043483
0.040998
0.0275341
0.00298547
-0.00217999
-0.0495106
0.0453132
-0.0478489
0.00552117
0.0163962
-0.0425453
0.0463943
0.0482211
0.0391145
-0.0499501
0.0529247
0.061903
0.0566591
-0.0563237
0.0597285
0.068804
0.065708
-0.0629443
0.0658798
0.071964
0.0704536
-0.0684617
0.0706813
0.0734335
0.0724703
-0.0725294
0.0740494
0.0750356
0.0738244
-0.0752639
0.0762345
0.0769631
0.0756665
-0.0769911
0.0775797
0.0780484
0.0773213
-0.0780247
0.0783657
0.0770839
0.0775033
-0.0786667
0.0789826
0.0727272
0.0750601
-0.0793678
0.079853
0.0628847
0.0682354
-0.0804494
0.0811542
0.046513
0.0551627
-0.0819403
0.082803
0.0250423
0.0360313
-0.0837213
0.0846957
0.00151592
0.013233
-0.0857069
0.0867332
-0.0205993
-0.00987007
-0.0877271
0.0886638
-0.0383933
-0.0299799
-0.0895069
0.0902603
-0.0504596
-0.0448656
-0.0909256
0.0915296
-0.0569254
-0.053978
-0.0920814
0.0925984
-0.0587045
-0.0579103
-0.0930774
0.0935265
-0.0572389
-0.0578439
-0.0939417
0.0943337
-0.0542273
-0.0554048
-0.0947045
0.0950594
-0.0510293
-0.0521826
-0.0952252
0.0958133
-0.0482741
-0.0492107
-0.0470465
-0.0439591
0.0418238
0.0986683
0.0437267
-0.0464536
0.0969902
0.0974868
-0.0408658
0.0394138
0.0983342
0.0978587
-0.0378339
0.0361163
0.0984107
0.0980293
-0.0342966
0.0323792
0.0983612
0.0980631
-0.0318729
0.0299593
0.0994944
0.0979375
0.0998274
0.0929927
-0.0909873
0.0233748
-0.0948544
0.0967755
0.0234501
0.023593
0.0879992
-0.0850546
0.0226862
0.0222337
0.0830556
-0.0809802
0.0228086
0.0225435
0.0788945
-0.076733
0.0223334
0.0224018
0.0745688
-0.0723618
0.0210106
0.021551
0.0701855
-0.0680301
0.0185753
0.0197319
0.0659734
-0.0640304
0.0148035
0.01669
0.0622824
-0.0607596
0.00959362
0.0122506
0.0595357
-0.0586399
0.00304666
0.00640312
0.05811
-0.0579627
-0.00452669
-0.000647677
0.058195
-0.0587903
-0.0126686
-0.0084928
0.0596973
-0.060898
-0.0209727
-0.0167049
0.0623392
-0.0640277
-0.0290149
-0.0248815
0.0659455
-0.0681387
-0.0361294
-0.0325174
0.0705741
-0.0732464
-0.0416505
-0.0388439
0.0760493
-0.0789466
-0.045888
-0.0435899
0.0818685
-0.0848636
-0.0497725
-0.04755
0.0879333
-0.0911516
-0.0536064
-0.0514034
0.0945073
-0.0980647
-0.0573167
-0.0551909
0.101809
-0.10579
-0.0601788
-0.0586574
0.109941
-0.114245
-0.059774
-0.0603092
0.11858
-0.122906
-0.0528304
-0.0569962
0.127095
-0.131048
-0.0390365
-0.0464208
0.134524
-0.137394
-0.0214118
-0.0304289
0.137575
-0.136649
-0.00142244
-0.0116906
0.135408
-0.134183
0.0214455
0.010907
0.0067419
-0.0105162
-0.0575787
-0.0503694
0.0352423
-0.0356951
-0.128517
-0.129043
0.030103
-0.0403499
-0.0779003
-0.046474
0.0957127
0.0997565
0.0222737
0.00595667
-0.0484763
-0.0053293
0.0388793
-0.0968102
0.00884136
-0.0523953
-0.0279294
-0.0710486
0.0231123
-0.107031
-0.0135118
-0.0655758
0.00669259
-0.116617
-0.00922476
-0.124798
-0.0232783
-0.128917
-0.0363044
-0.127685
0.0427797
-0.045321
-0.125976
0.0398766
-0.12614
-0.0874034
-0.0455627
0.0429512
0.00813268
-0.0177671
-0.0497129
0.0190037
0.047879
-0.0483091
-0.017337
-0.00301304
-0.041893
0.0416367
0.0277903
0.0174544
-0.0432007
0.0454475
0.0459742
0.0375505
-0.0493139
0.0527329
0.058484
0.0527927
-0.056237
0.0597505
0.0652905
0.0622039
-0.0631152
0.0662335
0.0688457
0.0670889
-0.0690218
0.071479
0.0709762
0.0696821
-0.073604
0.0754564
0.0731832
0.0716995
-0.0770542
0.0784551
0.0755623
0.0740687
-0.0796797
0.0807736
0.0769544
0.0760967
-0.0817649
0.0826937
0.0761551
0.0765121
-0.0836116
0.0845639
0.0717749
0.0741422
-0.0855634
0.0866291
0.0618189
0.0672359
-0.0877194
0.0888307
0.0454018
0.0540724
-0.0899038
0.0909361
0.0240101
0.0349581
-0.0919068
0.0928227
0.000600064
0.0122622
-0.0936636
0.0944216
-0.0213572
-0.010711
-0.0950642
0.0955747
-0.0389038
-0.0306226
-0.0959362
0.0961632
-0.0506866
-0.0452271
-0.096283
0.0963334
-0.0569757
-0.0540978
-0.0963468
0.0963446
-0.0587023
-0.0579238
-0.0963397
0.0963372
-0.0572364
-0.057839
-0.0963414
0.0963557
-0.0542417
-0.055409
-0.096384
0.0964333
-0.0510787
-0.0522108
-0.0965061
0.0967039
-0.0484719
-0.0492835
-0.0969877
0.0968463
-0.0463304
-0.0473302
-0.0954396
0.0954283
-0.0464626
-0.0458998
-0.0448509
0.0437721
0.098069
0.047146
-0.0466872
0.0949696
0.0980077
-0.0424202
0.0418435
0.099245
0.0988387
-0.0405258
0.0390611
0.0997989
0.0991764
-0.0374483
0.0356994
0.10016
0.099642
-0.0338471
0.031901
0.100307
0.0999154
-0.029913
0.0292266
0.100181
0.0999256
-0.027359
0.0252554
0.100773
0.101695
-0.0222366
0.0214646
0.100528
0.101593
0.0969549
-0.0943332
0.0208284
-0.0986952
0.100752
0.0194077
0.0205334
0.0921086
-0.0890421
0.0203083
0.0213684
0.0871775
-0.0852834
0.0207921
0.0203691
0.0833924
-0.0814366
0.0208527
0.0206525
0.0794803
-0.0774688
0.0203219
0.0204455
0.0754704
-0.0734465
0.0189866
0.0195526
0.0714704
-0.0695252
0.0166302
0.0177558
0.0676886
-0.0659643
0.0130792
0.0148533
0.064429
-0.0631001
0.00826477
0.0107153
0.0620418
-0.0612707
0.00227552
0.0053448
0.0608252
-0.0607031
-0.00464882
-0.00109312
0.060903
-0.0614123
-0.0121593
-0.0082929
0.0621991
-0.0632458
-0.019926
-0.0159181
0.0645358
-0.0660949
-0.0274559
-0.0235915
0.0679184
-0.0700486
-0.0339992
-0.0306939
0.0724326
-0.0750418
-0.0390413
-0.0364598
0.0777651
-0.0805816
-0.0430715
-0.0408666
0.0834437
-0.0864171
-0.0467991
-0.0446879
0.0895064
-0.0927814
-0.0503314
-0.0483142
0.0962271
-0.0999005
-0.0536433
-0.0517452
0.103769
-0.107858
-0.0560902
-0.0547889
0.112073
-0.116373
-0.0554734
-0.0560941
0.120621
-0.124778
-0.048673
-0.052749
0.128759
-0.132529
-0.0352671
-0.0424396
0.135894
-0.138659
-0.0186471
-0.0270634
0.140665
-0.141757
-0.000329893
-0.00968429
0.139946
-0.136712
0.0182124
0.009095
0.13299
-0.126811
0.0336971
0.0263805
-0.0108423
0.00179218
-0.0485286
-0.0523703
0.0480606
-0.0506479
-0.123553
-0.123757
0.0450075
-0.0262273
-0.0796024
0.0245423
-0.0982402
0.028185
-0.0506221
-0.0258719
-0.0521728
0.0306449
0.017931
-0.0513226
-0.0127438
-0.0718166
0.00808363
-0.108422
0.0967624
-0.0969718
-0.0462533
0.0957207
-0.0456455
0.0207977
-0.0228484
0.102579
0.01943
0.10212
0.00181208
-0.0655957
-0.00827627
-0.117565
-0.0232378
-0.124839
-0.0355984
-0.129623
-0.044581
-0.128425
-0.0529179
-0.123706
-0.0341786
-0.053406
0.0369625
-0.0533827
0.0510147
-0.0318106
0.041671
-0.0574404
-0.0376133
0.0518542
-0.116803
-0.0586041
0.0462615
-0.118165
-0.0577567
0.0460216
-0.0890885
-0.0461732
0.0420977
-0.0132615
-0.0210304
-0.0418247
0.0417827
0.00817473
-0.0027401
-0.0413038
0.0419381
0.027156
0.0179333
-0.0439533
0.0466715
0.043256
0.0355352
-0.0498968
0.053405
0.0549758
0.0495674
-0.0569326
0.0604356
0.0617876
0.0586763
-0.0638265
0.0670376
0.0656346
0.063698
-0.0699756
0.072635
0.0683168
0.0667441
-0.0750076
0.0771609
0.07103
0.0693268
-0.0791185
0.0809319
0.0737489
0.0721111
-0.0826181
0.0842168
0.0753557
0.0744104
-0.0857473
0.0872632
0.0746391
0.0749815
-0.0887788
0.0903447
0.070209
0.0726267
-0.0919321
0.0935363
0.0602147
0.0656485
-0.0950978
0.0965749
0.0439247
0.0525109
-0.0979327
0.0991038
0.0228391
0.0336003
-0.10011
0.100946
-0.000236021
0.0112556
-0.101599
0.102067
-0.0218255
-0.0113631
-0.102335
0.102397
-0.0389659
-0.0308909
-0.10226
0.101952
-0.0503785
-0.0450901
-0.101527
0.10103
-0.0564796
-0.0536722
-0.100516
0.100008
-0.0581936
-0.0574097
-0.0995304
0.0990868
-0.0567928
-0.0573617
-0.0986893
0.0983345
-0.0538869
-0.0550114
-0.0980301
0.0977732
-0.0508218
-0.0519064
-0.097567
0.0974026
-0.0483075
-0.0490773
-0.0970257
0.0971158
-0.0464206
-0.0469533
-0.0457558
-0.0451807