/*--------------------------------*- C++ -*----------------------------------*\
  =========                 |
  \\      /  F ield         | OpenFOAM: The Open Source CFD Toolbox
   \\    /   O peration     | Website:  https://openfoam.org
    \\  /    A nd           | Version:  10
     \\/     M anipulation  |
\*---------------------------------------------------------------------------*/
FoamFile
{
    format      ascii;
    class       volScalarField;
    location    "18.5";
    object      p;
}
// * * * * * * * * * * * * * * * * * * * * * * * * * * * * * * * * * * * * * //

dimensions      [0 2 -2 0 0 0 0];

internalField   nonuniform List<scalar> 
25879
(
0.0913786
0.0941485
0.0930266
0.0900205
-0.10144
-0.0938059
-0.0433441
-0.0281672
-0.0117245
-0.0207091
-0.108112
-0.0796932
-0.139555
-0.579957
-0.610907
0.291372
0.216172
-0.162145
-0.307778
0.762581
0.742094
0.315743
0.418973
0.128801
0.130474
0.136434
0.133887
0.123364
0.127685
0.123615
0.122951
-0.526743
-0.529978
-0.524448
0.0606336
0.131905
0.138224
-0.0484364
-0.040087
-0.241844
-0.20375
-0.150436
0.310625
0.326298
0.331945
-0.258031
-0.278875
-0.354084
-0.327946
-0.349869
-0.00532951
0.0321697
-0.624391
-0.429668
0.00306061
0.00458012
0.00663465
0.525223
0.529986
0.492056
0.479772
0.455861
0.449872
-0.000418112
0.00159212
0.000239954
-0.581033
-0.585015
-0.53234
-0.462145
-0.521765
0.18476
0.188373
0.19312
0.320253
0.46356
0.38825
0.0999012
0.100258
0.0965737
0.345022
0.328657
0.836016
0.774495
0.775716
0.232137
0.240696
0.228004
0.0745968
0.0781054
-0.274126
-0.237558
-0.307052
0.118926
0.118345
-0.0508835
-0.0744764
-0.0725561
0.110529
0.0984173
0.101633
0.0784288
0.0791458
0.0782677
0.0710785
0.204181
0.201699
0.0107806
0.0633844
0.143866
0.145774
-0.0240198
-0.0194677
0.0175315
0.0177567
0.235484
0.224311
-0.0943017
0.036291
0.0682883
0.0736587
-0.331326
-0.335754
-0.133354
-0.132967
-0.229371
-0.217991
-0.550283
-0.604105
-0.583814
-0.525827
-0.52558
0.47996
0.459095
0.449506
0.465035
0.0941157
0.097682
-0.0352578
0.0023378
-0.0937478
-0.0920551
-0.0988991
-0.105009
-0.116185
-0.128356
-0.142082
-0.156842
-0.172432
-0.188649
-0.204948
-0.220414
-0.234278
-0.24553
-0.25345
-0.257265
-0.257386
-0.2533
-0.245222
-0.233827
-0.219621
-0.203847
-0.187199
-0.171164
-0.156275
-0.143581
-0.133017
-0.124881
-0.118718
-0.114574
-0.112169
-0.111708
-0.113106
-0.116321
-0.121339
-0.12895
-0.140162
-0.11996
-0.125454
-0.129922
-0.0914732
-0.0851483
-0.086388
-0.141325
-0.114189
-0.120816
-0.106922
-0.109589
-0.107049
-0.10602
-0.114234
-0.109685
-0.129103
-0.120525
-0.152449
-0.13964
-0.181488
-0.166467
-0.209259
-0.19588
-0.228359
-0.220141
-0.234658
-0.233057
-0.225796
-0.231815
-0.205281
-0.216697
-0.178188
-0.19216
-0.150084
-0.163964
-0.124584
-0.136848
-0.10528
-0.113831
-0.0980346
-0.11794
-0.0949285
-0.105612
-0.14567
-0.131172
-0.178844
-0.161763
-0.215396
-0.197007
-0.249185
-0.233116
-0.272692
-0.262821
-0.27976
-0.278759
-0.268641
-0.27668
-0.242532
-0.257524
-0.207845
-0.226157
-0.173084
-0.190297
-0.145368
-0.158316
-0.127064
-0.135221
-0.117114
-0.121213
-0.114828
-0.115057
-0.11654
-0.0870031
-0.0807895
-0.0802788
-0.155515
-0.153923
-0.155736
-0.173246
-0.174326
-0.132798
-0.117294
-0.120841
-0.0959753
-0.086937
-0.0867032
-0.0800093
-0.0805282
-0.127697
-0.140285
-0.109677
-0.11752
-0.100168
-0.103927
-0.0981824
-0.0982961
-0.102965
-0.099762
-0.114704
-0.107922
-0.134074
-0.123498
-0.159043
-0.146223
-0.183775
-0.171975
-0.201642
-0.194029
-0.208353
-0.206644
-0.202588
-0.207071
-0.186453
-0.195696
-0.164142
-0.175834
-0.140358
-0.152212
-0.118674
-0.12912
-0.102004
-0.109625
-0.0887313
-0.0949706
-0.0792004
-0.0833819
-0.11941
-0.106863
-0.149157
-0.133465
-0.184796
-0.166414
-0.224094
-0.204328
-0.260835
-0.243274
-0.287236
-0.275807
-0.296912
-0.294344
-0.287278
-0.29435
-0.261498
-0.275985
-0.225916
-0.244303
-0.188716
-0.206834
-0.157251
-0.171784
-0.134848
-0.144773
-0.12105
-0.126861
-0.11518
-0.117074
-0.115263
-0.149642
-0.0788218
-0.169654
-0.0760695
-0.0774256
-0.0750865
-0.192947
-0.195713
-0.126448
-0.13551
-0.143519
-0.0760334
-0.0763301
-0.0738481
-0.0751394
-0.153109
-0.194804
-0.172619
-0.122945
-0.136598
-0.103164
-0.111863
-0.092076
-0.0965927
-0.0883876
-0.0893746
-0.0911081
-0.088971
-0.100243
-0.0948188
-0.116399
-0.107452
-0.137943
-0.126757
-0.159791
-0.149237
-0.176038
-0.168953
-0.182766
-0.180754
-0.178932
-0.182155
-0.166161
-0.173496
-0.147963
-0.157495
-0.128317
-0.13809
-0.110391
-0.118992
-0.0959784
-0.102721
-0.0848278
-0.089999
-0.0806656
-0.0959251
-0.0774195
-0.0858947
-0.120492
-0.107457
-0.152096
-0.135364
-0.190348
-0.17052
-0.232337
-0.21119
-0.27175
-0.252891
-0.300338
-0.287919
-0.311305
-0.308345
-0.302162
-0.309208
-0.275977
-0.290862
-0.239337
-0.25847
-0.200312
-0.219595
-0.16619
-0.182266
-0.140696
-0.152284
-0.123711
-0.131186
-0.114487
-0.11811
-0.113189
-0.112843
-0.119553
-0.115292
-0.218375
-0.219094
-0.072096
-0.163373
-0.0736936
-0.0734781
-0.187604
-0.214495
-0.126068
-0.145938
-0.0755219
-0.242588
-0.244458
-0.0700054
-0.0677697
-0.134313
-0.155725
-0.0722672
-0.0732893
-0.0687711
-0.0707395
-0.0636295
-0.0663047
-0.190314
-0.24228
-0.215412
-0.14761
-0.167558
-0.1162
-0.13042
-0.0953063
-0.104496
-0.0830966
-0.0882091
-0.0779855
-0.0797266
-0.0788336
-0.0776948
-0.085498
-0.0813855
-0.0986586
-0.0912467
-0.117205
-0.107467
-0.136686
-0.127192
-0.151649
-0.145036
-0.158421
-0.156205
-0.156012
-0.158337
-0.145884
-0.15176
-0.131084
-0.13885
-0.11504
-0.12302
-0.100404
-0.107426
-0.0886472
-0.0941365
-0.0801073
-0.08397
-0.0749413
-0.0771524
-0.0726911
-0.0734533
-0.094779
-0.0844847
-0.12033
-0.106674
-0.153391
-0.135879
-0.193648
-0.172717
-0.238112
-0.215688
-0.280087
-0.259965
-0.310777
-0.297405
-0.323044
-0.319529
-0.314175
-0.321218
-0.287155
-0.302598
-0.248895
-0.268923
-0.207869
-0.228206
-0.171518
-0.188749
-0.143697
-0.156464
-0.124346
-0.133033
-0.112347
-0.117444
-0.107715
-0.10906
-0.110661
-0.108111
-0.121104
-0.11504
-0.270002
-0.268547
-0.14371
-0.128223
-0.179955
-0.157825
-0.0608376
-0.207903
-0.0726626
-0.0713886
-0.0721662
-0.23765
-0.267391
-0.154723
-0.294899
-0.29418
-0.136487
-0.17004
-0.0720434
-0.0726087
-0.0692321
-0.0709085
-0.0645088
-0.0670986
-0.0582997
-0.0615577
-0.235162
-0.289449
-0.262537
-0.182395
-0.208102
-0.139593
-0.159535
-0.107673
-0.122179
-0.0862794
-0.0957618
-0.0733036
-0.0788455
-0.0670264
-0.0694039
-0.0662603
-0.0659897
-0.070738
-0.0678001
-0.0811137
-0.075152
-0.096746
-0.0884337
-0.113889
-0.105452
-0.127573
-0.121445
-0.134365
-0.131964
-0.133276
-0.134788
-0.12556
-0.13011
-0.113876
-0.120026
-0.101168
-0.107482
-0.0897109
-0.0951769
-0.080788
-0.0848857
-0.0748265
-0.0774422
-0.0717629
-0.0729427
-0.0712517
-0.0728904
-0.057924
-0.0649236
-0.0925791
-0.0821265
-0.118884
-0.104838
-0.152975
-0.134895
-0.194763
-0.172996
-0.241215
-0.217747
-0.285361
-0.264158
-0.317892
-0.303676
-0.331217
-0.327294
-0.322641
-0.329647
-0.294984
-0.310868
-0.255212
-0.276086
-0.212183
-0.233554
-0.173714
-0.192002
-0.143844
-0.15762
-0.122521
-0.132198
-0.108319
-0.114578
-0.100754
-0.103687
-0.10009
-0.099483
-0.106787
-0.102618
-0.117969
-0.111982
-0.317258
-0.312978
-0.145402
-0.124805
-0.0550034
-0.198567
-0.171183
-0.0732997
-0.0736223
-0.229448
-0.166061
-0.261421
-0.291055
-0.317052
-0.0544573
-0.153988
-0.336151
-0.332983
-0.130496
-0.051687
-0.0483553
-0.186157
-0.0710516
-0.0724265
-0.0668883
-0.0691954
-0.0609964
-0.0641025
-0.0539036
-0.0575669
-0.0463257
-0.0500791
-0.279249
-0.324589
-0.303747
-0.224361
-0.252709
-0.171699
-0.197112
-0.129337
-0.149058
-0.0978248
-0.112167
-0.0764284
-0.0859796
-0.063002
-0.0688268
-0.0558217
-0.058707
-0.0536913
-0.054166
-0.0562308
-0.0543436
-0.0640637
-0.0594357
-0.0769715
-0.0700012
-0.0918813
-0.0844619
-0.104299
-0.0986618
-0.111027
-0.108498
-0.111118
-0.111889
-0.105637
-0.108957
-0.0968544
-0.101499
-0.0872691
-0.0920195
-0.078823
-0.0828116
-0.0726245
-0.0753989
-0.0690647
-0.0704985
-0.0679934
-0.0681733
-0.0694905
-0.0684619
-0.0733611
-0.071115
-0.0696543
-0.061575
-0.0895695
-0.0788755
-0.116192
-0.101941
-0.150852
-0.132449
-0.193598
-0.171292
-0.241471
-0.217238
-0.287318
-0.265254
-0.32137
-0.306449
-0.335609
-0.331323
-0.327268
-0.334243
-0.299202
-0.31537
-0.258407
-0.279865
-0.21385
-0.236034
-0.17356
-0.192779
-0.141784
-0.156512
-0.118564
-0.12919
-0.102348
-0.109646
-0.092342
-0.0965705
-0.0885546
-0.089633
-0.090954
-0.0890479
-0.0989765
-0.0942407
-0.108378
-0.10392
-0.133741
-0.111086
-0.347171
-0.339841
-0.218001
-0.185661
-0.0427196
-0.251227
-0.177036
-0.0762902
-0.0725443
-0.0762684
-0.283614
-0.159516
-0.312209
-0.135285
-0.334817
-0.349375
-0.354763
-0.348626
-0.203281
-0.0745804
-0.0757169
-0.0707808
-0.0729205
-0.0651494
-0.0681478
-0.058114
-0.0617793
-0.0502122
-0.0542678
-0.0418542
-0.0460401
-0.311231
-0.337152
-0.327294
-0.264614
-0.289911
-0.209977
-0.237385
-0.158678
-0.183187
-0.117464
-0.136552
-0.0870438
-0.100945
-0.0660304
-0.07547
-0.0524304
-0.0584069
-0.04459
-0.0478638
-0.0413416
-0.0424356
-0.042214
-0.0412398
-0.0477535
-0.0443425
-0.0581047
-0.0524031
-0.0708881
-0.0644384
-0.0820946
-0.0769288
-0.088723
-0.086098
-0.0898576
-0.0899643
-0.0863914
-0.0886
-0.0802422
-0.083517
-0.0735138
-0.0768301
-0.0678412
-0.0704674
-0.064154
-0.065713
-0.0627648
-0.0631698
-0.0637333
-0.0629267
-0.066994
-0.0650451
-0.0694625
-0.0506339
-0.0390005
-0.0444846
-0.0657185
-0.057692
-0.0856923
-0.0749732
-0.112345
-0.0980681
-0.147112
-0.128636
-0.190227
-0.167691
-0.23889
-0.214205
-0.285895
-0.263222
-0.321114
-0.305638
-0.336131
-0.331521
-0.328056
-0.334962
-0.29979
-0.316113
-0.258396
-0.280202
-0.212878
-0.235588
-0.171277
-0.191194
-0.137912
-0.153461
-0.112939
-0.12446
-0.0947925
-0.103086
-0.0825392
-0.0879394
-0.0760574
-0.0785578
-0.075018
-0.0749178
-0.0790944
-0.0763482
-0.0862446
-0.0826927
-0.0894552
-0.350446
-0.33989
-0.0379104
-0.237441
-0.199512
-0.0799362
-0.0807566
-0.271575
-0.18731
-0.303034
-0.164942
-0.328801
-0.134159
-0.347131
-0.356157
-0.355493
-0.102479
-0.0351288
-0.344883
-0.335618
-0.0340562
-0.0302617
-0.220128
-0.0765351
-0.0785261
-0.0711051
-0.0740494
-0.0640515
-0.0677452
-0.0558467
-0.0600708
-0.0471237
-0.051541
-0.0381612
-0.0426367
-0.0297132
-0.0338069
-0.320979
-0.321959
-0.324966
-0.293233
-0.310534
-0.246001
-0.271064
-0.19229
-0.218793
-0.143536
-0.166867
-0.104519
-0.122667
-0.075618
-0.0888656
-0.0553315
-0.0644987
-0.0418199
-0.0478247
-0.033545
-0.0370965
-0.0294076
-0.0310037
-0.0288749
-0.0286782
-0.0323894
-0.0300651
-0.0403799
-0.0358614
-0.0511458
-0.0456202
-0.0611839
-0.0564777
-0.0676727
-0.064982
-0.0697024
-0.0692382
-0.0679964
-0.069231
-0.064174
-0.0662361
-0.0599951
-0.0620285
-0.0568213
-0.0582173
-0.0554241
-0.05587
-0.056096
-0.0554929
-0.0589207
-0.0572357
-0.0638817
-0.0611283
-0.0711056
-0.0672139
-0.0808973
-0.0756393
-0.0465177
-0.0404566
-0.0613458
-0.053403
-0.0811112
-0.0705
-0.107434
-0.0933336
-0.141828
-0.123535
-0.184704
-0.162255
-0.233498
-0.208688
-0.28109
-0.258074
-0.317115
-0.301234
-0.332781
-0.327884
-0.325042
-0.331821
-0.296819
-0.313155
-0.255198
-0.277151
-0.209182
-0.232176
-0.166773
-0.187137
-0.132261
-0.148424
-0.105853
-0.118123
-0.085996
-0.0951836
-0.0716809
-0.0781598
-0.0627486
-0.0665281
-0.0588831
-0.0602302
-0.0593622
-0.058602
-0.0625649
-0.0608097
-0.0676998
-0.0648906
-0.3244
-0.312082
-0.0732502
-0.048136
-0.255548
-0.212376
-0.0258311
-0.2891
-0.195236
-0.087108
-0.0804238
-0.0874343
-0.318053
-0.16857
-0.340029
-0.134384
-0.353126
-0.0989357
-0.356274
-0.349175
-0.332454
-0.295315
-0.306453
-0.0662324
-0.0411711
-0.235584
-0.0843394
-0.0860596
-0.0791554
-0.082002
-0.0720526
-0.0758114
-0.063536
-0.0679322
-0.0541979
-0.0589374
-0.0445609
-0.0493733
-0.0350313
-0.0397594
-0.0260716
-0.0303928
-0.303994
-0.280592
-0.295798
-0.300295
-0.305612
-0.270636
-0.288327
-0.223552
-0.248405
-0.172604
-0.197766
-0.12717
-0.148861
-0.0908943
-0.107795
-0.0638676
-0.0762915
-0.0445829
-0.0533507
-0.0313745
-0.0373046
-0.0228622
-0.0265934
-0.0180441
-0.0200343
-0.0163582
-0.0168069
-0.0181216
-0.0167494
-0.023957
-0.0205322
-0.0328126
-0.0281677
-0.0417239
-0.0374644
-0.0480327
-0.0453105
-0.0508007
-0.0498571
-0.0506009
-0.0509997
-0.0487924
-0.0498021
-0.0468444
-0.0477519
-0.045885
-0.0461867
-0.0465554
-0.0459898
-0.0491214
-0.0475906
-0.0536663
-0.0511405
-0.0602532
-0.0566719
-0.0690164
-0.0643022
-0.0743075
-0.0309533
-0.0220288
-0.0262755
-0.0420355
-0.0360911
-0.0566081
-0.0488028
-0.0759282
-0.0655665
-0.101587
-0.0878466
-0.135143
-0.117285
-0.177178
-0.155133
-0.225426
-0.200832
-0.273005
-0.249924
-0.309459
-0.293328
-0.325658
-0.320501
-0.318336
-0.324926
-0.290404
-0.306609
-0.248929
-0.270831
-0.202842
-0.225904
-0.160065
-0.180655
-0.12484
-0.141403
-0.0973935
-0.110222
-0.07618
-0.0860903
-0.0601195
-0.0675244
-0.0490082
-0.0539331
-0.0426296
-0.0452602
-0.0400905
-0.0409569
-0.0399993
-0.0398026
-0.042377
-0.0408961
-0.0353877
-0.0408064
-0.0217034
-0.0252702
-0.0341193
-0.0111778
-0.0157294
-0.0219597
-0.272707
-0.259186
-0.270686
-0.222882
-0.0941714
-0.0953432
-0.302147
-0.200461
-0.327568
-0.167884
-0.344727
-0.129343
-0.352076
-0.0923757
-0.349075
-0.0583961
-0.335954
-0.313591
-0.282793
0.008479
-0.244971
-0.0182137
-0.0181067
-0.0144452
-0.232377
0.0119264
-0.00620002
-0.0267464
-0.2483
-0.0895011
-0.0921815
-0.0824447
-0.0862909
-0.0735747
-0.078179
-0.0635813
-0.0686846
-0.0530479
-0.0583465
-0.0424971
-0.0477448
-0.0323808
-0.03739
-0.022921
-0.0275509
-0.0146719
-0.0185928
-0.262841
-0.217838
-0.243153
-0.282252
-0.27595
-0.275148
-0.281987
-0.244004
-0.261993
-0.198979
-0.222607
-0.151727
-0.174956
-0.110183
-0.129977
-0.077029
-0.0925026
-0.052096
-0.0635974
-0.0339973
-0.0422759
-0.0212634
-0.027034
-0.0126841
-0.0165091
-0.00737102
-0.0096588
-0.0047664
-0.00573561
-0.00505465
-0.00449568
-0.00895489
-0.00652778
-0.0160028
-0.0122005
-0.0238148
-0.0199957
-0.0298991
-0.0271796
-0.0332595
-0.0319225
-0.0343231
-0.0340181
-0.0342259
-0.0343389
-0.0341948
-0.0341319
-0.0351634
-0.0345087
-0.0376629
-0.0361987
-0.0419215
-0.0395618
-0.0480206
-0.0447336
-0.0560545
-0.0517805
-0.0662792
-0.0608477
-0.0792313
-0.0723527
-0.09558
-0.0869713
-0.0266898
-0.0222217
-0.0374742
-0.031708
-0.0516006
-0.0440424
-0.070254
-0.0602627
-0.0949428
-0.0817281
-0.12723
-0.110039
-0.167848
-0.146513
-0.214882
-0.190841
-0.261837
-0.238977
-0.298337
-0.282111
-0.314959
-0.309566
-0.308157
-0.314493
-0.280756
-0.296695
-0.239787
-0.261447
-0.194046
-0.216964
-0.15132
-0.171929
-0.115787
-0.132549
-0.0876968
-0.100887
-0.0655218
-0.0759559
-0.0481243
-0.05625
-0.0352425
-0.0411087
-0.0267495
-0.0304665
-0.0218542
-0.0239314
-0.0195559
-0.0203873
-0.0191252
-0.0192753
-0.0148226
-0.0175515
-0.00112742
-0.00785045
0.00420833
-0.201884
-0.18833
-0.0019574
0.0141921
-0.281516
-0.229846
-0.0110584
-0.309641
-0.201075
-0.105072
-0.0948894
-0.105099
-0.330474
-0.163031
-0.342202
-0.121669
-0.343697
-0.0840276
-0.334773
-0.0494276
-0.316083
-0.0205061
-0.289122
-0.254266
-0.213584
0.0012132
-0.169472
-0.156379
0.0154456
-0.257073
-0.101976
-0.10402
-0.095472
-0.0990435
-0.0864277
-0.0912033
-0.0757267
-0.0812327
-0.0641698
-0.0700146
-0.0523917
-0.0582713
-0.0409139
-0.0465849
-0.0301499
-0.0354234
-0.0203056
-0.0251081
-0.0116382
-0.0157635
-0.200927
-0.142563
-0.173425
-0.241639
-0.224069
-0.257128
-0.25252
-0.24657
-0.254687
-0.215462
-0.233104
-0.173109
-0.194684
-0.130391
-0.151354
-0.0930886
-0.110841
-0.0632567
-0.0772118
-0.0405492
-0.051068
-0.0237569
-0.0314852
-0.0116255
-0.0171715
-0.00312054
-0.00696676
0.00252598
2.53261e-05
0.00583805
0.00446253
0.00675604
0.0066401
0.00455756
0.00609079
-0.000786356
0.0022086
-0.00750851
-0.00413287
-0.0133195
-0.0106355
-0.0171386
-0.015488
-0.0192388
-0.0183534
-0.0205666
-0.0199309
-0.0221493
-0.0212672
-0.0247612
-0.0232886
-0.0288403
-0.0265978
-0.0345762
-0.0314915
-0.0420497
-0.0380874
-0.0513826
-0.0464667
-0.0629343
-0.05683
-0.0772663
-0.0696592
-0.0856486
-0.00798177
-0.0143244
-0.00753366
-0.0108145
-0.0224469
-0.0181353
-0.0328607
-0.0273104
-0.0464106
-0.0391744
-0.0642037
-0.054685
-0.0876578
-0.0751126
-0.118297
-0.10198
-0.156974
-0.13663
-0.202152
-0.178995
-0.247872
-0.225522
-0.284027
-0.267866
-0.300976
-0.295359
-0.294802
-0.300844
-0.268182
-0.283712
-0.228052
-0.249294
-0.183038
-0.205618
-0.140758
-0.161187
-0.105301
-0.122072
-0.0769484
-0.0903089
-0.0542068
-0.0649637
-0.0359057
-0.0445298
-0.0217341
-0.0282951
-0.0116206
-0.0161802
-0.00494921
-0.00791689
-0.000896796
-0.0026191
0.00219356
0.000578138
0.00928243
0.00477095
0.0174056
0.01262
0.0251298
0.0217659
0.0279652
0.027274
0.0153672
0.0262156
0.0277119
-0.123176
-0.109886
-0.28711
-0.232095
-0.115162
-0.115763
-0.310925
-0.196885
-0.326482
-0.154901
-0.332505
-0.112386
-0.328339
-0.074138
-0.314249
-0.0411628
-0.291096
-0.0152668
-0.260053
0.00269163
-0.222792
-0.180767
-0.136086
-0.0903368
0.035595
0.0138988
-0.00453608
0.0238429
0.0322873
-0.0772773
-0.260894
-0.110383
-0.11329
-0.102007
-0.106593
-0.0910126
-0.096747
-0.0784733
-0.084881
-0.0652937
-0.0719132
-0.0522034
-0.0586978
-0.03974
-0.0458617
-0.02828
-0.0338684
-0.0180406
-0.02303
-0.00910495
-0.0133945
-0.00182492
-0.0052859
-0.12799
-0.0654642
-0.0971203
-0.181489
-0.156529
-0.216837
-0.201807
-0.227934
-0.225619
-0.21514
-0.223989
-0.185193
-0.201641
-0.147113
-0.166568
-0.109243
-0.127764
-0.0763562
-0.0920109
-0.0498877
-0.0623084
-0.0294376
-0.0389566
-0.0140067
-0.021153
-0.00256383
-0.00783844
0.00575312
0.00194573
0.0115943
0.00895378
0.0154286
0.0137478
0.0172983
0.0166416
0.0165555
0.0173078
0.0128026
0.0150266
0.00717887
0.010097
0.00170088
0.00431388
-0.00245321
-0.000560779
-0.00538434
-0.00403104
-0.007872
-0.00662532
-0.0107821
-0.00922435
-0.0147608
-0.0126059
-0.020169
-0.0172698
-0.0271609
-0.0234586
-0.0358102
-0.0312698
-0.0462632
-0.0407903
-0.058931
-0.0522744
-0.0744459
-0.0662435
-0.0933846
-0.0834826
-0.115192
-0.103987
-0.00409695
0.00131735
-0.00129156
-0.0104778
-0.00717623
-0.0182969
-0.0141562
-0.0282537
-0.0229603
-0.0411128
-0.0342571
-0.057891
-0.0489279
-0.0798957
-0.0681371
-0.108574
-0.0933031
-0.144856
-0.125748
-0.187591
-0.165622
-0.231478
-0.209925
-0.266888
-0.250955
-0.284032
-0.278232
-0.278601
-0.284108
-0.253059
-0.268033
-0.214076
-0.234744
-0.170118
-0.192195
-0.128622
-0.148702
-0.0935925
-0.110195
-0.0653381
-0.0786867
-0.0424139
-0.0532975
-0.0236311
-0.0325371
-0.00863864
-0.0156541
0.00260818
-0.00255177
0.0105642
0.00695352
0.0159945
0.0135431
0.0205986
0.0183164
0.027122
0.0234709
0.034183
0.0306937
0.0392446
0.0372203
0.0396586
0.0400922
0.0380646
-0.0453585
-0.0338554
0.0203019
0.0283043
-0.286847
-0.229064
-0.305743
-0.188626
0.000631457
0.00369887
-0.126442
-0.113291
-0.124752
-0.315866
-0.14402
-0.316363
-0.101413
-0.307144
-0.0642184
-0.288834
-0.0340938
-0.262406
-0.0120199
-0.228856
0.00240494
-0.190295
0.0110891
-0.147961
-0.103146
-0.058118
0.0160793
-0.0147536
-0.00339231
0.0236538
-0.259213
-0.125283
-0.126619
-0.119015
-0.122748
-0.108886
-0.114462
-0.0960411
-0.102715
-0.0817077
-0.0889944
-0.0669133
-0.0743108
-0.0524773
-0.0596064
-0.038976
-0.0455769
-0.0267926
-0.0326986
-0.0161192
-0.0213046
-0.00695834
-0.0113422
-0.0029067
0.00482113
0.0255563
0.033838
-0.0542771
-0.0243745
-0.111969
-0.0837086
-0.159785
-0.137712
-0.189266
-0.177234
-0.196347
-0.195713
-0.182726
-0.191766
-0.155212
-0.170216
-0.121662
-0.138722
-0.0888356
-0.104848
-0.0603479
-0.0739348
-0.0371557
-0.0480838
-0.0189166
-0.0274525
-0.00485305
-0.011408
0.00584931
0.000877105
0.0138903
0.0101698
0.0198092
0.0170908
0.0240078
0.0221084
0.0265977
0.0255251
0.0270566
0.0271492
0.0247615
0.026259
0.0202554
0.0226925
0.0151898
0.0176884
0.0108176
0.0128853
0.00723683
0.00895886
0.00382759
0.00556068
-0.000145552
0.00195441
-0.00522926
-0.00252135
-0.0117221
-0.00828572
-0.0197454
-0.0155354
-0.0293625
-0.0243459
-0.0407402
-0.0348075
-0.054325
-0.0472099
-0.0708724
-0.0621343
-0.0908328
-0.0804413
-0.101862
-0.000860437
0.00424555
0.0017938
-0.00683358
-0.00370094
-0.014277
-0.0103395
-0.0237
-0.0186994
-0.0357793
-0.0293506
-0.0514276
-0.0430817
-0.071823
-0.0609384
-0.0983017
-0.0842091
-0.131824
-0.114154
-0.171605
-0.151097
-0.213092
-0.192614
-0.24735
-0.231814
-0.264618
-0.258621
-0.260095
-0.265121
-0.23582
-0.250127
-0.198263
-0.218214
-0.155642
-0.177076
-0.1152
-0.134796
-0.080881
-0.0971695
-0.0530431
-0.0662159
-0.0302921
-0.0411193
-0.0114237
-0.0204085
0.00395726
-0.00329255
0.0158893
0.010353
0.0247095
0.0206559
0.0311412
0.0281672
0.0366172
0.0339069
0.0428904
0.0398248
0.0486231
0.0459954
0.0510945
0.0504229
0.0492351
0.0507762
0.0435566
0.0467589
0.0353161
0.0397215
0.018237
0.0246779
0.0303205
-0.28068
-0.221258
0.00656768
-0.137217
-0.135835
-0.29445
-0.177005
-0.299363
-0.131366
-0.295064
-0.0899874
-0.28187
-0.0554559
-0.260522
-0.0291329
-0.232127
-0.0110012
-0.197688
0.000462044
-0.15894
0.00726912
-0.116898
0.010972
-0.0730133
-0.0288839
0.0133356
0.0516924
0.0302061
0.0120687
0.0182611
0.023763
-0.252192
-0.13507
-0.136975
-0.127514
-0.131927
-0.115782
-0.1221
-0.101241
-0.10878
-0.085243
-0.0933488
-0.0689237
-0.077061
-0.0531758
-0.0609299
-0.0386258
-0.0457155
-0.0256752
-0.0319296
-0.014494
-0.0198603
-0.00506231
-0.00953656
0.00270597
-0.00098707
0.00872445
0.00589215
0.058714
0.0764955
0.0111861
0.0374559
-0.0429282
-0.0156501
-0.0947809
-0.0696858
-0.136109
-0.117314
-0.159909
-0.15048
-0.163811
-0.164335
-0.150473
-0.158987
-0.126098
-0.139242
-0.097441
-0.111934
-0.0696546
-0.0832126
-0.0453518
-0.0569846
-0.0252401
-0.0347645
-0.0090997
-0.0166976
0.00363159
-0.00234092
0.013571
0.00891861
0.0212711
0.0176747
0.0271708
0.0244265
0.0316018
0.029556
0.0347095
0.0333327
0.0361176
0.0356764
0.0351175
0.035949
0.0317439
0.033673
0.0271952
0.0295228
0.0227254
0.0249066
0.0186513
0.0206574
0.0145271
0.0166378
0.0097279
0.0122495
0.00378224
0.00692204
-0.00355991
0.000297282
-0.0123907
-0.00778355
-0.0227638
-0.0173753
-0.0348656
-0.0285728
-0.0491883
-0.0417006
-0.066513
-0.0574215
-0.0872112
-0.0764583
-0.110244
-0.0985383
-0.132909
-0.121818
0.0070183
0.0111794
0.00914669
0.00227652
0.00473572
-0.00338504
-0.000407772
-0.010409
-0.00669826
-0.0192415
-0.0145623
-0.0304777
-0.024509
-0.0449187
-0.0372311
-0.0636005
-0.0536466
-0.0877206
-0.0748954
-0.11822
-0.102137
-0.154635
-0.135814
-0.193205
-0.174065
-0.225893
-0.210933
-0.243165
-0.236988
-0.239693
-0.244114
-0.216928
-0.230443
-0.181053
-0.200159
-0.140005
-0.160684
-0.100821
-0.119834
-0.0674167
-0.0832869
-0.0402389
-0.0531074
-0.0179605
-0.0285745
0.000642415
-0.00823984
0.0160248
0.00873719
0.028249
0.0225315
0.0375872
0.0332527
0.0447173
0.0413732
0.0508026
0.0478255
0.0565338
0.0537757
0.0604857
0.0588561
0.0607785
0.0611688
0.0570347
0.0593934
0.0502206
0.0538844
0.0412936
0.0459828
0.0360167
0.0111034
0.0167507
-0.268969
-0.209371
-0.277874
-0.162932
0.0105855
0.0130563
-0.142701
-0.128557
-0.138202
-0.278289
-0.118056
-0.270277
-0.0793736
-0.254417
-0.0487162
-0.231519
-0.0266109
-0.202485
-0.011897
-0.168342
-0.00285189
-0.130058
0.00240358
-0.0886262
0.00478527
-0.0456879
0.00470182
-0.00233616
0.0384913
0.0744581
0.00317032
0.00909457
0.12464
0.129668
-0.240297
-0.146893
-0.145696
-0.143968
-0.146213
-0.135322
-0.140305
-0.122229
-0.129241
-0.106247
-0.114515
-0.0888087
-0.0976281
-0.0711429
-0.0799374
-0.0541991
-0.0625294
-0.0386438
-0.0462103
-0.0249
-0.031522
-0.0131544
-0.0187694
-0.00342267
-0.00803727
0.00447317
0.000750025
0.00779063
0.0676605
0.0886786
0.0189322
0.042901
-0.0304396
-0.00589514
-0.076117
-0.0542542
-0.111109
-0.0952907
-0.12964
-0.122447
-0.131505
-0.132613
-0.119442
-0.126934
-0.0988487
-0.10986
-0.0751251
-0.0871014
-0.0520432
-0.0633394
-0.031548
-0.0414056
-0.0142473
-0.0224871
-5.34785e-05
-0.006776
0.0114074
0.00599587
0.0205833
0.0162575
0.0278973
0.0244525
0.033699
0.0309717
0.0382539
0.0361208
0.0417102
0.0401242
0.0438282
0.0429774
0.0439294
0.0441749
0.0416765
0.0430787
0.0377677
0.0398547
0.0333398
0.035566
0.0289139
0.0311307
0.0242486
0.0266452
0.0188294
0.0216666
0.0122426
0.015703
0.00427403
0.00844085
-0.00514584
-0.000249842
-0.0160656
-0.0104086
-0.0286935
-0.0221384
-0.0435606
-0.0357974
-0.0614185
-0.0520737
-0.0825487
-0.0715928
-0.105898
-0.0940725
-0.117517
0.00959389
0.0134099
0.0115067
0.00520698
0.00749561
-0.000133759
0.00267125
-0.00670944
-0.00324251
-0.0149149
-0.0105759
-0.0252689
-0.0197798
-0.0384604
-0.0314528
-0.0553777
-0.0463819
-0.0770601
-0.0655476
-0.104384
-0.0899769
-0.137138
-0.120173
-0.172346
-0.15478
-0.203031
-0.188846
-0.220147
-0.213826
-0.217846
-0.221573
-0.19685
-0.20943
-0.162908
-0.181049
-0.123635
-0.143464
-0.0858564
-0.104219
-0.0534896
-0.0688795
-0.027123
-0.0396051
-0.00552969
-0.0158155
0.0125317
0.00389726
0.0275983
0.0204346
0.0397932
0.0340532
0.0493646
0.0448853
0.0568846
0.05334
0.0630631
0.0601205
0.067853
0.0657024
0.0699709
0.0693067
0.0683766
0.0696604
0.0632121
0.0661661
0.0556831
0.0597492
0.0463136
0.0512505
0.0350746
0.0409429
0.0217885
0.0286152
0.000683469
0.00640373
0.0142573
-0.252615
-0.194278
0.0151669
-0.150621
-0.145996
-0.257356
-0.14758
0.120649
0.136595
0.131909
-0.254364
-0.105195
-0.244002
-0.0705091
-0.226907
-0.0443387
-0.203781
-0.0262932
-0.175269
-0.0144833
-0.142018
-0.00733989
-0.104648
-0.00375504
-0.0640039
-0.00246717
-0.0213673
-0.00352406
0.0211506
-0.00547358
0.0611258
0.0962946
0.119481
0.137641
0.0115265
-0.00841846
-0.00229964
0.00333573
-0.224449
-0.154675
-0.153678
-0.151342
-0.153828
-0.141919
-0.147334
-0.12779
-0.135344
-0.110665
-0.119508
-0.0920803
-0.101469
-0.0733265
-0.082655
-0.0553859
-0.064202
-0.0389465
-0.0469398
-0.0244549
-0.0314312
-0.0121471
-0.018013
-0.00205999
-0.00682722
0.00600336
0.00220712
0.0122528
0.00935525
0.0168171
0.0147245
0.0979321
0.107788
0.0686716
0.0861322
0.0253793
0.0467758
-0.017422
0.00392193
-0.0563137
-0.0378601
-0.0844539
-0.0720716
-0.099636
-0.093973
-0.10069
-0.101803
-0.0907272
-0.0968456
-0.0741423
-0.0829926
-0.0550107
-0.0646909
-0.0361277
-0.0454138
-0.0190126
-0.0272926
-0.00423009
-0.0113147
0.00818839
0.00226926
0.018459
0.013578
0.026888
0.0228871
0.0337878
0.0305135
0.0394296
0.0367539
0.0440203
0.0418476
0.0476891
0.0459707
0.0503027
0.049158
0.0512887
0.0510467
0.050097
0.0509754
0.0469493
0.0487195
0.0427321
0.0449203
0.0381007
0.0404571
0.0330432
0.0356488
0.0271779
0.0302405
0.0201456
0.0238269
0.0117564
0.0161292
0.00195409
0.00703604
-0.00931252
-0.00348572
-0.0222744
-0.0155524
-0.0374825
-0.0295483
-0.0556511
-0.0461561
-0.0770065
-0.0659522
-0.100401
-0.0885881
-0.122795
-0.111948
-0.139694
-0.13217
0.0154826
0.0185991
0.0170377
0.0119988
0.013811
0.00789239
0.0100382
0.00291047
0.00552636
-0.0031928
1.96751e-05
-0.0107504
-0.00676172
-0.0202053
-0.0152038
-0.0321374
-0.0258137
-0.047288
-0.0392506
-0.0665282
-0.0563323
-0.0906311
-0.0779323
-0.11956
-0.104554
-0.151062
-0.135265
-0.179315
-0.166113
-0.196026
-0.189647
-0.19498
-0.19793
-0.176031
-0.187536
-0.144282
-0.161337
-0.10697
-0.125866
-0.0707088
-0.0883738
-0.0394371
-0.0543219
-0.0139396
-0.0260027
0.0068608
-0.0030346
0.0242058
0.0159148
0.0387303
0.0318085
0.0506447
0.0450098
0.0601766
0.0556941
0.0676998
0.064172
0.0734358
0.070806
0.0769144
0.0755223
0.0771437
0.0774902
0.0739907
0.0760059
0.0680671
0.0713436
0.0601509
0.064332
0.0505931
0.0555853
0.0393073
0.0452297
0.0261908
0.0330098
0.019108
-0.0115846
-0.00536341
-0.232969
-0.177218
0.140553
-0.234613
-0.132272
0.018221
0.0200004
-0.144666
-0.131821
-0.136453
-0.229555
-0.0938431
-0.218251
-0.0639539
-0.201212
-0.0424279
-0.178864
-0.0278913
-0.15149
-0.018511
-0.119398
-0.013427
-0.0829585
-0.0111841
-0.0428265
-0.0111577
-0.00044755
-0.0127868
0.0419061
-0.0154902
0.0813024
-0.0185392
0.113838
0.134569
0.147611
-0.0216608
-0.0146588
-0.205967
-0.155981
-0.151213
-0.160117
-0.159154
-0.15667
-0.159262
-0.146808
-0.152478
-0.132021
-0.139927
-0.114114
-0.123356
-0.0947281
-0.104516
-0.0752022
-0.0849117
-0.0565324
-0.0657081
-0.0394074
-0.0477383
-0.0242861
-0.0315684
-0.0114429
-0.0175613
-0.000957819
-0.00590185
0.00731163
0.00344019
0.0136544
0.0107105
0.0161856
0.120408
0.149078
0.0990525
0.109599
0.0697312
0.0859409
0.0325894
0.0510612
-0.00364353
0.0143216
-0.0359369
-0.0206654
-0.0592364
-0.0489609
-0.071433
-0.0668262
-0.0725974
-0.0733043
-0.0651078
-0.0697478
-0.0523044
-0.0591712
-0.0372137
-0.0448925
-0.0219602
-0.0295104
-0.00777447
-0.0146841
0.00479572
-0.00126884
0.0156208
0.0104276
0.0247926
0.0204058
0.032504
0.0288199
0.0389752
0.0358834
0.0444099
0.041813
0.0489651
0.0467912
0.0527411
0.0509498
0.055671
0.0543323
0.0573187
0.0566987
0.0570704
0.0574604
0.0547692
0.0561569
0.0509538
0.0530043
0.0462907
0.0487052
0.0409843
0.0437288
0.0348212
0.0380329
0.0275113
0.031327
0.0188847
0.0233707
0.00888764
0.0140619
-0.00254311
0.00336314
-0.015662
-0.00886101
-0.0310282
-0.0230155
-0.0493188
-0.0397699
-0.0706814
-0.0596447
-0.0938544
-0.0821874
-0.115733
-0.105209
-0.12475
0.0174158
0.0202182
0.0188173
0.014206
0.0158585
0.0103642
0.0123694
0.00574763
0.00816717
0.000130123
0.00308209
-0.00677282
-0.00313693
-0.0153311
-0.0108143
-0.0260214
-0.0203703
-0.0394446
-0.0323429
-0.0563035
-0.0473919
-0.0772415
-0.0662272
-0.102318
-0.0893014
-0.129892
-0.116003
-0.155313
-0.143306
-0.171291
-0.164987
-0.171512
-0.173629
-0.154861
-0.165156
-0.125586
-0.141419
-0.0904398
-0.108313
-0.0557991
-0.0727269
-0.0256448
-0.0400216
-0.0010022
-0.0126541
0.018996
0.00950189
0.0355543
0.0276507
0.0493982
0.0427961
0.0608228
0.0554075
0.0700052
0.0656906
0.0770618
0.0738063
0.0818276
0.0797633
0.0837732
0.0831927
0.0824816
0.0835385
0.0782298
0.0807173
0.071748
0.0752291
0.0636329
0.0678796
0.0540589
0.0590335
0.0429798
0.0487336
0.0302487
0.0368206
0.0162288
0.0234271
0.000255205
0.00846098
-0.0243131
-0.017005
-0.00831035
-0.211705
-0.159673
0.0215093
-0.146686
-0.138207
-0.211544
-0.118301
-0.205779
-0.0848855
-0.194751
-0.0600833
-0.178675
-0.0428028
-0.157623
-0.0312964
-0.131556
-0.0242825
-0.10051
-0.0209166
-0.0646964