/*--------------------------------*- C++ -*----------------------------------*\
  =========                 |
  \\      /  F ield         | OpenFOAM: The Open Source CFD Toolbox
   \\    /   O peration     | Website:  https://openfoam.org
    \\  /    A nd           | Version:  10
     \\/     M anipulation  |
\*---------------------------------------------------------------------------*/
FoamFile
{
    format      ascii;
    class       surfaceScalarField;
    location    "18.5";
    object      phi;
}
// * * * * * * * * * * * * * * * * * * * * * * * * * * * * * * * * * * * * * //

dimensions      [0 3 -1 0 0 0 0];

internalField   nonuniform List<scalar> 
51391
(
-0.0352964
0.0128022
-0.011388
0.0338822
0.0153374
-0.0166336
-0.0340002
0.0237044
-0.0154094
0.00704235
0.0357883
0.000718391
0.0250022
-0.000581421
-0.0015498
-0.0228709
0.022794
0.00431771
-0.0021095
-0.0555678
0.0374372
0.0420185
-0.023888
0.00947956
-0.0496495
-0.0153979
0.0582851
0.000821503
-0.0496271
0.0247244
0.0387289
-0.00516826
0.0231393
-0.0281737
0.0600447
-0.0550103
0.0554743
0.0211442
-0.0534791
0.0697959
-0.0543132
-0.0436565
0.0148021
0.00560729
-0.00658009
-0.0138293
0.0155013
0.000268371
-0.00096758
0.0533245
0.0373654
-0.0493778
-0.0413121
0.0751737
0.0217759
-0.043625
0.10938
-0.0649922
-0.0630554
0.0186677
0.0414215
0.0772224
-0.00926406
0.042443
-0.0109286
-0.0376803
0.00616592
0.00954174
0.0291304
0.00377085
0.0101561
-0.0335665
0.0234104
0.0230638
0.0106109
-0.0235186
-0.00382676
-0.0427522
-6.95603e-05
0.0466485
-0.0458912
0.051312
-0.00924752
0.00596498
-0.00727711
-0.0445791
0.00630707
-0.0430943
-0.0439762
0.0105462
0.0363432
-0.00291316
0.000156994
-0.0442028
0.0259548
0.0312398
0.0203729
0.0254698
-0.0198879
0.0134289
-0.00422326
-0.00920567
0.00894075
0.00448818
-0.0128826
0.0139049
-0.00524561
-0.0230761
0.0314266
-0.0188609
0.0105104
-0.0506259
0.0056385
0.0412814
0.00370601
-0.0478956
-0.0089416
0.00621124
0.0569818
-0.0114598
-0.0546536
0.00913171
0.0397645
0.00394018
0.0132771
0.0230433
0.0479975
0.0148157
-0.0858565
0.0202907
-0.0520829
0.0548355
0.0584005
0.0197345
-0.0578442
-0.0385736
0.0027535
0.00733482
0.0284852
-0.0386329
-4.12791e-05
0.000100654
0.000836486
-0.0379003
-0.00156915
0.0687423
0.0237239
-0.0341765
-0.0582897
0.0145842
0.0738952
-0.0197372
-0.000633597
-0.00615594
0.00597205
0.000817492
-0.0270525
0.00793657
0.0184823
0.0220823
-0.026857
-0.0222778
0.0140909
-0.0480462
-0.0541583
0.0881135
-0.0162128
0.0892826
-0.0589789
-0.0462583
0.0299598
0.0162985
-0.0298635
-0.0163948
0.0282188
-0.017944
0.00301685
-0.0132916
0.00428643
0.000581614
0.0233507
0.000287966
-0.021965
0.00373304
-0.0628641
-0.0194042
0.0278759
0.0543924
-0.0180231
-0.0466532
0.00181224
0.0207633
-0.00274375
-0.0360426
0.0258508
-0.0244917
-0.0512908
0.0258838
-0.0226247
0.0480317
0.0180163
-0.0414313
-0.0161451
0.0080015
-0.0161185
0.0242621
-0.0302081
-0.0073116
0.0213746
-0.0310933
-0.00469814
0.00558338
0.00806942
-0.00225552
-0.00581391
0.00385726
0.00421216
0.00306085
0.0058799
0.018155
0.000582906
-0.0118061
-0.00693174
0.00370369
0.0144513
0.0191104
0.0167572
-0.00620161
-0.029666
0.0217819
0.0240185
-0.0266899
0.0465572
0.00496092
-0.0297362
-0.0471276
0.046808
-0.00518367
0.00550326
0.00518146
0.0385665
-0.00643456
-0.00463265
0.00310963
0.03041
0.00566954
-0.0391892
0.0290607
-0.0373487
0.0113976
0.0152611
0.0442097
0.0374566
-0.0374508
-4.70759e-05
0.0255168
0.0146933
-0.0110876
0.00994779
-0.00368091
0.00482068
0.0179864
-0.0241802
-0.00489373
0.0172012
0.0107329
0.00893081
0.0261248
-0.000261097
-0.0347945
0.014695
0.0261242
-0.0318884
0.0259135
0.0149062
0.00255436
-0.00455947
0.0394078
-0.0374027
0.0420325
0.00150957
-0.0409877
0.000987907
0.00315329
-0.00314393
-0.000997265
-0.00483689
0.00403977
0.00178503
-0.00304053
0.00291634
0.00327748
-0.00972875
0.0319036
0.00906503
0.0344169
-0.00780249
0.0120064
-0.0152555
0.0116648
-0.00841572
0.0238406
0.00633304
-0.0181673
0.0236456
-0.000386429
0.0434491
-0.0284541
-0.0332824
0.0182874
-0.0169175
0.0475941
0.0127725
0.03601
-0.0156273
-0.0373002
0.0351409
-0.022207
-0.00485889
0.0348977
0.00399925
-0.0340381
0.0262961
0.000880221
-0.0320352
0.0411173
-0.010779
0.00285358
0.0427988
-0.0125473
-0.0331051
0.00213019
0.0397516
-0.0390283
-0.0556391
-0.0573993
0.0403006
-0.050723
-0.0452167
-0.0464521
-0.00738759
0.00594417
0.0056654
-0.0461557
-0.00596187
0.00353249
0.0425785
-0.00675172
-0.0393593
0.0420455
-0.0363449
-0.00216812
0.0118372
-0.0441913
0.0369991
-0.00464497
-0.0256634
-0.000669153
0.0381697
0.0404345
0.00684717
-0.00846426
-0.0388174
0.00757885
-0.0072484
0.040104
0.0228998
0.0541291
-0.0215546
0.0286155
-0.0505517
-0.0443729
0.0663091
0.0415134
-0.0694046
0.0565067
0.0190038
-0.0167499
0.0392596
0.0636843
0.00999805
-0.0643623
-0.00932002
0.00518701
0.0713281
-0.0128308
0.0941832
0.00344572
0.0149071
-0.112536
-0.013232
0.0553323
-0.00603685
0.0085734
-0.00737344
0.0189396
-0.00790229
-0.0170742
0.00990142
0.010174
-0.0104646
-0.0096108
0.0070029
0.00715254
-0.00425402
-0.0118942
0.0122901
0.00660695
0.0205834
-0.0223036
0.0114045
-0.00815504
-0.0342177
0.0063848
0.0359879
-0.0278786
0.0437521
-0.0240285
0.00428798
0.00329278
-0.0354594
0.00386868
-0.0337984
-0.0300713
0.029923
-0.0410354
0.0329755
0.0291862
-0.0020358
-0.0218503
0.00143008
0.0224561
0.0194984
-0.0106123
-0.0356244
0.0267383
-0.0267547
0.0147968
0.0314563
-0.0523561
0.0149891
-0.0423524
0.015698
-0.0257016
-0.0403489
0.0220748
-0.0240784
-0.0400771
0.0221503
-0.0224222
-0.0397458
0.0218069
-0.0221382
-0.0389936
0.020617
-0.0213692
-0.0383055
0.0199644
-0.0206526
-0.0371983
0.0181598
-0.019267
-0.0362098
0.0165337
-0.0175222
-0.0349194
0.013833
-0.0151234
-0.0337545
0.0111589
-0.0123238
-0.0324501
0.00771215
-0.00901655
-0.0312717
0.00422521
-0.00540359
-0.0301278
0.000411919
-0.00155584
-0.0290786
-0.00347639
0.00242725
-0.0282353
-0.0071496
0.00630627
-0.027415
-0.0109667
0.0101463
-0.0269298
-0.0141159
0.0136308
-0.026431
-0.0174189
0.01692
-0.026419
-0.0195764
0.0195644
-0.0263925
-0.0218526
0.0218261
-0.0269392
-0.0226631
0.0232098
-0.0274061
-0.0236873
0.0241543
-0.0283445
-0.0233624
0.0243007
-0.0290077
-0.0236419
0.0243052
-0.0299219
-0.0230368
0.0239509
-0.030384
-0.0234315
0.0238937
-0.0310157
-0.0231975
0.0238291
-0.0311623
-0.0240127
0.0241592
-0.0314252
-0.0242227
0.0244857
-0.0314049
-0.0257359
0.0257156
-0.0323355
-0.0259303
0.0268609
-0.0331415
0.0282496
-0.0274436
-0.0386873
0.0292629
-0.0237171
-0.0185545
-0.0330613
0.0129285
-0.0316606
0.0315214
0.0283888
-0.0327383
0.0303405
-0.0362791
0.0367166
-0.0241546
0.0315699
-0.0344848
0.0177117
-0.0194358
0.0325643
0.0184413
-0.0199946
0.0320152
-0.0316852
-0.0231484
-0.0346716
0.0338298
-0.0250886
-0.0253985
-0.0333406
0.0324662
-0.0233483
-0.0252467
-0.0324311
0.0315463
-0.0223127
-0.0239775
-0.0312502
0.0300905
-0.0218771
-0.0231354
-0.0295404
0.0282619
-0.0220839
-0.0230919
-0.027791
0.0267964
-0.0216684
-0.0232165
-0.0267354
0.0262837
-0.0191247
-0.0217916
-0.0266697
0.0267575
-0.0142037
-0.0178049
-0.0274479
0.0279804
-0.00768212
-0.011657
-0.028838
0.0297414
-0.000491432
-0.00433397
-0.0307138
0.0319085
0.00651743
0.00325276
-0.0328765
0.034197
0.0125125
0.010191
-0.0350259
0.0362936
0.0168921
0.0157048
-0.0368913
0.0380287
0.0194796
0.0193667
-0.0384257
0.039507
0.021069
0.0214099
-0.0406671
0.0378376
0.0185275
0.0209147
0.0183419
0.0398759
-0.0407614
-0.0231928
-0.0381375
-0.0257537
0.0282668
-0.0239632
0.0413042
-0.0403685
-0.023074
-0.0218794
0.0405687
-0.0408916
-0.0203297
-0.021169
0.0390087
-0.0388908
-0.0176401
-0.0211498
0.0368853
-0.0363596
-0.0128495
-0.0171289
0.0344577
-0.0336285
-0.00623278
-0.0109185
0.0320687
-0.0310958
0.00145439
-0.0031157
0.0300567
-0.0290207
0.00911033
0.00526712
0.0285623
-0.027592
0.0159498
0.0131723
0.0277529
-0.0270293
0.0211025
0.0197253
0.027843
-0.0275263
0.0238376
0.0240235
0.0288361
-0.028805
0.0242741
0.0256105
0.0301933
-0.0300828
0.0237833
0.0253393
0.0312064
-0.0308858
0.0238386
0.0249527
0.0317692
-0.0309464
0.0248928
0.0253691
0.027436
-0.0233027
0.0300463
0.0181819
-0.0185351
0.0323684
0.0180317
0.0327146
0.0245017
-0.023904
-0.0322828
0.0235773
-0.0321369
-0.0342366
0.0350852
-0.0247525
-0.0249889
0.0251625
-0.0324565
-0.0337604
-0.0254651
0.032522
-0.0218855
-0.0433748
-0.031019
0.0328637
0.0265441
-0.0302723
0.0295938
0.0342852
-0.0376518
-0.0223871
-0.0251962
0.0301603
0.0308659
-0.0217768
0.0206499
-0.0221972
0.0317075
0.0321611
-0.0367545
0.0369405
-0.0243406
-0.0248177
-0.0365163
0.0360707
-0.0246429
-0.0249744
-0.0353246
0.0350792
-0.023103
-0.0245006
-0.0343255
0.0339568
-0.0219441
-0.0232239
-0.0330276
0.0324141
-0.0212636
-0.0222061
-0.0312337
0.0304492
-0.0212994
-0.0219115
-0.0292335
0.0285772
-0.0210122
-0.0220008
-0.0276626
0.0273533
-0.0188153
-0.020877
-0.0268964
0.0269376
-0.014245
-0.017348
-0.0269127
0.0272153
-0.0079847
-0.0116322
-0.0275535
0.0280531
-0.000991096
-0.00467212
-0.0287197
0.0293719
0.00586517
0.00258623
-0.0302815
0.0309969
0.011797
0.00928148
-0.0320181
0.0326849
0.0162253
0.0146837
-0.0336744
0.0342019
0.0189521
0.0183773
-0.0352394
0.0353963
0.0209121
0.0203725
-0.0360448
0.0342858
0.0202865
0.0202662
-0.0332028
0.0318298
0.0190848
0.0194249
-0.0318898
0.031612
0.0183095
0.0183812
0.0390445
-0.04045
-0.0217874
-0.0225704
0.0397097
-0.0406584
-0.0221253
-0.0226196
0.0391422
-0.0380136
-0.0214584
-0.0226851
0.0380652
-0.0367923
-0.0189131
-0.0210982
0.0365883
-0.0353003
-0.0141375
-0.0173329
0.0349046
-0.0337538
-0.00738357
-0.0113141
0.0332582
-0.0323582
0.000554424
-0.00361131
0.0318636
-0.0313573
0.00860399
0.00477253
0.0309427
-0.0308054
0.0158124
0.0127578
0.0305051
-0.0307281
0.0213255
0.019425
0.0306385
-0.0312164
0.0244154
0.023934
0.031388
-0.0321805
0.0250665
0.0257821
0.032456
-0.0331932
0.0245204
0.0256148
0.0333386
-0.0336897
0.0241897
0.0250981
0.0335133
-0.0335521
0.0249316
0.0251927
0.0267475
0.0244032
-0.0312721
0.0304462
-0.0232364
0.0319051
0.0251692
-0.0321436
0.0173402
-0.0172212
0.0314929
0.0324754
-0.0320885
0.0179227
0.0320655
0.0177501
-0.0248085
0.0247394
-0.0323875
-0.0245101
-0.0340587
-0.0278778
0.0301275
-0.0320035
0.0306501
-0.0265244
-0.0294858
0.0178482
-0.0182873
0.0328074
0.0333416
0.0195135
-0.0212419
0.0334359
0.0333874
-0.0357675
0.0365408
-0.0255258
0.0364855
-0.0358109
-0.0251847
-0.0247471
-0.0371418
0.0380091
-0.0252079
-0.0254187
-0.0378213
0.0370236
-0.0238452
-0.0247866
-0.036435
0.0358357
-0.0225037
-0.023912
-0.0351844
0.0345097
-0.0212694
-0.0225725
-0.0337352
0.0328861
-0.0204144
-0.0214316
-0.031899
0.0308723
-0.0202727
-0.0209244
-0.0297975
0.0288181
-0.0200328
-0.0209261
-0.0279257
0.0272189
-0.0181085
-0.0199846
-0.0266612
0.0262934
-0.0138772
-0.0167902
-0.0260773
0.0260223
-0.00792967
-0.0114161
-0.0261099
0.0263341
-0.00121527
-0.00475969
-0.0266954
0.0271634
0.00539716
0.00222486
-0.0277455
0.028385
0.0111575
0.00869946
-0.0290929
0.0297973
0.0155209
0.0139758
-0.0305159
0.0311776
0.0182904
0.0176586
-0.0318135
0.0330953
0.0196303
0.0197366
-0.0328488
0.0332363
0.0198991
0.0205127
-0.0325501
0.0322543
0.0193806
0.020111
0.018547
0.0349077
-0.0362465
-0.0210483
-0.0345912
-0.0216403
0.0329951
-0.0214603
0.0375151
-0.0377624
-0.0215401
-0.0213019
0.0376616
-0.0375252
-0.0222617
-0.0227204
0.0372826
-0.0369805
-0.0217605
-0.0229278
0.0365721
-0.0361334
-0.0193518
-0.0215066
0.0356169
-0.0351089
-0.0146455
-0.0178494
0.0345689
-0.0340708
-0.00788162
-0.0118542
0.0335808
-0.0331487
0.000122326
-0.00410127
0.0327696
-0.0324741
0.00830851
0.00439341
0.0322646
-0.0321336
0.0156814
0.0125482
0.0320974
-0.0321299
0.0213581
0.0193888
0.0322763
-0.0324932
0.0246323
0.0240804
0.0328273
-0.0331881
0.0254273
0.0261163
0.0335982
-0.0339394
0.0248616
0.0260249
0.0342084
-0.0344722
0.0244536
0.025367
0.0345872
-0.0343667
0.0247111
0.0253077
0.0333821
-0.0328416
0.0260036
0.0257629
0.0288232
-0.0278393
0.0291435
0.0255754
-0.0239192
0.0229079
-0.0330474
-0.0351821
-0.024548
-0.0222597
0.032923
0.0261276
-0.0322305
0.0172498
-0.0181999
0.032443
0.0171053
0.03221
0.0250641
-0.0324683
0.0242048
-0.0336843
-0.0256677
0.0284785
0.0293855
-0.0272964
-0.0286134
0.0346114
-0.0357239
-0.0205278
-0.0230628
0.0235737
-0.0335583
-0.0230955
-0.0351494
-0.0222626
0.032998
0.0323493
-0.0200005
0.0281401
-0.0244224
-0.0306547
0.0172505
-0.0183078
0.0338646
0.0323922
0.0188195
-0.0192161
0.0338324
0.0338992
0.0206337
-0.0208518
0.0332161
0.0343406
-0.038522
0.037944
-0.0246068
0.0374127
-0.0380005
-0.0225078
-0.0256573
-0.0380763
0.0382657
-0.0257152
-0.0248794
-0.0388885
0.0382884
-0.0246078
-0.0260415
-0.0381882
0.0375462
-0.0232031
-0.0246864
-0.0368589
0.0361749
-0.0218198
-0.0232247
-0.0354496
0.0347162
-0.020536
-0.0218471
-0.0338983
0.0330156
-0.0195317
-0.0206137
-0.0319949
0.0309221
-0.0191999
-0.0199037
-0.029785
0.0287299
-0.0189777
-0.0197889
-0.0277572
0.0269728
-0.0173242
-0.0190119
-0.0263458
0.0259175
-0.0134489
-0.0161632
-0.0256531
0.0255597
-0.0078363
-0.0111517
-0.0256208
0.0258233
-0.00141776
-0.00482077
-0.026174
0.0266337
0.00493744
0.00187411
-0.0272132
0.0278527
0.010518
0.00812001
-0.0285663
0.0292808
0.0148064
0.0132621
-0.0300158
0.0306992
0.0176069
0.0169236
-0.0313575
0.0319367
0.0190512
0.0190783
-0.032459
0.0328892
0.0194689
0.0199903
-0.0332087
0.0329948
0.0195945
0.0197915
-0.0327423
0.0323629
0.0183021
0.0187996
-0.0323962
0.0325109
0.0169906
0.0177167
0.0368563
-0.0378459
-0.0200587
-0.0203279
0.0376792
-0.0377617
-0.0214576
-0.0214686
0.0377838
-0.0377356
-0.0223099
-0.0226983
0.0376065
-0.0373999
-0.021967
-0.023057
0.0371091
-0.0367614
-0.0196995
-0.0217974
0.0363528
-0.035928
-0.0150703
-0.0182579
0.0354805
-0.035054
-0.0083081
-0.0123017
0.0346322
-0.0342502
-0.000259629
-0.00452313
0.0338939
-0.0335975
0.00801205
0.00403713
0.0333488
-0.0331724
0.015505
0.0122996
0.0330599
-0.0330203
0.0213185
0.0192763
0.0330568
-0.0331703
0.0247457
0.0241169
0.0333657
-0.0336102
0.0256718
0.0263118
0.0338857
-0.0341297
0.0251057
0.0263004
0.0343169
-0.0344051
0.0245418
0.0255541
0.0343904
-0.0342747
0.0245953
0.025293
0.0340528
-0.0329132
0.024864
0.0255411
0.0330275
-0.028621
0.024737
0.0256897
0.0252683
-0.0229041
0.0257759
0.0251258
-0.0206642
0.0203827
-0.0348679
-0.0364807
-0.0221839
0.0282646
-0.0265033
-0.0261837
-0.0226643
0.0280248
0.0256875
-0.0328538
-0.0258524
-0.0292642
-0.0212904
0.0327878
0.0251512
-0.0334147
0.0171398
-0.0166467
0.0320178
0.0322826
-0.0328749
0.0175829
0.0320374
0.017385
0.023635
-0.0337456
0.0208148
-0.0339904
0.0250298
-0.0246655
-0.0265481
-0.0184874
0.0192687
-0.0356491
-0.0187579
-0.0362103
0.0248169
-0.0224514
-0.0308196
0.0172432
-0.0170904
0.0322902
0.0328066
0.0179953
-0.0178834
0.0337527
0.0332972
0.0177821
-0.018366
0.0344164
0.0337979
0.0177051
-0.0187989
0.0343099
0.0336797
-0.039676
0.0409197
-0.0237514
0.0377718
-0.0385642
-0.0179655
-0.0240881
-0.0403818
0.0408541
-0.0250791
-0.0251194
-0.0413018
0.0408952
-0.0253087
-0.0253271
-0.0402168
0.0395223
-0.0239134
-0.025363
-0.0387845
0.038053
-0.0224716
-0.0239486
-0.0372869
0.0365352
-0.0210681
-0.0224586
-0.0357496
0.0349702
-0.0197566
-0.0210615
-0.0341215
0.0332217
-0.0186319
-0.019765
-0.032186
0.0310867
-0.0181005
-0.018868
-0.0299008
0.0287778
-0.0178547
-0.018603
-0.0277238
0.0268611
-0.0164615
-0.0179579
-0.0261626
0.025677
-0.0129632
-0.0154648
-0.0253655
0.025236
-0.00770688
-0.0108402
-0.0252699
0.0254552
-0.00160301
-0.00485465
-0.0257881
0.0262356
0.00448992
0.00154118
-0.0268067
0.027442
0.00988261
0.00754896
-0.0281559
0.0288754
0.0140869
0.0125483
-0.0296206
0.0303196
0.0169079
0.0161785
-0.0309988
0.031601
0.0184489
0.0183992
-0.0321545
0.0326185
0.0190049
0.0194368
-0.0329777
0.0331721
0.0194001
0.0194322
-0.0333254
0.0326968
0.0189307
0.0186463
0.0175386
0.0362273
-0.0370973
-0.0196579
-0.0354709
-0.0189896
0.0331702
-0.0192442
0.0383435
-0.0382758
-0.0201264
-0.0190816
0.038495
-0.0386631
-0.0212896
-0.0212493
0.0387819
-0.0388316
-0.0222601
-0.0225795
0.0388043
-0.0386947
-0.0220766
-0.0230843
0.0384949
-0.0382234
-0.019971
-0.0219972
0.0378763
-0.0374933
-0.0154533
-0.0186051
0.0370701
-0.0366507
-0.00872747
-0.0127248
0.0362208
-0.035816
-0.000664427
-0.00495303
0.0354178
-0.0350592
0.00765346
0.00363889
0.0347265
-0.0344512
0.0152297
0.0119668
0.034224
-0.0340657
0.0211601
0.0190492
0.0339727
-0.0339568
0.0247298
0.0240239
0.0340173
-0.0341365
0.0257909
0.0263723
0.0342924
-0.0344328
0.025246
0.0264564
0.0345234
-0.0345233
0.0245417
0.0256447
0.0344152
-0.0342016
0.0243818
0.0251849
0.0338731
-0.0334505
0.0244414
0.0252125
0.0329009
-0.0322538
0.0240899
0.0251402
0.0314781
-0.028503
0.0228009
0.0243501
0.0238021
-0.0218436
0.0228584
0.0233239
-0.0160398
0.0162918
-0.0364622
-0.0380138
-0.0165902
0.0214717
-0.0203331
-0.02359
-0.0205108
0.0201389
-0.019346
0.0333349
0.0242692
-0.0319718
-0.024713
-0.0292167
0.0166908
-0.0170586
0.0323855
0.0162533
0.0324749
0.0225554
-0.0323351
-0.0218754
-0.0250058
0.0207309
-0.0336617
0.0188165
-0.0335383
0.0149765
-0.0343338
0.034958
-0.0355786
-0.018369
0.017073
-0.0195435
-0.0211195
-0.013683
0.0121201
-0.0348993
-0.0138275
-0.0378693
0.0162726
-0.0197104
-0.0194292
0.0332534
0.0322487
-0.01672
-0.0312635
0.0168153
-0.0173809
0.0328558
0.0325633
0.0170864
-0.0166092
0.0332754
0.0330027
0.0173786
-0.0167923
0.0338301
0.0345674
0.0172745
-0.0171677
0.0342031
0.0341618
0.0184456
-0.0188554
0.0336632
0.0346129
-0.0414476
0.0440325
-0.0205504
0.040389
-0.0398612
-0.0143553
-0.0176488
-0.041963
0.0427043
-0.0244927
-0.0220186
-0.0426395
0.042973
-0.0254126
-0.0250547
-0.0427334
0.0417937
-0.024369
-0.0250875
-0.0409846
0.0401831
-0.023112
-0.0245538
-0.0393507
0.0385442
-0.0216651
-0.0231162
-0.0377116
0.0369035
-0.02026
-0.0216261
-0.0360667
0.0352476
-0.0189374
-0.0202247
-0.0343731
0.0334641
-0.0177229
-0.0188906
-0.0324278
0.0313221
-0.0169949
-0.0178317
-0.0301103
0.0289387
-0.0166831
-0.0173912
-0.0278158
0.0268799
-0.0155255
-0.016835
-0.0261104
0.0255672
-0.01242
-0.0146954
-0.025209
0.025045
-0.00754288
-0.010482
-0.0250515
0.0252145
-0.00176593
-0.00486116
-0.0255301
0.0259633
0.00405668
0.00122559
-0.0265226
0.0271496
0.0092556
0.00698969
-0.0278587
0.028578
0.0133675
0.0118392
-0.0293278
0.030037
0.0161987
0.0154287
-0.0307316
0.0313534
0.0178271
0.0177045
-0.0319317
0.0324232
0.0185135
0.0188586
-0.0326522
0.0334788
0.0185735
0.0192032
-0.033308
0.0335514
0.0186873
0.0188171
-0.0330389
0.0328935
0.0177283
0.0180511
-0.0331244
0.0322387
0.017139
0.0171542
0.0368329
-0.0386035
-0.0178872
-0.0179899
0.0383919
-0.0390189
-0.0194995
-0.0192932
0.0393195
-0.0395777
-0.0210313
-0.0209487
0.0397978
-0.0399509
-0.022107
-0.0223594
0.0400329
-0.0400267
-0.0220827
-0.0230023
0.0399258
-0.0397372
-0.0201597
-0.0220981
0.0394579
-0.039121
-0.0157902
-0.0188843
0.0387244
-0.0383113
-0.00914057
-0.0131215
0.0378699
-0.0374379
-0.00109639
-0.00539442
0.0369946
-0.0365749
0.00723369
0.00319562
0.0361607
-0.0357899
0.0148589
0.0115526
0.0354502
-0.0351734
0.0208833
0.0187094
0.0349507
-0.0348046
0.0245837
0.0238012
0.0347287
-0.0347194
0.0257815
0.0262964
0.0347509
-0.0347824
0.0252776
0.0264878
0.034772
-0.034682
0.0244518
0.0256342
0.0344838
-0.0341813
0.0240792
0.0249867
0.0337572
-0.03324
0.0239243
0.0247884
0.032596
-0.0318654
0.0233593
0.0244962
0.0310068
-0.0300734
0.0218675
0.0234915
0.0280422
-0.024139
0.0189552
0.0212927
0.0214011
-0.0208635
0.015735
0.017401
0.0132283
-0.015995
-0.0169436
0.011642
-0.0192772
-0.0095956
0.00856978
-0.0368435
-0.0388696
-0.0105871
0.0219134
-0.0313299
-0.0215334
-0.0295587
-0.0187775
0.0321709
0.0202563
-0.0318604
-0.0177089
-0.0268404
0.0168672
-0.0166981
0.0320696
0.0325748
-0.0328617
0.0174258
0.0323667
0.0170753
0.0176721
-0.0325173
-0.0136423
-0.0234723
0.0146441
-0.0332059
-0.0115728
-0.0267575
0.0213867
0.0114695
-0.0336832
0.00815783
-0.0344873
-0.00604941
0.00437634
-0.0351704
-0.00653444
-0.0383846
-0.0308835
0.0165048
-0.0168113
0.032692
0.0322816
0.0163883
-0.0163769
0.0328443
0.0321404
0.0172705
-0.0166682
0.0326731
0.0338963
0.0163958
-0.016136
0.0335703
0.034295
0.0158226
-0.0159029
0.0342834
0.0338484
0.0158443
-0.0166885
0.0345074
0.0345542
-0.0427488
0.0438079
-0.0154144
0.0406924
-0.0404032
-0.00682356
-0.0126436
-0.0443184
0.045396
-0.021628
-0.0181593
-0.0460926
0.045222
-0.0236221
-0.0227152
-0.0450608
0.043841
-0.0241928
-0.0248935
-0.043476
0.0426018
-0.0234947
-0.0247225
-0.0416838
0.0407931
-0.0222213
-0.0236358
-0.0398828
0.039013
-0.0207954
-0.0222058
-0.0381258
0.0372726
-0.0194069
-0.0207388
-0.0363958
0.0355461
-0.0180878
-0.0193479
-0.034654
0.033745
-0.0168139
-0.0179985
-0.0327217
0.0316281
-0.0159012
-0.0168084
-0.0304115
0.0292094
-0.015481
-0.0161747
-0.0280302
0.0270265
-0.0145218
-0.0156557
-0.0261871
0.0255847
-0.0118176
-0.013856
-0.0251777
0.0249782
-0.00734337
-0.010075
-0.0249561
0.0250961
-0.00190591
-0.0048391
-0.0253928
0.0258096
0.00363982
0.000928897
-0.0263541
0.026969
0.00864065
0.00644525
-0.0276688
0.0283831
0.0126532
0.0111394
-0.0291324
0.0298463
0.0154848
0.0146794
-0.0305512
0.0311876
0.0171907
0.0169997
-0.0317854
0.0323004
0.0179984
0.0182608
-0.0327622
0.0331422
0.0181935
0.0187414
-0.0332297
0.0338826
0.0180344
0.0187295
-0.0334589
0.0334221
0.0177651
0.0184748
0.0177146
0.0361263
-0.0378312
-0.0166641
-0.0359094
-0.0165797
0.0337115
-0.016503
0.0385739
-0.0389684
-0.0174927
-0.0172472
0.039372
-0.0397557
-0.0191158
-0.0188896
0.04014
-0.0404889
-0.0206824
-0.0205644
0.0408115
-0.0410714
-0.0218471
-0.0220369
0.0412677
-0.0413717
-0.0219788
-0.022806
0.0413777
-0.0412798
-0.0202575
-0.0220921
0.0410758
-0.0407903
-0.0160758
-0.0190883
0.0404234
-0.0400173
-0.00954663
-0.0134884
0.039563
-0.039101
-0.00155838
-0.00584875
0.0386099
-0.0381279
0.00675168
0.00270452
0.0376325
-0.0371672
0.0143937
0.0110572
0.0367159
-0.0363208
0.0204881
0.0182582
0.0359689
-0.0356931
0.024308
0.0234493
0.0354816
-0.0353431
0.0256431
0.0260849
0.0352483
-0.0351684
0.0251978
0.026393
0.0350554
-0.0348769
0.0242733
0.0255212
0.0345941
-0.0342117
0.0236968
0.024704
0.033704
-0.0331051
0.0233254
0.0242807
0.0323792
-0.0315743
0.0225544
0.0237703
0.0306409
-0.029637
0.0208635
0.0225581
0.0285097
-0.0273751
0.0178206
0.0201654
0.0262192
-0.024403
0.0139189
0.0162451
0.010033
-0.00198274
0.000807722
-0.0372096
-0.0392374
-0.0031486
-0.0176073
0.0330896
0.0198832
-0.0309568
-0.0188436
-0.028424
0.0170563
-0.0170514
0.0320647
0.0168592
0.0325637
0.0172208
-0.0314091
-0.0144096
-0.0260731
0.0142394
-0.0321126
-0.00986508
-0.0251801
0.0109649
-0.0327013
-0.00501513
-0.0232922
0.00757609
-0.0331015
0.00381505
-0.033926
0.000356192
-0.0347189
0.00284366
-0.0193816
0.0344096
-0.0363973
-0.0145919
0.00209232
-0.00358135
-0.0357205
0.000963683
-0.0381087
-0.0169674
0.0330716
0.0334198
-0.0159776
-0.0298438
0.0169916
-0.0170227
0.032723
0.0322219
0.0175407
-0.0167729
0.0320764
0.0326584
0.01645
-0.0161377
0.0323608
0.0335735
0.0158071
-0.0155633
0.0333265
0.0339644
0.0151385
-0.0149433
0.0340882
0.0334235
0.0147482
-0.0149402
0.0346994
0.0343592
0.0157094
-0.0163732
0.0337354
0.0338588
-0.0432077
0.0456661
-0.00928189
0.0419379
-0.0402745
-0.000699793
-0.00441841
-0.0457941
0.0467742
-0.0163945
-0.0127716
-0.0481456
0.0473825
-0.020865
-0.0195307
-0.0475863
0.0469705
-0.0230063
-0.0229189
-0.0461702
0.0452815
-0.0233042
-0.0240932
-0.044302
0.0433222
-0.0225149
-0.023743
-0.0423103
0.0413448
-0.0212558
-0.0226239
-0.0403709
0.0394507
-0.0198752
-0.0212319
-0.0385213
0.037635
-0.0185205
-0.0198094
-0.0367298
0.0358588
-0.0172167
-0.0184427
-0.034956
0.0340534
-0.0159113
-0.0170957
-0.0330538
0.0319892
-0.0148365
-0.0158089
-0.0307907
0.0295801
-0.0142704
-0.0149763
-0.028361
0.0272973
-0.0134581
-0.0144367
-0.0263884
0.0257238
-0.0111531
-0.012947
-0.0252646
0.0250258
-0.00710457
-0.00961578
-0.0249727
0.0250902
-0.00202339
-0.00478597
-0.0253656
0.0257642
0.00324125
0.000653461
-0.0262912
0.0268911
0.00804079
0.00591821
-0.0275779
0.0282831
0.011948
0.0104526
-0.0290273
0.0297413
0.0147708
0.0139351
-0.0304515
0.0310981
0.0165441
0.0162896
-0.0317113
0.032246
0.0174638
0.0176475
-0.0327328
0.0331407
0.0177856
0.0182547
-0.0334962
0.033774
0.0177565
0.0183741
-0.0342156
0.0339498
0.0180309
0.0180332
-0.0340373
0.0337985
0.0176646
0.0176272
-0.0337073
0.0326568
0.0179098
0.0171665
0.0375438
-0.0386801
-0.0155278
-0.0153565
0.0391264
-0.0395664
-0.0170527
-0.0168009
0.0400291
-0.040481
-0.0186639
-0.0184269
0.0409451
-0.0413825
-0.020245
-0.0201003
0.0418073
-0.0421752
-0.0214792
-0.021612
0.0424892
-0.0427082
-0.0217597
-0.0224921
0.042828
-0.0428285
-0.020257
-0.0219724
0.0427073
-0.0424793
-0.0163038
-0.0192095
0.0421462
-0.0417489
-0.00994394
-0.0138214
0.0412813
-0.0407876
-0.00205204
-0.00631634
0.0402467
-0.0397008
0.00620583
0.00216355
0.0391237
-0.0385644
0.0138344
0.0104801
0.0380023
-0.037489
0.0199749
0.017696
0.0370075
-0.0366021
0.0239026
0.0229678
0.0362551
-0.0359879
0.0253758
0.025738
0.035767
-0.0355763
0.0250071
0.0261722
0.035363
-0.0351004
0.0240107
0.0253078
0.0347403
-0.0342872
0.0232437
0.0243439
0.0337062
-0.0330353
0.0226545
0.0236998
0.0322368
-0.031366
0.0216836
0.0229717
0.0303724
-0.0293264
0.0198176
0.0215645
0.0281832
-0.0270545
0.0166918
0.0190222
0.025906
-0.0242995
0.0123125
0.0150966
0.0233307
0.00463266
0.0090641
0.00479256
-0.00651791
-0.0363834
-0.0388837
0.00340182
-0.00622447
0.00571375
-0.0176566
-0.0192316
-0.00224837
0.0166418
-0.0303778
-0.0155457
-0.0272879
-0.0160353
0.0330819
0.0139384
-0.0311081
-0.0106083
-0.0253299
0.0177539
-0.0176622
0.0325651
0.0330258
-0.0331359
0.0180198
0.0330574
0.0177224
0.0108266
-0.0319744
-0.00565612
-0.0245391
0.00741563
-0.0325408
0.00115652
-0.0216051
0.00347858
-0.032765
0.00604401
-0.0197118
-0.000516256
-0.0330536
-0.00432915
-0.0339711
-0.00763243
-0.034606
-0.00820542
0.00633491
-0.0370132
-0.00982965
-0.0347592
-0.00777492
0.00935178
-0.0192335
-0.0198364
-0.00717009
-0.0287477
0.0173558
-0.0176295
0.0323384
0.0322573
0.0172084
-0.0165208
0.0320354
0.0318008
0.0168532
-0.0164674
0.0316907
0.0329908
0.0160608
-0.0156738
0.0319737
0.0331669
0.0152739
-0.0143833
0.0324359
0.0335646
0.0150724
-0.0139995
0.0330153
0.0341127
0.0138808
-0.0133823
0.034201
0.0342404
0.0140697
-0.0140889
0.0337546
0.0345462
-0.0427625
0.0448301
-0.00276735
0.0407845
-0.0390544
0.00460476
0.00142385
-0.0463744
0.0483866
-0.0112941
-0.00596272
-0.0495251
0.0498441
-0.0167136
-0.0139101
-0.0498257
0.0494875
-0.0205268
-0.0195123
-0.0488798
0.0480807
-0.0222072
-0.0223113
-0.0471112
0.0460883
-0.0222813
-0.0231237
-0.0449934
0.0439276
-0.0214491
-0.0226481
-0.0428447
0.0418245
-0.0202355
-0.021541
-0.0408054
0.0398503
-0.0189201
-0.0202128
-0.0388927
0.0379854
-0.0176132
-0.0188518
-0.0370635
0.0361808
-0.016334
-0.0175208
-0.0352743
0.034383
-0.01502
-0.0161893
-0.0334146
0.0323923
-0.0138143
-0.0148404
-0.0312334
0.030038
-0.013075
-0.0138174
-0.0288002
0.0276881
-0.012346
-0.0131988
-0.026712
0.0259813
-0.0104224
-0.0119709
-0.0254633
0.0251804
-0.00682166
-0.0090978
-0.0250929
0.0251837
-0.00211417
-0.00469845
-0.0254365
0.0258151
0.00286266
0.00040065
-0.0263228
0.0269053
0.00745829
0.00541051
-0.0275763
0.0282692
0.0112551
0.00978162
-0.0290048
0.029715
0.0140605
0.0131995
-0.0304266
0.0310798
0.0158909
0.015578
-0.0317054
0.032257
0.0169122
0.017022
-0.0327662
0.0331989
0.0173529
0.0177455
-0.0335808
0.0338842
0.0174531
0.0179922
-0.0338952
0.0344466
0.0174795
0.0180221
-0.0339582
0.0339454
0.0176773
0.0181156
0.0179761
0.0372702
-0.03819
-0.0136721
-0.0359185
-0.0140164
0.0338996
-0.0146259
0.0387236
-0.0391789
-0.0150725
-0.0148229
0.0396637
-0.0401494
-0.016567
-0.0163161
0.0406666
-0.0411813
-0.0181493
-0.0179096
0.041721
-0.042243
-0.019723
-0.0195606
0.0427672
-0.043242
-0.0210044
-0.0210879
0.0436746
-0.0440124
-0.0214219
-0.0220595
0.0442519
-0.0443584
-0.0201505
-0.0217329
0.0443285
-0.0441654
-0.016467
-0.0192394
0.0438719
-0.0434865
-0.0103294
-0.0141149
0.0430065
-0.0424806
-0.00257802
-0.00679628
0.0418886
-0.0412774
0.00559462
0.00157157
0.0406181
-0.0399651
0.0131814
0.00982081
0.0392924
-0.0386616
0.0193441
0.0170233
0.0380506
-0.0375152
0.0233672
0.0223568
0.0370329
-0.0366374
0.0249802
0.0252558
0.0362919
-0.0359924
0.0247076
0.0258266
0.0356822
-0.0353406
0.0236692
0.0249976
0.0349108
-0.0343963
0.0227291
0.0239141
0.0337539
-0.0330244
0.0219249
0.0230575
0.0321682
-0.0312487
0.0207641
0.0221156
0.0302175
-0.0291541
0.0187542
0.0205333
0.028015
-0.0269001
0.015577
0.017883
0.0257585
-0.024473
0.011027
0.013955
0.0235181
-0.0236721
0.00478659
0.00810927
0.0267935
-0.0170033
0.00187466
0.002735
0.0229231
-0.0203864
-0.00478514
-0.00249592
-0.00903513
0.00963067
-0.0204319
0.0206117
-0.0084335
-0.0212133
-0.00694478
-0.0149888
0.0339818
0.0102403
-0.0124694
-0.034784
-0.0367945
0.00798036
0.0128459
-0.0292853
-0.0117235
-0.0261726
0.0177795
-0.0177155
0.0325011
0.0176364
0.0332005
0.00970697
-0.0299885
-0.00639879
-0.0245872
0.00623982
-0.0307986
-0.000586927
-0.0227956
0.00258403
-0.0316463
0.00493328
-0.0204943
-0.00110784
-0.0321734
0.00872099
-0.019081
-0.00499002
-0.0323927
0.010812
-0.0204148
-0.00885697
-0.0327465
-0.0117598
-0.0326759
-0.0141084
-0.0331202
-0.0228469
0.0218546
-0.00744119
0.0142716
-0.0164429
-0.0326128
0.0352007
-0.0366141
-0.0126029
-0.0149382
0.033849
0.0342306
-0.0139681
0.0129378
-0.0354607
0.00952919
-0.0233121
-0.00906403
0.0109591
-0.0226432
0.0119911
-0.0214639
-0.0276254
0.017737
-0.0169782
0.0315796
0.0322789
0.0178948
-0.0171138
0.0312544
0.0327174
0.0166713
-0.0162248
0.0312441
0.0325483
0.0157459
-0.0152846
0.0315124
0.032688
0.0148089
-0.0143629
0.0319898
0.0330889
0.0139139
-0.0134989
0.0326003
0.0336637
0.0130392
-0.0128438
0.0340055
0.0337808
0.0125774
-0.0134747
0.034652
0.0342798
0.0135733
-0.0135425
0.0338181
0.0340804
-0.0416006
0.0435238
0.00268159
0.0396099
-0.0375073
0.0108353
0.00598965
-0.045644
0.0482572
-0.0053805
-0.000696397
-0.0503437
0.050579
-0.0115294
-0.00804924
-0.0514222
0.0518142
-0.0171056
-0.0147534
-0.0513152
0.0507622
-0.0199738
-0.0190132
-0.0499408
0.0489732
-0.0212396
-0.0214899
-0.0478621
0.0467318
-0.021151
-0.0220126
-0.0455518