/*--------------------------------*- C++ -*----------------------------------*\
  =========                 |
  \\      /  F ield         | OpenFOAM: The Open Source CFD Toolbox
   \\    /   O peration     | Website:  https://openfoam.org
    \\  /    A nd           | Version:  10
     \\/     M anipulation  |
\*---------------------------------------------------------------------------*/
FoamFile
{
    format      ascii;
    class       volScalarField;
    location    "17.5";
    object      p;
}
// * * * * * * * * * * * * * * * * * * * * * * * * * * * * * * * * * * * * * //

dimensions      [0 2 -2 0 0 0 0];

internalField   nonuniform List<scalar> 
6397
(
4.28708
4.01699
0.46424
0.082074
-0.621986
-0.125274
7.58941
5.0631
-10.8659
-9.12427
3.35418
0.312956
-0.234095
-0.172935
-0.233854
-15.2587
-15.7948
-14.5473
12.1258
11.9828
11.1868
-10.6183
-9.38402
-8.86326
-0.122318
-0.0812503
-0.0381018
-3.847
-3.63471
-2.8122
-2.75227
-0.556868
-0.0874117
-0.356958
-0.668516
-0.269998
-0.654454
-0.196939
0.0386988
-0.0512406
-0.46904
-0.22336
-2.75076
-0.376859
-0.0793157
0.270707
-0.393858
0.000373214
0.472902
0.582897
0.630232
0.70984
0.651989
4.18267
3.5958
3.07408
3.10815
1.92263
-1.93336
-1.96688
-2.0351
-2.26177
-2.60655
-3.05048
-3.48348
-3.79731
-3.81797
-3.58883
-1.90386
-2.14504
-2.24072
-1.71819
-1.67332
-1.72881
-1.88223
-2.09474
-2.3249
-2.48048
-2.49399
-2.37118
-2.72432
-2.46265
-3.19601
-2.19802
-3.30317
-2.86702
-2.8089
-2.06075
-3.89031
-3.29503
-2.53437
-2.00975
-4.35135
-4.62656
-2.4028
-2.06886
-4.16386
-5.1284
-4.75043
-2.74721
-3.45392
-1.65998
-2.12976
-1.18047
-1.34909
-1.13066
-1.11677
-1.29241
-1.20239
-1.38403
-1.38073
-1.31894
-1.35762
-1.41029
-1.33568
-1.60832
-3.54681
-2.60057
-2.98236
-4.89659
-4.26122
-5.15947
-5.26708
-4.00571
-4.70679
-2.71181
-3.30703
-2.00392
-2.27821
-1.88041
-1.86978
-2.24912
-2.01814
-2.69127
-2.48061
-4.66255
-3.84199
-5.16253
-1.97209
-2.30339
-2.66914
-2.44524
-2.27802
-2.53593
-1.49244
-2.12671
-1.81359
-5.24879
-5.26272
-1.79123
-2.4614
-4.10125
-4.81437
-2.48198
-3.27723
-1.2549
-1.79304
-0.630818
-0.880117
-0.421617
-0.489637
-0.434376
-0.413146
-0.509603
-0.467145
-0.579766
-0.537154
-0.794476
-0.654091
-1.06476
-4.21186
-3.32387
-6.12472
-5.22389
-6.50288
-6.59356
-4.92645
-5.85245
-3.08264
-3.93099
-1.97097
-2.43051
-1.52697
-1.68201
-1.56725
-1.50784
-1.7374
-1.65997
-1.78945
-4.43085
-3.69105
-4.84445
-4.79984
-2.13564
-2.50857
-2.73041
-0.948377
-1.57834
-3.03228
-3.35893
-1.65907
-2.16405
-1.51285
-2.59387
-1.74296
-4.1257
-4.56593
-3.83969
-0.947961
-0.929559
-2.71656
-5.04379
-5.06145
-3.81354
-4.57549
-2.07187
-2.91491
-0.790797
-1.35849
-0.119762
-0.396879
0.146301
0.0450111
0.194075
0.182473
0.146944
0.182662
0.0310833
0.0940546
-0.23662
-0.0709865
-0.52002
-2.59062
-1.99109
-4.64602
-3.48606
-7.05942
-5.93104
-7.52669
-7.63105
-5.58031
-6.7428
-3.25399
-4.33807
-1.82232
-2.42627
-1.13577
-1.40757
-0.917564
-0.986384
-0.942526
-0.928158
-0.959322
-3.91271
-3.36815
-4.15803
-2.46423
-2.75672
-3.40088
-1.51146
-2.35493
-4.24201
-4.47392
-3.26851
-2.96556
-2.35239
-1.69639
-0.245751
-0.270668
-4.0649
-3.3582
-3.62832
-4.94338
-5.64509
-0.979425
-3.18056
-4.46709
-4.50495
-3.28622
-4.00664
-1.61851
-2.44398
-0.380207
-0.923047
0.285754
0.0153477
0.560108
0.456954
0.637056
0.613524
0.615192
0.638036
0.508831
0.571681
0.240897
0.404893
-0.401968
-0.0190936
-1.69409
-0.941636
-3.7731
-2.66827
-1.14814
-0.76551
-0.884
-2.36419
-1.61644
-4.74305
-3.41384
-7.45056
-6.19097
-7.99098
-8.10734
-5.80073
-7.11125
-3.16848
-4.39944
-1.53527
-2.22542
-0.706908
-1.04835
-0.34847
-0.482483
-0.234285
-0.265063
-0.229025
-3.25626
-2.90971
-3.37542
-1.63088
-0.763193
-6.08146
-4.69892
-3.17425
-4.32352
-2.47288
-1.07168
0.328491
0.260455
-2.65337
-5.79074
-0.823145
-1.80116
-6.90599
-6.66486
-5.11421
-0.354787
-3.85997
-3.31322
-1.87912
-2.67456
-3.59161
-3.68037
-2.54156
-3.17362
-1.09764
-1.81388
-0.00678956
-0.483964
0.595409
0.349643
0.856235
0.758517
0.947895
0.918383
0.948523
0.95907
0.874263
0.923101
0.633473
0.780708
0.115895
0.410425
-0.850035
-0.30255
-2.38292
-1.58675
-3.2312
-3.02795
-0.141044
-0.0566857
-0.0707489
-0.656237
-0.322306
-1.98399
-1.19324
-4.42435
-3.07196
-7.18782
-5.89965
-7.76548
-7.8727
-5.50855
-6.85242
-2.82814
-4.08108
-1.16067
-1.86622
-0.2927
-0.657245
0.145761
-0.0359119
0.332226
0.262745
0.358412
-0.902921
-0.0538167
-4.85843
-2.9346
-0.535314
0.141984
-1.22802
-0.803451
-2.07479
-1.66584
-2.58571
-2.41073
-2.38637
-2.57347
-1.59946
-2.0564
-1.10769
-3.71655
-5.4268
-2.96439
-6.99289
-1.91072
-7.5613
-0.094124
-0.892669
-6.40836
-2.28093
-4.02422
-1.24723
-0.6198
-4.68994
-2.36577
-1.89146
-2.52741
-2.55478
-1.72239
-2.234
-0.550375
-1.13179
0.345695
-0.0477028
0.841496
0.639744
1.06485
0.981757
1.15133
1.12415
1.16825
1.16796
1.12828
1.16012
0.948723
1.06021
0.564828
0.782512
-0.145312
0.260537
-1.17809
-0.665259
-1.51562
-1.53371
-0.680881
-1.19768
0.489411
0.485455
0.493917
0.346576
0.451183
-0.188424
0.143613
-1.45172
-0.712746
-3.71425
-2.45747
-6.27366
-5.08306
-6.84253
-6.92694
-4.72463
-5.98414
-2.24651
-3.40062
-0.714643
-1.36425
0.0958223
-0.249501
0.53126
0.346678
0.753145
0.662332
0.738222
0.773732
0.514537
0.664394
0.301461
-1.38717
-0.739928
-1.08225
-1.84961
-1.65295
-1.97508
-1.97295
-1.58229
-1.84336
-0.811294
-1.23151
-0.0814467
0.488762
-1.48624
-0.194657
-0.051453
-0.413566
-4.23999
-6.44102
-3.14823
-7.63706
-1.88754
-7.31222
-0.826918
-5.41194
0.474357
-0.0625067
-2.84762
0.239398
-0.670738
0.843985
0.413436
0.745323
0.63994
0.99565
1.20702
0.273146
0.405415
0.611252
-5.46385
-0.649794
-0.161675
-1.45277
-1.11181
-1.57339
-1.61159
-0.949167
-1.33749
-0.0556349
-0.500807
0.638518
0.332427
1.02522
0.872676
1.20128
1.13828
1.27993
1.25459
1.31712
1.30527
1.29944
1.32258
1.15341
1.24435
0.867737
1.02735
0.402809
0.658781
-0.165486
0.110471
-0.388296
-0.376533
0.40095
-0.0399033
0.760534
0.881005
0.887302
0.871135
0.870161
0.751554
0.837422
0.274836
0.566179
-0.779563
-0.158197
-2.70512
-1.64122
-4.86238
-3.85424
-5.36695
-5.42826
-3.61611
-4.66417
-1.54356
-2.50987
-0.243674
-0.796444
0.453221
0.156626
0.839281
0.675002
1.03733
0.963896
1.05584
1.044
0.809938
0.973012
0.584342
-1.16809
-0.892631
-1.55117
-1.39226
-1.66918
-1.6578
-1.45655
-1.60544
-0.90514
-1.217
-0.183247
-0.546704
0.141609
-4.51369
-6.98613
-3.08155
-7.41396
-1.72698
-6.22911
-0.721852
-3.988
-0.0859728
-1.64608
0.607258
0.298933
0.0261796
1.40422
0.984764
0.838605
0.447452
0.739083
1.55596
1.70599
1.76433
0.783287
0.89899
0.53862
0.792208
-5.87857
-0.124461
0.231696
-0.676485
-0.43488
-0.762992
-0.777896
-0.311832
-0.584456
0.341514
0.0203492
0.853785
0.628658
1.14653
1.02972
1.28544
1.2327
1.36116
1.3307
1.39661
1.38344
1.37023
1.39532
1.26519
1.32508
1.11437
1.19588
0.890436
1.01432
0.574193
0.737728
0.514431
0.46315
1.05696
0.73924
1.51081
1.32737
1.62761
1.03791
0.934896
1.12723
1.10818
1.11155
1.11457
1.04866
1.09899
0.713642
0.925937
-0.112583
0.378948
-1.61628
-0.791068
-3.29612
-2.50793
-3.71281
-3.74249
-2.40005
-3.18357
-0.832951
-1.56626
0.187961
-0.249093
0.754427
0.514161
1.07386
0.939612
1.24995
1.1771
1.28129
1.29697
1.03472
1.19426
0.788595
-1.26199
-0.930678
-1.73431
-1.52789
-1.84224
-1.84566
-1.5774
-1.75506
-1.03476
-1.33064
-0.357892
-0.705378
0.317872
-0.00708586
0.591042
-4.39033
-6.78845
-2.75827
-6.37066
-1.4946
-4.70933
-0.656491
-2.58762
-0.173749
-0.703904
0.131897
0.500523
0.608861
0.253612
1.2363
1.81172
1.66591
0.972492
-5.69804
0.726594
1.07795
0.927892
0.289015
0.521118
-0.0618258
0.0926052
-0.122322
-0.122102
0.173888
-0.00808747
0.630794
0.402363
1.00133
0.834754
1.21891
1.12362
1.33461
1.28019
1.40721
1.37031
1.45103
1.43165
1.44929
1.45516
1.40505
1.43201
1.31904
1.36909
1.17976
1.25473
1.05711
1.1088
1.11832
1.05242
1.47111
1.26943
1.75429
1.64249
1.85117
1.82193
1.88315
1.871
1.07665
0.901908
1.00157
1.21323
1.14457
1.29672
1.26646
1.29042
1.29839
1.24584
1.27588
1.03155
1.17213
0.435651
0.792468
-0.660347
-0.0589088
-1.82808
-1.29226
-2.09393
-2.12318
-1.23575
-1.75539
-0.183592
-0.679011
0.546658
0.227089
0.987794
0.796492
1.24344
1.1338
1.37877
1.31719
1.40434
1.40523
1.18842
1.33112
0.659658
0.958232
0.298459
-2.08528
-1.15446
-1.66105
-2.48926
-2.35445
-2.28631
-2.46742
-1.61565
-1.99204
-0.745905
-1.18843
0.0670966
-0.317407
0.682017
0.400911
1.05927
0.909365
1.17398
1.14109
0.440783
0.78323
1.86246
1.88482
-3.87981
-5.88366
0.202479
-2.32677
-4.92288
1.14954
1.31006
1.25549
-1.29561
-3.25536
-0.699361
-1.52969
-0.330299
-0.0852649
-0.099011
0.807938
0.0176443
1.43228
0.656079
0.239402
1.76248
1.89399
1.85839
-4.98277
0.8711
1.00512
0.588833
0.722362
0.380363
0.468364
0.328874
0.326775
0.513578
0.397408
0.819807
0.660152
1.08764
0.959627
1.2568
1.17713
1.3619
1.30877
1.4428
1.40016
1.49022
1.46661
1.50524
1.50328
1.47036
1.49491
1.4044
1.43817
1.35943
1.3784
1.36029
1.35196
1.47506
1.39972
1.71476
1.58999
1.8635
1.80995
1.88739
1.88271
1.88039
1.88553
1.79828
1.8548
1.06751
0.905792
0.978111
1.24054
1.1571
1.3766
1.31077
1.43799
1.41533
1.43332
1.4419
1.38727
1.41572
1.2393
1.33488
0.828734
1.07493
0.105668
0.494479
-0.571678
-0.269321
-0.724038
-0.734975
-0.283609
-0.566056
0.348751
0.0432324
0.831345
0.613427
1.15354
1.0071
1.35373
1.26271
1.44693
1.40283
1.45284
1.45602
1.29813
1.4007
0.87099
1.11506
0.54564
-1.88795
-1.22548
-3.01562
-2.51829
-3.35398
-3.29619
-2.80992
-3.18188
-1.73622
-2.3081
-0.579507
-1.14598
0.380372
-0.059943
0.981581
0.727826
1.26274
1.15778
1.30561
0.522315
0.864615
1.78109
1.70451
-3.18425
-4.65348
1.16287
1.21265
-1.96149
-3.56179
-1.23513
-2.16954
-0.863893
-0.833627
-0.576751
0.30478
-0.420478
1.03211
-0.258248
1.60466
0.0131412
1.84117
0.844716
0.377631
1.8694
1.069
1.07462
0.833837
-1.07326
1.63606
1.57098
-4.01515
0.96284
1.06598
0.765936
0.851396
0.642077
0.695932
0.607273
0.612745
0.715853
0.648983
0.923787
0.814994
1.12351
1.02644
1.26445
1.19766
1.35961
1.31273
1.42614
1.3955
1.4715
1.45382
1.49011
1.48287
1.49661
1.49408
1.49895
1.49836
1.49707
1.49853
1.52204
1.50206
1.64343
1.56915
1.81733
1.72995
1.90273
1.87904
1.88144
1.89737
1.83271
1.86004
1.72195
1.79
1.48408
1.62
1.14954
1.09928
1.26296
1.20606
1.35694
1.31381
1.43359
1.39389
1.48882
1.46462
1.50447
1.50093
1.47218
1.49359
1.36115
1.4312
1.08268
1.24686
0.667628
0.879315
0.348446
0.488928
0.236413
0.264175
0.400957
0.286761
0.732689
0.563682
1.03612
0.892266
1.26223
1.15506
1.41344
1.34041
1.47678
1.44719
1.46438
1.4746
1.34821
1.42203
1.03301
1.21598
0.461539
0.779639
0.113372
-2.60284
-1.80369
-3.87885
-3.32341
-4.1953
-4.19283
-3.32555
-3.88501
-1.86781
-2.62302
-0.462984
-1.13061
0.591645
0.116859
1.19129
0.948929
1.41965
1.34044
1.39325
1.42495
1.27687
1.34144
-2.57709
-3.51605
1.31619
1.37959
1.18517
1.2967
1.21203
1.42753
1.2754
-1.78219
-2.56726
-1.35956
-1.46837
-1.15469
-0.375091
-0.965214
0.584792
-0.856643
1.19478
-0.614229
1.76557
-0.199227
1.83225
1.13079
1.31734
1.39013
1.24169
0.276833
1.78276
0.835446
1.33578
0.0664369
1.28101
-3.13199
1.1074
1.15877
0.998911
1.06548
0.880284
0.933355
0.797238
0.828273
0.775074
0.773347
0.840522
0.79517
0.982887
0.90385
1.13812
1.06139
1.2611
1.20285
1.35305
1.30883
1.43078
1.39233
1.47896
1.45644
1.51142
1.49825
1.52092
1.51966
1.51828
1.51889
1.54086
1.52507
1.60845
1.56851
1.73308
1.66025
1.83282
1.77872
1.88569
1.87232
1.8521
1.87501
1.77825
1.8204
1.64967
1.72302
1.55252
1.30207
1.30002
1.30266
1.30185
1.35111
1.31663
1.43436
1.3934
1.50538
1.47164
1.54674
1.53003
1.55385
1.55404
1.5207
1.54166
1.42882
1.48507
1.23791
1.34525
1.0269
1.12421
0.90828
0.962036
0.817008
0.858497
0.848585
0.814679
1.01648
0.924774
1.19134
1.10595
1.3295
1.26217
1.42975
1.38025
1.4743
1.45599
1.46191
1.46896
1.35728
1.41274
1.12429
1.25877
0.669144
0.927111
0.375148
-1.37467
-0.630819
-3.11763
-2.22331
-4.60434
-3.94942
-4.89356
-4.94723
-3.7461
-4.46326
-1.97485
-2.87711
-0.369011
-1.1203
0.75213
0.256587
1.35249
1.11669
1.52341
1.47514
1.45319
1.50459
1.38297
1.44979
1.22845
1.1209
1.10539
-2.23441
-2.71153
-1.82299
-1.94025
-1.66978
-1.01317
1.14401
-1.6363
-0.0413011
-1.54736
0.822426
-1.43216
1.25829
1.50746
1.59961
1.6841
1.63771
-1.06806
1.94119
1.38601
-0.378536
1.65936
0.911365
0.277688
1.56001
1.20882
0.292095
-0.124223
0.926322
0.942371
0.231482
-2.5624
1.13145
1.16351
1.15484
1.07882
1.10296
1.01466
1.05096
0.942801
0.975565
0.886269
0.905614
0.875837
0.872545
0.921288
0.890875
1.02272
0.967428
1.14513
1.08519
1.2519
1.20157
1.33713
1.29651
1.39882
1.37222
1.45609
1.43201
1.49363
1.47683
1.52328
1.50937
1.55061
1.53678
1.57929
1.56426
1.62698
1.5984
1.68233
1.66279
1.80978
1.76122
1.84146
1.83637
1.8042
1.82884
1.72312
1.76937
1.58857
1.66261
1.38494
1.49713
1.10629
1.25202
0.784805
0.827939
0.961866
1.48141
1.53001
1.41628
1.44455
1.4072
1.40287
1.45442
1.42648
1.51058
1.48485
1.5484
1.53037
1.57683
1.5651
1.57864
1.58115
1.5466
1.56657
1.4749
1.51622
1.35575
1.41894
1.26116
1.29836
1.22007
1.24153
1.15076
1.18674
1.12635
1.13298
1.19401
1.15163
1.29383
1.24354
1.37957
1.33991
1.43682
1.41183
1.45643
1.45243
1.41482
1.44455
1.33947
1.38414
1.15583
1.25837
0.823153
1.0095
0.384127
0.605531
0.168502
-1.5234
-0.702618
-3.35169
-2.41335
-5.03071
-4.30027
-5.29175
-5.3799
-3.98544
-4.7926
-2.0304
-3.01908
-0.305886
-1.10818
0.850234
0.348257
1.43945
1.20851
1.59818
1.55681
1.51479
1.57899
1.35574
1.41475
1.28914
-2.15842
-2.24908
0.699329
0.87556
0.774302
-2.08862
-1.56436
1.19003
-2.22207
-0.716642
-2.38759
0.224476
0.901173
1.76599
1.80832
1.84184
1.81153
-2.38931
1.0002
1.72727
-2.18049
1.15311
0.618521
0.735681
1.53892
-1.54538
2.18524
1.10622
-0.483418
1.52656
0.440348
1.09824
1.13742
1.07727
1.17608
0.360563
0.478891
1.10031
-2.31326
1.09109
1.10116
1.05153
1.06854
1.00907
1.03151
0.962697
0.987266
0.938933
0.948845
0.939144
0.933651
0.976736
0.952684
1.05413
1.01199
1.15178
1.10299
1.24454
1.2002
1.32396
1.28566
1.38872
1.35807
1.44229
1.41744
1.48209
1.46388
1.51111
1.49779
1.54022
1.52457
1.58305
1.55942
1.64105
1.61052
1.71369
1.67305
1.7663
1.73708
1.78643
1.78428
1.74919
1.77375
1.66819
1.71419
1.53623
1.60895
1.34928
1.45041
1.11345
1.23702
0.989551
1.67675
1.73894
1.56601
1.61785
1.51348
1.52995
1.50586
1.50775
1.5164
1.50741
1.54936
1.53261
1.57637
1.56314
1.59629
1.58862
1.5957
1.59923
1.56647
1.58445
1.51543
1.54329
1.44822
1.4815
1.4105
1.4224
1.38956
1.4021
1.32808
1.36245
1.28484
1.28802
1.30384
1.28907
1.35195
1.3264
1.40225
1.37831
1.43381
1.4218
1.43368
1.44067
1.39049
1.42254
1.30767
1.36029
1.15819
1.24241
0.923729
1.04651
0.627479
0.762347
0.45659
-0.173919
0.474905
0.211207
-1.46518
-0.716291
-3.21249
-2.31546
-5.08719
-4.32039
-5.33113
-5.42892
-3.98554
-4.8135
-2.00844
-3.00552
-0.273738
-1.08204
0.896342
0.388088
1.47151
1.25067
1.60453
1.57883
1.527
1.58374
1.36536
1.42591
1.28544
0.567061
0.681487
-2.313
-2.03534
1.22771
-2.63367
-1.39042
1.84885
1.88383
1.88138
1.8326
-3.12636
-0.551544
0.888756
1.81731
-3.50285
0.474936
1.78298
-3.62386
1.11972
0.43403
0.664128
1.67929
-3.11073
0.849665
0.521323
1.38736
-1.89418
1.88716
0.736857
-0.395751
1.04567
0.571051
0.432791
0.59286
-2.29518
1.04256
1.00054
1.02767
1.04455
1.04571
1.02926
1.03591
1.00476
1.01736
0.979095
0.991386
0.968699
0.97206
0.977997
0.969791
1.01344
0.992005
1.07678
1.04242
1.15676
1.11644
1.23734
1.19839
1.31001
1.27474
1.37168
1.34194
1.4234
1.39851
1.46597
1.44556
1.50123
1.48439
1.53379
1.51761
1.56882
1.55033
1.61803
1.59134
1.66459
1.64461
1.7203
1.6989
1.72841
1.73049
1.69144
1.71475
1.61613
1.65899
1.49371
1.56083
1.32684
1.41447
1.12642
1.22984
0.927812
1.02234
0.78254
0.847105
0.514415
0.684933
0.729184
1.82246
1.86626
1.72401
1.77949
1.63385
1.67199
1.59036
1.60938
1.56224
1.57372
1.56305
1.5582
1.58415
1.57237
1.59965
1.59278
1.60994
1.60604
1.60608
1.61086
1.58221
1.59653
1.54643
1.56557
1.5093
1.52683
1.49251
1.49815
1.47497
1.48687
1.42283
1.45227
1.37849
1.39379
1.37326
1.37101
1.39108
1.37936
1.41114
1.39948
1.41858
1.41512
1.40263
1.41587
1.35632
1.39029
1.27297
1.32795
1.14633
1.21972
0.964777
1.06031
0.735888
0.854359
0.55812
0.647387
0.576262
-0.115167
0.246245
-1.25781
-0.60782
-2.99323
-2.07073
-4.63891
-3.93276
-4.9105
-4.97752
-3.72214
-4.45866
-1.90184
-2.82778
-0.268501
-1.03257
0.855896
0.363703
1.42656
1.20361
1.57686
1.545
1.50105
1.55808
1.32435
1.41005
1.13292
1.23111
0.999064
1.0558
1.1909
-2.75565
-2.05925
0.948957
0.529673
1.86736
1.80701
-3.56507
-1.41691
0.649636
0.473993
0.809509
1.78994
-4.51991
-0.44638
0.315873
1.79159
-5.22114
0.759825
0.241483
0.575856
1.76719
-5.34904
1.14019
0.267241
1.61983
-4.06572
0.991976
0.39295
1.1271
-1.84056
1.48142
-0.0212226
0.64218
0.765361
0.751829
1.85847
1.8728
-2.542
0.96269
0.85422
0.918541
0.994093
0.981344
1.00219
0.997725
1.00217
1.0037
0.992158
0.997399
0.984261
0.988765
0.985698
0.984134
1.00147
0.991756
1.03631
1.01639
1.09141
1.06179
1.15993
1.12507
1.23077
1.19597
1.29703
1.26459
1.35525
1.32689
1.40428
1.38035
1.44584
1.42565
1.48165
1.46426
1.51706
1.49916
1.55475
1.53564
1.59527
1.57483
1.63359
1.61493
1.67128
1.65507
1.67461
1.67838
1.63673
1.6601
1.56663
1.6057
1.45778
1.51745
1.31094
1.38776
1.13999
1.22732
0.978967
1.05511
0.86659
0.916507
0.799728
0.826944
0.781829
1.92288
1.94066
1.92174
1.91947
1.9262
1.85883
1.89667
1.76371
1.81227
1.68942
1.72161
1.63723
1.66116
1.60675
1.61768
1.60067
1.60117
1.60749
1.60335
1.61359
1.61117
1.61737
1.61608
1.6117
1.61645
1.5925
1.60356
1.56674
1.57991
1.54411
1.55444
1.53196
1.53703
1.51382
1.52582
1.47219
1.49528
1.42989
1.44947
1.40734
1.41601
1.40378
1.4034
1.4069
1.40456
1.4018
1.40562
1.37694
1.39349
1.32763
1.35854
1.24576
1.29324
1.12828
1.19382
0.974915
1.05869
0.805415
0.892642
0.675797
0.73318
0.643816
0.640335
0.0736344
0.365187
-0.919724
-0.354589
-2.45071
-1.63797
-3.85446
-3.24187
-4.18082
-4.182
-3.26377
-3.85295
-1.72251
-2.51547
-0.284187
-0.964363
0.753753
0.293126
1.30161
1.08609
1.45546
1.42034
1.38823
1.43762
1.22686
1.31098
1.0836
1.15431
0.950375
1.01172
0.896114
1.78459
-3.5823
-2.3752
0.666851
0.713581
0.7757
0.738904
0.776915
0.496456
0.784436
1.74373
-5.06281
-1.58372
0.266212
1.74744
-6.65296
-0.32937
0.0857896
0.423419
1.77154
-7.72375
1.05783
0.00771203
1.75624
-7.17803
0.74444
0.245705
0.0697563
1.4955
-4.43412
0.79618
0.680073
-1.18797
2.00069
1.82071
1.78335
-3.14631
0.903913
0.872175
0.947441
0.928874
0.965556
0.958318
0.978703
0.974058
0.981054
0.980593
0.982566
0.981991
0.992542
0.986932
1.01456
1.00239
1.05036
1.03076
1.10043
1.07377
1.16065
1.12965
1.22361
1.19216
1.28405
1.25423
1.33845
1.31183
1.38558
1.36254
1.4262
1.40642
1.46157
1.44439
1.49496
1.47838
1.52988
1.51215
1.56743
1.54873
1.59981
1.58465
1.62238
1.61316
1.62177
1.62575
1.58773
1.60909
1.5224
1.55851
1.42661
1.47859
1.30003
1.36698
1.15664
1.22888
1.02933
1.08795
0.939989
0.981299
0.886461
0.907464
0.855453
0.872602
0.653529
0.709603
0.856452
0.843918
1.96566
2.01147
1.97674
1.9527
1.96216
1.89087
1.93005
1.79857
1.84423
1.72603
1.75876
1.6752
1.69888
1.64101
1.65529
1.62726
1.63233
1.62386
1.62496
1.62306
1.6237
1.62118
1.62258
1.61399
1.61873
1.59753
1.60681
1.57731
1.58723
1.56053
1.56783
1.54936
1.55452
1.5299
1.54183
1.49234
1.51276
1.45155
1.47116
1.42332
1.43487
1.40973
1.41527
1.39858
1.40497
1.38068
1.39277
1.34893
1.36947
1.2982
1.32732
1.22019
1.26075
1.11196
1.16667
0.978962
1.04781
0.842064
0.911016
0.736215
0.781663
0.699209
0.699901
0.646581
0.715013
0.340915
0.548434
-0.476391
-0.000942715
-1.72514
-1.06654
-2.87831
-2.36751
-3.25196
-3.18569
-2.6568
-3.06315
-1.50992
-2.11097
-0.350385
-0.910655
0.55488
0.144534
1.08981
0.867998
1.29258
1.23108
1.24689
1.28879
1.1059
1.17706
1.00595
1.04964
0.898596
0.958002
0.835799
0.580301
0.734906
1.69198
-4.92315
-2.96344
0.739122
2.07165
0.31661
1.67107
-7.39232
-1.80655
0.648915
0.764682
0.903921
0.0274918
2.01083
1.91655
0.329266
1.70325
-9.66158
-0.234278
-0.18963
1.7879
-10.3065
0.984029
0.034727
-0.261901
1.77828
-7.89706
0.146513
-0.149326
1.31965
-3.52258
0.414297
0.537223
0.583097
-0.13363
0.634675
1.68921
1.66114
-4.15072
0.857789
0.811505
0.905932
0.88655
0.933387
0.922388
0.950381
0.944531
0.96546
0.959803
0.977796
0.971977
0.995003
0.985892
1.02081
1.00677
1.05721
1.03757
1.10442
1.07947
1.15915
1.13099
1.21602
1.18749
1.27123
1.24392
1.32177
1.29712
1.36644
1.34464
1.4056
1.3866
1.44012
1.42328
1.47221
1.45652
1.5034
1.48789
1.53459
1.51922
1.56186
1.5491
1.57792
1.57211
1.57276
1.57831
1.54147
1.5605
1.48352
1.51568
1.3996
1.4447
1.29215
1.34844
1.17371
1.23263
1.07435
1.11954
1.00521
1.03662
0.961885
0.978641
0.937743
0.951075
0.942164
0.925268
2.15303
2.09263
2.2049
2.06813
2.12919
2.00596
2.02753
1.9781
1.99445
1.91577
1.95282
1.8253
1.87074
1.75434
1.78598
1.70434
1.72834
1.66571
1.68279
1.64606
1.6542
1.63545
1.64026
1.62828
1.63179
1.62182
1.6253
1.61284
1.61803
1.59739
1.60562
1.58079
1.58864
1.56637
1.57283
1.5526
1.55974
1.53039
1.54287
1.49672
1.51466
1.46072
1.47829
1.4285
1.4433
1.40535
1.41657
1.38484
1.39619
1.35984
1.37501
1.32359
1.34484
1.27049
1.29899
1.19419
1.23297
1.09478
1.14481
0.979484
1.03772
0.864244
0.919988
0.773984
0.81281
0.734395
0.744349
0.727144
0.730878
0.758322
0.746362
0.757595
0.608358
0.729824
0.0248949
0.372625
-0.884424
-0.402415
-1.80748
-1.37654
-2.27929
-2.12368
-2.03897
-2.24311
-1.32493
-1.71683
-0.477944
-0.900704
0.26489
-0.0817362
0.763577
0.546345
1.01959
0.921306
1.06638
1.06152
1.00099
1.03954
0.92244
0.960498
0.833339
0.883997
0.705205
0.767556
0.670993
0.435043
1.58622
-7.00767
-3.76578
0.70267
0.992701
0.722815
0.0856087
0.405068
0.340064
2.13391
2.04124
0.0513606
1.59222
-10.5425
-2.05358
-0.269291
1.69454
-12.6797
-0.17139
-0.159676
0.477996
-0.53835
1.87009
-11.207
0.462147
-0.605845
1.77349
-6.48622
-0.349409
-0.460608
0.879985
-1.65436
0.865164
1.51794
1.78147
1.60898
0.735604
1.52005
-5.64071
0.807541
0.756823
0.8682
0.843419
0.90353
0.888103
0.928446
0.917909
0.949581
0.940161
0.969427
0.959835
0.993025
0.980921
1.02278
1.00719
1.05998
1.04046
1.10475
1.08147
1.15527
1.12938
1.20763
1.18132
1.25863
1.23333
1.30573
1.28274
1.34767
1.32721
1.3848
1.3668
1.41768
1.40166
1.44786
1.43314
1.47612
1.46225
1.50249
1.48979
1.5236
1.51397
1.53465
1.53068
1.52856
1.53428
1.49922
1.51672
1.44816
1.47628
1.3761
1.41465
1.28535
1.33265
1.18926
1.23633
1.11088
1.1471
1.05525
1.08013
1.02765
1.03784
1.01047
1.01887
1.02534
1.00742
1.05919
1.12557
1.06702
0.979048
2.25261
2.20192
2.2452
2.32608
2.29222
2.11686
2.17502
2.04123
2.07279
1.99708
2.01709
1.93449
1.97047
1.84734
1.89115
1.7774
1.80911
1.72594
1.7506
1.68437
1.7035
1.65894
1.66996
1.64279
1.65044
1.62995
1.63611
1.61979
1.62476
1.60884
1.6147
1.59413
1.60162
1.57888
1.58619
1.56361
1.57102
1.54743
1.55577
1.52506
1.53738
1.49351
1.51031
1.45614
1.47523
1.42356
1.43956
1.39631
1.41005
1.37046
1.38469
1.34021
1.35728
1.29997
1.32173
1.24463
1.27317
1.1701
1.20804
1.07834
1.12576
0.97653
1.02854
0.877005
0.92486
0.796463
0.831496
0.748852
0.768053
0.718329
0.732751
0.71153
0.756836
0.713706
0.732744
0.827873
0.778019
0.816562
0.863102
0.492115
0.693826
-0.110367
0.226491
-0.864137
-0.493627
-1.38689
-1.17384
-1.47147
-1.48208
-1.18457
-1.36645
-0.684918
-0.949343
-0.136291
-0.407606
0.347775
0.116639
0.694068
0.543594
0.855973
0.793365
0.893196
0.887153
0.838517
0.875581
0.751032
0.795537
0.651569
0.699129
0.598531
0.618908
0.220213
1.92823
1.39148
1.57427
1.77613
-0.155611
1.31092
1.45947
-9.77774
-4.69133
-0.223602
1.51573
-13.5587
-2.28628
1.13982
1.19562
-0.523369
0.598741
0.980455
0.874818
2.28004
2.35498
0.715905
0.691403
0.679303
0.578893
0.547866
0.527083
-0.67455
1.71527
-13.8457
-0.400534
0.0726525
0.176352
-0.989952
1.94986
-9.33368
-0.547315
-0.689864
-0.993151
1.09314
1.30552
1.65466
-3.40154
-0.754617
0.309105
1.34499
-7.5666
0.675759
0.628378
0.764821
0.721383
0.831139
0.802176
0.87469
0.854828
0.907045
0.892235
0.934339
0.92147
0.960166
0.947518
0.98829
0.974019
1.02099
1.00409
1.05926
1.03945
1.10286
1.08048
1.15016
1.12613
1.19866
1.17433
1.24595
1.22248
1.29
1.26843
1.32952
1.31028
1.36446
1.34753
1.39534
1.38035
1.42305
1.40959
1.44826
1.43602
1.47072
1.46001
1.4874
1.48009
1.4945
1.4923
1.48729
1.49297
1.46108
1.47655
1.41664
1.44099
1.35569
1.38817
1.28004
1.31924
1.20345
1.24048
1.1417
1.17066
1.09685
1.11647
1.07993
1.08535
1.07555
1.07677
1.10058
1.08107
1.18487
1.13541
1.06856
2.26421
2.10288
2.1895
2.35771
2.31927
2.41369
2.38743
2.15709
2.21322
2.07587
2.11186
2.01662
2.04491
1.94967
1.98586
1.86642
1.90839
1.79552
1.82835
1.74218
1.76758
1.6974
1.71856
1.66719
1.68052
1.64628
1.65635
1.62886
1.63709
1.61566
1.62196
1.60282
1.60937
1.58773
1.59511
1.57222
1.57971
1.55655
1.56437
1.53918
1.54832
1.51536
1.5284
1.48419
1.50055
1.44913
1.46671
1.4159
1.43229
1.38552
1.40104
1.35516
1.3713
1.32068
1.33908
1.27717
1.29993
1.22062
1.24974
1.1488
1.18592
1.06393
1.10799
0.97198
1.01856
0.88211
0.92552
0.806562
0.841045
0.752623
0.776979
0.71641
0.732214
0.70338
0.791301
0.752276
0.900578
0.82658
0.98386
0.96182
0.888995
0.965303
0.536571
0.752104
-0.040627
0.260635
-0.618503
-0.343273
-1.00397
-0.842896
-1.10764
-1.0903
-0.967836
-1.06492
-0.639354
-0.820412
-0.203215
-0.432866
0.257491
0.0321488
0.602148
0.450204
0.765438
0.708015
0.743255
0.772773
0.663855
0.701416
0.597372
0.62944
0.569584
-0.0752959
1.98945
1.03296
1.30428
-12.3095
-5.36361
1.24486
-0.965459
0.760003
2.43431
0.667342
0.647689
0.555002
0.505518
-0.640567
1.44596
-14.8563
-2.43214
0.28216
-1.19011
1.78787
-12.0078
-1.07537
-0.26919
-0.113512
-1.25648
-1.48881
0.699576
0.967069
2.12829
-5.5354
-1.64655
-1.38035
1.75243
-0.205622
1.83456
1.64152
1.12086
-9.284
0.649549
0.603614
0.732533
0.693136
0.798285
0.767232
0.847495
0.82452
0.886097
0.867915
0.918993
0.903145
0.950021
0.934656
0.982212
0.965976
1.01731
0.99938
1.05613
1.03626
1.09867
1.07699
1.1438
1.12105
1.18936
1.16661
1.23353
1.21167
1.27457
1.25446
1.31167
1.29361
1.34445
1.32857
1.37325
1.35931
1.39844
1.38627
1.4207
1.40994
1.43958
1.43071
1.45262
1.44704
1.4572
1.45611
1.44945
1.45516
1.42608
1.43966
1.38843
1.40891
1.33697
1.36434
1.27506
1.30675
1.21528
1.24397
1.16692
1.1897
1.13329
1.14755
1.12348
1.12566
1.13136
1.1254
1.16439
1.1436
1.23888
1.19644
1.31377
1.35265
1.29244
1.22717
1.27284
1.09994
1.16907
-1.52375
0.932489
1.02016
2.39686
2.29188
2.34827
2.46159
2.43395
2.50056
2.48348
2.45256
2.5278
2.51481
2.31001
2.37932
2.1919
2.24724
2.105
2.14515
2.03477
2.06914
1.96258
1.99988
1.8815
1.92238
1.80972
1.84342
1.75371
1.78046
1.70629
1.72881
1.67175
1.68745
1.64648
1.65851
1.62575
1.63557
1.60944
1.61717
1.59457
1.60193
1.57896
1.58667
1.56333
1.57097
1.54709
1.55546
1.52777
1.538
1.50326
1.51628
1.47305
1.48873
1.4388
1.45623
1.40522
1.42212
1.37267
1.38925
1.33944
1.35668
1.30182
1.32137
1.25593
1.27973
1.19913
1.22849
1.12968
1.16584
1.05034
1.09132
0.96557
1.00803
0.882191
0.922575
0.808896
0.843697
0.752324
0.778412
0.710551
0.730026
0.689331
0.720315
0.631369
0.670037
0.840794
0.777554
0.978025
0.897884
1.1241
1.05603
1.18567
1.17733
1.01053
1.13712
0.564002
0.812256
-0.0248352
0.279262
-0.623232
-0.333119
-1.08779
-0.877651
-1.31919
-1.23975
-1.2225
-1.3126
-0.807981
-1.05104
-0.22757
-0.524523
0.289125
0.0509161
0.582101
0.469441
0.627036
0.626759
0.581657
0.606451
0.534484
0.557529
0.4941
0.513348
0.455386
0.474284
-0.479648
2.21995
0.668157
1.15571
-13.2433
-5.64851
0.428449
-1.19687
1.42802
-13.0595
-2.64139
0.0172122
1.38834
1.4179
2.4697
2.54145
-1.90441
0.615499
0.596349
0.571736
0.436152
0.402882
0.384757
-1.88928
1.39111
2.13249
-8.09385
-2.30153
-0.730962
-0.526123
-2.178
-2.13669
2.71525
-1.59559
-2.61495
0.126122
0.440824
2.06131
0.832246
1.10994
1.04453
2.12391
2.00612
0.858021
-9.75413
0.620908
0.532151
0.485125
0.622985
0.578199
0.703557
0.665185
0.769526
0.738689
0.822667
0.797465
0.866241
0.845464
0.903958
0.885666
0.939217
0.921731
0.974749
0.956899
1.01203
0.993146
1.05163
1.03154
1.09335
1.07226
1.13652
1.11486
1.17958
1.15815
1.22119
1.20063
1.25978
1.2409
1.29444
1.2776
1.32495
1.31017
1.35156
1.33873
1.37432
1.3634
1.39374
1.38442
1.40949
1.4022
1.41942
1.41529
1.42222
1.4218
1.41469
1.42001
1.3942
1.40597
1.36242
1.3796
1.31977
1.34241
1.27003
1.29514
1.22427
1.2461
1.18749
1.20471
1.16448
1.17368
1.16147
1.16059
1.17809
1.16722
1.2188
1.19499
1.28925
1.24958
1.38958
1.33637
1.31872
1.35538
1.22368
1.27468
1.16865
2.48303
2.41501
2.45347
2.52942
2.50784
2.5627
2.54751
2.58472
2.57517
2.60237
2.59331
2.33639
2.40018
2.22341
2.27743
2.13101
2.17517
2.051
2.09008
1.97365
2.01264
1.89343
1.93357
1.82075
1.85542
1.76159
1.78981
1.71181
1.73562
1.67298
1.69094
1.64421
1.65777
1.62031
1.63179
1.60103
1.61003
1.5848
1.59269
1.56874
1.57671
1.55247
1.56055
1.53537
1.54425
1.51519
1.5258
1.49053
1.50347
1.46067
1.4761
1.42707
1.44421
1.3932
1.41034
1.35933
1.37652
1.32399
1.34211
1.28385
1.30455
1.23626
1.26091
1.17906
1.20886
1.11232
1.14708
1.03722
1.07569
0.957491
0.997363
0.878434
0.917191
0.806617
0.841357
0.747607
0.775425
0.698432
0.722665
0.646628
0.672663
0.621325
0.728568
0.667549
0.887997
0.802944
1.06338
0.967933
1.25351
1.15558
1.40723
1.34684
1.37165
1.42148
1.06731
1.25384
0.463549
0.800807
-0.33159
0.0771335
-1.12983
-0.741912
-1.71964
-1.46564
-1.88367
-1.86343
-1.51155
-1.76428
-0.768218
-1.16197
-0.0673519
-0.391648
0.348871
0.180968
0.486475
0.441968
0.493475
0.499337
0.462828
0.478583
0.435271
0.449668
0.419982
-1.01929
2.37319
0.145417
1.01996
-11.796
-5.32927
0.192064
0.972588
0.703657
1.44682
2.61138
-2.78507
0.565547
0.534828
0.416107
0.367145
-1.99119
1.86464
1.62636
-9.57593
-3.3849
-0.358657
-2.82306
-2.839
2.89751
-3.99107
-3.85229
0.962928
-3.06411
3.45667
1.17689
0.895947
-1.165
2.6975
2.72943
-1.46681
1.22481
1.21228
0.541606
-8.81057
0.432869
0.510882
0.464801
0.597581
0.554921
0.677137
0.638908
0.744235
0.712278
0.800197
0.773442
0.847633
0.824822
0.889451
0.869077
0.928369
0.909109
0.966638
0.947499
1.00563
0.986
1.04583
1.02555
1.08713
1.06636
1.12883
1.108
1.1698
1.14949
1.20897
1.18966
1.2453
1.22754
1.27776
1.26202
1.30619
1.29245
1.33053
1.31885
1.35087
1.34116
1.36766
1.35967
1.3806
1.3747
1.38807
1.38504
1.38941
1.38957
1.38203
1.38697