/*--------------------------------*- C++ -*----------------------------------*\
  =========                 |
  \\      /  F ield         | OpenFOAM: The Open Source CFD Toolbox
   \\    /   O peration     | Website:  https://openfoam.org
    \\  /    A nd           | Version:  10
     \\/     M anipulation  |
\*---------------------------------------------------------------------------*/
FoamFile
{
    format      ascii;
    class       volVectorField;
    location    "15";
    object      U;
}
// * * * * * * * * * * * * * * * * * * * * * * * * * * * * * * * * * * * * * //

dimensions      [0 1 -1 0 0 0 0];

internalField   nonuniform List<vector> 
28942
(
(-0.115941 0.0761658 -4.52634e-20)
(-0.115237 0.089121 -9.50127e-21)
(0.434158 -0.305598 2.1826e-20)
(1.01585 0.041539 -1.09899e-19)
(0.994227 0.0514901 3.6144e-20)
(0.2771 0.0107985 0)
(0.339712 0.0329908 -3.26747e-22)
(0.378667 0.00860466 4.51177e-22)
(1.21808 -0.192145 -1.29011e-21)
(1.20911 -0.177872 4.55867e-21)
(-0.0910348 -0.0931685 -8.29873e-20)
(-0.0735008 -0.0858175 3.78686e-20)
(-0.0847898 -0.0672833 0)
(-0.0843087 -0.0704535 0)
(0.754829 -0.0132852 -5.32137e-23)
(0.748452 -0.0103894 -5.9638e-23)
(0.934265 0.115059 3.03153e-20)
(0.917673 0.100192 4.88556e-20)
(0.310587 -0.420639 1.0621e-19)
(0.600924 -0.680274 -2.96077e-20)
(0.993498 0.257781 3.88555e-20)
(0.994043 0.242908 0)
(0.012557 -0.0282199 7.94697e-20)
(-0.0622407 -0.0344217 4.42823e-20)
(0.545578 -0.148281 8.57255e-20)
(0.899673 -0.26728 -7.79196e-20)
(0.185949 -0.416636 4.86547e-19)
(0.192815 -0.34431 -1.86086e-19)
(0.70555 -0.515036 9.66513e-21)
(0.427259 -0.298401 2.63239e-21)
(0.277682 -0.0185366 0)
(0.362858 -0.0253065 8.97421e-22)
(0.459879 -0.00574768 8.75259e-21)
(0.619349 -0.0170397 1.35774e-23)
(0.451736 0.496592 2.04093e-20)
(0.379062 0.549671 -1.4298e-20)
(0.598051 0.718477 -1.17925e-19)
(0.387619 0.648562 -4.90512e-20)
(0.144106 0.0137116 4.43556e-22)
(0.208261 0.502901 -7.33807e-20)
(0.657598 -0.0597397 0)
(0.856574 -0.0778063 0)
(1.44017 0.0626355 2.28065e-21)
(1.43902 0.0557482 -8.01173e-21)
(1.46711 0.0500606 -5.74529e-21)
(0.529161 0.0114892 -1.39059e-22)
(0.499949 0.0233867 1.95998e-22)
(0.661074 0.0119186 1.33194e-21)
(0.642387 0.0114272 -3.75132e-22)
(0.546545 0.0104109 -3.84809e-21)
(0.451334 0.00324531 2.50038e-21)
(1.18032 -0.0489259 4.4764e-21)
(1.1754 -0.053356 2.65667e-21)
(1.21049 -0.204754 -8.49402e-23)
(1.20002 -0.190429 1.52577e-21)
(1.1647 -0.24306 6.93467e-20)
(1.41985 -0.346342 3.61944e-20)
(-0.0650987 -0.0468221 -5.19249e-20)
(-0.0777516 -0.0604696 0)
(-0.0680629 -0.0515482 1.88012e-20)
(-0.0607222 -0.041418 4.55531e-20)
(-0.0267044 -0.0192711 -3.62036e-20)
(-0.0247501 -0.0183897 -3.77753e-20)
(1.28342 -0.588213 0)
(1.40695 -0.531567 1.30013e-20)
(1.31535 -0.473121 -5.24386e-21)
(1.25673 -0.464539 0)
(0.9243 -0.221712 -2.95236e-20)
(0.942746 -0.243685 -1.9293e-20)
(-0.070662 0.0507025 1.50456e-19)
(-0.0861753 0.0552915 -4.76538e-20)
(-0.111151 0.0836601 1.19673e-19)
(0.912807 -0.305361 0)
(0.932343 -0.270962 1.02917e-19)
(0.862136 -0.417072 2.73687e-20)
(1.43826 0.33098 5.47411e-20)
(1.46872 0.31175 -5.92566e-20)
(1.44685 0.271095 -4.00173e-20)
(0.133474 -0.0763813 8.15246e-22)
(0.188951 -0.120602 -2.78218e-20)
(0.939454 -0.599841 -2.37669e-21)
(0.681598 -0.472002 1.02277e-20)
(-0.0803515 0.0475622 2.53337e-19)
(-0.0859143 0.048425 -9.73685e-20)
(1.25876 0.608345 -7.07775e-21)
(1.19259 0.578314 -1.07152e-20)
(1.08699 0.682132 5.5154e-21)
(0.93698 0.667801 -1.94709e-20)
(0.893629 0.639277 1.32869e-20)
(0.668926 0.46311 6.7777e-22)
(0.736154 0.556613 -5.30746e-21)
(0.777308 0.642026 9.70019e-21)
(-0.117342 -0.103236 -1.15002e-20)
(-0.108763 -0.120969 -2.87136e-21)
(-0.0847388 -0.0835846 5.75419e-21)
(-0.0873898 -0.0764114 -8.23774e-20)
(-0.0935181 -0.0644674 1.04475e-19)
(0.373906 0.297168 -3.5994e-20)
(0.422577 0.365884 6.44856e-21)
(-0.0228667 0.0199696 0)
(1.00712 0.0041123 0)
(0.965128 0.0529526 -8.28932e-20)
(0.891286 0.135004 5.94842e-20)
(1.08131 0.117474 0)
(1.38128 0.094957 0)
(1.38108 0.0905493 0)
(1.39624 0.093872 7.43472e-20)
(1.08961 0.187409 -5.52339e-21)
(1.08616 0.199618 6.00608e-20)
(1.07893 0.17699 3.15083e-20)
(-0.0634918 -0.0488336 1.04239e-19)
(-0.0591099 -0.0469384 -1.16978e-19)
(0.00711558 0.0697111 -8.18878e-20)
(-0.0122864 0.0643574 7.8402e-20)
(-0.112364 0.0861841 1.523e-19)
(0.166646 0.263577 8.02403e-20)
(0.383798 0.260501 1.96819e-19)
(0.295271 0.482862 1.61467e-20)
(0.132166 0.377704 -4.65203e-19)
(1.2792 0.482166 6.53797e-22)
(1.13563 0.46349 2.17647e-20)
(1.17357 0.44503 -3.77263e-20)
(0.778786 -0.608787 1.70632e-20)
(0.527611 -0.386031 -9.4041e-21)
(0.161417 0.0199907 -2.44296e-19)
(0.146125 -0.0569314 0)
(0.307965 -0.0234514 1.30834e-19)
(0.492825 -0.380421 1.88897e-20)
(0.704505 -0.598522 -4.55486e-20)
(0.629718 0.0140114 -1.58273e-21)
(0.663753 0.0127542 5.47182e-22)
(0.589705 0.0126394 4.73106e-23)
(0.491633 -0.736967 0)
(0.519783 -0.572072 0)
(1.06232 -0.132439 -1.20173e-20)
(1.04857 -0.113808 6.85494e-20)
(1.0324 -0.0809984 0)
(0.801737 -0.710008 0)
(0.805735 -0.654632 -3.45545e-20)
(0.75138 0.749999 7.23203e-20)
(-0.0330865 -0.0256842 7.2463e-20)
(-0.0296329 -0.0227332 -5.44217e-20)
(0.533615 -0.49257 -2.11823e-20)
(1.46224 0.0491948 -2.82512e-20)
(1.47441 0.0372877 5.94189e-21)
(1.40978 -0.295413 -1.05673e-20)
(1.40339 -0.28287 1.41316e-20)
(1.42356 -0.271965 4.93178e-20)
(-0.0320022 -0.022963 2.49164e-20)
(0.862221 0.722345 7.6171e-20)
(0.995098 0.699532 -2.36476e-20)
(1.07194 0.738445 9.67251e-23)
(0.435353 -0.0124667 -2.24318e-22)
(0.433856 -0.0138626 -1.96382e-21)
(0.475931 -0.0179482 -2.08418e-22)
(0.518725 -0.0159761 5.11863e-22)
(0.809869 0.717275 1.79381e-20)
(0.439957 0.423487 0)
(-0.0642583 0.0664079 7.13016e-20)
(-0.0779139 0.0832464 -7.91205e-20)
(-0.121888 0.079833 6.39883e-20)
(0.47866 0.0770334 -1.79542e-19)
(1.01496 0.248492 -8.77206e-20)
(0.588626 -0.0166699 2.70946e-22)
(1.16746 -0.441957 1.66029e-20)
(1.13167 -0.516681 3.72322e-20)
(0.974929 0.283476 9.06477e-20)
(0.958201 0.321118 7.83645e-21)
(0.93326 0.20204 5.31222e-20)
(0.950852 0.208474 -3.83719e-20)
(1 0.283843 0)
(1.14207 0.048152 -6.62163e-22)
(1.147 0.046703 -2.13182e-21)
(1.17077 -0.1365 -2.28858e-21)
(1.18278 -0.142222 3.2954e-21)
(1.10137 0.175558 5.77948e-21)
(1.11464 0.184097 -1.58392e-20)
(1.10213 0.186838 0)
(1.08908 0.176144 4.0148e-21)
(1.10029 0.198348 0)
(1.10609 0.254782 -1.50059e-20)
(1.09972 0.269293 -9.04428e-21)
(1.07701 0.2948 -1.77423e-20)
(1.08992 0.282989 0)
(1.11107 0.30351 5.17524e-20)
(1.0942 0.31829 2.9674e-21)
(1.06064 0.312207 -1.10714e-20)
(1.00835 0.369519 -4.91538e-20)
(1.00668 0.310733 -8.8436e-21)
(-0.0291889 -0.0567048 4.34103e-20)
(0.0979303 -0.0471427 -1.74216e-20)
(-0.117232 0.100404 -1.12609e-19)
(0.568692 0.0107006 1.64129e-21)
(0.697117 0.0119157 0)
(-0.036612 0.0245064 8.04269e-20)
(-0.0364914 0.0237966 4.10993e-20)
(0.650541 0.0123329 1.88902e-22)
(0.737539 0.0119773 3.60955e-23)
(0.73106 0.0125842 0)
(0.637755 0.0148479 -3.48162e-23)
(0.413803 -0.303171 -1.55545e-21)
(0.440023 -0.313801 6.08604e-21)
(0.435506 -0.314489 4.70179e-21)
(-0.0508768 -0.0412183 4.52014e-20)
(-0.0166672 -0.0132749 -5.75482e-20)
(-0.0174319 -0.012894 5.55241e-20)
(-0.0499261 -0.0324485 0)
(-0.0225912 -0.0136698 7.72906e-20)
(-0.021828 -0.0147721 -6.70356e-20)
(-0.0614145 -0.0127428 -6.98672e-20)
(-0.0843357 -0.0341394 -7.19317e-20)
(-0.0494515 -0.0224815 0)
(0.0570268 0.247878 0)
(0.0262211 0.147755 0)
(0.00968534 0.0846098 0)
(1.36559 0.0873155 -1.01428e-20)
(1.35038 0.0810789 0)
(1.36531 0.0821933 1.11049e-20)
(0.920875 -0.0860279 2.04225e-19)
(0.934536 -0.0933441 -7.41824e-20)
(0.931431 -0.0739987 0)
(0.701423 -0.0860711 -5.69356e-23)
(0.724769 -0.0547699 1.36613e-22)
(0.681579 -0.116032 -6.18533e-23)
(0.749391 -0.0244691 0)
(0.775541 0.00559284 -1.58795e-23)
(0.802984 0.0343958 0)
(0.76327 0.00721648 0)
(0.828286 0.0596383 2.75106e-22)
(0.785199 0.0319684 0)
(0.740284 -0.0206167 -8.93287e-23)
(0.719493 -0.0487528 0)
(0.700324 -0.077175 8.72973e-23)
(0.683991 -0.10568 -9.29181e-23)
(0.671929 -0.132355 6.17678e-23)
(0.851639 0.0821674 -2.63224e-22)
(0.806732 0.0548933 -1.35224e-23)
(0.664244 -0.145381 1.22663e-23)
(0.663197 -0.157441 -1.18975e-22)
(0.65072 -0.173264 5.32414e-22)
(0.87491 0.10283 2.39073e-25)
(0.829518 0.0769979 -1.47593e-23)
(0.659383 -0.18037 2.63058e-22)
(0.896947 0.120898 3.23983e-22)
(0.917693 0.136426 -3.23771e-22)
(0.85149 0.0966578 2.84703e-23)
(0.872557 0.113893 6.19983e-23)
(0.641901 -0.197052 -5.18128e-22)
(0.66059 -0.200297 -1.7742e-22)
(0.936641 0.149315 0)
(0.892217 0.128613 -6.12018e-23)
(0.636758 -0.220102 8.50662e-26)
(0.665436 -0.217836 -8.52293e-26)
(0.953956 0.159778 0)
(0.910469 0.140941 0)
(0.636816 -0.239508 0)
(0.67469 -0.232804 0)
(0.969385 0.167848 0)
(0.927081 0.150922 3.44278e-23)
(0.640713 -0.25622 -3.71401e-22)
(0.686613 -0.245849 -9.76748e-26)
(0.983143 0.173807 1.78556e-24)
(0.942125 0.158747 -3.67478e-23)
(0.648213 -0.270308 3.73089e-22)
(0.700377 -0.257595 0)
(0.995187 0.177763 0)
(0.955575 0.164559 0)
(0.657974 -0.282494 -2.70635e-23)
(0.714464 -0.268927 4.94228e-22)
(1.00554 0.179999 2.42704e-22)
(0.967346 0.168539 0)
(0.669172 -0.29346 -3.50985e-23)
(0.727992 -0.280463 -4.69586e-22)
(1.01463 0.180677 -3.68153e-22)
(0.977871 0.170958 -1.14255e-22)
(0.681512 -0.303931 4.26039e-22)
(0.739465 -0.292832 0)
(1.02172 0.179955 1.24707e-22)
(0.986559 0.171811 7.61006e-23)
(0.691148 -0.314793 -2.21095e-22)
(0.749187 -0.306174 4.6321e-22)
(1.02871 0.17826 -5.33439e-22)
(0.995069 0.171674 6.0129e-22)
(0.701225 -0.325947 2.04306e-22)
(0.755526 -0.32051 6.83963e-24)
(1.03385 0.17535 0)
(1.00247 0.170295 2.998e-22)
(0.706534 -0.337971 -4.09338e-22)
(0.760111 -0.335671 8.31728e-22)
(1.03786 0.171442 0)
(1.00779 0.167754 0)
(0.642962 -0.33199 -2.02193e-22)
(0.648678 -0.340817 -7.31664e-22)
(0.710003 -0.350328 0)
(0.76222 -0.351124 -3.81485e-22)
(0.62631 -0.313579 -1.14437e-22)
(0.633766 -0.323169 2.40262e-23)
(0.613724 -0.290497 0)
(0.618612 -0.303043 -4.11264e-22)
(0.613153 -0.257562 -6.74612e-25)
(0.611658 -0.275523 0)
(0.629213 -0.211957 0)
(0.619075 -0.236271 0)
(0.66278 -0.155114 0)
(0.644262 -0.184266 0)
(0.708462 -0.0917369 4.68073e-23)
(0.684392 -0.123673 2.16088e-23)
(0.763393 -0.0261473 -3.93043e-23)
(0.73497 -0.0587812 -2.781e-23)
(0.819437 0.0341337 9.82675e-23)
(0.790419 0.00398745 4.31502e-23)
(0.875278 0.0870294 0)
(0.848426 0.0621625 0)
(0.923593 0.128255 -4.92806e-25)
(0.900324 0.109081 0)
(0.964439 0.15798 0)
(0.944975 0.144506 0)
(0.997465 0.17712 0)
(0.981938 0.168793 0)
(1.02289 0.187077 0)
(1.0111 0.183134 0)
(1.04149 0.189607 0)
(1.03302 0.189146 0)
(1.0542 0.186469 0)
(1.04867 0.188625 0)
(1.06182 0.17902 -2.12622e-22)
(1.0592 0.183282 0)
(1.06425 0.174054 -6.96702e-23)
(1.04001 0.166845 7.243e-23)
(1.01121 0.164358 -7.18289e-23)
(0.961687 0.164461 0)
(0.975756 0.163306 -2.99193e-22)
(0.969559 0.164478 -1.47986e-22)
(0.94291 0.160899 3.83678e-23)
(0.953043 0.163326 -1.59475e-22)
(0.919008 0.151475 1.23703e-24)
(0.931627 0.156959 0)
(0.889281 0.134766 0)
(0.904838 0.144096 0)
(0.854148 0.109636 0)
(0.872326 0.123295 0)
(0.814878 0.0755655 0)
(0.834897 0.0937109 1.45154e-28)
(0.774188 0.0331907 1.20943e-24)
(0.794492 0.0552902 0)
(0.735676 -0.0150166 0)
(0.754371 0.00961804 0)
(0.703967 -0.0663498 0)
(0.718236 -0.0410752 0)
(0.684148 -0.116138 0)
(0.69204 -0.0916685 -7.47556e-23)
(0.681049 -0.158815 1.92602e-23)
(0.680748 -0.138787 -1.35031e-22)
(0.696522 -0.192415 0)
(0.686653 -0.176762 -1.09632e-22)
(0.723811 -0.218374 0)
(0.708924 -0.206112 0)
(0.755391 -0.241708 0)
(0.73969 -0.22999 0)
(0.782401 -0.267865 0)
(0.769887 -0.254202 0)
(0.79992 -0.298994 -1.24681e-22)
(0.792136 -0.282861 0)
(0.807973 -0.333635 -4.32398e-22)
(0.804561 -0.316043 -1.23122e-22)
(0.809375 -0.351535 3.89992e-22)
(0.65264 -0.349604 7.07235e-22)
(1.06535 0.168493 1.42268e-22)
(0.980296 0.161186 -2.9045e-22)
(0.761742 -0.366618 0)
(0.80887 -0.36916 0)
(0.65284 -0.358087 0)
(0.710071 -0.362605 0)
(0.587617 -0.336504 0)
(0.592741 -0.349256 1.67648e-22)
(0.590788 -0.343336 1.89494e-22)
(0.582324 -0.317991 2.12616e-22)
(0.583909 -0.328182 -4.33589e-23)
(0.58651 -0.290027 4.70921e-25)
(0.582851 -0.305436 0)
(0.60523 -0.248984 0)
(0.593835 -0.271251 0)
(0.640682 -0.194608 0)
(0.621003 -0.223274 0)
(0.690417 -0.130303 0)
(0.664194 -0.163292 0)
(0.748726 -0.0620233 0)
(0.7192 -0.0960049 0)
(0.810687 0.00461865 -7.31375e-26)
(0.779392 -0.0281712 2.2454e-23)
(0.869296 0.0634848 3.18334e-26)
(0.840074 0.034925 -3.58926e-23)
(0.923321 0.112605 0)
(0.897218 0.0894669 0)
(0.969236 0.149912 2.09102e-25)
(0.947353 0.132754 0)
(1.00648 0.1755 0)
(0.988937 0.164106 0)
(1.03533 0.190623 0)
(1.02192 0.184267 0)
(1.05654 0.196986 0)
(1.04683 0.194779 0)
(1.07124 0.196465 0)
(1.06463 0.197462 0)
(1.08065 0.19084 0)
(1.07652 0.19417 0)
(1.08562 0.181439 1.43987e-22)
(1.0837 0.186528 0)
(1.04142 0.161756 0)
(1.06602 0.162552 1.42497e-22)
(1.08703 0.169423 0)
(1.08677 0.175696 1.43831e-22)
(0.943555 0.158007 3.1103e-22)
(0.949018 0.157197 7.68557e-23)
(0.983405 0.158402 5.94504e-22)
(1.01368 0.160376 0)
(0.928189 0.156361 0)
(0.936514 0.157776 -4.67621e-22)
(0.908481 0.150035 1.31204e-24)
(0.919393 0.153963 1.60468e-22)
(0.88404 0.137891 -1.23702e-24)
(0.89708 0.144801 0)
(0.854518 0.118587 0)
(0.86987 0.129177 0)
(0.82105 0.0914353 0)
(0.838171 0.106002 0)
(0.785653 0.0564652 0)
(0.803411 0.0748792 -1.45153e-28)
(0.751595 0.0149384 -2.66091e-24)
(0.768207 0.0363627 0)
(0.722933 -0.0304585 0)
(0.736299 -0.00744998 0)
(0.704713 -0.0761926 5.2376e-23)
(0.712174 -0.0536873 0)
(0.701246 -0.117665 0)
(0.700809 -0.0976151 -5.21539e-23)
(0.714318 -0.151641 1.16839e-22)
(0.70601 -0.135707 1.10901e-22)
(0.741373 -0.178388 0)
(0.726693 -0.165844 0)
(0.774537 -0.20172 0)
(0.757736 -0.190165 0)
(0.805462 -0.226933 0)
(0.790741 -0.213798 0)
(0.82863 -0.257468 0)
(0.818179 -0.241465 0)
(0.843091 -0.293165 2.07468e-24)
(0.836882 -0.274813 0)
(0.850276 -0.331615 -1.73798e-24)
(0.847511 -0.312227 0)
(0.852249 -0.370257 -3.60826e-22)
(0.852006 -0.351118 3.60635e-22)
(0.592346 -0.354235 3.25995e-22)
(0.806981 -0.385999 0)
(0.851588 -0.388751 -3.78195e-22)
(0.758465 -0.381147 0)
(1.08697 0.162801 0)
(0.953219 0.155599 -7.41539e-23)
(0.648891 -0.365635 6.45653e-22)
(0.58868 -0.35806 2.53422e-22)
(0.802199 -0.401347 9.69561e-23)
(0.848849 -0.406036 4.57433e-22)
(0.705941 -0.373996 0)
(1.10532 0.169539 5.47876e-22)
(1.10427 0.162455 -2.73338e-22)
(0.985876 0.155072 -1.46273e-22)
(0.956989 0.153353 7.22709e-22)
(0.528509 -0.350406 1.07762e-21)
(0.580506 -0.360003 -5.4198e-22)
(0.506817 -0.343114 -2.26567e-21)
(0.52002 -0.348373 -6.03513e-22)
(0.537743 -0.347182 3.26148e-22)
(0.533941 -0.349799 -9.73666e-22)
(0.544141 -0.335937 -3.30963e-22)
(0.540757 -0.342581 -2.64352e-22)
(0.555485 -0.314372 -7.68432e-23)
(0.54851 -0.326582 -6.94251e-23)
(0.579039 -0.279698 -4.70921e-25)
(0.565534 -0.298838 0)
(0.617468 -0.230486 0)
(0.596354 -0.256847 0)
(0.669959 -0.16891 0)
(0.64221 -0.200962 0)
(0.732066 -0.0999188 0)
(0.700211 -0.134931 0)
(0.798084 -0.0298211 0)
(0.764986 -0.0646098 0)
(0.862656 0.0355456 0)
(0.830799 0.00376603 0)
(0.921677 0.0919774 9.52444e-26)
(0.893025 0.0650779 0)
(0.972676 0.136874 0)
(0.94828 0.115928 0)
(1.01444 0.169648 9.32448e-26)
(0.994752 0.15477 0)
(1.04685 0.190807 0)
(1.03178 0.181598 0)
(1.07069 0.20188 0)
(1.05977 0.197486 0)
(1.08717 0.20478 0)
(1.07977 0.204226 0)
(1.09766 0.201443 0)
(1.09307 0.203773 0)
(1.10353 0.193613 0)
(1.10106 0.197989 0)
(1.10578 0.182631 6.84858e-23)
(1.10501 0.188432 -3.45076e-23)
(1.10575 0.176296 -2.76713e-22)
(1.04198 0.156354 -6.82081e-23)
(1.08618 0.155933 2.78065e-22)
(1.06584 0.156356 -2.14757e-22)
(1.01483 0.155993 0)
(0.913906 0.151819 -2.33567e-22)
(0.925809 0.151762 -6.66601e-22)
(0.920315 0.152227 5.42824e-22)
(0.897493 0.147671 0)
(0.906249 0.150321 0)
(0.877664 0.138975 6.09404e-26)
(0.888509 0.144102 0)
(0.853578 0.124478 0)
(0.866276 0.132552 0)
(0.825845 0.103276 -1.44675e-24)
(0.84011 0.114743 0)
(0.796102 0.0751175 0)
(0.811086 0.0900456 0)
(0.766963 0.0405902 0)
(0.781245 0.0585639 0)
(0.742093 0.00147742 1.45175e-24)
(0.753728 0.0214337 0)
(0.725728 -0.0392094 1.82521e-24)
(0.732575 -0.0188808 0)
(0.722097 -0.0778401 0)
(0.722122 -0.0590496 0)
(0.733427 -0.111283 0)
(0.725858 -0.0953578 0)
(0.758313 -0.138351 0)
(0.744481 -0.125501 0)
(0.791009 -0.161558 0)
(0.774196 -0.15018 0)
(0.82362 -0.185582 -2.4404e-24)
(0.8078 -0.173166 0)
(0.850113 -0.214449 0)
(0.837852 -0.199266 0)
(0.868728 -0.249217 0)
(0.860365 -0.231152 0)
(0.880871 -0.288318 -1.76903e-26)
(0.875482 -0.26838 0)
(0.888359 -0.329305 5.05762e-26)
(0.88513 -0.308732 0)
(0.892139 -0.370028 1.17467e-24)
(0.890608 -0.349842 0)
(0.892194 -0.408404 -1.04595e-22)
(0.892617 -0.389694 1.05175e-22)
(0.843705 -0.421469 1.39173e-24)
(0.890118 -0.425518 1.16847e-22)
(0.641012 -0.371748 -3.0843e-22)
(0.752861 -0.394125 -1.66732e-22)
(1.10289 0.155106 6.72653e-23)
(0.930476 0.150511 5.23276e-22)
(0.568795 -0.359279 7.23697e-23)
(0.795276 -0.414734 0)
(0.493738 -0.335841 2.37159e-21)
(0.886327 -0.440575 -4.09357e-22)
(0.836808 -0.434463 -4.21565e-22)
(0.410483 -0.305937 -6.71351e-21)
(0.388253 -0.290739 1.23022e-21)
(0.699103 -0.3837 0)
(0.452018 -0.328431 7.44833e-22)
(0.433355 -0.318408 3.32799e-22)
(0.477802 -0.340362 6.76668e-22)
(0.466376 -0.335771 -1.03141e-21)
(0.497986 -0.340059 -3.3331e-22)
(0.487893 -0.34168 -1.75859e-22)
(0.520322 -0.327546 1.44586e-22)
(0.508542 -0.335391 1.72181e-22)
(0.550701 -0.301078 0)
(0.534057 -0.316164 1.93649e-24)
(0.593618 -0.259347 0)
(0.570499 -0.282147 0)
(0.649391 -0.203271 -5.72e-26)
(0.620026 -0.232907 0)
(0.714954 -0.136792 0)
(0.68126 -0.170987 0)
(0.78516 -0.0656991 0)
(0.749837 -0.101413 0)
(0.854657 0.00380493 0)
(0.820311 -0.0303845 0)
(0.919037 0.0664942 -2.97674e-25)
(0.88771 0.0362652 0)
(0.975261 0.118797 7.54467e-26)
(0.9483 0.0940882 0)
(1.02169 0.158937 0)
(0.999752 0.140426 0)
(1.05795 0.186805 -1.46473e-25)
(1.04108 0.17436 0)
(1.08459 0.203421 0)
(1.07241 0.19642 0)
(1.10288 0.21056 0)
(1.09469 0.208047 0)
(1.11434 0.210258 0)
(1.10937 0.211213 0)
(1.12054 0.204449 0)
(1.118 0.207931 0)
(1.12288 0.19479 0)
(1.12208 0.200014 0)
(1.12246 0.182564 -3.41725e-23)
(1.12289 0.188932 0)
(1.12008 0.168695 0)
(1.1214 0.175811 -6.55302e-23)
(1.11619 0.153758 -2.46576e-24)
(1.11827 0.161324 0)
(1.08482 0.14896 -2.82002e-22)
(1.11392 0.146 1.5765e-23)
(1.10103 0.147617 1.3532e-22)
(1.04158 0.150845 1.04713e-22)
(1.0649 0.150005 -7.20999e-23)
(0.987008 0.151345 -3.67878e-23)
(1.01523 0.151367 3.64931e-23)
(0.933944 0.148498 0)
(0.958955 0.150549 -3.34622e-22)
(0.904102 0.146606 -1.50359e-22)
(0.915183 0.14474 -2.84161e-22)
(0.910007 0.14608 6.42274e-22)
(0.890207 0.144781 -8.0509e-23)
(0.897458 0.146139 0)
(0.873419 0.138778 0)
(0.882151 0.142295 0)
(0.853744 0.128136 6.47711e-26)
(0.864073 0.134141 0)
(0.831193 0.111954 0)
(0.842839 0.120797 0)
(0.806871 0.0897764 1.44675e-24)
(0.819165 0.10162 0)
(0.782815 0.0618043 0)
(0.794648 0.0764646 0)
(0.761994 0.0291273 0)
(0.771781 0.045939 0)
(0.748072 -0.00611496 0)
(0.753936 0.0116492 0)
(0.744694 -0.0409349 2.10379e-25)
(0.744866 -0.0237679 0)
(0.754336 -0.0724491 0)
(0.747841 -0.0572611 0)
(0.776583 -0.0991694 0)
(0.764063 -0.0864129 0)
(0.807239 -0.122158 0)
(0.791267 -0.110934 0)
(0.839547 -0.145067 0)
(0.82364 -0.133348 0)
(0.867415 -0.171893 2.4404e-24)
(0.854305 -0.157803 0)
(0.888265 -0.204584 0)
(0.878726 -0.187497 0)
(0.903045 -0.242473 0)
(0.89628 -0.222991 0)
(0.913954 -0.28363 -2.057e-24)
(0.908868 -0.262769 0)
(0.922433 -0.326186 1.69604e-24)
(0.918462 -0.304838 0)
(0.928711 -0.368443 -1.16138e-24)
(0.92588 -0.347467 0)
(0.932431 -0.408529 7.13371e-23)
(0.930811 -0.388901 -1.74541e-22)
(0.932734 -0.443588 2.83685e-23)
(0.933005 -0.426969 -1.01611e-22)
(0.880284 -0.452947 -3.76593e-22)
(0.930273 -0.457892 -4.69581e-22)
(0.629817 -0.375666 -1.2473e-22)
(0.743028 -0.404398 0)
(0.553817 -0.356272 -1.5528e-21)
(0.784245 -0.425097 0)
(1.12654 0.151771 -6.29862e-23)
(1.1239 0.143989 4.54283e-23)
(0.937039 0.145928 -2.64837e-22)
(0.920362 0.142581 -2.93154e-22)
(0.487856 -0.332619 -1.80713e-21)
(0.827502 -0.444461 4.25675e-22)
(0.381242 -0.283237 0)
(0.378366 -0.28879 -1.1417e-21)
(0.872251 -0.461951 2.21308e-22)
(0.92609 -0.469005 -1.1943e-21)
(0.357252 -0.270629 2.26803e-21)
(0.687748 -0.390971 0)
(0.417005 -0.313449 0)
(0.398719 -0.302513 -9.99315e-22)
(0.448933 -0.326266 0)
(0.433173 -0.321267 0)
(0.482565 -0.325871 0)
(0.465223 -0.327889 1.8218e-22)
(0.521739 -0.31014 0)
(0.501214 -0.319988 0)
(0.570303 -0.27813 0)
(0.544646 -0.296178 0)
(0.629946 -0.230288 0)
(0.598793 -0.256068 0)
(0.698835 -0.169432 5.72e-26)
(0.663463 -0.20121 0)
(0.772792 -0.100545 0)
(0.7355 -0.135618 0)
(0.846772 -0.0296773 0)
(0.810094 -0.0649718 0)
(0.916162 0.0373536 0)
(0.882291 0.00464388 0)
(0.977511 0.0959504 -7.72276e-26)
(0.948008 0.0679247 0)
(1.02871 0.14323 5.44698e-26)
(1.00446 0.121109 0)
(1.06898 0.178077 0)
(1.05022 0.162213 0)
(1.09866 0.200875 2.83883e-26)
(1.08509 0.190909 0)
(1.1189 0.213035 0)
(1.10987 0.208168 0)
(1.13134 0.216517 0)
(1.12599 0.215728 0)
(1.13775 0.213391 0)
(1.13519 0.215656 0)
(1.13974 0.205523 0)
(1.1392 0.209946 0)
(1.13872 0.194442 0)
(1.13953 0.200305 0)
(1.13579 0.181324 0)
(1.13741 0.18808 0)
(1.13157 0.166952 6.37544e-23)
(1.13376 0.174253 6.6528e-23)
(1.12912 0.159419 -1.28522e-22)
(1.0828 0.141997 -1.4055e-22)
(1.11158 0.138183 0)
(1.09888 0.140172 -1.36911e-22)
(1.04048 0.145259 0)
(1.0633 0.143709 1.43464e-22)
(0.987503 0.147359 2.1525e-22)
(1.01478 0.146578 -7.3271e-23)
(0.960622 0.147323 -4.21875e-22)
(0.891965 0.140019 7.56919e-23)
(0.906418 0.139019 2.54299e-22)
(0.899157 0.139807 0)
(0.876353 0.136994 -1.62005e-22)
(0.884304 0.138922 1.62569e-22)
(0.85923 0.129802 0)
(0.867941 0.133872 0)
(0.840459 0.11795 6.32581e-26)
(0.850052 0.124492 0)
(0.820609 0.101 0)
(0.830618 0.110129 0)
(0.80111 0.0789382 0)
(0.810703 0.0905841 0)
(0.784218 0.0524008 0)
(0.792171 0.066154 0)
(0.772866 0.022835 0)
(0.777653 0.0378684 0)
(0.770139 -0.00755277 2.05277e-24)
(0.770259 0.00758269 0)
(0.778305 -0.0363181 -2.03559e-24)
(0.772784 -0.0222752 0)
(0.7976 -0.0618128 0)
(0.786678 -0.0495141 0)
(0.825156 -0.0842991 0)
(0.810657 -0.0733244 0)
(0.855517 -0.106236 0)
(0.840382 -0.0951141 0)
(0.883011 -0.131112 0)
(0.869912 -0.118108 0)
(0.90449 -0.161316 0)
(0.894565 -0.145488 0)
(0.9202 -0.196985 0)
(0.912955 -0.178538 0)
(0.932286 -0.236685 -2.19387e-24)
(0.926555 -0.216442 0)
(0.942757 -0.278769 1.91625e-24)
(0.937642 -0.257517 0)
(0.952574 -0.321976 -1.51152e-24)
(0.947733 -0.3003 0)
(0.961741 -0.365139 0)
(0.957273 -0.343651 0)
(0.969582 -0.406589 0)
(0.965897 -0.386214 0)
(0.975069 -0.443592 -9.31364e-25)
(0.972593 -0.425844 -2.85877e-23)
(0.976 -0.472098 1.73589e-21)
(0.976179 -0.45922 0)
(0.920356 -0.476376 9.79422e-22)
(0.974303 -0.481525 4.87698e-22)
(0.614958 -0.376675 3.41785e-22)
(0.729096 -0.411446 0)
(1.12115 0.136065 -2.47245e-22)
(0.913404 0.137057 -5.03788e-22)
(0.540757 -0.351607 -9.32272e-23)
(0.402399 -0.293318 1.63756e-22)
(0.46231 -0.32082 6.83779e-22)
(0.771185 -0.431892 0)
(0.814551 -0.450488 -2.94781e-22)
(0.338917 -0.251004 -2.21071e-21)
(0.325703 -0.23336 8.82487e-22)
(0.372509 -0.26595 -7.21736e-22)
(0.86148 -0.46654 1.04295e-21)
(0.911385 -0.478792 -1.02968e-21)
(0.971118 -0.486666 -5.52068e-22)
(0.67275 -0.394983 0)
(0.365819 -0.268773 8.63704e-23)
(0.322951 -0.22414 -4.18786e-22)
(0.343602 -0.247332 6.95323e-22)
(0.407958 -0.295407 5.52854e-22)
(0.387539 -0.284202 -5.55775e-22)
(0.449123 -0.307152 8.71863e-25)
(0.428135 -0.302925 0)
(0.495722 -0.304131 0)
(0.471545 -0.307664 0)
(0.550136 -0.284096 0)
(0.521851 -0.296273 0)
(0.613674 -0.247026 0)
(0.580754 -0.267615 0)
(0.685535 -0.19481 -1.63319e-25)
(0.648726 -0.222601 0)
(0.76253 -0.131447 0)
(0.72366 -0.164198 0)
(0.840198 -0.0624429 0)
(0.80158 -0.097272 0)
(0.91398 0.00625063 0)
(0.877842 -0.0276987 0)
(0.980085 0.0693021 0)
(0.948187 0.038767 0)
(1.03594 0.12276 3.74901e-25)
(1.00941 0.097408 0)
(1.0803 0.164404 3.34322e-26)
(1.05959 0.145125 0)
(1.11317 0.193708 0)
(1.09813 0.180571 0)
(1.13555 0.211507 3.22313e-26)
(1.12558 0.20395 0)
(1.14907 0.2195 0)
(1.1433 0.216602 0)
(1.15567 0.219742 0)
(1.15312 0.220457 0)
(1.15721 0.214256 0)
(1.15696 0.217596 0)
(1.1553 0.204781 0)
(1.15659 0.209922 0)
(1.15123 0.192689 0)
(1.15347 0.198992 0)
(1.14598 0.17899 9.36957e-25)
(1.14871 0.185991 0)
(1.14018 0.164391 -6.40299e-23)
(1.14314 0.171773 0)
(1.13411 0.149196 6.59042e-23)
(1.13718 0.156851 0)
(1.12807 0.13361 5.86773e-23)
(1.1311 0.14146 -6.22758e-23)
(1.10887 0.130541 1.27097e-22)
(1.12512 0.125735 0)
(1.11833 0.128133 1.82843e-22)
(1.08049 0.135155 0)
(1.09632 0.132854 0)
(1.03868 0.139719 0)
(1.06123 0.137463 0)
(0.986894 0.143203 0)
(1.01341 0.141744 0)
(0.939471 0.142773 2.69926e-22)
(0.961193 0.143762 6.69662e-23)
(0.9204 0.134199 6.07545e-23)
(0.924979 0.139679 5.0708e-22)
(0.909664 0.131213 3.45988e-22)
(0.9276 0.126262 5.64358e-23)
(0.918351 0.12934 -1.2535e-22)
(0.892428 0.132004 7.27921e-23)
(0.900913 0.132094 -4.34165e-22)
(0.875339 0.128594 1.15959e-26)
(0.8839 0.130772 0)
(0.858173 0.120984 0)
(0.866777 0.125318 0)
(0.841018 0.108842 5.41516e-26)
(0.84956 0.115476 0)
(0.824748 0.0921664 0)
(0.832699 0.101055 0)
(0.810925 0.071344 0)
(0.817414 0.0822247 0)
(0.801714 0.0473386 0)
(0.805598 0.0596502 0)
(0.79953 0.0217152 0)
(0.799607 0.0346091 0)
(0.806301 -0.00363333 -4.2196e-24)
(0.801735 0.0088904 0)
(0.822471 -0.027204 0)
(0.813273 -0.0157007 0)
(0.846198 -0.0487141 0)
(0.83362 -0.0381603 0)
(0.873314 -0.0696877 0)
(0.859661 -0.0591109 0)
(0.898899 -0.0928397 0)
(0.886577 -0.0808122 0)
(0.919607 -0.12056 -2.49152e-24)
(0.909969 -0.106036 0)
(0.934975 -0.15359 0)
(0.927888 -0.13644 0)
(0.946749 -0.191032 0)
(0.941169 -0.171853 0)
(0.95714 -0.231415 2.19387e-24)
(0.952006 -0.210941 0)
(0.967644 -0.27356 -1.09843e-25)
(0.962325 -0.252323 0)
(0.978883 -0.316661 2.90056e-24)
(0.973164 -0.295036 0)
(0.990835 -0.359915 0)
(0.984797 -0.338331 0)
(1.00293 -0.402056 0)
(0.99693 -0.381238 0)
(1.01387 -0.440774 -1.18752e-25)
(1.00866 -0.422028 0)
(1.02185 -0.472296 0)
(1.01841 -0.45777 0)
(1.02523 -0.490843 1.62438e-21)
(1.02417 -0.483645 0)
(0.964355 -0.486566 5.82844e-22)
(1.02404 -0.493303 -3.72952e-21)
(0.59657 -0.374018 0)
(0.302717 -0.203921 2.96385e-21)
(0.516258 -0.342831 3.65087e-23)
(1.13278 0.13098 -5.85764e-23)
(1.12974 0.123316 0)
(0.927541 0.130462 5.38596e-23)
(0.936763 0.122387 -1.1136e-22)
(0.712717 -0.415135 0)
(0.75415 -0.434454 0)
(0.432969 -0.301964 0)
(0.799203 -0.451794 2.90314e-22)
(0.847818 -0.466057 1.01905e-21)
(0.899879 -0.475635 0)
(0.954578 -0.480448 -3.88483e-21)
(1.01952 -0.490165 3.06737e-21)
(0.654135 -0.395459 0)
(0.340587 -0.202227 -3.78845e-25)
(0.281107 -0.176086 1.33613e-21)
(0.299128 -0.15147 -5.50541e-21)
(0.319294 -0.179439 1.38453e-21)
(0.383326 -0.245899 -4.70223e-22)
(0.360766 -0.224994 -6.8975e-22)
(0.430001 -0.272841 0)
(0.406632 -0.261737 0)
(0.480322 -0.282415 -8.71692e-25)
(0.454387 -0.279551 0)
(0.538089 -0.275582 0)
(0.508182 -0.281154 0)
(0.604123 -0.25122 0)
(0.570086 -0.265571 0)
(0.677766 -0.210248 0)
(0.640109 -0.232671 0)
(0.75658 -0.155542 1.63319e-25)
(0.716753 -0.18435 0)
(0.836703 -0.0917565 0)
(0.796755 -0.124439 0)
(0.913795 -0.0245481 0)
(0.875898 -0.0582133 0)
(0.983882 0.04042 0)
(0.949933 0.00854386 0)
(1.04396 0.0983574 0)
(1.01531 0.0705116 0)
(1.09226 0.145961 -4.51595e-25)
(1.06964 0.123588 0)
(1.12837 0.181651 1.33206e-26)
(1.11182 0.165325 0)
(1.15301 0.205442 0)
(1.14205 0.194978 0)
(1.16776 0.218543 -7.56523e-27)
(1.16151 0.213219 0)
(1.17462 0.222828 0)
(1.17205 0.221656 0)
(1.17566 0.220354 0)
(1.17575 0.222309 0)
(1.17273 0.213024 0)
(1.17459 0.217188 0)
(1.16735 0.202409 0)
(1.17027 0.208043 0)
(1.16065 0.1897 0)
(1.1641 0.196255 0)
(1.15344 0.17575 -1.82757e-24)
(1.15707 0.182838 0)
(1.14626 0.161146 -9.15595e-25)
(1.14981 0.168503 0)
(1.13935 0.146194 1.21083e-22)
(1.14275 0.153704 -1.20214e-22)
(1.136 0.138606 1.12831e-22)
(1.10607 0.123022 3.17187e-23)
(1.12234 0.117991 7.27434e-24)
(1.11554 0.120472 -9.4735e-23)
(1.07784 0.128437 0)
(1.09361 0.125685 0)
(1.03621 0.134191 -1.06051e-27)
(1.05864 0.13131 0)
(0.985637 0.138916 0)
(1.01133 0.136864 0)
(0.941746 0.139137 1.26641e-22)
(0.961437 0.139907 -1.33318e-22)
(0.929576 0.136099 -1.62811e-23)
(0.926017 0.121759 -1.52527e-24)
(0.9466 0.11641 -1.16727e-22)
(0.936111 0.119615 3.73429e-24)
(0.906729 0.122959 -7.45975e-23)
(0.916142 0.122909 7.4726e-23)
(0.88868 0.119918 -1.33169e-24)
(0.897585 0.121922 0)
(0.871953 0.112641 -1.46423e-24)
(0.880162 0.116795 0)
(0.856944 0.101151 3.71268e-26)
(0.864195 0.107401 0)
(0.84463 0.0857536 0)
(0.850378 0.0939035 0)
(0.836466 0.0671211 0)
(0.839932 0.0767787 0)
(0.834163 0.0463534 0)
(0.834486 0.0569174 0)
(0.839184 0.0248423 0)
(0.835706 0.0355995 0)
(0.852005 0.00385575 2.16683e-24)
(0.844663 0.0142254 0)
(0.871358 -0.0161589 2.33241e-24)
(0.861029 -0.0062496 0)
(0.894223 -0.0359915 0)
(0.88261 -0.0259979 0)
(0.916593 -0.0575668 0)
(0.905721 -0.0464183 0)
(0.935272 -0.0829736 0)
(0.926524 -0.0696902 0)
(0.949261 -0.113268 2.49152e-24)
(0.942826 -0.0975035 0)
(0.959736 -0.148071 -2.34336e-24)
(0.954816 -0.130175 0)
(0.968793 -0.186167 0)
(0.964319 -0.166791 0)
(0.978201 -0.226379 0)
(0.973377 -0.206066 0)
(0.988984 -0.267941 -1.27383e-25)
(0.983387 -0.247026 0)
(1.00157 -0.310341 -2.6435e-24)
(0.995046 -0.289068 0)
(1.016 -0.352996 0)
(1.00857 -0.331685 0)
(1.03187 -0.394898 0)
(1.0238 -0.374133 0)
(1.04821 -0.434193 -1.04744e-25)
(1.04007 -0.415028 0)
(1.06325 -0.467609 0)
(1.05606 -0.451923 0)
(1.07445 -0.489993 -1.15739e-21)
(1.06934 -0.48056 0)
(1.07871 -0.494955 -1.51424e-21)
(1.07745 -0.495154 2.8053e-21)
(0.340672 -0.235665 -3.7956e-22)
(0.300684 -0.204826 -1.97434e-21)
(1.01187 -0.480806 1.98609e-21)
(1.07638 -0.488843 -1.98531e-21)
(0.573371 -0.367981 0)
(1.12687 0.115713 1.0177e-22)
(0.957502 0.112141 -4.25272e-22)
(0.281484 -0.121063 1.1864e-21)
(0.692865 -0.414632 0)
(0.259481 -0.14422 3.32047e-22)
(0.488906 -0.328311 0)