/*--------------------------------*- C++ -*----------------------------------*\
  =========                 |
  \\      /  F ield         | OpenFOAM: The Open Source CFD Toolbox
   \\    /   O peration     | Website:  https://openfoam.org
    \\  /    A nd           | Version:  10
     \\/     M anipulation  |
\*---------------------------------------------------------------------------*/
FoamFile
{
    format      ascii;
    class       volScalarField;
    location    "38.5";
    object      p;
}
// * * * * * * * * * * * * * * * * * * * * * * * * * * * * * * * * * * * * * //

dimensions      [0 2 -2 0 0 0 0];

internalField   nonuniform List<scalar> 
25879
(
0.06338
0.0663362
0.0664552
0.0640992
-0.0303071
-0.0297529
-0.130707
-0.116989
-0.0911465
-0.0958456
-0.230252
-0.18785
-0.280105
-0.299012
-0.302262
0.18946
0.0932348
-0.0173474
-0.146292
0.786745
0.778778
0.19769
0.321748
0.194191
0.195696
0.201792
0.199404
0.188807
0.193268
0.188877
0.188083
-0.369985
-0.365766
-0.352806
0.0846249
0.083511
0.0762857
0.0503402
0.045961
-0.438716
-0.381082
-0.304298
0.377797
0.388422
0.391319
-0.105912
-0.122444
-0.640701
-0.61304
-0.630589
0.116599
0.146007
-0.964514
-0.739613
0.00942147
0.0101297
0.0139799
0.48236
0.49512
0.455467
0.436473
0.394318
0.393638
0.00187765
0.00434239
0.00370637
-0.36857
-0.375427
-0.358589
-0.453854
-0.416961
0.25026
0.253809
0.258479
0.294362
0.437735
0.362326
0.0729585
0.0741636
0.0707736
0.40677
0.395066
0.823308
0.756852
0.744529
0.205066
0.213806
0.200948
0.0370131
0.0421431
-0.570754
-0.518108
-0.60528
0.184109
0.183669
-0.0133113
-0.0204793
-0.019663
0.0889473
0.0926463
0.0836621
0.0837136
0.037025
0.0336145
0.031726
0.178251
0.175558
0.132989
0.18098
0.0690096
0.061375
0.0503069
0.04999
0.0466916
0.0472829
0.17227
0.157882
-0.202288
-0.0758219
-0.0315337
-0.022581
-0.161756
-0.164953
-0.29475
-0.289952
-0.516352
-0.48976
-0.412378
-0.382797
-0.352144
-0.39288
-0.36625
0.498717
0.483846
0.471675
0.482479
0.0678331
0.070264
-0.115039
0.00771634
-0.221933
-0.220269
-0.213515
-0.209403
-0.198902
-0.184236
-0.169231
-0.153734
-0.138988
-0.125447
-0.113449
-0.103286
-0.0949579
-0.0884488
-0.0835825
-0.0802525
-0.0783542
-0.0778369
-0.0787412
-0.0810612
-0.0849597
-0.0904367
-0.0977492
-0.106846
-0.117979
-0.130907
-0.145671
-0.161614
-0.178344
-0.194675
-0.209698
-0.221634
-0.22923
-0.231455
-0.229241
-0.222459
-0.211997
-0.209386
-0.20117
-0.239711
-0.21166
-0.212639
-0.221303
-0.227392
-0.249729
-0.246838
-0.239125
-0.24728
-0.210301
-0.226498
-0.174084
-0.192517
-0.139971
-0.156395
-0.113023
-0.12549
-0.0944046
-0.102716
-0.0833533
-0.0880135
-0.0787787
-0.0803127
-0.0799626
-0.0786622
-0.0868352
-0.0826411
-0.100062
-0.0925637
-0.120302
-0.109265
-0.146482
-0.132791
-0.174333
-0.160624
-0.195124
-0.186481
-0.204729
-0.204132
-0.227573
-0.217978
-0.174969
-0.190228
-0.143839
-0.15907
-0.11664
-0.129614
-0.0964041
-0.105612
-0.0834722
-0.0890832
-0.0768
-0.0793909
-0.075647
-0.0754949
-0.080031
-0.0770329
-0.0904925
-0.0843248
-0.10773
-0.0980533
-0.1318
-0.118742
-0.160697
-0.145615
-0.189055
-0.175129
-0.207859
-0.199907
-0.211118
-0.227422
-0.219823
-0.210178
-0.210232
-0.19906
-0.220016
-0.191748
-0.19927
-0.187683
-0.188521
-0.180748
-0.226716
-0.23092
-0.230805
-0.230532
-0.227287
-0.251476
-0.238259
-0.263367
-0.259854
-0.252887
-0.2612
-0.221884
-0.239269
-0.182366
-0.202404
-0.145124
-0.162952
-0.115839
-0.129313
-0.0956103
-0.104611
-0.0834085
-0.0885774
-0.0779039
-0.0798757
-0.0782112
-0.0773542
-0.084085
-0.0804339
-0.0959445
-0.089222
-0.114236
-0.104307
-0.137835
-0.125577
-0.162708
-0.150551
-0.184184
-0.174022
-0.198823
-0.19315
-0.19737
-0.199925
-0.205971
-0.218435
-0.17696
-0.192283
-0.14595
-0.161399
-0.117878
-0.131126
-0.0965087
-0.106233
-0.0822202
-0.0884917
-0.0740988
-0.077439
-0.0713491
-0.0720836
-0.0738447
-0.0719538
-0.0820018
-0.0772292
-0.0964619
-0.0884894
-0.117389
-0.106268
-0.143178
-0.130026
-0.16906
-0.156745
-0.186744
-0.179663
-0.190406
-0.185533
-0.229983
-0.182361
-0.192282
-0.182838
-0.178058
-0.172539
-0.178353
-0.169831
-0.156118
-0.170736
-0.21513
-0.205353
-0.225817
-0.2224
-0.224021
-0.180495
-0.202423
-0.257982
-0.243107
-0.27222
-0.26796
-0.260534
-0.269623
-0.227542
-0.246046
-0.185575
-0.206843
-0.14629
-0.165061
-0.11562
-0.129716
-0.0944704
-0.103894
-0.0815682
-0.0870751
-0.0754099
-0.0777118
-0.0749886
-0.0745109
-0.0799434
-0.0767807
-0.0905506
-0.0844988
-0.10711
-0.0980985
-0.128473
-0.117357
-0.151233
-0.13996
-0.171087
-0.161607
-0.183546
-0.178587
-0.184916
-0.222159
-0.226427
-0.226591
-0.202541
-0.21396
-0.174078
-0.189106
-0.143513
-0.158717
-0.115837
-0.129038
-0.094262
-0.104183
-0.0793637
-0.0860027
-0.0703432
-0.0741673
-0.0664339
-0.0677675
-0.0674408
-0.0663077
-0.0736786
-0.0698708
-0.0857026
-0.0789396
-0.103664
-0.0939865
-0.126109
-0.114533
-0.148705
-0.137839
-0.164189
-0.157815
-0.166058
-0.167337
-0.151045
-0.16044
-0.158509
-0.159539
-0.225186
-0.169415
-0.185176
-0.170845
-0.163446
-0.153177
-0.139348
-0.139766
-0.218892
-0.139553
-0.14031
-0.221616
-0.214537
-0.124778
-0.154695
-0.207156
-0.197529
-0.217105
-0.213949
-0.212585
-0.216444
-0.178947
-0.137386
-0.157288
-0.223674
-0.201614
-0.259233
-0.243484
-0.273942
-0.269782
-0.262084
-0.271412
-0.228131
-0.247188
-0.184933
-0.206818
-0.144649
-0.163877
-0.113314
-0.12771
-0.0916806
-0.101337
-0.0783195
-0.0840607
-0.0716256
-0.0742101
-0.0705079
-0.0704037
-0.0745085
-0.0718613
-0.0837951
-0.0784548
-0.0985986
-0.0905173
-0.117849
-0.107815
-0.138396
-0.128228
-0.156106
-0.147847
-0.166602
-0.16252
-0.16622
-0.167962
-0.155209
-0.16197
-0.214352
-0.218762
-0.195135
-0.206213
-0.167416
-0.182
-0.13754
-0.152399
-0.110607
-0.123471
-0.089439
-0.0992134
-0.074546
-0.0812358
-0.0651642
-0.0692158
-0.0605493
-0.0622803
-0.0604738
-0.0599307
-0.0651559
-0.0621862
-0.0750135
-0.0694067
-0.0901
-0.0819335
-0.109051
-0.0992621
-0.128045
-0.118904
-0.141082
-0.135688
-0.143069
-0.143772
-0.131883
-0.138526
-0.109235
-0.121792
-0.123058
-0.119902
-0.109162
-0.0954565
-0.151634
-0.123828
-0.205604
-0.145005
-0.146646
-0.138549
-0.131065
-0.13527
-0.122766
-0.0959801
-0.10799
-0.104602
-0.0834217
-0.138286
-0.175388
-0.161791
-0.196252
-0.187028
-0.205122
-0.202375
-0.20042
-0.204502
-0.132033
-0.098427
-0.11412
-0.174468
-0.152096
-0.219468
-0.197356
-0.256056
-0.239822
-0.271014
-0.266838
-0.259076
-0.268452
-0.224719
-0.244023
-0.181008
-0.203133
-0.140425
-0.159771
-0.108974
-0.123415
-0.0872433
-0.0969552
-0.0736798
-0.0795408
-0.0666092
-0.0694075
-0.064886
-0.0651172
-0.0679802
-0.06583
-0.0759572
-0.071329
-0.0889748
-0.0818462
-0.106038
-0.0971333
-0.124268
-0.115245
-0.139742
-0.1326
-0.148694
-0.145242
-0.148188
-0.149695
-0.144345
-0.20791
-0.196262
-0.204108
-0.203122
-0.207555
-0.184624
-0.195283
-0.157943
-0.171966
-0.129096
-0.143443
-0.103102
-0.11551
-0.0826256
-0.0920965
-0.0680453
-0.0746274
-0.0585879
-0.0627253
-0.0535137
-0.0555239
-0.0525682
-0.0525157
-0.0558973
-0.053672
-0.0637975
-0.0592536
-0.0762282
-0.0694768
-0.0919356
-0.0838201
-0.107621
-0.100079
-0.118298
-0.113912
-0.119573
-0.120322
-0.110206
-0.116014
-0.0924121
-0.10217
-0.0712796
-0.0817534
-0.091633
-0.0852085
-0.0734202
-0.0624325
-0.193664
-0.134919
-0.109336
-0.137159
-0.122569
-0.128612
-0.0850618
-0.119579
-0.108516
-0.0954753
-0.184001
-0.0653909
-0.0807599
-0.0740406
-0.0547768
-0.184862
-0.173787
-0.12267
-0.163752
-0.151088
-0.182971
-0.174655
-0.190978
-0.188447
-0.186221
-0.18998
-0.170918
-0.179547
-0.0902339
-0.0654173
-0.0768017
-0.124066
-0.105805
-0.166742
-0.144491
-0.211768
-0.18951
-0.248218
-0.232012
-0.263295
-0.259043
-0.251374
-0.260748
-0.217054
-0.236322
-0.173629
-0.195572
-0.133575
-0.15264
-0.102663
-0.116849
-0.081284
-0.0908511
-0.0678068
-0.0736598
-0.0605412
-0.0634731
-0.0583257
-0.0588427
-0.0605816
-0.0588993
-0.0672891
-0.0633559
-0.0785523
-0.0723616
-0.0934575
-0.0856715
-0.109366
-0.101507
-0.122661
-0.116572
-0.130307
-0.127286
-0.129447
-0.130878
-0.121304
-0.126249
-0.107668
-0.114904
-0.194039
-0.190903
-0.18892
-0.193164
-0.17148
-0.181536
-0.146251
-0.159502
-0.118916
-0.132515
-0.094197
-0.106006
-0.0746031
-0.0836869
-0.0604601
-0.066878
-0.0510204
-0.0551992
-0.0455656
-0.0478166
-0.0438227
-0.0442244
-0.0458838
-0.0443571
-0.0519637
-0.0484055
-0.0619708
-0.0565056
-0.0747851
-0.068155
-0.0875856
-0.081436
-0.0961861
-0.0926923
-0.0967798
-0.0976626
-0.0883118
-0.0936084
-0.0733408
-0.0812829
-0.0580327
-0.0655218
-0.0431752
-0.0503819
-0.0484158
-0.0385031
-0.0645812
-0.0555461
-0.119769
-0.0968423
-0.160356
-0.114104
-0.0753483
-0.0998947
-0.0924189
-0.0861379
-0.106363
-0.0579329
-0.09659
-0.0435321
-0.0849699
-0.0715986
-0.0567562
-0.0472372
-0.1089
-0.127175
-0.113729
-0.151272
-0.139878
-0.16846
-0.160927
-0.175375
-0.17337
-0.170601
-0.174351
-0.15572
-0.164276
-0.0551761
-0.0364095
-0.0451367
-0.0801528
-0.0666926
-0.113975
-0.095934
-0.155994
-0.13416
-0.200346
-0.178453
-0.236034
-0.220162
-0.250923
-0.246698
-0.239168
-0.248412
-0.205498
-0.224374
-0.163189
-0.184528
-0.124433
-0.14285
-0.0946403
-0.108307
-0.0740106
-0.0832546
-0.0608833
-0.0666103
-0.0535987
-0.056585
-0.0510129
-0.05176
-0.0525224
-0.0512647
-0.0580362
-0.0547616
-0.0676116
-0.0623261
-0.0804285
-0.0737246
-0.0941056
-0.0873596
-0.105411
-0.10026
-0.111511
-0.109274
-0.110964
-0.111973
-0.103835
-0.107949
-0.0985157
-0.169592
-0.14858
-0.160413
-0.177644
-0.17538
-0.172586
-0.176723
-0.156238
-0.165637
-0.132766
-0.14508
-0.107343
-0.119993
-0.0842509
-0.095303
-0.0657616
-0.0743644
-0.052178
-0.0583807
-0.0428272
-0.0470159
-0.0370472
-0.0395115
-0.0345693
-0.0353918
-0.0354508
-0.0345734
-0.0398524
-0.0371995
-0.0476651
-0.0433589
-0.0579089
-0.0525923
-0.0681941
-0.0632538
-0.0750031
-0.0722727
-0.0751355
-0.0760435
-0.067711
-0.0723238
-0.05513
-0.0617357
-0.0426265
-0.0487149
-0.031412
-0.0365966
-0.0289134
-0.0404579
-0.0289597
-0.145505
-0.106456
-0.0864516
-0.0923146
-0.0796636
-0.101914
-0.068182
-0.0953193
-0.0533631
-0.0868267
-0.0413471
-0.0764615
-0.0643051
-0.0504659
-0.0296803
-0.134425
-0.0350826
-0.0230551
-0.134544
-0.121909
-0.0971271
-0.117152
-0.104887
-0.138739
-0.128469
-0.153647
-0.14724
-0.15934
-0.157819
-0.154547
-0.15821
-0.140263
-0.148472
-0.119715
-0.130409
-0.0244407
-0.0101828
-0.0166754
-0.0436712
-0.0335043
-0.0687087
-0.0551685
-0.10186
-0.0841827
-0.14274
-0.121585
-0.185545
-0.164468
-0.219949
-0.204601
-0.234395
-0.230293
-0.222986
-0.231953
-0.190511
-0.208685
-0.150055
-0.170412
-0.113301
-0.130735
-0.0851659
-0.0980675
-0.065651
-0.074408
-0.053117
-0.0586086
-0.0459802
-0.0489448
-0.0431474
-0.0440668
-0.0440131
-0.0431301
-0.0484327
-0.0457665
-0.0564288
-0.0519924
-0.0672856
-0.0615965
-0.0788897
-0.0731732
-0.0883714
-0.0840768
-0.0933222
-0.0915311
-0.0926382
-0.0937083
-0.0865675
-0.0902686
-0.077417
-0.0822861
-0.066951
-0.0721579
-0.152655
-0.14478
-0.159577
-0.157667
-0.154658
-0.15857
-0.139526
-0.148189
-0.117994
-0.129275
-0.094699
-0.106292
-0.0734492
-0.083639
-0.0562448
-0.0642828
-0.0433531
-0.0492806
-0.0341889
-0.038342
-0.0281703
-0.0308048
-0.0250564
-0.0262473
-0.0248905
-0.0245908
-0.0278004
-0.0259515
-0.0336759
-0.0303908
-0.0416699
-0.0375005
-0.0497694
-0.045879
-0.0550319
-0.0529559
-0.0547919
-0.0557136
-0.0483728
-0.0523035
-0.0380605
-0.0434373
-0.0276391
-0.032732
-0.0200786
-0.0231332
-0.0197195
-0.0192892
-0.0187411
-0.00519175
-0.0227504
-0.0150228
-0.0955236
-0.0781672
-0.108125
-0.0920156
-0.063087
-0.062016
-0.054399
-0.0505379
-0.0865696
-0.0516098
-0.0792216
-0.0399797
-0.0699738
-0.0304724
-0.0588863
-0.0460137
-0.0316164
-0.00173108
-0.0160907
-0.0254569
-0.0173164
-0.0875282
-0.0853227
-0.0736404
-0.107744
-0.0968189
-0.126732
-0.117831
-0.139484
-0.134073
-0.143885
-0.142856
-0.138854
-0.142383
-0.125173
-0.132933
-0.10549
-0.115881
0.00316524
0.0127025
0.00861277
-0.0117154
-0.00368411
-0.0310369
-0.0208422
-0.0559116
-0.0426633
-0.0881263
-0.0710202
-0.127233
-0.107025
-0.167957
-0.147914
-0.200685
-0.186064
-0.214467
-0.210564
-0.203514
-0.212103
-0.17269
-0.189893
-0.134749
-0.153784
-0.100606
-0.116772
-0.0745706
-0.0865078
-0.0564668
-0.0646038
-0.0447277
-0.0498923
-0.0378847
-0.0407598
-0.0349223
-0.0359576
-0.0352538
-0.0346906
-0.0386966
-0.0365784
-0.0452481
-0.0415907
-0.0543055
-0.0495468
-0.0640301
-0.0592423
-0.0718982
-0.0683532
-0.0758777
-0.0744673
-0.075087
-0.0760922
-0.0702221
-0.0729956
-0.0626203
-0.0664836
-0.058471
-0.1191
-0.0959032
-0.108209
-0.134676
-0.127954
-0.140474
-0.138901
-0.135725
-0.13939
-0.121918
-0.129784
-0.102451
-0.112642
-0.0813907
-0.0918781
-0.0620739
-0.0713576
-0.0462419
-0.0536713
-0.0341309
-0.0397386
-0.0252432
-0.0293155
-0.0190842
-0.0218381
-0.0154541
-0.0169499
-0.0143989
-0.014592
-0.0160306
-0.0148708
-0.0202476
-0.0178362
-0.0263227
-0.0231309
-0.0325623
-0.0295655
-0.0365128
-0.0349898
-0.0359794
-0.0368993
-0.0305051
-0.0337975
-0.0222335
-0.0265072
-0.0140702
-0.0180117
-0.00919272
-0.0109181
-0.00931244
-0.00901027
-0.00472025
-0.00798861
-0.00656851
-0.00448892
-0.0207976
-0.0122989
-0.00851929
-0.0943842
0.000385772
0.0156616
-0.0869368
-0.0720588
-0.0577146
-0.0471018
-0.0844352
-0.0602155
-0.0800684
-0.0498288
-0.0738162
-0.0394211
-0.0656383
-0.0332235
-0.0555865
-0.0292319
-0.0436425
-0.0300505
-0.0150154
-0.00403282
0.00127229
-0.0824246
-0.0829762
-0.0709603
0.017482
-0.00812069
-0.0166413
-0.0252734
-0.0801659
-0.0791506
-0.0684618
-0.0993181
-0.0894602
-0.115917
-0.108256
-0.126539
-0.122106
-0.129541
-0.129096
-0.124119
-0.12789
-0.111083
-0.118481
-0.0922366
-0.102305
-0.0708466
-0.0817114
0.0269421
0.0332776
0.0305585
0.0166314
0.0224031
0.00153864
0.00960974
-0.017702
-0.00758884
-0.0422207
-0.0293422
-0.0730492
-0.0567502
-0.109959
-0.0909142
-0.148265
-0.129417
-0.179034
-0.165284
-0.191959
-0.188334
-0.181507
-0.189654
-0.152718
-0.16872
-0.117844
-0.135278
-0.0867907
-0.101466
-0.0631894
-0.0740117
-0.0467213
-0.0541371
-0.0359347
-0.0406996
-0.0295075
-0.0322352
-0.0265224
-0.0276208
-0.0264292
-0.0261297
-0.0290222
-0.0273855
-0.034282
-0.0313236
-0.0417214
-0.0377986
-0.0497759
-0.045809
-0.0562497
-0.053346
-0.0594183
-0.0583223
-0.058665
-0.0595269
-0.0545789
-0.0569739
-0.0484736
-0.0516737
-0.0422161
-0.0453109
-0.0367038
-0.0392934
-0.102495
-0.0931084
-0.11616
-0.110272
-0.12097
-0.119756
-0.116402
-0.11982
-0.103968
-0.111023
-0.0865973
-0.0956835
-0.0678008
-0.0771694
-0.0504379
-0.0588058
-0.0360014
-0.0428094
-0.0247101
-0.0299761
-0.0161601
-0.0201181
-0.00994753
-0.0127737
-0.00592055
-0.00765681
-0.00413782
-0.00473668
-0.00470689
-0.00412107
-0.00754133
-0.00585828
-0.0120184
-0.0096404
-0.0167098
-0.0144572
-0.0195673
-0.0185044
-0.0188101
-0.0197116
-0.0142187
-0.0169233
-0.00774321
-0.0110486
-0.00177281
-0.00456742
0.00114753
0.000232864
0.00144601
0.00122807
0.00286217
0.00247647
0.00140553
0.00294645
-0.000662318
0.0183707
0.0350459
-0.0220802
-0.0131677
-0.0804325
-0.0678889
-0.0598222
-0.0789208
-0.0581974
-0.0346347
-0.0266378
-0.0251949
-0.0756738
-0.0489141
-0.0705912
-0.0415168
-0.0635815
-0.0372807
-0.0545646
-0.0339382
-0.0434759
-0.0311955
-0.0302962
-0.015431
0.000842667
-0.0285634
0.0182122
0.0358329
-0.019056
-0.0747703
-0.054256
-0.0443254
-0.0738813
-0.0641984
-0.0920191
-0.0833021
-0.106449
-0.0998461
-0.115167
-0.111632
-0.116867
-0.11697
-0.11102
-0.114905
-0.0984402
-0.10544
-0.0805708
-0.0900174
-0.0599237
-0.0704052
0.0482787
0.0518453
0.050443
0.0409304
0.0450277
0.0300051
0.0361456
0.014867
0.0230055
-0.004318
0.00579792
-0.0278126
-0.0153787
-0.0570098
-0.041657
-0.0915186
-0.0737369
-0.127218
-0.10966
-0.155835
-0.143057
-0.167702
-0.164432
-0.157762
-0.165421
-0.131328
-0.145938
-0.0999437
-0.115568
-0.0723131
-0.0853484
-0.051363
-0.0609742
-0.0366744
-0.0433034
-0.0269485
-0.0312626
-0.0210306
-0.023565
-0.0181156
-0.0192301
-0.0177024
-0.0176119
-0.0195756
-0.0183516
-0.0237045
-0.0213609
-0.0297144
-0.02653
-0.0363091
-0.0330558
-0.0415993
-0.0392345
-0.0441172
-0.043265
-0.0434254
-0.0441625
-0.0400861
-0.0420274
-0.035364
-0.0378017
-0.0303813
-0.032801
-0.028344
-0.0496202
-0.0683947
-0.048691
-0.0586419
-0.0857577
-0.0774932
-0.0976596
-0.092597
-0.101586
-0.100697
-0.0972636
-0.100411
-0.0861668
-0.0924336
-0.0708408
-0.0788489
-0.0542543
-0.0625305
-0.0388054
-0.0462751
-0.0257486
-0.0319398
-0.0152888
-0.0202035
-0.00711749
-0.0109366
-0.000924989
-0.00378223
0.00338765
0.00147162
0.00574306
0.0048218
0.00603131
0.00615258
0.00432214
0.00541164
0.00115024
0.00286308
-0.00227248
-0.00063041
-0.00423682
-0.00354814
-0.00333615
-0.00419371
0.000411602
-0.00174383
0.00528115
0.00283726
0.00936147
0.00752702
0.0110583
0.0105507
0.0114921
0.0112411
0.0112399
0.0116198
0.00909713
0.0105134
0.00391669
0.00690085
-0.00445102
9.44374e-05
-0.0260262
-0.0157049
-0.00955054
0.0360599
0.05301
-0.0758684
-0.0652097
-0.0331595
-0.0242527
-0.0754726
-0.0573241
-0.0734419
-0.0502686
-0.0696291
-0.0453402
-0.063835
-0.04263
-0.0558132
-0.0403576
-0.0453212
-0.0384447
-0.0324633
-0.0367185
-0.0174725
-0.000810349
0.0172077
0.0359814
-0.00575114
-0.0344313
-0.0394808
-0.0227885
-0.011914
0.0536784
-0.0711594
-0.0516572
-0.0423624
-0.0697344
-0.0608492
-0.086023
-0.07827
-0.0984919
-0.09285
-0.105521
-0.102785
-0.106025
-0.106646
-0.0997186
-0.103723
-0.0873039
-0.0942021
-0.0703174
-0.0793163
-0.0507548
-0.0607364
-0.0313134
-0.0408451
0.0666151
0.0690201
0.0680061
0.0621346
0.064717
0.0543563
0.0587379
0.0428896
0.049146
0.0278365
0.035895
0.00929917
0.0190415
-0.0131261
-0.00135605
-0.0404947
-0.0261399
-0.0725579
-0.0560619
-0.105581
-0.089352
-0.131908
-0.12019
-0.142491
-0.139656
-0.13307
-0.1402
-0.109246
-0.122316
-0.0816383
-0.0953202
-0.0576112
-0.0689298
-0.0394098
-0.0477681
-0.0265665
-0.0323777
-0.0179614
-0.0217944
-0.0126179
-0.0149255
-0.00984904
-0.0109397
-0.00921215
-0.00927913
-0.0104927
-0.00961328
-0.0136519
-0.0118385
-0.0184187
-0.0158772
-0.0237533
-0.0211129
-0.0280526
-0.0261335
-0.0300581
-0.0293914
-0.0294447
-0.0300661
-0.0267566
-0.0283038
-0.0230308
-0.0249528
-0.0194284
-0.021155
-0.016797
-0.0179173
-0.0156099
-0.0160291
-0.037372
-0.0218913
-0.0293159
-0.0541174
-0.0458057
-0.0693413
-0.0621171
-0.0796537
-0.075325
-0.0827925
-0.0821781
-0.0787458
-0.0816177
-0.0689225
-0.0744405
-0.0555273
-0.0625187
-0.0410266
-0.0482708
-0.0273943
-0.0340096
-0.0156649
-0.0212593
-0.00602919
-0.0105911
0.00173259
-0.0019279
0.00783894
0.00498821
0.0123338
0.0102947
0.0151172
0.0139514
0.0160732
0.0158305
0.0152569
0.0158739
0.0131327
0.0143102
0.0107366
0.0118841
0.00948495
0.0098795
0.0104341
0.00965629
0.0133568
0.0117222
0.0167716
0.0151027
0.0192512
0.0182013
0.0200297
0.0198361
0.0200235
0.0201194
0.0190479
0.0196928
0.0164119
0.01801
0.011524
0.0143004
0.00414626
0.00811892
-0.000514303
0.0541466
0.0701073
-0.0312332
-0.0188852
-0.0733039
-0.0640846
-0.0741546
-0.0582608
-0.0242484
-0.0154368
-0.0156065
-0.00726567
-0.00761043
-0.0735013
-0.0535936
-0.0710645
-0.05112
-0.0665011
-0.0497079
-0.0594106
-0.0486572
-0.0493966
-0.0478149
-0.0365604
-0.0465731
-0.0210605
-0.0444198
-0.00340724
0.0159598
0.0356713
-0.0405602
0.0549968
0.070971
-0.0264083
-0.0694145
-0.0325032
-0.0239437
-0.0499398
-0.0412404
-0.0666866
-0.0584555
-0.0813329
-0.0744177
-0.0921026
-0.0873037
-0.0976302
-0.0956066
-0.097041
-0.0981437
-0.0902329
-0.0944034
-0.0779499
-0.0847067
-0.0616514
-0.0702584
-0.0430939
-0.0525222
-0.0334815
0.0842712
0.0716034
0.0848915
0.0825873
0.0836427
0.0796816
0.0813428
0.0747775
0.0775868
0.0665792
0.0711147
0.0550566
0.0612409
0.0403594
0.0481076
0.022633
0.0318774
0.00149386
0.0125591
-0.0240256
-0.0106683
-0.0536878
-0.038453
-0.0840476
-0.0691531
-0.107967
-0.0973835
-0.117068
-0.114806
-0.108167
-0.114726
-0.0871565
-0.098578
-0.0634729
-0.0751548
-0.0430809
-0.0526777
-0.0276147
-0.034728
-0.0166103
-0.0216044
-0.00914165
-0.012483
-0.00441006
-0.00646945
-0.00184636
-0.00288085
-0.00107069
-0.00124892
-0.00187826
-0.00127877
-0.00422399
-0.00285853
-0.00792573
-0.0059364
-0.0121822
-0.0100642
-0.0156586
-0.0141049
-0.0172679
-0.0167384
-0.0167516
-0.017261
-0.0146202
-0.0158374
-0.0117714
-0.0132234
-0.00926856
-0.0103853
-0.00758345
-0.00823563
-0.00724019
-0.0259815
-0.0126642
-0.0190027
-0.0402989
-0.0331039
-0.0535886
-0.0472944
-0.0624763
-0.0587779
-0.0649527
-0.0645593
-0.0611884
-0.0637934
-0.0525487
-0.0573767
-0.0409239
-0.0469826
-0.0283384
-0.0346345
-0.0163849
-0.0222085
-0.00590086
-0.010932
0.00293633
-0.00127894
0.0102677
0.00678156
0.0162285
0.0134186
0.0208099
0.0187002
0.0238885
0.0225493
0.0253417
0.024825
0.0252144
0.0254643
0.0239177
0.0246705
0.0223417
0.0230942
0.0216395
0.0218138
0.0225376
0.0218782
0.0246599
0.0235128
0.0268048
0.0258005
0.0280295
0.0275699
0.0281165
0.0281852
0.0275107
0.0279188
0.026135
0.0270213
0.0233674
0.0249625
0.0188068
0.0213468
0.0123017
0.0158544
0.00352333
0.00820524
-0.0073974
-0.00161418
-0.0346781
-0.0204359
-0.0136802
-0.0728226
-0.0647634
-0.00694389
-0.0161563
-0.00844104
-0.0751415
-0.0613085
-0.0760328
-0.0593261
-0.0750806
-0.058935
-0.071758
-0.0590859
-0.0654673
-0.0593708
-0.0557012
-0.0593925
-0.0423507
-0.0584123
-0.02565
-0.0557872
-0.00628541
-0.0508236
0.0149813
0.0359248
0.0558867
0.0722531
-0.00762989
-0.0437511
-0.0276876
-0.0132638
-0.0696355
-0.0325265
-0.024268
-0.0491004
-0.0408627
-0.0647101
-0.0571085
-0.0779384
-0.0717352
-0.0872498
-0.0831793
-0.0914458
-0.0900585
-0.0898534
-0.0914045
-0.0825223
-0.0868855
-0.0702556
-0.0769423
-0.0544482
-0.0626858
-0.036633
-0.0455897
-0.0185483
-0.0275756
-0.00197616
-0.00998882
0.0926863
0.0900896
0.0950214
0.0945901
0.0940081
0.0948188
0.0911176
0.0928344
0.0857445
0.0887562
0.0774908
0.0820143
0.066246
0.0722377
0.0522022
0.0595638
0.0354786
0.0441859
0.0156684
0.026021
-0.00807126
0.00433168
-0.0354505
-0.0214159
-0.063196
-0.0496318
-0.0845403
-0.0751982
-0.0920108
-0.0903644
-0.0837129
-0.0896296
-0.0656742
-0.0753789
-0.0459214
-0.0556215
-0.0290582
-0.0369928
-0.0162171
-0.0221364
-0.00698463
-0.0111891
-0.000629734
-0.00348566
0.00347722
0.00167643
0.00579353
0.00483992
0.00663575
0.00638655
0.00619212
0.00657128
0.00451322
0.00550814
0.00171029
0.00323136
-0.00162971
4.49969e-05
-0.00442377
-0.00316902
-0.00573139
-0.00530022
-0.00532609
-0.0057283
-0.00367081
-0.00460971
-0.00156454
-0.00261979
0.000199259
-0.00060773
0.00110596
0.000796832
0.000740294
0.00113377
-0.000940421
0.000107806
-0.00372989
0.00556983
0.00112878
-0.0148613
-0.00905433
-0.0271969
-0.0209633
-0.0387186
-0.0332582
-0.0463659
-0.0432045
-0.0483139
-0.0480872
-0.0448373
-0.0471909
-0.0372657
-0.0414728
-0.0272225
-0.0324487
-0.0163525
-0.021798
-0.0059165
-0.0110219
0.00342133
-0.00108797
0.0114983
0.00761756
0.0183879
0.0150874
0.0241517
0.021413
0.0287335
0.0266005
0.0319883
0.0305393
0.0337899
0.0330772
0.0341789
0.0341505
0.0335262
0.0339462
0.0325925
0.0330372
0.0322777
0.0323114
0.0330301
0.0325285
0.0343794
0.033685
0.0354407
0.0349896
0.0357073
0.0356845
0.0352271
0.0355398
0.0342281
0.0347985
0.0325518
0.0335142
0.0297666
0.0313243
0.0256369
0.027885
0.0199039
0.0230055
0.0122993
0.016313
0.00319921
0.00794211
-0.00204561
-0.0352115
-0.0187445
-0.0746132
-0.0675734
-0.0786466
-0.0668296
0.00214532
0.00937989
-0.00231242
0.00619592
0.0047402
-0.0812798
-0.0675036
-0.0819053
-0.069214
-0.0797495
-0.0710507
-0.0739794
-0.0727435
-0.0639256
-0.0732761
-0.0492992
-0.0722998
-0.0307534
-0.0688437
-0.00906977
-0.0625403
0.0140278
-0.0538381
0.036905
0.0573718
0.0730033
-0.0421506
-0.0237326
0.0813955
0.0860176
-0.0720484
-0.0173445
-0.00971811
-0.0332356
-0.0252336
-0.0491167
-0.0412457
-0.063785
-0.0566928
-0.0758179
-0.0702271
-0.0838676
-0.0804295
-0.086878
-0.0860628
-0.0843486
-0.0863261
-0.0764622
-0.0810488
-0.0640742
-0.0707662
-0.0484937
-0.0565944
-0.0313031
-0.0399965
-0.013975
-0.0225797
-0.00559294
0.0993063
0.0965384
0.103212
0.101738
0.103403
0.103735
0.100562
0.102308
0.0951657
0.0981923
0.0871184
0.0914943
0.0763937
0.0820849
0.0631837
0.0700915
0.0475381
0.0556824
0.0290207
0.0386929
0.00692991
0.0184527
-0.0183063
-0.00541096
-0.0434197
-0.0312226
-0.0620027
-0.0540068
-0.0677926
-0.0667448
-0.0602871
-0.0654557
-0.0453181
-0.0532868
-0.0293643
-0.0371716
-0.0158069
-0.0221916
-0.00540559
-0.0102149
0.00216911
-0.00129395
0.00746352
0.00507299
0.010954
0.00941265
0.0129961
0.0121409
0.0138458
0.0135594
0.0136698
0.0138819
0.0125234
0.0132191
0.0104663
0.011596
0.00790111
0.00920051
0.0056755
0.00668408
0.00459682
0.0049594
0.00488376
0.00458349
0.00613462
0.00542868
0.00765283
0.00690579
0.00878636
0.00829841
0.00907218
0.00906237
0.00822763
0.00880331
0.00738972
0.00487201
0.0127055
0.00891176
-0.004403
0.0004426
-0.0149536
-0.00960517
-0.0248819
-0.02017
-0.0314726
-0.0287575
-0.0330292
-0.0329129
-0.0298433
-0.0319634
-0.0232109
-0.0268746
-0.014548
-0.019048
-0.00517946
-0.00987877
0.00391117
-0.000554577
0.0122098
0.00817743
0.0195711
0.0160098
0.0260137
0.0229069
0.0315367
0.0288955
0.036043
0.0339284
0.0393713
0.0378669
0.0413961
0.0405525
0.0421603
0.0419258
0.0420012
0.0421646
0.0415566
0.04177
0.0414886
0.0414473
0.0419932
0.0416847
0.0426182
0.0423307
0.0427974
0.0427838
0.0423566
0.0426509
0.0414386
0.0419455
0.0401386
0.0408423
0.038284
0.0393038
0.0355713
0.0370409
0.03187
0.033854
0.0267782
0.0295292
0.0203694
0.0238028
0.0127556
0.0167534
0.00400128
0.00846519
-0.00454379
-0.000462098
-0.0285449
-0.0114328
-0.00819928
-0.0789183
-0.0728408
0.0159352
-0.00412977
0.00287054
-0.0849473
-0.0750081
0.0859478
0.0814658
0.0804676
-0.0895151
-0.0784364
-0.0917295
-0.0823682
-0.0904908
-0.086022
-0.084683
-0.0889329
-0.073509
-0.0898717
-0.0567901
-0.0882371
-0.0355451
-0.0835553
-0.011032
-0.0748842
0.0143806
-0.0632135
0.0385149
-0.0483817
0.0586515
0.0713478
0.0788385
0.0769887
0.0029517
-0.0324347
-0.0139604
0.00132652
-0.076939
-0.019061
-0.0114928
-0.0346352
-0.0268098
-0.0499962
-0.0424144
-0.0638919
-0.0572183
-0.0749382
-0.0698629
-0.0818885
-0.0790062
-0.083826
-0.0835346
-0.0803995
-0.082794
-0.0719139
-0.0767567
-0.0592819
-0.0660494
-0.0438274
-0.0518164
-0.0270603
-0.0355202
-0.0102894
-0.0186118
0.00541316
-0.00226191
0.0187276
0.0123574
0.0955201
0.0909118
0.103812
0.100072
0.10865
0.106632
0.110021
0.109807
0.10795
0.109377
0.103011
0.105828
0.0954396
0.0995529
0.0854077
0.0907227
0.0731064
0.0795373
0.0585125
0.0661171
0.0411859
0.050238
0.0206004
0.0313146
-0.00255801
0.00921137
-0.0248987
-0.0141656
-0.0405785
-0.0339759
-0.0448233
-0.0442654
-0.0383834
-0.04268
-0.0264938
-0.0327659
-0.0140799
-0.020144
-0.00351674
-0.00850248
0.00468289
0.000876688
0.0107467
0.00796211
0.0150563
0.0131009
0.0179551
0.0166662
0.0197098
0.0189638
0.0205204
0.0202244
0.0205297
0.0206208
0.0197955
0.0202564
0.0183449
0.0191532
0.0164304
0.0174128
0.0146832
0.015486
0.0137811
0.0140962
0.0139492
0.0137383
0.0148601
0.0143472
0.0159101
0.0154071
0.0165339
0.0163058
0.0163416
0.0165601
0.0151345
0.0158739
0.0128681
0.0141449
0.00949035
0.0113622
0.0193153
0.0245274
0.0220367
0.0130278
0.016402
0.00522835
0.0093006
-0.00368472
0.000844542
-0.0121709
-0.00812941
-0.0178669
-0.0155165
-0.0191622
-0.019101
-0.0162768
-0.0181762
-0.0104564
-0.013655
-0.00296915
-0.00685029
0.00511251
0.00105426
0.0130317
0.00912619
0.0204002
0.0167987
0.0270925
0.0238343
0.0330864
0.0301795
0.038331
0.03581
0.0426968
0.0406361
0.0460129
0.0444983
0.0481607
0.0472378
0.0491892
0.0488053
0.0494013
0.0493709
0.0493065
0.0493604
0.049342
0.0492949
0.049526
0.0494321
0.0495049
0.0495646
0.0490055
0.0493181
0.0480647
0.0485813
0.0468277
0.047478
0.0453085
0.0461105
0.0433592
0.0444006
0.0407505
0.0421686
0.0373751
0.0392032
0.0330335
0.0353417
0.0276688
0.030487
0.021338
0.0246194
0.0143271
0.0180077
0.0075948
0.0108699
0.00512889
-0.0157099
0.000306745
-0.0860435
-0.0808611
0.0761823
-0.0943614
-0.0861945
0.0209348
0.0265909
0.00732577
0.0157276
0.0136064
-0.100974
-0.0924346
-0.104603
-0.0987163
-0.10374
-0.104229
-0.0970126
-0.107928
-0.0836549
-0.108652
-0.0638989
-0.10617
-0.0391929
-0.099153
-0.0115958
-0.0876322
0.0158503
-0.0725347
0.0403539
-0.0548562
0.0579529
-0.0355477
0.0688774
0.072314
0.0720203
-0.0163127
0.000752356
-0.0846301
-0.00636375
0.000639527
-0.0213586
-0.0138105
-0.0367692
-0.0290438
-0.0517643
-0.0443972
-0.0650527
-0.0587132
-0.0752796
-0.070639
-0.0812618
-0.0788756
-0.0822051
-0.0824056
-0.0778942
-0.0807083
-0.0687536
-0.0738888
-0.0557661
-0.0626706
-0.0402734
-0.0482441
-0.0237175
-0.0320427
-0.00736136
-0.0154473
0.00787242
0.000431094
0.0147457
0.0886714
0.071717
0.0979152
0.0932795
0.106551
0.102449
0.112117
0.109783
0.114367
0.113661
0.113287
0.11424
0.109143
0.111581
0.102308
0.106047
0.0930958
0.0979867
0.0817126
0.0876751
0.0680952
0.0752054
0.051855
0.0603393
0.0327232
0.0426406
0.0117446
0.0223151
-0.00763073
0.0015465
-0.0204108
-0.0151551
-0.0234781
-0.0231931
-0.0184009
-0.0217207
-0.00947988
-0.014161
-0.000241226
-0.00475813
0.00769546
0.0039345
0.0139606
0.011038
0.018679
0.0165015
0.0220939
0.0205365
0.0244383
0.0233889
0.0259034
0.0252722
0.0266403
0.0263559
0.0267663
0.0267753
0.0263395
0.0266223
0.0253696
0.02592
0.0239955
0.0247119
0.0226561
0.023283
0.0218999
0.022178
0.021956
0.0218297
0.0225784
0.0222265
0.0232514
0.0229435
0.0234796
0.0234484
0.0229355
0.02332
0.0214683
0.0223242
0.0190532
0.0203781
0.01753
0.0256808
0.0298699
0.0277971
0.0204727
0.0231924
0.013986
0.0173837
0.00654882
0.0103349
-0.000628272
0.0028079
-0.00555656
-0.00350733
-0.00670337
-0.00664674
-0.00414062
-0.00581945
0.000979525
-0.00182499
0.00748601
0.0041208
0.0144875
0.0109691
0.021404
0.0179813
0.0279492
0.0247334
0.03402
0.031048
0.0395665
0.0368636
0.0445013
0.0421196
0.0486731
0.0466953
0.0519098
0.0504198
0.054105
0.0531415
0.0553129
0.0548237
0.055792
0.0556233
0.0559138
0.0558779
0.0559216
0.0559289
0.0557479
0.0558696
0.0551888
0.0555246
0.0542019
0.0547419
0.0529258
0.0535908
0.0514716
0.0522196
0.0498129
0.0506746
0.0478289
0.0488709
0.0453684
0.0466715
0.0423103
0.0439291
0.0385515
0.0405235
0.0340866
0.0364083
0.0289906
0.0316063
0.0234972
0.0262891
0.0184613
0.0207906