/*--------------------------------*- C++ -*----------------------------------*\
  =========                 |
  \\      /  F ield         | OpenFOAM: The Open Source CFD Toolbox
   \\    /   O peration     | Website:  https://openfoam.org
    \\  /    A nd           | Version:  10
     \\/     M anipulation  |
\*---------------------------------------------------------------------------*/
FoamFile
{
    format      ascii;
    class       surfaceScalarField;
    location    "38.5";
    object      phi;
}
// * * * * * * * * * * * * * * * * * * * * * * * * * * * * * * * * * * * * * //

dimensions      [0 3 -1 0 0 0 0];

internalField   nonuniform List<scalar> 
51391
(
-0.0354295
0.0121007
-0.0106643
0.033993
0.0148227
-0.0167836
-0.0334686
0.0235882
-0.0154858
0.00672037
0.0355254
0.000163436
0.0390129
-0.0252972
0.025172
-0.0388877
0.0290248
-0.023967
0.033955
-0.0558781
0.0329218
0.04248
-0.0195237
0.00526303
-0.0496554
-0.0114858
0.0567989
-0.00235141
-0.0491845
0.0279226
0.0372805
-0.00840414
0.0180312
-0.0229705
0.0599498
-0.0550105
0.0551685
0.016446
-0.0535833
0.0712179
-0.0501293
-0.0440591
0.0096576
0.00851069
-0.000119822
-0.0180485
0.0146656
0.00610024
-0.0111082
0.0563125
0.0384733
-0.0514883
-0.0432975
0.0788741
0.0233726
-0.0459342
0.105865
-0.062575
-0.0608762
0.0175861
0.0424685
0.0728999
-0.00950321
0.0393473
-0.00848464
-0.0372682
0.00640551
0.00743455
0.0278488
0.00406398
0.011247
-0.0366758
0.0254288
0.0245652
0.0114735
-0.0247918
-0.00380355
-0.042769
-9.42363e-05
0.0466668
-0.0459108
0.0513401
-0.00923286
0.0059435
-0.0072598
-0.0445945
0.00628364
-0.0431091
-0.043996
0.0105765
0.0363609
-0.00294141
0.000128884
-0.0442191
0.0259907
0.0312526
0.0203797
0.0254922
-0.0198812
0.00360961
-0.00166339
-0.00194622
0.00210066
0.00150895
-0.00954172
0.0112169
-0.00333861
-0.0195539
0.0243445
0.000662139
-0.00545274
-0.0404464
0.0178606
0.0306984
-0.00811258
-0.0400982
0.00650705
-0.00685521
0.0629073
-0.00299394
-0.0598123
-0.000101039
0.0443161
-0.00558746
0.0241786
0.013965
0.0525541
0.0240049
-0.090524
0.0149286
-0.0567333
0.0557697
0.0581118
0.0160622
-0.0592454
-0.0378384
0.00318537
0.00658438
0.0280686
-0.0380743
0.000710828
-0.000474915
0.000209551
-0.0373459
-0.000937933
0.0669769
0.0247298
-0.0346006
-0.0571061
0.0158179
0.0720865
-0.0209274
-0.0021196
-0.0132568
0.0156175
-0.00024109
-0.0401913
0.00664274
0.031429
0.0238134
-0.03634
-0.0276647
0.0142736
-0.0474947
-0.0526072
0.0858284
-0.0157003
0.08738
-0.0574061
-0.053939
0.0331902
0.0207489
-0.0352033
-0.0187357
0.0295384
-0.0187645
0.00313891
-0.0139128
0.00446442
0.000616557
0.0244574
0.000280609
-0.0229601
0.00391497
-0.0652166
-0.0191644
0.0293203
0.0550606
-0.0175677
-0.0479718
0.000322946
0.0215273
-0.00218147
-0.0369135
0.0271396
-0.0247768
-0.0524904
0.0272718
-0.0242274
0.0494459
0.019063
-0.0422331
-0.0174033
0.0084034
-0.0170985
0.0260984
-0.0322164
-0.00799729
0.0228104
-0.0332011
-0.00518626
0.00617099
0.00760327
-0.00340393
-0.00419933
0.00320711
0.00439616
0.000291561
0.0018091
0.0105644
0.00217834
-0.0112358
-0.00150689
0.00527955
0.00528483
0.0191195
0.0167543
-0.00620811
-0.0296657
0.0217955
0.0240132
-0.0266891
0.0465609
0.00497039
-0.0297358
-0.0471272
0.0468059
-0.00516725
0.0054886
0.00518689
0.0385629
-0.0064364
-0.00462691
0.00279674
0.0299582
0.00601773
-0.0387727
0.029009
-0.03704
0.0108278
0.0153546
0.0436126
0.0364928
-0.0366214
0.000839384
0.0246188
0.0150594
-0.0104028
0.0120801
-0.00596837
0.0042911
0.018973
-0.0262704
-0.00310544
0.0197214
0.0113316
0.00892221
0.0261217
-0.000249953
-0.0347939
0.0147009
0.0261108
-0.0318895
0.0258995
0.0149231
0.00136736
-0.00321169
0.0386411
-0.0367968
0.0412464
0.000487155
-0.0403662
9.22546e-05
-0.00215402
-0.0171004
0.0191622
-0.0221851
0.00752033
0.014757
-0.0126432
-0.00400492
0.0144941
-0.00976043
0.0319209
0.00909209
0.034436
-0.00783555
0.0395905
-0.0246934
0.00980592
-0.024703
0.0378763
0.0308617
-0.0291475
0.0388586
-0.0262794
0.039186
-0.0163312
-0.0276784
0.00482364
0.000434756
0.0381142
0.000637132
0.0346829
0.00158114
-0.0358293
0.0176294
-0.00250041
-0.00332942
0.0344487
0.00264115
-0.0337604
0.0266359
0.00184052
-0.0318058
0.0403666
-0.00912961
0.0028999
0.0427746
-0.0125759
-0.0330986
0.00218286
0.0397305
-0.0390135
-0.0542567
-0.0558131
0.0386968
-0.0492189
-0.0437345
-0.0400578
0.00761411
-0.00765456
-0.00814853
-0.0409297
0.00902047
0.0057104
0.0391149
-0.00883274
-0.0359925
0.0389262
-0.0332412
2.54253e-05
0.0108563
-0.0430356
0.0361191
-0.0039399
-0.0250766
-0.00118589
0.0371188
0.041115
0.00670206
-0.00841084
-0.0394062
0.00736019
-0.00710277
0.0408576
0.0174228
0.0536205
-0.0158748
0.02695
-0.0519858
-0.0429833
0.0680191
0.0396802
-0.070544
0.0578137
0.017921
-0.0182855
0.0400447
0.0627523
0.0115614
-0.0629953
-0.0113184
0.00659887
0.070915
-0.0147617
0.0925729
-1.25346e-05
0.0232003
-0.115761
-0.0167596
0.0525992
-0.020267
0.0174749
-0.019393
0.0332671
-0.0206015
-0.0329326
0.030104
0.00978653
-0.0115475
-0.028343
0.0120511
0.0250849
-0.00703198
-0.0202139
0.0238206
0.00844437
0.0193974
-0.0298247
0.0151353
-0.00903221
-0.0340767
0.00734835
0.0357606
-0.0276205
0.0431832
-0.0245949
0.00516492
0.00260921
-0.0353947
0.00475943
-0.0336712
-0.0296577
0.0295265
-0.0404236
0.0309996
0.0298448
-0.00230529
-0.0235394
0.00162874
0.0242159
0.00199335
-0.0261993
-0.00820997
0.0324159
-0.0222061
-0.00954775
0.0337472
-0.039819
-0.00858639
-0.0373861
-0.0112948
0.00886192
-0.0371821
-0.0117391
0.0115351
-0.0368332
-0.0143468
0.013998
-0.0368451
-0.0170221
0.017034
-0.036793
-0.0182399
0.0181878
-0.0365747
-0.0197694
0.0195511
-0.0367195
-0.0201057
0.0202504
-0.03664
-0.0208476
0.020768
-0.0368756
-0.0205459
0.0207815
-0.0368423
-0.0208494
0.0208161
-0.0370727
-0.0203426
0.020573
-0.0369953
-0.0206267
0.0205493
-0.0371489
-0.0202512
0.0204048
-0.036981
-0.0207289
0.020561
-0.0370442
-0.0205558
0.020619
-0.0367849
-0.0212192
0.0209599
-0.0367651
-0.0211758
0.021156
-0.0364127
-0.0219461
0.0215937
-0.0363027
-0.0219309
0.0218209
-0.0358485
-0.0226794
0.0222251
-0.0356484
-0.0225038
0.0223037
-0.0351163
-0.0229564
0.0224242
-0.0348696
-0.0222779
0.0220313
-0.0343489
-0.0219914
0.0214707
-0.0341594
-0.0203719
0.0201824
-0.0338045
-0.0188596
0.0185047
-0.0338085
-0.0159706
0.0159746
-0.0337367
-0.0129851
0.0129133
-0.0338223
-0.00909648
0.00918213
-0.0345096
-0.00534595
0.00603321
-0.0345086
-0.000857544
0.000856591
-0.0355406
-0.00266472
0.00369666
-0.0370894
-0.00879284
0.0103417
0.017804
-0.0256815
-0.029212
-0.0326283
0.0329649
-0.00300135
-0.0364614
-0.00495973
-0.0380349
0.0379392
0.0104375
0.0317645
-0.0360472
-0.0052651
-0.000563358
0.0335493
-0.00122141
-0.00138727
0.0345711
-0.0358977
0.0156668
-0.036853
0.0365552
-0.000559807
0.00478283
-0.0360519
0.0356178
-0.0086624
-0.00484262
-0.0358169
0.0356656
-0.0158194
-0.0131842
-0.0361906
0.0361299
-0.0203113
-0.0193845
-0.036803
0.036737
-0.0222119
-0.0226645
-0.037395
0.0372586
-0.0223675
-0.0236143
-0.0378201
0.0375978
-0.0217085
-0.0232408
-0.0380482
0.0377507
-0.0208783
-0.0223965
-0.0381048
0.0377418
-0.0201927
-0.0215733
-0.0380064
0.0375652
-0.01981
-0.0209935
-0.0377356
0.0372106
-0.0198175
-0.0207971
-0.037317
0.0367594
-0.0199882
-0.0209559
-0.0368769
0.036384
-0.0196128
-0.0209651
-0.036563
0.0362023
-0.0178791
-0.0199484
-0.0364534
0.0361582
-0.0140516
-0.0172732
-0.0370353
0.0362892
-0.0105488
-0.0126162
-0.00834434
0.0394944
-0.0395095
0.0115502
-0.0421298
-0.000109993
0.0340298
0.00622651
0.0395102
-0.0388989
0.0164227
0.0139987
0.0385485
-0.0378708
0.0188734
0.0178374
0.0382
-0.0375927
0.0201607
0.0205796
0.0380552
-0.0375149
0.0202758
0.0212441
0.037999
-0.0374514
0.0200018
0.0210571
0.0378758
-0.0372535
0.0199387
0.0208291
0.0375989
-0.0368746
0.0202356
0.0209644
0.0371515
-0.0363129
0.0207551
0.0214329
0.0365203
-0.0355593
0.0212642
0.0220282
0.035693
-0.0346434
0.0213746
0.0224374
0.0347254
-0.0337025
0.0204478
0.0221132
0.0337848
-0.0329853
0.0177052
0.0202648
0.0331171
-0.0328225
0.0126187
0.0161063
0.0329582
-0.0323503
0.00542528
0.00931789
0.00147119
-0.00236485
0.0333935
0.00271378
-0.00260255
0.0344599
0.00251682
0.0337463
-0.021566
0.0188111
-0.0331428
-0.0152914
-0.031956
-0.0353278
0.0363188
0.01782
0.0211531
-0.0200132
-0.0342827
-0.0348625
0.0206878
-0.0074182
-0.0275305
-0.00151269
-0.0316391
0.0317351
-0.0030973
-0.0313256
-0.00527331
0.038969
-0.0419772
0.00289816
-0.00334108
0.035006
0.0361783
-0.000550332
0.00452748
-0.00546048
0.035939
0.0353185
-0.0372747
0.0379501
0.00976206
0.0147109
-0.0381577
0.0379578
-0.000359867
0.00457524
-0.0377031
0.0379559
-0.0089152
-0.00458788
-0.0381121
0.0385828
-0.0162901
-0.0133404
-0.0387423
0.0392558
-0.0208248
-0.019544
-0.0393313
0.0397683
-0.022649
-0.02274
-0.0397117
0.0400233
-0.022679
-0.0235577
-0.0398452
0.0400421
-0.0219054
-0.0230628
-0.0397766
0.0398882
-0.0209899
-0.0221311
-0.0395644
0.0396126
-0.0202409
-0.0212495
-0.0392361
0.039218
-0.0197918
-0.0206171
-0.0387699
0.0386757
-0.0197233
-0.0203491
-0.0381527
0.0380045
-0.0198401
-0.0204328
-0.037449
0.0372929
-0.0194567
-0.0204096
-0.036766
0.0366348
-0.0177479
-0.0194214
-0.0361339
0.0362088
-0.0141266
-0.0167723
-0.0360491
0.034696
-0.00919563
-0.0124566
-0.0334812
0.0322551
-0.004039
-0.00712954
-0.0319964
0.031833
0.00268019
-0.000962703
0.0427413
-0.0420468
0.0108557
0.00699064
0.0419181
-0.0412425
0.0157471
0.0138701
0.0413865
-0.0412611
0.018748
0.0179814
0.040919
-0.0408679
0.0201096
0.0202375
0.0405481
-0.0405319
0.0202596
0.0209243
0.0402323
-0.0402154
0.0199849
0.0207575
0.0399007
-0.0398511
0.0198891
0.0205144
0.0394834
-0.0393853
0.0201375
0.0205967
0.0389383
-0.0387767
0.0205936
0.0209859
0.0382219
-0.0379697
0.021012
0.0214734
0.0372812
-0.0369127
0.0210061
0.0217489
0.0360986
-0.0356125
0.0199617
0.0212991
0.034745
-0.0341827
0.0171429
0.0193973
0.0334355
-0.0327511
0.0119343
0.0153592
0.0323402
-0.0319496
0.0050347
0.00890691
0.00125669
-0.0147346
-0.0312815
0.0307247
-0.0068107
0.0375285
-0.0190498
-0.0329193
0.00533262
-0.00556487
0.0320653
0.0319316
-0.0317316
0.00248026
0.0315769
0.00568727
0.021878
-0.0215064
-0.0346543
0.023003
-0.0359875
-0.0287196
-0.0100242
0.0134544
-0.0133732
-0.0288008
-0.0288107
0.0061619
-0.00659951
0.0348975
0.0343433
0.00778264
-0.00944621
0.0376026
0.0365016
-0.0369129
0.0373498
0.0173831
0.0364574
-0.0360444
0.02259
0.0202324
-0.0382333
0.0386095
0.00938587
0.0138274
-0.038536
0.0382815
-0.000105297
0.00464867
-0.0387111
0.0391454
-0.00934957
-0.00501746
-0.0396008
0.0400205
-0.0167098
-0.0137957
-0.0404014
0.0406913
-0.0211146
-0.0199249
-0.0408953
0.040997
-0.0227507
-0.022944
-0.0410124
0.0409532
-0.0226199
-0.0235731
-0.0408322
0.0406703
-0.0217435
-0.0229417
-0.0404693
0.04025
-0.0207707
-0.02193
-0.0400036
0.0397477
-0.019985
-0.0210031
-0.0394628
0.0391627
-0.0194917
-0.0203323
-0.0388207
0.0384553
-0.019358
-0.020007
-0.0380412
0.0376105
-0.0194094
-0.0200187
-0.0371401
0.036671
-0.0189876
-0.0199392
-0.0361764
0.0357015
-0.0172731
-0.0189268
-0.0352246
0.0349562
-0.0138582
-0.0162953
-0.0344037
0.0340789
-0.00887083
-0.011904
-0.0330461
0.032232
-0.00322491
-0.0060967
-0.000462344
0.0409156
-0.0423039
0.0042865
-0.0409792
-0.00510824
0.0392767
-0.000613964
0.0433541
-0.043269
0.0107706
0.00804083
0.0431497
-0.0428911
0.0154885
0.0137507
0.0426662
-0.0424016
0.0184834
0.0177564
0.0421261
-0.0418331
0.0198166
0.019962
0.0415535
-0.0412702
0.0199763
0.0206446
0.0410076
-0.0407379
0.0197152
0.020495
0.04048
-0.0402012
0.0196103
0.0202565
0.0399192
-0.039602
0.0198203
0.0203147
0.039266
-0.0388785
0.0202061
0.0206499
0.0384514
-0.0379528
0.0205134
0.0210463
0.0373917
-0.0367452
0.0203596
0.0211878
0.0360244
-0.0352272
0.0191645
0.0205783
0.0343741
-0.0334951
0.0162639
0.0185443
0.0326176
-0.0319488
0.0112655
0.0144817
0.0313491
-0.0307894
0.00447501
0.00830714
0.030248
-0.0300721
-0.00327324
0.000715339
0.028053
-0.0286201
-0.00945715
-0.00729237
0.0227172
-0.0228832
-0.0358215
-0.0368647
0.0235375
-0.0101158
0.0381981
-0.0190158
-0.0313155
0.00885413
-0.00970508
0.0329162
0.00847318
0.0319578
-0.0208715
-0.0335543
-0.022724
-0.0348135
-0.0288964
-0.0130969
-0.0161407
0.0175331
-0.0301932
0.0417145
-0.0429259
-0.00389686
0.0237328
-0.0235021
-0.0360522
0.023661
-0.036793
-0.0101093
0.0392702
0.0392527
-0.0076475
-0.0154167
-0.0296203
-0.0302934
0.00912981
-0.0103548
0.0361225
0.033768
0.0110211
-0.0115197
0.0381012
0.0371679
0.0130266
-0.013109
0.0393526
0.0397051
-0.0369294
0.0372422
0.0222771
0.036034
-0.0367912
0.0244183
0.0226421
-0.0373495
0.0382983
0.0164343
0.020125
-0.0387901
0.039375
0.00880103
0.0133356
-0.0396316
0.0400334
-0.000507104
0.00439207
-0.0404546
0.0408589
-0.00975393
-0.00543864
-0.0412511
0.041578
-0.0170367
-0.0141879
-0.0418323
0.0419805
-0.0212628
-0.0201792
-0.0420269
0.0419757
-0.0226995
-0.0229904
-0.0418384
0.0416414
-0.0224229
-0.0234359
-0.0413896
0.0411126
-0.0214666
-0.0226898
-0.0408033
0.0404874
-0.0204548
-0.0216206
-0.0401482
0.0398069
-0.0196437
-0.0206638
-0.0394377
0.0390572
-0.0191112
-0.019963
-0.0386326
0.0381852
-0.0189106
-0.0195824
-0.0376846
0.0371673
-0.0188921
-0.0195181
-0.0366088
0.0360566
-0.0184354
-0.0193807
-0.035486
0.0349462
-0.0167332
-0.0183562
-0.0344099
0.0339318
-0.0133801
-0.0157591
-0.0334991
0.0331482
-0.0085199
-0.0114713
-0.032885
0.0324633
-0.00280324
-0.00583352
-0.0318073
0.0312803
0.00300719
0.000193705
-0.0311705
0.031508
0.00813568
0.00579711
0.0440619
-0.0443988
0.00462336
0.000522088
0.0443821
-0.044235
0.0106235
0.00802417
0.0440294
-0.0437642
0.0152233
0.0135451
0.043446
-0.0430979
0.0181353
0.0174382
0.0427141
-0.0423303
0.0194328
0.0195783
0.041936
-0.0415633
0.0196036
0.0202503
0.0411927
-0.0408441
0.0193666
0.0201244
0.0404908
-0.0401456
0.0192651
0.0199033
0.039779
-0.0394038
0.0194451
0.0199481
0.0389874
-0.0385447
0.0197634
0.0202335
0.0380363
-0.0374815
0.0199586
0.0205379
0.036835
-0.0361296
0.0196542
0.0205413
0.0353205
-0.0344653
0.0183093
0.0197692
0.0335305
-0.0326052
0.0153385
0.0176095
0.031677
-0.0308522
0.0104407
0.0135535
0.0301244
-0.0295719
0.00392253
0.00757934
0.0291874
-0.0291354
-0.00332529
0.000330886
0.0293681
-0.0287175
-0.0101078
-0.00705964
0.0284856
-0.0291545
-0.0147479
-0.0133287
0.0239306
-0.0243842
-0.0363393
-0.0369449
0.0240842
-0.0169665
0.0177262
-0.0303801
-0.0303655
-0.0157555
-0.0201707
-0.0320163
0.0189067
-0.0313736
-0.0138501
0.0399939
-0.0223446
-0.0339337
0.0111438
-0.0111171
0.0314813
0.0308283
-0.031222
0.00852936
0.0309681
0.011004
-0.0233938
-0.0349218
-0.0241107
-0.0363258
-0.0180482
0.0192827
-0.0316145
0.0239261
-0.0237421
-0.0365233
0.0240718
-0.0370906
-0.016694
-0.0317197
-0.0315574
0.0119607
-0.0121216
0.0330772
0.0328014
0.013291
-0.0134605
0.0362919
0.0349374
0.0135939
-0.0145027
0.03901
0.0373013
0.0138685
-0.0152428
0.0407269
0.0390708
-0.0372966
0.0382862
0.0234287
0.0359841
-0.0367676
0.0248553
0.0227717
-0.0379793
0.0388273
0.0214292
0.022949
-0.0399201
0.04003
0.0163245
0.0190322
-0.0404941
0.0409413
0.00835388
0.0128714
-0.0413969
0.0418251
-0.000935298
0.00393646
-0.0422434
0.0426117
-0.0101223
-0.00585693
-0.0429288
0.0431487
-0.0172567
-0.0145049
-0.0432656
0.0432645
-0.0212617
-0.0202961
-0.0431504
0.0429455
-0.0224946
-0.0228763
-0.0426574
0.0423252
-0.0220908
-0.0231477
-0.0419465
0.0415585
-0.0210787
-0.0223111
-0.0411456
0.0407381
-0.0200474
-0.0212076
-0.0403113
0.0398905
-0.0192229
-0.0202371
-0.0394434
0.0389903
-0.0186581
-0.019516
-0.0384922
0.0379732
-0.0183916
-0.0190844
-0.0373972
0.0368051
-0.0183
-0.0189421
-0.0361694
0.0355449
-0.0178108
-0.018745
-0.0349064
0.0343089
-0.0161356
-0.0177178
-0.0337274
0.0332121
-0.0128648
-0.0151776
-0.032748
0.0323793
-0.00815116
-0.0110073
-0.0320618
0.0318077
-0.00254911
-0.00551603
-0.0316882
0.0310015
0.0036939
0.000313224
0.00557661
0.0443277
-0.0450293
-0.00319525
-0.0438714
-0.0110877
0.041109
-0.00719118
0.0459986
-0.0458624
0.00448721
0.00149133
0.0457253
-0.0455121
0.0104103
0.00788701
0.0452149
-0.0448581
0.0148666
0.0132479
0.0444353
-0.0439829
0.017683
0.0170153
0.0434911
-0.043006
0.0189476
0.0190865
0.0425108
-0.0420457
0.0191385
0.0197552
0.0415848
-0.0411547
0.0189365
0.0196635
0.040722
-0.0403041
0.0188473
0.0194705
0.0398652
-0.0394217
0.0190016
0.0195091
0.0389353
-0.0384247
0.0192528
0.0197471
0.0378461
-0.0372238
0.0193362
0.0199593
0.0365088
-0.0357407
0.0188861
0.0198263
0.0348725
-0.0339696
0.0174064
0.0189011
0.0329975
-0.0320503
0.0143913
0.0166375
0.031111
-0.0302829
0.00961263
0.0126141
0.0295546
-0.0290047
0.00337263
0.00685102
0.028624
-0.0284563
-0.00349302
-4.97909e-05
0.0284894
-0.028762
-0.00983514
-0.00702651
0.0292781
-0.0295813
-0.0144447
-0.0128126
0.0294526
-0.0298842
-0.0162624
-0.0158842
0.0236871
-0.0238849
-0.0368927
-0.0367161
0.0236357
-0.0187795
0.0194445
-0.0323847
-0.0316869
-0.0169768
-0.015691
0.0404421
-0.0211642
-0.0331966
0.0197531
-0.0318441
0.0132278
-0.0141111
0.0323646
0.0122399
0.031956
-0.0231186
-0.0342089
0.0196667
-0.0318367
-0.0238181
-0.0352144
-0.0242676
-0.0358003
-0.024301
-0.0361072
0.0438603
-0.0444222
-0.0105258
-0.0186689
0.0194479
-0.0331637
0.0231171
-0.0240581
-0.0359518
0.0232907
-0.0368897
-0.0175227
-0.0328331
-0.0157348
0.0411528
0.0405602
-0.0124347
-0.0329685
0.0144349
-0.0154619
0.0341041
0.0331252
0.0155599
-0.01544
0.036172
0.0350355
0.0166248
-0.0161882
0.0385734
0.0384861
0.0169753
-0.0169543
0.0407058
0.0398579
0.0185242
-0.0189239
0.0415525
0.0420121
-0.0374227
0.0386864
0.0235915
0.036776
-0.0362208
0.0227355
0.022989
-0.0378821
0.0385663
0.0227446
0.023576
-0.0393969
0.0403101
0.020516
0.0221184
-0.0406546
0.0415477
0.0154313
0.0186877
-0.0421234
0.0426525
0.00782471
0.0122957
-0.0431616
0.0436162
-0.00138992
0.00342735
-0.0440297
0.0443567
-0.0104493
-0.00627039
-0.0445932
0.0447024
-0.0173659
-0.0147414
-0.0446785
0.0445255
-0.0211088
-0.0202722
-0.0442488
0.0438897
-0.0221354
-0.0225996
-0.0434519
0.0429875
-0.0216264
-0.02271
-0.0424862
0.0419926
-0.020585
-0.0218098
-0.041482
0.040989
-0.0195544
-0.0206971
-0.0404814
0.0399877
-0.0187291
-0.0197295
-0.0394699
0.0389517
-0.0181399
-0.0189982
-0.0383889
0.037808
-0.0178108
-0.0185216
-0.0371678
0.0365126
-0.0176449
-0.0183018
-0.0358124
0.0351281
-0.0171265
-0.0180448
-0.0344341
0.0337913
-0.0154929
-0.0170238
-0.0331737
0.0326336
-0.0123248
-0.01456
-0.0321521
0.031772
-0.00777106
-0.0105258
-0.0315472
0.0313275
-0.00232948
-0.0052912
-0.0311052
0.0313806
0.00341851
0.000535593
-0.0309019
0.0309886
0.00844266
0.00605526
-0.0315941
0.0313199
0.012514
0.0103985
0.0458023
-0.0471499
-0.00184765
-0.0058111
0.0470973
-0.0471342
0.00452401
0.00143879
0.0469517
-0.0466746
0.0101332
0.00770458
0.046298
-0.0458569
0.0144255
0.0128712
0.0453399
-0.0447944
0.0171375
0.0164983
0.0442059
-0.0436297
0.0183714
0.018498
0.0430443
-0.0424969
0.018591
0.0191698
0.0419559
-0.0414534
0.0184339
0.0191226
0.04095
-0.0404675
0.0183647
0.0189671
0.039964
-0.0394594
0.018497
0.0190055
0.0389103
-0.0383396
0.0186821
0.0191981
0.0376993
-0.037019
0.0186559
0.019319
0.0362476
-0.03543
0.0180685
0.0190548
0.0345186
-0.0335838
0.0164716
0.0179897
0.0325901
-0.0316326
0.0134337
0.0156438
0.0306907
-0.0298647
0.00878667
0.0116722
0.0291416
-0.0286007
0.00283173
0.00612794
0.0282349
-0.0280859
-0.00364203
-0.000415628
0.0281604
-0.0284681
-0.00952742
-0.006952
0.0290183
-0.0297603
-0.0137028
-0.0122624
0.0301579
-0.030593
-0.0158273
-0.0154865
0.0307696
-0.0323621
-0.0159301
-0.0168002
-0.0163067
0.0166356
-0.0331621
-0.0162338
-0.0324349
0.0235585
-0.0241512
-0.036297
-0.035827
0.0231648
-0.022452
-0.0338632
0.0214535
-0.0336309
-0.0187068
0.0403431
-0.0232294
-0.0347976
0.020777
-0.0331658
0.0139543
-0.0145553
0.0319209
0.0314
-0.0310443
0.0121583
0.0318836
0.0134707
-0.0239745
-0.0355074
0.01882
-0.0353481
-0.0241657
-0.0359357
0.0148239
-0.0464659
-0.00152005
-0.0242588
-0.0359065
-0.0240484
-0.0360546
0.023059
-0.0240807
-0.0352754
0.0233295
-0.0360975
-0.0339669
0.0151
-0.0161216
0.0333863
0.0325007
0.0163571
-0.0169845
0.0347316
0.0333607
0.0185214
-0.0183384
0.035989
0.0365724
0.0184349
-0.018447
0.0385856
0.0385826
0.0182942
-0.0185653
0.0409769
0.0397051
0.0185795
-0.0196197
0.0425927
0.0420263
-0.0368463
0.037345
0.0222368
0.0357001
-0.0352841
0.0229135
0.0220186
-0.0379312
0.0388502
0.0226726
0.0224027
-0.0397423
0.0406147
0.0218722
0.0226839
-0.0409542
0.0417839
0.0196863
0.0217789
-0.0423344
0.0430188
0.0147469
0.0181372
-0.0436962
0.0443067
0.00721419
0.0116184
-0.0448759
0.0453583
-0.00187241
0.00285817
-0.0457672
0.0460527
-0.0107348
-0.00667924
-0.0462068
0.046202
-0.017361
-0.0148955
-0.0460341
0.0457276
-0.0208022
-0.0201044
-0.0452895
0.0447802
-0.0216262
-0.0221616
-0.0441997
0.0436112
-0.0210378
-0.0221294
-0.0429966
0.042406
-0.0199944
-0.0211952
-0.0418067
0.0412366
-0.0189844
-0.0200978
-0.0406564
0.0400977
-0.0181704
-0.0191493
-0.0395176
0.0389429
-0.0175652
-0.018418
-0.0383252
0.037693
-0.0171786
-0.0179039
-0.0370003
0.036294
-0.0169386
-0.0176091
-0.0355413
0.0348083
-0.0163936
-0.017292
-0.0340698
0.0333921
-0.0148151
-0.0162852
-0.0327487
0.0321945
-0.0117706
-0.0139166
-0.0317081
0.0313345
-0.00739743
-0.0100394
-0.0310595
0.0309118
-0.00218172
-0.00501624
-0.030877
0.0310274
0.00326807
0.000570405
-0.0310046
0.0311286
0.00831867
0.00607808
0.0104828
0.0455467
-0.0473957
-0.00867687
-0.0454512
-0.0159358
0.0426802
-0.0123392
0.0481924
-0.0483389
-0.00170113
-0.00501439
0.0483638
-0.0482635
0.00442377
0.00146366
0.048034
-0.0476993
0.00979852
0.00747506
0.0472531
-0.046738
0.0139104
0.012425
0.0461398
-0.0455149
0.0165126
0.0159001
0.0448448
-0.0441915
0.0177181
0.0178279
0.04353
-0.0429126
0.0179737
0.0185082
0.0423035
-0.0417386
0.0178691
0.0185134
0.041174
-0.0406348
0.0178255
0.0184026
0.0400743
-0.0395156
0.0179383
0.018445
0.0389112
-0.0382877
0.0180585
0.0185937
0.0375944
-0.0368656
0.0179271
0.0186258
0.0360485
-0.0351932
0.0172132
0.0182378
0.0342513
-0.0332964
0.0155167
0.0170478
0.0322918
-0.0313324
0.0124743
0.0146392
0.030395
-0.0295776
0.00796936
0.0107348
0.0288669
-0.0283417
0.00230656
0.00541718
0.0279971
-0.0278779
-0.00376125
-0.000760245
0.0279953
-0.0283515
-0.00917129
-0.00683455
0.0289564
-0.0297419
-0.0129173
-0.0116575
0.0307165
-0.0317648
-0.0147791
-0.0145119
0.0328527
-0.032397
-0.0163858
-0.0157123
-0.019606
0.0234292
-0.024436
-0.0350908
-0.0349697
0.0231149
-0.0206271
0.0413504
-0.0223772
-0.0347154
0.0216261
-0.03448
0.0155035
-0.0163791
0.0327965
0.0144353
0.0329518
-0.0232352
-0.0355369
0.0208601
-0.035206
-0.0236208
-0.0360522
0.0193793
-0.0399036
-0.0239738
-0.0362207
0.0187325
-0.0400263
-0.0241519
-0.035803
-0.024444
-0.0356913
-0.0244019
-0.0353095
0.0255502
-0.0335762
0.0439249
-0.0464293
-0.0134315
0.0237594
-0.024329
-0.0345211
0.0231449
-0.0343553
-0.0196853
0.0417385
0.0425169
-0.0182773
-0.034718
0.0172146
-0.0181351
0.0343068
0.0333363
0.0195135
-0.0194582
0.0346762
0.0347391
0.0197997
-0.0200266
0.0362159
0.0369139
0.0201504
-0.0202472
0.0386824
0.0387064
0.020014
-0.0199695
0.0409324
0.0394719
0.0198388
-0.0200886
0.0428426
0.0418956
0.0210181
-0.0217068
0.0424272
0.0422798
-0.0357861
0.0368986
0.0218009
0.0347939
-0.0337784
0.0221294
0.0221227
-0.0373093
0.0384135
0.0211325
0.021608
-0.0387932
0.0399707
0.021495
0.022023
-0.0404651
0.041174
0.0211633
0.0221895
-0.041962
0.0427639
0.0188845
0.0209909
-0.0436033
0.0444039
0.0139464
0.0172977
-0.0451823
0.0458713
0.00652512
0.01084
-0.0465005
0.0470142
-0.00238616
0.00222905
-0.0474205
0.0476641
-0.0109785
-0.0070855
-0.0477332
0.0476114
-0.0172392
-0.0149646
-0.0472982
0.0468401
-0.0203442
-0.0197912
-0.0462466
0.0455959
-0.0209754
-0.021568
-0.0448834
0.0441822
-0.0203365
-0.021417
-0.0434659
0.0427893
-0.0193178
-0.0204789
-0.0421118
0.0414742
-0.0183467
-0.0194203
-0.0408308
0.0402159
-0.0175556
-0.0185059
-0.0395823
0.03896
-0.0169429
-0.0177844
-0.0382971
0.0376242
-0.0165056
-0.0172409
-0.036891
0.0361459
-0.0161935
-0.016876
-0.0353531
0.034583
-0.0156234
-0.0164992
-0.0338104
0.0331069
-0.0141116
-0.0155126
-0.0324467
0.0318865
-0.0112105
-0.0132564
-0.0314029
0.0310384
-0.00703293
-0.0095557
-0.0307806
0.0306586
-0.00205972
-0.00475851
-0.0306703
0.0308196
0.00311871
0.000558795
-0.0311943
0.0314297
0.00808328
0.00570337
-0.03191
0.0322731
0.0117951
0.0100025
-0.0329375
0.0327463
0.0146266
0.0128063
0.0478555
-0.0489473
-0.00758514
-0.0109129
0.0492166
-0.0493489
-0.00156887
-0.00474502
0.0493544
-0.0492236
0.00429297
0.00146916
0.048953
-0.0485695
0.00941501
0.0072045
0.0480647
-0.0474883
0.0133341
0.0119201
0.0468238
-0.0461343
0.015823
0.0152356
0.0453985
-0.0446836
0.0170033
0.0170922
0.0439612
-0.0432874
0.0172999
0.0177857
0.0426227
-0.0420061
0.0172525
0.0178487
0.0413898
-0.0408018
0.0172375
0.0177863
0.0401917
-0.0395858
0.0173323
0.0178349
0.0389332
-0.0382642
0.0173896
0.0179411
0.0375262
-0.0367575
0.0171585
0.0178877
0.0359046
-0.0350216
0.0163301
0.0173849
0.0340594
-0.0330939
0.0145512
0.0160857
0.0320872
-0.0311333
0.0115204
0.0136325
0.0302073
-0.0294054
0.00716741
0.00980885
0.0287139
-0.0282108
0.00180354
0.00472563
0.0278942
-0.0278099
-0.00384557
-0.00107689
0.027972
-0.0283772
-0.00876613
-0.00667239
0.0290369
-0.0298753
-0.0120789
-0.0109978
0.0308902
-0.0319426
-0.0137267
-0.013497
0.0330101
-0.0330739
-0.016322
-0.0146448
0.0354211
-0.0205295
-0.0172588
0.022743
-0.023819
-0.0332792
-0.0330554
0.0220199
-0.0196731
0.021833
-0.0313074
-0.0341137
-0.0102528
-0.0223453
-0.0356053
0.0216522
-0.0352721
-0.0210435
0.0418536
-0.0228813
-0.0362764
0.0210063
-0.036833
0.0154158
-0.0162031
0.0335335
0.0328477
-0.0321854
0.0139644
0.033665
0.0145985
-0.0233187
-0.0367073
0.0197601
-0.0409312
-0.0236943
-0.0366784
0.0237382
-0.0382143
-0.0242017
-0.0360452
0.0238528
-0.035596
-0.0247228
-0.0353704
-0.0247078
-0.0349307
-0.0244041
-0.033936
-0.0218227
0.0207998
-0.0320324
-0.0227177
-0.0323842
-0.0172486
0.0215148
-0.0355735
-0.0361549
-0.0152074
-0.0354112
0.0168406
-0.0180928
0.0340487
0.0335893
0.0186268
-0.0188669
0.0345468
0.0338703
0.0201852
-0.0206196
0.0351106
0.0360573
0.0209731
-0.0212073
0.0364501
0.0372674
0.0213336
-0.0207362
0.038085
0.0388327
0.0219015
-0.0208262
0.0398571
0.0406372
0.0207953
-0.020204
0.0422513
0.0418646
0.0210198
-0.0209168
0.0423242
0.0430957
-0.0336617
0.0349748
0.0208163
0.0323501
-0.0313153
0.019765
0.0207083
-0.0359597
0.0374468
0.0203138
0.0211379
-0.0382681
0.0389428
0.0204579
0.0207866
-0.0396444
0.0403595
0.02078
0.0213214
-0.0411517
0.0419865
0.0203286
0.0213973
-0.0429029
0.0438249
0.0179625
0.0200744
-0.0447817
0.045683
0.0130451
0.0163409
-0.0465554
0.0473224
0.00575808
0.00996759
-0.0480136
0.0485607
-0.0029333
0.00153792
-0.0489639
0.0491618
-0.0111764
-0.0074887
-0.0491404
0.0488976
-0.0169965
-0.0149431
-0.0484392
0.0478347
-0.0197397
-0.0193328
-0.0470956
0.0463162
-0.020196
-0.0208288
-0.0454867
0.0446874
-0.0195372
-0.0205876
-0.043884
0.0431343
-0.0185682
-0.0196755
-0.0423909
0.0416965
-0.0176523
-0.0186769
-0.0410002
0.0403386
-0.016894
-0.0178096
-0.039661
0.0390002
-0.0162821
-0.0171068
-0.0383019
0.0375986
-0.0158023
-0.0165427
-0.0368366
0.0360646
-0.0154215
-0.016114
-0.035244
0.0344475
-0.0148269
-0.0156786
-0.0336505
0.0329291
-0.0133903
-0.0147157
-0.032259
0.0316985
-0.01065
-0.0125862
-0.0312236
0.0308746
-0.0066839
-0.00908083
-0.030638
0.0305371
-0.00195878
-0.0045219
-0.0305689
0.0307324
0.00295513
0.000527
-0.0309549
0.0315259
0.00751226
0.00548094
-0.0317049
0.0322207
0.0112793
0.00982351
0.0128416
0.0477645
-0.0488015
-0.0123945
-0.0459286
-0.0182248
0.0431099
-0.0164413
0.0494521
-0.0498073
-0.00722997
-0.0102623
0.0500581
-0.0501772
-0.00144971
-0.00449426
0.0501609
-0.0500024
0.00413443
0.00145284
0.0496959
-0.0492735
0.00899259
0.00689804
0.0487236
-0.0481
0.0127105
0.0113702
0.0473852
-0.0466471
0.0150849
0.0145208
0.0458622
-0.0451014
0.0162425
0.0163073
0.0443331
-0.0436162
0.016583
0.0170174
0.042908
-0.0422498
0.0165943
0.0171404
0.041591
-0.0409619
0.0166084
0.0171275
0.0403096
-0.039663
0.0166858
0.0171826
0.0389692
-0.0382618
0.0166821
0.0172474
0.0374867
-0.0366862
0.016358
0.0171126
0.0358062
-0.034904
0.0154279
0.0165049
0.0339304
-0.0329624
0.0135831
0.0151121
0.0319615
-0.03102
0.0105789
0.0126316
0.0301124
-0.0293321
0.00638712
0.00890121
0.0286661
-0.0281913
0.00132873
0.00405968
0.027909
-0.0278645
-0.00389011
-0.00135921
0.0280739
-0.0285279
-0.00831215
-0.00646295
0.0292362
-0.030112
-0.0112031
-0.0102894
0.0311442
-0.0321882
-0.0126827
-0.0124648
0.0332403
-0.0345947
-0.0149677
-0.0135927
0.0363256
-0.0402416
-0.0166134
-0.0155279
0.0520969
-0.0311679
-0.011123
-0.0144242
0.0411504
-0.0368401
-0.0145632
-0.0147205
-0.0160508
0.016933
-0.0370371
0.0368596
-0.0156755
-0.0372348
-0.0151879
-0.021865
0.0428017
0.0201181
-0.0216527
-0.0304978
-0.0299501
0.0187529
-0.0223517
-0.036135
0.0217225
-0.0359882
0.0162972
-0.0171123
0.0343486
0.0153515
0.0346107
-0.0229641
-0.036631
0.0212773
-0.0383502
-0.0235125
-0.0368891
0.022032
-0.039225
-0.0239924
-0.0368877
0.0230607
-0.0374222
-0.0243533
-0.0364147
0.0215589
-0.0356401
-0.0246877
-0.0353905
0.0192344
-0.037875
-0.0249368
-0.034398
-0.0240553
-0.0325985
-0.0226814
-0.0313556
-0.0384981
0.0377737
-0.0149511
0.0195163
-0.021011
-0.0290031
0.044903
-0.0469465
-0.0161813
-0.0215138
0.0427588
0.0432963
-0.0199071
0.0186696
-0.0291034
0.0163546
-0.0379708
-0.0168819
0.0176519
-0.0385321
0.0185456
-0.0379307
-0.0360403
0.0180752
-0.0182425
0.0342159
0.0345522
0.0202704
-0.0204308
0.0347073
0.0358982
0.0209532
-0.0213706
0.035528
0.0365797
0.0217105
-0.0219347
0.0366743
0.0376073
0.0220535
-0.0220512
0.0380826
0.0389516
0.0219221
-0.0216877
0.0396227
0.0405082
0.0212626
-0.0210731
0.0420618
0.0414395
0.0206769
-0.0217085
0.0433558
0.0426995
0.0216811
-0.0213174
0.0423951
0.0427744
-0.0309669
0.0322961
0.0184358
0.0297189
-0.0283603
0.0173111
0.0175048
-0.0339107
0.0355715
0.0191554
0.0190937
-0.0372185
0.0378506
0.0196818
0.0194909
-0.0388343
0.0390009
0.0202913
0.0198029
-0.0400596
0.0408762
0.0199634
0.0202628
-0.0417805
0.042723
0.0193862
0.0204929
-0.0437533
0.0447827
0.0169332
0.019044
-0.0458447
0.0468399
0.0120499
0.0152788