/*--------------------------------*- C++ -*----------------------------------*\
  =========                 |
  \\      /  F ield         | OpenFOAM: The Open Source CFD Toolbox
   \\    /   O peration     | Website:  https://openfoam.org
    \\  /    A nd           | Version:  10
     \\/     M anipulation  |
\*---------------------------------------------------------------------------*/
FoamFile
{
    format      ascii;
    class       volVectorField;
    location    "90";
    object      U;
}
// * * * * * * * * * * * * * * * * * * * * * * * * * * * * * * * * * * * * * //

dimensions      [0 1 -1 0 0 0 0];

internalField   nonuniform List<vector> 
28942
(
(0.00442782 -0.00225575 -3.39134e-22)
(0.00599333 -0.00233873 -6.2917e-23)
(0.0179333 -0.0123846 -8.30635e-22)
(0.103306 0.0182353 -5.26908e-21)
(0.102344 0.0222779 1.72509e-21)
(0.0134445 0.000406227 0)
(0.0159728 -6.45127e-06 9.84444e-24)
(0.018539 0.00052426 -8.66716e-24)
(0.135234 -0.0184463 -2.57224e-22)
(0.133892 -0.0168125 7.31916e-22)
(0.00979292 0.00401499 -6.64717e-22)
(0.0160646 0.00562823 2.51385e-22)
(0.00713601 0.00315256 0)
(0.00470661 0.00206998 0)
(0.0422537 0.0019086 -1.38578e-23)
(0.0405248 0.00244144 -5.6445e-24)
(0.0893153 0.0158894 6.69089e-22)
(0.0870033 0.0138579 1.07675e-21)
(0.012163 -0.0151104 2.92718e-21)
(0.029327 -0.0304632 -7.70439e-22)
(0.0981165 0.0374011 9.54485e-22)
(0.0972953 0.0344368 0)
(0.0187355 0.00462564 1.15766e-21)
(0.00786199 0.00236291 5.45324e-22)
(0.0377904 0.00720912 9.34275e-22)
(0.0575207 0.00291068 -8.51719e-22)
(0.00764711 -0.0184877 8.51978e-21)
(0.00669321 -0.0165525 -3.13761e-21)
(0.0355047 -0.0253193 5.75785e-22)
(0.0192977 -0.0136801 1.988e-22)
(0.0138054 -0.00126228 0)
(0.0172584 -0.00108279 -1.25698e-23)
(0.0219531 0.00401209 2.6433e-22)
(0.031698 0.00181925 -3.99916e-23)
(0.0188247 0.0180093 1.31716e-21)
(0.0157195 0.0191195 -1.30943e-21)
(0.0321685 0.0376176 -3.05815e-21)
(0.0186686 0.0305363 -1.06981e-21)
(0.00735509 -2.03879e-05 -8.19923e-24)
(0.00864863 0.0161973 -2.61839e-21)
(0.0306494 -0.00620317 0)
(0.0513427 -0.0109694 0)
(0.111784 -0.0116901 -2.73329e-23)
(0.111275 -0.0116878 8.05857e-23)
(0.115842 -0.0115838 7.02307e-23)
(0.0261749 0.000160477 1.05387e-23)
(0.0243668 -0.00059147 -1.69087e-23)
(0.0348895 -0.000478878 -7.76965e-23)
(0.0334232 -0.00054812 2.21712e-23)
(0.0271262 -0.00256614 -1.94117e-22)
(0.0201367 -0.00305999 1.26321e-22)
(0.128658 0.00128791 -4.03344e-22)
(0.127972 0.000816812 -3.76721e-22)
(0.134552 -0.0212123 -3.76966e-24)
(0.133006 -0.0194864 1.39688e-22)
(0.0824704 0.00634976 7.08526e-22)
(0.101722 -0.000770023 2.44933e-22)
(0.00305781 0.00162044 -5.59643e-22)
(0.00894058 0.00367868 0)
(0.00825526 0.00328818 2.35244e-22)
(0.00288188 0.00148772 4.82857e-22)
(0.00036212 0.000226192 -4.01589e-22)
(0.000192831 0.000122651 -3.85589e-22)
(0.109756 -0.0426054 0)
(0.104885 -0.0256117 1.2418e-22)
(0.121755 -0.0331173 -4.22722e-23)
(0.123404 -0.0437703 0)
(0.090104 -0.0328028 -6.39845e-22)
(0.0936077 -0.03527 -4.20571e-22)
(0.00188437 -0.00112917 1.12114e-21)
(0.00248786 -0.0020168 -3.53292e-22)
(0.00487145 -0.00315493 8.76509e-22)
(0.0848725 -0.0457588 0)
(0.0911989 -0.0396232 2.17217e-21)
(0.0805408 -0.0530239 5.86964e-22)
(0.114118 0.0124096 2.32955e-22)
(0.112715 0.00690815 -2.5843e-22)
(0.125085 0.0110145 -1.08683e-22)
(0.00468304 -0.00286165 -5.3801e-23)
(0.00633803 -0.00442555 4.51853e-22)
(0.0510042 -0.0311448 1.27555e-22)
(0.0331516 -0.0205351 -2.58043e-22)
(0.00211037 -0.000595658 3.19008e-21)
(0.00515587 -0.00207188 -1.24319e-21)
(0.100977 0.0482494 1.44808e-23)
(0.0970269 0.0552169 -7.68229e-22)
(0.0807191 0.0540129 7.01364e-22)
(0.0472034 0.03451 -2.69193e-21)
(0.0444316 0.0316059 1.90647e-21)
(0.029491 0.020595 -1.14069e-22)
(0.0327116 0.0232479 -6.43336e-22)
(0.0379526 0.0283577 8.72367e-22)
(0.00440752 0.00272977 -5.80224e-23)
(0.00775948 0.00398115 -1.67627e-23)
(0.00318811 0.00202217 3.35907e-23)
(0.0019232 0.00164658 -4.4895e-22)
(0.00145005 0.00157092 5.50324e-22)
(0.0157418 0.0115434 -3.26453e-21)
(0.0174946 0.0136353 7.47903e-22)
(0.00880293 -0.00384603 0)
(0.101389 0.00515938 0)
(0.0984003 0.0156832 -3.96398e-21)
(0.0604415 0.0104756 1.94587e-21)
(0.0886813 0.0178811 0)
(0.135446 -0.00107566 0)
(0.134884 -0.00178907 0)
(0.13319 -0.00228381 -2.58605e-22)
(0.114973 0.0266144 -2.12707e-22)
(0.114065 0.0280169 2.10268e-21)
(0.113267 0.0254767 1.12832e-21)
(0.00229354 0.00129921 1.04287e-21)
(0.00151118 0.000777351 -1.17052e-21)
(0.0190432 -0.00553253 -5.44805e-22)
(0.0201222 -0.00506062 4.64558e-22)
(0.00909597 -0.00292573 9.18265e-22)
(0.00647657 0.0111507 1.48028e-21)
(0.0189676 0.0181626 3.46072e-21)
(0.0134649 0.0228015 2.7218e-22)
(0.00492079 0.0143073 -8.6316e-21)
(0.116982 0.0477546 5.58545e-23)
(0.10786 0.0582437 1.07358e-21)
(0.118319 0.0548825 -1.85152e-21)
(0.0390837 -0.0294125 7.33217e-22)
(0.0240047 -0.0172618 -4.69239e-22)
(0.00532074 -0.000740198 -4.10688e-21)
(0.00453782 -0.00359019 0)
(0.0124954 -0.00166959 2.005e-21)
(0.0219601 -0.0161274 7.80044e-22)
(0.0342487 -0.0277791 -1.96025e-21)
(0.0329813 -3.23878e-05 5.34805e-23)
(0.0350824 0.000123283 -3.94647e-23)
(0.0309594 0.000141748 -1.65416e-24)
(0.0280501 -0.0419403 0)
(0.0295996 -0.0428315 0)
(0.0896236 -0.0186528 -4.63994e-22)
(0.0995915 -0.0220904 3.15189e-21)
(0.0870346 -0.0252785 0)
(0.0471086 -0.0401809 0)
(0.0581678 -0.0513753 -7.84854e-22)
(0.0413103 0.0393377 2.08854e-21)
(-2.24807e-06 0.000214549 5.07104e-22)
(-0.000194126 0.000131004 -3.33713e-22)
(0.0223224 -0.0192369 -7.92895e-22)
(0.120267 -0.0114553 3.96198e-22)
(0.119631 -0.0113995 -7.66341e-23)
(0.115413 -0.00572693 -6.51856e-23)
(0.108339 0.000975896 8.6869e-23)
(0.117603 -0.000325986 1.74076e-22)
(8.22758e-05 0.000259071 1.95968e-22)
(0.043742 0.034418 3.21188e-21)
(0.06187 0.0463075 -7.90135e-22)
(0.059304 0.0393634 -3.03661e-24)
(0.0215006 -0.000792663 5.30365e-24)
(0.0211834 -0.000770441 2.75128e-23)
(0.0229927 -0.000541653 1.00745e-24)
(0.0256815 -0.000561995 -1.3577e-23)
(0.0454167 0.0380892 1.33761e-22)
(0.0189606 0.0160584 0)
(0.000138008 -2.716e-05 3.63935e-22)
(0.000420895 -0.000254788 -4.03776e-22)
(0.00185786 -0.00100716 2.81426e-22)
(0.0365446 -0.007717 -1.83233e-21)
(0.0648516 -0.00209788 -7.4649e-22)
(0.0298901 -0.000180157 -2.13529e-24)
(0.0744638 -0.007644 2.69966e-22)
(0.0706763 -0.0157264 5.73106e-23)
(0.0943031 0.0399233 2.14768e-21)
(0.0914036 0.0454588 9.92836e-23)
(0.088748 0.02909 1.21784e-21)
(0.0914733 0.0308069 -8.82558e-22)
(0.098695 0.0410847 0)
(0.12612 -0.000312093 1.50078e-22)
(0.12689 -0.000744766 2.83547e-22)
(0.128093 -0.0123537 -2.96797e-22)
(0.129557 -0.0121594 5.08067e-22)
(0.117054 0.0241592 2.60924e-22)
(0.119112 0.0250606 -7.38949e-22)
(0.1171 0.0261714 0)
(0.115134 0.0249083 1.53769e-22)
(0.116671 0.0280934 0)
(0.117172 0.0361144 -5.53108e-22)
(0.11571 0.0381656 -3.01893e-22)
(0.111336 0.0419772 -5.42247e-22)
(0.11373 0.04011 0)
(0.116418 0.0430855 1.79444e-21)
(0.113696 0.0450075 4.73863e-23)
(0.108329 0.0441875 -3.04513e-22)
(0.0996269 0.0502891 -1.29052e-21)
(0.0984179 0.0455006 -2.27324e-22)
(0.0249428 -0.00846533 5.71393e-23)
(0.0327957 -0.00932164 -2.27851e-23)
(0.00628001 -0.00248514 -6.86238e-22)
(0.0292965 -9.29332e-05 -3.3732e-23)
(0.0376069 -0.000271719 0)
(-3.17532e-06 -3.97781e-05 4.28241e-22)
(1.30244e-05 -4.71424e-05 2.18183e-22)
(0.0340082 -0.00175766 1.61972e-23)
(0.040245 -0.00170954 6.71426e-24)
(0.0398097 -0.00118018 0)
(0.0328839 -0.000816767 7.12893e-24)
(0.0853742 0.00333722 -1.09161e-22)
(0.0846025 0.00301989 5.15717e-22)
(0.0854594 0.00310021 2.38799e-22)
(0.000670576 0.000271951 3.89258e-22)
(-0.0001594 -0.000129263 -5.64477e-22)
(-0.000201047 -0.000169003 4.80749e-22)
(0.00149974 0.0006172 0)
(7.98565e-05 8.77376e-05 1.13274e-21)
(0.000171839 -3.90146e-05 -8.15902e-22)
(0.00744611 0.00367246 -9.86129e-22)
(0.00145115 0.000781052 -1.17913e-21)
(0.00172004 0.000860371 0)
(0.00157197 0.00754436 0)
(0.00057694 0.00328137 0)
(0.000313306 0.00197697 0)
(0.136621 -0.00108657 5.72172e-23)
(0.137635 -0.000920691 0)
(0.135994 -0.00187062 -6.66659e-23)
(0.0881099 -0.0148525 4.43326e-21)
(0.0901167 -0.0152619 -1.60928e-21)
(0.0890321 -0.0128772 0)
(0.0957102 0.000364129 -6.39295e-24)
(0.0962659 0.000356606 1.27949e-23)
(0.0951522 0.00037095 -4.32523e-24)
(0.0968162 0.000350591 0)
(0.0973647 0.000352362 -8.15908e-24)
(0.0979069 0.000348751 0)
(0.0979006 -0.00022652 0)
(0.0984406 0.000334139 3.02837e-23)
(0.0984284 -0.000244733 0)
(0.0973648 -0.000220067 -8.21665e-24)
(0.0968162 -0.000218985 0)
(0.0962647 -0.00021729 4.27791e-24)
(0.0957062 -0.000219736 -6.39034e-24)
(0.0951497 -0.000221448 4.31983e-24)
(0.0989612 0.000317785 -2.8979e-23)
(0.0989543 -0.000257349 -1.01317e-24)
(0.094585 0.000382786 2.2025e-29)
(0.0945771 -0.000217303 -6.6022e-24)
(0.0940074 0.000392518 3.5116e-23)
(0.0994746 0.000307489 2.70753e-26)
(0.0994837 -0.000262533 -1.01391e-24)
(0.0940024 -0.000221039 1.30123e-23)
(0.0999899 0.000295988 2.72654e-23)
(0.100502 0.000286624 -2.7243e-23)
(0.100004 -0.0002687 2.0417e-24)
(0.100518 -0.000273396 4.03533e-24)
(0.0934462 0.000412379 -3.41661e-23)
(0.0934335 -0.000223359 -8.56514e-24)
(0.10101 0.000275673 0)
(0.101028 -0.00027924 -3.98019e-24)
(0.0928623 0.000422549 4.22697e-27)
(0.0928504 -0.000220734 -4.23756e-27)
(0.101514 0.000266613 0)
(0.101532 -0.000283799 0)
(0.092272 0.000429225 0)
(0.0922599 -0.000221698 0)
(0.102014 0.000255703 0)
(0.102033 -0.000289675 1.91192e-24)
(0.0916757 0.000435785 -1.77327e-23)
(0.0916627 -0.000221896 -4.32759e-27)
(0.102511 0.000246632 1.00222e-25)
(0.10253 -0.000294202 -2.04193e-24)
(0.0910729 0.000440381 1.78175e-23)
(0.0910594 -0.000223806 0)
(0.103003 0.000235692 0)
(0.103023 -0.000299847 0)
(0.0904642 0.000445368 -1.12739e-24)
(0.0904501 -0.000223771 1.93496e-23)
(0.103492 0.000226687 1.23917e-23)
(0.103511 -0.00030372 0)
(0.08985 0.000448522 -1.00617e-25)
(0.0898345 -0.000223986 -1.83141e-23)
(0.103977 0.000215963 -1.85347e-23)
(0.103997 -0.000308585 -5.37881e-24)
(0.0892164 0.000445283 1.86733e-23)
(0.0892038 -0.000224774 0)
(0.10446 0.000208178 6.10474e-24)
(0.104481 -0.000308386 3.58725e-24)
(0.0885793 0.000448375 -9.45289e-24)
(0.0885668 -0.0002284 1.91672e-23)
(0.104937 0.000202506 -2.4378e-23)
(0.104966 -0.00030188 2.74764e-23)
(0.087911 0.00043694 9.74484e-24)
(0.0879076 -0.000237746 3.08421e-25)
(0.105418 0.0001991 0)
(0.105443 -0.000295973 1.30923e-23)
(0.0872343 0.000425691 -1.96033e-23)
(0.0872381 -0.000254167 3.92138e-23)
(0.105913 0.000187208 0)
(0.105923 -0.0002958 0)
(0.0882113 0.00110666 -9.64245e-24)
(0.0875289 0.00110396 -3.90294e-23)
(0.0865334 0.000408079 0)
(0.0865542 -0.000282014 -1.99796e-23)
(0.0895249 0.00110277 -6.05364e-24)
(0.0888721 0.00110562 1.18895e-24)
(0.0907681 0.00108368 0)
(0.0901453 0.00109278 -1.95516e-23)
(0.0919736 0.00106042 -3.77428e-26)
(0.0913747 0.00107262 0)
(0.0931506 0.0010332 0)
(0.0925654 0.00104725 0)
(0.0943016 0.000998758 0)
(0.0937297 0.0010176 0)
(0.0954064 0.000961963 8.54017e-24)
(0.0948509 0.000979432 2.15328e-24)
(0.0965075 0.000935217 -8.23615e-24)
(0.0959634 0.000948545 -8.52819e-24)
(0.0975863 0.000911766 1.46223e-23)
(0.0970431 0.00091802 1.8677e-23)
(0.0986651 0.000891205 0)
(0.098128 0.000904363 0)
(0.0997054 0.000867039 -6.42108e-26)
(0.0991889 0.000879083 0)
(0.100725 0.000840006 0)
(0.100217 0.000853741 0)
(0.101727 0.000811664 0)
(0.101228 0.000825832 0)
(0.102714 0.000783157 0)
(0.102223 0.000797332 0)
(0.103685 0.000754856 0)
(0.103201 0.000768889 0)
(0.104642 0.000727029 0)
(0.104165 0.00074083 0)
(0.10559 0.000684083 -9.96053e-24)
(0.105116 0.000712118 0)
(0.106067 0.000661097 -3.21627e-24)
(0.1064 0.000171309 3.14049e-24)
(0.106407 -0.000299821 -3.11435e-24)
(0.105134 -0.000776465 0)
(0.106083 -0.000769151 -1.27791e-23)
(0.105609 -0.000771489 -6.5847e-24)
(0.104174 -0.000785729 1.80266e-24)
(0.104654 -0.000782282 -7.0531e-24)
(0.103206 -0.00078731 5.83744e-26)
(0.103692 -0.000787818 0)
(0.102224 -0.000785088 0)
(0.102717 -0.000786141 0)
(0.101225 -0.000783405 0)
(0.101727 -0.000784055 0)
(0.100208 -0.000783284 0)
(0.100719 -0.000783009 7.68513e-30)
(0.0991716 -0.000786104 6.48576e-26)
(0.0996919 -0.000784179 0)
(0.0981209 -0.000784896 0)
(0.0986458 -0.000786635 0)
(0.0970445 -0.000784387 0)
(0.0975835 -0.000783702 0)
(0.095947 -0.000791619 0)
(0.0964969 -0.000785186 -4.32382e-24)
(0.0948269 -0.000806716 1.13779e-24)
(0.0953889 -0.000801857 -5.57869e-24)
(0.0936957 -0.000826003 0)
(0.0942682 -0.000814668 -4.53894e-24)
(0.0925295 -0.000841757 0)
(0.0931162 -0.000833856 0)
(0.0913352 -0.000858395 0)
(0.091936 -0.000849915 0)
(0.0901076 -0.000874484 0)
(0.0907267 -0.000866565 0)
(0.0888407 -0.000891772 -4.95214e-24)
(0.0894804 -0.000881685 0)
(0.0875384 -0.000928404 -2.00628e-23)
(0.088194 -0.000904858 -4.9776e-24)
(0.0868643 -0.000957094 2.04253e-23)
(0.0868317 0.00110267 3.87008e-23)
(0.106546 0.000641662 6.29678e-24)
(0.106559 -0.000767103 -1.22989e-23)
(0.085848 -0.000320833 0)
(0.0861813 -0.00100024 0)
(0.0861206 0.00110098 0)
(0.0858176 0.000383038 0)
(0.0888016 0.00176247 0)
(0.0874587 0.00179282 9.69104e-24)
(0.0881356 0.00177574 9.78312e-24)
(0.0900964 0.00173076 1.24315e-23)
(0.0894559 0.00174762 -2.48498e-24)
(0.0913179 0.00169099 3.84279e-26)
(0.0907131 0.00171076 0)
(0.0925045 0.00165102 0)
(0.091915 0.00167116 0)
(0.0936622 0.00161015 0)
(0.0930868 0.00163068 0)
(0.0947955 0.00157098 0)
(0.0942315 0.00158963 0)
(0.0958983 0.00153004 0)
(0.0953501 0.00155106 0)
(0.0969802 0.00149323 -3.45144e-26)
(0.0964384 0.00151237 8.90416e-24)
(0.0980313 0.00145431 -3.31145e-26)
(0.0975112 0.00147301 -1.73695e-23)
(0.0990809 0.001414 0)
(0.0985571 0.0014332 0)
(0.100105 0.0013772 3.20611e-26)
(0.0995958 0.00139538 0)
(0.101109 0.00134071 0)
(0.100609 0.00135897 0)
(0.102096 0.00130408 0)
(0.101604 0.00132237 0)
(0.103066 0.00126775 0)
(0.102583 0.00128584 0)
(0.104022 0.00123192 0)
(0.103546 0.00124975 0)
(0.104963 0.00119569 0)
(0.104494 0.00121409 0)
(0.105894 0.00114727 6.80319e-24)
(0.105429 0.00117372 0)
(0.106884 0.000160082 0)
(0.10702 0.000622774 6.15639e-24)
(0.106828 0.00109902 0)
(0.10636 0.00112267 6.62746e-24)
(0.106386 -0.00123484 1.31841e-23)
(0.106851 -0.00122907 3.23786e-24)
(0.107035 -0.000769214 2.52795e-23)
(0.106889 -0.000301335 0)
(0.105451 -0.00124912 0)
(0.105919 -0.00124169 -1.99057e-23)
(0.104508 -0.00126205 5.67123e-26)
(0.104981 -0.00125476 7.09599e-24)
(0.103554 -0.00126948 -5.83742e-26)
(0.104033 -0.0012662 0)
(0.102586 -0.00127543 0)
(0.103072 -0.00127241 0)
(0.101601 -0.00128238 0)
(0.102095 -0.0012787 0)
(0.100599 -0.00129138 0)
(0.101102 -0.00128655 -7.6851e-30)
(0.0995788 -0.00130317 -1.29633e-25)
(0.100091 -0.00129693 0)
(0.0985428 -0.00131601 0)
(0.0990628 -0.00130959 0)
(0.0974824 -0.0013311 2.18138e-24)
(0.0980159 -0.00132288 0)
(0.0964046 -0.00134841 0)
(0.0969443 -0.0013375 -2.17228e-24)
(0.0953038 -0.00137338 4.54843e-24)
(0.0958536 -0.00136057 4.5205e-24)
(0.0941795 -0.00139828 0)
(0.0947458 -0.00138579 0)
(0.0930286 -0.00142715 0)
(0.0936073 -0.00141233 0)
(0.0918499 -0.00145885 0)
(0.0924429 -0.00144263 0)
(0.0906399 -0.00149362 0)
(0.0912491 -0.00147575 0)
(0.0893949 -0.00153314 7.92063e-26)
(0.0900222 -0.00151271 0)
(0.0881115 -0.00158028 -8.0319e-26)
(0.0887592 -0.00155587 0)
(0.0867929 -0.00165989 -2.1008e-23)
(0.0874558 -0.00161653 2.09984e-23)
(0.0867662 0.00181002 1.97238e-23)
(0.0854919 -0.00105479 0)
(0.0861219 -0.00171571 -4.27294e-23)
(0.085139 -0.00036661 0)
(0.107293 0.00108137 0)
(0.107319 -0.00122348 -3.14012e-24)
(0.0854022 0.00109906 4.995e-23)
(0.0860665 0.00182797 1.99818e-23)
(0.0847856 -0.00111213 1.08027e-23)
(0.0854395 -0.00177917 5.3999e-23)
(0.0850879 0.000353636 0)
(0.107245 0.00155181 2.58979e-23)
(0.107697 0.00152816 -1.27894e-23)
(0.107504 -0.000767961 -6.22091e-24)
(0.107779 -0.00121564 3.09273e-23)
(0.0870675 0.00252973 7.00982e-23)
(0.0853459 0.00184527 -3.93578e-23)
(0.0856575 0.00258605 -1.75956e-22)
(0.0863595 0.0025549 -4.0049e-23)
(0.0883996 0.00246238 1.95046e-23)
(0.0877403 0.00249728 -5.96344e-23)
(0.0896771 0.002398 -1.99433e-23)
(0.0890458 0.00242992 -1.50475e-23)
(0.090923 0.00234052 -4.97084e-24)
(0.0903075 0.00237013 -4.97516e-24)
(0.0921168 0.00228518 -3.84279e-26)
(0.0915267 0.00231311 0)
(0.0932741 0.00222957 0)
(0.0926992 0.00225726 0)
(0.094403 0.00217511 0)
(0.0938419 0.00220219 0)
(0.0955066 0.00212268 0)
(0.0949578 0.00214848 0)
(0.0965852 0.00207248 0)
(0.0960487 0.002097 0)
(0.09764 0.00202244 0)
(0.0971149 0.0020471 0)
(0.0986732 0.00197402 6.14245e-29)
(0.09816 0.00199911 0)
(0.0996897 0.00192456 0)
(0.0991831 0.00194877 0)
(0.100688 0.00187759 3.19801e-26)
(0.100191 0.00190086 0)
(0.101669 0.00183188 0)
(0.101181 0.00185463 0)
(0.102633 0.00178699 0)
(0.102153 0.00180935 0)
(0.103581 0.00174288 0)
(0.103109 0.00176484 0)
(0.104514 0.00169951 0)
(0.104049 0.00172113 0)
(0.105433 0.00165551 0)
(0.104975 0.00167786 0)
(0.10634 0.00160386 3.4631e-24)
(0.105888 0.00163049 -1.74309e-24)
(0.106793 0.00157803 -1.32136e-23)
(0.107357 0.000153021 -2.94871e-24)
(0.107756 0.00106312 1.23238e-23)
(0.107489 0.000610352 -9.42727e-24)
(0.107361 -0.000310575 0)
(0.106825 -0.00169062 -9.81161e-24)
(0.107729 -0.00166741 -2.83039e-23)
(0.107278 -0.00167968 2.2795e-23)
(0.105917 -0.00171458 0)
(0.106372 -0.00170185 0)
(0.104994 -0.0017287 -9.01911e-29)
(0.105456 -0.00172023 0)
(0.104061 -0.00174317 0)
(0.104529 -0.00173618 0)
(0.103114 -0.0017571 -5.98296e-26)
(0.103589 -0.00175005 0)
(0.10215 -0.00177241 0)
(0.102634 -0.00176453 0)
(0.10117 -0.00178998 0)
(0.101662 -0.00178088 0)
(0.100172 -0.00181028 6.47847e-26)
(0.100673 -0.00179979 0)
(0.0991573 -0.00183303 6.63119e-26)
(0.0996671 -0.00182134 0)
(0.0981222 -0.00185928 0)
(0.0986422 -0.00184557 0)
(0.0970669 -0.00188911 0)
(0.0975975 -0.00187395 0)
(0.0959895 -0.00192348 0)
(0.0965302 -0.00190534 0)
(0.0948887 -0.00196039 0)
(0.0954423 -0.00194136 0)
(0.0937626 -0.00200239 -7.43816e-26)
(0.0943289 -0.00198084 0)
(0.0926092 -0.00204878 0)
(0.0931894 -0.00202504 0)
(0.0914254 -0.00210001 0)
(0.0920213 -0.00207373 0)
(0.0902084 -0.00215734 -1.20684e-28)
(0.0908212 -0.00212784 0)
(0.0889561 -0.0022222 1.37322e-28)
(0.089587 -0.00218886 0)
(0.0876708 -0.00230391 8.29985e-26)
(0.0883145 -0.00225854 0)
(0.0863587 -0.00242011 -4.36664e-23)
(0.0870173 -0.00235684 1.07332e-23)
(0.0847452 -0.00184292 1.09876e-23)
(0.0857023 -0.00249087 2.18274e-23)
(0.0846716 0.00109072 -1.95565e-23)
(0.0844119 -0.000415996 -2.09309e-23)
(0.108146 0.00150529 3.12958e-24)
(0.108181 -0.0016605 2.22419e-23)
(0.0845893 0.00184273 2.46744e-24)
(0.0840684 -0.00117639 0)
(0.0847108 0.00249912 2.69737e-22)
(0.0850387 -0.0025643 3.3568e-23)
(0.084055 -0.00191143 4.4799e-23)
(0.0863957 0.0034564 -4.4402e-22)
(0.0861568 0.00360041 8.14407e-23)
(0.0843626 0.000326435 0)
(0.0871429 0.00329518 4.50354e-23)
(0.0866624 0.00339804 2.29977e-23)
(0.0883533 0.00319003 4.06408e-23)
(0.087711 0.00323248 -6.19786e-23)
(0.0896166 0.00309761 -2.01972e-23)
(0.0889963 0.00314556 -1.00841e-23)
(0.0908266 0.00301308 1.01194e-23)
(0.0902261 0.00305404 1.02538e-23)
(0.0920075 0.00293423 0)
(0.0914184 0.00297202 -1.94011e-26)
(0.0931532 0.00286141 0)
(0.0925843 0.00289772 0)
(0.0942705 0.00279097 3.75215e-26)
(0.0937152 0.00282581 0)
(0.0953616 0.00272344 0)
(0.0948192 0.00275688 0)
(0.0964287 0.00265872 0)
(0.0958981 0.00269071 0)
(0.0974725 0.00259666 0)
(0.0969533 0.00262734 0)
(0.0984944 0.00253621 3.43367e-26)
(0.0979859 0.0025661 0)
(0.0994959 0.00247746 6.61088e-29)
(0.0989978 0.00250703 0)
(0.10048 0.0024196 0)
(0.0999899 0.00244818 0)
(0.101447 0.00236382 -6.38996e-26)
(0.100966 0.00239151 0)
(0.102397 0.00230963 0)
(0.101924 0.00233655 0)
(0.103331 0.00225678 0)
(0.102866 0.00228306 0)
(0.10425 0.00220511 0)
(0.103793 0.00223082 0)
(0.105155 0.0021544 0)
(0.104704 0.00217968 0)
(0.106046 0.00210332 0)
(0.105602 0.00212911 0)
(0.106926 0.0020506 -1.72946e-24)
(0.106486 0.00207607 0)
(0.107797 0.00199364 0)
(0.107361 0.00202219 -3.34994e-24)
(0.10866 0.00193521 -3.26113e-27)
(0.108231 0.00196508 0)
(0.10821 0.00104595 -1.2495e-23)
(0.109097 0.00191277 7.52062e-25)
(0.108597 0.00148674 6.11472e-24)
(0.107819 0.000142199 4.49863e-24)
(0.10795 0.000596515 -3.10496e-24)
(0.107967 -0.000766487 -1.56418e-24)
(0.107826 -0.000314476 1.56016e-24)
(0.10863 -0.00165366 0)
(0.108236 -0.00121458 -1.41722e-23)
(0.108272 -0.00210705 -6.35965e-24)
(0.109143 -0.00208551 -1.21761e-23)
(0.108708 -0.00209598 2.79621e-23)
(0.107401 -0.00213632 -3.33812e-24)
(0.107838 -0.00212166 0)
(0.10652 -0.00216215 0)
(0.106961 -0.00214877 0)
(0.105627 -0.00218373 -1.1188e-28)
(0.106075 -0.00217326 0)
(0.104721 -0.002205 0)
(0.105175 -0.00219441 0)
(0.1038 -0.00222666 5.98296e-26)
(0.104262 -0.0022157 0)
(0.102864 -0.00225006 0)
(0.103334 -0.0022381 0)
(0.101913 -0.00227597 0)
(0.102391 -0.00226268 0)
(0.100944 -0.00230485 0)
(0.10143 -0.00229004 0)
(0.0999579 -0.00233701 -1.25596e-28)
(0.100453 -0.00232051 0)
(0.0989528 -0.00237322 0)
(0.0994577 -0.00235456 0)
(0.097928 -0.0024136 0)
(0.098443 -0.00239296 0)
(0.0968821 -0.00245873 0)
(0.0974075 -0.00243546 0)
(0.0958137 -0.00250812 0)
(0.0963509 -0.0024828 0)
(0.0947209 -0.002563 7.43816e-26)
(0.0952704 -0.00253488 0)
(0.0936018 -0.00262351 0)
(0.0941648 -0.00259255 0)
(0.0924543 -0.00269024 0)
(0.0930318 -0.00265604 0)
(0.0912758 -0.00276437 -7.9078e-26)
(0.091869 -0.00272631 0)
(0.0900649 -0.00284681 8.05846e-26)
(0.0906746 -0.00280458 0)
(0.0888201 -0.00293922 -8.20607e-26)
(0.0894464 -0.00289154 0)
(0.0875518 -0.00304947 1.07869e-23)
(0.0881843 -0.00298968 -2.12776e-23)
(0.086285 -0.00319293 -1.0866e-23)
(0.0869157 -0.00311605 2.20928e-23)
(0.0843621 -0.00263471 3.17681e-25)
(0.0856399 -0.00327028 2.23054e-23)
(0.083922 0.00106458 -2.00558e-23)
(0.0836808 -0.000455644 0)
(0.0838139 0.0017915 -1.93999e-22)
(0.0833425 -0.00122529 0)
(0.109302 0.00235895 -3.11999e-24)
(0.109712 0.0023266 2.28549e-24)
(0.109072 -0.00164758 -1.19731e-23)
(0.109572 -0.00206941 -1.35442e-23)
(0.0837763 0.00244357 -1.88704e-22)
(0.0833544 -0.00197586 -4.52373e-23)
(0.0852673 0.00358911 0)
(0.0878379 0.00411017 -5.14472e-23)
(0.0836847 -0.00270588 -2.22087e-23)
(0.0849855 -0.0033457 3.37556e-23)
(0.087277 0.00410502 1.03281e-22)
(0.0836239 0.000296854 0)
(0.0887277 0.00393344 0)
(0.088251 0.00402489 -4.58227e-23)
(0.0898757 0.00380389 0)
(0.0892849 0.0038654 0)
(0.0910552 0.00369346 0)
(0.0904684 0.00374596 1.04472e-23)
(0.0921954 0.0035942 0)
(0.091628 0.00364326 0)
(0.0933144 0.00350104 0)
(0.0927575 0.00354619 0)
(0.0944083 0.00341419 0)
(0.0938646 0.00345726 0)
(0.0954777 0.00333091 -3.75215e-26)
(0.094946 0.00337207 0)
(0.0965235 0.00325133 0)
(0.0960035 0.0032907 0)
(0.0975471 0.0031752 0)
(0.097038 0.00321286 0)
(0.0985492 0.00310217 0)
(0.0980507 0.00313833 0)
(0.0995311 0.00303168 -7.97093e-29)
(0.0990426 0.00306661 0)
(0.100494 0.00296351 7.76181e-29)
(0.100015 0.00299745 0)
(0.10144 0.00289712 0)
(0.100969 0.00293001 0)
(0.102369 0.00283302 7.32431e-29)
(0.101907 0.00286483 0)
(0.103283 0.00277084 0)
(0.102828 0.00280171 0)
(0.104181 0.00271039 0)
(0.103734 0.00274042 0)
(0.105065 0.00265146 0)
(0.104625 0.00268076 0)
(0.105935 0.00259375 0)
(0.105502 0.0026225 0)
(0.106793 0.00253636 0)
(0.106366 0.0025651 0)
(0.107639 0.00247943 0)
(0.107217 0.00250786 0)
(0.108474 0.00242006 3.31844e-24)
(0.108056 0.0024485 3.4008e-24)
(0.108889 0.0023887 -6.36817e-24)
(0.108658 0.00102936 -6.13404e-24)
(0.109532 0.00189097 0)
(0.109036 0.00146386 -6.18608e-24)
(0.108275 0.000133628 0)
(0.1084 0.000584944 6.26018e-24)
(0.10842 -0.000767064 9.34441e-24)
(0.108281 -0.000318307 -3.15987e-24)
(0.108686 -0.00121053 -1.83547e-23)
(0.108939 -0.00253413 3.19672e-24)
(0.109766 -0.00249624 1.18835e-23)
(0.109359 -0.00252036 0)
(0.108104 -0.00256601 -6.63341e-24)
(0.108524 -0.00255089 6.65528e-24)
(0.107256 -0.00259549 0)
(0.107682 -0.00258139 0)
(0.106396 -0.00262369 -1.31616e-28)
(0.106828 -0.00260975 0)
(0.105523 -0.00265181 0)
(0.105961 -0.0026377 0)
(0.104636 -0.00268094 0)
(0.105082 -0.00266619 0)
(0.103734 -0.00271214 0)
(0.104187 -0.00269625 0)
(0.102817 -0.00274613 0)
(0.103278 -0.00272877 0)
(0.101883 -0.00278347 6.44172e-26)
(0.102352 -0.00276437 0)
(0.100933 -0.00282464 -6.61863e-26)
(0.10141 -0.00280355 0)
(0.0999644 -0.00287034 0)
(0.100451 -0.0028469 0)
(0.0989771 -0.00292077 0)
(0.0994732 -0.00289498 0)
(0.0979698 -0.00297644 0)
(0.098476 -0.00294793 0)
(0.0969411 -0.00303747 0)
(0.0974582 -0.00300625 0)
(0.0958894 -0.00310466 0)
(0.0964182 -0.00307028 0)
(0.0948132 -0.00317844 0)
(0.0953545 -0.00314071 0)
(0.0937107 -0.0032595 -7.7215e-26)
(0.0942653 -0.00321802 0)
(0.0925802 -0.00334879 7.87479e-26)
(0.093149 -0.00330307 0)
(0.0914208 -0.00344711 -8.02459e-26)
(0.0920042 -0.00339684 0)
(0.090232 -0.00355485 0)
(0.09083 -0.00349977 0)
(0.0890141 -0.003672 0)
(0.0896262 -0.00361215 0)
(0.087783 -0.00380347 8.55418e-26)
(0.0884014 -0.00373538 1.08565e-23)
(0.0865404 -0.00395892 -5.65792e-23)
(0.0871574 -0.00387778 0)
(0.0843448 -0.00342944 -3.35283e-23)
(0.0859236 -0.00404433 -3.1537e-25)
(0.083169 0.00103722 6.27052e-23)
(0.0829397 -0.000490726 0)
(0.110129 0.00229852 -1.18838e-23)
(0.110183 -0.00248256 -2.29077e-23)
(0.08295 0.00172889 -3.31074e-23)
(0.0841171 0.00315207 1.10952e-24)
(0.0829949 0.00239088 9.42606e-23)
(0.0826155 -0.00126482 0)
(0.0826368 -0.00202279 1.13183e-23)
(0.0862532 0.0040839 -9.70164e-23)
(0.085313 0.00399487 8.27557e-23)
(0.0837205 0.0032453 -8.14205e-23)
(0.0829937 -0.00276755 -3.39948e-23)
(0.0836821 -0.00350782 2.26776e-23)
(0.0853175 -0.00414259 2.22582e-23)
(0.0828751 0.000267482 0)
(0.0894705 0.00468405 2.88206e-24)
(0.0880261 0.00470603 5.02297e-25)
(0.0888166 0.00468438 2.25317e-23)
(0.0904742 0.00452867 2.22477e-23)
(0.0899748 0.00461272 -2.23631e-23)
(0.0915731 0.00437646 4.11929e-26)
(0.091007 0.00444853 0)
(0.092681 0.00425471 0)
(0.0921311 0.00431269 0)
(0.0937625 0.00414378 0)
(0.0932244 0.0041986 0)
(0.094823 0.00403925 0)
(0.0942954 0.00409048 0)
(0.0958607 0.00394057 3.81114e-26)
(0.0953447 0.00398942 0)
(0.0968764 0.00384599 0)
(0.0963713 0.00389278 0)
(0.0978709 0.00375549 0)
(0.0973763 0.00380025 0)
(0.098845 0.00366887 0)
(0.0983604 0.00371172 0)
(0.0997995 0.0035858 0)
(0.0993246 0.00362692 0)
(0.100735 0.0035059 -3.4257e-26)
(0.10027 0.00354548 0)
(0.101654 0.00342886 9.01506e-29)
(0.101197 0.00346709 0)
(0.102556 0.00335432 0)
(0.102107 0.00339126 0)
(0.103442 0.00328234 6.36073e-26)
(0.103001 0.00331804 0)
(0.104314 0.00321263 0)
(0.10388 0.00324723 0)
(0.105171 0.00314498 0)
(0.104744 0.00317858 0)
(0.106015 0.00307916 0)
(0.105594 0.00311187 0)
(0.106845 0.00301482 0)
(0.106431 0.00304684 0)
(0.107663 0.00295137 0)
(0.107256 0.00298304 0)
(0.10847 0.00288859 5.39591e-26)
(0.108068 0.00291992 0)
(0.109266 0.0028262 -3.33294e-24)
(0.10887 0.00285787 0)
(0.11005 0.0027587 3.17274e-24)
(0.109658 0.00279286 0)
(0.110828 0.00268853 3.015e-24)
(0.110438 0.00272366 -3.09057e-24)
(0.109951 0.00186534 5.98501e-24)
(0.11122 0.00265568 0)
(0.110543 0.00227169 8.89173e-24)
(0.109095 0.00101299 0)
(0.109466 0.00144402 0)
(0.108723 0.00012599 0)
(0.108846 0.000571745 0)
(0.108865 -0.000766092 0)
(0.10873 -0.000321484 0)
(0.109507 -0.00164014 1.22026e-23)
(0.109125 -0.00120802 3.03854e-24)
(0.110592 -0.00246739 2.98617e-24)
(0.109996 -0.00205947 2.38795e-23)
(0.110508 -0.00290056 1.5497e-23)
(0.111288 -0.00286082 2.95884e-24)
(0.110897 -0.00287952 -6.02526e-24)
(0.109721 -0.00294152 3.18566e-24)
(0.110113 -0.00292008 -1.91042e-23)
(0.108925 -0.00297762 -1.26921e-28)
(0.109324 -0.00295938 0)
(0.108114 -0.00301131 0)
(0.108521 -0.00299411 0)
(0.107293 -0.00304582 -1.51698e-28)
(0.107705 -0.00302861 0)
(0.106458 -0.00308072 0)
(0.106877 -0.00306317 0)
(0.10561 -0.00311706 0)
(0.106036 -0.00309867 0)
(0.104748 -0.00315574 0)
(0.105181 -0.00313608 0)
(0.10387 -0.00319751 0)
(0.104311 -0.00317622 0)
(0.102977 -0.00324297 -1.28664e-25)
(0.103426 -0.00321976 0)
(0.102069 -0.00329273 0)
(0.102525 -0.00326729 0)
(0.101143 -0.00334739 0)
(0.101608 -0.00331943 0)
(0.100199 -0.00340733 0)
(0.100673 -0.0033767 0)
(0.0992367 -0.00347302 0)
(0.0997203 -0.00343944 0)
(0.0982544 -0.00354486 -7.2293e-26)
(0.0987482 -0.00350815 0)
(0.0972509 -0.0036235 0)
(0.0977554 -0.00358331 0)
(0.0962249 -0.0037095 0)
(0.0967408 -0.00366556 0)
(0.0951751 -0.00380349 7.7215e-26)
(0.0957031 -0.00375547 0)
(0.0941005 -0.00390626 -2.10549e-28)
(0.094641 -0.00385375 0)
(0.0930005 -0.00401833 1.60277e-25)
(0.0935537 -0.00396114 0)
(0.091875 -0.00413977 0)
(0.0924409 -0.00407791 0)
(0.0907239 -0.00427023 0)
(0.0913025 -0.00420375 0)
(0.0895491 -0.0044081 -2.44668e-28)
(0.0901398 -0.00433928 0)
(0.088351 -0.00455706 0)
(0.0889518 -0.00448025 0)
(0.0871766 -0.00473493 -3.36548e-23)
(0.0877598 -0.00464214 0)
(0.084692 -0.004235 -3.07586e-25)
(0.086597 -0.00483563 5.71633e-23)
(0.0823752 0.000990212 0)
(0.0872153 0.00471611 1.30749e-22)
(0.0821544 0.00167283 2.2619e-23)
(0.111628 0.00306431 -3.00933e-24)
(0.112 0.00303183 0)
(0.111 -0.00245454 2.9023e-24)
(0.111673 -0.00283879 -5.76816e-24)
(0.0821946 -0.000523878 0)
(0.0818784 -0.00129574 0)
(0.0823471 0.00246266 0)
(0.0819116 -0.00206268 -1.11476e-23)
(0.0822948 -0.00283105 -2.24407e-23)
(0.0830136 -0.00359012 0)
(0.0840533 -0.00432977 5.78065e-23)
(0.0859969 -0.00493772 -4.61072e-23)
(0.0821138 0.000233007 0)
(0.0900977 0.00530191 -1.08494e-26)
(0.0863679 0.00468266 4.10481e-23)
(0.0886639 0.00538906 -1.46328e-22)
(0.0893785 0.00536253 4.28685e-23)
(0.0913597 0.00522289 -1.39344e-23)
(0.0907474 0.00524446 -2.23397e-23)
(0.092394 0.00508402 0)
(0.0918897 0.00516486 0)
(0.093443 0.0049201 -4.11891e-26)
(0.0929082 0.00499752 0)
(0.0944906 0.00478587 0)
(0.0939709 0.00485056 0)
(0.0955114 0.00466334 0)
(0.0950038 0.00472368 0)
(0.0965105 0.00454794 0)
(0.0960136 0.00460476 0)
(0.0974882 0.00443845 -3.81114e-26)
(0.097002 0.0044926 0)
(0.0984456 0.00433358 0)
(0.0979694 0.00438547 0)
(0.0993838 0.00423314 0)
(0.0989171 0.00428283 0)
(0.100303 0.00413695 0)
(0.0998459 0.00418454 0)
(0.101205 0.00404472 0)
(0.100756 0.00409037 0)
(0.10209 0.00395612 3.40598e-26)
(0.10165 0.00399999 0)
(0.102958 0.00387085 1.02091e-28)