/*--------------------------------*- C++ -*----------------------------------*\
  =========                 |
  \\      /  F ield         | OpenFOAM: The Open Source CFD Toolbox
   \\    /   O peration     | Website:  https://openfoam.org
    \\  /    A nd           | Version:  10
     \\/     M anipulation  |
\*---------------------------------------------------------------------------*/
FoamFile
{
    format      ascii;
    class       volScalarField;
    location    "20";
    object      p;
}
// * * * * * * * * * * * * * * * * * * * * * * * * * * * * * * * * * * * * * //

dimensions      [0 2 -2 0 0 0 0];

internalField   nonuniform List<scalar> 
40874
(
0.626567
0.705278
0.175813
0.252583
0.160563
0.0745966
-0.0360974
0.147742
0.231696
0.364076
0.548968
0.49857
0.359342
0.470903
0.484881
0.545424
-0.113152
-0.0901513
0.255058
0.348695
0.34759
0.316673
0.213218
0.407809
0.400196
0.11326
0.135897
0.141686
0.0931726
-0.0746735
-0.054312
0.0454596
0.0308844
-0.351779
-0.339658
-0.326824
-0.339282
-0.000580686
0.000517041
-0.00297248
-0.000906883
-0.00115222
-0.000476757
-0.00418465
-0.00234762
-0.00229286
-0.0045746
0.320925
0.433854
0.508239
0.408231
0.152375
0.252421
-0.122907
-0.16087
-0.0576823
-0.0291618
-0.0502772
-0.17096
-0.292567
-0.270227
-0.0363733
0.0974341
0.070887
-0.0427379
-0.406439
-0.443518
-0.404749
-0.434314
-0.427414
-0.436839
0.926284
0.930702
0.917834
0.00022025
0.0206154
0.0249222
-0.0191786
-0.00105182
0.0034258
-0.000709147
0.00101114
0.48367
0.535024
0.543697
0.50619
-0.0482084
-0.0420821
-0.0273194
-0.138981
-0.294845
-0.222111
-0.238224
-0.279435
-0.213749
0.00289982
0.00446666
-0.00270314
-0.000658363
0.00245041
0.227649
0.212891
-0.481453
-0.49031
-0.332723
-0.326328
0.410583
0.416556
0.911151
0.895226
-0.333914
-0.331164
0.20055
-0.00587564
-0.00371044
0.00217062
0.00492303
0.133983
0.173508
0.449794
0.600723
0.566955
0.457908
0.464683
-0.00415103
-0.00455895
0.000488044
-0.00497323
-0.00872804
-0.0173258
0.212241
-0.00152595
0.0506013
0.0510394
0.682408
-0.0705553
-0.0756419
-0.126328
-0.370449
-0.34633
-0.333057
-0.358568
-0.401561
-0.393389
-0.302602
-0.303852
-0.305521
0.901948
0.932395
0.925632
-0.132704
-0.160123
-0.0798627
-0.333202
-0.33736
-0.337206
-0.33778
-0.330256
-0.335583
-0.334577
-0.617636
-0.624647
-0.608079
0.903281
0.834473
0.733823
0.63608
0.671541
0.192253
-0.520847
0.76765
0.711535
0.584697
0.808478
0.00733448
0.012069
-0.428313
-0.422066
-0.453145
-0.33198
-0.319315
-0.297256
-0.297415
-0.388481
-0.378022
0.000909094
0.000838012
0.000829602
0.439308
0.451012
0.428324
0.312369
0.248666
0.870809
0.891718
0.906914
0.864002
-0.096652
-0.196357
-0.321205
-0.213176
-0.52914
-0.522334
-0.516061
-0.53417
0.000672343
0.000843064
-0.507165
-0.00568612
-0.010882
0.192094
0.187942
0.323709
0.23631
0.235699
0.198096
0.197612
0.22308
0.214786
0.707993
0.801742
0.822161
-0.0035712
-0.00468627
0.206085
0.101236
0.140597
0.190426
-0.332863
-0.389961
-0.396945
-0.475254
-0.477169
-0.144632
-0.426122
-0.438817
-0.422488
-0.41001
-0.412135
0.130452
0.195042
-0.389768
-0.403657
-0.0207653
-0.0368109
-0.156936
-0.126353
0.624489
0.634109
0.754095
0.713777
-0.152702
-0.139412
-0.151641
-0.168241
-0.402841
-0.413113
-0.408981
-0.401642
-0.384963
-0.385587
-0.340585
-0.343191
-0.352153
0.866588
0.826157
0.880867
0.620998
0.599275
0.603559
-0.460996
0.000928364
-0.206369
0.0461487
-0.0301974
-0.0234607
-0.0170663
-0.0109379
-0.00479194
0.000436152
0.00452285
0.00891275
0.0130688
0.0167084
0.0201211
0.0231315
0.0259978
0.0285496
0.0309816
0.0331542
0.0352098
0.0369931
0.0387933
0.0403965
0.0418666
0.0431809
0.0444204
0.045521
0.0465458
0.0474447
0.0482715
0.0489835
0.0496224
0.0501543
0.0506112
0.050961
0.0512528
0.0514997
0.0515346
0.0511216
0.0504429
0.0508896
-0.0509395
-0.041847
-0.0509344
-0.0603225
-0.0698153
-0.0597793
-0.0355038
-0.0432905
-0.0220096
-0.0284632
-0.009345
-0.0155764
0.00124934
-0.00327566
0.00974633
0.00562583
0.0169805
0.0135254
0.0230639
0.0201407
0.0282429
0.0257514
0.0325299
0.0305332
0.0364774
0.0345973
0.0396671
0.0381373
0.0423753
0.041074
0.0446481
0.0435617
0.0465154
0.0456272
0.0480055
0.0473045
0.0491414
0.0486148
0.0498918
0.0495728
0.050016
0.0501009
0.0500432
-0.0243471
-0.0322896
-0.0118023
-0.0177972
-0.000316842
-0.00598616
0.00790277
0.00411774
0.0152882
0.0115442
0.0220473
0.0187974
0.027744
0.0250024
0.0326016
0.0302591
0.0367708
0.0347592
0.040284
0.0385828
0.0433329
0.0418691
0.0458967
0.044667
0.0480445
0.047018
0.0498089
0.0489712
0.0512136
0.050554
0.052267
0.0517842
0.0529641
0.0526546
0.0533966
0.0532438
0.0528965
0.0531281
-0.080981
-0.0935627
-0.0822603
-0.0706387
-0.108559
-0.0955926
-0.125361
0.0487866
0.0487821
0.0529623
-0.0414852
-0.0333222
-0.0500593
-0.0705952
-0.0828568
-0.172172
-0.140024
-0.133016
-0.103548
-0.118053
-0.0783663
-0.0901197
-0.05831
-0.0677922
-0.041432
-0.050118
-0.0266703
-0.0337923
-0.0140451
-0.0202843
-0.00361659
-0.00834976
0.00468845
0.00062848
0.0121025
0.00853617
0.0184845
0.0154189
0.0239621
0.0213331
0.028654
0.0263863
0.0327435
0.0307687
0.0362297
0.0345621
0.0391898
0.0377706
0.0416933
0.0404964
0.0437813
0.0427872
0.0454843
0.0446794
0.0468351
0.0462012
0.0478032
0.0473806
0.0483627
0.0481072
0.048617
0.0487174
0.0528413
0.0493965
0.0502558
-0.0183741
-0.0258577
-0.00597942
-0.0118556
0.00423859
-0.000467611
0.0127582
0.0084944
0.0199303
0.0165487
0.0261902
0.0231713
0.0315376
0.028975
0.0361032
0.0339099
0.0400111
0.0381371
0.0433449
0.0417433
0.0462065
0.0448332
0.0486255
0.047469
0.0506488
0.0496848
0.0523063
0.0515223
0.0536163
0.0530043
0.0545839
0.0541431
0.0552389
0.0549446
0.0555042
0.0554423
0.0554503
0.0554483
0.0550489
0.0553207
-0.0597229
-0.0314679
-0.0244145
-0.0394277
-0.0581426
-0.0696798
0.0573209
0.0546763
0.0569195
-0.160237
-0.110427
0.0481951
-0.0969996
0.0474704
-0.181348
-0.199789
-0.23478
-0.239586
-0.210381
-0.138249
-0.158362
-0.111202
-0.124669
-0.0854234
-0.0977028
-0.0641021
-0.0743414
-0.0468037
-0.0552335
-0.0313462
-0.0389192
-0.0188346
-0.0248838
-0.00815366
-0.0132625
0.000651117
-0.00358977
0.00831701
0.00462706
0.0149392
0.0117531
0.0206459
0.0179033
0.0255576
0.0231773
0.0297927
0.027748
0.0334411
0.0316917
0.036547
0.035058
0.0391759
0.0379186
0.0413777
0.0403287
0.0431837
0.0423285
0.0446298
0.0439487
0.0457282
0.0452323
0.0464185
0.0460796
0.0468365
0.0467045
0.046589
0.0468101
0.0463435
0.0504205
0.0488488
0.0525055
-0.0113502
-0.0178455
0.0004037
-0.00514824
0.00977453
0.00536285
0.018015
0.0139713
0.0247886
0.021588
0.0305342
0.0277587
0.0354898
0.0331092
0.0397365
0.0376941
0.0433837
0.0416303
0.0465066
0.0450059
0.0491894
0.0478995
0.0514701
0.0503784
0.0533817
0.0524701
0.0549506
0.054208
0.0561905
0.0556113
0.0571031
0.0566881
0.0576806
0.057436
0.0578621
0.0578194
0.0577608
0.0578594
0.0575842
-0.0481519
-0.0835561
-0.0213441
-0.0149669
0.0542077
0.0563863
-0.0284876
-0.188297
0.0443127
0.0434998
-0.226971
-0.127051
-0.145635
-0.2382
-0.26564
-0.268436
-0.113414
-0.0994307
-0.189343
-0.21259
-0.147739
-0.167448
-0.116944
-0.131515
-0.0911773
-0.103672
-0.0691996
-0.079687
-0.0512196
-0.0597104
-0.0360081
-0.0433356
-0.0231504
-0.0292767
-0.0121233
-0.0174138
-0.00281494
-0.00727954
0.00513772
0.00131996
0.011968
0.00868238
0.0178552
0.015023
0.0229112
0.0204798
0.0272728
0.025173
0.0310179
0.0292197
0.0342143
0.0326813
0.036919
0.035626
0.0391863
0.0381059
0.0410477
0.040166
0.0425374
0.0418363
0.0436861
0.0431596
0.0444223
0.0440808
0.0448949
0.0446978
0.0446833
0.0449101
0.0443925
0.046766
0.0451445
0.0501557
0.0484126
0.0520901
-0.00319197
-0.00904094
0.00748337
0.00243264
0.0161078
0.0119735
0.0236435
0.0200115
0.0298957
0.0269219
0.0351756
0.0326344
0.0397166
0.037533
0.0436162
0.04174
0.0469696
0.0453563
0.049853
0.0484659
0.0523275
0.0511382
0.0544342
0.053425
0.0562009
0.0553585
0.0576477
0.0569635
0.0587835
0.0582543
0.0596083
0.0592349
0.0601141
0.0599028
0.0602737
0.0602351
0.0601457
0.0602488
0.0596527
0.0599644
-0.302652
-0.294441
-0.130985
-0.258436
0.0586412
0.0592187
-0.0452677
-0.036502
-0.0680494
-0.0553002
-0.118923
-0.334274
-0.295078
-0.25152
-0.334215
-0.295131
-0.00511481
-0.0109302
-0.171731
-0.369651
-0.364506
-0.0832805
0.0609755
0.0579462
0.0602534
-0.364816
-0.222235
-0.282859
-0.237227
-0.262656
-0.194459
-0.214509
-0.155197
-0.174216
-0.122413
-0.137892
-0.0958958
-0.108467
-0.0737295
-0.0843205
-0.0553104
-0.0640315
-0.0399605
-0.0473175
-0.0268436
-0.033112
-0.0155859
-0.020988
-0.00601897
-0.0106131
0.00215932
-0.00176482
0.00916881
0.00579888
0.0152049
0.0123007
0.0203927
0.0179004
0.0248614
0.0227111
0.0286969
0.0268548
0.0319744
0.030402
0.0347494
0.0334244
0.0370806
0.0359697
0.0389972
0.0380889
0.0405321
0.0398105
0.0417215
0.0411711
0.0425168
0.0421595
0.0430342
0.0428146
0.0430082
0.0431241
0.0425906
0.0427605
0.0461177
0.0424999
0.0444998
0.049656
0.0478618
0.0535977
0.0515685
0.0557262
0.00536353
0.000252236
0.0149459
0.0103663
0.0228109
0.0190521
0.0295108
0.0262957
0.0351421
0.0324519
0.0399107
0.0376176
0.044015
0.0420391
0.0475532
0.0458493
0.0506076
0.0491364
0.0532434
0.0519742
0.0555131
0.0544213
0.0574521
0.0565223
0.059083
0.0583049
0.0604199
0.0597877
0.0614672
0.0609799
0.06222
0.0618811
0.0626603
0.0624811
0.0627719
0.0627561
0.062564
0.0627101
0.0620255
0.0623313
0.061565
-0.0174625
-0.0319211
-0.0244088
-0.051678
-0.0407955
-0.157625
-0.332069
-0.298753
-0.392641
-0.402303
0.0409076
0.0407942
-0.102231
-0.0644737
0.0571199
0.0593524
-0.338116
-0.253122
-0.362402
-0.21094
-0.149374
-0.000162525
0.00507353
-0.240383
-0.26669
-0.197423
-0.218031
-0.15958
-0.177788
-0.126724
-0.142331
-0.0998429
-0.112557
-0.0776072
-0.0882181
-0.0589918
-0.0678555
-0.0433711
-0.050845
-0.0300779
-0.0364427
-0.0186938
-0.024153
-0.0089942
-0.0136548
-0.000670364
-0.00466804
0.00647886
0.00304168
0.0126366
0.00967414
0.0179387
0.0153898
0.0225069
0.0203091
0.0264315
0.024546
0.0297888
0.0281778
0.0326393
0.0312754
0.0350356
0.0338928
0.0370132
0.0360749
0.0386036
0.0378555
0.0398403
0.0392655
0.0407093
0.040316
0.0412741
0.0410316
0.0414212
0.0414235
0.0412687
0.0455333
0.0421251
0.0438104
0.0490103
0.0472509
0.0528643
0.050888
0.0549479
0.0144299
0.00988251
0.0227388
0.0187342
0.029691
0.0263691
0.0355688
0.0327499
0.0405511
0.0381635
0.0447932
0.042754
0.0484469
0.0466869
0.0516077
0.0500842
0.0543476
0.0530265
0.0567231
0.055578
0.0587765
0.0577881
0.0605371
0.0596922
0.0620226
0.0613136
0.0632415
0.0626653
0.0641934
0.0637512
0.0648695
0.0645669
0.0652517
0.0650988
0.0653215
0.0653264
0.0650623
0.0652352
0.0644375
0.064797
0.0633652
0.0639847
-0.408759
0.0407188
-0.0788651
-0.122319
0.0616768
0.0626061
-0.285696
-0.424835
-0.393008
-0.0452488
-0.00571431
-0.0117278
-0.0183056
-0.0260551
-0.0348385
-0.187023
-0.385391
-0.251908
-0.301108
-0.332836
0.0155608
0.0111075
0.0418551
0.040484
-0.0573717
-0.452897
-0.143973
0.064112
0.0606163
0.0629858
-0.24479
-0.271311
-0.199558
-0.221146
-0.161621
-0.179598
-0.129554
-0.144807
-0.102899
-0.115568
-0.080699
-0.0912866
-0.0620562
-0.0709555
-0.0463031
-0.0538424
-0.0329148
-0.0393259
-0.0214665
-0.0269571
-0.0116845
-0.0163849
-0.00327125
-0.00731472
0.00397426
0.000489669
0.0102239
0.007217
0.0156155
0.0130221
0.0202664
0.0180289
0.024268
0.022345
0.0276962
0.0260509
0.0306142
0.0292164
0.0330717
0.0318992
0.0351074
0.0341406
0.0367539
0.0359783
0.0380406
0.0374412
0.0389716
0.0385478
0.0395807
0.0393172
0.0397976
0.0397509
0.0394944
0.0397094
0.0393982
0.0394434
0.0449426
0.0433184
0.0483199
0.0466168
0.0520223
0.0501105
0.0561621
0.0540487
0.0583419
0.0237321
0.0198477
0.0307648
0.0273675
0.0367285
0.0338767
0.0417718
0.0393523
0.0460708
0.0440068
0.0497549
0.0479821
0.0529425
0.0514054
0.0557158
0.0543773
0.0581348
0.0569668
0.0602454
0.0592266
0.0620816
0.0611965
0.0636656
0.0629045
0.0650095
0.0643674
0.066116
0.0655929
0.0669805
0.0665794
0.0675888
0.0673182
0.0679179
0.0677901
0.0679426
0.0679701
0.0676325
0.0678319
0.0669487
0.0673401
0.0658311
0.066455
0.065048
-0.314262
-0.441228
-0.363805
0.00635794
0.00129585
-0.00436965
-0.0107221
-0.0178471
-0.0262408
0.0391808
-0.362667
-0.422882
-0.0356047
-0.00145249
0.00462914
-0.0957495
-0.44608
-0.476221
-0.470626
-0.18039
0.0666345
0.065507
0.0594026
0.0617179
-0.301251
-0.332571
-0.245834
-0.272011
-0.200124
-0.221977
-0.162484
-0.180306
-0.131132
-0.146002
-0.104958
-0.117438
-0.0829737
-0.0934685
-0.0644425
-0.073297
-0.0487264
-0.0562521
-0.0353397
-0.0417525
-0.02388
-0.0293784
-0.014057
-0.0187768
-0.00559599
-0.00966321
0.0017057
-0.00180651
0.00801536
0.00497942
0.0134687
0.0108451
0.0181798
0.0159135
0.0222398
0.0202886
0.0257243
0.0240517
0.0286962
0.0272718
0.0312051
0.0300076
0.0332906
0.0322993
0.0349864
0.0341864
0.0363196
0.0356975
0.0373001
0.0368524
0.0379466
0.0376661
0.03822
0.0381357
0.0381444
0.0382146
0.0380818
0.0381149
0.0388042
0.0375157
0.0378783
0.0414105
0.0401179
0.0443522
0.0428412
0.0476097
0.0459628
0.05113
0.0493241
0.0550851
0.0530683
0.0571995
-0.0145904
-0.0079445
0.018714
0.009877
0.0145397
0.0264753
0.0226734
0.0332055
0.0299376
0.0389564
0.0361756
0.0438882
0.0415248
0.048085
0.0460702
0.0516872
0.0499549
0.0547996
0.0533001
0.0575109
0.0562019
0.0598877
0.0587389
0.0619781
0.0609672
0.0638179
0.0629285
0.0654324
0.0646531
0.0668369
0.0661611
0.0680379
0.0674635
0.0690314
0.068562
0.06981
0.0694491
0.0703541
0.0701136
0.0706368
0.0705307
0.0706257
0.070671
0.07028
0.0704982
0.0695485
0.0699669
0.0683809
0.0690166
0.0675798
-0.0442234
-0.069847
-0.463372
-0.020652
-0.445238
-0.427787
0.0385379
0.0369028
0.0641284
0.0580952
0.0602906
-0.112023
-0.469656
-0.470364
-0.457629
-0.455983
-0.358517
-0.3807
-0.297984
-0.329704
-0.243403
-0.26902
-0.199101
-0.220216
-0.16238
-0.17986
-0.131674
-0.146228
-0.106056
-0.118281
-0.0844511
-0.0947758
-0.0661655
-0.0749096
-0.0506125
-0.0580631
-0.0373217
-0.0436926
-0.0259142
-0.0313894
-0.0161045
-0.0208175
-0.00763918
-0.0117081
-0.000319674
-0.00384
0.00601748
0.00296883
0.0115048
0.00886525
0.016253
0.0139694
0.020352
0.0183823
0.0238765
0.0221849
0.0268892
0.0254457
0.0294385
0.0282214
0.0315648
0.0305537
0.0333023
0.0324818
0.034677
0.0340346
0.0357022
0.0352325
0.036394
0.0360901
0.0367434
0.0366134
0.0367948
0.0367995
0.0366916
0.0367751
0.036387
0.0365718
0.0409079
0.0396271
0.0437218
0.0422784
0.046862
0.0452779
0.0502266
0.0485125
0.0539547
0.0520393
0.0559555
-0.00947839
0.00592221
0.000331926
0.0156244
0.0109002
0.0244133
0.0201863
0.0314562
0.0280878
0.0374557
0.034522
0.0427387
0.0402042
0.0472544
0.0450779
0.0511374
0.0492733
0.0544731
0.0528699
0.0573647
0.0559719
0.0598917
0.0586721
0.0621183
0.0610415
0.0640931
0.0631368
0.0658515
0.0649995
0.0674186
0.0666595
0.0688113
0.0681377
0.0700378
0.0694466
0.0710992
0.0705909
0.0719845
0.0715663
0.0726836
0.0723598
0.0731714
0.0729572
0.073415
0.0733273
0.0733748
0.0734345
0.0730015
0.0732346
0.0722321
0.0726723
0.0710021
0.071678
0.0692469
0.0702055
0.0359395
0.0626226
0.06671
0.0680886
-0.0288374
-0.473453
-0.478229
-0.460457
-0.462281
0.0342119
0.0650865
-0.446381
0.738575
0.204423
0.205417
-0.0638879
0.6749
-0.477991
-0.448369
-0.459114
-0.433748
-0.382507
-0.291232
-0.320403
-0.238844
-0.263589
-0.196374
-0.216528
-0.161026
-0.17792
-0.131212
-0.145392
-0.106266
-0.118185
-0.0851781
-0.0952706
-0.0672624
-0.0758424
-0.0519718
-0.0593042
-0.0388614
-0.0451526
-0.0275745
-0.0329958
-0.0178375
-0.0225176
-0.00941402
-0.0134642
-0.00211413
-0.00562569
0.00421929
0.00117208
0.00971454
0.00707093
0.0144785
0.0121873
0.0185989
0.0166188
0.0221487
0.0204447
0.0251901
0.0237328
0.0277699
0.0265378
0.0299292
0.0289018
0.0317019
0.0308638
0.0331142
0.032453
0.0341826
0.0336909
0.0349251
0.0345945
0.0353481
0.0351775
0.035471
0.035445
0.0353743
0.0354554
0.035076
0.0352277
0.033672
0.0347463
0.0261063
0.0297511
0.0278564
0.0289641
0.0298963
0.0306116
0.0312717
0.0318485
0.0323748
0.0328461
0.0332667
0.0336367
0.0339572
0.0342288
0.0344524
0.0346287
0.0347586
0.0348432
0.0348835
0.0348808
0.0348366
0.0347525
0.03463
0.034471
0.0342772
0.0340507
0.0337934
0.0335073
0.0331946
0.0328573
0.0324977
0.0321179
0.0317201
0.0313063
0.0308788
0.0304397
0.029991
0.0295348
0.0290731
0.0286076
0.0281404
0.0276731
0.0272075
0.0267452
0.0262876
0.0258363
0.0253925
0.0249574
0.0245323
0.0241181
0.0237157
0.023326
0.0229496
0.0225873
0.0222394
0.0219065
0.0215888
0.0212866
0.021
0.020729
0.0204738
0.0202342
0.0200101
0.0198013
0.0196077
0.0194289
0.0192652
0.0191167
0.0189826
0.0188586
0.0187435
0.0186598
0.0186498
0.018638
0.0182534
0.0174861
0.0188354
0.018313
0.0184224
0.0183514
0.018388
0.0184041
0.0184503
0.0185035
0.0185736
0.0186563
0.0187539
0.0188661
0.0189937
0.0191371
0.0192972
0.0194745
0.01967
0.0198844
0.0201186
0.0203736
0.0206503
0.0209497
0.0212728
0.0216207
0.0219944
0.0223952
0.022824
0.0232822
0.0237711
0.0242922
0.0248457
0.0254322
0.0260574
0.0267399
0.0275026
0.0283133
0.0290055
0.0294925
0.0312037
0.0324566
0.0328845
0.0324481
0.0352758
0.0347723
0.0380467
0.037547
0.0403245
0.0392427
0.0430767
0.0416798
0.0460877
0.0445702
0.0493083
0.0476712
0.0528221
0.0510213
0.056682
0.054713
0.0609681
0.0587792
0.0677069
0.0657848
0.0633014
0.189492
0.0684416
0.0712489
0.0741087
0.0771529
0.0804077
0.0839708
0.0878379
0.092057
0.0966244
0.101705
0.107388
0.113701
0.120689
0.128381
0.13655
0.145184
0.155315
0.169689
-0.469084
-0.574582
-0.488929
-0.527919
0.0693915
0.0707888
0.0719303
0.0729074
0.0737428
0.0744435
0.0750135
0.0754626
0.0758009
0.0760395
0.0761873
0.0762534
0.0762447
0.0761688
0.076031
0.0758375
0.0755925
0.0753011
0.0749677
0.0745956
0.0741857
0.0737404
0.0732619
0.0727525
0.0722122
0.0716421
0.0710414
0.0704107
0.0697481
0.0690533
0.0683238
0.0675584
0.0667536
0.0659074
0.0650152
0.0640739
0.0630775
0.0620223
0.060901
0.0597089
0.0584368
0.0570785
0.0556249
0.0540678
0.0523903
0.0505584
0.0486526
0.0466071
0.044469
0.0420954
0.0393657
0.0363491
0.033376
0.0297772
0.0265095
0.0221421
0.0124848
-0.00610491
-0.0432546
-0.135236
0.07045
0.0733423
0.0763381
0.0794979
0.0828765
0.0865194
0.0904428
0.094686
0.0992674
0.104176
0.109652
0.115593
0.122011
0.128798
0.135756
0.142742
0.15141
0.163844
0.17841
0.187929
0.191191
0.0267222
0.191006
-0.46337
0.170925
0.157719
0.146849
0.13648
0.126879
0.11825
0.110758
0.104169
0.0983652
0.0932548
0.0887073
0.084592
0.0808674
0.0774466
0.0743613
0.071415
0.068946
0.0663158
0.0638257
0.0614723
0.0593346
0.057261
0.0553402
0.0534947
0.0517111
0.0500124
0.0483871
0.0468273
0.0453182
0.0438747
0.042464
0.0411535
0.0398351
0.0388221
0.0379483
0.0366903
0.0348725
0.0337272
0.0331559
0.0320367
0.0315917
0.0306017
0.0295481
0.0287905
0.028129
0.0274267
0.0267298
0.0260741
0.0254605
0.0248819
0.0243351
0.0238195
0.0233346
0.0228794
0.0224525
0.0220529
0.0216794
0.0213311
0.0210068
0.0207056
0.0204266
0.0201687
0.019931
0.0197127
0.019513
0.019331
0.0191661
0.0190174
0.0188844
0.0187666
0.0186632
0.0185745
0.0184984
0.0184386
0.0183866
0.0183624
0.0183223
0.0183778
0.0182747
0.0186229
0.0176382
0.0184913
0.0186843
0.0185997
0.0185868
0.0186593
0.0187628
0.0188778
0.0190057
0.019149
0.0193079
0.0194818
0.0196708
0.0198751
0.0200948
0.0203302
0.0205813
0.0208482
0.0211309
0.0214293
0.0217433
0.0220726
0.022417
0.0227759
0.023149
0.0235355
0.0239347
0.0243459
0.0247682
0.0252004
0.0256414
0.0260901
0.0265452
0.0270051
0.0274684
0.0279335
0.0283987
0.0288622
0.0293223
0.029777
0.0302243
0.0306623
0.0310889
0.031502
0.0318994
0.0322791
0.0326389
0.0329765
0.03329
0.0335771
0.0338358
0.034064
0.0342598
0.0344211
0.0345462
0.0346333
0.0346808
0.0346872
0.034651
0.0345711
0.0344462
0.0342754
0.0340576
0.0337923
0.0334786
0.0331159
0.0327033
0.032241
0.0317243
0.0311652
0.0305209
0.0299668
0.0287119
0.027691
0.190499
-0.350326
-0.354969
-0.398022
-0.3672
-0.408988
-0.399588
-0.407604
-0.34627
0.0328994
0.0335048
0.0337633
0.0339771
0.0341378
0.0342084
0.0342027
0.0341446
0.0340148
0.0338112
0.0335303
0.0331735
0.0327389
0.0322252
0.0316298
0.03095
0.0301839
0.0293292
0.0283821
0.0273397
0.0261976
0.0249522
0.0235973
0.0221281
0.0205396
0.018826
0.0169794
0.0149923
0.0128559
0.0105614
0.00809852
0.00545655
0.00262272
-0.000415738
-0.00367372
-0.00716697
-0.0109133
-0.014932
-0.0192447
-0.0238747
-0.0288472
-0.0341928
-0.039941
-0.0461248
-0.052786
-0.0599665
-0.0677139
-0.0760838
-0.0851367
-0.0949403
-0.105566
-0.117102
-0.129645
-0.143312
-0.15826
-0.174511
-0.192154
-0.211453
-0.232689
-0.256103
-0.281909
-0.307986
-0.386109
-0.427924
-0.420838
-0.411781
-0.446456
-0.439129
-0.428033
-0.456088
-0.449153
-0.437971
-0.459846
-0.45228
-0.442787
-0.456211
-0.444981
-0.444236
-0.440578
0.0320873
0.0318847
0.0325302
0.0317439
0.0327246
0.0318058
0.0328905
0.0319166
0.0330093
0.0319603
0.0330388
0.0319369
0.0329992
0.0318596
0.0329056
0.0317304
0.0327435
0.0315369
0.0325106
0.0312765
0.0322042
0.0309462
0.031824
0.0305447
0.0313682
0.0300698
0.0308349
0.0295192
0.030222
0.0288908
0.0295265
0.0281817
0.0287463
0.0273897
0.0278787
0.0265117
0.0269202
0.0255444
0.0258674
0.0244844
0.0247166
0.0233279
0.0234633
0.0220706
0.0221028
0.0207079
0.0206292
0.0192345
0.0190384
0.0176454
0.0173235
0.0159345
0.0154781
0.0140953
0.013494
0.0121204
0.0113639
0.0100023
0.0090781
0.00773235
0.00662795
0.00530163
0.00400181
0.00269973
0.00118919
-8.39015e-05
-0.00182377
-0.00306162
-0.00504942
-0.00624583
-0.00850448
-0.00965131
-0.0122038
-0.0132928
-0.0161673
-0.0171879
-0.0204131
-0.0213545
-0.0249653
-0.0258136
-0.0298452
-0.0305861
-0.0350829
-0.0356982
-0.0407039
-0.0411747
-0.0467422
-0.0470455
-0.0532323
-0.0533433
-0.0602165
-0.0601045
-0.067735
-0.0673679
-0.0758417
-0.0751796
-0.0845882
-0.083588
-0.0940404
-0.09265
-0.104261
-0.102425
-0.115333
-0.112983
-0.127334
-0.124397
-0.140371
-0.136751
-0.15456
-0.15014
-0.169984
-0.164666
-0.186738
-0.180447
-0.20503
-0.197643
-0.225175
-0.216508
-0.247159
-0.237266
-0.27087
-0.25994
-0.295698
-0.284322
-0.321252
-0.309845
-0.348402
-0.336305
-0.374021
-0.36019
-0.396891
-0.382223
-0.413427
-0.398441
-0.424526
-0.408738
-0.430079
-0.414154
-0.429898
-0.415779
-0.421298
-0.414252
-0.408826
-0.413515
-0.400745
-0.401287
-0.389919
-0.37745
0.0283765
0.0274557
0.025816
0.0247765
0.0236147
0.0229558
0.0218145
0.0209628
0.0197391
0.0187245
0.0178388
0.016703
0.0156349
0.0146064
0.0135791
0.0125533
0.0115373
0.0105349
0.00954766
0.00857795
0.00762888
0.00670326
0.00580323
0.00493086
0.00408928
0.0032842
0.0025258
0.00181373
0.00107542
0.000407162
-0.000337643
-0.000682411
-0.00133849
-0.00200766
-0.00253943
-0.00296711
-0.00329734
-0.00383428
-0.00422478
-0.00452339
-0.00467506
-0.00502032
-0.00526995
-0.00549488
-0.00566536
-0.00607879
-0.00596673
-0.00615804
-0.00632479
-0.00659122
-0.00642408
-0.00667529
-0.00664155
-0.00653119
-0.00668961
-0.00676454
-0.00675221
-0.00667658
-0.0067228
-0.00665767
-0.00676993
-0.00675539
-0.00652218
-0.00672255
-0.00652683
-0.00637501
-0.00643811
-0.00629162
-0.00604979
-0.00586298
-0.00551066
-0.00561241
-0.00509078
0.0312641
0.0293278
0.0288084
0.0282475
0.0274945
0.0267334
0.0260425
0.0254105
0.024817
0.0242556
0.0237269
0.0232312
0.0227677
0.0223347
0.021931
0.0215554
0.0212066
0.0208836
0.0205852
0.0203103
0.0200579
0.019827
0.0196165
0.0194256
0.0192534
0.0190989
0.0189616
0.0188406
0.0187354
0.018645
0.0185699
0.0185079
0.0184625
0.0184257
0.0184145
0.0183948
0.018438
0.0183936
0.0184994
0.0182692
0.0184113
0.0186486
0.0187344
0.0187797
0.0188665
0.0189867
0.0191203
0.019264
0.019421
0.0195928
0.0197794
0.0199808
0.0201971
0.0204283
0.0206749
0.0209367
0.021214
0.0215066
0.0218146
0.0221377
0.0224757
0.0228283
0.0231951
0.0235756
0.0239691
0.024375
0.0247924
0.0252205
0.0256581
0.0261043
0.0265576
0.027017
0.0274808
0.0279477
0.0284159
0.0288839
0.0293499
0.0298119
0.0302682
0.0307168
0.0311555
0.0315824
0.0319954
0.0323922
0.0327709
0.0331291
0.0334647
0.0337757
0.0340597
0.0343148
0.0345388
0.0347299
0.0348859
0.0350052
0.0350859
0.0351263
0.0351249
0.0350803
0.0349911
0.0348562
0.0346746
0.0344454
0.0341677
0.0338408
0.0334639
0.0330361
0.0325564
0.0320219
0.0314304
0.030773
0.0300367
0.0293047
0.028351
0.0284212
0.0268527
0.0270135
0.0266481
0.0259391
0.0248612
0.0237499
0.0227566
0.021675
0.0206768
0.0197945
0.0186257
0.0175312
0.0165387
0.0154721
0.0144128
0.0133709
0.0123393
0.0113193
0.010314
0.0093257
0.00835676
0.00741031
0.00648912
0.00559529
0.00473058
0.00389673
0.00309518
0.00232854
0.0015961
0.000924536
0.000343994
-0.00039519
-0.00101642
-0.00157828
-0.00214521
-0.00264866
-0.00310659
-0.00349309
-0.00390507
-0.00435033
-0.00466285
-0.00478316
-0.00501564
-0.00536859
-0.00563689
-0.00580259
-0.00600564
-0.00612313
-0.00622827
-0.00637716
-0.00653261
-0.00655899
-0.00659413
-0.00663552
-0.00663117
-0.00667446
-0.00674165
-0.00673358
-0.00675611
-0.00654196
-0.00672257
-0.00670854
-0.00663647
-0.00653788
-0.00652456
-0.00643212
-0.00631062
-0.0062449
-0.00614093
-0.00589812
-0.005665
-0.00544044
-0.00541087
0.0309524
0.0298006
0.0289722
0.0282614
0.0275026
0.0267397
0.026029
0.0253748
0.0247636
0.0241881
0.0236474
0.0231416
0.0226696
0.02223
0.021821
0.0214416
0.0210903
0.020766
0.0204675
0.0201937
0.0199433
0.0197154
0.0195089
0.0193228
0.0191561
0.0190081
0.0188778
0.0187645
0.0186676
0.0185862
0.0185204
0.0184684
0.0184324
0.0184071
0.0184019
0.0183974
0.0184239
0.0184193
0.0184713
0.0184825
0.0185229
0.0186633
0.0187839
0.018874
0.018977
0.0191045
0.0192483
0.0194039
0.019572
0.0197544
0.0199512
0.0201625
0.0203884
0.020629
0.0208844
0.0211548
0.0214402
0.0217405
0.0220557
0.0223855
0.0227298
0.0230883
0.0234605
0.0238459
0.0242439
0.0246539
0.0250749
0.0255062
0.0259468
0.0263954
0.026851
0.0273121
0.0277776
0.0282457
0.0287151
0.0291839
0.0296505
0.0301131
0.0305697
0.0310184
0.0314573
0.0318842
0.032297
0.0326937
0.0330721
0.0334299
0.0337651
0.0340755
0.0343589
0.0346132
0.0348364
0.0350263
0.0351812
0.035299
0.0353781
0.0354167
0.0354132
0.0353663
0.0352746
0.0351368
0.0349521
0.0347193
0.0344377
0.0341065
0.0337251
0.0332926
0.0328083
0.0322708
0.0316796
0.031034
0.03034
0.0296077
0.0289074
0.0282202
0.0274379
0.0269648
0.0266493
0.025899
0.0248943
0.0237883
0.022728
0.0216857
0.0206294
0.0196447
0.018536
0.0174239
0.016421
0.0153714
0.014305
0.0132517
0.0122138
0.0111902
0.0101822
0.00919197
0.00822229
0.00727648
0.00635752
0.00546759
0.00460833
0.00378121
0.00298585
0.00222449
0.00149203
0.000801171
9.0072e-05
-0.000502197
-0.00115499
-0.00172922
-0.00223405
-0.0027241
-0.0031812
-0.0036051
-0.00396469
-0.00439023
-0.00468737
-0.0048403
-0.00499814
-0.00538616
-0.00569977
-0.00587264
-0.00602918
-0.00615895
-0.0062678
-0.00637863
-0.00649138
-0.00654949
-0.00661233
-0.00663441
-0.00663095
-0.00666414
-0.00669049
-0.00667278
-0.00667641
-0.00655399
-0.00676243
-0.00661014
-0.00651393
-0.00644992
-0.00639064
-0.00630148
-0.00618917
-0.00606119
-0.00591499
-0.00569107
-0.00548881
-0.0052999
-0.00501141
-0.00417667
-0.00330355
-0.00239921
-0.00170343
-0.001171
-0.0014691
0.0309652
0.0300143
0.0290813
0.0282541
0.0274703
0.0267075
0.0259842
0.0253101
0.0246808
0.0240908
0.0235377
0.023021
0.0225394
0.0220917
0.0216762
0.0212917
0.0209366
0.0206099
0.0203102
0.0200363
0.0197871
0.0195614
0.0193581
0.0191763
0.0190148
0.0188728
0.0187494
0.0186438
0.0185553
0.018483
0.0184268
0.0183852
0.0183593
0.0183457
0.0183489
0.0183586
0.0183887
0.0184152
0.0184734
0.0185213
0.0185779
0.0186919
0.0188227
0.0189431
0.0190668
0.0192073
0.0193641
0.0195341
0.0197166
0.0199127
0.0201228
0.020347
0.0205855
0.0208383
0.0211054
0.021387
0.0216831
0.0219936
0.0223184
0.0226573
0.02301
0.0233763
0.0237558
0.0241478
0.0245518
0.0249672
0.0253931
0.0258287
0.0262729
0.0267247
0.027183
0.0276464
0.0281136
0.0285831
0.0290534
0.0295228
0.0299897
0.0304523
0.0309086
0.0313569
0.031795
0.032221
0.0326328
0.0330282
0.0334053
0.0337617
0.0340954
0.0344041
0.0346859
0.0349384
0.0351597
0.0353478
0.0355006
0.0356163
0.0356931
0.0357294
0.0357234
0.0356738
0.0355792
0.0354385
0.0352504
0.0350142
0.0347289
0.0343941
0.034009
0.0335732
0.0330867
0.0325494
0.0319626
0.0313294
0.0306555
0.0299561
0.0292302
0.0285507
0.0278454
0.0272231
0.0266594
0.0258781
0.0248814
0.023816
0.0227697
0.0217355
0.0206894
0.0196445
0.018571
0.0174901
0.016436
0.0153765
0.0143094
0.0132508
0.0122068
0.0111782
0.0101658
0.00917178
0.00819911
0.00725105
0.00633039
0.00543927
0.00457917
0.00375134
0.00295499
0.00219117
0.00145561
0.000765231
9.4739e-05
-0.000528657
-0.00117943
-0.00174046
-0.00224648
-0.00273012
-0.00318246
-0.00360419
-0.00397312
-0.00437468
-0.00466037
-0.00485272
-0.00504915
-0.00541212
-0.00567846
-0.00585342
-0.00600316
-0.00613239
-0.00625427
-0.00635922
-0.00645442
-0.00651949
-0.0065695
-0.00659712
-0.00660727
-0.00662248
-0.00663288
-0.00661988
-0.00660597
-0.00657185
-0.00657128
-0.00650267
-0.00642091
-0.00634315
-0.00626047
-0.0061568
-0.00602812
-0.00587869
-0.00570644
-0.00549804
-0.00526522
-0.00498856
-0.0046095
-0.00395535
-0.00314308
-0.00240446
-0.0018326
-0.00132883
-0.000882635
0.0309864
0.0300304
0.0290807
0.0282067
0.0273971
0.0266254
0.0258907
0.0252001
0.0245543
0.0239501
0.0233848
0.0228573
0.0223663
0.0219104
0.0214883
0.0210985
0.0207396
0.0204103
0.0201093
0.0198353
0.0195872
0.0193637
0.0191637
0.0189862
0.0188301
0.0186943
0.0185782
0.0184807
0.0184012
0.0183387
0.0182929
0.0182626
0.0182481
0.0182473
0.018262
0.0182875
0.0183295
0.0183791
0.0184461
0.0185187
0.0186038
0.0187203
0.018857
0.0189973
0.0191424
0.0193005
0.0194738
0.0196609
0.0198609
0.0200741
0.0203009
0.0205415
0.020796
0.0210643
0.0213466
0.0216427
0.0219528
0.0222766
0.0226141
0.0229649
0.023329
0.0237057
0.0240949
0.0244958
0.024908
0.0253307
0.0257632
0.0262046
0.0266538
0.02711
0.0275718
0.028038
0.0285074
0.0289785
0.0294497
0.0299196
0.0303863
0.0308482
0.0313034
0.0317501
0.0321863
0.03261
0.0330192
0.0334118
0.0337856
0.0341387
0.0344688
0.0347738
0.0350516
0.0353001
0.0355172
0.035701
0.0358494
0.0359607
0.0360329
0.0360644
0.0360537
0.0359992
0.0358996
0.0357538
0.0355607
0.0353193
0.035029
0.0346893
0.0342997
0.0338603
0.0333714
0.0328339
0.0322498
0.031623
0.0309576
0.0302667
0.0295491
0.0288541
0.0281415