/*--------------------------------*- C++ -*----------------------------------*\
  =========                 |
  \\      /  F ield         | OpenFOAM: The Open Source CFD Toolbox
   \\    /   O peration     | Website:  https://openfoam.org
    \\  /    A nd           | Version:  10
     \\/     M anipulation  |
\*---------------------------------------------------------------------------*/
FoamFile
{
    format      ascii;
    class       surfaceScalarField;
    location    "20";
    object      phi;
}
// * * * * * * * * * * * * * * * * * * * * * * * * * * * * * * * * * * * * * //

dimensions      [0 3 -1 0 0 0 0];

internalField   nonuniform List<scalar> 
81299
(
0.0323845
0.0264386
-0.0398771
-0.018946
0.0510745
-0.0307522
0.0120622
-0.0528597
-0.0248918
0.0197509
0.0580007
-0.00917791
0.0298207
-0.0735025
0.0753974
-0.0792028
-0.00537249
0.0583639
-0.00785836
0.0827999
-0.00468514
-0.0436009
0.0342527
0.0673489
0.0445376
-0.0583178
-0.0579782
-0.0312151
0.0111165
0.0780768
0.00143672
-0.0347259
-0.0246891
0.0368326
-0.00783153
-0.0275644
-0.0174895
0.0231071
-0.0425131
-0.000366999
0.0539966
-0.0204874
0.00957527
-0.0316009
-0.0287747
-0.125727
0.0309871
0.109774
-0.0150348
-0.00867415
0.0182748
-0.0194008
0.0202144
0.025269
-0.0199499
-0.0255334
0.00106231
0.0531692
-0.0340172
-0.0378444
-0.0345958
-0.011247
0.0033353
0.0154898
-0.00757812
-0.0176577
-0.00142083
-0.000132214
-0.0380792
-0.0787623
0.0270544
0.0826949
0.0362392
-0.0476526
0.07981
0.0141569
-0.0669125
0.0749144
-0.00676388
0.0116594
-0.0605071
0.033831
0.0461652
-0.0194891
-0.00879058
-0.0907517
0.0390352
0.0732844
-0.0071606
-0.0148207
0.00836732
0.0114481
-0.00737992
-0.0124355
0.00998805
0.00698486
-0.00860559
-0.00610201
0.00788654
0.00820351
0.00771489
-0.00236875
0.019526
-0.0195369
-0.0070209
0.00703176
-0.000147164
0.0211521
-0.00147891
0.00258915
-0.0123861
-0.0097399
-0.0166119
0.017778
0.00142306
0.000499009
-0.0174613
0.000350455
0.00215963
-0.0140467
-0.015689
0.00810873
0.00115331
-0.0176146
-0.0010001
0.00365493
-0.0165484
-0.0142503
0.00221621
-0.0347328
-0.0349967
0.0220382
0.0476913
-0.0314102
0.0190223
-0.0223449
0.0205034
-0.0437269
-0.00818673
-0.0372748
0.0227815
-0.0426996
0.0262882
0.0391573
-0.0227459
0.0221846
-0.0428461
0.0898604
0.0184614
-0.0534603
-0.0548615
-0.00412976
0.0262157
0.0677745
-0.0636909
0.0576121
0.00194904
0.011032
-0.0562615
0.0221092
-0.0417385
0.0628941
-0.0715903
0.0915614
-0.0459172
0.0172499
0.0592172
0.0585598
-0.0443407
0.0366122
0.0394895
-0.031761
0.028126
-0.0461785
0.0498443
0.0234692
-0.0451875
0.0170416
0.0694148
0.000907072
-0.000435291
-0.00165453
0.00118275
-0.00105854
0.00196561
-0.00149383
-0.000269776
0.00022786
0.000981471
-0.000939555
0.000208307
-0.000478082
0.000436167
1.80807e-05
0.000571632
0.000580956
-0.00117067
0.000330443
-0.000312362
0.000902075
0.0304165
0.00147995
-0.00571528
-0.0261812
0.0218584
-0.0179303
0.0264884
-0.0211371
-0.0102268
-0.00943028
0.00417087
-0.00723915
-0.00388527
0.00695355
-0.026274
0.00970616
0.0164207
-0.0125227
-0.00958041
-0.0110123
0.0207184
0.0100207
-0.0243827
0.0304274
-0.0160655
-0.0290018
-0.00470435
-0.00124444
-0.00150304
-0.0262543
-0.00112863
-0.0244985
-0.0206781
-0.0233005
0.0285679
0.0154108
-0.00730408
0.0183519
-0.031726
0.00479573
-0.0354003
0.0665337
0.0422362
-0.0202501
-0.0885198
0.01764
-0.117289
0.104723
-0.00507338
0.0921058
-0.00793211
0.00462264
-0.0628502
-0.0590616
0.044241
-0.0787394
-0.00958596
0.0440844
0.0116858
0.0212761
-0.012926
-0.0171324
0.00878227
-0.0187919
0.0379239
0.00214417
-0.00873961
-0.0157676
-0.00304922
-0.0186164
-0.0204257
0.00024411
0.117952
0.00173516
-0.047622
0.0455205
0.0716798
0.000752182
-0.00158369
0.000681947
-0.00105995
0.00196169
-0.000114083
0.00237068
-0.00384028
-0.00471786
0.00438299
-0.00123525
0.00157012
-0.00481734
0.00181699
-0.0017175
0.0282072
0.0221596
-0.0311299
-0.0192368
0.0213597
0.0152746
0.00136086
-0.0122622
-0.00437326
0.00288205
0.0058619
0.00653061
-0.00201619
-0.00434661
0.00596232
0.000400477
0.00940843
-0.00370973
-0.0146864
0.037419
0.0227879
0.0117988
0.00606398
-0.0044983
-0.0133645
-0.0126498
-0.00173257
0.0150861
-0.00835549
0.0144215
0.0110862
0.0204206
-0.024855
-0.00439537
0.0292504
-0.0107551
-0.0141
-0.0239437
0.0345459
-0.0213573
0.0048149
-0.0118427
-0.0169159
-0.0009673
-0.0042495
0.0052168
-0.0065096
-0.00720867
0.012751
-0.00928508
0.001748
-0.00180888
-0.0164875
-0.0136083
0.00110607
-0.0114349
-0.0110385
0.00181984
0.00545928
-0.00289981
-0.00255948
-0.00476755
0.0340999
0.00248488
0.00190006
0.0229097
-0.0380449
0.00351757
0.033569
0.000958261
-0.0282899
0.0029298
-0.0126848
0.0301703
0.0136431
-0.0258236
-0.0179898
0.0235813
0.026885
-0.0321144
0.0152025
0.0369466
0.0520088
0.0171124
-0.00209888
0.0331691
0.00343121
-0.0345014
0.0380944
-0.0361806
-0.00401267
0.000748212
-0.000485858
0.0378321
-0.00324138
0.0371586
0.0320581
-0.0241977
-0.00907698
0.00121654
0.0362684
-0.000779086
-0.00609622
-8.51429e-06
0.000388332
0.0057164
-0.00466311
0.00106766
-0.00250077
-0.00431888
-0.00227731
0.00193308
-0.0035501
0.00286137
0.00126968
-0.000634538
-0.000718025
0.000181894
-0.00130258
0.0162143
-0.0164153
0.0309441
0.0532457
0.0452039
-0.00400717
7.79028e-05
0.00133921
0.00296588
-0.000637463
0.000647386
6.798e-05
-0.00175566
-0.000117051
0.000200046
0.00178655
-0.000115373
-0.0020981
-0.00260388
-0.00162209
-0.000248949
-0.00304706
-0.000673126
-0.00762579
0.00924232
-0.000591718
-0.00102482
-0.0130601
0.00715262
-0.00171827
-0.0139899
0.00148149
-0.000551762
-0.000897143
0.000955416
0.0189061
0.000472692
-0.0316409
0.0236632
0.00110474
-0.0268581
-0.00176695
0.0522883
-0.0432626
0.0192687
0.0427971
0.00198726
-0.035542
0.00706049
-0.00850596
-0.000321477
-0.000851487
0.00791549
-3.51806e-06
0.0238724
-0.00796605
0.000564828
-0.0233785
-0.0122757
0.016375
0.0192792
-0.00338493
0.0261964
0.0207562
-0.00915123
-0.0378014
-0.0147275
0.00690831
0.0340157
0.0280972
-0.0220685
-0.000419718
0.00172509
0.000264742
0.001163
0.000234278
-0.0077159
0.00565674
0.00205064
-0.00694516
0.000296924
0.0632886
-0.00266975
-0.0489331
0.0244389
-0.0070674
0.0266091
0.00806813
-0.00198559
-0.0326917
-0.0172916
0.00373914
0.0401616
0.0225516
-0.031775
-0.0182466
-0.0164585
0.0226011
0.012104
0.00385082
0.00217223
-0.0242696
0.0151765
-0.0277842
0.0222234
-0.042288
0.0177929
-0.038832
0.00321888
0.00286888
0.00648185
-0.0125696
-0.0011165
0.00426757
6.78107e-05
-0.00263548
0.000621837
-0.00413986
0.0478511
0.0146828
-0.0279872
-0.0345467
0.0126526
0.074688
-0.0284129
0.000681756
0.0403838
-0.025433
0.0117029
-0.00404205
-2.51349e-05
0.000969476
0.00309771
-0.000177235
-0.0039789
0.00192797
-0.0021052
0.00190283
-0.0295668
0.0344344
-0.00112849
0.00201904
-0.0335715
-0.00392056
0.000623609
0.00121017
-0.0081096
-0.00253084
-0.00108111
-0.0103585
0.0382313
-0.00520544
-0.0477123
0.0183018
0.0238854
-0.00395578
0.0491729
0.0354758
0.0381223
-0.0222322
-0.0513659
0.0296974
0.0358149
-0.0300364
-0.0252299
0.0263278
0.0285995
-0.0202292
0.0331216
0.0590402
0.0237081
-0.0110685
-0.00688835
0.0436963
0.0171055
-0.0176874
0.0237186
-0.0280236
0.0214106
-0.0182517
-0.00117174
0.000976038
-0.0180839
-0.00114386
-0.00294729
0.0393971
0.0127231
-0.0263031
0.0166729
0.0096302
0.0218375
0.0226728
-0.0181826
-0.0046173
0.00295366
0.0086485
-0.041812
0.0165612
-0.00287905
0.0281298
-0.037764
0.00246747
-0.00651543
0.00475669
-0.000696469
-0.00350846
-0.000551763
0.00396783
-0.000271088
0.0392934
-0.0229355
0.0145863
-0.00109812
-0.00244962
-3.97611e-05
0.00358751
-0.00323086
0.00285915
-0.000726407
0.00453208
-0.0074292
-0.000333742
0.00234669
-0.000264239
-0.00271398
0.00180432
0.000869905
0.0060959
-0.00610503
0.00334443
0.00409614
0.000821812
-0.000128031
-0.000693781
0.000108872
0.000712941
0.0178687
0.0133373
-0.00834811
-0.0228579
0.0177922
-0.0279107
-0.0212307
0.0135899
-0.0107276
0.00283423
0.0360129
-0.00684936
-0.0338679
-0.00449522
0.0323214
-0.0335327
0.0050707
0.0239668
-0.0111771
-0.0292049
0.0182551
0.0336159
-0.0117598
-0.0401112
0.0262962
-0.0401296
0.0320884
-0.0175477
0.00437696
0.039467
0.0417303
-0.0256621
0.00289496
-0.0191125
-0.00117031
0.0173878
-0.0163056
-0.0049971
-0.0188569
-0.000703234
0.000335946
0.000964584
-0.00295774
0.00128992
0.000993386
0.000307145
0.000465404
-0.000701823
-0.00411019
-0.000830045
0.00129545
-0.00153187
0.00173411
0.000172781
0.00236067
-0.000969352
0.00270346
-0.00079657
-0.0149417
-0.0102595
0.0159114
0.00928982
0.00331945
0.00564179
-0.0239029
0.0178373
-0.0247773
-0.00635729
-0.00905449
0.0045555
0.0108563
0.0157519
-0.0328624
0.0396621
-0.0407537
0.00579608
0.0500971
-0.0151395
-0.0331371
0.000416799
0.0326765
4.37769e-05
0.00219728
0.0333355
-0.0327223
-0.0028105
0.00184155
0.0346671
-0.0343113
0.00225585
0.034712
-0.0351263
0.00213113
0.0350489
-0.0349242
0.00101181
0.0348514
-0.0337321
0.00294011
0.034241
-0.0361693
0.00487751
0.0331118
-0.0350492
0.00482378
0.0343707
-0.034317
0.00618893
0.0328966
-0.0342618
0.00612741
0.0339937
-0.0339322
0.00731756
0.032716
-0.0339062
0.00725654
0.0336693
-0.0336083
0.00828825
0.032575
-0.0336067
0.00822925
0.0333946
-0.0333356
0.00911887
0.0324664
-0.033356
0.00906303
0.0331643
-0.0331085
0.0110604
0.0311508
-0.0331482
0.0103896
0.0335963
-0.0329255
0.0104315
0.0329433
-0.0329853
0.0103844
0.032825
-0.0327779
0.0109457
0.0322952
-0.0328565
0.0109043
0.0327109
-0.0326695
0.0113863
0.032284
-0.0327659
0.0113507
0.0326323
-0.0325968
0.0117665
0.032295
-0.0327107
0.0117372
0.0325888
-0.0325596
0.0120988
0.03233
-0.0326916
0.0120766
0.0325809
-0.0325587
0.0123949
0.0323913
-0.0327096
0.0123804
0.0326105
-0.032596
0.0126654
0.0324827
-0.0327676
0.0126598
0.0326807
-0.032675
0.012918
0.0326103
-0.0328685
0.00972131
0.0359954
-0.0327987
0.0112664
0.0314719
-0.0330169
0.021216
0.0271411
-0.0370908
-0.0123553
0.00345804
0.0301133
-0.0381348
0.0292971
-0.0356793
-0.00384468
0.0047539
0.0347701
-0.00363551
0.00150438
-0.0335482
-0.004949
0.0354805
-0.034167
0.0356409
-0.00623567
-0.0343543
0.00459613
-0.00525833
0.0363031
0.036232
-0.00552762
0.00296035
0.0359027
0.0345803
-0.035354
-0.00258153
0.00189874
0.0353948
0.0350459
-0.00150412
0.00145237
0.0349032
0.0354435
-0.00170646
0.00178135
0.0330369
0.0339869
-0.00165972
0.00154322
0.0330131
0.0344923
-0.0014244
0.00131171
0.0328287
0.0341125
-0.00119909
0.00109255
0.0326815
0.0337819
-0.000986434
0.000885314
0.0325675
0.0335007
-0.00136311
-0.000544122
0.0330581
0.0326865
1.89467e-05
0.000503094
0.0324213
0.0330711
-0.000412047
0.000324148
0.0323831
0.032916
-0.000237112
0.00015277
0.0323683
0.0327979
-6.91095e-05
-1.23632e-05
0.0323765
0.032716
9.31239e-05
-0.000172011
0.0324089
0.0326696
0.000250295
-0.000326984
0.032468
0.0326592
0.000403102
-0.00047783
0.0325574
0.0326866
0.000551943
-0.000384578
0.0324429
0.0327548
-0.00322723
0.00189819
0.0328009
0.0323836
0.0324973
0.0021676
0.00196654
-0.0368564
-0.0344926
0.0381645
-0.00281481
0.00249445
-0.0348059
-0.0351596
-0.00208807
0.00379094
-0.035435
-0.0345178
-0.0036323
0.0026279
-0.0340448
-0.0360106
-0.0017092
0.00157452
-0.0341271
-0.0333983
-0.00144395
0.00132087
-0.0337831
-0.0338016
-0.00120022
0.00108572
-0.0334922
-0.0334876
-0.000973621
0.000866481
-0.0332489
-0.0332235
-0.000761583
0.000661788
-0.0330484
-0.0330036
-0.000561192
0.000465191
-0.0328893
-0.0328249
-0.000372649
0.000282059
-0.0327659
-0.0326853
-0.000192971
0.000105756
-0.0326787
-0.0325804
-2.02698e-05
-6.37273e-05
-0.0326267
-0.0325113
0.000146158
-0.00022748
-0.0326103
-0.0324771
0.000307304
-0.000386344
-0.0326306
-0.0324788
0.000463967
-0.000540839
-0.0326908
-0.0325184
0.00061544
-0.000687086
-0.0327969
-0.0326004
0.00075539
0.000557299
-0.0343296
-0.0327304
0.00252154
-0.0076635
-0.0329928
-0.0340119
-0.006239
-0.0364933
0.037474
-0.0374446
-0.00657168
0.0377773
0.00706303
-0.00821735
-0.0362903
-0.035666
-0.037704
-0.00993679
0.0410691
-0.0368078
-0.00911356
-0.0119996
-0.0380668
-0.00301274
0.00173662
0.0313894
-0.00441271
0.030697
-0.00104163
-0.0349117
0.00416566
-0.00554042
-0.0327923
0.00359631
-0.0329788
-0.00594501
-0.0339497
-0.00789099
0.00669846
-0.0350978
-0.0356743
-0.00902449
-0.046697
-0.00586441
0.0408016
-0.00909135
-0.0430195
-0.00109752
0.0375629
-0.00380899
0.00423764
0.0373486
0.0361626
-0.00419258
0.00354108
0.0369546
0.0375191
-0.00345727
0.00199013
0.0362372
0.0363158
-0.00155508
0.00168736
0.0357705
0.0350154
-0.00171865
0.00207685
0.0350366
0.0350146
-0.00192229
0.00215285
0.0346726
0.0355981
-0.00253616
0.00171987
0.0338532
0.0336036
-0.00159616
0.00148067
0.0331286
0.0346161
-0.00136826
0.00125927
0.0329377
0.0342249
-0.00115254
0.00104898
0.0327851
0.0338886
-0.000947767
0.000849557
0.0326657
0.0336019
-0.000517034
0.000658585
0.0329165
0.0330191
-0.000567078
0.000477842
0.0325105
0.0331626
-0.000389741
0.000303476
0.0324694
0.0330041
-0.00021884
0.000135906
0.0324512
0.0328826
-5.43654e-05
-2.57326e-05
0.0324565
0.0327975
0.000104573
-0.000182143
0.0324865
0.0327484
0.000258653
-0.000334057
0.0325434
0.0327357
0.000408557
-0.000482056
0.0326309
0.0327611
0.000554482
-0.000865433
0.0327539
0.0328272
0.000793581
-0.0010719
0.0330792
0.0323117
0.033162
-0.0030404
0.0321967
-0.034452
-0.00421001
0.0376204
-0.0343496
0.0363797
-0.00107181
-0.00648423
-0.0249355
-0.00333499
0.00229645
-0.0358179
-0.0342312
-0.00223642
0.00226451
-0.034834
-0.0350996
-0.00302595
0.00270236
-0.0351114
-0.0352793
-0.00124389
0.00117939
-0.0339803
-0.0345521
-0.0018039
0.00166487
-0.033988
-0.0340228
-0.00153432
0.00140746
-0.0336562
-0.0336711
-0.00128675
0.00116888
-0.0333743
-0.0333669
-0.00105636
0.000946153
-0.0331387
-0.0331109
-0.000840771
0.000737609
-0.0329452
-0.0328982
-0.000638469
0.000539928
-0.0327907
-0.0327258
-0.000444945
0.000351475
-0.0326724
-0.0325903
-0.000261206
0.000171808
-0.0325893
-0.0324902
-8.51668e-05
-8.73727e-07
-0.0325407
-0.0324246
8.44998e-05
-0.00016776
-0.032527
-0.0323935
0.000248863
-0.000329783
-0.0325497
-0.0323977
0.000408785
-0.000487974
-0.0326116
-0.0324394
0.000566544
-0.000647261
-0.0327162
-0.0325219
0.000726374
-0.00158431
-0.0334717
-0.0326513
0.00260148
-0.0015312
-0.0340631
-0.0329947
0.00254042
-0.0342968
-0.00269558
-0.0339025
-0.0349125
0.00456172
-0.00491537
-0.0324386
0.003742
-0.0321591
-0.00568669
-0.0331783
-0.00589771
0.00563035
-0.0348304
-0.00567159
-0.0359004
-0.0025238
0.0022765
-0.0340495
-0.0339631
0.0349779
-0.00371036
-0.00227138
-0.0342155
-0.0112144
-0.0445739
-0.0385998
-0.00858053
0.00037058
0.0329687
-0.0386283
-0.00899594
-0.0328595
9.30356e-05
-0.00663415
0.00708657
0.0412779
-0.0452144
-0.00140372
0.0446728
-0.0429958
0.00411904
-0.0025936
0.0409288
0.00633767
0.0408694
-0.00614942
0.00521971
0.0384926
0.0404041
-0.0033828
0.00300638
0.0377251
0.0379995
-0.00331956
0.00392279
0.0363514
0.0372059
-0.00241133
0.00346239
0.0351862
0.0378273
-0.00144966
0.00259423
0.0346259
0.0370281
-0.00127205
0.00213413
0.0341745
0.0363368
-0.00200356
0.00287799
0.0337982
0.0357287
-0.00128433
0.00164583
0.0334917
0.0351972
-0.00153021
0.00141772
0.0332411
0.0347317
-0.00131054
0.00120489
0.0330434
0.0343321
-0.00110344
0.00100303
0.0328855
0.0339901
-0.000906354
0.000810701
0.0327614
0.0336986
-0.000376511
0.000626525
0.0326665
0.0334533
-0.000537801
0.000450059
0.0325983
0.0332513
-0.00036498
0.000280566
0.0325538
0.0330892
-0.000198474
0.000117093
0.0325326
0.0329646
-3.77644e-05
-4.08936e-05
0.0325352
0.0328769
0.000117783
-0.000194035
0.0325627
0.0328253
0.000268755
-0.000342877
0.0326175
0.0328104
0.000415708
-0.000488057
0.0327032
0.0328339
0.000559565
-0.000630448
0.0328247
0.0328987
0.00108569
-0.00124058
0.0332341
0.032767
0.00090697
-0.00207126
0.0325537
0.0328284
0.00283201
-0.00251615
0.0318809
0.0314578
0.0308693
0.0317217
-0.0341208
-0.00408515
-0.0022096
-0.00335295
-0.00326418
0.00268985
-0.0352435
-0.0337534
-0.00285751
0.0030469
-0.0350234
-0.0352672
-0.00250968
0.002028
-0.0346297
-0.034742
-0.00175573
0.00198643
-0.034211
-0.0342799
-0.00183837
0.00169211
-0.0338418
-0.0338747
-0.00155472
0.00142209
-0.0335236
-0.0335337
-0.00129673
0.00117451
-0.0332521
-0.0332415
-0.00105843
0.000944814
-0.033025
-0.0329949
-0.000836627
0.000730154
-0.0328387
-0.03279
-0.0006283
0.000527823
-0.0326903
-0.0326239
-0.000431625
0.000336387
-0.0325772
-0.0324941
-0.000244808
0.0001537
-0.0324982
-0.0323986
-6.58621e-05
-2.18013e-05
-0.032453
-0.0323368
0.000106526
-0.000191361
-0.0324422
-0.0323088
0.000273542
-0.000356058
-0.0324671
-0.0323156
0.000436135
-0.000516667
-0.032531
-0.0323593
0.00059454
-0.000671916
-0.0326388
-0.032444
0.000747323
-0.00142116
-0.0327978
-0.0325759
0.00147747
-0.00195228
-0.0335883
-0.0329384
-0.0335783
-0.0349689
-0.00687828
-0.0374216
0.00450378
-0.00455631
-0.0323861
0.00471134
-0.0323667
-0.0349406
0.0338804
-0.00265016
-0.0346821
-0.00252991
-0.00409775
-0.0336369
-0.0507922
-0.00563662
0.00486658
0.00198069
0.0258292
-0.0305031
0.0201863
0.0151834
0.00141789
-0.0458174
-0.0116791
-0.0399209
-0.0405708
-0.0156822
-0.00290601
0.00300007
0.0408347
-0.03794
-0.0067576
0.0417916
0.014621
-0.0462234
-0.0385953
-0.0103216
-0.00691159
-0.0385619
-0.0030594
0.00419365
0.0401436
0.0408101
-0.0050905
0.00448313
0.0391
0.0395073
-0.00322115
0.00409703
0.0368492
0.0392615
-0.00243657
0.00277969
0.0360083
0.0388664
-0.00265083
0.00251302
0.035324
0.0379561
-0.00238687
0.00225226
0.0347605
0.0371543
-0.00213474
0.00201372
0.0342955
0.0364543
-0.00190195
0.00178445
0.0339157
0.0358405
-0.00167668
0.0015631
0.0336053
0.035305
-0.00145941
0.001351
0.0333495
0.0348354
-0.00125164
0.00114861
0.0331464
0.0344315
-0.00105361
0.000955415
0.0329837
0.0340851
-0.000864211
0.000770292
0.0328553
0.0337898
-0.000682247
0.00059235
0.0327564
0.0335413
-0.000507842
0.000421474
0.0326846
0.0333358
-0.000339719
0.000256617
0.0326369
0.0331709
-0.000177473
9.73273e-05
0.0326128
0.0330438
-2.05713e-05
-5.69367e-05
0.0326127
0.0329536
0.000131566
-0.000206679
0.0326378
0.0328999
0.00027938
-0.000352386
0.0326905
0.0328831
0.000423401
-0.000494647
0.0327745
0.0329049
0.000564361
-0.000634233
0.0328946
0.0329684
0.000945287
-0.000771724
0.0330606
0.033078
0.00118936
-0.00130219
0.0326665
0.033246
0.00251321
-0.00198625
0.0313539
0.0326688
0.0308638
0.0320781
-0.031891
-9.40867e-05
0.00161876
0.032102
-0.0333334
-0.0028537
-0.00199861
-0.00280594
-0.00398334
0.0031604
-0.0344206
-0.0330254
-0.00294713
0.00274671
-0.034823
-0.035054
-0.00255722
0.00237309
-0.0344456
-0.0345526
-0.00220261
0.00204149
-0.0340499
-0.0341094
-0.001891
0.00174396
-0.0336947
-0.0337242
-0.00160537
0.00146966
-0.0333879
-0.0333951
-0.00134225
0.0012171
-0.0331269
-0.0331141
-0.0010993
0.000983052
-0.0329088
-0.0328771
-0.000873369
0.000764625
-0.03273
-0.0326804
-0.00066176
0.000559159
-0.0325877
-0.032521
-0.000461776
0.000364352
-0.0324798
-0.0323967
-0.000271763
0.000178706
-0.0324051
-0.032306
-9.00137e-05
4.8533e-07
-0.0323635
-0.0322481
8.50498e-05
-0.00017173
-0.0323555
-0.0322233
0.000254737
-0.000339173
-0.0323827
-0.0322325
0.000420262
-0.000503162
-0.0324481
-0.0322782
0.000583167
-0.000665444
-0.0325565
-0.032364
0.000745184
-0.000827631
-0.0327154
-0.0324961
0.001084
-0.00173925
-0.032933
-0.0326821
0.00172406
-0.0020993
-0.0336743
-0.0335935
0.0402869
0.0278964
-0.0535623
-0.009544
0.0430733
-0.0382111
-0.0126813
0.0027054
-0.0448097
0.00207895
-0.0343669
-0.00239419
-0.0342359
0.00497511
-0.0056538
-0.0341517
-0.0340915
0.00503077
-0.00565717
-0.0367952
-0.0365234
-0.039819
-0.00530373
0.0403123
-0.0219599
0.000745471
-0.0516024
0.00118889
-0.0445807
0.00760782
-0.00801076
0.0407152
0.00635833
0.0443228
-0.0031232
0.00353319
-0.0327767
-0.00214228
-0.033367
-0.0508265
-0.0156478
0.0396786
-0.0594458
-0.0021927
-0.00731837
0.0389862
-0.00648211
-0.037737
-0.00236635
0.00211635
-0.0341169
-0.0347542
0.0349905
-0.00263046
-0.00221408
-0.0349065
-0.052362
-0.00633828
0.000334597
-0.0517886
-0.0104272
-0.0399863
-0.00456288
0.00368883
0.0417087
0.043587
-0.00405415
0.00420764
0.0399901
0.0404447
-0.00259568
0.00369286
0.0380028
0.0411192
-0.00293618
0.00280392
0.0369815
0.0400181
-0.00269982
0.0025644
0.0361437
0.0389705
-0.00246567
0.00233567
0.035454
0.0380549
-0.00223739
0.0021116
0.0348863
0.0372525
-0.0020149
0.00189387
0.0344165
0.036551
-0.0018001
0.0016843
0.0340315
0.0359342
-0.0015914
0.0014797
0.033717
0.0353979
-0.00138852
0.00128149
0.0334565
0.0349265
-0.00119288
0.00109052
0.0332487
0.0345201
-0.00100428
0.000906378
0.0330816
0.0341713
-0.000822485
0.000728755
0.032949
0.0338737
-0.00064717
0.000557334
0.0328462
0.0336229
-0.000477967
0.000391887
0.0327707
0.0334152
-0.000314556
0.000231771
0.0327197
0.0332483
-0.000156398
7.66733e-05
0.0326925
0.0331192
-3.17267e-06
-7.37977e-05
0.0326897
0.0330271
0.000145595
-0.000220065
0.0327123
0.0329717
0.000290285
-0.000362558
0.0327628
0.0329533
0.000431368
-0.000501757
0.0328449
0.0329738
0.000569423
-0.000638342
0.0329635
0.0330361
0.00070528
-0.000772697
0.033128
0.033145
0.000838172
-0.00114902
0.0329774
0.0333115
0.00173549
-0.00290636
0.0325248
0.0332553
0.00642073
0.0395948
0.0343781
0.0328304
-0.032462
-0.000462517
-0.0316213
0.0412043
0.00560036
0.00282791
0.0328568
-0.033919
-0.00179147
-0.0016038
0.0347453
-0.0350964
-0.002299
-0.00197973
-0.00263586
-0.00383458
0.00324405
-0.0338301
-0.0333268
-0.00302309
0.00281512
-0.034615
-0.034833
-0.00261847
0.00242787
-0.034255
-0.0343559
-0.00225345
0.00208389
-0.0338803
-0.033935
-0.00192787
0.00177393
-0.0335408
-0.0335682
-0.00163201
0.00149148
-0.0332474
-0.0332532
-0.00136191
0.00123283
-0.0329979
-0.0329846
-0.00111356
0.000993967
-0.0327892
-0.0327578
-0.00088327
0.000771545
-0.0326183
-0.0325697
-0.000667946
0.000562769
-0.0324825
-0.0324174
-0.000465118
0.000365378
-0.03238
-0.0322991
-0.00027261
0.000177298
-0.0323098
-0.0322132
-8.84854e-05
-3.25941e-06
-0.0322718
-0.0321593
8.89041e-05
-0.000177817
-0.0322666
-0.0321376
0.000260969
-0.000347692
-0.032296
-0.0321494
0.000428928
-0.000513948
-0.0323631
-0.032197
0.000593613
-0.000677293
-0.0324728
-0.0322843
0.000756192
-0.000839521
-0.032632
-0.0324172
0.000917633
-0.00100043
-0.0328502
-0.032604
0.00173891
-0.00162041
-0.0337928
-0.032855
-0.0337399
-0.00317661
-0.0326026
0.00416693
-0.00445335
-0.0338653
-0.0331012
0.00519215
-0.00614085
-0.0358465
-0.0357846
-0.0237166
-0.0397912
0.00271945
-0.00556642
0.0435622
0.00371521
0.0433271
-0.0361326
0.0357225
-0.0474765
-0.000529243
0.00292493
0.0371992
0.00315223
0.0375228
-0.0373306
-0.00897047
-0.00801959
-0.0358583
-0.0352526
0.0353791
-0.0027569
-0.0349348
-0.00253191
-0.0259246
-0.0368646
0.0139506
-0.0581968
-0.00805722
0.041477
-0.0500976
-0.0173389
-0.0331601
0.0161818
-0.0281167
0.0450949
0.00257567
-0.00307633
-0.0328664
0.00304578
-0.0332468
-0.00425217
0.00402095
0.04194
0.0430501
-0.00320241
0.00281477
0.0403778
0.0412633
-0.00279674
0.00268989
0.0381096
0.0411373
-0.00265898
0.0025347
0.0371057
0.040049
-0.00248223
0.00235152
0.0362744
0.0390229
-0.00229069
0.00216035
0.0355843
0.0381157
-0.00209516
0.0019677
0.0350137
0.0373177
-0.0018996
0.00177482
0.0345413
0.0366191
-0.00170421
0.00158378
0.0341519
0.0360048
-0.00151174
0.00139572
0.033833
0.0354699
-0.00132227
0.00121087
0.0335679
0.035
-0.00113739
0.00103107
0.0333551
0.0345935
-0.000957607
0.00085609
0.0331831
0.0342448
-0.000782943
0.000686102
0.0330459
0.0339468
-0.000613568
0.000521159
0.0329386
0.0336954
-0.00044936
0.000361168
0.0328589
0.033487
-0.000290257
0.000205859
0.032804
0.0333192
-0.000135888
5.49817e-05
0.0327734
0.0331891
1.40075e-05
-9.16611e-05
0.0327673
0.0330961
0.000159536
-0.000234393
0.0327871
0.0330396
0.000301259
-0.000373608
0.0328352
0.0330202
0.000439509
-0.000509685
0.0329151
0.0330397
0.000574758
-0.000643181
0.033032
0.0331012
0.000707756
-0.000774619
0.0331948
0.0332096
0.000838291
-0.00127133
0.0334104
0.0333752
0.00161819
-0.00265496
0.0335616
0.0336021
0.0346481
0.0334098
-0.0334302
-0.000442121
-0.0348984
0.0377847
0.002714
0.00133934
0.0337023
-0.0341374
-0.00135637
-0.00133174
0.0347426
-0.0352414
-0.00180026
-0.00137445
-0.00249818
-0.0031606
0.00332647
-0.0339959
-0.0334416
-0.00309023
0.00287154
-0.0343963
-0.0345968
-0.00267024
0.00247373
-0.0340585
-0.0341546
-0.0022971
0.00212108
-0.0337043
-0.0337583
-0.00196391
0.00180517
-0.0333821
-0.0334111
-0.0016632
0.00151824
-0.0331024
-0.0331112
-0.00138872
0.00125547
-0.0328646
-0.0328551
-0.00113653
0.00101309
-0.0326658
-0.0326388
-0.000902974
0.000787695
-0.032503
-0.0324595
-0.000684922
0.000576378
-0.0323739
-0.0323147
-0.000479639
0.000376623
-0.032277
-0.0322024
-0.000284851
0.000186354
-0.0322113
-0.0321215
-9.85933e-05
3.69204e-06
-0.0321769
-0.0320715
8.09066e-05
-0.000173008
-0.0321745
-0.032053
0.000255177
-0.000345201
-0.032206
-0.0320672
0.000425631
-0.000514264
-0.0322745
-0.0321166
0.000593643
-0.000681615
-0.0323849
-0.032205
0.000760587
-0.000848414
-0.0325442
-0.0323383
0.000927305
-0.00101472
-0.0327628
-0.0325251
0.00109305
-0.00183407
-0.0330518
-0.0327766
0.00174039
-0.00196792
-0.0338893
-0.0338336
-0.0563
0.00248521
0.00316913
0.0377678
-0.0370122
-0.00833805
-0.00221442
-0.0399161
0.00215976
-0.0346355
-0.00245907
-0.0347146
-0.0519603
0.0100987
-0.00882508
0.0327421
0.00734716
-0.00850207
-0.0347034
-0.0028326
-0.0328463
-0.00338007
-0.0325537
-0.0040297
-0.0332157
-0.00580668
-0.0340076
-0.0343061
-0.0576324
-0.0693324
-0.0238322
0.0165702
-0.00380111
0.00312482
0.0440034
-0.00310717
0.0428682
-0.00295076
0.0027041
-0.0330001
-0.00284005
-0.0329771
0.0371831
-0.0359859
0.0015168
0.0384646
0.0018877
-0.0343759
-0.0111383
0.0270119
-0.00773985
0.0135556
-0.0438867
-0.00209847
0.0022125
-0.0347495
-0.0352276
0.0352839
-0.00251536
-0.0347758
-0.00255026
-0.00237505
0.002492
0.041823
0.0437998
-0.00250618
0.00201695
0.040867
0.0412491
-0.00308163
0.00237973
0.0388115
0.0400726
-0.00241363
0.00227445
0.0372449
0.0400151
-0.00228672
0.00214016
0.036421
0.0390106
-0.00213645
0.00198738
0.0357334
0.0381194
-0.00197156
0.00182434
0.035161
0.0373335
-0.00179954
0.00165588
0.034685
0.0366439
-0.00162281
0.0014841
0.0342906
0.0360379
-0.00144474
0.00131203
0.0339657
0.0355093
-0.00126681
0.00114024
0.0336945
0.0350452
-0.00109082
0.000971112
0.0334748
0.034643
-0.000918217
0.000805093
0.0332962
0.0342977
-0.000749373
0.000642622
0.0331526
0.0340025
-0.000584756
0.000484035
0.0330394
0.0337533
-0.000424558
0.000329492
0.032954
0.0335465
-0.000268905
0.000178968
0.032894
0.0333798
-0.000117626
3.2357e-05
0.0328587
0.0332505
2.93821e-05
-0.000110454
0.0328484
0.0331578
0.000172325
-0.000249676
0.0328645
0.0331015
0.000311495
-0.00038559
0.0329093
0.033082
0.000447238
-0.000518528
0.0329863
0.0331013
0.000579969
-0.000648987
0.033101
0.0331626
0.000710437
-0.00077746
0.0332619
0.033271
0.000838534
-0.000904614
0.0334765
0.0334363
0.000965441
-0.00115483
0.033751
0.033663
0.000873641
0.000594006
0.0357315
0.0343669
-0.0026688
0.00290358
0.037533
0.035448
0.0348352
-0.0343204
-0.000956935
0.000188652
0.0342883
-0.0342526
-0.00139201
-0.00136389
0.0342127
-0.0345675
-0.00144548
-0.00141438
0.0349485
-0.0353416
-0.00236384
-0.00211714
-0.0025896
-0.00345497
0.0033893
-0.0339303
-0.0341925
-0.00314164
0.00291552
-0.0341702
-0.0343491
-0.00271186
0.00250701
-0.0338536
-0.0339509
-0.00233058
0.00214638
-0.0335201
-0.0335819
-0.00199012
0.00182364
-0.0332156
-0.0332548
-0.0016833
0.00153158
-0.0329507
-0.0329709
-0.00140437
0.00126497
-0.0327252
-0.0327278
-0.0011487
0.00101953
-0.0325366
-0.0325226
-0.000912348
0.000791615
-0.0323822
-0.0323524
-0.000691962
0.000578177
-0.0322601
-0.032215
-0.00048472
0.000376608
-0.0321689
-0.0321089
-0.00028818
0.000184625
-0.0321078
-0.032033
-0.00010021
2.36099e-07
-0.0320769
-0.0319871
8.10645e-05
-0.000178303
-0.0320772
-0.0319717
0.000257258
-0.000352528
-0.0321107
-0.0319883
0.000429827
-0.000523772
-0.0321805
-0.0320393
0.000600003
-0.000693239
-0.0322916
-0.0321287
0.000769012
-0.000862097
-0.0324511
-0.0322625
0.000937824
-0.00103121
-0.0326694
-0.0324493
0.001107
-0.0012006
-0.0329582
-0.0327009
0.00155615
-0.00189556
-0.0335499
-0.0334781
-0.0343977
0.0275032
-0.0628194
0.0408373
-0.00319694
-0.0324894
-0.00353354
-0.0322171
-0.00443463
-0.0323146
-0.00567905
-0.0327632
-0.00670816
-0.033277
-0.00860411
-0.0328074
0.00353568
0.0378325
0.0029762
0.0349821
-0.0047518
0.0309784
-0.0323924
-0.0105876
0.00472691
-0.0069422
-0.0310617
0.00420145
-0.0322377
-0.0380819
-0.0101722
-0.00366878
0.0259289
0.0246859
-0.0192512
0.0219541
-0.0050081
-0.00272402
0.00219932
-0.0342248
-0.00217252
-0.0353273
-0.0354344
0.0356327
-0.0027137
-0.0354079
-0.00257672
-0.0021916
0.00203114
0.0441638
0.0436528
-0.00212845
0.00204188
0.0419096
0.0437025
-0.00216934
0.00251186
0.0405245
0.0411216
-0.00267023
0.00208196
0.0393998
0.0399142
-0.00222321
0.00202621
0.0374419
0.0398739
-0.00213867
0.0019347
0.0366249
0.0388982
-0.00202278
0.00181792
0.0359383
0.0380313
-0.00188435
0.00168354
0.0353618
0.0372671
-0.00173173
0.00153818
0.0348785
0.0365957
-0.00156978
0.00138533
0.0344751
0.0360063
-0.00140254
0.00122863
0.0341396
0.0354921
-0.00123267
0.00106953
0.0338577
0.0350412
-0.00106249
0.000910772
0.0336265
0.03465
-0.000894164
0.000753448
0.0334369
0.0343143
-0.000728566
0.000598329
0.0332828
0.0340274
-0.000566469
0.000446
0.0331598
0.0337852
-0.000408321
0.000296864
0.0330654
0.0335842
-0.000254446
0.000151096
0.0329973
0.0334222
-0.000104826
8.73474e-06
0.0329547
0.0332967
4.05467e-05
-0.000130233
0.0329381
0.0332071
0.000181858
-0.000265922
0.0329486
0.0331531
0.000319314
-0.000398522
0.0329885
0.0331354
0.000453236
-0.000528306
0.0330614
0.033156
0.000584022
-0.000655693
0.0331727
0.0332183
0.000712347
-0.000781091
0.0333306
0.0333277
0.000838072
-0.000904501
0.0335429
0.0334932
0.000961153
-0.00102319
0.033813
0.0337196
0.000655726
0.000648535
0.0344272
0.0339994
-0.000446404
0.00263551
0.0353439
0.0356502
0.037916
-0.0365984
0.00221811
-0.00332063
0.00398131
0.0372553
0.0371473
0.0370054
-0.0353879
-0.000100694
0.00229466
0.034632
-0.0342477
-0.0013412
-0.000567256
0.0342451
-0.0342387
-0.00139842
-0.00136657
0.0342269
-0.0342106
-0.00146179
-0.00142609
0.0348361