/*--------------------------------*- C++ -*----------------------------------*\
  =========                 |
  \\      /  F ield         | OpenFOAM: The Open Source CFD Toolbox
   \\    /   O peration     | Website:  https://openfoam.org
    \\  /    A nd           | Version:  10
     \\/     M anipulation  |
\*---------------------------------------------------------------------------*/
FoamFile
{
    format      ascii;
    class       volScalarField;
    location    "13";
    object      p;
}
// * * * * * * * * * * * * * * * * * * * * * * * * * * * * * * * * * * * * * //

dimensions      [0 2 -2 0 0 0 0];

internalField   nonuniform List<scalar> 
33313
(
-0.0115566
-0.0123057
-0.00919267
-0.0141483
-0.000963932
-0.000538243
-0.00185687
0.00984991
0.00868646
-0.00988722
-0.00562357
-0.403144
-0.405909
-0.405913
0.0732104
0.0573351
0.0772305
-0.194079
-0.276371
-0.231473
-0.157784
0.7843
0.699268
0.844865
0.854034
0.16995
0.174993
0.177123
0.204037
0.195392
0.207246
0.192819
0.238869
-0.348934
-0.35873
-0.348678
-0.332569
-0.00430208
-0.0110976
-0.27278
-0.260133
0.306558
0.292078
-0.333138
-0.427379
-0.447218
0.730802
0.813058
-0.0110146
-0.0107514
0.204473
0.232817
0.195625
0.242553
0.119763
0.144852
0.399296
0.524524
0.49776
0.40655
0.41341
0.854277
0.916484
0.944311
-0.0149865
-0.0309619
-0.236678
-0.0689993
-0.070695
-0.286691
-0.294041
-0.281367
-0.298942
-0.300361
-0.301624
-0.285352
-0.269408
-0.264619
-0.175943
-0.22925
0.56662
0.554398
0.580049
-0.354202
-0.374228
-0.398796
-0.492813
-0.472794
-0.470538
0.934423
-0.308384
-0.299911
-0.306183
-0.307943
-0.317799
0.192394
0.181864
-0.000167373
-0.0019129
-0.146462
-0.129949
-0.18611
-0.211551
-0.208464
-0.231249
-0.363113
-0.401001
-0.392928
-0.364811
-0.00285227
0.167727
0.115387
-0.0134072
-0.542673
-0.648241
-0.49329
0.916117
0.869335
-0.202358
-0.198775
-0.316262
-0.314826
-0.3153
-0.0147327
-0.0130836
-0.0258055
0.317113
-0.113536
-0.111117
-0.432834
-0.442988
-0.303699
-0.303152
0.0830224
0.066234
-0.0588663
0.0116779
-0.0378822
0.0449076
0.248671
0.146274
0.359122
-0.107047
-0.107086
-0.116053
0.0308975
0.026032
0.0267852
0.0223636
0.334519
0.316212
0.342225
0.327366
0.430491
0.434657
0.402206
0.406098
-0.270562
-0.297692
-0.283386
-0.305114
0.0712473
0.11132
0.241389
0.127715
-0.363499
-0.38102
-0.383496
-0.48463
-0.00963177
-0.00843402
0.0476877
0.0471938
0.018625
0.0175565
0.169377
0.152989
-0.45993
-0.467453
-0.166834
-0.179776
-0.0209433
-0.0242589
0.123369
0.123688
-0.264692
-0.273922
-0.473067
-0.480742
-0.463718
-0.315219
0.546466
0.521032
-0.463153
-0.463846
0.411389
0.4306
0.431907
0.383796
0.407617
0.400064
0.57238
0.547854
0.124682
0.130597
-0.411391
-0.414434
-0.0975139
-0.203109
0.143924
0.13895
-0.00429334
-0.000533424
-0.00415406
-0.00677263
0.0689485
-0.380716
-0.389912
0.337137
0.340986
0.319497
0.313919
-0.184313
-0.184929
-0.169363
0.159475
0.180612
0.15039
-0.441502
-0.439451
-0.441795
-0.0527372
-0.0076214
0.0495873
0.0170627
0.0156033
-0.378933
0.267135
0.0634798
0.06185
0.0613099
0.0605741
0.0599711
0.058652
0.0571365
0.0555701
0.0539086
0.052114
0.0502147
0.0482311
0.0462009
0.0441325
0.0420621
0.0399992
0.0379827
0.036021
0.0341495
0.032375
0.0307218
0.0292018
0.0278092
0.0265868
0.0254403
0.0245807
0.023482
0.0229074
0.0221952
0.0217377
0.0212759
0.0208143
0.0602077
0.06173
0.0604802
0.0630094
0.020031
0.0201617
0.0225671
0.0217055
0.0219335
0.0238886
0.0231711
0.0256529
0.0246975
0.0279454
0.026817
0.0306087
0.0292481
0.0336766
0.0320994
0.0371037
0.0353551
0.0407723
0.0389185
0.0445399
0.0426547
0.0482561
0.0464151
0.051778
0.0500507
0.0549461
0.0534206
0.0575854
0.0563296
0.0599796
0.0588012
0.0611772
0.0604696
0.0606941
0.0612666
0.0594146
0.0210403
0.0629572
0.0203122
0.0197054
0.0605589
0.0585219
0.0206206
0.0196042
0.062646
0.0194243
0.0566098
0.0620597
0.0594226
0.0645377
0.064876
0.0648213
0.0629425
0.0642006
0.0604909
0.0614538
0.0577423
0.0593038
0.0540442
0.0559392
0.0499956
0.0520662
0.0456509
0.0478468
0.0412245
0.0434348
0.0369217
0.0390448
0.0329426
0.0348802
0.0294539
0.0311279
0.0265749
0.0279276
0.024319
0.0253927
0.022663
0.0233511
0.0214526
0.0217562
0.0205752
0.0208281
0.0199444
0.0202898
0.0196587
0.0197575
0.018919
0.0191703
0.0226053
0.0212433
0.0217757
0.0238104
0.0231452
0.0253933
0.0245249
0.0273246
0.0262402
0.0297547
0.0285028
0.0325517
0.0311193
0.0356574
0.034072
0.0390067
0.0373096
0.0424894
0.0407403
0.0459798
0.0442426
0.0493514
0.0476892
0.052484
0.0509556
0.0552405
0.0539214
0.0574543
0.0564194
0.0591914
0.0583779
0.0599518
0.0597804
0.0589336
0.0595097
0.0572907
0.058418
0.0535851
0.055915
0.0203311
0.0648656
0.0549688
0.0512294
0.0187082
0.0186395
0.0184318
0.0615454
0.0219839
0.0208945
0.0214544
0.0648787
0.0583364
0.0673675
0.0685278
0.0679067
0.0659507
0.0667203
0.0634996
0.0649129
0.0603135
0.0618482
0.0567762
0.0586597
0.0525479
0.0547105
0.0480172
0.0503144
0.0433159
0.0456749
0.0386653
0.0409703
0.0342868
0.0364292
0.0303786
0.0322637
0.027084
0.0286486
0.0244619
0.0256877
0.0225148
0.0233627
0.0211374
0.0217539
0.0202057
0.0206005
0.0196361
0.019854
0.0192621
0.0194513
0.0190748
0.0191346
0.0189046
0.0194431
0.0189485
0.0204637
0.0199668
0.0234488
0.0226521
0.024989
0.0241938
0.0267677
0.0258027
0.0288788
0.0277508
0.0313848
0.0300913
0.0341973
0.0327596
0.0372395
0.0356962
0.0404278
0.0388224
0.0436634
0.0420472
0.0468419
0.0452671
0.0498598
0.048378
0.0526152
0.0512775
0.0549869
0.0538589
0.0568313
0.0559823
0.0580384
0.0575248
0.058294
0.0583334
0.0571956
0.0578991
0.054798
0.056191
0.0503345
0.0528872
0.0483027
0.0440196
0.047413
0.0646053
0.0688842
0.0605224
0.0524029
0.0209298
0.0400823
0.0449975
0.0185264
0.0182359
0.0183339
0.0640433
0.0691008
0.0181509
0.0565072
0.072419
0.0744311
0.0735037
0.0700531
0.0712016
0.0673553
0.0687441
0.0640033
0.0657832
0.060019
0.06204
0.0556611
0.0579058
0.0508551
0.0532969
0.0458483
0.048366
0.0408273
0.0433262
0.0360218
0.0383834
0.0316558
0.0337719
0.0279082
0.0296968
0.0248835
0.0263029
0.022594
0.0236497
0.0209855
0.0217018
0.0199254
0.0203991
0.0192692
0.0195702
0.0189245
0.0190812
0.0187093
0.018809
0.0185921
0.0186337
0.0184472
0.0191859
0.0187989
0.019963
0.019568
0.0226803
0.0213817
0.0220112
0.0242634
0.0234402
0.0260185
0.0251125
0.0279607
0.0269424
0.0301947
0.0290433
0.0327149
0.0314222
0.0354607
0.0340651
0.038357
0.0368961
0.0413229
0.0398375
0.0442739
0.0428064
0.0471253
0.045718
0.049793
0.0484881
0.0521879
0.0510312
0.054198
0.0532496
0.0556939
0.0550184
0.0565039
0.0562013
0.0563231
0.05656
0.0549398
0.0557882
0.0519707
0.0536933
0.0469095
0.0497575
0.0397196
0.0436102
0.0355553
0.0302732
0.0352534
0.0203632
0.0694345
0.0754367
0.059261
0.0498177
0.0179645
0.0246426
0.0251317
0.0189851
0.0633741
0.0409877
0.0304992
0.0694179
0.0217854
0.0207468
0.0210934
0.0762389
0.0545577
0.0796633
0.0828562
0.0812598
0.0762987
0.0780315
0.0726846
0.0744952
0.0687409
0.0707566
0.0643652
0.0666214
0.0594982
0.0619734
0.05435
0.05696
0.048957
0.0516738
0.0435215
0.0462314
0.0382605
0.0408556
0.0334034
0.0357682
0.0291556
0.0311935
0.0256573
0.0273081
0.0229609
0.0242101
0.0210272
0.021905
0.0197531
0.0203147
0.0189881
0.019319
0.0185702
0.018749
0.0183754
0.0184571
0.0182762
0.0183126
0.0181771
0.018204
0.0180135
0.0180582
0.0176797
0.0178467
0.018361
0.0178099
0.0180873
0.0188755
0.0186031
0.019507
0.0191741
0.0201623
0.0198438
0.0232674
0.0225071
0.0249765
0.0240994
0.02685
0.0258893
0.0288966
0.0278505
0.0311652
0.0300037
0.0336348
0.0323778
0.0362531
0.0349302
0.0389533
0.0375982
0.0416657
0.0403131
0.0443214
0.0430056
0.0468526
0.0456075
0.0491888
0.0480502
0.0512494
0.0502598
0.052927
0.0521441
0.054093
0.053583
0.0545612
0.0544315
0.0540352
0.05444
0.0522868
0.0533285
0.048939
0.0508438
0.0434614
0.0464983
0.0355951
0.0398543
0.030681
0.0183527
0.0121247
0.0174982
0.0770726
0.0844756
0.0576328
0.0465035
0.0204319
0.0624956
0.0365392
0.0694696
0.0248609
0.00462239
0.0114906
0.0780463
0.0173749
0.0171563
0.0860518
0.0520824
0.0886674
0.0928017
0.0907172
0.0843629
0.0865667
0.0798069
0.082118
0.0749424
0.0774088
0.0698237
0.0724148
0.0644056
0.0671592
0.0586713
0.061566
0.052796
0.0557465
0.0468764
0.0498321
0.041112
0.0439611
0.0357276
0.0383594
0.0309359
0.0332465
0.0269039
0.0288184
0.0237189
0.0252048
0.0213759
0.0224469
0.0197864
0.0204957
0.0188113
0.0192325
0.0182829
0.0185031
0.018038
0.018135
0.0179457
0.0179799
0.0178987
0.017919
0.0178128
0.0178535
0.0176636
0.0177138
0.0175089
0.0175229
0.0168866
0.017223
0.0180887
0.0178214
0.0185599
0.0183064
0.0190634
0.0188054
0.0195796
0.0193288
0.0197667
0.0220754
0.0206009
0.0213364
0.023689
0.0228574
0.0254923
0.0245779
0.027428
0.0264429
0.0295056
0.0284494
0.0317402
0.0306043
0.0341049
0.0329094
0.0365547
0.0353233
0.0390341
0.0377951
0.0414858
0.0402676
0.0438547
0.0426846
0.0460852
0.0449913
0.0481164
0.0471304
0.0498722
0.0490348
0.0512483
0.0506156
0.0521118
0.0517539
0.0522727
0.0522959
0.0514588
0.0520046
0.0493979
0.0506034
0.0457165
0.0477878
0.03994
0.0431189
0.0316117
0.0361128
0.0205065
0.0263801
0.00650976
0.0138684
-0.00347684
-0.0100686
-0.00155404
0.0871939
0.0941765
0.0558377
0.0427721
-0.0192428
-0.0118973
0.0616401
0.0316041
0.0694868
0.0186746
0.0166067
0.0165352
0.0162494
0.0788852
0.00407383
0.0888592
0.0198748
0.0959666
0.0492849
0.0976682
0.100829
0.0992283
0.0931159
0.0954786
0.0879407
0.0905802
0.0823433
0.0852068
0.0764037
0.0793992
0.0702656
0.0733598
0.0639289
0.0671224
0.0574443
0.060696
0.050973
0.0541989
0.0446624
0.0477871
0.0387157
0.0416306
0.0333464
0.0359476
0.0287345
0.0309378
0.0249951
0.0267529
0.0221567
0.0234662
0.0201598
0.0210607
0.0188769
0.0194397
0.0181445
0.0184535
0.0177888
0.0179308
0.0176535
0.0177026
0.0176156
0.0176284
0.0175821
0.0176015
0.0174864
0.0175397
0.0173072
0.0173915
0.0170283
0.0171561
0.0168008
0.0172592
0.0169374
0.0177724
0.0175319
0.0182265
0.0179959
0.0186332
0.0184407
0.0189933
0.0188169
0.0206398
0.0198975
0.0191839
0.0191259
0.0222026
0.0214316
0.0239144
0.0230348
0.0257554
0.0248221
0.0277027
0.0267166
0.0297539
0.0287159
0.0319094
0.0308198
0.0341331
0.0330145
0.0363953
0.0352629
0.0386494
0.037527
0.0408492
0.0397595
0.0429505
0.0419155
0.0449063
0.0439501
0.046661
0.0458131
0.0481409
0.0474411
0.0492434
0.048747
0.0498329
0.0496125
0.0497195
0.0498787
0.0486509
0.0493213
0.0463365
0.0476702
0.0424004
0.0445977
0.036396
0.0396848
0.0278535
0.0324728
0.0164226
0.0224982
0.00189089
0.00956272
-0.0154315
-0.0065164
-0.0286803
-0.0352041
-0.0251807
0.0976321
0.102158
-0.0206942
-0.0384126
-0.0454291
0.0538538
0.0386606
0.0606332
0.0261818
0.0163325
0.0159677
0.0696575
0.0120072
0.0799562
-0.00373585
0.0904436
0.0191284
0.103115
0.0988362
-0.02972
-0.0479888
-0.0556687
0.103043
0.104728
0.0161709
0.0158838
0.104169
0.0461505
0.103232
0.104027
0.100248
0.10169
0.0955514
0.0979972
0.0897721
0.0927558
0.0834433
0.0866646
0.0767484
0.0801293
0.0698413
0.0733165
0.0628131
0.0663372
0.0557793
0.0592877
0.0489151
0.0523154
0.0424046
0.0456045
0.0364477
0.0393453
0.0312323
0.0337384
0.0268948
0.0289493
0.0234934
0.0250778
0.0210012
0.0221396
0.0193149
0.020067
0.0182807
0.0187279
0.017724
0.0179543
0.0174758
0.0175717
0.0173918
0.0174213
0.0173626
0.0173758
0.0173098
0.0173422
0.0171823
0.017255
0.0169596
0.0170755
0.0166504
0.0168049
0.0164216
0.0169682
0.0166638
0.0174806
0.0172387
0.0178784
0.0176888
0.0181948
0.0180457
0.0184283
0.0183256
0.0184815
0.018491
-0.0616189
-0.0660051
-0.0724226
0.0183886
0.0205327
0.0189718
0.019779
0.0221516
0.0213335
0.0239071
0.0230229
0.025748
0.0248188
0.0276651
0.0266985
0.0296501
0.0286501
0.0317039
0.0306674
0.0337628
0.0327272
0.0358354
0.0348017
0.0378727
0.0368613
0.0398384
0.0388671
0.0416961
0.0407835
0.0434044
0.0425721
0.0449103
0.0441868
0.0461409
0.0455657
0.0469951
0.0466227
0.047337
0.0472403
0.0469806
0.0472598
0.0456871
0.0464673
0.0431671
0.044601
0.039054
0.0413349
0.0329196
0.0362669
0.0243035
0.0289498
0.0128231
0.0189404
-0.0018507
0.00588924
-0.0195437
-0.0102802
-0.0399523
-0.029563
-0.0507192
0.0516979
0.0342394
0.0155781
0.0597321
0.020444
0.0698549
0.00495261
0.0810486
-0.0119231
0.0917189
0.099075
0.103172
0.102464
-0.0388244
-0.0576989
-0.0831808
-0.076206
0.0182097
0.101199
0.101454
0.0187123
0.0179433
0.0992425
0.0428417
0.103829
0.103011
0.103007
0.103594
0.100266
0.101735
0.0956706
0.0981709
0.0896844
0.0927935
0.0830111
0.0864163
0.0758844
0.0794915
0.0685152
0.0722194
0.0610803
0.0647965
0.0537538
0.0573924
0.0467379
0.050195
0.040235
0.0434113
0.0344331
0.0372367
0.0294848
0.0318462
0.0254809
0.027364
0.0224255
0.0238385
0.0202474
0.0212349
0.0188141
0.0194485
0.0179588
0.0183259
0.0175086
0.017694
0.0173062
0.0173857
0.0172232
0.0172567
0.0171649
0.0171956
0.0170671
0.0171236
0.0168906
0.0169891
0.0166193
0.0167638
0.0162575
0.0164407
0.0157851
0.0160259
0.0151812
0.0154979
0.0160568
0.0152711
0.015675
0.0166966
0.0163981
0.017189
0.0169589
0.0175165
0.0173705
0.0177323
0.0176338
0.0178582
0.0178109
0.0177915
0.0178542
0.0174433
0.0176541
0.0202783
0.0195115
0.0219359
0.0210868
0.0236798
0.0228
0.025486
0.0245767
0.0273414
0.0264092
0.0292326
0.028284
0.0311315
0.0301858
0.0330596
0.0321013
0.0349504
0.0340108
0.0367859
0.0358771
0.0385385
0.0376747
0.0401773
0.0393746
0.0416638
0.0409426
0.042946
0.0423345
0.0439515
0.0434889
0.0445804
0.0443205
0.0446988
0.0447133
0.0441275
0.0445123
0.0426391
0.0435136
0.0399538
0.0414658
0.0357236
0.0380556
0.0295411
0.0329028
0.0209681
0.0255793
0.00959472
0.0156557
-0.00488297
0.00274437
-0.0225497
-0.013292
-0.0431148
-0.032555
-0.0653179
-0.0541163
-0.0877344
-0.0766073
-0.0935226
-0.098522
0.0148576
0.0495094
0.0295955
0.0171723
0.0587518
0.0144405
0.0699497
-0.00226923
0.081917
-0.0202395
0.0922264
0.0990968
0.100952
0.095935
0.0984208
-0.047922
-0.0672816
-0.0860447
-0.103058
-0.108688
0.0916936
0.0917433
0.0147675
0.0144319
0.0872334
0.0393752
0.0977491
0.0954176
0.100933
0.0998928
0.10059
0.101123
0.0981707
0.0996476
0.0937972
0.096241
0.0879217
0.0909895
0.0812163
0.0846539
0.0739668
0.0776431
0.0664472
0.0702256
0.0588986
0.0626635
0.051544
0.055184
0.0446077
0.0480109
0.0382966
0.0413636
0.0327777
0.0354305
0.0281636
0.0303548
0.0245121
0.0262216
0.0217754
0.0230349
0.0198554
0.0207226
0.0186049
0.0191575
0.017857
0.0181792
0.0174491
0.0176205
0.0172397
0.0173276
0.0171174
0.0171736
0.017002
0.0170628
0.0168412
0.0169295
0.0166044
0.016733
0.0162788
0.0164517
0.015865
0.0160796
0.0153704
0.015621
0.0150885
0.0149268
0.014071
0.0145042
0.0157246
0.0153378
0.0163914
0.0160743
0.016875
0.016661
0.0171394
0.01703
0.0172595
0.0172123
0.0172838
0.0172845
0.0171288
0.0172346
0.0167159
0.0169547
-0.111442
-0.11788
-0.121079
0.0164083
0.0183371
0.016792
0.0175909
0.0199043
0.019126
0.0215531
0.0207182
0.0232597
0.022401
0.025006
0.0241293
0.0267784
0.0258905
0.0285616
0.0276702
0.0303369
0.0294521
0.0321005
0.0312235
0.0338178
0.0329666
0.0354683
0.034653
0.0370288
0.0362616
0.0384714
0.037767
0.0397588
0.0391374
0.0408394
0.0403289
0.0416412
0.0412806
0.042066
0.0419079
0.0419834
0.0420976
0.0412227
0.0417
0.0395686
0.0405222
0.0367555
0.0383253
0.0324583
0.0348144
0.0262966
0.0296353
0.0178581
0.0223869
0.00673717
0.0126562
-0.00737572
6.44386e-05
-0.0246671
-0.0156151
-0.0448872
-0.0344706
-0.0670846
-0.0558054
-0.089933
-0.07851
-0.100974
0.0472155
0.0247748
0.0577285
0.00836749
0.0699942
-0.00954781
0.0137179
0.0136581
0.013297
0.0823598
-0.0285568
0.09239
0.0980533
0.098864
0.0945682
0.0817246
0.086457
-0.0567102
-0.0765273
-0.0952888
-0.111941
-0.129754
-0.126168
0.016055
0.0751524
0.075965
0.0163841
0.0156768
0.0692233
0.0357793
0.0864091
0.0817469
0.0929871
0.0901384
0.096383
0.0950783
0.0966372
0.096823
0.0944948
0.0958308
0.0904397
0.0926902
0.0849055
0.0878199
0.0784121
0.0817559
0.0713082
0.0749169
0.0639121
0.0676288
0.0565084
0.0601957
0.0493528
0.0528853
0.0426809
0.0459438
0.0366942
0.0395923
0.0315352
0.0340061
0.0272894
0.0292947
0.0239567
0.0255097
0.0214863
0.0226214
0.0197563
0.0205383
0.0186177
0.0191237
0.0179124
0.018221
0.0174934
0.0176759
0.0172365
0.0173516
0.0170464
0.0171381
0.0168557
0.0169544
0.0166211
0.0167457
0.0163184
0.016479
0.0159375
0.0161375
0.0154788
0.0157167
0.0149531
0.015221
0.0143567
0.0146675
0.0140238
0.0145691
0.0141417
0.0153801
0.0149914
0.0160653
0.0157424
0.0165317
0.0163317
0.016746
0.0166659
0.0167829
0.0167814
0.0167034
0.0167567
0.0164689
0.0166104
0.0159913
0.0162651
0.0153056
0.0156644
0.0178849
0.0171636
0.0194365
0.0186496
0.0210416
0.0202339
0.022686
0.0218604
0.0243535
0.0235184
0.0260285
0.0251915
0.0276961
0.0268647
0.029341
0.0285226
0.0309523
0.0301527
0.0325076
0.0317382
0.0339895
0.0332591
0.0353769
0.0346967
0.0366431
0.0360273
0.0377511
0.0372197
0.0386493
0.0382303
0.0392664
0.0389983
0.0395067
0.0394406
0.0392444
0.0394473
0.038318
0.0388756
0.0365255
0.037544
0.0336186
0.0352283
0.0292975
0.031655
0.0232132
0.0264983
0.0149852
0.0193905
0.00423256
0.00994566
-0.00935366
-0.00219214
-0.0259798
-0.0172829
-0.0454856
-0.0354086
-0.0671728
-0.0561257
-0.0898478
-0.0784871
-0.11151
-0.100957
-0.130467
-0.12143
-0.137316
-0.138324
0.0449275
0.0199198
0.0567316
0.00230894
0.0133596
0.0129357
0.0698619
-0.0167706
0.0823561
-0.0366945
0.0917422
0.0962806
0.0954019
0.0898746
0.0801288
0.0149344
0.0615411
0.0675041
-0.0651361
-0.085245
-0.103716
-0.119885
-0.133404
-0.143566
-0.1448
0.052722
0.0550646
0.0132414
0.0128804
0.0462957
0.0321887
0.0696259
0.0628878
0.0801375
0.0753449
0.0870006
0.0839865
0.0906324
0.0891823
0.091328
0.0913136
0.089672
0.0907591
0.086121
0.0881116
0.0810713
0.0837542
0.0749818
0.0781313
0.0682377
0.0716702
0.0611814
0.0647291
0.0541223
0.0576352
0.047333
0.0506791
0.0410495
0.0441159
0.0354618
0.0381599
0.0306872
0.0329695
0.0267837
0.0286269
0.0237368
0.0251573
0.0214702
0.0225135
0.0198636
0.0205937
0.0187749
0.0192641
0.0180609
0.01838
0.0175917
0.0178032
0.0172603
0.0174146
0.0169853
0.0171199
0.0167099
0.0168504
0.0163977
0.0165599
0.0160284
0.0162208
0.0155938
0.0158192
0.0150943
0.0153515
0.0145395
0.0148219
0.0139349
0.0142464
0.013596
0.0142187
0.0137906
0.0150371
0.0146383
0.0157234
0.0154058
0.0161653
0.015979
0.0163364
0.0162815
0.0163003
0.016339
0.0161231
0.0162276
0.0157913
0.0159795
0.0152633
0.015554
0.01461
0.0149462
-0.143194
-0.149877
-0.148599
0.0142377
0.0159491
0.0145522
0.0152559
0.0173884
0.0166741
0.0188897
0.0181323
0.0204317
0.0196579
0.0219971
0.0212127
0.023572
0.0227848
0.0251408
0.0243585
0.0266893
0.0259188
0.0282049
0.0274524
0.0296721
0.0289456
0.0310785
0.0303842
0.032407
0.0317537
0.0336378
0.0330361
0.0347444
0.0342087
0.0356897
0.03524
0.0364223
0.0360864
0.0368718
0.0366875
0.0369455
0.0369622
0.0365235
0.036805
0.0354538
0.0360802
0.0335482
0.0346183
0.0305777
0.0322116
0.0262688
0.0286087
0.020306
0.0235144
0.0123451
0.0165966
0.00204039
0.00750497
-0.0109029
-0.00408681
-0.0266755
-0.0184334
-0.0451802
-0.035608
-0.0659312
-0.0553252
-0.0879162
-0.0768661
-0.109314
-0.0987832
-0.128454
-0.119284
-0.136455
0.0426804
0.0151189
0.0125156
0.0556496
-0.00365343
0.0695324
-0.0237317
0.0818072
-0.044412
0.0902317
0.0933156
0.0909641
0.0837114
0.0727776
0.0587126
0.0364125
0.042738
-0.0729601
-0.0930294
-0.111056
-0.126706
-0.139365
-0.148253
-0.152581
-0.153533
0.0138485
0.0255488
0.0301501
0.014138
0.0134817
0.0194176
0.0286702
0.0484728
0.0397827
0.0627443
0.0561059
0.0732037
0.0684356
0.08019
0.077102
0.0840685
0.0824862
0.0852794
0.0849837
0.0842004
0.0850037
0.0812315
0.0829267
0.0767661
0.0791604
0.0712243
0.0741042
0.0649976
0.0681745
0.0584369
0.0617388
0.0518601
0.0551329
0.0455439
0.0486546
0.0397179
0.0425582
0.0345548
0.0370464
0.0301556
0.0322558
0.026563
0.0282594
0.023746
0.0250623
0.0216248
0.0226055
0.020086
0.020791
0.0190009
0.0194952
0.0182431
0.0185888
0.0177001
0.0179512
0.0172801
0.0174797
0.0169135
0.0170937
0.0165516
0.0167343
0.0161631
0.016362
0.0157304
0.0159529
0.0152458
0.0154946
0.0147094
0.0149835
0.0141263
0.0144221
0.0135078
0.0138186
0.0128304
0.0131746
0.0121048
0.0124693
0.0130054
0.012151
0.0125764
0.0138691
0.0134423
0.0146916
0.0142898
0.0153646
0.0150556
0.0157817
0.0156089
0.0159117
0.0158804
0.0158088
0.015884
0.0155441
0.0156942
0.0151236
0.0153548
0.0145565
0.0148536
0.0138601
0.0142196
0.0131577
0.0135134
0.0154736
0.0148195
0.0168594
0.0161569
0.0182892
0.0175704
0.01975
0.0190175
0.0212247
0.020487
0.0226984
0.0219629
0.0241564
0.0234305
0.0255855
0.0248756
0.0269744
0.0262858
0.0283084
0.0276492
0.0295772
0.0289518
0.0307655
0.0301826
0.0318538
0.0313237
0.0328151
0.0323523
0.0336121
0.0332369
0.0341936
0.0339335
0.0344909
0.0343827
0.0344149
0.0345058
0.0338517
0.0342021
0.0326595
0.033344
0.0306642
0.031774
0.0276566
0.029301
0.02339
0.0256969
0.0175829
0.020697
0.00992982
0.0140058
0.000125142
0.0053135
-0.012098
-0.00567092
-0.0269063
-0.0191773
-0.0442324
-0.0352711
-0.0636984
-0.0537361
-0.0844948
-0.0740079
-0.105116
-0.09494
-0.123932
-0.11485
-0.138901
-0.131946
-0.148842
-0.144552
-0.155003
-0.151609
0.0117316
0.0405062
0.0104485
0.0128079
0.0544957
-0.00938162
0.0687038
-0.0303147
0.0805745
-0.0517292
0.0876721
0.0891599
0.0851322
0.0764331
0.0638959
0.0487894
0.031601
0.00767262
0.0133891
-0.0798441
-0.0996866
-0.117369
-0.132333
-0.143749
-0.151518
-0.155544
-0.155764
-0.152846
-0.00508535
0.00228207
0.0117064
0.0113327
-0.0101545
0.0252788
0.0240651
0.0135472
0.0416546
0.0332624
0.055579
0.0490504
0.065894
0.0611636
0.0729457
0.0698006
0.0771635
0.0753875
0.0788788
0.078313
0.0783825
0.0788936
0.0760368
0.0774148
0.0722219
0.07429
0.0673224
0.0698833
0.061717
0.064586
0.055752
0.0587593
0.0497416
0.0527349
0.0439562
0.0468063
0.0386157
0.0412194
0.0338725
0.0361638
0.0298267
0.0317589
0.0265056
0.0280781
0.0238704
0.0251063
0.0218492
0.0227894
0.0203399
0.0210379
0.0192299
0.0197423
0.0184099
0.0187902
0.0177834
0.0180779
0.0172716
0.0175174
0.0168149
0.0170394
0.0163708
0.0165933
0.0159115
0.0161442
0.015421
0.0156707
0.0148918
0.0151613
0.0143227
0.0146119
0.0137167
0.0140234
0.0130809
0.0134
0.0124144
0.0127508
0.0120634
0.0117809
0.0109741
0.0113703
0.0126447
0.0122075
0.0135141
0.0130821
0.0143339
0.0139372
0.01499
0.0146897
0.015383
0.0152238
0.0154729
0.0154643
0.0153084
0.015417
0.014966
0.0151561
0.0144724
0.0147383
0.0138458
0.0141712
0.0131636
0.01351
0.0125028
0.0128213
-0.147296
-0.152528
-0.147343
0.012177
0.0137149
0.0124659
0.0131047
0.0149806
0.0143576
0.016296
0.0156344
0.0176463
0.0169692
0.0190166
0.0183302
0.0203933
0.0197054
0.0217616
0.0210796
0.0231078
0.0224384
0.0244197
0.0237689
0.0256868
0.0250596
0.0268972
0.0263001
0.0280392
0.0274774
0.0290989
0.0285804
0.0300565
0.029592
0.0308846
0.0304888
0.0315457
0.0312388
0.031989
0.0317982
0.0321482
0.0321088
0.0319378
0.0320951
0.0312508
0.0316613
0.0299552
0.0306881
0.0278915
0.0290301
0.0248699
0.026513
0.0206699
0.0229315
0.0150434
0.0180506
0.00772398
0.0116114
-0.00155217
0.00334519
-0.0130153
-0.00699934
-0.0268051
-0.0196179
-0.0428721
-0.0345674
-0.0608996
-0.0516736
-0.0802103
-0.0704551
-0.0996637
-0.0900079
-0.117669
-0.10897
-0.132533
-0.12558
-0.142729
-0.138255
-0.145656
0.0383994
0.00598221
0.0531627
-0.0147977
0.0673363
-0.0364923
0.0106133
0.0105909
0.0102271
0.0782624
-0.0585118
0.0839693
0.0836374
0.0779215
0.0676454
0.0538049
0.0372634
0.0192113
0.000105152
-0.023561
-0.0191524
-0.0857649
-0.105319
-0.122445
-0.136357
-0.146548
-0.153096
-0.155892
-0.154985
-0.146179
-0.150646
0.0118599
-0.0379383
-0.0275913
0.0121162
0.0115407
-0.0413874
0.0220441
-0.00284602
-0.0147373
0.0178814
0.00802017
0.0348131
0.0268086
0.0483494
0.0419941
0.0585017
0.0538345
0.0656735
0.0624352
0.0702046
0.0682517
0.0723642
0.0715633
0.0724286
0.0726334
0.0707182
0.0717725
0.0675811
0.0693066
0.0633701
0.0655871
0.0584403
0.0609739
0.0531232
0.0558107
0.0477197
0.0504153
0.0424884
0.0450688
0.0376334
0.0400039
0.0333017
0.0353958
0.0295821
0.0313623
0.0264944
0.0279611
0.0240075
0.0251795
0.0220578
0.022971
0.0205575
0.0212577
0.0194106
0.0199461
0.0185239
0.0189403
0.0178154
0.0181521
0.0172174
0.0175062
0.016678
0.016943
0.01616
0.0164181
0.0156382
0.0159006
0.0150974
0.0153707
0.01453
0.0148172
0.0139338
0.0142353
0.0133102
0.0136249
0.0126637
0.0129888
0.0120028
0.0123334
0.0113155
0.0116629
0.0109532
0.0114271
0.0110079
0.0122841
0.0118507
0.0131541
0.0127204
0.0139622
0.0135725
0.0146016
0.0143099
0.0149703
0.0148246
0.0150212
0.0150343
0.0147999
0.0149391
0.0143884
0.0146137
0.0138331
0.0141275
0.0131645
0.0135089
0.0124933
0.0128196
0.0118711
0.0121796
0.0112744
0.0115682
0.0132812
0.0127041
0.0144758
0.0138771
0.0157088
0.01509
0.0169703
0.0163377
0.0182456
0.0176074
0.0195212
0.0188844
0.0207834
0.0201549
0.0220197
0.0214056
0.0232192
0.0226247
0.0243713
0.023802
0.0254656
0.0249264
0.0264905
0.0259875
0.0274316
0.0269726
0.0282687
0.0278646
0.0289739
0.0286398
0.0295098
0.0292657
0.0298267
0.0296992
0.0298605
0.0298835
0.02953
0.0297463
0.0287351
0.0291974
0.0273538
0.0281259
0.0252404
0.0263982
0.0222244
0.0238564
0.0181103
0.0203171
0.0126816
0.0155738
0.00570961
0.00940207
-0.00302834
0.00157358
-0.0137222
-0.00812215
-0.0264802
-0.0198424
-0.0412572
-0.0336278
-0.0577804
-0.0493294
-0.0754656
-0.0665281
-0.0933885
-0.0844686
-0.11026
-0.102048
-0.124627
-0.117851
-0.134779
-0.130339
-0.139813
-0.137937
-0.139648
-0.140346
-0.143549
-0.137673
0.0362943
0.00175641
0.0515185
-0.0198576
0.0102639
0.00988378
0.0652315
-0.0421136
0.0748689
-0.064448
0.0787702
0.0767213
0.0691965
0.0573399
0.0421091
0.0244515
0.00520761
-0.014502
-0.0343179
0.0109847
-0.0559818
-0.0534178
-0.090789
-0.109804
-0.126023
-0.138754
-0.14779
-0.153086
-0.154557
-0.152441
-0.147315
0.0102168
0.00985891
-0.0715753
-0.0581145
-0.13955
-0.134433
-0.0728394
0.0189463
-0.0312406
-0.0441368
-0.00776814
-0.0189812
0.0120071
0.00255623
0.0282525
0.0205665
0.0413072
0.0351635
0.0513234
0.0466843
0.0585792
0.0552745
0.0633631
0.0612647
0.0659158
0.064902
0.0665012
0.0664357
0.0654014
0.0661423
0.0629318
0.0643179
0.0594131
0.0612829
0.0551712
0.0573627
0.0505151
0.0528766
0.045727
0.0481216
0.0410484
0.043361
0.0366668
0.0388118
0.0327322
0.0346406
0.0293134
0.0309557
0.0264359
0.0278078
0.0240781
0.025195
0.0221872
0.0230788
0.0206904
0.0213947
0.0195075
0.0200649
0.0185604
0.0190092
0.0177792
0.018153
0.0171059
0.0174322
0.0164954
0.0167952
0.0159144
0.0162028
0.0153399
0.0156274
0.0147575
0.0150503
0.0141591
0.0144605
0.0135416
0.0138526
0.0129055
0.0132255
0.0122538
0.0125809
0.0115922
0.0119227
0.010924
0.0112595
0.0105738
0.0110675
0.0106574
0.01192
0.0114888
0.0127848
0.0123544
0.0135796
0.013197
0.0142015
0.0139192
0.0145446
0.0144131
0.0145581
0.0145916
0.0142847
0.0144517
0.0138113
0.014068
0.0132031
0.0135212
0.0125116
0.0128635
0.0118352
0.0121627
0.0112594
0.0115367
0.0107296
0.0109962
-0.127618
-0.130151
-0.124074
0.0104519
0.0117442
0.0106867
0.0112123
0.0128309
0.0122872
0.0139492
0.0133853
0.0150978
0.0145206
0.016268
0.0156813
0.0174472
0.0168575
0.0186221
0.0180361
0.0197805
0.0192042
0.020911
0.0203499
0.0220033
0.0214624
0.0230478
0.0225322
0.0240336
0.0235485
0.0249497
0.0245012
0.0257807
0.0253769
0.026506
0.0261581
0.0270974
0.0268204
0.0275178
0.0273316
0.0277188
0.0276491
0.0276388
0.0277181
0.0272014
0.02747
0.0263132
0.0268199
0.0248619
0.0256653
0.0227155
0.0238842
0.0197215
0.0213343
0.0157078
0.017853
0.0104875
0.01326
0.00386684
0.00736346
-0.00433837
-2.78969e-05
-0.0142789
-0.0090854
-0.0260316
-0.0199291
-0.0395449
-0.0325787
-0.0545767
-0.0468961
-0.0706247
-0.0625167
-0.0868984
-0.0787941
-0.102337
-0.0947944
-0.115745
-0.109377
-0.125628
-0.121228
-0.131087
-0.128951
-0.131693
-0.132001
-0.130175
0.0340901
-0.00223373
0.00950914
0.0493827
-0.0245427
0.0622068
-0.0473035
0.0701954
-0.0696865
0.0721462
0.0681179
0.0589345
0.0454105
0.0287622
0.00996082
-0.0101493
-0.0307434
-0.0507191
-0.0699921
-0.0882379
-0.0881401
-0.0948749
-0.113098
-0.128202
-0.139716
-0.147486
-0.151316
-0.151386
-0.148344
-0.142521
-0.134348
-0.119704
-0.124825
0.0101681
-0.104478
-0.0878283
0.010364
0.00987575
-0.102984
0.0159341
-0.0596033
-0.0732506
-0.0343622
-0.046519
-0.0123199
-0.0229936
0.00646214
-0.00251178
0.0220361
0.014637
0.0346417
0.0286884
0.0444852
0.0398993
0.0517722
0.0484306
0.0567513
0.0545357
0.0596474
0.0584446
0.0607026
0.0603886
0.060171
0.0606182
0.0583321
0.0593964
0.0554787
0.0570135
0.0519051
0.0537637
0.0478946
0.0499375
0.0437066
0.045808
0.0395649
0.0416178
0.0356513
0.0375696
0.0320819
0.0338153
0.0289456
0.0304576
0.026266
0.027549
0.0240301
0.0250948
0.0221972
0.0230668
0.0207091
0.0214142
0.0195
0.0200739
0.018505
0.0189796
0.0176653
0.0180691
0.0169312
0.0172877
0.0162631
0.0165909
0.0156314
0.0159442
0.0150149
0.0153222
0.0143997
0.0147076
0.0137776
0.0140897
0.0131449
0.0134626
0.012501
0.0128241
0.0118475
0.012175
0.0111876
0.0115179
0.0105293
0.0108576
0.00985631
0.0101944
0.00916072
0.00950644
0.00991478
0.00916987
0.00953356
0.0107141
0.0103081
0.0115624
0.0111344
0.0124111
0.0119899
0.0131897
0.0128152
0.0137919
0.0135202
0.0141079
0.0139909
0.014085
0.0141381
0.0137637
0.0139561
0.0132355
0.0135197
0.0125823
0.0129202
0.0118776
0.0122314
0.0112105
0.0115331
0.0106656
0.0109199
0.0101883
0.0104292
0.00968328
0.00993906
0.0113514
0.0108552
0.0123616
0.0118518
0.0133999
0.0128768
0.0144645
0.0139297
0.0155448
0.0150035
0.0166295
0.0160874
0.0177068
0.0171697
0.0187655
0.0182391
0.0197953
0.0192846
0.0207867
0.0202963
0.02173
0.0212649
0.0226149
0.0221803
0.0234294
0.0230317
0.0241578
0.0238055
0.0247789
0.0244833
0.0252646
0.0250406
0.0255782
0.0254454
0.0256729
0.0256561
0.02549
0.0256201
0.0249577
0.0252724
0.0239893
0.0245338
0.0224822
0.0233098
0.0203171
0.0214896
0.0173584
0.0189455
0.0134558
0.0155344
0.00844912
0.0111001
0.00217636
0.00548017
-0.00551172
-0.00148316
-0.0147303
-0.00992542
-0.0255271
-0.019933
-0.0378396
-0.031504
-0.0514461
-0.0445032
-0.0659142
-0.0586091
-0.0805683
-0.07327
-0.0945142
-0.0876904
-0.106741
-0.10091
-0.116117
-0.111852
-0.121677
-0.119428
-0.122889
-0.12286
-0.119832
-0.121861
-0.11339
-0.117008
-0.114508
-0.109069
0.00881464
0.0316381
-0.00602533
0.00940613
0.0465532
-0.02891