/*--------------------------------*- C++ -*----------------------------------*\
  =========                 |
  \\      /  F ield         | OpenFOAM: The Open Source CFD Toolbox
   \\    /   O peration     | Website:  https://openfoam.org
    \\  /    A nd           | Version:  10
     \\/     M anipulation  |
\*---------------------------------------------------------------------------*/
FoamFile
{
    format      ascii;
    class       volScalarField;
    location    "98.5";
    object      p;
}
// * * * * * * * * * * * * * * * * * * * * * * * * * * * * * * * * * * * * * //

dimensions      [0 2 -2 0 0 0 0];

internalField   nonuniform List<scalar> 
28942
(
-0.00371118
-0.00308612
0.0020859
0.00954013
0.00984001
6.96274e-05
0.000246102
1.37009e-05
0.00276501
0.00285286
-0.00225493
-0.00252353
-0.00290576
-0.00282332
0.000164694
0.000444815
0.00993213
0.0102021
0.00563649
0.00719625
0.00820402
0.00819564
-0.00515816
-0.00498377
-0.00351268
-0.00373674
0.0139306
0.0138796
0.00359035
0.00353295
1.02651e-05
4.22067e-05
0.000670966
0.000268483
0.00719491
0.00840054
0.0109383
0.0128967
-1.5958e-05
0.0150912
0.00914017
0.0116381
0.00178117
0.00169159
0.00175566
0.000249928
0.000125417
0.000198227
0.000229631
0.000321671
0.000626963
0.00283491
0.00290626
0.00289779
0.00305262
-0.00228447
-0.000982869
-0.00331216
-0.00315799
-0.00342843
-0.00350159
-0.00350225
-0.00340043
-5.01901e-05
-0.00174872
-0.000297065
0.00103257
0.00947626
0.00897991
-0.00330356
-0.00351303
-0.00324843
0.00904236
0.00889377
0.00918623
-0.00141712
-0.00102971
-0.000692099
0.00241922
0.00281848
0.00191045
0.000816621
-0.00625013
-0.00747746
0.00113819
0.0038628
0.00490393
0.00569094
0.00407594
0.00419834
0.00616478
0.00554423
-0.00133948
-0.00162841
-0.00190578
-0.0017453
-0.00157201
0.00538612
0.00667673
-0.00778882
0.0113374
0.0105383
0.00583224
0.00942899
0.000953318
0.000858652
0.000770386
0.00552356
0.0057163
0.00571042
-0.00315594
-0.00307677
-0.00306869
-0.00255242
-0.00267579
0.0158837
0.0138792
0.0133204
0.0149512
0.00169794
0.00477619
0.00347506
0.00512878
0.00480569
0.0155568
0.0158518
0.0145104
0.00597002
0.00704871
0.000161115
0.000252406
8.75552e-05
0.0105533
0.0110559
0.00771754
0.00736961
0.0128268
0.00675456
0.00804437
0.00910337
-0.00184391
-0.00235126
0.00741397
0.00169857
0.00178779
-0.00110933
-0.00137142
-0.000915133
-0.00245069
0.00664618
0.00577369
0.00376846
0.000233261
0.000182877
6.62169e-05
0.000183959
0.0075824
0.00684576
-0.00180391
-0.00192095
-0.00181604
-0.0040761
-0.0036222
4.8685e-05
-0.00278724
-0.000435422
0.00844622
0.00855521
0.0096493
0.0091846
0.00776237
0.00312905
0.00304634
0.00330418
0.00317986
0.00509313
0.00487101
0.00520619
0.00542667
0.00536479
0.00543615
0.00564738
0.00620151
0.0058955
0.00549357
0.00582371
0.00652935
0.0072833
0.00757521
-0.000521862
-0.000502529
-0.00241149
0.000184252
4.32517e-05
-0.00193448
-0.00202269
0.000250193
0.000311072
0.000277115
0.000212334
0.00178264
0.0017333
0.00171599
-0.00285473
-0.00304112
-0.00270618
-0.0042717
-0.00475305
-0.00406568
-0.00465213
-0.00641608
-0.00511571
0.0160774
0.0167876
0.0165549
0.000985937
0.00113067
0.00101978
0.0104041
0.00997614
0.0100564
0.00141283
0.00139643
0.00142945
0.00137956
0.00136365
0.00134716
0.00134741
0.00133038
0.00133072
0.00136409
0.00138024
0.00139647
0.00141302
0.00143022
0.00131421
0.00131363
0.00144562
0.00144591
0.00146102
0.00129772
0.00129707
0.00146179
0.00128082
0.00126407
0.00128081
0.00126441
0.00147883
0.00147921
0.00124751
0.00124789
0.0014949
0.0014955
0.00123097
0.00123142
0.00151105
0.00151169
0.00121451
0.00121492
0.00152717
0.00152789
0.00119804
0.00119849
0.00154325
0.001544
0.00118162
0.00118203
0.00155941
0.00156015
0.00116515
0.00116563
0.00157589
0.00157643
0.00114868
0.00114898
0.00159144
0.00159219
0.00113208
0.00113214
0.00160843
0.00160874
0.00111516
0.00111507
0.00162381
0.00162406
0.00109718
0.0010979
0.00163997
0.00163994
0.00108009
0.00108098
0.00162311
0.00163929
0.00165617
0.00165597
0.00158956
0.00160718
0.00155738
0.00157404
0.00152592
0.00154177
0.0014937
0.00150988
0.00146043
0.00147742
0.00142812
0.00144574
0.00139599
0.00141255
0.00136276
0.0013781
0.00132868
0.00134597
0.00129595
0.00131238
0.00126299
0.00127951
0.00123004
0.00124654
0.00119717
0.00121362
0.00116436
0.00118079
0.00113163
0.001148
0.00109751
0.00111521
0.00108031
0.001063
0.0010635
0.00111518
0.00108068
0.00109762
0.0011489
0.00113182
0.00118171
0.00116543
0.00121454
0.00119813
0.00124751
0.00123104
0.00128056
0.00126406
0.00131346
0.00129709
0.00134676
0.00133039
0.00138037
0.00136368
0.00141242
0.00139618
0.00144593
0.00143042
0.00147897
0.00146201
0.00151141
0.00149525
0.00154359
0.00152759
0.00157559
0.00155954
0.00160769
0.00159129
0.00163877
0.00162343
0.00165481
0.00165608
0.00106276
0.00106358
0.00167136
0.00166983
0.00167252
0.00167191
0.00162154
0.00165482
0.00163787
0.00158808
0.00160524
0.0015562
0.00157179
0.00152451
0.00154047
0.00149225
0.00150844
0.00145958
0.00147598
0.00142642
0.00144345
0.00139401
0.0014112
0.00136192
0.00137683
0.00132767
0.00134485
0.00129476
0.00131121
0.00126184
0.00127832
0.00122894
0.0012454
0.00119612
0.00121253
0.0011634
0.00117976
0.00113095
0.00114714
0.0010972
0.00111429
0.00104572
0.00104594
0.00106221
0.00107964
0.00107994
0.00106336
0.00104605
0.001046
0.00111516
0.0010971
0.00114828
0.00113129
0.00118082
0.00116453
0.00121364
0.00119722
0.00124659
0.00123012
0.00127967
0.00126313
0.0013128
0.00129626
0.0013459
0.0013294
0.00137931
0.00136247
0.00141181
0.00139544
0.00144479
0.00142912
0.00147784
0.0014614
0.00151038
0.00149417
0.00154261
0.00152656
0.00157449
0.00155862
0.00160597
0.0015903
0.00163699
0.00162147
0.00166713
0.00165251
0.00167139
0.00168531
0.00168279
0.00168615
0.00104532
0.00104563
0.0016872
0.00168615
0.00170054
0.00169854
0.00168713
0.00106215
0.00104425
0.0010287
0.00102818
0.00168507
0.00170278
0.00172779
0.00170791
0.00165244
0.00166918
0.001619
0.00163541
0.00158608
0.00160307
0.00155428
0.00156969
0.00152261
0.00153857
0.00149037
0.00150654
0.00145779
0.00147413
0.00142502
0.00144146
0.00139227
0.00140879
0.00135948
0.00137571
0.0013263
0.001343
0.00129327
0.00130977
0.00126033
0.00127681
0.00122746
0.0012439
0.00119469
0.00121107
0.00116205
0.00117836
0.00112971
0.00114584
0.0010963
0.00111305
0.00107904
0.0010289
0.0010283
0.00102856
0.00102901
0.00107972
0.00104462
0.00106277
0.00111441
0.0010969
0.00114691
0.00113029
0.00117948
0.00116318
0.00121228
0.00119588
0.00124521
0.00122874
0.00127824
0.00126173
0.00131136
0.00129481
0.00134449
0.00132793
0.00137756
0.00136107
0.00141055
0.00139404
0.0014434
0.00142712
0.00147621
0.00145986
0.00150874
0.00149253
0.00154094
0.0015249
0.00157275
0.00155692
0.001604
0.00158849
0.00163455
0.00161931
0.00166469
0.00164965
0.00169524
0.0016793
0.00171258
0.00170984
0.00170227
0.001701
0.00102735
0.00102801
0.00171485
0.00171494
0.00172071
0.00172413
0.00172615
0.00165468
0.00172984
0.00170247
0.00171119
0.00170892
0.00168479
0.00170291
0.00164841
0.00166649
0.00161578
0.00163154
0.00158353
0.0016003
0.00155196
0.00156766
0.00152014
0.00153613
0.00148794
0.00150409
0.00145544
0.00147173
0.00142279
0.00143915
0.00139003
0.00140644
0.00135715
0.00137358
0.00132419
0.00134073
0.00129122
0.0013077
0.00125833
0.00127478
0.00122552
0.00124193
0.00119281
0.00120916
0.00116023
0.00117651
0.00112794
0.00114405
0.00109501
0.00111142
0.0010614
0.00107807
0.00102653
0.00104362
0.00101153
0.00100938
0.00101057
0.00101236
0.0010119
0.00101235
0.00101248
0.00101132
0.0010119
0.00104471
0.00100984
0.0010282
0.00107853
0.0010619
0.00111281
0.00109609
0.00114509
0.00112885
0.00117771
0.00116139
0.00121048
0.00119409
0.00124337
0.00122693
0.00127637
0.00125988
0.00130943
0.00129291
0.00134252
0.00132599
0.00137555
0.00135907
0.00140853
0.00139205
0.00144136
0.001425
0.00147408
0.00145776
0.00150654
0.00149036
0.00153867
0.00152266
0.00157038
0.0015546
0.00160153
0.00158607
0.00163186
0.00161682
0.00166141
0.00164678
0.00169109
0.00167598
0.00172038
0.00170482
0.00173776
0.00173403
0.00171593
0.00171597
0.00173339
0.00172657
0.00102558
0.00100909
0.000994393
0.000993641
0.00172626
0.00173992
0.00176633
0.00168099
0.00174901
0.00174649
0.00172522
0.00171632
0.0016995
0.00169641
0.00168007
0.00169475
0.00164378
0.0016618
0.00161248
0.00162806
0.00158073
0.00159679
0.00154899
0.00156484
0.00151712
0.0015331
0.00148496
0.00150109
0.00145254
0.00146879
0.00141996
0.00143629
0.00138726
0.00140364
0.00135445
0.00137086
0.00132157
0.00133804
0.00128869
0.00130513
0.00125587
0.00127229
0.00122313
0.0012395
0.00119048
0.0012068
0.00115796
0.00117422
0.0011256
0.00114177
0.00109344
0.00110946
0.00105958
0.00107653
0.00104235
0.000994989
0.000992962
0.000994567
0.000996394
0.000995855
0.00099589
0.000996388
0.000995212
0.00104319
0.00100816
0.00102786
0.00107744
0.00106049
0.00111054
0.00109448
0.00114292
0.00112669
0.00117551
0.00115921
0.00120824
0.00119187
0.00124109
0.00122467
0.00127403
0.00125757
0.00130704
0.00129055
0.00134006
0.00132357
0.00137305
0.00135659
0.00140597
0.00138953
0.00143876
0.00142241
0.00147139
0.00145512
0.00150378
0.00148764
0.00153582
0.00151987
0.00156743
0.00155171
0.00159848
0.00158306
0.00162876
0.00161374
0.00165811
0.00164359
0.00168688
0.00167273
0.00171461
0.00169928
0.0017426
0.00173015
0.00175799
0.00175363
0.00173077
0.00172826
0.000991019
0.000991918
0.00173531
0.00169949
0.00172091
0.00174013
0.00175055
0.00177651
0.00175727
0.00176411
0.00176062
0.00176936
0.00176731
0.00172892
0.00169821
0.00176605
0.00173552
0.00169055
0.00169097
0.00167215
0.0016873
0.00163959
0.00165563
0.00160846
0.00162406
0.00157698
0.0015928
0.00154533
0.00156117
0.00151352
0.00152948
0.00148144
0.00149753
0.00144912
0.00146533
0.00141662
0.00143291
0.001384
0.00140034
0.00135128
0.00136765
0.0013185
0.00133491
0.00128571
0.00130211
0.00125297
0.00126935
0.00122031
0.00123664
0.00118774
0.00120402
0.00115528
0.00117151
0.00112296
0.00113912
0.0010908
0.00110686
0.0010582
0.00107479
0.00102366
0.00104104
0.000989855
0.00100693
0.000976658
0.000972879
0.000974943
0.000979511
0.000978003
0.000980797
0.000980462
0.000980458
0.000980761
0.000978474
0.000979638
0.000975617
0.000977115
0.00100747
0.000974039
0.000990437
0.00104177
0.00102541
0.0010758
0.00105911
0.00110795
0.00109188
0.00114035
0.00112415
0.0011729
0.00115663
0.00120558
0.00118924
0.00123837
0.00122198
0.00127125
0.00125482
0.00130419
0.00128774
0.00133714
0.00132069
0.00137006
0.00135363
0.00140291
0.00138652
0.00143563
0.00141932
0.00146818
0.00145195
0.00150046
0.00148438
0.00153241
0.00151651
0.00156391
0.00154824
0.00159483
0.00157947
0.00162503
0.00161005
0.00165434
0.00163983
0.00168266
0.00166874
0.00171005
0.00169616
0.00173602
0.00172388
0.00176148
0.00174678
0.00178027
0.00177567
0.0017386
0.00175797
0.0017388
0.000987662
0.0009715
0.000959049
0.000957057
0.00174006
0.00175176
0.00174883
0.00176179
0.0017712
0.00178318
0.00179137
0.00178761
0.00173953
0.00175387
0.00176632
0.00176055
0.00175879
0.00170469
0.00173057
0.00168428
0.00169039
0.0016648
0.00167889
0.0016343
0.00164948
0.00160368
0.00161909
0.00157253
0.00158818
0.00154108
0.00155685
0.00150938
0.00152528
0.00147741
0.00149344
0.00144519
0.00146134
0.00141279
0.00142903
0.00138027
0.00139656
0.00134764
0.00136398
0.00131497
0.00133133
0.00128229
0.00129864
0.00124964
0.00126597
0.00121707
0.00123336
0.00118459
0.00120083
0.00115222
0.0011684
0.00111997
0.00113609
0.00108785
0.0011039
0.00105613
0.00107194
0.00102202
0.00103933
0.0010045
0.000961153
0.000956189
0.000959297
0.000964245
0.000962812
0.000965154
0.000964876
0.000964765
0.000965124
0.000962564
0.000963847
0.000960889
0.00100631
0.000972068
0.000988892
0.00104013
0.00102356
0.00107289
0.00105692
0.00110505
0.00108895
0.00113741
0.00112124
0.0011699
0.00115366
0.00120251
0.00118621
0.00123523
0.00121888
0.00126804
0.00125165
0.00130089
0.00128448
0.00133376
0.00131735
0.0013666
0.00135021
0.00139936
0.00138302
0.00143199
0.00141572
0.00146444
0.00144827
0.00149662
0.00148059
0.00152844
0.00151261
0.00155982
0.00154422
0.00159061
0.00157532
0.00162069
0.00160578
0.00164991
0.00163544
0.00167814
0.00166421
0.00170527
0.00169183
0.00173051
0.00171834
0.00175615
0.00174208
0.0017808
0.00176758
0.00178164
0.00177102
0.0017985
0.00179319
0.00174621
0.000954215
0.000955289
0.0017648
0.0017515
0.0017754
0.0017542
0.00176352
0.00177422
0.00177445
0.00178499
0.00179374
0.00180191
0.00180959
0.00180521
0.00174988
0.00175134
0.00178483
0.00178537
0.00175963
0.00174278
0.00175323
0.00170521
0.00172177
0.00167946
0.00169004
0.00165758
0.00167082
0.00162839
0.00164311
0.00159829
0.00161347
0.00156749
0.00158298
0.00153626
0.00155193
0.0015047
0.00152054
0.00147286
0.00148883
0.00144077
0.00145686
0.00140849
0.00142467
0.00137608
0.00139232
0.00134357
0.00135985
0.00131101
0.00132731
0.00127844
0.00129474
0.00124591
0.00126218
0.00121343
0.00122968
0.00118105
0.00119725
0.00114877
0.00116491
0.00111661
0.00113269
0.00108457
0.00110059
0.00105276
0.00106863
0.00102029
0.00103694
0.000985637
0.00100269
0.000952374
0.000969754
0.000940695
0.00093573
0.000938441
0.000945643
0.000942899
0.000948581
0.000947565
0.000949518
0.000949198
0.000949153
0.000949501
0.000947214
0.000948458
0.000944097
0.000945424
0.000939569
0.000942191
0.000970017
0.000936988
0.000953478
0.00100497
0.000986544
0.00103755
0.00102185
0.00106964
0.00105363
0.00110182
0.00108574
0.00113411
0.00111797
0.00116652
0.00115032
0.00119905
0.0011828
0.00123169
0.00121538
0.0012644
0.00124806
0.00129717
0.00128081
0.00132994
0.00131358
0.00136268
0.00134635
0.00139534
0.00137905
0.00142786
0.00141165
0.00146019
0.00144408
0.00149225
0.00147629
0.00152395
0.00150818
0.00155519
0.00153966
0.00158584
0.00157062
0.00161578
0.00160094
0.00164488
0.00163048
0.00167298
0.0016591
0.00169997
0.00168664
0.00172528
0.00171293
0.00174973
0.00173756
0.00177314
0.00176063
0.00179759
0.00178638
0.00178455
0.0017855
0.00181154
0.00180316
0.00175901
0.0017636
0.00179195
0.00179738
0.00178603
0.00177111
0.00177571
0.000950546
0.000933119
0.00092288
0.000920777
0.00178612
0.00178652
0.00179623
0.00180371
0.00181163
0.00181643
0.00179671
0.00179634
0.00180066
0.00182033
0.00181877
0.00181224
0.00176226
0.00178287
0.0017819
0.00174491
0.00175842
0.00173214
0.00174336
0.00170035
0.00171471
0.00167511
0.00168717
0.00165045
0.00166353
0.00162205
0.00163648
0.00159238
0.00160737
0.0015619
0.00157724
0.0015309
0.00154648
0.00149952
0.00151527
0.00146782
0.00148373
0.00143587
0.0014519
0.00140373
0.00141984
0.00137144
0.00138762
0.00133906
0.00135528
0.00130663
0.00132287
0.00127419
0.00129043
0.00124177
0.00125799
0.00120941
0.0012256
0.00117714
0.00119328
0.00114497
0.00116106
0.00111291
0.00112894
0.00108096
0.00109694
0.00104914
0.00106505
0.00101762
0.00103336
0.000983491
0.00100083
0.000967185
0.000926073
0.000920357
0.000923631
0.000930468
0.00092817
0.000932898
0.000931916
0.000933918
0.000933574
0.00093356
0.00093391
0.00093194
0.000932907
0.000928263
0.000930377
0.000925764
0.000968019
0.000934523
0.000951156
0.00100275
0.00098512
0.0010342
0.00101848
0.00106617
0.00105019
0.00109826
0.00108223
0.00113046
0.00111437
0.00116279
0.00114664
0.00119522
0.00117902
0.00122776
0.00121151
0.00126037
0.00124409
0.00129303
0.00127672
0.00132569
0.00130939
0.00135832
0.00134204
0.00139086
0.00137463
0.00142326
0.00140711
0.00145546
0.00143942
0.00148738
0.00147149
0.00151894
0.00150324
0.00155003
0.00153458
0.00158054
0.00156539
0.00161033
0.00159556
0.00163929
0.00162496
0.00166726
0.00165344
0.0016941
0.00168086
0.00171952
0.00170705
0.00174366
0.0017318
0.00176669
0.00175521
0.0017875
0.00177796
0.00181154
0.00179489
0.0018013
0.00182298
0.00183172
0.0018307
0.00182613
0.00181123
0.00179094
0.00179299
0.00177317
0.00177593
0.000917477
0.000918376
0.00180852
0.00178515
0.00178765
0.00179494
0.00179799
0.00180681
0.00181454
0.00181872
0.00182192
0.00180842
0.00180135
0.00180558
0.00181708
0.00182797
0.00183561
0.00181411
0.00181966
0.00182205
0.00183267
0.00183836
0.00177515
0.00179349
0.00179085
0.00176983
0.00177537
0.00174118
0.00175559
0.00172207
0.00173286
0.00169478
0.00170845
0.00166915
0.00168177
0.00164341
0.00165662
0.00161535
0.0016296
0.00158601
0.00160083
0.00155581
0.00157102
0.00152504
0.00154051
0.00149385
0.00150952
0.00146232
0.00147814
0.00143053
0.00144647
0.00139853
0.00141457
0.00136639
0.0013825
0.00133415
0.0013503
0.00130185
0.00131802
0.00126954
0.00128572
0.00123726
0.00125342
0.00120503
0.00122115
0.00117287
0.00118896
0.00114082
0.00115685
0.00110887
0.00112485
0.00107703
0.00109295
0.0010453
0.00106117
0.00101373
0.00102949
0.00098129
0.000997976
0.000948467
0.000964449
0.000914821
0.000930711
0.000904443
0.000899292
0.000901632
0.000910771
0.0009074
0.000914977
0.000913344
0.000917308
0.000916288
0.000918343
0.000918
0.000917981
0.000918337
0.000916277
0.000917292
0.000912347
0.000914699
0.000907481
0.000909846
0.000902462
0.000905074
0.000931778
0.000898971
0.000916863
0.000966486
0.000948487
0.000998999
0.000983213
0.00103056
0.00101474
0.00106242
0.00104651
0.0010944
0.00107842
0.00112649
0.00111046
0.00115871
0.00114261
0.00119104
0.00117489
0.00122346
0.00120727
0.00125596
0.00123973
0.0012885
0.00127225
0.00132104
0.0013048
0.00135354
0.00133732
0.00138594
0.00136978
0.00141821
0.00140213
0.00145027
0.0014343
0.00148204
0.00146623
0.00151344
0.00149783
0.00154437
0.00152901
0.00157472
0.00155966
0.00160436
0.00158967
0.00163317
0.00161891
0.001661
0.00164725
0.0016877
0.00167453
0.00171309
0.00170061
0.00173716
0.00172533
0.00175988
0.00174874
0.00178012
0.00177052
0.00179937
0.00178982
0.00180203
0.00180494
0.00181361
0.00183958
0.00183401
0.0017866
0.00178802
0.00180611
0.00179615
0.00179914
0.000911979
0.000896891
0.000886726
0.00088334
0.0018072
0.00180888
0.00181716
0.00182355
0.00182849
0.00183388
0.00181587
0.00180948
0.0018264
0.00182694
0.00183102
0.00182194
0.00182795
0.00184219
0.00184016
0.00183751
0.00184501
0.00178765
0.0017979
0.0017871
0.0017806
0.00179035
0.00175782
0.00176893
0.00173568
0.00174722
0.0017138
0.00172513
0.0016881
0.00170119
0.00166234
0.00167517
0.00163614
0.00164947
0.00160826
0.0016224
0.00157919
0.00159387
0.00154926
0.00156434
0.00151872
0.00153408
0.00148772
0.00150329
0.00145637
0.00147211
0.00142475
0.00144061
0.00139291
0.00140887
0.00136093
0.00137696
0.00132884
0.00134491
0.00129669
0.00131279
0.00126453
0.00128063
0.00123239
0.00124847
0.00120029
0.00121635
0.00116827
0.00118429
0.00113634
0.00115232
0.00110452
0.00112044
0.0010728
0.00108867
0.00104119
0.001057
0.00100966
0.00102543
0.000978383
0.000994029
0.000945655
0.000961686
0.00092811
0.000889142
0.000883402
0.000886852
0.000895712
0.00089244
0.000899396
0.000897793
0.00090177
0.000900742
0.000902794
0.000902454
0.000902449
0.000902792
0.000900797
0.000901772
0.000897968
0.000899585
0.000892372
0.000895414
0.000889206
0.000929162
0.000896034
0.000914451
0.000964023
0.000946303
0.000995122
0.000979547
0.00102667
0.0010109
0.00105839
0.00104254
0.00109024
0.00107433
0.00112222
0.00110624
0.00115431
0.00113828
0.00118652
0.00117043
0.00121882
0.00120269
0.00125118
0.00123502
0.00128359
0.00126741
0.00131599
0.00129982
0.00134835
0.00133221
0.00138061
0.00136453
0.00141273
0.00139672
0.00144463
0.00142874
0.00147624
0.00146051
0.00150748
0.00149195
0.00153824
0.00152296
0.00156842
0.00155345
0.0015979
0.00158329
0.00162655
0.00161237
0.00165423
0.00164055
0.0016808
0.0016677
0.00170609
0.00169365
0.00173004
0.00171827
0.00175251
0.00174151
0.00177284
0.00176304
0.00179083
0.00178235
0.00180577
0.0017979
0.00182594
0.00181735
0.00184223
0.00183632
0.00182384
0.00181456
0.00181383
0.00179805
0.00179956
0.000880035
0.000880568
0.00182485
0.00180729
0.00181011
0.00181836
0.00181921
0.00182673
0.00183267
0.00183738
0.00184016
0.00183074
0.0018204
0.00182033
0.00182727
0.00182719
0.00184119
0.00183039
0.0018423
0.0018321
0.00183876
0.00182819
0.00184779
0.00184944
0.00184819
0.00184542
0.00179923
0.00180783
0.00181864
0.00178681
0.00178303
0.00176874
0.00178188
0.00174977
0.00175951
0.00172819
0.00173927
0.00170563
0.00171718
0.00168062
0.00169334
0.00165494
0.00166784
0.00162853
0.00164192
0.0016008
0.00161484
0.00157195
0.00158652
0.00154227
0.00155722
0.00151195
0.0015272
0.00148116
0.00149663
0.00145
0.00146565
0.00141856
0.00143434
0.0013869
0.00140277
0.00135508
0.00137103
0.00132315
0.00133915
0.00129117
0.00130719
0.00125916
0.00127519
0.00122717
0.00124318
0.00119523
0.00121121
0.00116335
0.0011793
0.00113156
0.00114746
0.00109987
0.00111572
0.00106829
0.00108409
0.00103681
0.00105256
0.00100542
0.00102113
0.000974142
0.000989781
0.000943249
0.000958497
0.000908885
0.000925638
0.000877581
0.000893457
0.000867664
0.000860245
0.000864321
0.00087498
0.000871017
0.000880437
0.000878302
0.000883914
0.000882287
0.000886261
0.000885253
0.00088727
0.000886933
0.000886943
0.000887273
0.000885326
0.000886288
0.000882623
0.000884107
0.0008786
0.000880859
0.000871104
0.00087501
0.000864815
0.000867966
0.000893502
0.000861833
0.000878362
0.000926465
0.000910998
0.000960255
0.000943764
0.000991112
0.000975574
0.00102252
0.00100682
0.00105409
0.00103831
0.0010858
0.00106996
0.00111765
0.00110174
0.00114961
0.00113364
0.00118168
0.00116566
0.00121384
0.00119778
0.00124607
0.00122998
0.00127832
0.00126222
0.00131057
0.00129448
0.00134278
0.00132672
0.00137489
0.00135888
0.00140684
0.00139092
0.00143857
0.00142277
0.00147001
0.00145437
0.00150108
0.00148563
0.00153166
0.00151647
0.00156167
0.00154678
0.00159098
0.00157645
0.00161946
0.00160537
0.00164699
0.00163339
0.00167341
0.00166038
0.00169859
0.0016862
0.0017224
0.00171071
0.00174466
0.00173377
0.00176496
0.00175513
0.00178302
0.00177437
0.00179896
0.00179102
0.00181364
0.00180754
0.00181423
0.00182553
0.00182862
0.00184563
0.00184046
0.00180914
0.00181061
0.0018322
0.00181799
0.00182053
0.000874455
0.000857409
0.000849644
0.000846897
0.00182897
0.00182893
0.00183579
0.00184119
0.00184505
0.00184731
0.00182037
0.00181344
0.00181376
0.00182377
0.00183238
0.00184145
0.00184791
0.00183796
0.00184157
0.00185416
0.00185355
0.00184936
0.00184822
0.00183192
0.00183652
0.00181034
0.00181314
0.00180778
0.00179432
0.00180906
0.00177576
0.00178284
0.00176041
0.00176957
0.00174132
0.00175109
0.0017199
0.00173086
0.00169717
0.00170877
0.00167259
0.00168509
0.00164703
0.00165992
0.00162057
0.00163396
0.00159296
0.00160693
0.00156433
0.00157878
0.00153487
0.00154971
0.00150478
0.00151992
0.0014742
0.00148957
0.00144324
0.00145879
0.00141199
0.00142767
0.00138051
0.00139629
0.00134886
0.00136472
0.00131711
0.00133302
0.0012853
0.00130123
0.00125346
0.0012694
0.00122163
0.00123756
0.00118984
0.00120575
0.00115812
0.001174
0.00112649
0.00114231
0.00109495
0.00111073
0.00106351
0.00107924
0.00103218
0.00104785
0.00100096
0.00101658
0.00096984
0.000985399
0.000939345
0.000954446
0.000906116
0.000923001
0.000889335
0.000853487
0.000845037
0.00085001
0.000860789
0.000857126
0.000865028
0.000863059
0.000868489
0.000866882
0.000870777
0.000869793
0.00087177
0.000871438
0.00087145
0.000871774
0.000869842
0.000870804
0.000867025
0.000868579
0.000863088
0.000865233
0.000856351
0.000860123
0.000852789
0.000891254
0.000858621
0.000876155
0.000923897
0.000907395
0.000955851
0.000940385
0.00098685
0.000971311
0.00101812
0.00100249
0.00104954
0.00103384
0.00108111
0.00106533
0.00111281
0.00109697
0.00114462
0.00112873
0.00117655
0.0011606
0.00120855
0.00119257
0.00124062
0.00122461
0.00127272
0.0012567
0.00130481
0.0012888
0.00133685
0.00132087
0.00136879
0.00135287
0.00140057
0.00138473
0.00143212
0.00141641
0.00146338
0.00144783
0.00149426
0.00147891
0.00152467
0.00150957
0.00155449
0.00153969
0.00158362
0.00156919
0.00161194
0.00159793
0.00163931
0.00162579
0.00166559
0.00165263
0.00169063
0.00167831
0.00171431
0.00170269
0.00173641
0.00172561
0.00175663
0.00174681
0.00177474
0.00176601
0.00179087
0.00178295
0.00180427
0.00179833
0.0018147
0.00180924
0.00182899
0.00181729
0.00183599
0.00182841
0.00182202
0.00183485
0.00183752
0.00181975
0.00182112
0.000841734
0.000843118
0.00183733
0.00182827
0.00183037
0.00183854
0.00183809
0.00184431
0.00184895
0.00185208
0.00185368
0.00181794
0.00180903
0.00180413
0.00182069
0.00181524
0.00182555
0.00181722
0.0018291
0.00183279
0.00184411
0.00184732
0.00185208
0.0018474
0.00185879
0.00185624
0.00185115
0.00184641
0.00183857
0.00183315
0.00182093
0.00181427
0.00181515
0.00180191
0.00179171
0.00178212
0.00179843
0.00176758
0.00177431
0.00175152
0.00176019
0.00173232
0.00174218
0.00171113
0.00172197
0.00168842
0.00169999
0.00166411
0.00167646
0.00163867
0.00165153
0.00161226
0.00162562
0.00158478
0.00159867
0.00155634
0.00157069
0.0015271
0.00154183
0.00149723
0.00151226
0.00146686
0.00148212
0.00143611
0.00145155
0.00140505
0.00142063
0.00137376
0.00138945
0.00134231
0.00135807
0.00131074
0.00132656
0.0012791
0.00129495
0.00124744
0.00126329
0.00121578
0.00123163
0.00118417
0.00119999
0.00115261
0.0011684
0.00112114
0.00113689
0.00108976
0.00110546
0.00105848
0.00107413
0.00102731
0.0010429
0.000996257
0.00101179
0.000965322
0.000980793
0.000934669
0.00094994
0.000903248
0.000919385
0.000871325
0.000886199
0.000838903
0.000854852
0.000830758
0.000823066
0.000827447
0.000838885
0.000834269
0.000845356
0.000842747
0.00084963
0.000847555
0.000853072
0.000851494
0.000855315
0.000854348
0.000856293
0.000855966
0.000855976
0.000856297
0.000854385
0.000855338
0.000851565
0.000853127
0.000847654
0.000849724
0.000842809
0.000845483
0.000835261
0.000839094
0.000828066
0.000831447
0.000855989
0.00082503
0.000840317
0.000888662
0.000871977
0.000920636
0.000904352
0.000951393
0.000936033
0.000982362
0.000966879
0.00101348
0.000997931
0.00104476
0.00102913
0.00107617
0.00106047
0.00110771
0.00109195
0.00113937
0.00112355
0.00117113
0.00115527
0.00120297
0.00118707
0.00123487
0.00121895
0.0012668
0.00125087
0.00129872
0.0012828
0.00133058
0.00131469
0.00136234
0.00134651
0.00139393
0.00137819
0.00142531
0.00140969
0.00145638
0.00144092
0.00148707
0.00147181
0.00151728
0.00150228
0.00154692
0.00153222
0.00157587
0.00156153
0.00160402
0.00159009
0.00163123
0.00161778
0.00165736
0.00164447
0.00168228
0.00167002
0.00170582
0.00169426
0.0017278
0.00171705
0.00174795
0.00173815
0.00176605
0.00175731
0.0017821
0.00177432
0.00179554
0.00178933
0.00180579
0.00180107
0.00181409
0.00181018
0.00181252
0.00184318
0.0018455
0.00182962
0.00182411
0.00182985
0.00183105
0.00184574
0.00183778
0.00183961
0.000835834
0.000819378
0.000812799
0.000809079
0.00184723
0.00184665
0.00185212
0.00185603
0.00185839
0.00185934
0.00180987
0.00180445
0.00179307
0.00179838
0.00182453
0.00182676
0.00184003
0.001837
0.00184973
0.0018531
0.00185452
0.00186216
0.00185824
0.00185305
0.00184315
0.00183985
0.00183164
0.00181638
0.00182212
0.00183093
0.00180421
0.00178807
0.0018037
0.00180957
0.00178843
0.00178611
0.0017733
0.00178483
0.00175875
0.00176577
0.00174217
0.00175092
0.00172303
0.00173287
0.00170199
0.00171276
0.00167936
0.00169089
0.00165524
0.00166749
0.00162993
0.00164274
0.0016036
0.00161692
0.00157626
0.00159008
0.00154801
0.00156226
0.00151898
0.0015336
0.00148933
0.00150425
0.00145918
0.00147433
0.00142863
0.00144397
0.00139777
0.00141326
0.00136668
0.00138228
0.00133542
0.00135109
0.00130405
0.00131977
0.0012726
0.00128835
0.00124112
0.00125688
0.00120965
0.0012254
0.00117821
0.00119394
0.00114683
0.00116253
0.00111553
0.00113119
0.00108432
0.00109993
0.00105322
0.00106878
0.00102222
0.00103772
0.000991334
0.00100678
0.000960579
0.000975959
0.000929978
0.000945268
0.000899617
0.000914808
0.000867591
0.000883125
0.000851702
0.000816907
0.00080797
0.000813187
0.000824293
0.00082037
0.000829835
0.000827307
0.00083427
0.00083216
0.000837665
0.000836112
0.000839875
0.000838922
0.000840838
0.000840516
0.000840526
0.000840842
0.000838958
0.000839896
0.000836185
0.000837719
0.000832288
0.000834364
0.000827453
0.000830039
0.000820238
0.000824139
0.000816344
0.000853091
0.000822216
0.000837231
0.000885606
0.000868959
0.000916088
0.000900701
0.000946835
0.00093147
0.000977676
0.000962268
0.00100864
0.000993168
0.00103975
0.00102421
0.001071
0.00105538
0.00110237
0.00108669
0.00113386
0.00111813
0.00116545
0.00114967
0.00119712
0.0011813
0.00122884
0.001213
0.00126059
0.00124474
0.00129232
0.00127649
0.00132399
0.0013082
0.00135556
0.00133983
0.00138697
0.00137132
0.00141815
0.00140262
0.00144902
0.00143366
0.00147952
0.00146436
0.00150954
0.00149463
0.00153899
0.00152438
0.00156777
0.00155351
0.00159574
0.00158189
0.00162279
0.00160942
0.00164878
0.00163596
0.00167356
0.00166137
0.00169699
0.00168549
0.00171886
0.00170817
0.00173896
0.00172918
0.00175706
0.00174831
0.00177305
0.00176535
0.00178651
0.00178021
0.00179709
0.00179216
0.00180448
0.00180141
0.00180807
0.00180635
0.00181487
0.00180577
0.00180868
0.0018041
0.0018086
0.00185069
0.00185195
0.00183928
0.00184035
0.000804401
0.000805592
0.00185343
0.00184652
0.0018482
0.00185521
0.0018545
0.00185921
0.00186233
0.00186393
0.00186389
0.00178427
0.00178841
0.00178761
0.00180302
0.00180712
0.00181446
0.00183379
0.00183387
0.00184569
0.00184713
0.00185361
0.00185681
0.00186445
0.00185955
0.0018527
0.00184609
0.00183686
0.00182555
0.00181393
0.00179753
0.0018086
0.001798
0.0018403
0.00180279
0.0017789
0.00179186
0.00178862
0.00179039
0.00179431
0.0017765
0.00178228
0.00176466
0.00177201
0.0017495
0.00175711
0.00173261
0.0017414
0.00171351
0.00172333
0.00169257
0.00170328
0.00167002
0.0016815
0.00164604
0.00165822
0.00162086
0.00163361
0.00159464
0.0016079
0.00156745
0.00158118
0.00153937
0.00155353
0.00151055
0.00152507
0.00148111
0.00149592
0.00145117
0.00146621
0.00142083
0.00143606
0.00139018
0.00140556
0.0013593
0.00137479
0.00132824
0.00134381
0.00129706
0.00131268
0.00126581
0.00128146
0.00123452
0.00125019
0.00120324
0.0012189
0.00117199
0.00118763
0.0011408
0.00115641
0.00110968
0.00112525
0.00107865
0.00109417
0.00104772
0.00106319
0.00101691
0.00103232
0.000986205
0.00100156
0.000955632
0.00097092
0.000925199
0.000940414
0.000895071
0.000910089
0.000863738
0.000879239
0.000832777
0.000848353
0.00080152
0.000816405
0.000793725