/*--------------------------------*- C++ -*----------------------------------*\
  =========                 |
  \\      /  F ield         | OpenFOAM: The Open Source CFD Toolbox
   \\    /   O peration     | Website:  https://openfoam.org
    \\  /    A nd           | Version:  10
     \\/     M anipulation  |
\*---------------------------------------------------------------------------*/
FoamFile
{
    format      ascii;
    class       surfaceScalarField;
    location    "1";
    object      phi;
}
// * * * * * * * * * * * * * * * * * * * * * * * * * * * * * * * * * * * * * //

dimensions      [0 3 -1 0 0 0 0];

internalField   nonuniform List<scalar> 
57492
(
0.0021365
-4.44012e-05
-0.000421937
-0.00167017
-0.00166402
0.00210045
0.00170007
-4.91972e-05
0.000143547
0.000557545
-0.000651894
0.00351637
0.00315188
-0.000427491
-0.00624076
-0.00834841
0.00365043
0.00821435
0.00334974
-0.00338771
-0.0019358
0.00197377
-0.00600108
0.00191087
-0.000734356
0.00482457
0.00089028
-0.00354162
0.000692844
-0.00397732
0.00376755
-0.000483079
0.000676148
0.00367235
-0.00365566
-0.00429944
-0.00175238
0.00438817
0.00166365
-0.000376656
-0.00430525
0.000382475
0.00267511
-0.00297703
-7.47396e-05
-0.000632225
0.00155495
0.00380324
-0.00353065
-0.00131574
0.00104315
0.000397936
0.00304964
0.000355656
-0.000210322
0.000653605
0.00332281
-0.00376609
-0.000573037
0.0032568
-0.00289408
0.000175229
-0.000389361
0.000214132
-0.00231672
0.00166654
0.000825405
-0.00464621
0.000505759
0.0034128
0.000727648
0.000876143
-0.00470084
-0.000821514
7.31846e-05
-0.00209438
-0.00274088
0.00476208
-0.00169736
0.00183764
-6.70989e-05
-0.0075488
0.00502992
0.00325854
-0.000739653
-0.00657953
-0.000442264
-0.000527005
-0.00132565
0.000664209
0.000569903
9.15336e-05
-0.000924151
-0.000419057
1.75621e-05
-0.000539858
-0.0016887
0.00201426
0.000214297
-0.000624985
0.000183382
-9.82547e-05
0.00387471
-0.00250814
-0.00257028
0.00120372
-0.00287306
0.00194941
0.00479837
-0.00280332
-0.00634564
0.0043826
0.00476636
-0.00544413
-0.00137557
0.00401637
-0.000971811
-0.00023442
0.00120623
-0.000380028
-0.000591783
-0.0018246
0.00252927
-0.0010847
0.000277289
-0.00102949
-0.0010724
-0.00390414
0.00581501
-0.000314494
-0.00245575
0.00145339
0.00100236
-0.00542576
0.00297001
0.00437357
-0.000391366
-9.41255e-06
-0.00397279
0.00320896
-0.000406024
0.00157064
-0.00029967
0.00427635
-0.00436805
0.00481417
0.000754333
-0.00467822
0.00455171
-0.000471902
0.00457346
-0.00171257
-0.00327113
0.000410239
0.00518922
0.000138572
0.00346849
-0.00177377
0.00285699
0.00204522
0.00624784
-0.00395164
-0.000558669
0.000515876
0.00399443
-0.0040823
-0.000292293
0.000422953
0.000355962
0.00387139
-0.00385239
-0.000374965
9.52956e-05
-0.00371665
-0.00565223
0.00319511
0.00444834
-0.00199122
-0.00216785
0.00370987
-0.00719425
-0.000188711
-0.00161885
7.31386e-05
0.00173442
-0.00250395
-0.000661788
0.000965064
-0.00100342
-0.0024656
-0.000845559
0.000191776
0.000547562
-0.000474424
0.000142346
0.000405216
0.0105014
0.00330951
-0.00747736
-0.00633356
0.00117814
0.000290174
0.0090331
-0.00904143
0.00165504
0.00856453
0.00112193
-0.00685385
0.00126548
-0.00298861
0.00235993
-0.000636795
0.00261244
-0.00305259
0.00170562
-0.00034325
0.000332708
-3.38589e-05
-0.0006776
-8.75872e-05
-0.00201862
-0.000329151
-0.00335288
0.00610749
0.0029297
-0.00568431
0.00391426
-0.00465469
0.00240458
0.00559376
-0.00189085
0.0111423
-0.00341399
0.000380499
-0.00810881
0.000219164
0.00609013
0.00483301
0.000397715
-0.00572544
0.00554689
8.22671e-05
-0.000131464
0.000225814
0.00147633
0.00266325
-0.000978683
-0.0031609
0.00184561
0.000188269
-0.000564189
0.000225082
0.000339108
-0.00116577
0.000601579
-0.00830805
0.00304047
-0.00235347
0.00762105
-0.00693085
-0.00401252
0.00263532
-0.00332349
0.00312932
-0.00673668
0.00293952
-1.04923e-05
-0.00138077
-0.00154826
-0.00107461
0.0033171
0.000697034
-0.00128416
-0.000124343
0.000333887
-0.00116939
-0.000125253
-0.00039131
-0.00215885
-0.00199571
-0.00115804
-5.42527e-05
0.003208
-0.00245665
-0.0030885
0.00354944
0.00243337
0.000382989
-0.00527301
0.00153654
-0.000261199
0.00180318
-0.000320898
-0.000948396
0.000557087
9.95805e-05
-0.00104798
0.000349604
-0.00151537
0.00426208
0.0033255
-0.00016086
0.00199972
-0.00608605
-0.000420412
0.00293922
-0.00207899
-0.000439823
-0.000488887
0.00389409
-0.00382562
0.00257122
0.00165357
-0.000618139
-0.00360665
-0.000676927
0.000217639
0.00303051
0.00333641
-0.00235976
-0.00133584
-0.00293331
0.000787397
0.00348176
-0.0014601
0.00341542
-0.00329117
3.99841e-05
-0.00443339
0.00180203
0.0012479
-7.80957e-05
0.00478695
-0.00286273
-0.00358824
0.00167557
-0.00251883
0.00563021
0.00353367
0.000242355
-0.000231911
0.000444116
8.8087e-05
-0.000300292
0.00129836
-0.00154569
1.54115e-05
-0.000480954
0.00111697
0.000662353
-0.000169916
0.000133078
-0.00733265
0.00273071
0.00764241
0.00729412
-0.00292407
-0.00838257
-0.00367531
0.00363678
-0.000120487
-0.00125067
-0.000317544
-0.000763671
1.81988e-05
3.75814e-05
-0.000182797
8.49741e-05
6.02412e-05
-0.00015749
0.000150688
4.43838e-05
-0.000322956
-1.73309e-05
-0.000397352
-0.000450064
8.37454e-05
-0.00117881
-0.000469212
-0.00218445
-0.00244279
0.00291552
0.00171172
0.000130355
0.000998521
-0.00331333
-0.00333166
0.00101922
-0.00392696
0.00166521
-5.49683e-05
-0.00445967
0.000819057
-0.000286342
4.49004e-05
-0.0036449
0.00318208
0.000417917
8.8383e-05
-0.00360779
0.00356431
0.00149882
-0.0105695
-0.00251011
0.00299784
0.00366222
-0.00450713
0.0028186
-0.000523753
-0.000821657
0.00120465
-0.000941844
0.000120187
0.000411265
-5.5071e-05
0.00464867
-0.00286281
-0.00230535
0.000519493
0.00407291
0.000276087
0.00535076
-0.00161273
-0.00590587
0.000292305
0.00371581
0.00134265
-0.000133386
-0.00352006
0.00394575
8.80322e-05
-0.00102988
0.000975564
-0.00303484
-0.00389619
0.00196642
0.00448
0.00349457
-0.000187152
-0.00368064
0.000373223
0.000996294
-0.000374793
-0.00398099
0.000562966
0.00536743
0.0005078
-0.00349249
-0.000158253
-5.79807e-05
-0.000610321
0.000496953
0.000146134
-3.27662e-05
0.000258245
-8.53211e-07
-0.000867712
0.000460835
-0.00224738
0.00204479
-0.00599134
0.00841642
-0.00207547
0.00349887
-0.0081673
-0.00132292
-0.000116228
-0.0043913
0.0050705
-0.00726088
0.000971516
-0.00489107
-0.00368693
0.00131713
0.00317437
0.00258881
-0.00525742
0.00209794
0.00474283
-0.0036664
0.00194157
-0.0031258
0.00176389
-0.000579654
0.00210672
-0.0030713
0.00290615
0.00457087
0.00143075
0.004232
-0.000235081
-0.00423489
0.00023797
0.00465206
-0.000587296
0.00016723
0.00490592
-0.000427494
-0.000312744
-0.00416568
0.00351406
-0.000850472
0.00224233
0.00413144
-0.000900703
0.000661328
-0.00389206
0.000735662
0.00419916
-0.000803384
-0.00378218
-0.00116582
0.0040473
0.000607948
-0.00360273
-0.00119938
0.00351532
-0.0016362
-0.00324313
0.00140085
0.00347847
-0.00171726
-0.003312
0.00339307
0.00160817
0.00316118
-0.000941364
-0.00382799
0.0031304
-0.00323949
-0.00189197
0.0018236
0.00319877
-0.00152151
0.00279072
-0.00406304
0.00362684
-0.000505161
-0.00526237
0.000440212
0.00544069
-0.000618524
0.00140643
-0.000432152
0.00329626
-0.00349897
0.000634866
-8.51215e-05
0.00334006
-0.00368709
-0.000379219
0.00218018
0.00173271
-0.00347527
-0.00405537
0.00249596
-0.000137064
0.00013621
1.87335e-05
-0.000155797
-0.000401198
-0.00496372
0.00359115
-0.0038249
-0.000301775
0.00372547
0.000246398
-0.00402046
-5.08366e-05
-0.000400396
0.00179446
0.000427685
-0.00182175
0.00193087
0.000392457
-0.00272373
0.00177679
0.00194854
-0.000101614
0.000187934
0.00116158
0.000225506
-0.00032712
0.00041344
-7.64923e-05
0.000193018
-0.000962084
8.96297e-05
-0.000166122
0.000282647
-0.000266462
0.00016078
-0.00159168
0.000200302
-0.000466764
0.000361081
7.13027e-05
-7.50159e-06
-0.000233717
-2.26396e-05
9.39423e-05
-3.01412e-05
0.000978941
0.00259753
-0.00335883
0.00120574
-0.00361979
0.00339299
0.00366957
0.000133708
-0.00123486
-0.00241466
0.00121458
0.00243495
-0.000645751
0.00263367
-0.00322278
0.000224563
-0.00328498
0.00379082
-0.00382778
-1.17996e-05
4.87536e-05
0.00378814
3.44062e-05
-3.17234e-05
-2.3513e-05
-0.00382325
1.89841e-05
0.00381545
-9.58597e-07
-2.63516e-05
0.00388225
5.55718e-05
-0.000122369
2.73777e-05
0.00397791
-0.000123037
0.00392998
-0.00390777
5.17152e-06
-0.000184683
0.0041626
-7.46742e-09
0.00381969
-7.43958e-05
-0.00378923
-6.29761e-05
-0.00377726
-1.2929e-05
-0.00377317
3.03213e-05
-0.0038553
7.03345e-05
-0.00379358
-8.5235e-05
-0.000179061
0.00434191
-2.53484e-07
0.00364041
2.26787e-07
-1.87215e-05
-0.00379242
-1.21097e-05
-0.00382578
1.34771e-05
-2.66218e-05
-0.00401264
0.000246849
1.58463e-07
0.00434165
9.72238e-08
0.00364079
-2.22106e-07
-0.0039675
0.000115095
0.00434153
3.32186e-07
-2.08111e-07
2.31597e-07
0.00434119
1.0834e-07
0.00364087
2.46903e-07
0.00364131
-2.10332e-07
-2.24439e-05
-0.00398983
-3.72129e-07
-0.0039901
1.53329e-07
4.62649e-07
0.00434095
-2.22197e-07
0.00364152
2.57345e-07
1.41156e-07
-0.00398983
-1.42689e-07
-0.00398971
-2.44596e-07
4.64425e-07
0.00434039
9.42891e-08
0.0036422
-2.14072e-07
2.66602e-07
-0.00398966
-4.34329e-07
-0.00398965
2.05851e-07
9.23059e-07
0.00433971
-2.44047e-07
0.00364287
2.52804e-07
1.9691e-07
-0.00398967
-1.85947e-07
-0.00398928
-1.72174e-07
1.37441e-06
0.00433828
5.90621e-08
0.00364447
-2.31425e-07
3.4571e-07
-0.00398954
-4.74859e-07
-0.00398917
2.36476e-07
2.74509e-06
0.00433583
-2.99968e-07
0.00364699
2.32358e-07
9.43321e-06
-0.00399872
-2.5155e-07
-0.00397951
-2.29774e-07
4.98625e-06
0.00433086
-1.56001e-08
0.00365223
-2.55429e-07
2.61368e-05
-0.0038865
-0.000138358
-0.00391214
-4.12324e-05
9.9032e-06
0.00432132
-3.61818e-07
0.00364502
1.7109e-05
2.57875e-05
-0.00390566
-6.62579e-06
-0.00388365
-2.69909e-06
1.91643e-05
0.00430217
-8.1421e-09
0.0036195
4.4683e-05
5.52903e-05
-0.00376889
-0.000192066
-0.00377251
-5.58476e-05
0.000184556
0.00411786
-2.51242e-07
0.00372952
7.4539e-05
6.36256e-05
-0.00375266
-7.98531e-05
-0.0037322
2.33132e-05
0.000162934
0.00381422
0.000140708
0.00379083
0.00010162
0.000101639
-0.000142786
-0.00371151
-0.00371853
8.79648e-05
1.1471e-05
3.70426e-05
0.0037657
0.0037658
3.65014e-05
-0.00376561
0.0038241
-0.000138345
-0.00378742
-0.000120977
0.000174067
-0.000150578
-0.003735
8.86598e-05
-0.00363312
-0.00374156
0.00377339
-3.84547e-05
-0.000109526
-0.00363587
0.00363611
-4.89668e-07
-8.37406e-07
-0.00363634
0.00363657
-4.16628e-07
-7.08281e-07
-0.00363683
0.0036371
-4.11117e-07
-6.92979e-07
-0.00363742
0.00388466
-3.924e-07
-6.87005e-07
-0.00387317
0.00381955
7.26076e-05
-6.26784e-07
-0.00394183
0.0039104
-2.9581e-07
-7.35264e-05
-0.00378472
0.00372892
-6.65721e-05
9.93308e-05
-0.00363993
0.00364013
-2.02378e-07
-3.40467e-05
-0.00364034
0.00364051
-7.71109e-08
-4.62574e-07
-0.00364068
0.00364083
-3.39699e-08
-3.80144e-07
-0.00364099
0.00364113
-4.6076e-08
-3.83133e-07
-0.00364129
0.00364143
-7.62136e-08
-4.07503e-07
-0.00364159
0.00364172
-1.46889e-07
-4.58724e-07
-0.0036419
0.00364211
-2.15639e-07
-5.45502e-07
-0.00362084
0.00370601
5.55325e-05
2.10176e-05
0.00369666
4.64017e-05
-2.24718e-05
7.32169e-05
0.00371496
-2.32762e-06
0.00374566
0.00372115
-0.00365989
1.32778e-05
-0.00375721
0.00374893
4.47832e-05
6.55571e-05
0.00365948
-0.00364226
-1.04426e-07
4.42741e-05
0.00364197
-0.00364172
-2.30794e-08
-5.49571e-07
0.00364149
-0.00364128
4.50707e-08
-4.54485e-07
0.00364109
-0.0036409
6.47748e-08
-4.10765e-07
0.00364071
-0.00364052
5.995e-08
-3.96981e-07
0.00364032
-0.0036401
6.93691e-09
-4.19908e-07
0.00371402
-0.00370876
-9.08802e-08
-4.76065e-07
0.0037712
-0.00373064
-5.34825e-05
-5.40209e-07
0.00370654
-0.00368257
4.63694e-05
6.21492e-06
0.003729
-0.00375351
3.79912e-05
-3.88109e-05
0.00363774
-0.00363731
-2.70383e-07
-6.79394e-07
0.00363688
-0.00363642
-2.54809e-07
-6.81471e-07
0.00363594
-0.00363545
-2.52482e-07
-6.47881e-07
0.00363498
-0.00367579
-4.22488e-07
-7.03263e-07
0.00367749
-0.00373244
-8.91688e-07
-1.00037e-06
0.00370749
-0.00365506
3.55368e-05
-1.63714e-06
-0.00361656
5.01557e-05
-0.00381719
-0.000120804
0.00370777
6.21064e-05
1.6604e-06
0.00374494
0.000138819
-0.000124106
-0.00364783
0.000112078
-0.00358982
0.000126614
-0.000117364
-0.00382644
-0.00373249
-0.00374259
0.00368134
-7.70923e-05
0.00378592
-0.00381825
-8.84707e-05
-7.76468e-05
-0.00363418
0.00363464
-3.89203e-05
-6.2367e-05
-0.00363519
0.00363562
-9.23011e-07
-1.38159e-06
-0.00363601
0.00363639
-7.91e-07
-1.0969e-06
-0.00363675
0.0036371
-7.6838e-07
-1.0534e-06
-0.00363745
0.0036378
-7.36806e-07
-1.03676e-06
-0.00363816
0.00371143
-6.62017e-07
-9.86258e-07
-0.00363879
0.00363906
-5.69846e-07
-8.89759e-07
-0.00373924
0.00367314
-4.7055e-07
-8.47838e-07
-0.00363984
0.00364005
-4.15436e-07
-7.46738e-07
-0.00364027
0.00364048
-2.89963e-07
-6.73783e-07
-0.00364066
0.00364084
-2.11897e-07
-5.62597e-07
-0.00364099
0.00364114
-1.98847e-07
-5.30142e-07
-0.00364127
0.0036414
-2.09404e-07
-5.36578e-07
-0.00364151
0.00364162
-2.5979e-07
-5.6821e-07
-0.00364173
0.00364187
-3.53042e-07
-6.56684e-07
-0.00364177
0.00367122
2.60835e-05
2.11211e-05
9.20095e-06
-1.62848e-05
0.00372204
3.09099e-06
0.00371388
-0.00366021
0.00369634
2.59769e-05
5.74037e-05
0.00369915
-0.0037001
4.57332e-05
0.00366932
3.14863e-05
-3.01279e-06
4.5096e-05
0.00370286
0.00372636
0.00370075
-0.00367377
-1.3696e-05
6.62032e-05
0.00364212
-0.00364193
-2.96456e-07
1.26246e-05
0.00364176
-0.00364159
-1.89089e-07
-7.2328e-07
0.00364143
-0.00364126
-1.23662e-07
-6.19025e-07
0.00364109
-0.00364091
-1.11168e-07
-5.80655e-07
0.00364074
-0.00364055
-1.24887e-07
-5.72623e-07
0.00364036
-0.00364013
-2.17546e-07
-6.14082e-07
0.00363988
-0.00363963
-3.38574e-07
-7.31569e-07
0.00363938
-0.0036925
-3.62561e-07
-7.92132e-07
0.00368544
-0.00363861
-4.57458e-07
-8.43178e-07
0.00367652
-0.00363797
-5.58801e-07
-9.05253e-07
0.00363761
-0.00363721
-6.74963e-07
-1.03739e-06
0.00363677
-0.00363628
-7.37816e-07
-1.12166e-06
0.00363576
-0.00363522
-8.0143e-07
-1.16678e-06
0.00363467
-0.00363415
-9.41951e-07
-1.25257e-06
0.00363369
-0.00363331
-1.27509e-06
-1.45831e-06
0.00363299
-0.00359548
-1.96901e-06
-1.95699e-06
0.00357505
-0.00352626
6.32899e-05
2.97223e-05
-0.00384563
-8.99905e-05
9.97539e-05
-0.000154161
-0.00353541
-0.00350442
7.79128e-05
-0.000207037
-0.00359496
2.52719e-05
0.00367416
0.00367465
3.97737e-05
-5.6484e-05
8.0611e-05
-0.00385057
-5.26931e-05
-0.00384942
7.63307e-05
-0.000153435
-0.00345831
5.42292e-05
-0.00348232
-0.00385892
0.00370547
-0.00369455
1.5053e-05
0.0036676
6.31438e-05
6.72144e-05
-2.9227e-05
0.00366487
4.48651e-05
0.003697
-0.00380483
0.00384499
-9.28475e-05
-0.000103301
8.60965e-05
-0.00383221
0.00389065
-8.65577e-05
0.000313819
-0.00411792
-1.74789e-05
-0.00383969
0.00380873
-5.75024e-05
-8.46987e-05
-0.0037589
0.00369871
-1.69049e-05
-2.78181e-05
-0.00367077
0.00363396
-2.10832e-06
-3.44316e-05
-0.0036346
0.0036352
-1.52119e-06
-2.01772e-06
-0.00363575
0.00363625
-1.29705e-06
-1.64543e-06
-0.00363671
0.00363714
-1.1951e-06
-1.51455e-06
-0.00363754
0.00363791
-1.10744e-06
-1.43235e-06
-0.00363825
0.00363856
-9.70948e-07
-1.33073e-06
-0.00363886
0.00363912
-8.29422e-07
-1.18832e-06
-0.00363935
0.00363959
-7.15927e-07
-1.07865e-06
-0.00363982
0.00364003
-6.2332e-07
-9.72644e-07
-0.00364024
0.00364045
-5.04648e-07
-8.85612e-07
-0.00364066
0.00364084
-3.98455e-07
-7.6675e-07
-0.00364101
0.00364116
-3.49667e-07
-6.98376e-07
-0.0036413
0.00364142
-3.29486e-07
-6.72725e-07
-0.00364152
0.00364161
-3.46755e-07
-6.72613e-07
-0.00364168
0.00364174
-4.15346e-07
-7.27768e-07
-0.00365186
0.00365805
1.98919e-05
1.10095e-05
2.09033e-05
2.46775e-05
-8.49016e-06
0.00370586
-4.02365e-05
1.23961e-05
0.003702
0.00369832
0.00368864
0.00368829
-0.00368427
4.17157e-05
-0.00368314
0.00366324
5.96645e-05
3.66399e-05
0.00364193
-0.00365525
-3.75105e-07
2.38581e-05
0.00364173
-0.00364167
-3.63849e-07
-8.89018e-07
0.00364159
-0.0036415
-2.86023e-07
-7.97091e-07
0.00364138
-0.00364124
-2.63273e-07
-7.38841e-07
0.00364108
-0.00364092
-2.77716e-07
-7.33757e-07
0.00364074
-0.00364055
-3.14505e-07
-7.49557e-07
0.00364035
-0.00364014
-4.33355e-07
-8.13489e-07
0.00363991
-0.00363967
-5.80382e-07
-9.5931e-07
0.0036394
-0.00363912
-6.47362e-07
-1.05289e-06
0.00363884
-0.00363855
-7.44914e-07
-1.12362e-06
0.00363823
-0.0036379
-8.91157e-07
-1.2283e-06
0.00363754
-0.00363715
-1.06117e-06
-1.39457e-06
0.00363673
-0.00363627
-1.20395e-06
-1.54182e-06
0.00363576
-0.00363521
-1.35325e-06
-1.67539e-06
0.00363463
-0.00363405
-1.52394e-06
-1.82734e-06
0.0036335
-0.003633
-1.77244e-06
-2.01237e-06
0.0036326
-0.00363229
-2.27347e-06
-2.35761e-06
0.00359958
-0.0035333
-2.99282e-06
-2.98993e-06
0.00349501
-0.00350274
6.19594e-05
3.96246e-05
6.9164e-05
-6.74597e-05
-0.00348402
-0.0034864
5.28265e-05
0.000113081
-0.00387756
-9.18677e-05
-0.00365652
3.78301e-05
0.00364217
0.00367588
3.22328e-05
0.000133068
-0.00405184
1.00483e-06
-0.00352677
0.000787042
-0.00325668
0.00424643
-6.62864e-05
4.56095e-05
-0.00346573
-9.91479e-05
-0.00345116
-0.00257528
0.00391631
0.000607514
-0.00201497
-0.000132624
-0.00383771
-0.00370993
0.00386345
0.000160298
0.000334888
-0.000128515
-0.0038234
0.00378633
-5.57779e-05
2.25745e-05
-0.00375331
0.00370063
-4.82705e-06
-5.16729e-05
-0.00367733
0.00366413
-3.70486e-06
-4.52307e-06
-0.00363312
0.00363378
-2.76146e-06
-3.42165e-06
-0.00363444
0.00363509
-2.17482e-06
-2.67935e-06
-0.0036357
0.00363626
-1.85439e-06
-2.25557e-06
-0.00363676
0.00363721
-1.6429e-06
-2.01155e-06
-0.00363761
0.00363797
-1.47341e-06
-1.83438e-06
-0.00363831
0.00363862
-1.28244e-06
-1.66615e-06
-0.00363891
0.00363917
-1.09589e-06
-1.47581e-06
-0.00363942
0.00363965
-9.47665e-07
-1.3225e-06
-0.00363987
0.00364007
-8.28813e-07
-1.18909e-06
-0.00364028
0.00364048
-7.11746e-07
-1.08889e-06
-0.00364068
0.00364087
-5.89594e-07
-9.68335e-07
-0.00364105
0.0036412
-5.0645e-07
-8.71562e-07
-0.00364134
0.00364146
-4.50239e-07
-8.10677e-07
-0.00364156
0.00364164
-4.20989e-07
-7.71848e-07
-0.00364168
0.0036417
-4.33161e-07
-7.70816e-07
-0.0036535
0.00367379
-3.9437e-07
-7.94015e-07
-0.00366498
0.00366295
1.70819e-05
2.97112e-05
-0.0036776
0.00367381
4.16124e-05
4.84982e-05
5.27511e-05
-2.96965e-05
0.00367895
-3.33856e-05
8.72623e-06
0.00369847
0.00366153
3.64108e-05
1.4948e-05
0.0036545
0.00370503
-2.61014e-05
1.88154e-05
0.00367216
0.00367749
-2.34513e-05
5.18173e-06
0.00369415
0.00369236
0.00369669
-0.00368341
4.63831e-05
-0.00375405
0.00365409
0.00010514
-2.51245e-05
0.0036741
-0.00366637
3.39873e-05
2.73279e-05
0.00364164
-0.00364159
-4.2119e-07
-8.77205e-07
0.00364159
-0.00364158
-3.74193e-07
-8.86318e-07
0.00364154
-0.00364147
-3.59815e-07
-8.34774e-07
0.00364137
-0.00364124
-3.92958e-07
-8.42791e-07
0.00364109
-0.00364092
-4.43354e-07
-8.80857e-07
0.00364074
-0.00364055
-5.10929e-07
-9.29617e-07
0.00364034
-0.00364013
-6.45901e-07
-1.01793e-06
0.00363991
-0.00363968
-8.11463e-07
-1.1761e-06
0.00363943
-0.00363915
-9.23789e-07
-1.30523e-06
0.00363887
-0.00363856
-1.04866e-06
-1.4111e-06
0.00363824
-0.00363791
-1.22772e-06
-1.54849e-06
0.00363756
-0.00363718
-1.43446e-06
-1.74411e-06
0.00363678
-0.00363634
-1.64326e-06
-1.94189e-06
0.00363587
-0.00363535
-1.87401e-06
-2.15194e-06
0.00363479
-0.0036342
-2.11815e-06
-2.38441e-06
0.00363359
-0.00363298
-2.37423e-06
-2.62189e-06
0.00363244
-0.003632
-2.71767e-06
-2.90122e-06
0.00363168
-0.00363146
-3.20706e-06
-3.30728e-06
0.003588
-0.0035223
-3.74816e-06
-3.83623e-06
0.00352583
-0.00351363
3.34034e-05
5.63633e-05
5.4664e-05
-5.10755e-05
-0.00346931
-0.00349041
3.14446e-05
0.000109266
-0.00385375
-2.86873e-05
-0.00362683
0.000279617
-0.00354442
9.18646e-07
-0.00362684
0.00367494
-0.00368008
4.67476e-05
0.00366245
2.12155e-05
4.78597e-05
-3.29003e-05
0.00367919
1.39133e-05
0.00368804
0.000265
-0.00312922
1.93858e-06
-0.00350417
-0.00189626
-0.00194046
-0.00305608
0.00350906
0.00015453
8.33838e-05
-5.78896e-05
-0.00349481
6.01458e-05
-0.00346717
-0.00284557
-0.000343132
-0.00375713
-0.00365825
0.00370423
0.000114325
0.000185696
-0.00373095
0.0036796
-4.42363e-06
-4.15057e-06
-0.00363288
0.00363276
-4.706e-06
-4.95597e-06
-0.00363288
0.00363319
-4.01619e-06
-4.64273e-06
-0.00363364
0.00363417
-3.29147e-06
-3.87055e-06
-0.00363475
0.00363534
-2.76453e-06
-3.25801e-06
-0.0036359
0.00363642
-2.37439e-06
-2.81725e-06
-0.00363689
0.00363731
-2.06799e-06
-2.48025e-06
-0.0036377
0.00363805
-1.8234e-06
-2.21703e-06
-0.00363837
0.00363867
-1.58738e-06
-1.98932e-06
-0.00363896
0.00363923
-1.36773e-06
-1.76324e-06
-0.00363948
0.00363972
-1.18609e-06
-1.57395e-06
-0.00363995
0.00364015
-1.03838e-06
-1.41173e-06
-0.00364035
0.00364055
-9.09211e-07
-1.28896e-06
-0.00364074
0.00364093
-7.73137e-07
-1.15988e-06
-0.0036411
0.00364125
-6.61239e-07
-1.04087e-06
-0.00364139
0.00364151
-5.70046e-07
-9.47846e-07
-0.00364161
0.00364168
-4.92687e-07
-8.69873e-07
-0.00364172
0.00364173
-4.42602e-07
-8.09576e-07
-0.00364172
0.00364176
-4.30703e-07
-7.88244e-07
-0.00367224
0.00365967
2.96575e-05
-7.7426e-07
2.80878e-05
4.05773e-05
-6.35841e-05
0.00370196
-1.78286e-05
2.97354e-05
0.00368657
0.00368428
3.36497e-07
6.53469e-09
0.00365415
0.00364178
-3.59865e-05
5.37623e-05
0.00365438
0.00364151
0.00371322
0.00369838
-0.0036872
3.52076e-05
-0.0036527
0.00369016
6.76819e-05
2.05579e-05
0.00367605
-0.00364165
-4.05105e-07
1.61696e-05
0.00364161
-0.00364162
-4.13721e-07
-9.17959e-07
0.00364163
-0.00364162
-3.86758e-07
-8.73261e-07
0.00364157
-0.00364149
-4.39386e-07
-8.81529e-07
0.00364139
-0.00364126
-5.21367e-07
-9.48694e-07
0.00364111
-0.00364095
-6.07764e-07
-1.0267e-06
0.00364077
-0.00364057
-7.07656e-07
-1.10975e-06
0.00364037
-0.00364016
-8.5775e-07
-1.22342e-06
0.00363994
-0.00363972
-1.03727e-06
-1.39023e-06
0.00363947
-0.00363921
-1.18977e-06
-1.54857e-06
0.00363893
-0.00363862
-1.3496e-06
-1.69248e-06
0.00363831
-0.00363798
-1.55816e-06
-1.86421e-06
0.00363764
-0.00363727
-1.79775e-06
-2.08637e-06
0.00363689
-0.00363647
-2.05869e-06
-2.32652e-06
0.00363603
-0.00363555
-2.35484e-06
-2.5959e-06
0.00363503
-0.00363447
-2.67737e-06
-2.89992e-06
0.00363388
-0.00363325
-2.99822e-06
-3.21647e-06
0.00363264
-0.00363205
-3.30028e-06
-3.52039e-06
0.00363155
-0.00363115
-3.60938e-06
-3.80974e-06
0.00363084
-0.00363056
-4.0263e-06
-4.14609e-06
0.00356951
-0.00353139
-4.71274e-06
-4.68557e-06
0.00349448
-0.00346738
3.30485e-05
-5.47291e-06
0.000101189
-6.58373e-05
-0.00350252
-0.00344749
8.12946e-05
7.99037e-05
-0.00365404
7.14068e-08
-0.00362599
4.63825e-05
0.00364581
0.00367648
2.7585e-05
0.000156551
-0.00343597
-0.000471505
-0.00414848
-7.89851e-05
-0.00352174
1.06547e-06
-0.00362596
1.89731e-06
-0.00356396
-0.00409535
-0.00069068
0.000127561
-0.000409582
-0.00381333
-0.000310826
-0.00371009
-5.8892e-05
-0.00350175
6.46813e-05
-0.000119507
-0.0034477
0.000105228
-0.00348803
-0.00367715
-0.00333167
0.00347967
6.52901e-06
0.00350317
-0.00385943
-0.000334418
-0.000171635
-0.00358605
0.0036351
6.52715e-05
7.93222e-05
-0.00363515
0.00363481
-4.08218e-06
-4.20344e-06
-0.00363437
0.00363405
-4.38942e-06
-4.51377e-06
-0.00363397
0.00363411
-4.1539e-06
-4.56213e-06
-0.00363441
0.00363481
-3.69339e-06
-4.16926e-06
-0.00363527
0.00363574
-3.24054e-06
-3.71333e-06
-0.00363621
0.00363665
-2.81967e-06
-3.28311e-06
-0.00363707
0.00363746
-2.45529e-06
-2.895e-06
-0.00363781
0.00363815
-2.15574e-06
-2.57356e-06
-0.00363846
0.00363875
-1.88429e-06
-2.29995e-06
-0.00363904
0.00363931
-1.63821e-06
-2.04616e-06
-0.00363956
0.0036398
-1.42779e-06
-1.82746e-06
-0.00364003
0.00364024
-1.25155e-06
-1.63852e-06
-0.00364044
0.00364063
-1.1005e-06
-1.48789e-06
-0.00364081
0.00364099
-9.48548e-07
-1.3425e-06
-0.00364115
0.0036413
-8.12645e-07
-1.20407e-06
-0.00364144
0.00364156
-6.91521e-07
-1.08385e-06
-0.00364166
0.00364175
-5.74574e-07
-9.72458e-07
-0.0036418
0.00364183
-4.74165e-07
-8.65567e-07
-0.00364185
0.00364189
-4.6647e-07
-8.06242e-07
-0.00364198
0.00367216
-5.29173e-07
-8.61805e-07
-0.0036751
0.00368393
3.79214e-05
2.51465e-05
-0.00363507
0.00365086
3.05872e-05
7.00798e-05
6.31833e-05
-4.67734e-05
0.00367016
-1.52107e-05
-5.89636e-06
0.00367197
0.00369378
4.66339e-05
-2.79094e-07
0.0036556
0.00368414
1.41691e-07
-5.61541e-08
0.00365407
0.00364165
-4.66656e-08
2.45971e-07
0.00365418
0.00364141
-2.78797e-05
2.29544e-05
0.00368411
0.00368559
-1.71312e-05
2.1969e-05
0.00367165
0.00369386
0.00370197
-0.00365993
2.56423e-05
-0.00368518
0.00366372
4.34299e-05
4.43725e-05
0.003667
-0.00365892
2.71291e-05
2.76253e-05
0.0036418
-0.00364174
-4.55941e-07
-9.53798e-07
0.00364175
-0.00364176
-3.999e-07
-9.12653e-07
0.00364175
-0.00364171
-4.28709e-07
-8.82557e-07
0.00364164
-0.00364155
-5.34392e-07
-9.51865e-07
0.00364143
-0.0036413
-6.53018e-07
-1.06203e-06
0.00364116
-0.00364099
-7.70972e-07
-1.17267e-06
0.00364082
-0.00364062
-9.00931e-07
-1.28693e-06
0.00364042
-0.00364021
-1.06748e-06
-1.42532e-06
0.00364
-0.00363977
-1.26072e-06
-1.60295e-06
0.00363954
-0.00363928
-1.44691e-06
-1.78564e-06
0.00363901
-0.00363871
-1.64293e-06
-1.9656e-06
0.00363841
-0.00363808
-1.88067e-06
-2.17159e-06
0.00363775
-0.0036374
-2.15209e-06
-2.42105e-06
0.00363702
-0.00363663
-2.45518e-06
-2.69847e-06
0.00363621
-0.00363576
-2.80106e-06
-3.01372e-06
0.00363529
-0.00363478
-3.18569e-06
-3.37233e-06
0.00363424
-0.00363366
-3.5795e-06
-3.7584e-06
0.00363305
-0.00363242
-3.92745e-06
-4.12826e-06
0.0036318
-0.00363121
-4.20632e-06
-4.42997e-06
0.00363066
-0.00363015
-4.52779e-06
-4.69722e-06
0.00362972
-0.00362931
-5.12124e-06
-5.12119e-06
0.00362889
-0.00358974
-6.09656e-06
-5.89612e-06
0.00355138
-0.00348673
4.05755e-05
4.29366e-05
5.47592e-05
-8.60065e-05
-0.00345678
-0.00348614
5.41655e-05
5.10297e-05
-0.00354852
-0.00391435
-0.000354663
1.42153e-05
-0.00352917
0.0036975
-0.0037064
3.94915e-05
0.00369444
-2.84184e-06
4.17339e-05
-3.56283e-05
0.00366554
5.14989e-05
0.00365396
6.10126e-07
-0.00362553
1.18219e-06
-0.00362525
-0.000114533
-0.00371804
1.88066e-06
-0.00362473
2.9389e-06
-0.0036242
4.33134e-06
-0.00353803
7.43941e-05
-4.07703e-05
-0.00349041
3.29989e-05
-0.00344474
-0.00362551
-0.00377197
0.003592
-0.000154446
-0.000288916
0.000402024
-0.00402746
0.00393432
-0.00409518
-0.000128054
-0.000192307
-0.00346462
0.0035254
-5.42455e-05
-4.42607e-05
-0.00359517
0.00363431
2.61333e-05
9.54788e-06
-0.00363477
0.00363486
-4.17419e-06
-4.66356e-06
-0.00363476
0.00363466
-4.28686e-06
-4.41676e-06
-0.00363467
0.00363481
-4.29411e-06
-4.56761e-06
-0.00363506
0.00363538
-4.01897e-06
-4.41996e-06
-0.00363575
0.00363613
-3.62602e-06
-4.07876e-06
-0.00363652
0.0036369
-3.20133e-06
-3.66953e-06
-0.00363727
0.00363762
-2.80885e-06
-3.26266e-06
-0.00363796
0.00363827
-2.47265e-06
-2.90714e-06
-0.00363857
0.00363886
-2.1726e-06
-2.59965e-06
-0.00363914
0.0036394
-1.90303e-06
-2.32156e-06
-0.00363965
0.00363989
-1.66729e-06
-2.07756e-06
-0.00364012
0.00364033
-1.46446e-06
-1.86431e-06
-0.00364053
0.00364071
-1.28787e-06
-1.68558e-06
-0.00364089
0.00364106
-1.11759e-06
-1.51947e-06
-0.00364122
0.00364137
-9.6054e-07
-1.36216e-06
-0.0036415
0.00364163
-8.14757e-07
-1.21889e-06
-0.00364173
0.00364183
-6.69894e-07
-1.08165e-06
-0.00364191
0.00364197
-5.35785e-07
-9.44242e-07
-0.00364201
0.00364205
-5.01287e-07
-8.50605e-07
-0.0036421
0.00364219
-6.21712e-07
-9.08955e-07
-0.00366837
0.0036817
2.45869e-05
-1.03342e-06
4.53803e-05
1.90187e-05
-4.1344e-05
0.00369248
-2.97546e-05
4.36044e-06
0.00369736
0.00368304
-4.93166e-09
9.9158e-08
0.00365551
0.00364279
-4.25349e-08
-1.08799e-07
0.00365422
0.0036417
2.18702e-07
-1.76121e-07
0.00365414
0.00364152
-4.30203e-05
3.27155e-05
0.00369442
0.00364239
0.00369095
0.0036962
-0.00369829
2.77282e-05
-0.0036885
0.00367273
5.91979e-05
5.20733e-05
0.00366966
-0.00364198
-5.53172e-07
-1.00333e-06
0.00364193
-0.00364193
-4.55137e-07
-1.00166e-06
0.00364194
-0.00364193
-4.13049e-07
-9.03408e-07
0.00364188
-0.00364181
-5.00364e-07
-9.26256e-07
0.00364172
-0.00364161
-6.41829e-07
-1.04308e-06
0.00364149
-0.00364136
-7.86966e-07
-1.18196e-06
0.00364121
-0.00364105
-9.31744e-07
-1.31864e-06
0.00364088
-0.00364069
-1.08845e-06
-1.46009e-06
0.0036405
-0.00364029
-1.27338e-06
-1.62187e-06
0.00364008
-0.00363986
-1.48233e-06
-1.81384e-06
0.00363962
-0.00363937
-1.69746e-06
-2.01863e-06
0.00363911
-0.00363882
-1.9277e-06
-2.23116e-06
0.00363852
-0.00363821
-2.1948e-06
-2.46982e-06
0.00363788
-0.00363754
-2.49715e-06
-2.74756e-06
0.00363718
-0.0036368
-2.83664e-06
-3.05896e-06
0.0036364
-0.00363598
-3.22166e-06
-3.41191e-06
0.00363554
-0.00363507
-3.65162e-06
-3.81173e-06
0.00363458
-0.00363406
-4.10452e-06
-4.24906e-06
0.0036335
-0.0036329
-4.52746e-06
-4.68615e-06
0.00363226
-0.00363159
-4.8807e-06
-5.06624e-06
0.00363089
-0.00363019
-5.22778e-06
-5.39184e-06
0.00362952
-0.0036289
-5.74578e-06
-5.79111e-06
0.00362834
-0.00362781
-6.62283e-06
-6.46038e-06
0.00357735
-0.00352897
-7.80708e-06
-7.51783e-06
0.00350686
-0.0035116
3.774e-05
3.20511e-05
-0.000191783
2.62089e-05
-0.00354452
-0.00360309
7.72256e-05
-4.38838e-05
-0.00347808
-0.00345449
2.01118e-05
-7.39444e-07
-0.00353356
4.488e-05
0.00365392
0.00370374
2.04886e-05
8.64995e-05
-0.0040651
-0.000116585
8.49842e-07
-0.0036252
0.000196848
-0.00413781
-3.76086e-05
-0.00360609
1.14964e-06
-0.00362452
-4.61106e-05
-0.00364572
1.8659e-06
-0.00362366
3.00398e-06
-0.00362287
4.4556e-06
-0.00358326
-3.28122e-05
-0.00350148
4.76394e-05
-4.79812e-05
-0.00347774
5.06257e-05
-0.00345747
-0.0036254
-0.00402361
0.00385873
3.6825e-05
-0.000210893
-0.00400885
0.000154643
0.00414059
-0.00404533
-0.000306149
3.97525e-07
-0.00374878
0.00366519
-7.08599e-05
-8.23582e-05
-0.00362996
0.00358381
-8.09791e-06
-9.03048e-06
-0.00360067
0.00363285
-6.05428e-06
-7.30622e-06
-0.0036336
0.00363413
-4.70313e-06
-5.41173e-06
-0.00363447
0.00363471
-4.52598e-06
-4.75551e-06
-0.00363493
0.00363518
-4.54151e-06
-4.78767e-06
-0.00363546
0.00363577
-4.33242e-06
-4.70294e-06
-0.0036361
0.00363645
-3.96734e-06
-4.40896e-06
-0.00363679
0.00363713
-3.54548e-06
-4.01293e-06
-0.00363747
0.0036378
-3.13884e-06
-3.60002e-06
-0.00363812
0.00363842
-2.77694e-06
-3.22334e-06
-0.00363871
0.00363899
-2.4523e-06
-2.88953e-06
-0.00363926
0.00363951
-2.16031e-06
-2.58876e-06
-0.00363976
0.00363999
-1.90127e-06
-2.32153e-06
-0.00364021
0.00364042
-1.67369e-06