/*--------------------------------*- C++ -*----------------------------------*\
  =========                 |
  \\      /  F ield         | OpenFOAM: The Open Source CFD Toolbox
   \\    /   O peration     | Website:  https://openfoam.org
    \\  /    A nd           | Version:  10
     \\/     M anipulation  |
\*---------------------------------------------------------------------------*/
FoamFile
{
    format      ascii;
    class       volVectorField;
    location    "27";
    object      U;
}
// * * * * * * * * * * * * * * * * * * * * * * * * * * * * * * * * * * * * * //

dimensions      [0 1 -1 0 0 0 0];

internalField   nonuniform List<vector> 
6397
(
(1.04844 -0.176168 9.21875e-21)
(1.05482 -0.186391 -4.20999e-20)
(1.25621 0.32858 0)
(1.22102 0.331313 5.96337e-22)
(1.18155 0.370118 -3.67603e-22)
(1.21346 0.373596 -1.06243e-21)
(0.794302 -0.490966 -3.86826e-20)
(0.481476 -0.715242 9.86048e-20)
(-0.062089 0.117748 1.82613e-20)
(-0.128578 0.0959656 -8.30804e-21)
(0.499106 0.707911 7.26768e-20)
(0.799862 0.717671 -1.014e-20)
(0.490378 0.0307378 -3.85159e-22)
(0.554668 0.0185042 -1.34463e-22)
(0.35993 0.028485 1.09844e-21)
(-0.0615076 0.0461298 -8.28333e-20)
(0.0906818 0.0643994 -4.67201e-20)
(-0.113625 0.0520799 4.01561e-20)
(0.326716 0.00761117 5.48093e-20)
(0.449492 -0.171314 -1.66294e-19)
(0.546153 -0.0240835 -8.55654e-20)
(0.278544 -0.00701263 -1.25319e-19)
(0.0420062 0.00736087 5.63362e-21)
(0.547409 0.0431457 -8.67156e-20)
(0.691475 0.020054 0)
(0.690925 0.0170929 8.09615e-23)
(0.816932 0.0234043 -6.97299e-24)
(0.945914 -0.158159 1.42541e-20)
(0.952826 -0.295859 -3.81216e-21)
(0.996886 0.0153815 8.37843e-21)
(0.996123 -0.133548 -1.17436e-20)
(1.1587 0.283881 1.25126e-21)
(1.18864 0.286092 4.86714e-24)
(1.18807 0.328614 1.0674e-21)
(1.10408 0.204443 8.71763e-22)
(1.12685 0.20839 0)
(1.13021 0.241881 -4.20053e-22)
(1.1564 0.244863 -7.36769e-22)
(1.08485 0.146623 2.18968e-21)
(1.06903 0.142074 -1.24235e-21)
(1.08372 0.172065 0)
(1.10371 0.174899 0)
(1.00288 0.153889 -3.99337e-21)
(1.19781 0.428385 -3.49351e-21)
(1.22108 0.396674 4.42027e-21)
(1.24759 0.369518 -4.97305e-21)
(1.19812 0.411635 -2.75222e-21)
(1.22807 0.404267 8.90554e-21)
(1.03632 0.0791804 2.37222e-21)
(1.04743 0.0727536 -3.72726e-22)
(1.04461 0.056545 4.46901e-21)
(1.05977 0.0496834 -1.69984e-21)
(1.05391 0.0556832 -1.17497e-20)
(0.974762 0.191632 -8.91039e-21)
(1.03005 0.222797 5.85698e-21)
(1.03203 0.0517376 4.17961e-21)
(1.03757 0.0644063 4.25419e-21)
(1.12852 -0.029039 -1.47507e-21)
(1.04808 -0.50102 -2.91526e-21)
(1.03685 -0.510003 2.94314e-21)
(1.05119 -0.508566 2.78405e-21)
(1.04839 -0.523823 -2.74266e-21)
(1.04039 -0.531006 -3.64134e-21)
(1.02709 -0.516875 3.57905e-21)
(1.00466 -0.472949 0)
(0.970983 -0.389239 5.94044e-21)
(0.92899 -0.257811 -6.21837e-21)
(0.885092 -0.0810823 0)
(1.03142 -0.493509 -2.79662e-21)
(1.02022 -0.525019 -1.65895e-23)
(1.0073 -0.503186 2.63281e-21)
(1.0487 -0.493309 0)
(1.05904 -0.507959 0)
(1.06434 -0.528069 0)
(1.0664 -0.538268 -1.41633e-23)
(1.06215 -0.529795 2.00894e-24)
(1.04746 -0.493075 0)
(1.02006 -0.415967 -8.02633e-25)
(0.982346 -0.284744 0)
(0.9392 -0.0995319 0)
(0.980405 -0.502972 -4.04145e-21)
(1.00046 -0.524214 2.67011e-22)
(0.848587 0.121444 0)
(0.899223 0.116697 0)
(0.954918 -0.474722 -7.03301e-22)
(0.981657 -0.487958 0)
(0.829139 0.311658 0)
(0.872764 0.321994 0)
(0.933563 -0.406009 9.9797e-21)
(0.964498 -0.409585 -1.55491e-21)
(0.831921 0.453079 0)
(0.865825 0.475963 0)
(0.918683 -0.300886 -8.5761e-21)
(0.910752 -0.170143 -5.53129e-21)
(0.854211 0.526972 0)
(0.878245 0.558299 6.65859e-22)
(0.911418 -0.394474 0)
(0.886174 -0.173354 9.90689e-21)
(0.893774 -0.298804 6.26006e-22)
(0.968346 -0.479226 -2.63838e-21)
(0.937101 -0.455529 0)
(1.03099 -0.472538 -1.13026e-21)
(1.00162 -0.477732 2.64419e-21)
(1.07002 -0.499006 1.40552e-21)
(1.0535 -0.479234 9.06105e-22)
(1.09569 -0.533858 1.41861e-23)
(1.08388 -0.521232 -1.48358e-21)
(1.09615 -0.503315 -5.95501e-22)
(1.10106 -0.531308 -2.76194e-21)
(1.04762 -0.308133 -3.23673e-21)
(1.07718 -0.433924 6.35163e-21)
(0.965122 0.0993055 0)
(1.0065 -0.123464 0)
(0.91144 0.482762 0)
(0.929758 0.316496 0)
(0.910632 0.575028 -1.38304e-21)
(0.798109 0.297132 -4.59595e-21)
(0.841116 0.488152 -1.47646e-21)
(0.808683 0.422841 4.54843e-21)
(0.845006 -0.0641675 5.61067e-21)
(0.811553 0.122344 -5.4842e-21)
(0.933526 -0.362615 3.97516e-23)
(0.888459 -0.232265 1.79224e-22)
(1.00044 -0.497961 0)
(0.971079 -0.448962 0)
(1.03857 -0.511461 2.51464e-21)
(1.02221 -0.514652 3.1345e-22)
(1.05146 -0.50439 4.82523e-22)
(1.04929 -0.502917 -2.50036e-21)
(1.03819 -0.537795 2.13937e-21)
(1.04784 -0.520527 -1.78459e-22)
(1.01633 -0.493649 -6.04457e-21)
(1.02835 -0.534759 -1.98632e-21)
(0.998781 -0.281678 0)
(1.00772 -0.405133 6.66417e-21)
(0.909942 -0.0309579 -6.37068e-21)
(0.946594 -0.0127211 -2.64598e-23)
(0.885912 -0.0412766 2.4682e-21)
(0.92367 0.600881 -1.47952e-21)
(0.903383 0.577537 4.00314e-22)
(0.840458 0.44387 -1.41567e-23)
(0.887612 0.501011 1.47968e-21)
(0.894463 0.453493 0)
(0.941251 0.588623 9.59851e-22)
(0.949187 0.611774 -1.86396e-21)
(0.95531 0.599265 1.85313e-21)
(1.05892 0.0483573 4.25365e-21)
(0.870767 -0.170009 -4.67459e-21)
(0.870361 -0.0422014 -2.36286e-21)
(1.0647 0.18813 3.92114e-21)
(0.890493 0.542874 1.08807e-22)
(0.898047 -0.376037 0)
(0.878941 -0.285275 -7.94682e-22)
(0.963633 -0.445621 4.1027e-23)
(0.927423 -0.427792 0)
(1.03279 -0.446622 -3.19e-22)
(1.00069 -0.445846 6.10808e-22)
(1.08137 -0.481057 0)
(1.05881 -0.459138 1.42345e-22)
(1.12532 -0.519527 0)
(1.10353 -0.503885 9.01231e-23)
(1.14866 -0.507686 0)
(1.14159 -0.524595 2.7498e-22)
(1.12291 -0.336655 9.89964e-24)
(1.14253 -0.451007 3.27825e-22)
(1.04089 0.0621582 2.90028e-22)
(1.08638 -0.160703 -5.24614e-22)
(0.96389 0.472183 -1.00829e-22)
(0.99649 0.289851 -1.26188e-22)
(0.948611 0.578907 7.09306e-22)
(0.781064 0.282444 4.75156e-23)
(0.799875 0.390524 5.55454e-23)
(0.813931 -0.038832 -4.85029e-24)
(0.786845 0.130087 0)
(0.898658 -0.324005 0)
(0.854118 -0.195289 -5.24708e-23)
(0.976277 -0.467988 0)
(0.940753 -0.414309 0)
(1.03167 -0.493348 -1.84892e-24)
(1.00756 -0.490753 -3.1805e-22)
(1.05938 -0.503064 -3.17766e-22)
(1.05036 -0.493135 0)
(1.06327 -0.546313 -1.98894e-21)
(1.06394 -0.525026 0)
(1.05827 -0.499669 1.75062e-22)
(1.06162 -0.542934 1.99266e-21)
(1.05412 -0.267146 7.59748e-24)
(1.05443 -0.406703 8.24057e-22)
(1.05493 -0.107689 -4.09914e-21)
(0.917056 0.102658 1.461e-21)
(0.953191 0.124464 0)
(0.879511 0.0833951 9.95796e-22)
(0.895054 0.0928792 -1.08268e-21)
(0.944879 0.455807 0)
(0.934031 0.497114 0)
(0.933241 0.564915 -3.62705e-22)
(0.974161 0.61073 -3.58416e-22)
(0.971151 0.59846 0)
(0.959346 0.575942 -1.55395e-22)
(0.954926 0.573314 7.31187e-23)
(0.956414 0.413302 0)
(0.981378 0.477765 0)
(0.993146 0.442395 -4.90566e-22)
(1.01281 0.270808 3.48384e-21)
(1.06867 0.301858 0)
(0.897655 0.192473 -1.94747e-21)
(0.86984 0.0699058 -1.21313e-23)
(0.888305 0.172869 3.19312e-21)
(1.1304 0.21339 0)
(1.12793 0.0718429 -3.7278e-21)
(0.929254 0.534205 0)
(0.858953 -0.164715 3.72833e-22)
(0.861137 -0.0487312 0)
(0.890099 -0.346642 7.36782e-24)
(0.868088 -0.269767 1.59387e-22)
(0.961075 -0.408125 -1.21289e-22)
(0.922394 -0.391528 0)
(1.03404 -0.416738 1.19761e-24)
(1.00004 -0.411168 -1.1195e-22)
(1.09073 -0.455802 -1.55918e-24)
(1.06306 -0.433326 -1.16648e-22)
(1.15023 -0.496166 4.16759e-22)
(1.12016 -0.47812 0)
(1.19753 -0.501565 0)
(1.17739 -0.507755 -4.24715e-22)
(1.19941 -0.361544 -2.47811e-22)
(1.20665 -0.458978 1.04327e-22)
(1.12417 0.0146328 0)
(1.17084 -0.19997 -3.54722e-23)
(1.01915 0.445433 -2.61161e-22)
(1.06832 0.247085 4.93386e-22)
(0.986988 0.568345 5.77239e-22)
(0.850058 0.393767 -1.80445e-22)
(0.907612 0.40212 3.1484e-25)
(0.77315 0.271408 -1.23406e-22)
(0.800666 0.356665 3.24563e-22)
(0.791325 -0.00837248 1.46031e-24)
(0.771567 0.142741 -3.63365e-22)
(0.870493 -0.280309 0)
(0.827706 -0.154736 4.24387e-22)
(0.957238 -0.432226 0)
(0.915393 -0.37308 0)
(1.02785 -0.470547 3.08573e-24)
(0.996061 -0.460552 0)
(1.06988 -0.494939 0)
(1.05301 -0.477974 0)
(1.09048 -0.545307 0)
(1.08164 -0.521455 0)
(1.10105 -0.502862 1.50659e-21)
(1.09585 -0.545136 0)
(1.11053 -0.260139 -7.52486e-24)
(1.10399 -0.404217 -1.53947e-21)
(1.11624 -0.0921025 4.3109e-21)
(0.933826 0.226076 1.53297e-21)
(0.967493 0.246772 -3.26394e-21)
(0.91243 0.209427 2.57633e-21)
(0.967788 0.567933 6.80773e-22)
(0.968635 0.510711 0)
(0.956235 0.558962 4.50321e-22)
(1.02826 0.478118 5.20559e-22)
(1.0123 0.515452 0)
(0.949854 0.568614 1.25546e-22)
(0.955711 0.579715 4.1726e-22)
(0.921559 0.280798 2.16147e-22)
(0.913908 0.255993 2.20906e-22)
(1.02135 0.365663 2.78285e-21)
(1.06952 0.387101 2.94216e-21)
(1.19004 0.0875591 3.57936e-21)
(1.19179 0.231959 0)
(0.864513 0.0560462 1.95993e-22)
(0.884766 0.152834 -3.1622e-22)
(0.951398 0.545621 -6.82742e-22)
(0.915992 0.533398 -5.83541e-23)
(0.922737 0.575303 -6.20304e-22)
(1.12887 0.32228 -1.43799e-22)
(0.959678 0.537722 0)
(0.852549 -0.15735 2.47481e-22)
(0.853808 -0.0534075 -1.01476e-21)
(0.887928 -0.317588 -2.06581e-22)
(0.863809 -0.25108 6.0565e-22)
(0.964864 -0.369224 0)
(0.923779 -0.355571 0)
(1.03847 -0.385661 -4.97983e-25)
(1.00418 -0.375051 -5.83702e-29)
(1.10016 -0.425854 1.54519e-24)
(1.0691 -0.404249 0)
(1.17124 -0.463595 0)
(1.13491 -0.445617 -8.72882e-29)
(1.23918 -0.479755 0)
(1.20711 -0.478411 0)
(1.27084 -0.373572 0)
(1.2633 -0.45076 0)
(1.21003 -0.0375031 0)
(1.25394 -0.23506 0)
(1.07823 0.398934 0)
(1.14576 0.191067 0)
(0.992087 0.594948 -2.88811e-22)
(1.0241 0.539649 0)
(0.960845 0.553566 0)
(0.974759 0.588041 7.16391e-23)
(0.899958 0.48072 0)
(0.94049 0.513962 5.00837e-23)
(0.965942 0.372831 -3.56742e-23)
(1.0403 0.438004 -1.13096e-22)
(1.0016 0.405885 3.58277e-23)
(0.867496 0.340467 3.58393e-23)
(0.922531 0.351534 -3.14717e-25)
(0.776084 0.251391 -5.3241e-23)
(0.813447 0.315236 -3.82929e-23)
(0.778218 0.0159818 -1.25473e-24)
(0.765495 0.147572 0)
(0.85052 -0.237418 0)
(0.809327 -0.117693 0)
(0.943797 -0.390939 0)
(0.897169 -0.329561 0)
(1.02638 -0.440937 -5.94084e-25)
(0.98829 -0.424156 0)
(1.08092 -0.478202 0)
(1.05728 -0.455413 0)
(1.11586 -0.53476 0)
(1.09993 -0.507799 0)
(1.14288 -0.494658 5.44205e-22)
(1.13027 -0.535804 -5.66017e-22)
(1.16666 -0.252506 9.47032e-22)
(1.15451 -0.397742 -9.17841e-23)
(1.17856 -0.0805169 -4.99375e-21)
(0.955445 0.32668 -1.7325e-21)
(0.984592 0.347023 -2.96014e-21)
(0.935058 0.304521 0)
(1.06987 0.50968 0)
(1.08616 0.463801 9.7648e-23)
(0.861164 0.512991 8.30804e-23)
(0.841049 0.43987 0)
(0.992884 0.546636 0)
(0.966845 0.578255 0)
(0.91133 0.230177 0)
(1.12183 0.399049 -6.99928e-21)
(1.24814 0.103545 2.58722e-21)
(1.24869 0.242062 0)
(1.04775 0.551488 6.92946e-23)
(0.941993 0.600746 -5.3995e-22)
(1.13459 0.491691 2.07976e-22)
(1.11594 0.540779 -7.72783e-23)
(0.881197 0.571241 6.84135e-22)
(0.795896 0.460615 4.15443e-23)
(0.765821 0.373181 0)
(1.18824 0.335565 7.10171e-21)
(0.977642 0.567216 0)
(0.863292 0.0426765 -7.40141e-22)
(0.911992 0.203789 -1.80066e-22)
(0.884057 0.131143 -1.83815e-21)
(0.851602 -0.149669 -2.41389e-22)
(0.85162 -0.0557817 7.42955e-22)
(0.892405 -0.286189 0)
(0.865015 -0.23021 1.30494e-22)
(0.970538 -0.329557 2.83421e-29)
(0.929864 -0.31663 -2.9471e-29)
(1.04153 -0.35378 -4.79211e-25)
(1.00839 -0.339466 0)
(1.10711 -0.391495 0)
(1.07315 -0.372846 0)
(1.18525 -0.425415 -1.21249e-24)
(1.14515 -0.40839 8.72891e-29)
(1.26903 -0.446584 1.59575e-28)
(1.22713 -0.440953 -1.65686e-28)
(1.32996 -0.372436 0)
(1.30657 -0.429012 0)
(1.29436 -0.0895259 5.89023e-24)
(1.32851 -0.260817 0)
(1.14537 0.33095 -4.40928e-24)
(1.22843 0.122932 0)
(1.00506 0.560001 -7.87322e-23)
(1.06562 0.485777 0)
(0.931367 0.530504 -1.35337e-22)
(0.963211 0.565833 8.10846e-23)
(0.852946 0.426501 -4.58572e-22)
(0.898919 0.479311 8.45338e-23)
(0.723076 0.288258 -1.28218e-21)
(0.793897 0.365809 4.57496e-22)
(1.04975 0.395852 1.95783e-23)
(1.14356 0.441961 3.5345e-24)
(1.09577 0.41769 -2.90451e-23)
(0.974162 0.336677 -6.16471e-23)
(1.00878 0.369662 3.23651e-23)
(0.889553 0.288292 3.01155e-23)
(0.9374 0.307674 1.59078e-23)
(0.791868 0.223551 0)
(0.836272 0.26851 -2.90688e-23)
(0.775296 0.0339682 -8.00282e-25)
(0.770993 0.143226 -2.0458e-29)
(0.839206 -0.19493 0)
(0.800572 -0.084554 0)
(0.935062 -0.344461 1.82873e-25)
(0.885875 -0.282999 0)
(1.02504 -0.404514 -6.87022e-25)
(0.982727 -0.381522 0)
(1.08987 -0.453355 0)
(1.0604 -0.425604 0)
(1.13848 -0.515207 0)
(1.11509 -0.486642 0)
(1.18082 -0.480681 0)
(1.16019 -0.519658 0)
(1.21873 -0.238008 0)
(1.20075 -0.383374 5.25269e-23)
(1.23549 -0.0648193 -1.74649e-21)
(1.18663 0.522551 -2.4417e-22)
(1.1969 0.466363 0)
(0.687597 0.272664 -2.35082e-22)
(0.656717 0.187909 1.55292e-21)
(1.17413 0.403958 0)
(1.24113 0.338652 -1.26732e-21)
(1.11584 0.449415 -2.59783e-21)
(1.15964 0.444094 2.18457e-21)
(1.03427 0.43529 1.40531e-21)
(1.07279 0.446409 -2.86579e-22)
(0.977257 0.398642 8.31157e-23)
(1.00207 0.419009 -1.22259e-21)
(0.948339 0.34827 -1.49307e-21)
(0.959716 0.374636 2.80311e-22)
(0.940597 0.29064 0)
(0.942188 0.319792 1.10343e-21)
(0.942488 0.26074 3.78601e-22)
(1.01808 0.585326 -6.98642e-23)
(0.96653 0.610546 -2.75221e-28)
(1.08652 0.583032 7.75829e-23)
(0.917927 0.609241 0)
(1.16097 0.574837 0)
(0.829174 0.530901 0)
(1.25869 0.485784 5.73153e-23)
(1.24448 0.547334 6.60759e-24)
(0.722817 0.363303 -1.39705e-22)
(0.607299 0.0738135 -2.62762e-22)
(0.614343 0.137977 -4.04647e-22)
(0.914659 0.177187 3.38674e-22)
(0.946742 0.229844 -2.64646e-22)
(0.990355 0.605723 -3.51476e-28)
(0.86593 0.0288786 7.20161e-23)
(0.886962 0.109286 -1.18959e-22)
(0.856907 -0.141004 -2.64075e-23)
(0.85502 -0.0583514 0)
(0.902794 -0.254074 9.60127e-30)
(0.873065 -0.208515 3.85734e-23)
(0.978873 -0.292546 0)
(0.940128 -0.278639 0)
(1.04535 -0.322543 -2.10739e-25)
(1.01382 -0.305701 0)
(1.11241 -0.355518 0)
(1.07726 -0.340111 0)
(1.19253 -0.383598 1.76857e-24)
(1.15119 -0.369218 0)
(1.28526 -0.403166 1.5542e-24)
(1.23744 -0.396902 0)
(1.37011 -0.355059 0)
(1.33241 -0.393433 0)
(1.37001 -0.134665 -1.67487e-24)
(1.38684 -0.272041 0)
(1.2241 0.243756 1.32956e-24)
(1.31296 0.0486554 0)
(1.03449 0.494042 2.35705e-25)
(1.12404 0.40363 -9.73174e-29)
(0.906787 0.487674 -1.13715e-24)
(0.963338 0.514701 0)
(0.805691 0.373739 -2.04851e-23)
(0.857331 0.435008 -3.03154e-22)
(0.704096 0.223819 1.0465e-21)
(0.753517 0.302973 1.29807e-21)
(0.667408 0.0592878 -2.03845e-21)
(0.672899 0.138949 -1.508e-22)
(1.14545 0.39382 3.21575e-23)
(1.25523 0.423599 -6.3406e-23)
(1.19713 0.411342 0)
(1.05673 0.353531 8.01642e-24)
(1.09992 0.373335 -5.26026e-24)
(0.980266 0.303737 8.62083e-24)
(1.01551 0.332771 3.47374e-24)
(0.912016 0.243173 -5.42223e-25)
(0.949354 0.271079 4.8919e-24)
(0.819329 0.188087 0)
(0.865638 0.220503 0)
(0.783577 0.0450775 -6.85405e-26)
(0.789171 0.130378 7.22432e-29)
(0.837002 -0.153074 -5.88515e-29)
(0.801779 -0.0547726 6.22907e-29)
(0.932515 -0.295888 6.38699e-25)
(0.882673 -0.235226 0)
(1.02517 -0.364909 0)
(0.981166 -0.336205 0)
(1.09594 -0.423865 1.26932e-25)
(1.06286 -0.391747 0)
(1.15526 -0.489625 0)
(1.12589 -0.459684 0)
(1.21187 -0.45779 2.67994e-24)
(1.18368 -0.495369 0)
(1.26377 -0.219698 -8.88466e-24)
(1.23853 -0.363717 3.87518e-23)
(1.29839 0.117038 -2.19468e-21)
(1.28616 -0.0471556 0)
(1.28195 0.334519 -7.64527e-21)
(1.29634 0.247259 6.30851e-21)
(1.2571 0.381561 -1.73921e-22)
(1.1092 0.474007 0)
(1.17407 0.440968 -1.82243e-21)
(1.14263 0.463547 -4.08701e-22)
(1.04486 0.472311 0)
(1.07552 0.477692 0)
(0.998583 0.442007 -8.33125e-22)
(1.01861 0.460075 -2.28231e-28)
(0.976563 0.391812 3.22084e-22)
(0.9845 0.41861 1.39788e-21)
(0.973005 0.331138 0)
(0.972687 0.361698 -7.46234e-22)
(1.325 0.495907 -2.25655e-24)
(1.31901 0.429415 5.76304e-23)
(0.593302 -0.0336961 1.65877e-21)
(0.696598 -0.00334272 3.9565e-21)
(0.979498 0.270066 -2.15892e-22)
(0.975537 0.300537 4.60996e-23)
(1.04527 0.614894 -9.00869e-27)
(0.960704 0.628497 0)
(1.12071 0.613123 0)
(0.884047 0.581433 -1.08964e-26)
(1.20583 0.59902 -1.94756e-24)
(0.767599 0.442765 -2.95555e-22)
(1.30202 0.554847 3.75656e-24)
(0.64722 0.22221 0)
(1.38735 0.424364 1.01878e-21)
(1.38925 0.487567 -2.41405e-24)
(0.561241 -0.00980851 8.15154e-22)
(0.751566 -0.0457368 -4.24334e-21)
(0.62512 -0.112158 -7.87447e-22)
(1.36197 0.356926 -3.62859e-22)
(1.45329 0.39806 -1.02498e-21)
(1.42326 0.334796 -7.45185e-22)
(0.808549 -0.0842793 -1.96836e-21)
(0.853989 -0.00154719 5.18029e-21)
(0.878393 -0.0544935 7.36128e-22)
(0.985023 0.238622 7.76522e-23)
(1.0129 0.299571 0)
(1.01689 0.268334 -9.02883e-23)
(1.00138 0.631415 -5.50656e-28)
(0.920008 0.150289 2.44032e-23)
(0.951322 0.199788 2.61331e-22)
(0.872322 0.0151089 4.29695e-23)
(0.89246 0.0876995 -2.41339e-23)
(0.868041 -0.130857 0)
(0.863715 -0.0604279 0)
(0.917544 -0.221148 0)
(0.887142 -0.185013 0)
(0.98784 -0.258465 0)
(0.953264 -0.242278 0)
(1.04873 -0.29208 0)
(1.01907 -0.274659 0)
(1.11555 -0.319224 -3.58184e-29)
(1.08062 -0.307113 3.72172e-29)
(1.1938 -0.341148 -5.56076e-25)
(1.15341 -0.33007 -1.26227e-29)
(1.28796 -0.354389 -1.5542e-24)
(1.23871 -0.350449 0)
(1.38678 -0.322009 0)
(1.33942 -0.347817 0)
(1.42528 -0.16232 -1.73593e-24)
(1.42013 -0.263891 0)
(1.31187 0.149737 1.40579e-24)
(1.38931 -0.0173612 0)
(1.1011 0.400061 -2.35625e-25)
(1.208 0.301193 0)
(0.930915 0.421232 4.69196e-24)
(1.00729 0.435585 1.21168e-28)
(0.82102 0.32231 4.42099e-22)
(0.869976 0.377679 0)
(0.765642 0.197262 -5.87656e-22)
(0.785443 0.259892 -5.60953e-22)
(0.787136 0.0881099 2.40642e-21)
(0.767606 0.138613 -1.53686e-21)
(0.822339 0.0437493 -4.62655e-21)
(1.24468 0.366032 -1.19293e-22)
(1.30131 0.366436 4.65462e-22)
(1.14382 0.347314 2.62318e-25)
(1.19227 0.359458 2.61876e-24)
(1.06156 0.313664 9.30726e-23)
(1.10114 0.331399 -9.8873e-23)
(0.988485 0.272299 6.55019e-25)
(1.02359 0.295619 -3.52827e-24)
(0.931009 0.208228 5.41781e-25)
(0.959297 0.241499 3.27762e-28)
(0.855638 0.14928 0)
(0.896327 0.178734 0)
(0.804093 0.0463719 3.05914e-28)
(0.820751 0.107917 -3.23725e-28)
(0.839962 -0.113807 0)
(0.811537 -0.0312988 0)
(0.931642 -0.246825 5.18843e-25)
(0.882499 -0.187785 0)
(1.02586 -0.324301 0)
(0.980737 -0.290206 0)
(1.10078 -0.391468 -1.26932e-25)
(1.06531 -0.356152 0)
(1.1675 -0.458525 0)
(1.13406 -0.428413 0)
(1.23442 -0.428467 -1.01638e-24)
(1.20067 -0.464757 -4.6294e-28)
(1.30044 -0.19496 8.63784e-24)
(1.26787 -0.336392 0)
(1.33851 0.125297 0)
(1.32628 -0.0282708 4.45552e-25)
(1.31169 0.317893 1.46261e-21)
(1.33347 0.24164 3.15812e-24)
(1.28207 0.353089 9.0031e-22)
(1.15103 0.438421 -2.18744e-21)
(1.16901 0.408321 1.16396e-21)
(1.09988 0.477458 0)
(1.12605 0.462726 0)
(1.05167 0.483906 -1.00982e-25)
(1.07446 0.484734 -2.15242e-28)
(1.01762 0.461544 -1.01543e-25)
(1.03223 0.475912 -1.97724e-28)
(1.00302 0.417503 -6.02985e-23)
(1.00778 0.44158 -2.94275e-28)
(1.00399 0.360449 -2.86767e-22)
(1.00178 0.38993 2.84702e-22)
(1.00827 0.330128 3.05005e-24)
(1.06536 0.633689 1.43871e-26)
(0.944059 0.616448 -2.63022e-27)
(1.14536 0.628283 0)
(0.832631 0.50875 1.24652e-26)
(1.24348 0.592643 3.85075e-24)
(0.693835 0.305115 2.9603e-22)
(1.34552 0.530126 -2.28282e-23)
(0.576129 0.048677 -9.94409e-24)
(1.43826 0.442434 -4.92059e-23)
(0.546699 -0.144132 0)
(1.47827 0.295074 8.2222e-22)
(1.50141 0.339648 0)
(0.695137 -0.152136 -7.73472e-22)
(0.897878 -0.112642 3.07694e-21)
(0.853659 -0.135514 1.76049e-21)
(1.42717 0.244419 -4.48721e-23)
(1.51557 0.232734 1.73265e-21)
(1.46428 0.197328 3.94722e-24)
(0.921279 -0.169049 -7.75407e-22)
(0.935083 -0.0994322 3.68378e-21)
(0.956082 -0.147028 2.23302e-21)
(1.04441 0.323353 0)
(1.0483 0.29467 -4.09034e-22)
(0.98725 0.212494 3.46283e-22)
(1.02602 0.233213 -3.61866e-22)
(1.00307 0.636309 3.31399e-27)
(0.924612 0.126987 -1.93792e-22)
(0.959187 0.167353 -7.5301e-23)
(0.881401 0.00364473 2.63545e-23)
(0.901595 0.0643612 -8.24405e-23)
(0.884281 -0.117802 -4.44604e-25)
(0.877315 -0.0618069 3.43158e-28)
(0.935133 -0.189732 0)
(0.906041 -0.159918 0)
(0.996371 -0.228607 0)
(0.967028 -0.209814 0)
(1.05235 -0.262443 9.61557e-25)
(1.02424 -0.246208 0)
(1.11681 -0.284341 0)
(1.0836 -0.27469 0)
(1.19036 -0.300237 0)
(1.15237 -0.292739 0)
(1.27961 -0.305275 0)
(1.23288 -0.305019 0)
(1.37986 -0.278495 0)
(1.32979 -0.298204 0)
(1.44769 -0.166315 -2.47936e-24)
(1.42316 -0.237524 0)
(1.38953 0.0695927 1.39112e-24)
(1.43922 -0.0606056 -3.15121e-28)
(1.20278 0.297428 0)
(1.30421 0.199788 0)
(1.02459 0.347603 5.855e-25)
(1.10553 0.345174 -1.21168e-28)
(0.919552 0.283354 3.96083e-24)
(0.962909 0.321643 1.02698e-27)
(0.884258 0.196206 6.21289e-22)
(0.893881 0.239905 5.56705e-25)
(0.896361 0.108138 -3.17999e-22)
(0.88684 0.152431 -3.15645e-22)
(0.914088 0.00776825 -1.866e-21)
(0.906684 0.0602264 1.29403e-21)
(0.921927 -0.0467167 -4.17977e-21)
(1.32903 0.301173 -4.32521e-23)
(1.38021 0.278913 8.28682e-24)
(1.22852 0.315969 1.08434e-24)
(1.27786 0.313194 0)
(1.1398 0.305319 -2.59323e-25)
(1.18288 0.313014 -2.65211e-24)
(1.06557 0.278226 0)
(1.10095 0.293481 0)
(0.998987 0.241287 1.40088e-25)
(1.03175 0.261217 0)
(0.946094 0.182456 0)
(0.970269 0.21509 0)
(0.893024 0.114922 0)
(0.922008 0.148013 0)
(0.838986 0.0356521 -1.93203e-24)
(0.862178 0.0798451 0)
(0.848732 -0.0834626 0)
(0.833529 -0.0202232 0)
(0.924642 -0.199348 -1.34041e-24)
(0.881338 -0.145137 0)
(1.01735 -0.282001 -1.46589e-24)
(0.971601 -0.243806 0)
(1.098 -0.356106 -9.8187e-25)
(1.05931 -0.318142 8.03742e-29)
(1.17053 -0.424098 -3.29508e-25)
(1.13447 -0.393966 -9.22267e-29)
(1.24541 -0.393454 -1.01616e-24)
(1.20665 -0.430298 0)
(1.32701 -0.16463 0)
(1.28639 -0.302097 0)
(1.36803 0.126892 0)
(1.35679 -0.00940976 -4.46312e-25)
(1.33091 0.289689 -8.61516e-22)
(1.35786 0.228264 -3.10184e-24)
(1.29545 0.318438 7.40733e-22)
(1.15164 0.361496 0)
(1.15734 0.323033 -9.98878e-23)
(1.12562 0.425746 1.16683e-21)
(1.1405 0.396799 2.03458e-22)
(1.08792 0.466631 1.52911e-25)
(1.10692 0.449639 3.08668e-28)
(1.0544 0.479954 1.89237e-25)
(1.06994 0.476825 3.66352e-28)
(1.03288 0.466585 -3.46299e-28)
(1.04172 0.476377 3.52113e-28)
(1.02674 0.431399 -1.14895e-22)
(1.02782 0.451204 2.73426e-28)
(1.03329 0.380344 2.85465e-22)
(1.02869 0.407446 1.17082e-22)
(1.0391 0.351887 1.61452e-22)
(1.06796 0.631396 0)
(0.905872 0.566652 1.04519e-27)
(1.15492 0.602047 0)
(0.760019 0.384643 -7.62188e-26)
(1.25695 0.539006 -5.11042e-24)
(0.613075 0.121626 -4.51439e-25)
(1.35979 0.452506 1.65503e-23)
(0.524686 -0.13301 4.72766e-25)
(1.45196 0.349601 6.06044e-23)
(0.588366 -0.230428 -1.55094e-24)
(1.51462 0.245793 0)
(0.773577 -0.181144 -6.11859e-22)
(1.48534 0.138582 6.13332e-22)
(1.5252 0.149125 -3.25419e-21)
(0.883687 -0.19875 4.13312e-23)
(0.984957 -0.187922 -2.39587e-21)
(0.955373 -0.218418 -2.36587e-21)
(1.04869 0.269379 -4.16755e-22)
(0.983594 0.611527 -8.82071e-27)
(0.9961 0.181939 -5.542e-22)
(1.07101 0.248361 2.82881e-21)
(1.02201 0.208338 -1.89849e-21)
(0.932464 0.0984574 3.21877e-23)
(0.960526 0.142047 5.10674e-22)
(0.895243 -0.00785544 -2.63204e-23)
(0.909494 0.0482651 7.25205e-23)
(0.905756 -0.103377 -1.34915e-22)
(0.894488 -0.0567264 1.18309e-22)
(0.953177 -0.161904 -1.26446e-24)
(0.927613 -0.13462 5.72891e-28)
(1.00409 -0.202762 -1.27065e-24)
(0.979747 -0.182354 -5.86192e-28)
(1.05615 -0.233947 2.82198e-25)
(1.02952 -0.219849 0)
(1.11634 -0.251896 0)
(1.08578 -0.243971 0)
(1.18386 -0.262383 -1.01049e-24)
(1.149 -0.258147 0)
(1.26429 -0.259984 2.87394e-28)
(1.22246 -0.263289 -2.984e-28)
(1.35569 -0.232498 1.00092e-28)
(1.30932 -0.250738 -1.03888e-28)
(1.43334 -0.149356 5.37875e-29)
(1.39963 -0.200464 -5.58083e-29)
(1.42699 0.0193238 -6.7318e-25)
(1.44596 -0.0750845 9.41215e-29)
(1.29688 0.207715 2.32676e-24)
(1.37373 0.120959 7.81094e-28)
(1.14035 0.280361 3.22149e-25)
(1.21402 0.261888 0)
(1.03847 0.251764 4.52629e-24)
(1.08186 0.272992 2.19175e-27)
(0.987868 0.188811 4.81642e-24)
(1.00821 0.222814 0)
(0.96379 0.105852 3.18835e-22)
(0.973973 0.149495 0)
(0.952152 0.00756324 1.26389e-21)
(0.955804 0.0578914 -1.40966e-21)
(0.966342 -0.0864677 0)
(0.955842 -0.0414859 1.18633e-22)
(1.00814 -0.160807 2.36565e-21)
(0.984426 -0.126156 -2.22837e-21)
(1.37391 0.205957 -2.97298e-23)
(1.42385 0.121514 -7.77295e-23)
(1.40401 0.167078 7.02495e-23)
(1.29522 0.255756 2.63926e-24)
(1.33635 0.235468 -6.97874e-25)
(1.21142 0.273451 0)
(1.25312 0.268179 0)
(1.1352 0.26842 -6.08893e-25)
(1.17232 0.273233 0)
(1.06852 0.246614 0)
(1.10056 0.259429 0)
(1.00965 0.212395 -7.95069e-25)
(1.03861 0.230818 0)
(0.959995 0.161234 0)
(0.982787 0.18982 0)
(0.923103 0.0914871 0)
(0.941323 0.127429 0)
(0.883347 0.0182651 -2.9603e-25)
(0.903034 0.0555873 0)
(0.872281 -0.0683988 0)
(0.871112 -0.02291 0)
(0.918474 -0.159834 -1.9423e-27)
(0.888972 -0.115036 2.05635e-27)
(0.997019 -0.239503 1.46418e-24)
(0.956009 -0.200794 1.81601e-27)
(1.07824 -0.318159 2.47902e-24)
(1.03819 -0.277955 1.32855e-27)
(1.15567 -0.387427 -7.03083e-25)
(1.11688 -0.357415 0)
(1.24455 -0.350718 -6.47191e-25)
(1.19698 -0.391396 -9.6505e-29)
(1.34539 -0.127952 -9.3858e-28)
(1.2966 -0.258492 9.95305e-28)
(1.38476 0.126686 0)
(1.37712 0.0103602 0)
(1.33782 0.257359 1.05925e-22)
(1.36952 0.20894 -1.44827e-22)
(1.25776 0.287248 0)
(1.29796 0.280915 1.58503e-23)
(1.22071 0.288768 0)
(1.12175 0.348862 0)
(1.13034 0.278146 4.92101e-23)
(1.12789 0.314242 -1.93214e-22)
(1.10022 0.407914 -1.04794e-22)
(1.11168 0.380167 -1.44588e-22)
(1.07367 0.450508 -2.35206e-26)
(1.08666 0.431742 0)
(1.0527 0.471056 -8.84041e-26)
(1.06196 0.463733 0)
(1.04315 0.467779 0)
(1.04625 0.472369 0)
(1.04642 0.442523 1.59153e-26)
(1.04318 0.457632 0)
(1.05909 0.398966 0)
(1.05182 0.422721 0)
(1.07523 0.343547 0)
(1.06782 0.371811 1.0313e-22)
(1.07972 0.276973 0)
(1.07971 0.314925 2.45114e-23)
(1.48497 0.0720315 -9.22562e-22)
(1.42827 0.0718672 0)
(1.01898 -0.222308 6.81737e-23)
(1.03691 -0.190008 8.77644e-23)
(1.04933 0.580425 2.82825e-25)
(0.841868 0.465155 0)
(1.18537 0.246152 0)
(1.13622 0.514555 8.7392e-25)
(0.672972 0.205268 5.13541e-26)
(1.06586 0.226008 9.81449e-22)
(1.10606 0.292867 0)
(1.10253 0.262393 0)
(1.23276 0.421283 2.89844e-24)
(0.540337 -0.0900673 6.76496e-25)
(1.32975 0.314749 0)
(0.520919 -0.280748 2.03736e-24)
(1.41719 0.214402 0)
(0.675961 -0.263896 0)
(1.48565 0.127994 0)
(0.828372 -0.230492 3.91327e-22)
(1.50394 0.0574203 4.58694e-22)
(0.922746 -0.258988 5.71018e-23)
(1.41931 0.0242987 0)
(1.46496 0.00782738 3.34487e-22)
(0.996028 -0.260412 -2.88252e-22)
(1.05842 -0.249777 -2.7724e-22)
(1.06953 -0.212744 -1.01859e-22)
(0.939401 0.534601 6.40884e-27)
(0.995092 0.153773 3.48912e-22)
(1.0256 0.183428 0)
(0.939077 0.074895 -8.95452e-23)
(0.961942 0.115158 -1.54621e-22)
(0.913447 -0.0124481 0)
(0.919783 0.0338915 8.95919e-23)
(0.929781 -0.0867062 0)
(0.916515 -0.0491431 1.9111e-23)
(0.969262 -0.139008 1.26391e-24)
(0.948814 -0.112723 0)
(1.01147 -0.179906 2.75317e-24)
(0.990672 -0.159884 0)
(1.0599 -0.207218 2.29135e-25)
(1.03506 -0.195161 0)
(1.11468 -0.22236 -1.43241e-24)
(1.08703 -0.215747 -1.35073e-27)
(1.17565 -0.228283 1.00928e-24)
(1.14426 -0.226664 1.25499e-27)
(1.24581 -0.220456 -1.27351e-24)
(1.20968 -0.22638 1.03184e-27)
(1.32341 -0.190979 -9.30482e-28)
(1.2841 -0.209246 8.87641e-28)
(1.39401 -0.123203 -1.32996e-24)
(1.36154 -0.163127 9.39879e-28)
(1.4139 -0.00167955 2.8332e-24)
(1.41411 -0.0690355 0)
(1.33941 0.141379 5.64709e-25)
(1.38807 0.0725687 2.37205e-27)
(1.21651 0.218442 -7.62883e-24)
(1.27804 0.192141 0)
(1.11673 0.213087 -4.52412e-24)
(1.16214 0.223172 -4.44461e-27)
(1.04794 0.164935 0)
(1.07915 0.192824 0)
(1.00194 0.0905448 5.78634e-22)
(1.02211 0.130216 -6.07098e-22)
(0.980425 0.00463513 0)
(0.987169 0.0480689 -2.60459e-28)
(0.989949 -0.0745654 1.35533e-22)
(0.981245 -0.0366943 -2.25722e-22)
(1.02458 -0.137423 1.19867e-21)
(1.00475 -0.108265 -1.19558e-21)
(1.07615 -0.179846 0)
(1.04867 -0.161296 -8.73505e-23)
(1.3657 0.108047 6.22676e-23)
(1.36553 0.0331255 -1.21674e-22)
(1.37025 0.0697287 -2.41994e-22)
(1.32649 0.17497 1.11067e-22)
(1.35019 0.143852 -6.13443e-23)
(1.26384 0.218885 7.02579e-23)
(1.29727 0.200409 -1.81716e-22)
(1.19465 0.237633 -5.64756e-25)
(1.22951 0.231225 3.99355e-24)
(1.12883 0.23573 6.08895e-25)
(1.16108 0.238869 0)
(1.06964 0.217978 3.09985e-27)
(1.0983 0.228668 -3.27757e-27)
(1.01805 0.186913 -3.59289e-27)
(1.04309 0.203925 3.79959e-27)
(0.9739 0.141889 -1.07118e-24)
(0.994649 0.166624 0)
(0.944802 0.0776262 4.2822e-27)
(0.957458 0.111951 -4.53045e-27)
(0.923737 0.00488289 2.22354e-24)
(0.934099 0.0413291 4.79265e-27)
(0.911608 -0.0661168 0)
(0.915185 -0.0307784 0)
(0.930965 -0.134878 2.38219e-24)
(0.916533 -0.100778 -1.56731e-28)
(0.983445 -0.203144 -4.13881e-27)
(0.954009 -0.168432 4.38303e-27)
(1.05318 -0.280146 4.84461e-25)
(1.01698 -0.240173 0)
(1.13481 -0.345152 1.03268e-24)
(1.09173 -0.318517 0)
(1.24551 -0.295885 -1.04866e-24)
(1.18553 -0.342477 0)
(1.35957 -0.087768 5.24591e-29)
(1.30771 -0.204711 -5.56239e-29)
(1.38876 0.120551 0)
(1.38759 0.0280301 0)
(1.33296 0.221823 5.95988e-23)
(1.3679 0.184458 -2.42283e-23)
(1.25285 0.247037 -1.74409e-22)
(1.29266 0.240393 1.52614e-22)
(1.2168 0.247889 0)
(1.10259 0.268621 -6.65588e-23)
(1.1047 0.235959 6.51826e-22)
(1.092 0.332508 0)
(1.09905 0.301339 6.53547e-23)
(1.0744 0.390221 3.08513e-25)
(1.08308 0.362327 0)
(1.0563 0.436638 -1.28856e-25)
(1.06469 0.415158 -8.52255e-28)
(1.04597 0.465812 0)
(1.04975 0.453741 0)
(1.04784 0.473071 0)
(1.04524 0.472357 0)
(1.0615 0.457286 -1.58219e-26)
(1.05335 0.467965 0)
(1.082 0.420423 0)
(1.07137 0.441098 0)
(1.10343 0.366443 5.06558e-23)
(1.09314 0.394959 -9.96061e-23)
(1.10835 0.33572 -7.19831e-23)
(1.39768 -0.0177194 0)
(1.35128 0.000766045 2.25665e-22)
(1.10527 -0.229096 2.42642e-22)
(1.1061 -0.192439 2.95925e-22)
(1.00234 0.459889 3.21783e-26)
(0.757847 0.297709 4.01884e-26)
(1.05592 0.188168 -1.62055e-21)
(1.08139 0.220815 1.02112e-21)
(1.07847 0.357485 -9.17317e-24)
(0.585049 -0.0198373 0)
(1.16434 0.240201 -2.48184e-23)
(0.497604 -0.290722 -1.33677e-24)
(1.25008 0.135256 0)
(0.582272 -0.35758 0)
(1.33729 0.0617257 -2.66718e-22)
(0.76649 -0.287938 7.394e-24)
(1.42215 0.0117556 0)
(0.867088 -0.300326 2.10725e-22)
(1.45983 -0.0249617 1.02113e-21)
(0.973032 -0.307128 0)
(1.43131 -0.0458179 5.27117e-22)
(1.04255 -0.295812 2.19795e-22)
(1.33021 -0.0237023 -9.19716e-22)