/*--------------------------------*- C++ -*----------------------------------*\
  =========                 |
  \\      /  F ield         | OpenFOAM: The Open Source CFD Toolbox
   \\    /   O peration     | Website:  https://openfoam.org
    \\  /    A nd           | Version:  10
     \\/     M anipulation  |
\*---------------------------------------------------------------------------*/
FoamFile
{
    format      ascii;
    class       volVectorField;
    location    "19.5";
    object      U;
}
// * * * * * * * * * * * * * * * * * * * * * * * * * * * * * * * * * * * * * //

dimensions      [0 1 -1 0 0 0 0];

internalField   nonuniform List<vector> 
14667
(
(1.03729 0.0668914 -1.26849e-19)
(0.887152 0.0445487 -5.42141e-20)
(0.490124 0.0224104 -1.22622e-21)
(0.605069 0.0186665 2.92487e-22)
(0.590312 0.0199368 3.26259e-22)
(0.990387 -0.0896568 -3.16624e-20)
(1.03236 -0.0825896 6.98361e-20)
(0.38169 0.0343648 -9.17924e-22)
(0.462848 0.0231539 0)
(0.573987 0.0227 -3.44893e-23)
(1.03693 -0.0670364 -2.9769e-20)
(1.0256 -0.0394932 1.60121e-20)
(0.986127 -0.0231105 -3.92581e-20)
(0.885986 -0.0752291 1.16398e-19)
(0.426919 0.0210109 -1.22339e-21)
(1.01851 -0.0311438 0)
(1.01889 -0.029307 0)
(0.530262 0.00644614 -9.1618e-22)
(0.312683 0.011897 0)
(1.03986 -0.0588048 0)
(1.05572 0.085583 -9.48121e-20)
(0.88566 -0.00317364 6.65294e-20)
(0.997475 0.0159832 0)
(1.00131 0.040789 5.01221e-21)
(-0.0208232 -0.125807 6.23178e-20)
(0.363732 -0.10798 2.09609e-19)
(-0.048278 -0.0496382 6.55506e-20)
(-0.141836 -0.128885 -2.55542e-19)
(-0.124249 -0.155757 4.64055e-21)
(0.808883 0.0636662 1.59577e-20)
(0.861226 0.0381261 -1.49706e-21)
(0.87476 0.0118457 -4.4885e-20)
(-0.0201547 -0.0820306 1.77474e-20)
(-0.0614966 -0.0562278 9.42162e-20)
(-0.170621 -0.0259202 1.07792e-19)
(0.0588715 -0.0331615 -1.62178e-19)
(0.0889913 -0.00478407 -2.28676e-21)
(0.383484 -0.0457792 1.24541e-21)
(0.382295 -0.0289335 6.87184e-22)
(0.501448 -0.0170872 -1.67078e-22)
(0.488416 -0.0128246 0)
(0.394094 0.00894422 -1.16746e-20)
(0.551267 -0.233697 5.20425e-19)
(0.611601 -0.115764 -1.7069e-19)
(0.434466 -0.0861528 -1.19543e-19)
(0.3523 -0.296852 8.02524e-20)
(0.584927 -0.463654 -9.44389e-21)
(0.926724 -0.0389162 -1.97411e-20)
(0.92484 -0.0274631 9.45955e-21)
(0.524038 -0.0929191 0)
(0.579578 -0.105571 0)
(0.737378 0.000919811 0)
(0.795761 -0.015372 0)
(0.853122 -0.0124214 -7.86035e-20)
(1.40869 -0.261929 2.18778e-20)
(1.45076 -0.23296 1.3612e-20)
(1.3525 0.149409 4.35585e-20)
(1.38946 0.135591 2.53891e-20)
(0.0605173 -0.228917 -2.62388e-20)
(0.29762 -0.204077 2.33946e-20)
(-0.0944416 -0.0774975 1.92713e-19)
(-0.0748267 -0.108516 0)
(1.00834 -0.497222 -5.26556e-21)
(1.01885 -0.412796 -5.57292e-20)
(0.940876 -0.367088 -4.8508e-21)
(0.880182 -0.654812 -8.79568e-21)
(0.964564 -0.574141 4.58115e-20)
(0.477929 0.661737 5.71702e-20)
(0.791323 0.69517 -2.24004e-20)
(0.904373 0.0203316 3.98962e-20)
(0.922645 0.0055084 -3.6948e-20)
(0.92678 0.0298538 -4.0226e-20)
(0.146025 -0.0455841 0)
(0.147188 -0.281671 4.00791e-20)
(0.469841 -0.0563752 3.32285e-21)
(0.64524 0.0235252 2.14838e-21)
(0.864591 0.0186379 -1.11513e-20)
(0.81965 -0.00585717 1.10587e-20)
(0.912698 -0.012681 2.11414e-19)
(0.898071 -0.0443385 2.51198e-22)
(0.580397 -0.00883431 -6.64793e-22)
(0.658672 -0.00880732 0)
(0.590062 -0.0126598 1.29701e-21)
(0.809833 0.0162308 -3.10853e-23)
(0.80863 0.0171629 0)
(0.0656283 -0.280257 0)
(-0.0468713 -0.313848 -1.22479e-19)
(0.26324 -0.181628 9.79878e-21)
(0.582901 -0.149296 -4.92464e-20)
(1.1099 -0.16647 -3.94303e-20)
(1.32562 -0.175101 5.46182e-20)
(1.22026 -0.434268 1.07797e-21)
(1.17581 -0.425054 -1.80298e-21)
(0.799226 -0.338982 1.06731e-20)
(0.823507 -0.361508 -5.65851e-21)
(0.94324 0.378471 1.68377e-20)
(0.892448 0.363856 1.19044e-20)
(0.910398 -0.483291 3.55317e-21)
(0.868384 -0.512104 -7.78147e-21)
(0.870599 -0.64574 6.62822e-21)
(0.847168 -0.669044 -2.89638e-21)
(1.51266 -0.31292 6.58178e-21)
(1.49589 -0.239385 4.05454e-20)
(0.933366 0.112312 7.06284e-21)
(0.912814 0.087136 -2.48183e-20)
(0.939108 0.0722584 3.2483e-21)
(0.958749 0.0938786 3.11602e-21)
(0.961042 0.151564 2.14171e-20)
(0.952124 0.126032 4.605e-22)
(0.327638 -0.0129903 3.77823e-22)
(0.196219 -0.00884586 -5.21164e-23)
(0.212225 -0.00396075 -6.41075e-22)
(0.346136 -0.00736983 0)
(0.430242 -0.0199631 8.42017e-22)
(0.445947 -0.0132956 -3.5869e-22)
(1.2458 -0.0873773 -7.05435e-21)
(1.26952 -0.0980234 1.96322e-20)
(1.25446 -0.0846624 0)
(0.290464 -0.028756 -7.67056e-22)
(0.222145 -0.0270373 -2.93742e-22)
(0.335833 -0.0209566 -1.10484e-22)
(0.781477 -0.242389 -4.87577e-21)
(0.804252 -0.266978 2.84698e-20)
(0.787175 -0.147363 -1.45509e-20)
(0.781626 -0.0253521 1.83216e-20)
(0.767162 0.0122621 0)
(0.770441 -0.123709 2.86549e-21)
(0.778214 0.10316 -5.09328e-20)
(0.780328 0.225404 2.52805e-20)
(0.756333 0.273548 0)
(0.758151 0.145631 0)
(0.782984 0.336628 0)
(0.789355 0.435201 -2.07653e-20)
(0.772536 0.484727 0)
(0.761583 0.387159 0)
(0.800975 0.513492 2.08627e-20)
(0.816694 0.57001 0)
(0.81351 0.601744 0)
(0.79038 0.557328 0)
(0.836832 0.602709 -1.52055e-20)
(0.859706 0.615473 1.50939e-20)
(0.87015 0.617562 0)
(0.841173 0.619051 0)
(0.883313 0.615864 0)
(0.904917 0.614358 1.25135e-20)
(0.919785 0.608164 2.99117e-24)
(0.897387 0.610048 0)
(0.922278 0.618735 -1.25952e-20)
(0.934575 0.631236 0)
(0.947698 0.634578 0)
(0.936341 0.617175 0)
(0.942134 0.648857 1.23187e-23)
(0.946473 0.666491 0)
(0.9613 0.670629 0)
(0.955606 0.654065 0)
(0.947461 0.682196 2.06595e-20)
(0.945004 0.691204 -1.82054e-20)
(0.966817 0.690651 -2.03054e-21)
(0.965199 0.682569 0)
(0.937071 0.686743 0)
(0.92922 0.668457 0)
(0.960916 0.676416 -4.40357e-21)
(0.96543 0.6908 2.18616e-21)
(0.913361 0.629569 5.56447e-21)
(0.896263 0.565436 6.81384e-21)
(0.936249 0.577478 -7.27073e-21)
(0.949414 0.640549 5.88834e-21)
(0.918091 0.486735 1.47008e-20)
(0.871966 0.470763 -1.39036e-20)
(0.819655 -0.416364 -9.36815e-22)
(0.842477 -0.436156 4.99638e-21)
(0.843932 0.345673 -4.60263e-23)
(0.800409 -0.394844 3.01508e-21)
(0.821158 -0.452395 -5.95057e-21)
(0.83997 -0.473047 -2.02656e-22)
(0.854388 -0.388224 0)
(0.870847 -0.458573 -5.80819e-21)
(0.830326 0.448954 -2.85925e-21)
(0.880287 0.611799 -1.34336e-20)
(0.857124 0.543251 5.42195e-21)
(0.916365 0.676442 9.41542e-21)
(0.901405 0.654932 -9.7027e-21)
(0.935604 0.677542 0)
(0.927593 0.683713 0)
(0.933754 0.648718 -1.19871e-23)
(0.936095 0.664232 0)
(0.919377 0.627163 6.23132e-24)
(0.928636 0.634715 0)
(0.887276 0.634131 0)
(0.905286 0.628275 0)
(0.849294 0.622651 1.65132e-23)
(0.867707 0.635897 0)
(0.819765 0.525932 -1.02928e-24)
(0.833209 0.587248 0)
(0.799918 0.32913 0)
(0.808235 0.439563 0)
(0.801332 0.0645557 -1.00589e-24)
(0.796193 0.202234 0)
(0.825601 -0.191942 0)
(0.814468 -0.0675655 0)
(0.840476 -0.299339 -1.55396e-20)
(0.887377 -0.508148 -4.78213e-21)
(0.861874 -0.491379 4.93259e-21)
(0.760287 -0.223203 -1.89263e-21)
(0.779562 -0.318612 0)
(0.739072 0.00473241 -2.39371e-22)
(0.746647 -0.112085 -2.46476e-21)
(0.738855 0.236297 0)
(0.736373 0.120589 -7.80744e-23)
(0.75987 0.427847 0)
(0.746719 0.340116 0)
(0.801467 0.540693 0)
(0.778625 0.495059 0)
(0.855802 0.575278 0)
(0.827804 0.565617 0)
(0.908706 0.58308 0)
(0.883515 0.57807 0)
(0.94854 0.613943 0)
(0.930322 0.595192 0)
(0.977601 0.656723 0)
(0.964212 0.635514 0)
(0.994933 0.689075 -2.08591e-21)
(0.988142 0.675612 0)
(0.997441 0.681479 1.17534e-21)
(0.998135 0.693 -3.04639e-22)
(0.981976 0.59195 -7.03419e-21)
(0.991926 0.649712 0)
(0.965722 0.500824 -2.006e-20)
(0.8588 -0.509483 -2.48348e-21)
(0.841645 -0.4915 6.30409e-22)
(0.799394 0.323593 3.75264e-21)
(0.863854 0.213096 -8.42257e-21)
(0.917743 -0.520367 0)
(0.93089 -0.549863 1.17536e-21)
(0.902929 -0.539275 1.04994e-21)
(0.915566 0.229272 0)
(0.792482 0.42389 -2.37068e-21)
(0.851517 0.591458 -1.67636e-21)
(0.823922 0.521062 0)
(0.895972 0.661514 -8.04121e-21)
(0.87711 0.637959 9.1093e-21)
(0.921111 0.670802 0)
(0.911263 0.672742 3.15295e-21)
(0.928072 0.649737 1.19458e-23)
(0.926445 0.661444 0)
(0.920418 0.639741 2.00563e-25)
(0.926244 0.641023 0)
(0.896814 0.656149 -7.63577e-24)
(0.910285 0.646647 0)
(0.867915 0.643383 6.82904e-25)
(0.882011 0.658543 0)
(0.845605 0.538654 -8.73787e-25)
(0.855501 0.60427 0)
(0.837109 0.337482 0)
(0.839187 0.448366 0)
(0.841097 0.0807819 -1.11035e-24)
(0.838711 0.212844 0)
(0.855988 -0.182365 0)
(0.846226 -0.054326 0)
(0.88424 -0.394398 7.06763e-23)
(0.86919 -0.296984 7.08723e-22)
(0.901246 -0.46884 9.39569e-21)
(0.879227 -0.525373 -7.89397e-24)
(0.828423 -0.472634 7.64178e-22)
(0.786118 -0.374118 2.62705e-21)
(0.807431 -0.432327 1.63249e-21)
(0.745558 -0.205807 1.00981e-21)
(0.764571 -0.298665 -9.24827e-22)
(0.723876 0.0152092 3.693e-24)
(0.732613 -0.0976759 6.36868e-23)
(0.722796 0.242393 0)
(0.719887 0.130636 0)
(0.747017 0.429374 0)
(0.731974 0.343708 0)
(0.795025 0.534033 0)
(0.768142 0.493761 0)
(0.860776 0.554677 0)
(0.826874 0.551638 0)
(0.920425 0.56155 0)
(0.892987 0.554748 0)
(0.961397 0.599889 0)
(0.942647 0.577793 0)
(0.995819 0.644165 0)
(0.978878 0.622779 0)
(1.02406 0.680399 0)
(1.01137 0.66392 0)
(1.03725 0.682709 1.18652e-21)
(1.03281 0.68879 -1.16184e-21)
(1.03117 0.600608 1.07851e-20)
(1.03743 0.655056 0)
(0.998061 0.39652 -8.84699e-21)
(1.01614 0.513733 1.27579e-20)
(0.888738 0.0661239 -9.71776e-21)
(0.945667 0.0891968 7.19075e-21)
(0.97045 0.250736 -2.4712e-21)
(0.760979 0.300576 1.7715e-23)
(0.814992 0.196753 -7.68898e-21)
(0.835007 0.0480641 -2.96195e-22)
(0.915365 -0.55371 -9.0674e-22)
(0.862001 -0.100921 0)
(0.915041 -0.0796054 -9.74908e-21)
(0.941486 -0.562036 -2.00936e-21)
(0.819085 -0.452429 0)
(0.954486 -0.53601 -2.721e-21)
(0.963869 -0.56111 1.07025e-22)
(0.83902 -0.479517 0)
(0.847618 -0.497573 -7.43824e-22)
(0.732269 0.158546 1.12008e-20)
(0.769982 0.177342 0)
(0.700627 0.137889 -2.28686e-21)
(0.760796 0.394619 2.98667e-21)
(0.729078 0.274751 1.12979e-21)
(0.824625 0.563806 -2.40497e-22)
(0.793689 0.490928 2.17247e-21)
(0.876083 0.64228 -5.90728e-23)
(0.852745 0.613071 5.31771e-23)
(0.909826 0.661578 0)
(0.894957 0.657783 3.97969e-22)
(0.926503 0.649721 -1.81013e-25)
(0.920434 0.657151 0)
(0.924916 0.648054 -6.4743e-24)
(0.927969 0.64526 0)
(0.908435 0.668789 7.63577e-24)
(0.917928 0.658009 0)
(0.889285 0.654066 3.95403e-25)
(0.898337 0.670646 0)
(0.877676 0.546027 -6.28408e-25)
(0.882228 0.613291 0)
(0.875881 0.338985 0)
(0.875738 0.453494 0)
(0.883696 0.067492 1.46298e-23)
(0.878174 0.208041 0)
(0.902504 -0.206046 0)
(0.892529 -0.0728691 0)
(0.928895 -0.418725 -6.47638e-22)
(0.915651 -0.323699 2.5712e-21)
(0.942458 -0.489507 1.15885e-22)
(0.874836 -0.529376 -1.6401e-21)
(0.893335 -0.542601 0)
(0.859321 -0.513885 8.84861e-22)
(0.775211 -0.35249 -1.64493e-21)
(0.797436 -0.410645 0)
(0.735073 -0.189106 0)
(0.753703 -0.278889 0)
(0.712967 0.0185431 -3.69345e-24)
(0.72152 -0.0879134 0)
(0.713683 0.23198 0)
(0.709951 0.127696 0)
(0.741278 0.402096 0)
(0.724081 0.32523 0)
(0.795072 0.49273 0)
(0.765207 0.458269 0)
(0.863552 0.515687 0)
(0.828966 0.509037 0)
(0.923642 0.535247 -1.79268e-24)
(0.895674 0.52227 0)
(0.970846 0.578401 -1.97717e-24)
(0.948096 0.555094 0)
(1.01484 0.625026 0)
(0.993178 0.601961 0)
(1.05289 0.666553 0)
(1.03496 0.647344 0)
(1.07861 0.675912 0)
(1.06798 0.677971 0)
(1.08201 0.605055 1.62879e-21)
(1.08376 0.653824 0)
(1.05649 0.415353 0)
(1.07229 0.526556 -7.66601e-21)
(1.00433 0.11649 1.20442e-20)
(1.03074 0.276796 -2.36583e-21)
(0.936356 -0.221749 -4.52101e-21)
(0.971571 -0.05337 0)
(0.787283 0.0331954 -8.21708e-21)
(0.707455 0.00257463 -6.84002e-21)
(0.678614 -0.0103634 3.51577e-21)
(0.863928 -0.510288 0)
(0.856435 -0.495047 -5.69289e-22)
(0.811625 -0.116714 1.30682e-20)
(0.885303 -0.24588 4.78579e-21)
(0.836954 -0.262821 0)
(0.855869 -0.398893 0)
(0.970884 -0.568677 3.17165e-21)
(0.901328 -0.377379 4.54677e-21)
(0.744273 0.0167918 -3.27879e-21)
(0.663617 -0.158679 -3.50779e-21)
(0.644864 -0.160366 -2.47304e-21)
(0.677689 0.11797 1.03251e-21)
(0.657382 -0.0224328 -1.85637e-21)
(0.736202 0.364252 1.32607e-21)
(0.704784 0.248679 -2.83585e-21)
(0.802271 0.532612 -1.3538e-23)
(0.769403 0.458589 0)
(0.859991 0.619921 5.88748e-24)
(0.832948 0.585619 0)
(0.90195 0.6479 0)
(0.8829 0.639861 0)
(0.927083 0.644485 -3.49336e-25)
(0.916908 0.647682 0)
(0.932153 0.6508 0)
(0.932037 0.644256 0)
(0.923656 0.674918 -7.81267e-24)
(0.928732 0.663229 0)
(0.91521 0.65887 -9.84312e-24)
(0.918751 0.67644 0)
(0.91388 0.547023 1.23099e-23)
(0.913554 0.616491 0)
(0.920147 0.335182 0)
(0.916152 0.451879 0)
(0.932848 0.0628097 1.6013e-23)
(0.925863 0.203181 0)
(0.951418 -0.212891 0)
(0.941455 -0.0789201 -9.67253e-28)
(0.973042 -0.426168 -2.05407e-22)
(0.962663 -0.330469 0)
(0.991266 -0.541532 1.23963e-21)
(0.983048 -0.496287 -1.57947e-21)
(1.00162 -0.569687 -4.1599e-21)
(0.997629 -0.564622 -1.26803e-21)
(0.975335 -0.563135 -1.80399e-21)
(0.92549 -0.554957 1.00855e-21)
(0.949458 -0.560303 8.31155e-22)
(0.888156 -0.536587 0)
(0.905101 -0.547 0)
(0.874371 -0.524094 7.5029e-22)
(0.851985 -0.478968 8.61715e-22)
(0.81304 -0.430982 2.60902e-22)
(0.833678 -0.460509 4.99232e-22)
(0.768741 -0.331024 0)
(0.79092 -0.388445 2.8946e-22)
(0.729399 -0.172918 0)
(0.747555 -0.258847 0)
(0.707349 0.0246609 0)
(0.71581 -0.0769046 0)
(0.709731 0.225181 0)
(0.705085 0.127413 0)
(0.740089 0.383656 0)
(0.721353 0.31241 0)
(0.797695 0.465066 0)
(0.765837 0.434787 0)
(0.869708 0.484865 0)
(0.833486 0.47874 0)
(0.932347 0.50851 1.79268e-24)
(0.903151 0.492984 0)
(0.983153 0.554846 1.97717e-24)
(0.95832 0.530509 0)
(1.03326 0.602381 0)
(1.00819 0.578765 0)
(1.0807 0.647421 0)
(1.05763 0.62599 0)
(1.11928 0.664422 0)
(1.10176 0.662085 0)
(1.13563 0.607963 -1.58896e-21)
(1.1312 0.648455 0)
(1.11792 0.433101 0)
(1.13164 0.536699 0)
(1.06561 0.14503 0)
(1.09531 0.300426 2.19969e-21)
(0.990398 -0.190482 -9.2429e-21)
(1.03093 -0.0221909 -4.81241e-21)
(0.951326 -0.346027 8.45273e-21)
(1.00246 -0.561693 4.44779e-21)
(0.766308 -0.130562 1.8747e-21)
(0.68991 -0.153327 6.8587e-21)
(0.791103 -0.275467 -4.16093e-21)
(0.644289 -0.288213 1.71031e-21)
(0.658259 -0.296382 0)
(0.813405 -0.412257 3.91849e-21)
(0.850598 -0.462143 -1.8944e-21)
(0.867101 -0.474652 4.35753e-22)
(0.867647 -0.488782 -1.30022e-21)
(0.830208 -0.530953 7.73108e-21)
(0.842599 -0.617477 -3.64193e-21)
(1.03553 -0.569763 0)
(1.03164 -0.55803 0)
(0.877133 -0.591861 6.6013e-21)
(0.725313 -0.143365 2.86817e-22)
(0.655902 -0.391497 1.9781e-23)
(0.654699 -0.364842 -1.97541e-23)
(0.635712 -0.160726 2.12152e-22)
(0.638608 -0.27542 0)
(0.662118 0.0962823 1.02991e-21)
(0.6444 -0.0334902 0)
(0.717648 0.330514 0)
(0.687326 0.219614 -1.84905e-22)
(0.785488 0.499094 0)
(0.751221 0.424058 0)
(0.848314 0.593842 0)
(0.818362 0.555373 0)
(0.897019 0.629058 4.32776e-24)
(0.874539 0.617434 0)
(0.929511 0.634292 -1.032e-23)
(0.915586 0.632848 0)
(0.942322 0.649686 0)
(0.938269 0.638955 0)
(0.942981 0.676951 1.57092e-25)
(0.943232 0.664614 0)
(0.945027 0.658643 1.00241e-23)
(0.94326 0.677729 0)
(0.954086 0.543249 -1.2797e-23)
(0.948663 0.6144 0)
(0.968674 0.3295 0)
(0.960958 0.44693 0)
(0.985487 0.0544999 -1.6013e-23)
(0.976897 0.196504 0)
(1.0044 -0.224064 0)
(0.994716 -0.0885824 9.67252e-28)
(1.02274 -0.439451 0)
(1.01412 -0.343435 0)
(1.03426 -0.550063 -1.32318e-21)
(1.02967 -0.508205 0)
(1.03607 -0.568906 2.3063e-21)
(0.975412 -0.549101 0)
(1.02487 -0.538896 7.30412e-22)
(0.999504 -0.545264 -1.66865e-21)
(0.931692 -0.546763 7.9588e-22)
(0.952669 -0.549307 -8.14275e-22)
(0.898245 -0.534276 0)
(0.91342 -0.541631 0)
(0.877041 -0.514253 0)
(0.886149 -0.524987 0)
(0.870852 -0.50208 1.62822e-21)
(0.810358 -0.409913 0)
(0.831641 -0.441308 0)
(0.766254 -0.309506 0)
(0.788327 -0.366513 0)
(0.727798 -0.157212 1.77343e-24)
(0.745497 -0.239334 0)
(0.706417 0.0296141 0)
(0.71445 -0.0662305 0)
(0.710111 0.216319 0)
(0.704783 0.125696 0)
(0.743181 0.359403 0)
(0.722811 0.295989 0)
(0.805314 0.428165 0)
(0.771147 0.403199 0)
(0.879316 0.44873 0)
(0.842709 0.440217 0)
(0.941215 0.481014 0)
(0.912268 0.461485 0)
(0.995246 0.528608 0)
(0.968162 0.504599 0)
(1.05125 0.575868 0)
(1.02314 0.552008 0)
(1.10669 0.622868 -2.58114e-24)
(1.07915 0.600248 -2.63928e-28)
(1.15708 0.646487 0)
(1.13323 0.639888 0)
(1.18802 0.602969 4.51317e-25)
(1.17615 0.636456 0)
(1.18124 0.446721 0)
(1.19025 0.540443 0)
(1.13198 0.175957 5.33648e-22)
(1.16169 0.323038 -2.06635e-21)
(1.05141 -0.148741 8.59304e-21)
(1.09527 0.0149504 3.86026e-21)
(0.956403 -0.445512 -9.40687e-21)
(1.00587 -0.305152 -6.10367e-21)
(0.912517 -0.560917 -9.57903e-21)
(0.748743 -0.286862 -3.56219e-21)
(0.680075 -0.299725 -3.82202e-21)
(0.880653 -0.491933 -7.69141e-22)
(0.881463 -0.480079 -4.40223e-22)
(0.773527 -0.421285 0)
(0.664344 -0.411869 -1.76183e-21)
(0.795347 -0.54031 -4.34699e-22)
(0.686445 -0.423036 6.79921e-23)
(0.681881 -0.461633 -6.78701e-23)
(0.812951 -0.629849 6.68946e-21)
(0.82162 -0.688472 2.61697e-21)
(1.05004 -0.528275 2.09796e-21)
(0.82503 -0.712211 4.392e-21)
(0.83522 -0.69706 -9.46032e-22)
(1.01702 -0.515263 5.91367e-22)
(1.03941 -0.503656 0)
(0.710935 -0.295789 0)
(0.731613 -0.448488 -1.73576e-21)
(0.746731 -0.397427 3.08748e-22)
(0.661273 -0.33412 6.33751e-22)
(0.697902 -0.379769 -6.40676e-22)
(0.632884 -0.158808 3.8801e-22)
(0.639909 -0.258486 0)
(0.653913 0.0758354 1.32935e-22)
(0.638531 -0.0439245 0)
(0.706677 0.298156 0)
(0.677354 0.191776 -1.33737e-22)
(0.774648 0.465075 0)
(0.739937 0.389957 0)
(0.840682 0.564408 -3.24734e-24)
(0.808713 0.523064 0)
(0.89515 0.606393 -4.32776e-24)
(0.869637 0.591187 0)
(0.934153 0.620786 9.26801e-24)
(0.916875 0.614434 0)
(0.954781 0.644989 5.56073e-24)
(0.946604 0.630377 0)
(0.965009 0.674394 7.65557e-24)
(0.960286 0.661921 0)
(0.977659 0.653347 -2.16835e-25)
(0.970527 0.674054 0)
(0.996953 0.53532 1.4856e-25)
(0.986608 0.607564 0)
(1.01917 0.320693 0)
(1.00805 0.438389 0)
(1.04035 0.0454662 0)
(1.02999 0.187557 0)
(1.05987 -0.232878 0)
(1.05041 -0.0977301 0)
(1.07428 -0.444435 0)
(1.06819 -0.350795 0)
(1.07764 -0.548662 1.33075e-21)
(1.07755 -0.510058 0)
(1.06927 -0.562687 2.03226e-21)
(1.07433 -0.564657 -3.38065e-21)
(1.05978 -0.549608 0)
(0.973383 -0.529551 0)
(0.994696 -0.523697 6.16904e-22)
(0.93462 -0.532349 -3.32558e-22)
(0.953235 -0.532258 3.35741e-22)
(0.905048 -0.525706 0)
(0.918441 -0.530062 0)
(0.887037 -0.511818 0)
(0.894589 -0.51956 0)
(0.88237 -0.50256 8.81118e-22)
(0.88446 -0.467216 3.90173e-22)
(0.851709 -0.444529 -2.89874e-22)
(0.86919 -0.459381 -3.67465e-22)
(0.810975 -0.388972 0)
(0.83207 -0.421666 0)
(0.767219 -0.288378 0)
(0.789069 -0.344585 0)
(0.729754 -0.141908 -1.77343e-24)
(0.746973 -0.220309 0)
(0.709438 0.0341115 0)
(0.716882 -0.0558488 0)
(0.714591 0.206887 0)
(0.708454 0.12347 0)
(0.750614 0.334792 0)
(0.728528 0.278955 0)
(0.816111 0.392851 0)
(0.780505 0.372013 0)
(0.889848 0.414959 0)
(0.853869 0.404204 0)
(0.950948 0.452759 -7.4742e-25)
(0.92201 0.430998 0)
(1.00766 0.500197 -1.00038e-24)
(0.978936 0.476777 0)
(1.06766 0.546566 0)
(1.03738 0.523021 0)
(1.12994 0.593598 2.58114e-24)
(1.09851 0.570742 2.63928e-28)
(1.19108 0.62233 0)
(1.16133 0.612129 0)
(1.23654 0.59362 5.67207e-25)
(1.21706 0.618459 0)
(1.24421 0.458861 0)
(1.2465 0.541471 0)
(1.20133 0.208137 0)
(1.22898 0.34591 0)
(1.11722 -0.104236 1.93909e-21)
(1.16404 0.0549848 0)
(1.00964 -0.399054 0)
(1.06515 -0.259076 8.52712e-23)
(0.905311 -0.604976 1.82261e-21)
(0.954305 -0.51862 -2.76354e-21)
(0.809982 -0.712778 -5.80757e-21)
(0.824556 -0.680701 -1.01316e-21)
(0.860108 -0.659905 4.02287e-21)
(0.736614 -0.42841 1.68673e-21)
(0.68046 -0.424751 1.21733e-21)
(0.762921 -0.543988 0)
(0.684184 -0.494429 8.45994e-22)
(0.785137 -0.635131 -1.78551e-21)
(0.721554 -0.496289 -1.01665e-21)
(0.801877 -0.694745 -1.41105e-21)
(0.798171 -0.402248 0)
(0.782491 -0.45366 1.42842e-21)
(0.810355 -0.72366 0)
(0.811229 -0.722817 -4.33937e-21)
(0.796704 -0.676889 -1.16416e-21)
(0.793597 -0.703896 2.02274e-21)
(1.07578 -0.515875 -2.69104e-21)
(0.775602 -0.660155 4.45123e-21)
(0.88998 -0.453285 0)
(1.00797 -0.489638 -1.09025e-21)
(1.02792 -0.477199 -4.62971e-22)
(0.904365 -0.458975 -1.47826e-21)
(0.897938 -0.470413 1.10713e-21)
(0.760776 -0.635281 1.21333e-20)
(1.06192 -0.489877 5.06449e-22)
(0.705197 -0.430074 0)
(0.846228 -0.410201 6.116e-22)
(0.860232 -0.367558 -3.84368e-23)
(0.767429 -0.345854 1.87346e-22)
(0.817295 -0.353075 -1.89165e-22)
(0.675605 -0.300837 3.66436e-22)
(0.716699 -0.333931 -1.43796e-22)
(0.637401 -0.154598 1.90904e-22)
(0.64889 -0.240089 -2.09393e-22)
(0.651913 0.0571498 0)
(0.639306 -0.0525028 0)
(0.701616 0.266832 0)
(0.673447 0.165628 0)
(0.768772 0.430332 0)
(0.73416 0.355969 0)
(0.837 0.532569 3.24734e-24)
(0.803513 0.48912 0)
(0.896352 0.581131 0)
(0.868224 0.562283 0)
(0.940797 0.604473 -6.34033e-25)
(0.920744 0.593471 0)
(0.968433 0.636032 -5.34613e-25)
(0.956429 0.618345 0)
(0.988184 0.666607 0)
(0.978446 0.654332 0)
(1.01141 0.642853 -4.2559e-25)
(0.998981 0.665071 0)
(1.04045 0.522826 4.16175e-25)
(1.02545 0.595777 0)
(1.07021 0.308788 0)
(1.05564 0.425902 0)
(1.09602 0.0351553 0)
(1.08377 0.176474 0)
(1.11633 -0.241183 0)
(1.10702 -0.107186 0)
(1.12672 -0.448414 1.25638e-23)
(1.12323 -0.35734 0)
(1.12174 -0.546737 -5.85221e-22)
(1.12628 -0.511201 0)
(1.10272 -0.554409 -1.80908e-21)
(1.11376 -0.559029 5.90284e-22)
(1.08892 -0.538464 8.53101e-22)
(0.968784 -0.507163 2.84648e-22)
(0.988039 -0.499543 -8.93518e-22)
(0.934463 -0.514576 0)
(0.950824 -0.512081 0)
(0.908739 -0.513422 0)
(0.920307 -0.514941 0)
(0.894103 -0.505221 0)
(0.899989 -0.510158 0)
(0.891176 -0.490323 4.9549e-22)
(0.891163 -0.498595 -3.66073e-22)
(0.893499 -0.480857 4.53394e-22)
(0.855178 -0.426416 6.4814e-22)
(0.873519 -0.443127 2.74847e-22)
(0.81426 -0.367551 0)
(0.835304 -0.401886 0)
(0.771047 -0.267634 0)
(0.792447 -0.322936 0)
(0.734698 -0.127127 0)
(0.751342 -0.201827 0)
(0.715613 0.0380148 0)
(0.722418 -0.0459766 0)
(0.722465 0.196292 0)
(0.715344 0.1205 0)
(0.761851 0.307837 0)
(0.737871 0.260133 0)
(0.830102 0.355818 0)
(0.793563 0.338428 0)
(0.901908 0.381595 0)
(0.867412 0.367633 0)
(0.961061 0.424465 3.21939e-25)
(0.932609 0.401086 0)
(1.01949 0.47037 3.20843e-25)
(0.989648 0.448093 0)
(1.08223 0.515048 0)
(1.05045 0.492278 0)
(1.14954 0.56034 0)
(1.11519 0.538266 0)
(1.21952 0.591389 0)
(1.18477 0.579115 0)
(1.27863 0.574878 8.91602e-24)
(1.25179 0.592101 0)
(1.30207 0.462612 0)
(1.29651 0.533204 0)
(1.26933 0.237156 9.08955e-22)
(1.29308 0.36248 0)
(1.18503 -0.0578732 -6.74721e-24)
(1.23289 0.093667 -9.1992e-22)
(1.06723 -0.346729 -3.01553e-21)
(1.1288 -0.207745 3.38258e-21)
(0.945343 -0.558606 1.91797e-21)
(1.00431 -0.466171 2.62695e-21)
(0.837716 -0.651839 2.02109e-21)
(0.887119 -0.62199 -3.78376e-21)
(0.791815 -0.655318 -4.16263e-21)
(0.73399 -0.542805 -3.30383e-22)
(0.693676 -0.518495 9.39986e-22)
(0.908298 -0.472193 6.49154e-22)
(0.915838 -0.463667 -3.95855e-22)
(0.770717 -0.587755 2.30689e-22)
(0.761298 -0.632615 -2.72935e-21)
(0.717209 -0.538729 0)
(0.784571 -0.692724 -2.57884e-21)
(0.769563 -0.504025 1.01716e-21)
(0.801405 -0.722788 -6.70963e-23)
(0.832321 -0.45524 0)
(0.806328 -0.729093 1.84238e-21)
(0.895495 -0.393844 1.72615e-22)
(0.884429 -0.430721 -7.46364e-22)
(0.805478 -0.708789 0)
(0.77792 -0.681422 1.85502e-21)
(0.753289 -0.622278 -3.11397e-21)
(1.04784 -0.463001 -5.07696e-22)
(0.710528 -0.53527 0)
(0.929392 -0.423946 0)
(0.939522 -0.387946 4.5722e-24)
(0.874767 -0.329749 -5.26272e-23)
(0.907025 -0.359144 -1.27106e-23)
(0.792092 -0.296278 -1.4226e-23)
(0.837182 -0.308192 1.42537e-23)
(0.697578 -0.263483 0)
(0.742002 -0.286057 -1.80507e-23)
(0.648222 -0.147243 -6.30684e-25)
(0.66508 -0.217633 0)
(0.65593 0.0409839 0)
(0.646047 -0.0581665 0)
(0.701827 0.236987 0)
(0.67532 0.141587 0)
(0.767364 0.395342 0)
(0.733214 0.322539 0)
(0.837048 0.499137 -1.38525e-24)
(0.802456 0.454213 0)
(0.900091 0.553737 2.03121e-24)
(0.869974 0.531421 0)
(0.94876 0.585392 -6.74322e-24)
(0.926524 0.570179 0)
(0.982488 0.622849 -6.29857e-25)
(0.96706 0.602847 0)
(1.01119 0.653654 -6.27786e-24)
(0.9967 0.641924 0)
(1.04451 0.627113 -9.38168e-24)
(1.02703 0.650789 0)
(1.08298 0.505855 6.61605e-25)
(1.06344 0.579019 0)
(1.12026 0.293731 0)
(1.10224 0.409576 0)
(1.15099 0.023234 0)
(1.1366 0.162959 0)
(1.17252 -0.248781 0)
(1.16324 -0.117256 0)
(1.17858 -0.448303 -1.25638e-23)
(1.17801 -0.361478 0)
(1.16469 -0.537764 0)
(1.17422 -0.506376 0)
(1.13493 -0.540235 6.80018e-24)
(1.15179 -0.546797 0)
(1.10066 -0.499328 -5.69711e-22)
(1.11853 -0.522292 0)
(1.0672 -0.446438 3.76444e-22)
(1.08389 -0.473072 9.55807e-22)
(1.03335 -0.436461 7.25672e-22)
(0.997346 -0.46385 5.73591e-23)
(1.01544 -0.450951 8.94881e-22)
(0.962257 -0.483647 0)
(0.979525 -0.474811 2.25626e-22)
(0.931694 -0.495152 0)
(0.9461 -0.490433 0)
(0.909787 -0.49884 0)
(0.91949 -0.497916 0)
(0.898615 -0.495604 0)
(0.902803 -0.498027 0)
(0.898602 -0.486279 0)
(0.897244 -0.491673 0)
(0.902391 -0.479738 -8.3224e-22)
(0.924915 -0.454331 1.23025e-21)
(0.897461 -0.438256 -2.38309e-22)
(0.912366 -0.446691 0)
(0.861095 -0.407717 0)
(0.880038 -0.426174 -2.59291e-22)
(0.819635 -0.346198 0)
(0.84091 -0.381361 0)
(0.777119 -0.247388 0)
(0.798064 -0.301594 0)
(0.742024 -0.112999 3.74304e-25)
(0.758014 -0.183979 0)
(0.724355 0.0411835 0)
(0.73042 -0.0367722 0)
(0.733482 0.184352 0)
(0.725013 0.116588 0)
(0.776788 0.279225 0)
(0.750755 0.239586 0)
(0.846405 0.319403 0)
(0.809919 0.304037 0)
(0.914289 0.350184 0)
(0.882088 0.332866 0)
(0.971249 0.396049 4.25481e-25)
(0.943287 0.372217 0)
(1.0305 0.439722 6.79541e-25)
(1.00017 0.418668 0)
(1.09453 0.482136 0)
(1.06194 0.460598 0)
(1.16508 0.524424 0)
(1.12883 0.503777 0)
(1.24148 0.555943 0)
(1.20295 0.542635 0)
(1.31265 0.54986 -7.58063e-24)
(1.27899 0.56019 0)
(1.35294 0.461383 0)
(1.33866 0.51869 0)
(1.33529 0.263712 0)
(1.35226 0.375533 0)
(1.25697 -0.0083762 7.22824e-25)
(1.3028 0.13273 0)
(1.1353 -0.284185 0)
(1.20011 -0.150284 0)
(0.997052 -0.498234 -4.89686e-23)
(1.06687 -0.401962 -1.18827e-21)
(0.87046 -0.602776 1.08594e-21)
(0.930573 -0.566201 -1.26235e-21)
(0.814443 -0.611126 -2.97741e-22)
(1.05081 -0.420372 -1.10479e-21)
(0.74219 -0.621359 3.30164e-22)
(0.719536 -0.574133 0)
(0.974284 -0.413177 7.23806e-24)
(0.964543 -0.451445 -1.55587e-24)
(0.771047 -0.68045 2.4862e-21)
(0.760538 -0.551561 0)
(0.794019 -0.713576 1.62485e-21)
(0.818801 -0.502194 0)
(0.809055 -0.7211 -2.03977e-21)
(0.872854 -0.469448 0)
(0.80849 -0.713656 -1.81932e-21)
(0.918718 -0.459716 0)
(0.799111 -0.683684 -3.002e-21)
(0.763315 -0.647497 1.15213e-21)
(0.725735 -0.550082 -2.00732e-22)
(0.73889 -0.577128 -5.84422e-21)
(0.688868 -0.49927 -3.43208e-22)
(1.08577 -0.427954 3.28506e-22)
(0.934943 -0.444207 -2.37826e-21)
(0.945029 -0.456764 -6.18238e-22)
(1.06747 -0.402614 -8.65726e-22)
(0.933725 -0.463912 0)
(0.728081 -0.601946 0)
(1.01143 -0.435398 -1.034e-22)
(1.01881 -0.39739 1.68328e-24)
(0.950108 -0.352965 -1.20766e-22)
(0.983528 -0.376584 2.53267e-23)
(0.888944 -0.29622 -1.71071e-22)
(0.918282 -0.326424 1.07915e-22)
(0.818252 -0.251347 -1.0979e-22)
(0.856996 -0.269498 2.06928e-22)
(0.726365 -0.222672 0)
(0.772415 -0.239154 0)
(0.665652 -0.135169 -5.39984e-25)
(0.688746 -0.190081 0)
(0.664817 0.0274906 0)
(0.658384 -0.0602097 0)
(0.70661 0.208552 0)
(0.681848 0.119433 0)
(0.770183 0.360559 0)
(0.736729 0.289961 0)
(0.840354 0.464673 1.38525e-24)
(0.805233 0.418866 0)
(0.905542 0.524612 -2.03121e-24)
(0.874226 0.499098 0)
(0.957267 0.563941 5.33258e-24)
(0.933351 0.544904 0)
(0.996257 0.606015 -7.01412e-25)
(0.977823 0.584396 0)
(1.03301 0.635931 7.18978e-25)
(1.01421 0.625216 0)
(1.07576 0.60642 7.98145e-24)
(1.0535 0.631518 0)
(1.12334 0.484571 8.69453e-25)
(1.09938 0.557562 0)
(1.16815 0.275382 0)
(1.14661 0.389405 0)
(1.20417 0.00960469 0)
(1.18746 0.146807 0)
(1.22707 -0.255633 0)
(1.21776 -0.127949 0)
(1.22846 -0.444946 0)
(1.23091 -0.363544 0)
(1.20564 -0.524578 0)
(1.21975 -0.497793 0)
(1.16696 -0.521422 -5.72613e-24)
(1.18763 -0.53035 0)
(1.1246 -0.479814 8.60606e-22)
(1.14606 -0.502847 -2.95525e-22)
(1.10481 -0.453964 -1.07124e-22)
(1.00239 -0.475153 7.10239e-23)
(1.04916 -0.458425 0)
(1.0546 -0.418882 -5.91901e-24)
(1.01882 -0.410975 -2.90625e-22)
(1.05035 -0.378015 1.12811e-22)
(1.0348 -0.395091 -2.47361e-22)
(0.985783 -0.438632 0)
(1.00227 -0.425485 0)
(0.953829 -0.460321 0)
(0.969482 -0.450282 -2.23127e-22)
(0.92687 -0.474995 0)
(0.939423 -0.468527 0)
(0.908631 -0.482774 0)
(0.916546 -0.479719 0)
(0.900529 -0.484559 0)
(0.903266 -0.484316 0)
(0.902922 -0.481769 0)
(0.90045 -0.483688 0)
(0.914712 -0.475021 -2.15702e-22)
(0.907788 -0.47887 -5.80973e-23)
(0.923501 -0.470061 3.97863e-22)
(0.906499 -0.422561 1.68563e-22)
(0.921749 -0.433733 1.12127e-22)
(0.869027 -0.388061 0)
(0.88842 -0.408241 -4.63416e-23)
(0.826878 -0.324889 0)
(0.848285 -0.360537 0)
(0.784981 -0.22769 0)
(0.805489 -0.280583 0)
(0.751202 -0.0995927 -3.74304e-25)
(0.766494 -0.166811 0)
(0.735231 0.043403 -9.95558e-26)
(0.740365 -0.0283493 0)
(0.747539 0.170582 0)
(0.737194 0.111352 0)
(0.795152 0.248958 0)
(0.76711 0.216939 0)
(0.864225 0.284267 0)
(0.828967 0.269299 0)
(0.926678 0.3209 -2.9204e-25)
(0.897245 0.300386 0)
(0.98137 0.367848 0)
(0.953954 0.344487 0)
(1.04047 0.408898 0)
(1.01024 0.389102 0)
(1.10461 0.448483 0)
(1.07182 0.428569 0)
(1.17661 0.486645 -9.80487e-25)
(1.13947 0.468062 0)
(1.25671 0.516166 0)
(1.21589 0.503293 0)
(1.33687 0.516747 6.94376e-25)
(1.29784 0.522097 0)
(1.39359 0.450668 3.91044e-24)
(1.37025 0.494721 0)
(1.39494 0.285587 0)
(1.40272 0.380868 0)
(1.32901 0.0410791 8.28027e-25)
(1.36982 0.169527 0)
(1.21102 -0.217048 0)
(1.27508 -0.0906364 0)
(1.06576 -0.425912 7.97692e-22)
(1.14001 -0.330977 0)
(0.923223 -0.538111 -4.58582e-23)
(0.993369 -0.495483 -5.72597e-22)
(0.797192 -0.542622 2.86347e-22)
(0.856 -0.554315 2.17964e-23)
(0.697501 -0.468635 -9.53231e-21)
(0.742199 -0.514871 -1.5791e-21)
(0.652306 -0.415932 1.38962e-20)
(0.626626 -0.400489 2.27974e-21)
(0.643136 -0.356501 -2.76585e-21)
(0.761901 -0.660113 0)
(0.756571 -0.594466 0)
(0.939247 -0.476406 8.1235e-22)
(0.952477 -0.471547 -8.23387e-22)
(0.790919 -0.693797 0)
(0.807513 -0.548356 0)
(0.811168 -0.707886 4.36432e-22)
(0.861409 -0.509052 0)
(0.819448 -0.704732 0)
(0.907802 -0.495377 -3.07892e-22)
(0.809778 -0.690819 1.45282e-21)