/*--------------------------------*- C++ -*----------------------------------*\
  =========                 |
  \\      /  F ield         | OpenFOAM: The Open Source CFD Toolbox
   \\    /   O peration     | Website:  https://openfoam.org
    \\  /    A nd           | Version:  10
     \\/     M anipulation  |
\*---------------------------------------------------------------------------*/
FoamFile
{
    format      ascii;
    class       volVectorField;
    location    "31";
    object      U;
}
// * * * * * * * * * * * * * * * * * * * * * * * * * * * * * * * * * * * * * //

dimensions      [0 1 -1 0 0 0 0];

internalField   nonuniform List<vector> 
28942
(
(-0.580039 0.357067 -6.71859e-19)
(-0.574402 0.403371 -1.39738e-19)
(1.58103 -1.12234 -2.95129e-21)
(2.53041 0.0482852 -8.43594e-19)
(2.49253 0.0778275 2.80458e-19)
(1.1365 0.0586096 0)
(1.32829 0.0828849 -4.59772e-21)
(1.48393 0.0522764 5.14315e-21)
(2.89922 -0.314366 -6.93704e-20)
(2.87984 -0.287795 1.92596e-19)
(-0.353805 0.1034 -6.49046e-19)
(-0.364743 0.0420702 3.25703e-19)
(-0.115608 0.367316 0)
(-0.042465 0.401743 0)
(2.52752 -0.116632 2.59731e-22)
(2.56168 -0.116375 1.11238e-24)
(2.37781 0.398334 1.50864e-19)
(2.34271 0.357027 2.47307e-19)
(0.946435 -1.44413 9.76766e-19)
(1.50227 -1.59551 -2.79748e-19)
(2.61377 0.690237 1.51809e-19)
(2.62404 0.677008 0)
(-0.15755 0.545942 5.13559e-19)
(-0.231082 0.279435 2.77513e-19)
(2.1603 -0.761663 5.74497e-19)
(2.86924 -0.947465 -5.19644e-19)
(0.716742 -0.993409 2.96332e-18)
(0.725127 -0.758349 -1.14551e-18)
(1.9267 -1.38748 1.70975e-19)
(1.42091 -0.962087 5.78765e-20)
(1.13703 -0.0452816 0)
(1.54722 -0.0782313 7.43563e-21)
(1.91811 -0.1215 2.30778e-20)
(2.26121 -0.103962 6.82498e-21)
(1.60028 2.22089 -3.56898e-19)
(1.1487 2.39805 5.19735e-19)
(1.79304 2.16477 -3.77426e-19)
(1.38592 2.21047 -2.09169e-19)
(0.513229 0.0505259 5.40066e-21)
(0.638957 2.22574 4.14484e-20)
(2.03775 -0.0243345 0)
(2.35931 -0.074783 0)
(2.63003 0.726053 -7.22623e-21)
(2.6218 0.76366 1.79588e-20)
(2.76065 0.691623 1.8724e-20)
(1.90354 0.066803 -2.81859e-21)
(1.87011 0.0848254 4.86e-21)
(2.27186 0.0783913 1.64291e-20)
(2.2146 0.0795223 -4.47815e-21)
(1.97409 0.0786039 1.52853e-20)
(1.82871 0.0946292 -8.74488e-21)
(2.79162 -0.0230981 -1.0917e-19)
(2.78619 -0.0377904 -9.72255e-20)
(2.88699 -0.342232 -7.09776e-22)
(2.86416 -0.315086 3.72404e-20)
(3.21796 -0.579235 4.77103e-19)
(3.63533 -0.685774 2.08299e-19)
(0.198307 0.398349 -3.65444e-19)
(-0.140531 0.324815 0)
(-0.082279 0.370277 1.23437e-19)
(0.164372 0.37242 3.23305e-19)
(0.231325 0.262871 -2.56542e-19)
(0.280703 0.29366 -2.93488e-19)
(3.0259 -1.20444 0)
(3.46105 -1.15061 2.94234e-20)
(3.07136 -0.961382 -6.05504e-21)
(2.99275 -0.883949 0)
(2.26609 -0.361501 -1.79862e-19)
(2.32164 -0.404062 -1.20561e-19)
(-0.32283 0.209487 2.2006e-18)
(-0.428734 0.232754 -6.89039e-19)
(-0.571158 0.374393 1.70935e-18)
(2.26538 -0.500428 0)
(2.26523 -0.450441 6.4606e-19)
(2.10285 -0.750306 1.84487e-19)
(4.08602 0.406827 6.12919e-19)
(4.12627 0.207627 -6.82914e-19)
(3.90079 0.119039 -4.48489e-19)
(0.518617 -0.282361 -3.24625e-21)
(0.782863 -0.46725 -4.29199e-20)
(2.47909 -1.56736 2.83966e-20)
(2.22006 -1.48043 4.87549e-20)
(-0.733266 0.262328 3.49966e-18)
(-0.822728 0.247253 -1.35456e-18)
(3.65272 1.51034 -1.2277e-19)
(3.07156 1.22557 1.99811e-19)
(3.06988 1.87182 -2.43399e-19)
(3.02234 1.99122 8.69601e-19)
(2.98782 2.04739 -5.75735e-19)
(2.57859 1.83552 6.15413e-20)
(2.59284 1.99152 1.69825e-19)
(2.62739 2.10755 -2.10892e-19)
(-0.428375 1.12855 -1.44253e-19)
(-0.912118 0.638347 -3.01798e-20)
(0.0020703 0.815101 6.07861e-20)
(0.304617 1.1366 -1.08292e-18)
(0.122448 1.52355 1.37502e-18)
(1.32063 1.4974 9.58078e-19)
(1.57441 1.75055 -2.69643e-19)
(-0.690073 -0.135128 0)
(2.51613 -0.00124098 0)
(2.43002 0.0775637 -5.70696e-19)
(2.40151 0.176896 4.75486e-19)
(2.60847 0.148792 0)
(3.12947 -0.413198 0)
(3.09909 -0.441046 0)
(3.1499 -0.471528 4.74672e-19)
(2.7931 0.37994 -1.09564e-20)
(2.78838 0.421563 1.31726e-19)
(2.76679 0.365221 7.33115e-20)
(0.254339 0.446258 8.14181e-19)
(0.334044 0.502512 -9.1611e-19)
(0.231793 0.241803 -1.17702e-18)
(0.324639 -0.00865884 1.11177e-18)
(-0.398134 0.33199 2.24933e-18)
(0.58847 1.05823 4.31341e-19)
(1.08048 0.858152 1.08614e-18)
(0.913771 1.65915 1.14599e-19)
(0.438335 1.59166 -2.39703e-18)
(3.64848 1.15507 -1.83905e-20)
(3.24019 1.19998 -1.87927e-19)
(3.21813 1.0625 3.1009e-19)
(2.21232 -1.64131 1.84986e-19)
(1.62973 -1.18443 -1.28908e-19)
(0.688155 0.36764 -1.44917e-18)
(0.667108 0.183123 0)
(1.05821 0.242493 7.79397e-19)
(1.49015 -1.13405 1.82652e-19)
(1.84938 -1.49196 -4.9794e-19)
(2.19413 0.0730386 -1.43992e-20)
(2.26861 0.0705197 5.36248e-21)
(2.05737 0.0664342 3.92944e-22)
(1.17886 -1.51566 0)
(1.2832 -1.03137 0)
(2.57145 -0.166059 -5.37835e-20)
(2.52844 -0.157231 2.97555e-19)
(2.53162 -0.0457684 0)
(1.93744 -1.53154 0)
(1.97445 -1.25208 -2.75722e-19)
(2.55764 2.20662 1.48927e-19)
(0.668578 0.969351 8.04746e-19)
(0.611892 0.730096 -6.52646e-19)
(1.66877 -1.47438 -2.18355e-19)
(2.85405 0.607702 1.22445e-19)
(2.90074 0.615495 -2.07775e-20)
(3.46001 -0.503566 -3.84716e-20)
(3.50674 -0.475159 5.17469e-20)
(3.49454 -0.442648 1.39109e-19)
(0.53987 0.647033 2.49326e-19)
(2.90935 2.15181 -2.20495e-19)
(2.92637 1.88823 3.0807e-20)
(3.53959 2.28628 2.27201e-21)
(1.69377 -0.0587342 -1.19498e-21)
(1.68826 -0.0589383 -1.62697e-20)
(1.90687 -0.0661282 -1.02595e-21)
(1.919 -0.0849362 3.87992e-21)
(2.46324 2.07159 1.40566e-19)
(1.52333 1.90497 0)
(-0.0209789 1.88991 1.49179e-18)
(-0.322359 1.126 -1.69781e-18)
(-0.80615 2.04134 1.17452e-18)
(3.00419 0.448409 -2.55146e-18)
(4.2154 0.804482 -1.26538e-18)
(2.14824 -0.0910945 1.65664e-21)
(3.2506 -1.47753 7.92567e-20)
(3.16144 -1.47072 1.53638e-19)
(2.60419 0.774281 3.53598e-19)
(2.47516 0.900693 4.3559e-20)
(2.43422 0.589648 2.41513e-19)
(2.4843 0.608093 -1.73432e-19)
(2.65584 0.762797 0)
(2.68984 -0.0703337 -4.68297e-21)
(2.68676 -0.0826121 -9.76211e-21)
(2.80046 -0.206537 -7.72529e-20)
(2.82386 -0.218126 1.35092e-19)
(2.80496 0.321313 6.27581e-21)
(2.8429 0.330142 -1.13449e-20)
(2.81644 0.353835 0)
(2.78125 0.339081 8.04094e-21)
(2.82315 0.395115 0)
(2.87445 0.539826 -1.86228e-20)
(2.86995 0.612553 -1.72207e-20)
(2.84488 0.710437 -3.76786e-20)
(2.86189 0.679016 0)
(2.94794 0.670475 4.32662e-20)
(2.9049 0.743218 1.75049e-20)
(2.81641 0.781048 -3.16609e-20)
(2.69802 0.965434 -1.34325e-19)
(2.67511 0.816822 -2.9507e-20)
(2.4608 -1.47341 7.31218e-19)
(3.03076 -1.70922 -3.07178e-19)
(-0.384101 0.628348 -1.63586e-18)
(1.99956 0.0705233 1.36756e-20)
(2.35805 0.0749042 0)
(0.305709 -0.0376339 1.95144e-18)
(0.245059 -0.177188 8.73076e-19)
(2.24847 0.0877244 -2.40341e-21)
(2.43956 0.0907847 -5.78009e-22)
(2.44232 0.0883818 0)
(2.22668 0.0849311 -1.30076e-21)
(2.41694 -2.04611 8.73787e-20)
(2.37702 -2.06587 -4.69621e-19)
(2.42649 -2.05633 -2.1938e-19)
(0.462717 0.602572 3.88305e-19)
(0.356345 0.350198 -4.81457e-19)
(0.415736 0.437128 4.92035e-19)
(0.0822941 0.259033 0)
(0.0403001 0.0829518 4.90721e-19)
(0.098923 0.155524 -4.45823e-19)
(-0.273091 0.0809744 -4.44201e-19)
(-0.33144 -0.12701 -4.33299e-19)
(-0.190298 -0.0760006 0)
(0.185391 1.28784 0)
(0.0892081 0.853995 0)
(-0.00203794 0.538238 0)
(3.05624 -0.422323 -5.99933e-20)
(3.00319 -0.396253 0)
(3.02156 -0.427311 6.18848e-20)
(2.31205 -0.0650497 1.18906e-18)
(2.34256 -0.076453 -4.36989e-19)
(2.3342 -0.0288075 0)
(2.29939 1.99665 7.70216e-21)
(2.32997 2.00183 -1.52028e-20)
(2.26754 1.9638 5.70117e-21)
(2.35567 1.99047 0)
(2.37698 1.97327 8.91934e-21)
(2.39283 1.95529 0)
(2.37548 1.9371 0)
(2.40422 1.94148 -3.15439e-20)
(2.39838 1.92797 0)
(2.34769 1.94895 8.60785e-21)
(2.31251 1.96086 0)
(2.27274 1.96674 -4.71053e-21)
(2.2269 1.95556 7.53846e-21)
(2.17856 1.91849 -5.69699e-21)
(2.41072 1.93528 3.02072e-20)
(2.41856 1.92466 1.06848e-21)
(2.23439 1.89461 1.42324e-22)
(2.12783 1.84634 9.56908e-21)
(2.19939 1.77738 -5.89076e-20)
(2.41126 1.93735 -2.91626e-23)
(2.43364 1.92952 1.16203e-21)
(2.07627 1.72729 -2.00562e-20)
(2.40901 1.94584 -3.18721e-20)
(2.40473 1.95873 3.18492e-20)
(2.44542 1.94106 -2.24557e-21)
(2.45526 1.95692 -5.06748e-21)
(2.17646 1.61149 5.72596e-20)
(2.03035 1.5603 1.35607e-20)
(2.3984 1.97159 0)
(2.46366 1.97159 4.99923e-21)
(2.14416 1.38922 -7.6944e-24)
(1.98267 1.33941 7.7451e-24)
(2.39051 1.97757 0)
(2.47188 1.97835 0)
(2.12007 1.11591 0)
(1.94485 1.07077 0)
(2.38137 1.96668 0)
(2.47886 1.96697 -3.2116e-21)
(2.09694 0.798788 3.78162e-20)
(1.91232 0.76004 8.80925e-24)
(2.37342 1.9284 -1.76253e-22)
(2.48844 1.92779 3.44049e-21)
(2.07925 0.448456 -3.80148e-20)
(1.88987 0.419743 0)
(2.36582 1.85266 0)
(2.49665 1.85049 0)
(2.06728 0.0804825 2.37761e-21)
(1.87712 0.0627973 -3.92024e-20)
(2.36261 1.73185 -2.84799e-20)
(2.50997 1.72947 0)
(2.06272 -0.290508 -1.34247e-21)
(1.87551 -0.298697 3.69947e-20)
(2.35708 1.56182 4.40124e-20)
(2.51883 1.55947 1.3512e-20)
(2.05902 -0.657562 -3.96821e-20)
(1.88458 -0.652663 0)
(2.35947 1.34232 -1.54504e-20)
(2.53459 1.33756 -9.16469e-21)
(2.071 -1.00083 1.81038e-20)
(1.90458 -0.98312 -3.52577e-20)
(2.35348 1.07826 7.0144e-20)
(2.54459 1.06844 -7.91757e-20)
(2.07701 -1.31427 -1.83353e-20)
(1.93292 -1.27565 -5.10381e-22)
(2.35627 0.768773 0)
(2.54822 0.759835 -4.01327e-20)
(2.10091 -1.57025 3.20589e-20)
(1.9695 -1.521 -6.18753e-20)
(2.35966 0.425805 0)
(2.55641 0.418627 0)
(2.24885 -1.31013 1.8154e-20)
(2.25734 -1.56935 6.71755e-20)
(2.12377 -1.77667 0)
(2.01235 -1.71774 2.77009e-20)
(2.25347 -0.650551 1.32755e-20)
(2.2547 -1.00018 -2.53005e-21)
(2.27119 0.10376 0)
(2.26295 -0.279889 4.32163e-20)
(2.29271 0.834281 8.10431e-23)
(2.28116 0.480138 0)
(2.31449 1.42478 0)
(2.30376 1.15209 0)
(2.33649 1.81341 0)
(2.32655 1.646 0)
(2.36605 1.99261 -1.14276e-20)
(2.35357 1.92541 -3.2202e-21)
(2.39604 2.02207 1.01907e-20)
(2.38166 2.0213 1.18166e-20)
(2.41166 1.98357 -1.55735e-20)
(2.40446 2.00674 -2.09651e-20)
(2.41241 1.94198 0)
(2.41463 1.95992 0)
(2.39281 1.92858 6.83063e-23)
(2.40445 1.93193 0)
(2.36006 1.93905 0)
(2.37809 1.93137 0)
(2.3148 1.95038 0)
(2.33871 1.94775 0)
(2.26377 1.89709 0)
(2.28908 1.93697 0)
(2.21906 1.70129 0)
(2.23931 1.82099 0)
(2.18775 1.32297 0)
(2.20006 1.53607 0)
(2.17302 0.767506 2.92564e-20)
(2.17298 1.069 0)
(2.17149 0.431665 9.77499e-21)
(2.36852 0.0655383 -1.03493e-20)
(2.5672 0.0579487 1.02626e-20)
(2.72181 1.05759 0)
(2.74982 0.415397 4.13573e-20)
(2.73609 0.752755 2.05736e-20)
(2.67374 1.53832 -4.34946e-21)
(2.69744 1.3221 1.83368e-20)
(2.61926 1.82795 -1.11359e-22)
(2.64721 1.70683 0)
(2.56977 1.94643 0)
(2.59506 1.90573 0)
(2.52575 1.95357 0)
(2.54835 1.95923 0)
(2.48154 1.9222 0)
(2.50441 1.93885 -8.78804e-27)
(2.42989 1.90131 -6.27449e-23)
(2.45722 1.90887 0)
(2.36467 1.90434 0)
(2.39911 1.90019 0)
(2.27777 1.91767 0)
(2.32463 1.9109 0)
(2.16723 1.90133 0)
(2.22556 1.91774 4.70077e-21)
(2.04051 1.78762 -1.92432e-21)
(2.1054 1.86009 6.50869e-21)
(1.91383 1.50821 0)
(1.97608 1.67163 6.11629e-21)
(1.80639 1.03538 0)
(1.85481 1.29521 0)
(1.74028 0.407017 0)
(1.76665 0.735745 0)
(1.72652 -0.292889 0)
(1.72662 0.0601563 0)
(1.76977 -0.957647 9.40982e-21)
(1.74143 -0.636057 0)
(1.85526 -1.48483 3.05166e-20)
(1.80786 -1.24208 8.12845e-21)
(1.91215 -1.68216 -2.83168e-20)
(2.25866 -1.77334 -6.31637e-20)
(2.17792 0.0761152 -2.0189e-20)
(2.76214 0.0580473 4.12355e-20)
(2.05873 -1.86619 0)
(1.97474 -1.83231 0)
(2.27383 -1.92298 0)
(2.1563 -1.92395 0)
(2.43341 -1.32027 0)
(2.41257 -1.78228 -1.7737e-20)
(2.42429 -1.57944 -1.89507e-20)
(2.45669 -0.654868 -2.74396e-20)
(2.44488 -1.00853 5.39385e-21)
(2.47509 0.105423 -8.91204e-23)
(2.46648 -0.278339 0)
(2.48465 0.830573 0)
(2.48151 0.479722 0)
(2.48138 1.41956 0)
(2.48413 1.14681 0)
(2.47489 1.81168 0)
(2.47722 1.64253 0)
(2.4693 1.99979 0)
(2.47227 1.93034 0)
(2.46496 2.02625 4.1163e-23)
(2.46853 2.02753 -1.14423e-20)
(2.45168 1.97951 3.50327e-23)
(2.45899 2.00688 1.95131e-20)
(2.42515 1.93046 0)
(2.44057 1.95223 0)
(2.38389 1.90823 -3.40554e-23)
(2.40641 1.91562 0)
(2.32656 1.91326 0)
(2.35728 1.90796 0)
(2.25458 1.922 0)
(2.29212 1.92016 0)
(2.17483 1.87173 0)
(2.21496 1.90945 0)
(2.09959 1.68344 0)
(2.13562 1.79915 0)
(2.04122 1.31215 0)
(2.06744 1.52136 0)
(2.00673 0.763392 -1.97049e-20)
(2.02058 1.05703 0)
(2.37856 -0.296677 0)
(2.18716 -0.281814 -1.9718e-20)
(2.00096 0.0916406 0)
(1.99846 0.438472 -2.01222e-20)
(2.93629 0.412928 -3.99558e-20)
(2.94991 0.0647593 -1.00858e-20)
(2.77116 -0.303859 -8.33026e-20)
(2.57609 -0.307326 0)
(2.89526 1.03569 0)
(2.91844 0.741038 6.00725e-20)
(2.8269 1.50673 -1.29197e-22)
(2.85963 1.29287 -1.84596e-20)
(2.74329 1.79411 1.11356e-22)
(2.78281 1.6742 0)
(2.66203 1.91283 0)
(2.70119 1.87173 0)
(2.58891 1.9221 0)
(2.62482 1.9267 0)
(2.51932 1.89101 0)
(2.55442 1.90792 8.78782e-27)
(2.44498 1.86591 1.21426e-22)
(2.48329 1.87625 0)
(2.35926 1.85993 0)
(2.40407 1.86069 0)
(2.25201 1.86279 -2.08348e-21)
(2.3087 1.86159 0)
(2.12135 1.83573 0)
(2.18991 1.8572 2.074e-21)
(1.97278 1.71926 -5.60868e-21)
(2.04897 1.79209 -5.17947e-21)
(1.82412 1.44483 0)
(1.89693 1.6031 0)
(1.7015 0.990433 0)
(1.75737 1.23982 0)
(1.62726 0.387618 0)
(1.65671 0.703462 0)
(1.61396 -0.283854 0)
(1.61261 0.0542483 0)
(1.66513 -0.915161 -1.12188e-22)
(1.6319 -0.612085 0)
(1.77313 -1.4099 9.95957e-23)
(1.71299 -1.18209 0)
(1.91397 -1.74063 2.44222e-20)
(1.84107 -1.59457 -2.44097e-20)
(2.40443 -1.93221 -2.84167e-20)
(2.04062 -1.93827 0)
(1.98918 -1.84933 4.20995e-20)
(2.10848 -1.97139 0)
(2.00735 -0.255451 0)
(2.95619 -0.2876 9.83459e-21)
(2.28622 -2.02376 -6.13131e-20)
(2.39529 -2.0341 -2.33019e-20)
(2.10447 -2.00152 -1.21056e-20)
(2.06312 -1.91954 -5.32226e-20)
(2.18867 -2.02105 0)
(1.8413 0.107224 -7.38487e-20)
(1.84975 -0.231275 3.68467e-20)
(2.76441 -0.649963 2.00148e-20)
(2.94505 -0.631746 -9.69951e-20)
(2.52795 -2.01537 -9.05546e-20)
(2.39403 -2.09175 4.82494e-20)
(2.49166 -2.07876 1.77122e-19)
(2.5091 -2.06606 4.85178e-20)
(2.57833 -1.76935 -3.31183e-20)
(2.55327 -1.91786 8.27363e-20)
(2.62475 -1.30365 3.7479e-20)
(2.60365 -1.56444 2.34991e-20)
(2.66346 -0.639884 1.10592e-20)
(2.6459 -0.99067 1.03493e-20)
(2.68067 0.110394 8.91204e-23)
(2.67459 -0.268154 0)
(2.6773 0.830428 0)
(2.68193 0.481387 0)
(2.65135 1.41533 0)
(2.66693 1.14466 0)
(2.61264 1.80608 0)
(2.63283 1.63665 0)
(2.57415 1.98973 0)
(2.59287 1.92259 0)
(2.53544 2.01365 0)
(2.55495 2.01678 0)
(2.49304 1.96215 -1.17526e-24)
(2.51522 1.99185 0)
(2.44133 1.90666 0)
(2.46845 1.93211 0)
(2.37694 1.87791 -3.13799e-23)
(2.41102 1.88839 0)
(2.29709 1.87446 0)
(2.33904 1.87388 0)
(2.20095 1.87345 0)
(2.25097 1.87616 0)
(2.09473 1.81879 0)
(2.1483 1.85768 0)
(1.99372 1.63458 0)
(2.04252 1.7469 0)
(1.91209 1.27698 0)
(1.94976 1.4781 0)
(1.85792 0.752663 -8.84802e-21)
(1.88112 1.03278 4.47688e-21)
(1.84374 0.440679 3.72919e-20)
(2.38433 -0.644368 9.53007e-21)
(2.02468 -0.597853 -3.70365e-20)
(2.19945 -0.625746 3.01431e-20)
(2.57612 -0.659702 0)
(3.11151 0.402023 2.98191e-20)
(3.12719 -0.272112 8.61554e-20)
(3.12663 0.0685533 -6.84474e-20)
(3.05846 1.00389 0)
(3.0921 0.718355 0)
(2.9694 1.46331 7.17104e-24)
(3.01439 1.25422 0)
(2.862 1.74839 0)
(2.91338 1.62881 0)
(2.75301 1.86851 8.25237e-23)
(2.80476 1.82641 0)
(2.65228 1.88014 0)
(2.70049 1.88353 0)
(2.55867 1.84967 0)
(2.60474 1.8666 0)
(2.46383 1.82089 -5.87502e-23)
(2.51183 1.8337 0)
(2.35929 1.80671 -5.26565e-23)
(2.41337 1.81199 0)
(2.2355 1.79853 0)
(2.30007 1.80329 0)
(2.08797 1.76014 0)
(2.16486 1.78632 0)
(1.92281 1.63782 0)
(2.00725 1.71339 0)
(1.75855 1.37033 0)
(1.839 1.52333 0)
(1.62426 0.936144 9.30774e-23)
(1.68591 1.17333 0)
(1.54376 0.36353 0)
(1.57575 0.663432 0)
(1.53172 -0.272909 0)
(1.52848 0.0473893 0)
(1.5914 -0.873087 1.49993e-23)
(1.55314 -0.583793 0)
(1.71037 -1.35077 -1.27487e-23)
(1.64501 -1.13047 0)
(1.86239 -1.68256 -7.77218e-23)
(1.78433 -1.53459 0)
(2.02423 -1.86163 3.64889e-20)
(1.94273 -1.79128 -9.3483e-21)
(2.13514 -1.95742 -9.33108e-21)
(2.10274 -1.89733 -1.88297e-20)
(2.30351 -2.08214 2.58932e-20)
(2.15794 -2.03358 2.20008e-20)
(1.86834 -0.563012 -8.63744e-21)
(3.1163 -0.605634 -6.78444e-20)
(2.39243 -2.1074 -2.28547e-21)
(2.16052 -2.02887 0)
(2.43727 -2.0732 -2.66976e-19)
(2.17874 -1.9125 -2.59415e-20)
(2.20173 -1.97192 -3.71486e-20)
(2.45936 -2.05788 3.839e-19)
(2.45722 -2.00774 -6.36343e-20)
(2.2225 -2.0748 0)
(2.56935 -2.05454 -4.78738e-20)
(2.52301 -2.05576 -2.22181e-20)
(2.65779 -1.97841 -4.96681e-20)
(2.61371 -2.03335 6.81524e-20)
(2.74698 -1.73488 3.30374e-20)
(2.70453 -1.88141 1.39037e-20)
(2.81755 -1.27728 -1.93242e-20)
(2.78697 -1.53453 -1.68213e-20)
(2.86356 -0.627197 0)
(2.84414 -0.970338 -4.47417e-22)
(2.87998 0.110445 0)
(2.87541 -0.26252 0)
(2.86573 0.81679 -7.93478e-23)
(2.87734 0.475394 0)
(2.81667 1.38759 0)
(2.84503 1.12298 0)
(2.74744 1.77454 0)
(2.78321 1.606 0)
(2.67567 1.96098 0)
(2.71145 1.89187 0)
(2.60617 1.98561 -3.8146e-23)
(2.64081 1.98868 0)
(2.53606 1.93197 -1.72997e-24)
(2.57143 1.96324 0)
(2.46109 1.8719 0)
(2.49963 1.89969 0)
(2.37593 1.8369 6.0716e-23)
(2.42002 1.85092 0)
(2.27632 1.82526 0)
(2.32831 1.82875 0)
(2.15866 1.81847 0)
(2.2197 1.82353 0)
(2.02861 1.76415 0)
(2.09444 1.802 0)
(1.90296 1.5869 0)
(1.96393 1.69505 0)
(1.80045 1.24086 0)
(1.84781 1.43532 0)
(1.73094 0.73532 4.39724e-21)
(1.76119 1.00551 0)
(1.70551 0.117871 0)
(1.71172 0.435994 8.1344e-21)
(1.73709 -0.528499 7.56316e-22)
(1.71417 -0.209895 0)
(2.04922 -0.914819 3.75692e-20)
(1.76855 -0.828979 -1.85442e-21)
(1.89813 -0.879276 -1.67107e-20)
(2.39132 -0.966262 -1.41332e-20)
(2.21526 -0.94478 9.71346e-21)
(2.75724 -0.964306 5.06284e-21)
(2.57551 -0.978242 -4.94424e-21)
(3.09958 -0.911156 0)
(2.93249 -0.946773 4.57277e-20)
(3.28445 -0.256517 1.87654e-20)
(3.25227 -0.863898 3.55769e-20)
(3.278 -0.570864 -7.77489e-20)
(3.27074 0.385487 9.52898e-21)
(3.28982 0.0684773 0)
(3.206 0.96228 0)
(3.24996 0.687823 0)
(3.099 1.40863 8.91895e-24)
(3.15782 1.2053 0)
(2.97055 1.6888 0)
(3.03554 1.5703 0)
(2.83838 1.81129 -8.25239e-23)
(2.90268 1.76724 0)
(2.71407 1.82729 0)
(2.77378 1.82841 0)
(2.59912 1.79903 0)
(2.65515 1.81523 0)
(2.48598 1.76779 0)
(2.54264 1.78239 0)
(2.36504 1.7462 5.59644e-24)
(2.42702 1.75571 0)
(2.22719 1.72656 0)
(2.29855 1.7375 0)
(2.06702 1.67719 0)
(2.14986 1.70828 0)
(1.89048 1.54861 0)
(1.98032 1.62644 0)
(1.71681 1.28925 0)
(1.80182 1.43685 0)
(1.5746 0.877149 -9.30774e-23)
(1.64021 1.1013 0)
(1.49001 0.337908 0)
(1.52375 0.61983 0)
(1.47949 -0.259608 0)
(1.47483 0.0409446 0)
(1.54577 -0.822964 9.72119e-23)
(1.5035 -0.551328 0)
(1.67485 -1.27393 -8.73626e-23)
(1.60426 -1.06528 0)
(1.83667 -1.5879 7.68403e-23)
(1.75362 -1.44797 0)
(2.00856 -1.76682 -8.52149e-21)
(1.92245 -1.6946 1.76675e-20)
(2.1769 -1.83101 7.44283e-21)
(2.09408 -1.80968 -1.66751e-20)
(2.24864 -1.92173 4.14172e-22)
(2.25398 -1.84818 -1.51265e-20)
(2.31557 -2.1078 2.14292e-20)
(2.20536 -2.05976 0)
(2.39612 -2.0842 1.87435e-19)
(2.2095 -2.03362 0)
(1.62512 -0.497027 6.99322e-21)
(1.66464 -0.790808 -4.87729e-21)
(3.06784 -1.18188 3.2105e-20)
(3.21175 -1.12848 3.38813e-20)
(2.38792 -2.06508 1.7246e-19)
(2.25873 -1.9767 3.75029e-20)
(2.42022 -1.9887 0)
(2.50589 -2.00676 3.73141e-20)
(2.31103 -1.93576 1.66004e-20)
(2.32709 -1.87173 -2.26271e-20)
(2.48384 -1.95228 -8.00507e-20)
(2.25294 -2.09625 0)
(2.62895 -2.01954 0)
(2.56394 -2.02274 3.87377e-20)
(2.76534 -1.94277 0)
(2.69729 -1.99761 0)
(2.89447 -1.70201 0)
(2.83387 -1.84637 -1.43995e-20)
(2.98657 -1.24868 0)
(2.94646 -1.50275 0)
(3.0451 -0.614113 0)
(3.01941 -0.949023 0)
(3.06707 0.108518 0)
(3.06151 -0.256353 0)
(3.0417 0.795343 7.93477e-23)
(3.06066 0.463827 0)
(2.97185 1.35218 0)
(3.01142 1.09335 0)
(2.87633 1.73397 0)
(2.92595 1.567 0)
(2.77466 1.91954 0)
(2.82535 1.85082 0)
(2.67587 1.94405 2.34185e-24)
(2.72482 1.94713 0)
(2.58002 1.88963 -2.20982e-24)
(2.62777 1.92148 0)
(2.48278 1.82692 0)
(2.53196 1.85644 0)
(2.37823 1.78615 -2.41443e-24)
(2.43185 1.8033 0)
(2.2602 1.76675 0)
(2.32126 1.77445 0)
(2.12455 1.75023 0)
(2.19466 1.76011 0)
(1.97549 1.69091 0)
(2.05097 1.73009 0)
(1.82969 1.52029 0)
(1.90084 1.62344 0)
(1.70835 1.19138 0)
(1.76481 1.37642 0)
(1.62795 0.710872 0)
(1.66214 0.968166 0)
(1.59526 0.123804 -7.42161e-21)
(1.60558 0.425644 -8.25858e-21)
(1.60192 -0.188929 1.52834e-20)
(2.07901 -1.19395 1.77249e-20)
(1.81181 -1.10373 0)
(1.93893 -1.16088 1.69093e-20)
(2.3977 -1.24727 0)
(2.23263 -1.22664 -1.80913e-20)
(2.73927 -1.24008 -2.78329e-20)
(2.56937 -1.25258 9.53707e-21)
(2.90804 -1.22383 5.46741e-20)
(3.42638 -0.243223 -7.93479e-21)
(3.38472 -0.819468 -2.67088e-20)
(3.42011 -0.536028 0)
(3.41295 0.363006 1.70252e-20)
(3.43283 0.0650736 -1.70766e-20)
(3.33721 0.914445 0)
(3.38637 0.651933 0)
(3.2158 1.34423 1.01949e-23)
(3.2835 1.14852 0)
(3.06861 1.61714 0)
(3.14496 1.5014 0)
(2.91629 1.74119 0)
(2.99201 1.69561 0)
(2.77232 1.76291 0)
(2.84242 1.76111 0)
(2.6393 1.73879 0)
(2.70431 1.75347 0)
(2.51035 1.70679 -4.34715e-23)
(2.57468 1.72242 0)
(2.37572 1.6792 4.70602e-23)
(2.44427 1.69233 0)
(2.22658 1.6492 0)
(2.30335 1.66569 0)
(2.058 1.58975 0)
(2.14462 1.62551 0)
(1.87532 1.45664 0)
(1.96781 1.53547 0)
(1.69729 1.20568 0)
(1.78438 1.34774 0)
(1.5514 0.816694 0)
(1.61875 1.02759 0)
(1.46549 0.312539 0)
(1.49977 0.575621 0)
(1.4566 -0.244774 7.12506e-23)
(1.45108 0.0354922 0)
(1.52686 -0.771522 -6.81102e-23)
(1.48235 -0.517145 0)
(1.65983 -1.20172 6.22652e-23)
(1.58768 -1.00058 0)
(1.82185 -1.5151 0)
(1.73911 -1.37411 0)
(1.9945 -1.69212 0)
(1.90719 -1.62099 0)
(2.17275 -1.75657 -4.87019e-23)
(2.08333 -1.73384 -7.37712e-21)
(2.33501 -1.79967 3.48373e-20)
(2.25733 -1.77462 0)
(2.39533 -1.90433 2.2418e-20)
(2.4115 -1.83598 1.07104e-21)
(2.32436 -2.10487 -6.22529e-20)
(2.24804 -2.0616 0)
(1.71095 -1.05463 2.62313e-20)
(3.33711 -1.07454 5.5713e-20)
(2.3494 -2.0757 3.03857e-20)
(2.36853 -2.02861 2.75367e-21)
(2.34383 -2.05555 -8.01617e-20)
(2.25454 -2.0288 0)
(2.3081 -1.98868 -9.13715e-21)
(2.40044 -1.94104 6.57205e-20)
(2.32911 -1.95262 -6.3036e-20)
(2.35439 -1.98766 6.61819e-20)
(2.36615 -1.96468 2.51282e-20)
(2.46034 -1.94982 -1.68977e-20)
(2.48739 -1.88055 -1.19163e-20)
(2.27397 -2.0958 0)
(2.5623 -1.91765 -1.9328e-21)
(2.41473 -1.86541 -5.00619e-21)
(2.51147 -1.87179 -1.40056e-20)
(2.69218 -1.95562 -1.83343e-20)
(2.62109 -1.94995 1.84462e-20)
(2.85799 -1.88195 -4.33593e-23)
(2.77543 -1.93439 0)
(3.01402 -1.64465 0)
(2.93952 -1.78798 0)
(3.13066 -1.20334 0)
(3.07802 -1.44866 0)
(3.2087 -0.591908 0)
(3.17457 -0.91526 0)
(3.23605 0.107087 -7.33015e-23)
(3.23005 -0.245547 0)
(3.20112 0.768178 0)
(3.22607 0.449377 0)
(3.11357 1.30413 0)
(3.16291 1.05465 0)
(2.994 1.6763 0)
(3.05624 1.51263 0)
(2.86594 1.86149 0)
(2.93001 1.79213 0)
(2.74156 1.88872 3.58041e-23)
(2.80305 1.89039 0)
(2.6227 1.83619 -2.59908e-24)
(2.68159 1.86734 0)
(2.50599 1.77199 0)
(2.56449 1.80272 0)
(2.38458 1.727 -5.11484e-23)
(2.44632 1.74659 0)
(2.25198 1.70015 0)
(2.32013 1.712 0)
(2.10186 1.67557 0)
(2.17937 1.68914 0)
(1.93673 1.61392 0)
(2.02043 1.65322 0)
(1.77432 1.44998 0)
(1.8537 1.54864 0)
(1.63825 1.13723 0)
(1.70178 1.31307 0)
(1.54715 0.680559 -9.78282e-23)
(1.58657 0.924479 0)
(1.51236 0.125612 7.45392e-21)
(1.5224 0.412424 0)
(1.53958 -0.463055 -8.03494e-21)
(1.51783 -0.170484 0)
(1.63171 -0.997936 -5.71087e-21)
(1.57876 -0.740976 6.85185e-21)
(1.86545 -1.33952 -1.34872e-20)
(1.69265 -1.22013 0)
(1.76914 -1.28636 -1.90303e-20)
(2.11012 -1.43123 0)
(1.98209 -1.39431 0)
(2.40567 -1.47853 0)
(2.25298 -1.46444 0)
(2.72243 -1.46781 0)
(2.56368 -1.48029 0)
(3.02774 -1.40334 -3.27371e-20)
(2.88024 -1.44958 -7.96921e-21)
(3.28221 -1.28403 -6.26256e-21)
(3.16241 -1.34737 -5.76154e-20)
(3.49765 -0.774454 -3.47691e-20)
(3.38544 -1.20773 -4.847e-21)
(3.44629 -1.01088 1.20579e-20)
(3.54965 -0.230155 -6.95898e-21)
(3.53293 -0.509478 4.38796e-20)
(3.53385 0.339573 1.39772e-23)
(3.55116 0.0553957 0)
(3.45034 0.862463 0)
(3.49965 0.611522 0)
(3.31725 1.27279 1.10081e-23)
(3.38926 1.0847 0)
(3.15516 1.53677 0)
(3.23874 1.42382 0)
(2.98624 1.66142 0)
(3.07054 1.61448 0)
(2.82584 1.68881 0)
(2.90446 1.6839 0)
(2.67768 1.6697 0)
(2.75031 1.68233 0)
(2.53569 1.63846 8.11337e-23)
(2.60639 1.65435 0)
(2.39042 1.60667 0)
(2.46402 1.62252 0)
(2.23335 1.5684 0)
(2.31377 1.58934 0)
(2.06017 1.50039 0)
(2.14871 1.54019 0)
(1.87563 1.36432 0)
(1.96862 1.44342 0)
(1.6974 1.12202 4.65638e-23)
(1.78442 1.25817 0)
(1.55226 0.756585 0)
(1.61909 0.954085 0)
(1.46759 0.287975 0)
(1.50132 0.532196 0)
(1.4597 -0.228902 -7.12506e-23)
(1.45395 0.0309357 0)
(1.53094 -0.718471 1.32176e-23)
(1.4861 -0.481642 0)
(1.66274 -1.12466 -1.12912e-22)
(1.59148 -0.933683 0)
(1.82606 -1.42419 0)
(1.74184 -1.28922 0)
(2.00595 -1.59629 0)
(1.91475 -1.52662 0)
(2.18627 -1.66638 7.60305e-24)
(2.09759 -1.63883 0)
(2.35292 -1.72252 0)
(2.27148 -1.69176 0)
(2.51876 -1.80552 1.94303e-20)
(2.4342 -1.76065 0)
(2.56201 -1.93419 2.42784e-21)
(2.60478 -1.85698 -3.51391e-20)
(2.33778 -2.07783 0)
(2.34926 -1.86051 -8.81769e-20)
(2.33168 -2.06376 -2.04055e-20)
(1.56882 -0.931076 5.70148e-21)
(1.63288 -1.14408 0)
(3.21299 -1.44982 -5.04019e-21)
(3.30726 -1.36763 1.11557e-20)
(2.28229 -2.05503 0)
(2.29357 -2.02965 0)
(2.32688 -2.03812 0)
(2.35206 -2.01238 8.99758e-21)
(2.41722 -2.00765 1.6725e-20)
(2.52427 -2.00573 0)
(2.63817 -1.99523 -4.17324e-20)
(2.69316 -1.91557 2.89606e-20)
(2.28649 -2.08571 0)
(2.44459 -1.7722 6.0679e-24)
(2.27802 -1.85775 -2.31623e-20)
(2.27708 -1.75815 7.60619e-20)
(2.37045 -1.7574 -2.43758e-20)
(2.61429 -1.81159 8.30939e-21)
(2.53838 -1.78183 1.39458e-20)
(2.76331 -1.8586 0)
(2.68646 -1.84479 0)
(2.94525 -1.79075 4.33283e-23)
(2.85327 -1.8413 0)
(3.12075 -1.5631 0)
(3.03587 -1.70025 0)
(3.26109 -1.14631 0)
(3.1964 -1.37777 0)
(3.35453 -0.563925 0)
(3.31458 -0.872573 0)
(3.38369 0.103152 7.33015e-23)
(3.37821 -0.233299 0)
(3.3405 0.732804 0)
(3.37076 0.429292 0)
(3.23674 1.24584 0)
(3.29489 1.00616 0)
(3.09777 1.60874 0)
(3.16986 1.44819 0)
(2.94864 1.79342 0)
(3.02338 1.72369 0)
(2.80271 1.82296 -2.97672e-23)
(2.87491 1.82331 0)
(2.66388 1.77287 -2.88607e-24)
(2.73243 1.80298 0)
(2.52992 1.70898 0)
(2.5967 1.73988 0)
(2.39407 1.66083 2.8818e-24)
(2.46274 1.6825 0)
(2.24881 1.62728 0)
(2.3231 1.6429 0)
(2.08771 1.59363 0)
(2.17054 1.6118 0)
(1.91164 1.52695 0)
(2.00093 1.56761 0)
(1.73701 1.36991 0)
(1.82263 1.46344 0)
(1.58941 1.07628 0)
(1.65842 1.2414 0)
(1.49019 0.646871 1.81515e-22)
(1.53271 0.876436 0)
(1.45231 0.125776 8.80148e-23)
(1.4628 0.39405 0)
(1.47824 -0.425084 -1.27412e-20)
(1.45774 -0.150652 1.2052e-20)
(1.51597 -0.689013 -1.0333e-20)
(1.92155 -1.52998 -3.16471e-21)
(1.75896 -1.4011 -6.34562e-22)
(1.83429 -1.47521 9.47217e-21)
(2.14387 -1.62203 0)
(2.02641 -1.58323 0)
(2.41316 -1.66273 1.18387e-25)
(2.27474 -1.65149 0)
(2.70147 -1.64692 0)
(2.55654 -1.66171 0)
(2.97916 -1.57546 -1.42928e-20)
(2.84436 -1.62311 1.55639e-20)
(3.10319 -1.51934 3.23559e-21)
(3.58907 -0.723738 8.23979e-22)
(3.46632 -1.12989 1.10589e-20)
(3.53541 -0.942324 -1.55276e-21)
(3.64566 -0.220628 6.65909e-21)
(3.62579 -0.480242 -6.66716e-21)
(3.62738 0.313172 1.14242e-22)
(3.64631 0.0460627 0)
(3.5405 0.806196 9.27115e-23)
(3.5922 0.569378 0)
(3.39995 1.19542 1.1375e-23)
(3.47605 1.01669 0)
(3.22761 1.44951 0)
(3.31648 1.34011 0)
(3.04673 1.57457 0)
(3.13715 1.52649 0)
(2.87376 1.60773 0)
(2.95883 1.59968 0)
(2.71361 1.59394 0)
(2.79225 1.60424 0)
(2.5615 1.56435 -3.76622e-23)
(2.63708 1.57998 0)
(2.40857 1.52989 -2.91894e-23)
(2.48572 1.54763 0)
(2.24669 1.4853 0)
(2.32919 1.50969 0)
(2.07189 1.41037 0)
(2.16088 1.45341 0)
(1.88886 1.27265 0)
(1.98068 1.35149 0)
(1.71431 1.03981 -4.65637e-23)
(1.79922 1.16953 0)
(1.57361 0.698003 4.05712e-23)
(1.63823 0.882123 0)
(1.49172 0.264156 0)
(1.52433 0.490051 0)
(1.48438 -0.212818 0)
(1.4786 0.0268241 0)
(1.55392 -0.66699 1.19735e-23)
(1.51047 -0.446548 0)
(1.67963 -1.05259 9.06069e-23)
(1.61182 -0.869971 0)
(1.83699 -1.3423 0)
(1.75536 -1.21144 0)
(2.01672 -1.51071 0)
(1.92467 -1.4419 0)
(2.2034 -1.58385 7.42968e-24)
(2.11095 -1.55446 0)
(2.3755 -1.64248 0)
(2.29155 -1.61045 0)
(2.54324 -1.72418 -1.15794e-20)
(2.45823 -1.68128 0)
(2.72791 -1.82481 -1.24569e-20)
(2.6324 -1.77254 2.44819e-20)
(2.25752 -2.00348 1.07826e-19)
(2.26967 -1.94212 8.95286e-20)
(2.78515 -1.98008 1.56503e-20)
(2.82776 -1.8819 -1.56508e-20)
(2.32637 -2.07204 0)
(1.70318 -1.3244 -8.04244e-21)
(3.38353 -1.2815 3.71351e-20)
(2.19599 -1.76489 -1.45205e-20)
(2.30672 -2.05748 0)
(2.19845 -1.87593 -5.69621e-21)
(2.2941 -2.06999 0)
(2.32463 -2.04771 0)
(2.31412 -2.03454 0)
(2.39227 -2.05208 0)
(2.46695 -2.06193 0)
(2.58617 -2.07093 3.97977e-21)
(2.71439 -2.06313 1.5106e-20)
(2.88062 -2.0443 0)
(2.93484 -1.93687 3.54286e-20)
(2.30039 -2.07317 0)
(2.2853 -1.66163 -3.10675e-20)
(2.11376 -1.76305 -6.35954e-20)
(2.11614 -1.64574 -2.93604e-20)
(2.20546 -1.65231 3.30203e-20)
(2.4715 -1.682 -2.39184e-21)
(2.38476 -1.66565 1.09546e-20)
(2.65206 -1.71822 -6.28401e-21)
(2.56219 -1.69815 5.04431e-24)
(2.83017 -1.75579 -2.58297e-23)
(2.74145 -1.74259 0)
(3.027 -1.69451 -3.33273e-23)
(2.92702 -1.74193 0)
(3.21834 -1.4787 0)
(3.12549 -1.60835 0)
(3.37454 -1.08483 0)
(3.30232 -1.30399 0)
(3.47594 -0.53278 0)
(3.43323 -0.825145 0)
(3.5057 0.0984125 0)
(3.50068 -0.220018 0)
(3.45538 0.693501 0)
(3.49026 0.406735 0)
(3.33897 1.18111 0)
(3.40376 0.95247 0)
(3.18578 1.53219 0)
(3.2652 1.37594 0)
(3.02051 1.71487 0)
(3.10359 1.64529 0)
(2.85711 1.74718 3.44601e-24)
(2.93809 1.74579 0)
(2.70161 1.701 -2.50528e-23)
(2.77829 1.72918 0)
(2.55348 1.63893 0)
(2.62696 1.66942 0)
(2.40613 1.58858 3.97102e-23)
(2.48027 1.6118 0)
(2.25172 1.5493 0)
(2.33029 1.56824 0)
(2.08319 1.50775 0)
(2.16962 1.52989 0)
(1.89988 1.43693 0)
(1.99286 1.47871 0)
(1.71715 1.2863 0)
(1.80696 1.37505 0)
(1.56116 1.01171 0)
(1.63421 1.16584 0)
(1.45532 0.610523 -8.36872e-23)
(1.50083 0.825112 0)
(1.4137 0.123404 -1.43425e-23)
(1.42626 0.373978 0)
(1.4405 -0.390195 -5.56155e-21)
(1.41899 -0.133513 0)
(1.52815 -0.867187 0)
(1.47672 -0.637971 1.26965e-20)
(1.66715 -1.24821 8.67476e-21)
(1.59364 -1.07086 0)
(1.83055 -1.54752 9.34815e-21)
(1.74608 -1.39504 0)
(1.78103 -1.47429 -9.205e-21)
(1.97731 -1.67706 0)
(1.8977 -1.61901 1.07931e-20)
(2.17698 -1.76542 0)
(2.07159 -1.7285 0)