/*--------------------------------*- C++ -*----------------------------------*\
  =========                 |
  \\      /  F ield         | OpenFOAM: The Open Source CFD Toolbox
   \\    /   O peration     | Website:  https://openfoam.org
    \\  /    A nd           | Version:  10
     \\/     M anipulation  |
\*---------------------------------------------------------------------------*/
FoamFile
{
    format      ascii;
    class       volScalarField;
    location    "15.5";
    object      p;
}
// * * * * * * * * * * * * * * * * * * * * * * * * * * * * * * * * * * * * * //

dimensions      [0 2 -2 0 0 0 0];

internalField   nonuniform List<scalar> 
28942
(
-6.56303
-6.60034
-0.484501
1.41852
1.46478
-0.0870258
-0.0716979
-0.0852653
0.558186
0.586252
-2.77138
-2.53806
-2.84571
-2.96229
-0.000345261
0.00226121
2.24037
2.41431
0.993607
1.753
1.29717
1.32274
-2.53735
-2.45541
-2.66354
-2.64103
4.46532
4.68438
0.436729
0.456811
-0.0978277
-0.0979408
0.0493747
-0.00572244
-0.404266
-0.0113896
2.04582
2.82406
-0.100516
1.58805
1.13348
1.09167
-0.0454487
-0.0430959
0.119337
-0.0698171
-0.0612739
-0.0574325
-0.0560774
-0.048017
-0.0321075
0.562954
0.571552
0.609146
0.640606
-2.04893
-1.50451
-2.72666
-2.73287
-2.62409
-2.66531
-2.7126
-2.77123
-0.272702
-0.720539
-0.0175482
0.273747
2.61974
2.49499
-6.62747
-6.60192
-6.54985
2.6373
2.53339
2.66571
-3.37494
-3.35694
-2.6718
-0.437159
-0.748012
-0.256249
-0.870143
-6.97967
-7.3677
-1.817
-1.15976
-0.585566
-0.843429
-1.39989
-1.22817
-0.929456
-0.558331
-3.25194
-2.90431
-3.22621
-3.38777
-3.50253
-0.764782
-0.537209
-7.34108
1.51126
1.52503
1.57488
1.50877
-0.763133
-0.687103
-0.786445
0.305513
0.342702
0.377754
-2.83131
-2.91925
-6.63476
-6.87197
-6.77312
4.73145
4.35123
3.98106
4.36721
-1.4681
-0.343133
-0.746672
0.808601
0.643875
5.25966
5.47572
5.16835
0.726351
0.982625
-0.0612441
-0.0568808
-0.0668695
2.85984
3.43484
0.81233
0.776946
0.978751
1.54044
2.34151
1.26475
-3.50501
-3.39477
0.962215
0.321387
0.255199
-1.15219
-1.28798
-1.14407
-3.3569
-0.0337658
-0.187968
-1.78234
-0.0411215
-0.0589396
-0.0637229
-0.0509367
0.575667
-0.454995
-4.79575
-5.50277
-5.85343
-6.75119
-5.76544
-0.0277281
-2.16501
-1.86635
1.42795
1.47785
1.9632
1.81614
1.24184
0.028339
0.0336659
0.68045
0.638911
0.178573
0.0863751
0.205364
0.288298
0.240598
0.21743
0.283241
0.492561
0.377349
0.206692
0.338338
0.619782
0.965353
1.13923
-5.17686
-4.41046
-6.77613
-0.07109
-0.0546847
-5.13142
-5.48638
-0.0435452
-0.0369589
-0.0417979
-0.0508411
-3.73172
-3.78504
-3.72367
-3.02488
-2.99242
-3.16826
-2.55695
-2.53451
-2.59524
-2.48081
-2.65092
-2.50563
4.54722
4.25482
4.60749
-0.613487
-0.512893
-0.531766
2.68569
2.61467
2.63538
-2.12541
-2.3526
-1.9308
-2.60387
-2.87055
-3.13567
-3.17556
-3.3774
-3.41777
-2.91131
-2.64013
-2.38163
-2.1473
-1.9482
-3.58227
-3.63081
-1.76826
-1.77851
-1.63872
-3.73984
-3.79647
-1.64206
-3.83488
-3.85616
-3.89222
-3.91378
-1.54352
-1.54017
-3.80478
-3.85951
-1.47405
-1.4661
-3.68392
-3.733
-1.43037
-1.41622
-3.50346
-3.54398
-1.41154
-1.39059
-3.27763
-3.30846
-1.41788
-1.38909
-3.02466
-3.04547
-1.44994
-1.41258
-2.76134
-2.77372
-1.50878
-1.46239
-2.50293
-2.50784
-1.59824
-1.54123
-2.25949
-2.2571
-1.71728
-1.649
-2.04115
-2.02897
-1.8742
-1.79031
-1.84598
-1.83083
-2.06695
-1.96461
-1.67849
-1.66189
-1.92092
-2.13008
-2.29855
-2.17032
-1.62359
-1.75429
-1.45872
-1.52705
-1.40453
-1.41858
-1.45231
-1.41568
-1.60563
-1.51522
-1.87337
-1.72243
-2.27249
-2.06
-2.76122
-2.50811
-3.24832
-3.01457
-3.59589
-3.44413
-3.71033
-3.68861
-3.54509
-3.66044
-3.16074
-3.37383
-2.67349
-2.92196
-2.20146
-2.42978
-1.81495
-1.99617
-1.6661
-1.54977
-1.52513
-1.98352
-1.61596
-1.78542
-2.46167
-2.21038
-3.00348
-2.72963
-3.50706
-3.26884
-3.82946
-3.69929
-3.86706
-3.8863
-3.61172
-3.77384
-3.14557
-3.39357
-2.61326
-2.87931
-2.1233
-2.35699
-1.74864
-1.91901
-1.50319
-1.61128
-1.37007
-1.42416
-1.33188
-1.33968
-1.38791
-1.34753
-1.54945
-1.45456
-1.8226
-1.67162
-2.00337
-2.38013
-1.55006
-1.4767
-2.39998
-2.20229
-2.65818
-2.55491
-1.93413
-2.41259
-2.15342
-1.61814
-1.75688
-1.44146
-1.51505
-1.37462
-1.39527
-1.40827
-1.37898
-1.54195
-1.46235
-1.78638
-1.6486
-2.15209
-1.95333
-2.60624
-2.37363
-3.06769
-2.84585
-3.39721
-3.25436
-3.50698
-3.48481
-3.35469
-3.46176
-2.99773
-3.19551
-2.54667
-2.77644
-2.11285
-2.32205
-1.76226
-1.92497
-1.45547
-1.46702
-1.52632
-1.62935
-1.54189
-1.40451
-1.36793
-1.42231
-1.90302
-1.70871
-2.37204
-2.12454
-2.90743
-2.63662
-3.40457
-3.16948
-3.72384
-3.59438
-3.76502
-3.78193
-3.5209
-3.67556
-3.06422
-3.31095
-2.53431
-2.79999
-2.05609
-2.28464
-1.6843
-1.85349
-1.43833
-1.5465
-1.29984
-1.35658
-1.25234
-1.26549
-1.29041
-1.26051
-1.42088
-1.34344
-1.65171
-1.52331
-1.97189
-1.80304
-2.69974
-2.40704
-2.14893
-2.6338
-1.4533
-1.29389
-2.94022
-2.99011
-2.60479
-2.31972
-2.81884
-1.47673
-1.4126
-1.29051
-1.21267
-2.99035
-3.26035
-3.48678
-3.26768
-2.39897
-2.69091
-1.91215
-2.136
-1.58508
-1.72872
-1.39904
-1.47665
-1.32223
-1.34833
-1.34169
-1.32016
-1.45675
-1.38709
-1.67445
-1.55192
-2.00394
-1.82524
-2.41801
-2.20459
-2.84011
-2.63555
-3.1466
-3.01426
-3.24986
-3.22769
-3.1145
-3.21043
-2.79255
-2.97107
-2.38542
-2.59274
-1.99491
-2.18301
-1.68314
-1.82658
-1.56598
-1.39388
-1.40636
-1.41287
-1.35184
-1.44478
-1.2035
-1.31144
-1.79171
-1.60506
-2.24277
-2.00483
-2.75887
-2.49763
-3.2393
-3.01187
-3.54991
-3.4234
-3.59458
-3.60841
-3.36308
-3.50986
-2.93121
-3.16543
-2.42094
-2.67736
-1.95628
-2.17777
-1.59528
-1.76095
-1.35253
-1.46011
-1.21127
-1.27001
-1.15528
-1.17331
-1.17648
-1.15634
-1.27697
-1.21652
-1.4623
-1.35882
-1.72448
-1.58614
-2.01795
-1.87295
-2.46802
-2.14263
-3.20468
-2.86127
-1.37303
-1.1208
-3.5041
-2.77184
-3.76343
-2.23749
-2.57505
-3.55462
-3.60134
-3.06814
-3.38832
-3.48848
-2.93586
-3.20679
-2.33445
-2.62929
-1.85165
-2.07296
-1.52408
-1.66961
-1.33332
-1.41351
-1.2491
-1.27945
-1.25556
-1.2412
-1.3515
-1.29236
-1.54164
-1.43423
-1.83205
-1.6746
-2.20083
-2.01014
-2.5771
-2.39398
-2.85567
-2.73514
-2.95172
-2.92974
-2.83601
-2.91905
-2.55355
-2.71048
-2.19458
-2.37748
-1.84979
-2.01582
-1.57668
-1.70209
-1.39926
-1.47605
-1.3146
-1.34501
-1.38497
-1.30678
-1.35781
-1.3606
-1.38565
-1.24293
-1.31168
-1.06198
-1.1582
-1.09854
-0.95654
-1.01762
-1.32877
-1.2019
-1.65676
-1.48048
-2.08158
-1.85776
-2.56794
-2.3217
-3.02103
-2.80639
-3.31596
-3.19531
-3.36337
-3.37335
-3.14964
-3.28625
-2.74781
-2.96538
-2.27167
-2.51152
-1.83195
-2.04206
-1.48862
-1.64664
-1.25281
-1.35815
-1.11089
-1.17106
-1.04756
-1.07006
-1.05343
-1.04212
-1.12668
-1.08157
-1.26943
-1.18937
-1.47558
-1.36578
-1.71291
-1.59504
-1.90044
-1.81904
-2.29239
-1.95007
-3.43963
-3.05544
-3.71483
-2.89775
-1.23306
-1.23443
-1.02779
-0.918594
-3.87579
-2.63429
-3.64068
-3.36775
-2.29756
-1.96095
-3.46459
-3.28473
-3.1962
-3.29451
-2.79116
-3.03313
-2.22055
-2.50387
-1.75763
-1.9705
-1.43799
-1.5807
-1.24689
-1.32788
-1.15793
-1.19131
-1.15322
-1.14537
-1.23035
-1.18151
-1.39228
-1.30038
-1.64232
-1.50659
-1.96248
-1.79637
-2.2917
-2.13125
-2.53898
-2.43144
-2.62682
-2.60557
-2.53089
-2.60082
-2.28882
-2.42366
-1.97901
-2.137
-1.68075
-1.82438
-1.44683
-1.55367
-1.29722
-1.3617
-1.25431
-1.38835
-1.32355
-1.36817
-1.35333
-1.38366
-1.22231
-1.29842
-1.13049
-0.983891
-0.847393
-0.906067
-1.19956
-1.08105
-1.50273
-1.33964
-1.89493
-1.68867
-2.34326
-2.11619
-2.76189
-2.56341
-3.03621
-2.92358
-3.08351
-3.09072
-2.89164
-3.01505
-2.52426
-2.72338
-2.08908
-2.3084
-1.68363
-1.87798
-1.36417
-1.5116
-1.14062
-1.24107
-1.00134
-1.06147
-0.932589
-0.958818
-0.925008
-0.921525
-0.974536
-0.942679
-1.0811
-1.02082
-1.23762
-1.1541
-1.41999
-1.32831
-1.57723
-1.50553
-1.63245
-1.62245
-1.92711
-1.61128
-3.62172
-3.19625
-1.25733
-0.805034
-3.83479
-3.77806
-3.86918
-2.97471
-2.64298
-3.45449
-3.37806
-3.70369
-2.25923
-1.86636
-1.56334
-3.44318
-3.15837
-3.19295
-3.23239
-2.94785
-3.05875
-2.58747
-2.79986
-2.0727
-2.3321
-1.63444
-1.83694
-1.3293
-1.46588
-1.14317
-1.22271
-1.05233
-1.08742
-1.03843
-1.0362
-1.09813
-1.05911
-1.23226
-1.15569
-1.44257
-1.32818
-1.71407
-1.57293
-1.99565
-1.85814
-2.21019
-2.11631
-2.28906
-2.26909
-2.21151
-2.26908
-2.00837
-2.12185
-1.74656
-1.88018
-1.49456
-1.61579
-1.29869
-1.38789
-1.17771
-1.22848
-1.13436
-1.14638
-1.17229
-1.14261
-1.365
-1.22351
-1.30408
-1.41598
-1.4024
-1.36937
-1.40507
-1.22735
-1.30954
-1.01739
-1.12743
-0.782733
-0.901199
-0.734225
-0.665649
-0.692204
-0.863612
-0.791428
-1.06145
-0.953535
-1.3375
-1.18932
-1.69215
-1.50591
-2.09637
-1.89169
-2.47445
-2.29501
-2.72471
-2.62133
-2.7704
-2.77567
-2.60108
-2.71008
-2.27317
-2.45146
-1.88192
-2.07919
-1.51547
-1.69153
-1.22361
-1.35879
-1.01633
-1.10985
-0.883393
-0.941534
-0.812089
-0.840723
-0.793514
-0.79662
-0.822991
-0.802322
-0.899475
-0.855537
-1.01583
-0.95357
-1.15123
-1.08315
-1.27116
-1.21556
-1.32386
-1.30908
-1.28457
-1.31451
-1.49676
-1.23359
-3.7343
-3.08005
-3.84233
-1.07085
-1.12385
-0.77835
-0.656586
-3.2818
-2.98568
-3.77967
-2.59872
-2.17955
-1.7783
-1.41466
-1.17276
-3.53889
-2.89038
-2.9088
-2.58873
-2.7601
-2.88439
-2.94383
-2.67492
-2.78594
-2.34956
-2.53736
-1.89018
-2.12382
-1.48656
-1.67386
-1.20308
-1.33029
-1.02654
-1.10269
-0.93628
-0.971996
-0.915263
-0.917634
-0.959045
-0.929122
-1.06735
-1.0051
-1.23994
-1.14588
-1.4645
-1.34751
-1.69991
-1.58462
-1.88163
-1.80167
-1.95125
-1.93278
-1.88998
-1.9364
-1.7231
-1.81658
-1.50672
-1.61719
-1.29895
-1.39873
-1.13952
-1.21169
-1.04604
-1.08413
-1.02164
-1.0256
-1.0369
-1.43018
-1.29474
-1.37455
-1.46702
-1.46067
-1.40634
-1.44847
-1.25336
-1.34119
-1.02876
-1.14669
-0.904347
-0.621362
-0.552935
-0.580417
-0.740922
-0.674709
-0.919567
-0.822212
-1.16658
-1.03429
-1.4811
-1.31618
-1.83832
-1.65747
-2.17266
-2.01388
-2.39563
-2.30304
-2.43912
-2.44224
-2.29234
-2.38707
-2.00612
-2.16197
-1.66138
-1.83557
-1.33599
-1.49266
-1.0737
-1.19572
-0.884349
-0.970169
-0.759863
-0.814823
-0.688551
-0.718242
-0.66175
-0.67001
-0.6748
-0.663386
-0.72624
-0.695897
-0.809961
-0.764806
-0.909055
-0.859124
-0.997067
-0.95632
-1.03952
-1.02583
-1.02144
-1.03892
-0.94532
-0.988835
-3.49659
-3.18758
-1.10375
-0.895883
-3.75998
-1.1964
-0.539025
-2.40465
-3.29747
-2.67537
-3.75351
-2.93247
-3.60452
-2.50919
-2.0779
-1.67693
-1.32744
-1.03428
-0.841691
-3.55705
-2.23658
-2.17808
-1.89452
-2.06592
-2.53731
-2.40843
-2.55837
-2.5814
-2.38341
-2.48572
-2.08471
-2.25269
-1.6854
-1.88893
-1.32428
-1.49333
-1.06544
-1.18199
-0.901253
-0.972636
-0.813818
-0.849107
-0.787719
-0.793676
-0.817662
-0.795779
-0.902362
-0.853237
-1.04042
-0.964981
-1.22173
-1.12708
-1.41375
-1.31942
-1.56403
-1.49755
-1.62413
-1.60743
-1.57691
-1.61349
-1.44289
-1.51817
-1.26823
-1.35741
-1.10133
-1.18126
-0.975737
-1.03205
-0.907141
-0.933923
-0.89968
-0.895709
-0.955734
-0.91936
-1.0836
-1.01011
-1.38821
-1.17574
-1.29098
-1.51657
-1.46506
-1.54011
-1.54157
-1.46291
-1.51313
-1.2971
-1.39076
-1.05936
-1.18484
-0.793816
-0.927106
-0.537956
-0.662615
-0.444478
-0.421299
-0.427913
-0.510961
-0.47235
-0.618787
-0.558957
-0.778667
-0.691821
-0.996222
-0.880087
-1.26996
-1.12674
-1.57922
-1.42272
-1.86895
-1.73124
-2.06312
-1.98229
-2.10355
-2.10456
-1.97923
-2.06006
-1.73408
-1.86766
-1.43681
-1.58738
-1.15329
-1.29018
-0.921643
-1.02992
-0.751069
-0.828872
-0.635784
-0.687155
-0.565925
-0.5958
-0.533291
-0.545373
-0.533288
-0.52933
-0.564149
-0.545017
-0.621195
-0.589933
-0.691989
-0.656009
-0.756278
-0.726444
-0.790311
-0.77813
-0.78302
-0.792302
-0.735791
-0.764086
-0.663818
-0.701149
-3.23269
-2.9565
-0.793092
-0.629191
-3.67582
-3.23614
-1.7107
-1.93796
-2.40058
-3.57523
-2.82199
-0.958298
-1.04452
-0.54961
-0.426673
-3.35316
-2.38149
-1.95288
-1.56839
-1.23934
-0.970462
-1.5142
-1.26255
-1.11892
-0.757462
-0.60312
-1.32724
-3.48314
-1.57858
-1.41016
-1.90955
-1.75148
-2.16039
-2.05152
-2.21779
-2.21452
-2.08152
-2.17113
-1.81235
-1.95977
-1.47035
-1.64527
-1.15241
-1.30237
-0.92056
-1.02521
-0.771317
-0.836659
-0.688672
-0.722648
-0.659263
-0.667869
-0.677612
-0.662591
-0.74182
-0.704129
-0.84939
-0.790456
-0.991968
-0.91738
-1.14455
-1.06936
-1.26573
-1.21183
-1.31619
-1.30158
-1.28073
-1.30887
-1.17561
-1.23481
-1.03805
-1.10825
-0.907569
-0.969827
-0.812025
-0.854309
-0.764981
-0.782051
-0.771038
-0.761247
-0.832201
-0.794745
-0.886951
-1.50189
-1.28285
-1.40327
-1.6235
-1.57576
-1.63405
-1.64265
-1.53848
-1.59834
-1.356
-1.45714
-1.10562
-1.23762
-0.823022
-0.964688
-0.683392
-0.342188
-0.314635
-0.323957
-0.403706
-0.369319
-0.500847
-0.447203
-0.642111
-0.565667
-0.8311
-0.730657
-1.06534
-0.943136
-1.32801
-1.19519
-1.57406
-1.45703
-1.73979
-1.67063
-1.77619
-1.7758
-1.67338
-1.74073
-1.46724
-1.57977
-1.21563
-1.34332
-0.973067
-1.09058
-0.77191
-0.866367
-0.620719
-0.690164
-0.515391
-0.562801
-0.448068
-0.477502
-0.411506
-0.426328
-0.401383
-0.403278
-0.415831
-0.405666
-0.451505
-0.43137
-0.500013
-0.474936
-0.546717
-0.524723
-0.574435
-0.563734
-0.573113
-0.577705
-0.543174
-0.561527
-0.495499
-0.519727
-0.458835
-0.475689
-1.69228
-0.586069
-0.731501
-0.583362
-0.453151
-0.451043
-2.99171
-2.69342
-3.51148
-3.10816
-1.14646
-0.31516
-2.13925
-3.34219
-2.66585
-3.06049
-2.22766
-1.81637
-1.46036
-1.15971
-0.920302
-0.985936
-0.764938
-0.680648
-0.332703
-0.345485
-0.465135
-0.87503
-1.1603
-1.4896
-0.722921
-0.590837
-3.33366
-0.994001
-0.867566
-1.30148
-1.1428
-1.59575
-1.45985
-1.80617
-1.71098
-1.87969
-1.86724
-1.76826
-1.84292
-1.5424
-1.66645
-1.25218
-1.40102
-0.977883
-1.10798
-0.774255
-0.866518
-0.640941
-0.699703
-0.564335
-0.596359
-0.533145
-0.543577
-0.542013
-0.532705
-0.588756
-0.560835
-0.670246
-0.625428
-0.779436
-0.7222
-0.897452
-0.839115
-0.992524
-0.950018
-1.03358
-1.02125
-1.00752
-1.0287
-0.926934
-0.97242
-0.821199
-0.875111
-0.721961
-0.769065
-0.652013
-0.682371
-0.623056
-0.632001
-0.639901
-0.625552
-0.705392
-0.66638
-0.825627
-0.758199
-1.00222
-0.906851
-1.40279
-1.10892
-1.26077
-1.62794
-1.52706
-1.74659
-1.70216
-1.74589
-1.76098
-1.63161
-1.70173
-1.42794
-1.53919
-1.16206
-1.30127
-0.862973
-1.01356
-0.573393
-0.715091
-0.323186
-0.442799
-0.217754
-0.217499
-0.214629
-0.247166
-0.228702
-0.302475
-0.27129
-0.389366
-0.341603
-0.51304
-0.446426
-0.67517
-0.589392
-0.872498
-0.769921
-1.09157
-0.980932
-1.29659
-1.19901
-1.43538
-1.3773
-1.46733
-1.4661
-1.38392
-1.43888
-1.21382
-1.30694
-1.00423
-1.11083
-0.79987
-0.899234
-0.627614
-0.708887
-0.495517
-0.556588
-0.400801
-0.443852
-0.33718
-0.365536
-0.298434
-0.315035
-0.280763
-0.287093
-0.282586
-0.279326
-0.301775
-0.290231
-0.333039
-0.316405
-0.366365
-0.350263
-0.389045
-0.379687
-0.391969
-0.39333
-0.372831
-0.384953
-0.342965
-0.357724
-0.324386
-0.331453
-0.325662
-2.71975
-2.45953
-0.48332
-0.363634
-3.28762
-2.92739
-1.90532
-3.07483
-2.48129
-0.855936
-0.952904
-0.340863
-0.227029
-2.76137
-2.06112
-1.68106
-1.3602
-1.097
-0.889648
-0.608977
-0.419992
-0.375722
-0.551322
-0.779547
-1.02343
-1.31782
-0.730085
-0.61308
-0.389851
-0.512906
-3.12858
-0.55128
-0.472264
-0.774771
-0.653128
-1.04739
-0.909808
-1.29506
-1.17866
-1.47784
-1.39581
-1.54445
-1.52979
-1.47033
-1.52296
-1.28479
-1.38942
-1.03832
-1.16442
-0.805254
-0.916152
-0.629718
-0.709567
-0.512884
-0.564697
-0.443391
-0.472895
-0.411803
-0.423303
-0.413308
-0.408549
-0.445721
-0.425846
-0.505564
-0.472492
-0.586795
-0.544123
-0.675457
-0.631504
-0.747849
-0.715332
-0.779984
-0.77008
-0.7611
-0.776762
-0.700566
-0.73479
-0.621149
-0.661573
-0.547806
-0.582355
-0.499005
-0.519534
-0.484819
-0.487208
-0.510093
-0.492351
-0.578427
-0.538787
-0.693197
-0.630313
-0.768361
-1.5306
-1.2201
-1.38235
-1.76198
-1.65824
-1.87949
-1.83627
-1.86975
-1.89048
-1.7381
-1.81792
-1.51119
-1.63428
-1.22593
-1.37383
-0.912645
-1.0706
-0.606173
-0.756068
-0.467218
-0.130162
-0.124065
-0.124038
-0.158806
-0.142023
-0.208752
-0.18068
-0.285878
-0.243681
-0.393328
-0.335745
-0.531063
-0.458592
-0.695117
-0.61024
-0.874742
-0.784205
-1.04247
-0.962589
-1.15661
-1.10872
-1.18406
-1.18233
-1.11752
-1.16164
-0.979487
-1.05527
-0.807469
-0.89521
-0.637505
-0.720462
-0.491703
-0.560851
-0.37749
-0.430632
-0.293282
-0.33191
-0.2341
-0.260918
-0.194696
-0.212214
-0.171825
-0.1813
-0.164384
-0.166214
-0.171384
-0.166197
-0.189786
-0.179476
-0.212973
-0.201356
-0.23143
-0.223365
-0.236626
-0.236077
-0.225517
-0.232868
-0.208191
-0.216484
-0.202735
-0.202937
-0.218987
-0.208399
-0.251521
-0.233452
-0.425885
-0.308107
-0.275814
-2.45133
-2.22543
-3.02421
-2.71404
-1.05486
-0.128074
-1.7095
-2.79106
-2.28402
-2.47687
-1.89625
-1.55658
-1.27728
-1.05289
-0.873921
-0.330049
-0.166392
-0.129035
-0.198631
-0.233213
-0.34694
-0.289848
-0.495788
-0.70009
-0.919467
-1.17935
-0.751004
-0.646186
-0.554246
-0.470894
-2.89094
-0.256619
-0.208242
-0.384473
-0.312384
-0.583572
-0.476815
-0.808511
-0.695926
-1.01606
-0.916272
-1.17477
-1.10426
-1.24144
-1.2216
-1.19214
-1.23176
-1.0387
-1.12566
-0.834382
-0.938892
-0.640049
-0.732815
-0.491447
-0.559364
-0.39054
-0.435603
-0.328364
-0.355143
-0.297397
-0.309356
-0.293349
-0.292136
-0.314188
-0.300835
-0.356513
-0.332943
-0.415036
-0.384217
-0.479562
-0.447487
-0.532889
-0.508847
-0.556909
-0.549423
-0.543221
-0.55469
-0.498527
-0.523805
-0.440205
-0.469799
-0.387722
-0.41216
-0.355921
-0.368586
-0.353433
-0.350706
-0.385048
-0.364831
-0.454527
-0.414924
-0.564006
-0.504182
-0.71216
-0.634225
-0.892424
-0.799078
-1.33206
-0.981134
-1.15658
-1.65723
-1.50205
-1.89577
-1.79061
-2.01427
-1.97123
-1.99734
-2.02288
-1.85038
-1.93875
-1.60178
-1.73634
-1.29425
-1.45265
-0.965968
-1.13072
-0.645857
-0.803257
-0.362176
-0.496984
-0.137103
-0.242368
-0.0412429
-0.0462803
-0.0422147
-0.0514383
-0.0441194
-0.078343
-0.0630912
-0.123424
-0.0982084
-0.191472
-0.154441
-0.284215
-0.234769
-0.400389
-0.339622
-0.535364
-0.465932
-0.680435
-0.607536
-0.815207
-0.750998
-0.907414
-0.868613
-0.93051
-0.928533
-0.878174
-0.913117
-0.767663
-0.828475
-0.628318
-0.699629
-0.488567
-0.557073
-0.366397
-0.424655
-0.268478
-0.314345
-0.1941
-0.228551
-0.139446
-0.164586
-0.100367
-0.118187
-0.0742644
-0.0857751
-0.0604633
-0.0658248
-0.0588791
-0.0581806
-0.0681088
-0.0623299
-0.0838056
-0.0755648
-0.098601
-0.091808
-0.104561
-0.103082
-0.0989293
-0.102888
-0.0912105
-0.0944055
-0.094901
-0.0910267
-0.114305
-0.102802
-0.146905
-0.128844
-0.170369
-2.19765
-2.00286
-0.393473
-0.27251
-2.74465
-2.48557
-1.54084
-2.50947
-2.0905
-0.730561
-0.806689
-0.150738
-0.0556615
-2.22161
-1.74446
-1.45223
-1.21562
-1.02705
-0.874343
-0.0967545
0.0459077
0.0720705
-0.0689328
-0.25275
-0.444881
-0.63645
-0.836834
-1.07728
-0.785357
-0.691345
-0.60652
-0.526916
-0.316726
-0.449194
-2.63902
-0.0294699
0.0117327
-0.126897
-0.076001
-0.24402
-0.180539
-0.40712
-0.320391
-0.591186
-0.49879
-0.767837
-0.681729
-0.905304
-0.84423
-0.966986
-0.947146
-0.934465
-0.962709
-0.814593
-0.883881
-0.646302
-0.732788
-0.485272
-0.56219
-0.361033
-0.418044
-0.275181
-0.313745
-0.220634
-0.244432
-0.191203
-0.203095
-0.183196
-0.184634
-0.194957
-0.186746
-0.223502
-0.207398
-0.264095
-0.242659
-0.309307
-0.286776
-0.34707
-0.329997
-0.364091
-0.358823
-0.353939
-0.36236
-0.321404
-0.33977
-0.279538
-0.300667
-0.243385
-0.25991
-0.224804
-0.231375
-0.231174
-0.224603
-0.267003
-0.245241
-0.335688
-0.297069
-0.439325
-0.383045
-0.573886
-0.504032
-0.651059
-1.43635
-1.05989
-1.25166
-1.77505
-1.61294
-2.01997
-1.91156
-2.14157
-2.09784
-2.11917
-2.14862
-1.9591
-2.05481
-1.69219
-1.83647
-1.36313
-1.53237
-1.01716
-1.18984
-0.685431
-0.848342
-0.388491
-0.530449
-0.262057
0.0306252
0.0298644
0.0321778
0.0184656
0.0262575
-0.00613624
0.00792692
-0.046847
-0.0242631
-0.106547
-0.0742313
-0.186219
-0.143944
-0.283773
-0.233051
-0.394049
-0.337712
-0.509762
-0.451875
-0.616237
-0.56553
-0.689356
-0.658503
-0.708232
-0.706331
-0.667409
-0.694817
-0.579952
-0.628174
-0.468253
-0.52563
-0.354393
-0.410466
-0.252861
-0.301554
-0.169463
-0.20881
-0.104071
-0.13467
-0.0537896
-0.0772555
-0.0155539
-0.0333202
0.0123752
-0.000348445
0.0302149
0.0225845
0.037461
0.0351799
0.034457
0.0371342
0.0241658
0.0298953
0.012624
0.018156
0.00699138
0.00871028
0.00882339
0.00735143
0.00946217
0.0100062
-0.000245553
0.00611854
-0.0208432
-0.00929059
-0.0522
-0.0349801
-0.0980719
-0.0733217
-0.160014
-0.127663
-0.370097
-0.239281
-0.197059
-1.97711
-1.80768
-2.47108
-2.26043
-0.875463
0.0261109
-1.39675
-2.24896
-1.91334
-1.99823
-1.61574
-1.37261
-1.17652
-1.01984
-0.891034
0.0976546
0.218289
0.243432
-0.122878
-0.160541
-0.287674
0.119212
-0.044522
-0.220966
-0.401032
-0.583488
-0.775304
-0.997959
-0.83376
-0.750468
-0.672724
-0.595096
-0.516808
-0.431584
-2.39188
0.158045
0.190719
0.0820513
0.123046
-0.0116253
0.0361819
-0.115598
-0.0607413
-0.24895
-0.178513
-0.401571
-0.32425
-0.551793
-0.478641
-0.667775
-0.616045
-0.725671
-0.704873
-0.708744
-0.727659
-0.611217
-0.668661
-0.4724
-0.543326
-0.341811
-0.404098
-0.240393
-0.287149
-0.168709
-0.201161
-0.121482
-0.142362
-0.0940958
-0.105554
-0.0835145
-0.0868089
-0.0883491
-0.0841069
-0.106242
-0.0958928
-0.133086
-0.11885
-0.163278
-0.148207
-0.188642
-0.177156
-0.199858
-0.19652
-0.192002
-0.198276
-0.168555
-0.18172
-0.139181
-0.153875
-0.115416
-0.12594
-0.10673
-0.108748
-0.119403
-0.110133
-0.157473
-0.135068
-0.223886
-0.186954
-0.320334
-0.268368
-0.442539
-0.379069
-0.576889
-0.508956
-0.705377
-0.64325
-1.13011
-0.758162
-0.938157
-1.52289
-1.32869
-1.87186
-1.7067
-2.12496
-2.01221
-2.25114
-2.20608
-2.22527
-2.25743
-2.05499
-2.15651
-1.77354
-1.92546
-1.42716
-1.60539
-1.0637
-1.24478
-0.720511
-0.888042
-0.416397
-0.562629
-0.166554
-0.283367
0.0194885
-0.0661721
0.0959176
0.0912358
0.0945529
0.0925947
0.0954165
0.0804198
0.0875838
0.0575665
0.0705103
0.0209905
0.0411028
-0.0311311
-0.00306909
-0.0993153
-0.0632944
-0.181071
-0.138808
-0.270904
-0.225369
-0.362375
-0.316907
-0.445206
-0.405825
-0.502107
-0.47805
-0.516938
-0.515402
-0.485205
-0.506538
-0.416505
-0.454475
-0.327592
-0.373439
-0.235422
-0.281036
-0.151472
-0.191978
-0.0806723
-0.114338
-0.0232907
-0.0504109
0.0227826
0.000997784
0.0597634
0.0423152
0.0885398
0.075175
0.108731
0.0997635
0.11941
0.115305
0.120391
0.121047
0.113945
0.117813
0.105379
0.109666
0.100674
0.102316
0.0995996
0.100066
0.0950023
0.0982207
0.0819332
0.0895188
0.0612889
0.0725213
0.0321111
0.0479356
-0.00739867
0.0136874
-0.0580424
-0.0313769
-0.0889581
-1.79
-1.63961
-0.342047
-0.200868
-2.22406
-2.05441
-1.28312
-2.02457
-1.76231
-0.547205
-0.589034
0.011614
0.0861399
-1.81365
-1.51572
-1.31926
-1.15982
-1.03122
-0.924092
0.26623
0.369875
0.391356
0.284317
0.1381
-0.0228503
-0.194135
-0.368058
-0.543016
-0.728382
-0.93988
-0.898961
-0.826675
-0.754688
-0.679161
-0.596305
-0.503652
-0.244066
-0.401223
-2.16493
0.317847
0.346577
0.250326
0.285143
0.178455
0.215631
0.0931088
0.136713
-0.000207833
0.0481122
-0.111701
-0.0533408
-0.239668
-0.174458
-0.365285
-0.304472
-0.463908
-0.419071
-0.518464
-0.49772
-0.507688
-0.52244
-0.428549
-0.474988
-0.31777
-0.374246
-0.21349
-0.263345
-0.131334
-0.169409
-0.0719389
-0.0990202
-0.0314975
-0.049592
-0.00649735
-0.0172613
0.00556865
0.00105559
0.00584213
0.00711189
-0.00396425
0.00201479
-0.0205046
-0.0116437
-0.0394289
-0.0299771
-0.055178
-0.0480791
-0.0616317
-0.0598965
-0.0552838
-0.0600426
-0.0384545
-0.0478099
-0.0183033
-0.0282413
-0.00365606
-0.00977426
-0.00208557
-0.000861076
-0.0188891
-0.00794096
-0.0575915
-0.0353162
-0.120702
-0.0859643
-0.209177
-0.161884
-0.318695
-0.261992
-0.436328
-0.377502
-0.494215
-1.18489
-0.795058
-0.988038
-1.58475
-1.38559
-1.94005
-1.7718
-2.20218
-2.08475
-2.33316
-2.28653
-2.3061
-2.33954
-2.12947
-2.23477
-1.83805
-1.99522
-1.47988
-1.66417
-1.10343
-1.29116
-0.74913
-0.921522
-0.43966
-0.588277
-0.182789
-0.303675
-0.0778028
0.151444
0.150703
0.151941
0.146068
0.149236
0.134164
0.141055
0.112978
0.12486
0.0803677
0.0981748
0.0350955
0.0593607
-0.0230859
0.00753564
-0.0915944
-0.0563589
-0.164855
-0.128025
-0.236864
-0.201379
-0.30045
-0.270336
-0.343846
-0.325498
-0.354918
-0.353928
-0.330253
-0.34675
-0.27636
-0.306259
-0.205838
-0.242329
-0.131431
-0.168443
-0.0620917
-0.0957617
-0.00194758
-0.0307856
0.0485241
0.0244345
0.090674
0.0705281
0.125999
0.109134
0.15479
0.141247
0.1761
0.166464
0.188634
0.183523
0.192036
0.191419
0.188304
0.190816
0.182485
0.185109
0.178758
0.180337
0.175388
0.177345
0.167215
0.172149
0.152641
0.160628
0.132661
0.143355
0.106279
0.120359
0.0725485
0.090344
0.0313438
0.0529284
-0.0187874
0.00734939
-0.0783184
-0.0481869
-0.293942
-0.145026
-0.110402
-1.63862
-1.50386
-2.01308
-1.879
-0.6197
0.147421
-1.19656
-1.84304
-1.64266
-1.66987
-1.44647
-1.29147
-1.16465
-1.06152
-0.974661
0.407739
0.493796
0.507964
0.417799
0.299076
0.155605
-0.00514153
-0.174153
-0.345054
-0.516774
-0.697529
-0.898863
-0.984288
-0.922317
-0.856011
-0.780343
-0.690947
-0.586756
-0.469338
-0.0182224
-0.178456
-0.0376286
-1.96895
0.45484
0.477313
0.398972
0.428106
0.330686
0.365767
0.261317
0.296495
0.183808
0.22352
0.100028
0.14281
0.00479397
0.0543098
-0.102608
-0.0481323
-0.206694
-0.156175
-0.291871
-0.252508
-0.341045
-0.322399
-0.333262
-0.34516
-0.268652
-0.306462
-0.179918
-0.224905
-0.0977478
-0.136952
-0.0327426
-0.0629997
0.0153617
-0.0067502
0.0493346
0.0339431
0.0716687
0.0618121
0.0843106
0.079117
0.0881779
0.0873007
0.0843633
0.0871
0.0754349
0.0803389
0.0647292
0.0700789
0.0561741
0.0599103
0.05345
0.053922
0.0588375
0.0550976
0.0709348
0.0643172
0.0844245
0.0779219
0.0925384
0.0895608
0.0892189
0.0926208
0.0700207
0.0818218
0.0318934
0.0534768
-0.0271881
0.00504511
-0.107473
-0.0648112
-0.205139
-0.154598
-0.308282
-0.257338
-0.4017
-0.357857
-0.465345
-0.437253
-0.819654
-0.480701
-0.641068
-1.21515
-1.01411
-1.61554
-1.41743
-1.97461
-1.80349
-2.24454
-2.12342
-2.37989
-2.33135
-2.35396
-2.38723
-2.17538
-2.28202
-1.87959
-2.03921
-1.51573
-1.70291
-1.13266
-1.32385
-0.770794
-0.947041
-0.456492
-0.606852
-0.197042
-0.319814
0.00269232
-0.0894685
0.143946
0.0793104
0.199078
0.196003
0.197978
0.197368
0.198826
0.191617
0.195058
0.180087
0.186689
0.160629
0.171458
0.131774
0.14743
0.0926519
0.113531
0.0431544
0.0691205
-0.0143007
0.0151318
-0.0743338
-0.0443892
-0.131119
-0.103441
-0.179453
-0.15673
-0.211767
-0.198179
-0.219596
-0.219108
-0.200103
-0.213066
-0.157783
-0.181326
-0.101791
-0.130855
-0.0415865
-0.071697
0.0158575
-0.0122328
0.0671888
0.0423729
0.111811
0.0903042
0.150445
0.131815
0.183858
0.167783
0.211905
0.198608
0.233331
0.223547
0.246636
0.241061
0.251502
0.250056
0.250029
0.251314
0.246525
0.248217
0.243262
0.244914
0.237958
0.241121
0.227645
0.233465
0.21285
0.220715
0.194116
0.204024
0.170697
0.18302
0.142336
0.157139
0.108877
0.126268
0.0703934
0.090221
0.0277555
0.0493381
0.0046039
-1.52085
-1.3996
-0.343609
-1.84359
-1.74037
-1.13261
-1.70523
-1.5565
-0.324109
-0.336059
0.139057
0.192835
-1.56372
-1.40673
-1.28793
-1.19121
-1.11243
-1.04528
0.517298
0.587436
0.594938
-0.201687
-0.0513431
0.525099
0.429548
0.309479
0.168624
0.0084854
-0.16016
-0.332084
-0.5033
-0.681506
-0.876479
-1.09324
-1.04139
-0.979612
-0.901095
-0.802222
-0.682506
-0.543393
-1.81113
0.561792
0.575836
0.519469
0.543091
0.462831
0.492306
0.398006
0.431351
0.330919
0.364483
0.260832
0.296475
0.185984
0.224088
0.103202
0.145806
0.0136223
0.0587221
-0.073747
-0.0308495
-0.148151
-0.113633
-0.189867
-0.174602
-0.180921
-0.192112
-0.127977
-0.158277
-0.0597254
-0.0940471
0.00294091
-0.027056
0.0536513
0.0298551
0.0924369
0.0744381
0.120918
0.107857
0.140709
0.131798
0.153305
0.14783
0.159524
0.157186
0.16001
0.160407
0.156557
0.158614
0.151761
0.154167
0.148286
0.149683
0.148404
0.147929
0.153131
0.150128
0.161872
0.1572
0.170621
0.16656
0.174172
0.173367
0.167673
0.172438
0.147393
0.159443
0.110729
0.131237
0.0561494
0.0857292
-0.0161176
0.0221262
-0.102439
-0.0579193
-0.192852
-0.148068
-0.272083
-0.235526
-0.302285
-0.826955
-0.482241
-0.649119
-1.21786
-1.01778
-1.61343
-1.41766
-1.97346
-1.80082
-2.24742
-2.12458
-2.38701
-2.33564
-2.36392
-2.39566
-2.18812
-2.29346
-1.89415
-2.05297
-1.53106
-1.71801
-1.14785
-1.3392
-0.784109
-0.961593
-0.467144
-0.618627
-0.207813
-0.330359
-0.00619399
-0.099233
0.0733867
0.2388
0.238081
0.239071
0.235798
0.237464
0.22987
0.233327
0.218879
0.225109
0.201177
0.210932
0.175827
0.189492
0.14219
0.160069
0.100226
0.12218
0.0520237
0.076652
0.00248488
0.0270415
-0.0426841
-0.0209399
-0.0792679
-0.0622836
-0.102678
-0.0929765
-0.10775
-0.107691
-0.0919325
-0.102413
-0.0584726
-0.0770358
-0.013649
-0.0370038
0.0353706
0.0107159
0.0833352
0.0597155
0.127504
0.105973
0.167191
0.147895
0.202666
0.185433
0.234054
0.218886
0.260782
0.248068
0.281512
0.271997
0.294825
0.289148
0.300611
0.298575
0.301069
0.301292
0.299278
0.3003
0.296
0.297938
0.289112
0.293129
0.277916
0.283979
0.263633
0.271109
0.246471
0.255441
0.226088
0.236685
0.202593
0.214711
0.176061
0.189723
0.146541
0.161629
0.115773
0.131119
0.0880489
0.100946
0.0721126
0.078339
0.0551916
-0.057234
0.0657041
-1.43421
-1.32141
-0.384231
-1.71516
-1.63927
-0.33746
0.23599
-1.09091
-0.212424
-1.60643
-1.50277
-0.0543043
-1.49123
-1.39427
-1.30882
-1.24105
-1.18667
-1.13908
0.596267
0.528638
0.436872
0.31809
0.17728
0.0173677
-0.153897
-0.327586
-0.501774
-0.681612
-0.871176
-1.23051
-1.18821
-1.12857
-1.04356
-0.929817
-0.786622
-0.613439
-1.69368
0.643256
0.591471
0.622206
0.634972
0.637289
0.643895
0.609792
0.626011
0.567483
0.590765
0.513089
0.541267
0.45275
0.483551
0.390249
0.421446
0.326643
0.358832
0.259102
0.293432
0.186868
0.223558
0.111089
0.149275
0.0356027
0.0728287
-0.0274689
0.00134471
-0.0592323
-0.0483834
-0.0489658
-0.0591897
-0.00740148
-0.0307129
0.0438843
0.018173
0.0910894
0.068412
0.130021
0.111638
0.160615
0.1463
0.18393
0.173108
0.20107
0.193203
0.213112
0.207665
0.220745
0.217468
0.224253
0.222978
0.224669
0.224736
0.22396
0.224324
0.224125
0.223819
0.226064
0.225155
0.23035
0.227831
0.236703
0.23342
0.242092
0.239755
0.242521
0.243179
0.234091
0.239627
0.213678
0.225542
0.179099
0.198264
0.129241
0.156115
0.0646448
0.0986909
-0.0110904
0.0278131
-0.0895669
-0.050654
-0.157703
-0.125827
-0.200581
-0.183316
-0.213414