/*--------------------------------*- C++ -*----------------------------------*\
  =========                 |
  \\      /  F ield         | OpenFOAM: The Open Source CFD Toolbox
   \\    /   O peration     | Website:  https://openfoam.org
    \\  /    A nd           | Version:  10
     \\/     M anipulation  |
\*---------------------------------------------------------------------------*/
FoamFile
{
    format      ascii;
    class       surfaceScalarField;
    location    "8";
    object      phi;
}
// * * * * * * * * * * * * * * * * * * * * * * * * * * * * * * * * * * * * * //

dimensions      [0 3 -1 0 0 0 0];

internalField   nonuniform List<scalar> 
57492
(
0.000426818
-1.50798e-05
-8.09519e-05
-0.000330786
-0.000381604
0.000503644
0.000304778
-3.02593e-05
8.58881e-05
0.000341184
-0.000396812
0.00316321
0.00338462
-0.000273532
-0.00627429
-0.00862841
0.00404269
0.00774892
0.00164993
-0.00156323
-0.000817356
0.000730657
-0.00301225
0.000672707
-0.000302354
0.0026419
0.000564771
-0.00192709
0.00108593
-0.00446442
0.00425595
-0.000877463
0.00096374
0.00410823
-0.00398604
-0.00150961
-0.000452495
0.00148545
0.000476653
-0.000109455
-0.00153841
0.000138252
0.000647908
-0.000740888
-1.64759e-05
-0.000126412
0.000321825
0.00328379
-0.00308565
-0.00116852
0.000970383
0.000391998
0.00263072
0.000261066
-0.00033632
0.000800626
0.00333577
-0.00380008
-0.000670668
0.00326049
-0.00292614
0.000134745
-0.000289095
0.000154351
-0.00167642
0.0012263
0.00058487
-0.00467349
0.000207364
0.00335159
0.00111454
0.00121836
-0.00474173
-0.00115012
-0.00011571
-0.000474456
-0.000955345
0.00154551
-0.000432312
0.000343946
-2.73431e-05
-0.00321663
0.00259013
0.00103005
-0.000403554
-0.00349197
0.000716201
-0.000440862
-0.00110956
0.000584279
0.000451776
7.35039e-05
-0.00076773
-0.000355236
1.34065e-05
-0.000373748
-0.00115893
0.00133182
0.00020086
-0.000425162
0.000120073
-6.86591e-05
0.00174353
-0.00117095
-0.00109185
0.000519272
-0.0015037
0.0011066
0.00214063
-0.00195996
-0.00381432
0.00333332
0.00244097
-0.0041173
-0.00106374
0.00322107
-0.000714043
-0.000156928
0.000870971
-0.000274874
-0.000439169
-0.00138204
0.00190704
-0.000799873
0.000204835
-0.000771327
-0.000815552
-0.00141603
0.00208874
-0.000234334
-0.00190329
0.00115182
0.000751463
-0.00432717
0.00242388
0.00451734
-0.000510499
8.71531e-05
-0.00409399
0.00332204
-0.000326595
0.00152189
-0.000420479
0.00441073
-0.00450075
0.00311257
0.000593121
-0.00314092
0.00307292
-0.000262699
0.00353837
-0.00131427
-0.0025985
0.000374397
0.00397638
0.000155112
0.00206649
-0.00121762
0.00222405
0.00170733
0.00300105
-0.00432035
-0.000658438
0.000626316
0.00435247
-0.00446108
-0.000365571
0.000506297
0.000767719
0.0043611
-0.00430309
-0.000825728
0.000455257
-0.00415196
-0.00429304
0.00288672
0.00348916
-0.00208284
-0.00137616
0.00363386
-0.00655073
-2.93064e-05
-0.000284437
1.11439e-05
0.0003026
-0.000617156
-0.000153038
0.00017921
-0.000229517
-0.000566848
-0.000132356
2.71285e-05
6.55793e-05
-5.44353e-05
2.1522e-05
4.40573e-05
0.00784804
0.00363432
-0.00618639
-0.00529597
0.00205636
-0.000528864
0.00632054
-0.00820881
0.00269168
0.00757349
0.0019713
-0.00654579
0.00160836
-0.00286956
0.00214306
-0.000881857
0.00237191
-0.00292142
0.00215787
-5.80097e-05
4.85346e-05
-5.60461e-06
-0.00012767
-1.12911e-05
-0.000400291
-5.81654e-05
-0.0029673
0.00540314
0.00334717
-0.00578301
0.0043303
-0.00492569
0.00291437
0.00481506
-0.0023263
0.0109417
-0.00236459
-0.00117195
-0.00740522
0.00125142
0.00607073
0.0036196
0.000979444
-0.00573526
0.00600723
4.9534e-05
-7.97933e-05
0.000135422
0.000877212
0.00181374
-0.000646565
-0.00204439
0.00111005
0.000108344
-0.000146449
4.60217e-05
0.000100427
-0.000403607
0.000257158
-0.00682433
0.00327512
-0.00199927
0.00554848
-0.0058266
-0.00275878
0.00176105
-0.00265203
0.00218141
-0.00535598
0.00201255
-2.34037e-05
-0.000965712
-0.00102343
-0.000731747
0.00229092
0.000453376
-0.000860622
-8.7071e-05
0.000215946
-0.000793224
-9.08016e-05
-0.000276432
-0.0014825
-0.00098187
-0.000266421
7.21422e-05
0.00117615
-0.000685377
-0.00165907
0.00136258
0.000631932
0.000100397
-0.00141771
0.000403983
-3.84721e-05
0.000528672
-5.25467e-05
-0.000655526
0.000379095
8.24843e-05
-0.000738011
0.000198288
-0.000601895
0.00427434
0.00333117
-0.000178786
0.00212767
-0.00648175
-1.47716e-05
0.00226916
-0.00179866
-0.000455721
0.000282462
0.00317184
-0.00346908
0.00293371
0.00205664
-0.000869976
-0.00412038
-0.000644991
0.000100331
0.00347837
0.00395209
-0.00254044
-0.00160413
-0.00303502
0.00118105
0.0034581
-0.00122893
0.00351269
-0.00388789
0.000374387
-0.00463834
0.000307646
0.000192873
-1.16387e-05
0.00172069
-0.000920565
-0.00118172
0.000411416
-0.00098017
0.00228944
0.000881419
3.3641e-05
-0.000185552
0.000333747
6.82261e-05
-0.000216421
0.000996941
-0.00122473
4.2242e-05
-0.000360141
0.000835518
0.000521564
-0.000126093
9.9699e-05
-0.0064399
0.00342267
0.00629235
0.00769977
-0.00218912
-0.00826943
-0.00306314
0.00432301
-9.56535e-05
-0.000886364
-0.000176913
-0.000530754
9.93922e-06
4.4563e-05
-0.000131331
4.18431e-05
4.49247e-05
-0.000127917
0.00013914
3.33399e-05
-0.000289606
3.03585e-05
-0.000271265
-0.000316567
5.70778e-05
-0.000819469
-0.00033816
-0.0016697
-0.00180858
0.00210676
0.00137151
8.09026e-05
0.000838568
-0.00258917
-0.00238868
0.000661005
-0.00294504
0.00132518
-5.65588e-05
-0.00349519
0.000786856
-0.00023671
0.000858199
-0.0033506
0.00257666
-8.42665e-05
0.000662135
-0.00274977
0.00294583
0.00252123
-0.010199
-0.00180052
0.00220735
0.00302645
-0.00350179
0.0020863
-0.00033619
-0.000124679
0.000225076
-0.000136674
1.1995e-05
0.000288016
-4.13053e-05
0.00482958
-0.00295915
-0.00230711
0.000436685
0.00421681
0.000192294
0.00546995
-0.00099139
-0.00585473
0.000571577
0.00388701
0.00101136
-2.11329e-05
-0.00373103
0.00432374
6.64013e-06
-0.000143314
0.00076287
-0.00216289
-0.00291259
0.00128916
0.00318317
0.00192329
-0.000114014
-0.00201961
0.000210341
0.000599945
-0.000180357
-0.00242914
0.000430332
0.00310541
0.000383916
-0.00221312
-0.00013296
5.63752e-05
-0.00011854
0.000103011
2.14348e-05
-5.90562e-06
4.33071e-05
2.26255e-06
-0.00016411
6.09166e-05
-0.000511581
0.000493971
-0.00233204
0.00346924
-0.000938909
0.00307884
-0.0044977
-0.000913188
-4.77416e-05
-0.00315233
0.0036304
-0.00435357
0.000332744
-0.00294446
-0.00206959
0.000660477
0.00273032
0.00289936
-0.00542231
0.00257044
0.00434678
-0.0041869
0.00224676
-0.00308701
0.00160711
-0.000766854
0.00245985
-0.00302707
0.00281398
0.00440364
0.0018473
0.00462635
-0.000286936
-0.00462627
0.000286865
0.00508377
-0.00067741
0.000219985
0.00537885
-0.000635348
-0.000177262
-0.00456624
0.0038655
-0.00108359
0.00259694
0.00430428
-0.00130898
0.00104612
-0.00404142
0.00114439
0.00438653
-0.00122664
-0.00388391
-0.00157828
0.00415321
0.000994322
-0.00369718
-0.00174897
0.00362878
-0.00225436
-0.00326634
0.0020169
0.00350381
-0.00229212
-0.00330044
0.00333821
0.00214737
0.0030905
-0.00140282
-0.00383505
0.00306775
-0.0032125
-0.00247852
0.00247467
0.00307159
-0.00196555
0.00257753
-0.00409252
0.00364309
-0.00095339
-0.00510864
0.00097749
0.00541418
-0.00128303
0.00186544
-0.00105251
0.0022335
-0.00233906
0.00115807
-0.0006938
0.00251967
-0.00287838
-7.81611e-05
0.000567326
0.000392254
-0.00234843
-0.00336447
0.00213748
-2.22147e-05
2.44772e-05
6.66618e-07
-2.28813e-05
-0.000255777
-0.00385792
0.00289607
-0.00325663
-0.0001866
0.00318745
0.000144239
-0.00341539
1.4522e-05
-0.000408523
0.00186309
0.000436713
-0.00189128
0.00200002
0.000415797
-0.00282434
0.00184876
0.00201435
-1.38984e-05
2.38272e-05
0.000182944
1.85202e-05
-3.24186e-05
4.23474e-05
-1.18699e-05
1.96891e-05
-0.000140175
7.61771e-06
-1.94876e-05
2.73069e-05
-6.67188e-05
3.41923e-05
-0.000399786
3.83851e-05
-0.000105104
7.25774e-05
5.34468e-05
-5.41996e-06
-0.00017412
-1.69971e-05
7.04439e-05
-2.2417e-05
0.00100898
0.00298772
-0.00389637
0.0015269
-0.00424795
0.00373003
0.00414188
0.000372736
-0.00117996
-0.00244237
0.00115593
0.0024664
-0.000711362
0.00272165
-0.00319024
0.00015595
-0.00330969
0.00394899
-0.00398708
-1.2296e-05
5.03776e-05
0.00394657
3.58693e-05
-3.34469e-05
-2.45334e-05
-0.00398189
1.93435e-05
0.00397541
-1.06946e-06
-2.77718e-05
0.00404539
5.79099e-05
-0.000127887
2.84927e-05
0.00414546
-0.000128559
0.00409563
-0.00407209
4.95179e-06
-0.00019267
0.00433834
-2.13234e-07
0.00398102
-7.80676e-05
-0.00394809
-6.60901e-05
-0.0039352
-1.39506e-05
-0.00393046
3.11265e-05
-0.00401556
7.28066e-05
-0.00395071
-8.93894e-05
-0.000186803
0.00452564
-4.95405e-07
0.00379444
-2.20393e-07
-1.9573e-05
-0.00394921
-1.30973e-05
-0.0039837
1.34143e-05
-2.78882e-05
-0.00417803
0.000256707
3.3153e-08
0.00452573
-1.26548e-07
0.00379514
-6.62833e-07
-0.00413075
0.000119168
0.00452595
2.02249e-07
-4.18662e-07
8.51392e-08
0.00452591
-5.25244e-08
0.00379551
-1.68186e-07
0.00379622
-6.216e-07
-2.35746e-05
-0.00415363
-8.33014e-07
-0.00415365
-6.81257e-07
3.16269e-07
0.00452595
-3.5327e-07
0.00379665
-1.21486e-07
-1.85199e-07
-0.00415286
-5.84384e-07
-0.00415264
-1.18638e-06
3.10308e-07
0.00452563
1.24019e-08
0.00379755
-5.85643e-07
-9.61376e-08
-0.00415186
-9.0337e-07
-0.0041519
-8.3773e-07
7.79874e-07
0.00452515
-2.96789e-07
0.00379841
-7.94677e-08
-2.4323e-07
-0.00415097
-6.4637e-07
-0.00415081
-1.34047e-06
1.23527e-06
0.00452383
7.85886e-08
0.0038002
-5.54027e-07
-1.24158e-07
-0.00414989
-9.57983e-07
-0.00414992
-1.00715e-06
2.6421e-06
0.00452144
-2.47123e-07
0.00380288
-3.88021e-08
9.37424e-06
-0.00415854
-7.20812e-07
-0.00413904
-1.51091e-06
4.95397e-06
0.00451634
1.38437e-07
0.00380835
-5.19808e-07
2.68625e-05
-0.00404089
-0.000144515
-0.00406809
-4.40894e-05
1.00781e-05
0.00450646
-1.97454e-07
0.0038008
1.76287e-05
2.66367e-05
-0.00406007
-7.44888e-06
-0.00403762
-3.82384e-06
1.97438e-05
0.00448652
1.99575e-07
0.00377412
4.64209e-05
5.75564e-05
-0.00391718
-0.000200452
-0.00392121
-5.88611e-05
0.000192349
0.00429431
-1.39779e-07
0.00388891
7.75656e-05
6.6408e-05
-0.00389983
-8.37547e-05
-0.00387855
2.37514e-05
0.000169827
0.00397767
0.000146818
0.00395299
0.000105742
0.000106104
-0.000149233
-0.0038567
-0.00386368
9.12292e-05
1.18532e-05
3.84561e-05
0.00392736
0.00392724
3.7605e-05
-0.0039139
0.00397512
-0.000144977
-0.00393634
-0.000126785
0.000181452
-0.000157331
-0.00388082
9.21086e-05
-0.00377433
-0.00388981
0.00392367
-4.13013e-05
-0.000115149
-0.00378137
0.00378251
-1.85527e-06
-2.21817e-06
-0.00378359
0.00378462
-1.68149e-06
-2.03897e-06
-0.00378561
0.00378655
-1.52979e-06
-1.88745e-06
-0.00378746
0.00404557
-1.39357e-06
-1.74685e-06
-0.00403406
0.00397862
7.47831e-05
-1.59627e-06
-0.00410647
0.00407409
-1.06409e-06
-7.74658e-05
-0.00394347
0.00388567
-7.00845e-05
0.000102845
-0.00379322
0.00379378
-7.71087e-07
-3.61175e-05
-0.00379432
0.00379482
-6.33295e-07
-1.02915e-06
-0.00379531
0.00379577
-5.0942e-07
-9.04998e-07
-0.00379621
0.00379662
-3.98805e-07
-7.95785e-07
-0.00379702
0.0037974
-2.97039e-07
-6.97699e-07
-0.00379776
0.0037981
-2.03362e-07
-6.08542e-07
-0.00379843
0.00379874
-1.13555e-07
-5.2457e-07
-0.00377656
0.00386543
5.79474e-05
2.2043e-05
0.00385574
4.81407e-05
-2.35826e-05
7.60322e-05
0.00387491
-3.15753e-06
0.00390682
0.0038804
-0.00381645
1.36147e-05
-0.00391814
0.00390975
4.59968e-05
6.80041e-05
0.00381606
-0.0037981
-3.30394e-07
4.6028e-05
0.00379776
-0.00379739
-4.0393e-07
-8.63641e-07
0.00379701
-0.00379661
-4.80801e-07
-9.32153e-07
0.00379619
-0.00379575
-5.64317e-07
-1.00442e-06
0.00379529
-0.0037948
-6.57613e-07
-1.08516e-06
0.00379428
-0.00379374
-7.62904e-07
-1.17648e-06
0.00387053
-0.00386469
-8.93304e-07
-1.2791e-06
0.00392936
-0.00388666
-5.66575e-05
-1.41192e-06
0.00386107
-0.0038356
4.73392e-05
5.53599e-06
0.00388346
-0.00390849
3.84504e-05
-4.15309e-05
0.00378741
-0.00378651
-1.58753e-06
-1.91262e-06
0.00378557
-0.00378457
-1.83076e-06
-2.127e-06
0.00378354
-0.00378245
-2.09635e-06
-2.37332e-06
0.00378132
-0.00382304
-2.37367e-06
-2.639e-06
0.00382395
-0.00388017
-2.6461e-06
-2.90741e-06
0.00385325
-0.00379775
3.57286e-05
-3.17027e-06
-0.00375681
5.11723e-05
-0.00396716
-0.000126514
0.00386761
6.41655e-05
5.82935e-07
0.00390601
0.00014416
-0.000129354
-0.00378914
0.000115576
-0.00372823
0.000132277
-0.000122814
-0.00397662
-0.0038779
-0.00389109
0.00382779
-8.16772e-05
0.00393588
-0.00396936
-9.30358e-05
-8.19908e-05
-0.00377923
0.00378032
-4.23885e-05
-6.65932e-05
-0.00378152
0.00378266
-2.99276e-06
-3.42168e-06
-0.00378374
0.00378477
-2.71282e-06
-3.11711e-06
-0.00378575
0.00378669
-2.46644e-06
-2.86539e-06
-0.00378757
0.00378841
-2.23233e-06
-2.63446e-06
-0.00378922
0.00386601
-1.99964e-06
-2.40666e-06
-0.00379071
0.00379141
-1.75974e-06
-2.17243e-06
-0.00389622
0.00382766
-1.52671e-06
-1.96322e-06
-0.00379328
0.00379384
-1.33035e-06
-1.74037e-06
-0.00379437
0.00379488
-1.14049e-06
-1.55927e-06
-0.00379536
0.00379582
-9.68702e-07
-1.38501e-06
-0.00379625
0.00379667
-8.14668e-07
-1.23016e-06
-0.00379706
0.00379744
-6.75032e-07
-1.09111e-06
-0.0037978
0.00379814
-5.47341e-07
-9.65184e-07
-0.00379846
0.00379878
-4.26616e-07
-8.49209e-07
-0.00379878
0.00382959
2.71429e-05
2.2038e-05
9.04392e-06
-1.7144e-05
0.00388301
2.19793e-06
0.00387445
-0.00381815
0.00385596
2.63594e-05
5.95779e-05
0.00385827
-0.0038592
4.69224e-05
0.00382721
3.16431e-05
-2.26236e-06
4.56592e-05
0.00386261
0.00388741
0.00385981
-0.00383159
-1.46028e-05
6.86153e-05
0.00379847
-0.00379813
-6.62362e-07
1.29005e-05
0.00379779
-0.00379742
-7.67532e-07
-1.20837e-06
0.00379705
-0.00379665
-8.80666e-07
-1.30953e-06
0.00379623
-0.00379579
-1.00583e-06
-1.42097e-06
0.00379533
-0.00379484
-1.14574e-06
-1.5457e-06
0.00379433
-0.00379379
-1.30285e-06
-1.68631e-06
0.00379322
-0.00379263
-1.48739e-06
-1.84767e-06
0.00379201
-0.00384698
-1.68816e-06
-2.03409e-06
0.00383919
-0.00378993
-1.92575e-06
-2.24609e-06
0.00382898
-0.00378834
-2.18903e-06
-2.47678e-06
0.0037875
-0.00378661
-2.48332e-06
-2.75489e-06
0.00378567
-0.00378469
-2.81343e-06
-3.05888e-06
0.00378367
-0.00378259
-3.17479e-06
-3.39647e-06
0.00378147
-0.00378028
-3.55998e-06
-3.76213e-06
0.00377904
-0.00377773
-3.95992e-06
-4.14578e-06
0.00377635
-0.00373624
-4.37992e-06
-4.54761e-06
0.00371382
-0.003662
6.37545e-05
2.87537e-05
-0.00399772
-9.44589e-05
0.000102548
-0.000159756
-0.00367102
-0.00363829
7.88336e-05
-0.000215171
-0.00373372
2.52017e-05
0.00383295
0.00383297
3.99055e-05
-5.93462e-05
8.41528e-05
-0.00400143
-5.57051e-05
-0.00400136
7.77401e-05
-0.000158414
-0.00359035
5.39028e-05
-0.00361445
-0.00400892
0.00386578
-0.0038544
1.49823e-05
0.00382617
6.48073e-05
6.85664e-05
-2.95418e-05
0.00382359
4.49967e-05
0.00385654
-0.00395474
0.00399727
-9.82361e-05
-0.000109018
9.03115e-05
-0.00398265
0.00404284
-8.65819e-05
0.000321679
-0.00427794
-2.09201e-05
-0.00399222
0.0039604
-6.1217e-05
-8.9405e-05
-0.00390901
0.00384689
-1.95519e-05
-3.06066e-05
-0.00381836
0.00378057
-4.60034e-06
-3.80666e-05
-0.00378176
0.00378289
-4.12589e-06
-4.60827e-06
-0.00378396
0.00378499
-3.73428e-06
-4.18727e-06
-0.00378595
0.00378688
-3.38972e-06
-3.8316e-06
-0.00378775
0.00378858
-3.06637e-06
-3.50786e-06
-0.00378937
0.00379012
-2.74945e-06
-3.19639e-06
-0.00379084
0.00379152
-2.44146e-06
-2.89089e-06
-0.00379216
0.00379278
-2.15001e-06
-2.60142e-06
-0.00379337
0.00379393
-1.88589e-06
-2.32709e-06
-0.00379445
0.00379496
-1.64406e-06
-2.08475e-06
-0.00379543
0.00379589
-1.42472e-06
-1.86114e-06
-0.00379632
0.00379673
-1.22783e-06
-1.66113e-06
-0.00379712
0.0037975
-1.05006e-06
-1.48172e-06
-0.00379785
0.00379819
-8.88699e-07
-1.31995e-06
-0.00379852
0.00379883
-7.39233e-07
-1.17281e-06
-0.0038096
0.00381623
2.05165e-05
1.1264e-05
2.14063e-05
2.51611e-05
-9.03679e-06
0.00386688
-4.08088e-05
1.14357e-05
0.00386232
0.00385881
0.00384883
0.00384751
-0.00384337
4.2779e-05
-0.00384202
0.00382113
6.07993e-05
3.71318e-05
0.00379911
-0.00381284
-8.72862e-07
2.4358e-05
0.00379851
-0.00379818
-9.93381e-07
-1.43386e-06
0.00379783
-0.00379747
-1.12839e-06
-1.54966e-06
0.0037971
-0.0037967
-1.27795e-06
-1.68442e-06
0.00379629
-0.00379585
-1.44444e-06
-1.83459e-06
0.00379539
-0.00379491
-1.63062e-06
-2.00284e-06
0.0037944
-0.00379386
-1.83983e-06
-2.19219e-06
0.0037933
-0.00379271
-2.07906e-06
-2.40742e-06
0.00379209
-0.00379144
-2.34618e-06
-2.65234e-06
0.00379075
-0.00379003
-2.64838e-06
-2.92908e-06
0.00378927
-0.00378847
-2.98746e-06
-3.23816e-06
0.00378764
-0.00378675
-3.36535e-06
-3.58967e-06
0.00378584
-0.00378487
-3.78328e-06
-3.97813e-06
0.00378386
-0.00378279
-4.24061e-06
-4.40687e-06
0.00378168
-0.0037805
-4.73396e-06
-4.87355e-06
0.00377928
-0.00377797
-5.26093e-06
-5.37405e-06
0.00377661
-0.00377516
-5.83013e-06
-5.91114e-06
0.00373991
-0.0036697
-6.45577e-06
-6.49636e-06
0.00362861
-0.00363543
6.07212e-05
3.77444e-05
6.89318e-05
-6.79067e-05
-0.00361547
-0.00361739
5.08896e-05
0.000117678
-0.0040288
-9.50305e-05
-0.00379711
3.80262e-05
0.00379958
0.00383427
3.18531e-05
0.000139901
-0.00420913
2.44439e-06
-0.0036607
0.000822946
-0.0033802
0.00440601
-6.53921e-05
4.2961e-05
-0.00359496
-0.000100291
-0.00358058
-0.00266997
0.00406216
0.000622154
-0.00208622
-0.000147036
-0.00398627
-0.00385002
0.00401119
0.000160513
0.000340223
-0.000128079
-0.00397141
0.00393448
-6.13039e-05
1.8854e-05
-0.00390142
0.00384765
-7.44613e-06
-5.63501e-05
-0.00382427
0.00381129
-6.57423e-06
-7.22512e-06
-0.00377966
0.0037809
-5.84625e-06
-6.43121e-06
-0.00378208
0.0037832
-5.24579e-06
-5.78307e-06
-0.00378426
0.00378526
-4.74118e-06
-5.24397e-06
-0.00378621
0.00378712
-4.29657e-06
-4.78224e-06
-0.00378798
0.00378879
-3.88407e-06
-4.36469e-06
-0.00378957
0.00379031
-3.48876e-06
-3.96982e-06
-0.00379101
0.00379168
-3.11128e-06
-3.59109e-06
-0.00379231
0.00379292
-2.75761e-06
-3.23444e-06
-0.00379349
0.00379404
-2.43489e-06
-2.90229e-06
-0.00379456
0.00379506
-2.14134e-06
-2.60365e-06
-0.00379553
0.00379598
-1.87565e-06
-2.33171e-06
-0.00379641
0.00379682
-1.63657e-06
-2.08755e-06
-0.0037972
0.00379757
-1.42115e-06
-1.86841e-06
-0.00379792
0.00379826
-1.22646e-06
-1.67127e-06
-0.00379858
0.00379889
-1.04972e-06
-1.49343e-06
-0.00381149
0.00383291
-8.96671e-07
-1.33688e-06
-0.00382382
0.00382165
1.71585e-05
3.04902e-05
-0.00383675
0.00383251
4.22602e-05
4.97058e-05
5.35476e-05
-2.98512e-05
0.00383863
-3.31976e-05
7.60496e-06
0.00385811
0.00381993
3.74787e-05
1.54051e-05
0.003814
0.00386643
-2.63025e-05
1.81032e-05
0.00383179
0.00383793
-2.25377e-05
3.36441e-06
0.00385345
0.0038521
0.00385641
-0.00384279
4.71737e-05
-0.00391602
0.00381154
0.000107842
-2.77531e-05
0.00383321
-0.00382513
3.47007e-05
2.75521e-05
0.00379916
-0.00379886
-1.1709e-06
-1.60804e-06
0.00379856
-0.00379823
-1.31945e-06
-1.73862e-06
0.0037979
-0.00379754
-1.48559e-06
-1.88721e-06
0.00379717
-0.00379677
-1.67151e-06
-2.05568e-06
0.00379636
-0.00379593
-1.87879e-06
-2.24424e-06
0.00379548
-0.003795
-2.11068e-06
-2.4555e-06
0.0037945
-0.00379397
-2.37085e-06
-2.69286e-06
0.00379341
-0.00379283
-2.6648e-06
-2.96091e-06
0.00379222
-0.00379157
-2.99397e-06
-3.26368e-06
0.00379089
-0.00379018
-3.36338e-06
-3.60428e-06
0.00378943
-0.00378864
-3.77577e-06
-3.98468e-06
0.00378782
-0.00378695
-4.23327e-06
-4.41125e-06
0.00378605
-0.00378509
-4.73773e-06
-4.88251e-06
0.0037841
-0.00378305
-5.29065e-06
-5.40164e-06
0.00378195
-0.00378079
-5.89263e-06
-5.96945e-06
0.00377958
-0.0037783
-6.54651e-06
-6.58697e-06
0.00377695
-0.00377551
-7.26269e-06
-7.26054e-06
0.00377401
-0.0037724
-8.05981e-06
-8.00364e-06
0.00372582
-0.00365614
-8.95769e-06
-8.83889e-06
0.00365848
-0.00364452
2.90037e-05
5.32291e-05
5.18721e-05
-4.90454e-05
-0.00359778
-0.00361926
2.66119e-05
0.000113914
-0.00400281
-2.91772e-05
-0.00376549
0.000293701
-0.00367989
2.57336e-06
-0.00376356
0.00383386
-0.00383947
4.78752e-05
0.0038205
2.09655e-05
4.79607e-05
-3.26217e-05
0.00383811
1.25175e-05
0.00384698
0.000282037
-0.00324644
4.90662e-06
-0.00363453
-0.00195707
-0.00202043
-0.00316661
0.00363748
0.000151285
8.10018e-05
-5.56045e-05
-0.00362318
5.59604e-05
-0.00359422
-0.00294749
-0.000366151
-0.00390153
-0.00379335
0.00384258
0.000111284
0.000184353
-0.00387236
0.00382115
-1.00928e-05
-1.09345e-05
-0.00377452
0.00377601
-8.94364e-06
-9.71463e-06
-0.00377744
0.00377879
-7.93269e-06
-8.64596e-06
-0.00378008
0.00378131
-7.07177e-06
-7.71969e-06
-0.00378247
0.00378357
-6.34751e-06
-6.94057e-06
-0.00378461
0.00378559
-5.72956e-06
-6.28261e-06
-0.00378653
0.00378741
-5.18403e-06
-5.71395e-06
-0.00378825
0.00378905
-4.68315e-06
-5.20224e-06
-0.00378981
0.00379053
-4.2113e-06
-4.72545e-06
-0.00379121
0.00379187
-3.76659e-06
-4.2754e-06
-0.00379249
0.00379308
-3.35275e-06
-3.85475e-06
-0.00379365
0.00379419
-2.97447e-06
-3.4661e-06
-0.0037947
0.00379519
-2.63086e-06
-3.11419e-06
-0.00379565
0.00379609
-2.31994e-06
-2.79516e-06
-0.00379652
0.00379692
-2.03983e-06
-2.508e-06
-0.0037973
0.00379767
-1.78725e-06
-2.24993e-06
-0.00379801
0.00379835
-1.55968e-06
-2.01791e-06
-0.00379866
0.00379897
-1.35492e-06
-1.80939e-06
-0.00379925
0.00379953
-1.17283e-06
-1.62395e-06
-0.00383148
0.00381834
3.03016e-05
-1.46358e-06
2.85725e-05
4.10491e-05
-6.54982e-05
0.00386308
-1.70789e-05
2.94601e-05
0.00384573
0.0038439
-2.25702e-08
-1.92262e-07
0.00381421
0.00380091
-3.68349e-05
5.48689e-05
0.00381375
0.00380091
0.00387435
0.00385858
-0.00384711
3.5706e-05
-0.00381065
0.00384938
6.91069e-05
2.01744e-05
0.00383551
-0.0037995
-1.31209e-06
1.59553e-05
0.00379922
-0.00379893
-1.4642e-06
-1.88291e-06
0.00379863
-0.00379831
-1.64002e-06
-2.04112e-06
0.00379797
-0.00379762
-1.83818e-06
-2.22011e-06
0.00379725
-0.00379687
-2.06006e-06
-2.42227e-06
0.00379646
-0.00379603
-2.3078e-06
-2.64879e-06
0.00379559
-0.00379511
-2.58449e-06
-2.90242e-06
0.00379462
-0.00379409
-2.89448e-06
-3.18684e-06
0.00379355
-0.00379297
-3.24248e-06
-3.50666e-06
0.00379237
-0.00379173
-3.63168e-06
-3.86606e-06
0.00379107
-0.00379036
-4.06644e-06
-4.26879e-06
0.00378963
-0.00378886
-4.54997e-06
-4.71782e-06
0.00378805
-0.0037872
-5.08501e-06
-5.21777e-06
0.00378631
-0.00378537
-5.6746e-06
-5.77e-06
0.0037844
-0.00378336
-6.32226e-06
-6.37843e-06
0.00378229
-0.00378115
-7.03258e-06
-7.04695e-06
0.00377995
-0.00377869
-7.81237e-06
-7.78081e-06
0.00377736
-0.00377595
-8.67418e-06
-8.5896e-06
0.00377446
-0.00377289
-9.6367e-06
-9.4886e-06
0.00377123
-0.00376946
-1.07236e-05
-1.04989e-05
0.00370458
-0.00366361
-1.19617e-05
-1.16517e-05
0.00362404
-0.00359467
2.65892e-05
-1.296e-05
9.78349e-05
-6.22915e-05
-0.00362976
-0.00357297
7.61382e-05
8.42601e-05
-0.00379337
4.54438e-07
-0.00376337
4.69745e-05
0.00380298
0.00383497
2.69293e-05
0.000167185
-0.00356504
-0.00048094
-0.00430047
-7.50996e-05
-0.00365228
2.70174e-06
-0.00376136
5.18734e-06
-0.00369532
-0.00424172
-0.000726203
0.000142189
-0.000434676
-0.00394923
-0.000315069
-0.00384321
-5.61317e-05
-0.00362934
5.94545e-05
-0.000117187
-0.00357203
0.000100285
-0.0036138
-0.00381682
-0.00345373
0.00360736
-2.3498e-06
0.00363196
-0.00400097
-0.000357197
-0.000187917
-0.00371825
0.00377032
5.92075e-05
7.34686e-05
-0.00377199
0.00377359
-1.16976e-05
-1.25979e-05
-0.00377512
0.00377658
-1.04063e-05
-1.1243e-05
-0.00377798
0.00377931
-9.26431e-06
-1.00373e-05
-0.00378057
0.00378177
-8.27484e-06
-8.98144e-06
-0.00378291
0.00378399
-7.42764e-06
-8.07596e-06
-0.003785
0.00378597
-6.69649e-06
-7.29998e-06
-0.00378688
0.00378775
-6.05035e-06
-6.62444e-06
-0.00378857
0.00378934
-5.46208e-06
-6.01901e-06
-0.00379008
0.00379078
-4.91546e-06
-5.46173e-06
-0.00379145
0.00379209
-4.40581e-06
-4.9425e-06
-0.0037927
0.00379328
-3.9343e-06
-4.46062e-06
-0.00379383
0.00379436
-3.50306e-06
-4.01748e-06
-0.00379486
0.00379534
-3.1113e-06
-3.6149e-06
-0.00379579
0.00379623
-2.75649e-06
-3.2502e-06
-0.00379664
0.00379704
-2.43626e-06
-2.92128e-06
-0.00379742
0.00379778
-2.14749e-06
-2.62518e-06
-0.00379812
0.00379844
-1.88723e-06
-2.35885e-06
-0.00379876
0.00379905
-1.65336e-06
-2.11969e-06
-0.00379934
0.00379961
-1.44556e-06
-1.90645e-06
-0.00379986
0.00383143
-1.26065e-06
-1.71781e-06
-0.0038344
0.00384341
3.88696e-05
2.55941e-05
-0.00379214
0.00380841
3.07097e-05
7.22328e-05
6.44632e-05
-4.76154e-05
0.00382888
-1.42245e-05
-7.7389e-06
0.00383037
0.00385322
4.78248e-05
2.14696e-07
0.00381504
0.00384411
-1.32058e-08
-1.95069e-07
0.00381442
0.00380112
3.99035e-07
-6.07572e-07
0.00381396
0.00380111
-2.77644e-05
2.2194e-05
0.00384368
0.00384598
-1.58557e-05
2.08679e-05
0.00382996
0.00385332
0.00386217
-0.00381855
2.54816e-05
-0.00384436
0.00382183
4.34031e-05
4.47375e-05
0.00382614
-0.00381777
2.73322e-05
2.7771e-05
0.00379982
-0.00379956
-1.56976e-06
-1.9919e-06
0.00379929
-0.00379901
-1.75065e-06
-2.15377e-06
0.00379871
-0.0037984
-1.95507e-06
-2.33835e-06
0.00379807
-0.00379772
-2.18517e-06
-2.54754e-06
0.00379736
-0.00379698
-2.44265e-06
-2.78316e-06
0.00379658
-0.00379616
-2.73007e-06
-3.04707e-06
0.00379572
-0.00379525
-3.05083e-06
-3.34229e-06
0.00379476
-0.00379425
-3.40926e-06
-3.67275e-06
0.00379371
-0.00379315
-3.81027e-06
-4.04309e-06
0.00379255
-0.00379193
-4.25772e-06
-4.45774e-06
0.00379128
-0.00379059
-4.75579e-06
-4.92083e-06
0.00378987
-0.00378911
-5.30831e-06
-5.43606e-06
0.00378832
-0.00378749
-5.919e-06
-6.00764e-06
0.00378662
-0.0037857
-6.59198e-06
-6.63895e-06
0.00378474
-0.00378373
-7.33346e-06
-7.33536e-06
0.00378267
-0.00378156
-8.15086e-06
-8.10356e-06
0.00378039
-0.00377914
-9.05452e-06
-8.95224e-06
0.00377784
-0.00377645
-1.00589e-05
-9.89372e-06
0.003775
-0.00377345
-1.11834e-05
-1.09448e-05
0.00377182
-0.0037701
-1.24515e-05
-1.21267e-05
0.00376828
-0.00376635
-1.3889e-05
-1.34655e-05
0.00376433
-0.00372221
-1.55264e-05
-1.4988e-05
0.003681
-0.00361278
3.20573e-05
3.49323e-05
4.74067e-05
-8.08509e-05
-0.00358036
-0.00361083
4.54592e-05
5.53055e-05
-0.00368149
-0.00405673
-0.000378914
1.96664e-05
-0.0036598
0.00385751
-0.00386703
4.02321e-05
0.00385416
-4.38821e-06
4.14173e-05
-3.5362e-05
0.0038239
5.15901e-05
0.00381166
4.67897e-07
-0.00376113
2.85081e-06
-0.00375902
-0.000113078
-0.00385427
5.48285e-06
-0.00375693
8.37138e-06
-0.0037549
1.1532e-05
-0.00366441
6.69066e-05
-3.32978e-05
-0.00361397
2.28931e-05
-0.00356682
-0.00376105
-0.00391196
0.00372565
-0.000170886
-0.000310725
0.000427166
-0.00417317
0.00407963
-0.00424504
-0.000145314
-0.000211241
-0.00359333
0.0036566
-6.56135e-05
-5.5599e-05
-0.00372954
0.00377106
1.76874e-05
5.25628e-07
-0.0037727
0.00377427
-1.32696e-05
-1.42395e-05
-0.00377577
0.0037772
-1.18402e-05
-1.2739e-05
-0.00377856
0.00377987
-1.05681e-05
-1.13997e-05
-0.0037811
0.00378228
-9.45239e-06
-1.02165e-05
-0.00378339
0.00378445
-8.48403e-06
-9.18697e-06
-0.00378544
0.00378639
-7.64056e-06
-8.29415e-06
-0.00378727
0.00378812
-6.89448e-06
-7.51247e-06
-0.00378891
0.00378967
-6.22015e-06
-6.81433e-06
-0.00379039
0.00379107
-5.60061e-06
-6.17808e-06
-0.00379172
0.00379234
-5.02828e-06
-5.59165e-06
-0.00379293
0.0037935
-4.50124e-06
-5.05105e-06
-0.00379404
0.00379456
-4.01943e-06
-4.55544e-06
-0.00379505
0.00379552
-3.58132e-06
-4.1045e-06
-0.00379596
0.00379639
-3.18408e-06
-3.69567e-06
-0.00379679
0.00379718
-2.82494e-06
-3.32625e-06
-0.00379755
0.0037979
-2.50072e-06
-2.99315e-06
-0.00379824
0.00379856
-2.20838e-06
-2.69321e-06
-0.00379886
0.00379916
-1.94555e-06
-2.42372e-06
-0.00379943
0.0037997
-1.71081e-06
-2.18287e-06
-0.00379995
0.00380019
-1.50045e-06
-1.96885e-06
-0.00382756
0.00384142
2.5009e-05
-1.7796e-06
4.66225e-05
1.86628e-05
-4.24016e-05
0.00385262
-2.95301e-05
2.76499e-06
0.00385714
0.00384236
-3.82896e-07
1.90556e-07
0.00381523
0.00380133
2.47036e-09
-1.9964e-07
0.00381462
0.00380131
3.96295e-07
-5.95212e-07
0.00381416
0.00380131
-4.40603e-05
3.27821e-05
0.00385496
0.00380132
0.00385074
0.0038566
-0.00385895
2.78369e-05
-0.00384828
0.00383152
6.01663e-05
5.30509e-05
0.00382912
-0.00380014
-1.64501e-06
-2.06614e-06
0.0037999
-0.00379964
-1.82511e-06
-2.2313e-06
0.00379938
-0.0037991
-2.03097e-06
-2.41795e-06
0.00379881
-0.0037985
-2.26399e-06
-2.6296e-06
0.00379818
-0.00379784
-2.52566e-06
-2.86871e-06
0.00379748
-0.00379711
-2.81814e-06
-3.13735e-06
0.00379672
-0.0037963
-3.14442e-06
-3.43794e-06
0.00379587
-0.00379541
-3.50817e-06
-3.77383e-06
0.00379494
-0.00379443
-3.91392e-06
-4.14918e-06
0.00379391
-0.00379335
-4.36645e-06
-4.56871e-06
0.00379277
-0.00379216
-4.87037e-06
-5.03709e-06
0.00379152
-0.00379085
-5.42989e-06
-5.55878e-06
0.00379014
-0.0037894
-6.0495e-06
-6.13803e-06
0.00378863
-0.00378782
-6.73373e-06
-6.77945e-06
0.00378697
-0.00378607
-7.48859e-06
-7.48803e-06
0.00378514
-0.00378415
-8.32225e-06
-8.27085e-06
0.00378311
-0.00378202
-9.24491e-06
-9.1371e-06
0.00378087
-0.00377966
-1.02696e-05
-1.00983e-05
0.00377838
-0.00377703
-1.14127e-05
-1.11691e-05
0.00377561
-0.0037741
-1.26941e-05
-1.23676e-05
0.00377251
-0.00377082
-1.41373e-05
-1.37154e-05
0.00376905
-0.00376717
-1.57683e-05
-1.52379e-05
0.0037652
-0.00376311
-1.76165e-05
-1.69614e-05
0.00370926
-0.0036575
-1.97031e-05
-1.89139e-05
0.00363306
-0.00363643
2.62645e-05
2.10214e-05
-0.000208057
3.31584e-05
-0.00366831
-0.00373012
6.76677e-05
-3.44604e-05
-0.00360002
-0.00357603
7.26206e-06
1.86765e-06
-0.00366369
4.51317e-05
0.00381179
0.00386373
1.93838e-05
0.000100952
-0.00421202
-0.000133977
4.99952e-07
-0.00375878
0.000213359
-0.00428558
-3.49477e-05
-0.00373793
3.01619e-06
-0.00375655
-4.30783e-05
-0.00377804
5.79397e-06
-0.00375436
8.85326e-06
-0.00375222
1.22153e-05
-0.00370993
-2.43335e-05
-0.0036241
3.61405e-05
-3.77828e-05
-0.00359838
3.78148e-05
-0.0035777
-0.00375868
-0.00417194
0.00400191
2.47227e-05
-0.000232218
-0.00415129
0.000171491
0.00429153
-0.00419085
-0.000332892
-1.43919e-05
-0.00388842
0.00380233
-8.47947e-05
-9.77546e-05
-0.00376646
0.00371935
-1.85068e-05
-1.97315e-05
-0.00373757
0.00377183
-1.65743e-05
-1.7691e-05
-0.00377345
0.00377499
-1.48131e-05
-1.58538e-05
-0.00377646
0.00377786
-1.32441e-05
-1.42053e-05
-0.00377919
0.00378047
-1.18424e-05
-1.27324e-05
-0.00378167
0.00378282
-1.06025e-05
-1.14231e-05
-0.00378391
0.00378494
-9.51479e-06
-1.02717e-05
-0.00378591
0.00378683
-8.56077e-06
-9.26375e-06
-0.00378769
0.00378852
-7.71619e-06
-8.37745e-06
-0.00378929
0.00379003
-6.95743e-06
-7.58811e-06
-0.00379072
0.00379139
-6.26665e-06
-6.87453e-06
-0.00379202
0.00379263
-5.63349e-06