/*--------------------------------*- C++ -*----------------------------------*\
  =========                 |
  \\      /  F ield         | OpenFOAM: The Open Source CFD Toolbox
   \\    /   O peration     | Website:  https://openfoam.org
    \\  /    A nd           | Version:  10
     \\/     M anipulation  |
\*---------------------------------------------------------------------------*/
FoamFile
{
    format      ascii;
    class       volVectorField;
    location    "8";
    object      U;
}
// * * * * * * * * * * * * * * * * * * * * * * * * * * * * * * * * * * * * * //

dimensions      [0 1 -1 0 0 0 0];

internalField   nonuniform List<vector> 
28942
(
(0.00812426 -0.00480505 -1.59703e-22)
(0.010698 -0.00614836 -1.96746e-23)
(0.0190523 -0.0130692 -1.33845e-21)
(0.10331 0.0181855 -6.78033e-21)
(0.102357 0.0222261 2.20621e-21)
(0.0356938 0.00167672 0)
(0.0425158 0.00171776 3.28024e-23)
(0.0480454 0.00209431 -2.87445e-23)
(0.130014 -0.00703418 -5.13441e-22)
(0.128427 -0.00603798 1.43819e-21)
(0.0211814 0.0150028 -1.91131e-23)
(0.029276 0.017658 -6.88468e-23)
(0.0150341 0.0107364 0)
(0.0118683 0.00903953 0)
(0.0876064 0.00211594 -3.96081e-23)
(0.085894 0.00356352 -1.08369e-23)
(0.0892903 0.0162041 8.27068e-22)
(0.0869348 0.0141558 1.32342e-21)
(0.0122508 -0.0151652 4.07187e-21)
(0.0296208 -0.0305671 -1.07635e-21)
(0.0985266 0.036828 1.21864e-21)
(0.0976166 0.0341361 0)
(0.0265464 0.010205 8.22117e-22)
(0.0120139 0.00505786 3.16579e-22)
(0.046787 0.0127165 6.00009e-22)
(0.0679839 0.00772988 -5.4698e-22)
(0.00762705 -0.0182253 9.98674e-21)
(0.00666528 -0.016309 -3.64296e-21)
(0.0366317 -0.0257759 9.18534e-22)
(0.0198351 -0.0139528 3.26136e-22)
(0.036524 -0.00374781 0)
(0.0454901 -0.00405484 -2.85287e-23)
(0.0550231 0.00715531 7.36859e-22)
(0.0725702 0.00165494 -1.46331e-22)
(0.0190945 0.0181563 1.7114e-21)
(0.0158979 0.0192434 -1.85503e-21)
(0.0325384 0.0378099 -3.72771e-21)
(0.0188274 0.0307001 -1.23579e-21)
(0.0207733 0.000929029 -2.54526e-23)
(0.00872897 0.01629 -3.10741e-21)
(0.0306613 -0.00619005 0)
(0.0513709 -0.0109465 0)
(0.104081 -0.00466545 -6.95037e-23)
(0.104122 -0.00437454 2.04127e-22)
(0.104405 -0.00476148 1.78256e-22)
(0.0640892 0.0015755 3.02492e-23)
(0.0601752 0.000428262 -5.24078e-23)
(0.0789462 0.000170244 -1.97709e-22)
(0.0765368 0.000167076 5.44861e-23)
(0.0655634 -0.0038811 -5.20012e-22)
(0.0524688 -0.00561438 3.25125e-22)
(0.117199 0.00431612 -8.41842e-22)
(0.117405 0.00394802 -7.56353e-22)
(0.130446 -0.0102715 -3.93843e-24)
(0.128673 -0.00922943 2.64742e-22)
(0.101825 0.0224376 3.3304e-22)
(0.119866 0.0153919 -1.33544e-23)
(0.00727355 0.00529989 -2.34008e-22)
(0.0166511 0.0105134 0)
(0.0143666 0.00832147 1.37601e-22)
(0.00631887 0.00435065 1.97727e-22)
(0.00163499 0.00126655 -1.59644e-22)
(0.00146954 0.00122215 -1.26554e-22)
(0.117509 -0.0401274 0)
(0.115664 -0.0214806 -2.48973e-24)
(0.13084 -0.0260531 3.1902e-23)
(0.129745 -0.0382202 0)
(0.0901866 -0.0324387 -7.94757e-22)
(0.0937519 -0.0347734 -5.27344e-22)
(0.00377651 -0.00232643 5.05756e-22)
(0.00482703 -0.00365776 -1.73758e-22)
(0.00850606 -0.00585081 4.47425e-22)
(0.0852543 -0.0448574 0)
(0.0914474 -0.0388984 2.72449e-21)
(0.0811512 -0.0519938 7.44321e-22)
(0.128266 0.000432883 -1.04678e-22)
(0.12848 -0.00793155 9.27073e-23)
(0.136683 -0.00545937 2.40908e-22)
(0.0049571 -0.0030235 -8.48123e-23)
(0.00671184 -0.00467134 8.52713e-22)
(0.0541441 -0.0320267 2.6805e-22)
(0.0355699 -0.0216262 -3.62199e-22)
(0.00315914 -0.00138532 2.71216e-21)
(0.00706671 -0.00332736 -1.0679e-21)
(0.106978 0.0468642 1.00659e-22)
(0.101257 0.0542949 -1.12091e-21)
(0.0837064 0.0540061 1.05195e-21)
(0.048864 0.0351009 -3.82394e-21)
(0.0461766 0.0323137 2.71245e-21)
(0.0305156 0.021113 -1.77381e-22)
(0.0337462 0.0237547 -8.76642e-22)
(0.039084 0.0288485 1.20178e-21)
(0.0170244 0.0115228 5.22316e-23)
(0.022687 0.0155929 9.52292e-24)
(0.0116522 0.00961627 -1.90827e-23)
(0.00962006 0.00806892 2.98283e-22)
(0.00906092 0.00716157 -4.10377e-22)
(0.0161508 0.0117801 -4.52167e-21)
(0.0178955 0.0138566 1.05956e-21)
(0.0113618 -0.00537494 0)
(0.101388 0.00515145 0)
(0.0983974 0.015666 -4.85831e-21)
(0.0605353 0.0104609 2.69015e-21)
(0.0888145 0.0178264 0)
(0.123577 -0.019247 0)
(0.122505 -0.0196379 0)
(0.122847 -0.0208829 -1.51397e-21)
(0.114921 0.0244521 -3.08435e-22)
(0.11411 0.0260592 3.00389e-21)
(0.113302 0.0239033 1.60981e-21)
(0.00657365 0.005296 3.59381e-22)
(0.00549055 0.00451053 -4.03373e-22)
(0.0291912 -0.0130735 -2.33314e-22)
(0.0332491 -0.0157081 1.21865e-22)
(0.0173952 -0.00960787 1.47156e-22)
(0.00646504 0.0112513 1.69891e-21)
(0.0189392 0.0183111 4.01228e-21)
(0.0135098 0.0229332 2.73643e-22)
(0.00492856 0.0143865 -9.97549e-21)
(0.123066 0.0440908 1.00104e-22)
(0.111179 0.0558693 1.64663e-21)
(0.122187 0.0511281 -2.84536e-21)
(0.0400138 -0.0297673 1.0073e-21)
(0.0245268 -0.0175241 -7.03858e-22)
(0.00526756 -0.000583872 -4.72629e-21)
(0.00449385 -0.00341855 0)
(0.0124057 -0.00143843 2.34387e-21)
(0.0223409 -0.01632 1.02752e-21)
(0.0348555 -0.0280147 -2.67683e-21)
(0.0760906 0.000740563 1.52891e-22)
(0.079374 0.000807978 -9.38199e-23)
(0.0726693 0.00093766 -4.62419e-24)
(0.0283174 -0.0418882 0)
(0.0298128 -0.0425817 0)
(0.0898877 -0.0184636 -6.49732e-22)
(0.0998632 -0.0218195 4.30997e-21)
(0.0870723 -0.0252444 0)
(0.047947 -0.0403086 0)
(0.0591348 -0.05119 -1.04962e-21)
(0.0419551 0.0395619 2.55911e-21)
(0.00273937 0.00273614 -9.32478e-23)
(0.00208441 0.00233099 1.34271e-22)
(0.0225958 -0.0193801 -1.05731e-21)
(0.104781 -0.0050657 1.04302e-21)
(0.104742 -0.00481463 -1.92388e-22)
(0.130147 0.012052 5.53098e-23)
(0.124202 0.0209302 -7.37123e-23)
(0.129899 0.0202964 -4.98906e-22)
(0.00238145 0.00235021 1.1104e-25)
(0.04493 0.0348418 4.22294e-21)
(0.0638463 0.0466391 -1.05734e-21)
(0.0619682 0.0400428 -4.76261e-24)
(0.0544678 -0.00206683 1.12131e-23)
(0.0539163 -0.00247737 6.24432e-23)
(0.0577547 -0.00331098 4.39315e-24)
(0.0632542 -0.0022639 -3.31323e-23)
(0.046409 0.0383937 1.38543e-22)
(0.019315 0.0162439 0)
(0.00284437 -0.00254641 -1.30183e-22)
(0.00371961 -0.003714 1.44242e-22)
(0.00916107 -0.00716543 -1.92332e-22)
(0.0458863 -0.0128945 -1.47681e-21)
(0.0774581 -0.00796271 -5.35143e-22)
(0.0706059 -0.00222077 -5.76254e-25)
(0.083648 -0.00504022 2.21345e-22)
(0.0781053 -0.0149852 -2.29582e-22)
(0.0947641 0.0393653 2.71933e-21)
(0.092023 0.0446808 9.64859e-23)
(0.0888483 0.02923 1.51693e-21)
(0.0916192 0.0308885 -1.0993e-21)
(0.0992148 0.0402137 0)
(0.11728 -0.00289571 2.8642e-22)
(0.117198 -0.00330454 5.61186e-22)
(0.123116 -0.00468189 -5.54076e-22)
(0.123863 -0.00378768 9.60367e-22)
(0.116719 0.0212922 3.9246e-22)
(0.118611 0.0213627 -1.11863e-21)
(0.11686 0.0232623 0)
(0.115007 0.0227324 2.22974e-22)
(0.116567 0.0252882 0)
(0.117497 0.0326499 -8.01624e-22)
(0.116197 0.0349771 -4.25544e-22)
(0.112065 0.0394581 -7.48458e-22)
(0.114353 0.0372615 0)
(0.117332 0.0394601 2.56873e-21)
(0.11473 0.0418451 4.59376e-23)
(0.109172 0.04196 -4.0868e-22)
(0.100701 0.048642 -1.7126e-21)
(0.0991339 0.0442848 -2.99132e-22)
(0.0548208 -0.0277164 -3.21356e-22)
(0.0632173 -0.03047 1.25987e-22)
(0.0144047 -0.00979444 -1.26201e-22)
(0.0699641 0.000779566 -1.09128e-22)
(0.0828995 0.000280245 0)
(0.00110337 -0.000972142 -4.78834e-23)
(0.0010497 -0.000868779 -4.86747e-23)
(0.0771314 -0.00220753 4.51631e-23)
(0.0858644 -0.00201348 1.41355e-23)
(0.0852654 -0.000989445 0)
(0.0753762 -0.000298865 1.84681e-23)
(0.105504 0.000281783 -2.23314e-22)
(0.105496 0.000243067 1.07227e-21)
(0.105542 0.000251375 5.24201e-22)
(0.00397123 0.00335731 6.91425e-23)
(0.000748434 0.000697247 -1.77571e-22)
(0.00083618 0.000723854 5.02256e-23)
(0.00338581 0.00210548 0)
(0.000543749 0.000512811 7.79962e-22)
(0.000781331 0.000393038 -4.08e-22)
(0.0107954 0.00570396 -6.76252e-22)
(0.00247181 0.00140661 -9.39081e-22)
(0.00275537 0.00144648 0)
(0.00157064 0.00758817 0)
(0.000577687 0.00329581 0)
(0.000313178 0.0019879 0)
(0.122461 -0.0181273 2.59624e-22)
(0.121849 -0.0170956 0)
(0.121419 -0.0185191 -2.94465e-22)
(0.0880261 -0.0149046 5.45504e-21)
(0.0900588 -0.0153407 -1.98237e-21)
(0.0889543 -0.0129313 0)
(0.106278 8.85983e-06 -1.31787e-23)
(0.106298 8.73997e-06 2.63778e-23)
(0.106257 9.62809e-06 -8.90733e-24)
(0.106318 8.56655e-06 0)
(0.106336 8.67641e-06 -1.68455e-23)
(0.106354 8.18162e-06 0)
(0.106352 -1.08988e-05 0)
(0.10637 6.97512e-06 6.25651e-23)
(0.106369 -1.17783e-05 0)
(0.106336 -1.11295e-05 -1.69528e-23)
(0.106318 -1.1547e-05 0)
(0.106298 -1.21318e-05 8.82315e-24)
(0.106278 -1.28762e-05 -1.31743e-23)
(0.106257 -1.38038e-05 8.89619e-24)
(0.106385 6.10656e-06 -5.98697e-23)
(0.106384 -1.21928e-05 -2.09662e-24)
(0.106235 9.85093e-06 1.01295e-27)
(0.106234 -1.45422e-05 -1.35965e-23)
(0.106211 9.92327e-06 7.22811e-23)
(0.106399 5.72668e-06 5.60168e-26)
(0.1064 -1.19339e-05 -2.10003e-24)
(0.10621 -1.52683e-05 2.67876e-23)
(0.106414 5.22358e-06 5.64507e-23)
(0.106427 4.68017e-06 -5.64043e-23)
(0.106414 -1.1623e-05 4.22689e-24)
(0.106427 -1.13089e-05 8.36202e-24)
(0.106186 1.12672e-05 -7.0326e-23)
(0.106186 -1.68936e-05 -1.76291e-23)
(0.10644 4.18456e-06 0)
(0.10644 -1.10151e-05 -8.24779e-24)
(0.10616 1.13774e-05 8.69164e-27)
(0.10616 -1.82995e-05 -8.71343e-27)
(0.106452 3.71032e-06 0)
(0.106452 -1.06788e-05 0)
(0.106133 1.13379e-05 0)
(0.106133 -1.98727e-05 0)
(0.106463 3.30638e-06 0)
(0.106463 -1.03901e-05 3.96883e-24)
(0.106105 1.14085e-05 -3.64377e-23)
(0.106104 -2.12946e-05 -8.89376e-27)
(0.106474 2.90283e-06 2.08115e-25)
(0.106474 -1.004e-05 -4.2388e-24)
(0.106075 1.15948e-05 3.66119e-23)
(0.106074 -2.26903e-05 0)
(0.106484 2.4775e-06 0)
(0.106485 -9.69117e-06 0)
(0.106044 1.22425e-05 -2.3158e-24)
(0.106043 -2.381e-05 3.97367e-23)
(0.106494 1.9749e-06 2.57735e-23)
(0.106494 -9.22194e-06 0)
(0.106011 1.30054e-05 -1.89024e-25)
(0.106011 -2.51929e-05 -3.76095e-23)
(0.106504 1.29308e-06 -3.85592e-23)
(0.106504 -8.85397e-06 -1.11949e-23)
(0.105977 1.31389e-05 3.83442e-23)
(0.105977 -2.62593e-05 0)
(0.106512 4.69968e-07 1.27061e-23)
(0.106513 -8.52483e-06 7.46683e-24)
(0.10594 1.41662e-05 -1.93985e-23)
(0.105941 -2.76322e-05 3.93429e-23)
(0.106521 -4.02285e-07 -5.08132e-23)
(0.106522 -7.5942e-06 5.72711e-23)
(0.105901 1.39615e-05 2.00092e-23)
(0.105902 -2.83402e-05 6.33203e-25)
(0.10653 -1.32672e-06 0)
(0.10653 -7.22492e-06 2.73227e-23)
(0.10586 1.47859e-05 -4.02461e-23)
(0.105861 -2.94117e-05 8.05227e-23)
(0.106539 -1.24638e-06 0)
(0.106538 -7.73058e-06 0)
(0.105903 5.47516e-05 -1.9799e-23)
(0.105862 5.8276e-05 -8.01531e-23)
(0.105816 1.56108e-05 0)
(0.105817 -3.09787e-05 -4.10337e-23)
(0.105979 4.83552e-05 -1.24476e-23)
(0.105942 5.15678e-05 2.44288e-24)
(0.106047 4.35177e-05 0)
(0.106013 4.59847e-05 -4.01665e-23)
(0.106108 4.03502e-05 -7.7591e-26)
(0.106078 4.18088e-05 0)
(0.106163 3.7527e-05 0)
(0.106136 3.89828e-05 0)
(0.106213 3.41608e-05 0)
(0.106189 3.5841e-05 0)
(0.106259 3.19377e-05 1.76008e-23)
(0.106236 3.33357e-05 4.43325e-24)
(0.106299 2.91386e-05 -1.69776e-23)
(0.10628 3.06438e-05 -1.75795e-23)
(0.106337 2.59984e-05 3.01774e-23)
(0.106319 2.72862e-05 3.85842e-23)
(0.106371 2.29074e-05 0)
(0.106354 2.4526e-05 0)
(0.106401 1.96433e-05 -1.32913e-25)
(0.106386 2.12656e-05 0)
(0.106428 1.69114e-05 0)
(0.106415 1.82139e-05 0)
(0.106453 1.45379e-05 0)
(0.106441 1.56962e-05 0)
(0.106475 1.24773e-05 0)
(0.106464 1.34826e-05 0)
(0.106495 1.06237e-05 0)
(0.106485 1.15291e-05 0)
(0.106513 8.92346e-06 0)
(0.106504 9.74783e-06 0)
(0.10653 6.69748e-06 -2.07943e-23)
(0.106522 8.12643e-06 0)
(0.106539 5.63608e-06 -6.72815e-24)
(0.106547 -1.60901e-06 6.56432e-24)
(0.106546 -7.82215e-06 -6.50969e-24)
(0.106522 -1.59845e-05 0)
(0.106538 -1.44973e-05 -2.6705e-23)
(0.10653 -1.49215e-05 -1.37309e-23)
(0.106504 -1.83356e-05 3.75114e-24)
(0.106514 -1.70201e-05 -1.47e-23)
(0.106485 -2.02448e-05 1.21403e-25)
(0.106495 -1.94797e-05 0)
(0.106464 -2.16438e-05 0)
(0.106475 -2.09336e-05 0)
(0.10644 -2.31607e-05 0)
(0.106452 -2.23744e-05 0)
(0.106414 -2.48906e-05 0)
(0.106427 -2.39867e-05 1.59345e-29)
(0.106385 -2.68908e-05 1.34245e-25)
(0.1064 -2.58303e-05 0)
(0.106353 -2.97939e-05 0)
(0.106369 -2.84099e-05 0)
(0.106318 -3.18347e-05 0)
(0.106336 -3.09303e-05 0)
(0.106279 -3.45688e-05 0)
(0.106299 -3.29167e-05 -8.91879e-24)
(0.106235 -3.85855e-05 2.33763e-24)
(0.106258 -3.70527e-05 -1.14947e-23)
(0.106188 -4.38863e-05 0)
(0.106212 -4.06883e-05 -9.34804e-24)
(0.106135 -4.93069e-05 0)
(0.106162 -4.65651e-05 0)
(0.106076 -5.52373e-05 0)
(0.106106 -5.22127e-05 0)
(0.106013 -6.15346e-05 0)
(0.106045 -5.84338e-05 0)
(0.105943 -6.73723e-05 -1.0163e-23)
(0.105979 -6.43021e-05 0)
(0.105864 -7.31271e-05 -4.12052e-23)
(0.105905 -7.00478e-05 -1.02239e-23)
(0.105821 -7.6678e-05 4.19492e-23)
(0.105817 6.23049e-05 7.9458e-23)
(0.106547 4.94044e-06 1.31716e-23)
(0.106546 -1.42459e-05 -2.57538e-23)
(0.10577 -3.28743e-05 0)
(0.105775 -8.09931e-05 0)
(0.105771 6.64507e-05 0)
(0.105769 1.6045e-05 0)
(0.105908 9.46355e-05 0)
(0.105823 0.000107266 1.99351e-23)
(0.105867 0.000100587 2.01158e-23)
(0.105984 8.36874e-05 2.55782e-23)
(0.105947 8.88262e-05 -5.11092e-24)
(0.106051 7.53624e-05 7.9138e-26)
(0.106018 7.8943e-05 0)
(0.106112 6.9338e-05 0)
(0.106082 7.22247e-05 0)
(0.106167 6.40077e-05 0)
(0.10614 6.66257e-05 0)
(0.106217 5.90979e-05 0)
(0.106192 6.14488e-05 0)
(0.106262 5.33082e-05 0)
(0.10624 5.61615e-05 0)
(0.106302 4.81221e-05 -7.12183e-26)
(0.106282 5.09796e-05 1.83582e-23)
(0.106339 4.33107e-05 -6.84669e-26)
(0.106321 4.54267e-05 -3.58851e-23)
(0.106373 3.85083e-05 0)
(0.106356 4.08139e-05 0)
(0.106402 3.41018e-05 6.63974e-26)
(0.106388 3.62569e-05 0)
(0.106429 3.01955e-05 0)
(0.106416 3.20647e-05 0)
(0.106454 2.67202e-05 0)
(0.106442 2.83842e-05 0)
(0.106476 2.35434e-05 0)
(0.106465 2.50706e-05 0)
(0.106496 2.06386e-05 0)
(0.106486 2.20515e-05 0)
(0.106514 1.78637e-05 0)
(0.106505 1.92431e-05 0)
(0.106531 1.45362e-05 1.42017e-23)
(0.106523 1.62639e-05 0)
(0.106554 -2.38345e-06 0)
(0.106554 4.51191e-06 1.2901e-23)
(0.106547 1.12283e-05 0)
(0.106539 1.26883e-05 1.3851e-23)
(0.106539 -2.20818e-05 2.75618e-23)
(0.106547 -2.13364e-05 6.78014e-24)
(0.106554 -1.39209e-05 5.28805e-23)
(0.106554 -7.58727e-06 0)
(0.106523 -2.50648e-05 0)
(0.106531 -2.3315e-05 -4.16003e-23)
(0.106505 -2.79638e-05 1.18206e-25)
(0.106514 -2.65032e-05 1.47894e-23)
(0.106486 -3.0253e-05 -1.21403e-25)
(0.106496 -2.91027e-05 0)
(0.106465 -3.26993e-05 0)
(0.106476 -3.14511e-05 0)
(0.106441 -3.54073e-05 0)
(0.106453 -3.40116e-05 0)
(0.106415 -3.84596e-05 0)
(0.106429 -3.68798e-05 -1.59344e-29)
(0.106387 -4.1888e-05 -2.68453e-25)
(0.106401 -4.01172e-05 0)
(0.106355 -4.62006e-05 0)
(0.106371 -4.38387e-05 0)
(0.10632 -5.07965e-05 4.5047e-24)
(0.106338 -4.84262e-05 0)
(0.106281 -5.59064e-05 0)
(0.106301 -5.31689e-05 -4.4859e-24)
(0.106238 -6.20568e-05 9.37353e-24)
(0.10626 -5.88967e-05 9.31519e-24)
(0.10619 -6.90516e-05 0)
(0.106215 -6.55655e-05 0)
(0.106138 -7.68009e-05 0)
(0.106165 -7.28153e-05 0)
(0.10608 -8.53538e-05 0)
(0.10611 -8.0993e-05 0)
(0.106017 -9.44102e-05 0)
(0.106049 -8.98726e-05 0)
(0.105947 -0.000103554 1.62986e-25)
(0.105983 -9.89866e-05 0)
(0.10587 -0.000113522 -1.6532e-25)
(0.10591 -0.000108343 0)
(0.105782 -0.000125672 -4.32295e-23)
(0.105827 -0.000119406 4.32096e-23)
(0.105777 0.000114384 4.05093e-23)
(0.105726 -8.6167e-05 0)
(0.105734 -0.000133422 -8.79807e-23)
(0.105721 -3.46807e-05 0)
(0.106554 1.05946e-05 0)
(0.106555 -2.03885e-05 -6.58441e-24)
(0.105721 7.02912e-05 1.0261e-22)
(0.105728 0.00012194 4.10277e-23)
(0.105675 -9.1642e-05 2.22131e-23)
(0.105683 -0.000141612 1.11176e-22)
(0.105719 1.71017e-05 0)
(0.106548 1.92329e-05 5.42615e-23)
(0.106555 1.72932e-05 -2.68147e-23)
(0.106562 -1.39374e-05 -1.30422e-23)
(0.106562 -1.94265e-05 6.48749e-23)
(0.105739 0.000172659 1.4386e-22)
(0.105676 0.000130172 -8.08304e-23)
(0.105632 0.000197786 -3.65866e-22)
(0.105687 0.000184475 -8.2119e-23)
(0.105832 0.00015202 4.01534e-23)
(0.105787 0.000162004 -1.22513e-22)
(0.105916 0.000133923 -4.10445e-23)
(0.105875 0.000142698 -3.09363e-23)
(0.105991 0.000118956 -1.02343e-23)
(0.105954 0.000126067 -1.02512e-23)
(0.106058 0.000107281 -7.9138e-26)
(0.106025 0.00011262 0)
(0.106118 9.81114e-05 0)
(0.106089 0.000102503 0)
(0.106172 9.0075e-05 0)
(0.106146 9.40021e-05 0)
(0.106221 8.25273e-05 0)
(0.106197 8.62609e-05 0)
(0.106266 7.49234e-05 0)
(0.106244 7.8632e-05 0)
(0.106306 6.74294e-05 0)
(0.106286 7.10448e-05 0)
(0.106342 6.03138e-05 3.09671e-30)
(0.106324 6.3996e-05 0)
(0.106375 5.40736e-05 0)
(0.106359 5.70279e-05 0)
(0.106405 4.82804e-05 6.63977e-26)
(0.10639 5.113e-05 0)
(0.106431 4.30209e-05 0)
(0.106418 4.55717e-05 0)
(0.106456 3.83133e-05 0)
(0.106444 4.05988e-05 0)
(0.106478 3.40633e-05 0)
(0.106467 3.6132e-05 0)
(0.106498 3.02049e-05 0)
(0.106488 3.20926e-05 0)
(0.106516 2.65992e-05 0)
(0.106507 2.83909e-05 0)
(0.106533 2.28671e-05 7.2395e-24)
(0.106524 2.47229e-05 -3.64174e-24)
(0.10654 2.1006e-05 -2.76667e-23)
(0.106561 -2.47778e-06 -6.17567e-24)
(0.106562 9.94164e-06 2.58473e-23)
(0.106561 3.4693e-06 -1.9735e-23)
(0.106561 -7.26973e-06 0)
(0.10654 -3.0516e-05 -2.05474e-23)
(0.106555 -2.70489e-05 -5.93896e-23)
(0.106547 -2.86208e-05 4.77756e-23)
(0.106524 -3.42887e-05 0)
(0.106532 -3.25219e-05 0)
(0.106507 -3.71619e-05 3.91198e-30)
(0.106516 -3.56215e-05 0)
(0.106487 -4.02935e-05 0)
(0.106497 -3.86857e-05 0)
(0.106466 -4.37762e-05 -1.24616e-25)
(0.106477 -4.19905e-05 0)
(0.106443 -4.76604e-05 0)
(0.106455 -4.56628e-05 0)
(0.106417 -5.20242e-05 0)
(0.10643 -4.97758e-05 0)
(0.106389 -5.69412e-05 1.34227e-25)
(0.106403 -5.44081e-05 0)
(0.106357 -6.26372e-05 1.37434e-25)
(0.106373 -5.96514e-05 0)
(0.106322 -6.90129e-05 0)
(0.10634 -6.57205e-05 0)
(0.106284 -7.63817e-05 0)
(0.106303 -7.26394e-05 0)
(0.106241 -8.45872e-05 0)
(0.106263 -8.02078e-05 0)
(0.106194 -9.37695e-05 0)
(0.106218 -8.909e-05 0)
(0.106142 -0.000104001 -1.53421e-25)
(0.106169 -9.87532e-05 0)
(0.106086 -0.000115217 0)
(0.106115 -0.000109496 0)
(0.106023 -0.000127253 0)
(0.106055 -0.000121151 0)
(0.105954 -0.00013995 4.62879e-30)
(0.105989 -0.000133527 0)
(0.105877 -0.000153604 -1.17481e-30)
(0.105917 -0.000146633 0)
(0.105791 -0.000169696 1.71255e-25)
(0.105836 -0.000161095 0)
(0.105694 -0.000190078 -9.00947e-23)
(0.105744 -0.000179223 2.21599e-23)
(0.105628 -0.00015002 2.26636e-23)
(0.105641 -0.000201816 4.50039e-23)
(0.105669 7.42954e-05 -4.01401e-23)
(0.105669 -3.73457e-05 -4.30599e-23)
(0.106562 1.61006e-05 6.57766e-24)
(0.106562 -2.58781e-05 4.66866e-23)
(0.10562 0.000137162 4.92171e-24)
(0.105619 -9.74999e-05 0)
(0.105566 0.000202574 5.58115e-22)
(0.105585 -0.000214089 6.9375e-23)
(0.105572 -0.000159491 9.25138e-23)
(0.105572 0.000272094 -9.41638e-22)
(0.105518 0.000299108 1.67136e-22)
(0.105667 1.80458e-05 0)
(0.105656 0.000247649 9.25663e-23)
(0.105612 0.000264262 4.81901e-23)
(0.105754 0.000220597 8.34666e-23)
(0.105705 0.00023369 -1.27341e-22)
(0.105845 0.000194673 -4.16067e-23)
(0.1058 0.000207542 -2.07814e-23)
(0.105927 0.000172006 2.08703e-23)
(0.105887 0.000182718 2.11269e-23)
(0.106001 0.000153544 0)
(0.105965 0.000162304 -4.96541e-26)
(0.106067 0.000138753 0)
(0.106034 0.000145781 0)
(0.106126 0.000126435 7.75544e-26)
(0.106097 0.000132347 0)
(0.106179 0.000115613 0)
(0.106153 0.000120895 0)
(0.106228 0.000105521 0)
(0.106204 0.000110506 0)
(0.106271 9.57779e-05 0)
(0.10625 0.000100593 0)
(0.10631 8.63709e-05 7.11869e-26)
(0.106291 9.09702e-05 0)
(0.106346 7.75e-05 -1.15431e-31)
(0.106329 8.19284e-05 0)
(0.106378 6.95124e-05 0)
(0.106363 7.337e-05 0)
(0.106408 6.222e-05 -1.32796e-25)
(0.106393 6.57893e-05 0)
(0.106434 5.56288e-05 0)
(0.106421 5.88331e-05 0)
(0.106458 4.97245e-05 0)
(0.106446 5.25964e-05 0)
(0.10648 4.44183e-05 0)
(0.106469 4.70022e-05 0)
(0.1065 3.96323e-05 0)
(0.10649 4.19668e-05 0)
(0.106518 3.52533e-05 0)
(0.106509 3.74075e-05 0)
(0.106534 3.10723e-05 -3.61751e-24)
(0.106526 3.30487e-05 0)
(0.106549 2.72491e-05 0)
(0.106542 2.92097e-05 -7.02637e-24)
(0.106563 2.26408e-05 3.61889e-27)
(0.106556 2.49189e-05 0)
(0.106569 9.06653e-06 -2.62063e-23)
(0.106569 2.0841e-05 1.58445e-24)
(0.106569 1.53348e-05 1.28501e-23)
(0.106569 -2.16138e-06 9.42776e-24)
(0.106568 3.10223e-06 -6.50758e-24)
(0.106569 -1.4027e-05 -3.27551e-24)
(0.106569 -7.61834e-06 3.27022e-24)
(0.106568 -2.54276e-05 0)
(0.106568 -1.90184e-05 -2.97167e-23)
(0.106555 -3.48211e-05 -1.33558e-23)
(0.106569 -3.22587e-05 -2.55665e-23)
(0.106562 -3.33231e-05 5.88364e-23)
(0.106541 -3.85448e-05 -6.9946e-24)
(0.106548 -3.65598e-05 0)
(0.106525 -4.27447e-05 0)
(0.106533 -4.07443e-05 0)
(0.106508 -4.62762e-05 3.95677e-30)
(0.106517 -4.45303e-05 0)
(0.106489 -5.02792e-05 0)
(0.106499 -4.82136e-05 0)
(0.106468 -5.47743e-05 1.24616e-25)
(0.106479 -5.24652e-05 0)
(0.106445 -5.98037e-05 0)
(0.106457 -5.7218e-05 0)
(0.10642 -6.54493e-05 0)
(0.106433 -6.25439e-05 0)
(0.106391 -7.18147e-05 0)
(0.106406 -6.85348e-05 0)
(0.10636 -7.90516e-05 4.65858e-30)
(0.106376 -7.53145e-05 0)
(0.106326 -8.71755e-05 0)
(0.106343 -8.29911e-05 0)
(0.106288 -9.6386e-05 0)
(0.106307 -9.16683e-05 0)
(0.106246 -0.000106678 0)
(0.106267 -0.000101336 0)
(0.1062 -0.000118147 0)
(0.106223 -0.000112271 0)
(0.106149 -0.000130832 1.53421e-25)
(0.106175 -0.000124337 0)
(0.106093 -0.000144735 0)
(0.106121 -0.000137634 0)
(0.106031 -0.000159825 0)
(0.106063 -0.000152136 0)
(0.105963 -0.000176117 -1.62975e-25)
(0.105998 -0.000167814 0)
(0.105887 -0.000193826 1.6615e-25)
(0.105926 -0.000184779 0)
(0.105802 -0.000213511 -1.6932e-25)
(0.105846 -0.00020335 0)
(0.105707 -0.000237201 2.22954e-23)
(0.105756 -0.000224545 -4.39544e-23)
(0.1056 -0.000266599 -2.25087e-23)
(0.105655 -0.000251184 4.56553e-23)
(0.105525 -0.000227087 8.30356e-25)
(0.105542 -0.000282701 4.62579e-23)
(0.105614 7.81563e-05 -4.12384e-23)
(0.105614 -4.00798e-05 0)
(0.105563 0.00014594 -4.00061e-22)
(0.105562 -0.000101629 0)
(0.106564 3.0945e-05 -6.59029e-24)
(0.10657 2.91333e-05 4.82791e-24)
(0.106575 -2.45842e-05 -2.51841e-23)
(0.106575 -3.11597e-05 -2.85453e-23)
(0.1055 0.000201883 -3.92523e-22)
(0.105511 -0.000169378 -9.34189e-23)
(0.105471 0.000302894 0)
(0.105585 0.000331208 -1.08768e-22)
(0.105462 -0.000240922 -4.58782e-23)
(0.10548 -0.00030009 7.02448e-23)
(0.10553 0.000347431 2.18331e-22)
(0.105612 1.86217e-05 0)
(0.105678 0.000298215 0)
(0.105632 0.000315824 -9.68571e-23)
(0.105771 0.000266531 0)
(0.105725 0.000282063 0)
(0.10586 0.000236092 0)
(0.105817 0.000250951 2.15298e-23)
(0.10594 0.00020998 0)
(0.105901 0.000222508 0)
(0.106012 0.000188046 0)
(0.105977 0.000198469 0)
(0.106077 0.000169778 0)
(0.106045 0.000178521 0)
(0.106136 0.00015429 -7.75544e-26)
(0.106107 0.000161742 0)
(0.106188 0.000140654 0)
(0.106162 0.000147299 0)
(0.106235 0.000128079 0)
(0.106212 0.000134268 0)
(0.106277 0.000116155 0)
(0.106257 0.000122041 0)
(0.106316 0.000104851 8.467e-31)
(0.106297 0.000110408 0)
(0.106351 9.43077e-05 -7.27927e-31)
(0.106334 9.94919e-05 0)
(0.106383 8.46949e-05 0)
(0.106367 8.93741e-05 0)
(0.106411 7.59725e-05 -3.68136e-31)
(0.106397 8.02298e-05 0)
(0.106437 6.81014e-05 0)
(0.106425 7.19316e-05 0)
(0.106461 6.10352e-05 0)
(0.106449 6.44736e-05 0)
(0.106482 5.46863e-05 0)
(0.106472 5.77769e-05 0)
(0.106502 4.89765e-05 0)
(0.106492 5.17567e-05 0)
(0.10652 4.385e-05 0)
(0.106511 4.63414e-05 0)
(0.106536 3.93777e-05 0)
(0.106528 4.15678e-05 0)
(0.10655 3.45304e-05 6.981e-24)
(0.106543 3.68567e-05 7.13306e-24)
(0.106557 3.25649e-05 -1.341e-23)
(0.106575 8.39161e-06 -1.28725e-23)
(0.106576 1.99423e-05 0)
(0.106575 1.46262e-05 -1.30001e-23)
(0.106575 -2.18159e-06 0)
(0.106575 3.23653e-06 1.31372e-23)
(0.106575 -1.40956e-05 1.96061e-23)
(0.106575 -8.17437e-06 -6.62599e-24)
(0.106575 -1.8912e-05 -3.8527e-23)
(0.106556 -4.25935e-05 6.73769e-24)
(0.106569 -3.82073e-05 2.51314e-23)
(0.106563 -4.10528e-05 0)
(0.106543 -4.67799e-05 -1.39388e-23)
(0.10655 -4.45349e-05 1.39848e-23)
(0.106527 -5.09306e-05 0)
(0.106535 -4.90043e-05 0)
(0.10651 -5.52477e-05 4.44761e-30)
(0.106519 -5.30433e-05 0)
(0.106491 -6.01441e-05 0)
(0.106501 -5.76208e-05 0)
(0.106471 -6.56466e-05 0)
(0.106481 -6.28182e-05 0)
(0.106448 -7.18083e-05 0)
(0.10646 -6.86409e-05 0)
(0.106423 -7.87167e-05 0)
(0.106436 -7.51635e-05 0)
(0.106395 -8.64852e-05 1.34241e-25)
(0.106409 -8.24859e-05 0)
(0.106364 -9.52533e-05 -1.37439e-25)
(0.10638 -9.07384e-05 0)
(0.10633 -0.00010509 0)
(0.106348 -0.000100031 0)
(0.106293 -0.000116126 0)
(0.106312 -0.000110461 0)
(0.106252 -0.000128443 0)
(0.106273 -0.000122108 0)
(0.106206 -0.000142113 0)
(0.106229 -0.000135109 0)
(0.106156 -0.000157196 0)
(0.106182 -0.000149475 0)
(0.106101 -0.000173765 0)
(0.106129 -0.000165292 0)
(0.106041 -0.000191896 -1.5981e-25)
(0.106072 -0.000182631 0)
(0.105974 -0.000211733 1.62991e-25)
(0.106008 -0.000201587 0)
(0.105899 -0.000233586 -1.66167e-25)
(0.105937 -0.000222386 0)
(0.105815 -0.000257915 0)
(0.105858 -0.000245401 0)
(0.105722 -0.000285375 0)
(0.10577 -0.000271199 0)
(0.105618 -0.000318209 1.77851e-25)
(0.105671 -0.000300723 2.25029e-23)
(0.105501 -0.000358475 -1.17776e-22)
(0.105561 -0.0003376 0)
(0.105414 -0.000319369 -6.96667e-23)
(0.105437 -0.000380905 -8.31929e-25)
(0.105557 8.20444e-05 1.28979e-22)
(0.105556 -4.26344e-05 0)
(0.106576 2.66368e-05 -2.50983e-23)
(0.106576 -3.64443e-05 -4.83869e-23)
(0.105497 0.000146124 -6.86695e-23)
(0.105448 0.000255551 8.88934e-25)
(0.105435 0.000201621 2.00178e-22)
(0.105501 -0.000106683 0)
(0.105448 -0.000178323 2.34786e-23)
(0.10547 0.00036385 -1.99847e-22)
(0.105406 0.000364448 1.72966e-22)
(0.105395 0.000285824 -1.71675e-22)
(0.105396 -0.000255141 -7.06047e-23)
(0.105346 -0.00033893 4.72749e-23)
(0.105369 -0.000405632 4.64184e-23)
(0.105555 1.85976e-05 0)
(0.105601 0.00039001 6.07999e-24)
(0.105481 0.000434239 -9.0658e-25)
(0.105542 0.000411734 4.70845e-23)
(0.105698 0.000349022 4.65949e-23)
(0.105651 0.000368886 -4.68369e-23)
(0.10579 0.000311415 8.54868e-26)
(0.105744 0.000329983 0)
(0.105876 0.000277508 0)
(0.105834 0.000293914 0)
(0.105954 0.000247679 0)
(0.105916 0.000262091 0)
(0.106025 0.000222025 0)
(0.105991 0.000234315 0)
(0.106089 0.000200249 7.91467e-26)
(0.106058 0.000210699 0)
(0.106146 0.000181587 0)
(0.106119 0.000190586 0)
(0.106198 0.000165129 0)
(0.106173 0.00017314 0)
(0.106244 0.000150098 0)
(0.106221 0.000157472 0)
(0.106285 0.000136053 0)
(0.106265 0.000142964 0)
(0.106322 0.000122901 -7.11877e-26)
(0.106304 0.00012936 0)
(0.106357 0.000110715 -9.52112e-31)
(0.10634 0.000116687 0)
(0.106388 9.95851e-05 0)
(0.106372 0.000105013 0)
(0.106416 8.94945e-05 1.32797e-25)
(0.106402 9.44163e-05 0)
(0.106441 8.03813e-05 0)
(0.106429 8.48193e-05 0)
(0.106465 7.21814e-05 0)
(0.106453 7.61733e-05 0)
(0.106486 6.48075e-05 0)
(0.106475 6.83971e-05 0)
(0.106505 5.81806e-05 0)
(0.106495 6.14057e-05 0)
(0.106522 5.22467e-05 0)
(0.106514 5.51282e-05 0)
(0.106538 4.70327e-05 1.13601e-25)
(0.10653 4.95618e-05 0)
(0.106553 4.21061e-05 -7.0115e-24)
(0.106546 4.46719e-05 0)
(0.106565 3.68141e-05 6.6772e-24)
(0.106559 3.94526e-05 0)
(0.106578 3.22087e-05 6.38931e-24)
(0.106572 3.44906e-05 -6.52424e-24)
(0.106582 1.90044e-05 1.26261e-23)
(0.106583 2.95393e-05 0)
(0.106582 2.51472e-05 1.87929e-23)
(0.106581 8.4034e-06 0)
(0.106581 1.34335e-05 0)
(0.106581 -2.49046e-06 0)
(0.106581 3.28265e-06 0)
(0.106581 -1.42986e-05 0)
(0.106581 -8.38021e-06 0)
(0.106581 -2.41828e-05 2.56668e-23)
(0.106581 -1.90244e-05 6.38207e-24)
(0.106582 -3.50612e-05 6.31876e-24)
(0.106581 -2.96777e-05 5.03355e-23)
(0.10657 -4.47208e-05 3.27598e-23)
(0.106582 -4.09033e-05 6.29583e-24)
(0.106576 -4.26423e-05 -1.2775e-23)
(0.106558 -4.95402e-05 6.73192e-24)
(0.106564 -4.69992e-05 -4.03519e-23)
(0.106544 -5.4543e-05 1.05903e-29)
(0.106551 -5.20686e-05 0)
(0.106529 -5.89565e-05 0)
(0.106537 -5.66776e-05 0)
(0.106512 -6.4075e-05 4.90428e-30)
(0.106521 -6.14386e-05 0)
(0.106494 -6.98648e-05 0)
(0.106503 -6.6884e-05 0)
(0.106474 -7.63667e-05 0)
(0.106484 -7.30243e-05 0)
(0.106451 -8.36453e-05 0)
(0.106463 -7.99045e-05 0)
(0.106426 -9.17949e-05 0)
(0.106439 -8.76053e-05 0)
(0.106399 -0.000100934 -2.68486e-25)
(0.106413 -9.62334e-05 0)
(0.106369 -0.000111197 0)
(0.106384 -0.000105919 0)
(0.106336 -0.000122687 0)
(0.106353 -0.000116782 0)
(0.106299 -0.00013552 0)
(0.106318 -0.000128933 0)
(0.106258 -0.000149795 0)
(0.106279 -0.000142469 0)
(0.106214 -0.000165601 -1.50247e-25)
(0.106237 -0.000157504 0)
(0.106165 -0.00018304 0)
(0.10619 -0.00017411 0)
(0.106111 -0.000202247 0)
(0.106139 -0.000192414 0)
(0.106052 -0.000223393 1.5981e-25)
(0.106082 -0.000212566 0)
(0.105986 -0.000246725 9.91033e-30)
(0.10602 -0.000234767 0)
(0.105913 -0.000272629 3.32346e-25)
(0.10595 -0.000259329 0)
(0.105831 -0.000301622 0)
(0.105873 -0.000286703 0)
(0.105739 -0.000334294 0)
(0.105786 -0.000317453 0)
(0.105637 -0.000371396 7.60452e-30)
(0.10569 -0.000352276 0)
(0.105523 -0.00041416 0)
(0.105582 -0.000391942 0)
(0.105396 -0.000466576 -7.04314e-23)
(0.105461 -0.000438909 0)
(0.105298 -0.000430998 -8.22146e-25)
(0.105326 -0.000496957 1.19918e-22)
(0.105494 8.3958e-05 0)
(0.105419 0.000448708 2.72447e-22)
(0.10543 0.000146989 4.7035e-23)
(0.106579 3.76207e-05 -6.37728e-24)
(0.106584 3.54636e-05 0)
(0.106587 -3.39389e-05 6.16334e-24)
(0.106588 -3.91543e-05 -1.22152e-23)
(0.105495 -4.46248e-05 0)
(0.105437 -0.000112686 0)
(0.105372 0.000218786 0)
(0.105381 -0.000188014 -2.31244e-23)
(0.105325 -0.000270531 -4.67814e-23)
(0.105272 -0.000360754 0)
(0.105222 -0.000458039 1.20998e-22)
(0.105253 -0.000528242 -9.67003e-23)
(0.105493 1.91135e-05 0)
(0.1055 0.000496586 -2.26576e-26)
(0.105352 0.000465264 8.64393e-23)
(0.105373 0.000542686 -3.09251e-22)
(0.105438 0.000520158 8.97873e-23)
(0.105619 0.00044489 -2.9359e-23)
(0.105561 0.000469975 -4.66837e-23)
(0.105718 0.000398106 0)
(0.10567 0.000420846 0)
(0.10581 0.000355855 -8.54789e-26)
(0.105765 0.000376486 0)
(0.105894 0.000318074 0)
(0.105853 0.000336412 0)
(0.105971 0.000284518 0)
(0.105933 0.000300767 0)
(0.10604 0.000255272 0)
(0.106006 0.000269357 0)
(0.106102 0.000230077 -7.91467e-26)
(0.106072 0.000242207 0)
(0.106158 0.000208261 0)
(0.106131 0.000218799 0)
(0.106208 0.000188993 0)
(0.106184 0.000198361 0)
(0.106253 0.000171538 0)
(0.106231 0.000180076 0)
(0.106293 0.000155428 0)
(0.106274 0.000163332 0)