/*--------------------------------*- C++ -*----------------------------------*\
  =========                 |
  \\      /  F ield         | OpenFOAM: The Open Source CFD Toolbox
   \\    /   O peration     | Website:  https://openfoam.org
    \\  /    A nd           | Version:  10
     \\/     M anipulation  |
\*---------------------------------------------------------------------------*/
FoamFile
{
    format      ascii;
    class       volScalarField;
    location    "37.5";
    object      p;
}
// * * * * * * * * * * * * * * * * * * * * * * * * * * * * * * * * * * * * * //

dimensions      [0 2 -2 0 0 0 0];

internalField   nonuniform List<scalar> 
33313
(
-0.0041445
-0.00527683
-0.00504754
-0.0081899
0.00348803
0.00328262
0.00164674
0.011727
0.0109746
-0.00367092
0.000261414
-0.645748
-0.673534
-0.642816
0.0959532
0.0874926
0.0996073
-0.243106
-0.348657
-0.275844
-0.188742
0.762867
0.668986
0.818645
0.840828
0.207063
0.212475
0.214944
0.270192
0.261186
0.272697
0.230366
0.30468
-0.493835
-0.505857
-0.493528
-0.474597
0.0733128
0.069401
-0.351099
-0.324684
0.309775
0.296978
-0.469652
-0.625354
-0.653721
0.687561
0.782218
-0.00540992
-0.00426563
0.26932
0.297899
0.234512
0.281381
-0.0128673
0.00968898
0.315599
0.454156
0.530366
0.438828
0.313474
0.854563
0.916513
0.942785
-0.00713958
-0.0223708
-0.172526
-0.0805861
-0.077987
-0.230649
-0.20195
-0.121827
-0.443948
-0.394381
-0.416038
-0.348918
-0.277398
-0.246537
-0.242267
-0.30335
0.55573
0.542891
0.570666
-0.475866
-0.520259
-0.588189
-0.709714
-0.691527
-0.684386
0.934111
-0.446997
-0.412688
-0.422913
-0.443137
-0.469504
0.257465
0.246706
0.00326149
0.00133301
-0.157791
-0.147931
-0.211662
-0.212117
-0.220218
-0.251084
-0.512053
-0.555402
-0.544547
-0.509011
-0.0221383
0.164608
0.121735
-0.0182392
-0.702291
-0.824127
-0.64516
0.909349
0.853664
-0.207215
-0.188589
-0.438687
-0.435527
-0.433102
-0.00712916
-0.00586843
-0.0186077
0.231457
-0.0017279
0.00374984
-0.707112
-0.767421
-0.415314
-0.412041
-0.0271878
-0.0352907
-0.190681
-0.11284
-0.0368472
0.0556318
0.264899
0.159275
0.380972
-0.000821079
-0.00437348
-0.00720287
0.102802
0.0994615
0.0988263
0.0959777
0.335891
0.318104
0.343957
0.329723
0.413585
0.416365
0.383865
0.386554
-0.276626
-0.349174
-0.282022
-0.412177
-0.0545432
-0.0106169
0.15221
0.00373773
-0.679291
-0.667263
-0.653452
-0.706181
-0.00172088
-0.000556746
0.116337
0.115309
0.0523054
0.0502146
0.207953
0.191256
-0.675005
-0.70962
0.00692734
0.00258977
0.0258211
0.0221566
0.11013
0.112802
-0.00894623
0.00606478
-0.748885
-0.778986
-0.759144
-0.46972
0.530201
0.505318
-0.816722
-0.832189
0.382385
0.396264
0.39073
0.382694
0.406182
0.399676
0.558311
0.53362
0.162563
0.168178
-0.597533
-0.593112
-0.134307
-0.255588
0.181683
0.176883
0.0016059
0.00480737
0.00170394
-0.000560695
0.0841391
-0.764042
-0.724809
0.315493
0.321052
0.300237
0.292949
-0.166223
-0.156981
-0.141942
0.124119
0.148459
0.118467
-0.645278
-0.641908
-0.645837
-0.0489915
-0.0128412
0.118245
0.0586968
0.0565835
-0.506609
0.273037
-0.0978687
-0.0975782
-0.0980184
-0.0993254
-0.101828
-0.105492
-0.110507
-0.116953
-0.124919
-0.134465
-0.145554
-0.158085
-0.171726
-0.186083
-0.200473
-0.214263
-0.226584
-0.236804
-0.244147
-0.24824
-0.248735
-0.245678
-0.23922
-0.229824
-0.218173
-0.204935
-0.191425
-0.177075
-0.164008
-0.151054
-0.139993
-0.130634
-0.100771
-0.102564
-0.10381
-0.0998598
-0.116132
-0.122581
-0.136236
-0.120692
-0.127868
-0.156996
-0.145837
-0.182345
-0.169443
-0.20686
-0.194859
-0.22608
-0.217455
-0.234901
-0.232018
-0.230912
-0.234506
-0.21503
-0.224268
-0.191204
-0.203778
-0.164838
-0.178002
-0.140756
-0.15228
-0.12181
-0.130555
-0.108762
-0.114564
-0.101023
-0.104301
-0.0982055
-0.0991076
-0.0986684
-0.106363
-0.108316
-0.115449
-0.103321
-0.111397
-0.111515
-0.11155
-0.113953
-0.110791
-0.116491
-0.108071
-0.110848
-0.121722
-0.114168
-0.118215
-0.0962648
-0.103498
-0.0991779
-0.0949491
-0.0948747
-0.0975248
-0.0958347
-0.104602
-0.100407
-0.11726
-0.110203
-0.136041
-0.125858
-0.160975
-0.147794
-0.190257
-0.175284
-0.219556
-0.205252
-0.242946
-0.232364
-0.255033
-0.250646
-0.252617
-0.255705
-0.236179
-0.245947
-0.209959
-0.223972
-0.180889
-0.195309
-0.153906
-0.166817
-0.13194
-0.142118
-0.12347
-0.10814
-0.106618
-0.107997
-0.11754
-0.108577
-0.112782
-0.131009
-0.123533
-0.149993
-0.140028
-0.173062
-0.161312
-0.195771
-0.184696
-0.21361
-0.205587
-0.222069
-0.219221
-0.218691
-0.221881
-0.204224
-0.212669
-0.182243
-0.193868
-0.157762
-0.169998
-0.135375
-0.146083
-0.117872
-0.125927
-0.106023
-0.111256
-0.0993038
-0.102082
-0.0973025
-0.0977072
-0.100445
-0.0982155
-0.109098
-0.104051
-0.124123
-0.115755
-0.107392
-0.109055
-0.130973
-0.134325
-0.103597
-0.104361
-0.100964
-0.121574
-0.105
-0.105531
-0.102634
-0.115845
-0.126595
-0.0977735
-0.108669
-0.102661
-0.0917731
-0.0940615
-0.0912092
-0.0908768
-0.094686
-0.0924733
-0.102696
-0.0980442
-0.116142
-0.108707
-0.135619
-0.125095
-0.161191
-0.1477
-0.191055
-0.175797
-0.220963
-0.206345
-0.2451
-0.234125
-0.257908
-0.2532
-0.255861
-0.258811
-0.239344
-0.249219
-0.21258
-0.226867
-0.182315
-0.197471
-0.154329
-0.167709
-0.131558
-0.142116
-0.115119
-0.122566
-0.109007
-0.105829
-0.105298
-0.103954
-0.105415
-0.112731
-0.108429
-0.124832
-0.118226
-0.141847
-0.132795
-0.16237
-0.151829
-0.183024
-0.17294
-0.199392
-0.192016
-0.207319
-0.204607
-0.20449
-0.20728
-0.191448
-0.199089
-0.171433
-0.182033
-0.149053
-0.160245
-0.128589
-0.13837
-0.112683
-0.119985
-0.102062
-0.106726
-0.096347
-0.0986285
-0.0952134
-0.0951964
-0.0990856
-0.0964915
-0.108705
-0.103131
-0.124981
-0.115965
-0.146361
-0.148745
-0.135839
-0.124095
-0.116126
-0.130894
-0.142497
-0.101515
-0.163817
-0.160623
-0.101721
-0.0987415
-0.101102
-0.133952
-0.124862
-0.0973867
-0.137081
-0.100141
-0.114352
-0.106537
-0.0907673
-0.0949243
-0.0861442
-0.0878833
-0.0862799
-0.0856646
-0.0906526
-0.087962
-0.0994531
-0.0944526
-0.113392
-0.105736
-0.13322
-0.122533
-0.159079
-0.145449
-0.189256
-0.173832
-0.219609
-0.204751
-0.244291
-0.23304
-0.257539
-0.252634
-0.255831
-0.258626
-0.239381
-0.249266
-0.212378
-0.226806
-0.18148
-0.196997
-0.152695
-0.166552
-0.129344
-0.14022
-0.112396
-0.120146
-0.106112
-0.104711
-0.103738
-0.103628
-0.104698
-0.100537
-0.0981873
-0.0988408
-0.106915
-0.103194
-0.11757
-0.111734
-0.132559
-0.124545
-0.150639
-0.141351
-0.169042
-0.160031
-0.183815
-0.177136
-0.191144
-0.188593
-0.188848
-0.191234
-0.177304
-0.184098
-0.159349
-0.168878
-0.139149
-0.149259
-0.120676
-0.129497
-0.106421
-0.112944
-0.0970662
-0.101143
-0.092323
-0.0941425
-0.0920392
-0.0916107
-0.0965924
-0.0936768
-0.106846
-0.10094
-0.123992
-0.114505
-0.149066
-0.135442
-0.181063
-0.18285
-0.164841
-0.101533
-0.134504
-0.123058
-0.141978
-0.155765
-0.0948381
-0.203014
-0.182081
-0.203041
-0.145247
-0.17714
-0.200446
-0.14549
-0.0939788
-0.098554
-0.0947125
-0.132852
-0.149517
-0.102627
-0.119071
-0.110453
-0.0904228
-0.0959074
-0.0826779
-0.0860368
-0.0793793
-0.080504
-0.0803753
-0.0793392
-0.0855627
-0.0824676
-0.0949417
-0.0896959
-0.109183
-0.101401
-0.12914
-0.118406
-0.155008
-0.141384
-0.185147
-0.169743
-0.215488
-0.20063
-0.240248
-0.228943
-0.253743
-0.248688
-0.252436
-0.255024
-0.236361
-0.246073
-0.209524
-0.223904
-0.17847
-0.194093
-0.149367
-0.163387
-0.125741
-0.136771
-0.108478
-0.116361
-0.0969362
-0.102074
-0.0901175
-0.0929725
-0.100914
-0.0932594
-0.0975411
-0.104724
-0.10334
-0.104382
-0.105084
-0.0999503
-0.102632
-0.0952631
-0.0941897
-0.100324
-0.0972843
-0.109411
-0.104385
-0.122356
-0.115415
-0.138117
-0.130012
-0.154265
-0.146339
-0.167387
-0.161431
-0.174066
-0.171701
-0.172254
-0.174259
-0.162171
-0.168133
-0.146267
-0.154726
-0.128272
-0.137284
-0.11183
-0.119672
-0.0992509
-0.104987
-0.0911683
-0.094657
-0.0873744
-0.0887514
-0.0878253
-0.0870546
-0.0929411
-0.0897594
-0.103622
-0.0975142
-0.121149
-0.111458
-0.146967
-0.132968
-0.163368
-0.224992
-0.225771
-0.0881911
-0.143185
-0.12768
-0.155007
-0.171435
-0.0963566
-0.157814
-0.195729
-0.157386
-0.221616
-0.249507
-0.248003
-0.153065
-0.0846871
-0.0825464
-0.136478
-0.163909
-0.103979
-0.119285
-0.111741
-0.0900661
-0.0966908
-0.0797752
-0.0844058
-0.0736921
-0.0762561
-0.071645
-0.0721616
-0.0736289
-0.0721399
-0.0795028
-0.0760934
-0.0893122
-0.0838861
-0.103726
-0.0958885
-0.123607
-0.112943
-0.149157
-0.13572
-0.178805
-0.16366
-0.208653
-0.194027
-0.233144
-0.221933
-0.246735
-0.241585
-0.245857
-0.248195
-0.230382
-0.239788
-0.204066
-0.218207
-0.173322
-0.188817
-0.144348
-0.158319
-0.120746
-0.131775
-0.103416
-0.111331
-0.0917787
-0.0969659
-0.0877501
-0.0926614
-0.0812593
-0.0873103
-0.101108
-0.0972959
-0.105759
-0.103947
-0.106212
-0.106531
-0.102395
-0.10482
-0.0990304
-0.0889262
-0.0919741
-0.0900331
-0.0892364
-0.0886635
-0.0930807
-0.0906993
-0.100584
-0.0963827
-0.111562
-0.105669
-0.125078
-0.118109
-0.139055
-0.132179
-0.150546
-0.14531
-0.156542
-0.154384
-0.155158
-0.156814
-0.14647
-0.151634
-0.132556
-0.139973
-0.116726
-0.124658
-0.102291
-0.109165
-0.0913597
-0.0963227
-0.0845153
-0.0874333
-0.0816209
-0.0825841
-0.0827105
-0.0816509
-0.0882406
-0.0848773
-0.0991249
-0.0929402
-0.116726
-0.106992
-0.142665
-0.12854
-0.178275
-0.159278
-0.222781
-0.199586
-0.272773
-0.270667
-0.247107
-0.143957
-0.125086
-0.169447
-0.189081
-0.292819
-0.294186
-0.171495
-0.216063
-0.16932
-0.243859
-0.080992
-0.0748762
-0.0742431
-0.16231
-0.270961
-0.149804
-0.0948478
-0.129783
-0.180063
-0.101043
-0.109676
-0.105804
-0.0884054
-0.0949046
-0.0767684
-0.0822429
-0.0685051
-0.0721935
-0.0639829
-0.065779
-0.0632272
-0.0631366
-0.0661434
-0.0642387
-0.0725931
-0.0689305
-0.0827186
-0.0771673
-0.0971615
-0.0893486
-0.116733
-0.106269
-0.141629
-0.128559
-0.170391
-0.155704
-0.199372
-0.185159
-0.223286
-0.212314
-0.236771
-0.231608
-0.236314
-0.238381
-0.221637
-0.230615
-0.196201
-0.209909
-0.166196
-0.181347
-0.137757
-0.151484
-0.114502
-0.125379
-0.0973318
-0.105185
-0.0856994
-0.0908936
-0.0785689
-0.0816646
-0.0762837
-0.0930201
-0.0872606
-0.102305
-0.0980803
-0.107897
-0.105612
-0.109157
-0.109089
-0.105911
-0.108086
-0.0868694
-0.089913
-0.0987294
-0.102785
-0.0831153
-0.0846356
-0.0825743
-0.0824465
-0.0852998
-0.0835297
-0.0913027
-0.0878956
-0.100413
-0.0955023
-0.111806
-0.105912
-0.123733
-0.117848
-0.133665
-0.129119
-0.13898
-0.137036
-0.137962
-0.139305
-0.130565
-0.134986
-0.118533
-0.124961
-0.104777
-0.11167
-0.0922793
-0.0982179
-0.0829354
-0.0871558
-0.077268
-0.0796464
-0.0751996
-0.0757885
-0.076827
-0.0755322
-0.0826323
-0.0791638
-0.0935158
-0.0873678
-0.110845
-0.101274
-0.136353
-0.12247
-0.171413
-0.152627
-0.216085
-0.192723
-0.264252
-0.240144
-0.311327
-0.304962
-0.286606
-0.13326
-0.112626
-0.312334
-0.32476
-0.318579
-0.185088
-0.208143
-0.185485
-0.237412
-0.0815756
-0.0744439
-0.180507
-0.266222
-0.170239
-0.292368
-0.154567
-0.0939046
-0.113944
-0.135529
-0.32598
-0.332284
-0.326202
-0.113533
-0.0932993
-0.0680111
-0.067171
-0.0922405
-0.197608
-0.0899864
-0.0924116
-0.0826738
-0.0866984
-0.0724724
-0.0776573
-0.0631626
-0.0675288
-0.0568003
-0.0595725
-0.0538465
-0.0548936
-0.0543102
-0.0536594
-0.0580472
-0.0557804
-0.0649781
-0.0611104
-0.0753056
-0.06969
-0.0896178
-0.0819165
-0.108659
-0.0985123
-0.132625
-0.120065
-0.160191
-0.146122
-0.187977
-0.174342
-0.21101
-0.20042
-0.224201
-0.2191
-0.224153
-0.22593
-0.210436
-0.218884
-0.186183
-0.199293
-0.157293
-0.171906
-0.129761
-0.143064
-0.107164
-0.117743
-0.0904
-0.0980775
-0.0789099
-0.0840668
-0.071806
-0.074913
-0.0695356
-0.0944197
-0.0882856
-0.104617
-0.0998926
-0.111211
-0.108439
-0.113257
-0.11283
-0.110617
-0.112496
-0.103697
-0.107627
-0.315179
-0.327256
-0.315922
-0.0989231
-0.0810708
-0.0884247
-0.0843201
-0.076735
-0.0785265
-0.0754391
-0.0757091
-0.0771222
-0.0759137
-0.0817406
-0.07907
-0.0891188
-0.0851143
-0.0985539
-0.093653
-0.108581
-0.103616
-0.117059
-0.113161
-0.121719
-0.119988
-0.121002
-0.122076
-0.114778
-0.11852
-0.104485
-0.109995
-0.0926738
-0.0985903
-0.0820069
-0.0870613
-0.0741586
-0.0776808
-0.0695854
-0.0714651
-0.0682564
-0.0685157
-0.0703187
-0.0688428
-0.0762665
-0.072764
-0.0869717
-0.080956
-0.103746
-0.0945028
-0.128298
-0.114941
-0.162191
-0.144015
-0.205308
-0.182779
-0.253609
-0.229334
-0.294418
-0.275819
-0.307991
-0.201192
-0.227935
-0.0670152
-0.198978
-0.258511
-0.190669
-0.287083
-0.176753
-0.310699
-0.15758
-0.136304
-0.0894179
-0.110727
-0.334033
-0.33361
-0.30992
-0.321497
-0.0934034
-0.085119
-0.0698026
-0.0822785
-0.0872684
-0.0656474
-0.215571
-0.0738747
-0.072711
-0.0709799
-0.0729571
-0.0648008
-0.0680702
-0.0567515
-0.0608181
-0.0495609
-0.052899
-0.0450064
-0.0469126
-0.0435125
-0.0438748
-0.0450509
-0.0439119
-0.049493
-0.0469161
-0.0568126
-0.0527875
-0.0672228
-0.0616066
-0.081255
-0.0737435
-0.0995873
-0.0898514
-0.122408
-0.110471
-0.14852
-0.135202
-0.174825
-0.161911
-0.196726
-0.186635
-0.209465
-0.20449
-0.209798
-0.211282
-0.197159
-0.205001
-0.174329
-0.186708
-0.146873
-0.160784
-0.120574
-0.133294
-0.0989132
-0.109063
-0.0827713
-0.0901733
-0.0716169
-0.0766352
-0.0645446
-0.0676586
-0.0607835
-0.0623387
-0.0594122
-0.0597934
-0.0829529
-0.0674807
-0.075384
-0.0968089
-0.0901388
-0.108107
-0.10282
-0.115727
-0.112464
-0.118602
-0.117788
-0.116504
-0.118154
-0.109834
-0.113676
-0.0994448
-0.105028
-0.0746371
-0.0780988
-0.0698957
-0.071917
-0.0679595
-0.0685907
-0.0686983
-0.0679997
-0.0720582
-0.0700572
-0.0778656
-0.0746815
-0.0855313
-0.0815276
-0.093839
-0.0897073
-0.100989
-0.0976837
-0.10503
-0.103505
-0.10456
-0.105402
-0.0993739
-0.102511
-0.0906564
-0.0953318
-0.0806363
-0.0856506
-0.0716671
-0.0759012
-0.0651999
-0.0680789
-0.0616214
-0.0630508
-0.0609368
-0.0609144
-0.0633305
-0.061727
-0.0692945
-0.0658249
-0.0796593
-0.073862
-0.0956636
-0.0868648
-0.118935
-0.106285
-0.151075
-0.13383
-0.192216
-0.17064
-0.238587
-0.215259
-0.278762
-0.260291
-0.299725
-0.292193
-0.29476
-0.300385
-0.297759
-0.283031
-0.0595241
-0.216901
-0.247381
-0.0931232
-0.211334
-0.278026
-0.199204
-0.304749
-0.181028
-0.32439
-0.157494
-0.133021
-0.106227
-0.0607742
-0.0796474
-0.335537
-0.328283
-0.309546
-0.280762
-0.266045
-0.055289
-0.0436327
-0.0517451
-0.05155
-0.0389485
-0.233254
-0.0517487
-0.0480291
-0.0549725
-0.0540285
-0.052746
-0.0544179
-0.0477186
-0.0504239
-0.0415886
-0.0446909
-0.0362967
-0.0387055
-0.0333706
-0.0345034
-0.0331501
-0.0329211
-0.0356061
-0.034051
-0.0406414
-0.0378061
-0.0482496
-0.0441183
-0.058629
-0.0530706
-0.0722572
-0.0649987
-0.0897412
-0.0804885
-0.111248
-0.100023
-0.135703
-0.123241
-0.160312
-0.148227
-0.180888
-0.171388
-0.193049
-0.188253
-0.193726
-0.194923
-0.182234
-0.189423
-0.161002
-0.172551
-0.135229
-0.148308
-0.11043
-0.122435
-0.0899412
-0.0995502
-0.0746042
-0.0816476
-0.0639067
-0.0687336
-0.0570045
-0.060046
-0.0531986
-0.0547787
-0.0522252
-0.0685466
-0.0519161
-0.0601526
-0.0850272
-0.0769016
-0.100064
-0.0927369
-0.112718
-0.106788
-0.121434
-0.117648
-0.1252
-0.123969
-0.123643
-0.125083
-0.117143
-0.120984
-0.106515
-0.112306
-0.247827
-0.245432
-0.227417
-0.0999859
-0.0755979
-0.0862708
-0.0805187
-0.0677557
-0.0713309
-0.062743
-0.0649196
-0.0602597
-0.0612003
-0.0601659
-0.0599196
-0.0624022
-0.0609994
-0.0668119
-0.064357
-0.0729082
-0.0696998
-0.0796895
-0.0762982
-0.0856515
-0.082879
-0.0891216
-0.0877919
-0.0888454
-0.0894941
-0.0845612
-0.0871691
-0.0772476
-0.0811753
-0.0688511
-0.073045
-0.0614297
-0.064916
-0.0562142
-0.0585122
-0.0535209
-0.0545526
-0.0533826
-0.0531268
-0.0560092
-0.0543283
-0.061877
-0.0584991
-0.071759
-0.0662564
-0.0867985
-0.0785494
-0.108512
-0.0967197
-0.138452
-0.122384
-0.176987
-0.156727
-0.220822
-0.198704
-0.259786
-0.241794
-0.281133
-0.273454
-0.276402
-0.282195
-0.264598
-0.231273
-0.265308
-0.221555
-0.294436
-0.204911
-0.317775
-0.0528747
-0.0438705
-0.0444662
-0.18219
-0.332165
-0.156028
-0.128113
-0.0998883
-0.0733711
-0.0344874
-0.0497746
-0.330331
-0.31644
-0.29203
-0.259755
-0.204901
-0.222232
-0.0928895
-0.0304405
-0.02081
-0.078961
-0.0852964
-0.0176759
-0.249504
-0.0284004
-0.0245444
-0.0344744
-0.0318
-0.0370286
-0.0363368
-0.0355254
-0.0366937
-0.0317329
-0.0337973
-0.0272102
-0.029473
-0.0235884
-0.0251856
-0.0220528
-0.02253
-0.0229037
-0.022178
-0.0261275
-0.0242251
-0.0316416
-0.0286026
-0.0394361
-0.035249
-0.0496848
-0.0442338
-0.0628094
-0.0558541
-0.079338
-0.0706236
-0.0994098
-0.0889584
-0.122075
-0.110537
-0.144847
-0.133661
-0.163967
-0.155119
-0.175453
-0.17088
-0.176433
-0.177355
-0.166113
-0.172626
-0.146583
-0.157238
-0.122672
-0.134821
-0.09958
-0.110766
-0.0804501
-0.0894292
-0.0660673
-0.0726832
-0.0559468
-0.0605276
-0.0492908
-0.0522407
-0.0454504
-0.0470647
-0.0438892
-0.0444541
-0.0436786
-0.0702795
-0.0615309
-0.0878324
-0.0791138
-0.104354
-0.0962784
-0.118405
-0.111807
-0.128313
-0.123953
-0.133042
-0.131367
-0.13207
-0.133279
-0.125656
-0.129477
-0.114657
-0.12065
-0.100395
-0.107873
-0.0683902
-0.073314
-0.0606113
-0.0641788
-0.0553948
-0.0577001
-0.0524566
-0.0536557
-0.0516452
-0.0517908
-0.0528994
-0.0520199
-0.056088
-0.0542695
-0.0608174
-0.0583013
-0.0662691
-0.0635233
-0.0711884
-0.0688852
-0.0741423
-0.0729935
-0.0740087
-0.0745021
-0.0704949
-0.0726476
-0.0644153
-0.0676821
-0.0574709
-0.0609291
-0.0514392
-0.0542548
-0.0473376
-0.0491205
-0.0454151
-0.0461035
-0.0457254
-0.0452837
-0.0484926
-0.0467804
-0.0541668
-0.0509306
-0.0634524
-0.0583041
-0.0773796
-0.0697597
-0.0973214
-0.0865059
-0.124729
-0.110022
-0.160113
-0.141483
-0.200709
-0.180154
-0.237904
-0.220481
-0.259065
-0.251291
-0.254831
-0.260477
-0.227146
-0.243412
-0.185309
-0.20733
-0.181199
-0.162432
-0.243192
-0.280345
-0.228624
-0.306427
-0.0543595
-0.0454905
-0.207183
-0.324986
-0.180674
-0.333294
-0.151324
-0.121384
-0.092538
-0.0665942
-0.0446838
-0.0923799
-0.0152601
-0.0270139
-0.318474
-0.29871
-0.270174
-0.235797
-0.197434
-0.157436
-0.139948
-0.0134434
-0.00473517
-0.0359586
-0.0363933
-0.00361065
-0.263065
-0.00876735
-0.00648114
-0.0139133
-0.0112927
-0.0183834
-0.0163828
-0.02055
-0.0198555
-0.0196905
-0.0204421
-0.0169691
-0.0184677
-0.013813
-0.0153624
-0.0115743
-0.0125032
-0.0111792
-0.0111191
-0.0129087
-0.011776
-0.0167535
-0.0145727
-0.0226288
-0.0194421
-0.0305116
-0.0263158
-0.040545
-0.0352425
-0.0530881
-0.0464744
-0.0685881
-0.0604479
-0.0871566
-0.0775128
-0.107963
-0.0973839
-0.128826
-0.118576
-0.146418
-0.138259
-0.157171
-0.152843
-0.158415
-0.159086
-0.149238
-0.155082
-0.131452
-0.141184
-0.109513
-0.120671
-0.0882733
-0.0985661
-0.0706406
-0.0789231
-0.0573269
-0.0634608
-0.0478799
-0.0521688
-0.0415666
-0.04438
-0.037766
-0.0393944
-0.0361222
-0.0367476
-0.0359162
-0.0727659
-0.063467
-0.0915625
-0.0821763
-0.109639
-0.100797
-0.125115
-0.117819
-0.136322
-0.131333
-0.142086
-0.139939
-0.141728
-0.14269
-0.135296
-0.139223
-0.123853
-0.130124
-0.10867
-0.116646
-0.121069
-0.118344
-0.100293
-0.100131
-0.071215
-0.0839701
-0.0772737
-0.0609064
-0.0657388
-0.0532885
-0.0567909
-0.047961
-0.0503575
-0.0446575
-0.0460686
-0.0432407
-0.0437186
-0.0436545
-0.0432235
-0.0457971
-0.0445236
-0.0493578
-0.0474334
-0.0536713
-0.0514786
-0.0576907
-0.0557942
-0.0601843
-0.0592009
-0.0601485
-0.060521
-0.0572821
-0.0590483
-0.0522754
-0.054964
-0.0466157
-0.0494216
-0.0418137
-0.044037
-0.0386857
-0.0400206
-0.0374197
-0.0378188
-0.0380852
-0.0375023
-0.04091
-0.0392072
-0.0463098
-0.0432559
-0.054913
-0.0501633
-0.0676265
-0.0606892
-0.0856593
-0.0758957
-0.110327
-0.0970959
-0.142224
-0.125412
-0.179147
-0.160385
-0.213741
-0.197401
-0.234482
-0.226575
-0.231787
-0.236366
-0.20585
-0.22118
-0.165333
-0.186843
-0.143137
-0.251668
-0.291247
-0.0370448
-0.231962
-0.312976
-0.205873
-0.325714
-0.17582
-0.327615
-0.144211
-0.113183
-0.0847597
-0.0601381
-0.0400642
-0.024385
-0.00302775
-0.0121673
-0.300673
-0.276457
-0.245398
-0.210106
-0.172338
-0.134564
-0.0808187
-0.0979852
-0.0912893
-0.00280832
0.00521352
-0.0753343
-0.082168
0.00501073
-0.272787
0.00457271
0.00510887
0.00248396
0.00366111
-0.000629332
0.000979446
-0.00387916
-0.00234828
-0.00569988
-0.00504669
-0.00534237
-0.00577205
-0.00352669
-0.00453896
-0.00148724
-0.00246157
-0.000346207
-0.000744846
-0.000860028
-0.000371501
-0.00328534
-0.00183181
-0.00760542
-0.00521488
-0.0137263
-0.0104463
-0.021607
-0.0174448
-0.0313534
-0.0262333
-0.0432585
-0.0370126
-0.0576903
-0.0501417
-0.0747344
-0.0659068
-0.0936739
-0.0840567
-0.11262
-0.10331
-0.128666
-0.121207
-0.138668
-0.134598
-0.140112
-0.140563
-0.132026
-0.137228
-0.11597
-0.124777
-0.0960528
-0.106187
-0.0767515
-0.0861065
-0.0607049
-0.0682475
-0.0485391
-0.0541529
-0.0398368
-0.0437987
-0.033939
-0.0365789
-0.030297
-0.0318691
-0.0285242
-0.0292211
-0.0282696
-0.0282672
-0.0289754
-0.0285441
-0.056151
-0.0379392
-0.046792
-0.0757626
-0.0658181
-0.0960722
-0.0858785
-0.115742
-0.106117
-0.13274
-0.124688
-0.145364
-0.139692
-0.152229
-0.149584
-0.152496
-0.153209
-0.146091
-0.150094
-0.134017
-0.140633
-0.117735
-0.126237
-0.099125
-0.108657
-0.0631189
-0.0689476
-0.0533252
-0.0579351
-0.0459106
-0.0493388
-0.0405404
-0.0429901
-0.0369571
-0.0385359
-0.0350422
-0.0357954
-0.0347529
-0.0346977
-0.0360178
-0.0352015
-0.0385979
-0.03717
-0.0419536
-0.040227
-0.045207
-0.0436585
-0.0472938
-0.0464605
-0.0473175
-0.0475993
-0.0449881
-0.0464295
-0.0409081
-0.0430943
-0.0363744
-0.038608
-0.0326455
-0.0343534
-0.0303529
-0.0313057
-0.0296331
-0.0297947
-0.0305666
-0.0298837
-0.0333769
-0.0317183
-0.038439
-0.0355981
-0.0463018
-0.0419792
-0.0577439
-0.0515185
-0.0737979
-0.0651239
-0.0956108
-0.0839226
-0.1238
-0.108931
-0.156739
-0.139935
-0.188306
-0.173279
-0.208106
-0.200368
-0.20681
-0.210412
-0.183291
-0.197513
-0.144748
-0.165206
-0.102105
-0.123309
-0.0630657
-0.0818649
-0.063034
-0.0460021
-0.0295645
-0.255851
-0.297043
-0.0893821
-0.231122
-0.313409
-0.200953
-0.319869
-0.168084
-0.315492
-0.135129
-0.104256
-0.0770295
-0.0544056
-0.0363323
-0.0222949
-0.0114991
0.00438082
-0.00306336
-0.278458
-0.251419
-0.219288
-0.184231
-0.148318
-0.113164
-0.079127
-0.046812
-0.0304905
0.00342521
0.0111527
-0.0213192
-0.0216614
0.00991964
-0.277786
0.0126784
0.0120053
0.0132047
0.0130443
0.0126792
0.0130397
0.01111
0.0120155
0.0089693
0.0100345
0.00751185
0.0080825
0.00751516
0.00733143
0.00858713
0.00797533
0.00974292
0.0092177
0.0100327
0.0100456
0.00881652
0.00963481
0.00586764
0.00755997
0.00121244
0.00374654
-0.00504456
-0.00172228
-0.0128407
-0.00875032
-0.0222405
-0.0173299
-0.0334705
-0.0276081
-0.0468247
-0.0398687
-0.0623648
-0.0543396
-0.0794803
-0.0708017
-0.0965609
-0.0881651
-0.1111
-0.104323
-0.120336
-0.116537
-0.121931
-0.122196
-0.114848
-0.119449
-0.100464
-0.108368
-0.0825675
-0.0916729
-0.0652378
-0.0736359
-0.0508199
-0.057601
-0.0398451
-0.0449174
-0.0319322
-0.0355447
-0.0264971
-0.028941
-0.0230462
-0.0245506
-0.0212401
-0.0219576
-0.0208059
-0.0208788
-0.0209977
-0.0389586
-0.0220797
-0.030269
-0.058151
-0.0482821
-0.0791342
-0.0684735
-0.101137
-0.0900944
-0.122457
-0.112009
-0.141116
-0.132236
-0.155267
-0.148863
-0.163291
-0.160124
-0.16419
-0.164658
-0.157816
-0.161884
-0.144957
-0.152094
-0.127504
-0.13672
-0.10745
-0.117704
-0.0143932
-0.016574
-0.000857414
-0.0970053
-0.0664887
-0.0796207
-0.0728942
-0.0549567
-0.0604746
-0.0457232
-0.0500553
-0.0385771
-0.0419074
-0.033221
-0.035692
-0.0294359
-0.0311411
-0.0271242
-0.028099
-0.0262613
-0.0265134
-0.0268063
-0.0263653
-0.0285796
-0.0275606
-0.0311422
-0.0298026
-0.0337511
-0.0324972
-0.0354802
-0.0347825
-0.0355316
-0.035748
-0.0336451
-0.0348147
-0.0303629
-0.032114
-0.0268079
-0.0285444
-0.0240021
-0.0252687
-0.0224129
-0.0230462
-0.0221357
-0.022108
-0.0232586
-0.0225125
-0.0259938
-0.0244076
-0.0306721
-0.0280656
-0.037763
-0.0338813
-0.0479185
-0.0424104
-0.0619939
-0.0544079
-0.0809497
-0.0708085
-0.105365
-0.0924853
-0.134103
-0.119389
-0.162296
-0.148758
-0.180855
-0.173423
-0.180821
-0.183507
-0.159969
-0.172785
-0.124212
-0.14335
-0.0836624
-0.103966
-0.0458955
-0.0640368
-0.0291362
-0.255286
-0.297136
-0.225977
-0.30761
-0.192621
-0.3079
-0.022835
-0.0146815
-0.0150844
-0.158062
-0.297875
-0.124929
-0.0951846
-0.0699694
-0.0495196
-0.033476
-0.0209759
-0.0112535
-0.00377582
0.00840303
0.00207808
-0.253564
-0.225214
-0.193268
-0.159622
-0.126062
-0.0933487
-0.0617676
-0.0317723
0.0111521
-0.0037437
-0.0865172
0.00645454
0.0141193
-0.0697837
-0.0761939
0.0120823
-0.277535
0.0172241
0.0157764
0.0195063
0.0184492
0.0210243
0.0203557
0.0216681
0.021463
0.0213248
0.0216195
0.020185
0.0208085
0.0191361
0.0195889
0.0189146
0.018907
0.0194094
0.0191115
0.0198802
0.0197008
0.0195229
0.0198473
0.017787
0.0188467
0.0144725
0.016328
0.0096122
0.0122285
0.00332054
0.00663783
-0.00431647
-0.000331974
-0.013321
-0.00864108
-0.0238564
-0.0183831
-0.0361487
-0.0297726
-0.0502397
-0.0429847
-0.065618
-0.0578315
-0.0809298
-0.0734008
-0.0940397
-0.0879108
-0.102521
-0.0990021
-0.1042
-0.104315
-0.0980173
-0.102074
-0.0852172
-0.0922574
-0.0693011
-0.0773928
-0.0539307
-0.0613759
-0.0411422
-0.0471603
-0.0313687
-0.0358931
-0.0242652
-0.0275172
-0.0193209
-0.0215545
-0.0161014
-0.0175189
-0.0142943
-0.0150371
-0.013678
-0.0138488
-0.0140209
-0.0137869
-0.0143291
-0.0402453
-0.0311806
-0.0604005
-0.0500001
-0.0828625
-0.071384
-0.10654
-0.0946608
-0.129586
-0.118261
-0.150026
-0.140261
-0.165786
-0.158615
-0.175018
-0.17131
-0.176552
-0.176781
-0.170179
-0.174326
-0.156615
-0.164207
-0.13782
-0.147703
-0.116178
-0.127192
-0.0936916
-0.104925
-0.0575611
-0.0635591
-0.0468685
-0.0519632
-0.0382135
-0.0422882
-0.0313698
-0.0345813
-0.026078
-0.0285432
-0.0221611
-0.0239548
-0.0195464
-0.0206927
-0.0182303
-0.0187262
-0.0181997
-0.0180593
-0.0193227
-0.018634
-0.0212383
-0.0202157
-0.0233095
-0.0223036
-0.0247244
-0.0241495
-0.0247793
-0.0249503
-0.0232588
-0.0242002
-0.0206634
-0.0220386
-0.0179525
-0.0192613
-0.0159286
-0.0168237
-0.0149195
-0.0152917
-0.0149905
-0.0148172
-0.0162337
-0.0154561
-0.0188448
-0.0173533
-0.0231096
-0.0207498
-0.0294206
-0.0259808
-0.0383096
-0.0335049
-0.0504619
-0.0439314
-0.0666464
-0.0580069
-0.0873612
-0.0764404
-0.111837
-0.0992717
-0.136365
-0.124484
-0.15339
-0.146387
-0.154518
-0.156315
-0.136556
-0.147813
-0.104048
-0.121581
-0.0659914
-0.0851864
-0.0297093
-0.0472711
0.000978259
-0.0135594
0.0256641
0.013956
0.022379
0.036317
-0.249893
-0.291423
-0.216859
-0.295992
-0.0235472
-0.0156075
-0.181435
-0.290696
-0.146496
-0.276085
-0.114382
-0.0866492
-0.0638396
-0.0456783
-0.0314018
-0.0202883
-0.0116182
-0.00487489
0.000214926
-0.0825343
0.00970876
0.00406609
-0.227656
-0.19933
-0.168642
-0.137138
-0.105896
-0.0754141
-0.0461096
-0.0182439
0.00809426
-0.00783005
-0.00811108
0.00679709
0.0148215
0.0325575
0.0460362
0.0119926
-0.27195
0.0193369
0.0172767
0.0228769
0.0212291
0.025737
0.0243782
0.0279533
0.0269143
0.0294426
0.0287914
0.0300713
0.0298746
0.0298293
0.0300393
0.0292349
0.0295299
0.0289292
0.0290231
0.0290005
0.0289397
0.0289471
0.0290315
0.0281097
0.0286624
0.0260113
0.0272355
0.0224708
0.0244222
0.0175224
0.0201653
0.0112884
0.0145577
0.00387707
0.00772573
-0.00469369
-0.000259847
-0.0145291
-0.0094431
-0.0257958
-0.0199759
-0.03852
-0.0319884
-0.0522813
-0.0453234
-0.0659572
-0.0592293
-0.0777407
-0.072215
-0.0854931
-0.0822536
-0.0871884
-0.0871976
-0.0817858
-0.0853588
-0.0704668
-0.0766897
-0.0564611
-0.0635706
-0.0429999
-0.0495155
-0.0318051
-0.037076
-0.0232137
-0.0271976
-0.0169179
-0.0198081
-0.0124781
-0.0144929
-0.00951965
-0.0108339
-0.00776846
-0.00850655
-0.00704691
-0.00728291
-0.00722345
-0.00702265
-0.00751614
-0.0417498
-0.0322743
-0.0629935
-0.0520025
-0.086829
-0.0746243
-0.112091
-0.0993957
-0.136922
-0.124683
-0.159207
-0.148527
-0.176619
-0.168662
-0.187081
-0.182823
-0.189249
-0.189243
-0.182835
-0.187086
-0.168593
-0.176606
-0.148357
-0.159065
-0.125005
-0.136888
-0.10079
-0.112923
0.0582371
0.0547912
0.0666253
-0.0888678
-0.0600143
-0.0716833
-0.065862
-0.0487156
-0.0542696
-0.0389438
-0.0436265
-0.0308809
-0.034707
-0.0243591
-0.0274405
-0.0191735
-0.0216098
-0.0151872
-0.0170355
-0.0123552
-0.0136271
-0.0106954
-0.0113776
-0.0102184
-0.010312
-0.0108287
-0.0104015
-0.0122236
-0.0114577
-0.0138485
-0.0130506
-0.0149878
-0.0145235
-0.0150294
-0.0151695
-0.0138153
-0.0145629
-0.0118126
-0.0128629
-0.00982301
-0.0107684
-0.00845042
-0.00903855
-0.0079089
-0.00807275
-0.00824381
-0.00796357
-0.00954831
-0.008766
-0.0119978
-0.0106171
-0.0158339
-0.0137254
-0.0213773
-0.0183693
-0.0290497
-0.0249178
-0.0393806
-0.0338476
-0.0529549
-0.0457297
-0.0701615
-0.0611042
-0.0904799
-0.0800335
-0.111177
-0.101077
-0.126285
-0.119907
-0.128337
-0.12933
-0.113439
-0.122961
-0.0846108
-0.100336
-0.049385
-0.0673068
-0.0148557
-0.0316654
0.0146482
0.000593633
0.038733
0.0272946
0.0489872
-0.240023
-0.280286
-0.00834786
-0.204445
-0.279444
-0.168293
-0.269576
-0.134242
-0.251742
-0.104212
-0.0790818
-0.0588135
-0.042775
-0.0301527
-0.0202222
-0.01254
-0.00661646
-0.00212047
0.00111938
0.00874496
0.00346068
-0.202197
-0.17495
-0.146191
-0.116982
-0.0879266
-0.0594836
-0.0320715
-0.00578467
0.0191162
0.042094
0.0741557
0.0629064
-0.0772852
0.00516198
0.0136881
-0.0611185
-0.0662075
0.0103072
-0.2614
0.0195103
0.0167804
0.0242162
0.0220346
0.0280908
0.0262428
0.0313269
0.0297811
0.0339876
0.0327224
0.0360817
0.0351129
0.0374597
0.036873
0.0379896
0.037828
0.0378926
0.0379903
0.0376391
0.0377613
0.0374299
0.0375365
0.0369858
0.0372675
0.035802
0.0365163
0.0334706
0.0347955
0.0298225
0.0318122
0.0248882
0.0275089
0.0187941
0.021977
0.0116666
0.0153536
0.00355907
0.00773606
-0.00558309
-0.000875885
-0.015876
-0.0105801
-0.0273356
-0.0214701
-0.0396239
-0.0334187
-0.0518196
-0.0458161
-0.0623957
-0.0574223
-0.0694507
-0.0664862
-0.0710888
-0.0710426
-0.0663447
-0.0694951
-0.0564008
-0.0618562
-0.0442166
-0.0503871
-0.0325836
-0.0382088
-0.0229162
-0.0274707
-0.0154635
-0.0189257
-0.00995502
-0.012491
-0.00602006
-0.0078135
-0.00334229
-0.00454127
-0.00168804
-0.00239883
-0.000907245
-0.00119334
-0.000890305
-0.000809003
-0.00138226
-0.00112775
-0.00173356
-0.00160781
-0.0243109
-0.00854596
-0.0160361
-0.0432909
-0.033363
-0.0655531