/*--------------------------------*- C++ -*----------------------------------*\
  =========                 |
  \\      /  F ield         | OpenFOAM: The Open Source CFD Toolbox
   \\    /   O peration     | Website:  https://openfoam.org
    \\  /    A nd           | Version:  10
     \\/     M anipulation  |
\*---------------------------------------------------------------------------*/
FoamFile
{
    format      ascii;
    class       volVectorField;
    location    "5.5";
    object      U;
}
// * * * * * * * * * * * * * * * * * * * * * * * * * * * * * * * * * * * * * //

dimensions      [0 1 -1 0 0 0 0];

internalField   nonuniform List<vector> 
40874
(
(0.709877 -0.240696 0)
(0.608652 -0.210494 3.61977e-19)
(1.08396 -0.585428 -3.75025e-20)
(1.02044 -0.521659 1.47236e-19)
(1.02512 -0.751084 9.51887e-20)
(1.01826 -0.761068 4.91505e-20)
(1.05009 -0.757673 -7.36115e-21)
(1.16175 -0.520486 9.90512e-21)
(1.06137 -0.466042 -2.84348e-21)
(0.764606 -0.66193 1.13225e-19)
(0.756818 -0.48504 -1.65659e-19)
(0.456555 -0.650343 1.54517e-19)
(0.847504 -0.694754 1.20451e-20)
(0.840118 -0.425462 9.31266e-20)
(0.843859 -0.324882 -9.08005e-20)
(0.786173 -0.301514 8.82472e-20)
(1.0031 -0.665509 -3.64571e-21)
(1.15147 -0.730221 0)
(0.958209 -0.752618 -2.64255e-19)
(0.992337 -0.319546 -7.69336e-20)
(0.985398 -0.384417 -4.91874e-21)
(0.974356 -0.470382 -1.37944e-19)
(0.604927 -0.563471 1.05498e-20)
(0.575508 -0.683925 4.66624e-20)
(0.923067 -0.37272 1.2438e-19)
(1.14718 -0.498677 -3.97443e-21)
(1.1758 -0.50364 1.49571e-20)
(1.15666 -0.436217 6.67041e-21)
(1.19154 -0.456548 0)
(1.28994 -0.47768 -1.32528e-20)
(1.28653 -0.506975 -2.36974e-21)
(1.22734 -0.448992 3.60692e-21)
(1.17621 -0.503461 0)
(-0.293758 -0.058512 6.07307e-20)
(-0.200793 -0.0959647 0)
(-0.109132 -0.129262 0)
(-0.173812 -0.112306 -3.15863e-21)
(0.818676 0.0223192 -5.92603e-22)
(0.775955 0.0215128 -4.04521e-23)
(0.842544 0.0232981 6.03025e-21)
(0.910321 0.0215323 0)
(0.915101 0.0189128 1.3048e-21)
(0.866751 0.0211537 -1.94774e-21)
(0.796137 0.0225308 -1.17858e-21)
(0.912827 0.019395 -1.31684e-21)
(0.856113 0.0195701 8.71916e-22)
(0.775186 0.0211365 0)
(0.880001 0.576617 -2.37387e-20)
(0.766124 0.567854 4.83038e-20)
(0.756618 0.431869 -1.44893e-20)
(0.865028 0.449906 0)
(1.03484 0.579079 0)
(0.980095 0.528978 4.16797e-21)
(1.36994 -0.439146 4.99222e-20)
(1.42414 -0.389277 0)
(1.34304 -0.351828 0)
(1.31116 -0.374253 0)
(1.29134 -0.440967 -6.20152e-21)
(1.43692 -0.460808 -2.5766e-20)
(1.25326 -0.33196 1.08301e-19)
(1.41425 -0.319285 -1.45125e-19)
(1.20147 0.560156 0)
(1.10214 0.55535 0)
(1.12318 0.502586 1.67348e-21)
(1.25029 0.547863 -1.39375e-21)
(-0.0560719 -0.0360001 6.61965e-20)
(-0.0824365 -0.0337477 -5.28217e-20)
(-0.0557684 -0.0330832 -4.98321e-20)
(-0.0456308 0.0397918 0)
(-0.0177601 0.0143142 -1.04594e-19)
(-0.0158641 0.0132152 -1.0779e-19)
(0.0289016 -0.0752053 2.43375e-19)
(0.00910112 -0.0257719 4.21988e-20)
(0.0165746 -0.0449766 4.01681e-20)
(0.657502 -0.0674953 -2.88242e-21)
(0.731937 -0.0267354 1.28123e-20)
(0.475715 0.0308021 -4.20775e-21)
(0.319975 -0.033295 -8.22263e-22)
(0.402735 0.0298428 -5.23983e-22)
(0.623548 0.0287574 0)
(0.598992 0.0247562 6.42628e-22)
(0.300826 0.0201141 1.0377e-22)
(0.821136 0.344097 6.98185e-20)
(0.773681 0.32868 7.45178e-20)
(0.793917 0.249835 -3.7725e-20)
(0.835117 0.249572 1.66635e-19)
(1.27207 0.289781 -1.36759e-23)
(1.27014 0.299871 -6.07084e-21)
(1.25455 0.282348 -1.01103e-22)
(1.33622 0.349792 5.17677e-21)
(1.46237 0.356802 4.74486e-20)
(1.41011 0.302869 -3.84991e-21)
(1.51034 0.441994 4.73162e-20)
(1.27101 -0.707077 0)
(1.29981 -0.468894 -4.0984e-20)
(0.935542 -0.0282795 4.14399e-22)
(0.877135 -0.0385686 -1.32011e-21)
(0.827408 -0.0403642 2.0354e-21)
(0.900015 -0.0324346 -1.7069e-21)
(0.94937 -0.0280176 -2.71522e-22)
(0.995518 -0.038651 0)
(0.988915 -0.0316806 3.36504e-22)
(-0.0353167 0.0233576 -4.21019e-21)
(0.0297053 0.00555901 -2.79719e-20)
(-0.0744015 -0.0808925 0)
(-0.061359 -0.0978292 0)
(0.905617 0.327493 0)
(0.88301 0.37259 -6.79597e-20)
(0.213444 -0.135267 5.63271e-19)
(0.19154 -0.224304 -8.58911e-19)
(-0.104821 -0.119387 0)
(-0.120577 -0.139953 1.90789e-20)
(0.994089 -0.0364138 -2.6916e-20)
(0.782719 -0.0256239 -2.45106e-21)
(0.738062 -0.0148311 1.04051e-20)
(0.817557 0.0164348 -7.03334e-22)
(0.732255 0.0142226 6.86658e-22)
(0.498088 0.560368 7.83429e-21)
(0.443884 0.616749 -2.33229e-20)
(0.629624 0.738271 4.39057e-21)
(0.381332 0.618273 1.11752e-19)
(0.177066 -0.299007 -9.5699e-20)
(0.326596 -0.638206 9.60555e-20)
(0.219798 0.524906 -2.27143e-20)
(0.846397 0.0185571 0)
(0.764953 0.0181913 0)
(0.739519 0.0251102 -9.39459e-22)
(0.665559 0.0216399 0)
(0.167077 -0.0134135 0)
(0.22532 -0.0108913 1.57487e-21)
(1.00306 -0.0157547 -6.8604e-20)
(0.887271 0.0219098 -1.27978e-21)
(1.11299 -0.0366359 0)
(1.11269 -0.0369097 -1.0286e-21)
(0.667536 -0.0473761 0)
(1.29874 0.297942 3.94527e-21)
(1.29857 0.287988 -5.05001e-21)
(1.33612 0.320705 -5.18931e-21)
(1.21591 0.0912182 2.98162e-20)
(1.37659 0.0972042 -2.69288e-20)
(1.37539 0.0784375 1.3964e-20)
(1.20903 0.07576 4.9195e-20)
(1.02338 0.0910746 -1.61301e-22)
(1.0303 0.0829522 -9.13073e-21)
(0.234805 -0.111663 -7.18121e-20)
(0.151167 -0.122148 8.93322e-20)
(0.0836759 -0.131263 -7.17198e-20)
(0.0698135 -0.163076 -2.05717e-19)
(0.0348361 -0.0640006 -2.79377e-19)
(0.0914427 -0.139831 1.76776e-19)
(1.15847 -0.64208 0)
(1.42849 -0.359727 -1.34758e-20)
(1.36638 -0.325959 4.59687e-20)
(-0.0788436 -0.0688502 1.39836e-19)
(-0.0543403 -0.0445291 0)
(-0.0643236 -0.0635203 0)
(-0.0688369 -0.0486907 0)
(-0.0721861 -0.104015 -2.49549e-20)
(-0.0716771 -0.0759556 4.93159e-20)
(-0.0859791 -0.0976731 0)
(0.0705163 0.0537264 7.39268e-20)
(0.246587 0.0638925 -1.56689e-19)
(0.340312 0.0851141 -5.29206e-20)
(0.0697545 -0.0252541 0)
(0.374966 -0.228539 -2.14552e-21)
(0.328225 -0.432646 2.73983e-19)
(0.46388 -0.506789 -2.57599e-20)
(0.624208 -0.346561 -3.13778e-19)
(1.0491 0.483334 -4.51131e-21)
(0.657241 0.0779557 0)
(0.107887 -0.417749 -9.78774e-20)
(0.116682 -0.471198 -1.8395e-19)
(0.479342 -0.570726 -1.12559e-19)
(0.120607 -0.366996 9.3665e-20)
(0.929652 -0.0265699 0)
(0.878522 -0.0282475 -5.02953e-21)
(1.19908 0.177928 9.41915e-20)
(1.15086 0.149957 -5.12511e-20)
(0.980555 0.129903 -7.121e-20)
(-0.0160111 -0.063907 -7.32481e-20)
(0.0244911 -0.0715344 3.28876e-20)
(0.324374 -0.0950775 1.85123e-20)
(0.26724 -0.0976625 2.60839e-20)
(1.17336 -0.402024 6.82587e-20)
(1.04423 -0.293992 1.93371e-20)
(1.04968 -0.00711933 6.66281e-24)
(1.04951 -0.00722559 0)
(1.04966 -0.00739371 0)
(0.894832 0.267577 4.2796e-20)
(0.890004 0.241344 -1.04595e-19)
(0.909037 0.248907 -8.0519e-22)
(0.95688 0.445805 2.2863e-20)
(1.01699 0.429713 5.04168e-21)
(0.260848 0.115325 3.46467e-19)
(0.0833012 0.132927 0)
(0.0619946 0.046115 0)
(0.20883 0.0238281 0)
(1.16155 0.706614 6.37303e-23)
(1.28281 0.653326 5.29962e-20)
(1.24122 0.670345 -2.24633e-20)
(1.03468 0.644233 -1.44028e-20)
(-0.0975847 0.0448907 -3.88129e-20)
(-0.103897 0.0409869 -1.45631e-19)
(-0.0617558 0.0356493 -2.72846e-20)
(-0.0686368 0.0356047 0)
(1.04943 -0.00695257 6.93586e-24)
(1.04963 -0.00691122 4.05141e-24)
(-0.10554 0.0481018 3.00004e-19)
(0.575079 -0.00227497 5.84098e-21)
(0.630832 -0.00746496 0)
(1.01378 -0.0338089 -2.36866e-20)
(1.01795 -0.0368524 5.42672e-20)
(0.809582 0.728343 -1.25207e-19)
(1.09948 -0.0939191 -5.89699e-20)
(1.01863 -0.117211 0)
(1.08436 -0.118552 -3.9894e-20)
(1.08855 -0.10118 3.26316e-20)
(1.01865 -0.0769993 1.0532e-20)
(1.01007 -0.0957738 1.7996e-20)
(0.623161 -0.117396 -2.33475e-19)
(0.480073 -0.0114285 1.39644e-19)
(0.407816 -0.113698 -4.07009e-19)
(0.909696 0.0185513 0)
(0.906231 0.0173759 4.08025e-22)
(0.853657 0.762435 1.20005e-19)
(0.445499 0.464669 -8.90362e-21)
(0.507772 0.516517 0)
(1.03366 -0.127829 0)
(-0.0923518 -0.0992213 0)
(1.23833 0.127745 0)
(1.20114 0.136034 2.88697e-21)
(-0.08663 0.0562113 8.63561e-20)
(-0.0845938 0.0471509 3.55724e-20)
(1.42345 -0.318007 0)
(-0.117235 0.180012 -7.06785e-20)
(-0.0827082 0.186593 9.67802e-20)
(-0.15184 0.18468 -2.21828e-19)
(-0.157161 0.171362 1.99088e-19)
(-0.115513 0.154744 -2.90154e-20)
(0.544331 -0.321299 0)
(0.673121 -0.411878 -4.1393e-20)
(-0.0459334 0.0457458 2.98931e-20)
(-0.0383768 0.0363046 -3.35243e-20)
(0.885096 0.669338 0)
(1.04622 0.701942 3.96702e-21)
(0.904285 0.593674 -2.79234e-20)
(0.666158 0.498674 0)
(0.679695 0.290519 -1.15025e-19)
(0.61714 0.393809 8.06172e-20)
(0.469975 0.271042 -2.9825e-19)
(0.590779 0.176181 3.65305e-20)
(1.37486 0.192939 -1.38307e-20)
(1.35993 0.178621 1.84463e-20)
(1.37632 0.174518 7.2337e-21)
(1.39347 0.189968 0)
(1.10345 0.101844 1.71999e-20)
(1.0043 0.100291 -1.48392e-20)
(1.09644 0.113994 0)
(-0.130615 0.151685 0)
(-0.153055 0.11067 2.88655e-20)
(-0.0958847 0.100997 3.52038e-20)
(-0.111876 -0.0979099 1.47123e-20)
(-0.0654077 -0.0547127 -5.86878e-20)
(-0.0719077 -0.0494647 1.5376e-19)
(0.0933384 0.230772 -4.95325e-19)
(0.024159 0.14016 -2.97087e-19)
(0.0163848 0.0870033 -4.15607e-20)
(0.758623 -0.00238036 5.64945e-20)
(0.781431 -0.0185024 -1.10042e-19)
(0.775538 0.0192028 0)
(0.201186 0.135088 2.49884e-20)
(1.04968 -0.00757152 1.23638e-24)
(1.42233 0.197231 0)
(1.12885 -0.0406279 -3.56886e-21)
(1.22146 0.10307 0)
(1.2107 0.095466 -4.12068e-22)
(1.2002 0.0886911 1.03856e-22)
(1.19012 0.0822003 5.29961e-23)
(1.17997 0.0767597 -7.86792e-22)
(1.17084 0.0710425 1.4078e-21)
(1.16289 0.0637119 2.36106e-21)
(1.15528 0.0587489 -1.08988e-22)
(1.14785 0.0538393 8.92541e-23)
(1.14115 0.0490458 -5.75327e-29)
(1.13477 0.0444164 2.71285e-23)
(1.12907 0.0400866 4.84622e-22)
(1.12363 0.0358983 -5.50021e-22)
(1.11879 0.0319508 -3.85193e-26)
(1.11421 0.0281155 9.41922e-23)
(1.11015 0.0244962 -1.86937e-21)
(1.10637 0.020979 1.77199e-21)
(1.10316 0.0177483 0)
(1.10001 0.0144162 -2.67072e-22)
(1.0973 0.0112402 0)
(1.09493 0.00819432 -2.57628e-21)
(1.09294 0.0052786 2.5443e-21)
(1.09121 0.00241543 1.65104e-22)
(1.08985 -0.000343281 -8.28298e-26)
(1.08877 -0.00305907 0)
(1.08804 -0.00568576 -2.92959e-21)
(1.08761 -0.00827694 2.72521e-21)
(1.08752 -0.0107948 -3.0033e-21)
(1.08775 -0.013285 6.00028e-21)
(1.08834 -0.0157138 -6.04413e-21)
(1.08929 -0.0181206 3.01206e-21)
(1.09061 -0.0204819 0)
(1.09232 -0.0228534 3.19569e-21)
(1.09465 -0.0254254 -5.5604e-21)
(1.09751 -0.0275571 3.34352e-21)
(1.10111 -0.0299873 0)
(1.10407 -0.0315579 2.44797e-21)
(1.10762 -0.0343357 0)
(1.25183 0.116532 2.6795e-22)
(1.24138 0.121854 7.37795e-22)
(1.25439 0.130948 3.54342e-22)
(1.26761 0.140944 0)
(1.27894 0.134234 7.17165e-22)
(1.26486 0.124679 8.44294e-22)
(1.22853 0.0995293 0)
(1.23998 0.107014 6.86766e-21)
(1.20612 0.084951 -2.20888e-22)
(1.217 0.0916811 1.12915e-21)
(1.18521 0.0727555 0)
(1.19542 0.078197 0)
(1.16691 0.0611917 0)
(1.17526 0.0676244 -1.48707e-21)
(1.15155 0.0516662 -1.42186e-23)
(1.15897 0.0564545 -6.53859e-27)
(1.13823 0.0426029 -2.79548e-24)
(1.14467 0.047082 1.1605e-26)
(1.12683 0.0343204 1.94805e-23)
(1.13233 0.0384104 1.1561e-27)
(1.11717 0.0267365 -2.91144e-23)
(1.12182 0.0304837 1.16259e-26)
(1.10922 0.0196909 -2.76796e-22)
(1.11297 0.0232597 -4.40377e-23)
(1.10246 0.0133509 8.8191e-23)
(1.10565 0.0165062 2.69551e-22)
(1.09724 0.0072955 -4.1124e-23)
(1.09969 0.0102874 4.23792e-26)
(1.09336 0.0016396 -5.47113e-23)
(1.09514 0.00444714 0)
(1.09075 -0.00371388 5.26094e-26)
(1.0919 -0.00105074 2.26474e-26)
(1.08944 -0.00881357 6.18113e-23)
(1.08994 -0.00627423 -2.22358e-26)
(1.08944 -0.0137086 0)
(1.08927 -0.0112682 0)
(1.09084 -0.0184323 -3.05556e-26)
(1.08996 -0.0160766 -2.69755e-26)
(1.09377 -0.0230631 4.20777e-22)
(1.09209 -0.0207254 5.92828e-26)
(1.09879 -0.027396 -6.09816e-22)
(1.09585 -0.0255213 0)
(1.10196 -0.0299784 0)
(1.21489 0.107086 0)
(1.22881 0.115427 0)
(1.19424 0.0925939 0)
(1.20436 0.0996936 2.81693e-22)
(1.17476 0.0801107 9.96493e-22)
(1.18429 0.0856297 -5.15885e-23)
(1.15795 0.0645918 -1.27366e-21)
(1.16611 0.0730366 1.34395e-22)
(1.14337 0.0542645 0)
(1.15063 0.0594548 0)
(1.13047 0.0442662 1.82763e-26)
(1.13663 0.0490874 1.75148e-29)
(1.11958 0.0354 -5.36e-26)
(1.12478 0.0397003 -1.83864e-26)
(1.11046 0.0273587 0)
(1.11481 0.0312695 0)
(1.10297 0.0200554 0)
(1.10651 0.0235992 0)
(1.09689 0.0132198 0)
(1.09974 0.0165338 0)
(1.09226 0.00696873 -3.27699e-27)
(1.0944 0.0100339 0)
(1.08894 0.00109118 -2.89196e-26)
(1.09044 0.00398001 0)
(1.0869 -0.00447647 0)
(1.08776 -0.00173581 3.08318e-26)
(1.08617 -0.00978218 -3.35882e-26)
(1.08638 -0.00716488 0)
(1.08677 -0.0148777 -3.52782e-26)
(1.0863 -0.012359 3.4254e-26)
(1.08881 -0.0198064 -3.6374e-26)
(1.08761 -0.0173643 3.54206e-26)
(1.09235 -0.0245711 -3.54313e-26)
(1.09042 -0.0222297 3.62277e-26)
(1.09705 -0.0288458 0)
(1.09438 -0.0265882 3.64824e-26)
(1.10443 -0.0334818 0)
(1.1011 -0.0316562 0)
(1.29399 0.144568 4.93144e-23)
(1.31011 0.155177 0)
(1.29658 0.162805 3.59804e-22)
(1.28165 0.151436 2.69159e-21)
(1.32787 0.166444 -3.26031e-21)
(1.31223 0.175025 4.58449e-22)
(1.34534 0.174342 7.63254e-21)
(1.10652 -0.0319825 -1.73564e-21)
(1.11049 -0.0346337 -5.25267e-22)
(1.10811 -0.0355637 0)
(1.24362 0.137332 -2.24943e-22)
(1.23174 0.129348 -7.07316e-22)
(1.25583 0.147161 7.88218e-25)
(1.28322 0.16909 1.13187e-21)
(1.29803 0.181447 -3.05029e-21)
(1.39276 0.206174 8.93909e-21)
(1.3606 0.197785 4.92266e-21)
(1.35864 0.165208 -1.16873e-20)
(1.32197 0.145335 -9.97254e-22)
(1.33918 0.154493 2.10474e-21)
(1.28937 0.126691 9.43911e-23)
(1.30523 0.136427 -1.29825e-21)
(1.26065 0.109704 2.6485e-22)
(1.27458 0.117745 -1.29877e-21)
(1.23534 0.0938426 2.44122e-22)
(1.24791 0.100624 -6.28058e-22)
(1.21188 0.0808368 -8.75631e-22)
(1.22335 0.0867404 -1.10782e-21)
(1.19063 0.0684754 1.71548e-22)
(1.20103 0.0740629 -3.99463e-23)
(1.17258 0.05782 0)
(1.18115 0.0635997 2.69788e-22)
(1.15691 0.0482371 5.46986e-23)
(1.16443 0.0529652 -8.05589e-26)
(1.14328 0.0395501 1.24769e-23)
(1.14989 0.0438344 3.64038e-26)
(1.13149 0.0316419 0)
(1.13718 0.0355547 -1.19425e-27)
(1.12146 0.0243913 0)
(1.12628 0.0279825 3.93767e-27)
(1.11306 0.0176998 0)
(1.1171 0.0210244 4.59828e-23)
(1.10613 0.0115383 1.11805e-25)
(1.10942 0.0145939 -1.0989e-25)
(1.10061 0.0057463 8.42095e-24)
(1.10319 0.00862082 0)
(1.09646 0.000307858 -4.01108e-23)
(1.09837 0.00301343 0)
(1.09364 -0.00484454 -9.28664e-26)
(1.09489 -0.0022765 4.33031e-26)
(1.09212 -0.00975455 0)
(1.09271 -0.00730432 -3.92809e-26)
(1.09194 -0.0144719 5.31217e-23)
(1.09186 -0.0121146 9.98837e-26)
(1.09315 -0.019025 0)
(1.09236 -0.0167512 1.64988e-25)
(1.09592 -0.0235089 -5.15626e-22)
(1.09432 -0.0212239 4.98039e-26)
(1.10056 -0.0278078 4.9623e-22)
(1.09791 -0.0258674 -6.61097e-23)
(1.10354 -0.0300757 1.39608e-22)
(1.11521 -0.0368226 5.12355e-22)
(1.11415 -0.0383948 0)
(1.11887 -0.038435 -2.63379e-21)
(1.11759 -0.0386483 6.96151e-22)
(1.20874 0.112209 4.77916e-23)
(1.21984 0.120898 -8.25176e-23)
(1.18754 0.0959201 0)
(1.19765 0.10342 8.53695e-23)
(1.1692 0.0824479 -3.84556e-22)
(1.17803 0.0891678 -6.06301e-23)
(1.15335 0.0689107 -2.02824e-23)
(1.1609 0.0749564 3.35025e-23)
(1.13991 0.0584007 0)
(1.14636 0.0634543 0)
(1.1278 0.0483675 0)
(1.13367 0.053281 -2.11272e-28)
(1.11734 0.0392982 3.08507e-26)
(1.12237 0.043724 -1.8628e-28)
(1.10846 0.0310486 0)
(1.11272 0.0350852 0)
(1.10104 0.023488 6.66136e-26)
(1.10458 0.0271953 0)
(1.09504 0.0165285 -7.65378e-27)
(1.09788 0.0199617 -5.31715e-26)
(1.09027 0.00999682 4.13121e-27)
(1.0925 0.0132048 0)
(1.08678 0.00389874 0)
(1.08837 0.00690373 0)
(1.08451 -0.00186683 1.14979e-27)
(1.08549 0.000980989 0)
(1.08349 -0.00736201 -2.72306e-28)
(1.08385 -0.00464299 0)
(1.08374 -0.0126379 3.06245e-28)
(1.08345 -0.0100227 0)
(1.08535 -0.0177454 -7.69553e-26)
(1.08436 -0.0152073 0)
(1.08852 -0.0227619 -5.83435e-28)
(1.08671 -0.0202563 7.72461e-26)
(1.09383 -0.0280168 1.59395e-22)
(1.09089 -0.0253474 0)
(1.10151 -0.0333629 7.55077e-22)
(1.09729 -0.0306417 -6.05074e-22)
(1.11136 -0.0384623 -5.83994e-22)
(1.10639 -0.0361167 -1.49767e-22)
(1.2691 0.15754 -1.12845e-21)
(1.23241 0.142426 -2.11499e-22)
(1.22163 0.133264 1.26231e-23)
(1.24396 0.152443 3.30828e-22)
(1.2694 0.175185 4.59246e-22)
(1.28334 0.188427 -8.3427e-22)
(1.10858 -0.0384638 0)
(1.11727 -0.0409109 7.2426e-22)
(1.11433 -0.0409134 -1.51821e-22)
(1.37971 0.212096 2.63907e-21)
(1.32892 0.189065 -4.19469e-21)
(1.12008 -0.0381511 -8.37861e-22)
(1.31419 0.193853 2.67672e-21)
(1.12636 -0.04039 -2.0134e-21)
(1.40809 0.176504 -1.04748e-20)
(1.41478 0.215376 -3.97675e-22)
(1.44505 0.209917 -2.29698e-20)
(1.4513 0.195285 4.68849e-21)
(1.42975 0.184303 3.61451e-21)
(1.36755 0.156443 -1.08844e-20)
(1.38659 0.164662 6.05061e-21)
(1.33206 0.135959 7.27473e-22)
(1.34945 0.146033 -3.51154e-21)
(1.29884 0.118598 5.65926e-23)
(1.31498 0.12712 3.93468e-22)
(1.26847 0.102771 -3.36199e-22)
(1.28334 0.110257 0)
(1.24203 0.0877462 0)
(1.25495 0.0944982 6.6626e-22)
(1.21761 0.0755435 8.30577e-22)
(1.22972 0.0810507 0)
(1.1964 0.0640022 3.02447e-22)
(1.2067 0.0694056 3.8266e-25)
(1.1778 0.0537628 0)
(1.18689 0.0590993 -3.00204e-22)
(1.16151 0.044633 1.10963e-23)
(1.16931 0.0491795 5.4462e-25)
(1.14748 0.0363165 1.05389e-23)
(1.15427 0.0404119 2.01974e-26)
(1.13533 0.0287833 -1.39578e-23)
(1.14119 0.03251 0)
(1.12498 0.021884 1.35101e-24)
(1.12995 0.0253029 -3.9378e-27)
(1.11627 0.0154933 9.38615e-24)
(1.12046 0.0186449 0)
(1.10915 0.00960796 1.86305e-23)
(1.11253 0.0125396 0)
(1.10344 0.00407903 3.38836e-23)
(1.10612 0.00682581 0)
(1.09912 -0.00112041 4.01099e-23)
(1.10111 0.00147162 0)
(1.09616 -0.00605931 -1.58605e-25)
(1.09747 -0.0035973 1.57137e-25)
(1.09452 -0.0107702 -8.85202e-26)
(1.09517 -0.00841631 1.80056e-25)
(1.09425 -0.0153022 -1.0034e-22)
(1.09421 -0.0130343 1.7156e-25)
(1.09539 -0.0196881 0)
(1.09463 -0.0174933 -2.95202e-25)
(1.09806 -0.0239766 0)
(1.09651 -0.0218021 -3.1023e-25)
(1.1026 -0.028209 1.72279e-22)
(1.10004 -0.0262372 1.07877e-22)
(1.10878 -0.0322575 -5.30695e-22)
(1.10561 -0.030263 -1.15837e-22)
(1.11767 -0.0368642 0)
(1.11294 -0.0347251 4.97048e-22)
(1.12256 -0.0383249 2.4279e-22)
(1.1229 -0.0408276 1.42632e-22)
(1.1252 -0.0407951 2.14973e-21)
(1.1198 -0.0404546 0)
(1.20041 0.115463 -1.55318e-22)
(1.2112 0.12427 0)
(1.18059 0.0996036 0)
(1.19017 0.107121 6.06032e-23)
(1.16296 0.0848699 5.04746e-25)
(1.17147 0.0922508 5.73332e-23)
(1.14742 0.0716574 1.86149e-23)
(1.1551 0.078058 6.56947e-24)
(1.13367 0.0601548 0)
(1.14027 0.0658182 0)
(1.122 0.049723 8.72877e-26)
(1.12761 0.0548019 8.25557e-28)
(1.11201 0.0403398 0)
(1.11679 0.0449078 2.883e-28)
(1.10358 0.0318366 -2.21043e-25)
(1.10761 0.0359874 0)
(1.09661 0.0240659 -1.3888e-26)
(1.09992 0.0278661 2.21947e-25)
(1.09096 0.0168867 7.65387e-27)
(1.09362 0.0204035 2.29466e-28)
(1.0866 0.0102268 1.37803e-25)
(1.08862 0.0134988 0)
(1.08346 0.0039832 1.49393e-25)
(1.08488 0.00705758 -1.42512e-25)
(1.08154 -0.00192313 1.10581e-28)
(1.08235 0.000991537 -1.50001e-25)
(1.08083 -0.00755619 1.60739e-25)
(1.08103 -0.00477072 0)
(1.0814 -0.0129714 1.64086e-25)
(1.08095 -0.0102883 -1.61067e-25)
(1.08334 -0.0182154 1.66425e-25)
(1.08219 -0.0156131 -1.64728e-25)
(1.08674 -0.0232857 -6.77814e-28)
(1.08485 -0.0207768 -1.67127e-25)
(1.09183 -0.0282821 -1.62454e-22)
(1.08903 -0.0257472 0)
(1.09887 -0.0333014 0)
(1.09512 -0.0308291 0)
(1.1033 -0.0358676 0)
(1.25624 0.163233 -4.4947e-22)
(1.29925 0.201722 3.84732e-22)
(1.2214 0.146988 -3.95424e-23)
(1.21138 0.13757 -9.96791e-23)
(1.12344 -0.0431957 -7.06494e-22)
(1.12076 -0.0434473 0)
(1.23211 0.15691 0)
(1.40069 0.226526 -1.02043e-20)
(1.12874 -0.0402854 6.19455e-21)
(1.13528 -0.0409937 -6.07178e-21)
(1.43408 0.22207 0)
(1.34692 0.203085 1.59814e-21)
(1.36527 0.221339 -2.04748e-20)
(1.45901 0.181673 1.07982e-21)
(1.49112 0.19614 -3.16226e-22)
(1.47596 0.206568 1.15245e-20)
(1.33173 0.208602 4.02148e-21)
(1.31658 0.215753 8.9801e-22)
(1.41851 0.16274 3.69431e-21)
(1.43784 0.171033 -5.20818e-21)
(1.37956 0.145886 -3.87196e-22)
(1.3984 0.153069 7.83772e-22)
(1.34132 0.126886 -3.29052e-22)
(1.35989 0.136341 1.25209e-21)
(1.30721 0.109752 0)
(1.32403 0.118032 -4.20736e-24)
(1.2759 0.0950759 -6.56648e-24)
(1.29116 0.102172 9.60099e-24)
(1.2483 0.0813477 0)
(1.2616 0.0877976 0)
(1.22363 0.0696594 0)
(1.23568 0.0751405 0)
(1.20181 0.0589091 -3.23579e-24)
(1.21235 0.0640442 2.70648e-24)
(1.18263 0.0493209 -7.58022e-23)
(1.19197 0.0542419 -2.04754e-24)
(1.16572 0.0407312 -4.58021e-23)
(1.17383 0.0450045 2.08068e-25)
(1.15124 0.0328856 -2.86625e-23)
(1.15822 0.0367556 -2.18453e-25)
(1.13875 0.0257605 3.73982e-23)
(1.14476 0.0292864 -5.6866e-25)
(1.1281 0.0192327 8.55891e-24)
(1.13321 0.0224675 -1.32682e-25)
(1.11917 0.0131829 -9.37147e-24)
(1.12344 0.0161778 -4.30449e-26)
(1.11184 0.0075873 -1.86294e-23)
(1.11532 0.010373 0)
(1.10598 0.00233391 -1.95995e-23)
(1.10873 0.00494663 0)
(1.10154 -0.00261862 2.20297e-25)
(1.10359 -0.00014801 -2.17814e-25)
(1.09847 -0.00732823 2.67256e-25)
(1.09983 -0.0049784 -2.64799e-25)
(1.09675 -0.0118302 0)
(1.09744 -0.0095787 0)
(1.09642 -0.0161679 4.6953e-23)
(1.09641 -0.013995 2.98692e-25)
(1.09752 -0.0203785 0)
(1.09678 -0.0182675 5.23743e-25)
(1.10017 -0.0244834 0)
(1.09864 -0.0224099 1.99508e-25)
(1.1047 -0.0285592 -5.36175e-23)
(1.10214 -0.0266116 -1.06823e-22)
(1.11101 -0.0325055 -2.57174e-22)
(1.10771 -0.0305517 1.03831e-22)
(1.11974 -0.0367573 1.981e-22)
(1.11516 -0.034751 5.42087e-22)
(1.1243 -0.0383992 -2.29314e-22)
(1.13243 -0.0421953 0)
(1.13418 -0.0416705 8.29733e-22)
(1.12857 -0.0428421 -5.51748e-22)
(1.13092 -0.0427055 0)
(1.12608 -0.0428999 -4.15464e-22)
(1.19183 0.11964 8.34375e-23)
(1.20162 0.12859 -8.36182e-23)
(1.17273 0.102617 -8.2672e-25)
(1.18202 0.110856 -9.06184e-26)
(1.1562 0.0877369 -4.19511e-25)
(1.16417 0.0949485 1.99197e-26)
(1.14139 0.0743976 0)
(1.14857 0.0808252 0)
(1.12864 0.0627122 9.48798e-26)
(1.13476 0.068366 0)
(1.11761 0.0521661 -1.9841e-25)
(1.12294 0.0573156 -6.14273e-28)
(1.10809 0.0426025 0)
(1.11266 0.0472665 0)
(1.10002 0.033914 0)
(1.10388 0.0381587 0)
(1.09331 0.0259611 2.63127e-25)
(1.0965 0.0298543 0)
(1.08788 0.0186266 0)
(1.09044 0.0222258 -2.82703e-25)
(1.08365 0.0117947 0)
(1.08561 0.0151527 0)
(1.0806 0.00539084 0)
(1.08198 0.00854469 0)
(1.07871 -0.000665427 -1.26041e-27)
(1.07951 0.00232422 0)
(1.07801 -0.00644368 -3.24593e-28)
(1.07821 -0.00358527 0)
(1.07855 -0.0120027 -6.89439e-28)
(1.07812 -0.0092469 0)
(1.08041 -0.0173977 3.58266e-25)
(1.0793 -0.0147171 0)
(1.08378 -0.0226937 3.60637e-25)
(1.08189 -0.020052 -3.59369e-25)
(1.08894 -0.0279713 -2.89731e-27)
(1.08614 -0.025339 -3.60678e-25)
(1.09621 -0.0333002 0)
(1.09227 -0.0306265 0)
(1.10589 -0.0386363 3.54917e-22)
(1.10076 -0.0359985 0)
(1.54961 0.239574 3.40537e-21)
(1.54488 0.22031 0)
(1.34922 0.224244 -1.18867e-21)
(1.47628 0.226598 8.57631e-21)
(1.11811 -0.0438042 -3.52251e-22)
(1.11172 -0.0412533 -3.46275e-22)
(1.256 0.180563 -4.94784e-22)
(1.24377 0.167916 0)
(1.28391 0.208749 1.21829e-21)
(1.26891 0.194852 6.96978e-22)
(1.33575 0.230936 2.45547e-21)
(1.53202 0.205436 3.09643e-20)
(1.54814 0.250339 2.79229e-20)
(1.45575 0.234519 -1.60268e-20)
(1.51612 0.186722 -1.80365e-20)
(1.54228 0.199206 0)
(1.20082 0.14058 6.51393e-23)
(1.21042 0.150528 -6.71896e-23)
(1.38524 0.240784 1.87299e-20)
(1.48259 0.204821 -3.39693e-20)
(1.44549 0.183948 0)
(1.30027 0.224699 5.68484e-22)
(1.11534 -0.0441626 6.88681e-22)
(1.12486 -0.0463085 -6.58995e-22)
(1.12216 -0.0468141 6.67367e-22)
(1.49933 0.219591 7.67585e-21)
(1.42526 0.236674 5.4182e-21)
(1.54476 0.280219 0)
(1.4688 0.169715 1.15729e-21)
(1.50232 0.183607 0)
(1.42816 0.150419 -1.6803e-21)
(1.44636 0.159118 2.04e-21)
(1.38998 0.133823 3.77754e-22)
(1.4089 0.140927 0)
(1.35048 0.116614 6.26481e-22)
(1.36994 0.125342 -1.09153e-23)
(1.31497 0.100797 -5.35186e-22)
(1.33221 0.108583 -1.2297e-23)
(1.28292 0.0870276 1.42882e-23)
(1.29852 0.0937181 -1.68925e-23)
(1.25441 0.074481 -3.6655e-22)
(1.26818 0.0804894 6.01394e-24)
(1.22915 0.0635009 1.47274e-22)
(1.24143 0.0687613 -4.88156e-24)
(1.20675 0.0535279 0)
(1.21758 0.0583524 0)
(1.18707 0.0446023 7.82128e-23)
(1.19663 0.0491198 0)
(1.16971 0.0365796 0)
(1.17805 0.040565 0)
(1.15482 0.0292589 -1.49687e-24)
(1.16199 0.0328761 2.67721e-24)
(1.14201 0.0225818 -2.40701e-23)
(1.14817 0.0258896 1.78872e-24)
(1.1311 0.0164488 -2.77604e-23)
(1.13633 0.0194896 0)
(1.12194 0.010763 0)
(1.12631 0.0135838 0)
(1.11443 0.00547878 -1.66853e-25)
(1.11799 0.00810864 1.52949e-25)
(1.10842 0.000515716 6.72809e-24)
(1.11124 0.00298765 1.34056e-25)
(1.10385 -0.00417954 -3.38776e-25)
(1.10596 -0.00183649 7.69182e-26)
(1.10068 -0.00864849 -4.3766e-25)
(1.10209 -0.006416 7.01199e-26)
(1.09889 -0.0129317 0)
(1.09961 -0.0107878 -4.52078e-25)
(1.09849 -0.0170666 -3.58262e-23)
(1.09851 -0.0149936 -3.06626e-25)
(1.09955 -0.0210906 0)
(1.09883 -0.0190701 2.49803e-25)
(1.10218 -0.0250167 0)
(1.10067 -0.0230381 6.30507e-25)
(1.10668 -0.0289201 0)
(1.10415 -0.0270092 3.71361e-25)
(1.11304 -0.0327347 9.99041e-23)
(1.10967 -0.030833 0)
(1.12179 -0.036761 -4.21938e-22)
(1.11715 -0.0347799 -4.55505e-23)
(1.13266 -0.0408269 1.95683e-21)
(1.12696 -0.0387659 0)
(1.138 -0.0436452 -4.76007e-22)
(1.13978 -0.0417733 1.24093e-21)
(1.13995 -0.0433546 -8.11401e-22)
(1.13444 -0.0446117 -5.24085e-22)
(1.13659 -0.0442673 9.89537e-22)
(1.12996 -0.0454074 1.16103e-21)
(1.13233 -0.04501 1.32809e-21)
(1.1275 -0.045851 3.24639e-22)
(1.18251 0.122459 1.83804e-23)
(1.19161 0.13133 -2.16741e-23)
(1.16481 0.105414 2.84185e-24)
(1.17345 0.113719 0)
(1.14902 0.0901134 1.21146e-25)
(1.15669 0.097568 -1.99098e-26)
(1.13501 0.0765272 -1.05067e-25)
(1.1418 0.0831167 2.99095e-25)
(1.12276 0.0644573 9.22056e-25)
(1.12867 0.0703281 0)
(1.11221 0.0536347 -2.40607e-26)
(1.11728 0.0589027 -8.95132e-25)
(1.10318 0.0438735 -1.11108e-24)
(1.10751 0.0486315 0)
(1.09554 0.0350139 0)
(1.09919 0.0393407 1.1155e-24)
(1.08921 0.0269089 6.54053e-25)
(1.09222 0.0308754 0)
(1.08409 0.0194307 6.78321e-25)
(1.0865 0.023098 -6.38113e-25)
(1.08015 0.012477 0)
(1.08198 0.0158947 -6.70084e-25)
(1.07735 0.00595261 7.20479e-25)
(1.07861 0.00916651 0)
(1.07569 -0.00022397 -1.48749e-27)
(1.07638 0.00282553 -7.20393e-25)
(1.07517 -0.00612358 7.51388e-25)
(1.07528 -0.00320441 0)
(1.07587 -0.0118075 7.6187e-25)
(1.07537 -0.00898889 -7.53957e-25)
(1.07788 -0.0173277 7.67616e-25)
(1.07671 -0.0145853 -7.64502e-25)
(1.08134 -0.0227241 7.67363e-25)
(1.07942 -0.0200388 -7.70629e-25)
(1.08648 -0.0280597 7.68013e-25)
(1.08368 -0.025393 -7.71884e-25)
(1.09354 -0.0333491 -7.62408e-25)
(1.08975 -0.0307095 -7.68047e-25)
(1.10312 -0.0387888 -3.59708e-22)
(1.098 -0.0360485 7.49062e-25)
(1.10892 -0.0414952 3.53249e-22)
(1.2207 0.160974 3.17327e-22)
(1.24223 0.184497 5.12527e-22)
(1.23131 0.172024 -5.24426e-22)
(1.26777 0.214704 -3.22392e-22)
(1.25423 0.199583 -4.36246e-22)
(1.36946 0.248651 2.97917e-22)
(1.50532 0.169535 -5.88072e-21)
(1.54391 0.179406 -5.65454e-21)
(1.31486 0.173373 6.54402e-21)
(1.35218 0.199092 -1.47548e-20)
(1.1347 -0.0404961 1.12185e-21)
(1.14109 -0.0416379 -5.6238e-22)
(1.31828 0.243235 3.34887e-22)
(1.2824 0.230926 -1.60979e-21)
(1.13165 -0.0486616 -9.76173e-22)
(1.12917 -0.0492741 6.523e-22)
(1.49976 0.253496 -4.21425e-20)
(1.44409 0.247614 -4.55409e-20)
(1.41315 0.164513 1.94656e-20)
(1.41228 0.25465 -3.50346e-20)
(1.35754 0.26201 0)
(1.19982 0.154172 1.82115e-24)
(1.1906 0.143888 0)
(1.48144 0.157477 -3.52176e-21)
(1.51495 0.169159 -1.63931e-22)
(1.43723 0.138036 0)
(1.45711 0.147002 0)
(1.39872 0.12135 0)
(1.41767 0.128964 -2.74412e-23)
(1.35883 0.105681 7.11704e-22)
(1.37865 0.113566 1.08397e-23)
(1.32223 0.0913717 1.14116e-21)
(1.33997 0.0984717 0)
(1.28943 0.0786544 -4.84791e-22)
(1.30537 0.0848785 0)
(1.26018 0.0672008 1.43068e-22)
(1.27434 0.0727465 1.7788e-23)
(1.23423 0.057069 -3.28009e-22)
(1.24682 0.0619897 3.48357e-23)
(1.2113 0.0478834 1.28433e-22)
(1.22239 0.0523646 0)
(1.19119 0.0396576 0)
(1.20094 0.0437859 0)
(1.17347 0.0322301 6.78607e-23)
(1.18199 0.0359195 9.41129e-24)
(1.15823 0.0254538 5.76349e-23)
(1.16557 0.028806 -8.69134e-25)
(1.14513 0.0192538 -4.0565e-23)
(1.15142 0.022329 -6.04462e-25)
(1.13397 0.0135401 1.79821e-23)
(1.13932 0.016376 0)
(1.12461 0.00823348 0)
(1.12908 0.0108704 -5.95473e-25)
(1.11692 0.00327976 2.78041e-24)
(1.12056 0.00574684 1.11871e-26)
(1.11077 -0.00137767 1.28669e-23)
(1.11366 0.000947212 -1.94493e-25)
(1.10608 -0.00580394 0)
(1.10824 -0.00359628 5.78058e-25)
(1.10281 -0.0100232 -6.85868e-25)
(1.10427 -0.00791293 1.0434e-24)
(1.10094 -0.0140786 -2.64343e-23)
(1.1017 -0.0120469 8.78693e-25)
(1.10048 -0.018003 3.63235e-23)
(1.10053 -0.0160339 -4.98018e-25)
(1.1015 -0.021831 0)
(1.1008 -0.0199068 -5.84382e-25)
(1.1041 -0.0255773 3.00972e-25)
(1.10259 -0.0236903 -9.30415e-25)
(1.10856 -0.0293052 -3.85609e-23)
(1.10606 -0.0274558 0)
(1.11499 -0.0329966 0)
(1.11154 -0.0311386 0)
(1.12378 -0.0368413 -1.66968e-22)
(1.11912 -0.0349216 4.62734e-23)
(1.12889 -0.0386773 3.48797e-22)
(1.14288 -0.0450672 -2.05103e-22)
(1.14488 -0.043667 -1.95442e-21)
(1.14424 -0.0444263 1.76535e-22)
(1.13988 -0.0461943 -3.04526e-26)
(1.14154 -0.0456474 0)
(1.13621 -0.0474347 -1.57228e-22)
(1.13814 -0.0468015 -5.42687e-22)
(1.13404 -0.0480482 -9.01488e-22)
(1.17319 0.125163 -1.84465e-23)
(1.18179 0.134307 2.15638e-23)
(1.15661 0.107692 -2.36435e-24)
(1.16476 0.116277 0)
(1.14175 0.0921404 -9.54125e-25)
(1.14895 0.0996617 3.49232e-25)
(1.12863 0.0783852 2.22103e-24)
(1.13498 0.0850558 6.39319e-26)
(1.11717 0.0661692 -1.21407e-25)
(1.1227 0.0720985 -1.98852e-24)
(1.10723 0.055226 -2.42647e-24)
(1.11202 0.0605554 -1.36995e-26)
(1.09869 0.0453369 -8.46082e-26)
(1.10279 0.0501597 2.41134e-24)
(1.09145 0.0363496 4.44103e-26)
(1.09491 0.0407399 0)
(1.08544 0.028122 2.31189e-26)
(1.08829 0.0321492 2.84542e-27)
(1.08059 0.0205291 1.09415e-27)
(1.08287 0.0242537 1.47608e-27)
(1.07686 0.0134604 0)
(1.07859 0.0169354 0)
(1.07422 0.00682354 2.42607e-28)
(1.0754 0.0100935 -3.90441e-28)
(1.07267 0.000535831 -1.15518e-28)
(1.07331 0.00364092 0)
(1.07225 -0.00547627 -3.78964e-28)
(1.07232 -0.00250051 0)
(1.073 -0.0112768 -1.63096e-24)
(1.07247 -0.00839904 0)
(1.07503 -0.0169246 -1.63996e-24)
(1.07385 -0.0141162 1.63705e-24)
(1.07851 -0.0224789 7.76304e-28)
(1.07658 -0.0197095 1.64608e-24)
(1.08368 -0.027992 -1.63057e-24)
(1.08087 -0.025239 0)