# Forces      
# CofR        : (0.000000e+00 0.000000e+00 0.000000e+00)
# Time        forces(pressure viscous)	moments(pressure viscous)
0             	((0.000000e+00 0.000000e+00 0.000000e+00) (0.000000e+00 0.000000e+00 0.000000e+00)) ((0.000000e+00 0.000000e+00 0.000000e+00) (0.000000e+00 0.000000e+00 0.000000e+00))
0.05          	((5.501635e-01 -3.555504e-02 -1.122645e-19) (2.758370e-01 3.483371e-02 -2.980386e-21)) ((8.888759e-03 1.375409e-01 -2.815961e+00) (-8.708429e-03 6.895925e-02 -1.308381e+00))
0.1           	((5.138620e-01 -2.609395e-02 -6.872002e-20) (2.518493e-01 3.154125e-02 -3.120378e-21)) ((6.523488e-03 1.284655e-01 -2.620862e+00) (-7.885312e-03 6.296233e-02 -1.194803e+00))
0.15          	((4.994321e-01 -2.840581e-02 -7.449997e-20) (2.315690e-01 2.892332e-02 -4.040141e-21)) ((7.101451e-03 1.248580e-01 -2.552661e+00) (-7.230830e-03 5.789225e-02 -1.098639e+00))
0.2           	((4.865640e-01 -2.728715e-02 -8.246514e-20) (2.136213e-01 2.661562e-02 -5.368189e-21)) ((6.821787e-03 1.216410e-01 -2.484713e+00) (-6.653904e-03 5.340531e-02 -1.013527e+00))
0.25          	((4.766747e-01 -2.365604e-02 -8.708787e-20) (1.975937e-01 2.448758e-02 -6.570596e-21)) ((5.914009e-03 1.191687e-01 -2.426728e+00) (-6.121895e-03 4.939842e-02 -9.376878e-01))
0.3           	((4.706776e-01 -2.146228e-02 -9.587731e-20) (1.833582e-01 2.238863e-02 -7.504865e-21)) ((5.365570e-03 1.176694e-01 -2.391005e+00) (-5.597159e-03 4.583956e-02 -8.708024e-01))
0.35          	((4.704605e-01 -1.907382e-02 -1.023351e-19) (1.707743e-01 2.032937e-02 -8.290722e-21)) ((4.768455e-03 1.176151e-01 -2.383934e+00) (-5.082343e-03 4.269359e-02 -8.121854e-01))
0.4           	((4.734805e-01 -1.813138e-02 -1.079162e-19) (1.596875e-01 1.838496e-02 -8.973767e-21)) ((4.532846e-03 1.183701e-01 -2.395935e+00) (-4.596240e-03 3.992187e-02 -7.609247e-01))
0.45          	((4.795612e-01 -1.673766e-02 -1.094349e-19) (1.499308e-01 1.662579e-02 -9.553460e-21)) ((4.184415e-03 1.198903e-01 -2.422559e+00) (-4.156448e-03 3.748271e-02 -7.160240e-01))
0.5           	((4.832391e-01 -1.656852e-02 -1.052940e-19) (1.413496e-01 1.513850e-02 -9.959159e-21)) ((4.142131e-03 1.208098e-01 -2.440537e+00) (-3.784626e-03 3.533739e-02 -6.764912e-01))
0.55          	((4.920873e-01 -1.393605e-02 -1.024677e-19) (1.337284e-01 1.388653e-02 -9.747144e-21)) ((3.484013e-03 1.230218e-01 -2.478284e+00) (-3.471634e-03 3.343210e-02 -6.412794e-01))
0.6           	((4.995059e-01 -1.187089e-02 -9.574030e-20) (1.269018e-01 1.279709e-02 -9.855022e-21)) ((2.967721e-03 1.248765e-01 -2.511471e+00) (-3.199273e-03 3.172545e-02 -6.096807e-01))
0.65          	((5.037579e-01 -1.031779e-02 -9.176194e-20) (1.207716e-01 1.184891e-02 -9.815919e-21)) ((2.579446e-03 1.259395e-01 -2.529057e+00) (-2.962226e-03 3.019289e-02 -5.812313e-01))
0.7           	((5.111913e-01 -1.217217e-02 -8.644288e-20) (1.152554e-01 1.106530e-02 -9.460892e-21)) ((3.043042e-03 1.277978e-01 -2.569766e+00) (-2.766325e-03 2.881386e-02 -5.554511e-01))
0.75          	((5.159194e-01 -1.035906e-02 -8.048592e-20) (1.102062e-01 1.042878e-02 -8.918474e-21)) ((2.589766e-03 1.289799e-01 -2.589941e+00) (-2.607196e-03 2.755155e-02 -5.316554e-01))
0.8           	((5.245172e-01 -1.220967e-02 -7.604318e-20) (1.056192e-01 9.967361e-03 -8.256669e-21)) ((3.052418e-03 1.311293e-01 -2.637109e+00) (-2.491840e-03 2.640479e-02 -5.097713e-01))
0.85          	((5.295745e-01 -1.169197e-02 -7.379338e-20) (1.014340e-01 9.647836e-03 -7.523529e-21)) ((2.922993e-03 1.323936e-01 -2.661540e+00) (-2.411959e-03 2.535849e-02 -4.895768e-01))
0.9           	((5.345900e-01 -3.889334e-03 -6.657543e-20) (9.765931e-02 9.312432e-03 -6.958792e-21)) ((9.723336e-04 1.336475e-01 -2.670694e+00) (-2.328108e-03 2.441483e-02 -4.714654e-01))
0.95          	((5.418591e-01 -1.083960e-02 -7.151445e-20) (9.425398e-02 8.974959e-03 -6.493591e-21)) ((2.709901e-03 1.354648e-01 -2.721176e+00) (-2.243740e-03 2.356349e-02 -4.551885e-01))
1             	((5.470988e-01 -1.105209e-02 -7.130928e-20) (9.118305e-02 8.646465e-03 -6.120214e-21)) ((2.763022e-03 1.367747e-01 -2.747920e+00) (-2.161616e-03 2.279576e-02 -4.405555e-01))
1.05          	((5.506459e-01 -1.132952e-02 -6.764137e-20) (8.840849e-02 8.336424e-03 -5.871347e-21)) ((2.832381e-03 1.376615e-01 -2.766744e+00) (-2.084106e-03 2.210212e-02 -4.273565e-01))
1.1           	((5.553951e-01 -1.165545e-02 -6.749013e-20) (8.590347e-02 8.065140e-03 -5.595351e-21)) ((2.913863e-03 1.388488e-01 -2.791405e+00) (-2.016285e-03 2.147587e-02 -4.154223e-01))
1.15          	((5.571843e-01 -1.420701e-02 -6.702717e-20) (8.364119e-02 7.831849e-03 -5.395693e-21)) ((3.551753e-03 1.392961e-01 -2.805966e+00) (-1.957962e-03 2.091030e-02 -4.046173e-01))
1.2           	((5.599407e-01 -1.287071e-02 -6.518589e-20) (8.159181e-02 7.618557e-03 -5.273702e-21)) ((3.217677e-03 1.399852e-01 -2.817051e+00) (-1.904639e-03 2.039795e-02 -3.948357e-01))
1.25          	((5.632522e-01 -1.285956e-02 -6.333334e-20) (7.975055e-02 7.418818e-03 -5.264840e-21)) ((3.214889e-03 1.408131e-01 -2.833897e+00) (-1.854704e-03 1.993764e-02 -3.860654e-01))
1.3           	((5.664432e-01 -1.329518e-02 -6.160528e-20) (7.809275e-02 7.228506e-03 -5.298661e-21)) ((3.323795e-03 1.416108e-01 -2.851096e+00) (-1.807126e-03 1.952319e-02 -3.781850e-01))
1.35          	((5.698020e-01 -1.314611e-02 -5.972646e-20) (7.658959e-02 7.059838e-03 -5.357257e-21)) ((3.286527e-03 1.424505e-01 -2.868184e+00) (-1.764959e-03 1.914740e-02 -3.710212e-01))
1.4           	((5.720610e-01 -1.358156e-02 -5.830026e-20) (7.524314e-02 6.977758e-03 -5.310808e-21)) ((3.395390e-03 1.430153e-01 -2.880846e+00) (-1.744440e-03 1.881078e-02 -3.644443e-01))
1.45          	((5.746059e-01 -1.366022e-02 -5.759286e-20) (7.403955e-02 6.866238e-03 -5.278266e-21)) ((3.415055e-03 1.436515e-01 -2.893925e+00) (-1.716559e-03 1.850989e-02 -3.586446e-01))
1.5           	((5.770448e-01 -1.335171e-02 -5.610518e-20) (7.294649e-02 6.753170e-03 -5.267159e-21)) ((3.337928e-03 1.442612e-01 -2.905846e+00) (-1.688292e-03 1.823662e-02 -3.533979e-01))
1.55          	((5.777303e-01 -1.463323e-02 -5.587989e-20) (7.195709e-02 6.626718e-03 -5.257220e-21)) ((3.658307e-03 1.444326e-01 -2.912380e+00) (-1.656680e-03 1.798927e-02 -3.486936e-01))
1.6           	((5.796837e-01 -1.460567e-02 -5.530264e-20) (7.108603e-02 6.510097e-03 -5.268073e-21)) ((3.651417e-03 1.449209e-01 -2.922374e+00) (-1.627524e-03 1.777151e-02 -3.445561e-01))
1.65          	((5.807794e-01 -1.533658e-02 -5.525697e-20) (7.031165e-02 6.409786e-03 -5.287456e-21)) ((3.834145e-03 1.451948e-01 -2.929648e+00) (-1.602446e-03 1.757791e-02 -3.408624e-01))
1.7           	((5.811590e-01 -1.558673e-02 -5.548655e-20) (6.960762e-02 6.300917e-03 -5.268518e-21)) ((3.896683e-03 1.452897e-01 -2.932225e+00) (-1.575229e-03 1.740191e-02 -3.375347e-01))
1.75          	((5.820987e-01 -1.581968e-02 -5.483335e-20) (6.896875e-02 6.194096e-03 -5.291757e-21)) ((3.954919e-03 1.455247e-01 -2.937713e+00) (-1.548524e-03 1.724219e-02 -3.345235e-01))
1.8           	((5.821213e-01 -1.531761e-02 -5.401603e-20) (6.839272e-02 6.094452e-03 -5.301856e-21)) ((3.829403e-03 1.455303e-01 -2.937043e+00) (-1.523613e-03 1.709818e-02 -3.318099e-01))
1.85          	((5.821822e-01 -1.558199e-02 -5.381239e-20) (6.787058e-02 6.003773e-03 -5.306321e-21)) ((3.895499e-03 1.455455e-01 -2.938148e+00) (-1.500943e-03 1.696764e-02 -3.293460e-01))
1.9           	((5.817781e-01 -1.520068e-02 -5.326087e-20) (6.740497e-02 5.922234e-03 -5.298195e-21)) ((3.800170e-03 1.454445e-01 -2.935580e+00) (-1.480558e-03 1.685124e-02 -3.271447e-01))
1.95          	((5.815136e-01 -1.507806e-02 -5.269985e-20) (6.698619e-02 5.851266e-03 -5.285019e-21)) ((3.769515e-03 1.453784e-01 -2.934236e+00) (-1.462817e-03 1.674655e-02 -3.251561e-01))
2             	((5.808945e-01 -1.482964e-02 -5.216982e-20) (6.661571e-02 5.790995e-03 -5.262595e-21)) ((3.707411e-03 1.452236e-01 -2.930835e+00) (-1.447749e-03 1.665393e-02 -3.233871e-01))
2.05          	((5.799799e-01 -1.475938e-02 -5.187534e-20) (6.629252e-02 5.741062e-03 -5.222461e-21)) ((3.689845e-03 1.449950e-01 -2.926303e+00) (-1.435266e-03 1.657313e-02 -3.218329e-01))
2.1           	((5.789318e-01 -1.454765e-02 -5.134749e-20) (6.600449e-02 5.697779e-03 -5.184170e-21)) ((3.636913e-03 1.447330e-01 -2.920823e+00) (-1.424445e-03 1.650112e-02 -3.204418e-01))
2.15          	((5.776664e-01 -1.331003e-02 -4.973391e-20) (6.575242e-02 5.664682e-03 -5.141098e-21)) ((3.327507e-03 1.444166e-01 -2.912192e+00) (-1.416170e-03 1.643810e-02 -3.192108e-01))
2.2           	((5.770702e-01 -1.352639e-02 -4.956037e-20) (6.554846e-02 5.645110e-03 -5.079025e-21)) ((3.381599e-03 1.442675e-01 -2.909824e+00) (-1.411278e-03 1.638712e-02 -3.181950e-01))
2.25          	((5.754494e-01 -1.312708e-02 -4.886115e-20) (6.537913e-02 5.633649e-03 -5.010760e-21)) ((3.281769e-03 1.438624e-01 -2.901081e+00) (-1.408412e-03 1.634478e-02 -3.173366e-01))
2.3           	((5.734954e-01 -1.269178e-02 -4.818470e-20) (6.523133e-02 5.628869e-03 -4.937165e-21)) ((3.172944e-03 1.433739e-01 -2.890575e+00) (-1.407217e-03 1.630783e-02 -3.165738e-01))
2.35          	((5.716290e-01 -1.211158e-02 -4.740040e-20) (6.510553e-02 5.629903e-03 -4.869509e-21)) ((3.027894e-03 1.429073e-01 -2.880199e+00) (-1.407476e-03 1.627638e-02 -3.159108e-01))
2.4           	((5.697760e-01 -1.171129e-02 -4.684231e-20) (6.500373e-02 5.636322e-03 -4.807533e-21)) ((2.927822e-03 1.424440e-01 -2.870234e+00) (-1.409080e-03 1.625093e-02 -3.153587e-01))
2.45          	((5.680248e-01 -1.073808e-02 -4.557340e-20) (6.492951e-02 5.651656e-03 -4.744797e-21)) ((2.684519e-03 1.420062e-01 -2.859632e+00) (-1.412914e-03 1.623238e-02 -3.149289e-01))
2.5           	((5.662438e-01 -9.785861e-03 -4.443005e-20) (6.487592e-02 5.674127e-03 -4.682631e-21)) ((2.446465e-03 1.415609e-01 -2.848888e+00) (-1.418532e-03 1.621898e-02 -3.145904e-01))
2.55          	((5.646499e-01 -8.973916e-03 -4.346935e-20) (6.484404e-02 5.701650e-03 -4.631633e-21)) ((2.243479e-03 1.411625e-01 -2.839359e+00) (-1.425412e-03 1.621101e-02 -3.143526e-01))
2.6           	((5.627049e-01 -8.326221e-03 -4.249119e-20) (6.482644e-02 5.732837e-03 -4.582643e-21)) ((2.081555e-03 1.406762e-01 -2.828421e+00) (-1.433209e-03 1.620661e-02 -3.141809e-01))
2.65          	((5.608198e-01 -7.243018e-03 -4.137424e-20) (6.482510e-02 5.769020e-03 -4.535317e-21)) ((1.810755e-03 1.402049e-01 -2.816856e+00) (-1.442255e-03 1.620627e-02 -3.140824e-01))
2.7           	((5.592809e-01 -6.572765e-03 -4.055802e-20) (6.484220e-02 5.811858e-03 -4.496595e-21)) ((1.643191e-03 1.398202e-01 -2.807869e+00) (-1.452965e-03 1.621055e-02 -3.140647e-01))
2.75          	((5.577343e-01 -5.878220e-03 -3.968637e-20) (6.487554e-02 5.856014e-03 -4.462343e-21)) ((1.469555e-03 1.394336e-01 -2.798792e+00) (-1.464003e-03 1.621888e-02 -3.141270e-01))
2.8           	((5.560505e-01 -5.067761e-03 -3.890058e-20) (6.492334e-02 5.902147e-03 -4.423560e-21)) ((1.266940e-03 1.390126e-01 -2.788756e+00) (-1.475537e-03 1.623084e-02 -3.142593e-01))
2.85          	((5.546418e-01 -3.918612e-03 -3.733443e-20) (6.498615e-02 5.956364e-03 -4.399180e-21)) ((9.796530e-04 1.386605e-01 -2.779476e+00) (-1.489091e-03 1.624654e-02 -3.144519e-01))
2.9           	((5.531902e-01 -3.064470e-03 -3.632941e-20) (6.505558e-02 6.012009e-03 -4.373973e-21)) ((7.661175e-04 1.382976e-01 -2.770529e+00) (-1.503002e-03 1.626389e-02 -3.146760e-01))
2.95          	((5.517740e-01 -1.875360e-03 -3.492413e-20) (6.513545e-02 6.073270e-03 -4.347897e-21)) ((4.688399e-04 1.379435e-01 -2.761082e+00) (-1.518318e-03 1.628386e-02 -3.149429e-01))
3             	((5.503417e-01 -8.557659e-04 -3.369310e-20) (6.522014e-02 6.137816e-03 -4.322792e-21)) ((2.139415e-04 1.375854e-01 -2.751892e+00) (-1.534454e-03 1.630504e-02 -3.152283e-01))
3.05          	((5.490463e-01 2.446029e-04 -3.230420e-20) (6.531029e-02 6.206586e-03 -4.300803e-21)) ((-6.115073e-05 1.372616e-01 -2.743233e+00) (-1.551647e-03 1.632757e-02 -3.155336e-01))
3.1           	((5.475543e-01 1.246297e-03 -3.111099e-20) (6.540400e-02 6.278824e-03 -4.274270e-21)) ((-3.115743e-04 1.368886e-01 -2.733770e+00) (-1.569706e-03 1.635100e-02 -3.158504e-01))
3.15          	((5.462789e-01 2.246923e-03 -2.983773e-20) (6.549815e-02 6.354021e-03 -4.252133e-21)) ((-5.617308e-04 1.365697e-01 -2.725400e+00) (-1.588505e-03 1.637454e-02 -3.161642e-01))
3.2           	((5.449925e-01 3.249641e-03 -2.856237e-20) (6.559371e-02 6.431951e-03 -4.230145e-21)) ((-8.124102e-04 1.362481e-01 -2.716969e+00) (-1.607988e-03 1.639843e-02 -3.164800e-01))
3.25          	((5.437200e-01 4.255847e-03 -2.728133e-20) (6.568987e-02 6.512614e-03 -4.208743e-21)) ((-1.063962e-03 1.359300e-01 -2.708598e+00) (-1.628154e-03 1.642247e-02 -3.167938e-01))
3.3           	((5.424969e-01 5.438340e-03 -2.576819e-20) (6.578556e-02 6.596962e-03 -4.188102e-21)) ((-1.359585e-03 1.356242e-01 -2.700124e+00) (-1.649240e-03 1.644639e-02 -3.170983e-01))
3.35          	((5.412699e-01 6.353673e-03 -2.458665e-20) (6.588132e-02 6.685116e-03 -4.165821e-21)) ((-1.588418e-03 1.353175e-01 -2.692153e+00) (-1.671279e-03 1.647033e-02 -3.173959e-01))
3.4           	((5.400452e-01 7.347932e-03 -2.332275e-20) (6.597625e-02 6.773502e-03 -4.144000e-21)) ((-1.836983e-03 1.350113e-01 -2.684035e+00) (-1.693375e-03 1.649406e-02 -3.176884e-01))
3.45          	((5.389226e-01 8.486266e-03 -2.187207e-20) (6.606883e-02 6.863471e-03 -4.125599e-21)) ((-2.121567e-03 1.347307e-01 -2.676141e+00) (-1.715868e-03 1.651721e-02 -3.179662e-01))
3.5           	((5.377069e-01 9.645205e-03 -2.038198e-20) (6.615908e-02 6.958077e-03 -4.103612e-21)) ((-2.411301e-03 1.344267e-01 -2.667737e+00) (-1.739519e-03 1.653977e-02 -3.182237e-01))
3.55          	((5.365915e-01 1.072316e-02 -1.897466e-20) (6.624519e-02 7.055197e-03 -4.083709e-21)) ((-2.680789e-03 1.341479e-01 -2.659997e+00) (-1.763799e-03 1.656130e-02 -3.184556e-01))
3.6           	((5.356291e-01 1.187319e-02 -1.746900e-20) (6.633067e-02 7.155126e-03 -4.064901e-21)) ((-2.968297e-03 1.339073e-01 -2.652880e+00) (-1.788782e-03 1.658267e-02 -3.186786e-01))
3.65          	((5.343159e-01 1.278730e-02 -1.621737e-20) (6.641079e-02 7.257457e-03 -4.041248e-21)) ((-3.196825e-03 1.335790e-01 -2.644474e+00) (-1.814364e-03 1.660270e-02 -3.188698e-01))
3.7           	((5.332828e-01 1.381388e-02 -1.487713e-20) (6.648663e-02 7.361316e-03 -4.019315e-21)) ((-3.453471e-03 1.333207e-01 -2.637246e+00) (-1.840329e-03 1.662166e-02 -3.190361e-01))
3.75          	((5.322845e-01 1.482199e-02 -1.354161e-20) (6.655960e-02 7.467088e-03 -3.997422e-21)) ((-3.705499e-03 1.330711e-01 -2.630228e+00) (-1.866772e-03 1.663990e-02 -3.191839e-01))
3.8           	((5.312907e-01 1.585826e-02 -1.217335e-20) (6.663155e-02 7.576466e-03 -3.974090e-21)) ((-3.964566e-03 1.328227e-01 -2.623174e+00) (-1.894117e-03 1.665789e-02 -3.193191e-01))
3.85          	((5.302727e-01 1.688284e-02 -1.084847e-20) (6.669938e-02 7.687353e-03 -3.948177e-21)) ((-4.220710e-03 1.325682e-01 -2.616019e+00) (-1.921838e-03 1.667484e-02 -3.194302e-01))
3.9           	((5.293320e-01 1.771751e-02 -9.683193e-21) (6.676256e-02 7.798972e-03 -3.922194e-21)) ((-4.429377e-03 1.323330e-01 -2.609636e+00) (-1.949743e-03 1.669064e-02 -3.195160e-01))
3.95          	((5.284041e-01 1.864132e-02 -8.461482e-21) (6.682300e-02 7.911794e-03 -3.895751e-21)) ((-4.660331e-03 1.321010e-01 -2.603134e+00) (-1.977948e-03 1.670575e-02 -3.195851e-01))
4             	((5.275329e-01 1.970062e-02 -7.066582e-21) (6.688064e-02 8.026309e-03 -3.868766e-21)) ((-4.925155e-03 1.318832e-01 -2.596645e+00) (-2.006577e-03 1.672016e-02 -3.196362e-01))
4.05          	((5.266214e-01 2.053712e-02 -5.962645e-21) (6.693539e-02 8.142781e-03 -3.837762e-21)) ((-5.134281e-03 1.316553e-01 -2.590396e+00) (-2.035695e-03 1.673385e-02 -3.196685e-01))
4.1           	((5.257760e-01 2.138021e-02 -4.850399e-21) (6.698670e-02 8.259692e-03 -3.805935e-21)) ((-5.345051e-03 1.314440e-01 -2.584466e+00) (-2.064923e-03 1.674667e-02 -3.196819e-01))
4.15          	((5.249868e-01 2.229030e-02 -3.654852e-21) (6.703555e-02 8.377173e-03 -3.773029e-21)) ((-5.572574e-03 1.312467e-01 -2.578682e+00) (-2.094293e-03 1.675889e-02 -3.196811e-01))
4.2           	((5.241369e-01 2.306965e-02 -2.615246e-21) (6.708177e-02 8.496305e-03 -3.737939e-21)) ((-5.767413e-03 1.310342e-01 -2.572856e+00) (-2.124076e-03 1.677044e-02 -3.196631e-01))
4.25          	((5.232992e-01 2.374937e-02 -1.751914e-21) (6.712530e-02 8.615271e-03 -3.698353e-21)) ((-5.937341e-03 1.308248e-01 -2.567283e+00) (-2.153818e-03 1.678132e-02 -3.196311e-01))
4.3           	((5.225379e-01 2.456619e-02 -6.716997e-22) (6.716600e-02 8.733743e-03 -3.660005e-21)) ((-6.141547e-03 1.306345e-01 -2.561826e+00) (-2.183436e-03 1.679150e-02 -3.195850e-01))
4.35          	((5.217107e-01 2.522804e-02 1.565154e-22) (6.720356e-02 8.852270e-03 -3.618286e-21)) ((-6.307010e-03 1.304277e-01 -2.556340e+00) (-2.213068e-03 1.680089e-02 -3.195224e-01))
4.4           	((5.209633e-01 2.587721e-02 9.836504e-22) (6.723907e-02 8.970327e-03 -3.576486e-21)) ((-6.469303e-03 1.302408e-01 -2.551281e+00) (-2.242582e-03 1.680977e-02 -3.194496e-01))
4.45          	((5.202492e-01 2.653482e-02 1.807004e-21) (6.727283e-02 9.087544e-03 -3.533926e-21)) ((-6.633705e-03 1.300623e-01 -2.546371e+00) (-2.271886e-03 1.681821e-02 -3.193688e-01))
4.5           	((5.195144e-01 2.714045e-02 2.546442e-21) (6.730503e-02 9.204957e-03 -3.489343e-21)) ((-6.785112e-03 1.298786e-01 -2.541458e+00) (-2.301239e-03 1.682626e-02 -3.192791e-01))
4.55          	((5.188523e-01 2.772387e-02 3.267115e-21) (6.733595e-02 9.321224e-03 -3.444906e-21)) ((-6.930968e-03 1.297131e-01 -2.536955e+00) (-2.330306e-03 1.683399e-02 -3.191845e-01))
4.6           	((5.181602e-01 2.825301e-02 3.904020e-21) (6.736527e-02 9.436032e-03 -3.399368e-21)) ((-7.063252e-03 1.295401e-01 -2.532408e+00) (-2.359008e-03 1.684132e-02 -3.190840e-01))
4.65          	((5.174979e-01 2.871971e-02 4.437121e-21) (6.739335e-02 9.549082e-03 -3.352725e-21)) ((-7.179926e-03 1.293745e-01 -2.528132e+00) (-2.387271e-03 1.684834e-02 -3.189800e-01))
4.7           	((5.168321e-01 2.928205e-02 5.077003e-21) (6.742037e-02 9.660543e-03 -3.306092e-21)) ((-7.320511e-03 1.292080e-01 -2.523646e+00) (-2.415136e-03 1.685509e-02 -3.188731e-01))
4.75          	((5.162523e-01 2.955456e-02 5.355171e-21) (6.744721e-02 9.769025e-03 -3.259609e-21)) ((-7.388639e-03 1.290631e-01 -2.520168e+00) (-2.442256e-03 1.686180e-02 -3.187704e-01))
4.8           	((5.155775e-01 2.990323e-02 5.655698e-21) (6.747285e-02 9.873781e-03 -3.212186e-21)) ((-7.475808e-03 1.288944e-01 -2.516053e+00) (-2.468445e-03 1.686821e-02 -3.186687e-01))
4.85          	((5.149805e-01 3.042830e-02 6.152241e-21) (6.749788e-02 9.975840e-03 -3.167761e-21)) ((-7.607074e-03 1.287451e-01 -2.511967e+00) (-2.493960e-03 1.687447e-02 -3.185689e-01))
4.9           	((5.143834e-01 3.031087e-02 6.084229e-21) (6.752337e-02 1.007570e-02 -3.124560e-21)) ((-7.577718e-03 1.285959e-01 -2.509220e+00) (-2.518925e-03 1.688084e-02 -3.184756e-01))
4.95          	((5.138858e-01 2.963326e-02 5.559631e-21) (6.754320e-02 1.017212e-02 -3.072986e-21)) ((-7.408315e-03 1.284715e-01 -2.508165e+00) (-2.543031e-03 1.688580e-02 -3.183570e-01))
5             	((5.133667e-01 2.996963e-02 5.705405e-21) (6.755939e-02 1.026547e-02 -3.014432e-21)) ((-7.492407e-03 1.283417e-01 -2.504843e+00) (-2.566366e-03 1.688985e-02 -3.182250e-01))
5.05          	((5.128426e-01 3.022117e-02 5.797083e-21) (6.757388e-02 1.035515e-02 -2.956056e-21)) ((-7.555292e-03 1.282106e-01 -2.501674e+00) (-2.588788e-03 1.689347e-02 -3.180920e-01))
5.1           	((5.123102e-01 2.966487e-02 5.101221e-21) (6.758888e-02 1.043874e-02 -2.896807e-21)) ((-7.416216e-03 1.280775e-01 -2.500128e+00) (-2.609684e-03 1.689722e-02 -3.179728e-01))
5.15          	((5.117777e-01 2.966306e-02 4.863052e-21) (6.760288e-02 1.051717e-02 -2.834748e-21)) ((-7.415766e-03 1.279444e-01 -2.497430e+00) (-2.629292e-03 1.690072e-02 -3.178583e-01))
5.2           	((5.112761e-01 2.963676e-02 4.618498e-21) (6.761645e-02 1.059057e-02 -2.774276e-21)) ((-7.409191e-03 1.278190e-01 -2.494939e+00) (-2.647642e-03 1.690411e-02 -3.177515e-01))
5.25          	((5.107923e-01 2.940304e-02 4.125554e-21) (6.762969e-02 1.065968e-02 -2.713418e-21)) ((-7.350760e-03 1.276981e-01 -2.492954e+00) (-2.664920e-03 1.690742e-02 -3.176516e-01))
5.3           	((5.102665e-01 2.913972e-02 3.549529e-21) (6.764213e-02 1.072244e-02 -2.652054e-21)) ((-7.284930e-03 1.275666e-01 -2.490814e+00) (-2.680610e-03 1.691053e-02 -3.175603e-01))
5.35          	((5.097810e-01 2.884044e-02 2.941363e-21) (6.765385e-02 1.077930e-02 -2.592060e-21)) ((-7.210109e-03 1.274452e-01 -2.488949e+00) (-2.694824e-03 1.691346e-02 -3.174770e-01))
5.4           	((5.093064e-01 2.847198e-02 2.231490e-21) (6.766522e-02 1.083019e-02 -2.532643e-21)) ((-7.117994e-03 1.273266e-01 -2.487277e+00) (-2.707546e-03 1.691630e-02 -3.174039e-01))
5.45          	((5.088307e-01 2.807075e-02 1.472558e-21) (6.767624e-02 1.087491e-02 -2.474047e-21)) ((-7.017687e-03 1.272077e-01 -2.485665e+00) (-2.718726e-03 1.691906e-02 -3.173413e-01))
5.5           	((5.083849e-01 2.760758e-02 6.371900e-22) (6.768680e-02 1.091364e-02 -2.416919e-21)) ((-6.901894e-03 1.270962e-01 -2.484328e+00) (-2.728409e-03 1.692170e-02 -3.172885e-01))
5.55          	((5.079223e-01 2.701787e-02 -3.725978e-22) (6.769786e-02 1.094516e-02 -2.359899e-21)) ((-6.754467e-03 1.269806e-01 -2.483158e+00) (-2.736290e-03 1.692446e-02 -3.172526e-01))
5.6           	((5.074866e-01 2.641472e-02 -1.417858e-21) (6.770845e-02 1.097004e-02 -2.304672e-21)) ((-6.603680e-03 1.268717e-01 -2.482149e+00) (-2.742509e-03 1.692711e-02 -3.172278e-01))
5.65          	((5.070426e-01 2.578434e-02 -2.510146e-21) (6.771877e-02 1.098800e-02 -2.250800e-21)) ((-6.446085e-03 1.267607e-01 -2.481152e+00) (-2.746999e-03 1.692969e-02 -3.172158e-01))
5.7           	((5.066347e-01 2.515602e-02 -3.602132e-21) (6.772885e-02 1.099926e-02 -2.199382e-21)) ((-6.289005e-03 1.266587e-01 -2.480331e+00) (-2.749816e-03 1.693221e-02 -3.172164e-01))
5.75          	((5.062418e-01 2.427224e-02 -4.992231e-21) (6.773985e-02 1.100260e-02 -2.149200e-21)) ((-6.068061e-03 1.265604e-01 -2.480105e+00) (-2.750651e-03 1.693496e-02 -3.172373e-01))
5.8           	((5.058472e-01 2.351071e-02 -6.280664e-21) (6.775138e-02 1.099924e-02 -2.100996e-21)) ((-5.877678e-03 1.264618e-01 -2.479620e+00) (-2.749810e-03 1.693784e-02 -3.172748e-01))
5.85          	((5.054266e-01 2.268397e-02 -7.628882e-21) (6.776237e-02 1.098872e-02 -2.054715e-21)) ((-5.670992e-03 1.263566e-01 -2.479137e+00) (-2.747181e-03 1.694059e-02 -3.173243e-01))
5.9           	((5.050416e-01 2.177918e-02 -9.094750e-21) (6.777328e-02 1.097116e-02 -2.009633e-21)) ((-5.444795e-03 1.262604e-01 -2.478987e+00) (-2.742791e-03 1.694332e-02 -3.173881e-01))
5.95          	((5.046457e-01 2.074558e-02 -1.072489e-20) (6.778419e-02 1.094623e-02 -1.965284e-21)) ((-5.186396e-03 1.261614e-01 -2.479040e+00) (-2.736557e-03 1.694605e-02 -3.174671e-01))
6             	((5.042514e-01 1.981294e-02 -1.223309e-20) (6.779526e-02 1.091305e-02 -1.923859e-21)) ((-4.953235e-03 1.260629e-01 -2.478901e+00) (-2.728263e-03 1.694882e-02 -3.175640e-01))
6.05          	((5.038892e-01 1.885387e-02 -1.377724e-20) (6.780622e-02 1.087297e-02 -1.884582e-21)) ((-4.713467e-03 1.259723e-01 -2.478975e+00) (-2.718242e-03 1.695156e-02 -3.176749e-01))
6.1           	((5.035122e-01 1.770523e-02 -1.555356e-20) (6.781722e-02 1.082540e-02 -1.846457e-21)) ((-4.426307e-03 1.258781e-01 -2.479356e+00) (-2.706349e-03 1.695431e-02 -3.178017e-01))
6.15          	((5.031350e-01 1.664504e-02 -1.722567e-20) (6.782817e-02 1.077033e-02 -1.810732e-21)) ((-4.161261e-03 1.257838e-01 -2.479560e+00) (-2.692584e-03 1.695704e-02 -3.179441e-01))
6.2           	((5.027823e-01 1.548542e-02 -1.903024e-20) (6.783888e-02 1.070802e-02 -1.776869e-21)) ((-3.871355e-03 1.256956e-01 -2.480086e+00) (-2.677006e-03 1.695972e-02 -3.181006e-01))
6.25          	((5.024400e-01 1.429809e-02 -2.086455e-20) (6.784955e-02 1.063861e-02 -1.745342e-21)) ((-3.574522e-03 1.256100e-01 -2.480720e+00) (-2.659651e-03 1.696239e-02 -3.182721e-01))
6.3           	((5.020944e-01 1.310951e-02 -2.270290e-20) (6.786042e-02 1.056177e-02 -1.716158e-21)) ((-3.277377e-03 1.255236e-01 -2.481341e+00) (-2.640442e-03 1.696510e-02 -3.184603e-01))
6.35          	((5.017518e-01 1.183396e-02 -2.464639e-20) (6.787104e-02 1.047798e-02 -1.688578e-21)) ((-2.958491e-03 1.254379e-01 -2.482153e+00) (-2.619495e-03 1.696776e-02 -3.186623e-01))
6.4           	((5.014077e-01 1.061568e-02 -2.651629e-20) (6.788172e-02 1.038670e-02 -1.664171e-21)) ((-2.653919e-03 1.253519e-01 -2.482845e+00) (-2.596674e-03 1.697043e-02 -3.188805e-01))
6.45          	((5.010695e-01 9.398809e-03 -2.837742e-20) (6.789176e-02 1.028916e-02 -1.641995e-21)) ((-2.349702e-03 1.252674e-01 -2.483564e+00) (-2.572291e-03 1.697294e-02 -3.191094e-01))
6.5           	((5.007377e-01 8.069499e-03 -3.038207e-20) (6.790147e-02 1.018475e-02 -1.621997e-21)) ((-2.017375e-03 1.251844e-01 -2.484541e+00) (-2.546188e-03 1.697537e-02 -3.193515e-01))
6.55          	((5.004193e-01 6.774906e-03 -3.233730e-20) (6.791100e-02 1.007382e-02 -1.604958e-21)) ((-1.693726e-03 1.251048e-01 -2.485518e+00) (-2.518456e-03 1.697775e-02 -3.196069e-01))
6.6           	((5.001094e-01 5.451962e-03 -3.432401e-20) (6.792026e-02 9.956579e-03 -1.590466e-21)) ((-1.362990e-03 1.250274e-01 -2.486595e+00) (-2.489145e-03 1.698007e-02 -3.198750e-01))
6.65          	((4.998127e-01 4.143968e-03 -3.628476e-20) (6.792979e-02 9.833439e-03 -1.578735e-21)) ((-1.035992e-03 1.249532e-01 -2.487710e+00) (-2.458360e-03 1.698245e-02 -3.201576e-01))
6.7           	((4.995112e-01 2.801371e-03 -3.828247e-20) (6.793934e-02 9.704132e-03 -1.569575e-21)) ((-7.003427e-04 1.248778e-01 -2.488872e+00) (-2.426033e-03 1.698484e-02 -3.204539e-01))
6.75          	((4.992061e-01 1.531076e-03 -4.017705e-20) (6.794850e-02 9.569273e-03 -1.562934e-21)) ((-3.827690e-04 1.248015e-01 -2.489873e+00) (-2.392318e-03 1.698713e-02 -3.207608e-01))
6.8           	((4.989209e-01 2.264081e-04 -4.210477e-20) (6.795736e-02 9.429605e-03 -1.559229e-21)) ((-5.660203e-05 1.247302e-01 -2.491045e+00) (-2.357401e-03 1.698934e-02 -3.210774e-01))
6.85          	((4.986201e-01 -1.145338e-03 -4.411372e-20) (6.796611e-02 9.285032e-03 -1.557391e-21)) ((2.863345e-04 1.246550e-01 -2.492274e+00) (-2.321258e-03 1.699153e-02 -3.214048e-01))
6.9           	((4.983412e-01 -2.421143e-03 -4.598365e-20) (6.797446e-02 9.135561e-03 -1.559190e-21)) ((6.052857e-04 1.245853e-01 -2.493423e+00) (-2.283890e-03 1.699361e-02 -3.217414e-01))
6.95          	((4.980673e-01 -3.717182e-03 -4.787257e-20) (6.798269e-02 8.981796e-03 -1.563407e-21)) ((9.292955e-04 1.245168e-01 -2.494639e+00) (-2.245449e-03 1.699567e-02 -3.220876e-01))
7             	((4.978117e-01 -4.965038e-03 -4.967948e-20) (6.799112e-02 8.823744e-03 -1.570857e-21)) ((1.241260e-03 1.244529e-01 -2.495854e+00) (-2.205936e-03 1.699778e-02 -3.224449e-01))
7.05          	((4.975510e-01 -6.273952e-03 -5.156330e-20) (6.799945e-02 8.662304e-03 -1.580292e-21)) ((1.568488e-03 1.243878e-01 -2.497165e+00) (-2.165576e-03 1.699986e-02 -3.228101e-01))
7.1           	((4.972872e-01 -7.478997e-03 -5.329541e-20) (6.800772e-02 8.496743e-03 -1.593171e-21)) ((1.869749e-03 1.243218e-01 -2.498256e+00) (-2.124186e-03 1.700193e-02 -3.231849e-01))
7.15          	((4.970309e-01 -8.691060e-03 -5.502819e-20) (6.801606e-02 8.328113e-03 -1.608064e-21)) ((2.172765e-03 1.242577e-01 -2.499400e+00) (-2.082028e-03 1.700401e-02 -3.235678e-01))
7.2           	((4.967778e-01 -9.851156e-03 -5.667776e-20) (6.802396e-02 8.156978e-03 -1.626180e-21)) ((2.462789e-03 1.241945e-01 -2.500458e+00) (-2.039244e-03 1.700599e-02 -3.239552e-01))
7.25          	((4.965399e-01 -1.102037e-02 -5.832827e-20) (6.803191e-02 7.983482e-03 -1.646810e-21)) ((2.755093e-03 1.241350e-01 -2.501612e+00) (-1.995870e-03 1.700798e-02 -3.243493e-01))
7.3           	((4.963146e-01 -1.208294e-02 -5.981664e-20) (6.804000e-02 7.808223e-03 -1.670706e-21)) ((3.020734e-03 1.240787e-01 -2.502619e+00) (-1.952056e-03 1.701000e-02 -3.247492e-01))
7.35          	((4.960899e-01 -1.309356e-02 -6.122847e-20) (6.804830e-02 7.631933e-03 -1.697093e-21)) ((3.273390e-03 1.240225e-01 -2.503526e+00) (-1.907983e-03 1.701208e-02 -3.251540e-01))
7.4           	((4.958802e-01 -1.411957e-02 -6.265219e-20) (6.805681e-02 7.455001e-03 -1.725935e-21)) ((3.529891e-03 1.239700e-01 -2.504540e+00) (-1.863750e-03 1.701420e-02 -3.255628e-01))
7.45          	((4.956621e-01 -1.502178e-02 -6.390447e-20) (6.806559e-02 7.277319e-03 -1.756961e-21)) ((3.755445e-03 1.239155e-01 -2.505265e+00) (-1.819330e-03 1.701640e-02 -3.259762e-01))
7.5           	((4.954595e-01 -1.587622e-02 -6.511197e-20) (6.807473e-02 7.099376e-03 -1.791116e-21)) ((3.969054e-03 1.238649e-01 -2.505966e+00) (-1.774844e-03 1.701868e-02 -3.263938e-01))
7.55          	((4.951625e-01 -1.616380e-02 -6.577683e-20) (6.808581e-02 6.921741e-03 -1.828869e-21)) ((4.040949e-03 1.237906e-01 -2.505014e+00) (-1.730435e-03 1.702145e-02 -3.268228e-01))
7.6           	((4.950358e-01 -1.812397e-02 -6.764831e-20) (6.809513e-02 6.749415e-03 -1.864254e-21)) ((4.530993e-03 1.237589e-01 -2.508473e+00) (-1.687354e-03 1.702378e-02 -3.272299e-01))
7.65          	((4.948617e-01 -1.875700e-02 -6.851716e-20) (6.810356e-02 6.578765e-03 -1.899773e-21)) ((4.689249e-03 1.237154e-01 -2.508888e+00) (-1.644691e-03 1.702589e-02 -3.276312e-01))
7.7           	((4.946845e-01 -1.936716e-02 -6.930658e-20) (6.811202e-02 6.410219e-03 -1.937261e-21)) ((4.841790e-03 1.236711e-01 -2.509248e+00) (-1.602555e-03 1.702801e-02 -3.280303e-01))
7.75          	((4.945239e-01 -2.001525e-02 -7.012906e-20) (6.812105e-02 6.243777e-03 -1.975869e-21)) ((5.003813e-03 1.236310e-01 -2.509767e+00) (-1.560944e-03 1.703026e-02 -3.284298e-01))
7.8           	((4.943417e-01 -2.053214e-02 -7.074612e-20) (6.813057e-02 6.079692e-03 -2.016731e-21)) ((5.133035e-03 1.235854e-01 -2.509919e+00) (-1.519923e-03 1.703264e-02 -3.288286e-01))
7.85          	((4.941877e-01 -2.097262e-02 -7.124366e-20) (6.814035e-02 5.919085e-03 -2.059695e-21)) ((5.243156e-03 1.235469e-01 -2.510062e+00) (-1.479771e-03 1.703509e-02 -3.292233e-01))