/*--------------------------------*- C++ -*----------------------------------*\
  =========                 |
  \\      /  F ield         | OpenFOAM: The Open Source CFD Toolbox
   \\    /   O peration     | Website:  https://openfoam.org
    \\  /    A nd           | Version:  10
     \\/     M anipulation  |
\*---------------------------------------------------------------------------*/
FoamFile
{
    format      ascii;
    class       volVectorField;
    location    "5";
    object      U;
}
// * * * * * * * * * * * * * * * * * * * * * * * * * * * * * * * * * * * * * //

dimensions      [0 1 -1 0 0 0 0];

internalField   nonuniform List<vector> 
40874
(
(0.71002 -0.238277 0)
(0.608819 -0.207869 3.62533e-19)
(1.08425 -0.583135 -3.81003e-20)
(1.0203 -0.519407 1.48855e-19)
(1.02536 -0.748825 9.63259e-20)
(1.01879 -0.759191 4.92047e-20)
(1.05083 -0.756159 -5.916e-21)
(1.16201 -0.517988 1.00722e-20)
(1.06111 -0.463597 -2.91689e-21)
(0.764543 -0.659805 1.14403e-19)
(0.756638 -0.481975 -1.66342e-19)
(0.456315 -0.647886 1.55294e-19)
(0.847284 -0.693572 1.22218e-20)
(0.840078 -0.422957 9.35459e-20)
(0.843703 -0.322182 -9.12227e-20)
(0.786161 -0.298973 8.85433e-20)
(1.00415 -0.664693 -3.49074e-21)
(1.15241 -0.728597 0)
(0.958292 -0.750145 -2.67438e-19)
(0.992234 -0.317089 -7.75044e-20)
(0.985194 -0.382125 -4.87352e-21)
(0.97427 -0.468129 -1.3925e-19)
(0.604559 -0.562309 1.07613e-20)
(0.575026 -0.681745 4.71515e-20)
(0.922525 -0.370624 1.25149e-19)
(1.14741 -0.496323 -4.2891e-21)
(1.17592 -0.500906 1.52891e-20)
(1.15665 -0.433423 6.8688e-21)
(1.19189 -0.453743 0)
(1.2908 -0.474763 -1.30874e-20)
(1.28768 -0.504426 -2.23097e-21)
(1.22776 -0.446032 3.39569e-21)
(1.17733 -0.501071 0)
(-0.318899 -0.0642352 6.21474e-20)
(-0.217076 -0.106444 0)
(-0.117778 -0.14173 0)
(-0.187431 -0.122674 -3.63448e-21)
(0.839794 0.0234747 -6.01147e-22)
(0.797665 0.0226321 -4.97321e-23)
(0.862462 0.0241861 6.34055e-21)
(0.927063 0.0224347 0)
(0.931697 0.0198851 1.38566e-21)
(0.886201 0.0220695 -2.08187e-21)
(0.817557 0.023509 -1.23213e-21)
(0.929583 0.0202782 -1.39859e-21)
(0.875829 0.0205066 9.34603e-22)
(0.797168 0.0221958 0)
(0.883337 0.578798 -2.34627e-20)
(0.769098 0.570464 4.78096e-20)
(0.758878 0.434293 -1.43747e-20)
(0.867881 0.451684 0)
(1.03934 0.580121 0)
(0.983927 0.530367 4.0791e-21)
(1.37154 -0.435697 4.93352e-20)
(1.42561 -0.385088 0)
(1.34387 -0.347614 0)
(1.31185 -0.370315 0)
(1.29187 -0.437544 -6.21337e-21)
(1.43939 -0.457765 -2.55089e-20)
(1.25825 -0.329827 1.08002e-19)
(1.41976 -0.316415 -1.44634e-19)
(1.20701 0.559259 0)
(1.10717 0.556289 0)
(1.12707 0.502686 1.43365e-21)
(1.25738 0.547236 -1.19399e-21)
(-0.0557212 -0.0359567 6.62974e-20)
(-0.0825248 -0.0338044 -5.29207e-20)
(-0.0558313 -0.033123 -4.99147e-20)
(-0.0501352 0.0443862 0)
(-0.0196922 0.0160271 -1.09298e-19)
(-0.0174227 0.0146916 -1.12687e-19)
(0.0288571 -0.0737769 2.43561e-19)
(0.00905707 -0.0251446 4.22391e-20)
(0.0164812 -0.0442327 4.02129e-20)
(0.678895 -0.0690906 -3.03979e-21)
(0.754518 -0.0286807 1.30948e-20)
(0.493721 0.030501 -4.30951e-21)
(0.333219 -0.0341173 -8.56079e-22)
(0.42064 0.0311926 -5.62903e-22)
(0.646312 0.030138 0)
(0.620287 0.0259065 6.87758e-22)
(0.313675 0.0210167 1.3998e-22)
(0.822954 0.346037 6.93732e-20)
(0.775618 0.330675 7.42341e-20)
(0.795317 0.251863 -3.75463e-20)
(0.836593 0.251335 1.6601e-19)
(1.27546 0.284729 -1.76647e-23)
(1.27377 0.294969 -7.13799e-21)
(1.25783 0.27765 -2.1948e-22)
(1.34137 0.344288 5.72789e-21)
(1.47245 0.349572 4.95125e-20)
(1.41689 0.295472 -4.02516e-21)
(1.51818 0.437798 4.98267e-20)
(1.27368 -0.706322 0)
(1.30317 -0.466746 -4.09219e-20)
(0.950485 -0.0289726 3.96381e-22)
(0.894404 -0.0396516 -1.37691e-21)
(0.848058 -0.0415369 2.1667e-21)
(0.917338 -0.0332117 -1.79647e-21)
(0.96296 -0.0287922 -3.02446e-22)
(0.995525 -0.038668 0)
(0.988916 -0.0317098 3.39422e-22)
(-0.0338711 0.0248559 -4.39321e-21)
(0.0328465 0.00587367 -2.91852e-20)
(-0.0734146 -0.0829361 0)
(-0.0592412 -0.102268 0)
(0.90772 0.328776 0)
(0.885364 0.374197 -6.75261e-20)
(0.213493 -0.132216 5.63953e-19)
(0.19157 -0.221418 -8.59985e-19)
(-0.107951 -0.125959 0)
(-0.127471 -0.150095 1.92929e-20)
(0.994079 -0.0364673 -2.716e-20)
(0.804356 -0.0267846 -2.5326e-21)
(0.760603 -0.0155635 1.0969e-20)
(0.838165 0.017478 -6.94113e-22)
(0.756368 0.0154807 6.90673e-22)
(0.50101 0.564193 7.39854e-21)
(0.446392 0.621144 -2.24955e-20)
(0.632749 0.742749 4.28194e-21)
(0.383225 0.622437 1.11126e-19)
(0.176766 -0.298063 -9.61815e-20)
(0.326331 -0.636113 9.70177e-20)
(0.22085 0.528766 -2.24912e-20)
(0.866544 0.0194832 0)
(0.787169 0.0191976 0)
(0.762553 0.0263888 -1.01465e-21)
(0.687983 0.0228362 0)
(0.174618 -0.0140542 0)
(0.235503 -0.0112961 1.64691e-21)
(1.00307 -0.0157715 -6.91798e-20)
(0.905139 0.0229375 -1.34997e-21)
(1.11159 -0.0367281 0)
(1.11133 -0.0370312 -1.12926e-21)
(0.667953 -0.0449884 0)
(1.30301 0.292397 4.63871e-21)
(1.30241 0.282296 -5.46379e-21)
(1.34083 0.314786 -5.48319e-21)
(1.25962 0.0717298 3.14973e-20)
(1.4108 0.0757419 -2.80037e-20)
(1.41128 0.0543832 1.45283e-20)
(1.25454 0.0535957 5.15434e-20)
(1.07108 0.0766459 -1.71061e-22)
(1.0803 0.0663282 -9.6397e-21)
(0.251351 -0.122472 -7.28799e-20)
(0.163505 -0.134717 9.07939e-20)
(0.0917906 -0.14451 -7.26632e-20)
(0.069736 -0.160982 -2.05954e-19)
(0.0348912 -0.0621071 -2.79598e-19)
(0.0914688 -0.137318 1.76981e-19)
(1.16079 -0.640967 0)
(1.42982 -0.355292 -1.32585e-20)
(1.36723 -0.321345 4.50663e-20)
(-0.07818 -0.0699241 1.40041e-19)
(-0.054087 -0.0448348 0)
(-0.0642226 -0.0648308 0)
(-0.0683072 -0.0487856 0)
(-0.0710436 -0.108975 -2.50402e-20)
(-0.0720129 -0.0782848 4.94878e-20)
(-0.0870276 -0.101755 0)
(0.0745335 0.0533271 7.65415e-20)
(0.253253 0.0629714 -1.62229e-19)
(0.34723 0.0847408 -5.48744e-20)
(0.0697649 -0.0225342 0)
(0.375111 -0.225586 -2.17863e-21)
(0.328365 -0.429606 2.74583e-19)
(0.463734 -0.503898 -2.58437e-20)
(0.624041 -0.344311 -3.14356e-19)
(1.05286 0.483725 -4.41506e-21)
(0.67178 0.0783886 0)
(0.107846 -0.415375 -9.80892e-20)
(0.116615 -0.468944 -1.84643e-19)
(0.478951 -0.56795 -1.13159e-19)
(0.120518 -0.364444 9.39335e-20)
(0.943622 -0.0273634 0)
(0.89582 -0.0291886 -5.04709e-21)
(1.22602 0.172436 9.87958e-20)
(1.18009 0.143233 -5.3733e-20)
(1.00922 0.125016 -7.4666e-20)
(-0.0147856 -0.064446 -7.32521e-20)
(0.0269822 -0.0737633 3.28361e-20)
(0.342224 -0.103702 1.87567e-20)
(0.281197 -0.107038 2.63252e-20)
(1.1774 -0.401009 6.81605e-20)
(1.04963 -0.293412 1.93627e-20)
(1.0469 -0.00706908 8.52039e-24)
(1.04672 -0.00717297 0)
(1.04687 -0.00734663 0)
(0.896518 0.268861 4.25676e-20)
(0.891471 0.242713 -1.04117e-19)
(0.91056 0.250037 -7.9147e-22)
(0.960006 0.446921 2.26003e-20)
(1.02032 0.43044 4.95205e-21)
(0.261074 0.118325 3.46297e-19)
(0.0836638 0.135631 0)
(0.0619928 0.0489188 0)
(0.208734 0.0269538 0)
(1.16856 0.708733 2.06141e-21)
(1.29079 0.654553 5.61001e-20)
(1.25163 0.673296 -2.28367e-20)
(1.04195 0.647477 -1.46089e-20)
(-0.0981142 0.0456817 -4.03812e-20)
(-0.104913 0.0417607 -1.51748e-19)
(-0.0625767 0.0361915 -2.84469e-20)
(-0.0694597 0.0360735 0)
(1.04665 -0.00689516 8.26655e-24)
(1.04685 -0.00685687 4.85001e-24)
(-0.107013 0.0494811 3.12712e-19)
(0.597805 -0.00321194 6.09135e-21)
(0.652941 -0.00850105 0)
(1.01377 -0.0338637 -2.39043e-20)
(1.01793 -0.0369204 5.47663e-20)
(0.813713 0.73216 -1.22415e-19)
(1.09945 -0.0939505 -5.93873e-20)
(1.01857 -0.117239 0)
(1.08429 -0.118604 -4.02682e-20)
(1.0885 -0.10124 3.29376e-20)
(1.01863 -0.0770385 1.06208e-20)
(1.01003 -0.0958345 1.81487e-20)
(0.62357 -0.114888 -2.33685e-19)
(0.480476 -0.00863156 1.3985e-19)
(0.408124 -0.110521 -4.07274e-19)
(0.926771 0.0193787 0)
(0.923548 0.0181616 4.2604e-22)
(0.858113 0.766054 1.1733e-19)
(0.448333 0.467764 -8.30218e-21)
(0.510889 0.51981 0)
(1.03358 -0.12787 0)
(-0.0981229 -0.109253 0)
(1.27398 0.114381 0)
(1.23506 0.124519 3.02404e-21)
(-0.088777 0.0603688 9.01621e-20)
(-0.0860925 0.0496908 3.7113e-20)
(1.4246 -0.313095 0)
(-0.125036 0.198804 -7.38588e-20)
(-0.0837496 0.203853 1.01847e-19)
(-0.160145 0.198247 -2.34405e-19)
(-0.168046 0.187514 2.08842e-19)
(-0.126779 0.173978 -3.00883e-20)
(0.544128 -0.32105 0)
(0.672867 -0.411434 -4.20017e-20)
(-0.0522677 0.0527654 3.08714e-20)
(-0.0432541 0.0412586 -3.50772e-20)
(0.890938 0.673102 0)
(1.05275 0.705006 3.25235e-21)
(0.911046 0.597276 -3.01626e-20)
(0.670881 0.501837 0)
(0.681184 0.293017 -1.14639e-19)
(0.618793 0.396527 8.04155e-20)
(0.470932 0.273941 -2.9773e-19)
(0.591991 0.179015 3.64556e-20)
(1.37711 0.182152 -1.42862e-20)
(1.36145 0.168044 1.89378e-20)
(1.37788 0.163019 7.43329e-21)
(1.39586 0.178298 0)
(1.14594 0.0876496 1.81377e-20)
(1.04916 0.0874142 -1.56439e-20)
(1.13759 0.10243 0)
(-0.14278 0.170846 0)
(-0.167714 0.127436 2.96435e-20)
(-0.107251 0.11599 3.65547e-20)
(-0.116868 -0.101644 1.48025e-20)
(-0.0678608 -0.0562257 -5.90102e-20)
(-0.0750492 -0.049649 1.54646e-19)
(0.0938125 0.233744 -4.94596e-19)
(0.024292 0.141719 -2.96402e-19)
(0.0164902 0.0881037 -4.15142e-20)
(0.759057 -0.00031742 5.64781e-20)
(0.781877 -0.0164607 -1.10027e-19)
(0.776049 0.0212367 0)
(0.224964 0.142254 2.65121e-20)
(1.04689 -0.00752866 2.042e-24)
(1.4261 0.185202 0)
(1.12742 -0.0404028 -4.04999e-21)
(1.21974 0.0956917 0)
(1.20878 0.0883651 -4.07335e-22)
(1.1981 0.0818943 1.01906e-22)
(1.18786 0.0757166 5.07681e-23)
(1.17761 0.0705931 -7.28059e-22)
(1.1684 0.0652089 1.28011e-21)
(1.16035 0.0582166 1.92797e-21)
(1.15263 0.0534808 -5.4712e-23)
(1.14515 0.048844 4.92592e-23)
(1.13843 0.0443227 -1.12616e-28)
(1.13203 0.0399638 4.29242e-23)
(1.12633 0.035886 6.15145e-22)
(1.12091 0.0319459 -6.9774e-22)
(1.11608 0.0282319 -4.68803e-26)
(1.11152 0.0246266 1.11865e-22)
(1.10749 0.021224 -2.15495e-21)
(1.10375 0.0179175 2.04264e-21)
(1.10057 0.0148778 0)
(1.09748 0.0117447 -3.03111e-22)
(1.09482 0.00875717 0)
(1.0925 0.00589054 -2.87549e-21)
(1.09056 0.00314352 2.83981e-21)
(1.0889 0.000443307 1.8391e-22)
(1.08759 -0.00216046 -9.19984e-26)
(1.08657 -0.00472543 0)
(1.0859 -0.00720949 -3.22767e-21)
(1.08553 -0.00966323 3.0022e-21)
(1.08551 -0.0120507 -3.299e-21)
(1.0858 -0.0144154 6.58713e-21)
(1.08646 -0.016725 -6.62817e-21)
(1.08746 -0.0190173 3.30151e-21)
(1.08884 -0.0212701 0)
(1.09062 -0.0235367 3.49713e-21)
(1.09301 -0.0259945 -6.08395e-21)
(1.09592 -0.0280343 3.65824e-21)
(1.09957 -0.0303699 0)
(1.10253 -0.0318472 2.70503e-21)
(1.10616 -0.0345338 0)
(1.25044 0.108158 2.70632e-22)
(1.24033 0.114006 7.51095e-22)
(1.25365 0.12282 3.61369e-22)
(1.26722 0.132541 0)
(1.27825 0.125221 7.27561e-22)
(1.26378 0.115993 8.519e-22)
(1.22653 0.0917704 0)
(1.2383 0.0989633 6.8839e-21)
(1.20373 0.0778699 -2.16397e-22)
(1.21478 0.0842602 1.1099e-21)
(1.18257 0.0663718 0)
(1.19288 0.0714789 0)
(1.16413 0.0555162 0)
(1.17255 0.061584 -1.35171e-21)
(1.14868 0.046567 -1.37618e-23)
(1.15614 0.0510606 -4.72836e-27)
(1.13533 0.0380663 -1.26121e-23)
(1.14178 0.0422666 6.99415e-27)
(1.12395 0.0303037 2.46031e-23)
(1.12944 0.0341361 6.21502e-27)
(1.11434 0.0232005 -3.45791e-23)
(1.11896 0.0267099 1.41502e-26)
(1.10646 0.0165968 -3.25975e-22)
(1.11018 0.019946 -5.57894e-23)
(1.09981 0.0106624 1.00097e-22)
(1.10295 0.0136168 3.17446e-22)
(1.0947 0.00498169 -4.75681e-23)
(1.09709 0.00778977 4.83864e-26)
(1.09093 -0.000334702 -6.09458e-23)
(1.09266 0.00230666 0)
(1.08846 -0.00537355 5.89153e-26)
(1.08954 -0.00286611 2.5806e-26)
(1.08727 -0.0101874 6.81985e-23)
(1.0877 -0.00778852 -2.55926e-26)
(1.08741 -0.014821 0)
(1.08717 -0.0125091 0)
(1.08893 -0.0193064 -3.37602e-26)
(1.08799 -0.0170675 -3.02858e-26)
(1.092 -0.0237196 4.67208e-22)
(1.09025 -0.0214896 6.57768e-26)
(1.09713 -0.0278528 -6.75285e-22)
(1.09413 -0.0260636 0)
(1.10036 -0.0303283 0)
(1.21343 0.100019 0)
(1.22751 0.107817 0)
(1.1924 0.0860748 0)
(1.20271 0.0928997 2.78738e-22)
(1.17264 0.0741643 9.1411e-22)
(1.18229 0.0794057 -4.94194e-23)
(1.15562 0.0592837 -1.03329e-21)
(1.16389 0.0674146 1.08081e-22)
(1.14089 0.0494643 0)
(1.1482 0.0543883 0)
(1.12794 0.0400068 2.26787e-26)
(1.13412 0.044566 3.42815e-29)
(1.11706 0.0316313 -6.31102e-26)
(1.12225 0.0356935 -2.28042e-26)
(1.10797 0.0240427 0)
(1.11229 0.0277332 0)
(1.10054 0.017153 0)
(1.10404 0.0204967 0)
(1.09454 0.0107033 0)
(1.09735 0.0138316 0)
(1.09 0.0047998 -3.65417e-27)
(1.0921 0.00769539 0)
(1.08678 -0.000759569 -3.17535e-26)
(1.08823 0.00197423 0)
(1.08486 -0.00603392 0)
(1.08566 -0.00343628 3.38708e-26)
(1.08424 -0.0110722 -3.666e-26)
(1.08439 -0.00858514 0)
(1.08496 -0.0159239 -3.84242e-26)
(1.08443 -0.013524 3.73871e-26)
(1.08711 -0.0206303 -3.95585e-26)
(1.08585 -0.0182965 3.85793e-26)
(1.09077 -0.025192 -3.84962e-26)
(1.08878 -0.0229495 3.94008e-26)
(1.09557 -0.0292999 0)
(1.09285 -0.0271288 3.96392e-26)
(1.10304 -0.0337575 0)
(1.09967 -0.0319965 0)
(1.29372 0.135233 5.02236e-23)
(1.31032 0.145519 0)
(1.29704 0.153898 3.7915e-22)
(1.28166 0.142771 2.7672e-21)
(1.32866 0.156471 -3.3576e-21)
(1.31323 0.165938 4.68199e-22)
(1.34677 0.164096 7.88473e-21)
(1.10492 -0.0322087 -1.91508e-21)
(1.10895 -0.0347609 -5.83101e-22)
(1.10678 -0.0357788 0)
(1.24317 0.129747 -2.3003e-22)
(1.23101 0.121997 -7.19875e-22)
(1.25571 0.139345 8.17382e-25)
(1.2839 0.160841 1.17241e-21)
(1.29918 0.173016 -3.17208e-21)
(1.39587 0.195325 9.23285e-21)
(1.36286 0.187717 5.09726e-21)
(1.35961 0.153856 -1.20436e-20)
(1.32186 0.13498 -1.01515e-21)
(1.3396 0.143744 2.14877e-21)
(1.28831 0.11707 9.57271e-23)
(1.30462 0.126425 -1.31712e-21)
(1.25888 0.100838 2.64837e-22)
(1.27314 0.108504 -1.31162e-21)
(1.23302 0.0857309 2.40842e-22)
(1.24587 0.0921569 -6.28245e-22)
(1.20917 0.0734598 -8.50802e-22)
(1.22081 0.079005 -1.09035e-21)
(1.18768 0.0618663 1.61582e-22)
(1.19818 0.0670907 -3.81406e-23)
(1.16948 0.0519179 0)
(1.17812 0.0573319 2.46471e-22)
(1.15376 0.0429793 4.46254e-23)
(1.1613 0.0473899 -7.11754e-26)
(1.14013 0.0348895 1.20002e-23)
(1.14673 0.0388786 3.07109e-26)
(1.12838 0.0275325 0)
(1.13404 0.0311729 -6.4197e-27)
(1.11842 0.020789 0)
(1.12319 0.0241298 1.59497e-26)
(1.11011 0.0145624 0)
(1.1141 0.0176578 5.82487e-23)
(1.10329 0.00882501 1.37594e-25)
(1.10652 0.0116716 -1.35238e-25)
(1.0979 0.00342213 8.07573e-24)
(1.10042 0.00610576 0)
(1.09388 -0.00166323 -4.71706e-23)
(1.09572 0.000869783 0)
(1.09119 -0.00649013 -1.06417e-25)
(1.09238 -0.00408358 5.01778e-26)
(1.08982 -0.011105 0)
(1.09034 -0.00879994 -4.64745e-26)
(1.08977 -0.0155528 6.0268e-23)
(1.08962 -0.0133281 1.13749e-25)
(1.09113 -0.0198604 0)
(1.09027 -0.0177072 1.85535e-25)
(1.09404 -0.0241188 -5.7151e-22)
(1.09237 -0.0219463 5.69559e-26)
(1.09881 -0.0282131 5.49262e-22)
(1.0961 -0.0263636 -7.36103e-23)
(1.10187 -0.0303816 1.55267e-22)
(1.11373 -0.0368508 5.69416e-22)
(1.11288 -0.038509 0)
(1.11751 -0.0384414 -2.90147e-21)
(1.11627 -0.0386963 7.84314e-22)
(1.20753 0.105412 4.90693e-23)
(1.21885 0.11385 -8.42044e-23)
(1.18595 0.0896976 0)
(1.19623 0.0969279 8.54376e-23)
(1.16732 0.0767541 -3.41517e-22)
(1.17628 0.0832063 -5.60565e-23)
(1.15127 0.0637621 -2.55457e-23)
(1.1589 0.0695522 1.56555e-23)
(1.13768 0.0537078 0)
(1.1442 0.0585384 0)
(1.12549 0.0441476 0)
(1.13139 0.0488241 -2.37301e-28)
(1.11501 0.0355294 3.53073e-26)
(1.12005 0.0397329 -1.99844e-28)
(1.10614 0.0277016 0)
(1.11039 0.0315304 0)
(1.09876 0.0205342 7.28562e-26)
(1.10228 0.0240481 0)
(1.09282 0.0139367 -8.28921e-27)
(1.09563 0.0171911 -5.8252e-26)
(1.08813 0.00774426 4.46287e-27)
(1.09032 0.010786 0)
(1.08472 0.0019573 0)
(1.08627 0.00480984 0)
(1.08256 -0.0035218 1.23775e-27)
(1.08349 -0.000814491 0)
(1.08163 -0.00875329 -2.95718e-28)
(1.08194 -0.00616338 0)
(1.08199 -0.0137874 3.28986e-28)
(1.08164 -0.0112906 0)
(1.08371 -0.0186734 -8.29471e-26)
(1.08267 -0.0162438 0)
(1.08699 -0.0234857 -6.31263e-28)
(1.08513 -0.0210803 8.32633e-26)
(1.09241 -0.0285406 1.71111e-22)
(1.08942 -0.0259707 0)
(1.10021 -0.0337026 8.13915e-22)
(1.09593 -0.0310746 -6.52211e-22)
(1.11018 -0.0386436 -6.30083e-22)
(1.10516 -0.0363661 -1.61448e-22)
(1.26935 0.149501 -1.16886e-21)
(1.23221 0.135355 -2.19374e-22)
(1.22115 0.126389 1.3268e-23)
(1.24407 0.145188 3.45129e-22)
(1.27027 0.167604 4.81095e-22)
(1.28467 0.180711 -8.7869e-22)
(1.10747 -0.038693 0)
(1.11615 -0.0410186 7.80878e-22)
(1.11327 -0.0410776 -1.6325e-22)
(1.38276 0.201868 2.73684e-21)
(1.33053 0.179875 -4.32033e-21)
(1.11866 -0.0381114 -9.31932e-22)
(1.31588 0.185259 2.78192e-21)
(1.125 -0.0402583 -2.23616e-21)
(1.41044 0.163747 -1.07648e-20)
(1.41881 0.204169 -4.12302e-22)
(1.44978 0.197219 -2.38145e-20)
(1.45583 0.181792 4.85443e-21)
(1.43324 0.171263 3.72288e-21)
(1.36815 0.144357 -1.11399e-20)
(1.38795 0.15232 6.21272e-21)
(1.33153 0.124874 7.41576e-22)
(1.34945 0.134475 -3.58065e-21)
(1.29736 0.108352 5.71793e-23)
(1.31395 0.116453 3.99286e-22)
(1.26627 0.0934156 -3.33375e-22)
(1.28147 0.100455 0)
(1.2393 0.0792583 0)
(1.25246 0.0855865 6.63639e-22)
(1.21452 0.0678765 8.07025e-22)
(1.22679 0.0729735 0)
(1.1931 0.0571493 2.85048e-22)
(1.20349 0.0621635 3.67468e-25)
(1.17437 0.0476662 0)
(1.18351 0.0526114 -2.82932e-22)
(1.15805 0.0392224 1.05932e-23)
(1.16586 0.0434298 4.74724e-25)
(1.14404 0.0315413 1.00337e-23)
(1.15081 0.0353232 8.97457e-27)
(1.13195 0.024591 -7.29382e-24)
(1.13777 0.0280302 0)
(1.12169 0.0182246 -5.57102e-24)
(1.12661 0.0213808 -1.59502e-26)
(1.1131 0.0123234 1.64782e-23)
(1.11722 0.0152356 0)
(1.10611 0.00687749 2.58856e-23)
(1.10942 0.00959132 0)
(1.10054 0.00175416 4.0856e-23)
(1.10315 0.00430142 0)
(1.09637 -0.00308325 4.71696e-23)
(1.09829 -0.000669933 0)
(1.09356 -0.00768414 -1.86961e-25)
(1.0948 -0.00538722 1.85232e-25)
(1.09208 -0.0120913 -1.02748e-25)
(1.09265 -0.00988701 2.07989e-25)
(1.09196 -0.016346 -1.14931e-22)
(1.09184 -0.0142145 2.00711e-25)
(1.09325 -0.020479 0)
(1.09242 -0.0184086 -3.37875e-25)
(1.09607 -0.0245367 0)
(1.09445 -0.0224766 -3.52693e-25)
(1.10077 -0.0285571 1.94513e-22)
(1.09813 -0.0266828 1.22747e-22)
(1.10709 -0.0324187 -5.96838e-22)
(1.10385 -0.0305139 -1.30438e-22)
(1.11611 -0.0368288 0)
(1.11132 -0.0347858 5.58573e-22)
(1.12107 -0.0382211 2.73455e-22)
(1.12165 -0.0408108 1.57197e-22)
(1.1239 -0.0407172 2.38985e-21)
(1.11861 -0.0405101 0)
(1.19944 0.109048 -1.57929e-22)
(1.21047 0.117601 0)
(1.17924 0.093676 0)
(1.18899 0.100955 6.17341e-23)
(1.16132 0.0794378 6.7265e-25)
(1.16997 0.0865657 5.25219e-23)
(1.14556 0.0667163 2.34455e-23)
(1.15334 0.072871 1.47558e-23)
(1.13169 0.0556872 0)
(1.13834 0.0611155 0)
(1.11994 0.0457055 9.37557e-26)
(1.12558 0.0505621 8.97877e-28)
(1.10992 0.0367471 0)
(1.11471 0.0411065 3.18477e-28)
(1.10149 0.0286413 -2.38626e-25)
(1.10551 0.032597 0)
(1.09454 0.0212409 -1.50902e-26)
(1.09784 0.0248595 2.39602e-25)
(1.08894 0.0144066 8.28931e-27)
(1.09157 0.0177545 2.48891e-28)
(1.08465 0.00806511 1.47895e-25)
(1.08664 0.011181 0)
(1.08158 0.0021157 1.60174e-25)
(1.08296 0.00504594 -1.52979e-25)
(1.07974 -0.003519 1.06597e-28)
(1.08051 -0.000737335 -1.60826e-25)
(1.07913 -0.00890187 1.72048e-25)
(1.07928 -0.00623883 0)
(1.07979 -0.0140874 1.75537e-25)
(1.07929 -0.0115166 -1.72401e-25)
(1.08182 -0.0191207 1.77992e-25)
(1.08063 -0.0166214 -1.76227e-25)
(1.08533 -0.0239989 -7.22433e-28)
(1.08339 -0.0215836 -1.78741e-25)
(1.09051 -0.0288208 -1.74394e-22)
(1.08766 -0.0263727 0)
(1.09766 -0.0336794 0)
(1.09385 -0.0312832 0)
(1.10214 -0.0361711 0)
(1.25671 0.155809 -4.70851e-22)
(1.30107 0.19387 4.00088e-22)
(1.22141 0.140408 -4.00235e-23)
(1.21112 0.131153 -1.06582e-22)
(1.12238 -0.0432395 -7.6394e-22)
(1.11975 -0.0435454 0)
(1.23241 0.150178 0)
(1.40467 0.216289 -1.05991e-20)
(1.12723 -0.0400214 7.04479e-21)
(1.13383 -0.0406228 -6.98513e-21)
(1.43894 0.210296 0)
(1.34917 0.193694 1.6782e-21)
(1.36828 0.211897 -2.12539e-20)
(1.4629 0.167006 1.11314e-21)
(1.49546 0.181007 -3.27446e-22)
(1.48063 0.192613 1.19501e-20)
(1.33403 0.199897 4.19589e-21)
(1.31896 0.207752 9.44205e-22)
(1.4206 0.148963 3.78602e-21)
(1.4409 0.156838 -5.3572e-21)
(1.37985 0.132965 -3.94033e-22)
(1.39951 0.139776 8.02319e-22)
(1.3403 0.115046 -3.31486e-22)
(1.35945 0.12398 1.2739e-21)
(1.30523 0.0988934 0)
(1.32249 0.10667 -4.23457e-24)
(1.2732 0.0852222 -6.5477e-24)
(1.28879 0.0918173 9.57502e-24)
(1.2451 0.0724686 0)
(1.25862 0.0784405 0)
(1.22012 0.0616893 0)
(1.2323 0.0667208 0)
(1.1981 0.0518149 -3.08943e-24)
(1.20872 0.0565234 2.58194e-24)
(1.17883 0.0430345 -6.99887e-23)
(1.1882 0.0475474 -1.90269e-24)
(1.16191 0.0351785 -3.99296e-23)
(1.17001 0.0390893 1.87033e-25)
(1.14747 0.0280077 -2.23411e-23)
(1.15442 0.0315454 -1.90643e-25)
(1.13507 0.0214973 2.34088e-23)
(1.14103 0.0247205 -4.10752e-25)
(1.12455 0.0155282 7.93625e-24)
(1.12959 0.018488 -2.4167e-26)
(1.11575 0.00998795 -1.63716e-23)
(1.11995 0.0127335 -1.54863e-25)
(1.10858 0.00484998 -2.58841e-23)
(1.11198 0.00740965 0)
(1.10288 1.53623e-05 -2.7353e-23)
(1.10555 0.00242211 0)
(1.09861 -0.00456235 2.79525e-25)
(1.10057 -0.00227694 -2.76374e-25)
(1.09571 -0.00892506 3.2665e-25)
(1.09699 -0.00674449 -3.23647e-25)
(1.09416 -0.0131148 0)
(1.09476 -0.0110171 0)
(1.09399 -0.0171679 5.43533e-23)
(1.0939 -0.0151351 3.59381e-25)
(1.09526 -0.0211187 0)
(1.09444 -0.0191356 6.12368e-25)
(1.09807 -0.0249871 0)
(1.09646 -0.0230305 2.28148e-25)
(1.10276 -0.028846 -6.08772e-23)
(1.10012 -0.0270005 -1.21555e-22)
(1.10922 -0.0325972 -2.94807e-22)
(1.10585 -0.0307372 1.18521e-22)
(1.11811 -0.0366547 2.30097e-22)
(1.11346 -0.0347428 6.18197e-22)
(1.12273 -0.0382199 -2.61822e-22)
(1.13112 -0.0419822 0)
(1.13281 -0.041397 9.46587e-22)
(1.12739 -0.0427604 -6.06114e-22)
(1.12968 -0.0425568 0)
(1.12495 -0.0428852 -4.53198e-22)
(1.19109 0.113593 8.97599e-23)
(1.20111 0.12235 -9.0069e-23)
(1.17161 0.0970128 -8.15403e-25)
(1.18108 0.105029 -9.79788e-26)
(1.15478 0.0825682 -4.32239e-25)
(1.1629 0.089563 2.0247e-26)
(1.13977 0.0696714 0)
(1.14704 0.0758789 0)
(1.12688 0.0584074 9.94932e-26)
(1.13306 0.0638542 0)
(1.11575 0.0482675 -2.10683e-25)
(1.12112 0.053215 -6.60562e-28)
(1.10618 0.0390954 0)
(1.11077 0.043566 0)
(1.0981 0.0307778 0)
(1.10196 0.0348397 0)
(1.0914 0.0231734 2.79736e-25)
(1.09458 0.0268951 0)
(1.086 0.0161648 0)
(1.08854 0.0196037 -3.00431e-25)
(1.08183 0.00963721 0)
(1.08377 0.0128457 0)
(1.07884 0.00351582 0)
(1.08018 0.0065311 0)
(1.07703 -0.00227892 -1.3444e-27)
(1.07779 0.000582507 0)
(1.07641 -0.00781539 -3.46077e-28)
(1.07657 -0.00507545 0)
(1.07703 -0.0131517 -7.32297e-28)
(1.07656 -0.010505 0)
(1.07898 -0.0183417 3.8058e-25)
(1.07783 -0.0157615 0)
(1.08244 -0.0234489 3.83204e-25)
(1.0805 -0.0208998 -3.8175e-25)
(1.0877 -0.0285517 -3.07077e-27)
(1.08485 -0.0260048 -3.83247e-25)
(1.09507 -0.0337199 0)
(1.09107 -0.0311251 0)
(1.10485 -0.0389102 3.76706e-22)
(1.09966 -0.0363422 0)
(1.5568 0.226156 3.59239e-21)
(1.55192 0.205747 0)
(1.35214 0.215426 -1.24381e-21)
(1.4814 0.213619 8.89461e-21)
(1.11716 -0.0439495 -3.73261e-22)
(1.11072 -0.0414606 -3.67763e-22)
(1.25702 0.173565 -5.32592e-22)
(1.24442 0.161042 0)
(1.28581 0.201522 1.30155e-21)
(1.27035 0.187742 7.37984e-22)
(1.33875 0.2228 2.55871e-21)
(1.54341 0.191441 3.22949e-20)
(1.55681 0.237617 2.89698e-20)
(1.46105 0.222414 -1.66866e-20)
(1.52984 0.171937 -1.8757e-20)
(1.55028 0.183518 0)
(1.20075 0.1346 7.87209e-23)
(1.21061 0.144411 -8.17826e-23)
(1.38916 0.23146 1.94562e-20)
(1.49968 0.192737 -3.53657e-20)
(1.46603 0.171316 0)
(1.30271 0.217387 6.07285e-22)
(1.11445 -0.0443505 7.32008e-22)
(1.12396 -0.0463951 -7.01554e-22)
(1.12132 -0.0469443 7.1004e-22)
(1.51384 0.208066 7.98174e-21)
(1.43031 0.2263 5.63824e-21)
(1.55161 0.268716 0)
(1.4721 0.153842 1.19064e-21)
(1.50661 0.167301 0)
(1.42982 0.135576 -1.72121e-21)
(1.44891 0.143798 2.10265e-21)
(1.38982 0.120026 3.84425e-22)
(1.4096 0.12662 0)
(1.3489 0.104003 6.33076e-22)
(1.36901 0.112138 -1.10351e-23)
(1.31242 0.0893246 -5.34271e-22)
(1.33011 0.0965343 -1.23122e-23)
(1.27967 0.0766811 1.41925e-23)
(1.2956 0.0828106 -1.6794e-23)
(1.25069 0.0652136 -3.58374e-22)
(1.26467 0.0706897 5.91462e-24)
(1.22515 0.0552351 1.4203e-22)
(1.23755 0.0600012 -4.74172e-24)
(1.20259 0.0462036 0)
(1.21349 0.0505665 0)
(1.18286 0.0381394 7.2231e-23)
(1.19243 0.0422267 0)
(1.16552 0.0308989 0)
(1.17384 0.0344985 0)
(1.15071 0.0242918 -1.27373e-24)
(1.15784 0.0275583 2.29826e-24)
(1.13802 0.0182605 -1.662e-23)
(1.14412 0.0212508 1.3922e-24)
(1.12726 0.0127113 -1.23616e-23)
(1.13241 0.0154653 0)
(1.11827 0.00755441 0)
(1.12256 0.0101159 0)
(1.11094 0.00274532 -4.13326e-25)
(1.11441 0.00514142 5.19965e-25)
(1.10512 -0.00178805 6.31037e-24)
(1.10785 0.000472837 2.5954e-25)
(1.10074 -0.00609454 -4.63251e-25)
(1.10275 -0.00394332 7.38898e-26)
(1.09775 -0.0102094 -5.6201e-25)
(1.09907 -0.00815026 6.7235e-26)
(1.09614 -0.0141725 0)
(1.09678 -0.0121862 -5.77884e-25)
(1.09593 -0.018016 -4.38553e-23)
(1.09586 -0.0160864 -3.66753e-25)
(1.09717 -0.0217741 0)
(1.09636 -0.0198846 3.14182e-25)
(1.09997 -0.025458 0)
(1.09837 -0.0235988 7.5345e-25)
(1.10464 -0.0291394 0)
(1.10202 -0.0273354 4.30091e-25)
(1.11116 -0.0327525 1.14872e-22)
(1.10771 -0.0309485 0)
(1.12007 -0.0365833 -4.85056e-22)
(1.11536 -0.0346997 -5.32576e-23)
(1.1311 -0.0404639 2.23274e-21)
(1.12532 -0.0384933 0)
(1.13676 -0.0433696 -5.31074e-22)
(1.13836 -0.0413707 1.43629e-21)
(1.13864 -0.0429994 -9.232e-22)
(1.13332 -0.0444714 -5.76285e-22)
(1.13541 -0.0440581 1.09812e-21)
(1.12895 -0.0453905 1.25265e-21)
(1.13127 -0.0449334 1.44944e-21)
(1.12655 -0.0458882 3.4577e-22)
(1.18197 0.116789 1.675e-23)
(1.19129 0.125495 -1.69922e-23)
(1.16389 0.100121 2.80183e-24)
(1.17271 0.108235 0)
(1.14781 0.0852146 1.27054e-25)
(1.15562 0.0924706 -2.0237e-26)
(1.13359 0.0720266 -1.0769e-25)
(1.14048 0.078417 3.05931e-25)
(1.12119 0.0603494 9.58292e-25)
(1.12717 0.0660249 0)
(1.11055 0.0499065 -2.34538e-26)
(1.11567 0.0549865 -9.31981e-25)
(1.10146 0.0405094 -1.16493e-24)
(1.10582 0.0450876 0)
(1.0938 0.0319959 0)
(1.09746 0.0361521 1.16955e-24)
(1.08747 0.0242178 6.88145e-25)
(1.09047 0.0280233 0)
(1.08238 0.0170467 7.14262e-25)
(1.08477 0.0205629 -6.71287e-25)
(1.07849 0.01038 0)
(1.08029 0.0136566 -7.05636e-25)
(1.07574 0.00412308 7.59671e-25)
(1.07697 0.00720564 0)
(1.07413 -0.00180495 -1.56401e-27)
(1.07479 0.00112264 -7.59591e-25)
(1.07369 -0.00747416 7.92898e-25)
(1.07377 -0.00466794 0)
(1.07447 -0.0129453 8.04242e-25)
(1.07392 -0.010231 -7.95611e-25)
(1.07656 -0.0182695 8.10617e-25)
(1.07534 -0.0156231 -8.07019e-25)
(1.0801 -0.023486 8.10742e-25)
(1.07814 -0.0208886 -8.138e-25)
(1.08532 -0.028657 8.11924e-25)
(1.08248 -0.0260708 -8.15519e-25)
(1.09247 -0.0337978 -8.06564e-25)
(1.08864 -0.0312303 -8.11952e-25)
(1.10214 -0.0391002 -3.81791e-22)
(1.09697 -0.0364274 7.92461e-25)
(1.10799 -0.0417429 3.7517e-22)
(1.22117 0.154727 3.57649e-22)
(1.24337 0.178058 5.61366e-22)
(1.23211 0.165671 -5.88077e-22)
(1.26971 0.20811 -3.238e-22)
(1.25574 0.193063 -4.9231e-22)
(1.3732 0.240095 3.28901e-22)
(1.52099 0.153749 -6.10346e-21)
(1.55269 0.162412 -5.85433e-21)
(1.34105 0.163685 6.86335e-21)
(1.37542 0.190231 -1.5421e-20)
(1.13309 -0.0400564 1.31213e-21)
(1.1396 -0.0411391 -6.62956e-22)
(1.32135 0.235908 3.56581e-22)
(1.28481 0.224296 -1.72907e-21)
(1.1308 -0.0486933 -1.03947e-21)
(1.12837 -0.0493513 6.9485e-22)
(1.51237 0.24337 -4.38403e-20)
(1.4501 0.236917 -4.74212e-20)
(1.43689 0.151205 2.03826e-20)
(1.41752 0.245385 -3.652e-20)
(1.36152 0.254375 0)
(1.20016 0.148478 2.7781e-24)
(1.19069 0.138312 0)
(1.48427 0.1403 -3.62551e-21)
(1.51928 0.151541 -1.71799e-22)
(1.43831 0.122073 0)
(1.45911 0.130452 0)
(1.39797 0.106624 0)
(1.4178 0.113629 -2.78649e-23)
(1.35662 0.0922914 7.14118e-22)
(1.37709 0.0994998 1.09587e-23)
(1.31905 0.0792886 1.13714e-21)
(1.33723 0.0857321 0)
(1.28558 0.0678288 -4.77571e-22)
(1.30182 0.0734284 0)
(1.2559 0.0575608 1.4053e-22)
(1.27026 0.0625209 1.7387e-23)
(1.22971 0.0485218 -3.15897e-22)
(1.2424 0.0529041 3.37099e-23)
(1.20667 0.0403456 1.21455e-22)
(1.2178 0.0443311 0)
(1.18654 0.0330368 0)
(1.19629 0.0367104 0)
(1.16889 0.026439 6.08503e-23)
(1.17737 0.02972 8.51073e-24)
(1.15377 0.0204135 4.94161e-23)
(1.16104 0.0233973 -7.57277e-25)
(1.14082 0.014889 -3.2162e-23)
(1.14704 0.0176326 -4.87737e-25)
(1.12985 0.00978285 1.00181e-23)
(1.1351 0.0123208 0)
(1.12068 0.00502363 0)
(1.12505 0.00739227 -3.33625e-25)
(1.1132 0.000562661 -5.812e-24)
(1.11674 0.00278753 -1.13393e-25)
(1.10726 -0.00365847 2.10358e-23)
(1.11004 -0.00155006 -5.84761e-25)
(1.10278 -0.00768156 0)
(1.10484 -0.00566953 9.68987e-25)
(1.09971 -0.0115399 -9.45968e-25)
(1.10107 -0.00960682 1.42732e-24)
(1.09804 -0.0152682 -3.49913e-23)
(1.0987 -0.0133975 1.13281e-24)
(1.09778 -0.0188951 4.448e-23)
(1.09773 -0.0170724 -6.25399e-25)
(1.09898 -0.0224515 0)
(1.09819 -0.0206611 -7.08587e-25)
(1.10177 -0.02595 3.63543e-25)
(1.10017 -0.0241851 -1.11571e-24)
(1.10641 -0.0294509 -4.65492e-23)
(1.10382 -0.0277121 0)
(1.11301 -0.0329342 0)
(1.10948 -0.031178 0)
(1.12198 -0.0365811 -1.99031e-22)
(1.11723 -0.0347606 5.41339e-23)
(1.12718 -0.0383243 4.11916e-22)
(1.1417 -0.0447331 -2.32085e-22)
(1.14357 -0.0431829 -2.26294e-21)
(1.14301 -0.044016 1.97092e-22)
(1.13882 -0.046001 -3.35452e-26)
(1.14042 -0.0453854 0)
(1.13525 -0.0473618 -1.68093e-22)
(1.13714 -0.0466706 -5.90706e-22)
(1.13314 -0.0480298 -9.66832e-22)
(1.17282 0.119855 -1.68102e-23)
(1.18164 0.128858 1.69057e-23)
(1.15587 0.102709 -2.33299e-24)
(1.1642 0.111124 0)
(1.14073 0.0875053 -9.58002e-25)
(1.14806 0.0948517 3.46574e-25)
(1.1274 0.0741049 2.26886e-24)
(1.13385 0.0805977 6.45903e-26)
(1.11578 0.0622416 -1.25414e-25)
(1.12138 0.0679955 -2.03181e-24)
(1.10574 0.0516434 -2.50871e-24)
(1.11058 0.0568014 -1.41e-26)
(1.09714 0.0420895 -8.74427e-26)
(1.10127 0.0467462 2.49445e-24)
(1.08987 0.0334237 4.60479e-26)
(1.09334 0.037655 0)
(1.08385 0.0255018 2.40322e-26)
(1.08671 0.0293783 2.95431e-27)
(1.07902 0.0181978 1.06256e-27)
(1.08129 0.0217801 1.53601e-27)
(1.07532 0.0114009 0)
(1.07703 0.0147422 0)
(1.07272 0.00501833 2.35342e-28)
(1.07388 0.00816323 -4.07578e-28)
(1.07123 -0.00103226 -1.1205e-28)
(1.07184 0.00195645 0)
(1.07087 -0.00682372 -3.98682e-28)
(1.07091 -0.00395618 0)
(1.07169 -0.0124201 -1.71242e-24)
(1.07113 -0.00964252 0)
(1.07379 -0.0178792 -1.72289e-24)
(1.07257 -0.0151632 1.71881e-24)
(1.07735 -0.0232595 8.1794e-28)
(1.07538 -0.0205753 1.72932e-24)
(1.0826 -0.0286127 -1.71531e-24)
(1.07975 -0.0259378 0)