/*--------------------------------*- C++ -*----------------------------------*\
  =========                 |
  \\      /  F ield         | OpenFOAM: The Open Source CFD Toolbox
   \\    /   O peration     | Website:  https://openfoam.org
    \\  /    A nd           | Version:  10
     \\/     M anipulation  |
\*---------------------------------------------------------------------------*/
FoamFile
{
    format      ascii;
    class       volScalarField;
    location    "49";
    object      p;
}
// * * * * * * * * * * * * * * * * * * * * * * * * * * * * * * * * * * * * * //

dimensions      [0 2 -2 0 0 0 0];

internalField   nonuniform List<scalar> 
28942
(
-0.00375447
-0.00312585
0.0020473
0.00953044
0.00983059
0.000110547
0.00033377
3.59878e-05
0.00274518
0.00283325
-0.0023005
-0.00257002
-0.00295473
-0.00287202
0.000221077
0.000556
0.00991201
0.0101818
0.00560556
0.00716661
0.00818438
0.00817622
-0.0052185
-0.00504199
-0.00357063
-0.00379286
0.0139098
0.0138589
0.00355599
0.0034994
2.67069e-05
6.44064e-05
0.000869639
0.000361705
0.00717589
0.00838192
0.0109193
0.0128783
3.63293e-06
0.0150741
0.00913488
0.0116327
0.00185115
0.00177607
0.00182733
0.000332455
0.000187125
0.000266117
0.000306957
0.000429309
0.00080721
0.00282925
0.00289958
0.00287687
0.00303279
-0.00233677
-0.00103187
-0.00336332
-0.00320859
-0.00348084
-0.00355379
-0.00355479
-0.00345249
-9.4532e-05
-0.00179981
-0.000339001
0.000995395
0.00945333
0.00895672
-0.00334426
-0.00355487
-0.00328921
0.00901741
0.00886957
0.00916121
-0.00145429
-0.00106589
-0.000724511
0.00238259
0.00278211
0.00187134
0.000774179
-0.00630008
-0.00753053
0.00110909
0.00383663
0.00487901
0.00566747
0.00405054
0.00417505
0.00614315
0.00552103
-0.00137167
-0.00166569
-0.00194559
-0.00178235
-0.00160626
0.00536524
0.00665703
-0.00784185
0.0113278
0.0105288
0.00582271
0.00941998
0.000934325
0.000845111
0.000752298
0.00550672
0.00569936
0.00569335
-0.00320622
-0.00312658
-0.00310943
-0.00259111
-0.00271317
0.0158656
0.0138594
0.0133015
0.0149332
0.00167048
0.00475369
0.00345063
0.00509664
0.00477367
0.0155371
0.0158328
0.0144924
0.00593923
0.00701879
0.000224149
0.000333541
0.00013358
0.0105277
0.0110315
0.00771214
0.00736434
0.0128213
0.00672393
0.00801592
0.00908353
-0.00188315
-0.0023963
0.00738466
0.00177308
0.00185487
-0.00115798
-0.00142343
-0.000959561
-0.00249596
0.00662453
0.00575137
0.00374139
0.000300818
0.000240129
0.000102203
0.000243162
0.00756177
0.00682645
-0.00183595
-0.00195357
-0.00184841
-0.00412246
-0.00366533
8.19884e-05
-0.00284052
-0.000485136
0.00842644
0.00853525
0.0096295
0.00916486
0.00774249
0.00312493
0.00304281
0.00328755
0.00316375
0.00507721
0.00485497
0.00518969
0.00541021
0.00534773
0.00541762
0.00562849
0.00618206
0.00587631
0.00547386
0.00580389
0.00650967
0.00726287
0.00755516
-0.000541918
-0.000523467
-0.00244804
0.000249404
8.25173e-05
-0.00196483
-0.00205429
0.000336399
0.000399058
0.000359667
0.000289144
0.00203243
0.00199501
0.00196539
-0.00290249
-0.00309102
-0.00275373
-0.00432774
-0.00481168
-0.0041206
-0.00470978
-0.00647836
-0.00517401
0.0160595
0.0167699
0.0165374
0.000973603
0.00111891
0.00100523
0.0103819
0.00995408
0.0100345
0.00156921
0.00154767
0.00159077
0.00152605
0.0015048
0.00148352
0.00148441
0.00146244
0.00146341
0.00150535
0.00152652
0.00154791
0.0015696
0.00159124
0.00144183
0.00144233
0.00161211
0.00161259
0.0016337
0.00142128
0.0014214
0.00163413
0.00140051
0.00137991
0.00140085
0.00138041
0.00165573
0.0016562
0.00135955
0.00136006
0.00167699
0.0016777
0.00133933
0.00133988
0.00169846
0.00169915
0.00131928
0.00131985
0.00171988
0.0017206
0.00129936
0.00130001
0.00174124
0.00174193
0.00127972
0.00128018
0.00176251
0.00176316
0.00126017
0.00126058
0.00178359
0.00178428
0.00124075
0.00124106
0.00180442
0.00180498
0.00122144
0.00122153
0.00182553
0.00182603
0.00120227
0.00120188
0.00184594
0.00184614
0.0011827
0.00118247
0.00186641
0.00186658
0.00116278
0.00116301
0.00184492
0.00186535
0.00188678
0.0018867
0.0018028
0.00182422
0.00176059
0.00178206
0.00171848
0.00173967
0.00167559
0.00169713
0.00163226
0.0016539
0.00158969
0.00161167
0.00154712
0.00156833
0.00150423
0.00152545
0.00146166
0.00148291
0.00142007
0.00144084
0.001379
0.00139947
0.00133854
0.00135871
0.0012987
0.00131856
0.0012595
0.00127904
0.00122088
0.00124012
0.00118216
0.00120173
0.00116267
0.0011432
0.00114337
0.00120198
0.00116314
0.00118256
0.00124101
0.00122145
0.00128007
0.00126052
0.00131968
0.00129982
0.0013599
0.00133972
0.00140073
0.00138025
0.00144207
0.00142138
0.0014842
0.00146316
0.00152663
0.00150547
0.00156916
0.00154777
0.0016126
0.00159118
0.00165561
0.00163382
0.00169876
0.00167728
0.00174139
0.00172018
0.00178353
0.00176249
0.00182514
0.00180422
0.00186529
0.00184548
0.00188541
0.00188606
0.00114309
0.00114366
0.0019062
0.00190458
0.00190636
0.00190666
0.0018426
0.00188373
0.00186319
0.0018006
0.00182183
0.00175898
0.00177969
0.00171685
0.00173802
0.00167414
0.00169555
0.00163125
0.00165269
0.00158812
0.00160973
0.00154535
0.00156709
0.0015033
0.00152398
0.00146079
0.00148195
0.0014192
0.00143994
0.00137822
0.00139864
0.00133783
0.00135795
0.00129806
0.00131787
0.0012589
0.00127841
0.00122036
0.00123956
0.00118182
0.00120112
0.00112363
0.00112374
0.00114303
0.00116248
0.0011633
0.00114406
0.00112437
0.00112385
0.0012021
0.0011827
0.00124072
0.00122124
0.00127965
0.00126012
0.00131919
0.00129935
0.00135936
0.00133921
0.00140014
0.00137968
0.00144149
0.00142077
0.00148342
0.00146237
0.00152589
0.00150455
0.00156847
0.00154716
0.00161145
0.00159014
0.00165454
0.00163306
0.00169748
0.00167606
0.00174001
0.00171882
0.00178187
0.00176106
0.00182283
0.00180252
0.00186277
0.00184292
0.00190116
0.00188239
0.00190384
0.00192372
0.00192022
0.00192486
0.00112394
0.00112467
0.00192515
0.0019226
0.0019422
0.00193898
0.0019259
0.00114312
0.00112411
0.0011051
0.0011054
0.00191849
0.00194293
0.00196554
0.00194356
0.00187981
0.00189948
0.00183916
0.00185951
0.00179788
0.00181879
0.0017565
0.00177702
0.00171462
0.00173568
0.00167214
0.00169343
0.00162941
0.0016508
0.00158658
0.00160795
0.00154389
0.0015652
0.00150154
0.00152269
0.0014596
0.00148053
0.00141813
0.0014388
0.00137724
0.00139761
0.00133693
0.00135701
0.00129724
0.00131701
0.00125815
0.00127762
0.00121966
0.00123884
0.0011814
0.00120046
0.00116223
0.00110462
0.00110473
0.00110463
0.0011048
0.00116336
0.00112499
0.00114423
0.00120184
0.00118259
0.00124015
0.00122086
0.001279
0.0012595
0.00131847
0.00129866
0.00135855
0.00133843
0.00139923
0.00137882
0.00144049
0.0014198
0.00148229
0.00146132
0.00152451
0.00150337
0.00156717
0.00154583
0.00160993
0.00158851
0.00165281
0.00163141
0.00169551
0.0016742
0.00173781
0.00171673
0.00177942
0.00175873
0.00181998
0.00179989
0.00185932
0.00183977
0.00189722
0.00187843
0.0019341
0.00191539
0.00195601
0.00195144
0.00194392
0.00194336
0.00110508
0.00110586
0.00196058
0.00195954
0.00195846
0.00196811
0.00197238
0.0019069
0.00198578
0.00194477
0.00194766
0.00194942
0.00191448
0.00193486
0.00187411
0.00189426
0.00183453
0.00185414
0.0017942
0.00181475
0.00175335
0.00177384
0.0017117
0.00173262
0.00166949
0.00169065
0.00162699
0.00164827
0.00158443
0.0016057
0.00154197
0.00156315
0.00149976
0.00152085
0.00145801
0.00147884
0.0014167
0.00143729
0.00137593
0.00139625
0.00133575
0.00135577
0.00129616
0.00131588
0.00125717
0.00127659
0.00121876
0.0012379
0.00118078
0.00119968
0.00114305
0.00116189
0.00110508
0.00112398
0.00108594
0.00108606
0.00108603
0.0010859
0.00108584
0.00108622
0.001086
0.00108699
0.00108655
0.00112511
0.00108744
0.0011063
0.00116308
0.00114411
0.00120117
0.00118216
0.00123935
0.0012202
0.00127812
0.00125867
0.00131749
0.00129774
0.00135746
0.00133741
0.00139802
0.00137767
0.00143914
0.00141852
0.00148079
0.0014599
0.00152284
0.00150178
0.00156527
0.00154403
0.00160785
0.00158654
0.00165048
0.00162918
0.00169291
0.00167174
0.00173491
0.00171399
0.00177618
0.00175566
0.0018164
0.00179646
0.00185515
0.00183597
0.00189222
0.00187394
0.00192779
0.00191011
0.00196166
0.0019444
0.00198364
0.0019771
0.00196126
0.00196155
0.00197547
0.0019747
0.00110498
0.00108625
0.00106815
0.00106834
0.00198143
0.00198819
0.00201119
0.00193804
0.00199703
0.00199134
0.00197461
0.00196188
0.00193546
0.00194045
0.00190748
0.00192472
0.00186772
0.00188762
0.00182955
0.00184878
0.00179
0.00180998
0.00174945
0.00176983
0.00170813
0.00172888
0.00166625
0.00168725
0.00162406
0.00164519
0.00158178
0.00160292
0.00153958
0.00156066
0.00149763
0.00151857
0.00145606
0.00147679
0.00141493
0.00143543
0.00137433
0.00139457
0.0013343
0.00135425
0.00129484
0.0013145
0.00125597
0.00127534
0.00121767
0.00123675
0.00117994
0.00119875
0.00114244
0.00116111
0.00112361
0.00106733
0.00106733
0.00106733
0.00106753
0.0010675
0.00106774
0.00106767
0.00106786
0.00112498
0.00108731
0.0011064
0.00116256
0.00114376
0.00120027
0.00118145
0.00123836
0.00121925
0.00127702
0.00125762
0.00131627
0.00129657
0.0013561
0.00133611
0.00139651
0.00137624
0.00143746
0.00141692
0.00147891
0.00145813
0.00152076
0.0014998
0.00156294
0.00154183
0.00160527
0.00158409
0.00164759
0.00162645
0.0016897
0.0016687
0.00173133
0.0017106
0.00177221
0.00175189
0.00181199
0.00179227
0.0018503
0.00183136
0.00188674
0.0018688
0.00192121
0.00190439
0.00195328
0.00193659
0.00198409
0.00196992
0.00200419
0.00199654
0.00197845
0.00197713
0.00106723
0.0010686
0.00198792
0.00195196
0.00198194
0.00199067
0.00200131
0.00200085
0.00200667
0.00200787
0.0020101
0.00201623
0.00201021
0.00197804
0.00194705
0.00199679
0.0019759
0.00192591
0.00193378
0.00189857
0.00191594
0.0018616
0.0018801
0.00182397
0.00184298
0.00178495
0.00180462
0.00174485
0.00176501
0.00170395
0.00172449
0.00166246
0.00168327
0.00162063
0.00164158
0.00157867
0.00159966
0.00153678
0.00155771
0.0014951
0.00151591
0.00145376
0.00147438
0.00141286
0.00143325
0.00137245
0.00139259
0.00133259
0.00135245
0.00129329
0.00131287
0.00125456
0.00127386
0.0012164
0.00123541
0.00117879
0.00119753
0.00114158
0.00116018
0.0011043
0.00112294
0.00106692
0.00108576
0.00104877
0.00104821
0.0010484
0.00104924
0.00104898
0.00104957
0.00104941
0.00104964
0.00104965
0.00104968
0.00104966
0.0010501
0.00104977
0.00108716
0.00105021
0.00106865
0.00112444
0.00110589
0.00116178
0.00114311
0.00119919
0.00118043
0.00123716
0.00121811
0.00127569
0.00125636
0.00131479
0.00129518
0.00135446
0.00133456
0.00139469
0.00137451
0.00143544
0.00141501
0.00147667
0.00145601
0.00151828
0.00149744
0.00156017
0.0015392
0.00160219
0.00158118
0.00164418
0.00162321
0.0016859
0.00166509
0.00172712
0.0017066
0.00176753
0.00174746
0.00180682
0.00178735
0.00184463
0.00182594
0.00188057
0.00186287
0.00191426
0.0018978
0.00194553
0.00193006
0.00197394
0.00196051
0.00200006
0.00198597
0.00202251
0.00201325
0.00199131
0.00200052
0.00199684
0.00106651
0.00104813
0.00103158
0.00103154
0.00199198
0.00200445
0.00200596
0.00201426
0.00202173
0.00202944
0.00203294
0.00202434
0.00199221
0.00198542
0.00201033
0.00199992
0.00199406
0.001945
0.00196701
0.00191762
0.0019288
0.00188988
0.00190642
0.00185447
0.0018723
0.00181756
0.00183623
0.00177915
0.00179853
0.0017396
0.00175951
0.00169918
0.00171949
0.00165814
0.00167873
0.00161672
0.00163747
0.00157513
0.00159594
0.00153357
0.00155434
0.0014922
0.00151286
0.00145114
0.00147163
0.00141048
0.00143076
0.0013703
0.00139033
0.00133063
0.0013504
0.00129152
0.00131101
0.00125295
0.00127217
0.00121493
0.00123387
0.00117745
0.00119613
0.00114049
0.00115891
0.00110347
0.00112199
0.00108496
0.00103055
0.00102982
0.00103023
0.00103132
0.00103099
0.00103177
0.00103158
0.0010318
0.00103184
0.00103158
0.00103173
0.00103153
0.0010869
0.00104996
0.00106842
0.00112369
0.00110528
0.00116065
0.00114218
0.00119794
0.00117923
0.00123577
0.00121679
0.00127415
0.0012549
0.00131308
0.00129355
0.00135257
0.00133276
0.00139259
0.00137252
0.00143311
0.0014128
0.00147408
0.00145355
0.00151541
0.00149471
0.00155698
0.00153618
0.00159865
0.00157782
0.00164025
0.00161948
0.00168155
0.00166096
0.0017223
0.00170202
0.00176221
0.00174239
0.00180096
0.00178176
0.00183819
0.0018198
0.00187356
0.00185615
0.00190669
0.00189046
0.00193728
0.00192233
0.00196464
0.00195147
0.00199021
0.00197694
0.00201292
0.00200113
0.00202684
0.00201852
0.00203395
0.00202354
0.00200222
0.00102978
0.0010313
0.00200636
0.00200572
0.00202031
0.00201207
0.00201782
0.00202752
0.00202763
0.00203529
0.00203983
0.00204243
0.00204312
0.00203322
0.0020051
0.00198627
0.00202223
0.00201488
0.00199515
0.00197224
0.00198353
0.00193902
0.00195493
0.00190947
0.0019231
0.00188081
0.00189661
0.00184658
0.00186394
0.00181046
0.00182876
0.00177273
0.00179178
0.00173377
0.00175339
0.00169388
0.00171393
0.00165333
0.00167368
0.00161235
0.00163288
0.00157117
0.00159178
0.00152999
0.00155058
0.00148895
0.00150945
0.00144819
0.00146853
0.00140781
0.00142795
0.00136787
0.00138779
0.00132843
0.00134809
0.00128952
0.00130891
0.00125113
0.00127026
0.00121328
0.00123214
0.00117594
0.00119455
0.00113912
0.00115747
0.00110264
0.0011209
0.00106601
0.00108425
0.00102946
0.00104787
0.00101186
0.00101114
0.00101144
0.0010128
0.00101227
0.0010136
0.00101323
0.00101408
0.00101389
0.00101409
0.00101414
0.00101378
0.00101394
0.00101338
0.0010135
0.00101305
0.00101319
0.0010496
0.0010131
0.00103146
0.00108626
0.00106784
0.00112268
0.00110452
0.00115934
0.00114096
0.00119651
0.00117787
0.00123419
0.00121529
0.00127239
0.00125323
0.00131114
0.0012917
0.00135041
0.00133071
0.0013902
0.00137025
0.00143047
0.00141029
0.00147115
0.00145077
0.00151216
0.00149163
0.00155339
0.00153276
0.00159468
0.00157404
0.00163585
0.0016153
0.00167669
0.00165633
0.00171693
0.00169691
0.00175629
0.00173675
0.00179446
0.00177556
0.00183108
0.001813
0.00186582
0.00184872
0.00189832
0.0018824
0.00192828
0.00191365
0.00195515
0.00194216
0.00197932
0.00196761
0.0020005
0.00198965
0.00202042
0.00201151
0.00203602
0.0020323
0.002038
0.00202456
0.0020162
0.00201936
0.00202122
0.00203255
0.00203006
0.00202754
0.00203096
0.001029
0.00101093
0.000994965
0.000994912
0.00204075
0.00203991
0.00204623
0.00204917
0.00205067
0.0020483
0.00202594
0.0020177
0.00202078
0.00204398
0.00203575
0.0020376
0.00201889
0.00200494
0.00200622
0.00197478
0.00198645
0.00195888
0.00197026
0.0019294
0.00194357
0.00190113
0.00191526
0.00187141
0.00188686
0.00183815
0.00185509
0.00180279
0.00182072
0.00176575
0.00178446
0.00172741
0.00174673
0.00168809
0.00170786
0.00164806
0.00166815
0.00160756
0.00162786
0.00156682
0.00158722
0.00152604
0.00154643
0.00148537
0.00150569
0.00144494
0.00146512
0.00140486
0.00142486
0.00136519
0.00138497
0.001326
0.00134554
0.0012873
0.00130659
0.00124912
0.00126815
0.00121145
0.00123022
0.00117428
0.0011928
0.0011376
0.00115588
0.00110141
0.00111946
0.00106515
0.00108329
0.0010471
0.000994008
0.000993105
0.000993549
0.000995168
0.000994619
0.000996018
0.000995635
0.000996474
0.0009963
0.000996494
0.00099654
0.000996114
0.000996339
0.000995571
0.000995848
0.000995303
0.00104904
0.00101286
0.00103098
0.00108531
0.00106713
0.00112138
0.0011033
0.0011579
0.00113958
0.00119491
0.00117634
0.00123241
0.0012136
0.00127043
0.00125136
0.00130896
0.00128964
0.00134801
0.00132843
0.00138755
0.00136773
0.00142753
0.00140749
0.0014679
0.00144768
0.00150857
0.00148821
0.00154942
0.00152899
0.00159029
0.00156987
0.001631
0.00161069
0.00167134
0.00165124
0.00171105
0.0016913
0.00174983
0.00173058
0.00178739
0.00176879
0.00182338
0.00180561
0.00185747
0.00184069
0.00188931
0.00187371
0.00191862
0.00190432
0.00194501
0.00193222
0.00196843
0.00195715
0.00198885
0.00197897
0.00200554
0.00199809
0.00202254
0.00201095
0.00203686
0.00203718
0.00205122
0.00204105
0.00203006
0.00202068
0.00204642
0.00204271
0.00203062
0.00203264
0.00099291
0.000994599
0.00204724
0.00204149
0.00204334
0.00205098
0.00205124
0.00205617
0.00205854
0.00205645
0.00205184
0.00202614
0.00201231
0.0020142
0.0020154
0.00202119
0.00203465
0.00202955
0.00204296
0.00205231
0.00204995
0.00204414
0.00203256
0.00200689
0.00200513
0.00198838
0.00199347
0.0019649
0.00197709
0.00194554
0.00195618
0.00191927
0.00193277
0.00189148
0.00190554
0.00186179
0.00187702
0.00182927
0.00184584
0.00179463
0.0018122
0.00175827
0.00177665
0.00172058
0.00173958
0.00168185
0.00170133
0.00164236
0.00166219
0.00160238
0.00162242
0.00156211
0.00158227
0.00152175
0.00154193
0.00148147
0.0015016
0.0014414
0.00146141
0.00140164
0.00142148
0.00136227
0.0013819
0.00132334
0.00134275
0.00128488
0.00130405
0.00124691
0.00126584
0.00120944
0.00122812
0.00117246
0.00119089
0.00113594
0.00115415
0.00109989
0.00111786
0.00106413
0.00108203
0.0010284
0.0010462
0.000992567
0.00101042
0.000975393
0.000974685
0.000974959
0.000976538
0.000975866
0.000977686
0.000977133
0.000978531
0.000978159
0.000978967
0.0009788
0.000978996
0.000979034
0.000978618
0.000978852
0.00097792
0.000978328
0.000977179
0.000977533
0.000976512
0.000976862
0.00101217
0.000976252
0.000994261
0.0010483
0.00103022
0.00108401
0.00106621
0.00111993
0.00110191
0.0011563
0.00113806
0.00119313
0.00117466
0.00123045
0.00121173
0.00126826
0.0012493
0.00130657
0.00128736
0.00134537
0.00132592
0.00138463
0.00136495
0.00142431
0.00140443
0.00146435
0.0014443
0.00150464
0.00148448
0.00154508
0.00152486
0.00158551
0.00156532
0.00162574
0.00160567
0.00166555
0.00164573
0.0017047
0.00168524
0.00174288
0.00172394
0.00177981
0.00176153
0.00181515
0.00179771
0.00184857
0.00183213
0.00187976
0.00186449
0.00190842
0.00189445
0.00193425
0.00192173
0.00195712
0.00194609
0.00197687
0.00196743
0.00199269
0.00198541
0.0020057
0.00199964
0.00200613
0.0020567
0.00205906
0.0020344
0.0020226
0.00204419
0.00204524
0.00204732
0.00205257
0.00205482
0.000991847
0.000974169
0.000958718
0.000958255
0.00206222
0.00206157
0.00206536
0.00206591
0.00206365
0.00206021
0.00202026
0.00200672
0.00201773
0.0020269
0.0020408
0.00204362
0.00205645
0.00205515
0.00204254
0.00202138
0.00203492
0.00204553
0.00200099
0.00199127
0.00198957
0.0019965
0.00197236
0.00198106
0.00195392
0.00196379
0.00193333
0.00194408
0.0019084
0.00192131
0.00188117
0.00189502
0.00185184
0.00186684
0.00181999
0.00183622
0.00178604
0.00180326
0.00175037
0.00176841
0.00171332
0.00173201
0.0016752
0.00169438
0.00163628
0.00165583
0.00159682
0.00161661
0.00155704
0.00157697
0.00151714
0.0015371
0.00147727
0.0014972
0.00143758
0.0014574
0.00139816
0.00141783
0.0013591
0.00137859
0.00132045
0.00133973
0.00128226
0.0013013
0.00124453
0.00126333
0.00120727
0.00122584
0.00117048
0.00118882
0.00113414
0.00115226
0.00109825
0.00111614
0.00106277
0.00108047
0.00102736
0.00104499
0.00100961
0.000957793
0.000956831
0.000957348
0.00095917
0.000958515
0.000960328
0.000959784
0.000961134
0.00096078
0.000961554
0.000961392
0.000961587
0.000961619
0.000961226
0.000961456
0.000960513
0.000960905
0.000959542
0.000960061
0.000959029
0.00101142
0.000975806
0.00099342
0.00104722
0.00102931
0.00108258
0.00106487
0.00111835
0.00110042
0.00115455
0.0011364
0.0011912
0.00117282
0.00122831
0.0012097
0.0012659
0.00124705
0.00130397
0.00128488
0.0013425
0.00132318
0.00138146
0.00136193
0.00142082
0.0014011
0.0014605
0.00144063
0.0015004
0.00148044
0.00154041
0.00152041
0.00158038
0.00156042
0.0016201
0.00160029
0.00165937
0.00163982
0.00169793
0.00167876
0.0017355
0.00171687
0.00177178
0.00175383
0.00180647
0.00178936
0.00183923
0.00182312
0.00186977
0.00185481
0.00189779
0.00188413
0.00192303
0.00191079
0.00194532
0.00193458
0.00196448
0.00195532
0.00198
0.00197276
0.00199173
0.00198654
0.00199923
0.00199548
0.00200886
0.00200544
0.00202085
0.00200891
0.00200313
0.00206462
0.00206044
0.00205568
0.00205683
0.000956298
0.000958039
0.00206146
0.00206321
0.00206532
0.00207204
0.00207088
0.00207336
0.00207279
0.00206957
0.00206325
0.0020185
0.00200205
0.00199882
0.00199467
0.0019898
0.00200798
0.00201525
0.00203639
0.00203925
0.00205471
0.00205578
0.00205643
0.00204644
0.00203329
0.00201868
0.00205718
0.00199691
0.00200308
0.00198484
0.00198021
0.00197335
0.00198243
0.00195943
0.00196683
0.00194167
0.00195103
0.00192111
0.0019318
0.00189703
0.00190948
0.00187044
0.00188402
0.00184158
0.00185633
0.00181037
0.00182627
0.00177709
0.00179398
0.00174209
0.0017598
0.00170569
0.00172406
0.00166819
0.00168707
0.00162985
0.00164911
0.00159094
0.00161046
0.00155166
0.00157134
0.00151223
0.00153196
0.00147279
0.0014925
0.00143349
0.00145312
0.00139444
0.00141393
0.00135571
0.00137503
0.00131736
0.00133649
0.00127944
0.00129835
0.00124196
0.00126064
0.00120493
0.00122339
0.00116835
0.00118659
0.00113221
0.00115023
0.00109648
0.0011143
0.00106117
0.00107878
0.00102621
0.00104365
0.0009909
0.00100852
0.00095558
0.000973361
0.000939208
0.000937827
0.00093842
0.000940562
0.000939833
0.00094192
0.000941253
0.000943057
0.000942533
0.000943825
0.000943487
0.000944229
0.000944073
0.000944267
0.000944294
0.000943935
0.000944147
0.000943247
0.000943633
0.000942255
0.000942773
0.000941203
0.000941703
0.000940301
0.000940729
0.000975436
0.000940442
0.00095792
0.00101069
0.000993501
0.00104586
0.00102826
0.00108104
0.0010634
0.00111665
0.0010988
0.00115266
0.0011346
0.00118911
0.00117083
0.001226
0.0012075
0.00126336
0.00124463
0.00130116
0.00128221
0.0013394
0.00132023
0.00137806
0.00135869
0.00141707
0.00139753
0.00145637
0.00143669
0.00149587
0.00147611
0.00153543
0.00151566
0.00157491
0.0015552
0.00161411
0.00159456
0.00165282
0.00163355
0.00169078
0.00167192
0.00172773
0.00170942
0.00176338
0.00174575
0.0017974
0.00178062
0.00182951
0.00181373
0.0018594
0.00184477
0.00188681
0.00187345
0.00191148
0.00189952
0.00193321
0.00192274
0.00195182
0.00194294
0.00196699
0.00195988
0.00197853
0.00197329
0.00198662
0.00198282
0.00199191
0.00199046
0.00198852
0.00207366
0.0020721
0.00200656
0.00199571
0.00206628
0.00206744
0.00206669
0.00207288
0.0020748
0.000954841
0.000937358
0.000922933
0.000922675
0.00208088
0.00207912
0.00208036
0.00207863
0.00207399
0.00206658
0.00199507
0.00198146
0.00197775
0.00199356
0.00201302
0.0020323
0.00204897
0.00205178
0.00206452
0.00205805
0.00204556
0.0020295
0.00201584
0.00198273
0.0019932
0.00206785
0.00198829
0.00198059
0.00197909
0.00198797
0.00196917
0.00197271
0.00196009
0.00196597
0.00194635
0.00195363
0.00192901
0.00193811
0.00190876
0.00191928
0.00188537
0.00189745
0.00185938
0.00187268
0.00183106
0.00184552
0.00180046
0.00181604
0.00176783
0.00178439
0.00173349
0.00175087
0.00169774
0.00171578
0.00166085
0.00167943
0.00162311
0.00164208
0.00158474
0.00160399
0.00154599
0.00156541
0.00150703
0.00152653
0.00146805
0.00148754
0.00142916
0.00144859
0.00139048
0.00140979
0.0013521
0.00137125
0.00131407
0.00133304
0.00127643
0.0012952
0.00123922
0.00125778
0.00120243
0.00122077
0.00116608
0.0011842
0.00113014
0.00114806
0.0010946
0.00111232
0.00105945
0.00107698
0.00102468
0.00104203
0.000989779
0.00100725
0.00097225
0.000921835
0.000920341
0.000921162
0.000923423
0.000922661
0.000924786
0.000924126
0.000925867
0.000925371
0.0009266
0.000926277
0.000926989
0.000926838
0.000927031
0.000927054
0.000926726
0.000926922
0.000926079
0.000926445
0.000925117
0.00092563
0.000923917
0.00092455
0.00092332
0.000974749
0.000939788
0.00095743
0.00100961
0.00099223
0.00104437
0.00102701
0.00107939
0.00106183
0.00111481
0.00109706
0.00115063
0.00113267
0.00118686
0.0011687
0.00122353
0.00120515
0.00126063
0.00124203
0.00129816
0.00127934
0.0013361
0.00131708
0.00137442
0.00135522
0.00141307
0.00139372
0.00145198
0.00143251
0.00149105
0.00147151
0.00153016
0.00151062
0.00156913
0.00154968
0.0016078
0.00158853
0.00164594
0.00162696
0.00168331
0.00166475
0.00171964
0.00170163
0.00175464
0.00173734
0.00178802
0.00177157
0.00181949
0.00180403
0.00184876
0.00183443
0.00187557
0.00186251
0.00189969
0.001888
0.00192092
0.0019107
0.00193906
0.00193041
0.00195388
0.00194692
0.00196523
0.00196004
0.0019733
0.0019696
0.00197752
0.00197622
0.00197787
0.00197772
0.00197997
0.0019754
0.00198036
0.00196818
0.00196856
0.00208097
0.00207862
0.00207592
0.00207704
0.000919938
0.000922194
0.00206975
0.0020816
0.00208322
0.00208835
0.00208633
0.00208636
0.00208331
0.00207739
0.00206875
0.00197649
0.00196199
0.00195297
0.00195637
0.00194571
0.00195954
0.00197085
0.00199323
0.00200878
0.00203043
0.00204505
0.00206035
0.00206675
0.00205776
0.00204313
0.00202588
0.00200866
0.0019891
0.00197173
0.00207751
0.00197468
0.00197131
0.00197215
0.00196027
0.0019628
0.00197269
0.00195618
0.0019593
0.00194671
0.00195215
0.0019331
0.00194033
0.0019162
0.00192506
0.00189634
0.00190665
0.00187352
0.00188529
0.00184809
0.00186112
0.00182031
0.0018345
0.00179031
0.00180558
0.00175832
0.00177455
0.00172462
0.00174167
0.0016895
0.00170723
0.00165323
0.0016715
0.00161607
0.00163475
0.00157827
0.00159725
0.00154004
0.00155921
0.00150158
0.00152084
0.00146305
0.00148232
0.00142459
0.00144381
0.0013863
0.00140542
0.00134828
0.00136726
0.00131058
0.00132939
0.00127325
0.00129187
0.00123631
0.00125474
0.00119978
0.001218
0.00116366
0.00118167
0.00112794
0.00114575
0.0010926
0.00111023
0.00105763
0.00107508
0.00102302
0.00104028
0.000988595
0.00100583
0.000954047
0.000971227
0.00091937
0.000936828
0.000903239
0.000901951
0.000902509
0.000904861
0.000903993
0.000906405
0.000905656
0.000907733
0.000907101
0.000908756
0.000908285
0.000909456
0.000909146
0.00090983
0.000909683
0.000909876
0.000909894
0.000909595
0.000909777
0.000908991
0.000909334
0.000908065
0.000908568
0.000906888
0.000907495
0.000905659
0.00090625
0.000904776
0.00090532
0.000939153
0.000904921
0.000921963
0.000973764
0.000956488
0.00100829
0.000991006
0.00104278
0.0010255
0.00107763
0.00106016
0.00111285
0.0010952
0.00114846
0.00113061
0.00118447
0.00116642
0.00122089
0.00120263
0.00125772
0.00123926
0.00129496
0.0012763
0.00133259
0.00131373
0.00137057
0.00135154
0.00140885
0.00138968
0.00144735
0.00142808
0.00148598
0.00146667
0.00152461
0.00150531
0.00156308
0.00154388
0.00160121
0.00158221
0.00163877
0.00162009
0.00167555
0.00165729
0.00171126
0.00169356
0.00174563
0.00172864
0.00177838
0.00176224
0.00180923
0.00179408
0.00183791
0.00182387
0.00186416
0.00185137
0.00188777
0.00187633
0.00190853
0.00189854
0.00192628
0.00191782
0.0019408
0.00193398
0.00195198
0.00194685
0.00195987
0.00195633
0.00196411
0.00196259
0.00196436
0.00196475
0.00196176
0.00196345
0.00195518
0.00208702
0.00208383
0.00195687
0.00194721
0.00208458
0.0020856
0.00207478
0.00208915
0.00209059
0.000918633
0.000901425
0.00088771
0.000887501
0.0020946
0.00209248
0.00209121
0.0020869
0.00207968
0.00206989
0.00195256
0.00194189
0.00192651
0.00193702
0.0019717
0.00198589
0.00200977
0.0020199
0.00204301
0.00205759
0.00206965
0.00205598
0.00203971
0.00202198
0.00199997
0.00198399
0.00196418
0.00193407
0.00194382
0.00208614
0.00195144
0.00193298
0.00195974
0.00196037
0.00195514
0.00194954
0.00194966
0.0019557
0.00194307
0.00194636
0.00193331
0.00193874
0.00191992
0.00192703
0.00190337
0.00191205
0.00188388
0.001894
0.00186155
0.00187307
0.00183665
0.00184942
0.0018094
0.00182332
0.00177997
0.00179496
0.00174859
0.00176452
0.00171552
0.00173226
0.00168102
0.00169844
0.00164535
0.00166332
0.00160879
0.00162717
0.00157155
0.00159024
0.00153385
0.00155275
0.00149589
0.0015149
0.00145783
0.00147687
0.0014198
0.00143881
0.00138192
0.00140084
0.00134427
0.00136306
0.00130691
0.00132555
0.0012699
0.00128836
0.00123325
0.00125153
0.00119699
0.00121508
0.00116111
0.00117901
0.00112562
0.00114332
0.00109049
0.00110801
0.00105572
0.00107306
0.00102127
0.00103846
0.000987154
0.00100418
0.000952861
0.000969974
0.000935819
0.000886232
0.000884722
0.000885522
0.000887964
0.000887112
0.000889484
0.000888752
0.00089075
0.000890152
0.00089172
0.000891272
0.000892387
0.000892092
0.000892747
0.000892606
0.000892797
0.000892811
0.000892539
0.000892707
0.000891977
0.000892295
0.000891113
0.000891582
0.000889982
0.000890574
0.000888673
0.000889357
0.00088814
0.00093848
0.000904355
0.00092139
0.000972674
0.000955515
0.00100675
0.000989691
0.00104108
0.00102388
0.00107575
0.00105837
0.00111077
0.00109322
0.00114617
0.00112842
0.00118194
0.00116401
0.0012181
0.00119997
0.00125466
0.00123633
0.00129159
0.00127308
0.00132889
0.0013102
0.00136651
0.00134767
0.00140441
0.00138544
0.00144249
0.00142344
0.00148067
0.00146158
0.00151882
0.00149977
0.00155677
0.00153784
0.00159435
0.00157563
0.00163135
0.00161295
0.00166753
0.00164957
0.00170263
0.00168524
0.00173639
0.00171971
0.00176853
0.00175269
0.00179879
0.00178393
0.0018269
0.00181315
0.00185264
0.0018401
0.00187578
0.00186456
0.00189614
0.00188634
0.00191354
0.00190524
0.00192783
0.00192111
0.00193889
0.0019338
0.00194668
0.00194321
0.00195096
0.00194933
0.00195156
0.00195171
0.00194834
0.00195062
0.00194087
0.0019448
0.00193505
0.00193326
0.00192077
0.00191305
0.00192338
0.00209185
0.00208734
0.00209214
0.00209307
0.000884277
0.000886951
0.00207848
0.00209553
0.00209686
0.00209972
0.00209749
0.00209494
0.00208931
0.00208083
0.00206964
0.00191311
0.00191181
0.00190538
0.00192383
0.00193855
0.00195698
0.00198632
0.0019991
0.00202223
0.00203606
0.00205388
0.00206792
0.00205286
0.00203533
0.00201577
0.00199649
0.00197507
0.00195236
0.00193004
0.00190433
0.00191065
0.00189844
0.00209368
0.00193476
0.00190904
0.00193555
0.00192794
0.00194346
0.0019423
0.00194002
0.00194094
0.00193707
0.00193984
0.00193003
0.00193377
0.0019201
0.00192552
0.00190688
0.00191389
0.0018906
0.00189912
0.00187144
0.00188138
0.00184954
0.00186083
0.00182512
0.00183764
0.00179837
0.00181203
0.00176949
0.0017842
0.00173869
0.00175433
0.00170622
0.00172266
0.00167232
0.00168944
0.00163726
0.00165493
0.00160127
0.00161937
0.00156459
0.00158301
0.00152743
0.00154607
0.00148998
0.00150874
0.00145239
0.0014712
0.00141481
0.0014336
0.00137734
0.00139606
0.00134007
0.00135868
0.00130307
0.00132154
0.00126638
0.00128469
0.00123004
0.00124817
0.00119406
0.00121201
0.00115844
0.0011762
0.00112318
0.00114077
0.00108827
0.00110569
0.0010537
0.00107095
0.00101945
0.00103654
0.000985503
0.00100244
0.000951723
0.00096854
0.000917827
0.000934784
0.000883617
0.000900789
0.000867861
0.000866461
0.000867172
0.000869514
0.000868626
0.000871166
0.000870351
0.000872635
0.000871933
0.000873833
0.000873268
0.000874755
0.000874329
0.000875391
0.000875109
0.000875737
0.0008756
0.000875791