/*--------------------------------*- C++ -*----------------------------------*\
  =========                 |
  \\      /  F ield         | OpenFOAM: The Open Source CFD Toolbox
   \\    /   O peration     | Website:  https://openfoam.org
    \\  /    A nd           | Version:  10
     \\/     M anipulation  |
\*---------------------------------------------------------------------------*/
FoamFile
{
    format      ascii;
    class       volVectorField;
    location    "49";
    object      U;
}
// * * * * * * * * * * * * * * * * * * * * * * * * * * * * * * * * * * * * * //

dimensions      [0 1 -1 0 0 0 0];

internalField   nonuniform List<vector> 
28942
(
(0.0044559 -0.00227116 -3.40669e-22)
(0.00603007 -0.00235735 -6.31947e-23)
(0.0179661 -0.012406 -8.28409e-22)
(0.103305 0.0182386 -5.27714e-21)
(0.102343 0.0222806 1.72765e-21)
(0.0166559 0.000538208 0)
(0.0198116 0.000109227 1.35391e-23)
(0.0229247 0.000694553 -1.20525e-23)
(0.135259 -0.0181839 -2.57675e-22)
(0.133901 -0.0165473 7.33293e-22)
(0.00987464 0.00404189 -6.70515e-22)
(0.0161857 0.00567342 2.53673e-22)
(0.00719167 0.0031751 0)
(0.00474607 0.00208167 0)
(0.0511512 0.00219432 -1.81226e-23)
(0.0491645 0.00286377 -6.87954e-24)
(0.0893233 0.0158667 6.69408e-22)
(0.0870112 0.0138365 1.07722e-21)
(0.0121755 -0.0151258 2.92434e-21)
(0.0293574 -0.0304939 -7.69667e-22)
(0.0981406 0.0373556 9.55081e-22)
(0.0973158 0.0343938 0)
(0.0188298 0.00466577 1.16564e-21)
(0.0079061 0.002382 5.49284e-22)
(0.0379312 0.00726364 9.42419e-22)
(0.0577045 0.00295981 -8.59143e-22)
(0.00765147 -0.0185082 8.52199e-21)
(0.00669621 -0.0165712 -3.13853e-21)
(0.0355525 -0.0253478 5.74298e-22)
(0.0193227 -0.013696 1.98298e-22)
(0.0170696 -0.00158428 0)
(0.0213439 -0.00141017 -1.62604e-23)
(0.0270225 0.00476735 3.32725e-22)
(0.0387141 0.00206146 -5.53047e-23)
(0.0188338 0.0180143 1.31829e-21)
(0.0157258 0.0191229 -1.3108e-21)
(0.0321821 0.0376204 -3.05982e-21)
(0.018676 0.0305357 -1.0703e-21)
(0.0091816 3.72662e-05 -1.13497e-23)
(0.00865173 0.0161986 -2.61992e-21)
(0.030648 -0.0062033 0)
(0.0513409 -0.0109697 0)
(0.112727 -0.0139409 -2.88008e-23)
(0.112251 -0.0140115 8.54672e-23)
(0.116421 -0.013813 7.39764e-23)
(0.032217 0.000270033 1.39803e-23)
(0.0300092 -0.000594001 -2.26711e-23)
(0.0426453 -0.00051996 -1.01058e-22)
(0.040893 -0.000586415 2.86938e-23)
(0.0333483 -0.00298746 -2.45625e-22)
(0.0249466 -0.00363831 1.5868e-22)
(0.128475 0.0016302 -4.06442e-22)
(0.127808 0.00114405 -3.78982e-22)
(0.134589 -0.0209743 -3.79559e-24)
(0.133027 -0.0192466 1.39892e-22)
(0.0828324 0.00649318 7.15372e-22)
(0.102092 -0.000609838 2.48591e-22)
(0.00308251 0.00163252 -5.63949e-22)
(0.0090042 0.00370534 0)
(0.0083101 0.00331204 2.36981e-22)
(0.00290482 0.00149936 4.86588e-22)
(0.000366683 0.000228843 -4.04694e-22)
(0.000195808 0.000124173 -3.88663e-22)
(0.109957 -0.0426105 0)
(0.105125 -0.0255902 1.26082e-22)
(0.121993 -0.0330575 -4.31412e-23)
(0.1236 -0.0437274 0)
(0.090137 -0.0327999 -6.39979e-22)
(0.0936437 -0.0352621 -4.20647e-22)
(0.00189776 -0.00113686 1.12621e-21)
(0.00250557 -0.00202885 -3.54894e-22)
(0.00490167 -0.00317403 8.80529e-22)
(0.0849223 -0.0457652 0)
(0.0912429 -0.03962 2.17238e-21)
(0.0805979 -0.0530389 5.86895e-22)
(0.114376 0.0122988 2.34937e-22)
(0.113006 0.00677095 -2.60671e-22)
(0.125356 0.0108431 -1.09813e-22)
(0.00469156 -0.00286672 -5.36878e-23)
(0.00634967 -0.00443334 4.49605e-22)
(0.0510945 -0.0311851 1.26583e-22)
(0.033216 -0.0205698 -2.58064e-22)
(0.00212286 -0.00060249 3.20197e-21)
(0.00517931 -0.00208508 -1.24779e-21)
(0.1011 0.0482463 1.4157e-23)
(0.0971223 0.0552148 -7.6818e-22)
(0.0807905 0.0540225 7.01208e-22)
(0.0472451 0.0345283 -2.69235e-21)
(0.0444742 0.0316264 1.90674e-21)
(0.0295173 0.0206096 -1.1413e-22)
(0.0327387 0.0232627 -6.43628e-22)
(0.0379825 0.0283728 8.72645e-22)
(0.00444588 0.00272882 -5.83822e-23)
(0.00783593 0.00399587 -1.68888e-23)
(0.00321419 0.00202421 3.38434e-23)
(0.00193275 0.00164134 -4.51897e-22)
(0.0014541 0.00156149 5.53804e-22)
(0.0157536 0.0115507 -3.26707e-21)
(0.0175066 0.0136424 7.48542e-22)
(0.00883588 -0.00386417 0)
(0.101389 0.00516004 0)
(0.0984002 0.0156844 -3.96881e-21)
(0.0604383 0.0104757 1.94987e-21)
(0.0886774 0.017882 0)
(0.135681 -0.00156161 0)
(0.135125 -0.00229525 0)
(0.133476 -0.00277128 -2.6119e-22)
(0.114987 0.0265198 -2.13024e-22)
(0.114081 0.0279279 2.10555e-21)
(0.113279 0.0253897 1.12987e-21)
(0.00231317 0.00130814 1.05111e-21)
(0.00152452 0.000781346 -1.17976e-21)
(0.0191414 -0.00557463 -5.47448e-22)
(0.0202408 -0.00511017 4.66839e-22)
(0.00915634 -0.00295293 9.22297e-22)
(0.00647806 0.0111412 1.48093e-21)
(0.018973 0.0181481 3.46195e-21)
(0.0134692 0.0227938 2.72245e-22)
(0.00492209 0.0143015 -8.63545e-21)
(0.117113 0.0477173 5.5891e-23)
(0.107942 0.0582118 1.07399e-21)
(0.118416 0.0548328 -1.85225e-21)
(0.0391311 -0.0294431 7.3248e-22)
(0.0240334 -0.0172807 -4.68512e-22)
(0.00532355 -0.000752351 -4.10842e-21)
(0.00454035 -0.00360293 0)
(0.0125002 -0.00168719 2.0059e-21)
(0.0219849 -0.0161445 7.79496e-22)
(0.0342873 -0.0278073 -1.95843e-21)
(0.0403845 -6.93192e-06 7.10073e-23)
(0.0428903 0.000158577 -5.05773e-23)
(0.0379653 0.000191942 -2.1911e-24)
(0.0280779 -0.0419811 0)
(0.0296262 -0.0428718 0)
(0.0896185 -0.0186548 -4.65292e-22)
(0.0995861 -0.0220932 3.16005e-21)
(0.0870327 -0.0252792 0)
(0.0471605 -0.0402183 0)
(0.0582277 -0.0514171 -7.84205e-22)
(0.041331 0.0393441 2.08977e-21)
(-5.83294e-06 0.000210131 5.11231e-22)
(-0.000198641 0.000127799 -3.36308e-22)
(0.0223464 -0.0192568 -7.92326e-22)
(0.120445 -0.013578 4.17875e-22)
(0.119835 -0.013589 -8.0606e-23)
(0.115799 -0.00553223 -6.64775e-23)
(0.108765 0.0011738 8.85908e-23)
(0.11802 -7.01326e-05 1.78852e-22)
(8.13621e-05 0.000258491 1.97556e-22)
(0.0437741 0.034432 3.21366e-21)
(0.0619201 0.0463213 -7.90547e-22)
(0.0593651 0.0393856 -3.03543e-24)
(0.0265089 -0.000963877 6.65612e-24)
(0.0261218 -0.000970413 3.55908e-23)
(0.0283156 -0.000780149 1.61524e-24)
(0.0315843 -0.000727335 -1.74959e-23)
(0.0454453 0.0380998 1.33903e-22)
(0.0189717 0.0160648 0)
(0.000143764 -3.96138e-05 3.65273e-22)
(0.000429245 -0.0002643 -4.05251e-22)
(0.00187561 -0.00103064 2.82334e-22)
(0.0366665 -0.00776841 -1.84057e-21)
(0.0650315 -0.00215262 -7.50135e-22)
(0.036619 -0.000315985 -2.31293e-24)
(0.0746518 -0.00762413 2.71571e-22)
(0.0708402 -0.0157346 6.09152e-23)
(0.0943284 0.0398824 2.14894e-21)
(0.0914333 0.0454206 9.92535e-23)
(0.0887629 0.0290587 1.2185e-21)
(0.0914889 0.0307733 -8.83034e-22)
(0.098723 0.0410382 0)
(0.125992 -0.00057365 1.51033e-22)
(0.12675 -0.00101976 2.85582e-22)
(0.128065 -0.0121082 -2.97553e-22)
(0.129527 -0.0118984 5.09389e-22)
(0.117063 0.024049 2.61388e-22)
(0.119123 0.0249404 -7.40266e-22)
(0.117113 0.0260646 0)
(0.115145 0.0248103 1.53999e-22)
(0.116688 0.0279918 0)
(0.117204 0.0360191 -5.5379e-22)
(0.115744 0.0380775 -3.02217e-22)
(0.111373 0.0419042 -5.42727e-22)
(0.113766 0.0400296 0)
(0.116464 0.0430017 1.79615e-21)
(0.113741 0.0449325 4.73889e-23)
(0.108368 0.0441218 -3.04752e-22)
(0.0996692 0.0502418 -1.2913e-21)
(0.0984512 0.0454537 -2.27484e-22)
(0.0251777 -0.00857825 5.66425e-23)
(0.0331011 -0.00945962 -2.26131e-23)
(0.00632834 -0.00251055 -6.89264e-22)
(0.035981 -6.47069e-05 -4.62503e-23)
(0.0458564 -0.000299233 0)
(-2.05532e-06 -4.18663e-05 4.29292e-22)
(1.39787e-05 -4.8245e-05 2.18894e-22)
(0.0415604 -0.00201348 2.10776e-23)
(0.0489061 -0.00195741 8.37421e-24)
(0.0484005 -0.0013328 0)
(0.0402306 -0.000891523 9.27677e-24)
(0.0966001 0.0044101 -1.2633e-22)
(0.0961194 0.00395732 5.98023e-22)
(0.0969756 0.00411009 2.77867e-22)
(0.000676029 0.000271541 3.92288e-22)
(-0.000160338 -0.000130425 -5.69012e-22)
(-0.000202734 -0.000170893 4.8468e-22)
(0.00151275 0.000624064 0)
(8.23504e-05 8.96372e-05 1.14063e-21)
(0.000175031 -3.77062e-05 -8.21921e-22)
(0.00748547 0.0036922 -9.92787e-22)
(0.00146247 0.000787154 -1.18587e-21)
(0.00173125 0.000866176 0)
(0.00157234 0.00754026 0)
(0.000577103 0.00327976 0)
(0.00031336 0.00197573 0)
(0.136813 -0.00160432 5.78992e-23)
(0.137782 -0.00146059 0)
(0.136197 -0.00240967 -6.74509e-23)
(0.088123 -0.0148588 4.4344e-21)
(0.0901293 -0.0152662 -1.6097e-21)
(0.0890438 -0.0128836 0)
(0.110799 0.000204243 -7.1368e-24)
(0.11125 0.000194447 1.42846e-23)
(0.110327 0.000215288 -4.84624e-24)
(0.111676 0.000186519 0)
(0.112082 0.00018336 -9.05982e-24)
(0.112463 0.000176266 0)
(0.112459 -0.000221326 0)
(0.112823 0.000161729 3.34378e-23)
(0.112813 -0.000219544 0)
(0.112081 -0.000231452 -9.12245e-24)
(0.111676 -0.000245535 0)
(0.111248 -0.000260409 4.77968e-24)
(0.110796 -0.000278676 -7.14088e-24)
(0.110326 -0.000296025 4.84017e-24)
(0.113158 0.000146637 -3.19972e-23)
(0.113148 -0.000213833 -1.11727e-24)
(0.109828 0.000229145 6.98695e-28)
(0.109823 -0.000309595 -7.42248e-24)
(0.109297 0.000242348 3.95831e-23)
(0.113472 0.000136421 2.9811e-26)
(0.113469 -0.000202865 -1.11315e-24)
(0.109296 -0.000329589 1.46567e-23)
(0.11377 0.000125923 2.99292e-23)
(0.114051 0.000116959 -2.99046e-23)
(0.113769 -0.000192942 2.24657e-24)
(0.114051 -0.000182762 4.42179e-24)
(0.10876 0.000266522 -3.85125e-23)
(0.108754 -0.000349919 -9.65438e-24)
(0.114315 0.000107506 0)
(0.114316 -0.00017372 -4.36134e-24)
(0.108183 0.000281363 4.77863e-27)
(0.108179 -0.000365365 -4.79061e-27)
(0.114563 9.93435e-05 0)
(0.114564 -0.000164558 0)
(0.10758 0.000292866 0)
(0.107576 -0.000384355 0)
(0.114795 9.06553e-05 0)
(0.114796 -0.000156512 2.08328e-24)
(0.106949 0.00030444 -2.01522e-23)
(0.106945 -0.000402467 -4.91305e-27)
(0.115013 8.31237e-05 1.09101e-25)
(0.115014 -0.000148343 -2.22482e-24)
(0.106291 0.000314084 2.02485e-23)
(0.106287 -0.000422386 0)
(0.115217 7.52735e-05 0)
(0.115219 -0.000140984 0)
(0.105607 0.000324134 -1.28491e-24)
(0.105602 -0.000440275 2.207e-23)
(0.115408 6.84488e-05 1.34336e-23)
(0.11541 -0.000133375 0)
(0.104896 0.000331509 -1.31935e-25)
(0.104891 -0.000458626 -2.08899e-23)
(0.115587 6.11398e-05 -2.00835e-23)
(0.115589 -0.000126691 -5.82448e-24)
(0.104146 0.000330118 2.13366e-23)
(0.104143 -0.000476872 0)
(0.115754 5.49911e-05 6.60838e-24)
(0.115757 -0.000118877 3.88352e-24)
(0.103371 0.000335813 -1.08246e-23)
(0.103368 -0.000498428 2.19506e-23)
(0.11591 4.98672e-05 -2.63424e-23)
(0.115916 -0.00010914 2.96903e-23)
(0.102544 0.000323282 1.11771e-23)
(0.10255 -0.000525016 3.54017e-25)
(0.116058 4.54674e-05 0)
(0.116063 -0.000100765 1.41344e-23)
(0.101687 0.000311542 -2.25158e-23)
(0.101699 -0.000559876 4.50425e-23)
(0.116201 3.93438e-05 0)
(0.116203 -9.51859e-05 0)
(0.102662 0.00116686 -1.10597e-23)
(0.101806 0.00118268 -4.48269e-23)
(0.100785 0.000291803 0)
(0.100813 -0.000607989 -2.29758e-23)
(0.104258 0.00112091 -6.92572e-24)
(0.103473 0.00114636 1.36087e-24)
(0.105708 0.00105198 0)
(0.104992 0.00108757 -2.23221e-23)
(0.107043 0.000975207 -4.28488e-26)
(0.106389 0.00101413 0)
(0.108267 0.000895169 0)
(0.107668 0.000935481 0)
(0.109388 0.0008077 0)
(0.108839 0.000853425 0)
(0.110388 0.000725252 9.55877e-24)
(0.109897 0.000765578 2.41794e-24)
(0.111301 0.000653334 -9.19633e-24)
(0.11086 0.000688232 -9.55567e-24)
(0.112119 0.000588076 1.62317e-23)
(0.111718 0.000616261 2.0799e-23)
(0.112857 0.000527907 0)
(0.112497 0.000559855 0)
(0.113507 0.000468226 -7.07135e-26)
(0.113192 0.000497554 0)
(0.114081 0.000411505 0)
(0.113803 0.000439357 0)
(0.114589 0.000359073 0)
(0.114343 0.000384676 0)
(0.115035 0.000311396 0)
(0.114819 0.000334613 0)
(0.115427 0.000268234 0)
(0.115237 0.000289221 0)
(0.11577 0.000229429 0)
(0.115604 0.000248291 0)
(0.116073 0.000189917 -1.075e-23)
(0.115925 0.000211357 0)
(0.116212 0.000171713 -3.46786e-24)
(0.116333 3.23389e-05 3.38246e-24)
(0.116334 -9.0993e-05 -3.35431e-24)
(0.115928 -0.000259801 0)
(0.116213 -0.000227528 -1.37736e-23)
(0.116075 -0.000242588 -7.10484e-24)
(0.115603 -0.000297839 1.95298e-24)
(0.115771 -0.000278634 -7.63469e-24)
(0.115235 -0.000337539 6.34763e-26)
(0.115425 -0.000317691 0)
(0.114816 -0.000380375 0)
(0.115032 -0.000358286 0)
(0.114338 -0.000428475 0)
(0.114585 -0.000403716 0)
(0.113796 -0.000482425 0)
(0.114075 -0.000454642 8.4338e-30)
(0.113182 -0.000543204 7.1612e-26)
(0.113498 -0.000511834 0)
(0.112493 -0.000606562 0)
(0.112846 -0.000575296 0)
(0.111718 -0.000673975 0)
(0.112115 -0.000639638 0)
(0.110849 -0.000751246 0)
(0.111296 -0.000709797 -4.82478e-24)
(0.109885 -0.000838508 1.28152e-24)
(0.110378 -0.000797336 -6.25263e-24)
(0.108825 -0.000934174 0)
(0.109372 -0.00088331 -5.10484e-24)
(0.107655 -0.00102862 0)
(0.108254 -0.000981274 0)
(0.106376 -0.0011245 0)
(0.107029 -0.00107637 0)
(0.104983 -0.00121959 0)
(0.105694 -0.00117228 0)
(0.103471 -0.0013125 -5.66691e-24)
(0.104243 -0.00126463 0)
(0.10184 -0.00142088 -2.3046e-23)
(0.102672 -0.00136097 -5.70584e-24)
(0.100968 -0.00148592 2.34884e-23)
(0.100915 0.00119899 4.44691e-23)
(0.116343 0.000155655 6.77925e-24)
(0.116343 -0.000213555 -1.32311e-23)
(0.0998807 -0.000668767 0)
(0.100063 -0.0015667 0)
(0.0999901 0.00121479 0)
(0.0998491 0.000263107 0)
(0.1029 0.00199377 0)
(0.101205 0.00210164 1.11175e-23)
(0.102068 0.00204633 1.1223e-23)
(0.10447 0.00187551 1.42207e-23)
(0.1037 0.00193715 -2.84387e-24)
(0.105897 0.00174337 4.38e-26)
(0.105199 0.00181021 0)
(0.10721 0.00160931 0)
(0.106568 0.00167644 0)
(0.108413 0.0014753 0)
(0.107825 0.0015422 0)
(0.109512 0.00134391 0)
(0.108975 0.00140878 0)
(0.110507 0.00121526 0)
(0.110021 0.00128006 0)
(0.111401 0.00109585 -3.85042e-26)
(0.110963 0.00115611 9.95322e-24)
(0.112202 0.000980789 -3.67854e-26)
(0.111815 0.00103573 -1.9346e-23)
(0.112925 0.000871141 0)
(0.112573 0.00092473 0)
(0.113566 0.00077117 3.53152e-26)
(0.113255 0.000820062 0)
(0.114132 0.00067913 0)
(0.113857 0.000724182 0)
(0.114632 0.000594912 0)
(0.11439 0.000636026 0)
(0.115072 0.000518615 0)
(0.114859 0.000555779 0)
(0.115458 0.000449933 0)
(0.115271 0.000483336 0)
(0.115797 0.000388168 0)
(0.115633 0.000418289 0)
(0.116096 0.000328876 7.34386e-24)
(0.11595 0.000358491 0)
(0.116457 2.6651e-05 0)
(0.116465 0.000141018 6.61509e-24)
(0.116361 0.000276245 0)
(0.116232 0.000301612 7.14799e-24)
(0.116233 -0.000358795 1.42384e-23)
(0.116361 -0.000336023 3.49157e-24)
(0.116465 -0.000201836 2.72217e-23)
(0.116457 -8.64561e-05 0)
(0.115951 -0.000410797 0)
(0.116096 -0.000383753 -2.14988e-23)
(0.115631 -0.000469144 6.15035e-26)
(0.115797 -0.000438775 7.68113e-24)
(0.115268 -0.000532016 -6.34761e-26)
(0.115455 -0.000499844 0)
(0.114854 -0.000602003 0)
(0.115068 -0.000565988 0)
(0.114383 -0.000680484 0)
(0.114626 -0.00064014 0)
(0.113848 -0.000768164 0)
(0.114124 -0.000723129 -8.43378e-30)
(0.113244 -0.000865664 -1.43164e-25)
(0.113555 -0.000815667 0)
(0.112564 -0.000971988 0)
(0.112914 -0.00091791 0)
(0.1118 -0.00108769 2.43219e-24)
(0.112193 -0.00102855 0)
(0.110949 -0.00121077 0)
(0.111386 -0.00114639 -2.42204e-24)
(0.110002 -0.00134645 5.11042e-24)
(0.110485 -0.0012787 5.06539e-24)
(0.108955 -0.00148784 0)
(0.109492 -0.00141636 0)
(0.107804 -0.00163513 0)
(0.108393 -0.00156089 0)
(0.106545 -0.00178639 0)
(0.107188 -0.00171036 0)
(0.105175 -0.00194001 0)
(0.105874 -0.00186293 0)
(0.103693 -0.00209489 9.07091e-26)
(0.104448 -0.00201723 0)
(0.102097 -0.0022499 -9.22375e-26)
(0.10291 -0.00217262 0)
(0.100375 -0.00243513 -2.4171e-23)
(0.10125 -0.00233989 2.41599e-23)
(0.100309 0.0021555 2.26692e-23)
(0.0991305 -0.00165893 0)
(0.0994682 -0.00254415 -4.92409e-23)
(0.0989289 -0.000735403 0)
(0.11648 0.000254819 0)
(0.116481 -0.000314771 -3.38449e-24)
(0.0990384 0.00123198 5.75551e-23)
(0.0993854 0.00220975 2.30241e-23)
(0.0981633 -0.00175252 1.24633e-23)
(0.0985322 -0.00265921 6.22333e-23)
(0.09888 0.000231582 0)
(0.116386 0.000397647 2.793e-23)
(0.116503 0.000366922 -1.37891e-23)
(0.116578 -0.00019036 -6.69398e-24)
(0.116593 -0.000294408 3.32718e-23)
(0.0999107 0.00315549 8.0584e-23)
(0.0984202 0.00226432 -4.53242e-23)
(0.0980066 0.00333516 -2.02647e-22)
(0.0989705 0.00323763 -4.60267e-23)
(0.10165 0.0029783 2.23841e-23)
(0.100795 0.00306908 -6.85327e-23)
(0.10327 0.00279369 -2.28746e-23)
(0.102476 0.00288706 -1.72883e-23)
(0.104785 0.00260748 -5.68503e-24)
(0.104043 0.00270271 -5.69431e-24)
(0.106176 0.00241915 -4.38e-26)
(0.105496 0.00251374 0)
(0.107455 0.00222991 0)
(0.106829 0.00232442 0)
(0.108626 0.00204271 0)
(0.108053 0.00213594 0)
(0.109696 0.00185983 0)
(0.109173 0.00195053 0)
(0.110665 0.00168402 0)
(0.110192 0.00177092 0)
(0.111539 0.00151587 0)
(0.111113 0.00159909 0)
(0.112323 0.00135722 4.38256e-29)
(0.111942 0.0014354 0)
(0.113026 0.00120706 0)
(0.112684 0.00128076 0)
(0.113651 0.00106882 3.526e-26)
(0.113348 0.00113645 0)
(0.114205 0.000942125 0)
(0.113937 0.00100406 0)
(0.114695 0.000826703 0)
(0.114458 0.00088302 0)
(0.115125 0.000722359 0)
(0.114917 0.000773173 0)
(0.115504 0.000628654 0)
(0.115321 0.00067422 0)
(0.115836 0.000544599 0)
(0.115675 0.000585547 0)
(0.116128 0.00046688 3.74235e-24)
(0.115987 0.000504908 -1.88379e-24)
(0.116261 0.000431192 -1.42543e-23)
(0.11657 2.26025e-05 -3.17017e-24)
(0.116592 0.000234416 1.32503e-23)
(0.116577 0.000128523 -1.01415e-23)
(0.11657 -8.40309e-05 0)
(0.116262 -0.00048854 -1.05876e-23)
(0.116504 -0.000426215 -3.05118e-23)
(0.116387 -0.000456551 2.45995e-23)
(0.115985 -0.000560281 0)
(0.116128 -0.000522948 0)
(0.115672 -0.000637154 -3.39766e-29)
(0.115834 -0.000596966 0)
(0.115316 -0.000723414 0)
(0.1155 -0.00067912 0)
(0.11491 -0.000820004 -6.53888e-26)
(0.11512 -0.000770328 0)
(0.114449 -0.000928171 0)
(0.114687 -0.0008726 0)
(0.113926 -0.00104866 0)
(0.114195 -0.00098685 0)
(0.113335 -0.00118193 7.15625e-26)
(0.113639 -0.0011137 0)
(0.11267 -0.00132762 7.35999e-26)
(0.113012 -0.00125328 0)
(0.111924 -0.00148617 0)
(0.112307 -0.00140527 0)
(0.111092 -0.00165646 0)
(0.111519 -0.00156981 0)
(0.110168 -0.00183856 0)
(0.110641 -0.00174636 0)
(0.109146 -0.00202969 0)
(0.109669 -0.00193286 0)
(0.108024 -0.00222913 -8.4294e-26)
(0.108598 -0.00212856 0)
(0.106797 -0.00243432 0)
(0.107423 -0.00233115 0)
(0.105463 -0.00264311 0)
(0.106143 -0.0025384 0)
(0.10402 -0.00285336 -1.60147e-28)
(0.104755 -0.00274817 0)
(0.10247 -0.00306265 1.89682e-28)
(0.103259 -0.00295829 0)
(0.10081 -0.00327964 9.54794e-26)
(0.101652 -0.00316737 0)
(0.0990372 -0.00352744 -5.03198e-23)
(0.0999364 -0.00339884 1.23574e-23)
(0.0975717 -0.00277103 1.26686e-23)
(0.0981246 -0.00366088 2.51472e-23)
(0.0980581 0.00124206 -2.25159e-23)
(0.0979397 -0.000805935 -2.41399e-23)
(0.116613 0.000338542 3.37241e-24)
(0.116615 -0.000399128 2.39757e-23)
(0.0973937 0.00229717 2.79374e-24)
(0.0971689 -0.00185416 0)
(0.0968038 0.0032768 3.10685e-22)
(0.097192 -0.00379165 3.87094e-23)
(0.0966009 -0.00288448 5.17002e-23)
(0.0976503 0.00459509 -5.15167e-22)
(0.0970729 0.00480215 9.40692e-23)
(0.0979022 0.00020369 0)
(0.0989257 0.00430664 5.17207e-23)
(0.0981998 0.00447966 2.65168e-23)
(0.100585 0.00404984 4.66515e-23)
(0.0997292 0.00416733 -7.11567e-23)
(0.102229 0.00380883 -2.31807e-23)
(0.101423 0.00393266 -1.15694e-23)
(0.103766 0.00356444 1.15949e-23)
(0.103011 0.00368618 1.17697e-23)
(0.105206 0.00331773 0)
(0.104497 0.00344067 -2.50301e-26)
(0.106541 0.00307336 0)
(0.105887 0.00319543 0)
(0.107772 0.002831 4.26e-26)
(0.10717 0.00295182 0)
(0.108902 0.00259256 0)
(0.10835 0.00271119 0)
(0.109934 0.00236022 0)
(0.10943 0.00247547 0)
(0.110871 0.00213663 0)
(0.110414 0.00224724 0)
(0.111717 0.00192341 3.83545e-26)
(0.111305 0.00202869 0)
(0.112477 0.00172204 4.86315e-29)
(0.112108 0.00182118 0)
(0.113157 0.00153316 0)
(0.112826 0.00162593 0)
(0.113763 0.00135846 -7.04801e-26)
(0.113469 0.001444 0)
(0.114301 0.00119834 0)
(0.11404 0.0012766 0)
(0.114776 0.00105267 0)
(0.114546 0.00112373 0)
(0.115195 0.000921128 0)
(0.114992 0.000985176 0)
(0.115563 0.000803123 0)
(0.115385 0.000860491 0)
(0.115887 0.000697574 0)
(0.11573 0.000748915 0)
(0.116171 0.000602531 -1.86876e-24)
(0.116033 0.00064839 0)
(0.116421 0.000517095 0)
(0.1163 0.000558512 -3.62011e-24)
(0.116642 0.000440787 -1.59036e-28)
(0.116535 0.000477748 0)
(0.116695 0.000215501 -1.34344e-23)
(0.116742 0.000407882 8.10497e-25)
(0.116716 0.000312989 6.57385e-24)
(0.116675 1.82467e-05 4.83098e-24)
(0.116682 0.000116919 -3.33463e-24)
(0.116683 -0.000179783 -1.67886e-24)
(0.116675 -8.09651e-05 1.67586e-24)
(0.116717 -0.000374902 0)
(0.116697 -0.000277596 -1.52584e-23)
(0.116536 -0.000537813 -6.86215e-24)
(0.116743 -0.000472009 -1.31146e-23)
(0.116643 -0.000503177 3.01477e-23)
(0.1163 -0.000616051 -3.60741e-24)
(0.116422 -0.000575689 0)
(0.116031 -0.000704327 0)
(0.11617 -0.000658677 0)
(0.115726 -0.000801399 -4.42597e-29)
(0.115884 -0.000751477 0)
(0.115379 -0.000910452 0)
(0.115558 -0.000854361 0)
(0.114984 -0.00103287 6.53888e-26)
(0.115188 -0.000969921 0)
(0.114535 -0.00116983 0)
(0.114767 -0.00109949 0)
(0.114027 -0.0013221 0)
(0.114289 -0.00124403 0)
(0.113453 -0.00149015 0)
(0.113749 -0.00140416 0)
(0.112808 -0.00167391 -8.40686e-29)
(0.11314 -0.0015801 0)
(0.112085 -0.00187337 0)
(0.112457 -0.00177172 0)
(0.111279 -0.00208766 0)
(0.111693 -0.00197868 0)
(0.110384 -0.00231584 0)
(0.110843 -0.00220023 0)
(0.109397 -0.00255575 0)
(0.109902 -0.00243438 0)
(0.108312 -0.00280558 8.4294e-26)
(0.108867 -0.00267962 0)
(0.107128 -0.00306261 0)
(0.107733 -0.00293338 0)
(0.105842 -0.00332415 0)
(0.106498 -0.003193 0)
(0.104453 -0.00358743 -9.05403e-26)
(0.10516 -0.00345575 0)
(0.102961 -0.00384941 9.25103e-26)
(0.10372 -0.00371879 0)
(0.101369 -0.00410901 -9.44006e-26)
(0.102177 -0.00397945 0)
(0.0996826 -0.00437467 1.24171e-23)
(0.100535 -0.00423766 -2.44954e-23)
(0.0979251 -0.00466156 -1.2511e-23)
(0.0988094 -0.00451507 2.54557e-23)
(0.0962345 -0.00391672 3.77245e-25)
(0.0970165 -0.00480349 2.56921e-23)
(0.0970435 0.00123075 -2.31352e-23)
(0.0969368 -0.000861821 0)
(0.0963611 0.00227024 -2.23227e-22)
(0.0961604 -0.00193094 0)
(0.116678 0.000543343 -3.36789e-24)
(0.116775 0.000502581 2.46732e-24)
(0.116812 -0.000352234 -1.28667e-23)
(0.116837 -0.000441301 -1.45775e-23)
(0.0956914 0.0031939 -2.18485e-22)
(0.0956061 -0.00299312 -5.2206e-23)
(0.0961562 0.0047408 0)
(0.0984732 0.00544776 -5.97438e-23)
(0.0952627 -0.00403953 -2.56067e-23)
(0.0960869 -0.00493843 3.88737e-23)
(0.0976605 0.00549043 1.19895e-22)
(0.0968939 0.00017424 0)
(0.0998431 0.00515905 0)
(0.0991402 0.00531478 -5.31725e-23)
(0.101382 0.004873 0)
(0.100601 0.00501696 0)
(0.102914 0.00458123 0)
(0.102156 0.00472663 1.19861e-23)
(0.104358 0.00428859 0)
(0.103646 0.00443535 0)
(0.105718 0.00399322 0)
(0.105049 0.00414083 0)
(0.106986 0.00369904 0)
(0.106364 0.003846 0)
(0.108159 0.00340733 -4.26e-26)
(0.107584 0.00355274 0)
(0.109238 0.00312053 0)
(0.10871 0.00326317 0)
(0.110225 0.00284126 0)
(0.109743 0.00297979 0)
(0.111122 0.00257235 0)
(0.110685 0.00270538 0)
(0.111934 0.00231604 -6.46562e-29)
(0.111538 0.00244254 0)
(0.112663 0.00207414 5.80321e-29)
(0.112308 0.00219319 0)
(0.113317 0.00184779 0)
(0.112999 0.00195895 0)
(0.1139 0.00163828 4.77631e-29)
(0.113617 0.00174089 0)
(0.114418 0.00144618 0)
(0.114167 0.00154006 0)
(0.114876 0.00127147 0)
(0.114654 0.00135668 0)
(0.11528 0.00111376 0)
(0.115085 0.00119054 0)
(0.115636 0.000972353 0)
(0.115464 0.00104109 0)
(0.115949 0.000846181 0)
(0.115798 0.000907463 0)
(0.116223 0.000733794 0)
(0.11609 0.000788368 0)
(0.116465 0.000632703 3.58709e-24)
(0.116348 0.000681214 3.67508e-24)
(0.116575 0.000586155 -6.87514e-24)
(0.116791 0.000198144 -6.58364e-24)
(0.116836 0.000378021 0)
(0.116811 0.000288589 -6.65057e-24)
(0.116771 1.43976e-05 0)
(0.116778 0.000106858 6.71903e-24)
(0.116779 -0.000170576 1.003e-23)
(0.116772 -7.83745e-05 -3.39005e-24)
(0.116793 -0.000261493 -1.97176e-23)
(0.116576 -0.000647292 3.45753e-24)
(0.116776 -0.000564736 1.28321e-23)
(0.116679 -0.000606382 0)
(0.116347 -0.000739967 -7.1756e-24)
(0.116465 -0.000692339 7.19932e-24)
(0.116088 -0.000844321 0)
(0.116222 -0.000790975 0)
(0.115793 -0.000960794 -5.42631e-29)
(0.115945 -0.000900834 0)
(0.115457 -0.00109194 0)
(0.11563 -0.00102446 0)
(0.115075 -0.00123924 0)
(0.115272 -0.00116351 0)
(0.114642 -0.00140387 0)
(0.114865 -0.00131935 0)
(0.114152 -0.0015867 0)
(0.114404 -0.00149299 0)
(0.113599 -0.00178819 7.13371e-26)
(0.113884 -0.00168512 0)
(0.112978 -0.0020084 -7.35158e-26)
(0.113297 -0.00189598 0)
(0.112283 -0.00224709 0)
(0.11264 -0.0021255 0)
(0.111508 -0.00250329 0)
(0.111906 -0.00237308 0)
(0.11065 -0.00277562 0)
(0.11109 -0.00263762 0)
(0.109704 -0.00306187 0)
(0.110188 -0.00291714 0)
(0.108666 -0.00335958 0)
(0.109197 -0.0032095 0)
(0.107534 -0.0036657 0)
(0.108112 -0.00351181 0)
(0.106307 -0.00397694 -8.81094e-26)
(0.106933 -0.00382091 0)
(0.104984 -0.0042899 9.01029e-26)
(0.105657 -0.00413344 0)
(0.103565 -0.00460105 -9.20236e-26)
(0.104286 -0.00444594 0)
(0.102055 -0.00490736 0)
(0.102821 -0.00475499 0)
(0.100458 -0.00520614 0)
(0.101267 -0.00505762 0)
(0.0987903 -0.00549856 9.83899e-26)
(0.0996347 -0.00535199 1.25025e-23)
(0.0970554 -0.00579527 -6.50966e-23)
(0.097927 -0.00564571 0)
(0.0951503 -0.00508066 -3.8611e-23)
(0.0961683 -0.00594396 -3.39715e-25)
(0.0960155 0.00121227 7.23103e-23)
(0.0959112 -0.000910028 0)
(0.116867 0.000464915 -1.28035e-23)
(0.116868 -0.000529073 -2.47341e-23)
(0.095239 0.00221302 -3.83082e-23)
(0.0952945 0.004143 6.44837e-25)
(0.0946188 0.00313164 1.09551e-22)
(0.0951421 -0.00199448 0)
(0.0945906 -0.0030771 1.30711e-23)
(0.096543 0.00548613 -1.10638e-22)
(0.0955321 0.0053978 9.54842e-23)
(0.0945667 0.00433446 -9.40853e-23)
(0.09427 -0.00414663 -3.92005e-23)
(0.094191 -0.00520735 2.61309e-23)
(0.0952751 -0.00610147 2.56151e-23)
(0.0958607 0.00014364 0)
(0.0993715 0.00621603 3.33165e-24)
(0.0975524 0.0063894 1.09717e-26)
(0.0985001 0.00629361 2.59052e-23)
(0.100807 0.00594009 2.56572e-23)
(0.100103 0.00608748 -2.57904e-23)
(0.102256 0.00562429 4.72397e-26)
(0.101523 0.00578441 0)
(0.10368 0.00529948 0)
(0.102976 0.00546251 0)
(0.105032 0.00496754 0)
(0.104365 0.00513445 0)
(0.106308 0.00463013 0)
(0.10568 0.0047992 0)
(0.107501 0.00429134 4.34134e-26)
(0.106916 0.00446074 0)
(0.108608 0.00395437 0)
(0.108066 0.00412243 0)
(0.109629 0.00362262 0)
(0.109129 0.00378765 0)
(0.110564 0.00329944 0)
(0.110107 0.00345977 0)
(0.111415 0.00298804 0)
(0.110999 0.0031421 0)
(0.112186 0.00269115 -3.82898e-26)
(0.11181 0.00283766 0)
(0.112881 0.00241097 6.75568e-29)
(0.112543 0.00254887 0)
(0.113504 0.00214902 0)
(0.113201 0.00227765 0)
(0.11406 0.00190651 7.02894e-26)
(0.11379 0.0020253 0)
(0.114555 0.00168408 0)
(0.114315 0.00179279 0)
(0.114993 0.00148175 0)
(0.114781 0.00158043 0)
(0.11538 0.0012991 0)
(0.115193 0.00138802 0)
(0.115722 0.00113535 0)
(0.115556 0.00121494 0)
(0.116022 0.000989363 0)
(0.115876 0.00106024 0)
(0.116285 0.000859652 5.85287e-26)
(0.116158 0.000922582 0)
(0.116518 0.000743973 -3.60276e-24)
(0.116405 0.000800352 0)
(0.116722 0.000640077 3.42212e-24)
(0.116623 0.000690438 0)
(0.116903 0.000548689 3.25778e-24)
(0.116815 0.000593137 -3.33502e-24)
(0.116922 0.00034948 6.43828e-24)
(0.116985 0.00050768 0)
(0.116952 0.000430583 9.58517e-24)
(0.116879 0.00018264 0)
(0.116898 0.000266514 0)
(0.116861 1.0832e-05 0)
(0.116867 9.71755e-05 0)
(0.116868 -0.000161953 0)
(0.116861 -7.5813e-05 0)
(0.1169 -0.000331483 1.31133e-23)
(0.116881 -0.000247281 3.25697e-24)
(0.116952 -0.000496033 3.2214e-24)
(0.116923 -0.00041441 2.56847e-23)
(0.116817 -0.000657454 1.67571e-23)
(0.116986 -0.000575896 3.20464e-24)
(0.116904 -0.000614856 -6.51761e-24)
(0.116623 -0.000752565 3.44587e-24)
(0.116723 -0.000703518 -2.06577e-23)
(0.116404 -0.000859632 -4.74486e-29)
(0.116517 -0.000804371 0)
(0.116155 -0.00097932 0)
(0.116283 -0.000917646 0)
(0.115871 -0.00111446 -6.41633e-29)
(0.116017 -0.00104486 0)
(0.115549 -0.00126679 0)
(0.115715 -0.0011884 0)
(0.115183 -0.00143784 0)
(0.115372 -0.00134991 0)
(0.114767 -0.00162886 0)
(0.114981 -0.00153081 0)
(0.114298 -0.00184075 0)
(0.11454 -0.00173217 0)
(0.11377 -0.00207405 -1.42566e-25)
(0.114042 -0.00195474 0)
(0.113177 -0.00232882 0)
(0.113482 -0.00219879 0)
(0.112514 -0.00260464 0)
(0.112855 -0.00246417 0)
(0.111777 -0.0029004 0)
(0.112155 -0.00275013 0)
(0.110962 -0.00321438 0)
(0.11138 -0.00305529 0)
(0.110064 -0.00354414 -8.16828e-26)
(0.110523 -0.00337748 0)
(0.109081 -0.00388674 0)
(0.109583 -0.00371407 0)
(0.10801 -0.00423864 0)
(0.108556 -0.00406178 0)
(0.106851 -0.004596 8.81094e-26)
(0.107442 -0.00441691 0)
(0.105604 -0.00495473 -2.74737e-28)
(0.106239 -0.00477547 0)
(0.104271 -0.00531065 1.83746e-25)
(0.104948 -0.00513332 0)
(0.102854 -0.0056596 0)
(0.103573 -0.00548628 0)
(0.10136 -0.00599724 0)
(0.102116 -0.00583 0)
(0.0997947 -0.00631786 -4.00776e-28)
(0.100586 -0.00616031 0)
(0.098166 -0.00662134 0)
(0.0989868 -0.00647154 0)
(0.0964988 -0.0069298 -3.86282e-23)
(0.0973358 -0.00677408 0)
(0.0943645 -0.00624557 -2.95856e-25)
(0.095654 -0.00708932 6.54617e-23)
(0.0949297 0.00117629 0)
(0.0966208 0.00641358 1.50304e-22)
(0.0941435 0.00215306 2.62066e-23)
(0.116945 0.000630894 -3.25165e-24)
(0.117024 0.000585533 0)
(0.117031 -0.00046571 3.13543e-24)
(0.117062 -0.000538767 -6.21812e-24)
(0.094869 -0.000953232 0)
(0.0941019 -0.00204924 0)
(0.0936712 0.00323446 0)
(0.0935582 -0.00314976 -1.28739e-23)
(0.0932584 -0.00425219 -2.5858e-23)
(0.0932154 -0.00533596 0)
(0.0934373 -0.00638427 6.6336e-23)
(0.0947923 -0.00723838 -5.28014e-23)
(0.0947992 0.000111118 0)
(0.0987777 0.00721689 -1.24391e-26)
(0.0956149 0.00640474 4.71848e-23)
(0.0970367 0.0073829 -1.68125e-22)
(0.0979146 0.00731647 4.92204e-23)
(0.100415 0.00695832 -1.60565e-23)
(0.0996048 0.0070762 -2.56844e-23)
(0.101835 0.00666575 0)
(0.101145 0.00682172 0)
(0.1032 0.00632384 -4.72354e-26)
(0.102515 0.00649702 0)
(0.104523 0.00596864 0)
(0.10387 0.00614783 0)
(0.105781 0.00560129 0)
(0.105161 0.0057863 0)
(0.106968 0.0052257 0)
(0.106383 0.00541422 0)
(0.108079 0.00484662 -4.34134e-26)
(0.107533 0.00503634 0)
(0.109113 0.00446843 0)
(0.108606 0.00465715 0)
(0.110068 0.00409543 0)
(0.109601 0.00428103 0)
(0.110945 0.00373169 0)
(0.110516 0.00391218 0)
(0.111745 0.00338091 0)
(0.111355 0.00355448 0)
(0.112471 0.00304629 3.81305e-26)
(0.112117 0.00321143 0)
(0.113126 0.00273038 7.64891e-29)
(0.112807 0.00288588 0)
(0.113715 0.00243503 0)
(0.113429 0.00258006 0)
(0.114241 0.00216155 -6.27652e-29)
(0.113985 0.00229552 0)
(0.11471 0.0019106 0)
(0.114482 0.00203326 0)