/*--------------------------------*- C++ -*----------------------------------*\
  =========                 |
  \\      /  F ield         | OpenFOAM: The Open Source CFD Toolbox
   \\    /   O peration     | Website:  https://openfoam.org
    \\  /    A nd           | Version:  10
     \\/     M anipulation  |
\*---------------------------------------------------------------------------*/
FoamFile
{
    format      ascii;
    class       volVectorField;
    location    "22";
    object      U;
}
// * * * * * * * * * * * * * * * * * * * * * * * * * * * * * * * * * * * * * //

dimensions      [0 1 -1 0 0 0 0];

internalField   nonuniform List<vector> 
28942
(
(-0.425407 0.284469 -4.53639e-19)
(-0.49498 0.315015 -9.99941e-20)
(1.94895 -1.37408 3.9277e-19)
(2.53019 0.0498292 -6.03133e-19)
(2.49196 0.0790338 2.00719e-19)
(1.15726 0.0614564 0)
(1.35239 0.0863186 -4.63663e-21)
(1.50384 0.0559307 5.2144e-21)
(3.03308 -0.185313 -5.50868e-21)
(2.99694 -0.157248 2.34895e-20)
(-0.75391 -0.628746 -1.20588e-18)
(-0.741134 -0.722165 5.50233e-19)
(-0.507133 -0.335727 0)
(-0.547859 -0.308408 0)
(2.51312 -0.101241 4.38626e-22)
(2.54723 -0.0999966 3.20586e-23)
(2.34109 0.185157 1.66927e-19)
(2.29977 0.140195 2.65244e-19)
(1.2157 -2.03072 -3.24149e-20)
(1.8797 -2.1423 2.37057e-21)
(2.48044 0.461841 2.10005e-19)
(2.50349 0.445681 0)
(-0.394542 0.136687 1.06303e-18)
(-0.384292 -0.126683 5.86391e-19)
(2.7594 -1.02352 1.1861e-18)
(3.68889 -1.10164 -1.07351e-18)
(0.927814 -1.60068 2.50352e-18)
(0.871531 -1.25807 -1.04962e-18)
(2.31179 -1.69956 -8.93669e-20)
(1.74468 -1.18386 -4.37265e-20)
(1.11326 -0.0421804 0)
(1.51814 -0.0740784 7.04642e-21)
(1.88756 -0.117171 2.13784e-20)
(2.23445 -0.0946533 7.05423e-21)
(1.36407 1.61992 1.4059e-19)
(1.0113 1.707 -1.39507e-19)
(1.59186 1.53784 -7.66272e-19)
(1.20731 1.47011 -2.96895e-19)
(0.528299 0.0537425 5.46626e-21)
(0.567231 1.53757 -4.40899e-19)
(2.03956 -0.0245576 0)
(2.36083 -0.0746065 0)
(3.14018 -0.896983 -1.99923e-21)
(3.06282 -0.942055 3.4501e-21)
(3.08854 -0.834038 5.55596e-21)
(1.92276 0.0726926 -2.8509e-21)
(1.89166 0.0895197 4.87598e-21)
(2.28228 0.086623 1.71051e-20)
(2.22742 0.0874902 -4.67714e-21)
(1.9966 0.0843741 1.43943e-20)
(1.85346 0.0962831 -8.14831e-21)
(2.72166 0.10832 -3.93153e-20)
(2.72873 0.0932735 -3.40044e-20)
(3.03935 -0.239266 -1.28073e-21)
(2.99744 -0.209666 5.66239e-21)
(3.83652 -0.330498 8.89953e-19)
(4.21494 -0.412474 4.46724e-19)
(-0.341008 -0.0938096 -7.37562e-19)
(-0.400846 -0.312106 0)
(-0.354361 -0.256155 2.56834e-19)
(-0.272923 -0.0880078 6.48831e-19)
(-0.0614768 0.0247948 -5.17908e-19)
(-0.0300821 0.0823468 -5.62657e-19)
(3.45458 -1.3714 0)
(4.04254 -1.19541 1.41169e-19)
(3.53481 -0.969315 -5.98171e-20)
(3.33454 -0.988015 0)
(2.36439 -0.599166 -1.53281e-19)
(2.43215 -0.635638 -9.89405e-20)
(-0.29115 0.276156 1.48329e-18)
(-0.33101 0.27468 -4.72884e-19)
(-0.411929 0.375296 1.17838e-18)
(2.49885 -0.771297 0)
(2.3971 -0.723822 5.21421e-19)
(2.2781 -1.14244 1.23915e-19)
(3.59567 0.511495 4.04962e-19)
(3.67507 0.405792 -4.49004e-19)
(3.48079 0.278018 -2.72265e-19)
(0.623659 -0.336804 2.17058e-20)
(0.958563 -0.573443 -3.93564e-19)
(2.8875 -1.88807 -8.28494e-20)
(2.73798 -1.76964 1.26125e-19)
(-0.361861 0.117886 2.30892e-18)
(-0.463958 0.0752198 -8.89747e-19)
(3.22812 1.27627 -5.578e-20)
(2.75314 0.958155 -3.43408e-20)
(2.70238 1.47587 -1.44118e-21)
(2.56267 1.58417 -7.07046e-20)
(2.57967 1.71874 3.67366e-20)
(2.19604 1.53882 3.09637e-21)
(2.2153 1.6305 -3.16521e-20)
(2.24423 1.70468 7.31739e-20)
(0.191281 -1.77988 -1.75401e-19)
(-0.0245809 -1.5313 -4.36864e-20)
(-0.228418 -1.51349 8.76219e-20)
(-0.0382925 -1.93116 -1.33148e-18)
(0.0829401 -2.15497 1.70232e-18)
(1.23562 1.20449 -2.87501e-19)
(1.3927 1.35719 5.84658e-20)
(-0.379324 -0.147131 0)
(2.51604 -0.0011797 0)
(2.43038 0.0782741 -4.24433e-19)
(2.3994 0.177908 3.54024e-19)
(2.60688 0.15013 0)
(3.04249 0.0982936 0)
(3.0363 0.0966257 0)
(3.05377 0.081126 5.04492e-20)
(2.68069 0.308927 -3.16269e-20)
(2.65973 0.332961 3.32745e-19)
(2.6726 0.297514 1.80062e-19)
(-0.37511 -0.0607455 1.53851e-18)
(-0.350944 0.00187885 -1.72733e-18)
(0.152147 0.252863 -8.92857e-19)
(0.169675 -0.279724 8.99143e-19)
(-0.43891 0.0491161 1.60634e-18)
(0.422018 0.468442 4.69451e-19)
(0.97676 0.383311 1.14007e-18)
(0.814987 0.938776 8.74165e-20)
(0.377133 0.871012 -2.7323e-18)
(3.30303 0.964687 -9.84746e-22)
(2.90942 0.958939 7.72799e-20)
(2.83096 0.856747 -1.37058e-19)
(2.71612 -2.11682 -3.34171e-20)
(1.99904 -1.49085 6.55112e-20)
(0.414965 -0.0846717 -1.41683e-18)
(0.4924 -0.254681 0)
(0.779417 -0.374533 7.84407e-19)
(1.87074 -1.46651 -1.53134e-20)
(2.25396 -1.94859 1.04504e-19)
(2.20593 0.080642 -1.51802e-20)
(2.27577 0.0788597 5.94322e-21)
(2.07023 0.073099 4.26162e-22)
(1.4964 -2.15594 0)
(1.57402 -1.57313 0)
(2.57266 -0.165075 -8.6202e-20)
(2.52995 -0.154531 4.97771e-19)
(2.53206 -0.0462359 0)
(2.25107 -2.06946 0)
(2.29769 -1.79415 -1.23855e-19)
(2.14003 1.63576 4.81652e-19)
(0.100201 0.292843 1.27971e-18)
(0.0564843 0.456317 -9.90627e-19)
(2.21908 -1.99774 2.5952e-20)
(3.10023 -0.697283 5.36105e-20)
(3.05862 -0.724508 -9.14895e-21)
(3.97727 -0.187302 -1.18346e-19)
(4.03704 -0.0484301 1.59444e-19)
(3.95213 -0.00556265 5.14617e-19)
(0.0144594 0.452921 4.32741e-19)
(2.42943 1.68033 5.79529e-19)
(2.51066 1.48796 -1.40557e-19)
(2.9995 1.89791 7.42388e-22)
(1.67276 -0.0526937 -1.0182e-21)
(1.66517 -0.0528665 -1.54171e-20)
(1.88106 -0.0611105 -9.74505e-22)
(1.89697 -0.0758649 3.58158e-21)
(2.12138 1.59255 8.92096e-20)
(1.34912 1.4461 0)
(0.44606 -1.53879 7.89893e-19)
(0.466573 -1.05461 -8.56646e-19)
(-0.169206 -1.31096 6.56759e-19)
(2.25973 0.42203 -1.65072e-18)
(3.37877 0.673653 -7.83979e-19)
(2.12663 -0.0815108 1.45017e-21)
(3.81882 -1.78147 1.66117e-19)
(3.81767 -1.7005 4.62713e-19)
(2.45936 0.51534 4.91727e-19)
(2.30766 0.588173 4.6876e-20)
(2.34251 0.351468 2.88841e-19)
(2.39669 0.354778 -2.07627e-19)
(2.49801 0.519059 0)
(2.7107 0.0474485 2.13496e-20)
(2.71845 0.0444558 4.26131e-20)
(2.87252 -0.0902989 -1.90218e-20)
(2.89709 -0.0929135 3.1274e-20)
(2.69918 0.279163 3.54696e-20)
(2.7247 0.291279 -9.6777e-20)
(2.70194 0.29921 0)
(2.67814 0.283624 2.31978e-20)
(2.7011 0.324665 0)
(2.68392 0.426873 -8.07918e-20)
(2.68082 0.478515 -4.82201e-20)
(2.66392 0.53764 -9.41058e-20)
(2.68453 0.522922 0)
(2.74415 0.523874 2.67041e-19)
(2.68755 0.566887 1.64718e-20)
(2.62196 0.577588 -5.97807e-20)
(2.4825 0.686494 -2.65608e-19)
(2.50334 0.556672 -4.76154e-20)
(-1.08402 -1.94547 3.08303e-19)
(-0.49401 -1.63566 -1.37086e-19)
(-0.603386 -0.354146 -1.21815e-18)
(2.01534 0.0766798 1.43917e-20)
(2.3639 0.0841764 0)
(0.493673 -0.344776 8.47981e-19)
(0.331662 -0.272619 3.9823e-19)
(2.26461 0.095439 -2.33782e-21)
(2.44742 0.101215 -5.80473e-22)
(2.45031 0.0983908 0)
(2.24225 0.0925156 -1.32529e-21)
(2.7393 2.08492 1.2824e-19)
(2.63781 2.13569 -5.71609e-19)
(2.65072 2.09726 -2.32188e-19)
(-0.231676 0.0419467 7.05986e-19)
(0.141167 0.266368 -8.97594e-19)
(0.239934 0.411539 9.0972e-19)
(-0.200378 -0.0724381 0)
(-0.075179 -0.0327966 1.05344e-18)
(-0.0602582 -0.00798882 -9.33466e-19)
(-0.480706 -0.0715208 -9.0837e-19)
(-0.425356 -0.179032 -8.60206e-19)
(-0.265103 -0.11311 0)
(0.159695 0.640665 0)
(0.0817563 0.451069 0)
(0.0171616 0.259402 0)
(3.02104 0.0973095 1.20658e-21)
(3.00131 0.102372 0)
(3.01491 0.104928 -3.77348e-21)
(2.34547 -0.267101 1.07968e-18)
(2.38248 -0.267363 -3.95694e-19)
(2.37166 -0.228579 0)
(2.25971 0.219884 1.86084e-20)
(2.25909 -0.153007 -3.74535e-20)
(2.25611 0.582617 1.21972e-20)
(2.2621 -0.522967 0)
(2.27126 -0.87444 2.21247e-20)
(2.27357 -1.19564 0)
(2.49568 -1.18702 0)
(2.29257 -1.4709 -7.49706e-20)
(2.50463 -1.4569 0)
(2.49926 -0.867843 2.35244e-20)
(2.49051 -0.51658 0)
(2.49001 -0.1437 -1.276e-20)
(2.49148 0.232047 1.88437e-20)
(2.48912 0.593651 -1.21812e-20)
(2.31327 -1.695 7.16628e-20)
(2.50261 -1.67863 2.3363e-21)
(2.25987 0.924823 -1.67649e-22)
(2.47845 0.93703 1.734e-20)
(2.2641 1.23103 -8.28984e-20)
(2.32276 -1.87163 -5.83983e-23)
(2.49441 -1.85506 1.92776e-21)
(2.47715 1.24628 -3.21502e-20)
(2.33151 -2.00151 -5.24364e-20)
(2.33861 -2.08697 5.23874e-20)
(2.4871 -1.98413 -4.2947e-21)
(2.47703 -2.0699 -7.03159e-21)
(2.26636 1.48737 8.0576e-20)
(2.4734 1.50586 2.06082e-20)
(2.34384 -2.13485 0)
(2.46342 -2.11827 6.93316e-21)
(2.28973 1.69487 -8.68614e-24)
(2.47453 1.71693 8.74994e-24)
(2.34617 -2.152 0)
(2.44707 -2.13591 0)
(2.30106 1.84842 0)
(2.47157 1.87022 0)
(2.34588 -2.14729 0)
(2.42864 -2.1305 -2.5934e-21)
(2.32588 1.9492 2.71595e-20)
(2.47613 1.97204 7.11082e-24)
(2.34148 -2.12897 -1.33306e-22)
(2.40772 -2.11069 2.76534e-21)
(2.34354 2.00569 -2.72874e-20)
(2.47514 2.02634 0)
(2.33319 -2.1049 0)
(2.3842 -2.08361 0)
(2.36656 2.02744 1.45792e-21)
(2.47937 2.04505 -2.40389e-20)
(2.31986 -2.07979 -1.52925e-20)
(2.35658 -2.05576 0)
(2.38606 2.02827 -5.2825e-22)
(2.48025 2.04031 2.26756e-20)
(2.30207 -2.05601 2.28367e-20)
(2.32572 -2.02751 6.269e-21)
(2.40805 2.0167 -2.07451e-20)
(2.48187 2.02371 0)
(2.28024 -2.03233 -7.49599e-21)
(2.2903 -2.00094 -4.21412e-21)
(2.42152 1.99875 9.25555e-21)
(2.479 1.9996 -1.86255e-20)
(2.25359 -2.00912 2.99236e-20)
(2.25079 -1.97306 -3.35373e-20)
(2.43669 1.97864 -8.94745e-21)
(2.47468 1.97506 -2.74808e-22)
(2.22532 -1.98173 0)
(2.20809 -1.93932 -1.56983e-20)
(2.43939 1.96122 1.71645e-20)
(2.46024 1.95266 -3.38815e-20)
(2.19477 -1.94014 0)
(2.16348 -1.89636 0)
(2.39772 1.96286 8.84645e-21)
(2.4195 1.95181 3.38457e-20)
(2.43728 1.95341 0)
(2.44663 1.93994 1.64484e-20)
(2.34122 1.98733 6.14207e-21)
(2.37148 1.97542 -1.19102e-21)
(2.26914 1.98727 0)
(2.3063 1.99312 2.23714e-20)
(2.18988 1.90402 6.00019e-23)
(2.22952 1.96229 0)
(2.11654 1.65268 0)
(2.15029 1.80437 0)
(2.06429 1.1959 0)
(2.08325 1.45046 0)
(2.03735 0.569076 -2.33156e-20)
(2.04634 0.901896 -5.58293e-21)
(2.03769 -0.157242 2.30494e-20)
(2.03721 0.209966 2.23908e-20)
(2.06152 -0.862448 -4.08458e-20)
(2.04765 -0.519432 -5.09514e-20)
(2.09773 -1.44781 0)
(2.07344 -1.17398 0)
(2.15805 -1.84775 1.3659e-22)
(2.12908 -1.67238 0)
(2.20997 -2.06482 0)
(2.18495 -1.97749 0)
(2.25354 -2.13695 0)
(2.23309 -2.11575 0)
(2.28273 -2.12444 0)
(2.2705 -2.13716 0)
(2.29135 -2.08698 0)
(2.28973 -2.10624 0)
(2.27981 -2.05104 0)
(2.28774 -2.06872 0)
(2.25205 -2.00637 1.38621e-20)
(2.26773 -2.03145 0)
(2.23539 -1.96827 4.97522e-21)
(2.1646 -1.87611 -4.59645e-21)
(2.12019 -1.83393 4.55568e-21)
(2.25352 -1.92865 0)
(2.14203 -1.84882 1.60659e-20)
(2.19901 -1.89329 8.47321e-21)
(2.35051 -1.98991 -2.07975e-21)
(2.30361 -1.96105 7.61706e-21)
(2.4323 -2.05195 -6.82407e-23)
(2.39264 -2.02085 0)
(2.50544 -2.10452 0)
(2.46973 -2.08192 0)
(2.57478 -2.09784 0)
(2.54058 -2.11253 0)
(2.63791 -1.9718 0)
(2.60788 -2.05325 -1.35654e-26)
(2.68517 -1.67183 -1.523e-22)
(2.66381 -1.84672 0)
(2.71704 -1.16911 0)
(2.70527 -1.44214 0)
(2.72877 -0.509719 0)
(2.72785 -0.854167 0)
(2.72677 0.232117 0)
(2.72456 -0.142241 1.28741e-20)
(2.70044 0.93175 -2.86407e-21)
(2.72306 0.593668 1.55512e-20)
(2.6766 1.49202 0)
(2.69755 1.23431 1.17662e-20)
(2.64025 1.854 0)
(2.65948 1.70117 0)
(2.60623 2.01023 0)
(2.62367 1.95554 0)
(2.57354 2.02384 0)
(2.5906 2.02901 0)
(2.53641 1.97925 5.00634e-21)
(2.55538 2.00559 0)
(2.48762 1.928 1.7119e-20)
(2.51334 1.95337 4.56599e-21)
(2.46288 1.91349 -1.68185e-20)
(2.43198 1.95164 -3.32795e-20)
(2.21874 -1.90419 -1.04388e-20)
(2.08638 -1.78467 1.78274e-20)
(2.42624 1.94147 0)
(2.43199 1.91217 0)
(2.43887 1.96272 0)
(2.4304 1.95845 0)
(2.36754 1.92934 0)
(2.43 1.93116 -7.97582e-21)
(2.40108 1.92489 -8.51304e-21)
(2.28965 1.94856 -1.22908e-20)
(2.33123 1.93892 2.39778e-21)
(2.18989 1.94419 -4.43373e-23)
(2.2426 1.95154 0)
(2.07726 1.86045 0)
(2.13397 1.91746 0)
(1.96867 1.61732 0)
(2.02161 1.76317 0)
(1.88489 1.17315 0)
(1.92291 1.42085 0)
(1.84083 0.552077 0)
(1.8571 0.879757 0)
(1.83608 -0.149648 9.43086e-23)
(1.83487 0.205818 -2.39674e-20)
(1.8717 -0.836733 8.20811e-23)
(1.84933 -0.502815 4.72717e-20)
(1.93173 -1.41053 0)
(1.89841 -1.14249 0)
(2.01781 -1.80928 -6.64617e-23)
(1.97355 -1.63372 0)
(2.10265 -2.02864 0)
(2.06112 -1.93961 0)
(2.17813 -2.10794 0)
(2.14192 -2.08245 0)
(2.23666 -2.10695 0)
(2.21012 -2.11343 0)
(2.27214 -2.08183 0)
(2.25742 -2.09484 0)
(2.28666 -2.05645 0)
(2.28198 -2.0688 0)
(2.28618 -2.01941 -9.3742e-21)
(2.28859 -2.04104 0)
(2.13585 -1.78197 0)
(2.20378 -1.80459 -1.21113e-20)
(2.27957 -1.92166 0)
(2.28367 -1.98323 -9.79307e-21)
(2.13498 -1.79324 -1.4385e-20)
(2.0688 -1.73093 -3.60898e-21)
(2.03111 -1.69833 -3.4199e-20)
(2.07776 -1.74142 0)
(2.26418 -1.87847 0)
(2.20213 -1.84119 2.18538e-20)
(2.37901 -1.94225 -5.72248e-23)
(2.32288 -1.91157 -7.66197e-21)
(2.48323 -2.00685 6.82423e-23)
(2.43194 -1.97433 0)
(2.58291 -2.0603 0)
(2.53343 -2.03767 0)
(2.68261 -2.05276 0)
(2.63276 -2.06776 0)
(2.78064 -1.93123 0)
(2.73234 -2.00921 1.35657e-26)
(2.86592 -1.6458 2.98363e-22)
(2.82608 -1.8123 0)
(2.92586 -1.15371 0)
(2.89874 -1.42627 0)
(2.95815 -0.495978 -6.29435e-21)
(2.94537 -0.84039 0)
(2.95624 0.228375 0)
(2.95724 -0.137097 6.26742e-21)
(2.92224 0.91587 -1.20527e-20)
(2.94586 0.584555 -1.2634e-20)
(2.86977 1.46983 0)
(2.90603 1.21452 0)
(2.80126 1.82527 0)
(2.83955 1.67454 0)
(2.73014 1.97859 0)
(2.76637 1.92469 0)
(2.66063 1.99253 0)
(2.69542 1.99759 0)
(2.59103 1.94648 -6.97739e-23)
(2.62577 1.9732 0)
(2.51894 1.89294 6.15691e-23)
(2.55441 1.91864 0)
(2.44237 1.87259 1.57837e-20)
(2.48238 1.87745 -1.57673e-20)
(2.45158 1.95057 -1.64511e-20)
(2.40043 1.92418 0)
(2.40034 1.87812 3.17474e-20)
(2.40311 1.95903 0)
(2.27939 -1.82251 0)
(2.00288 -1.64757 3.7543e-21)
(2.43912 1.98686 -4.42588e-20)
(2.46539 1.97891 -1.78945e-20)
(2.35943 1.94215 -9.56492e-21)
(2.34483 1.88845 -4.04544e-20)
(2.41752 1.98006 0)
(2.34847 -1.91965 -4.23807e-20)
(2.35966 -1.8231 2.18559e-20)
(1.98117 -1.57803 9.04563e-21)
(1.94117 -1.52937 -4.44963e-20)
(2.49148 1.95568 -5.94783e-20)
(2.46912 2.01463 3.46207e-20)
(2.51761 2.04389 1.60614e-19)
(2.50937 1.99708 3.4067e-20)
(2.42926 1.89656 -1.54929e-20)
(2.46447 1.92046 4.95264e-20)
(2.34581 1.88794 1.65292e-20)
(2.38925 1.88651 1.20694e-20)
(2.24582 1.89852 4.82798e-21)
(2.29854 1.89418 4.23192e-21)
(2.11916 1.88252 4.43373e-23)
(2.18543 1.89644 0)
(1.97851 1.7913 0)
(2.04935 1.85061 0)
(1.84238 1.55495 0)
(1.90851 1.69546 0)
(1.7341 1.12959 0)
(1.78336 1.3665 0)
(1.67217 0.537063 0)
(1.69672 0.850325 0)
(1.66397 -0.141669 0)
(1.66235 0.200077 0)
(1.70557 -0.806256 -7.1488e-24)
(1.67813 -0.482734 0)
(1.7856 -1.36223 0)
(1.74192 -1.10131 0)
(1.89424 -1.75705 -5.76491e-23)
(1.83752 -1.582 0)
(2.00848 -1.97964 0)
(1.95187 -1.88837 0)
(2.1134 -2.06691 0)
(2.06275 -2.03673 0)
(2.19899 -2.0779 0)
(2.15934 -2.07795 0)
(2.26013 -2.06491 0)
(2.23299 -2.07201 0)
(2.30052 -2.04866 0)
(2.28324 -2.05708 0)
(2.32707 -2.01698 -4.71758e-21)
(2.31604 -2.03694 2.35244e-21)
(2.33822 -1.98136 2.06644e-20)
(2.10991 -1.64811 5.43756e-21)
(2.28057 -1.67925 -2.50833e-20)
(2.19099 -1.66779 1.69477e-20)
(2.03784 -1.61238 0)
(2.13495 -1.73027 1.03502e-20)
(1.98534 -1.58703 3.27068e-20)
(2.0618 -1.66864 -2.39004e-20)
(2.27796 -1.81658 0)
(2.20994 -1.7775 0)
(2.40874 -1.88367 5.30158e-24)
(2.34407 -1.85139 0)
(2.53389 -1.95063 0)
(2.47189 -1.91696 0)
(2.65918 -2.00443 6.99996e-23)
(2.59629 -1.98178 0)
(2.78902 -1.99663 0)
(2.72368 -2.01152 0)
(2.9184 -1.87738 0)
(2.85451 -1.95377 0)
(3.03537 -1.59928 -1.4602e-22)
(2.97942 -1.76113 0)
(3.12299 -1.12706 -1.6273e-22)
(3.08401 -1.3878 0)
(3.17055 -0.48641 0)
(3.15239 -0.822275 0)
(3.17306 0.222365 0)
(3.17782 -0.133209 0)
(3.13203 0.893788 0)
(3.15833 0.569788 0)
(3.05622 1.43525 0)
(3.0997 1.18528 0)
(2.9565 1.78433 1.22793e-22)
(3.01004 1.6359 0)
(2.84909 1.93543 0)
(2.90364 1.88211 0)
(2.7447 1.9501 0)
(2.79635 1.95469 0)
(2.64669 1.90489 4.57263e-24)
(2.69487 1.9312 0)
(2.55339 1.85117 -4.64072e-24)
(2.59909 1.87665 0)
(2.45781 1.82439 -5.42419e-23)
(2.50636 1.83379 0)
(2.33997 1.82749 3.00947e-20)
(2.40349 1.8243 -6.91538e-21)
(2.28267 1.89818 -8.06636e-21)
(2.27312 1.83107 -1.48805e-20)
(2.43221 2.02122 1.67432e-20)
(2.37561 1.98523 1.74319e-20)
(2.37462 -1.6815 -6.11219e-21)
(1.91486 -1.4766 -2.61252e-20)
(2.46393 2.05693 -1.95185e-21)
(2.30511 1.95837 0)
(2.55337 2.09174 -2.78915e-19)
(2.19879 1.82903 -2.57335e-20)
(2.21428 1.90131 -3.72926e-20)
(2.62936 2.11328 4.73084e-19)
(2.73611 2.11492 -9.40105e-20)
(2.40141 2.01213 0)
(2.5797 2.01252 -3.7975e-20)
(2.6079 2.06433 -2.20948e-20)
(2.52002 1.91511 -3.30235e-20)
(2.55296 1.96227 5.16136e-20)
(2.43538 1.85235 1.56793e-20)
(2.48049 1.87707 7.51242e-21)
(2.3315 1.8355 -7.97681e-21)
(2.3858 1.83943 -7.93303e-21)
(2.20943 1.83412 0)
(2.27326 1.83508 -2.30171e-22)
(2.06381 1.80954 0)
(2.13994 1.8273 0)
(1.89949 1.7161 -4.44985e-23)
(1.98283 1.77526 0)
(1.7386 1.48819 0)
(1.81708 1.62301 0)
(1.60881 1.082 0)
(1.66816 1.3078 0)
(1.5325 0.516139 0)
(1.56331 0.814994 0)
(1.5197 -0.134449 -7.15355e-23)
(1.51843 0.194235 0)
(1.56621 -0.771902 -7.97408e-24)
(1.53536 -0.460714 0)
(1.66217 -1.30832 0)
(1.60947 -1.05653 0)
(1.79059 -1.6939 1.09796e-22)
(1.72339 -1.52177 0)
(1.92977 -1.91802 0)
(1.86032 -1.82491 0)
(2.06037 -2.01361 0)
(1.99721 -1.97852 0)
(2.17019 -2.03677 0)
(2.11884 -2.03053 0)
(2.25522 -2.03526 0)
(2.21637 -2.0371 0)
(2.32045 -2.02669 0)
(2.29047 -2.03201 0)
(2.37367 -1.99833 2.37889e-21)
(2.34812 -2.01709 0)
(2.42301 -1.90088 0)
(2.39641 -1.96332 4.8413e-21)
(2.4748 -1.66553 1.2195e-22)
(2.44667 -1.80385 0)
(2.28532 -1.49339 2.54422e-20)
(2.5023 -1.48119 -1.58008e-21)
(2.39256 -1.49033 -1.36941e-20)
(2.08907 -1.47247 -8.88473e-21)
(2.18288 -1.48645 6.24297e-21)
(1.93976 -1.41772 2.98834e-21)
(2.00685 -1.44594 -2.49591e-21)
(1.85253 -1.33257 0)
(1.88841 -1.3753 1.90893e-20)
(1.98046 -1.52209 6.69059e-21)
(1.83414 -1.28237 1.37959e-20)
(1.90592 -1.4178 -3.0576e-20)
(2.14221 -1.66148 3.1449e-21)
(2.06378 -1.59992 0)
(2.29597 -1.74925 0)
(2.22178 -1.70964 0)
(2.44047 -1.81705 5.79701e-24)
(2.36897 -1.78405 0)
(2.5834 -1.88364 0)
(2.51219 -1.85034 0)
(2.72988 -1.93434 -6.99995e-23)
(2.65577 -1.91359 0)
(2.88548 -1.92367 0)
(2.80657 -1.93953 0)
(3.04483 -1.80834 0)
(2.96566 -1.88169 0)
(3.19031 -1.54135 0)
(3.12063 -1.69703 0)
(3.30315 -1.08545 1.28222e-23)
(3.25199 -1.337 0)
(3.3666 -0.470429 0)
(3.34187 -0.793025 0)
(3.3723 0.213405 0)
(3.37679 -0.130444 0)
(3.3225 0.862679 0)
(3.35394 0.548674 0)
(3.2262 1.38645 0)
(3.27958 1.14466 0)
(3.09855 1.72627 -1.22794e-22)
(3.16567 1.5813 0)
(2.95962 1.87652 0)
(3.02963 1.82272 0)
(2.82596 1.89514 0)
(2.89165 1.89743 0)
(2.70375 1.854 6.51479e-23)
(2.76357 1.87851 0)
(2.58914 1.80112 -5.71658e-23)
(2.64573 1.82671 0)
(2.47272 1.76815 5.36267e-23)
(2.53161 1.78102 0)
(2.34048 1.76113 -6.5789e-21)
(2.4089 1.76312 1.33397e-20)
(2.18896 1.75194 6.2741e-21)
(2.26819 1.76031 -1.47992e-20)
(2.1172 1.81285 -2.29202e-21)
(2.10192 1.73022 -1.54463e-20)
(2.41816 2.05919 1.91892e-20)
(2.33782 2.0104 0)
(2.4697 2.0925 1.93838e-19)
(2.24282 1.96886 0)
(2.57763 -1.63387 6.27862e-21)
(2.61892 -1.44704 -4.58193e-21)
(1.8019 -1.15067 1.76535e-20)
(1.776 -1.11142 1.69993e-20)
(2.53209 2.15019 2.08306e-19)
(2.13803 1.88877 3.76788e-20)
(2.75042 2.09935 0)
(2.75976 2.045 5.9116e-20)
(2.02491 1.77209 1.63126e-20)
(2.00711 1.68476 -2.50127e-20)
(2.81728 2.05828 -1.10739e-19)
(2.37619 2.04583 0)
(2.65251 1.95862 0)
(2.7039 2.00552 4.34247e-20)
(2.55366 1.86142 0)
(2.6035 1.90747 0)
(2.44701 1.79955 0)
(2.50209 1.8254 -7.78552e-21)
(2.32371 1.77396 0)
(2.38783 1.78296 0)
(2.18304 1.76443 0)
(2.25519 1.76966 0)
(2.02117 1.72918 0)
(2.10548 1.75248 0)
(1.83913 1.628 4.44984e-23)
(1.9315 1.68986 0)
(1.65943 1.40704 0)
(1.74734 1.53604 0)
(1.51178 1.02402 0)
(1.57969 1.23656 0)
(1.42309 0.490222 0)
(1.45908 0.772431 0)
(1.40565 -0.126892 9.0245e-24)
(1.40538 0.185886 0)
(1.45591 -0.733465 -8.45095e-24)
(1.42251 -0.436821 0)
(1.56369 -1.24786 0)
(1.50406 -1.00616 0)
(1.70841 -1.62105 -5.97253e-24)
(1.6327 -1.45357 0)
(1.86776 -1.84447 0)
(1.78794 -1.75035 0)
(2.01974 -1.9481 0)
(1.94607 -1.90817 0)
(2.15058 -1.98335 0)
(2.08872 -1.97104 0)
(2.25719 -1.99267 0)
(2.20704 -1.98969 0)
(2.3455 -1.99087 0)
(2.3028 -1.99363 0)
(2.42436 -1.96377 0)
(2.38416 -1.98323 0)
(2.49917 -1.86844 -5.0288e-21)
(2.46039 -1.92889 -4.91578e-21)
(2.53767 -1.77211 1.14668e-20)
(2.2926 -1.26555 1.38933e-20)
(2.53582 -1.24559 0)
(2.41302 -1.25441 1.38584e-20)
(2.07599 -1.25833 0)
(2.17968 -1.26508 -1.41791e-20)
(1.90749 -1.21784 -1.65641e-20)
(1.9843 -1.2414 5.97296e-21)
(1.84661 -1.18385 2.9526e-20)
(1.98744 -1.44869 -2.44376e-21)
(1.83166 -1.2253 -1.12181e-20)
(1.90942 -1.35093 0)
(2.15589 -1.58476 5.15629e-21)
(2.07349 -1.52476 -5.17046e-21)
(2.31565 -1.67316 0)
(2.23697 -1.6328 0)
(2.4726 -1.74177 6.07811e-24)
(2.39427 -1.70856 0)
(2.63073 -1.80762 0)
(2.55122 -1.77498 0)
(2.79575 -1.85414 0)
(2.71193 -1.8358 0)
(2.97242 -1.83866 0)
(2.88272 -1.85662 0)
(3.1557 -1.72467 0)
(3.06413 -1.79608 0)
(3.32688 -1.47119 -1.13473e-22)
(3.24454 -1.61851 0)
(3.46053 -1.03736 1.49907e-22)
(3.39979 -1.27736 0)
(3.53789 -0.449742 0)
(3.50727 -0.757641 0)
(3.5473 0.202539 0)
(3.55148 -0.125538 0)
(3.48969 0.823528 0)
(3.52637 0.52299 0)
(3.37594 1.32512 0)
(3.43904 1.09373 0)
(3.22432 1.65183 0)
(3.30365 1.51203 0)
(3.05932 1.80071 0)
(3.14209 1.74619 0)
(2.90179 1.82576 6.52151e-23)
(2.97895 1.82428 0)
(2.75806 1.79148 -5.35826e-23)
(2.8285 1.8129 0)
(2.62291 1.74097 4.6208e-23)
(2.68984 1.76605 0)
(2.48884 1.70491 0)
(2.55622 1.71977 0)
(2.34572 1.69115 0)
(2.41845 1.69641 0)
(2.18935 1.67163 -4.35812e-23)
(2.26974 1.68546 -6.30194e-21)
(2.00553 1.59804 3.5782e-20)
(2.10136 1.64618 0)
(1.90638 1.60236 2.37787e-20)
(1.90459 1.519 2.0219e-21)
(2.39883 2.08818 -6.1935e-20)
(2.28848 2.02748 0)
(2.66026 -1.21656 2.78646e-20)
(1.76448 -1.06541 2.26145e-20)
(2.43578 2.13321 3.74074e-20)
(2.61975 2.16726 -6.96109e-21)
(2.52264 2.16795 -1.22547e-19)
(2.17685 1.96341 0)
(2.0546 1.85416 -1.0882e-20)
(2.83702 2.03604 1.16038e-19)
(2.82436 1.98186 -1.27794e-19)
(2.71356 2.08562 1.1131e-19)
(1.92868 1.69319 2.85444e-20)
(1.80412 1.48155 -2.00485e-20)
(1.80123 1.39895 -1.18921e-20)
(2.34061 2.06834 0)
(2.83721 1.98303 -2.53666e-21)
(2.96977 1.99693 3.60819e-21)
(2.91473 2.00137 -2.21969e-20)
(2.6995 1.8968 -1.7626e-20)
(2.76553 1.94431 1.7753e-20)
(2.58024 1.80327 -2.62944e-23)
(2.6401 1.8469 0)
(2.45721 1.73924 0)
(2.51979 1.76742 0)
(2.31955 1.7063 0)
(2.39082 1.71916 0)
(2.165 1.68527 0)
(2.24419 1.69672 0)
(1.9916 1.63848 -2.88827e-23)
(2.08128 1.66705 0)
(1.79813 1.53282 0)
(1.89647 1.59559 0)
(1.60546 1.31993 0)
(1.69996 1.44303 0)
(1.44441 0.960181 0)
(1.51895 1.15921 0)
(1.34525 0.460721 0)
(1.38573 0.724931 0)
(1.32323 -0.118762 6.2511e-23)
(1.32441 0.175658 0)
(1.37568 -0.691194 -8.5902e-24)
(1.3406 -0.410934 0)
(1.49138 -1.18046 0)
(1.42698 -0.950037 0)
(1.64842 -1.53953 -8.61262e-23)
(1.56624 -1.3776 0)
(1.82298 -1.76086 0)
(1.73529 -1.66635 0)
(1.9917 -1.87209 0)
(1.90954 -1.82749 0)
(2.13996 -1.91916 0)
(2.06903 -1.90087 0)
(2.26544 -1.93897 0)
(2.2052 -1.93116 0)
(2.37447 -1.9438 0)
(2.32093 -1.9437 0)
(2.47617 -1.91865 -6.39096e-23)
(2.42513 -1.93708 0)
(2.57844 -1.81992 5.05095e-21)
(2.52752 -1.88124 0)
(2.68101 -1.59001 -6.16217e-21)
(2.63018 -1.72483 0)
(2.78311 -1.18258 -6.34258e-21)
(2.73219 -1.40982 6.26946e-21)
(2.56513 -0.972389 -1.47183e-20)
(2.82869 -0.915758 0)
(2.69919 -0.94265 -2.06674e-20)
(2.30389 -1.00037 0)
(2.43343 -0.985475 0)
(2.07007 -1.00929 0)
(2.18202 -1.00695 0)
(1.88776 -0.985131 0)
(1.97165 -1.00099 0)
(1.76643 -0.9361 -1.79979e-20)
(1.81838 -0.960711 -5.43885e-21)
(1.71463 -0.878364 -3.00767e-21)
(1.73236 -0.908765 -3.13719e-20)
(1.84031 -1.162 -1.16543e-20)
(1.71367 -0.843106 -1.84176e-21)
(1.76879 -1.01683 4.58088e-21)
(2.00388 -1.3726 -2.12112e-21)
(1.91976 -1.27816 1.42664e-20)
(2.173 -1.50592 6.55704e-24)
(2.08865 -1.44589 0)
(2.33865 -1.59415 0)
(2.25566 -1.55401 0)
(2.50463 -1.66164 6.16668e-24)
(2.42135 -1.62893 0)
(2.67394 -1.7244 0)
(2.58857 -1.69366 0)
(2.85318 -1.76493 0)
(2.76192 -1.74994 0)
(3.04672 -1.74376 0)
(2.94832 -1.76422 0)
(3.24869 -1.62987 0)
(3.14755 -1.70008 0)
(3.44006 -1.38859 2.13474e-22)
(3.34749 -1.52799 0)
(3.5916 -0.980523 0)
(3.52264 -1.20623 0)
(3.67984 -0.425842 0)
(3.64465 -0.716761 0)
(3.69255 0.190514 0)
(3.69613 -0.119502 0)
(3.62904 0.778209 0)
(3.66978 0.493606 0)
(3.50159 1.25391 1.10938e-22)
(3.57233 1.03434 0)
(3.33133 1.56559 0)
(3.42032 1.43167 0)
(3.14594 1.71256 0)
(3.23889 1.65748 0)
(2.96843 1.74401 -6.52151e-23)
(3.05542 1.73876 0)
(2.80558 1.71693 6.76522e-24)
(2.88541 1.73499 0)
(2.6536 1.67072 -8.61891e-23)
(2.72858 1.69406 0)
(2.50737 1.63529 0)
(2.58034 1.65037 0)
(2.35697 1.61625 0)
(2.43314 1.62497 0)
(2.1923 1.58519 7.62424e-24)
(2.27701 1.60471 0)
(2.00645 1.5025 0)
(2.10153 1.55378 0)
(1.80942 1.30934 1.96574e-20)
(1.90763 1.42404 0)
(1.70251 1.2318 2.32093e-21)
(1.71293 1.15173 -3.42094e-20)
(2.3597 2.10674 0)
(2.99695 1.95652 -1.67721e-19)
(2.43222 2.12882 -2.65337e-20)
(2.89862 -1.14245 6.33327e-21)
(2.9517 -0.885997 0)
(1.67933 -0.6626 -2.49421e-21)
(1.67267 -0.640399 6.19919e-21)
(2.22931 2.02827 0)
(2.10544 1.93405 0)
(2.55767 2.09411 0)
(1.96647 1.78155 1.07145e-20)
(1.82889 1.56895 1.98515e-20)
(1.7077 1.30702 0)
(1.60954 1.01777 -4.48867e-20)
(1.62113 0.953073 2.83478e-20)
(2.29217 2.07466 0)
(3.07071 1.86438 1.07778e-23)
(3.02958 1.86536 -5.70185e-20)
(3.17728 1.58026 2.01285e-19)
(3.12807 1.75821 -5.31158e-20)
(2.90721 1.90461 1.12418e-20)
(2.99048 1.9108 2.19249e-20)
(2.7532 1.82438 0)
(2.82769 1.86922 0)
(2.61304 1.73701 2.63078e-23)
(2.68312 1.77876 0)
(2.47237 1.67053 0)
(2.54311 1.70048 0)
(2.32221 1.63101 0)
(2.39923 1.64771 0)
(2.15629 1.60203 0)
(2.24101 1.61732 0)
(1.9751 1.54688 2.88827e-23)
(2.06809 1.57989 0)
(1.77581 1.43421 0)
(1.87718 1.49959 0)
(1.57569 1.22733 0)
(1.67414 1.34521 0)
(1.40589 0.89116 0)
(1.48486 1.07627 0)
(1.29877 0.428047 0)
(1.34286 0.673101 0)
(1.27232 -0.110779 -4.4518e-23)
(1.27524 0.163452 0)
(1.32519 -0.646357 -8.41528e-24)
(1.28939 -0.3838 0)
(1.44533 -1.10788 0)
(1.37815 -0.889883 0)
(1.61043 -1.45148 6.2363e-24)
(1.52391 -1.29569 0)
(1.79523 -1.66992 0)
(1.70211 -1.57537 0)
(1.97598 -1.7883 0)
(1.88745 -1.73919 0)
(2.13813 -1.84671 0)
(2.05975 -1.82261 0)
(2.27983 -1.8764 0)
(2.211 -1.86402 0)
(2.40746 -1.88673 0)
(2.34453 -1.8843 0)
(2.53066 -1.86185 1.22303e-22)
(2.46891 -1.88062 0)
(2.65731 -1.7601 6.9189e-23)
(2.59322 -1.82392 0)
(2.78303 -1.53326 -1.07249e-20)
(2.72091 -1.6648 1.05144e-20)
(2.84252 -1.35896 -1.10239e-20)
(2.59435 -0.670445 -3.87496e-21)
(2.87079 -0.623613 -8.87521e-22)
(2.73573 -0.643176 1.14295e-20)
(2.31871 -0.706809 0)
(2.45462 -0.688843 0)
(2.07129 -0.727772 1.13342e-25)
(2.18964 -0.719898 0)
(1.87748 -0.723972 0)
(1.96696 -0.728903 0)
(1.74419 -0.696566 -9.73184e-21)
(1.80236 -0.712427 1.07987e-20)
(1.7038 -0.680762 2.82714e-23)
(1.86089 -1.09601 4.73376e-22)
(1.72746 -0.802116 4.8272e-21)
(1.7876 -0.961787 -1.00811e-21)
(2.02447 -1.29249 1.86107e-21)
(1.94047 -1.20462 -1.86401e-21)
(2.19299 -1.42207 3.06982e-23)
(2.10884 -1.36363 0)
(2.36253 -1.51004 2.50117e-23)
(2.27771 -1.4701 0)
(2.53519 -1.57623 6.09232e-24)
(2.44851 -1.54433 0)
(2.71316 -1.63567 0)
(2.62328 -1.60708 0)
(2.90252 -1.66938 0)
(2.80605 -1.65802 0)
(3.10725 -1.64151 0)
(3.00305 -1.66491 0)
(3.32236 -1.52739 0)
(3.21436 -1.59645 0)
(3.52824 -1.29893 -1.00001e-22)
(3.42838 -1.43007 0)
(3.693 -0.917495 -1.02937e-22)
(3.61782 -1.12837 0)
(3.78967 -0.399043 0)
(3.75099 -0.671027 0)
(3.80474 0.177566 0)
(3.80794 -0.112491 0)
(3.73712 0.728106 0)
(3.78071 0.461326 0)
(3.5999 1.17502 -1.10938e-22)
(3.67607 0.968521 0)
(3.41659 1.47076 7.88829e-23)
(3.51238 1.343 0)
(3.21684 1.61592 0)
(3.31708 1.56022 0)
(3.02383 1.65331 0)
(3.11867 1.64466 0)
(2.8457 1.63296 6.98917e-24)
(2.93292 1.64772 0)
(2.68182 1.59258 7.35226e-23)
(2.76221 1.61316 0)
(2.52765 1.55999 0)
(2.60425 1.57432 0)
(2.37168 1.5371 0)
(2.45065 1.5486 0)
(2.20268 1.49751 7.30592e-24)
(2.28921 1.52145 0)
(2.01781 1.40535 0)
(2.11176 1.46084 0)
(1.82575 1.21378 -1.07734e-20)
(1.92137 1.32597 0)
(1.64452 0.881066 -1.10333e-20)
(1.7308 1.06708 2.21889e-20)
(2.71238 1.99391 2.38484e-19)
(2.88526 1.76459 1.68723e-19)
(1.54403 0.708063 1.37234e-20)
(1.5701 0.657788 -1.3715e-20)
(2.33931 2.08733 0)
(2.99797 -0.602445 -1.20924e-20)
(1.6819 -0.615458 1.90589e-20)
(3.22718 1.34795 -3.5954e-20)
(2.17035 1.99964 0)
(3.07879 1.65467 -1.53162e-20)
(2.42709 2.05539 0)
(2.02766 1.86809 0)
(2.54925 1.97261 0)
(1.87868 1.6619 0)
(1.73782 1.39613 0)
(1.6164 1.08453 4.28712e-21)
(1.53241 0.757861 1.4256e-20)
(1.48252 0.427654 0)
(1.50999 0.398731 2.55561e-20)
(2.24905 2.04788 0)
(3.31006 1.64736 -8.91364e-20)
(3.27952 1.05478 -1.9295e-19)
(3.42326 1.08636 -1.05163e-19)
(3.37603 1.40244 1.03736e-19)
(3.15791 1.85741 -5.39579e-21)
(3.24042 1.79372 2.76614e-20)
(2.97138 1.83748 -8.56735e-21)
(3.06346 1.86623 9.46944e-24)
(2.79747 1.74814 -2.34891e-23)
(2.88202 1.79442 0)
(2.63887 1.66244 -1.99037e-23)
(2.71735 1.70335 0)
(2.48506 1.59561 0)
(2.56174 1.62636 0)
(2.32671 1.55099 0)
(2.40736 1.57065 0)
(2.15493 1.51443 0)
(2.24247 1.5338 0)
(1.96998 1.45033 0)
(2.06439 1.4878 0)
(1.76952 1.33248 0)
(1.87139 1.39945 0)
(1.5677 1.13233 0)
(1.66716 1.24494 0)
(1.39429 0.818987 0)
(1.47533 0.99069 0)
(1.28226 0.392522 0)
(1.32887 0.618141 0)
(1.25166 -0.103795 8.37043e-24)
(1.25652 0.149125 0)
(1.30316 -0.600679 -4.28283e-23)
(1.26765 -0.356639 0)
(1.42456 -1.03281 0)
(1.3564 -0.828035 0)
(1.59341 -1.35982 6.13925e-23)
(1.50473 -1.21064 0)
(1.78369 -1.57465 0)
(1.68752 -1.48038 0)
(1.97203 -1.69934 0)
(1.87926 -1.64612 0)
(2.14459 -1.76795 0)
(2.06051 -1.73864 0)
(2.29966 -1.80601 0)
(2.22387 -1.78985 0)
(2.44355 -1.82012 0)
(2.37242 -1.81637 0)
(2.58552 -1.79465 -5.83929e-23)
(2.51437 -1.81418 0)
(2.73179 -1.69107 -6.55867e-24)
(2.6584 -1.75534 0)
(2.87873 -1.46364 -5.30885e-21)
(2.80672 -1.59445 0)
(3.00882 -1.08823 0)
(2.94725 -1.29466 1.37514e-20)
(3.11535 -0.573695 1.29756e-20)
(3.06633 -0.845192 0)
(2.90253 -0.315917 1.44218e-20)
(3.15093 -0.281465 0)
(3.0332 -0.297696 -1.42034e-20)
(2.62065 -0.355414 0)
(2.76467 -0.332647 1.57744e-20)
(2.33594 -0.395094 0)
(2.47667 -0.375082 0)