/*--------------------------------*- C++ -*----------------------------------*\
  =========                 |
  \\      /  F ield         | OpenFOAM: The Open Source CFD Toolbox
   \\    /   O peration     | Website:  https://openfoam.org
    \\  /    A nd           | Version:  10
     \\/     M anipulation  |
\*---------------------------------------------------------------------------*/
FoamFile
{
    format      ascii;
    class       volScalarField;
    location    "37.5";
    object      p;
}
// * * * * * * * * * * * * * * * * * * * * * * * * * * * * * * * * * * * * * //

dimensions      [0 2 -2 0 0 0 0];

internalField   nonuniform List<scalar> 
28942
(
-7.11191
-7.08492
-0.0240831
1.51951
1.56515
-0.0890736
-0.0733765
-0.0871658
0.728106
0.750983
-2.4207
-2.15243
-2.40474
-2.54651
0.00100955
0.00375518
2.15807
2.34216
1.53993
2.17357
1.14054
1.1724
-1.99718
-1.91945
-2.01102
-2.03762
4.6148
4.80268
0.878472
0.918145
-0.0956275
-0.0955486
0.0510529
-0.00388957
-1.11069
-0.728138
1.68686
2.47288
-0.102486
1.01461
0.98877
0.946769
0.0881564
0.030265
0.218607
-0.0716397
-0.0630382
-0.0592494
-0.0578281
-0.0496433
-0.0337345
0.667232
0.678823
0.782857
0.807637
-1.60863
-1.08559
-2.24061
-2.25002
-2.06904
-2.14485
-2.22761
-2.30341
0.0812625
-0.3413
0.268669
0.54606
2.72206
2.60803
-7.18927
-7.1701
-7.12756
2.78518
2.66301
2.83986
-3.72382
-3.67681
-2.97986
0.0279655
-0.267696
0.183503
-0.393655
-7.74376
-8.19058
-2.2063
-1.54799
-0.982153
-1.33233
-1.9009
-1.78635
-1.47733
-1.07232
-3.18683
-2.64175
-2.89654
-3.20926
-3.52299
-1.37958
-1.16213
-8.10364
1.61223
1.62577
1.6742
1.6084
-1.06097
-0.986811
-1.09986
0.139731
0.175872
0.214481
-2.3609
-2.45863
-7.05933
-7.04331
-7.09391
4.63349
4.23348
3.7746
4.19917
-1.79665
-0.640869
-1.03459
1.24705
1.1102
5.28313
5.51691
5.15185
1.20803
1.4384
-0.0634097
-0.0591494
-0.0691523
3.17393
3.67684
0.667018
0.631532
0.833399
1.92836
2.63871
0.877528
-3.28443
-3.08736
1.46138
0.388409
0.322167
-0.765989
-0.875481
-0.749765
-2.97557
-0.511207
-0.617294
-2.26771
-0.0406537
-0.0575863
-0.0619195
-0.0496447
0.150725
-1.11025
-6.18945
-6.75625
-6.96046
-7.62607
-6.46756
-0.0265182
-1.62503
-1.3469
1.26624
1.29859
1.84609
1.6914
1.07476
-0.138167
-0.132794
0.830067
0.788991
0.01158
-0.0845784
0.0375518
0.123999
0.0716623
0.033839
0.0969384
0.302129
0.188772
0.00394124
0.134129
0.426257
0.759323
0.957525
-6.39491
-5.63152
-7.21639
-0.0730591
-0.0566354
-6.89664
-6.98601
-0.0450514
-0.0383488
-0.0434117
-0.0525308
-3.0509
-3.135
-3.23542
-2.55364
-2.53984
-2.71686
-2.02242
-1.99956
-2.06957
-1.93777
-2.08561
-1.94282
4.40888
4.05682
4.47738
-0.901225
-0.790278
-0.820089
2.72902
2.66287
2.67554
-1.52719
-1.61417
-1.46819
-1.73053
-1.87891
-2.05835
-2.06552
-2.26564
-2.27024
-1.88694
-1.73459
-1.61211
-1.51941
-1.45562
-2.49361
-2.50267
-1.43494
-1.41575
-1.42689
-2.73899
-2.76184
-1.40038
-2.99663
-3.24303
-3.02529
-3.27405
-1.44194
-1.40884
-3.45802
-3.49226
-1.48245
-1.4411
-3.62724
-3.66611
-1.54998
-1.4983
-3.73917
-3.7831
-1.64738
-1.58361
-3.78272
-3.83711
-1.77739
-1.69924
-3.75848
-3.79949
-1.94164
-1.84724
-3.66328
-3.69781
-2.13868
-2.02659
-3.50721
-3.53577
-2.36808
-2.23586
-3.30068
-3.32129
-2.61397
-2.46101
-3.0606
-3.06944
-2.86913
-2.69301
-2.79411
-2.80128
-3.10833
-2.91095
-2.51679
-2.52855
-2.98295
-3.24004
-3.31283
-3.09267
-2.451
-2.71438
-1.99741
-2.21149
-1.67926
-1.82049
-1.49534
-1.57179
-1.42505
-1.44721
-1.45279
-1.42668
-1.5838
-1.50563
-1.82773
-1.6899
-2.19409
-1.99666
-2.6465
-2.4116
-3.12879
-2.89149
-3.50235
-3.33755
-3.65856
-3.61189
-3.53796
-3.63023
-3.19097
-3.38775
-2.71066
-2.96154
-2.45753
-2.2605
-2.2654
-3.02207
-2.48803
-2.75711
-3.48773
-3.27141
-3.75652
-3.65301
-3.74629
-3.79026
-3.46038
-3.63289
-2.99572
-3.24289
-2.4727
-2.73311
-2.02504
-2.23241
-1.69825
-1.84669
-1.48181
-1.57602
-1.36843
-1.41308
-1.34954
-1.3476
-1.42123
-1.37376
-1.59439
-1.49427
-1.88172
-1.72359
-2.26511
-2.06461
-2.65696
-2.46718
-2.8189
-3.4631
-2.21759
-2.22774
-3.21625
-2.92773
-3.62323
-3.45271
-3.03365
-3.52718
-3.29755
-2.48316
-2.7559
-2.01325
-2.23343
-1.67921
-1.82824
-1.48168
-1.56467
-1.39832
-1.4272
-1.41302
-1.3937
-1.52658
-1.45643
-1.74857
-1.62411
-2.09078
-1.90595
-2.51795
-2.29669
-2.96798
-2.74621
-3.32138
-3.16498
-3.47056
-3.4257
-3.3605
-3.44578
-3.03833
-3.22075
-2.59508
-2.82531
-2.03154
-2.00588
-2.14569
-2.36433
-2.39698
-2.14671
-1.98935
-2.02709
-2.91914
-2.65952
-3.37581
-3.16281
-3.64249
-3.53971
-3.63659
-3.67654
-3.36316
-3.52899
-2.91321
-3.15262
-2.40482
-2.65902
-1.95655
-2.16642
-1.6293
-1.77803
-1.4163
-1.50999
-1.29768
-1.34553
-1.26848
-1.27238
-1.32275
-1.28492
-1.46724
-1.38322
-1.70922
-1.57624
-2.03209
-1.86319
-2.36964
-2.20496
-2.60519
-2.50729
-3.69582
-2.97662
-2.65325
-3.26994
-1.95173
-1.91417
-3.69973
-3.77757
-2.96569
-2.6477
-3.51555
-2.04447
-1.86917
-1.78327
-1.71091
-3.7686
-3.76676
-3.67397
-3.75409
-3.5135
-3.68554
-3.01938
-3.28255
-2.4668
-2.74123
-1.98919
-2.21232
-1.64823
-1.80094
-1.44228
-1.52971
-1.34942
-1.38312
-1.35205
-1.3394
-1.44878
-1.38806
-1.6472
-1.53479
-1.95656
-1.78869
-2.35048
-2.14605
-2.76417
-2.56056
-3.08984
-2.94564
-3.22575
-3.18541
-3.13258
-3.20749
-2.84267
-3.00724
-2.4444
-2.6502
-2.23802
-1.83876
-1.78418
-1.82532
-1.82497
-2.26556
-1.80697
-2.02711
-2.76509
-2.51605
-3.20519
-2.99981
-3.46469
-3.36417
-3.46372
-3.49885
-3.20661
-3.36322
-2.77897
-3.0066
-2.29798
-2.53849
-1.86496
-2.06998
-1.54135
-1.68858
-1.32951
-1.42282
-1.20876
-1.2586
-1.16939
-1.17958
-1.20567
-1.1779
-1.32095
-1.25308
-1.51872
-1.40985
-1.78369
-1.64508
-2.06312
-1.92651
-2.26634
-2.1812
-2.31318
-2.31233
-2.59036
-2.26772
-3.68591
-3.25634
-1.71659
-1.61221
-3.67
-2.89214
-3.47176
-2.18647
-2.48816
-3.20915
-2.9509
-3.5029
-3.56462
-3.42567
-3.6866
-3.66496
-3.41993
-3.59697
-2.93668
-3.19087
-2.40135
-2.6696
-1.92871
-2.15055
-1.58836
-1.74114
-1.37915
-1.46867
-1.27957
-1.31707
-1.27158
-1.26475
-1.35141
-1.30025
-1.52527
-1.42613
-1.7983
-1.64966
-2.15176
-1.96788
-2.52369
-2.34074
-2.81771
-2.68731
-2.93558
-2.90321
-2.86522
-2.92785
-2.61151
-2.75619
-2.26123
-2.44242
-1.91117
-2.08158
-1.62117
-1.75541
-1.64695
-1.50858
-1.58965
-1.68191
-1.67747
-1.61234
-1.65975
-1.44618
-1.54009
-1.67284
-1.33364
-1.49141
-2.10114
-1.87761
-2.57173
-2.33671
-2.98604
-2.79274
-3.23231
-3.13634
-3.23599
-3.266
-3.00007
-3.1445
-2.60125
-2.81407
-2.15327
-2.3767
-1.74809
-1.94116
-1.4372
-1.57943
-1.22924
-1.32136
-1.10762
-1.15862
-1.05944
-1.07511
-1.07874
-1.0607
-1.16637
-1.11375
-1.32312
-1.23646
-1.53485
-1.42402
-1.75896
-1.64928
-1.92673
-1.85441
-1.97593
-1.97009
-1.8816
-1.945
-2.07183
-1.79194
-3.58972
-3.18153
-3.49982
-2.77256
-1.49905
-1.40492
-1.30968
-1.20154
-3.22572
-2.34943
-2.9185
-2.97072
-1.93446
-1.68417
-2.78215
-3.41695
-3.33354
-3.15635
-3.4944
-3.46067
-3.24487
-3.41331
-2.79554
-3.03222
-2.28989
-2.54412
-1.83352
-2.04874
-1.50159
-1.65089
-1.29472
-1.38385
-1.19143
-1.23145
-1.17447
-1.17288
-1.23805
-1.19608
-1.3861
-1.30116
-1.62253
-1.49347
-1.93212
-1.77062
-2.25999
-2.09868
-2.52064
-2.4046
-2.62954
-2.59756
-2.571
-2.6234
-2.35335
-2.47797
-2.05228
-2.20755
-1.74942
-1.89745
-1.61493
-1.53967
-1.42193
-1.49263
-1.55916
-1.56269
-1.47702
-1.5303
-1.40259
-1.52077
-1.20794
-1.35382
-1.91383
-1.70815
-2.34629
-2.1296
-2.72957
-2.5508
-2.95913
-2.86908
-2.96579
-2.99175
-2.75347
-2.88375
-2.39035
-2.58466
-1.97906
-2.18418
-1.60734
-1.78469
-1.31774
-1.45106
-1.11859
-1.20749
-0.998139
-1.04944
-0.943256
-0.963193
-0.947548
-0.938217
-1.01015
-0.971462
-1.1298
-1.06318
-1.2942
-1.20793
-1.46952
-1.3836
-1.60237
-1.54462
-1.64551
-1.63738
-1.58533
-1.62751
-1.43451
-1.51926
-1.56635
-1.34459
-3.42313
-3.0471
-1.33082
-1.08256
-3.2695
-2.93551
-2.94339
-2.6184
-2.18937
-2.58967
-2.37964
-2.64677
-1.79443
-1.46026
-1.25841
-3.26632
-2.72917
-2.29756
-2.55309
-3.06438
-2.89675
-3.22558
-3.18969
-3.01645
-3.16019
-2.60749
-2.82582
-2.13722
-2.37377
-1.70862
-1.91161
-1.3925
-1.53511
-1.19262
-1.27931
-1.08867
-1.12987
-1.06426
-1.06725
-1.11263
-1.07937
-1.23575
-1.1646
-1.4358
-1.32636
-1.7004
-1.562
-1.98337
-1.8439
-2.21035
-2.10883
-2.30903
-2.2788
-2.2618
-2.30494
-2.07897
-2.18391
-1.82422
-1.95591
-1.56768
-1.69228
-1.35855
-1.45534
-1.22083
-1.28023
-1.36168
-1.18148
-1.28003
-1.4619
-1.42265
-1.46765
-1.47718
-1.37495
-1.43286
-1.20311
-1.29731
-0.98244
-1.09648
-1.07282
-0.864662
-0.959193
-1.35694
-1.20624
-1.71142
-1.52669
-2.1011
-1.90585
-2.44745
-2.28577
-2.65703
-2.57428
-2.66695
-2.68823
-2.47936
-2.59493
-2.15565
-2.32906
-1.78546
-1.97059
-1.44877
-1.60952
-1.18451
-1.30669
-0.99855
-1.08218
-0.881951
-0.932388
-0.823018
-0.845873
-0.815008
-0.812929
-0.855769
-0.829355
-0.942919
-0.893867
-1.06632
-1.00125
-1.19996
-1.13425
-1.30291
-1.25787
-1.33888
-1.33074
-1.2991
-1.32815
-1.19253
-1.25186
-1.06405
-1.12792
-1.18247
-1.00417
-3.20785
-2.05743
-2.99452
-1.09502
-1.06625
-0.903667
-0.789962
-2.86763
-2.43414
-2.68165
-2.02439
-1.66062
-1.36396
-1.12092
-0.957931
-3.06491
-2.08084
-1.86353
-1.62128
-1.8342
-2.49031
-2.31791
-2.77255
-2.63714
-2.91318
-2.87678
-2.74532
-2.86523
-2.3788
-2.57634
-1.95282
-2.16708
-1.56055
-1.74729
-1.26602
-1.39942
-1.07695
-1.1594
-0.975036
-1.01626
-0.944927
-0.951678
-0.979573
-0.954271
-1.07907
-1.02112
-1.24443
-1.15369
-1.46551
-1.3496
-1.70442
-1.58636
-1.89811
-1.81109
-1.98601
-1.95801
-1.94903
-1.98385
-1.7985
-1.88513
-1.58708
-1.69652
-1.37446
-1.47758
-1.20315
-1.2824
-1.14072
-1.32654
-1.16158
-1.25445
-1.40956
-1.3786
-1.40228
-1.41763
-1.30116
-1.36284
-1.12418
-1.22053
-1.01679
-0.935353
-0.74621
-0.832513
-1.18787
-1.05378
-1.50162
-1.33819
-1.84625
-1.67357
-2.15302
-2.00968
-2.33991
-2.26579
-2.35235
-2.36894
-2.1904
-2.29079
-1.90706
-2.05902
-1.58087
-1.74445
-1.28053
-1.42433
-1.04242
-1.15289
-0.871862
-0.949067
-0.761288
-0.809762
-0.700771
-0.725309
-0.683408
-0.687004
-0.706004
-0.689863
-0.765764
-0.731536
-0.854759
-0.807473
-0.953585
-0.904708
-1.03187
-0.997263
-1.06241
-1.0541
-1.0361
-1.0565
-0.961643
-1.00276
-0.87237
-0.917962
-0.797372
-0.830489
-2.36515
-2.15876
-0.925123
-0.776167
-2.94082
-1.0555
-0.675693
-1.43675
-2.6554
-1.67608
-2.71183
-2.24077
-2.43161
-1.86851
-1.54868
-1.2876
-1.07788
-0.908624
-0.765721
-2.82383
-1.43306
-1.28902
-1.12604
-1.26513
-1.84284
-1.62738
-2.21247
-2.04737
-2.45897
-2.34769
-2.57522
-2.54324
-2.43962
-2.5387
-2.1249
-2.29591
-1.74892
-1.93905
-1.39632
-1.56492
-1.1273
-1.24964
-0.952039
-1.02885
-0.854421
-0.894582
-0.820455
-0.830117
-0.843062
-0.824867
-0.921159
-0.875152
-1.05456
-0.981137
-1.23487
-1.14011
-1.43193
-1.33423
-1.59378
-1.52073
-1.67042
-1.64509
-1.64257
-1.66994
-1.5213
-1.5913
-1.34974
-1.43858
-1.17752
-1.26097
-1.04116
-1.10329
-0.958674
-0.992399
-0.939376
-0.941007
-1.16428
-0.9546
-1.0653
-1.31431
-1.24894
-1.38069
-1.35834
-1.35966
-1.38115
-1.25091
-1.31579
-1.07
-1.16786
-0.848261
-0.96158
-0.620711
-0.732981
-0.628512
-0.511949
-0.5644
-0.798462
-0.706613
-1.0194
-0.902067
-1.29242
-1.15041
-1.59118
-1.44148
-1.85756
-1.73295
-2.02117
-1.95595
-2.0349
-2.04771
-1.89766
-1.98306
-1.65462
-1.78534
-1.37258
-1.51429
-1.10969
-1.23607
-0.898028
-0.996653
-0.743649
-0.813965
-0.640343
-0.686172
-0.579854
-0.605224
-0.555597
-0.563514
-0.563706
-0.555792
-0.6013
-0.579073
-0.662405
-0.629553
-0.733007
-0.697771
-0.791412
-0.765164
-0.817561
-0.809298
-0.802826
-0.81547
-0.753225
-0.781082
-0.690789
-0.722193
-0.642924
-0.663841
-0.62761
-0.630822
-2.13105
-1.96508
-0.769185
-0.634588
-2.66933
-2.43283
-1.00899
-1.1761
-1.5206
-2.45064
-2.05637
-0.814052
-0.832296
-0.580981
-0.473356
-2.18756
-1.72905
-1.45462
-1.23197
-1.05342
-0.90757
-0.913468
-0.765871
-0.697382
-0.788224
-0.653409
-0.849445
-2.57552
-0.958604
-0.851363
-1.21883
-1.08177
-1.56601
-1.38032
-1.90341
-1.74728
-2.13476
-2.03231
-2.22768
-2.20425
-2.12072
-2.19847
-1.86021
-2.00425
-1.53294
-1.69945
-1.2218
-1.37094
-0.98139
-1.09118
-0.822086
-0.892299
-0.73055
-0.768788
-0.694324
-0.706081
-0.706882
-0.694717
-0.766168
-0.73075
-0.870966
-0.813059
-1.01446
-0.938848
-1.1731
-1.09419
-1.30539
-1.24537
-1.37034
-1.34821
-1.35039
-1.37121
-1.25501
-1.31028
-1.11907
-1.18948
-0.983078
-1.04885
-0.877467
-0.92519
-0.817845
-0.841587
-0.809024
-1.18861
-0.985956
-1.09485
-1.3236
-1.26549
-1.37428
-1.35998
-1.33845
-1.36683
-1.22111
-1.2894
-1.03643
-1.13587
-0.811527
-0.926381
-0.694979
-0.515783
-0.409583
-0.45739
-0.664812
-0.585402
-0.856507
-0.755111
-1.08993
-0.968716
-1.34435
-1.21694
-1.57132
-1.46509
-1.71179
-1.65549
-1.72603
-1.73562
-1.61159
-1.68307
-1.40708
-1.51736
-1.16731
-1.28806
-0.941356
-1.05038
-0.756243
-0.842938
-0.618397
-0.681588
-0.523209
-0.56592
-0.463881
-0.489472
-0.434609
-0.445786
-0.431463
-0.42996
-0.451691
-0.43886
-0.490925
-0.469392
-0.539384
-0.514861
-0.58208
-0.562454
-0.60447
-0.596466
-0.598247
-0.605146
-0.566159
-0.584678
-0.52393
-0.544847
-0.495159
-0.506752
-0.493418
-0.490473
-0.524197
-0.505521
-1.08416
-0.683389
-0.819097
-0.728808
-0.594452
-0.553317
-1.94029
-1.7745
-2.41376
-2.21807
-0.866798
-0.372773
-1.39296
-2.21011
-1.89146
-1.97456
-1.61156
-1.38319
-1.19795
-1.04823
-0.923988
-0.640897
-0.489231
-0.455643
-0.466781
-0.51397
-0.649621
-0.608798
-0.797467
-1.02103
-0.868837
-0.789254
-2.33994
-0.601058
-0.538681
-0.767807
-0.678119
-0.995386
-0.873975
-1.29643
-1.13756
-1.59643
-1.45382
-1.81009
-1.71745
-1.88459
-1.86693
-1.80435
-1.86327
-1.59221
-1.7115
-1.31379
-1.45623
-1.0447
-1.17416
-0.833508
-0.930409
-0.691027
-0.754169
-0.606765
-0.642439
-0.569813
-0.582871
-0.574179
-0.567053
-0.617362
-0.591028
-0.697462
-0.652993
-0.808718
-0.749937
-0.933223
-0.871087
-1.03867
-0.990581
-1.0921
-1.07344
-1.07855
-1.09388
-1.00532
-1.04793
-0.900153
-0.954622
-0.795592
-0.845974
-0.716588
-0.751808
-0.676711
-0.69123
-0.683298
-0.673828
-0.741265
-0.70484
-1.03549
-0.793238
-0.917826
-1.23188
-1.14148
-1.35437
-1.30348
-1.39023
-1.38357
-1.33855
-1.37472
-1.20969
-1.28289
-1.01936
-1.12109
-0.79028
-0.907602
-0.556547
-0.671862
-0.345445
-0.447611
-0.313803
-0.253312
-0.279942
-0.409854
-0.357201
-0.538557
-0.46988
-0.702605
-0.616156
-0.899253
-0.797424
-1.11212
-1.00557
-1.30217
-1.21314
-1.42056
-1.3729
-1.43442
-1.44136
-1.34101
-1.39974
-1.1715
-1.26302
-0.970916
-1.07225
-0.7795
-0.872174
-0.619995
-0.695081
-0.498556
-0.554602
-0.41211
-0.451313
-0.355099
-0.380273
-0.322551
-0.336028
-0.310934
-0.314295
-0.317904
-0.312246
-0.34046
-0.327546
-0.372075
-0.355708
-0.402659
-0.388188
-0.421652
-0.414156
-0.421217
-0.424116
-0.401539
-0.413339
-0.37444
-0.387675
-0.359433
-0.364423
-0.367138
-0.360234
-0.400052
-0.380525
-0.428802
-1.77371
-1.6285
-0.716124
-0.571148
-2.1847
-2.02519
-1.29298
-2.00218
-1.75192
-0.614553
-0.664958
-0.33004
-0.235104
-1.80266
-1.52087
-1.3362
-1.18533
-1.06292
-0.95909
-0.429645
-0.273014
-0.259535
-0.416936
-0.58634
-0.764611
-0.972057
-0.938805
-0.870949
-0.642436
-0.801822
-2.12976
-0.327477
-0.293067
-0.433176
-0.37557
-0.58496
-0.502467
-0.794898
-0.683149
-1.04838
-0.917641
-1.30674
-1.18133
-1.491
-1.41267
-1.55779
-1.53927
-1.50182
-1.5455
-1.33243
-1.42889
-1.09996
-1.21992
-0.869998
-0.981017
-0.687345
-0.77145
-0.562108
-0.617917
-0.48593
-0.518577
-0.449489
-0.463173
-0.447521
-0.444403
-0.477377
-0.458614
-0.536683
-0.503548
-0.620551
-0.57611
-0.715617
-0.668006
-0.797351
-0.759898
-0.839947
-0.824769
-0.831105
-0.842113
-0.776145
-0.808263
-0.696668
-0.737804
-0.61848
-0.655944
-0.561794
-0.586573
-0.538238
-0.545551
-0.55372
-0.541254
-0.577588
-1.10345
-0.859364
-0.98692
-1.29411
-1.20658
-1.40643
-1.36107
-1.4285
-1.42915
-1.36025
-1.40492
-1.21633
-1.29645
-1.01702
-1.1224
-0.784128
-0.903172
-0.545155
-0.663095
-0.433531
-0.225785
-0.169638
-0.194123
-0.310497
-0.264813
-0.421384
-0.362396
-0.560354
-0.487456
-0.723891
-0.639533
-0.899118
-0.81151
-1.05553
-0.982182
-1.15369
-1.11402
-1.16644
-1.17143
-1.09166
-1.13895
-0.953211
-1.02815
-0.787705
-0.871586
-0.627508
-0.705386
-0.491605
-0.555913
-0.385754
-0.434946
-0.30815
-0.343688
-0.254386
-0.278581
-0.220199
-0.23507
-0.202573
-0.209452
-0.199762
-0.199409
-0.209968
-0.203427
-0.229154
-0.218806
-0.250641
-0.240097
-0.266492
-0.259749
-0.269442
-0.269861
-0.258162
-0.265279
-0.242258
-0.249743
-0.237433
-0.237732
-0.25101
-0.241825
-0.284684
-0.265101
-0.345357
-0.31127
-0.434652
-0.386409
-0.730726
-0.566466
-0.493877
-1.63768
-1.50938
-1.99122
-1.8634
-0.728491
-0.150934
-1.2162
-1.83328
-1.6427
-1.66992
-1.45912
-1.31366
-1.19433
-1.09687
-1.01212
-0.24628
-0.0902653
-0.0775224
-0.414518
-0.484257
-0.651781
-0.239069
-0.408758
-0.572894
-0.746727
-0.936881
-1.0305
-0.972287
-0.908861
-0.835862
-1.9485
-0.124395
-0.105572
-0.181432
-0.147617
-0.286083
-0.228935
-0.428859
-0.352353
-0.610396
-0.515578
-0.819513
-0.711687
-1.03553
-0.930678
-1.19298
-1.12446
-1.25857
-1.23855
-1.21937
-1.25179
-1.0871
-1.16343
-0.895688
-0.995387
-0.702178
-0.795851
-0.546804
-0.618613
-0.438377
-0.486985
-0.370524
-0.39994
-0.335496
-0.349278
-0.328728
-0.328761
-0.347776
-0.335175
-0.390072
-0.366221
-0.451379
-0.418776
-0.521816
-0.486418
-0.583242
-0.554981
-0.615898
-0.604107
-0.610309
-0.618057
-0.569871
-0.593593
-0.511189
-0.541512
-0.454518
-0.481449
-0.416157
-0.432349
-0.406023
-0.407251
-0.42944
-0.413197
-0.491048
-0.455539
-0.600723
-0.539115
-0.941078
-0.6721
-0.805753
-1.18853
-1.07112
-1.37528
-1.29121
-1.47931
-1.43863
-1.48846
-1.49609
-1.40351
-1.45694
-1.24172
-1.33056
-1.02906
-1.14025
-0.789879
-0.911349
-0.545973
-0.666976
-0.322479
-0.429715
-0.139321
-0.225594
-0.093759
-0.063348
-0.0762169
-0.145463
-0.116768
-0.219364
-0.179962
-0.314518
-0.264102
-0.431396
-0.370443
-0.565898
-0.496859
-0.708013
-0.637097
-0.834631
-0.775206
-0.914678
-0.882193
-0.926043
-0.929563
-0.866846
-0.904431
-0.755398
-0.815929
-0.620426
-0.689057
-0.487771
-0.552555
-0.373023
-0.427623
-0.281517
-0.324344
-0.212379
-0.244346
-0.162268
-0.185183
-0.127646
-0.14321
-0.106055
-0.115323
-0.0963686
-0.0997646
-0.0977888
-0.0957846
-0.108105
-0.10206
-0.122879
-0.115303
-0.135881
-0.129977
-0.140468
-0.139574
-0.134588
-0.138539
-0.126865
-0.13009
-0.129434
-0.126404
-0.146244
-0.136059
-0.178821
-0.160264
-0.231765
-0.202572
-0.306811
-0.266302
-0.356089
-1.53171
-1.41411
-0.751237
-0.56275
-1.83439
-1.73617
-1.16452
-1.70661
-1.56503
-0.474731
-0.539132
-0.134608
-0.0570847
-1.57401
-1.42565
-1.31508
-1.22517
-1.15098
-1.08703
-0.0694612
0.0830608
0.0896673
-0.065637
-0.235656
-0.404136
-0.57016
-0.739924
-0.923892
-1.14656
-1.09775
-1.03784
-0.962262
-0.648929
-0.866462
-1.80376
0.049307
0.0688338
0.000589543
0.0262471
-0.0630887
-0.027077
-0.162278
-0.108879
-0.28739
-0.221893
-0.437343
-0.359145
-0.612367
-0.522058
-0.790411
-0.704018
-0.926296
-0.866028
-0.986115
-0.966914
-0.963449
-0.984642
-0.862414
-0.922346
-0.705541
-0.787857
-0.544413
-0.622559
-0.413978
-0.474436
-0.321552
-0.363222
-0.262071
-0.288145
-0.229199
-0.242621
-0.219083
-0.221448
-0.22965
-0.221917
-0.25838
-0.241949
-0.301535
-0.278478
-0.351939
-0.326514
-0.396471
-0.375925
-0.419974
-0.411611
-0.416801
-0.422157
-0.387517
-0.404739
-0.345196
-0.366994
-0.305614
-0.32417
-0.281824
-0.291162
-0.282197
-0.27864
-0.311831
-0.293035
-0.373247
-0.3389
-0.419015
-1.03646
-0.752009
-0.896181
-1.28952
-1.16934
-1.47436
-1.39154
-1.57186
-1.53527
-1.5685
-1.583
-1.4669
-1.5291
-1.28578
-1.38445
-1.05536
-1.17484
-0.804808
-0.931022
-0.554717
-0.67871
-0.324157
-0.435202
-0.223825
-0.0265469
0.00203344
-0.00984935
-0.0731243
-0.0474286
-0.136881
-0.102784
-0.218497
-0.175476
-0.316379
-0.265652
-0.426105
-0.370125
-0.539865
-0.483268
-0.640733
-0.593373
-0.704874
-0.678749
-0.71469
-0.717086
-0.668187
-0.697834
-0.579475
-0.627806
-0.470486
-0.526112
-0.361557
-0.415007
-0.26541
-0.311429
-0.186839
-0.223878
-0.125586
-0.154185
-0.0791942
-0.100718
-0.0448908
-0.0606789
-0.0208601
-0.0316542
-0.00659705
-0.0125062
-0.00207137
-0.00314512
-0.0062907
-0.00322199
-0.0162233
-0.0108372
-0.0266269
-0.0216552
-0.0314263
-0.0300512
-0.0290352
-0.0308144
-0.0273055
-0.0274073
-0.0347054
-0.0296385
-0.0529857
-0.0424871
-0.0833567
-0.0664561
-0.128809
-0.104091
-0.191274
-0.157663
-0.276647
-0.230853
-0.389919
-0.330689
-0.748224
-0.529113
-0.456133
-1.45291
-1.34631
-1.71666
-1.64464
-0.611211
0.0109002
-1.12688
-1.61638
-1.51853
-1.50936
-1.41891
-1.34085
-1.27924
-1.22933
-1.18684
0.09584
0.232592
0.240416
-0.340554
-0.396837
-0.608085
0.0976261
-0.0654664
-0.236306
-0.406185
-0.573866
-0.745436
-0.925289
-1.29087
-1.25194
-1.19416
-1.11089
-0.999469
-0.854976
-1.69655
0.206214
0.222275
0.162472
0.187167
0.104185
0.133966
0.0373288
0.0731053
-0.0501159
-0.00397192
-0.155881
-0.100729
-0.282854
-0.216374
-0.429793
-0.354734
-0.575794
-0.504706
-0.690109
-0.638968
-0.747191
-0.72647
-0.738329
-0.751514
-0.658918
-0.706948
-0.53103
-0.598303
-0.398889
-0.46304
-0.291196
-0.341268
-0.213514
-0.248773
-0.16197
-0.184814
-0.131669
-0.14442
-0.119386
-0.123406
-0.123401
-0.119461
-0.141572
-0.130911
-0.170528
-0.154959
-0.205076
-0.187567
-0.236035
-0.221722
-0.250817
-0.246399
-0.249962
-0.253697
-0.228906
-0.241261
-0.199075
-0.214335
-0.172647
-0.184737
-0.159993
-0.1641
-0.168097
-0.161118
-0.201389
-0.18139
-0.262431
-0.228473
-0.354298
-0.304099
-0.478362
-0.412302
-0.842313
-0.551075
-0.693522
-1.14037
-0.993062
-1.40094
-1.2787
-1.58845
-1.50481
-1.68144
-1.64817
-1.66598
-1.68732
-1.54737
-1.61853
-1.34643
-1.45531
-1.09544
-1.22502
-0.828379
-0.962016
-0.569507
-0.696969
-0.333527
-0.447694
-0.135538
-0.228532
0.0150498
-0.0547516
0.0600548
0.0744382
0.0687915
0.0327477
0.0481302
-0.00822267
0.0139778
-0.0635026
-0.0340592
-0.133322
-0.0967101
-0.215153
-0.173027
-0.304274
-0.259142
-0.394393
-0.349765
-0.473525
-0.436389
-0.523949
-0.503372
-0.532071
-0.533682
-0.495729
-0.519005
-0.42562
-0.46392
-0.33823
-0.382997
-0.249308
-0.293159
-0.169167
-0.207764
-0.101984
-0.133886
-0.0479036
-0.0733999
-0.00516654
-0.0252563
0.0282717
0.01261
0.0535824
0.0419191
0.0706865
0.0631973
0.0790177
0.0759645
0.0788228
0.0799031
0.0723425
0.0761215
0.0643747
0.0681656
0.060267
0.0616279
0.0602918
0.0600889
0.0576873
0.0597971
0.0473227
0.0535253
0.029043
0.0391854
0.00163715
0.0166167
-0.0366412
-0.0160649
-0.0878055
-0.0604182
-0.154434
-0.119094
-0.23779
-0.194136
-0.287391
-1.40328
-1.29992
-0.688289
-0.452065
-1.63543
-1.5864
-1.11261
-1.5603
-1.50167
-0.35399
-0.415844
0.0158513
0.0770307
-1.47319
-1.43848
-1.39271
-1.35982
-1.33581
-1.31525
0.246479
0.364919
0.3714
0.248669
0.0980394
-0.0676306
-0.241969
-0.416409
-0.587353
-0.763456
-0.942581
-1.46982
-1.44027
-1.37989
-1.28339
-1.14414
-0.965829
-0.501789
-0.759977
-1.62576
0.342499
0.356396
0.302479
0.323739
0.254549
0.28037
0.194532
0.22503
0.129618
0.16319
0.0526631
0.0928817
-0.039653
0.00858716
-0.149272
-0.0923328
-0.270803
-0.209359
-0.390203
-0.331795
-0.487429
-0.443062
-0.54171
-0.520931
-0.539662
-0.548241
-0.477639
-0.515699
-0.374416
-0.428859
-0.267271
-0.319319
-0.179359
-0.220366
-0.114832
-0.144305
-0.0707393
-0.0904878
-0.0432961
-0.0551437
-0.0298471
-0.0349325
-0.028992
-0.0279224
-0.0390946
-0.0328326
-0.0572754
-0.0473924
-0.0796006
-0.0682269
-0.100188
-0.0905674
-0.113281
-0.107697
-0.108278
-0.111903
-0.0929051
-0.101764
-0.072321
-0.0827095
-0.0556889
-0.0629578
-0.0511879
-0.0515051
-0.0645871
-0.0553809
-0.0996815
-0.0792816
-0.15883
-0.126235
-0.24286
-0.197605
-0.295212
-0.938444
-0.624881
-0.780901
-1.2492
-1.09531
-1.5187
-1.39203
-1.71259
-1.62662
-1.80324
-1.7723
-1.77666
-1.80452
-1.64078
-1.72113
-1.41971
-1.53889
-1.14753
-1.28772
-0.860836
-1.00384
-0.589005
-0.72181
-0.346515
-0.463693
-0.141293
-0.238255
-0.0566699
0.109838
0.12463
0.118508
0.0848108
0.0984165
0.0488676
0.0682314
0.000976387
0.0263904
-0.0586199
-0.0274878
-0.127051
-0.092029
-0.199403
-0.163062
-0.270315
-0.23543
-0.331532
-0.302862
-0.370378
-0.354543
-0.376599
-0.377827
-0.348259
-0.366454
-0.293054
-0.323296
-0.223185
-0.259097
-0.150847
-0.186716
-0.0841708
-0.116487
-0.0267573
-0.0542246
0.0209892
-0.00173532
0.0602521
0.0415828
0.0924094
0.0771548
0.118053
0.106053
0.136648
0.128295
0.14721
0.142976
0.149584
0.149359
0.145692
0.148197
0.140047
0.142629
0.13691
0.138084
0.135183
0.136184
0.12958
0.133143
0.117811
0.124418
0.100352
0.109825
0.0761669
0.0891816
0.044252
0.0612234
0.00331027
0.0250233
-0.0478271
-0.0209848
-0.108424
-0.0770003
-0.178371
-0.142459
-0.254411
-0.217437
-0.544465
-0.315211
-0.288106
-1.3784
-1.2754
-1.58773
-1.55927
-0.480046
0.127968
-1.11593
-1.53422
-1.51343
-1.46445
-1.48589
-1.4735
-1.47093
-1.47495
-1.47765
0.372713
0.469308
0.470204
0.369043
0.24896
0.0984396
-0.072685
-0.253045
-0.434751
-0.614576
-0.796602
-0.976991
-1.68924
-1.66482
-1.5948
-1.47188
-1.29245
-1.06768
-0.815873
-0.124922
-0.325408
-0.126324
-1.58842
0.45779
0.466409
0.427432
0.444261
0.382344
0.406037
0.332884
0.358719
0.274839
0.304542
0.21231
0.244206
0.141928
0.178415
0.0597386
0.102416
-0.0339652
0.0140911
-0.134152
-0.0836575
-0.233253
-0.184526
-0.316343
-0.278028
-0.365859
-0.346146
-0.368727
-0.373833
-0.318703
-0.349872
-0.234745
-0.278794
-0.149039
-0.190585
-0.0785843
-0.11155
-0.0258766
-0.050125
0.0113513
-0.00551041
0.0358318
0.0250274
0.0496619
0.0439837
0.0539722
0.0529541
0.0499202
0.0528724
0.0397496
0.0454253
0.0265523
0.0333034
0.0141881
0.0199979
0.00710787
0.0097123
0.0110266
0.0080275
0.0222685
0.0159311
0.0361552
0.0293011
0.0457172
0.0419127
0.0444954
0.0467902
0.0277256
0.0382671
-0.00782991
0.0124247
-0.0643074
-0.0333535
-0.141345
-0.10051
-0.23957
-0.188305
-0.350571
-0.29344
-0.700306
-0.406013
-0.546324
-1.03128
-0.864213
-1.35587
-1.19672
-1.63734
-1.50441
-1.8399
-1.75066
-1.93012
-1.90054
-1.89406
-1.92772
-1.74164
-1.83095
-1.50057
-1.62996
-1.20777
-1.35822
-0.901164
-1.05397
-0.612918
-0.753154
-0.361434
-0.482207
-0.15047
-0.250674
0.0130483
-0.0624691
0.129834
0.076326
0.166602
0.17355
0.170798
0.152146
0.160363
0.12987
0.142066
0.0983689
0.115282
0.0570459
0.0789434
0.00629318
0.0327313
-0.0510237
-0.0218335
-0.109976
-0.08062
-0.165672
-0.138523
-0.212471
-0.190655
-0.241743
-0.229884
-0.245957
-0.247094
-0.223826
-0.238037
-0.180204
-0.204135
-0.124352
-0.153178
-0.0654711
-0.0948299
-0.00990115
-0.0370068
0.0393066
0.0155755
0.0815894
0.06128
0.117652
0.100338
0.14827
0.133615
0.173506
0.161593
0.192516
0.183865
0.204136
0.199301
0.208113
0.207019
0.206355
0.207731
0.202876
0.204518
0.200511
0.201572
0.19731
0.199277
0.189791
0.194184
0.177772
0.184271
0.161696
0.170283
0.140812
0.151892
0.11461
0.128408
0.0824569
0.0993142
0.04411
0.064028
0.000529984
0.0228712
-0.0456946
-0.0224748
-0.0903986
-0.0688773
-0.110707
-1.38023
-1.27352
-0.560681
-1.5715
-1.56202
-1.13964
-1.53785
-1.55495
-0.231872
-0.278169
0.129177
0.174431
-1.48314
-1.56397
-1.58717
-1.61814
-1.65315
-1.68069
0.465938
0.540958
0.53393
-0.304954
-0.110942
0.461961
0.370317
0.246438
0.0971193
-0.0785461
-0.267364
-0.461199
-0.652853
-0.845219
-1.03016
-1.95182
-1.9229
-1.82818
-1.66042
-1.4252
-1.14307
-0.839804
-1.58185
0.542808
0.543354
0.525959
0.537014
0.492738
0.51077
0.448868
0.472067
0.398912
0.424563
0.343019
0.371644
0.28287
0.31339
0.2177
0.251124
0.144829
0.182272
0.0651796
0.105666
-0.0186414
0.0236625
-0.102007
-0.0610079
-0.173001
-0.139919
-0.217538
-0.199435
-0.220765
-0.225122
-0.178819
-0.204588
-0.112227
-0.146849
-0.0453259
-0.0777748
0.0103488
-0.0158463
0.05307
0.0332569
0.0843023
0.0699997
0.105921
0.0961968
0.119563
0.113656
0.126183
0.123715
0.126524
0.127057
0.122246
0.124823
0.115661
0.11908
0.109499
0.112348
0.106654
0.107461
0.110342
0.107766
0.118656
0.114105
0.127791
0.123442
0.132395
0.131002
0.127335
0.131345
0.108672
0.119884
0.073694
0.0933372
0.0206966
0.0494972
-0.050348
-0.012737
-0.137095
-0.0927612
-0.183958
-0.771315
-0.456522
-0.609399
-1.11615
-0.941444
-1.4538
-1.28797
-1.74969
-1.60957
-1.96191
-1.86891
-2.05322
-2.02415
-2.00971
-2.04813
-1.84268
-1.94003
-1.58295
-1.72196
-1.27078
-1.43083
-0.94587
-1.10767
-0.640877
-0.789173
-0.377803
-0.503411
-0.161512
-0.264011
0.00740162
-0.0705268
0.0741521
0.201788
0.209422
0.20637
0.188265
0.195639
0.168395
0.179225
0.140895
0.155616
0.105367
0.124134
0.0622471
0.0846457
0.0141475
0.0385508
-0.0342195
-0.0103261
-0.0781544
-0.0569837
-0.113634
-0.0972363
-0.135128
-0.126551
-0.137425
-0.138515
-0.119934
-0.131138
-0.0851349
-0.104249
-0.0402924
-0.0635464
0.00789711
-0.0162389
0.0544716
0.0315963
0.0968952
0.0762702
0.134531
0.116302
0.167667
0.151633
0.196576
0.182653
0.220877
0.209356
0.239509
0.23098
0.251345
0.246318
0.256312
0.254614
0.256384
0.256756
0.254769
0.255596
0.252774
0.253904
0.248301
0.251011
0.239881
0.244549
0.228364
0.234464
0.213925
0.22154
0.196206
0.205479
0.175093
0.18609
0.15041
0.163187
0.122558
0.136835
0.0924063
0.107684
0.0621672
0.0770731
0.0373207
0.0485311
0.0285249
0.0298902
0.0484002
0.0344366
0.0931998
-0.0775213
0.0683033
-1.40832
-1.29443
-0.537978
-1.58566
-1.59525
-0.320539
0.211079
-1.18434
-0.25676
-1.57196
-1.62833
-0.0279456
-1.53163
-1.67681
-1.73956
-1.80853
-1.87736
-1.93049
0.519735
0.452557
0.367448
0.245214
0.0946293
-0.0850973
-0.284889
-0.492487
-0.700493
-0.90815
-1.10254
-2.25313
-2.20091
-2.05706
-1.8216
-1.5143
-1.16768
-0.815048
-1.60642
0.567324
0.499148
0.521954
0.546281
0.590477
0.582018
0.592654
0.594108
0.576148
0.586825
0.544146
0.561581
0.50218
0.524332
0.453283
0.478345
0.399789
0.427063
0.34285
0.371665
0.282681
0.31326
0.218191
0.250975
0.149833
0.18446
0.0781505
0.114315
0.0071027
0.0420502
-0.0539342
-0.0253735
-0.0917213
-0.0766155
-0.0928392
-0.0973431
-0.058088
-0.0789996
-0.00600374
-0.0328787
0.0455633
0.0205536
0.0888732
0.0684001
0.122896
0.106993
0.148665
0.136729
0.16745
0.15885
0.180456
0.174608
0.188473
0.185063
0.191915
0.190727
0.191841
0.192209
0.190002
0.191033
0.188192
0.188986
0.188415
0.18795
0.192168
0.189881
0.198426
0.195127
0.204236
0.201635
0.205452
0.205692
0.197969
0.203028
0.178533
0.189909
0.144884
0.163593
0.0956769
0.122255
0.030948
0.0651136
-0.045824
-0.00641266
-0.126539
-0.0866185
-0.202517
-0.165618
-0.501834