/*--------------------------------*- C++ -*----------------------------------*\
  =========                 |
  \\      /  F ield         | OpenFOAM: The Open Source CFD Toolbox
   \\    /   O peration     | Website:  https://openfoam.org
    \\  /    A nd           | Version:  10
     \\/     M anipulation  |
\*---------------------------------------------------------------------------*/
FoamFile
{
    format      ascii;
    class       volScalarField;
    location    "39.5";
    object      p;
}
// * * * * * * * * * * * * * * * * * * * * * * * * * * * * * * * * * * * * * //

dimensions      [0 2 -2 0 0 0 0];

internalField   nonuniform List<scalar> 
8711
(
0.0228285
0.0211441
0.0248173
0.0413635
0.041456
0.0370367
0.0931823
0.0925616
0.707685
0.707267
0.482812
0.191748
-0.169223
-0.147945
-0.00757912
-0.0179482
0.00786508
0.00259085
-0.00345343
0.0398346
0.0393517
0.0331566
0.0334078
0.0241972
-0.242257
-0.183985
-0.301955
-0.346038
0.00149899
0.00207284
0.00350966
-0.531129
-0.528306
-0.328166
-0.357665
0.221616
0.212825
0.218522
0.224649
0.217076
0.261985
0.235508
-0.499403
-0.430066
0.357219
0.218755
-0.516955
-0.504454
-0.486327
0.0494068
0.0482824
0.0483625
0.0488206
0.0699357
0.0736367
0.0775701
-0.13501
-0.133098
-0.150071
-0.160242
-0.0668226
-0.0773872
-0.101303
-0.0894769
0.108165
0.10409
0.0950663
0.0285372
0.0289386
0.0318279
-0.144232
-0.151535
-0.16364
-0.150272
0.112017
0.112829
0.105595
0.104689
0.0298575
0.0312853
0.0289639
-0.0105111
-0.00240633
0.0278551
0.0272445
0.0268413
-0.226479
-0.216511
-0.105528
-0.115514
0.0825753
0.0794887
0.0831225
0.0189021
0.0314253
0.0987865
0.112687
0.116061
0.103552
0.0784914
0.0832107
0.361972
0.352768
-0.129507
-0.108006
-0.0892388
-0.0762496
-0.068601
-0.0655998
-0.0666091
-0.071282
-0.0805476
-0.0948064
-0.113832
-0.133763
-0.150867
-0.163449
-0.167838
-0.185515
-0.163233
-0.179269
-0.166348
-0.180537
-0.123255
-0.146133
-0.0850221
-0.101932
-0.0669228
-0.0735046
-0.0651132
-0.0640874
-0.0803124
-0.0701834
-0.114047
-0.0954469
-0.132331
-0.114505
-0.139648
-0.0785137
-0.0937351
-0.0641229
-0.0688462
-0.0661951
-0.0632969
-0.0846773
-0.0732828
-0.118286
-0.101298
-0.143199
-0.132879
-0.142437
-0.146847
-0.131049
-0.184221
-0.132792
-0.173212
-0.117609
-0.168589
-0.198487
-0.197634
-0.19062
-0.176802
-0.192269
-0.128689
-0.153696
-0.0863554
-0.105315
-0.0640673
-0.0728925
-0.0582817
-0.059645
-0.0682166
-0.06141
-0.0937769
-0.0796604
-0.124241
-0.110122
-0.114137
-0.104043
-0.176225
-0.206574
-0.115382
-0.143579
-0.0767244
-0.093416
-0.0598479
-0.0658567
-0.0585422
-0.0574834
-0.0724268
-0.0637752
-0.0992888
-0.0852349
-0.120494
-0.112903
-0.119883
-0.124016
-0.100386
-0.110989
-0.130117
-0.122558
-0.199876
-0.0902242
-0.130497
-0.16756
-0.0951831
-0.0936713
-0.113548
-0.100495
-0.131059
-0.218983
-0.231077
-0.176776
-0.153903
-0.206061
-0.19567
-0.180663
-0.19787
-0.128527
-0.155603
-0.083312
-0.103781
-0.058309
-0.0688195
-0.0491124
-0.0521626
-0.0538712
-0.0499864
-0.071818
-0.0622027
-0.0909077
-0.083797
-0.0908278
-0.0815582
-0.0737976
-0.22907
-0.216622
-0.221055
-0.235224
-0.174729
-0.206542
-0.11164
-0.141835
-0.0712558
-0.088619
-0.0525186
-0.0598294
-0.0491549
-0.0495691
-0.058892
-0.052333
-0.078883
-0.0686983
-0.0968318
-0.0897369
-0.0965076
-0.0999817
-0.0897172
-0.0988537
-0.102413
-0.0809126
-0.0919177
-0.198631
-0.122823
-0.0917187
-0.0845114
-0.0653874
-0.121562
-0.0673859
-0.204328
-0.156214
-0.216498
-0.191007
-0.185725
-0.187703
-0.108132
-0.0492306
-0.0700279
-0.0398041
-0.0225075
-0.02294
-0.173532
-0.149576
-0.196983
-0.19124
-0.176355
-0.193324
-0.123034
-0.150849
-0.076494
-0.0975467
-0.0494351
-0.0609224
-0.0376987
-0.0422855
-0.0381879
-0.0364774
-0.0502838
-0.0432357
-0.0623362
-0.0577296
-0.0628048
-0.0646893
-0.0428863
-0.0558942
-0.0297218
-0.22222
-0.22862
-0.166438
-0.199365
-0.1021
-0.132033
-0.0621311
-0.079654
-0.0431942
-0.0507166
-0.0383666
-0.039715
-0.0443031
-0.0399504
-0.0596419
-0.0514754
-0.0739072
-0.0677987
-0.0741936
-0.0759647
-0.0621763
-0.0685539
-0.0524852
-0.056601
-0.0858326
-0.0784262
-0.0866941
-0.088109
-0.0731787
-0.0816489
-0.0498418
-0.0623342
-0.184733
-0.152232
-0.145231
-0.03739
-0.0367339
-0.177304
-0.134477
-0.00691227
-0.00581781
-0.152953
-0.0899889
-0.0571526
-0.0349485
-0.110545
-0.0894298
-0.162302
-0.137086
-0.195561
-0.181882
-0.164194
-0.182933
-0.111686
-0.138882
-0.0657775
-0.0867438
-0.0382286
-0.050013
-0.0245147
-0.0301136
-0.0214632
-0.0216784
-0.0284952
-0.0240884
-0.0370276
-0.0334741
-0.0337443
-0.037387
-0.0189769
-0.026798
-0.0118217
-0.131198
-0.0740842
-0.0576286
-0.0895172
-0.201825
-0.171846
-0.206125
-0.214966
-0.148912
-0.182386
-0.0882153
-0.116396
-0.0508607
-0.0669597
-0.0327144
-0.0400481
-0.0267286
-0.0286718
-0.0298131
-0.0271991
-0.0413013
-0.0349222
-0.0519786
-0.0474681
-0.052901
-0.0533006
-0.0439119
-0.0489046
-0.0396289
-0.0575035
-0.0736628
-0.0671898
-0.0768197
-0.0770875
-0.0673261
-0.0734835
-0.0486465
-0.0589726
-0.0369378
-0.158546
-0.0526379
-0.0449669
-0.0307435
-0.0607565
-0.144642
-0.110145
-0.119287
-0.0744216
-0.0268937
-0.0856424
-0.0473061
-0.0547468
-0.0318933
-0.0397446
-0.0253403
-0.0957828
-0.0753
-0.143272
-0.120651
-0.167302
-0.160974
-0.144544
-0.161108
-0.095374
-0.120853
-0.0520795
-0.0719579
-0.0251929
-0.0368708
-0.0104476
-0.0167198
-0.00486159
-0.00654133
-0.00792369
-0.00560957
-0.0131861
-0.0109796
-0.00884594
-0.0129176
0.00169305
-0.00433154
0.00679473
0.00523021
0.00193554
0.00456914
-0.0358746
-0.0123621
-0.11057
-0.0685528
-0.178851
-0.149914
-0.180473
-0.189806
-0.124699
-0.157808
-0.071013
-0.0956759
-0.0380143
-0.052271
-0.0214249
-0.0282235
-0.0150967
-0.0173688
-0.0161269
-0.0147579
-0.0241292
-0.0195411
-0.0324805
-0.0288032
-0.0327421
-0.034038
-0.0272781
-0.0310517
-0.0228158
-0.0243063
-0.023279
-0.0134916
-0.00169933
-0.0481354
-0.0271065
-0.0361612
-0.0643303
-0.0574457
-0.0695743
-0.0684036
-0.0638815
-0.0679783
-0.0488213
-0.0574891
-0.038191
-0.129511
-0.11535
-0.0907236
-0.0296766
-0.0127113
-0.0179575
-0.0923729
-0.0613832
-0.0643701
-0.0444053
-0.0361195
-0.0306089
0.00639091
-0.00795915
-0.0213991
-0.0191495
-0.0190128
-0.0254211
-0.0446886
-0.031676
-0.0789703
-0.0604717
-0.120201
-0.10061
-0.137327
-0.135325
-0.119655
-0.133869
-0.0757567
-0.0985448
-0.0366634
-0.054702
-0.0114523
-0.0225832
0.00356146
-0.00301353
0.0107191
0.00808308
0.0104495
0.011274
0.00788647
0.00886533
0.0113797
0.00861338
0.0181612
0.0148487
0.0190665
0.0198559
0.0131644
0.0163331
0.00366549
0.00940866
-0.0191244
-0.0189619
-0.00539958
-0.0146435
0.0276464
0.00808185
-0.0858939
-0.0473961
-0.149584
-0.122487
-0.146098
-0.158222
-0.0970974
-0.123701
-0.0521713
-0.0726657
-0.0245301
-0.0365383
-0.0101194
-0.0161181
-0.00397637
-0.00632957
-0.00360181
-0.00314261
-0.0087727
-0.00564866
-0.0149615
-0.0121997
-0.0156453
-0.016051
-0.0117909
-0.0139947
-0.00986841
-0.0105991
-0.0100136
-0.0400568
-0.028563
-0.0571451
-0.0497864
-0.0648951
-0.0622527
-0.0629794
-0.0651368
-0.050841
-0.0581189
-0.041331
-0.105028
-0.0099795
-0.00211516
-0.00606636
-0.0912966
-0.0749463
-0.0722737
-0.0557644
-0.0463614
-0.0452132
-0.0175138
0.0437117
0.0214172
-0.0359921
-0.0330715
-0.0333454
-0.0394925
-0.00132392
-0.0108243
-0.0402144
-0.0306449
-0.019559
-0.0597531
-0.0436351
-0.09556
-0.0780387
-0.109661
-0.107148
-0.0922051
-0.10506
-0.0542133
-0.0738318
-0.0204404
-0.0361089
0.00223345
-0.00794017
0.0167922
0.0102751
0.024703
0.0215566
0.0261602
0.0260297
0.0254847
0.0256046
0.0282017
0.0264052
0.031292
0.0301323
0.0297874
0.0309984
0.0232696
0.0264906
0.0142232
0.0193659
0.0072571
0.0497265
0.0554982
0.0767123
0.0652884
0.00676253
0.0302091
-0.0573461
-0.0239247
-0.113425
-0.0905794
-0.10908
-0.120274
-0.0682758
-0.0893489
-0.0330913
-0.0491558
-0.0111589
-0.0207575
0.000774202
-0.00426703
0.00628907
0.00408746
0.00754123
0.00737956
0.0045751
0.0065208
0.000142708
0.0022027
-0.000804514
-0.000855413
0.00125216
0.000125533
0.00203739
0.00224687
0.000596522
-0.0144218
0.00333196
-0.00514699
-0.0347568
-0.0243504
-0.0522553
-0.0442388
-0.0629285
-0.0585777
-0.0645181
-0.0649666
-0.0551893
-0.0611682
-0.0356579
-0.0467262
-0.0119875
-0.0232758
-0.0854959
-0.0741322
-0.0656391
-0.0575024
-0.0549664
-0.0210907
-0.00127406
-0.00914663
-0.0344991
-0.0028309
0.0328121
0.0866781
0.0651126
-0.0486566
-0.046103
-0.0475818
-0.051748
-0.0587485
0.0104831
-0.0220487
-0.0583479
-0.0348926
0.00788295
0.0150563
6.76537e-05
0.0057369
-0.0164712
-0.00736415
-0.040197
-0.0276929
-0.0696769
-0.0554246
-0.0812115
-0.0789011
-0.0641541
-0.0758331
-0.032223
-0.0485459
-0.00419336
-0.0172496
0.0153506
0.00645214
0.0287286
0.0226392
0.0366476
0.0333691
0.0390988
0.0383615
0.0396745
0.0392698
0.0414108
0.0404919
0.0415459
0.0419326
0.0380824
0.0401156
0.0321742
0.0352098
0.0229811
0.0279072
0.00939458
0.0167988
-0.00839648
0.00134523
0.095543
0.0940445
0.110457
0.104448
0.0702508
0.0844681
0.0280669
0.0516252
-0.0309159
-8.5885e-05
-0.075571
-0.0585365
-0.0709695
-0.0785999
-0.0407413
-0.0562962
-0.0150482
-0.0268036
0.0013918
-0.00588383
0.0108204
0.00677237
0.0155258
0.0135894
0.017187
0.0166735
0.015832
0.0168791
0.0127976
0.0143103
0.0118116
0.0119372
0.0124095
0.0123359
0.0120777
0.0126633
0.00803136
0.0103108
0.00435926
-0.0111238
-0.00121324
-0.0314792
-0.0211933
-0.0499032
-0.0410227
-0.0637451
-0.0576883
-0.068684
-0.0674996
-0.0624197
-0.0669392
-0.045272
-0.0552695
-0.0333398
-0.0723104
-0.0192254
-0.0487412
-0.0331401
-0.0630516
-0.0614976
-0.03347
-0.020118
-0.047915
-0.0245725
0.00741451
0.040244
0.0716154
0.114533
0.099643
-0.0574022
-0.0617496
-0.0675942
-0.077113
-0.0827958
-0.0753864
0.0104249
0.0186497
0.0173536
0.00221972
0.00922935
0.019491
-0.057886
0.00980173
0.0139548
-0.00248017
0.00413878
-0.0221395
-0.0117022
-0.0444593
-0.0336084
-0.0530079
-0.0514931
-0.0371784
-0.0475935
-0.0110041
-0.0241421
0.0112882
0.000866219
0.0274524
0.0199912
0.0391069
0.0337403
0.0464543
0.0433158
0.0494876
0.048342
0.050656
0.0501125
0.0510724
0.0510601
0.0491706
0.0504802
0.0448839
0.0471936
0.039235
0.0422414
0.0306985
0.035123
0.0192635
0.0249814
0.00438321
0.0124924
-0.0548504
-0.0204472
-0.00608209
0.118364
0.11538
0.118385
0.119863
0.106862
0.114266
0.0845554
0.0972164
0.0450951
0.0669281
-0.00590644
0.0202682
-0.0392482
-0.0268299
-0.035995
-0.0409298
-0.0163617
-0.0265673
0.000964717
-0.00705173
0.012652
0.00739895
0.0197996
0.0166746
0.0236341
0.0220227
0.025354
0.0246988
0.0250748
0.0254842
0.0231877
0.0242224
0.0220663
0.0224434
0.0224226
0.0219491
0.0208704
0.0218668
0.017093
0.0191857
0.0140906
-0.00834342
0.00130879
-0.0292516
-0.0184998
-0.0500652
-0.0397621
-0.0672165
-0.059451
-0.0757075
-0.0727577
-0.0728471
-0.0757281
-0.0581361
-0.0668389
-0.0466102
-0.0645034
-0.00723291
-0.057207
-0.042557
-0.0191453
0.0118049
0.0448091
0.0762542
-0.0735977
-0.0841304
-0.096111
-0.106984
0.102872
0.113805
0.112681
-0.106471
-0.0920926
-0.0319711
0.0249352
-0.0621167
-0.0670135
-0.0654111
-0.000278237
0.0245863
0.0257704
0.0186468
0.0220368
0.00964395
0.0144135
-0.00511719
0.00271376
-0.0214002
-0.0135351
-0.0270883
-0.0263758
-0.0128262
-0.0219572
0.00852828
-0.00194261
0.025534
0.0176057
0.0383329
0.0323341
0.0480152
0.0435158
0.0544595
0.0516263
0.0576647
0.0563567
0.0586998
0.0583847
0.0577706
0.058499
0.0547426
0.0564877
0.0502649
0.0526083
0.0447145
0.0476674
0.0370414
0.0411312
0.0278564
0.0323212
0.0158574
0.0223907
-0.00154257
0.00728938
-0.0412757
-0.0138132
-0.00955955
0.116635
0.106504
0.103874
0.111364
0.119539
0.119438
0.111399
0.116773
0.0922411
0.103053
0.0590931
0.0768774
0.0182497
0.0384237
-0.00623705
0.00299899
-0.00646677
-0.00838312
0.00414641
-0.00160147
0.0147869
0.00975576
0.0225397
0.0189934
0.0276397
0.0253653
0.0305971
0.0293295
0.0321423
0.0314983
0.0324777
0.0324856
0.0315015
0.0321211
0.030564
0.0309262
0.030108
0.0302498
0.0289665
0.0292734
0.0249682
0.0268636
0.0181439
0.0222217
0.00369387
0.0130193
0.013206
0.0216312
-0.0058193
0.00400814
-0.028226
-0.0165458
-0.0521994
-0.0402103
-0.0730167
-0.0633666
-0.0855404
-0.0805746
-0.0859863
-0.0874499
-0.0733557
-0.0810863
-0.0485685
-0.0620047
-0.0206811
-0.0344295
-0.00872828
-0.061884
-0.0562908
-0.0424961
-0.0185464
0.0128894
0.0467363
-0.097377
-0.115677
-0.132441
0.0800854
0.102895
0.106319
-0.140843
-0.13467
-0.113749
0.0941625
0.0967584
-0.0792658
-0.0151607
-0.0435494
-0.00334435
0.0364313
0.0350848
-0.0138079
-0.0681089
0.00375216
-0.0805321
0.0309227
0.0331332
0.0264603
0.0289578
0.0197834
0.0235148
0.00976564
0.015134
-0.00130701
0.0040061
-0.00458949
-0.00451694
0.00780363
3.82874e-06
0.0255044
0.0169496
0.0383914
0.0324949
0.0480708
0.0434794
0.055714
0.0521312
0.0610277
0.0586489
0.0638118
0.0626923
0.0641831
0.064275
0.0623182
0.0634758
0.058838
0.0607246
0.0544143
0.0567114
0.04904
0.0518715
0.0421834
0.0457965
0.0343997
0.0383003
0.0247963
0.0297979
0.0126339
0.018584
0.00487341
0.0074685
-0.0109552
0.00758792
0.00502862
0.0995308
0.0824465
0.0791329
0.0899975
0.112915
0.107087
0.116994
0.116323
0.111624
0.115604
0.0963347
0.105191
0.0705856
0.0846913
0.0398624
0.0549612
0.0205577
0.0283397
0.0166039
0.0172576
0.0205611
0.0181063
0.0261778
0.0233999
0.0308858
0.0286748
0.0342962
0.0327399
0.0364578
0.0355112
0.0377134
0.037168
0.0382958
0.0381045
0.0379677
0.0382584
0.0371115
0.037559
0.0364634
0.0367139
0.0350452
0.0357008
0.0314799
0.0330617
0.0256212
0.0286411
0.0142913
0.0208534
0.00965861
0.016177
0.0246735
-0.00397161
0.0066201
-0.0286671
-0.0157884
-0.0559142
-0.0422031
-0.0806752
-0.068953
-0.0976043
-0.090457
-0.101483
-0.101435
-0.0902092
-0.097579
-0.0653321
-0.0791189
-0.0357977
-0.0502708
-0.0227797
-0.0649176
-0.0611661
-0.0477688
-0.0224657
0.0115416
-0.13087
-0.156532
0.0489549
0.0826702
0.0995455
-0.1759
-0.180122
-0.164906
0.0968913
-0.129677
0.0843966
-0.0827424
0.0668152
0.0687201
-0.0389501
0.0125855
-0.00378392
-0.00584701
0.040606
0.0394793
-0.0230936
-0.0810197
0.0373227
0.0324016
0.0117441
-0.104
0.0365466
0.0380806
0.0332472
0.0346399
0.0284416
0.0309869
0.0221121
0.0254528
0.0154266
0.0185951
0.0141637
0.0137164
0.0244582
0.0180639
0.0392618
0.0320739
0.049488
0.0449335
0.056596
0.0532452
0.0622346
0.0595807
0.0662024
0.0644291
0.0680947
0.0674013
0.0677062
0.0681673
0.0653581
0.0667125
0.0617818
0.0636722
0.0574907
0.0597141
0.052407
0.0550554
0.0463297
0.0494811
0.0395505
0.0430133
0.0320255
0.0357577
0.0231366
0.0274894
0.0182691
0.0197246
0.0201434
0.018405
0.0188426
0.0275935
0.0234604
0.076144
0.0530668
0.0524124
0.0647507
0.0952807
0.0863104
0.10822
0.102712
0.113176
0.111803
0.110228
0.112849
0.0989004
0.105509
0.0794609
0.0900829
0.05645
0.0677925
0.0400738
0.0471531
0.0335235
0.0358629
0.0332026
0.0328877
0.0353635
0.0341667
0.0378107
0.0366116
0.039854
0.0388942
0.0413025
0.0406509
0.0422304
0.0418181
0.0428093
0.0425712
0.0428512
0.0429281
0.042273
0.0426248
0.0413951
0.0418151
0.0397883
0.0405938
0.0365258
0.0380958
0.0317726
0.0337993
0.025669
0.027422
0.0183445
0.0179735
0.0261979
-0.00350718
0.00794149
-0.0304337
-0.0163966
-0.0606347
-0.0453517
-0.0894042
-0.0755346
-0.110861
-0.101477
-0.118221
-0.116646
-0.108009
-0.115169
-0.0822522
-0.0966124
-0.0501212
-0.0659674
-0.03509
-0.0744813
0.0412633
-0.0725821
-0.0578734
-0.0287399
-0.173909
0.0106125
0.051982
0.0834295
-0.20541
-0.223083
-0.218038
0.0920621
-0.186934
0.0841675
-0.13464
0.0698236
-0.0774056
0.0534621
-0.0281652
0.0394097
0.0381555
0.00636669
0.031456
0.0257437
-0.00563189
-0.0258312
-0.102165
0.0131898
0.0174377
-0.137084
0.0429363
0.044313
0.0437298
0.0409745
0.0418315
0.0385502
0.0395676
0.0355267
0.0370555
0.0319757
0.0337995
0.0287266
0.0301844
0.0292321
0.0282751
0.037583
0.0325249
0.0497027
0.0437256
0.058209
0.0544671
0.0634639
0.061065
0.0673254
0.0655247
0.0699331
0.0687929
0.0708613
0.0706126
0.0698883
0.0705884
0.0673492
0.0687659
0.0638478
0.0656802
0.0597438
0.0618646
0.0550078
0.0574534
0.0496066
0.0523767
0.0437093
0.046718
0.0373787
0.0405715
0.031266
0.034043
0.0271293
0.0285867
0.0284235
0.0271421
0.0334643
0.0308618
0.0345832
0.0365008
0.0353427
0.037362
0.0521486
0.0261538
0.0293503
0.0407747
0.0734769
0.0630896
0.0912094
0.0829281
0.103122
0.0980382
0.10886
0.106794
0.107752
0.109115
0.0995789
0.104436
0.0849869
0.092925
0.0673695
0.0761609
0.0532159
0.0595983
0.0455106
0.048683
0.0427352
0.0436956
0.0426068
0.0424884
0.0434174
0.0429635
0.044398
0.0439119
0.0452356
0.0448443
0.0458433
0.045568
0.0462878
0.046091
0.0464525
0.0464348
0.046096
0.046353
0.0451217
0.0456828
0.0433743
0.044369
0.0405038
0.0420595
0.0362938
0.0384513
0.0310125
0.0337549
0.0250506
0.0416562
0.0326354
0.0377037
0.0179007
0.0262618
-0.00420126
0.00767024
-0.0326805
-0.0177624
-0.0654177
-0.0487256
-0.0980089
-0.0820827
-0.123786
-0.112262
-0.134514
-0.131475
-0.125163
-0.132256
-0.0977533
-0.113287
-0.0618868
-0.08016
-0.0431753
-0.0913276
0.0446741
0.0109761
-0.0898556
-0.0710387
-0.179089
-0.034518
0.0122888
0.0554963
-0.223939
-0.255626
-0.263409
0.0798561
-0.241699
0.0801186
-0.1925
0.0685763
-0.126189
0.0528294
-0.0620465
0.0363986
-0.0128345
0.0225533
0.0171745
0.0180999
0.0126539
0.0319938
0.0371331
0.0397132
0.0389923
0.0389823
0.0468904
0.0466015
-0.132019
0.0326156
0.0232544
0.045598
0.0461766
0.0442302
0.0448552
0.0427675
0.0434749
0.0411431
0.0419407
0.0395759
0.04032
0.0387944
0.0390116
0.0407651
0.0393197
0.047729
0.0437019
0.0573268
0.0525519
0.0643562
0.0612481
0.0683399
0.0665946
0.0708592
0.069719
0.0723491
0.0717344
0.0725054
0.072599
0.0711599
0.0719957
0.0685875
0.0699912
0.0652255
0.066976
0.0613454
0.0633442
0.0569702
0.0592144
0.0521436
0.054601
0.0470126
0.0496107
0.0416905
0.0443604
0.0368933
0.0391381
0.0340403
0.0350374
0.0342462
0.0337019
0.0371742
0.0354867
0.0393911
0.0385236
0.0395522
0.0525696
0.0425816
0.0714411
0.0621308
0.0877104
0.0799563
0.0984618
0.0935667
0.104312
0.102006
0.10442
0.105035
0.0985709
0.102136
0.0875601
0.0935686
0.0737998
0.0807525
0.0616821
0.0673166
0.0537997
0.0572501
0.0497504
0.0514123
0.0481909
0.0487684
0.0478652
0.0479396
0.0480465
0.0479241
0.0483762
0.0482084
0.0486871
0.0485419
0.0489477
0.0488303
0.0490757
0.0490503
0.0488226
0.049024
0.0478899
0.0484718
0.0462005
0.0472209
0.0437933
0.0451856
0.0403397
0.0421578
0.0349688
0.0378737
0.027214
0.0306645
0.0210507
0.0241806
0.0469678
0.0418403
0.044828
0.0324349
0.0377671
0.0171726
0.0256948
-0.00499245
0.00699661
-0.0344375
-0.0189113
-0.0692287
-0.0513624
-0.105083
-0.0874005
-0.134566
-0.121192
-0.148269
-0.143935
-0.139717
-0.146761
-0.110574
-0.127278
-0.0701641
-0.0909997
-0.0264531
-0.0476449
0.00803458
-0.00697829
0.017999
-0.115648
0.00673956
0.0141868
-0.111379
-0.169616
-0.0836787
-0.0368988
0.016211
-0.272845
-0.295588
0.0566751
-0.285621
0.0706382
-0.243504
0.0644285
-0.178331
0.0504475
-0.106014
0.0336331
-0.0404075
0.0180887
0.00429384
0.00636177
0.0275774
-0.00130732
0.038213
0.0363783
0.0483752
0.0468453
0.048079
0.0237819
-0.00498353
0.0372223
0.0384614
0.0049895
0.048199
0.0483223
0.0475534
0.0479099
0.0467785
0.0471858
0.046029
0.0463941
0.0454154
0.0456855
0.0452252
0.045243
0.046065
0.0454738
0.0490468
0.0472429
0.0551532
0.0517643
0.0627196
0.0589776
0.0683587
0.0658492
0.0714138
0.0701144
0.0730326
0.0723391
0.0737307
0.0734907
0.0733519
0.0736759
0.0717974
0.0727003
0.0692734
0.0706305
0.0660835
0.0677386
0.0624475
0.0643145
0.0584241
0.0604777
0.0540889
0.0562849
0.0495935
0.0518529
0.0451021
0.0473315
0.0411665
0.0430189
0.0390393
0.0397525
0.0387505
0.0384825
0.0400431
0.0391077
0.0423391
0.0412439
0.0416111
0.0422937
0.0402875
0.0203053
0.0105555
0.0154148
0.0356831
0.0273816
0.0533127
0.0444728
0.0698003
0.0616401
0.0834772
0.0771045
0.094046
0.0893692
0.0998032
0.0974574
0.100634
0.100788
0.0964891
0.0990966
0.0880632
0.0926935
0.0771802
0.0827271
0.0668964
0.0717865
0.0593755
0.0627838
0.0547964
0.0567883
0.0524062
0.053406
0.0513209
0.0517576
0.0509182
0.051067
0.0508397
0.0508568
0.050885
0.0508584
0.050956
0.0509262
0.0509674
0.050985
0.0507024
0.050898
0.0498791
0.050405
0.048391
0.0492987
0.0462735
0.0475612
0.0432748
0.04499
0.0388041
0.0412405
0.0343682
0.0364861
0.0283965
0.0313855
0.0262063
0.04185
0.0448501
0.0321654
0.0376432
0.0170309
0.0254289
-0.00509334
0.00693894
-0.0350742
-0.0191907
-0.0712361
-0.0525764
-0.109334
-0.0904428
-0.141465
-0.126752
-0.157395
-0.152057
-0.149596
-0.156543
-0.119019
-0.1367
-0.0749908
-0.0977883
-0.0288001
-0.0506855
0.00359738
-0.01094
0.0147112
-0.14598
-0.133078
-0.0914478
0.0288604
-0.00384551
-0.226369
-0.0334361
-0.309025
0.0211668
-0.313837
0.052556
-0.281544
0.0561209
-0.221061
0.0453243
-0.146552
-0.00793925
0.0293403
-0.0734649
-0.0119925
0.012529
-0.0142369
-0.0151824
0.0364901
0.0338668
-0.00132647
0.0207964
-0.0152556
0.0361531
-0.010474
0.0354232
0.0332142
0.0304343
0.0375849
0.0396383
0.049153
0.0215574
-0.210715
0.014495
-0.270419
0.0489446
0.0467448
0.0479498
0.0492401
0.049181
0.0489906
0.0490577
0.0486647
0.0488238
0.0484601
0.0485346
0.0485677
0.0484594
0.0492838
0.0488306
0.0510908
0.0500275
0.054624
0.0526337
0.060104
0.0571817
0.0662352
0.0632384
0.0707535
0.0687415
0.0731262
0.0721379
0.0741667
0.073758
0.0743462
0.0743517
0.073628
0.0740942
0.0719798
0.0729025
0.0695452
0.0708421
0.0665459
0.0680968
0.0631614
0.0648946
0.0594723
0.0613481
0.0555706
0.0575387
0.0516087
0.0535882
0.0477768
0.0496625
0.0445078
0.0460363
0.0426416
0.0433833
0.0421282
0.0422326
0.0426779
0.0422361
0.0437303
0.0433738
0.0425528
0.0435558
0.0413243
0.0257866
0.0201116
0.0389466
0.0318256
0.0540567
0.0463198
0.0684996
0.0613863
0.0806834
0.0749038
0.0900416
0.0857839
0.0954882
0.0932252
0.0967465
0.0965965
0.0938254
0.0957384
0.0872871
0.0909061
0.0786071
0.083064
0.0699066
0.0741183
0.0630051
0.0662052
0.0583315
0.0604296
0.0555102
0.0567445
0.0539432
0.0546169
0.0531278
0.0534726
0.0527317
0.0528966
0.0525464
0.0526255
0.0524412
0.0524937
0.0523116
0.0523913
0.051979
0.0521932
0.0512524
0.0517042
0.0499799
0.0507329
0.0481376
0.0492107
0.0455697
0.0470084
0.0424399
0.0439683
0.0390858
0.0406612
0.0340907
0.0363449
0.031933
0.0417783
0.044742
0.0323667
0.0376915
0.0175741
0.0257525
-0.00436374
0.00760749
-0.0343577
-0.0184305
-0.0709523
-0.0520088
-0.109878
-0.0905374
-0.143215
-0.127873
-0.16026
-0.154364
-0.153037
-0.159836
-0.122037
-0.140016
-0.0773186
-0.100403
-0.0330409
-0.0538731
-0.000295602
-0.0155741
0.0117459
-0.178251
-0.148207
0.0380403
0.027722
0.0197034
-0.0899832
-0.300342
-0.026255
-0.321642
0.0230431
-0.303978
0.0414897
-0.250849
0.0369037
-0.177868
0.0026222
-0.00971983
0.0227422
-0.101793
-0.0183996
0.0344146
0.0288658
0.00536421
-0.0353609
-0.0234893
0.0290257
-0.0104682
0.0118043
-0.0278679
0.0321255
-0.0214164
0.0344306
-0.247525
-0.0272615
0.00158279
0.0125277
0.0119276
0.0485363
0.0494908
0.0492446
0.0498338
0.0496937
0.0499045
0.0498559
0.0499623
0.0499219
0.0501884
0.0500451
0.0508038
0.0504371
0.0520911
0.0513504
0.0544191
0.053114
0.0581238
0.0561096
0.0630758
0.0604942
0.0681795
0.0657066
0.0719084
0.0702504
0.0738339
0.0730443
0.0745263
0.074287
0.0743958
0.074547
0.0734886
0.0740308
0.0718216
0.0727346
0.0695069
0.0707329
0.0667045
0.0681503
0.0635696
0.0651712
0.0601916
0.0619043
0.0566723
0.058441
0.0531609
0.054907
0.0498512
0.0514683
0.0471079
0.0483831
0.0454474
0.0461443
0.0448482
0.0450466
0.0450885
0.0448684
0.0455364
0.045395
0.0442662
0.0451249
0.0426584
0.0434779
0.0395794
0.0413911
0.0312588
0.0207381
0.015797
0.031101
0.0260723
0.0420646
0.0362899
0.0549235
0.0483681
0.0674208
0.0612749
0.0781562
0.0730405
0.0864523
0.0826375
0.0914902
0.0893632
0.0929808
0.0926421
0.0909217
0.0923368
0.0857919
0.0886533
0.0787853
0.0824041
0.0714369
0.0750402
0.0652428
0.0681628
0.0607182
0.062792
0.0577255
0.0590685
0.0558766
0.0566955
0.0547808
0.0552625
0.0541447
0.0544242
0.0537649
0.0539358
0.0535016
0.0536288
0.0532366
0.0533784
0.0528315
0.0530663
0.0521406
0.0525449
0.0510262
0.0516616
0.0494353
0.0503248
0.0473494
0.0484835
0.0449675
0.0462129
0.0420546
0.0436286
0.0380166
0.0399942
0.0339114
0.0356241
0.0482075
0.0466154
0.0477389
0.0417779
0.0446545
0.0328962
0.0379321
0.0185552
0.0265002
-0.00295128
0.00878819
-0.0323289
-0.0167205
-0.0682561
-0.0496507
-0.106521
-0.0875027
-0.139329
-0.124224
-0.156202
-0.150327
-0.149355
-0.155906
-0.119413
-0.136749
-0.0767771
-0.098698
-0.035128
-0.0549163
-0.00207394
-0.0175511
0.0100584
-0.206316
0.0364067
0.0485105
0.0335867
-0.146646
-0.270866
0.0393981
-0.083367
-0.306363
-0.0188603
-0.306208
0.0178121
-0.267083
0.0128853
0.00277908
0.034539
0.0233191
-0.199526
-0.010353
0.029157
0.0132366
-0.121358
-0.022828
0.0246968
-0.00382077
-0.0503718
-0.0315095
0.023433
-0.0215401
0.00382907
-0.0388311
0.0259896
-0.0345529
0.0341995
-0.0430595
0.0318258
-0.0418208
0.0154632
0.021567
0.0487559
0.0476594
0.024181
0.0496566
0.0495664
0.0500613
0.0499537
0.0504109
0.0502777
0.0507837
0.0506047
0.051344
0.0510401
0.0523111
0.0517711
0.0539407
0.0530352
0.0565054
0.055103
0.0601697
0.0582177
0.0646169
0.0623584
0.0689646
0.0668666
0.0721455
0.0707277
0.0738017
0.073127
0.074314
0.0741608
0.0740279
0.0742515
0.0730435
0.0736124
0.0714112
0.0722957
0.0692313
0.0703813
0.0666316
0.0679712
0.0637382
0.0652136
0.0606487
0.0622114
0.0574683
0.059062
0.0543384
0.0558893
0.0514425
0.0528499
0.0490895
0.0501816
0.0475865
0.0482361
0.046948
0.0471734
0.0470663
0.046938
0.047136
0.047193
0.0463937
0.0467906
0.0455198
0.0460331
0.0429867
0.0444358
0.0211729
0.0206725
0.0270624
0.0232793
0.0354557
0.0312418
0.0449129
0.0398781
0.0557188
0.0501091
0.0665177
0.0612226
0.0759213
0.0714213
0.083261
0.0798688
0.0878614
0.0858944
0.0894384
0.0889978
0.0879865
0.089041
0.0839208
0.0862072
0.0781429
0.0811666
0.0719819
0.0750491
0.0664925
0.069115
0.0622409
0.0642193
0.0592388
0.0606094
0.0572471
0.0581459
0.0559704
0.0565437
0.0551574
0.0555238
0.0546186
0.0548663
0.0542152
0.0544095
0.0538294
0.0540279
0.0533493
0.05361
0.0526557
0.053041
0.0516439
0.0522001
0.0502741
0.0510142
0.0485848
0.0494787
0.0465898
0.0476504
0.0440049
0.0453959
0.04046
0.0423268
0.0362691
0.0386177
0.032102
0.0337802
0.0345963
0.0484107
0.0480612
0.0483657
0.0464049
0.0475186
0.0419499
0.0446073
0.0335507
0.0383313
0.0196989
0.0273875
-0.0010937
0.0102349
-0.0292742
-0.0143175
-0.0635093
-0.0458179
-0.099677
-0.0817401
-0.130302
-0.116254
-0.14574
-0.140447
-0.138996
-0.145268
-0.111113
-0.127193
-0.071823
-0.0920715
-0.0328192
-0.0515694
-0.00158201
-0.0160865
0.0196119
0.0101946
0.0270949
-0.226767
0.0427546
0.0470665
-0.14686
-0.269443
0.0388529
0.0484838
0.0470428
0.0303546
0.0327395
-0.0715634
-0.287189
0.0285301
0.0199574
-0.01685
-0.267302
0.00575305
0.0425597
0.0359325
0.00341582
-0.212875
-0.00991277
0.0275302
-0.000772551
-0.136833
-0.0252921
0.0209536
-0.0158756
-0.0597547
-0.0379857
0.0173757
-0.0348989
0.00174286
-0.0487725
0.0187393
-0.0506574
0.0375204
-0.0575145
0.0243615
-0.0591903
0.0493841
-0.0615885
0.0478335
0.0347792
0.0363501
0.0419348
0.0470787
0.0494669
0.0491931
0.0500456
0.0498128
0.0506214
0.0503572
0.0512376
0.0509271
0.0520456
0.0516143
0.0532503
0.0525932
0.0550722
0.0540793
0.0577061
0.0562891
0.0612137
0.0593699
0.0651998
0.063232
0.0689801
0.0671601
0.0717662
0.0705166
0.0732598
0.0726492
0.0736972
0.0735777
0.0733589
0.0736052
0.0723749
0.072935
0.0708174
0.0716579
0.0687795
0.0698481
0.0663774
0.0676139
0.0637171
0.0650719
0.0608958
0.0623201
0.0580211
0.0594579
0.0552264
0.0566069
0.0526806
0.0539127
0.050636
0.0515862
0.0492806
0.0498769
0.0486524
0.0488811
0.0486744
0.0486156
0.0486339
0.0487037
0.0484689
0.0485051
0.0480668
0.048257
0.0464627
0.0472925
0.0468123
0.046219
0.0451997
0.0506055
0.0481277
0.0493783
0.0551624
0.0293369
0.0320174
0.0285709
0.0284303
0.0327534
0.0300073
0.0393055
0.0358256
0.0472908
0.0429941
0.0565113
0.0517589
0.0658029
0.0612422
0.0739921
0.0700609
0.0804476
0.0774527
0.0846021
0.0828093
0.0861658
0.0856821
0.0851442
0.085935
0.0818867
0.0837338
0.0771289
0.0796457
0.0718844
0.0745089
0.0670452
0.0693813
0.0631189
0.0649675
0.0602031
0.0615518
0.0581621
0.0590959
0.0567768
0.0574081
0.0558363
0.0562673
0.0551698
0.0554809
0.0546443
0.0548982
0.0541514
0.0544009
0.0535971
0.0538876
0.0528824
0.0532662
0.0519334
0.0524402
0.0507246
0.0513641
0.0492656
0.050034
0.0474733
0.0484284
0.0451193
0.0463886
0.0418784
0.0435952
0.0381987
0.0400549
0.035057
0.0363366
0.0477932
0.0479507
0.0462637
0.0473231
0.0421232
0.0445772
0.034148
0.0387145
0.020808
0.0282141
0.000927443
0.0117218
-0.025636
-0.0115795
-0.0573945
-0.0410573
-0.0903068
-0.0740695
-0.117453
-0.105107
-0.130417
-0.126158
-0.123425
-0.12949
-0.0978934
-0.112519
-0.0623827
-0.0807028
-0.0269142
-0.0439569
0.00113724
-0.011849
0.020074
0.0117585
0.0263611
-0.215324
0.0476124
0.0422257
0.0338874
0.046158
0.045958
0.0340185
-0.131745
-0.248263
0.0265556
0.0445966
0.0469939
0.0461675
0.0629559
0.054983
0.0534474
0.0535399
0.0599568
-0.0619746
-0.249861
0.0605702
0.0449945
0.0537879
0.00953781
0.0381764
-0.0248878
-0.216312
-0.00786857
0.0276146
-0.0196876
-0.152646
-0.0253762
0.018802
-0.0318259
-0.0735564
-0.0422734
0.0122022
-0.0512388
-0.000489281
-0.0569367
0.0107295
-0.0697405
0.0466167
-0.0700286
0.0150195
-0.0810213
0.0619511
-0.0799009
0.0249276
-0.0840956
0.0651927
0.0670812
0.047599
0.0464504
0.0468471
0.048832
0.0482668
0.0497809
0.0493418
0.050569
0.0501767
0.0513857
0.0509646
0.0523848
0.051855
0.0537518
0.0530167
0.0556732
0.0546406
0.0582835
0.0568969
0.0615621
0.059861
0.0651587
0.0633393
0.0685151
0.0669039
0.0710078
0.0698829
0.0723927
0.0718207
0.0728104
0.0726964
0.0724802
0.0727196
0.0715412
0.0720734
0.0700833
0.0708682
0.0681924
0.0691806
0.0659803
0.0671178
0.0635412
0.0647821
0.0609688
0.0622653
0.0583696
0.0596659
0.0558697
0.057101
0.0536254
0.0547075
0.0518388
0.0526697
0.0506385
0.051169
0.0500728
0.0502807
0.0500442
0.0500222
0.0500821
0.0500672
0.050246
0.0501436
0.0502256
0.0502906
0.049961
0.0500167
0.0515899
0.0503869
0.0562591
0.0532212
0.0604875
0.0428052
0.0479153
0.0364736
0.039014
0.0350915
0.0349024
0.0375115
0.0357662
0.042844
0.0399237
0.0494773
0.045886
0.0572954
0.0533046
0.0652328
0.0613178