/*--------------------------------*- C++ -*----------------------------------*\
  =========                 |
  \\      /  F ield         | OpenFOAM: The Open Source CFD Toolbox
   \\    /   O peration     | Website:  https://openfoam.org
    \\  /    A nd           | Version:  10
     \\/     M anipulation  |
\*---------------------------------------------------------------------------*/
FoamFile
{
    format      ascii;
    class       surfaceScalarField;
    location    "39.5";
    object      phi;
}
// * * * * * * * * * * * * * * * * * * * * * * * * * * * * * * * * * * * * * //

dimensions      [0 3 -1 0 0 0 0];

internalField   nonuniform List<scalar> 
17221
(
0.0873255
-0.0277838
-0.0719176
0.0123758
0.000699206
0.0800417
0.0065846
0.0685269
-0.021261
-0.0750496
0.08433
-0.0105997
-0.0762515
0.00252113
0.0132454
0.0757491
-0.00466449
0.0718629
0.0164478
-0.0750652
0.00142876
-0.00516346
0.0692519
-0.0655172
-0.00653366
-0.067569
0.0755314
-0.000741962
-0.0430006
0.0108583
0.0328843
-0.0427159
0.00608676
0.0358871
0.00022681
0.0465417
-0.0542025
0.00743398
-0.0533179
0.0535447
0.0314987
0.0611331
-0.0627455
-0.0298863
0.0557695
0.0272152
-0.0514861
0.0613447
0.0441211
-0.0416135
-0.0638522
0.0380678
0.000610513
0.0226663
0.0201376
0.057397
-0.0693094
-0.00822516
0.010203
0.0493979
-0.0394632
-0.0439656
-0.00452064
0.0586892
-0.0282777
-0.0629252
0.0730028
0.0182001
-0.0677761
0.00339998
0.0360985
0.043835
0.0483091
-0.0530731
-0.039071
0.10443
-0.067686
0.00709146
-0.0318424
0.0111741
0.0891952
-0.118045
-0.0603295
0.0911623
0.0872127
-0.0472784
0.0281087
-0.0988758
0.107417
-0.101636
-0.0530586
0.0954679
-0.0483809
-0.0257874
-0.0453066
0.0119506
0.0591434
-0.0122602
-0.0499086
0.0363813
-0.0563591
0.00245877
0.0416402
-0.109338
-0.00464286
0.0766069
0.0373738
0.0188403
-0.102614
-0.0255639
0.117233
0.0183238
-0.116716
0.00879247
0.103797
0.0664675
-5.62867e-06
-0.0191228
-0.047339
0.0117013
0.0672288
-0.0124626
-0.0417516
0.0410989
0.0638719
-0.0632192
0.102471
-0.0792998
-0.0249502
0.00177929
0.0713361
-0.0106171
0.0349092
0.093834
-0.0377067
0.023863
0.0369718
-0.0038493
-0.0331225
0.0217423
-0.00465509
0.0198846
0.0879052
-0.0423028
-0.0456024
-0.0582685
0.0456837
0.10049
0.00616456
0.00232651
-0.0130072
0.00451616
0.002742
-0.00781004
0.0112326
-0.0030699
0.0081384
0.0415853
0.066786
-0.0624767
-0.0458946
0.0532262
-0.0717883
0.0601473
-0.0303806
0.045281
0.0383259
-0.0191312
0.0555366
-0.0827511
0.0151711
0.0681145
-0.000534432
-0.0732825
-0.00824347
-0.00122518
-0.00871094
-0.0652717
0.000700189
-0.0524075
-0.00414894
0.0566609
-0.000104515
0.00913178
-0.0537642
-0.00777512
-0.0484783
0.0549141
0.00710463
-0.0135405
0.005672
-0.0582992
-0.0842602
0.0156998
0.0780104
-0.00944996
0.0138815
-0.0829788
-0.015163
0.0836766
0.005515
-0.0731064
-0.0160853
0.0132164
0.0843417
0.00784781
-0.0578093
0.0021106
0.0478509
0.0628128
0.0012141
-0.0561791
0.0693989
-0.0117496
-0.101883
0.00350877
0.0352838
0.0630906
-0.00457759
-0.10798
0.0106746
-0.00326231
0.103114
-0.0374931
-0.0529091
0.0332726
0.0571296
-0.06035
0.0569675
-0.0341107
0.0326094
-0.059148
-0.0263705
-0.0566419
0.0256394
0.0636119
0.0138604
0.0590912
-0.0132611
-0.0596904
0.0579485
-0.0613533
0.0172652
-0.0142741
0.0603273
0.013038
-0.0124241
0.0585654
-0.0604154
0.0270747
-0.0867458
-0.0631918
-0.0150214
0.0147989
0.0634144
-0.0669991
0.026262
-0.0224548
-0.0264029
-0.0578596
0.024335
0.0599275
-0.0593748
0.0599769
-0.0270051
0.0913843
-0.0764528
0.0121432
0.0946922
0.00736663
0.07694
0.000525694
0.0602418
-0.0558348
-0.00493273
0.0560783
-0.00345517
-0.0520975
-0.0417847
0.0553817
-0.0585176
0.0449207
0.0545657
-0.0410356
-0.0553149
0.0824134
-0.0513778
-0.0397466
0.0709137
0.00325628
-0.000626637
-0.00184083
-0.0628043
0.0232942
0.0774454
-0.0283516
-0.0723879
0.0185229
0.075406
-0.0706347
-0.0475926
-0.0188174
0.0537532
0.0126568
-0.00768692
0.0405677
-0.0804733
0.0582184
0.00326513
-0.0691705
0.042932
-0.00353105
-0.0110989
-0.0613326
0.0697877
0.00264376
-0.0373274
0.0799817
0.0677041
0.00544915
-0.00781678
-0.0653364
0.00770156
0.0696443
-0.00964184
0.0603593
0.0308052
-0.035395
0.0606916
0.0370645
-0.0373967
0.0625627
0.038577
-0.0404481
0.0616661
0.0400489
-0.0391524
0.0631085
0.0358116
-0.0372539
0.062604
0.037499
-0.0369945
0.0625298
0.0354414
-0.0353671
0.0607302
0.036973
-0.0351735
0.0606975
0.0377239
-0.0376912
0.0581327
0.0381954
-0.0356306
0.0583111
0.0353897
-0.0355682
0.0574137
0.0312133
-0.0303159
0.0565868
0.0220977
-0.0212708
0.0562958
0.0121303
-0.0118393
-0.000269725
0.0573764
-0.000810807
0.0591948
-0.0586602
-0.000804297
-0.0128589
0.0135934
-0.0128121
0.0594244
-0.0593992
0.0220725
0.0128944
0.0605091
-0.0613541
0.0362348
0.0323232
0.0621623
-0.062252
0.0378136
0.0390035
0.0630352
-0.0633599
0.035766
0.0377563
0.0633012
-0.0639727
0.0364831
0.0374402
0.0616782
-0.0598286
0.0367273
0.0377544
0.0590521
-0.0587281
0.0304812
0.036288
0.0234013
-0.0628475
0.063884
-0.0384332
-0.0371094
-0.0640938
0.0635604
-0.038619
-0.0406579
-0.0637529
0.0616912
-0.0349327
-0.0374464
-0.0622032
0.0613275
-0.0342978
-0.0358791
-0.0582579
0.0594035
-0.0367762
-0.0346216
-0.0575642
0.0547399
-0.0274916
-0.0337289
-0.0541545
0.0544757
-0.0121605
-0.0206854
-0.0553863
0.0579912
0.0109885
-0.00172132
0.0582652
0.0253654
-0.00622044
-0.0531342
0.0650266
0.0348916
0.061993
-0.0619431
-0.0247774
0.0648014
0.0283553
0.0073312
-0.0564986
-0.0128876
0.0619168
-0.0632877
0.000566613
-0.0128383
0.0626973
-0.0649221
0.0242972
0.012304
0.0629091
-0.065048
0.0383737
0.0303102
0.0650408
-0.0652298
0.0380027
0.0389963
0.0640967
-0.0658759
0.0375452
0.0366232
0.0628019
-0.0652572
0.0389383
0.0343662
0.0620327
-0.0608926
0.0355872
0.03453
0.0587031
-0.0568151
0.0285932
0.0340985
0.0538999
0.00986566
0.020486
0.0367237
-0.0402847
0.065554
0.0346792
0.066846
-0.066659
0.0659257
-0.029153
-0.0193048
-0.0659285
0.0675122
-0.040017
-0.0371122
-0.0652177
0.0662565
-0.0396578
-0.0383634
-0.0646858
0.0635537
-0.0338006
-0.0358756
-0.062006
0.0631215
-0.0354132
-0.0343315
-0.0593945
0.0589622
-0.0363439
-0.0308947
-0.0565432
0.0557364
-0.0266848
-0.0313099
-0.053636
0.0537875
-0.0123121
-0.0185849
-0.0539745
0.0570639
0.00789912
-0.00190832
-0.0625962
0.0640618
0.0268897
0.0198331
0.0567975
0.0302031
-0.0300331
0.0736424
-0.0492581
0.0334028
0.0653381
0.018529
-0.0225172
-0.049776
0.0128198
-0.0507894
-0.0480483
0.0514905
-0.0112173
-0.0479452
-0.0226203
0.0927643
-0.0570463
0.0311505
0.0748302
-0.0618208
-0.0252585
0.0130732
-0.0170362
-0.0481344
-0.0521994
0.00943777
0.0632685
-0.0658875
-0.0221583
-0.032663
0.0672647
-0.0673295
0.000631454
-0.0114611
0.0665838
-0.0674871
0.0252006
0.0115583
0.0661957
-0.0675373
0.0397152
0.0290188
0.0643064
-0.0682002
0.0418965
0.0357655
0.0659798
-0.0658792
0.0374447
0.0344027
0.0651906
-0.0638131
0.0375609
0.0336776
0.0610373
-0.0615315
0.0360815
0.0317542
0.0557173
-0.0552909
0.0281669
0.0282843
0.0530977
-0.0521811
0.00894906
0.0182928
-0.000795042
0.060424
-0.0576759
0.0241416
0.0642606
0.0295662
-0.0588239
0.0647263
-0.0108351
0.0232113
-0.0248063
-0.0506044
0.0564449
0.0207367
-0.0539703
0.00705883
-0.066558
0.0736571
-0.0362521
-0.0211365
-0.0705299
0.0705535
-0.0400405
-0.0339849
-0.0696952
0.0687014
-0.0386641
-0.0375051
-0.0650637
0.0665736
-0.0353105
-0.0322379
-0.0632956
0.0625834
-0.034701
-0.0310535
-0.0606429
0.0583546
-0.0340556
-0.0289542
-0.0539327
0.0547793
-0.0275314
-0.026888
-0.0536388
0.0534702
-0.0121434
-0.0174445
-0.0536923
0.0544529
0.00713857
-0.00213044
0.0166101
-0.0358621
0.0346341
0.066782
0.0689308
-0.0340557
0.0346014
0.0647923
0.0674244
-0.0534746
-0.0315284
0.0250697
-0.0433173
-0.0326412
-0.0468324
-0.0129896
0.0289715
-0.048623
-0.0483477
-0.0114743
-0.0651307
-0.0332342
0.0325178
0.0663442
-0.0216925
-0.0512481
0.0248185
-0.0505383
-0.0554457
0.062237
0.0139453
0.0344255
-0.0362256
-0.0521701
-0.054974
0.0339538
-0.0333043
-0.0535258
0.0322643
-0.0466101
0.0274377
-0.049247
-0.0265383
0.0296144
-0.0507998
-0.0287907
0.030035
-0.0504913
-0.0401394
0.0475796
-0.0362309
0.0224358
-0.0245074
0.0714676
-0.071536
-0.0220899
-0.0263262
0.0711443
-0.0710421
0.000529301
-0.0118528
0.070971
-0.0707574
0.0249871
0.0114871
0.0704715
-0.0699045
0.0391482
0.0287329
0.0692742
-0.0684252
0.0410475
0.0351352
0.0676214
-0.0679029
0.0377261
0.0335989
0.0652694
-0.0635128
0.0358042
0.0310441
0.061691
-0.0591692
0.0335597
0.0299324
0.0567367
-0.0536886
0.0251188
0.0258518
0.0505508
-0.0504197
0.00881802
0.0151549
0.0490253
-0.0490677
-0.0111749
-0.00218948
0.0532701
-0.0453112
-0.0194333
-0.0184179
-0.0242699
-0.0684906
0.0718306
-0.0141751
0.000805226
-0.0759283
0.0748378
-0.0351615
-0.0252342
-0.074222
0.0745695
-0.0403881
-0.0333691
-0.070274
0.0696982
-0.0380882
-0.0332097
-0.0680982
0.0676573
-0.0348696
-0.0306379
-0.0646833
0.0625277
-0.0325454
-0.0280795
-0.0604818
0.0579083
-0.0314821
-0.0269083
-0.055889
0.0541236
-0.025766
-0.0248686
-0.0531262
0.0526655
-0.0116827
-0.0164471
-0.0528822
0.0538329
0.00618786
-0.00234711
-0.0566355
0.0600411
0.020736
0.0138075
-0.0627044
0.0646439
0.0305783
0.0269029
-0.0250136
0.0310429
0.0688009
0.0750279
-0.0322925
0.0332453
0.0658291
0.0676813
-0.0343176
0.0334106
0.0656994
0.0663521
-0.034027
0.0320609
0.0666101
0.0657277
-0.0503486
0.0415304
-0.0391348
0.0419381
0.0654067
-0.0613188
0.0264904
0.0671515
0.0303161
-0.0328439
-0.0517085
0.0305042
-0.0487781
-0.0636056
0.0492674
-0.0218926
-0.0213256
0.00184106
-0.0401543
-0.0525063
0.0330493
-0.050045
0.0298772
-0.050642
0.0240596
-0.052115
0.0726877
-0.0740291
-0.0318927
-0.0263764
0.0728001
-0.074729
-0.0201611
-0.0275552
0.074761
-0.0747589
0.000527227
-0.0118208
0.0744826
-0.0739183
0.0244228
0.0112108
0.0732361
-0.0721524
0.0380644
0.0280506
0.071079
-0.0697076
0.0396762
0.0340618
0.0684692
-0.0669082
0.0361651
0.0323605
0.0654044
-0.0633252
0.033725
0.0295403
0.0612392
-0.0584689
0.0307894
0.0278465
0.0559177
-0.0529075
0.0221085
0.0233006
0.0505121
-0.0481724
0.00647827
0.0127595
0.0476828
-0.0478532
-0.0110044
-0.00267907
0.0489972
-0.0486218
-0.0198086
-0.0172739
-0.0236244
-0.05689
0.0603641
0.0384639
0.0636678
-0.0440443
-0.0781411
0.0561513
-0.0359648
0.0434813
0.044182
-0.0679401
0.0701692
0.0117162
0.0263778
-0.0747233
0.0770332
-0.016485
-0.00374891
-0.0786319
0.0780993
-0.0346289
-0.026833
-0.0768478
0.0748218
-0.0383621
-0.0321177
-0.0729118
0.0706461
-0.0358225
-0.0312997
-0.0688035
0.0667283
-0.0327944
-0.0287953
-0.0649497
0.0626572
-0.0302529
-0.0263009
-0.0605237
0.0578795
-0.0288378
-0.0247749
-0.0558197
0.053904
-0.0238504
-0.0228088
-0.0528619
0.0523521
-0.0111729
-0.015405
-0.0525806
0.0538909
0.00487754
-0.00257563
-0.0555355
0.05857
0.0177015
0.0121629
0.0241541
0.0254819
-0.0198465
0.072375
-0.0311135
0.0316246
0.0682898
0.0693963
-0.0339948
0.0331703
0.0666537
0.065311
-0.0338929
0.034032
0.0655603
0.0656295
-0.0330765
0.0321474
0.0675391
0.0666833
0.0318051
0.0674938
-0.0526883
0.0685601
-0.0984977
0.0204876
-0.0342707
0.0829844
-0.00190051
0.0273781
-0.0614424
-0.0788998
-0.0347609
-0.0372369
-0.0546259
0.0358584
-0.0515873
-0.0390687
-0.0544731
0.0337703
-0.0539381
-0.0699384
-0.0295966
0.0750855
0.0244494
-0.0421848
-0.0571744
0.0317561
-0.0583385
-0.0394515
-0.0405902
0.0260141
-0.0775186
0.0397835
-0.0535666
-0.0712906
0.0331574
0.0737567
-0.0760144
-0.029635
-0.0315195
0.0778466
-0.077443
-0.0205646
-0.025723
0.0782236
-0.0781341
0.000437708
-0.0110402
0.0776788
-0.0767921
0.0235361
0.0107555
0.0757361
-0.0741851
0.0365134
0.0269946
0.072702
-0.0708677
0.0378419
0.0325787
0.0692821
-0.0673629
0.0342459
0.0307749
0.0655982
-0.0632644
0.0313913
0.0277756
0.06099
-0.058053
0.0278524
0.025572
0.055436
-0.0524284
0.019101
0.0206836
0.0501072
-0.0479803
0.00435142
0.0104383
0.0472457
-0.0468769
-0.0113732
-0.00341368
0.0495876
-0.0489739
-0.0204224
-0.0145632
0.0538911
-0.0559029
-0.0198807
-0.0187072
0.0525852
-0.0638708
-0.030328
-0.0246433
-0.0528861
0.0574065
0.0389609
-0.0590418
0.0335337
-0.0599148
0.0656891
0.0326896
0.0416737
-0.0715975
0.0766232
0.00669049
0.0204694
-0.079396
0.0832511
-0.0203401
-0.00652169
-0.0813301
0.0809154
-0.0342142
-0.024912
-0.0789319
0.0762712
-0.0357014
-0.0301341
-0.0740142
0.0714212
-0.0332295
-0.0290427
-0.0693763
0.0671093
-0.0305275
-0.0267504
-0.0652675
0.0629503
-0.0279357
-0.024459
-0.0608187
0.0581467
-0.0261658
-0.0226433
-0.0560274
0.054013
-0.021836
-0.0206895
-0.0529445
0.0525407
-0.0107691
-0.0143365
-0.0528178
0.0535616
0.00413383
-0.00285279
-0.0564335
0.0573998
0.0167352
0.00929091
-0.0605599
0.0640394
0.0230109
0.020994
0.0230649
-0.0367113
0.0398888
-0.0670298
-0.0673309
-0.0332512
-0.0251448
0.0288185
0.0687013
0.00583527
-0.0281943
0.0621425
0.0636749
-0.030776
0.032759
0.0663068
0.0674387
-0.0320697
0.0320715
0.0666519
0.0660004
-0.0334705
0.0326927
0.0663381
0.0642305
-0.0322085
0.0320693
0.0676784
0.0671674
0.0699665
-0.0540668
-0.0392771
-0.0544175
0.0376235
-0.0554405
0.0305003
-0.0292483
0.0738336
-0.0594437
0.040186
0.052415
0.0314149
0.0759499
-0.0768645
-0.0406041
-0.0560538
0.0356112
-0.0577932
-0.0412975
-0.0553284
0.0319837
-0.064308
-0.0435248
-0.0585077
0.0290753
-0.0667051
0.0336157
-0.0364894
-0.0561681
0.035975
-0.0315204
-0.0717855
0.0392897
-0.0703444
-0.0543796
-0.0316743
0.0256217
0.0608558
0.0327491
-0.0279674
-0.0668542
0.0620724
0.0729477
-0.0757687
-0.0319398
-0.0349985
0.0781278
-0.0794282
-0.0283346
-0.0291604
0.0806388
-0.0804541
-0.0207493
-0.0245124
0.0816387
-0.081057
-0.000144054
-0.0098555
0.0803621
-0.0791592
0.0223332
0.0100606
0.0777838
-0.0758406
0.0345702
0.0256193
0.0740214
-0.0718217
0.0356422
0.0307596
0.069961
-0.0677692
0.032054
0.0289142
0.0658112
-0.0632852
0.0288652
0.0258177
0.0608848
-0.0578424
0.0248099
0.0231716
0.0551824
-0.0521938
0.0161124
0.0180237
0.0500051
-0.048227
0.00257329
0.00824958
0.0477704
-0.0486553
-0.0104883
-0.00387019
0.0506282
-0.0536575
-0.017393
-0.0125903
0.0558564
-0.0568134
-0.0189237
-0.0165084
0.058211
-0.0630842
-0.0254547
-0.0232457
0.0688246
-0.0726999
-0.0276451
-0.0275108
-0.0336791
0.0370003
-0.0751067
0.0852721
0.0413041
-0.0561015
-0.0704747
-0.0211069
-0.058183
0.0608616
0.0362823
0.0585416
-0.0565429
0.031617
0.0338923
-0.0678266
0.0746279
0.0258882
0.0347088
-0.0786455
0.0823376
0.00299847
0.0164518
-0.0850009
0.086142
-0.0214811
-0.00918503
-0.0850717
0.0827191
-0.0318616
-0.0238417
-0.0802287
0.0771595
-0.0326322
-0.0276438
-0.0747011
0.0719609
-0.0304893
-0.0265843
-0.0698178
0.0674486
-0.0281583
-0.0246073
-0.0655692
0.0632953
-0.0256619
-0.0225796
-0.061237
0.0586262
-0.023555
-0.020585
-0.0565058
0.0544314
-0.0197616
-0.0185691
-0.0532851
0.0527847
-0.0102687
-0.0131902
-0.0530315
0.0540544
0.00311088
-0.0030995
-0.0553093
0.0568685
0.015176
0.00803604
-0.0606479
0.062348
0.0213107
0.0172146
0.0259692
-0.0242263
0.0287895
0.0641381
0.0650703
-0.0308822
0.0301578
0.0670312
0.065346
-0.0316791
0.0319605
0.0663705
0.0644791
-0.0319634
0.031665
0.0666365
0.0642276
-0.0321264
0.0321807
0.0676241
0.066706
0.0728989
-0.0557205
-0.0655488
-0.0255003
0.0720189
-0.0626075
0.0307746
0.074363
0.0290708
-0.0393079
-0.0557137
0.0376306
-0.05746
-0.0404208
-0.0569305
0.0355209
-0.0613303
-0.0403858
-0.0584674
0.0366013
-0.071834
-0.0381465
-0.0568506
-0.0314038
-0.0539706
0.0288315
-0.0325787
-0.0549932
0.0403843
-0.0677998
0.0390389
-0.0723831
0.039286
-0.0730886
0.0407969
-0.0641493
-0.0638108
0.0739783
-0.0185697
0.00840223
-0.0677688
-0.0240094
0.0321988
-0.0293448
-0.0697082
0.0725163
-0.0766399
-0.0278163
-0.0280309
0.0781369
-0.0802259
-0.0262456
-0.0276634
0.0823938
-0.0835288
-0.0196143
-0.0223446
0.0838503
-0.0833736
-0.000620818
-0.00953397
0.0824676
-0.0809133
0.0207789
0.00915463
0.0792518
-0.0769981
0.0323165
0.0239578
0.074932
-0.0724815
0.0331917
0.0286934
0.0704454
-0.0680839
0.0296926
0.0268781
0.0660062
-0.0633616
0.0262207
0.0237399
0.0608864
-0.0577903
0.0217138
0.0206964
0.0551287
-0.0522368
0.0132204
0.0153621
0.0502747
-0.0489556
0.00125418
0.00628749
0.0489726
-0.0503797
-0.00908119
-0.00385319
0.0524557
-0.0551912
-0.0146576
-0.0105143
0.0573376
-0.0572466
-0.0190147
-0.0143619
0.0616905
-0.0652169
-0.0219283
-0.0188019
0.068889
-0.0736264
-0.0229078
-0.0238387
-0.020755
-0.0563731
0.0585196
0.0294706
0.0238271
-0.0268513
-0.0509464
0.0545574
-0.0507799
0.0200496
0.0270158
-0.0615902
0.0663714
0.0315011
0.0308217
-0.0741276
0.0775598
0.0224561
0.0269525
-0.0832756
0.0872668
-0.000992712
0.010736
-0.0887279
0.088457
-0.0212103
-0.0106461
-0.0867316
0.0837254
-0.0288554
-0.0221163
-0.0809377
0.0776738
-0.0293683
-0.0248561
-0.0751258
0.0723318
-0.0276952
-0.0240363
-0.0701583
0.067756
-0.025756
-0.0224338
-0.0658741
0.0636745
-0.0234622
-0.0206977
-0.0617379
0.0592699
-0.0210869
-0.0186485
-0.0572116
0.0551054
-0.0176554
-0.0165108
-0.0538886
0.0533066
-0.00968664
-0.0119734
-0.0535044
0.0545024
0.00211292
-0.00329736
-0.0557945
0.0577077
0.0132628
0.00674391
-0.0590948
0.0604415
0.019964
0.0158275
0.0238032
-0.0275554
0.0268989
0.0615124
0.0280795
-0.0257696
0.057667
0.0604515
-0.0278413
0.0283058
0.0636737
0.0641278
-0.0295784
0.0306902
0.0659194
0.0640734
-0.0314972
0.0320426
0.0658251
0.0636721
-0.0322947
0.0322563
0.0666749
0.0639755
-0.0322302
0.0322222
0.0676321
0.0667321
-0.0322758
0.0319413
0.0741681
0.0728453
-0.0323872
0.0763745
0.0303757
0.075504
-0.0573978
-0.0384575
-0.0576769
0.0371738
-0.0591129
-0.0393562
-0.0579601
0.0365803
-0.0613094
0.0334316
-0.0342862
0.0772292
0.0758776
-0.0748034
0.0293015
0.0779302
0.0313791
-0.0381764
-0.0584376
-0.0351505
-0.0542788
-0.0304366
-0.0514079
-0.0193544
-0.0470436
0.0156181
-0.0235276
-0.0467732
-0.0665202
0.0350705
0.0413171
-0.070078
0.0387457
-0.0718429
0.0379874
-0.070279
0.0357698
-0.0677203
0.0568587
-0.0637362
-0.0188921
-0.0711948
-0.0259188
-0.0276525
0.0289112
-0.070967
-0.0226333
-0.076214
-0.0273397
0.0264786
0.0585281
0.0552718
-0.0257527
0.068129
-0.0696137
-0.0240157
-0.0226122
0.0726937
-0.0766773
-0.0238327
-0.0249509
0.0802841
-0.0811728
-0.0253569
-0.0240566
0.084012
-0.0853534
-0.0182729
-0.0195054
0.0856785
-0.0850765
-0.00122282
-0.00920887
0.083916
-0.0820355
0.0188983
0.00799419
0.0801447
-0.0776707
0.0298425
0.022067
0.0754568
-0.0728614
0.0305963
0.0264795
0.0707256
-0.0682662
0.0272332
0.0247423
0.0661111
-0.0633865
0.0234961
0.0215847
0.0608652
-0.0577642
0.0186128
0.0181752
0.0551787
-0.0525331
0.0105748
0.0127766
0.0509546
-0.0502438
0.000543384
0.00470899
0.0507676
-0.052485
-0.00736377
-0.0033294
0.0544255
-0.0566916
-0.0123915
-0.00857383
0.0584546
-0.0604181
-0.0170512
-0.0125989
0.0629477
-0.0649492
-0.0199268
-0.0162723
0.0687209
-0.0700003
-0.0216284
-0.020067
0.069375
-0.0684049
-0.0195398
-0.0213802
0.0705667
-0.0726481
-0.0238373
-0.0218476
-0.0528294
0.053897
0.0189819
0.0121696
-0.0134887
-0.0457244
0.0514637
-0.0506912
0.011397
0.0142525
-0.0573203
0.0611478
0.025643
0.0235925
-0.0649304
0.0706912
0.0257403
0.0270391
-0.0763312
0.0819645
0.0168228
0.0213125
-0.0872278
0.0905224
-0.00428733
0.00547272
-0.0910632
0.0896551
-0.0198023
-0.0111868
-0.0873643
0.0839905
-0.0254816
-0.0198254
-0.0810683
0.0777642
-0.0260642
-0.021934
-0.075232
0.0724918
-0.0249551
-0.0215041
-0.0703694
0.0680112
-0.0233978
-0.0203114
-0.0661651
0.064063
-0.0213601
-0.0188516
-0.0622757
0.0600163
-0.0188275
-0.0168612
-0.0580867
0.0560097
-0.0155784
-0.0145813
-0.0547363
0.0540273
-0.00897761
-0.0107
-0.0541356
0.0550131
0.00123541
-0.00340566
-0.0559627
0.0588893
0.0103362
0.00579435
-0.0599941
0.0622441
0.017714
0.0147227
-0.0652852
0.0712462
0.0248137
0.0207621
0.0255135
-0.0262298
0.0270587
0.0606835
0.0607003
-0.0271979
0.0276527
0.063219
0.0639886
-0.0291295
0.0304424
0.0646064
0.0625966
-0.0314612
0.0322285
0.0650578
0.0626533
-0.0326812
0.032841
0.0665151
0.0635228
-0.0330123
0.0332199
0.0674246
0.0665608
-0.0339163
0.0357519
0.0723325
0.0721489
0.0769696
-0.0586815
-0.0706575
-0.0246239
-0.0249385
0.014514
-0.0657895
-0.0404417
-0.0551542
-0.0384169
-0.0586162
0.0377437
-0.0602762
0.0331394
-0.0331291
0.0772188
0.0340369
0.0770327
-0.0389201
-0.0572164
-0.0381204
-0.0554676
-0.0337955
-0.0509199
-0.0271388
-0.0477967
-0.016818
-0.0434439
-0.00701435
-0.0517297
0.00805286
-0.00811909
-0.0446197
-0.0659725
0.0407694
0.0388304
-0.0701626
0.0382781
-0.0721336
0.0385987
-0.0731079
0.034893
-0.073702
0.0230486
-0.0795016
-0.030267
0.0264086
0.0623866
-0.0388325
0.0638372
0.0650911
-0.0671957
-0.0167875
-0.0752854
0.0773217
0.0293428
-0.0737918
0.0278078
0.0425135
-0.00317511
0.0383519
-0.0645908
0.0694784
-0.0722565
-0.0212376
-0.0203294
0.0750177
-0.0770033
-0.0218471
-0.0221897
0.0804314
-0.0830681
-0.0227202
-0.0206285
0.0849869
-0.0865054
-0.0167544
-0.0175866
0.0868751
-0.086159
-0.001939
-0.00883911
0.0847537
-0.0825349
0.0166795
0.0065889
0.0804295
-0.0778258
0.0272388
0.0199616
0.0755552
-0.072893
0.027934
0.024209
0.0706801
-0.0681109
0.024664
0.0225295
0.0658663
-0.0630744
0.0207043
0.0193401
0.0605648
-0.0576038
0.0156517
0.0156655
0.055292
-0.0531739
0.00845674
0.0104648
0.0521837
-0.0521588
0.00051852
0.0037188
0.0530407
-0.054723
-0.00568139
-0.00244759
0.0562897
-0.0580184
-0.0106628
-0.00700716
0.0594505
-0.0612728
-0.0152289
-0.0111668
0.0630235
-0.0645275
-0.0184228
-0.0145216
0.0677848
-0.068736
-0.0206772
-0.0168097
0.0712126
-0.0713365
-0.019416
-0.0189035
0.0732749
-0.0758514
-0.0212608
-0.0199092
0.00214384
-0.108375
0.0726062
-0.0996916
-0.0280688
-0.0278691
-0.0590319
0.0584362
0.0119928
0.00487541
-0.00265057
-0.0539546
0.0595549
-0.0603524
0.0056729
0.00857584
-0.0575637
0.0590908
0.0174548
0.015125
-0.062069
0.0661095
0.0216026
0.0206143
-0.0703705
0.076092
0.0200188
0.0227781
-0.0812254
0.0870347
0.0110134
0.0161791
-0.0904835
0.0922299
-0.00603377
0.00202399
-0.0917775
0.0895251
-0.0175499
-0.0107345
-0.0868879
0.0834543
-0.022048
-0.0171882
-0.0806303
0.0775025
-0.0229364
-0.0191099
-0.0751125
0.0725212
-0.0223638
-0.019114
-0.0705074
0.0682489
-0.0211393
-0.0182976
-0.066467
0.0644636
-0.0193567
-0.0170697
-0.0628227
0.0608026
-0.0168074
-0.0152203
-0.0590617
0.0570906
-0.0136073
-0.0128403
-0.0557974
0.0549422
-0.00812232
-0.00940691
-0.054927
0.0557055
0.000456927
-0.00339048
-0.0571997
0.0580288
0.00950715
0.00430007
-0.0608099
0.0639339
0.01459
0.0119415
-0.0665165
0.07111
0.0202202
0.0181795
0.0228317
-0.0253896
0.0248485
0.0612246
0.0617193
-0.026079
0.0278988
0.0613992
0.0627581
-0.0285923
0.030049
0.0631497
0.0619031
-0.031223
0.0321562
0.0641245
0.0614793
-0.0327646
0.0330726
0.066207
0.0629144
-0.0340749
0.0320536
0.0694459
0.0655585
-0.0331584
0.0332334
0.0722574
0.0710441
0.077074
-0.0593547
0.036013
0.0753456
-0.0393014
-0.058235
-0.0394776
-0.0558591
-0.0368104
-0.0524527
-0.0305133
-0.0475454
-0.0216394
-0.0429753
-0.0107255
-0.0408375
-0.0677863
0.0406443
0.0405201
-0.0724046
0.0393736
-0.0729085
0.0369049
-0.0751199
-0.00189305
-0.0453772
-0.00160988
-0.0613019
0.00255936
0.00179694
-0.0573614
0.0289982
-0.0796515
0.0166557
-0.0940135
0.0193102
-0.096665
-0.0223369
-0.0633181
0.0391522
-0.0610765
0.011532
-0.100597
0.0401316
-0.063953
-0.0404505
0.0558062
0.022901
-0.0382567
0.0677127
-0.0685239
-0.0159764
0.00121952
0.0702775
-0.0727599
-0.0187552
-0.0185758
0.076255
-0.077491
-0.0206111
-0.0186946
0.0806061
-0.0833363
-0.01999
-0.0175135
0.0853632
-0.0870282
-0.0150894
-0.0155597
0.087487
-0.0867324
-0.0026936
-0.00838032
0.0851031
-0.0824983
0.0140747
0.00495968
0.0800865
-0.0772879
0.0244402
0.0175498
0.0749632
-0.0722713
0.0252421
0.0218843
0.0700029
-0.0673486
0.0220096
0.0202611
0.0650642
-0.062338
0.017978
0.0170558
0.0600348
-0.0575241
0.013141
0.0133624
0.0557721
-0.0544388
0.0071235
0.00871273
0.0540792
-0.0545236
0.00096289
0.00335919
0.055418
-0.0567084
-0.00439101
-0.00155317
0.0578066
-0.0590935
-0.00937592
-0.00590897
0.0603079
-0.0619477
-0.013589
-0.00995243
0.0634931
-0.06539
-0.0165259
-0.0129763
0.0671156
-0.0692317
-0.0185611
-0.0150841
0.0716892
-0.0720182
-0.019087
-0.0164461
0.0737238
-0.0757921
-0.0191924
-0.0182037
0.0833305
-0.0912525
-0.0201469
-0.0203307
-0.0180505
0.0215432
-0.100158
0.09378
-0.0950365
-0.016794
-0.0198094
-0.065223
0.0644187
0.00647713
-0.00133257
0.00297128
-0.0629406
0.0649895
-0.0647032
-0.00161893
0.00232595
-0.0640781
0.0645731
0.0114978
0.00891644
-0.0656484
0.0651129
0.0179902
0.0140497
-0.0694537
0.0710468
0.0200095
0.0162734
-0.0774284
0.0801848
0.0172624
0.0163965
-0.0855075
0.0897938
0.00672712
0.0108563
-0.0918251
0.0920902
-0.00629891
-7.24362e-06
-0.0908561
0.0882584
-0.0149522
-0.0095004
-0.0856574
0.082473
-0.0188636
-0.0145872
-0.0799042
0.0770518
-0.0200839
-0.0165412
-0.0748469
0.0724318
-0.0199488
-0.0169091
-0.0705476
0.0684256
-0.0190173
-0.0164134
-0.0667385
0.0648449
-0.0174631
-0.0153825
-0.0633392
0.0615588
-0.015027
-0.0137146
-0.0600469
0.0582708
-0.0118311
-0.0113284
-0.057022
0.0560506
-0.00715086
-0.00815819
-0.0558754
0.0564129
-8.05099e-05
-0.00321532
-0.0574331
0.0592028
0.00773742
0.00327986
-0.0618087
0.0623592
0.0140395
0.00933564
-0.0661196
0.0684313
0.0179086
0.0144191
-0.0724727
0.0752459
0.0250347
0.0187902
-0.0767989
0.0665663
0.0462456
0.0277898
-0.0237275
0.0225151
0.0635989
0.0663718
-0.021975
0.0222484
0.0609512
0.0622594
-0.0252553
0.0251612
0.0614933
0.0597512
-0.0276206
0.0290989
0.0616715
0.0594437
-0.0303393
0.0313727
0.0630911
0.0602389
-0.0320959
0.0325287
0.0657742
0.0621913
-0.0326129
0.0323113
0.0697476
0.0654743
-0.0336546
0.0316601
0.074252
0.0697007
-0.0325487
0.0324847
0.0772829
0.0761853
-0.0324544
0.0368742
0.0709258
0.0770629
0.06299
-0.0595039
-0.0404491
-0.0572635
-0.0394165
-0.053253
-0.0349546
-0.0480114
-0.0265492
-0.0426357
-0.0153684
-0.0383324
-0.0692013
0.0419351
0.0414569
-0.074488
0.0396633
-0.0756668
-0.00381083
-0.0389197
0.00257664
-0.0461569
0.00292085
-0.0573109
0.0337862
-0.0799079
0.0258257
-0.0888216
0.0198336
-0.102315
0.00476371
-0.0652923
-0.00417457
0.00296017
-0.061137
0.0220295
-0.101083
0.0163977
-0.0982128
-0.0132214
0.0153903
-0.0991503
0.00893122
-0.0660737
0.102125
-0.0449826
-0.0672908
-0.0123616
0.064631
-0.0763452
-0.0134003
-0.01417
0.0789075
0.0406815
-0.0616264
-0.0599892
0.0168165
0.0416188
-0.0649276
0.0673785
-0.068786
-0.0145689
-0.00774716
0.0701396
-0.073659
-0.0152358
-0.0172222
0.0756228
-0.0781508
-0.018083
-0.0167309
0.0804029
-0.0830874
-0.0173055
-0.0152614
0.0851486
-0.0869544
-0.0132836
-0.0134985
0.0875801
-0.0869568
-0.00331689
-0.00775468
0.0852587
-0.0823182
0.0111341
0.00326162
0.079511
-0.0763169
0.0212461
0.0147426
0.0738117
-0.071061
0.0224914
0.019379
0.0688116
-0.0662408
0.0194388
0.0180117
0.064118
-0.0617467
0.0156068
0.014933
0.0599135
-0.0581237
0.0113512
0.0115292
0.0570481
-0.0564189
0.00649425
0.00763717
0.0564173
-0.0568847
0.00143028
0.0033576
0.0574911
-0.0582943
-0.00358774
-0.000946807
0.0590392
-0.0600739
-0.00834128
-0.00516408
0.0611508
-0.062618
-0.0121218
-0.00887547
0.063988
-0.0656933
-0.0148205
-0.0116063
0.0672379
-0.0691539
-0.016645
-0.0135395
0.070897
-0.0724825
-0.0175014
-0.0147031
0.0751305
-0.0777245
-0.0165983
-0.0155557
0.0825764
-0.0876498
-0.0150734
-0.0154789
0.0903986
-0.0928213
-0.0143713
-0.0170606
-0.00903355
0.00897447
-0.0981538
0.0944044
-0.094348
-0.00908998
-0.0116382
-0.0655948
0.0652894
-0.00131354
-0.00747301
0.00635407
-0.0641734
0.0674443
-0.0683124
-0.00660492
-0.00232511
-0.065011
0.0651247
0.00636336
0.0026044
-0.0655756
0.0662443
0.0108291
0.0084656
-0.0680232
0.0704955
0.0155179
0.0122709
-0.0730303
0.0766188
0.016421
0.0137387
-0.0800712
0.0843706
0.012963
0.0129441
-0.0875748
0.0901393
0.00416255
0.00765218
-0.0909383
0.0903072
-0.00566783
-0.000806185
-0.0888042
0.0863316
-0.0124796
-0.00799741
-0.0840171
0.0812309
-0.0160774
-0.0122726
-0.0789751
0.0764401
-0.017549
-0.0142853
-0.0744507
0.072243
-0.0177411
-0.0149197
-0.0705092
0.0685517
-0.0170598
-0.0146796
-0.0669856
0.065218
-0.0156956
-0.0138164
-0.0638312
0.0622573
-0.0134532
-0.0123277
-0.0609714
0.0594562
-0.010316
-0.0100425
-0.0583282
0.0573264
-0.00614906
-0.00703015
-0.0569938
0.0572797
-0.000366367
-0.00288275
-0.0580697
0.0595874
0.00621969
0.00248982
-0.0610712
0.0632701
0.0118406
0.00785189
-0.0651262
0.0682907
0.014744
0.012563
-0.0691785
0.0737955
0.0204177
0.0179024
-0.0758607
0.105874
0.0162322
0.0257246
0.00762819
-0.0173378
0.0174872
0.0634496
0.0638328
-0.0205165
0.0209946
0.060473
0.05923
-0.022649
0.0242953
0.059847
0.0580968
-0.0257814
0.0271945
0.0602583
0.0579576
-0.0284204
0.0294868
0.0620247
0.059013
-0.0302783
0.0308043
0.0652482
0.0613997
-0.0310057
0.0308607
0.0698926
0.0652729
-0.0303921
0.0295204
0.0751237
0.0701694
-0.0291287
0.0287642
0.0776474
0.076577
-0.0266464
0.0241444
0.0734278
0.0791807
0.0729644
-0.0592715
-0.0410041
-0.0556759
-0.0379754
-0.0502323
-0.0307835
-0.043777
-0.01987
-0.0381341
-0.0700969
0.0423525
0.040852
-0.0756767
-0.00714717
-0.0349961
0.00278227
-0.0391253
0.00538664
-0.0486227
0.0375721
-0.0794527
0.0304817
-0.0845639
0.0238238
-0.0928118
0.00345696
-0.0578077
0.0198329
-0.100118
0.0070606
-0.0618436
0.0165214
-0.102214
0.00714347
-0.0670766
-0.00837919
0.00876834
-0.0657983
0.010386
-0.100562
0.00505663
-0.0935823
-0.00582237
0.00617477
-0.0992719
-0.00126253
0.0922683
0.0111193
-0.0700616
0.0656739
-0.00797386
-0.0711252
-0.0123368
-0.00922286
0.0868678
0.0417299
-0.0617375
0.00995849
-0.00869541
0.0633679
0.011093
0.0622798
-0.0689121
0.0407459
0.0423662
-0.0653587
0.0682798
-0.0691339
-0.0137148
-0.0105925
0.0724502
-0.07283
-0.014856
-0.0139059
0.0754702
-0.0778046
-0.0157486
-0.0140906
0.0798989
-0.0824159
-0.0147885
-0.0131671
0.08442
-0.0863105
-0.0113931
-0.0114944
0.0871519
-0.0868715
-0.00359731
-0.00691322
0.0853956
-0.0824643
0.00820285
0.0017857
0.0794251
-0.0758323
0.0176532
0.0117034
0.0730618
-0.0702022
0.0196318
0.0166086
0.0680352
-0.0657277
0.0171313
0.0158447
0.063953
-0.0621213
0.0137751
0.0131582
0.0608257
-0.0596736
0.0101991
0.0102336
0.0590398
-0.0586864
0.00614087
0.00700341
0.0586552
-0.0588301
0.00160512
0.00332639
0.0590968
-0.0595497
-0.00313481
-0.000680074
0.0601
-0.0609831
-0.00745817
-0.0046138
0.0619341
-0.0632213
-0.0108346
-0.00792443