/*--------------------------------*- C++ -*----------------------------------*\
  =========                 |
  \\      /  F ield         | OpenFOAM: The Open Source CFD Toolbox
   \\    /   O peration     | Website:  https://openfoam.org
    \\  /    A nd           | Version:  10
     \\/     M anipulation  |
\*---------------------------------------------------------------------------*/
FoamFile
{
    format      ascii;
    class       volScalarField;
    location    "7.5";
    object      p;
}
// * * * * * * * * * * * * * * * * * * * * * * * * * * * * * * * * * * * * * //

dimensions      [0 2 -2 0 0 0 0];

internalField   nonuniform List<scalar> 
28942
(
-0.386805
-0.382267
-0.19866
0.181036
0.190731
-0.0132197
-0.00747065
-0.0154506
-0.0248087
-0.0206655
-0.382053
-0.380207
-0.386556
-0.385157
-0.00111869
0.00369309
0.449007
0.472242
0.154243
0.22902
0.338162
0.339998
-0.40562
-0.409571
-0.395441
-0.4304
0.773333
0.788701
-0.0129994
-0.00058715
-0.0239224
-0.021642
0.0276011
0.00357284
0.169307
0.217456
0.461365
0.587723
-0.0163912
0.48152
0.250171
0.278212
-0.0631885
-0.0512697
-0.0616937
-0.00866482
-0.0062737
-0.00801649
-0.00612912
0.00301695
0.0152916
-0.0436574
-0.0397854
-0.011056
-0.00608114
-0.345321
-0.301856
-0.389964
-0.386941
-0.390463
-0.392972
-0.393377
-0.391089
-0.149798
-0.24214
-0.130037
-0.0610736
0.416917
0.388005
-0.392655
-0.395217
-0.396953
0.415454
0.393803
0.412791
-0.253157
-0.254316
-0.208173
-0.175489
-0.226775
-0.15236
-0.275946
-0.443004
-0.477845
-0.0319311
0.0563535
0.12377
0.0986904
0.037136
0.0413724
0.0785276
0.0976672
-0.386405
-0.394691
-0.379645
-0.371838
-0.370065
0.0925974
0.141293
-0.51279
0.209392
0.211207
0.187336
0.194383
-0.205502
-0.20718
-0.218439
0.159311
0.170066
0.169709
-0.387029
-0.385062
-0.38586
-0.358832
-0.365356
0.859679
0.793276
0.736584
0.809758
0.00306519
0.145753
0.0798657
0.067181
0.050969
0.900077
0.911054
0.877737
0.0788411
0.118613
-0.00942822
-0.00871194
-0.0116767
0.431521
0.5335
0.177209
0.167454
0.2475
0.190963
0.332149
0.343484
-0.375936
-0.376219
0.133681
-0.069312
-0.060761
-0.270955
-0.292463
-0.275804
-0.379124
0.170372
0.174863
-0.0211232
-0.016485
-0.0169515
-0.0143039
-0.0149813
0.242579
0.162389
-0.338425
-0.345558
-0.349126
-0.397037
-0.397365
-0.0100116
-0.414221
-0.389457
0.361124
0.375072
0.428107
0.405796
0.330536
-0.0172313
-0.0222743
-0.00186379
-0.0113974
0.129486
0.116645
0.139177
0.151017
0.15096
0.166597
0.180958
0.220232
0.199136
0.178993
0.201055
0.243443
0.303371
0.321001
-0.395648
-0.396189
-0.363692
-0.0109373
-0.00889819
-0.323673
-0.337871
-0.000728275
-0.00107627
-0.00338547
-0.00429243
0.0860526
0.0853446
0.0832363
-0.382289
-0.384787
-0.385117
-0.398557
-0.400247
-0.398434
-0.420531
-0.472335
-0.438599
0.847312
0.819257
0.86044
-0.193727
-0.185126
-0.198111
0.46121
0.444238
0.453184
0.0404516
0.0391471
0.0418133
0.0378892
0.0366961
0.0355551
0.0355207
0.0344581
0.0344434
0.0366476
0.0378366
0.0390912
0.0404155
0.0417819
0.0334237
0.0333917
0.0432278
0.0432092
0.0447426
0.0324342
0.0323723
0.0447437
0.0314687
0.0305405
0.0314127
0.0304961
0.0463282
0.0463332
0.0296511
0.0296139
0.0479563
0.0479745
0.0287967
0.0287646
0.0496883
0.0497124
0.0279749
0.0279464
0.0514906
0.051532
0.027183
0.0271585
0.0533905
0.0534474
0.0264198
0.0263989
0.0553877
0.0554559
0.0256828
0.0256662
0.0574801
0.057555
0.0249699
0.0249563
0.0596803
0.0597612
0.0242791
0.024261
0.0620118
0.0620869
0.0236094
0.0235784
0.0644285
0.0645068
0.0229388
0.0229119
0.0670299
0.0671015
0.0222669
0.0222584
0.0641194
0.0666817
0.0697441
0.0697979
0.0593882
0.0617346
0.0551429
0.0572374
0.051327
0.0531869
0.0478405
0.049551
0.0446232
0.0462146
0.041775
0.0431977
0.0391378
0.0404157
0.036691
0.0378806
0.0344434
0.0355488
0.0324112
0.0334069
0.0305207
0.031448
0.0287778
0.0296317
0.0271647
0.0279564
0.0256638
0.0264011
0.0242615
0.0249508
0.0229192
0.0235889
0.0222654
0.0216226
0.0216152
0.0235362
0.0222351
0.02288
0.0249033
0.0242091
0.0263386
0.025609
0.0278778
0.0270942
0.0295362
0.0286915
0.0313253
0.0304136
0.033284
0.0322794
0.0354146
0.0343391
0.0377264
0.0365503
0.0402773
0.0389633
0.0430852
0.0416681
0.046182
0.0445892
0.0495738
0.0478381
0.0533015
0.0513937
0.0573995
0.055301
0.0619191
0.0595938
0.0668529
0.0643235
0.0695309
0.0693765
0.0216235
0.0215996
0.0726376
0.0723229
0.072179
0.0725835
0.0635861
0.0686789
0.0660612
0.0589591
0.061218
0.0548165
0.0568226
0.0510911
0.0529138
0.0476608
0.0493417
0.0445221
0.046053
0.041651
0.0430708
0.0390344
0.0403292
0.0366221
0.037778
0.0343872
0.0354849
0.0323577
0.0333506
0.0304791
0.0314009
0.0287417
0.0295934
0.0271313
0.0279219
0.0256317
0.0263684
0.0242303
0.0249191
0.0228943
0.0235552
0.020997
0.0210019
0.0216157
0.0222484
0.0221946
0.0215732
0.0209825
0.0209882
0.0234789
0.0228317
0.0248236
0.0241361
0.02625
0.0255244
0.027777
0.0269997
0.029421
0.0285835
0.0311969
0.0302915
0.0331323
0.0321426
0.0352458
0.0341681
0.0375538
0.0363727
0.0400687
0.0387765
0.0428552
0.0414417
0.0459224
0.0443551
0.0492986
0.0475738
0.0529987
0.0511069
0.0570478
0.0549786
0.0614709
0.0592123
0.0663167
0.0638379
0.0716431
0.068911
0.071428
0.0752655
0.07455
0.075573
0.0210047
0.0209553
0.0750625
0.0743077
0.078309
0.0774956
0.0755441
0.0215936
0.0209891
0.0203769
0.0203527
0.0733404
0.077343
0.0787715
0.0764515
0.0677247
0.0704083
0.0628328
0.065214
0.0583891
0.0605587
0.0543782
0.0563192
0.050743
0.052526
0.0473821
0.0490283
0.0443007
0.0458069
0.0414717
0.0428562
0.0388719
0.0401472
0.0364861
0.0376511
0.0342836
0.0353628
0.0322662
0.0332535
0.0304011
0.0313163
0.0286727
0.0295205
0.0270685
0.0278562
0.0255737
0.0263083
0.0241749
0.0248629
0.0228496
0.0235021
0.0222111
0.0204002
0.0204009
0.0204053
0.0203893
0.0221308
0.0209134
0.021519
0.0233965
0.0227567
0.0247245
0.0240472
0.0261385
0.0254198
0.0276506
0.0268813
0.0292767
0.0284485
0.0310341
0.0301379
0.0329446
0.0319691
0.0350281
0.0339635
0.037306
0.0361416
0.0398005
0.0385238
0.0425507
0.0411428
0.0455733
0.0440261
0.0488993
0.0471983
0.0525431
0.050681
0.0565213
0.0544898
0.0608425
0.0586403
0.0655326
0.0631388
0.0706225
0.0680286
0.076294
0.0733581
0.0805701
0.0792767
0.0781175
0.0786497
0.0203928
0.0203205
0.0803883
0.0814265
0.0824538
0.0823755
0.0837454
0.0799195
0.0843457
0.0785984
0.0769776
0.0785538
0.0720979
0.0748789
0.0666111
0.0692472
0.0619106
0.064183
0.0576743
0.0597605
0.0538118
0.0556947
0.050269
0.0520072
0.0469918
0.0485975
0.0439757
0.0454526
0.0412019
0.0425596
0.0386475
0.0398983
0.0362949
0.0374478
0.0341259
0.0351886
0.032128
0.0331067
0.0302801
0.0311868
0.0285659
0.0294071
0.0269731
0.0277553
0.0254874
0.0262177
0.0240959
0.0247805
0.0227842
0.0234291
0.0215467
0.0221578
0.0203562
0.0209439
0.0198233
0.0197783
0.0198077
0.0198225
0.0198269
0.019798
0.0198113
0.0197493
0.0197788
0.0208501
0.0197182
0.0202779
0.0220437
0.021442
0.0232922
0.0226616
0.0246062
0.0239388
0.0260054
0.0252948
0.0275002
0.02674
0.0291058
0.0282882
0.0308397
0.0299556
0.0327219
0.0317614
0.0347708
0.0337243
0.0370097
0.0358653
0.0394644
0.0382089
0.042162
0.0407809
0.0451264
0.0436097
0.0483797
0.0467162
0.0519365
0.0501198
0.0558093
0.0538332
0.0600045
0.0578672
0.0645284
0.0622246
0.0694074
0.0669232
0.0747308
0.0720019
0.0805715
0.0775943
0.0855573
0.0835949
0.0812719
0.0817893
0.0836436
0.0845712
0.0203058
0.0197421
0.0191959
0.0191512
0.0852377
0.0870083
0.0868659
0.0792168
0.0887733
0.086713
0.0830495
0.0817046
0.0752507
0.0771017
0.0705613
0.0730887
0.0653556
0.0678997
0.0608901
0.063046
0.0568394
0.0588283
0.0531069
0.0549331
0.0496693
0.0513548
0.0464901
0.0480485
0.0435557
0.0449936
0.0408496
0.0421756
0.0383519
0.0395759
0.0360442
0.0371755
0.0339129
0.0349577
0.0319428
0.0329087
0.0301183
0.0310136
0.0284239
0.0292557
0.0268471
0.0276217
0.0253748
0.0260988
0.0239946
0.024674
0.0226979
0.0233356
0.0214735
0.0220765
0.0208806
0.0192651
0.0192219
0.0192493
0.0192653
0.0192726
0.0192459
0.0192595
0.0192246
0.0207683
0.0196449
0.0202087
0.0219376
0.0213472
0.0231688
0.0225462
0.0244695
0.02381
0.0258514
0.0251497
0.0273265
0.0265766
0.028909
0.0281035
0.0306155
0.0297458
0.0324645
0.0315213
0.034474
0.0334481
0.0366658
0.0355459
0.0390652
0.0378383
0.0416962
0.0403505
0.0445817
0.0431062
0.0477403
0.0461261
0.051182
0.0494251
0.0549179
0.0530132
0.0589532
0.0568983
0.0632936
0.0610851
0.0679511
0.0655825
0.0729406
0.0704054
0.0783964
0.075578
0.0841863
0.0812845
0.089859
0.0871751
0.0844295
0.084939
0.0191757
0.0190934
0.0863125
0.0876603
0.0886708
0.0878899
0.0902993
0.0866694
0.0891273
0.0915923
0.0920936
0.0931028
0.0902362
0.0848608
0.0781465
0.0843926
0.0813579
0.0732881
0.0755127
0.0687988
0.0711655
0.0639832
0.0663414
0.0597331
0.0617943
0.0558519
0.0577571
0.0522594
0.0540193
0.0489458
0.0505702
0.0458795
0.0473833
0.0430419
0.0444333
0.0404167
0.0417041
0.0379861
0.0391783
0.0357339
0.0368387
0.0336475
0.034671
0.0317133
0.0326622
0.0299182
0.0307994
0.0282485
0.0290686
0.0266921
0.027457
0.025237
0.0259527
0.0238721
0.024544
0.0225883
0.0232207
0.0213785
0.0219747
0.0202286
0.0207976
0.0191103
0.019669
0.018678
0.0185676
0.0186253
0.0187306
0.0187105
0.0187378
0.0187375
0.0187153
0.0187313
0.0186593
0.0186929
0.0185603
0.0186134
0.0195561
0.0184962
0.0190209
0.0206635
0.0201083
0.0218153
0.0212328
0.0230292
0.022414
0.0243137
0.0236624
0.0256769
0.0249849
0.0271303
0.0263917
0.0286871
0.027895
0.0303626
0.0295092
0.0321735
0.0312503
0.0341375
0.0331354
0.0362741
0.0351831
0.0386061
0.0374145
0.0411557
0.0398527
0.0439431
0.0425188
0.0469841
0.0454315
0.0502892
0.0486037
0.053864
0.0520429
0.0577129
0.0557543
0.061842
0.0597421
0.0662615
0.0640156
0.0709608
0.0685783
0.0759855
0.0734252
0.0812776
0.0786131
0.0868617
0.0840197
0.0932887
0.0896981
0.0874182
0.087034
0.0899404
0.0190347
0.0185067
0.0180386
0.0179759
0.0882449
0.0912912
0.0923738
0.0937666
0.095507
0.0964388
0.0963414
0.092517
0.0880762
0.0816745
0.0901927
0.0869631
0.0843172
0.0760056
0.0788964
0.0711647
0.0734051
0.066889
0.0690858
0.0624529
0.064638
0.058419
0.0603843
0.054716
0.0565336
0.051282
0.0529655
0.0481078
0.0496643
0.0451664
0.0466096
0.0424382
0.0437769
0.0399064
0.041149
0.0375539
0.0387088
0.0353667
0.0364406
0.033333
0.0343315
0.0314418
0.0323704
0.0296819
0.0305463
0.0280414
0.0288475
0.0265094
0.0272627
0.025075
0.0257808
0.023728
0.0243912
0.0224598
0.0230846
0.021264
0.0218531
0.0201271
0.0206887
0.0195752
0.0181531
0.0180436
0.0181055
0.0182115
0.0181893
0.0182297
0.0182251
0.0182033
0.0182226
0.0181402
0.018177
0.0180933
0.0194557
0.0184115
0.0189293
0.0205366
0.0199901
0.0216745
0.021099
0.0228726
0.0222656
0.0241391
0.023497
0.025482
0.0248006
0.0269117
0.0261854
0.0284401
0.0276629
0.0300812
0.0292458
0.0318498
0.0309488
0.0337619
0.0327871
0.0358352
0.0347774
0.0380892
0.0369386
0.0405438
0.0392905
0.0432173
0.0418524
0.0461254
0.0446413
0.0492738
0.0476687
0.052671
0.0509416
0.0563166
0.0544629
0.0602138
0.0582336
0.0643677
0.0622589
0.0687719
0.0665394
0.0734167
0.0710673
0.0782279
0.0758068
0.0832338
0.0807049
0.0883377
0.0857851
0.0948662
0.0930847
0.0952781
0.0908338
0.0909663
0.0179923
0.0178966
0.0898248
0.0917242
0.0935202
0.0936803
0.0948779
0.0960902
0.0973714
0.0990444
0.099706
0.0993562
0.0979209
0.0931819
0.0915959
0.083412
0.0929646
0.0887839
0.0860056
0.0785885
0.081038
0.0735116
0.0760256
0.0689675
0.0711392
0.0648812
0.0669364
0.0607822
0.0628095
0.0569753
0.058837
0.0534612
0.0551864
0.0501958
0.051798
0.0471696
0.0486541
0.0443618
0.0457399
0.0417528
0.0430338
0.0393245
0.0405174
0.0370601
0.0381729
0.0349463
0.0359852
0.0329728
0.0339427
0.0311308
0.032036
0.0294112
0.0302564
0.0278043
0.0285944
0.0263004
0.0270402
0.0248897
0.025584
0.0235631
0.0242165
0.0223124
0.0229288
0.0211306
0.0217135
0.02001
0.0205633
0.0189416
0.0194686
0.0179132
0.0184269
0.017544
0.0174078
0.0174806
0.0176506
0.0176015
0.0177117
0.0176856
0.0177348
0.0177288
0.0177061
0.0177274
0.0176391
0.0176756
0.0175339
0.0175899
0.0173976
0.017469
0.0183061
0.0173129
0.0178072
0.0193324
0.0188144
0.0203961
0.0198582
0.0215177
0.0209499
0.0226989
0.0221006
0.023946
0.0233138
0.0252668
0.0245967
0.0266705
0.0259577
0.0281679
0.0274069
0.0297713
0.0289557
0.0314934
0.0306168
0.0333481
0.0324034
0.0353505
0.03433
0.0375174
0.0364125
0.0398659
0.038668
0.042413
0.0411139
0.0451716
0.0437657
0.0481559
0.0466361
0.0513653
0.0497326
0.0547992
0.0530546
0.0584548
0.0565996
0.0623283
0.060365
0.0664119
0.0643444
0.0706826
0.0685283
0.0750643
0.0728637
0.0795072
0.0772836
0.083971
0.0817408
0.0882128
0.0861598
0.0985041
0.096924
0.0953518
0.0901078
0.0946873
0.0953766
0.0915208
0.096053
0.0969227
0.0974922
0.0985908
0.0178162
0.0173256
0.0169094
0.0168302
0.0995994
0.101059
0.10258
0.103021
0.102312
0.100394
0.0943207
0.0892488
0.0915518
0.0974082
0.0918226
0.0971818
0.095287
0.0845188
0.0868481
0.0796447
0.0820257
0.07531
0.0774927
0.0708205
0.0730393
0.0666658
0.0686929
0.0627914
0.064716
0.0590021
0.0608793
0.0554325
0.0571841
0.0521137
0.0537442
0.0490211
0.0505396
0.046148
0.0475579
0.0434796
0.0447895
0.0409965
0.0422162
0.0386794
0.0398185
0.0365106
0.0375775
0.0344772
0.0354777
0.0325702
0.0335084
0.0307829
0.0316621
0.0291084
0.0299321
0.0275389
0.0283111
0.0260662
0.0267911
0.0246821
0.0253637
0.0233781
0.0240206
0.0221471
0.022754
0.0209821
0.0215568
0.0198779
0.0204227
0.0188268
0.019346
0.0183182
0.0170544
0.0169176
0.0169911
0.0171611
0.0171127
0.0172275
0.0171992
0.0172506
0.017245
0.0172234
0.0172436
0.0171529
0.017192
0.0170501
0.0171063
0.0169845
0.018186
0.017217
0.0176983
0.0191911
0.0186819
0.0202414
0.0197101
0.0213456
0.0207866
0.0225082
0.0219194
0.0237343
0.023113
0.0250311
0.0243735
0.0264067
0.0257085
0.0278705
0.027127
0.0294328
0.0286388
0.0311046
0.0302545
0.032897
0.0319851
0.0348225
0.0338424
0.0368948
0.0358395
0.0391293
0.0379909
0.041542
0.0403125
0.0441474
0.0428201
0.0469578
0.045527
0.0499746
0.0484407
0.0531933
0.0515593
0.0566047
0.0548757
0.0601956
0.0583789
0.0639497
0.0620534
0.0678371
0.0658805
0.0717941
0.0698112
0.0757366
0.0737745
0.0795763
0.0776764
0.0831017
0.0813983
0.0861012
0.084717
0.0992074
0.093194
0.0991663
0.0942968
0.0880024
0.0871686
0.10226
0.100667
0.0985772
0.0991671
0.0168412
0.016737
0.10046
0.101277
0.102408
0.103381
0.104816
0.10618
0.10634
0.105191
0.10277
0.0938422
0.0877562
0.0895611
0.0817543
0.0819087
0.0884773
0.0961705
0.0998615
0.102486
0.100627
0.0949889
0.0991381
0.0841019
0.0858997
0.0800935
0.0821113
0.0759314
0.078021
0.0720025
0.0739519
0.0680623
0.0700292
0.0642623
0.066136
0.0606497
0.0624388
0.0571492
0.0588845
0.0538184
0.0554579
0.050697
0.0522321
0.0477785
0.0492125
0.0450612
0.0463951
0.042535
0.0437753
0.0401815
0.0413381
0.0379802
0.0390632
0.0359122
0.0369306
0.0339645
0.034924
0.0321291
0.0330332
0.0304011
0.0312521
0.0287756
0.0295759
0.0272469
0.0279996
0.0258084
0.0265169
0.0244532
0.025121
0.0231741
0.0238047
0.0219645
0.0225611
0.0208182
0.0213838
0.0197302
0.0202673
0.0186953
0.0192065
0.0177077
0.0181957
0.0167476
0.0172225
0.0164452
0.0162803
0.0163653
0.0165828
0.0165168
0.0166876
0.0166387
0.0167554
0.016727
0.0167773
0.0167722
0.0167526
0.0167709
0.0166827
0.0167226
0.0165769
0.0166353
0.0164379
0.0165105
0.0162681
0.0163581
0.0170968
0.0161706
0.0166327
0.0180502
0.0175702
0.019037
0.0185378
0.020072
0.0195483
0.0211584
0.0206085
0.0223009
0.0217224
0.0235044
0.0228948
0.0247752
0.0241311
0.0261204
0.0254381
0.027548
0.0268234
0.0290664
0.0282954
0.0306842
0.0298624
0.0324103
0.0315332
0.0342542
0.0333169
0.0362271
0.0352238
0.0383428
0.0372663
0.0406171
0.0394592
0.0430658
0.0418189
0.045701
0.0443599
0.0485243
0.0470896
0.0515277
0.0500044
0.0546954
0.0530923
0.0580063
0.0563346
0.0614345
0.0597077
0.0649417
0.0631816
0.068469
0.0667072
0.0719322
0.0702154
0.0752083
0.0736044
0.0780982
0.0767148
0.0803375
0.0793324
0.0811551
0.106107
0.104248
0.0883843
0.0815656
0.102494
0.103068
0.10364
0.10516
0.106311
0.0166385
0.0161806
0.0158123
0.0157139
0.10734
0.108627
0.109786
0.109616
0.10805
0.105069
0.091344
0.0844298
0.0857541
0.093124
0.0984369
0.102472
0.105428
0.101955
0.0954464
0.0806661
0.0878747
0.10308
0.0817702
0.0829882
0.0790405
0.0805041
0.0756855
0.0774101
0.0722219
0.073962
0.0687529
0.0704849
0.0652572
0.0670093
0.0618057
0.0635174
0.0584778
0.0601273
0.0552506
0.0568516
0.0521551
0.0536827
0.0492314
0.0506711
0.0464872
0.0478366
0.0439264
0.045184
0.0415431
0.0427135
0.0393203
0.0404131
0.0372366
0.0382625
0.0352722
0.0362406
0.0334136
0.0343304
0.0316535
0.0325216
0.0299883
0.0308092
0.028415
0.0291904
0.02693
0.0276618
0.0255283
0.0262191
0.0242043
0.024857
0.022952
0.0235696
0.0217654
0.0223509
0.0206393
0.0211951
0.0195688
0.0200974
0.01855
0.0190532
0.0175781
0.0180576
0.0171054
0.0159842
0.0158213
0.0159083
0.0161219
0.0160574
0.0162285
0.0161795
0.0162942
0.016267
0.0163151
0.0163102
0.0162924
0.0163092
0.0162251
0.0162643
0.0161183
0.0161763
0.0159792
0.0160523
0.0158996
0.016964
0.0160576
0.0165099
0.0179
0.017427
0.0188711
0.0183799
0.0198889
0.019374
0.0209564
0.0204163
0.0220775
0.0215101
0.0232567
0.0226596
0.0244996
0.0238699
0.0258122
0.0251469
0.027201
0.0264967
0.0286727
0.0279262
0.0302338
0.0294418
0.0318904
0.0310498
0.0336498
0.0327569
0.0355207
0.0345707
0.0375158
0.0365019
0.0396511
0.0385649
0.0419433
0.0407767
0.0444048
0.0431527
0.0470364
0.0456999
0.0498266
0.0484129
0.0527535
0.0512746
0.0557889
0.0542596
0.058899
0.0573371
0.0620385
0.0604686
0.0651455
0.0636007
0.0681353
0.0666615
0.0708825
0.0695496
0.0732017
0.0721092
0.0748111
0.0741161
0.075564
0.0752992
0.0748617
0.0754705
0.079195
0.0720779
0.0737009
0.109912
0.107685
0.10649
0.107062
0.0157256
0.0156108
0.107265
0.109165
0.110282
0.111347
0.112466
0.113377
0.112836
0.110754
0.107103
0.0866857
0.0791054
0.0791825
0.0652073
0.0627258
0.0697062
0.0872964
0.0945709
0.100335
0.105089
0.10835
0.102905
0.0955032
0.0868352
0.0771203
0.107108
0.0778969
0.07862
0.0761104
0.0769652
0.0740855
0.0752249
0.0714289
0.0727996
0.0685464
0.0700097
0.065525
0.0670467
0.0624295
0.0639846
0.0593267
0.0608725
0.0562899
0.0577991
0.0533257
0.0547982
0.050461
0.051878
0.0477343
0.049079
0.0451638
0.0464288
0.0427589
0.0439405
0.0405175
0.0416185
0.0384244
0.0394538
0.036458
0.0374268
0.0345978
0.0355157
0.03283
0.033703
0.0311472
0.0319782
0.0295471
0.030337
0.0280288
0.028778
0.0265899
0.0272998
0.0252271
0.0258993
0.0239363
0.0245731
0.0227125
0.0233164
0.0215506
0.0221241
0.0204459
0.0209914
0.0193942
0.0199138
0.0183916
0.0188871
0.0174362
0.0179075
0.0165148
0.0169711
0.015615
0.0160654
0.0153749
0.0151729
0.0152756
0.0155396
0.0154621
0.0156747
0.015609
0.0157807
0.0157329
0.0158435
0.0158175
0.0158638
0.0158589
0.0158426
0.0158584
0.0157789
0.0158161
0.0156749
0.0157318
0.0155359
0.0156087
0.0153713
0.0154589
0.0151785
0.0152772
0.0159313
0.0150731
0.0155012
0.0168187
0.0163734
0.0177373
0.0172732
0.0186931
0.0182099
0.019693
0.0191874
0.0207403
0.0202106
0.0218385
0.0212829
0.0229919
0.0224081
0.024205
0.0235907
0.0254829
0.0248356
0.0268308
0.0261478
0.0282535
0.0275326
0.0297555
0.0289944
0.0313408
0.0305375
0.033014
0.0321661
0.0347825
0.0338858
0.0366577
0.0357059
0.0386557
0.0376402
0.0407942
0.0397065
0.0430851
0.0419203
0.0455284
0.0442884
0.048109
0.0468031
0.0507998
0.0494427
0.0535662
0.052176
0.0563682
0.0549656
0.0591554
0.0577673
0.061862
0.0605236
0.0643994
0.0631585
0.0666431
0.0655676
0.0684186
0.0676027
0.0694817
0.0690548
0.0696024
0.0696774
0.0683071
0.0691747
0.0670343
0.113853
0.111521
0.0665204
0.0594698
0.110582
0.111135
0.110494
0.113269
0.114298
0.0154976
0.0150684
0.0147537
0.0146496
0.115451
0.116308
0.116911
0.115922
0.113257
0.108893
0.0789107
0.0706488
0.0697245
0.0781972
0.0873783
0.0954196
0.102159
0.107348
0.111279
0.103417
0.0949488
0.0851161
0.0742877
0.0552454
0.0624821
0.111223
0.0718185
0.0713569
0.071751
0.0719681
0.0707493
0.0713017
0.0693334
0.0701274
0.0673005
0.0683743
0.0649192
0.0661433
0.0623245
0.0636412
0.0596112
0.0609787
0.0568485
0.0582312
0.0540997
0.0554702
0.0513906
0.0527389
0.0487514
0.0500597
0.0462199
0.0474703
0.0438215
0.0450029
0.0415709
0.0426773
0.0394694
0.0405021
0.0375038
0.0384709
0.0356529
0.0365655
0.0338961
0.0347639
0.0322189
0.0330482
0.0306145
0.0314078
0.0290812
0.029839
0.0276193
0.0283414
0.0262283
0.0269149
0.0249064
0.025559
0.0236505
0.0242705
0.0224567
0.0230461
0.0213208
0.0218818
0.0202389
0.0207734
0.0192071
0.019717
0.0182219
0.0187089
0.0172809
0.017746
0.0163755
0.0168237
0.0159335
0.014941
0.0147411
0.014846
0.0151051
0.0150286
0.015241
0.0151757
0.0153429
0.0152972
0.0154031
0.0153781
0.0154231
0.0154182
0.015403
0.0154181
0.0153428
0.0153779
0.0152434
0.015298
0.0151071
0.0151793
0.0149414
0.0150286
0.0148492
0.0157953
0.014954
0.0153747
0.0166621
0.0162255
0.0175639
0.0171085
0.0185037
0.0180289
0.0194848
0.0189889
0.0205107
0.019992
0.0215847
0.0210415
0.0227106
0.022141
0.0238923
0.0232943
0.0251337
0.0245053
0.0264387
0.025778
0.0278106
0.0271162
0.0292519
0.0285225
0.0307648
0.0299993
0.0323519
0.0315488
0.0340189
0.0331749
0.0357766
0.0348856
0.037641
0.0366943
0.0396298
0.0386189
0.0417546
0.040675
0.0440139
0.0428682
0.0463896
0.045189
0.0488501
0.0476116
0.0513557
0.0501
0.0538611
0.0526115
0.0563123
0.0550973
0.0586408
0.0574969
0.0607553
0.0597316
0.0625312
0.0616948
0.0637996
0.0632414
0.0643471
0.0641769
0.0639215
0.0642779
0.0621203
0.0632171
0.0586003
0.0606063
0.052711
0.0560607
0.0502149
0.0435221
0.0485135
0.117701
0.115082
0.11476
0.115265
0.0146461
0.014537
0.11385
0.117444
0.118331
0.119557
0.120111
0.120338
0.118827
0.115483
0.110311
0.0681326
0.0597795
0.0572456
0.0374239
0.0316222
0.0375503
0.0659605
0.0769025
0.0868943
0.0957802
0.10332
0.10947
0.113957
0.103336
0.0937171
0.0826801
0.0705677
0.0576863
0.0442294
0.115407
0.0632061
0.0616733
0.0650963
0.064229
0.0659384
0.065728
0.0656693
0.0658833
0.0647881
0.0653097
0.0632834
0.064103
0.061358
0.0623608
0.0591725
0.0602907
0.0568253
0.0580144
0.0543875
0.0556135
0.0519192
0.0531544
0.049458
0.0506858
0.0470383
0.0482405
0.0446991
0.0458565
0.0424707
0.0435696
0.0403722
0.0414046
0.0384079
0.0393737
0.0365667
0.0374731
0.0348287
0.0356862
0.0331729
0.0339916
0.0315852
0.0323711
0.0300589
0.0308145
0.0285931
0.0293184
0.0271889
0.0278833
0.0258472
0.0265103
0.0245676
0.0251998
0.023348
0.0239505
0.0221855
0.0227598
0.021077
0.0216248
0.0200189
0.0205419
0.019008
0.0195078
0.018041
0.0185192
0.0171148
0.0175731
0.0162254
0.0166657
0.0153687
0.0157923
0.0145315
0.0149498
0.0143291
0.0141154
0.0142255
0.0145229
0.0144286
0.014684
0.0146071
0.0148177
0.0147546
0.0149147
0.0148712
0.0149728
0.0149486
0.0149924
0.0149875
0.0149734
0.0149877
0.0149162
0.0149495
0.0148214
0.0148735
0.0146886
0.0147596
0.0145245
0.0146097
0.0143398
0.014435
0.0141321
0.0142389
0.0148206
0.0140187
0.0144171
0.0156462
0.015233
0.016496
0.0160663
0.0173815
0.0169344
0.0183036
0.0178379
0.0192649
0.0187792
0.0202683
0.0197612
0.021317
0.0207868
0.022414
0.0218593
0.0235626
0.0229817
0.0247659
0.0241573
0.0260265
0.0253889
0.0273462
0.0266789
0.028726
0.0280286
0.0301662
0.0294386
0.0316681
0.0309093
0.033236
0.0324434
0.0348798
0.0340476
0.0366151
0.0357349
0.0384592
0.0375226
0.0404229
0.0394259
0.042503
0.0414493
0.0446791
0.043581
0.0469161
0.0457926
0.0491702
0.048044
0.051392
0.0502884
0.0535245
0.0524733
0.0554975
0.054536
0.0572189
0.0563964
0.0585657
0.0579482
0.0593742
0.059049
0.0594456
0.0595151
0.0585321
0.0591321
0.0562951
0.057599
0.0523852
0.0545753
0.0462787
0.0496547
0.0422669
0.12158
0.118736
0.0306382
0.0248864
0.119005
0.119428
0.11705
0.121631
0.122342
0.014406
0.0140046
0.0137328
0.013625
0.123694
0.123827
0.123603
0.121475
0.117357
0.111271
0.053995
0.0458692
0.0418088
0.0501388
0.0629967
0.0748848
0.0857862
0.0955192
0.104026
0.110998
0.116383
0.102563
0.0917
0.0793992
0.0659155
0.0518174
0.0372356
0.017144
0.0226606
0.119637
0.0520175
0.0490835
0.0564428
0.0545026
0.0590153
0.0578799
0.0605036
0.0599414
0.0608343
0.0607725
0.0604266
0.0607159
0.0593843
0.0599752
0.0578859
0.0586803
0.056087
0.0570171
0.0540857
0.0551065
0.0519563
0.0530329
0.0497588
0.050863
0.0475375
0.0486487
0.0453312
0.0464299
0.0431805
0.0442465
0.0411194
0.042137
0.0391703
0.04013
0.03734
0.0382405
0.0356198
0.0364672
0.033991
0.0347953
0.0324333
0.0332043
0.0309331
0.0316766
0.0294841
0.0302024
0.0280857
0.0287785
0.0267398
0.0274061
0.0254484
0.0260873
0.0242121
0.0248235
0.0230299
0.0236144
0.0219001
0.0224587
0.02082
0.021354
0.0197868
0.0202977
0.0187976
0.0192869
0.0178496
0.0183187
0.01694
0.0173902
0.0160666
0.0164989
0.0152252
0.0156407
0.0148134
0.0139246
0.0137113
0.013823
0.0141135
0.014022
0.014274
0.0141976
0.0144032
0.0143428
0.014496
0.0144542
0.0145522
0.0145287
0.0145713
0.0145664
0.0145534
0.014567
0.0144987
0.0145306
0.0144079
0.0144578
0.0142807
0.0143488
0.0141205
0.0142042
0.0139368
0.0140318
0.0138369
0.0146794
0.0138956
0.0142849
0.0154852
0.0150785
0.0163209
0.0158986
0.0171899
0.0167513
0.0180934
0.0176372
0.0190339
0.018559
0.020014
0.0195189
0.0210361
0.0205197
0.0221031
0.0215639
0.0232174
0.0226542
0.0243812
0.0237931
0.0255962
0.0249823
0.0268628
0.0262231
0.0281807
0.0275154
0.0295488
0.0288585
0.0309671
0.0302516
0.0324388
0.0316959
0.033973
0.0331973
0.0355843
0.0347679
0.037289
0.0364241
0.0390969
0.03818
0.0410033
0.0400388
0.0429857
0.041987
0.0450066
0.0439941
0.0470192
0.0460171
0.0489711
0.0480062
0.050803
0.049906
0.0524436
0.0516523
0.0538013
0.0531644
0.054756
0.0543377
0.0551513
0.0550346
0.0547977
0.0550811
0.0534577
0.0542686
0.0508376
0.0523261
0.0466084
0.0489484
0.0403371
0.0437551
0.0315972
0.036312
0.0197713
0.026169
0.00844646
0.00407021
0.0123848
0.125347
0.122223
0.123283
0.123585
0.0136057
0.0135057
0.12011
0.125875
0.126286
0.127765
0.1274
0.126632
0.123785
0.118779
0.111657
0.0371658
0.0297635
0.0242933
0.032181
0.0454866
0.0590108
0.0720659
0.0839286
0.0948023
0.104224
0.112208
0.118417
0.100972
0.0887748
0.075083
0.0603476
0.0449037
0.029173
0.0135537
0.000342347
-0.00521136
-0.00841338
0.123879
0.0383498
0.0341727
0.0451901
0.0420993
0.0502596
0.0479608
0.053442
0.0520475
0.0553971
0.054567
0.0562297
0.0559338
0.0562448
0.0563253
0.0556216
0.0560037
0.0545188
0.0551198
0.0530792
0.0538341
0.0514025
0.0522653
0.0495648
0.0504996
0.0476269
0.0486051
0.0456368
0.0466356
0.0436373
0.0446355
0.0416706
0.0426473
0.0397735
0.0407115
0.0379706
0.0388593
0.0362711
0.0371081
0.0346681
0.0354585
0.0331445
0.0338976
0.0316817
0.0324065
0.0302666
0.0309687
0.0288933
0.0295749
0.0275617
0.0282222
0.0262742
0.0269123
0.0250337
0.025648
0.0238415
0.0244316
0.0226978
0.0232637
0.0216015
0.0221439
0.0205507
0.0210706
0.0195433
0.0200418
0.0185766
0.019055
0.0176485
0.0181079
0.0167563
0.017198
0.015898
0.0163231
0.0150702
0.0154797
0.0142714
0.0146689
0.0134844
0.0138765
0.0133228
0.0130957
0.0132114
0.0135321
0.0134304
0.0137154
0.0136255
0.0138728
0.0137983
0.013997
0.0139391
0.0140864
0.0140461
0.0141407
0.014118
0.0141595
0.0141546
0.0141425
0.0141555
0.0140901
0.0141207
0.014003
0.0140508
0.0138815
0.0139465
0.0137259
0.013808
0.0135452
0.0136375
0.0133423
0.0134457
0.0131238
0.0132345
0.0137572
0.013003
0.0133779
0.0145263
0.0141399
0.015317
0.0149178
0.0161377
0.0157235
0.0169895
0.0165597
0.0178738
0.0174275
0.0187928
0.0183289
0.0197485
0.0192659
0.0207432
0.0202409
0.021779
0.0212559
0.0228579
0.0223131
0.0239813
0.023414
0.0251497
0.0245599
0.0263628
0.0257508
0.0276189
0.0269856
0.0289159
0.0282624
0.0302527
0.0295793
0.0316317
0.0309366
0.0330607
0.0323392
0.0345533
0.0337981
0.0361243
0.0353282
0.0377819
0.0369423
0.0395202
0.0386421
0.0413152
0.0404127
0.043128
0.0422223
0.0449097
0.044026
0.0466058
0.045772
0.0481555
0.047403
0.0494869
0.0488535
0.0505098
0.0500434
0.0511077
0.0508702
0.0511327
0.0512022
0.0504046
0.0508752
0.0487004
0.0496901
0.0457565
0.0474006
0.0412697
0.0437275
0.0348802
0.038334
0.0262318
0.0308621
0.0148627
0.0209279
0.00804494
0.129013
0.125634
-0.00128377
0.127491
0.127691
0.122897
0.130033
0.130107
0.0133535
0.0129775
0.0127481
0.0126304
0.131747
0.13076
0.129343
0.125659
0.119639
0.111354
0.0183304
0.0116423
0.004811
-0.0155592
-0.0181673
0.0111517
0.0256735
0.0401629
0.0543252
0.0682487
0.081374
0.0933049
0.103929
0.11292
0.120119
0.0984295
0.0847732
0.0696434
0.0535253
0.0368376
0.0200303
0.00364631
0.12808
0.0229219
0.0176903
0.0320373
0.0277566
0.0393041
0.0359662
0.0446409
0.042178
0.0482929
0.0466672
0.05061
0.049594
0.0518501
0.0513519
0.0522508
0.0521403
0.0520068
0.0522002
0.0512647
0.0516888
0.050157
0.0507496
0.0487835
0.0494982
0.0472207
0.0480215
0.0455301
0.046388
0.043762
0.0446528
0.0419623
0.0428633
0.0401747
0.0410643
0.0384376
0.0392978
0.0367775
0.0375968
0.035205
0.0359803
0.0337152
0.0344506
0.032293
0.0329968
0.0309217
0.0316019
0.0295889
0.030251
0.0282895
0.0289352
0.0270237
0.0276523
0.0257943
0.0264042
0.0246048
0.0251945
0.0234574
0.0240258
0.0223528
0.0228997
0.0212908
0.0218166
0.0202702
0.0207754
0.0192892
0.0197748
0.0183458
0.0188129
0.0174382
0.0178877
0.016564
0.016997
0.0157213
0.0161389
0.0149088
0.0153109
0.0141238
0.0145131
0.0137374
0.0129416
0.0127151
0.0128327
0.0131462
0.0130469
0.0133276
0.0132398
0.0134796
0.0134077
0.0135991
0.0135434
0.0136855
0.0136465
0.0137381
0.0137161
0.0137565
0.0137516
0.0137405
0.0137527
0.0136903
0.0137196
0.0136066
0.0136526
0.0134901
0.0135524
0.0133405
0.0134196
0.0131626
0.0132541
0.012964
0.0130666
0.012858
0.0136097
0.0128728
0.0132395
0.014364
0.013984
0.0151415
0.0147494
0.0159467
0.0155406
0.0167808
0.0163601
0.0176453
0.0172092
0.018542
0.0180896
0.0194727
0.019003
0.0204391
0.0199514
0.021443
0.0209364
0.0224857
0.0219595
0.0235678
0.0230218
0.0246892
0.0241237
0.0258485
0.0252643
0.0270434
0.0264417
0.0282706
0.0276531
0.0295285
0.0288958
0.0308182
0.030169
0.0321466
0.0314769
0.0335256
0.0328289
0.0349684
0.0342384
0.0364815
0.0357162
0.0380577
0.0372628
0.0396722
0.0388623
0.0412853
0.0404819
0.042847
0.0420759
0.0443014
0.0435912
0.0455871
0.0449694
0.0466322
0.0461447
0.0473484
0.0470377
0.0476236
0.047549
0.047318
0.0475531
0.046262
0.0468955
0.0442494
0.0453893
0.041041
0.0428105
0.036361