/*--------------------------------*- C++ -*----------------------------------*\
  =========                 |
  \\      /  F ield         | OpenFOAM: The Open Source CFD Toolbox
   \\    /   O peration     | Website:  https://openfoam.org
    \\  /    A nd           | Version:  10
     \\/     M anipulation  |
\*---------------------------------------------------------------------------*/
FoamFile
{
    format      ascii;
    class       volVectorField;
    location    "7.5";
    object      U;
}
// * * * * * * * * * * * * * * * * * * * * * * * * * * * * * * * * * * * * * //

dimensions      [0 1 -1 0 0 0 0];

internalField   nonuniform List<vector> 
28942
(
(-0.108393 0.0652527 -3.8591e-20)
(-0.107922 0.0717583 -8.06773e-21)
(0.448492 -0.314909 3.48301e-20)
(1.01579 0.0418424 -1.00368e-19)
(0.994143 0.0517427 3.30615e-20)
(0.387876 0.0163541 0)
(0.471462 0.0425832 -7.51565e-22)
(0.519683 0.0110594 9.35469e-22)
(1.22518 -0.17249 2.09876e-21)
(1.21506 -0.157982 -4.48681e-21)
(-0.0779892 -0.166012 -1.04346e-19)
(-0.0531967 -0.146139 4.7788e-20)
(-0.0841344 -0.116617 0)
(-0.0911119 -0.130483 0)
(0.911404 -0.0201974 8.77192e-23)
(0.909918 -0.0174502 -3.7476e-23)
(0.931992 0.106735 3.04206e-20)
(0.915578 0.0913874 4.87869e-20)
(0.318891 -0.434229 8.32377e-20)
(0.614147 -0.699179 -2.34156e-20)
(0.987098 0.251451 4.01618e-20)
(0.988233 0.235931 0)
(0.0174775 -0.0278705 9.71218e-20)
(-0.0661626 -0.0375677 5.40998e-20)
(0.584492 -0.154426 1.05592e-19)
(0.947655 -0.272949 -9.59726e-20)
(0.189078 -0.437071 4.73578e-19)
(0.196381 -0.362839 -1.82658e-19)
(0.7214 -0.525832 1.8458e-21)
(0.437675 -0.305104 -2.50698e-22)
(0.383485 -0.0221205 0)
(0.503207 -0.0317501 1.68571e-21)
(0.622736 -0.0191088 1.12315e-20)
(0.793907 -0.024286 9.7059e-22)
(0.441706 0.482921 2.71101e-20)
(0.370818 0.533115 -2.38595e-20)
(0.587654 0.698873 -1.24961e-19)
(0.381076 0.627634 -5.00875e-20)
(0.198055 0.0193803 9.14304e-22)
(0.204107 0.486205 -7.97762e-20)
(0.657564 -0.0597263 0)
(0.856522 -0.0777944 0)
(1.24987 -0.24895 9.64134e-22)
(1.23693 -0.252772 -2.11969e-21)
(1.24273 -0.235625 -2.48632e-21)
(0.699728 0.0163202 -3.96071e-22)
(0.667879 0.0309008 6.32282e-22)
(0.835252 0.0181423 2.96223e-21)
(0.816692 0.0177794 -8.24558e-22)
(0.718651 0.0184212 -3.3457e-21)
(0.620227 0.0137503 2.25159e-21)
(1.16782 -0.0259419 6.97747e-21)
(1.16429 -0.0311587 5.11814e-21)
(1.2187 -0.187396 -1.17965e-22)
(1.20701 -0.17294 -1.30641e-22)
(1.21995 -0.23761 8.62773e-20)
(1.46207 -0.330107 4.74334e-20)
(-0.0729545 -0.0678943 -6.37675e-20)
(-0.0750742 -0.0935015 0)
(-0.0688793 -0.0656912 2.3014e-20)
(-0.0662894 -0.0526625 5.59039e-20)
(-0.0313466 -0.0253257 -4.47829e-20)
(-0.0317794 -0.0277908 -4.67426e-20)
(1.30812 -0.588965 0)
(1.43756 -0.52716 1.75639e-20)
(1.33905 -0.467404 -7.53626e-21)
(1.27697 -0.459604 0)
(0.929169 -0.229515 -2.81979e-20)
(0.948222 -0.250767 -1.82794e-20)
(-0.0644791 0.0439975 1.28313e-19)
(-0.0802924 0.0500218 -4.07302e-20)
(-0.106081 0.075573 1.02477e-19)
(0.922079 -0.314666 0)
(0.939336 -0.278878 9.73743e-20)
(0.87099 -0.42799 2.52557e-20)
(1.41443 0.346812 4.61623e-20)
(1.44424 0.332873 -4.96967e-20)
(1.43195 0.295587 -3.37326e-20)
(0.138233 -0.0788793 1.57554e-21)
(0.196234 -0.124621 -3.90035e-20)
(0.963111 -0.611596 -6.11115e-21)
(0.703077 -0.484949 1.27419e-20)
(-0.0771099 0.0457802 2.18001e-19)
(-0.0824993 0.0478813 -8.38608e-20)
(1.23727 0.604231 -5.04754e-21)
(1.17497 0.57378 -1.64506e-20)
(1.06918 0.670937 1.15179e-20)
(0.917942 0.655335 -4.02866e-20)
(0.874711 0.626955 2.77506e-20)
(0.653628 0.452908 -5.12388e-22)
(0.719895 0.544162 -9.45535e-21)
(0.761555 0.62805 1.55413e-20)
(-0.188763 -0.172578 -1.36541e-20)
(-0.13217 -0.196008 -3.5397e-21)
(-0.129386 -0.166154 7.09043e-21)
(-0.156972 -0.161008 -9.45299e-20)
(-0.170416 -0.148632 1.2034e-19)
(0.365528 0.290419 -5.75274e-20)
(0.413148 0.357154 1.19241e-20)
(-0.0249959 0.0227359 0)
(1.00711 0.00416395 0)
(0.965187 0.0531045 -7.72217e-20)
(0.890864 0.135183 5.48761e-20)
(1.08096 0.117745 0)
(1.42142 0.113232 0)
(1.42537 0.109722 0)
(1.43958 0.118367 8.05157e-20)
(1.08508 0.18734 -6.02566e-21)
(1.0813 0.198976 6.50154e-20)
(1.0746 0.176697 3.4033e-20)
(-0.0762924 -0.080342 1.28141e-19)
(-0.0767992 -0.0852242 -1.43777e-19)
(-0.00896017 0.0531568 -6.91638e-20)
(-0.0341309 0.0557071 6.53513e-20)
(-0.104745 0.0714043 1.29483e-19)
(0.164522 0.245197 8.05663e-20)
(0.380558 0.242875 1.96639e-19)
(0.292088 0.461456 1.55899e-20)
(0.130217 0.359225 -4.68687e-19)
(1.26068 0.481859 1.19515e-21)
(1.12054 0.459496 2.91653e-20)
(1.15907 0.443342 -5.03185e-20)
(0.79659 -0.622481 1.1262e-20)
(0.540065 -0.394811 -4.289e-21)
(0.159337 0.00370966 -2.42424e-19)
(0.146437 -0.0719986 0)
(0.307357 -0.0403094 1.30473e-19)
(0.504345 -0.389544 1.37534e-20)
(0.720241 -0.612914 -3.01933e-20)
(0.80711 0.0190519 -3.0199e-21)
(0.839786 0.0167777 1.26521e-21)
(0.764004 0.0173137 9.32746e-23)
(0.500468 -0.757817 0)
(0.528027 -0.59035 0)
(1.06229 -0.132533 -1.23096e-20)
(1.04855 -0.113929 7.03659e-20)
(1.03239 -0.0809902 0)
(0.817289 -0.727041 0)
(0.818812 -0.670494 -2.99038e-20)
(0.737166 0.731336 7.79098e-20)
(-0.0780303 -0.0817738 8.60433e-20)
(-0.0665142 -0.0704428 -6.3826e-20)
(0.546924 -0.506225 -1.55467e-20)
(1.2442 -0.21798 -1.72993e-20)
(1.23396 -0.217165 2.53299e-21)
(1.44696 -0.270482 -1.44758e-20)
(1.44897 -0.25734 1.93612e-20)
(1.46347 -0.240683 6.88848e-20)
(-0.063145 -0.0631505 3.00131e-20)
(0.844992 0.707007 9.152e-20)
(0.977218 0.687475 -2.72737e-20)
(1.04978 0.724854 5.84661e-23)
(0.587303 -0.0160252 -4.11237e-22)
(0.586618 -0.0175065 -3.68876e-21)
(0.642272 -0.0211937 -3.43779e-22)
(0.685857 -0.0220182 1.01016e-21)
(0.795103 0.701608 1.69349e-20)
(0.430525 0.413022 0)
(-0.056584 0.031164 6.6e-20)
(-0.0658178 0.0642907 -7.30415e-20)
(-0.134849 0.0762093 5.79643e-20)
(0.442648 0.0779937 -1.54174e-19)
(0.969355 0.252288 -7.49814e-20)
(0.761764 -0.0228083 4.21297e-22)
(1.2063 -0.452023 1.99417e-20)
(1.16796 -0.527637 4.82596e-20)
(0.968083 0.275611 9.37377e-20)
(0.949931 0.312756 7.78113e-21)
(0.928945 0.193631 5.3961e-20)
(0.946096 0.200323 -3.89793e-20)
(0.992757 0.277038 0)
(1.14733 0.0387859 -6.93078e-22)
(1.15259 0.0358898 -2.35142e-21)
(1.17329 -0.118357 6.41091e-22)
(1.18511 -0.122973 -1.8792e-21)
(1.09756 0.176487 6.47651e-21)
(1.11062 0.185479 -1.79186e-20)
(1.09777 0.187527 0)
(1.085 0.176506 4.37976e-21)
(1.09541 0.198637 0)
(1.09896 0.25412 -1.66758e-20)
(1.09214 0.267843 -9.86601e-21)
(1.06876 0.291564 -1.92383e-20)
(1.08198 0.280636 0)
(1.10195 0.301857 5.79706e-20)
(1.08488 0.315618 2.89323e-21)
(1.05205 0.30783 -1.17817e-20)
(0.998872 0.362426 -5.24783e-20)
(0.998253 0.303872 -9.29427e-21)
(-0.0145131 0.105894 3.99673e-20)
(0.117355 0.107157 -1.56236e-20)
(-0.102867 0.0990214 -9.53493e-20)
(0.741478 0.0167982 2.97959e-21)
(0.870326 0.0169344 0)
(-0.0296926 0.0200095 7.07288e-20)
(-0.0303634 0.0208159 3.65076e-20)
(0.824953 0.0196834 1.39062e-23)
(0.900557 0.0189218 -2.75134e-23)
(0.896921 0.0190529 0)
(0.812704 0.0216357 -1.63975e-22)
(1.00687 0.0471038 -5.39211e-21)
(0.98122 0.0407919 2.5617e-20)
(1.00273 0.0438783 1.14594e-20)
(-0.0750349 -0.0830016 5.50585e-20)
(-0.0287431 -0.028263 -7.08168e-20)
(-0.033479 -0.0329382 6.78307e-20)
(-0.0545485 -0.0369889 0)
(-0.0245198 -0.0150719 9.49358e-20)
(-0.0236482 -0.0163957 -8.25838e-20)
(-0.065243 -0.0148812 -8.51496e-20)
(-0.0895645 -0.0366632 -8.63903e-20)
(-0.0527746 -0.0241877 0)
(0.0558585 0.233674 0)
(0.0255079 0.139536 0)
(0.00959863 0.0793403 0)
(1.40879 0.101325 -1.14966e-20)
(1.39349 0.0880343 0)
(1.41233 0.0937818 1.27538e-20)
(0.922582 -0.0939807 1.97898e-19)
(0.936301 -0.101086 -7.18525e-20)
(0.933177 -0.082226 0)
(1.03087 0.0139501 -1.81718e-22)
(1.0329 0.0132249 3.63533e-22)
(1.02877 0.0147015 -1.27327e-22)
(1.03473 0.0124072 0)
(1.03648 0.0115773 -2.21143e-22)
(1.03812 0.0107557 0)
(1.03839 0.00894186 0)
(1.03962 0.00981233 7.8129e-22)
(1.04007 0.00807353 0)
(1.03669 0.00965662 -2.22236e-22)
(1.03477 0.0104033 0)
(1.03277 0.0110494 1.21619e-22)
(1.03058 0.0115958 -1.82739e-22)
(1.02827 0.0120716 1.27153e-22)
(1.04105 0.00884116 -7.47532e-22)
(1.04165 0.00718494 -2.56611e-23)
(1.02641 0.0153485 8.58541e-27)
(1.0256 0.0125333 -2.00389e-22)
(1.02377 0.0159041 1.09599e-21)
(1.04239 0.00794883 6.80245e-25)
(1.04316 0.00634108 -2.47454e-23)
(1.02282 0.0127884 4.0292e-22)
(1.04372 0.00705374 6.67486e-22)
(1.04502 0.00617505 -6.66932e-22)
(1.04458 0.00549586 5.07761e-23)
(1.04593 0.0046614 9.69978e-23)
(1.02123 0.0165503 -1.06644e-21)
(1.01982 0.0129212 -2.67253e-22)
(1.04629 0.00532022 0)
(1.04723 0.00384795 -9.56658e-23)
(1.01793 0.0168722 1.36652e-25)
(1.0164 0.0129579 -1.37004e-25)
(1.04753 0.0045094 0)
(1.04849 0.00307506 0)
(1.01449 0.0171793 0)
(1.01272 0.0128166 0)
(1.04876 0.00374819 0)
(1.04971 0.00235154 4.38181e-23)
(1.01055 0.0173192 -6.10678e-22)
(1.00861 0.0125205 -1.47119e-25)
(1.04997 0.00305127 2.28066e-24)
(1.05089 0.00169333 -4.67778e-23)
(1.00622 0.0173487 6.13576e-22)
(1.00413 0.01205 0)
(1.05115 0.00242334 0)
(1.05204 0.00110753 0)
(1.0014 0.0172348 -4.03969e-23)
(0.9992 0.0114 7.02525e-22)
(1.05231 0.0018685 2.72071e-22)
(1.05314 0.000603232 0)
(0.996084 0.016956 -1.44287e-23)
(0.99382 0.0105368 -6.65487e-22)
(1.05343 0.00139915 -4.05073e-22)
(1.05421 0.00018751 -1.16581e-22)
(0.989852 0.0163087 6.96812e-22)
(0.987832 0.0094924 0)
(1.05451 0.000988896 1.32185e-22)
(1.05523 -0.000152109 7.75998e-23)
(0.983469 0.0157113 -3.67897e-22)
(0.98145 0.00819294 7.45719e-22)
(1.05554 0.000699631 -5.17003e-22)
(1.0562 -0.000368356 5.82499e-22)
(0.975679 0.0144118 3.89294e-22)
(0.974262 0.00669467 1.25496e-23)
(1.05653 0.00045019 0)
(1.05711 -0.000498706 2.73579e-22)
(0.967837 0.0132634 -8.09218e-22)
(0.96677 0.00488059 1.61813e-21)
(1.05751 0.000277828 0)
(1.05799 -0.000596131 0)
(0.987233 0.0220732 -3.85211e-22)
(0.979403 0.021525 -1.61114e-21)
(0.958781 0.0115162 0)
(0.958627 0.00263167 -8.48706e-22)
(1.00084 0.0225777 -2.28309e-22)
(0.994637 0.0225949 4.54503e-23)
(1.01126 0.0222078 0)
(1.00641 0.022534 -7.18275e-22)
(1.01924 0.0212736 -1.2812e-24)
(1.01551 0.0217898 0)
(1.0254 0.019996 0)
(1.02257 0.0206889 0)
(1.03006 0.0184086 0)
(1.02809 0.0193129 0)
(1.03366 0.0167832 2.48788e-22)
(1.03203 0.0176487 6.48059e-23)
(1.03681 0.0150097 -2.34857e-22)
(1.03528 0.0158834 -2.50666e-22)
(1.03937 0.0131038 3.9539e-22)
(1.03801 0.0140414 5.15679e-22)
(1.04182 0.0111892 0)
(1.04066 0.0121716 0)
(1.04402 0.00924925 -1.61343e-24)
(1.04293 0.010212 0)
(1.04618 0.00740908 0)
(1.0451 0.00831311 0)
(1.04833 0.00572449 0)
(1.04725 0.00654402 0)
(1.0505 0.00425269 0)
(1.04941 0.00495919 0)
(1.05265 0.00303925 0)
(1.05158 0.00361354 0)
(1.05473 0.00210317 0)
(1.05371 0.00254306 0)
(1.0567 0.00141916 -2.07804e-22)
(1.05573 0.00175865 0)
(1.05762 0.00117104 -6.5937e-23)
(1.05841 0.000151787 6.39607e-23)
(1.05882 -0.000643769 -6.3427e-23)
(1.05738 -0.00126132 0)
(1.05889 -0.0013769 -2.61694e-22)
(1.05815 -0.00134992 -1.37764e-22)
(1.05568 -0.000804905 3.92176e-23)
(1.05655 -0.00107213 -1.5108e-22)
(1.0538 3.0517e-05 1.3041e-24)
(1.05476 -0.000431073 0)
(1.05177 0.00119222 0)
(1.0528 0.000575135 0)
(1.04957 0.0025961 0)
(1.05069 0.00187064 0)
(1.04719 0.00412945 0)
(1.04841 0.00335405 1.85502e-28)
(1.04456 0.00567237 1.64957e-24)
(1.04591 0.00490762 0)
(1.04156 0.00711689 0)
(1.04311 0.00640452 0)
(1.03817 0.00836122 0)
(1.03995 0.00775161 0)
(1.03426 0.0092524 0)
(1.03625 0.00887679 -1.21653e-22)
(1.02958 0.00973861 3.5685e-23)
(1.03212 0.0094915 -1.63754e-22)
(1.02427 0.00950104 0)
(1.02713 0.00969711 -1.37861e-22)
(1.01766 0.00868583 0)
(1.02111 0.00919146 0)
(1.00969 0.00709479 0)
(1.01386 0.00799025 0)
(1.00016 0.00466202 0)
(1.00514 0.00598566 0)
(0.988897 0.00139351 -1.90028e-22)
(0.994724 0.00317306 0)
(0.975974 -0.00277845 -8.27387e-22)
(0.982566 -0.000509202 -1.96281e-22)
(0.968944 -0.00539123 8.67652e-22)
(0.97059 0.020588 1.6208e-21)
(1.05849 0.000968392 1.27484e-22)
(1.0596 -0.00134753 -2.45283e-22)
(0.94994 8.32947e-05 0)
(0.961594 -0.00827828 0)
(0.961162 0.0194153 0)
(0.949293 0.0095026 0)
(1.00667 0.028766 0)
(0.992187 0.0288445 3.88069e-22)
(0.999771 0.0288913 3.87677e-22)
(1.01815 0.0278507 4.66786e-22)
(1.01286 0.0284171 -9.43629e-23)
(1.02634 0.0262514 1.36048e-24)
(1.02256 0.027088 0)
(1.03239 0.0243821 0)
(1.0296 0.0253475 0)
(1.03675 0.0223392 0)
(1.03477 0.0233747 0)
(1.03979 0.0202546 0)
(1.03845 0.0212932 0)
(1.04186 0.0181316 0)
(1.04102 0.0192095 0)
(1.04358 0.0160842 -9.733e-25)
(1.04275 0.0171148 2.56321e-22)
(1.04479 0.0140461 -8.94915e-25)
(1.04413 0.015032 -4.79944e-22)
(1.04605 0.0120659 0)
(1.04543 0.0130526 0)
(1.04733 0.0101468 8.05604e-25)
(1.04668 0.0110965 0)
(1.04874 0.0083433 0)
(1.04802 0.00922727 0)
(1.05032 0.00670086 0)
(1.04951 0.00749993 0)
(1.05203 0.00525748 0)
(1.05116 0.00595233 0)
(1.05382 0.00404475 0)
(1.05292 0.00462159 0)
(1.05563 0.0030757 0)
(1.05473 0.00353047 0)
(1.05736 0.002316 1.42271e-22)
(1.05651 0.00267462 0)
(1.05924 8.58412e-05 0)
(1.05928 0.000840896 1.21426e-22)
(1.05895 0.0017436 0)
(1.05818 0.00200845 1.36791e-22)
(1.06017 -0.00201704 2.73271e-22)
(1.06069 -0.00193201 6.57381e-23)
(1.06024 -0.00126581 5.11153e-22)
(1.05958 -0.000626711 0)
(1.05905 -0.00199453 0)
(1.05962 -0.00204462 -4.13375e-22)
(1.05778 -0.00160642 1.22803e-24)
(1.05841 -0.00183901 1.52017e-22)
(1.05635 -0.00084256 -1.30409e-24)
(1.05707 -0.00126464 0)
(1.0548 0.000246319 0)
(1.05558 -0.000333075 0)
(1.05311 0.00156696 0)
(1.05397 0.000885256 0)
(1.05127 0.0029961 0)
(1.05221 0.0022759 -1.85501e-28)
(1.04921 0.00440574 -3.28994e-24)
(1.05027 0.00371195 0)
(1.04687 0.0056499 0)
(1.04808 0.0050564 0)
(1.04418 0.00663674 6.04192e-23)
(1.04558 0.00618366 0)
(1.04105 0.00725036 0)
(1.04262 0.00701265 -6.01612e-23)
(1.03729 0.00732974 1.36215e-22)
(1.03929 0.00735 1.32326e-22)
(1.03284 0.00671917 0)
(1.03524 0.00709785 0)
(1.0274 0.00531907 0)
(1.03027 0.00611944 0)
(1.02079 0.00305615 0)
(1.02426 0.00429688 0)
(1.01287 -9.34612e-05 0)
(1.017 0.00158992 0)
(1.00355 -0.00410906 3.04571e-24)
(1.00838 -0.00199346 0)
(0.992801 -0.00902334 -3.268e-24)
(0.998357 -0.00645275 0)
(0.981109 -0.0149963 -8.98064e-22)
(0.987089 -0.011894 8.97531e-22)
(0.983749 0.0285598 8.45418e-22)
(0.954131 -0.0115535 0)
(0.975159 -0.0185031 -1.94013e-21)
(0.940921 -0.00268423 0)
(1.05968 0.00154536 0)
(1.06118 -0.0017909 -6.29829e-23)
(0.951086 0.0179822 2.26966e-21)
(0.97459 0.0280322 9.17027e-22)
(0.946124 -0.0149811 5.06353e-22)
(0.968806 -0.0221925 2.46089e-21)
(0.939158 0.00736046 0)
(1.05979 0.00245674 5.27553e-22)
(1.06038 0.00218602 -2.58954e-22)
(1.06082 -0.00113651 -1.2338e-22)
(1.06161 -0.00159863 6.10101e-22)
(1.00519 0.036391 3.08905e-21)
(0.964981 0.0273071 -1.77888e-21)
(0.989398 0.0365187 -8.19043e-21)
(0.997093 0.0364875 -1.78507e-21)
(1.0193 0.0356071 7.9061e-22)
(1.0127 0.0361228 -2.57206e-21)
(1.03012 0.0340092 -7.91998e-22)
(1.02512 0.034901 -6.28463e-22)
(1.03855 0.0318476 -1.85431e-22)
(1.03473 0.0330069 -1.88577e-22)
(1.04435 0.0292367 -1.36048e-24)
(1.04173 0.0305719 0)
(1.04822 0.0264543 0)
(1.0465 0.0278568 0)
(1.05051 0.0236814 0)
(1.04955 0.025055 0)
(1.05161 0.0210664 0)
(1.05119 0.0223475 0)
(1.05194 0.0186419 0)
(1.05186 0.0198229 0)
(1.0519 0.0163998 0)
(1.05194 0.0174994 0)
(1.05175 0.0143357 4.05659e-27)
(1.05181 0.0153566 0)
(1.05173 0.0124006 0)
(1.05171 0.0133489 0)
(1.05194 0.0105889 8.00943e-25)
(1.0518 0.011481 0)
(1.05247 0.0089045 0)
(1.05216 0.00972901 0)
(1.0533 0.00737312 0)
(1.05285 0.00811863 0)
(1.0544 0.00601602 0)
(1.05382 0.00667167 0)
(1.0557 0.00485109 0)
(1.05503 0.00540898 0)
(1.05709 0.00388375 0)
(1.05639 0.00434242 0)
(1.05848 0.00309159 7.25419e-23)
(1.05779 0.00346568 -3.66558e-23)
(1.05915 0.00275065 -2.70749e-22)
(1.05996 6.87743e-05 -5.86104e-23)
(1.06035 0.0013829 2.43306e-22)
(1.06 0.000740348 -1.88864e-22)
(1.06025 -0.000562519 0)
(1.0617 -0.0024736 -1.99984e-22)
(1.0623 -0.00216633 -5.65917e-22)
(1.06201 -0.00234936 4.62486e-22)
(1.06105 -0.00249719 0)
(1.06138 -0.00252909 0)
(1.06027 -0.0021556 -5.38747e-27)
(1.06065 -0.00236856 0)
(1.0594 -0.00144545 0)
(1.05984 -0.00184365 0)
(1.05846 -0.000411206 -1.36809e-24)
(1.05894 -0.000963326 0)
(1.05744 0.000847143 0)
(1.05796 0.000198054 0)
(1.05632 0.00219714 0)
(1.0569 0.00151929 0)
(1.05505 0.00350198 1.64076e-24)
(1.05571 0.00286389 0)
(1.05361 0.00462193 1.73373e-24)
(1.05436 0.0040932 0)
(1.05194 0.00543521 0)
(1.05281 0.00507531 0)
(1.04994 0.00580952 0)
(1.05099 0.00568352 0)
(1.04749 0.00558002 0)
(1.04879 0.00578332 0)
(1.04443 0.00459422 0)
(1.04606 0.00519258 0)
(1.04054 0.00271034 -2.42002e-24)
(1.04261 0.00377027 0)
(1.03563 -0.00013227 0)
(1.03823 0.00140892 0)
(1.02957 -0.00391533 0)
(1.03275 -0.00191115 0)
(1.02231 -0.00856365 -3.65115e-26)
(1.02608 -0.00613751 0)
(1.01391 -0.0140049 4.45612e-26)
(1.01825 -0.011185 0)
(1.00468 -0.0203234 3.52884e-24)
(1.00932 -0.0170399 0)
(0.995053 -0.0277807 -2.01468e-21)
(0.999868 -0.0238825 4.69652e-22)
(0.962059 -0.026057 5.18185e-22)
(0.989993 -0.0318608 9.92915e-22)
(0.940559 0.0164386 -8.63242e-22)
(0.931376 -0.00591579 -9.74776e-22)
(1.06094 0.00195716 6.21754e-23)
(1.06256 -0.00194253 4.43598e-22)
(0.953736 0.0260162 1.01296e-22)
(0.937885 -0.0186211 0)
(0.976426 0.0363619 1.32515e-20)
(0.984753 -0.0361835 1.65816e-21)
(0.955266 -0.0301791 2.22868e-21)
(1.02019 0.0454319 -2.15914e-20)
(1.02317 0.0487639 3.98503e-21)
(0.928802 0.00491579 0)
(1.02503 0.0439408 2.0201e-21)
(1.02278 0.0451585 1.07994e-21)
(1.03575 0.0422761 1.77532e-21)
(1.02986 0.0430176 -2.75794e-21)
(1.0461 0.0403545 -8.21496e-22)
(1.04142 0.0414453 -4.19528e-22)
(1.05353 0.0376726 3.91511e-22)
(1.05011 0.0390789 4.16738e-22)
(1.05904 0.0345278 0)
(1.05656 0.0361683 -2.15286e-24)
(1.06258 0.0310395 0)
(1.06104 0.0328158 0)
(1.0644 0.0274325 1.24491e-24)
(1.06369 0.0292319 0)
(1.06476 0.0239959 0)
(1.06474 0.0256777 0)
(1.06404 0.0209165 0)
(1.06451 0.0224054 0)
(1.06264 0.0182469 0)
(1.0634 0.0195302 0)
(1.061 0.0159463 9.5837e-25)
(1.06183 0.017055 0)
(1.05943 0.0139401 5.49943e-27)
(1.06019 0.0149141 0)
(1.05815 0.0121478 0)
(1.05874 0.0130194 0)
(1.05728 0.0105208 -1.59786e-24)
(1.05766 0.0113167 0)
(1.05687 0.00903127 0)
(1.05702 0.00975902 0)
(1.05691 0.00767903 0)
(1.05684 0.00833804 0)
(1.05734 0.00646717 0)
(1.05708 0.00705534 0)
(1.05806 0.0054003 0)
(1.05767 0.00591547 0)
(1.05896 0.00447849 0)
(1.05849 0.00492078 0)
(1.05994 0.00368862 -3.60914e-23)
(1.05944 0.00406559 0)
(1.06089 0.00301934 0)
(1.06042 0.0033385 -6.89211e-23)
(1.06175 0.00243382 -1.34121e-25)
(1.06134 0.00271522 0)
(1.06093 0.00124438 -2.46746e-22)
(1.06214 0.00218418 1.47427e-23)
(1.06145 0.00175311 1.19257e-22)
(1.06061 8.59238e-05 8.82088e-23)
(1.06064 0.000672872 -6.09134e-23)
(1.06133 -0.000987869 -3.06605e-23)
(1.06085 -0.000472827 3.05489e-23)
(1.06281 -0.00170728 0)
(1.062 -0.00139545 -2.81941e-22)
(1.06353 -0.00237121 -1.27348e-22)
(1.06369 -0.00188296 -2.40819e-22)
(1.06361 -0.00213922 5.49865e-22)
(1.06336 -0.00269769 -6.84789e-23)
(1.06345 -0.00256375 0)
(1.06316 -0.00274003 0)
(1.06327 -0.00276226 0)
(1.06293 -0.00242149 -6.32165e-27)
(1.06305 -0.00262779 0)
(1.06267 -0.00173555 0)
(1.0628 -0.00212355 0)
(1.0624 -0.000726445 1.36809e-24)
(1.06254 -0.0012659 0)
(1.06211 0.000501765 0)
(1.06226 -0.000131454 0)
(1.0618 0.00181258 0)
(1.06196 0.00115592 0)
(1.06145 0.00306304 0)
(1.06163 0.00245424 0)
(1.06103 0.00411437 -1.37628e-26)
(1.06125 0.00362197 0)
(1.06052 0.00482742 0)
(1.06079 0.00452241 0)
(1.05982 0.00504735 0)
(1.0602 0.00500896 0)
(1.0588 0.00459126 0)
(1.05937 0.00491597 0)
(1.05728 0.00327453 0)
(1.05812 0.00405053 0)
(1.05501 0.000957843 2.42002e-24)
(1.05625 0.00224673 0)
(1.0518 -0.00240489 0)
(1.05354 -0.000594787 0)
(1.04751 -0.00675022 0)
(1.0498 -0.00446297 0)
(1.04215 -0.0119444 -3.00891e-24)
(1.04496 -0.00925116 0)
(1.03581 -0.0178521 3.23921e-24)
(1.03909 -0.0148139 0)
(1.02868 -0.024453 -3.48892e-24)
(1.03234 -0.0210628 0)
(1.02109 -0.0319628 4.74736e-22)
(1.02483 -0.0280613 -9.33688e-22)
(1.01327 -0.0406909 -4.94253e-22)
(1.01712 -0.0361664 1.0409e-21)
(0.979192 -0.040763 8.34731e-23)
(1.00889 -0.0454709 1.10261e-21)
(0.928876 0.0144839 -9.63621e-22)
(0.921484 -0.00903475 0)
(0.942715 0.025441 -9.42172e-21)
(0.928774 -0.0220745 0)
(1.06269 0.00279236 -6.10279e-23)
(1.06294 0.0025256 4.47096e-23)
(1.06302 -0.00144954 -2.30053e-22)
(1.06377 -0.00160665 -2.60136e-22)
(0.951878 0.0328771 -9.33264e-21)
(0.948289 -0.0344929 -2.25062e-21)
(1.00779 0.0481458 0)
(1.04829 0.0524955 -2.54398e-21)
(0.973501 -0.0456483 -1.08636e-21)
(1.00448 -0.0506477 1.73539e-21)
(1.04578 0.0541992 4.97867e-21)
(0.917642 0.00235058 0)
(1.05365 0.0496953 0)
(1.05098 0.0512358 -2.14203e-21)
(1.06162 0.0467534 0)
(1.05751 0.0481904 0)
(1.06873 0.043708 0)
(1.0655 0.0452939 4.34637e-22)
(1.0737 0.0402129 0)
(1.07145 0.0420201 0)
(1.07707 0.0362225 0)
(1.07558 0.0382719 0)
(1.07883 0.0318919 0)
(1.07815 0.0340862 0)
(1.07903 0.0275126 -1.24491e-24)
(1.07912 0.0296841 0)
(1.07787 0.0234507 0)
(1.0786 0.0254228 0)
(1.07566 0.0199487 0)
(1.07687 0.0216213 0)
(1.07285 0.0170775 0)
(1.07431 0.0184361 0)
(1.06986 0.0147707 -8.23241e-27)
(1.07135 0.0158612 0)
(1.06704 0.0128967 6.98114e-27)
(1.06841 0.0137882 0)
(1.06464 0.0113245 0)
(1.06578 0.0120797 0)
(1.06278 0.00995563 5.15793e-27)
(1.06364 0.0106196 0)
(1.0615 0.00872829 0)
(1.06207 0.00932654 0)
(1.06078 0.00761373 0)
(1.06108 0.00815814 0)
(1.06053 0.00659724 0)
(1.0606 0.00709383 0)
(1.06065 0.0056723 0)
(1.06055 0.00612363 0)
(1.06104 0.00483555 0)
(1.06082 0.00524298 0)
(1.06158 0.00408696 0)
(1.0613 0.00444889 0)
(1.06215 0.00340264 6.72745e-23)
(1.06186 0.00373536 6.9971e-23)
(1.06243 0.00308747 -1.27035e-22)
(1.06145 0.00112853 -1.18893e-22)
(1.06249 0.00196045 0)
(1.0619 0.00158583 -1.2066e-22)
(1.06117 0.000122579 0)
(1.0612 0.00063413 1.21355e-22)
(1.06177 -0.000822421 1.80827e-22)
(1.06137 -0.000373658 -6.11597e-23)
(1.06233 -0.00117713 -3.56528e-22)
(1.06476 -0.0023905 6.3676e-23)
(1.0646 -0.00190185 2.28779e-22)
(1.0647 -0.00217031 0)
(1.06499 -0.00270095 -1.34626e-22)
(1.06489 -0.00257621 1.35085e-22)
(1.06524 -0.0027258 0)
(1.06513 -0.00275423 0)
(1.06553 -0.00240079 -7.25146e-27)
(1.06538 -0.00261046 0)
(1.06587 -0.00170608 0)
(1.06569 -0.00209826 0)
(1.06624 -0.000688367 0)
(1.06605 -0.00123204 0)
(1.06668 0.000548313 0)
(1.06645 -8.90678e-05 0)
(1.06716 0.00186699 0)
(1.06691 0.00120669 0)
(1.06772 0.00312136 1.60503e-24)
(1.06743 0.00251147 0)
(1.06832 0.00416618 -1.71997e-24)
(1.06802 0.00367918 0)
(1.06895 0.00484594 0)
(1.06864 0.00456243 0)
(1.06951 0.00497605 0)
(1.06925 0.00499264 0)
(1.06984 0.00434122 0)
(1.06972 0.00476792 0)
(1.06971 0.00272955 0)
(1.06985 0.00366837 0)
(1.06885 -1.63142e-06 0)
(1.06939 0.00150804 0)
(1.06704 -0.00386801 0)
(1.06808 -0.00179807 0)
(1.06417 -0.00874737 -2.70774e-24)
(1.06575 -0.00619353 0)
(1.06027 -0.0144386 2.90481e-24)
(1.06234 -0.011505 0)
(1.05549 -0.0207663 -3.11654e-24)
(1.05798 -0.0175302 0)
(1.05002 -0.0276847 0)
(1.05283 -0.024148 0)
(1.04403 -0.0353293 0)
(1.04709 -0.0314002 0)
(1.03769 -0.044149 3.89668e-24)
(1.04083 -0.0395322 4.93504e-22)
(1.03077 -0.0544049 -2.80213e-21)
(1.0342 -0.0490988 0)
(1.00025 -0.0562437 -1.69159e-21)
(1.02729 -0.0601991 -7.87103e-23)
(0.916774 0.0124264 3.06207e-21)
(0.910853 -0.0120896 0)
(1.06318 0.0022524 -2.28757e-22)
(1.06454 -0.00162008 -4.44675e-22)
(0.923499 0.0214624 -1.67609e-21)
(0.979865 0.0410352 7.70886e-23)
(0.943085 0.0319969 4.90746e-21)
(0.919788 -0.0259071 0)
(0.940268 -0.0387925 5.99178e-22)
(1.03352 0.0553817 -4.75362e-21)
(1.01575 0.0527905 4.45219e-21)
(0.981696 0.0440692 -4.26114e-21)
(0.967605 -0.0508155 -1.77182e-21)
(0.995456 -0.0621434 1.22004e-21)
(1.02394 -0.0664643 1.06673e-21)
(0.906002 -0.000378306 0)
(1.07197 0.0577176 1.32069e-22)
(1.06063 0.0610434 -8.30904e-24)
(1.06791 0.0594675 1.05292e-21)
(1.07704 0.0538583 9.88683e-22)
(1.07479 0.055861 -9.94372e-22)
(1.08227 0.0499334 1.69192e-24)
(1.07967 0.0519088 0)
(1.08675 0.0460462 0)
(1.08469 0.0479934 0)
(1.08978 0.041841 0)
(1.08844 0.0440086 0)
(1.09154 0.0371104 0)
(1.09082 0.0395357 0)
(1.09196 0.03202 1.29004e-24)
(1.09192 0.034592 0)
(1.091 0.0269283 0)
(1.09165 0.0294463 0)
(1.08877 0.0222705 0)
(1.09003 0.024521 0)
(1.08553 0.0183614 0)
(1.08725 0.0202107 0)
(1.0817 0.0153045 0)
(1.08366 0.0167281 0)
(1.07771 0.0130172 -9.50137e-25)
(1.0797 0.0140749 0)
(1.07393 0.0113182 8.43039e-27)
(1.07577 0.0121064 0)
(1.07064 0.0100157 0)
(1.07222 0.010628 0)
(1.06796 0.00895676 1.57729e-24)
(1.06922 0.00946327 0)
(1.06594 0.00803915 0)
(1.06687 0.00848471 0)
(1.06455 0.00720423 0)
(1.06517 0.00761381 0)
(1.06369 0.00642001 0)
(1.06406 0.00680706 0)
(1.06326 0.00567113 0)
(1.06343 0.00604168 0)
(1.06316 0.0049527 0)
(1.06318 0.00530821 0)
(1.06326 0.00426637 1.11899e-24)
(1.06319 0.00460573 0)
(1.06346 0.00361498 -6.75664e-23)
(1.06335 0.00393787 0)
(1.06368 0.00298963 6.30054e-23)
(1.06357 0.00329929 0)
(1.0639 0.00240631 5.82359e-23)
(1.0638 0.00268852 -6.0494e-23)
(1.06279 0.0017526 1.14559e-22)
(1.064 0.00213584 0)
(1.06339 0.00200291 1.71243e-22)
(1.0619 0.00104317 0)
(1.06228 0.00143017 0)
(1.06165 0.00016617 0)
(1.06168 0.00061736 0)
(1.06215 -0.000663598 0)
(1.06182 -0.000271189 0)
(1.0632 -0.00119596 2.34482e-22)
(1.06263 -0.000967289 5.77207e-23)
(1.06449 -0.00134364 5.68288e-23)
(1.06384 -0.00132836 4.55565e-22)
(1.06547 -0.00177838 3.02527e-22)
(1.06511 -0.00126133 5.6078e-23)
(1.06527 -0.00152168 -1.15731e-22)
(1.06593 -0.00223063 6.24935e-23)
(1.06569 -0.00201943 -3.74896e-22)
(1.06649 -0.00249463 -6.50759e-27)
(1.0662 -0.00239174 0)
(1.06714 -0.00247825 0)
(1.06681 -0.00252472 0)
(1.06789 -0.00211476 -8.18928e-27)
(1.0675 -0.00234238 0)
(1.06874 -0.00138196 0)
(1.0683 -0.00179301 0)
(1.06969 -0.000323852 0)
(1.0692 -0.000888083 0)
(1.07075 0.000958606 0)
(1.07021 0.000297574 0)
(1.07195 0.0023301 0)
(1.07134 0.00164263 0)
(1.0733 0.00364163 -3.19479e-24)
(1.07261 0.00300315 0)
(1.0748 0.00473604 0)
(1.07403 0.00422655 0)
(1.07641 0.00543371 0)
(1.0756 0.0051473 0)
(1.07802 0.00551336 0)
(1.07723 0.00556646 0)
(1.07943 0.0047189 0)
(1.07877 0.00524148 0)
(1.08037 0.00281113 -2.16765e-24)
(1.07998 0.00391605 0)
(1.08054 -0.000349712 0)
(1.08057 0.00138963 0)
(1.07971 -0.00473591 0)
(1.08026 -0.00239914 0)
(1.07779 -0.0101484 2.70774e-24)
(1.07889 -0.00733137 0)
(1.07486 -0.0163104 -6.56473e-26)
(1.07644 -0.0131528 0)
(1.07111 -0.0230087 6.15638e-24)
(1.07307 -0.0196001 0)
(1.06678 -0.0302102 0)
(1.06901 -0.0265407 0)
(1.06204 -0.0380807 0)
(1.06446 -0.0340458 0)
(1.05691 -0.0469069 -1.24683e-25)
(1.05953 -0.0423509 0)
(1.05128 -0.0571726 0)
(1.05414 -0.0518388 0)
(1.04564 -0.0693937 -1.68623e-21)
(1.04844 -0.0630172 0)
(1.02004 -0.0730174 -7.94847e-23)
(1.04269 -0.0762574 2.93559e-21)
(0.902662 0.00936918 0)
(1.05172 0.0618789 6.5594e-21)
(0.91247 0.0206565 1.15874e-21)
(1.06462 0.00246155 -5.81353e-23)
(1.06462 0.00219116 0)
(1.06444 -0.00107482 5.45658e-23)
(1.06496 -0.00100386 -1.08554e-22)
(0.899932 -0.0153319 0)
(0.909747 -0.0297525 0)
(0.933691 0.0332662 0)
(0.932312 -0.0435167 -5.90083e-22)
(0.961364 -0.0563435 -1.20754e-21)
(0.990799 -0.0684909 0)
(1.01599 -0.0800542 3.11975e-21)
(1.03942 -0.0834922 -2.383e-21)
(0.893758 -0.00323568 0)
(1.08378 0.0651399 -5.05406e-25)
(1.04341 0.0629684 2.08667e-21)
(1.0734 0.0690685 -7.38949e-21)
(1.07873 0.067147 2.11169e-21)
(1.0907 0.0605492 -6.2192e-22)
(1.08761 0.0628071 -1.04397e-21)
(1.09451 0.0562151 0)
(1.09292 0.0583807 0)
(1.09756 0.0518053 -1.69179e-24)
(1.09607 0.0540246 0)
(1.10004 0.0473962 0)
(1.09892 0.0496098 0)
(1.10154 0.0426522 0)
(1.10092 0.0450916 0)
(1.10208 0.0373457 0)
(1.10193 0.0400666 0)
(1.10155 0.0316276 -1.29004e-24)
(1.10196 0.0345178 0)
(1.09984 0.0259014 0)
(1.10085 0.0287333 0)
(1.09696 0.0206818 0)
(1.09854 0.0231982 0)
(1.09312 0.0163721 0)
(1.09514 0.0183972 0)
(1.08869 0.0131271 0)
(1.09095 0.0146171 0)
(1.08407 0.0108614 9.28681e-25)
(1.08638 0.0118839 0)
(1.07967 0.0093501 9.8013e-27)
(1.08182 0.0100276 0)
(1.07575 0.00833896 0)
(1.07764 0.00879656 0)
(1.07248 0.00761613 -7.24508e-27)
(1.07403 0.00795211 0)
(1.0699 0.00703379 0)
(1.07111 0.00731405 0)
(1.06796 0.00650224 0)
(1.06885 0.00676539 0)
(1.0666 0.00597244 0)
(1.06722 0.00623897 0)
(1.0657 0.00542194 0)
(1.0661 0.00570038 0)
(1.06515 0.00484585 0)
(1.06539 0.00513686 0)
(1.06486 0.00425074 -2.23113e-24)
(1.06498 0.00454985 0)
(1.06472 0.00365067 -1.0527e-24)
(1.06477 0.00394964 0)
(1.06466 0.00304761 1.27402e-22)
(1.06468 0.00334842 -1.2923e-22)
(1.06463 0.00274777 1.19478e-22)
(1.06305 0.0015692 2.81912e-23)
(1.06409 0.00188683 6.99469e-24)
(1.06355 0.00178097 -8.55612e-23)
(1.06228 0.000971826 0)
(1.06261 0.00129762 0)
(1.06206 0.0002123 -8.76145e-28)
(1.06209 0.000602592 0)
(1.06248 -0.000504838 0)
(1.0622 -0.000165473 0)
(1.06337 -0.000954382 1.13159e-22)
(1.06288 -0.000765617 -1.16091e-22)
(1.0639 -0.00106173 -6.47202e-24)
(1.06624 -0.00154078 -3.43572e-25)
(1.06568 -0.0010848 -1.12468e-22)
(1.06594 -0.00131849 6.34822e-25)
(1.06693 -0.00191964 -6.36618e-23)
(1.06657 -0.00174508 6.377e-23)
(1.06776 -0.00211214 -1.07733e-24)
(1.06733 -0.00204301 0)
(1.06874 -0.00203211 -1.1293e-24)
(1.06823 -0.00211115 0)
(1.06986 -0.00160643 -9.11562e-27)
(1.06928 -0.00186493 0)
(1.07112 -0.000811787 0)
(1.07047 -0.00125392 0)
(1.07252 0.000312659 0)
(1.0718 -0.00028559 0)
(1.07409 0.00167141 0)
(1.07329 0.000970766 0)
(1.07584 0.00313188 0)
(1.07494 0.00239846 0)
(1.07781 0.00454068 1.58977e-24)
(1.0768 0.00385328 0)
(1.07999 0.0057237 1.66695e-24)
(1.07888 0.00517276 0)
(1.08233 0.00646871 0)
(1.08115 0.00616645 0)
(1.08469 0.00650997 0)
(1.08352 0.00659598 0)
(1.08683 0.00554687 0)
(1.08581 0.00617245 0)
(1.08845 0.00331529 2.16765e-24)
(1.08773 0.00460178 0)
(1.08923 -0.000310122 -2.2712e-24)
(1.08896 0.00167635 0)
(1.08895 -0.00524205 0)
(1.08923 -0.00262753 0)
(1.08756 -0.011192 0)
(1.08839 -0.00811298 0)
(1.08519 -0.0178022 -7.25455e-26)
(1.08648 -0.0144352 0)
(1.08207 -0.0248241 -5.99532e-24)
(1.08371 -0.021269 0)
(1.07848 -0.0322513 0)
(1.08032 -0.0284774 0)
(1.07457 -0.0403131 0)
(1.07656 -0.0361836 0)