/*--------------------------------*- C++ -*----------------------------------*\
  =========                 |
  \\      /  F ield         | OpenFOAM: The Open Source CFD Toolbox
   \\    /   O peration     | Website:  https://openfoam.org
    \\  /    A nd           | Version:  10
     \\/     M anipulation  |
\*---------------------------------------------------------------------------*/
FoamFile
{
    format      ascii;
    class       surfaceScalarField;
    location    "64.5";
    object      phi;
}
// * * * * * * * * * * * * * * * * * * * * * * * * * * * * * * * * * * * * * //

dimensions      [0 3 -1 0 0 0 0];

internalField   nonuniform List<scalar> 
57492
(
0.000235652
-1.05912e-05
-4.37064e-05
-0.000181355
-0.000162484
0.000267377
0.00013076
-2.87561e-05
8.08395e-05
0.000323308
-0.000375392
0.00315983
0.00338641
-0.000272107
-0.00627413
-0.00862824
0.00404527
0.0077428
0.0007219
-0.000664374
-0.00034844
0.000290914
-0.00128668
0.000222571
-7.73036e-05
0.00114141
0.000275892
-0.00084067
0.00159012
-0.00463329
0.00442565
-0.00138247
0.0013421
0.00424909
-0.00400107
-0.000611198
-0.000206388
0.000683803
0.000133783
-0.000122379
-0.000831758
0.000342939
0.000231636
-0.000325032
-2.89831e-05
-5.3224e-05
7.8472e-05
0.00171223
-0.00165231
-0.000619398
0.000559473
0.000246122
0.0013817
8.44085e-05
-0.000324564
0.000788423
0.00333523
-0.00379909
-0.000660724
0.00326111
-0.00292495
0.000135438
-0.000288516
0.000153078
-0.00166313
0.00121982
0.000578749
-0.00465983
0.000189548
0.00333558
0.0011347
0.00122815
-0.00472998
-0.001158
-0.00013297
-0.000196251
-0.000701765
0.00103099
-0.00028687
0.000175917
-2.20178e-05
-0.00254469
0.00215995
0.000734204
-0.000349459
-0.00304813
0.000925646
-0.000422209
-0.00112732
0.000596194
0.000456618
7.45048e-05
-0.000778709
-0.000362139
1.35307e-05
-0.000367096
-0.0011333
0.00129015
0.000210247
-0.000415846
0.000116322
-6.75724e-05
0.000751684
-0.00050026
-0.000466103
0.00021468
-0.00064857
0.000521476
0.000878778
-0.000888688
-0.0017033
0.00164997
0.000942017
-0.00202452
-0.000483846
0.00161968
-0.000707291
-0.000152015
0.000859306
-0.000271223
-0.000436068
-0.00137443
0.00189184
-0.000788635
0.000203045
-0.000767198
-0.000810275
-0.000569845
0.000792417
-0.000233023
-0.00190186
0.00115084
0.00075102
-0.00432172
0.00241986
0.00488117
-0.000821487
0.000349055
-0.00440874
0.00359018
-8.09493e-05
0.00137194
-0.00072918
0.00489305
-0.00498535
0.00141341
0.000304946
-0.00144247
0.00142523
-8.91247e-05
0.00172687
-0.000647351
-0.00128607
0.000206549
0.00193331
9.85059e-05
0.000881215
-0.000548385
0.0010924
0.000856015
0.00116661
-0.00475511
-0.000635235
0.000546771
0.00484358
-0.00488827
-0.000299046
0.000432199
0.00121815
0.00451297
-0.00443766
-0.00129346
0.00088979
-0.00430493
-0.00277744
0.00252861
0.00253386
-0.00228503
-0.000273068
0.0032026
-0.00570698
1.48431e-05
-0.000116549
-8.0378e-07
0.00010251
-0.000320837
1.06477e-05
6.69382e-05
-0.00013583
-0.000251945
-5.62661e-05
6.65537e-06
1.1112e-05
-1.19158e-05
8.84345e-06
2.26856e-06
0.00730224
0.00378551
-0.00587865
-0.0052091
0.00233714
-0.000701804
0.00566691
-0.00785214
0.00309878
0.0070905
0.00229277
-0.00635941
0.001624
-0.00286556
0.00213342
-0.000891859
0.002356
-0.00291415
0.00218215
-2.98434e-05
2.18132e-05
-2.56096e-06
-7.01413e-05
-3.40861e-06
-0.000222525
-2.89707e-05
-0.00293801
0.0053472
0.00339272
-0.00580192
0.00436288
-0.00494489
0.00298432
0.00474707
-0.00238418
0.0100841
-0.00148095
-0.00179028
-0.00681286
0.0022428
0.00541895
0.00242234
0.00160597
-0.00500517
0.005642
4.67806e-05
-7.55367e-05
0.00012762
0.00081589
0.00175708
-0.000626154
-0.00194681
0.0010396
9.95944e-05
-9.5654e-05
2.62851e-05
6.93689e-05
-0.0002978
0.000202146
-0.00660384
0.00342312
-0.00201301
0.00519373
-0.00574082
-0.00249599
0.00163298
-0.00262465
0.0020879
-0.00520408
0.00195133
-2.66006e-05
-0.000944015
-0.00098071
-0.000711411
0.00222695
0.000435788
-0.000834391
-8.52254e-05
0.000208205
-0.00077134
-8.96511e-05
-0.000271403
-0.00144395
-0.000236982
-6.24967e-05
1.86354e-05
0.000280843
-0.000215234
-0.000521275
0.000499527
0.000137471
1.68728e-05
-0.000369578
7.92027e-05
-4.22814e-06
0.000100483
-2.64478e-06
-0.000640945
0.000369542
8.34426e-05
-0.000724387
0.000172268
-0.000470068
0.00427362
0.00333162
-0.000178524
0.00212863
-0.00648325
-1.03847e-05
0.00226398
-0.00179749
-0.000456113
0.000291716
0.00316416
-0.00346626
0.00326914
0.00184123
-0.000500098
-0.00461027
-0.0010329
0.000500837
0.00380121
0.00398917
-0.00318084
-0.00164253
-0.00303453
0.0012512
0.00342586
-0.00118493
0.00350487
-0.00396248
0.000423304
-0.00464276
8.23699e-05
3.37239e-05
-4.57794e-06
0.00104461
-0.000616027
-0.000591065
7.67456e-05
-0.000324024
0.00129189
0.000363224
-1.91018e-05
-0.000187187
0.00033179
6.83219e-05
-0.000212925
0.000991672
-0.00121514
3.62821e-05
-0.000357613
0.000830834
0.00051845
-0.000125103
9.92802e-05
-0.00611266
0.00365119
0.00588459
0.00772168
-0.00200622
-0.00821146
-0.00285534
0.00446436
-9.70949e-05
-0.000874104
-0.0001621
-0.000522065
9.12385e-06
4.78606e-05
-0.000129971
3.72805e-05
4.48302e-05
-0.000129988
0.000144468
3.33802e-05
-0.000299314
3.93548e-05
-0.000265215
-0.000312667
5.58182e-05
-0.000803469
-0.000335851
-0.00081223
-0.000871442
0.000995786
0.000687886
3.32588e-05
0.000429972
-0.00127546
-0.00113644
0.000298258
-0.00293374
0.0013306
-5.99913e-05
-0.00350243
0.000809534
-0.000240843
0.000875965
-0.00334736
0.00256418
-9.27812e-05
0.000678999
-0.00272848
0.00292544
0.00252818
-0.0101973
-0.00176541
0.00218176
0.00302137
-0.00345618
0.00206067
-0.000320848
3.65552e-07
1.65073e-05
-3.4297e-06
3.79525e-06
0.000284189
-4.12918e-05
0.00559092
-0.0034139
-0.00248839
0.000311365
0.00483888
2.28688e-05
0.00464219
0.000166424
-0.00508168
0.0013789
0.00329678
-3.34894e-05
0.000550153
-0.00291291
0.00374166
5.34371e-06
-8.77341e-06
0.000759144
-0.00211965
-0.00284621
0.0012317
0.00308315
0.000847483
-4.83108e-05
-0.000890971
9.17994e-05
0.000281455
-8.25426e-05
-0.00109092
0.000240873
0.00137152
0.000198262
-0.00100773
-0.000134918
7.59382e-05
-7.27067e-06
1.03232e-05
-2.73032e-06
-3.22248e-07
1.09245e-05
-2.44311e-07
-1.79508e-05
4.65504e-05
-0.00010394
6.83143e-05
-0.00171631
0.00264975
-0.000761173
0.00291651
-0.0037832
-0.000849619
6.49819e-06
-0.0014989
0.00173328
-0.00399111
0.000241177
-0.00273605
-0.00183092
0.000575861
0.00269129
0.00291134
-0.00541307
0.00260517
0.00429295
-0.00420683
0.00224032
-0.00308407
0.00160608
-0.000762327
0.00245555
-0.00302322
0.00280799
0.00437043
0.00187648
0.00500115
-0.000231421
-0.00496681
0.000197077
0.00554177
-0.000659841
0.000119227
0.00552901
-0.000904658
8.38906e-05
-0.00470825
0.00396847
-0.00137677
0.00293732
0.00430763
-0.00140508
0.00114201
-0.00404456
0.00127068
0.00438761
-0.00135067
-0.00387591
-0.0016666
0.00413743
0.00106767
-0.00369238
-0.00186078
0.00362004
-0.00237937
-0.00323895
0.00215525
0.00346307
-0.00239534
-0.00326702
0.00328298
0.00223522
0.00304579
-0.00147479
-0.00380623
0.00301958
-0.0031797
-0.00258951
0.00261405
0.00299504
-0.00204098
0.00249726
-0.0040687
0.00361476
-0.00102085
-0.00506516
0.00105362
0.00537442
-0.00136289
0.00191044
-0.000265112
0.000991085
-0.00105703
0.000331059
-0.000108353
0.00127056
-0.00142732
-5.29913e-05
0.000305351
0.000110864
-0.00109403
-0.00171285
0.00111466
-1.71153e-07
-7.31586e-08
3.10186e-07
-4.81338e-07
-0.000101266
-0.00189071
0.00144359
-0.00168532
-6.81311e-05
0.00165219
4.65251e-05
-0.0017664
3.45556e-05
-0.000244312
0.00158165
0.000269481
-0.00160682
0.00162571
0.000457249
-0.00232727
0.00161574
0.00159162
-2.45067e-06
4.98209e-07
3.56763e-05
-4.76005e-06
2.30938e-06
-4.26184e-06
-5.54486e-06
4.23365e-06
-5.49549e-05
1.02677e-06
-6.57164e-06
5.26042e-06
-4.39273e-05
2.12847e-05
-0.000264227
2.21724e-05
-6.60997e-05
4.34572e-05
5.31991e-05
-5.33936e-06
-0.000172963
-1.69075e-05
7.01065e-05
-2.22468e-05
0.00142623
0.00327944
-0.00420483
0.00132579
-0.00446427
0.00456471
0.00471441
-0.000109191
-0.00118218
-0.00244425
0.00115803
0.0024684
-0.000710454
0.00272168
-0.0031934
0.000157279
-0.00331199
0.00383466
-0.00384604
-1.72149e-05
2.8594e-05
0.00385733
2.96816e-05
-5.23568e-05
-2.89781e-05
-0.00381505
-2.01291e-06
0.00391035
-6.21442e-06
-4.68003e-05
0.00400415
5.23121e-05
-0.000146114
2.3568e-05
0.00412812
-0.000147542
0.00407766
-0.00402998
-2.41104e-05
-0.000197697
0.00434561
-1.97936e-05
0.00398691
-0.000106952
-0.00388321
-9.44607e-05
-0.00384608
-4.33431e-05
-0.00381643
3.40947e-08
-0.00387315
3.95055e-05
-0.00378469
-0.000117441
-0.000193619
0.00455894
-1.97032e-05
0.00382201
-2.87126e-05
-2.39051e-05
-0.00375729
-3.38542e-05
-0.00378992
-1.86748e-05
-3.15792e-05
-0.00394754
0.000221831
-6.17825e-06
0.00458428
-1.91683e-05
0.003844
-2.81721e-05
-0.00390218
8.06875e-05
0.00460915
-5.93151e-06
-1.89358e-05
-5.88007e-06
0.00463329
-1.82619e-05
0.00386531
-2.72411e-05
0.00388621
-2.67803e-05
-2.69802e-05
-0.00389641
-2.41447e-05
-0.00389549
-3.3672e-05
-5.4959e-06
0.00465681
-1.802e-05
0.00390651
-2.57995e-05
-4.7349e-06
-0.00386705
-2.46234e-05
-0.0038661
-3.41283e-05
-5.28423e-06
0.00467941
-1.7318e-05
0.00392655
-2.53196e-05
-4.47603e-06
-0.00383727
-2.53085e-05
-0.0038364
-3.41795e-05
-4.62573e-06
0.00470111
-1.70771e-05
0.00394621
-2.42879e-05
-4.40155e-06
-0.00380719
-2.56805e-05
-0.00380627
-3.45314e-05
-3.91162e-06
0.00472138
-1.63509e-05
0.00396609
-2.37935e-05
-4.11051e-06
-0.00377679
-2.62925e-05
-0.00377589
-3.44892e-05
-2.2494e-06
0.00473974
-1.61112e-05
0.00398655
-2.27115e-05
4.76369e-06
-0.00375493
-2.66234e-05
-0.00373643
-3.46967e-05
4.52513e-07
0.00475464
-1.53584e-05
0.0040092
-2.21943e-05
2.06686e-05
-0.00361916
-0.000156437
-0.00364278
-7.29785e-05
6.07737e-06
0.00476368
-1.51118e-05
0.00401793
-2.65023e-06
2.03566e-05
-0.0036067
-3.28094e-05
-0.00358598
-3.64404e-05
1.66682e-05
0.00476134
-1.43318e-05
0.00400565
2.89499e-05
4.76665e-05
-0.00344975
-0.000204616
-0.00345321
-8.51024e-05
0.000200901
0.0045745
-1.40658e-05
0.00414332
6.32281e-05
5.4812e-05
-0.00340447
-0.000100098
-0.00338622
-1.21768e-05
0.000178347
0.00425324
0.00014292
0.00422721
9.44551e-05
8.84693e-05
-0.000156518
-0.00333642
-0.0033435
4.57488e-05
1.01706e-05
2.83193e-05
0.00421475
0.00421465
2.27308e-05
-0.00342578
0.00350974
-0.000184062
-0.00341522
-0.00016708
0.000151781
-0.000162211
-0.00332599
4.46358e-05
-0.00323636
-0.00346322
0.00352267
-9.22564e-05
-0.000158093
-0.0034218
0.0034499
-5.47212e-05
-5.55684e-05
-0.00347754
0.00350497
-5.3114e-05
-5.39342e-05
-0.00353195
0.00355875
-5.14175e-05
-5.22901e-05
-0.00358515
0.00385671
-4.97368e-05
-5.05424e-05
-0.00387183
0.00384439
2.54259e-05
-4.89722e-05
-0.00399393
0.00398793
-4.63537e-05
-0.000120942
-0.00388372
0.00385029
-0.000112689
5.74069e-05
-0.00378149
0.00380426
-4.25613e-05
-7.87416e-05
-0.0038263
0.00384791
-4.07735e-05
-4.17445e-05
-0.00386888
0.00388947
-3.88487e-05
-3.99101e-05
-0.0039094
0.00392892
-3.68362e-05
-3.7951e-05
-0.00394776
0.00396617
-3.47597e-05
-3.59199e-05
-0.00398389
0.00400116
-3.26291e-05
-3.38323e-05
-0.00401774
0.00403383
-3.04277e-05
-3.16899e-05
-0.00402569
0.00413527
3.33482e-05
-5.92472e-06
0.00413933
2.42552e-05
-2.77902e-05
6.96942e-05
0.00417284
-2.03946e-05
0.00420726
0.00413584
-0.00405259
-2.00212e-05
-0.00419141
0.0041972
1.69422e-05
3.8887e-05
0.00403623
-0.00400114
-3.77358e-05
1.25847e-05
0.00398401
-0.00396613
-4.05833e-05
-3.93278e-05
0.00394786
-0.00392886
-4.3292e-05
-4.20682e-05
0.00390946
-0.00388935
-4.59135e-05
-4.47119e-05
0.00386886
-0.00384766
-4.84401e-05
-4.72679e-05
0.0038261
-0.00380393
-5.08872e-05
-4.97301e-05
0.00385877
-0.00382976
-5.31116e-05
-5.21163e-05
0.00387007
-0.00380396
-0.000109461
-5.4151e-05
0.00375469
-0.00370562
-9.5719e-06
-4.92293e-05
0.00372671
-0.00372505
-2.03306e-05
-9.63487e-05
0.00358496
-0.00355857
-6.00696e-05
-5.9402e-05
0.00353196
-0.00350485
-6.12968e-05
-6.0729e-05
0.00347756
-0.00344978
-6.22688e-05
-6.18213e-05
0.00342181
-0.00343177
-6.30127e-05
-6.26669e-05
0.00340489
-0.00342638
-6.36127e-05
-6.33218e-05
0.00337462
-0.00329699
-3.18804e-05
-6.39425e-05
-0.00323339
-1.89609e-05
-0.00341095
-0.000166483
0.00416648
4.25408e-05
-3.03111e-05
0.00420711
8.71481e-05
-0.000104816
-0.00321869
3.40727e-05
-0.00318031
0.000138968
-0.000162404
-0.00338751
-0.00329184
-0.00342412
0.00339674
-0.000156681
0.00343467
-0.0034339
-0.000167253
-0.000156532
-0.00338104
0.00340925
-0.000120466
-0.000142389
-0.00343699
0.00346459
-8.23219e-05
-8.33119e-05
-0.00349174
0.00351868
-8.006e-05
-8.10797e-05
-0.00354517
0.00357147
-7.77137e-05
-7.87813e-05
-0.00359732
0.0036229
-7.53159e-05
-7.6398e-05
-0.00364795
0.0037463
-7.2921e-05
-7.40176e-05
-0.00369695
0.00372097
-7.0374e-05
-7.15923e-05
-0.00384741
0.00380252
-6.7804e-05
-6.90349e-05
-0.00379004
0.00381238
-6.48948e-05
-6.62608e-05
-0.00383405
0.00385532
-6.20478e-05
-6.3418e-05
-0.00387595
0.0038962
-5.90945e-05
-6.05405e-05
-0.00391579
0.00393498
-5.60258e-05
-5.75434e-05
-0.0039535
0.0039716
-5.28603e-05
-5.44417e-05
-0.00398903
0.00400601
-4.96143e-05
-5.12542e-05
-0.00402231
0.00403815
-4.62646e-05
-4.79879e-05
-0.00405306
0.00410004
-1.36354e-05
-2.08347e-05
-1.72793e-06
-2.07847e-05
0.00419536
-2.22867e-05
0.00418704
-0.00410165
0.00415576
-1.15662e-05
2.26427e-05
0.00414473
-0.00413152
3.72498e-06
0.00412482
-1.0397e-05
1.33921e-05
1.94822e-05
0.00417424
0.00419986
0.00411749
-0.00407286
-6.4651e-05
2.48595e-05
0.00402252
-0.00400604
-5.42156e-05
-3.77599e-05
0.00398917
-0.00397159
-5.81615e-05
-5.61913e-05
0.00395363
-0.00393495
-6.19748e-05
-6.00329e-05
0.00391589
-0.00389612
-6.56784e-05
-6.37684e-05
0.00387601
-0.0038552
-6.92493e-05
-6.73872e-05
0.00383406
-0.00381229
-7.26619e-05
-7.08641e-05
0.00379024
-0.00376753
-7.58282e-05
-7.4159e-05
0.0037445
-0.00377517
-7.8789e-05
-7.71791e-05
0.0037444
-0.00367254
-8.14316e-05
-7.99973e-05
0.00368632
-0.00362272
-8.39348e-05
-8.25683e-05
0.00359728
-0.0035713
-8.60463e-05
-8.48445e-05
0.00354516
-0.00351851
-8.79473e-05
-8.68741e-05
0.00349168
-0.00346437
-8.95839e-05
-8.86433e-05
0.00343688
-0.0034089
-9.09908e-05
-9.01601e-05
0.00338074
-0.00335211
-9.22422e-05
-9.14819e-05
0.00332335
-0.00326183
-9.33959e-05
-9.2703e-05
0.00321489
-0.00314371
-3.71093e-05
-6.59031e-05
-0.00342816
-0.000168142
2.01248e-05
-9.78101e-05
-0.00310263
-0.00309644
-2.71389e-05
-0.000175118
-0.00314138
-1.09807e-05
0.00414445
0.00414455
-2.43833e-07
-0.000107663
9.61774e-05
-0.00337602
-0.00013545
-0.00340037
-2.40592e-06
-9.36509e-05
-0.00300657
-5.0653e-05
-0.0030482
-0.00337078
0.0041706
-0.0041457
-3.64694e-05
0.00414067
1.89537e-05
4.59542e-05
-1.68272e-05
0.00414511
8.26688e-06
0.00418223
-0.00339426
0.00346035
-0.000201539
-0.000182744
0.000133945
-0.00335157
0.0034439
2.16715e-05
0.000167958
-0.00363353
-0.000133098
-0.00348522
0.00348579
-0.000167829
-0.000193013
-0.00346828
0.00343932
-0.000127719
-0.000139021
-0.00344065
0.00343222
-0.000112037
-0.00014372
-0.00345927
0.00348612
-0.000109171
-0.000110361
-0.00351251
0.00353871
-0.000106257
-0.000107474
-0.00356446
0.00359002
-0.000103271
-0.000104533
-0.00361513
0.00364001
-0.000100197
-0.000101504
-0.00366439
0.0036885
-9.70364e-05
-9.83979e-05
-0.0037121
0.00373545
-9.3729e-05
-9.51873e-05
-0.00375823
0.00378071
-9.02841e-05
-9.18138e-05
-0.0038027
0.00382438
-8.65836e-05
-8.82434e-05
-0.00384547
0.0038662
-8.2777e-05
-8.45048e-05
-0.00388631
0.00390604
-7.88279e-05
-8.06457e-05
-0.00392514
0.00394384
-7.47327e-05
-7.66399e-05
-0.0039619
0.00397955
-7.051e-05
-7.24983e-05
-0.00399654
0.00401311
-6.61822e-05
-6.82434e-05
-0.00402901
0.00404448
-6.17382e-05
-6.38903e-05
-0.00407043
0.0040911
-3.4298e-05
-4.6787e-05
-3.19578e-05
1.64013e-05
-1.18783e-05
0.00419083
-2.03242e-05
-2.43297e-05
0.00418911
0.00418312
0.00417116
0.0041382
-0.00412038
-1.40913e-05
-0.00414522
0.00413483
1.01508e-05
-1.74193e-05
0.00405964
-0.00405908
-6.52073e-05
-3.58873e-05
0.00402923
-0.00401315
-7.02961e-05
-6.76053e-05
0.00399671
-0.00397957
-7.53014e-05
-7.26347e-05
0.00396206
-0.00394385
-8.01841e-05
-7.75449e-05
0.00392528
-0.00390603
-8.49317e-05
-8.2336e-05
0.00388644
-0.00386618
-8.95062e-05
-8.69779e-05
0.00384561
-0.00382441
-9.38644e-05
-9.14302e-05
0.00380293
-0.00378081
-9.79463e-05
-9.56424e-05
0.00375842
-0.00373545
-0.000101758
-9.95703e-05
0.00371223
-0.00368841
-0.000105247
-0.00010322
0.00366441
-0.00363988
-0.000108457
-0.000106574
0.00361513
-0.00358986
-0.000111314
-0.000109597
0.00356442
-0.00353848
-0.000113885
-0.000112317
0.00351238
-0.00348579
-0.000116171
-0.000114748
0.00345904
-0.00343181
-0.000118216
-0.000116915
0.00340442
-0.00337657
-0.000120092
-0.000118875
0.00334856
-0.0033201
-0.000121862
-0.000120707
0.00326353
-0.00317697
-0.000123672
-0.000122467
0.00311647
-0.00309757
-6.95525e-05
-8.76423e-05
-3.8958e-05
1.30378e-05
-0.00302228
-0.00305611
-8.04203e-05
0.000123283
-0.00336536
-7.16717e-05
-0.00316336
-7.74993e-06
0.00412409
0.00416135
-1.82592e-05
0.000173019
-0.00350292
4.10607e-05
-0.0030346
0.000772765
-0.00279738
0.00364035
4.40829e-05
-8.95016e-05
-0.00301069
-1.20876e-05
-0.00296611
-0.00224893
0.00344476
0.000395786
-0.00170823
-0.000271216
-0.00331917
-0.00329517
0.00346004
3.08593e-06
0.000156414
-6.81871e-06
-0.00345098
0.00344524
-0.000195797
-0.000124041
-0.0034435
0.00342133
-0.000145654
-0.000191275
-0.00342575
0.00344001
-0.000141988
-0.000143441
-0.00343608
0.00346245
-0.000138402
-0.000139788
-0.0034884
0.00351418
-0.000134952
-0.000136317
-0.00353956
0.00356476
-0.000131455
-0.000132848
-0.00358954
0.00361413
-0.000127868
-0.000129313
-0.00363829
0.00366225
-0.000124153
-0.000125667
-0.00368574
0.00370899
-0.00012029
-0.000121885
-0.00373175
0.00375426
-0.000116241
-0.000117942
-0.00377624
0.00379795
-0.000111987
-0.000113801
-0.00381914
0.00384004
-0.000107485
-0.000109432
-0.00386037
0.00388038
-0.000102784
-0.000104841
-0.00389979
0.00391886
-9.78886e-05
-0.000100059
-0.00393731
0.00395538
-9.28101e-05
-9.50898e-05
-0.00397284
0.0039899
-8.7573e-05
-8.9951e-05
-0.00400633
0.00402235
-8.22074e-05
-8.46716e-05
-0.00403774
0.00405272
-7.67237e-05
-7.92779e-05
-0.0040797
0.00411653
-7.11356e-05
-7.37582e-05
-0.00411973
0.00412953
-4.62761e-05
-3.51509e-05
-0.004158
0.00416388
-1.36254e-05
-9.51693e-06
2.36221e-05
-1.00072e-05
0.00417549
1.1346e-05
-5.1113e-05
0.00420365
0.00415905
3.05193e-05
1.47172e-05
0.0041456
0.00420363
-1.4284e-05
-6.63527e-06
0.00416603
0.00417159
1.44133e-05
-4.73779e-05
0.00419432
0.00419001
0.00417905
-0.0041523
-1.66016e-05
-0.00425475
0.00415443
5.29486e-05
-9.39579e-05
0.00412971
-0.00410784
-3.59591e-05
-4.00082e-05
0.00406737
-0.00405286
-7.97186e-05
-7.63587e-05
0.00403798
-0.00402243
-8.58403e-05
-8.24916e-05
0.00400653
-0.00398996
-9.18697e-05
-8.8533e-05
0.00397304
-0.00395545
-9.77771e-05
-9.44689e-05
0.00393751
-0.00391892
-0.000103523
-0.00010027
0.00390001
-0.00388046
-0.000109056
-0.000105889
0.00386062
-0.00384015
-0.000114326
-0.000111276
0.00381942
-0.00379808
-0.000119284
-0.000116379
0.00377649
-0.00375433
-0.000123915
-0.000121163
0.00373194
-0.003709
-0.000128189
-0.000125612
0.00368586
-0.0036622
-0.000132111
-0.000129711
0.00363836
-0.00361401
-0.000135661
-0.000133446
0.00358949
-0.0035645
-0.000138877
-0.000136833
0.00353935
-0.00351374
-0.000141784
-0.0001399
0.00348797
-0.00346175
-0.00014443
-0.000142682
0.00343539
-0.00340859
-0.000146887
-0.000145239
0.00338166
-0.00335429
-0.000149228
-0.000147646
0.00332678
-0.00329891
-0.000151544
-0.000149972
0.00323425
-0.00314988
-0.000153923
-0.000152309
0.00312892
-0.00309196
-0.000126453
-0.000101379
-8.3419e-05
5.97289e-05
-0.002987
-0.00304472
-0.000130661
0.000118276
-0.00331062
-1.55867e-05
-0.00310672
0.000297799
-0.00302796
4.17781e-05
-0.00308846
0.00417448
-0.00416852
-1.95855e-05
0.00416952
-4.6155e-05
3.66856e-06
1.17415e-06
0.00418947
-4.49541e-05
0.00420305
0.000316949
-0.00265708
7.41955e-05
-0.00298057
-0.0014962
-0.00181885
-0.00269195
0.00312755
-3.98109e-05
-6.3218e-05
5.51132e-05
-0.00297889
-0.000106978
-0.00300096
-0.00246879
-0.000494373
-0.00321648
-0.00329045
0.00335807
-6.45394e-05
-6.48525e-06
-0.00341147
0.00339119
-0.000175513
-0.000177441
-0.00337276
0.0033984
-0.000171292
-0.000172852
-0.00342379
0.00344911
-0.000167308
-0.000168828
-0.00347418
0.00349914
-0.000163368
-0.000164856
-0.00352377
0.00354827
-0.00015945
-0.000160945
-0.00357241
0.00359639
-0.000155442
-0.000156984
-0.00362
0.00364343
-0.000151304
-0.000152915
-0.00366646
0.0036893
-0.000146994
-0.000148696
-0.00371171
0.0037339
-0.000142483
-0.000144291
-0.00375563
0.00377713
-0.000137737
-0.000139672
-0.00379814
0.00381888
-0.000132736
-0.000134808
-0.00383913
0.0038591
-0.000127455
-0.000129678
-0.00387854
0.00389767
-0.000121915
-0.000124279
-0.00391624
0.00393448
-0.00011613
-0.000118631
-0.00395214
0.00396946
-0.000110122
-0.000112753
-0.00398617
0.00400252
-0.000103922
-0.000106669
-0.00401827
0.00403363
-9.75723e-05
-0.000100418
-0.00404839
0.00406277
-9.11043e-05
-9.40376e-05
-0.00407657
0.00408997
-8.45381e-05
-8.75509e-05
-0.00413581
0.0041341
-4.4566e-05
-8.0987e-05
-4.39367e-05
1.18514e-05
-5.02067e-05
0.00421385
2.51424e-05
-2.40653e-05
0.00420257
0.00419605
-9.49986e-06
-2.0605e-06
0.00415716
0.00414392
-2.68255e-05
3.47748e-05
0.00415808
0.00414271
0.00422596
0.00418901
-0.00416527
-4.03432e-05
-0.004149
0.00419959
2.35695e-06
-5.39443e-05
0.00414069
-0.00409014
-8.65025e-05
-6.45923e-05
0.00407683
-0.00406291
-9.36388e-05
-8.96737e-05
0.00404865
-0.00403375
-0.000100732
-9.67538e-05
0.00401852
-0.00400265
-0.000107743
-0.000103767
0.00398644
-0.00396959
-0.000114621
-0.000110678
0.00395243
-0.00393464
-0.000121311
-0.000117436
0.00391655
-0.00389785
-0.000127752
-0.00012398
0.00387888
-0.00385931
-0.000133888
-0.000130252
0.00383949
-0.0038191
-0.000139672
-0.000136201
0.00379848
-0.00377731
-0.00014508
-0.000141789
0.00375593
-0.00373404
-0.000150087
-0.000146993
0.00371195
-0.00368937
-0.000154689
-0.000151799
0.00366662
-0.00364339
-0.000158887
-0.000156202
0.00362
-0.00359617
-0.000162711
-0.000160219
0.00357219
-0.00354777
-0.000166198
-0.000163883
0.00352322
-0.00349825
-0.0001694
-0.000167236
0.00347315
-0.00344765
-0.000172386
-0.000170339
0.00342203
-0.00339603
-0.000175227
-0.000173266
0.00336992
-0.00334347
-0.000177995
-0.000176083
0.00331693
-0.00329011
-0.000180745
-0.000178847
0.00320982
-0.0031528
-0.00018348
-0.000181668
0.00309902
-0.00305172
-0.00015428
-0.000184433
-7.69206e-05
7.79908e-05
-0.00300203
-0.00301297
-0.000115676
9.18695e-05
-0.00310469
9.49283e-06
-0.00307443
-1.55298e-05
0.00416098
0.00419505
-4.04177e-05
0.000189906
-0.00290091
-0.000288581
-0.00353489
1.89127e-05
-0.00296457
4.24393e-05
-0.00305671
7.47172e-05
-0.00300018
-0.00351314
-0.000774501
0.000263068
-0.000523925
-0.00325228
-0.000149821
-0.003122
5.55951e-05
-0.0029565
-0.000108561
3.68292e-05
-0.0029303
-9.95133e-05
-0.00302201
-0.00311512
-0.00299794
0.00315679
-0.000198666
0.00312894
-0.00340555
-0.000497891
-0.000363365
-0.00327883
0.00335028
-0.000135989
-0.000128524
-0.00337449
0.00339875
-0.000199775
-0.000201648
-0.00342286
0.00344692
-0.000195357
-0.000196961
-0.00347076
0.00349456
-0.000191102
-0.000192669
-0.0035181
0.00354156
-0.000186832
-0.000188399
-0.00356472
0.00358778
-0.000182506
-0.000184108
-0.00361051
0.00363311
-0.000178045
-0.000179714
-0.00365536
0.00367747
-0.000173409
-0.000175167
-0.0036992
0.00372076
-0.000168555
-0.000170425
-0.00374192
0.00376288
-0.000163449
-0.00016545
-0.00378342
0.00380375
-0.000158061
-0.00016021
-0.00382362
0.00384325
-0.000152368
-0.000154678
-0.00386241
0.00388131
-0.000146355
-0.000148836
-0.00389971
0.00391783
-0.000140033
-0.000142681
-0.00393542
0.00395271
-0.000133419
-0.000136228
-0.00396946
0.00398588
-0.000126542
-0.000129501
-0.00400175
0.00401727
-0.000119442
-0.000122533
-0.00403222
0.00404681
-0.000112167
-0.00011537
-0.00406084
0.0040745
-0.000104767
-0.000108062
-0.0040876
0.00410035
-9.72864e-05
-0.000100654
-0.00411255
0.00415775
-8.97693e-05
-9.3186e-05
-0.0041714
0.00419144
-3.96287e-05
-5.75828e-05
-0.00414595
0.00417284
-4.24233e-05
-6.57295e-07
1.79251e-05
-1.02777e-05
0.00419492
4.87422e-05
-8.0703e-05
0.0042048
0.00422765
2.14486e-05
1.996e-05
0.00417244
0.00420722
-9.05837e-06
-1.97718e-06
0.00416819
0.00415483
1.29577e-05
-2.38543e-05
0.00416898
0.00415369
4.05024e-06
-2.12365e-05
0.00420666
0.00420616
3.88324e-05
-4.32047e-05
0.00419943
0.00422064
0.00422184
-0.00416401
-5.54688e-05
-0.00421166
0.00419745
-2.89914e-05
-3.02359e-05
0.00416271
-0.0041426
-6.04501e-05
-5.52532e-05
0.00411284
-0.00410053
-9.88149e-05
-9.43513e-05
0.00408789
-0.00407467
-0.000106857
-0.000102314
0.00406113
-0.00404699
-0.000114872
-0.000110295
0.00403253
-0.00401746
-0.000122807
-0.000118229
0.00400208
-0.00398611
-0.000130596
-0.000126057
0.00396983
-0.00395298
-0.00013817
-0.00013371
0.00393584
-0.00391813
-0.00014546
-0.00014112
0.00390016
-0.00388164
-0.000152405
-0.000148221
0.00386288
-0.0038436
-0.000158959
-0.000154959
0.00382409
-0.00380408
-0.00016509
-0.000161294
0.00378387
-0.00376318
-0.000170776
-0.000167201
0.00374232
-0.00372099
-0.000176014
-0.000172666
0.0036995
-0.00367758
-0.000180812
-0.000177689
0.00365551
-0.00363302
-0.000185199
-0.00018229
0.0036104
-0.00358738
-0.000189218
-0.000186504
0.00356423
-0.00354071
-0.000192923
-0.000190379
0.00351707
-0.00349308
-0.000196383
-0.000193976
0.00346898
-0.00344454
-0.000199665
-0.000197365
0.00342001
-0.00339517
-0.000202833
-0.00020061
0.00337026
-0.00334506
-0.000205944
-0.000203765
0.00331984
-0.00329433
-0.000208989
-0.00020689
0.0032688
-0.00321096
-0.00021212
-0.000209963
0.0031553
-0.00307989
-0.000174921
-0.000171333
-0.000143888
9.19392e-05
-0.00297007
-0.00305653
-0.000167251
6.66224e-05
-0.00298141
-0.00341446
-0.00051502
6.68053e-05
-0.00294881
0.00423345
-0.0042355
-4.03717e-05
0.00423866
-8.59158e-05
-1.901e-05
1.44117e-05
0.00420403
-1.66195e-05
0.00419505
1.00635e-05
-0.00304205
4.28477e-05
-0.00302484
-1.28946e-05
-0.0031015
7.49517e-05
-0.00301953
0.000106768
-0.00302644
0.000138277
-0.00297664
-0.000130054
0.000131255
-0.00297127
-0.00018705
-0.00299953
-0.00303843
-0.00341218
0.00328275
-0.000368461
-0.000450111
0.000528329
-0.00349268
0.00352463
-0.00363402
-0.000340727
-0.000402569
-0.00318512
0.00326234
-0.000275892
-0.000265732
-0.00334984
0.00341027
-0.000196418
-0.000216024
-0.00343303
0.00345578
-0.000222519
-0.00022441
-0.00347832
0.00350081
-0.00021784
-0.000219506
-0.00352305
0.00354523
-0.00021328
-0.00021491
-0.00356716
0.00358901
-0.000208687
-0.000210331
-0.00361059
0.00363208
-0.00020399
-0.000205687
-0.00365327
0.00367434
-0.000199123
-0.000200903
-0.0036951
0.00371573
-0.000194038
-0.000195926
-0.00373602
0.00375616
-0.000188691
-0.000190712
-0.00377592
0.00379552
-0.000183047
-0.00018522
-0.00381473
0.00383374
-0.000177073
-0.000179416
-0.00385234
0.00387072
-0.000170748
-0.000173274
-0.00388866
0.00390636
-0.00016406
-0.000166778
-0.00392361
0.00394059
-0.000157018
-0.000159925
-0.00395709
0.00397332
-0.00014964
-0.000152731
-0.00398904
0.00400445
-0.000141962
-0.000145221
-0.00401936
0.00403394
-0.000134028
-0.000137436
-0.004048
0.00406173
-0.000125895
-0.000129429
-0.00407493
0.00408779
-0.000117626
-0.000121258
-0.00410012
0.00411211
-0.000109281
-0.000112985
-0.00412359
0.00413473
-0.00010091
-0.000104668
-0.00417351
0.00419868
-6.47995e-05
-9.63552e-05
-3.74827e-05
-2.88277e-05
-7.26083e-06
0.00423101
2.51618e-05
-6.55457e-05
0.00424518
0.00422398
-2.92308e-05
1.89898e-05
0.00418268
0.00417073
-8.60529e-06
-1.89586e-06
0.00417869
0.00416521
1.23503e-05
-2.27433e-05
0.00417937
0.00416414
-1.58607e-05
-6.89898e-06
0.00422942
0.00416755
0.00422816
0.00422481
-0.0042176
-6.2681e-05
-0.00422486
0.00421438
-1.85109e-05
-3.02832e-05
0.0041761
-0.00413496
-0.000101594
-9.67497e-05
0.00412391
-0.00411232
-0.000110403
-0.000105398
0.00410044
-0.00408801
-0.000119289
-0.000114197
0.00407527
-0.00406198
-0.000128167
-0.00012303
0.00404838
-0.00403423
-0.000136962
-0.000131823
0.00401978
-0.00400478
-0.000145594
-0.000140501
0.00398951
-0.0039737
-0.000153985
-0.000148983
0.00395762
-0.00394103
-0.000162058
-0.000157192
0.00392419
-0.00390685
-0.00016975
-0.000165057
0.00388928
-0.00387123
-0.00017701
-0.000172522
0.00385298
-0.00383426
-0.000183805
-0.000179545
0.00381537
-0.00379603
-0.000190115
-0.000186096
0.00377653
-0.00375661
-0.000195935
-0.000192165
0.00373654
-0.00371608
-0.000201279
-0.000197755
0.00369548
-0.0036745
-0.000206179
-0.000202888
0.0036534
-0.00363194
-0.000210679
-0.000207602
0.00361037
-0.00358846
-0.000214836
-0.000211947
0.00356645
-0.00354411
-0.000218717
-0.000215985
0.0035217
-0.00349897
-0.000222388
-0.000219783
0.00347618
-0.0034531
-0.000225911
-0.000223405
0.00342996
-0.00340656
-0.000229345
-0.000226908
0.0033831
-0.00335938
-0.000232715
-0.000230346
0.00333558
-0.00331156
-0.000236143
-0.000233754
0.00324567
-0.00318109
-0.000239501
-0.000237226
0.00314199
-0.00312561
-0.000203434
-0.000206345
-0.000319801
0.00012719
-0.00292939
-0.00304376
-0.000153775
0.000157836
-0.00300359
-0.00305786
-0.000221525
2.19604e-05
-0.00293656
-2.8621e-05
0.00420174
0.00425818
-6.04242e-05
0.000275622
-0.00357915
-0.000330492
1.05368e-05
-0.00300974
0.000344487
-0.00356154
2.23063e-05
-0.00298401
4.29008e-05
-0.00299278
4.62093e-05
-0.00302052
7.51587e-05
-0.00298792
0.000107369
-0.00299553
0.000139203
-0.00298459
0.000139065
-0.0029525
-0.000180439
0.0001558
-0.00297895
-0.000199128
-0.00303917
-0.00300593
-0.00367252
0.00355024
-0.000218443
-0.000414925
-0.00349764
0.000333414
0.00374596
-0.0036265
-0.000534387
-0.000257053
-0.00347487
0.00342302
-0.000316603
-0.000327203
-0.00341152
0.00338867
-0.000253048
-0.000254232
-0.00342314
0.00347561
-0.000248894
-0.00025049
-0.0034967
0.00351777
-0.000243588
-0.000245499
-0.00353863
0.00355941
-0.000238621
-0.000240362
-0.00357995
0.00360042
-0.000233749
-0.000235452
-0.00362065
0.0036408
-0.000228838
-0.00023056
-0.0036607
0.00368051
-0.0002238
-0.000225583
-0.00370005
0.00371949
-0.000218563
-0.000220443
-0.00373864
0.00375767
-0.000213074
-0.000215078
-0.0037764
0.00379499
-0.000207285