/*--------------------------------*- C++ -*----------------------------------*\
  =========                 |
  \\      /  F ield         | OpenFOAM: The Open Source CFD Toolbox
   \\    /   O peration     | Website:  https://openfoam.org
    \\  /    A nd           | Version:  10
     \\/     M anipulation  |
\*---------------------------------------------------------------------------*/
FoamFile
{
    format      ascii;
    class       volScalarField;
    location    "10.5";
    object      p;
}
// * * * * * * * * * * * * * * * * * * * * * * * * * * * * * * * * * * * * * //

dimensions      [0 2 -2 0 0 0 0];

internalField   nonuniform List<scalar> 
14667
(
0.244131
0.25328
-0.0130977
-0.0108602
-0.00774022
0.176291
0.163677
-0.0116425
-0.00029173
-0.00225077
0.180112
0.194028
0.275236
0.206898
-0.0151121
0.161566
0.168696
0.0208887
0.011345
0.170012
0.198036
0.278496
0.215068
0.206557
-0.293286
-0.311804
-0.348941
-0.321656
-0.314154
0.560757
0.524407
0.516678
-0.388834
-0.392605
-0.418074
-0.380253
-0.399064
0.00477942
-0.00858851
0.00460123
0.0174373
0.0325102
0.707735
0.72315
0.815275
0.791524
0.697789
-0.414456
-0.403691
-0.434869
-0.439849
0.638154
0.58556
0.544392
-0.0920552
-0.126163
-0.334232
-0.309421
-0.444071
-0.445015
-0.310887
-0.311826
0.306723
0.359946
0.456272
0.396034
0.27613
0.327344
0.20526
0.487678
0.472502
0.464355
0.886337
0.831649
-0.425763
-0.396694
-0.387373
-0.402397
0.485115
0.497545
0.0114083
0.0063227
0.00471239
-0.00776074
-0.00629401
-0.307845
-0.331136
-0.4529
-0.451803
-0.26999
-0.266459
-0.0752105
-0.0681139
0.0238112
0.0239979
0.0836192
0.0808245
0.107386
0.10788
0.103715
0.108918
-0.209861
-0.161289
0.417976
0.45554
0.438526
0.409197
0.395591
0.38608
-0.0177744
-0.0218575
-0.0168374
-0.0155118
-0.00839362
-0.012624
-0.0258447
-0.0355547
-0.0350055
-0.013516
-0.0189497
-0.0133214
0.0248765
0.0250908
0.0265172
0.0280558
0.027362
0.0260832
0.029768
0.0317401
0.0301964
0.0286808
0.0332282
0.0351803
0.0335944
0.0317381
0.0371425
0.0392722
0.0377763
0.0356026
0.0415665
0.0440101
0.0426371
0.0401228
0.0465671
0.0492336
0.0481133
0.0453041
0.0519908
0.0548722
0.0540165
0.0510272
0.0578577
0.060653
0.060064
0.0570452
0.0628794
0.0658721
0.0659989
0.0630582
0.0682629
0.0702911
0.0713091
0.0688764
0.0727935
0.0747906
0.0765604
0.0741994
0.0788227
0.0764568
0.0228713
0.0230175
0.07796
0.0226901
0.0218187
0.0219751
0.024092
0.0230768
0.0737802
0.0708388
0.0725132
0.0668433
0.0687461
0.061025
0.0644617
0.056294
0.0587278
0.050845
0.0535803
0.0456399
0.0482025
0.040737
0.043148
0.0362329
0.0384328
0.0322379
0.0341663
0.0290482
0.0304634
0.0265567
0.0278513
0.0253022
0.0220973
0.0220621
0.0245458
0.0235453
0.0268339
0.0256899
0.0294296
0.0281041
0.0325187
0.0309552
0.036396
0.0343812
0.0410954
0.0386408
0.0466059
0.0437562
0.0527202
0.0496109
0.0591469
0.0558954
0.0657635
0.0624967
0.0719863
0.0689022
0.0781021
0.0752287
0.08089
0.021074
0.0209721
0.0747227
0.082604
0.0221311
0.0210809
0.0211201
0.0862816
0.0704262
0.0681593
0.0695859
0.0644594
0.0663801
0.0596453
0.0619515
0.0555501
0.0576294
0.0508139
0.05324
0.0460399
0.0484016
0.0414887
0.0437329
0.0372864
0.0393346
0.0335705
0.0353707
0.0300992
0.0317017
0.0270394
0.0284822
0.0243263
0.0256409
0.0232051
0.0211332
0.0207994
0.0224322
0.0215878
0.0240947
0.0232136
0.0261236
0.0250955
0.0284434
0.0272644
0.0312232
0.0297687
0.0347935
0.0328921
0.039218
0.0368903
0.0445912
0.0417898
0.0507868
0.0476024
0.0576001
0.0541207
0.0648363
0.0612084
0.0720652
0.0684404
0.079146
0.0756908
0.0860299
0.0825883
0.0890878
0.0929962
0.0893902
0.0707787
0.0789377
0.0845342
0.0201963
0.0914156
0.0961845
0.0200859
0.0205367
0.0219605
0.0208754
0.0197432
0.0199967
0.0706477
0.075035
0.065699
0.0663365
0.0663357
0.0646175
0.0657726
0.0614136
0.0631572
0.0577734
0.05958
0.0539292
0.0559035
0.049616
0.051819
0.0452263
0.0474041
0.0410088
0.0430945
0.0370116
0.0389803
0.0332529
0.0351079
0.0298441
0.0314529
0.0269113
0.0283724
0.0242544
0.0255225
0.023083
0.0202585
0.0202639
0.0201813
0.0220918
0.0213124
0.0237114
0.0228729
0.0255297
0.0245811
0.0276183
0.0265353
0.0301213
0.028805
0.0333106
0.0316167
0.0373596
0.0352143
0.0424292
0.0397647
0.0485094
0.0453502
0.0555067
0.0519009
0.0632215
0.0593
0.0712541
0.0672261
0.0794143
0.0753166
0.0875049
0.0834649
0.095329
0.0913203
0.102574
0.0990788
0.0799244
0.0698167
0.0643956
0.019219
0.0189723
0.0858571
0.0991551
0.0935689
0.10153
0.0198601
0.106033
0.0750376
0.0620421
0.0560468
0.0604161
0.0587495
0.0615718
0.0613062
0.0605072
0.0612545
0.0580755
0.059395
0.0550134
0.0566193
0.051446
0.0532744
0.0475875
0.0495455
0.043648
0.045611
0.0398116
0.0417143
0.0361293
0.0379479
0.0326677
0.034369
0.02949
0.0310366
0.0265636
0.0279968
0.0239371
0.0252196
0.0216157
0.0227498
0.019513
0.0205389
0.0188891
0.0193066
0.0191504
0.0194222
0.0194011
0.0193656
0.0186379
0.0201862
0.0194184
0.0217024
0.0209376
0.023302
0.0224899
0.0250217
0.0241386
0.0269538
0.0259535
0.0292421
0.0280426
0.0321081
0.0305883
0.035775
0.0338285
0.0404432
0.0379761
0.0462083
0.0431885
0.0530923
0.0495191
0.0609364
0.0569092
0.0694891
0.0651451
0.0783115
0.0739046
0.087126
0.0827649
0.0954014
0.0913085
0.102681
0.0992575
0.105681
0.0185237
0.0801625
0.0681458
0.0869192
0.0524744
0.0588874
0.0953777
0.0182414
0.0174715
0.0178651
0.104061
0.109552
0.019053
0.0180442
0.10865
0.0742613
0.0477889
0.0415697
0.0503394
0.0465312
0.0549546
0.0530987
0.056474
0.0560275
0.0560694
0.0564669
0.0542943
0.055317
0.0516539
0.053062
0.0485086
0.0501215
0.0451201
0.0468383
0.0416262
0.0433749
0.0381794
0.0398922
0.0348446
0.0364953
0.031663
0.0332335
0.0286764
0.0301415
0.0259115
0.0272657
0.0233738
0.0246172
0.0211001
0.0222034
0.0200631
0.0179056
0.0170856
0.0175412
0.0184071
0.0182021
0.0185982
0.0185429
0.0184165
0.0185598
0.0181794
0.0197572
0.019008
0.0212685
0.0204998
0.0228593
0.0220529
0.0245469
0.0236874
0.0264006
0.0254462
0.0285501
0.0274288
0.0311808
0.0297922
0.0345163
0.0327469
0.0387757
0.0365195
0.0440955
0.0413026
0.0506364
0.0472334
0.0582306
0.0543087
0.0667264
0.0623825
0.0757834
0.0712127
0.0847594
0.0803561
0.0930272
0.0890444
0.0997742
0.0967059
0.103435
0.102296
0.10402
0.0799003
0.0656789
0.0171148
0.0167147
0.0876566
0.0547546
0.0971817
0.0356956
0.0422303
0.106184
0.11044
0.0165812
0.107514
0.101527
0.0161975
0.0157359
0.0727488
0.0288948
0.0233667
0.0360467
0.0302176
0.0447367
0.0408891
0.0495522
0.0475908
0.0514654
0.0507951
0.0515519
0.0517009
0.0502622
0.051053
0.048066
0.0492478
0.0453761
0.0467644
0.0424196
0.0439233
0.0393304
0.0408824
0.0362426
0.0377808
0.0332262
0.0347228
0.0303274
0.031759
0.0276113
0.0289404
0.0250162
0.0262827
0.0226287
0.0237992
0.0204663
0.0215148
0.0184876
0.0194553
0.0175084
0.0169811
0.0166174
0.0175264
0.0172899
0.0177858
0.0176995
0.0176677
0.0177808
0.0174392
0.0162654
0.0177724
0.0170079
0.0192613
0.0185282
0.0207841
0.0200162
0.0223779
0.0215717
0.0240637
0.0232073
0.025894
0.0249556
0.0279737
0.0268946
0.0304578
0.0291541
0.0335435
0.0319127
0.0374448
0.0353801
0.0423753
0.0397666
0.0483512
0.0452141
0.0554314
0.0517653
0.0634284
0.0593299
0.0720511
0.0676894
0.0805857
0.0764012
0.0882997
0.0846183
0.0942504
0.0915635
0.0971527
0.0961771
0.0961633
0.0971336
0.0977437
0.0882333
0.0932505
0.0791665
0.0624175
0.0882487
0.0499302
0.0988894
0.0358398
0.107454
0.0154455
0.0210418
0.109937
0.104397
0.0817471
0.0919716
0.0160518
0.0752984
0.0157806
0.0153585
0.0149154
0.0150745
0.0155427
0.0639744
0.0152325
0.0706403
0.00664452
0.00265318
0.0189621
0.0113502
0.0310268
0.0254662
0.0393956
0.0356542
0.0443076
0.0422558
0.0465809
0.0457091
0.0470527
0.0470097
0.0461893
0.0467611
0.0444435
0.0453995
0.042183
0.043362
0.0396201
0.0409299
0.0368999
0.0382712
0.0341478
0.035522
0.0314397
0.0327853
0.0288185
0.030116
0.0262859
0.0275469
0.0239575
0.0251133
0.021752
0.0228343
0.0197113
0.0207069
0.0178188
0.0187473
0.0168958
0.0160943
0.0157516
0.0166646
0.0164054
0.0169879
0.0168671
0.0169188
0.0170128
0.0163909
0.0167043
0.0159904
0.0172569
0.0165207
0.0187254
0.0179851
0.0202534
0.0194824
0.0218523
0.0210433
0.0235451
0.0226852
0.0253761
0.0244393
0.0274279
0.0263678
0.0298269
0.0285749
0.0327378
0.0312075
0.0363471
0.034444
0.040833
0.0384718
0.0462843
0.0434321
0.0527159
0.0493822
0.0599672
0.0562536
0.0677408
0.0638166
0.07546
0.0716568
0.082193
0.0790239
0.0871938
0.0850015
0.0892776
0.0886983
0.086804
0.0886877
0.0775837
0.0831361
0.0704027
0.0783698
0.0587292
0.0148337
0.0143684
0.0576301
0.0886314
0.0443938
0.0996782
0.028633
0.107417
0.0124808
0.107511
-0.0069201
-0.00320044
0.099345
0.0834488
0.0658148
0.0144367
0.0683225
-0.0170379
-0.0184428
0.000163118
-0.00883659
0.0152955
0.00820827
0.0265142
0.0213318
0.0344565
0.0308867
0.0393827
0.0372724
0.0418999
0.0408929
0.0426898
0.0424795
0.0422187
0.0425862
0.0408903
0.041639
0.0390219
0.0400087
0.0368238
0.0379538
0.0344475
0.0356498
0.0320113
0.0332312
0.0295903
0.0307958
0.0272282
0.0283997
0.0249536
0.0260787
0.0228097
0.0238687
0.0207828
0.0217803
0.0188832
0.019817
0.0170986
0.0179805
0.0154557
0.0162671
0.0139118
0.0146751
0.0136585
0.0145322
0.0141137
0.0152401
0.0149017
0.0158258
0.0155513
0.016203
0.0160529
0.0161855
0.0162553
0.0156764
0.0159897
0.0152717
0.0138842
0.0152819
0.0145823
0.0166987
0.0159889
0.0181582
0.0174204
0.019681
0.0189115
0.0212785
0.0204695
0.0229736
0.0221121
0.0248056
0.0238692
0.0268412
0.0257927
0.0291817
0.027966
0.0319597
0.0305072
0.0353266
0.0335604
0.039425
0.0372778
0.044339
0.0417771
0.0500704
0.0471117
0.056464
0.0531998
0.0631994
0.0598161
0.069751
0.0665418
0.0753222
0.0727113
0.0791539
0.077515
0.0800163
0.0800578
0.0763127
0.07893
0.0672011
0.0721899
0.0621734
0.0131709
0.0770898
0.0543583
-0.0283799
-0.0273639
0.0883468
0.0382753
0.0994783
0.0207894
0.105711
0.00316999
0.103267
-0.0132736
0.0917421
0.073857
0.0476502
0.0566463
0.0315077
0.0133578
0.013404
0.0127619
0.0126531
0.0132261
0.065379
-0.038327
-0.0370745
-0.0184842
-0.0277001
-0.00164151
-0.00977026
0.0121108
0.00566366
0.0224597
0.017674
0.0299387
0.0265478
0.0347851
0.0326687
0.0374661
0.0363602
0.0385312
0.0381715
0.0384119
0.0385968
0.0374573
0.0380197
0.0359489
0.036758
0.0340919
0.0350536
0.0320358
0.033081
0.0298916
0.0309692
0.0277354
0.0288115
0.0256162
0.0266687
0.0235689
0.0245817
0.021617
0.0225805
0.0197642
0.0206776
0.0180118
0.0188754
0.0163573
0.0171715
0.0148159
0.0155741
0.0140788
-0.0374296
-0.0481637
-0.0465354
0.012921
0.0119903
0.0124654
0.0137272
0.0133431
0.0144149
0.0140803
0.0150154
0.0147287
0.0154332
0.0152604
0.0154623
0.0155091
0.0149866
0.0152851
0.0141621
0.0146
0.0136958
0.0147495
0.0140751
0.0161287
0.0154369
0.0175686
0.0168417
0.019074
0.0183131
0.0206572
0.019855
0.0223409
0.0214848
0.0241599
0.0232307
0.0261689
0.0251364
0.0284484
0.027269
0.031102
0.0297216
0.0342459
0.0326058
0.0379861
0.0360368
0.0423798
0.0401009
0.0474051
0.0448198
0.0529074
0.0501155
0.0585664
0.0557437
0.0638582
0.0613007
0.0681047
0.0661493
0.0706077
0.0696231
0.0703632
0.0709196
0.0655001
0.068624
0.0568107
0.0613931
0.0464697
0.0523942
0.0208622
0.0365153
0.00185651
-0.00853086
-0.0173224
0.0754171
0.0495607
0.0126017
0.0121569
0.0875392
0.0315293
0.0980399
0.0125318
0.102082
-0.00622875
0.0966071
-0.0233977
0.0819619
0.0626892
0.0407407
0.00675479
-0.0471088
-0.0555827
-0.057394
-0.0641036
0.0114797
-0.0292539
0.0113679
-0.036104
0.0108976
0.0620616
-0.052208
-0.0604549
-0.0349841
-0.0436704
-0.0181899
-0.0264306
-0.00317387
-0.0104081
0.0092118
0.00340141
0.0187521
0.014316
0.0257791
0.0225678
0.0305082
0.0284132
0.0333016
0.032119
0.0346044
0.034114
0.0347928
0.034818
0.0341713
0.0345663
0.0329934
0.0336386
0.0314529
0.0322586
0.0296926
0.0305929
0.0278195
0.0287646
0.0259107
0.0268658
0.024018
0.0249598
0.0221776
0.0230894
0.020411
0.0212843
0.0187231
0.0195565
0.0171157
0.0179093
0.0155874
0.0163405
0.0141439
0.0148528
0.0127718
0.0134537
0.0121141
0.0122318
0.0118153
0.0129635
0.0126102
0.0136235
0.0132977
0.0142334
0.0139382
0.0146799
0.0144908
0.014749
0.0147746
0.0143204
0.0145947
0.01353
0.0139547
0.0130711
0.0117046
0.0129272
0.0123109
0.014209
0.0135604
0.0155525
0.0148738
0.0169628
0.0162507
0.0184383
0.0176923
0.019992
0.0192044
0.0216461
0.020805
0.0234313
0.02252
0.025392
0.0243864
0.0275912
0.0264573
0.0301073
0.0288045
0.033025
0.0315112
0.0364149
0.0346581
0.0403048
0.0382985
0.0446466
0.0424265
0.04928
0.0469427
0.0539015
0.0516175
0.058027
0.0560636
0.0610509
0.0597132
0.0623499
0.0619559
0.0610513
0.0621131
0.0556282
0.0589037
0.0472522
0.05157
0.0353567
0.04235
0.00935712
0.0243291
-0.0221625
-0.00626653
-0.0560092
-0.0559789
-0.040623
0.0733318
0.044181
0.0855315
0.0245073
0.0949548
0.00411016
0.0961009
-0.01568
0.0871455
-0.0330605
0.0694336
0.0480592
0.0195909
-0.0197597
-0.0523396
-0.0719181
-0.0767165
-0.0773964
-0.0560468
-0.0658197
-0.0718269
0.0107903
0.0109581
0.0112803
0.0107396
0.0111507
0.010404
0.0103458
0.0580825
-0.0637069
-0.0707418
-0.0485741
-0.0562715
-0.0329876
-0.0407709
-0.0180405
-0.0253833
-0.00465139
-0.0110836
0.00649627
0.0012216
0.0153178
0.011192
0.0219362
0.0188933
0.0265356
0.0244733
0.0294084
0.0281661
0.0309117
0.03031
0.0313667
0.0312527
0.0310424
0.0312869
0.0301661
0.030661
0.0289168
0.0295788
0.0274305
0.0281962
0.0258105
0.0266318
0.0241332
0.0249753
0.0224516
0.0232903
0.0208029
0.0216214
0.0192088
0.0199985
0.0176775
0.0184355
0.0162073
0.0169351
0.014796
0.0154945
0.0134459
0.0141136
0.0121624
0.0127987
0.0115524
0.0115918
0.0112024
0.0122492
0.01193
0.0128735
0.0125619
0.0134804
0.0131829
0.0139446
0.0137445
0.0140473
0.0140539
0.0136702
0.0139169
0.0129217
0.013329
0.0120273
0.0124767
0.0115828
0.012435
0.0118477
0.0136666
0.0130437
0.0149721
0.0143106
0.0163436
0.0156506
0.0177778
0.0170525
0.0192872
0.018522
0.0208931
0.0200766
0.0226225
0.0217405
0.0245105
0.023544
0.0266046
0.0255285
0.0289621
0.0277469
0.0316402
0.0302581
0.0346794
0.0331137
0.0380796
0.0363369
0.041773
0.0398976
0.0455934
0.0436823
0.0492535
0.0474666
0.0523237
0.050894
0.0542663
0.0534701
0.0545179
0.0546395
0.0522916
0.0537886
0.0464844
0.049855
0.0378722
0.0424148
0.0245502
0.0323627
0.000966056
0.0139174
-0.0280391
-0.0129835
-0.0600792
-0.0446275
0.070199
0.0385646
0.0106373
0.0102364
0.082151
0.0172974
0.089362
-0.00435761
0.0872346
-0.0246144
0.0741613
-0.0421237
0.0534084
0.0270877
-0.00775486
-0.0466208
-0.0777901
-0.090488
-0.0998644
-0.119686
-0.118695
-0.0792834
-0.0729853
-0.0836236
-0.0640684
-0.0732089
-0.0786285
-0.0816698
0.00988693
0.0540483
-0.0595486
-0.0663628
-0.0454693
-0.0525204
-0.0315396
-0.0384685
-0.0181812
-0.0247303
-0.00621379
-0.0119842
0.00394095
-0.000896725
0.0121319
0.00828574
0.0183801
0.0154911
0.0228484
0.0208241
0.0257739
0.0244869
0.0274431
0.0267479
0.0281295
0.0278938
0.02807
0.0281796
0.0274674
0.0278255
0.0264859
0.0270153
0.0252538
0.0258944
0.0238703
0.0245758
0.0224096
0.0231458
0.0209255
0.0216677
0.0194563
0.0201872
0.0180247
0.018735
0.0166386
0.017326
0.0152965
0.0159624
0.0139951
0.0146412
0.0127381
0.0133616
0.0115349
0.0121315
0.0104252
0.010968
0.00941039
0.00990723
0.00940141
0.0102475
0.00983203
0.0109801
0.0106362
0.0115842
0.0112913
0.0121661
0.0118729
0.0127579
0.0124646
0.013229
0.0130229
0.0133585
0.0133488
0.0130294
0.01325
0.0123367
0.0127157
0.0114835
0.0119171
0.0110543
0.00986777
0.010863
0.0103493
0.011949
0.0113902
0.0131275
0.0125267
0.0143886
0.0137495
0.0157127
0.0150436
0.0170952
0.0163963
0.0185473
0.0178115
0.0200885
0.0193054
0.0217418
0.0208996
0.0235345
0.0226189
0.0255008
0.0244937
0.0276796
0.0265613
0.0301056
0.0288602
0.0327946
0.0314176
0.035724
0.0342328
0.0388109
0.037256
0.0418888
0.0403651
0.0446883
0.0433444
0.0468264
0.0458676
0.0478317
0.047501
0.047192
0.047752
0.0441955
0.0460468
0.0380866
0.0415356
0.0290867
0.0339464
0.0151876
0.0230415
-0.00626526
0.0053073
-0.0324129
-0.0189467
-0.0631955
-0.04655
-0.0844135
0.00895909
0.066262
0.0326228
0.0769009
0.00992069
0.0809696
-0.0124667
0.0745033
-0.0330108
0.0574003
-0.0504637
0.0324865
0.000983155
-0.0382512
-0.0756723
-0.105212
-0.126406
-0.142325
-0.150241
-0.13522
-0.166999
-0.155056
-0.0852728
-0.0893644
-0.0911207
-0.0811782
-0.0872085
-0.0708933
-0.0795702
-0.0846116
-0.0874618
0.00893933
0.00950036
0.00907025
0.00849967
0.00941206
0.0492789
-0.0689066
-0.0750882
-0.0560208
-0.0625372
-0.0431727
-0.0495716
-0.0306468
-0.0368751
-0.0186378
-0.0245356
-0.00777823
-0.0130332
0.00155026
-0.00290759
0.0091692
0.00557818
0.0150821
0.0123327
0.0194218
0.0174384
0.022379
0.0210596
0.0241853
0.0234113
0.0250727
0.0247305
0.0252489
0.0252379
0.0248942
0.0251279
0.0241586
0.0245659
0.0231622
0.0236866
0.0219991
0.0225965
0.0207415
0.0213784
0.019443
0.0200946
0.018142
0.0187909
0.0168623
0.0174986
0.0156122
0.0162335
0.0143902
0.0149979
0.0131935
0.0137888
0.0120273
0.0126062
0.0109115
0.0114616
0.0098836
0.0103848
0.00940431
0.00894891
0.00811152
0.00853407
0.00974102
0.00935476
0.0104069
0.0100929
0.0109609
0.010693
0.0114995
0.0112258
0.0120676
0.0117836
0.012535
0.012328
0.012684
0.0126612
0.0124003
0.0125954
0.0117686
0.0121165
0.0109694
0.0113781
0.010162
0.010563
0.00977327
0.0104361
0.00995316
0.0114646
0.0109349
0.0125934
0.0120159
0.013803
0.0131894
0.0150719
0.0144307
0.0163936
0.0157258
0.017777
0.0170766
0.0192395
0.0184972
0.0208002
0.0200064
0.0224793
0.0216237
0.0242996
0.0233704
0.0262846
0.0252703
0.028451
0.0273448
0.0307953
0.0296024
0.0332781
0.0320237
0.0358068
0.0345451
0.0382172
0.0370401
0.0402601
0.0393035
0.0415931
0.0410395
0.0418029
0.041865
0.0404257
0.0413452
0.0368377
0.0389523
0.0305056
0.0340195
0.0212671
0.0262951
0.00750563
0.0151057
-0.0120545
-0.0016372
-0.0353441
-0.0233341
-0.0649927
-0.0488184
-0.0996212
-0.0822457
-0.117118
0.0610301
0.0263067
0.00899715
0.00866
0.0692614
0.00259715
0.0691748
-0.0203497
0.0578241
-0.0408375
0.0359257
-0.0579622
0.00636427
-0.0302591
-0.0713523
-0.107947
-0.136686
-0.159216
-0.180154
-0.175269
-0.191391
-0.161766
-0.19541
-0.178403
-0.0947406
-0.0932054
-0.0969075
-0.0893362
-0.0956909
-0.0993766
-0.076762
-0.0849962
-0.0897995
-0.0927406
0.00768983
0.00775026
0.00735455
0.043692
-0.0773312
-0.0833267
-0.0653538
-0.0713239
-0.0533792
-0.0593445
-0.0416387
-0.0474597
-0.0302032
-0.0358872
-0.019254
-0.0246346
-0.00930802
-0.0141283
-0.000707223
-0.00482623
0.00640035
0.00303683
0.0120135
0.00938956
0.0162305
0.0142884
0.0192042
0.0178618
0.0211241
0.0202837
0.0221863
0.0217508
0.022572
0.0224533
0.0224416
0.0225622
0.0219314
0.0222265
0.021153
0.0215697
0.0201955
0.0206919
0.0191283
0.0196719
0.0180041
0.0185706
0.0168614
0.0174332
0.0157242
0.0162912
0.0146017
0.015161
0.013493
0.0140459
0.0123967
0.0129433
0.0113205
0.0118554
0.0102877
0.0107976
0.00933172
0.00979983
0.00846361
0.00889482
0.00806921
0.00853134
0.00814874
0.00926444
0.00890773
0.00987268
0.00958574
0.0103752
0.0101325
0.0108715
0.0106174
0.0114105
0.0111394
0.0118647
0.0116618
0.012026
0.0119931
0.0117857
0.0119556
0.011217
0.0115322
0.0104801
0.0108602
0.00971837
0.010095
0.00935
0.00833185
0.00912563
0.00871917
0.0100061
0.00955685
0.0109853
0.0104823
0.0120623
0.0115125
0.013215
0.0126306
0.0144222
0.0138126
0.0156755
0.0150429
0.0169812
0.0163209
0.0183539
0.0176581
0.0198092
0.0190703
0.021361
0.0205722
0.0230224
0.0221773
0.0248047
0.023898
0.0267099
0.0257424
0.02872
0.0277041
0.0307842
0.0297502
0.0328041
0.031808
0.034621
0.0337503
0.0360046
0.035384
0.0366495
0.0364406
0.0361915
0.0365819
0.0342122
0.0354216
0.0301805
0.0324863
0.0236813
0.0272494
0.0143651
0.0194282
0.00103428
0.00828496
-0.0168296
-0.00740405
-0.0381458
-0.0270416
-0.065113
-0.0508061
-0.0961028
-0.0802246
-0.12874
-0.11238
-0.14508
0.0540081
0.0194584
0.058661
-0.00484381
0.0534646
-0.0278212
0.0365044
-0.0480178
0.00948107
-0.0644315
-0.0253816
-0.0665149
-0.108138
-0.144102
-0.171732
-0.194391
-0.209446
-0.215593
-0.194233
-0.214945
-0.177227
-0.209887
-0.189896
-0.102188
-0.0979683
-0.104462
-0.108802
-0.100083
-0.102802
-0.105897
-0.0817093
-0.0895273
-0.0944806
-0.0975779
0.00741342
0.00727736
0.00801043
0.00765648
0.00796422
0.00695535
0.00703663
0.03697
-0.085569
-0.0917325
-0.0738329
-0.079608
-0.0624658
-0.0681033
-0.051465
-0.0569366
-0.0406328
-0.0460269
-0.0300409
-0.0352949
-0.0199725
-0.0249159
-0.0108202
-0.0152606
-0.00285462
-0.00667853
0.00380643
0.000642205
0.00915216
0.00664122
0.0132529
0.0113517
0.0162321
0.0148737
0.0182457
0.0173494
0.0194594
0.0189425
0.0200312
0.0198164
0.0201035
0.0201217
0.0197997
0.0199917
0.019223
0.0195398
0.018457
0.0188591
0.0175682
0.0180244
0.016608
0.0170943
0.0156143
0.0161134
0.0146113
0.015113
0.013609
0.0141099
0.012608
0.0131085
0.0116087
0.0121079
0.010621
0.0111126
0.00966882
0.0101396
0.00878492
0.00921849
0.00798285
0.00838074
0.00762266
0.00814225
0.00778202
0.0088212
0.00849475
0.00937338
0.00911348
0.00982568
0.00960691
0.0102814
0.0100466
0.0107868
0.0105315
0.0112199
0.0110251
0.0113867
0.0113467
0.0111869
0.0113325
0.0106813
0.0109635
0.0100079
0.010359
0.00929692
0.00965215
0.00861116
0.00895362
0.00828337
0.00875979
0.00837559
0.00958337
0.00915889
0.0105129
0.0100361
0.011534
0.0110133
0.0126251
0.0120723
0.013765
0.0131899
0.0149436
0.0143495
0.0161644
0.0155481
0.0174391
0.0167942
0.0187798
0.0181006
0.0201949
0.0194777
0.0216898
0.0209322
0.0232655
0.0224678
0.0249132
0.0240816
0.0266042
0.0257561
0.0282797
0.027449
0.0298396
0.0290822
0.0311322
0.0305308
0.0319456
0.0316141
0.0320069
0.032089
0.030994
0.0316557
0.0285327
0.0299704
0.0241777
0.0266178
0.0175752
0.0211722
0.00831999
0.0133246
-0.00442766
0.00242759
-0.020867
-0.0122316
-0.0406075
-0.0302785
-0.0647155
-0.0521257
-0.0921553
-0.0780794
-0.121425
-0.106712
-0.149989
-0.13593
-0.163606
0.0446654
0.0118666
0.0076199
0.00731957
0.0445293
-0.0126211
0.0332322
-0.0350777
0.0101822
-0.0544955
-0.022639
-0.0701463
-0.0628086
-0.107186
-0.14923
-0.184402
-0.210502
-0.229244
-0.238838
-0.239392
-0.233896
-0.201785
-0.182604
-0.211871
-0.190611
-0.119828
-0.111296
-0.224231
-0.118374
-0.115864
-0.105578
-0.109048
-0.112705
-0.0858488
-0.0936452
-0.0986916
-0.102266
0.00665654
0.0287198
-0.106162
-0.112864
-0.0936704
-0.0998256
-0.0819835
-0.0877458
-0.0708336
-0.0763115
-0.0603394
-0.0655297
-0.0500956
-0.0552083
-0.0399397
-0.0449985
-0.0300745
-0.0349536
-0.0207743
-0.0253364
-0.0123114
-0.0164224
-0.0048941
-0.00846317
0.0013756
-0.00161261
0.00647992
0.00407195
0.0104701
0.0086092
0.013446
0.0120775
0.0155364
0.0145934
0.0168814
0.0162934
0.0176184
0.0173178
0.0178736
0.017799
0.0177586
0.0178561
0.0173681
0.0175925
0.0167804
0.0170946
0.0160588
0.016433
0.0152528
0.0156637
0.0143997
0.0148303
0.0135236
0.0139635
0.0126353
0.0130806
0.0117372
0.0121874
0.0108317
0.011285
0.00993074
0.0103796
0.00905825
0.00948952
0.0082437
0.00864304
0.00750705
0.00786581
0.00686148
0.00717594
0.00627617
0.00656106
0.00636039
0.00709118
0.00672553
0.00778551
0.00744414
0.00840595
0.00810976
0.00890441
0.00867043
0.00931131
0.00911396
0.00972794
0.00951236
0.0101963
0.00995924
0.0106019
0.0104186
0.0107681
0.0107241
0.0106045
0.0107276
0.0101603
0.01041
0.00955309
0.00986744
0.00889485
0.00922593
0.00824608
0.00856859
0.00793154
0.00702981
0.0076877
0.00735393
0.00839115
0.00803333
0.00916919
0.00876667
0.010046
0.0095959
0.0110079
0.0105175
0.0120335
0.0115141
0.0131016
0.0125632
0.0142007
0.0136475
0.0153313
0.0147616
0.0165023
0.0159111
0.0177221
0.0171057
0.018995
0.0183519
0.0203198
0.0196512
0.0216897
0.0209999
0.0230873
0.0223867
0.0244768
0.0237863
0.0257948
0.0251499
0.0269414
0.0263972
0.0277732
0.0274073
0.0280962
0.0280121
0.0276663
0.0279919
0.0261979
0.0270806
0.0233597
0.0249724
0.0187801
0.0213084
0.0121447
0.0157363
0.00306445
0.00794512
-0.009026
-0.00258132
-0.0242154
-0.0162551
-0.0424369
-0.0329168
-0.0639927
-0.0528295
-0.0882167
-0.0758175
-0.114032
-0.101047
-0.139308
-0.126912
-0.162383
-0.151247
-0.172925
0.00599755
0.0324621
0.00321598
0.0262857
-0.0208367
0.00809626
-0.0423115
-0.0216409
-0.0605149
-0.0605153
-0.0751457
-0.105776
-0.152432
-0.1947
-0.227808
-0.251187
-0.26418
-0.26719
-0.261958
-0.25136
-0.236806
-0.197223
-0.220082
-0.113731
-0.120015
-0.127042
-0.177981
-0.201995
-0.181738
-0.1259
-0.123493
-0.111511
-0.115911
-0.120068
-0.0897182
-0.0972798
-0.102765
-0.107279
0.00589917
0.00674058
0.00644472
0.0056306
0.00672355
0.0184878
-0.101236
-0.107431
-0.0895726
-0.0952834
-0.0787831
-0.0840734
-0.0684759
-0.0735416
-0.0586707
-0.0635411
-0.0489859
-0.0538217
-0.0394377
-0.0441816
-0.0302507
-0.0347854
-0.0216282
-0.025857
-0.0137641
-0.0175891
-0.00682587
-0.0101715
-0.000904433
-0.00373505
0.00397992
0.0016665
0.00786478
0.00604331
0.0108303
0.00945647
0.012983
0.0120011
0.0144415
0.0137916
0.0153251
0.0149481
0.0157454
0.0155866
0.0158028
0.0158137
0.0155843
0.0157232
0.0151626
0.0153948
0.0145976
0.0148948
0.0139369
0.0142767
0.0132165
0.0135823
0.0124605
0.0128419
0.0116807
0.0120732
0.0108814
0.0112833
0.0100671
0.0104756
0.00925096
0.00965805
0.00845644
0.00884931
0.00771053
0.00807595
0.00703443
0.00736229
0.00643617
0.00672531
0.00615969
0.00608641
0.00538066
0.00573407
0.00678609
0.0064402
0.00744317
0.00712227
0.00801115
0.00774117
0.00846236
0.00825121
0.00882973
0.00865119
0.0092093
0.0090125
0.00963836
0.00942101
0.010012
0.00984263
0.0101722
0.0101268
0.0100392
0.0101425
0.00965139
0.00987135
0.00910923
0.00939268
0.00850656
0.0088112
0.00789744
0.00820164
0.007298
0.00759684
0.00700359
0.0073583
0.00704425
0.00802053
0.00768205
0.00875868
0.00837858
0.00958263
0.00916009
0.0104832
0.0100244
0.0114405
0.0109561
0.0124335
0.0119336
0.0134493
0.0129389
0.0144861
0.0139648
0.0155496
0.0150141
0.0166452
0.0160932
0.0177733
0.0172054
0.0189278
0.0183478
0.0200957
0.0195112
0.0212538
0.020678
0.0223611
0.0218171
0.023352
0.0228762
0.0241292
0.0237746
0.0245579
0.0243969
0.024461
0.0245875
0.0236203
0.0241482
0.0217827
0.0228427
0.0186572
0.0203999
0.0139328
0.0165122
0.00732917
0.0108826
-0.00149316
0.00322088
-0.012908
-0.00686489
-0.0269702
-0.0196161
-0.0436976
-0.0349902
-0.0630438
-0.0530753
-0.0844485
-0.0735315
-0.107014
-0.0956734
-0.129114
-0.118243
-0.14935
-0.139627
-0.166086
-0.158414
-0.1727
0.0168582
-0.00684547
0.00643133
0.00616038
0.00352505
-0.0298004
-0.022271
-0.0496541
-0.0590442
-0.0661477
-0.104203
-0.0795399
-0.153788
-0.202074
-0.243237
-0.273653
-0.292012
-0.298187
-0.29382
-0.282327
-0.265847
-0.246704
-0.12616
-0.118555
-0.123633
-0.131893
-0.226254
-0.134098
-0.183954
-0.204897
-0.133799
-0.131621
-0.166045
-0.184686
-0.166508
-0.118244
-0.123548
-0.128093
-0.0934027
-0.101027
-0.107258
-0.112822
0.00502175
0.00513615
0.00479321
0.00579901
-0.10765
-0.113215
-0.0963895
-0.10198
-0.0858666
-0.091024
-0.0759747
-0.0808762
-0.0664531
-0.0711692
-0.0571825
-0.0618003
-0.0480289
-0.0525893
-0.0390897
-0.0435217
-0.0305327
-0.0347539
-0.0225073
-0.0264441
-0.0151686
-0.0187422
-0.00865497
-0.011802
-0.00304607
-0.00573466
0.001637
-0.000589257
0.00542123
0.0036384
0.00837058
0.00699537
0.0105731
0.00955925
0.0121296
0.0114258
0.013143
0.0126979
0.0137121
0.0134773
0.0139271
0.0138587
0.0138673
0.0139271
0.0136002
0.0137559
0.013182
0.0134069
0.012658
0.0129308
0.0120633
0.0123677
0.0114214
0.0117472
0.0107454
0.0110871
0.0100412
0.0103965
0.00931557
0.00968044
0.00858225
0.00894861
0.0078639
0.00821955
0.0071857
0.00751826
0.00656664
0.00686771
0.0060119
0.00628164
0.00549156
0.00575083
0.00525736
0.00581771
0.00547845
0.00649115
0.00615641
0.00710937
0.00681007
0.00763289
0.00738459
0.00804416
0.00785233
0.00837765
0.00821547
0.00872261
0.00854378
0.00911172
0.00891475
0.00945063
0.00929675
0.00960047
0.00955604
0.00949277
0.00957904
0.00915747
0.00934891
0.0086758
0.00892943
0.00812656
0.00840585
0.00755683
0.00784296
0.00698713
0.00727062
0.00670459
0.00589049
0.00644589
0.00616565
0.00702779
0.00673401
0.007654
0.00733296
0.00835058
0.00799317
0.0091216
0.00872695
0.00995968
0.00953325
0.0108466
0.0103984
0.0117621
0.0113018
0.0126921
0.0122257
0.0136328
0.0131611
0.0145868
0.0141079
0.0155568
0.0150698
0.01654
0.0160472
0.0175265
0.0170337
0.0184988
0.0180158
0.0194293
0.0189715
0.0202743
0.0198659
0.0209678
0.020645
0.0214161
0.0212295
0.0214934
0.0215101
0.0210388
0.0213437
0.0198573
0.0205518
0.0177247
0.0189245
0.0143879
0.0162228
0.00958464
0.0121843
0.00306891
0.00655589
-0.00543876
-0.000917893
-0.0161854
-0.0105262
-0.0292103
-0.0224159
-0.0445117
-0.0365784
-0.0619111
-0.0529776
-0.0808859
-0.0712444
-0.100602
-0.0907212
-0.119879
-0.110367
-0.137554
-0.12902
-0.151776
-0.145205
-0.161411
-0.157241
-0.164398
-0.00256376
-0.0186873
-0.0240239
-0.0397685
-0.0578933
-0.0573576
-0.101993
-0.0719212
-0.153069
-0.0838831
-0.206078
-0.254844
-0.293911
-0.319879
-0.331588
-0.329902
-0.318041
-0.299839
-0.127872
-0.119414
-0.122736
-0.131459
-0.277962
-0.137051
-0.254175
-0.140655
-0.230134
-0.141861
-0.206196
-0.140246
-0.165705
-0.18405
-0.125916
-0.131968
-0.136922
-0.0974053
-0.105321
-0.112474
-0.119325
0.00489939
0.00466307
0.00561571
-0.163732
-0.150117
-0.148049
0.00535017
0.00561516
0.00444316
0.0045624
-0.00975722
-0.11135
-0.115702
-0.101733
-0.106619
-0.0919471
-0.0967944
-0.0824935
-0.0871433
-0.0734492
-0.0779446
-0.0645704
-0.0689941
-0.055816
-0.0601771
-0.0472191
-0.0514935
-0.0388696
-0.0430065
-0.0308839
-0.0348236
-0.0233892
-0.0270668
-0.0165183
-0.0198677
-0.0103852
-0.0133538
-0.00505919
-0.00761877
-0.000561791
-0.00270702
0.00312559
0.00138081
0.0060537
0.00468057
0.00829536
0.00725535
0.00993577
0.00918528
0.0110641
0.0105585
0.0117674
0.0114638
0.0121264
0.0119853
0.0122131
0.0121996
0.0120899
0.0121742
0.0118093
0.0119664
0.0114144
0.0116239
0.0109386
0.0111849
0.0104055
0.0106781
0.0098289
0.010122
0.00921678
0.00952685
0.00857727
0.00889971
0.00792475
0.00825141
0.00728059
0.00760012
0.00666778
0.00696904
0.00610243
0.00637885
0.00558792
0.00583994
0.00511026
0.0053479
0.00488648
0.0055601
0.00522995
0.00620097
0.00588558
0.00678185
0.00650152
0.00726877
0.00703857
0.00764657
0.00747082
0.00795139
0.00780325
0.00826475
0.00810268
0.00861466
0.00843795
0.00891775
0.00878015
0.00905422
0.00901259
0.00896659
0.0090386
0.00867805