/*--------------------------------*- C++ -*----------------------------------*\
  =========                 |
  \\      /  F ield         | OpenFOAM: The Open Source CFD Toolbox
   \\    /   O peration     | Website:  https://openfoam.org
    \\  /    A nd           | Version:  10
     \\/     M anipulation  |
\*---------------------------------------------------------------------------*/
FoamFile
{
    format      ascii;
    class       volScalarField;
    location    "29";
    object      p;
}
// * * * * * * * * * * * * * * * * * * * * * * * * * * * * * * * * * * * * * //

dimensions      [0 2 -2 0 0 0 0];

internalField   nonuniform List<scalar> 
8711
(
0.0101292
0.00878409
0.0115006
0.0382825
0.0330115
0.0265145
0.0439265
0.0417382
0.68242
0.698414
0.406063
0.0825611
-0.07442
-0.0788327
-0.0330328
-0.0576027
-0.00442436
-0.00759379
-0.00907113
0.0213414
0.0215542
0.0170472
0.0166322
0.0109905
-0.386484
-0.320748
-0.466506
-0.516847
0.00225664
0.00318057
0.00467686
-0.322008
-0.363421
-0.190449
-0.208263
0.172122
0.163484
0.234669
0.241299
0.233624
0.278467
0.252227
-0.594108
-0.598186
0.414559
0.292843
-0.32012
-0.316397
-0.338044
0.0263761
0.0255604
0.0250679
0.0254733
0.0830822
0.0889496
0.0948675
-0.0693112
-0.0742187
-0.0752178
-0.0776262
-0.0490956
-0.046609
-0.0555523
-0.0578731
0.0591999
0.0545921
0.0468317
0.013043
0.0133893
0.0154424
-0.07645
-0.0718102
-0.0782468
-0.0798733
0.128407
0.128417
0.12114
0.12115
0.0143151
0.00793103
0.00554618
-0.0230905
-0.0141372
0.0135385
0.0129829
0.0126293
-0.0799144
-0.0849433
-0.18745
-0.206358
0.0989048
0.0941282
0.101991
-0.0496048
-0.0334399
0.133999
0.148153
0.149259
0.136998
0.116474
0.117673
0.30409
0.289116
-0.0816706
-0.0896512
-0.104362
-0.12461
-0.148014
-0.169466
-0.185315
-0.191503
-0.186339
-0.172579
-0.153572
-0.133784
-0.115528
-0.100711
-0.0898842
-0.0914159
-0.0831346
-0.0830637
-0.121009
-0.104222
-0.164865
-0.141917
-0.203503
-0.187099
-0.204445
-0.21024
-0.162672
-0.187638
-0.1128
-0.136517
-0.0841218
-0.0950952
-0.0778122
-0.0822452
-0.0763767
-0.110142
-0.0934401
-0.148717
-0.129904
-0.167599
-0.161931
-0.153047
-0.164756
-0.122164
-0.138073
-0.094416
-0.106897
-0.0810019
-0.0859527
-0.0799512
-0.0790907
-0.0802616
-0.0748191
-0.0822312
-0.0837262
-0.0766767
-0.0900946
-0.0803588
-0.122536
-0.104291
-0.170902
-0.145464
-0.214751
-0.19579
-0.217564
-0.22296
-0.172442
-0.198756
-0.11729
-0.143222
-0.0840019
-0.0973425
-0.0700013
-0.0752104
-0.0834411
-0.086759
-0.0678736
-0.0713007
-0.0725018
-0.0684686
-0.0933669
-0.0804058
-0.125594
-0.110468
-0.141596
-0.136613
-0.131965
-0.140777
-0.106041
-0.119475
-0.0853015
-0.0949708
-0.0763452
-0.0795489
-0.0804
-0.0769008
-0.0709086
-0.0767135
-0.086515
-0.0863068
-0.0840771
-0.0941628
-0.0591839
-0.0685806
-0.0661223
-0.0708402
-0.0641427
-0.0985807
-0.0940551
-0.0688475
-0.0651924
-0.0856527
-0.0752457
-0.119831
-0.100671
-0.171454
-0.14424
-0.219312
-0.198724
-0.222709
-0.227715
-0.174568
-0.202963
-0.116212
-0.143745
-0.0794889
-0.0949489
-0.0618775
-0.0694149
-0.0578178
-0.0754957
-0.0830466
-0.0721273
-0.114808
-0.10668
-0.0863921
-0.0587706
-0.0634826
-0.0607025
-0.0588158
-0.0757935
-0.0661786
-0.100245
-0.0887755
-0.115662
-0.111419
-0.108943
-0.114655
-0.0892646
-0.100307
-0.0738401
-0.0805518
-0.0689809
-0.0705659
-0.0708265
-0.0892428
-0.0818868
-0.0951573
-0.0935967
-0.0993962
-0.0960411
-0.0828862
-0.0973724
-0.0721682
-0.0552059
-0.093903
-0.118624
-0.109016
-0.0952492
-0.133699
-0.120974
-0.142277
-0.113437
-0.0806161
-0.10795
-0.0869153
-0.0637908
-0.0657823
-0.0608708
-0.0568333
-0.0785438
-0.0676258
-0.112764
-0.0934311
-0.165014
-0.137292
-0.214716
-0.192627
-0.218428
-0.223804
-0.169565
-0.198456
-0.109887
-0.138335
-0.0708169
-0.0874806
-0.0498013
-0.0590962
-0.0425333
-0.0445298
-0.0499921
-0.0445773
-0.057431
-0.0623546
-0.0759904
-0.048647
-0.0535572
-0.0476248
-0.0470424
-0.0576983
-0.0516579
-0.0770514
-0.0671059
-0.0902139
-0.0863733
-0.0854698
-0.0895884
-0.0714707
-0.0787308
-0.0610907
-0.0654589
-0.0596947
-0.0593991
-0.0682556
-0.0625406
-0.0891262
-0.0771805
-0.077032
-0.0629854
-0.0962878
-0.0879966
-0.106948
-0.102831
-0.104256
-0.107636
-0.116422
-0.168091
-0.152611
-0.0820344
-0.0968964
-0.144572
-0.128545
-0.0342458
-0.0330735
-0.175488
-0.131727
-0.117016
-0.0876356
-0.0449446
-0.0447094
-0.0516083
-0.0470781
-0.0690626
-0.0585045
-0.102112
-0.0834066
-0.152808
-0.125867
-0.201649
-0.179785
-0.206034
-0.210879
-0.157623
-0.186085
-0.0985999
-0.126785
-0.0587648
-0.0761884
-0.0358127
-0.0456461
-0.0252589
-0.0293499
-0.0258274
-0.0238428
-0.0324387
-0.132704
-0.217794
-0.205071
-0.167149
-0.0817444
-0.104671
-0.0510273
-0.0637036
-0.0373609
-0.0426676
-0.034616
-0.0350327
-0.040843
-0.0366928
-0.0555228
-0.0476004
-0.0661419
-0.0624322
-0.0633388
-0.0660743
-0.0537801
-0.058685
-0.0473087
-0.0498738
-0.0490727
-0.0471039
-0.0590901
-0.052799
-0.0685321
-0.0543192
-0.0825983
-0.0691085
-0.105366
-0.0947281
-0.121241
-0.114599
-0.121669
-0.123782
-0.114623
-0.140127
-0.0371632
-0.0407348
-0.226706
-0.0343684
-0.176184
-0.152391
-0.213631
-0.148186
-0.119603
-0.243011
-0.122927
-0.242644
-0.0842668
-0.0323253
-0.103697
-0.0342839
-0.0328853
-0.0412967
-0.0369516
-0.0579263
-0.0481961
-0.0882683
-0.0710473
-0.135225
-0.110195
-0.181331
-0.160547
-0.18593
-0.190297
-0.13948
-0.166697
-0.0832336
-0.110119
-0.0445007
-0.0617102
-0.0205044
-0.0309894
-0.00745661
-0.013103
-0.00428663
-0.00501188
-0.00771321
-0.0076859
-0.00837223
-0.00789372
-0.178433
-0.2291
-0.107982
-0.13828
-0.0646971
-0.0839896
-0.0380706
-0.0496348
-0.025706
-0.0311946
-0.02211
-0.0231324
-0.0253759
-0.0228645
-0.0356619
-0.029966
-0.0442623
-0.0408926
-0.0431016
-0.0447452
-0.0368527
-0.0400807
-0.0335505
-0.0345935
-0.0371706
-0.034726
-0.0484605
-0.0424255
-0.07158
-0.058506
-0.0879948
-0.0374486
-0.0050666
-0.0585462
-0.0316734
-0.0418649
-0.0890179
-0.0742975
-0.115997
-0.102701
-0.136715
-0.127856
-0.140082
-0.140952
-0.133954
-0.167995
-0.21011
-0.176062
-0.137599
-0.0926777
-0.116849
-0.248153
-0.160506
-0.266314
-0.125089
-0.247911
-0.0781419
-0.235135
-0.00334499
-0.0329768
-0.0231018
-0.0337919
0.011506
-0.0226066
-0.0241528
-0.0237448
-0.02261
-0.0306723
-0.0266515
-0.0457094
-0.037371
-0.0725137
-0.0574099
-0.1139
-0.0917889
-0.155393
-0.136552
-0.159542
-0.163631
-0.116535
-0.14167
-0.0649012
-0.0895769
-0.0288868
-0.0450134
-0.00524403
-0.0159087
0.00927288
0.00299933
0.014328
0.0128504
0.0147687
0.01441
0.0147738
0.0146856
0.0176345
0.0171005
-0.00434719
0.0099283
0.0154055
-0.142252
-0.187605
-0.173029
-0.0810965
-0.107225
-0.0469631
-0.0619923
-0.0255756
-0.0354684
-0.014628
-0.0191955
-0.0106069
-0.0120235
-0.0116355
-0.0104883
-0.0182486
-0.0143912
-0.0249898
-0.0221525
-0.024971
-0.0257955
-0.0212049
-0.0231468
-0.0202923
-0.0201881
-0.0254567
-0.0221978
-0.0370414
-0.0307871
-0.0588127
-0.0476191
-0.0745377
-0.0620753
-0.0468265
-0.0950404
-0.078763
-0.126654
-0.110873
-0.151078
-0.140548
-0.157569
-0.157064
-0.152536
-0.19735
-0.0142404
-0.0799969
-0.0962954
-0.241107
-0.195259
-0.269829
-0.165504
-0.273661
-0.120927
-0.244931
-0.173061
-0.207209
-0.0689351
-0.0295534
-0.00660961
0.00197741
0.0244613
0.0198308
0.00530904
-0.0130186
-0.0138854
-0.0142045
-0.0129762
-0.0206683
-0.0168457
-0.0334068
-0.0261781
-0.0558648
-0.0432834
-0.09047
-0.0719316
-0.12599
-0.109713
-0.129347
-0.13315
-0.0904286
-0.113065
-0.0445593
-0.0664047
-0.012485
-0.0269036
0.00923997
-0.000755444
0.02406
0.0175139
0.030357
0.0280798
0.0333274
0.0317737
0.0328051
0.0323398
0.0321263
0.0331276
0.0292599
-0.136266
-0.138792
-0.106251
-0.12986
-0.104851
-0.126638
-0.0560387
-0.0784998
-0.0304482
-0.0424117
-0.0137658
-0.0216904
-0.00435399
-0.00825059
-0.000356859
-0.00191157
0.000150792
0.000308967
-0.00350793
-0.0011836
-0.00842901
-0.00620699
-0.00911427
-0.00934026
-0.00721081
-0.00816568
-0.00801255
-0.00707869
-0.0140708
-0.0104058
-0.0258121
-0.0193684
-0.0460516
-0.034759
-0.0605569
-0.0368919
-0.0137305
-0.0242975
-0.0658986
-0.0509865
-0.0999689
-0.0825179
-0.135167
-0.1177
-0.162451
-0.15047
-0.171674
-0.169958
-0.153494
-0.167139
-0.109812
-0.131421
-0.223039
-0.260155
-0.205673
-0.275449
-0.162211
-0.121738
-0.0874176
-0.0975947
-0.257916
-0.227932
-0.164449
-0.0682257
-0.0914821
-0.107845
-0.0590787
-0.0269276
-0.00848042
-0.00363986
-0.00538892
0.013211
-0.00357382
0.00459423
-0.0138687
-0.00500041
-0.00507853
-0.00565306
-0.00418288
-0.0045737
-0.00544556
-0.00450271
-0.0111274
-0.00794504
-0.0214827
-0.0156191
-0.0394093
-0.0294166
-0.0667638
-0.0520893
-0.095412
-0.082165
-0.0978861
-0.1013
-0.0632827
-0.0833874
-0.0233822
-0.0422373
0.00411263
-0.00826023
0.0229491
0.0142178
0.0366055
0.0304317
0.0437064
0.0407975
0.0466192
0.0455461
0.0462508
0.0465046
0.0416212
0.044431
0.0320364
0.0375004
0.0190179
0.0263425
-0.0704148
-0.0227038
-0.0054253
-0.0417816
-0.0876659
-0.0857489
-0.0658823
-0.0800598
-0.0339615
-0.0492521
-0.0153623
-0.0240648
-0.00276808
-0.00852978
0.00484927
0.00159145
0.00856837
0.00703915
0.00996642
0.00950843
0.00856752
0.00965671
0.00536951
0.00695149
0.00432622
0.00448899
0.00490698
0.0046551
0.00299958
0.00444434
-0.00338518
0.000379379
-0.0151586
-0.00840968
-0.0334182
-0.0228596
-0.0606851
-0.0459295
-0.0746666
-0.0378931
-0.0248803
-0.0676963
-0.0523384
-0.102953
-0.084707
-0.139871
-0.121642
-0.168966
-0.156026
-0.179877
-0.177371
-0.164168
-0.175902
-0.14435
-0.238017
0.00989851
-0.00405571
-0.000734893
-0.262599
-0.20225
-0.127505
-0.102441
-0.259395
-0.233014
-0.180896
-0.113773
-0.0412584
0.0326182
0.0215236
-0.0920573
-0.0506961
-0.0249122
-0.0139866
-0.0124537
-0.0130096
-0.0125707
-0.00312882
0.00170938
-0.0728386
-0.0639859
0.000111802
-0.148285
0.00308112
0.00231811
0.00377009
0.00351061
0.00196326
0.00304336
-0.00237761
0.000135567
-0.0104327
-0.00589467
-0.0239576
-0.0164554
-0.044264
-0.0333789
-0.0658088
-0.0557647
-0.067463
-0.070331
-0.0374265
-0.0549754
-0.00276168
-0.0190422
0.0203984
0.0100354
0.03614
0.0288377
0.0477717
0.0424362
0.054652
0.0517005
0.0568978
0.0563758
0.0546054
0.0561856
0.0480016
0.051587
0.0379409
0.0431673
0.0242855
0.0317096
-0.0107476
0.00430233
0.0154757
0.0150424
0.0673793
0.071729
0.0438381
-0.032764
-0.0120459
-0.0460402
-0.043047
-0.0338871
-0.0420596
-0.0158507
-0.0248036
-0.00250544
-0.00864295
0.00673818
0.00250419
0.0128168
0.0101253
0.0162035
0.0147591
0.018012
0.0172408
0.0181678
0.0183513
0.0165105
0.0174624
0.0153805
0.0157655
0.0150403
0.0152631
0.0125386
0.0142061
0.00616329
0.00986192
-0.00407977
0.00146638
-0.0204157
-0.0115802
-0.0408596
-0.0302432
-0.0524557
-0.0367102
-0.0237653
-0.0670622
-0.0512445
-0.102896
-0.0844946
-0.139976
-0.121732
-0.169383
-0.156246
-0.180777
-0.177864
-0.167911
-0.177394
-0.1499
-0.237052
-0.0764229
-0.245764
-0.228697
-0.189855
-0.133324
-0.064631
0.00297026
-0.0775293
-0.0454079
-0.0278788
-0.0219192
0.0591935
0.096173
0.0970109
-0.0220519
-0.023703
-0.00873308
0.00336184
-0.186123
-0.0225226
-0.127462
-0.0483374
0.00890581
0.00745211
0.00989801
0.00963748
0.0103616
0.0102748
0.00864087
0.00962247
0.00537217
0.00725678
-0.000543934
0.00277582
-0.0101236
-0.00484826
-0.0240831
-0.0166341
-0.0387973
-0.0319212
-0.039301
-0.0418178
-0.0146219
-0.0293469
0.0156849
0.00134159
0.0355676
0.026794
0.0484414
0.0425248
0.0576678
0.053451
0.0629786
0.0607855
0.0635194
0.0638702
0.0596684
0.0619938
0.0521606
0.0562404
0.0421746
0.0472871
0.0291225
0.0360366
0.0109739
0.020676
-0.024511
-0.0120719
1.45671e-05
0.0765056
0.114795
0.107943
0.0941897
0.0344464
0.05605
0.000259929
0.0146108
-0.0135797
-0.010829
-0.00949419
-0.0139923
-0.000799156
-0.00600776
0.00830503
0.00408828
0.0148787
0.0118248
0.019586
0.017437
0.0225763
0.0212562
0.0244875
0.0236083
0.0255531
0.0251616
0.0251782
0.0255386
0.0242424
0.0247067
0.0232583
0.0238185
0.0204969
0.0222132
0.0145707
0.0179636
0.0054853
0.0105099
-0.00654847
-0.000548606
-0.023193
-0.0154539
-0.0411096
-0.0330442
-0.0507952
-0.0501977
-0.010484
-0.00156915
-0.0343846
-0.0214834
-0.0646157
-0.0487462
-0.0998286
-0.0818433
-0.135514
-0.118023
-0.16357
-0.151083
-0.174343
-0.171563
-0.162335
-0.171311
-0.125543
-0.146233
-0.0793756
-0.102356
-0.0571063
-0.219806
-0.215188
-0.18892
-0.145811
-0.0886161
-0.0248486
-0.0678679
-0.0452417
-0.0340709
0.0387412
0.0895724
0.119113
-0.0323014
-0.0358809
-0.0394552
0.116928
0.127056
-0.0397171
-0.0254247
-0.040429
-0.0247998
0.0140198
0.01394
-0.0458419
-0.161502
-0.0281405
-0.106462
0.0144354
0.0141273
0.0155353
0.0152596
0.0156261
0.0158003
0.0144296
0.015175
0.0120961
0.0134354
0.00803977
0.0103011
0.00176221
0.00518514
-0.00691461
-0.00233948
-0.0155472
-0.0115824
-0.0147628
-0.0169786
0.00466544
-0.00701914
0.0305814
0.0180381
0.0480999
0.0404411
0.0585294
0.053861
0.0652522
0.0622681
0.068432
0.0672804
0.0673165
0.0683952
0.0626306
0.0653017
0.0549882
0.0590902
0.045281
0.0502996
0.03322
0.0395035
0.0170584
0.0256043
-0.00259147
0.00748199
-0.0379675
-0.0231622
-0.0129465
0.100872
0.120615
0.107733
0.106358
0.0791417
0.091598
0.0484065
0.0641741
0.0219327
0.0339859
0.00850359
0.01341
0.00730822
0.00675373
0.0115518
0.00900746
0.0171379
0.0144343
0.0216697
0.0195204
0.0252284
0.0235597
0.0277984
0.0266223
0.0296591
0.0287804
0.0311167
0.0304469
0.0316632
0.0315407
0.0311408
0.0315254
0.0298324
0.0305892
0.0270259
0.0286874
0.0218122
0.0247692
0.0142488
0.0184335
0.00457305
0.00981997
-0.00823693
-0.00188844
-0.0222182
-0.0154264
-0.0335485
-0.0292777
-0.0363485
-0.00853936
0.000710998
-0.0317151
-0.0192445
-0.0609828
-0.0456594
-0.0943777
-0.0774256
-0.127394
-0.111323
-0.152689
-0.141529
-0.161502
-0.159569
-0.149389
-0.158077
-0.116933
-0.135084
-0.0775116
-0.0968703
-0.0608871
-0.191615
-0.178482
-0.149452
-0.106879
-0.0533862
-0.0640291
-0.0490285
0.00698168
0.0668083
0.113077
-0.0445326
-0.0480894
-0.054598
0.134568
-0.0575609
0.133651
-0.0584894
0.10467
0.118894
-0.0566293
-0.032356
-0.0500295
-0.0127965
0.0189185
0.0192962
-0.033671
-0.134915
0.0142372
0.00910693
-0.0177066
-0.0909181
0.0193497
0.0192445
0.0201385
0.0196858
0.0199819
0.0201561
0.0192881
0.0197462
0.017798
0.0186655
0.0152825
0.0166755
0.011624
0.0135906
0.00703369
0.00938979
0.0033028
0.0048595
0.00588122
0.00344493
0.0209228
0.0120029
0.0418379
0.0314853
0.0569594
0.0503032
0.0654114
0.061756
0.0700224
0.0680858
0.0714094
0.0711064
0.0692137
0.0707137
0.0641599
0.0669696
0.056672
0.0606393
0.0474399
0.0522502
0.0363697
0.0420719
0.0221646
0.0295989
0.00551797
0.0138784
-0.0110861
-0.00289736
-0.040324
-0.0244778
-0.0183336
0.0960176
0.0975948
0.0847429
0.0919486
0.0935448
0.0964884
0.0785137
0.0876503
0.0563854
0.0677269
0.0360028
0.0457451
0.0237091
0.0288248
0.0199114
0.0209809
0.021155
0.0201894
0.0241843
0.0226079
0.0271957
0.0257248
0.0298363
0.0285655
0.0319948
0.0309731
0.0337349
0.0329007
0.0352749
0.0345259
0.0363313
0.0358998
0.0363013
0.0365063
0.0350487
0.0358122
0.0324121
0.0339226
0.0280127
0.0304638
0.0219347
0.0252621
0.0143921
0.0185097
0.00470286
0.00994651
-0.00662216
-0.000154867
-0.0169343
-0.0105329
-0.0169187
-0.00694882
0.00209957
-0.0293686
-0.0174068
-0.0569281
-0.0425761
-0.0876003
-0.072136
-0.116986
-0.102821
-0.138489
-0.129171
-0.14463
-0.143827
-0.132004
-0.140587
-0.10345
-0.119178
-0.0684817
-0.0863354
-0.0515486
-0.159721
0.0184779
-0.144251
-0.116092
-0.0760912
-0.0651676
-0.025825
0.032228
0.0897896
-0.0583828
-0.061364
-0.0698182
0.131383
-0.077316
0.143928
-0.080103
0.133989
-0.0788174
0.112525
-0.071763
0.0748409
0.0867778
-0.060275
-0.0299003
-0.0464174
-0.00357488
-0.0193735
-0.112931
0.00198489
-0.00269672
-0.0822167
0.0229778
0.0218083
0.0223523
0.0232091
0.0229379
0.0235441
0.0232205
0.0235873
0.0235989
0.0233081
0.02351
0.0225381
0.0229964
0.0212509
0.0219576
0.0195638
0.020445
0.0179127
0.0186853
0.0177061
0.0175103
0.0220678
0.019143
0.0342046
0.0272848
0.0503248
0.0422878
0.0626108
0.0571236
0.0693798
0.0665224
0.0724767
0.0712774
0.0726669
0.0729103
0.0698969
0.0715969
0.0647654
0.0675794
0.0576132
0.0613775
0.048944
0.0534606
0.0387162
0.044005
0.0265726
0.0327876
0.012266
0.0194118
-0.00138825
0.00524891
-0.0119607
-0.00708852
-0.0339853
-0.0209478
-0.0165906
-0.0229579
0.0744165
0.0624108
0.0535768
0.0650344
0.085633
0.0812526
0.0861525
0.0876295
0.0760801
0.0823928
0.0602099
0.0684998
0.0444681
0.0517577
0.0337737
0.0384429
0.0290021
0.030775
0.028394
0.0283759
0.0297237
0.0289329
0.0316145
0.030649
0.0335355
0.0325847
0.0353104
0.0344448
0.036894
0.0361233
0.0383715
0.0376422
0.0396067
0.0390393
0.0399757
0.0400458
0.0390528
0.039659
0.0368298
0.0380958
0.0332835
0.0352223
0.0285743
0.0310972
0.0229412
0.0259259
0.0161528
0.0196908
0.00686411
0.0119869
-0.000452239
0.00350144
-0.00185876
0.0180132
0.00890307
0.013962
-0.00637212
0.00211788
-0.027538
-0.0163112
-0.0530202
-0.0398368
-0.0805254
-0.0667572
-0.105821
-0.0937904
-0.12303
-0.115808
-0.126215
-0.126628
-0.112974
-0.121545
-0.0868402
-0.101075
-0.0541724
-0.0708696
-0.0366074
-0.131455
0.02129
0.00598561
-0.117015
-0.0909056
-0.0797432
-0.052925
-0.00410915
0.0529805
-0.0725658
-0.0750744
-0.0851144
0.108993
-0.0972106
0.144616
-0.105256
0.146438
-0.106028
0.128118
-0.0993912
0.101151
-0.0854877
0.072664
-0.0684454
0.0408343
0.0479827
-0.0503507
-0.0341208
-0.0149743
-0.00651273
-0.0075916
0.0240124
0.0246569
-0.0983483
0.0479908
0.0378104
0.0255326
0.0252024
0.0260282
0.025733
0.026325
0.0261782
0.0265273
0.0264379
0.0265769
0.0265794
0.026396
0.0265188
0.0260569
0.0262395
0.0257955
0.0259008
0.0261298
0.0258488
0.0281675
0.0268656
0.0337325
0.0304398
0.0440706
0.03845
0.056518
0.0503564
0.0660895
0.0617823
0.0713643
0.0691658
0.0733847
0.0726932
0.0728035
0.0733847
0.0697703
0.0715409
0.0647383
0.0674693
0.0580199
0.0615426
0.0499764
0.0541495
0.0406441
0.0454697
0.0299532
0.0354201
0.0182247
0.0240202
0.00662136
0.012227
-0.00227426
0.00163297
-0.0073122
-0.00553046
-0.00706535
0.066306
0.0577793
0.0771826
0.0727793
0.0794165
0.0796498
0.072943
0.0769664
0.0616668
0.0676333
0.0493817
0.0552142
0.040304
0.0443876
0.0353715
0.0373903
0.033742
0.0342675
0.0339946
0.0337235
0.0350762
0.0344822
0.0364454
0.0357444
0.0378845
0.0371644
0.039294
0.0385969
0.0406546
0.0399819
0.0418325
0.0412847
0.0424294
0.0421677
0.0419665
0.0423404
0.0403168
0.0412732
0.0376458
0.0390972
0.0342051
0.0360255
0.0301805
0.0322965
0.0252126
0.0278342
0.0174437
0.02137
0.0117586
0.0137174
0.0112392
0.01097
0.014265
0.0120957
0.0231043
0.0172585
0.0205338
0.0078087
0.013059
-0.00677122
0.0012023
-0.026421
-0.0160086
-0.0497543
-0.0377657
-0.0740544
-0.0620087
-0.0952305
-0.0853416
-0.108153
-0.103022
-0.108348
-0.109996
-0.0944627
-0.103055
-0.0697129
-0.0830932
-0.0395452
-0.0548626
-0.00887043
-0.0236757
0.00964909
0.00204314
0.0169879
-0.110626
0.0260684
0.0256097
-0.0978674
-0.0910298
-0.072869
-0.0354154
0.0131116
-0.088013
-0.100388
0.0703482
-0.117326
0.124627
-0.132336
0.15139
-0.138835
0.142685
-0.134528
0.116559
-0.118972
0.0852142
-0.0972875
0.0556262
-0.073777
0.0316145
-0.0309082
-0.0518653
0.0250698
0.0220621
0.0239682
0.0245109
0.0119794
-0.0133799
-0.00252698
0.0132655
0.026639
0.0259563
0.0275033
0.027161
0.028058
0.0277925
0.0284826
0.0282856
0.0288533
0.0286689
0.0291874
0.0290298
0.0294729
0.0293331
0.0298404
0.0296371
0.0305692
0.0301431
0.0321667
0.0312296
0.0354741
0.0335675
0.0415322
0.0381459
0.0505555
0.0457855
0.0604429
0.0555994
0.0679364
0.0645675
0.0719971
0.0703263
0.0732548
0.0729077
0.0722093
0.0729818
0.0691068
0.0708686
0.0642985
0.0668873
0.058054
0.0613188
0.0506654
0.0544846
0.0422343
0.0465744
0.0327752
0.0376107
0.0229432
0.027739
0.0133918
0.0178394
0.00541234
0.00880457
0.00301486
0.00338921
0.00307086
0.00322677
0.00222374
0.0233945
0.00450568
0.0144662
0.042961
0.0322742
0.0600249
0.0522462
0.0703305
0.0660259
0.073285
0.072682
0.0694195
0.0719906
0.0616824
0.0657261
0.0519351
0.0565731
0.0443721
0.0478507
0.0397035
0.0417108
0.0376065
0.0384102
0.037208
0.0372644
0.0377266
0.0373972
0.0386827
0.0381721
0.0398406
0.0392477
0.0410742
0.0404547
0.0423042
0.0416957
0.0433993
0.0428811
0.0440863
0.0437953
0.0439791
0.0441441
0.0429092
0.043549
0.0410671
0.0420671
0.0387201
0.0399554
0.03589
0.0374036
0.0316752
0.0340953
0.025331
0.0286316
0.0202401
0.0223711
0.019656
0.0199048
0.0212007
0.0198694
0.0228135
0.0161292
0.0195199
0.00628282
0.0117375
-0.00776593
-0.000169522
-0.0261708
-0.0164565
-0.0475254
-0.0366438
-0.0688343
-0.0584066
-0.0861487
-0.0782625
-0.0950996
-0.0918998
-0.0924701
-0.0953062
-0.0779273
-0.086558
-0.054589
-0.067038
-0.0275676
-0.0411844
-0.00242034
-0.0142616
0.0131149
0.00609608
0.0197228
-0.0975963
-0.0859994
-0.061173
0.0287502
0.000191357
-0.0841629
-0.0233464
-0.113434
0.0261824
-0.13635
0.0850235
-0.159866
0.136509
-0.175752
0.150894
-0.177104
-0.018369
0.131698
-0.162432
-0.0136636
0.0991347
-0.13546
-0.00281426
-0.000799175
-0.0133581
0.0650979
-0.105034
0.0128196
-0.0290739
0.0364959
-0.0753762
0.0012437
0.0278839
0.0129855
0.0105144
0.0265538
0.025947
-0.0910441
0.00587207
-0.0971602
0.0254419
0.0208298
0.0228346
0.0279706
0.0272709
0.0289443
0.0283641
0.0295371
0.0292313
0.0300894
0.0298054
0.0306469
0.0303704
0.0312241
0.0309354
0.0318717
0.031534
0.0327492
0.032272
0.0341385
0.0333649
0.0364868
0.035172
0.0404049
0.0382306
0.0464622
0.0431787
0.0543494
0.0503179
0.062405
0.0584905
0.0684342
0.0657294
0.0716353
0.0703385
0.0724028
0.0722666
0.0711354
0.071986
0.0680998
0.0697988
0.0635953
0.0660052
0.0578511
0.060849
0.0511243
0.0545908
0.0435653
0.0474382
0.0352723
0.03949
0.0268466
0.0310067
0.018901
0.0227625
0.0123467
0.015264
0.0106079
0.0108137
0.009066
0.0101234
0.0086306
0.022634
0.014489
0.0401521
0.0311831
0.0548181
0.0482099
0.0645225
0.060477
0.067889
0.0668649
0.0657733
0.0673833
0.0595728
0.0630879
0.052897
0.0563663
0.0467397
0.0496356
0.0425385
0.0444012
0.0403121
0.0412255
0.0395524
0.0398002
0.0396998
0.0395502
0.0403547
0.039986
0.0412855
0.0407983
0.0423536
0.0418108
0.0434522
0.0429074
0.0444462
0.0439736
0.0451531
0.0447986
0.0452961
0.0453081
0.0447025
0.0450773
0.0435374
0.0441722
0.0420041
0.0428123
0.0399197
0.0410601
0.0363594
0.0383658
0.0312972
0.0338931
0.0272185
0.02897
0.0259088
0.025991
0.0262762
0.0256662
0.0269276
0.0145596
0.0180926
0.00457108
0.0100872
-0.00927194
-0.00186543
-0.0268751
-0.0176575
-0.0465648
-0.0366343
-0.0652243
-0.0562415
-0.0790735
-0.0729845
-0.0844805
-0.0829993
-0.07931
-0.0832272
-0.0641542
-0.0728171
-0.0423532
-0.053782
-0.0187402
-0.0304815
0.00211748
-0.00761277
0.0163323
0.00975928
0.0219573
-0.0919954
-0.0815171
-0.0504277
0.0300935
0.0274138
-0.0565975
-0.120883
-0.0171497
-0.151143
0.0356444
-0.184953
0.0977475
-0.213576
0.143299
-0.226235
-0.015114
-0.0256269
0.141883
-0.216015
-0.0260101
0.0146775
0.00256986
0.113822
-0.186068
-0.0179459
-0.0121911
0.0759509
-0.146978
-0.0060375
-0.0277131
0.0416495
-0.107871
-0.0998322
0.0139678
-0.0225822
-0.0075849
-0.0132246
0.0242674
0.0275274
0.026675
0.0288601
0.0282193
0.0297861
0.0293243
0.0305616
0.030166
0.0312614
0.0309026
0.0319869
0.0316229
0.0327689
0.0323711
0.0336921
0.0332074
0.0349255
0.0342609
0.0367338
0.0357455
0.0394873
0.0379792
0.0436074
0.0413707
0.0493688
0.0463064
0.0562498
0.0528295
0.0629647
0.0597175
0.0679551
0.0657174
0.0705803
0.0695278
0.071072
0.0710462
0.0697543
0.0706039
0.0668854
0.0684798
0.0627237
0.0649405
0.0574885
0.0602151
0.0514097
0.054535
0.0446666
0.0481078
0.0374475
0.0410919
0.0302854
0.0338224
0.0237512
0.0269197
0.0187028
0.0209415
0.0171309
0.0174225
0.01609
0.0166512
0.0192625
0.0170153
0.0242432
0.0218212
0.0163097
0.00859733
0.000282964
0.0235949
0.016424
0.0384018
0.0309898
0.0510145
0.0450087
0.0596181
0.0558623
0.0632145
0.0619645
0.0623148
0.0632233
0.058128
0.0605101
0.0529081
0.055583
0.0479402
0.0503169
0.0442817
0.045939
0.0421242
0.0430433
0.0411978
0.041544
0.0411152
0.0410816
0.0415562
0.0412909
0.0423075
0.0419061
0.0432281
0.0427559
0.0442047
0.0437175
0.0451115
0.0446763
0.0458067
0.0454708
0.046092
0.0460079
0.0458399
0.0460223
0.0451568
0.0455365
0.0441478
0.0446912
0.0425265
0.043434
0.0395849
0.0412172
0.0354315
0.0375695
0.0317668
0.0334371
0.0299584
0.0305977
0.0296112
0.0296759
0.0303592
0.0299501
0.0231905
0.0194066
0.0216266
0.012645
0.0164203
0.00247359
0.00804802
-0.0114234
-0.00402538
-0.02861
-0.0196962
-0.0469956
-0.0378368
-0.0633727
-0.0556495
-0.0741604
-0.0696632
-0.076419
-0.0764645
-0.0689768
-0.0738667
-0.0532081
-0.0619405
-0.0326655
-0.0432521
-0.0116984
-0.0220028
0.00636811
-0.00210461
0.0191357
0.0132664
0.0239577
-0.0947637
-0.0481903
0.0244989
0.0318818
-0.0860692
-0.119544
-0.0742471
-0.0600548
-0.157443
-0.0163157
-0.202791
0.0431215
-0.246187
-0.0174966
-0.0272189
0.0312403
0.108032
-0.275665
-0.0329632
0.0204342
0.14097
-0.278043
-0.0369947
0.00506783
0.125372
-0.249856
-0.0331766
-0.0102296
0.0894084
-0.202379
-0.0245072
-0.0262756
0.0488249
-0.152317
-0.00880106
-0.0454591
0.0156502
-0.0198942
-0.00920486
0.0249118
0.0246958
-0.010901
0.0282734
0.0279337
0.0293275
0.0288793
0.0303241
0.0298903
0.031224
0.0307785
0.0320763
0.031644
0.0329462
0.0325043
0.0338962
0.0334082
0.0350251
0.0344323
0.0364991
0.0357106
0.0385558
0.037445
0.0414901
0.0399059
0.0455768
0.0433923
0.0508615
0.0481043
0.0568888
0.0537494
0.0626302
0.0598766
0.066863
0.0649612
0.0690994
0.068206
0.0694579
0.0694758
0.068195
0.0689964
0.0655541
0.0670176
0.0617544
0.063771
0.0570217
0.0594826
0.0515655
0.0543657
0.0455774
0.0486231
0.0393021
0.0424503
0.0332037
0.0362051
0.0278034
0.0303878
0.023998
0.0256417
0.0225419
0.0230497
0.0226319
0.0222101
0.0263225
0.0242109
0.0302893
0.0283705
-0.000961257
-0.00570056
0.0117854
0.00494148
0.0245721
0.0183355
0.0370046
0.0307588
0.0479037
0.0427468
0.0555083
0.0521151
0.0591682
0.0577946
0.0591086
0.0595157
0.0563031
0.0579348
0.0523226
0.0543775
0.0483487
0.050276
0.0452359
0.0466696
0.0432527
0.0441183
0.0422844
0.0426677
0.0420727
0.0421084
0.0423673
0.0421751
0.0429795
0.0426465
0.0437741
0.0433632
0.0446398
0.0442059
0.0454658
0.045065
0.0461316
0.0458189
0.0464918
0.0463525
0.0464615
0.0465178
0.0460888
0.0463075
0.0453901
0.0457814
0.0440642
0.0448194
0.0415875
0.0429603
0.0380941
0.0398932
0.034804
0.0363515
0.0326967
0.0335869
0.031889
0.0321632
0.0320845
0.0319508
0.0323993
0.0329153
0.0324813
0.0234046
0.0220383
0.0236065
0.0176071
0.0201763
0.0104507
0.0144163
-0.000139891
0.00563413
-0.0144124
-0.00684922
-0.0315097
-0.0227324
-0.0489369
-0.0403782
-0.0633542
-0.056731
-0.0713988
-0.0683364
-0.070786
-0.072229
-0.0612213
-0.0670314
-0.0447302
-0.0536295
-0.0249473
-0.0349932
-0.00572711
-0.0150797
0.0103752
0.0028454
0.0216791
0.0165095
0.0289904
0.0259301
0.0311637
-0.107928
-0.106254
0.0237458
-0.10063
-0.151729
-0.0717145
0.0265468
0.0251154
0.0328193
0.0332355
-0.0705854
-0.207874
-0.0107127
-0.0199423
-0.0183659
-0.26705
-0.0299825
0.0443631
0.0379642
0.0503408
-0.315165
-0.0389671
0.0246948
0.113358
-0.337308
-0.0457255
0.00903021
0.12758
-0.321601
-0.0469077
-0.00744259
0.0989918
-0.273234
-0.0427323
-0.0239697
0.0576066
-0.210272
-0.0315789
-0.042755
0.0182943
-0.150267
-0.0117267
0.0229135
-0.0083056
-0.00238242
-0.000215412
0.0236104
0.0285435
0.027795
0.0295852
0.0291391
0.0306093
0.0301255
0.0316087
0.0311149
0.0325862
0.0320901
0.0335835
0.0330749
0.0346704
0.0341107
0.0359511
0.0352805
0.0375823
0.0367156
0.0397717
0.0386002
0.0427487
0.0411587
0.046682
0.0446035
0.0515133
0.0490169
0.0568228
0.0541148
0.0617673
0.0593992
0.0654267
0.0637778
0.0673914
0.0666043
0.0677008
0.0677228
0.0665524
0.0672796
0.0641663
0.0654878
0.0607402
0.06256
0.0564924
0.0586985
0.0516279
0.05412
0.0463455
0.0490232
0.0409161
0.0436262
0.0357437
0.0382777
0.031309
0.0334022
0.0284243
0.0296441
0.0273043
0.027702
0.0283954
0.0273925
0.0319696
0.029797
0.0358995
0.033781
0.0442542
0.0395193
0.05138
0.0560114
0.0496248
0.0596287
0.0640553
-0.00189992
-0.00298796
0.00466705
0.000925979
0.0147454
0.00927525
0.0254877
0.0201601
0.0359807
0.0307122
0.0453734
0.0408812
0.0521176
0.0490927
0.055683
0.0542694
0.056181
0.0562478
0.0543628
0.0554741
0.0513781
0.0529426
0.0482257
0.0497734
0.0456213
0.0468372
0.0438613
0.0446426
0.0429283
0.0433094
0.0426571
0.0427293
0.0428557
0.0427137
0.0433617
0.0430822
0.04405
0.043692
0.0448168
0.0444307
0.0455643
0.045199
0.0461884
0.0458949
0.0465819
0.0464148
0.0466811
0.0466635
0.0464873
0.0466149
0.0459516
0.0462649
0.0447908
0.0454591
0.0426209
0.0438223
0.0395919
0.0411597
0.0365637
0.038031
0.0343392
0.0353496
0.0331927
0.0336778
0.0328895
0.0329263
0.0331312
0.0329586
0.020425
0.0220152
0.0156192
0.0184177
0.00790979
0.0121746
-0.00344224
0.00271227
-0.0184326
-0.0105336
-0.0357746
-0.0269643
-0.0525762
-0.0444565
-0.0652917
-0.059649
-0.0707856
-0.0690709
-0.0674165
-0.0702108
-0.0557153
-0.0624724
-0.0382811
-0.0474887
-0.0187802
-0.028555
-0.000666198
-0.00939135
0.0139527
0.00717334
0.0240076
0.0194472
0.0302422
0.0276696
0.0319433
-0.132605
0.00244619
-0.00400067
-0.0673327
0.0247657
0.0243061
0.0332933
-0.123884
-0.196467
-0.0175127
-0.101773
0.0221731
0.0230759
0.0765786
0.0690723
0.00919515
0.00571394
0.013231
-0.0849417
-0.269827
0.0105357
-0.00472326
0.00187533
-0.031225
0.0452353
-0.019668
-0.336994
-0.0432556
0.0302657
0.0583039
-0.380281
-0.0530315
0.0146919
0.109744
-0.384975
-0.0594654
-0.00298751
0.103676
-0.348307
-0.0600005
-0.0204867
0.0653612
-0.281326
-0.053994
-0.0393577
0.0219803
-0.206834
-0.0395618
-0.0624443
-0.0144794
0.0761006
0.0834561
0.0264736
0.0258096
0.0258935
0.0282098
0.0273408
0.0295711
0.0289056
0.0306693
0.0301314
0.0317546
0.0312153
0.0328377
0.0322919
0.0339467
0.0333837
0.0351467
0.0345306
0.03654
0.0358138
0.0382711
0.0373573
0.0405185
0.0393254
0.0434581
0.0419016
0.0471865
0.0452336
0.0515997
0.0493339
0.0563081
0.0539418
0.0606109
0.0585485
0.0638238
0.0623704
0.0655883
0.0648757
0.0658941
0.0658995
0.0648882
0.0655295
0.062763
0.0639421
0.0597069
0.0613304
0.0559224
0.0578865
0.0516123
0.0538167
0.0469812
0.0493208
0.042306
0.044629
0.0379449
0.0400686
0.0343486
0.0360223
0.0321601
0.0330683
0.031538
0.0316668
0.033074
0.0320035
0.0365172
0.0346505
0.0413109