/*--------------------------------*- C++ -*----------------------------------*\
  =========                 |
  \\      /  F ield         | OpenFOAM: The Open Source CFD Toolbox
   \\    /   O peration     | Website:  https://openfoam.org
    \\  /    A nd           | Version:  10
     \\/     M anipulation  |
\*---------------------------------------------------------------------------*/
FoamFile
{
    format      ascii;
    class       volVectorField;
    location    "29";
    object      U;
}
// * * * * * * * * * * * * * * * * * * * * * * * * * * * * * * * * * * * * * //

dimensions      [0 1 -1 0 0 0 0];

internalField   nonuniform List<vector> 
8711
(
(1.11535 0.0131348 0)
(1.11762 0.0122988 3.43484e-22)
(1.13835 0.0146439 3.70732e-21)
(1.17403 -0.00429427 -3.80525e-21)
(1.17709 -0.0157574 -2.67494e-22)
(1.1928 -0.0125442 -3.92423e-21)
(1.07097 0.0126041 1.46037e-22)
(1.07344 0.009246 2.49297e-21)
(0.620135 -0.101699 -1.15737e-21)
(0.610143 -0.00701056 9.36318e-21)
(0.843515 -0.550576 0)
(0.475189 -0.792563 -1.22017e-20)
(1.02092 0.534677 1.62035e-21)
(1.01342 0.543602 5.99864e-23)
(0.667556 -0.131601 -2.4448e-21)
(0.664887 -0.0705096 0)
(1.11737 0.0444717 -3.4991e-22)
(1.12036 0.0511633 5.70886e-22)
(1.12179 0.0533415 2.23424e-22)
(1.13886 0.0719464 1.83807e-21)
(1.13222 0.0636598 -2.68537e-21)
(1.15448 0.0370329 -1.55638e-21)
(1.15934 0.0418349 0)
(1.14845 0.0151427 -1.54543e-21)
(1.53483 -0.19781 1.14476e-19)
(1.51288 -0.230078 -2.82668e-20)
(1.63252 -0.325589 5.18769e-20)
(1.43444 -0.191626 -9.3308e-20)
(0.8431 -0.0256154 -5.50467e-22)
(0.921279 -0.0258391 7.35973e-22)
(0.998854 -0.0294697 -2.43067e-23)
(1.01842 0.190127 8.86576e-20)
(0.931538 0.22044 2.27058e-20)
(1.35012 0.274852 2.08897e-21)
(1.3507 0.224688 -2.51457e-20)
(1.03846 0.059007 -3.80781e-20)
(1.04663 0.0711761 1.09441e-20)
(1.03905 -0.0768155 0)
(1.02325 -0.045484 -7.1577e-20)
(1.02829 -0.048546 1.00611e-19)
(1.01551 -0.0337052 0)
(1.00836 -0.0182444 0)
(-0.138769 -0.279835 1.1589e-20)
(-0.142952 -0.267624 1.65413e-19)
(0.479897 0.628093 4.98211e-20)
(0.769643 0.645668 3.60494e-20)
(-0.000952154 -0.0186823 -8.98628e-20)
(0.083868 -0.0426214 3.21871e-20)
(-0.0427023 -0.102168 -4.67106e-20)
(1.03934 0.0827757 3.88955e-21)
(1.05614 0.0813159 8.58451e-21)
(1.054 0.0937904 2.80236e-21)
(1.04316 0.0992812 0)
(1.11344 0.0163767 0)
(1.10846 0.0207184 3.03292e-21)
(1.10163 0.023576 -3.5487e-21)
(0.997468 0.564836 -2.31822e-21)
(0.984172 0.573371 4.89657e-21)
(1.0114 0.558368 0)
(1.01004 0.573772 -5.74032e-21)
(0.93964 -0.385966 3.31942e-21)
(0.963116 -0.392287 1.98626e-21)
(0.984843 -0.430489 -4.62579e-21)
(0.965698 -0.427367 -2.01756e-21)
(1.05851 0.0160962 -5.07918e-21)
(1.06161 0.0145437 0)
(1.06892 0.0168677 2.52355e-21)
(1.16058 0.0258252 0)
(1.16094 0.029766 3.63542e-21)
(1.16447 0.0374676 -1.97693e-22)
(1.0282 -0.493492 -1.02565e-20)
(1.03276 -0.47878 4.94786e-21)
(1.0336 -0.495235 -1.79906e-21)
(1.0311 -0.500907 0)
(1.06073 -0.00396897 -9.38727e-21)
(1.06161 -0.00961814 0)
(1.06777 -0.00345923 8.60462e-21)
(1.0678 0.00264722 -6.63881e-21)
(1.15312 0.0302419 -3.43033e-21)
(0.917627 0.0522425 -4.12377e-23)
(0.906866 -0.00282095 3.94989e-22)
(0.883238 -0.217045 -3.65005e-22)
(0.892241 -0.202208 0)
(1.14489 0.0221521 -9.71037e-22)
(1.15032 0.0211231 -3.66312e-21)
(1.15266 0.0190998 5.02188e-21)
(1.0659 0.563001 -4.2223e-21)
(1.04949 0.578384 1.41544e-20)
(1.24873 0.502538 -3.08203e-21)
(1.17889 0.506947 -2.78064e-23)
(1.09426 0.0162928 -4.41638e-21)
(1.09859 0.0140223 2.61944e-21)
(1.09513 0.0277113 1.92029e-21)
(1.20393 -0.0471974 5.66109e-21)
(1.17969 -0.0361257 -5.57813e-21)
(1.09625 0.0912279 2.08874e-20)
(1.08163 0.0901062 -4.16098e-22)
(1.07395 0.0792656 -8.16068e-21)
(1.0865 0.0825113 -3.18559e-21)
(1.118 0.103679 4.04635e-23)
(1.10763 0.0816946 0)
(1.00056 -0.186296 -5.47196e-21)
(1.00888 -0.255233 1.29494e-20)
(0.99906 0.540842 -1.50032e-21)
(0.977316 0.552746 -8.41534e-22)
(0.952168 0.559785 -1.06202e-22)
(0.927155 0.541706 0)
(0.907599 0.475379 -2.3874e-21)
(0.893448 0.360936 2.50122e-21)
(0.891561 0.204806 1.72642e-22)
(0.899174 0.0309103 1.99574e-22)
(0.916557 -0.14153 -1.31226e-21)
(0.939504 -0.287725 1.78722e-21)
(0.966186 -0.397761 5.63468e-22)
(0.988792 -0.471641 9.47286e-22)
(1.00809 -0.509628 -1.21885e-21)
(1.02064 -0.527016 -4.11726e-22)
(1.02879 -0.520863 -6.94365e-22)
(1.04307 -0.523694 1.45056e-21)
(1.03411 -0.515333 -1.27425e-21)
(1.04264 -0.513555 2.26233e-21)
(1.03634 -0.521828 -2.48634e-22)
(1.04156 -0.53336 -7.90305e-22)
(1.00675 -0.421895 8.23881e-23)
(1.02356 -0.489871 -5.32786e-22)
(0.963476 -0.163509 -8.2836e-22)
(0.984108 -0.313287 -3.51381e-22)
(0.936636 0.197351 0)
(0.945415 0.0145709 -1.98165e-22)
(0.943058 0.486369 -3.24658e-22)
(0.935063 0.361788 0)
(0.973618 0.57936 5.04122e-23)
(0.955955 0.556736 0)
(1.00509 0.553572 6.72936e-22)
(0.990549 0.570565 8.50387e-23)
(1.01155 0.548954 2.70172e-21)
(0.972724 0.531435 -1.28179e-21)
(1.00101 0.525159 -2.467e-22)
(0.907156 0.520565 -1.77896e-21)
(0.939566 0.53742 6.76121e-22)
(0.863006 0.353755 2.48625e-21)
(0.880497 0.460362 1.7441e-21)
(0.861615 0.0442888 2.53818e-21)
(0.855803 0.208544 -3.97856e-21)
(0.903541 -0.264846 -2.81117e-21)
(0.879129 -0.119995 2.16135e-22)
(0.960024 -0.449723 6.45618e-23)
(0.933917 -0.37609 2.21967e-21)
(1.00199 -0.514411 -6.82984e-22)
(0.983491 -0.49191 1.21937e-21)
(1.02779 -0.511746 0)
(1.01659 -0.513233 0)
(1.03141 -0.505409 5.9822e-22)
(1.02263 0.566192 -4.97183e-21)
(1.02764 -0.502957 -2.53623e-21)
(1.04017 -0.486834 2.33577e-21)
(1.03101 -0.509701 1.80814e-21)
(1.00987 0.586524 2.53582e-21)
(1.03389 0.555122 4.53392e-21)
(1.05994 -0.521404 -1.42615e-21)
(1.05272 -0.506516 -1.13486e-21)
(1.06733 -0.527834 9.02751e-22)
(1.06517 -0.532907 4.30322e-22)
(1.05237 -0.439015 -1.29439e-21)
(1.06166 -0.500519 1.10157e-21)
(1.01813 -0.182014 8.20293e-22)
(1.03474 -0.331639 0)
(0.989994 0.188791 5.05002e-21)
(1.00037 -0.00118689 -3.46802e-21)
(0.985166 0.49416 -2.03599e-21)
(0.9829 0.360086 -1.62471e-21)
(0.998446 0.591958 -2.64688e-22)
(0.989479 0.569422 2.46893e-21)
(1.01301 0.560681 -1.29673e-21)
(1.00541 0.582811 2.93888e-22)
(1.00703 0.554533 0)
(1.0132 0.550541 1.21679e-21)
(1.01418 -0.50441 7.59945e-21)
(1.02337 -0.516743 -2.49824e-21)
(1.02338 0.517136 -5.50218e-22)
(1.04438 0.539625 3.31777e-21)
(0.967648 0.502333 -5.87861e-22)
(0.999319 0.502602 -2.44908e-22)
(0.891753 0.491114 -1.79003e-22)
(0.929964 0.504477 -1.17091e-22)
(0.839551 0.344359 9.45554e-22)
(0.861059 0.439034 -9.24892e-22)
(0.833501 0.0529306 -3.30036e-21)
(0.82942 0.211418 0)
(0.876234 -0.239829 5.10842e-22)
(0.851127 -0.100563 1.98676e-21)
(0.936673 -0.42649 8.89162e-22)
(0.906733 -0.350332 -8.81658e-22)
(0.988068 -0.497135 1.42963e-21)
(0.965016 -0.472604 -1.45321e-21)
(1.02404 -0.502378 6.64197e-23)
(1.00784 -0.50138 3.58205e-23)
(1.03809 -0.511651 2.34277e-21)
(1.03361 -0.503109 1.02826e-21)
(0.999628 -0.469114 1.09008e-20)
(1.0052 -0.484701 -1.28716e-21)
(1.03239 0.587522 0)
(1.03559 -0.522802 0)
(0.967718 0.568729 -5.24059e-21)
(1.00164 0.59069 1.60326e-21)
(0.954807 0.545838 3.95652e-21)
(0.924829 0.525894 -3.68164e-21)
(0.992823 -0.456395 -3.85757e-20)
(0.977974 -0.459358 1.67388e-20)
(1.01221 -0.449002 -5.22306e-21)
(1.06357 0.594456 3.71626e-21)
(1.08901 0.582074 3.58486e-21)
(1.04994 -0.475157 3.00599e-22)
(1.03069 -0.461845 -2.12501e-21)
(1.07896 -0.512481 0)
(1.0636 -0.493643 -2.84828e-22)
(1.10009 -0.524687 -1.5902e-21)
(1.09077 -0.525035 1.90385e-21)
(1.10054 -0.446755 -2.27081e-21)
(1.10269 -0.50254 2.72682e-21)
(1.07855 -0.198154 -9.61309e-21)
(1.09079 -0.34409 6.78608e-21)
(1.04801 0.178551 1.48509e-21)
(1.06021 -0.0150628 1.80582e-21)
(1.03013 0.493266 0)
(1.03653 0.355249 2.13321e-22)
(1.02565 0.595979 3.58732e-21)
(1.02689 0.570593 -2.14363e-21)
(1.02405 0.560681 -9.5492e-24)
(1.02364 0.585112 -1.6809e-21)
(1.00361 0.544621 -1.01129e-21)
(1.01693 0.547225 -5.05172e-22)
(0.980699 0.548667 9.20101e-22)
(1.04715 -0.506367 1.10158e-21)
(1.05103 -0.522945 0)
(1.08182 0.54197 -2.59523e-21)
(1.10802 0.59458 2.18754e-22)
(1.13955 0.57878 -5.54454e-21)
(1.1108 0.562578 1.67647e-21)
(1.02865 0.493989 9.2071e-22)
(1.05364 0.520115 -3.24413e-21)
(0.968506 0.471051 -8.84434e-22)
(1.00258 0.476849 1.19214e-21)
(0.884941 0.459949 7.712e-23)
(0.927719 0.471903 3.54554e-23)
(0.823104 0.332384 0)
(0.848667 0.415176 0)
(0.81529 0.0622335 0)
(0.812772 0.211208 0)
(0.856611 -0.213189 0)
(0.830598 -0.0808136 0)
(0.917714 -0.396238 2.77675e-21)
(0.88743 -0.320355 -3.05722e-21)
(0.977345 -0.474073 8.87145e-24)
(0.948027 -0.445495 0)
(1.02213 -0.487409 -6.82568e-23)
(1.00184 -0.483642 -3.76332e-23)
(1.03728 -0.493882 -2.1706e-21)
(0.996994 -0.503969 0)
(0.984444 -0.483458 -1.30614e-21)
(1.02995 -0.528408 0)
(1.01179 -0.518693 0)
(1.03298 0.597973 -8.47616e-21)
(0.948251 0.548547 0)
(0.90232 0.497826 1.17562e-20)
(0.877714 0.463247 3.52475e-21)
(0.876898 0.446383 -1.23624e-20)
(1.01035 -0.431209 7.2505e-21)
(1.05151 -0.532033 2.7338e-21)
(1.07106 0.599508 -1.2468e-21)
(0.99012 0.577502 0)
(1.16491 0.555365 -9.53692e-22)
(1.16203 0.586448 0)
(1.19708 0.566913 8.09515e-22)
(1.1178 0.594476 7.10173e-22)
(0.916845 0.507458 -8.9548e-22)
(0.808726 0.348327 2.29494e-21)
(0.837827 0.37892 -1.04376e-21)
(0.758478 0.229769 -6.60877e-21)
(0.740574 0.186272 3.68007e-21)
(0.696213 0.0637459 0)
(1.057 -0.456554 -2.10771e-22)
(1.03606 -0.441128 6.56553e-22)
(1.09756 -0.497354 0)
(1.07644 -0.477992 -2.52407e-22)
(1.13356 -0.517065 0)
(1.11684 -0.512544 0)
(1.15081 -0.452313 -4.67899e-24)
(1.14505 -0.501396 0)
(1.13976 -0.211977 1.15834e-23)
(1.1487 -0.356533 0)
(1.10652 0.168517 1.204e-23)
(1.1238 -0.0275368 0)
(1.07711 0.487146 0)
(1.08992 0.349249 0)
(1.05509 0.591351 -4.91442e-25)
(1.06517 0.565967 0)
(1.03646 0.553998 0)
(1.04544 0.579298 0)
(1.00081 0.525441 0)
(1.02191 0.534561 0)
(0.938673 0.507852 -1.27128e-22)
(0.971717 0.520872 -1.32859e-21)
(0.852272 0.417114 1.13312e-21)
(0.89824 0.476247 1.20543e-21)
(0.78945 0.306607 -1.51391e-21)
(1.09614 0.516272 1.76084e-23)
(1.12998 0.537248 -1.79562e-23)
(1.03471 0.468858 1.49855e-24)
(1.0643 0.493928 0)
(0.970985 0.436912 0)
(1.00478 0.448173 0)
(0.883177 0.421593 0)
(0.929711 0.433478 0)
(0.815456 0.312623 0)
(0.843468 0.386122 0)
(0.804311 0.0711698 -2.14332e-24)
(0.802725 0.204621 0)
(0.843556 -0.187325 0)
(0.818732 -0.0631287 0)
(0.9072 -0.367353 0)
(0.873869 -0.28956 0)
(0.971013 -0.448615 0)
(0.93916 -0.417868 0)
(1.02264 -0.468781 -9.26714e-23)
(0.999045 -0.461203 0)
(1.05786 -0.496171 -2.27569e-22)
(1.04241 -0.479009 -2.44009e-22)
(1.07492 -0.528865 -2.77637e-21)
(1.06892 -0.514175 2.15942e-21)
(0.957377 -0.451974 -9.87777e-22)
(0.947001 -0.41926 6.55589e-22)
(0.977773 -0.491981 5.32514e-24)
(0.963173 -0.472735 5.67387e-22)
(1.02189 -0.51933 0)
(0.997779 -0.508106 3.8808e-22)
(1.0791 -0.524511 3.22664e-21)
(1.04929 -0.525692 -2.81232e-21)
(1.03138 0.594435 6.2874e-23)
(1.18035 0.56524 -2.89348e-21)
(1.22915 0.552193 3.01505e-21)
(1.10245 -0.513933 0)
(1.1105 -0.517275 0)
(1.06691 0.588869 1.17243e-21)
(0.963715 0.545098 2.04219e-21)
(0.722649 0.145073 -3.1831e-21)
(0.674456 0.0200076 6.72907e-21)
(1.12027 0.563371 -2.12045e-21)
(0.873685 0.429527 -2.20438e-21)
(0.78113 0.263255 1.11614e-21)
(0.700956 0.0818469 3.37687e-21)
(1.01345 -0.405081 -2.30124e-24)
(0.986314 -0.400451 2.08985e-21)
(1.06699 -0.434704 0)
(1.04034 -0.41968 0)
(1.1168 -0.47656 -5.79814e-23)
(1.09003 -0.45642 -1.45816e-22)
(1.16586 -0.49981 0)
(1.14157 -0.492127 0)
(1.19974 -0.446492 4.00506e-24)
(1.1855 -0.488945 0)
(1.20022 -0.221493 -2.22376e-23)
(1.20471 -0.35852 0)
(1.16549 0.153873 -1.18147e-23)
(1.1852 -0.0415858 0)
(1.12185 0.473203 0)
(1.14324 0.335456 0)
(1.08285 0.578451 -1.08725e-23)
(1.10143 0.552407 0)
(1.0485 0.539371 0)
(1.06543 0.566291 0)
(1.00174 0.499859 0)
(1.02746 0.514944 0)
(0.928907 0.470188 3.21546e-23)
(0.968782 0.487697 1.09073e-22)
(0.829393 0.365888 -8.70624e-22)
(0.88041 0.43262 -9.44605e-23)
(0.775044 0.264819 1.2022e-21)
(1.25899 0.531743 -1.7883e-21)
(1.24007 0.400962 2.93575e-20)
(1.30127 0.411809 0)
(1.2868 0.492715 4.31009e-21)
(1.18613 0.527792 -5.93556e-22)
(1.22303 0.540538 -1.05665e-21)
(1.11012 0.485203 0)
(1.14787 0.506798 0)
(1.03971 0.439666 8.96138e-25)
(1.07428 0.463407 0)
(0.97366 0.402192 -7.78026e-25)
(1.00862 0.417957 0)
(0.887498 0.383407 0)
(0.932935 0.393824 0)
(0.814574 0.290006 0)
(0.845748 0.352793 0)
(0.79834 0.0784953 2.14294e-24)
(0.798621 0.196025 0)
(0.836183 -0.162008 0)
(0.811947 -0.0449799 0)
(0.900799 -0.336711 0)
(0.866491 -0.259843 0)
(0.968373 -0.420096 0)
(0.93498 -0.387671 0)
(1.0269 -0.446627 6.00466e-23)
(0.999775 -0.436562 -1.63538e-25)
(1.06996 -0.478916 4.77336e-22)
(1.04942 -0.461023 2.2192e-23)
(1.08691 -0.503277 -2.15903e-21)
(0.918043 -0.364305 2.05103e-21)
(0.934681 -0.423901 -4.94581e-22)
(0.925466 -0.394945 -1.06043e-21)
(0.958992 -0.460226 -8.55478e-22)
(0.942645 -0.443405 1.54315e-21)
(1.01269 -0.48778 -1.0057e-21)
(0.983266 -0.476029 -5.03275e-22)
(1.08081 -0.496172 0)
(1.04536 -0.495632 1.4607e-21)
(1.1175 -0.492363 0)
(1.01302 0.571665 0)
(0.939202 -0.354353 2.22662e-21)
(0.91954 -0.330082 3.279e-21)
(1.28968 0.270971 0)
(0.961558 -0.351249 -4.73956e-21)
(1.05352 0.544628 3.0597e-21)
(0.927628 0.477021 0)
(1.10376 0.489665 -1.76889e-21)
(0.821393 0.310396 1.43443e-21)
(1.16099 -0.443394 7.80772e-21)
(1.1521 0.392952 4.66839e-21)
(0.724807 0.10799 -1.04645e-21)
(1.22987 0.265914 -4.03788e-20)
(0.659322 -0.0882779 0)
(0.918911 -0.313971 -3.95113e-21)
(1.15354 -0.483889 3.17218e-21)
(1.01807 -0.377193 -7.76162e-22)
(0.989241 -0.372937 2.46815e-21)
(1.07478 -0.410697 2.36615e-22)
(1.04692 -0.394354 -3.04619e-22)
(1.13342 -0.450371 4.88035e-23)
(1.10256 -0.431039 7.74836e-23)
(1.19424 -0.47663 0)
(1.16371 -0.466713 0)
(1.24461 -0.435215 -4.00501e-24)
(1.22204 -0.47053 0)
(1.25762 -0.229828 2.0022e-23)
(1.25726 -0.356934 0)
(1.22095 0.133495 -9.61537e-24)
(1.24385 -0.0578754 0)
(1.16284 0.451082 0)
(1.19215 0.314055 0)
(1.10717 0.557742 9.19151e-24)
(1.13401 0.530959 0)
(1.0591 0.518733 0)
(1.0824 0.546303 0)
(1.00386 0.469525 0)
(1.03348 0.490528 0)
(0.921789 0.427738 -7.53963e-24)
(0.967269 0.451276 -6.77844e-25)
(0.815375 0.31281 -7.13435e-23)
(0.869798 0.384814 7.53693e-23)
(0.71431 0.106883 0)
(0.761663 0.216269 1.07367e-22)
(0.680215 -0.132704 0)
(0.682278 -0.012838 0)
(1.35025 0.386451 -1.97249e-21)
(1.33263 0.226924 2.07147e-20)
(1.29466 0.49831 -7.90081e-22)
(1.32912 0.465171 2.01935e-21)
(1.20775 0.48974 2.68656e-21)
(1.25272 0.502683 2.90144e-22)
(1.12136 0.44782 7.20731e-22)
(1.16331 0.469726 -5.4975e-22)
(1.0453 0.408927 -8.8059e-25)
(1.08286 0.429451 -1.09999e-21)
(0.978659 0.368445 7.78015e-25)
(1.01263 0.387356 0)
(0.896078 0.343396 -8.03771e-29)
(0.940071 0.355484 9.5703e-29)
(0.819252 0.267421 0)
(0.853437 0.317978 0)
(0.797678 0.0838881 0)
(0.800397 0.187386 0)
(0.833012 -0.137056 0)
(0.809667 -0.0280669 0)
(0.898248 -0.304653 0)
(0.863252 -0.230114 0)
(0.969378 -0.389072 0)
(0.933579 -0.356073 0)
(1.03165 -0.422214 9.75611e-23)
(1.00178 -0.409603 5.87459e-22)
(1.08077 -0.459595 0)
(1.05822 -0.438079 -6.5091e-22)
(1.12456 -0.504736 1.19067e-21)
(1.10526 -0.480053 0)
(1.14888 -0.490664 -4.08918e-21)
(0.65393 -0.216018 2.45829e-21)
(0.689136 -0.209677 1.27625e-21)
(0.897668 -0.326713 -2.18935e-21)
(0.89138 -0.279882 0)
(0.897106 -0.304426 1.60408e-21)
(0.913439 -0.373404 3.99624e-22)
(0.903413 -0.349079 6.10484e-22)
(0.943245 -0.404678 0)
(0.924074 -0.38979 -3.97123e-22)
(1.0031 -0.428969 2.1803e-21)
(0.970331 -0.418926 -1.08937e-21)
(1.08133 -0.4402 0)
(1.04057 -0.436865 -1.1032e-21)
(1.12474 -0.436171 0)
(0.987866 0.515175 0)
(1.02667 0.458146 9.69799e-22)
(0.878749 0.36699 -1.37789e-21)
(1.17204 -0.367534 -6.86087e-21)
(1.1953 -0.431803 0)
(1.21038 -0.366708 -1.99675e-20)
(1.06714 0.361183 2.17458e-21)
(0.767729 0.158577 0)
(1.11821 0.238709 -6.9292e-21)
(0.683238 -0.059256 1.21738e-21)
(1.12451 0.0839147 2.41932e-21)
(0.656358 -0.224998 -3.64107e-21)
(1.2631 0.0666645 -1.48706e-20)
(0.723796 -0.273069 5.38212e-22)
(0.683193 -0.320339 -5.50006e-22)
(0.906061 -0.268171 0)
(0.874638 -0.229179 1.38179e-22)
(0.917875 -0.310646 9.1872e-23)
(0.96304 -0.32515 -1.1841e-21)
(0.937585 -0.305744 0)
(1.0248 -0.351829 -2.42537e-22)
(0.99726 -0.338828 -2.20949e-22)
(1.08274 -0.384552 1.44758e-27)
(1.05375 -0.366652 1.36015e-22)
(1.14721 -0.419996 -4.67483e-23)
(1.11387 -0.402839 4.31096e-23)
(1.21736 -0.446634 0)
(1.18162 -0.435989 0)
(1.28232 -0.415612 2.84167e-24)
(1.25207 -0.443883 0)
(1.3086 -0.234522 -1.71955e-23)
(1.3027 -0.34847 0)
(1.27113 0.108594 9.61543e-24)
(1.29679 -0.0747652 0)
(1.19881 0.421652 5.76289e-24)
(1.23591 0.285594 0)
(1.12823 0.530549 -1.07731e-24)
(1.16227 0.502343 0)
(1.06843 0.494163 0)
(1.09703 0.521011 0)
(1.00645 0.43712 0)
(1.03921 0.463511 0)
(0.919164 0.382012 0)
(0.966829 0.41208 0)
(0.810778 0.263178 -9.75484e-25)
(0.865448 0.333504 0)
(0.717868 0.0693161 2.96519e-23)
(0.757766 0.169753 -2.60388e-23)
(0.705898 -0.120792 3.70744e-22)
(0.697965 -0.0341055 -2.92244e-23)
(0.778743 -0.219759 -3.67802e-22)
(0.735735 -0.176788 0)
(0.78035 -0.297424 0)
(0.870378 -0.278699 4.8497e-21)
(0.828619 -0.246849 -1.38112e-21)
(1.41361 0.40354 8.99059e-21)
(1.38042 0.140206 -5.15773e-21)
(1.41945 0.304558 -1.40568e-20)
(1.31878 0.465464 7.0582e-22)
(1.3703 0.45091 -2.54187e-21)
(1.21638 0.446893 0)
(1.26678 0.461249 -6.54572e-23)
(1.1267 0.410582 5.48267e-25)
(1.17036 0.429459 0)
(1.0507 0.377081 0)
(1.08757 0.394263 0)
(0.984715 0.336377 0)
(1.01732 0.357013 0)
(0.908103 0.304387 0)
(0.949228 0.319011 0)
(0.83004 0.241841 0)
(0.866152 0.282433 0)
(0.801846 0.0868546 0)
(0.807939 0.175658 0)
(0.833156 -0.11274 0)
(0.811396 -0.0127482 0)
(0.898172 -0.271887 -7.78499e-25)
(0.863026 -0.200218 0)
(0.971495 -0.356985 0)
(0.934678 -0.323063 0)
(1.03783 -0.395122 0)
(1.00571 -0.379906 0)
(1.0934 -0.431891 1.74473e-24)
(1.06653 -0.414752 0)
(1.14565 -0.468841 -1.04853e-21)
(1.12262 -0.462712 0)
(1.17554 -0.488687 1.57126e-21)
(0.879598 -0.269229 -1.68264e-22)
(0.878284 -0.250701 -3.53639e-21)
(0.895613 -0.29982 4.24819e-22)
(0.885523 -0.283927 6.54132e-22)
(0.930781 -0.324218 -1.6155e-26)
(0.909188 -0.312528 -4.27956e-22)
(0.995228 -0.343325 3.16922e-27)
(0.959794 -0.335322 0)
(1.08075 -0.354417 -2.94592e-23)
(1.0364 -0.350096 -6.35688e-22)
(1.12954 -0.352086 5.02078e-21)
(0.948288 0.415513 0)
(0.915427 -0.247417 0)
(1.22441 -0.427589 -9.38801e-22)
(1.2447 -0.359842 5.50408e-21)
(0.980077 0.317102 2.4176e-22)
(0.826521 0.212563 0)
(1.01864 0.188537 -2.36241e-21)
(0.718796 -0.0208347 -1.20349e-21)
(1.04649 0.0409546 0)
(0.660672 -0.22589 4.11699e-21)
(1.15765 -0.0472572 -5.89678e-21)
(1.30147 -0.0380711 -3.84883e-22)
(1.17051 -0.15886 -5.40777e-21)
(0.658597 -0.344449 -2.1699e-21)
(0.732487 -0.354552 0)
(0.828674 -0.32384 5.50374e-22)
(0.881203 -0.337665 2.53642e-22)
(0.901343 -0.247965 0)
(0.938468 -0.279151 -1.14359e-22)
(0.94746 -0.34298 -5.35879e-22)
(0.971826 -0.29571 4.23859e-22)
(0.942843 -0.274135 0)
(1.0317 -0.323832 -6.11168e-23)
(1.00199 -0.309004 0)
(1.0904 -0.356355 -2.33888e-27)
(1.05956 -0.33952 6.22683e-23)
(1.15767 -0.387525 0)
(1.12251 -0.372393 9.4239e-29)
(1.23415 -0.412212 0)
(1.19491 -0.401838 0)
(1.31081 -0.389747 -2.84191e-24)
(1.27409 -0.411504 3.20669e-28)
(1.35068 -0.235746 1.66862e-24)
(1.33848 -0.334305 0)
(1.31454 0.0795453 6.3241e-24)
(1.34214 -0.091851 5.23679e-28)
(1.22842 0.385139 -5.76295e-24)
(1.27317 0.25045 0)
(1.14476 0.497468 -3.04896e-24)
(1.18477 0.467084 -2.24574e-28)
(1.07464 0.465452 -2.33238e-25)
(1.10814 0.490647 -8.07695e-29)
(1.00579 0.402721 0)
(1.04158 0.433568 0)
(0.91472 0.333822 0)
(0.963737 0.37084 0)
(0.808332 0.214128 -8.19672e-25)
(0.861023 0.281955 0)
(0.731648 0.0439766 -5.00843e-22)
(0.761517 0.130824 5.33202e-22)
(0.750567 -0.0937399 -5.47935e-22)
(0.728126 -0.0343365 1.28392e-22)
(0.828875 -0.172573 1.26615e-21)
(0.787218 -0.134883 6.14284e-23)
(0.864495 -0.209008 -9.07414e-22)
(1.46267 0.19228 -1.11232e-21)
(1.19282 -0.220191 6.35369e-21)
(1.32917 -0.1096 -2.64164e-21)
(1.41464 0.0427686 3.78684e-21)
(1.43325 0.368717 -1.83873e-21)
(1.46749 0.302321 0)
(1.32114 0.411448 4.31028e-23)
(1.37876 0.401573 4.64887e-22)
(1.21882 0.400801 -3.76271e-22)
(1.26922 0.409957 1.02457e-22)
(1.13237 0.374205 -5.40355e-25)
(1.17433 0.38878 4.22223e-22)
(1.05716 0.345025 0)
(1.09392 0.359843 0)
(0.991693 0.306489 0)
(1.0234 0.327229 0)
(0.922461 0.267943 0)
(0.959392 0.285973 0)
(0.846339 0.214178 0)
(0.883021 0.247065 0)
(0.81107 0.086871 -4.19316e-26)
(0.821173 0.160929 0)
(0.836478 -0.0896037 0)
(0.817241 0.000344738 0)
(0.899852 -0.23875 8.41617e-25)
(0.865302 -0.170652 0)
(0.974275 -0.324004 0)
(0.937241 -0.289124 0)
(1.04304 -0.366276 0)
(1.0104 -0.348777 0)
(1.10281 -0.404959 -1.72016e-24)
(1.07546 -0.388024 0)
(1.16363 -0.443244 -1.59053e-22)
(1.13702 -0.43595 6.39242e-22)
(1.20054 -0.454465 1.39707e-22)
(0.866563 -0.164524 -8.25637e-22)
(0.880524 -0.150968 -7.26543e-22)
(0.873218 -0.157963 9.39818e-22)
(0.868469 -0.189682 1.10842e-21)
(0.867702 -0.178699 1.6269e-21)
(0.883924 -0.207409 0)
(0.873711 -0.198869 0)
(0.922105 -0.22182 1.61546e-26)
(0.899296 -0.214582 0)
(0.989242 -0.233958 2.20733e-27)
(0.952162 -0.228703 0)
(1.08109 -0.242069 -3.77636e-22)
(1.03292 -0.238625 0)
(1.18129 -0.254424 4.70928e-21)
(1.13254 -0.242357 -3.04648e-21)
(1.25893 -0.259807 -7.61819e-21)
(1.2217 -0.259226 1.20828e-20)
(0.898295 0.265483 9.25063e-28)
(0.927145 0.133819 -3.36791e-21)
(0.773112 0.0263497 0)
(0.956661 -0.0214795 2.39316e-21)
(0.684069 -0.207022 1.1697e-21)
(1.26927 -0.130852 3.56521e-21)
(1.28811 -0.258518 -1.05295e-21)
(1.30106 -0.135472 -1.63117e-21)
(1.00194 -0.167233 8.44647e-21)
(1.01102 -0.274272 0)
(1.05212 -0.339501 5.53226e-21)
(1.21603 -0.245845 0)
(1.06872 -0.365213 0)
(0.654313 -0.364215 -8.09407e-22)
(0.698533 -0.412014 1.36615e-22)
(0.790725 -0.383159 -1.18728e-21)
(0.859299 -0.3656 -1.38896e-22)
(0.931281 -0.370504 1.49502e-23)
(0.890982 -0.145192 -5.01379e-23)
(0.967757 -0.312462 4.3953e-22)
(0.988686 -0.371959 6.18977e-23)
(1.00832 -0.335791 0)
(0.875599 -0.0874915 -7.29987e-22)
(0.88262 -0.0852358 5.14664e-23)
(0.924976 -0.225437 -1.79709e-23)
(0.903839 -0.186741 3.13488e-23)
(0.980652 -0.267229 -1.41105e-22)
(0.951959 -0.248249 3.60529e-23)
(1.03797 -0.29702 7.40972e-23)
(1.0096 -0.280975 -1.10371e-22)
(1.09691 -0.327483 1.22986e-27)
(1.06618 -0.312568 0)
(1.16512 -0.353802 2.16647e-28)
(1.1296 -0.340929 0)
(1.24442 -0.374305 0)
(1.20333 -0.365678 0)
(1.32877 -0.35775 0)
(1.2874 -0.374318 0)
(1.38166 -0.23226 6.15921e-24)
(1.36269 -0.313819 0)
(1.35085 0.0470374 -6.32457e-24)
(1.37812 -0.107942 0)
(1.2509 0.341438 2.52003e-28)
(1.30418 0.208573 -2.95451e-28)
(1.15256 0.459319 0)
(1.19893 0.42572 0)
(1.07187 0.432142 9.16346e-25)
(1.11058 0.455541 0)
(0.994408 0.365631 0)
(1.03395 0.399729 0)
(0.90216 0.286739 2.35296e-24)
(0.950428 0.328554 0)
(0.807774 0.172077 2.06599e-24)
(0.852539 0.234121 0)
(0.762459 0.0371594 -6.64361e-25)
(0.774971 0.103221 0)
(0.801224 -0.0614361 1.70353e-22)
(0.773966 -0.0199574 0)
(0.865322 -0.139097 1.83995e-23)
(0.834187 -0.0994327 -1.72093e-22)
(0.917388 -0.22211 -5.76948e-22)
(0.891204 -0.180908 5.27262e-22)
(0.982218 -0.282646 0)
(0.949604 -0.254077 -1.90929e-22)
(1.4375 -0.028056 -1.19927e-21)
(1.09439 -0.34408 4.7305e-22)
(1.25187 -0.240851 1.03051e-22)
(1.3537 -0.14502 6.49851e-22)
(1.49748 0.203696 8.88061e-22)
(1.48604 0.0948014 0)
(1.4268 0.330857 -9.36061e-23)
(1.4737 0.282344 -1.00796e-21)
(1.31539 0.363193 -4.0442e-23)
(1.37193 0.35554 2.53454e-22)
(1.21583 0.357944 6.30171e-25)
(1.26432 0.36321 7.83261e-29)
(1.13226 0.338263 0)
(1.17206 0.349486 0)
(1.06065 0.312929 2.42364e-25)
(1.09571 0.32586 -1.22699e-29)
(0.997368 0.278274 0)
(1.02782 0.297535 0)
(0.936669 0.235182 0)
(0.968327 0.25644 0)
(0.866907 0.185414 0)
(0.901932 0.213415 0)
(0.825527 0.0833062 3.41802e-25)
(0.839773 0.143124 0)
(0.843173 -0.0684486 0)
(0.827481 0.0103875 0)
(0.903118 -0.20592 -6.31178e-26)
(0.870009 -0.142119 0)
(0.977199 -0.290462 0)
(0.940623 -0.25475 0)
(1.04711 -0.336308 0)
(1.01474 -0.316454 0)
(1.11168 -0.376855 1.76841e-22)
(1.0825 -0.359059 -1.89597e-22)
(1.1771 -0.417243 -1.51098e-22)
(1.1469 -0.404676 -3.44828e-24)
(1.24441 -0.404337 7.19546e-22)
(1.21442 -0.4236 1.43013e-22)
(1.26908 -0.34811 0)
(0.863883 -0.0905555 0)
(0.869519 -0.0896378 7.09845e-22)
(0.864033 -0.0972261 0)
(0.863426 -0.0951165 0)
(0.879201 -0.101399 0)
(0.868713 -0.0999879 0)
(0.918048 -0.104318 0)
(0.895102 -0.102734 0)
(0.986269 -0.107603 -4.08976e-26)
(0.94849 -0.106067 0)
(1.07989 -0.111179 3.60861e-22)
(1.03119 -0.109425 -9.10536e-23)
(1.18389 -0.118044 -3.58274e-21)
(1.13133 -0.110915 0)
(1.22911 -0.124245 -4.00742e-21)
(0.844154 0.0783597 0)
(1.01584 -0.308654 -1.12318e-22)
(1.04114 -0.356791 -1.21244e-22)
(1.05213 -0.33067 -8.3733e-22)
(0.867497 -0.0789487 -2.28221e-21)
(0.726836 -0.175495 -7.26464e-28)
(1.27496 0.0101795 -3.77968e-21)
(1.30749 0.000704815 2.95628e-21)
(0.89439 -0.238869 2.27423e-21)
(0.910284 -0.371276 0)
(0.94421 -0.458268 2.46402e-21)
(0.942482 -0.486673 1.3359e-21)
(0.948151 -0.46133 -1.28584e-21)
(1.15515 -0.295669 2.33596e-23)
(0.981323 -0.393831 -1.83441e-22)
(0.677809 -0.459116 2.06776e-26)
(0.754404 -0.444634 5.25315e-22)
(0.837481 -0.407855 2.99063e-23)
(0.909174 -0.402871 -1.82467e-22)
(0.964508 -0.408173 0)
(1.02625 -0.397797 -6.9578e-22)
(0.880492 -0.0230261 -7.53915e-22)
(0.889573 -0.0311019 -1.0879e-24)
(0.904824 -0.135654 3.74934e-25)
(1.32335 -0.13369 -3.91913e-21)
(1.30598 -0.247463 1.99614e-21)
(0.892521 -0.0849831 -1.6382e-22)
(0.667181 -0.373933 -6.66394e-28)
(0.937264 -0.202 1.73213e-23)
(0.915799 -0.166381 -3.0485e-23)
(0.989338 -0.241087 0)
(0.962706 -0.221014 5.49647e-23)
(1.0442 -0.271538 -1.93119e-28)
(1.01692 -0.254708 -3.62886e-25)
(1.10186 -0.298675 -4.4801e-28)
(1.07221 -0.285542 0)
(1.16912 -0.320017 -2.16647e-28)
(1.13445 -0.30952 0)
(1.24816 -0.335229 0)
(1.20712 -0.329083 0)
(1.33587 -0.321568 0)
(1.29215 -0.334653 0)
(1.40012 -0.222804 0)
(1.37448 -0.287479 0)
(1.38054 0.0128889 2.97132e-24)
(1.40376 -0.120675 2.7504e-28)
(1.27027 0.288777 0)
(1.33178 0.160041 0)
(1.15177 0.414946 -3.92768e-29)
(1.20748 0.376246 4.60293e-29)
(1.05814 0.394071 -6.83093e-25)
(1.10258 0.415305 5.90009e-29)
(0.973775 0.326296 1.09571e-28)
(1.01566 0.361866 -1.28321e-28)
(0.889136 0.244716 -2.35278e-24)
(0.931178 0.287122 -1.78907e-28)
(0.822255 0.144234 0)
(0.851076 0.196092 0)
(0.812191 0.0437492 -4.71353e-25)
(0.808419 0.0915191 -2.25638e-28)
(0.853948 -0.03511 0)
(0.830843 0.00219186 0)
(0.897018 -0.117573 0)
(0.876738 -0.0756124 0)
(0.941461 -0.197729 4.87053e-22)
(0.916426 -0.161 -3.20451e-22)
(1.00365 -0.254197 -2.23373e-22)
(0.971023 -0.227996 3.58886e-22)
(1.07746 -0.371488 -4.64304e-22)
(1.07703 -0.302991 6.05191e-22)
(1.03717 -0.278538 -1.12046e-21)
(1.36597 -0.161653 -1.10894e-22)
(1.06076 -0.32207 -2.32458e-23)
(1.2163 -0.255166 -1.09592e-21)
(1.29109 -0.220677 0)
(1.48348 0.018976 4.72918e-23)
(1.43662 -0.0767308 3.28942e-22)
(1.48579 0.190744 -4.91869e-22)
(1.49932 0.112446 0)
(1.40068 0.285824 9.58908e-23)
(1.44938 0.248264 -2.52243e-22)
(1.29848 0.316658 0)
(1.35007 0.306889 0)
(1.20764 0.318192 7.9597e-26)
(1.25131 0.319687 0)
(1.13083 0.305019 1.48637e-29)
(1.16766 0.313106 -1.76848e-29)
(1.06438 0.283037 2.02169e-25)
(1.09692 0.294656 0)
(1.00402 0.252102 5.16282e-29)
(1.0333 0.269368 -6.14545e-29)
(0.95023 0.20747 0)
(0.977222 0.230737 0)
(0.890244 0.157453 5.99408e-25)
(0.921258 0.183702 -7.28114e-29)
(0.845418 0.0756978 -2.99869e-25)
(0.863164 0.122969 0)
(0.853383 -0.05025 5.21514e-29)
(0.842393 0.0163868 -6.21354e-29)
(0.907736 -0.173945 -1.04926e-24)
(0.876782 -0.115511 0)
(0.980234 -0.256562 0)
(0.944001 -0.220909 0)
(1.05079 -0.305286 -5.67609e-25)
(1.01747 -0.284066 0)
(1.11632 -0.347481 8.98645e-23)
(1.08571 -0.329093 1.86659e-23)
(1.18601 -0.385497 5.25528e-23)
(1.15331 -0.372461 -1.20845e-22)
(1.25379 -0.37469 -2.07985e-21)
(1.22168 -0.391081 0)
(1.28323 -0.329339 1.32421e-21)
(0.867431 -0.0120071 0)
(0.873306 -0.0180212 7.5424e-22)
(0.866729 -0.00110976 -3.18267e-22)
(0.865535 -0.00761288 0)
(0.881226 0.00951754 0)
(0.871155 0.00385818 3.13909e-22)
(0.91937 0.0189795 0)
(0.896858 0.0145416 0)
(0.986747 0.0255173 -4.10874e-26)
(0.949436 0.0226865 0)
(1.0804 0.0285688 -7.30908e-22)
(1.03087 0.027027 9.199e-23)
(1.18684 0.0254985 -1.32208e-21)
(1.13382 0.0287726 1.4121e-21)
(1.2338 0.0194404 0)
(0.789112 -0.132332 0)
(1.33103 -0.00422619 0)
(0.810331 -0.294386 0)
(0.825015 -0.443216 6.20908e-26)
(0.847012 -0.541376 0)
(0.842815 -0.579709 -3.34424e-21)
(0.839431 -0.5686 -2.10328e-22)
(0.838237 -0.50254 2.60323e-23)
(0.726829 -0.502765 -3.3308e-26)
(0.812814 -0.459614 -2.86283e-25)
(0.886011 -0.440219 2.9484e-22)
(0.941445 -0.443342 -4.8346e-22)
(0.880896 -0.404288 0)
(1.15207 -0.265537 -1.55195e-22)
(0.985623 -0.317945 0)
(1.01125 -0.436009 6.53355e-22)
(1.07031 -0.416028 2.40779e-21)
(1.10827 -0.326971 2.1272e-22)
(0.901519 -0.0475052 9.483e-22)
(0.696144 -0.363167 1.35872e-27)
(1.11521 -0.361529 -2.31244e-22)
(0.675635 -0.492703 1.13115e-27)
(1.35576 0.147276 7.98342e-21)
(0.913115 -0.121139 2.39167e-22)
(0.909523 -0.0678154 -3.512e-21)
(0.949323 -0.179086 0)
(0.931687 -0.147251 2.07397e-22)
(0.998633 -0.216572 5.82148e-27)
(0.975473 -0.196517 -2.97425e-24)
(1.04964 -0.247014 -1.25269e-27)
(1.025 -0.231183 3.97451e-28)
(1.10553 -0.270423 -3.93004e-28)
(1.07713 -0.259352 0)
(1.17 -0.287118 8.48262e-30)
(1.13694 -0.279138 -9.96111e-30)
(1.24597 -0.296444 0)
(1.2065 -0.293224 0)
(1.33248 -0.282944 0)
(1.28879 -0.294314 0)
(1.40478 -0.206524 -1.19136e-28)
(1.3735 -0.256265 1.3983e-28)
(1.40291 -0.0181159 -2.97152e-24)
(1.41712 -0.12672 0)
(1.29496 0.227432 -7.67278e-29)
(1.35909 0.108432 8.9954e-29)
(1.15656 0.361114 1.28885e-24)
(1.22306 0.315994 0)
(1.04865 0.351114 -2.33156e-24)
(1.09853 0.367993 0)
(0.963932 0.287838 0)
(1.00407 0.321544 0)
(0.897423 0.213257 3.42766e-24)
(0.927948 0.251123 0)
(0.862449 0.132929 -2.10412e-28)
(0.874925 0.173006 2.46275e-28)
(0.870346 0.0560822 7.01038e-24)
(0.861798 0.0934072 0)