/*--------------------------------*- C++ -*----------------------------------*\
  =========                 |
  \\      /  F ield         | OpenFOAM: The Open Source CFD Toolbox
   \\    /   O peration     | Website:  https://openfoam.org
    \\  /    A nd           | Version:  10
     \\/     M anipulation  |
\*---------------------------------------------------------------------------*/
FoamFile
{
    format      ascii;
    class       volScalarField;
    location    "91";
    object      p;
}
// * * * * * * * * * * * * * * * * * * * * * * * * * * * * * * * * * * * * * //

dimensions      [0 2 -2 0 0 0 0];

internalField   nonuniform List<scalar> 
28942
(
-0.003734
-0.00310883
0.0020639
0.00951872
0.0098186
7.30094e-05
0.000253919
1.53376e-05
0.00274332
0.00283117
-0.0022771
-0.0025457
-0.00292797
-0.00284553
0.000170048
0.000455867
0.00991025
0.0101803
0.00561462
0.00717438
0.00818209
0.00817372
-0.00518052
-0.0050061
-0.00353499
-0.00375903
0.0139088
0.0138578
0.00356841
0.00351103
1.14354e-05
4.40386e-05
0.000689918
0.000277047
0.00717291
0.00837856
0.0109164
0.0128748
-1.44604e-05
0.0150693
0.00911873
0.0116167
0.00176077
0.00167136
0.00173525
0.000257343
0.000130823
0.000204018
0.000236492
0.000331741
0.00064452
0.00281348
0.00288478
0.00287609
0.00303093
-0.00230667
-0.00100503
-0.0033344
-0.00318022
-0.00345068
-0.00352384
-0.0035245
-0.00342267
-7.2287e-05
-0.00177092
-0.000319122
0.00101059
0.00945445
0.00895811
-0.0033263
-0.00353581
-0.00327117
0.00902053
0.00887196
0.00916441
-0.00143972
-0.00105229
-0.000714566
0.00239725
0.00279651
0.00188844
0.000794557
-0.00627314
-0.00750056
0.00111587
0.00384059
0.00488176
0.0056688
0.00405374
0.0041762
0.0061427
0.0055221
-0.00136156
-0.00165051
-0.00192792
-0.00176745
-0.00159418
0.00536405
0.00665471
-0.00781192
0.0113159
0.0105169
0.00581083
0.0094076
0.000931168
0.000836651
0.000748264
0.00550168
0.00569442
0.00568854
-0.00317818
-0.003099
-0.00309144
-0.00257511
-0.00269843
0.0158619
0.0138574
0.0132985
0.0149293
0.00167567
0.00475409
0.0034529
0.00510688
0.0047838
0.015535
0.01583
0.0144886
0.00594814
0.00702684
0.00016611
0.000259218
9.1013e-05
0.0105315
0.0110341
0.0076961
0.00734817
0.0128053
0.00673267
0.00802251
0.00908139
-0.00186607
-0.00237343
0.00739211
0.00167811
0.00176731
-0.00113147
-0.0013936
-0.000937204
-0.00247289
0.00662412
0.00575159
0.00374621
0.00023899
0.000187813
6.92132e-05
0.000189015
0.00756037
0.00682375
-0.0018263
-0.00194339
-0.00183846
-0.004099
-0.00364499
5.13356e-05
-0.00280948
-0.000457604
0.00842429
0.00853326
0.0096274
0.00916269
0.00774043
0.00310749
0.0030248
0.00328255
0.00315824
0.00507127
0.00484914
0.00518431
0.0054048
0.00534289
0.00541421
0.00562543
0.00617955
0.00587354
0.00547159
0.00580173
0.00650739
0.00726132
0.00755326
-0.000544125
-0.000524838
-0.00243411
0.000189641
4.58468e-05
-0.00195698
-0.00204521
0.000258123
0.000319482
0.000284793
0.000219227
0.00176701
0.00171783
0.00170042
-0.00287696
-0.00306337
-0.00272838
-0.00429401
-0.0047754
-0.00408797
-0.00467445
-0.00643847
-0.00513804
0.0160556
0.0167657
0.0165331
0.000963977
0.00110873
0.000997769
0.0103823
0.00995432
0.0100346
0.00140401
0.00138796
0.00142028
0.00137146
0.00135589
0.00133974
0.00133994
0.00132336
0.0013236
0.00135625
0.00137204
0.00138791
0.00140411
0.00142096
0.00130756
0.00130685
0.00143608
0.00143629
0.00145115
0.00129143
0.00129062
0.00145182
0.00127484
0.0012584
0.00127474
0.00125874
0.00146862
0.0014689
0.00124217
0.00124257
0.00148434
0.00148484
0.00122597
0.00122641
0.00150015
0.00150069
0.00120982
0.00121025
0.00151593
0.00151656
0.00119366
0.00119415
0.00153168
0.00153234
0.00117759
0.00117795
0.0015475
0.00154817
0.00116144
0.00116184
0.00156366
0.00156414
0.00114528
0.00114549
0.00157888
0.00157957
0.00112898
0.00112894
0.00159556
0.00159582
0.00111234
0.00111215
0.00161062
0.00161084
0.00109466
0.0010953
0.00162647
0.00162642
0.00107783
0.00107867
0.00160992
0.00162578
0.00164237
0.00164215
0.00157701
0.00159429
0.00154547
0.0015618
0.00151468
0.0015302
0.00148314
0.00149898
0.00145059
0.0014672
0.00141898
0.00143624
0.00138757
0.00140376
0.00135503
0.00137006
0.00132172
0.0013386
0.00128966
0.00130576
0.00125738
0.00127356
0.0012251
0.00124126
0.00119287
0.00120901
0.00116067
0.0011768
0.00112849
0.00114459
0.00109495
0.00111233
0.00107804
0.00106102
0.00106146
0.00111218
0.00107829
0.00109495
0.00114529
0.00112851
0.00117747
0.00116151
0.00120968
0.00119359
0.00124199
0.00122586
0.00127435
0.0012582
0.00130654
0.00129052
0.00133912
0.0013231
0.00137202
0.00135569
0.00140336
0.00138748
0.00143618
0.001421
0.00146851
0.00145191
0.00150028
0.00148446
0.00153181
0.00151613
0.00156318
0.00154744
0.00159468
0.00157858
0.00162518
0.00161013
0.00164094
0.00164227
0.00106078
0.00106146
0.00165726
0.00165568
0.00165841
0.00165782
0.00160829
0.00164096
0.00162431
0.00157548
0.00159231
0.00154426
0.00155952
0.00151324
0.00152886
0.00148167
0.00149751
0.00144972
0.00146575
0.00141728
0.00143393
0.00138556
0.00140239
0.00135418
0.00136877
0.00132067
0.00133747
0.00128845
0.00130456
0.00125622
0.00127236
0.00122399
0.00124011
0.0011918
0.0012079
0.00115968
0.00117575
0.00112776
0.00114369
0.00109458
0.00111136
0.00104397
0.00104418
0.00106018
0.00107733
0.00107758
0.00106116
0.00104422
0.00104424
0.001112
0.00109432
0.0011445
0.00112783
0.00117643
0.00116045
0.00120861
0.00119252
0.00124089
0.00122476
0.00127328
0.00125709
0.0013057
0.00128952
0.00133808
0.00132193
0.00137077
0.00135429
0.00140258
0.00138657
0.00143486
0.00141952
0.00146722
0.00145112
0.0014991
0.00148321
0.00153068
0.00151495
0.00156195
0.00154638
0.00159284
0.00157746
0.0016233
0.00160806
0.0016529
0.00163855
0.00165723
0.00167088
0.0016683
0.00167177
0.00104353
0.00104378
0.00167281
0.00167171
0.00168585
0.00168379
0.00167277
0.00105999
0.00104237
0.00102711
0.00102661
0.00167054
0.0016881
0.00171253
0.00169309
0.00163849
0.00165493
0.00160567
0.00162176
0.00157339
0.00159006
0.00154226
0.00155734
0.00151126
0.00152689
0.00147972
0.00149555
0.00144786
0.00146384
0.0014158
0.00143187
0.00138377
0.00139992
0.00135169
0.00136758
0.00131924
0.00133557
0.0012869
0.00130305
0.00125465
0.00127078
0.00122244
0.00123855
0.0011903
0.00120637
0.00115825
0.00117427
0.00112644
0.00114231
0.00109359
0.00111004
0.00107662
0.00102739
0.00102673
0.00102704
0.00102747
0.00107687
0.00104293
0.0010604
0.00111103
0.00109385
0.00114295
0.00112664
0.0011749
0.00115891
0.00120705
0.00119097
0.0012393
0.00122318
0.00127163
0.00125547
0.00130404
0.00128784
0.00133645
0.00132025
0.00136881
0.00135267
0.00140109
0.00138494
0.00143325
0.00141731
0.00146539
0.00144937
0.00149726
0.00148138
0.00152883
0.0015131
0.00156004
0.00154451
0.00159072
0.00157549
0.00162073
0.00160575
0.00165034
0.00163556
0.00168038
0.00166469
0.00169759
0.00169474
0.00168761
0.00168636
0.00102572
0.00102614
0.00170005
0.00169998
0.0017051
0.0017088
0.00171091
0.00163893
0.00171408
0.00168784
0.001696
0.00169354
0.00167013
0.00168799
0.00163434
0.00165211
0.00160234
0.00161778
0.00157073
0.00158717
0.00153983
0.00155519
0.00150869
0.00152434
0.00147718
0.00149299
0.00144539
0.00146133
0.00141346
0.00142946
0.00138142
0.00139747
0.00134925
0.00136533
0.00131702
0.00133319
0.00128475
0.00130088
0.00125254
0.00126865
0.00122039
0.00123647
0.0011883
0.00120434
0.00115631
0.0011723
0.00112455
0.0011404
0.00109217
0.00110831
0.00105909
0.0010755
0.00102478
0.00104163
0.0010102
0.00100785
0.00100914
0.00101102
0.00101054
0.00101093
0.00101112
0.00100969
0.00101042
0.00104193
0.00100805
0.00102601
0.00107555
0.00105915
0.0011092
0.0010928
0.00114091
0.00112497
0.0011729
0.0011569
0.00120501
0.00118895
0.00123722
0.00122111
0.0012695
0.00125337
0.00130185
0.00128568
0.00133422
0.00131805
0.00136654
0.00135042
0.00139881
0.00138269
0.00143097
0.00141494
0.00146301
0.00144702
0.00149483
0.00147897
0.00152634
0.00151064
0.00155747
0.00154198
0.00158806
0.00157287
0.00161786
0.00160307
0.00164691
0.00163252
0.0016761
0.00166123
0.00170494
0.00168961
0.0017222
0.00171837
0.00170103
0.00170107
0.00171809
0.00171138
0.00102364
0.00100734
0.000992985
0.000992039
0.00171064
0.00172444
0.00175033
0.00166527
0.00173323
0.00173062
0.00170921
0.00170142
0.00168417
0.00168085
0.00166526
0.00167966
0.00162957
0.00164728
0.00159889
0.00161415
0.00156778
0.00158352
0.0015367
0.00155222
0.00150552
0.00152116
0.00147406
0.00148984
0.00144236
0.00145825
0.00141049
0.00142646
0.0013785
0.00139453
0.00134642
0.00136247
0.00131426
0.00133037
0.00128207
0.00129817
0.00124994
0.00126601
0.00121785
0.0012339
0.00118583
0.00120184
0.0011539
0.00116987
0.00112208
0.00113799
0.00109041
0.00110621
0.00105712
0.0010738
0.00104017
0.000993785
0.000991591
0.000993262
0.000995203
0.000994669
0.000994645
0.000995182
0.000993911
0.00104051
0.00100622
0.00102541
0.0010742
0.00105754
0.0011067
0.00109093
0.00113849
0.00112257
0.00117044
0.00115447
0.0012025
0.00118647
0.00123465
0.00121858
0.00126689
0.00125078
0.00129917
0.00128304
0.00133148
0.00131534
0.00136375
0.00134765
0.00139597
0.00137989
0.00142809
0.00141208
0.00146006
0.00144412
0.00149181
0.00147599
0.00152325
0.00150759
0.00155429
0.00153885
0.00158479
0.00156964
0.00161455
0.00159979
0.00164342
0.00162914
0.00167174
0.00165781
0.00169903
0.00168393
0.0017266
0.00171435
0.00174191
0.00173744
0.00171558
0.00171311
0.000989551
0.000990188
0.00171977
0.00168344
0.00170504
0.00172471
0.00173485
0.00176001
0.00174085
0.00174785
0.00174463
0.00175309
0.00175093
0.00171376
0.00168219
0.00174941
0.0017192
0.00167502
0.0016752
0.00165717
0.00167202
0.0016252
0.00164094
0.0015947
0.00160998
0.00156386
0.00157935
0.00153288
0.00154838
0.00150175
0.00151736
0.00147037
0.00148611
0.00143876
0.00145461
0.00140698
0.0014229
0.00137507
0.00139106
0.00134307
0.00135909
0.001311
0.00132706
0.00127891
0.00129497
0.00124686
0.0012629
0.00121485
0.00123086
0.00118291
0.00119889
0.00115105
0.00116698
0.00111928
0.00113517
0.00108762
0.00110344
0.00105551
0.00107184
0.00102154
0.00103863
0.00098817
0.00100502
0.000975423
0.000971405
0.00097358
0.000978387
0.000976859
0.000979717
0.000979357
0.00097932
0.000979669
0.000977185
0.000978449
0.00097409
0.00097572
0.00100524
0.000972318
0.000988495
0.00103888
0.00102278
0.00107228
0.00105588
0.00110387
0.00108809
0.00113566
0.00111977
0.00116755
0.00115162
0.00119955
0.00118356
0.00123163
0.0012156
0.0012638
0.00124773
0.00129601
0.00127992
0.00132825
0.00131215
0.00136046
0.00134438
0.00139261
0.00137656
0.00142466
0.00140868
0.00145655
0.00144065
0.00148822
0.00147244
0.00151957
0.00150396
0.0015505
0.00153512
0.0015809
0.0015658
0.0016106
0.00159587
0.00163944
0.00162516
0.00166733
0.00165362
0.00169431
0.00168062
0.00171989
0.00170794
0.00174497
0.00173047
0.0017637
0.00175899
0.00172316
0.00174121
0.00172301
0.000985823
0.000969829
0.000957707
0.000955577
0.00172466
0.00173611
0.00173269
0.00174587
0.00175501
0.00176671
0.00177462
0.00177075
0.00172413
0.00173707
0.00174936
0.00174337
0.00174179
0.00168845
0.00171404
0.00166856
0.00167442
0.00164963
0.00166343
0.00161973
0.0016346
0.00158972
0.00160481
0.00155922
0.00157454
0.00152843
0.00154386
0.00149741
0.00151297
0.00146614
0.00148182
0.00143463
0.00145043
0.00140295
0.00141883
0.00137114
0.00138708
0.00133924
0.00135521
0.00130727
0.00132328
0.00127529
0.0012913
0.00124333
0.00125932
0.00121141
0.00122738
0.00117956
0.00119549
0.00114779
0.00116368
0.00111609
0.00113194
0.00108448
0.00110029
0.0010532
0.0010688
0.00101964
0.00103667
0.00100242
0.000959966
0.000954911
0.000958041
0.000963176
0.000961703
0.000964169
0.000963863
0.000963734
0.000964131
0.000961406
0.000962779
0.000959661
0.00100377
0.000970136
0.000986687
0.00103694
0.00102068
0.00106914
0.00105343
0.00110072
0.00108491
0.00113244
0.00111659
0.00116426
0.00114836
0.00119617
0.00118023
0.00122818
0.00121219
0.00126026
0.00124424
0.00129239
0.00127635
0.00132454
0.00130849
0.00135667
0.00134064
0.00138874
0.00137274
0.00142071
0.00140477
0.00145251
0.00143666
0.00148407
0.00146835
0.00151532
0.00149977
0.00154614
0.00153082
0.00157642
0.00156139
0.00160602
0.00159134
0.00163479
0.00162054
0.00166259
0.00164887
0.00168934
0.00167609
0.00171421
0.00170221
0.0017395
0.0017256
0.00176381
0.00175076
0.00176519
0.00175436
0.00178148
0.00177605
0.0017305
0.000952771
0.000953615
0.00174743
0.00173587
0.00175822
0.00173818
0.00174765
0.00175785
0.00175833
0.00176861
0.00177709
0.001785
0.00179242
0.00178791
0.00173423
0.00173395
0.00176724
0.00176755
0.00174203
0.00172581
0.00173603
0.00168876
0.00170507
0.00166354
0.00167386
0.00164221
0.00165517
0.00161361
0.00162803
0.00158413
0.00159899
0.00155397
0.00156913
0.0015234
0.00153874
0.00149253
0.00150802
0.00146137
0.001477
0.00142999
0.00144573
0.00139843
0.00141425
0.00136673
0.00138261
0.00133494
0.00135086
0.00130309
0.00131904
0.00127122
0.00128717
0.00123937
0.00125531
0.00120756
0.00122347
0.00117581
0.00119169
0.00114413
0.00115997
0.00111253
0.00112833
0.001081
0.00109677
0.00104965
0.0010653
0.00101763
0.00103404
0.000983575
0.00100035
0.000950709
0.000967838
0.000939475
0.000934252
0.000937074
0.000944536
0.000941786
0.000947591
0.000946494
0.000948611
0.000948266
0.000948204
0.000948589
0.000946139
0.000947445
0.000942804
0.000944278
0.000938024
0.000940749
0.000967852
0.000935305
0.000951578
0.0010021
0.000984102
0.00103412
0.00101866
0.00106564
0.00104991
0.00109722
0.00108144
0.00112885
0.00111305
0.00116058
0.00114473
0.0011924
0.0011765
0.00122432
0.00120837
0.0012563
0.00124033
0.00128834
0.00127234
0.00132039
0.00130439
0.00135242
0.00133643
0.00138439
0.00136844
0.00141625
0.00140037
0.00144795
0.00143215
0.0014794
0.00146374
0.00151053
0.00149504
0.00154123
0.00152597
0.00157138
0.00155641
0.00160086
0.00158624
0.00162952
0.00161533
0.00165722
0.00164354
0.00168383
0.00167068
0.00170879
0.00169661
0.00173292
0.0017209
0.00175602
0.00174366
0.00178017
0.0017691
0.00176797
0.00176856
0.0017941
0.0017856
0.00174307
0.00174773
0.00177393
0.00177959
0.00176863
0.00175486
0.00175962
0.00094864
0.000931504
0.000921557
0.000919278
0.00176952
0.0017702
0.00177966
0.0017869
0.00179455
0.00179911
0.00177851
0.00177791
0.00178207
0.00180275
0.00180108
0.00179385
0.00174637
0.0017648
0.00176366
0.00172731
0.00174059
0.00171499
0.00172597
0.00168371
0.00169781
0.00165898
0.00167078
0.00163488
0.00164768
0.00160707
0.0016212
0.00157801
0.00159268
0.00154817
0.00156319
0.00151782
0.00153306
0.00148712
0.00150253
0.00145611
0.00147167
0.00142487
0.00144054
0.00139343
0.00140919
0.00136186
0.00137768
0.0013302
0.00134606
0.00129847
0.00131436
0.00126673
0.00128262
0.001235
0.00125088
0.0012033
0.00121916
0.00117166
0.00118749
0.0011401
0.00115589
0.0011086
0.00112436
0.00107718
0.0010929
0.00104583
0.00106151
0.00101472
0.00103027
0.000981159
0.000998205
0.000965052
0.00092481
0.000918927
0.000922269
0.000929379
0.000927026
0.000931973
0.000930912
0.000933068
0.0009327
0.000932678
0.000933057
0.000930913
0.000931964
0.000927087
0.00092927
0.000924528
0.000965579
0.000932654
0.000949029
0.000999592
0.00098235
0.00103054
0.00101507
0.00106193
0.00104624
0.00109339
0.00107767
0.00112492
0.00110917
0.00115654
0.00114074
0.00118826
0.00117242
0.00122007
0.00120418
0.00125194
0.00123602
0.00128386
0.00126793
0.0013158
0.00129986
0.00134773
0.0013318
0.00137958
0.00136369
0.00141133
0.0013955
0.0014429
0.00142717
0.00147423
0.00145863
0.00150522
0.0014898
0.00153579
0.0015206
0.00156581
0.00155091
0.00159515
0.0015806
0.00162369
0.00160956
0.00165126
0.00163764
0.00167775
0.00166468
0.00170283
0.00169053
0.00172666
0.00171495
0.0017494
0.00173807
0.00176995
0.00176054
0.00179372
0.00177721
0.00178331
0.00180516
0.001814
0.00181274
0.00180806
0.00179329
0.00177422
0.00177579
0.00175698
0.00175985
0.000915939
0.000916702
0.00179088
0.00176866
0.00177136
0.00177811
0.00178148
0.00179006
0.00179756
0.0018015
0.00180445
0.00178966
0.0017824
0.00178646
0.00179889
0.00180967
0.00181742
0.00179518
0.00180109
0.00180386
0.00181482
0.00182027
0.00175904
0.00177486
0.00177207
0.00175158
0.00175693
0.00172339
0.00173756
0.00170474
0.00171529
0.00167794
0.00169136
0.00165283
0.00166518
0.00162763
0.00164057
0.00160015
0.00161412
0.00157142
0.00158593
0.00154186
0.00155674
0.00151174
0.00152688
0.00148122
0.00149654
0.00145038
0.00146585
0.00141928
0.00143488
0.00138799
0.00140368
0.00135656
0.00137232
0.00132504
0.00134083
0.00129345
0.00130927
0.00126184
0.00127767
0.00123024
0.00124606
0.00119868
0.00121447
0.00116716
0.00118293
0.00113572
0.00115145
0.00110434
0.00112004
0.00107304
0.0010887
0.00104179
0.00105743
0.00101066
0.00102621
0.00097868
0.000995106
0.000946306
0.000962099
0.000913128
0.000928878
0.00090313
0.000897676
0.000900189
0.000909549
0.000906169
0.000913922
0.000912172
0.000916422
0.00091533
0.00091753
0.000917162
0.000917145
0.000917524
0.000915322
0.000916408
0.000911286
0.000913678
0.000906247
0.000908727
0.000900944
0.000903702
0.0009297
0.000897357
0.000914895
0.000963704
0.000946116
0.000995646
0.000980119
0.00102667
0.00101113
0.00105792
0.00104231
0.00108925
0.0010736
0.00112066
0.00110497
0.00115217
0.00113643
0.00118377
0.00116798
0.00121545
0.00119963
0.0012472
0.00123135
0.001279
0.00126313
0.00131082
0.00129494
0.00134261
0.00132675
0.00137434
0.00135852
0.00140596
0.0013902
0.00143739
0.00142173
0.00146858
0.00145305
0.00149943
0.00148409
0.00152985
0.00151473
0.00155972
0.00154489
0.00158892
0.00157445
0.00161732
0.00160327
0.00164478
0.00163121
0.00167114
0.00165814
0.0016962
0.00168388
0.00171999
0.00170829
0.00174243
0.00173142
0.00176241
0.00175293
0.00178142
0.00177199
0.00178397
0.00178801
0.00179619
0.00182127
0.0018156
0.0017702
0.00177173
0.00178828
0.00177943
0.00178264
0.000910098
0.000895073
0.000885347
0.000881858
0.00179017
0.00179217
0.00180024
0.0018064
0.00181111
0.00181627
0.0017966
0.00179003
0.00180679
0.00180752
0.00181192
0.00180321
0.00180957
0.00182422
0.00182196
0.00181898
0.00182659
0.00177132
0.00177874
0.00176782
0.00176179
0.00177136
0.00173942
0.00175032
0.00171771
0.00172904
0.00169629
0.00170739
0.00167107
0.00168391
0.00164582
0.0016584
0.00162017
0.00163322
0.00159286
0.00160671
0.00156439
0.00157877
0.00153508
0.00154984
0.00150519
0.00152022
0.00147486
0.0014901
0.00144419
0.00145959
0.00141326
0.00142878
0.00138213
0.00139774
0.00135086
0.00136653
0.00131948
0.0013352
0.00128804
0.00130379
0.00125658
0.00127233
0.00122512
0.00124087
0.0011937
0.00120942
0.00116232
0.00117802
0.00113101
0.00114668
0.00109977
0.0011154
0.00106859
0.00108419
0.00103748
0.00105305
0.00100641
0.00102196
0.000975521
0.000990977
0.000943259
0.000959089
0.000926044
0.000887848
0.000881885
0.000885402
0.000894478
0.000891196
0.000898372
0.00089666
0.000900899
0.000899805
0.000901997
0.000901631
0.000901636
0.000901999
0.000899876
0.000900917
0.000896851
0.000898566
0.00089117
0.000894249
0.000887949
0.000926851
0.000894277
0.000912236
0.000960952
0.000943639
0.000991569
0.000976245
0.00102255
0.00100706
0.00105365
0.00103811
0.00108483
0.00106925
0.00111611
0.00110048
0.00114748
0.00113181
0.00117895
0.00116323
0.0012105
0.00119474
0.00124212
0.00122633
0.00127378
0.00125797
0.00130546
0.00128965
0.00133711
0.00132132
0.0013687
0.00135295
0.00140017
0.00138448
0.00143145
0.00141587
0.00146249
0.00144704
0.00149318
0.00147792
0.00152344
0.00150841
0.00155316
0.00153841
0.00158221
0.00156781
0.00161047
0.00159648
0.00163778
0.00162429
0.00166402
0.00165108
0.00168901
0.00167671
0.00171267
0.00170105
0.00173489
0.00172401
0.00175497
0.00174529
0.00177273
0.00176436
0.00178746
0.0017797
0.00180741
0.00179893
0.0018236
0.00181758
0.00180521
0.00179741
0.0017962
0.00178145
0.00178306
0.000878426
0.000878931
0.00180682
0.00179036
0.00179342
0.00180112
0.00180233
0.00180964
0.00181536
0.00181986
0.00182241
0.00181099
0.00180049
0.00180031
0.00180843
0.00180826
0.00182235
0.00181053
0.00182272
0.00181285
0.00181985
0.00180963
0.0018297
0.00183113
0.00182966
0.00182669
0.00178269
0.00178818
0.00179885
0.00176749
0.00176357
0.00174979
0.00176273
0.00173121
0.00174075
0.00171005
0.00172092
0.00168794
0.00169926
0.00166341
0.00167589
0.00163824
0.00165088
0.00161237
0.00162548
0.0015852
0.00159896
0.00155695
0.00157121
0.00152788
0.00154252
0.00149821
0.00151313
0.00146808
0.00148321
0.0014376
0.0014529
0.00140684
0.00142227
0.00137588
0.00139141
0.00134477
0.00136036
0.00131355
0.00132919
0.00128227
0.00129794
0.00125097
0.00126664
0.00121966
0.00123533
0.00118839
0.00120404
0.00115716
0.00117279
0.001126
0.00114159
0.0010949
0.00111046
0.00106387
0.0010794
0.00103291
0.0010484
0.00100198
0.00101746
0.000971123
0.000986558
0.000940565
0.000955674
0.00090681
0.000923304
0.000875741
0.000891488
0.000866231
0.000858682
0.000862788
0.000873585
0.000869644
0.000879199
0.000876935
0.000882893
0.000881168
0.000885386
0.000884313
0.000886469
0.000886105
0.000886132
0.000886478
0.000884419
0.00088544
0.000881532
0.000883117
0.000877288
0.000879645
0.000869822
0.000873704
0.000863342
0.000866589
0.000891524
0.000860236
0.000876514
0.000923897
0.00090862
0.000956988
0.000940819
0.000987358
0.00097208
0.00101818
0.00100278
0.00104911
0.00103366
0.00108015
0.00106464
0.00111128
0.00109573
0.00114251
0.00112691
0.00117383
0.00115819
0.00120523
0.00118955
0.0012367
0.00122099
0.00126822
0.00125249
0.00129974
0.00128401
0.00133124
0.00131553
0.00136268
0.001347
0.00139399
0.00137838
0.00142511
0.00140961
0.00145598
0.00144062
0.00148651
0.00147133
0.00151661
0.00150165
0.00154616
0.00153149
0.00157505
0.00156073
0.00160315
0.00158924
0.00163032
0.0016169
0.00165643
0.00164356
0.00168131
0.00166907
0.00170485
0.00169329
0.00172687
0.0017161
0.00174693
0.00173721
0.00176478
0.00175623
0.00178052
0.00177267
0.00179499
0.00178899
0.00179549
0.00180819
0.00181078
0.00182669
0.00182142
0.00179233
0.00179391
0.00181398
0.00180086
0.00180366
0.000872459
0.000855711
0.00084824
0.000845362
0.00181152
0.00181187
0.00181853
0.00182373
0.00182738
0.00182943
0.00180024
0.00179317
0.00179339
0.00180352
0.00181239
0.00182173
0.0018285
0.00181889
0.00182284
0.00183594
0.00183512
0.00183073
0.00182938
0.00181279
0.00181749
0.0017936
0.00179309
0.00178763
0.00177455
0.00178913
0.00175633
0.00176323
0.00174132
0.0017503
0.00172261
0.00173219
0.0017016
0.00171236
0.00167932
0.00169069
0.00165522
0.00166747
0.00163015
0.00164279
0.00160423
0.00161735
0.00157717
0.00159086
0.00154912
0.00156328
0.00152028
0.00153481
0.00149082
0.00150564
0.0014609
0.00147593
0.00143061
0.00144582
0.00140004
0.00141538
0.00136926
0.00138469
0.00133832
0.00135383
0.00130728
0.00132283
0.00127617
0.00129175
0.00124503
0.00126062
0.00121389
0.00122948
0.00118278
0.00119835
0.00115171
0.00116726
0.00112071
0.00113622
0.00108977
0.00110525
0.00105889
0.00107434
0.00102809
0.0010435
0.000997343
0.00101273
0.000966658
0.000982007
0.000936487
0.000951449
0.000903789
0.000920394
0.000887275
0.000851936
0.000843516
0.000848418
0.000859275
0.000855605
0.000863787
0.000861682
0.000867447
0.000865749
0.000869877
0.00086883
0.000870944
0.000870584
0.000870621
0.000870957
0.000868934
0.000869945
0.000865969
0.000867604
0.000861836
0.000864076
0.000855072
0.000858826
0.000851473
0.000889008
0.000856896
0.000874051
0.000921059
0.000904869
0.000952443
0.000937225
0.000982908
0.000967646
0.00101357
0.000998251
0.00104434
0.00102897
0.00107522
0.00105979
0.00110619
0.00109072
0.00113727
0.00112174
0.00116843
0.00115286
0.00119968
0.00118407
0.00123099
0.00121535
0.00126234
0.00124669
0.0012937
0.00127805
0.00132504
0.00130941
0.0013563
0.00134071
0.00138744
0.00137192
0.00141839
0.00140298
0.00144909
0.00143381
0.00147944
0.00146435
0.00150936
0.0014945
0.00153874
0.00152416
0.00156747
0.00155323
0.00159541
0.00158158
0.00162244
0.00160908
0.00164841
0.0016356
0.00167317
0.00166099
0.00169659
0.00168509
0.00171845
0.00170776
0.00173846
0.00172874
0.00175635
0.00174773
0.00177228
0.00176447
0.0017855
0.00177965
0.00179576
0.00179038
0.00180985
0.00179826
0.00181676
0.0018091
0.0018028
0.00181732
0.00181949
0.00180274
0.00180422
0.000840142
0.000841523
0.00181893
0.00181093
0.00181331
0.0018209
0.00182086
0.0018269
0.00183134
0.00183428
0.00183566
0.00179746
0.00178843
0.00178345
0.00180128
0.00179576
0.00180614
0.00179663
0.00180873
0.00181267
0.00182426
0.00182777
0.00183286
0.0018285
0.00184045
0.0018377
0.0018324
0.00182747
0.00181944
0.00181383
0.00180398
0.00179384
0.00179463
0.00178174
0.00177144
0.00176225
0.0017784
0.00174802
0.0017546
0.00173231
0.00174081
0.00171348
0.00172315
0.00169269
0.00170333
0.00167042
0.00168177
0.00164657
0.00165869
0.00162163
0.00163424
0.00159574
0.00160883
0.00156881
0.00158242
0.00154095
0.00155501
0.00151231
0.00152674
0.00148307
0.00149778
0.00145335
0.00146829
0.00142326
0.00143837
0.00139289
0.00140813
0.00136229
0.00137763
0.00133154
0.00134695
0.00130068
0.00131614
0.00126974
0.00128524
0.00123878
0.00125429
0.00120782
0.00122332
0.00117688
0.00119237
0.00114599
0.00116145
0.00111515
0.00113058
0.00108438
0.00109978
0.00105368
0.00106904
0.00102304
0.00103837
0.00099248
0.00100777
0.000961989
0.000977243
0.00093171
0.000946806
0.000900693
0.000916596
0.000869171
0.000883962
0.00083714
0.000852945
0.00082918
0.000821426
0.000825786
0.00083729
0.000832758
0.000843853
0.000841131
0.00084837
0.000846184
0.000851993
0.00085033
0.000854371
0.000853344
0.000855422
0.000855067
0.00085511
0.000855436
0.000853455
0.000854447
0.000850511
0.000852141
0.000846427
0.00084859
0.000841376
0.000844133
0.000833823
0.000837658
0.000826563
0.000830008
0.000854046
0.000823402
0.000838565
0.000886146
0.000869783
0.00091758
0.000901602
0.000947843
0.000932736
0.000978249
0.000963053
0.00100875
0.000993512
0.00103936
0.00102407
0.00107006
0.00105472
0.00110087
0.00108548
0.00113177
0.00111634
0.00116277
0.00114729
0.00119385
0.00117833
0.00122499
0.00120944
0.00125617
0.0012406
0.00128735
0.00127179
0.00131851
0.00130297
0.0013496
0.0013341
0.00138056
0.00136513
0.00141133
0.00139601
0.00144184
0.00142666
0.00147202
0.00145701
0.00150175
0.00148698
0.00153095
0.00151646
0.00155951
0.00154535
0.00158729
0.00157354
0.00161416
0.00160088
0.00164
0.00162726
0.00166464
0.00165251
0.00168793
0.0016765
0.00170968
0.00169905
0.00172962
0.00171993
0.00174752
0.00173888
0.00176339
0.0017557
0.00177665
0.00177053
0.00178673
0.0017821
0.00179486
0.00179104
0.00179321
0.00182547
0.00182729
0.00181012
0.00180453
0.00181264
0.00181396
0.00182716
0.00182026
0.00182237
0.000833933
0.000817719
0.00081139
0.000807644
0.00182941
0.00182925
0.00183455
0.00183828
0.00184045
0.0018412
0.00178909
0.00178357
0.00177212
0.00177753
0.00180384
0.00180628
0.00181979
0.00181703
0.00183005
0.00183373
0.00183546
0.00184371
0.00183959
0.0018342
0.00182411
0.00182062
0.00181223
0.00179671
0.00180254
0.0018138
0.0017835
0.0017673
0.00178318
0.00178894
0.00176818
0.00176575
0.00175334
0.00176471
0.00173909
0.00174595
0.00172285
0.00173142
0.00170407
0.00171372
0.00168343
0.00169399
0.00166123
0.00167254
0.00163756
0.00164958
0.00161274
0.0016253
0.00158693
0.00159998
0.00156013
0.00157367
0.00153245
0.00154641
0.00150401
0.00151834
0.00147498
0.00148959
0.00144547
0.0014603
0.00141558
0.00143059
0.00138541
0.00140055
0.00135501
0.00137025
0.00132444
0.00133976
0.00129377
0.00130914
0.00126303
0.00127843
0.00123225
0.00124766
0.00120148
0.00121688
0.00117072
0.00118612
0.00114001
0.00115538
0.00110935
0.00112469
0.00107876
0.00109407
0.00104824
0.00106351
0.00101779
0.00103302
0.000987409
0.00100261
0.000957111
0.000972267
0.000926914
0.000942009
0.000896891
0.000911918
0.000865316
0.00088068
0.000849624
0.00081519
0.000806365
0.000811463
0.000822622
0.00081871
0.000828342
0.000825707
0.000832972
0.000830769
0.000836532
0.0008349
0.000838867
0.000837858
0.000839902
0.000839551
0.000839601
0.000839919
0.000837982
0.000838953
0.000835106
0.000836698
0.000831067
0.000833219
0.000826063
0.000828726
0.000818849
0.000822727
0.000814959
0.000850973
0.000820459
0.000835354
0.000882893
0.000866587
0.00091293
0.000897791
0.000943149
0.000928053
0.000973407
0.000958295
0.00100374
0.000988586
0.00103417
0.00101897
0.0010647
0.00104945
0.00109533
0.00108003
0.00112605
0.00111071
0.00115687
0.00114148
0.00118777
0.00117234
0.00121873
0.00120327
0.00124972
0.00123425
0.00128073
0.00126526
0.0013117
0.00129625
0.0013426
0.00132719
0.00137337
0.00135803
0.00140395
0.00138872
0.00143427
0.00141918
0.00146426
0.00144935
0.00149381
0.00147912
0.00152283
0.00150842
0.00155121
0.00153714
0.00157882
0.00156515
0.00160555
0.00159234
0.00163125
0.00161857
0.00165577
0.0016437
0.00167895
0.00166757
0.0017006
0.00169001
0.00172049
0.00171082
0.0017384
0.00172975
0.00175422
0.0017466
0.00176751
0.00176129
0.00177792
0.00177308
0.00178516
0.00178217
0.00178859
0.00178694
0.00179521
0.0017862
0.00178893
0.00178428
0.00178887
0.0018328
0.00183356
0.00182187
0.00182309
0.000802781
0.000804124
0.00183468
0.0018288
0.0018308
0.00183721
0.00183695
0.00184149
0.00184444
0.00184585
0.00184563
0.00176326
0.00176731
0.00176644
0.0017819
0.00178617
0.00179369
0.00181321
0.00181353
0.00182561
0.00182731
0.0018341
0.0018376
0.00184588
0.00184078
0.00183375
0.00182695
0.00181753
0.00180604
0.00179426
0.00177765
0.00178869
0.00177803
0.00182298
0.00178181
0.0017579
0.00177108
0.00176775
0.00176982
0.00177362
0.00175618
0.00176184
0.00174461
0.00175182
0.00172975
0.00173721
0.00171319
0.00172181
0.00169445
0.00170408
0.00167389
0.00168441
0.00165177
0.00166304
0.00162823
0.00164018
0.00160354
0.00161604
0.00157782
0.00159082
0.00155116
0.00156463
0.00152365
0.00153753
0.00149541
0.00150963
0.00146658
0.00148109
0.00143728
0.00145201
0.0014076
0.0014225
0.00137762
0.00139266
0.00134742
0.00136257
0.00131706
0.00133228
0.00128659
0.00130186
0.00125604
0.00127134
0.00122546
0.00124077
0.00119488
0.00121019
0.00116431
0.00117961
0.00113379
0.00114906
0.00110332
0.00111857
0.00107292
0.00108813
0.00104259
0.00105776
0.00101233
0.00102747
0.000982148
0.000997247
0.000952047
0.000967104
0.000922034
0.000937045
0.000892253
0.000907109
0.000861339
0.000876655
0.000830728
0.000846129
0.00079976
0.00081461
0.000792068
0.000783989
0.000788541