/*--------------------------------*- C++ -*----------------------------------*\
  =========                 |
  \\      /  F ield         | OpenFOAM: The Open Source CFD Toolbox
   \\    /   O peration     | Website:  https://openfoam.org
    \\  /    A nd           | Version:  10
     \\/     M anipulation  |
\*---------------------------------------------------------------------------*/
FoamFile
{
    format      ascii;
    class       volVectorField;
    location    "30";
    object      U;
}
// * * * * * * * * * * * * * * * * * * * * * * * * * * * * * * * * * * * * * //

dimensions      [0 1 -1 0 0 0 0];

internalField   nonuniform List<vector> 
25879
(
(1.07749 -0.00558429 2.24656e-21)
(1.07452 -0.0031533 -3.81398e-21)
(1.07369 -0.0058826 6.67532e-21)
(1.07615 -0.0074009 -6.38904e-21)
(1.22244 -0.617385 5.70892e-22)
(1.20164 -0.598286 -4.41154e-21)
(1.34654 0.048251 0)
(1.33127 0.0611282 -1.46531e-20)
(1.30252 0.0562892 0)
(1.30369 0.0396321 0)
(1.45727 0.0822863 -6.19596e-21)
(1.4123 0.0672943 1.84991e-20)
(1.50955 0.0994455 -1.38776e-19)
(-0.066874 -0.0132942 1.80852e-20)
(-0.0319602 -0.0530417 -2.76419e-20)
(1.07926 0.546256 -1.3252e-20)
(1.14654 0.700575 3.88138e-21)
(1.21362 -0.632465 2.73441e-20)
(1.34786 -0.592667 -1.30108e-20)
(0.466488 -0.0555794 6.67016e-20)
(0.451488 -0.20545 3.08883e-19)
(0.403283 0.821236 -3.95339e-20)
(0.697775 0.710849 5.54386e-20)
(1.03704 0.0417108 5.75236e-21)
(1.04247 0.0464827 7.18889e-21)
(1.03645 0.0456615 3.44519e-22)
(1.03005 0.0383999 -5.95849e-23)
(1.03422 0.034752 -7.50288e-21)
(1.03026 0.0347676 -1.03306e-20)
(1.03972 0.0391549 -4.18183e-21)
(1.04551 0.0440819 4.85605e-20)
(0.0254025 0.0632707 3.91105e-20)
(0.00565066 0.0519815 -1.61704e-20)
(-0.0441705 0.0681927 2.52659e-20)
(0.928185 0.314291 -1.96095e-21)
(1.06822 0.298775 -1.45599e-22)
(1.0861 0.312728 1.36088e-22)
(1.18103 0.152214 -1.6827e-21)
(1.20237 0.165679 -2.24473e-20)
(1.73379 0.220897 -9.71529e-20)
(1.61774 0.181541 -1.25816e-20)
(1.52041 0.19485 -1.55586e-20)
(0.973908 -0.210548 -1.82555e-20)
(0.968034 -0.188873 0)
(0.968098 -0.170715 -1.30702e-21)
(1.37855 -0.271031 0)
(1.39067 -0.25948 1.88333e-20)
(0.317539 0.0244474 1.34618e-19)
(0.731624 0.0223939 7.15989e-21)
(0.864411 0.052095 0)
(1.14067 -0.406624 5.14511e-21)
(1.14709 -0.363649 -1.44141e-20)
(0.918381 0.293609 -1.81338e-19)
(1.17276 0.468118 0)
(0.610094 0.00770478 -2.64364e-22)
(0.599048 0.00616407 0)
(0.637313 0.00826332 4.6874e-22)
(0.870749 0.275903 -8.27636e-20)
(0.861647 0.252152 8.15695e-20)
(0.906653 0.224093 -1.548e-19)
(0.915574 0.262566 1.42967e-19)
(0.935068 0.390999 1.2896e-21)
(0.942893 0.316771 -5.29837e-21)
(0.745972 -0.00926939 -2.14438e-22)
(0.806272 -0.0102237 9.03559e-22)
(0.766567 -0.00807678 -6.57971e-22)
(-0.0828595 -0.0202741 1.52645e-21)
(-0.06097 -0.0384359 0)
(-0.00660573 0.0360722 0)
(-0.0467674 0.333533 9.08095e-20)
(0.0590667 0.177238 -2.59303e-19)
(1.00642 0.0290758 1.72066e-20)
(1.01029 0.0408298 0)
(1.01354 0.0447123 -9.24641e-21)
(1.06504 -0.109842 3.89675e-20)
(1.01921 -0.123819 0)
(1.00433 -0.0844053 1.53933e-20)
(1.06714 -0.00629384 0)
(1.06552 -0.0103423 4.84875e-21)
(1.06884 -0.00894959 4.66129e-21)
(0.951406 -0.198225 0)
(0.957598 -0.228054 4.5784e-20)
(0.333341 0.313102 6.17213e-20)
(0.518465 0.251622 3.174e-19)
(0.450932 0.452316 0)
(0.998623 -0.0142899 1.31526e-20)
(1.0002 -0.0189874 -1.23263e-20)
(1.00488 -0.0220872 0)
(1.1178 0.0168142 -4.22488e-23)
(1.10998 0.0136371 1.04764e-24)
(0.436758 -0.0652109 -2.16451e-19)
(0.707947 -0.164858 2.71036e-19)
(0.275225 0.0651494 5.48828e-20)
(1.04214 0.0383933 1.9718e-20)
(1.03771 0.033986 -5.8307e-22)
(1.29391 -0.577968 3.03746e-20)
(1.27364 -0.600198 -1.24286e-20)
(1.24375 -0.588472 4.61827e-21)
(1.00732 0.321329 -2.31021e-21)
(0.984916 0.313962 -6.75404e-23)
(0.980184 0.338847 2.57739e-22)
(0.952431 0.33711 8.66595e-22)
(1.12093 0.0248337 -1.4269e-22)
(1.12686 0.0262069 -9.37876e-23)
(1.12616 0.0192992 1.70512e-23)
(1.07194 -0.0804244 6.39911e-21)
(1.05412 -0.0654304 -1.88442e-21)
(1.13782 -0.470111 -3.28312e-20)
(1.04327 -0.602631 2.54406e-20)
(1.11367 0.318033 9.09052e-23)
(1.13741 0.325614 -9.13973e-23)
(1.1046 -0.0425382 -1.02402e-21)
(1.10385 -0.0370888 0)
(1.08473 -0.0150046 3.24016e-21)
(1.08024 -0.0170163 -4.1707e-21)
(1.08131 0.173555 -1.45652e-21)
(1.09517 0.183608 1.61364e-21)
(1.42938 0.0409651 2.35221e-20)
(1.30373 0.253226 -1.19736e-20)
(1.26654 0.222916 1.846e-20)
(1.25596 0.192491 -3.20526e-20)
(1.42334 -0.222505 -2.47388e-21)
(1.42059 -0.210496 0)
(1.5226 0.280275 -4.9657e-20)
(1.50088 0.256532 1.11587e-19)
(0.870058 -0.169081 -1.22538e-19)
(1.12399 -0.183563 0)
(-0.240636 -0.0312622 -1.74455e-20)
(-0.208645 -0.0928134 0)
(-0.154805 -0.0304638 0)
(-0.127899 0.108213 -8.68942e-20)
(-0.0730965 0.0757954 1.67224e-19)
(0.906298 -0.0320994 0)
(0.918166 -0.0499465 1.00545e-19)
(0.933011 -0.0317497 3.11346e-20)
(0.924944 -0.0199036 -2.57264e-20)
(1.0719 -0.00684659 -1.0434e-20)
(1.07038 -0.00467644 6.40326e-21)
(1.32657 0.0339829 -1.72803e-20)
(0.61487 -0.00765681 -1.08452e-22)
(1.03569 0.536693 -2.44935e-20)
(1.02899 0.535524 0)
(1.03319 0.534269 -3.00313e-21)
(1.03365 0.534491 0)
(1.03449 0.53626 0)
(1.03339 0.540508 7.93861e-21)
(1.03215 0.547181 2.02074e-22)
(1.02988 0.555243 -1.75697e-20)
(1.02663 0.564025 8.80981e-21)
(1.02225 0.5727 -9.80541e-21)
(1.01649 0.580198 -6.47769e-22)
(1.0091 0.584777 1.04605e-20)
(1.00008 0.584573 0)
(0.989216 0.576781 -1.32651e-20)
(0.976889 0.559079 1.31184e-20)
(0.963204 0.528406 0)
(0.949015 0.483274 1.67867e-20)
(0.934774 0.422034 -1.69753e-20)
(0.921582 0.345583 1.90163e-20)
(0.909856 0.255013 -3.92826e-20)
(0.900369 0.153709 4.0179e-20)
(0.893119 0.0451097 -4.13351e-20)
(0.888577 -0.0663764 2.05191e-20)
(0.886535 -0.175493 0)
(0.88732 -0.277835 0)
(0.890955 -0.368136 1.79762e-20)
(0.897702 -0.444189 -1.27067e-21)
(0.906594 -0.502946 -1.66914e-20)
(0.917378 -0.545422 -1.38874e-20)
(0.929166 -0.571277 1.40408e-20)
(0.941876 -0.584047 -1.16419e-20)
(0.954363 -0.586693 1.21202e-20)
(0.966523 -0.584872 -6.49072e-22)
(0.977309 -0.581884 0)
(0.987688 -0.582272 0)
(0.996015 -0.585683 -2.06249e-21)
(1.0034 -0.594018 -1.27406e-20)
(0.98177 -0.569579 0)
(0.993278 -0.573985 3.7344e-21)
(1.0002 -0.595093 -2.34605e-21)
(1.02169 0.53403 2.78274e-21)
(1.01654 0.534825 -1.36058e-21)
(1.02718 0.537614 0)
(1.00455 -0.602601 0)
(0.986949 -0.591434 0)
(0.994375 -0.591423 4.45326e-21)
(0.969897 -0.598006 1.18104e-20)
(0.97895 -0.594847 6.36795e-22)
(0.950935 -0.586509 -1.31555e-21)
(0.960602 -0.597128 -2.46891e-20)
(0.933948 -0.523197 0)
(0.942128 -0.563189 1.42138e-20)
(0.922762 -0.391324 -3.95066e-20)
(0.927535 -0.466436 1.84807e-20)
(0.920375 -0.197348 2.21076e-20)
(0.920622 -0.300956 1.97075e-20)
(0.926444 0.0278967 2.22756e-20)
(0.922554 -0.0864442 -2.13701e-20)
(0.940445 0.246068 0)
(0.932588 0.140204 -2.15333e-20)
(0.961822 0.422165 0)
(0.950537 0.341281 0)
(0.986248 0.534965 1.56241e-20)
(0.974176 0.487114 0)
(1.00787 0.585749 1.30591e-20)
(0.997829 0.567354 -1.5105e-20)
(1.02316 0.593057 -1.10665e-20)
(1.01649 0.593501 -1.26253e-20)
(1.03168 0.578889 -9.70482e-21)
(1.02827 0.587521 1.06989e-20)
(1.03481 0.559196 -8.88402e-21)
(1.03385 0.569033 9.37902e-21)
(1.03395 0.542483 -8.51947e-21)
(1.0348 0.54994 8.47914e-21)
(1.0296 0.534076 0)
(1.03216 0.536885 8.36656e-21)
(1.02613 0.533348 -2.57833e-22)
(1.03833 0.533671 0)
(1.04421 0.535105 1.36934e-20)
(1.03978 0.533881 0)
(1.03157 0.542105 8.00228e-21)
(1.03458 0.536837 -8.19352e-21)
(1.02204 0.556066 2.62324e-22)
(1.02699 0.548711 5.24229e-25)
(1.00787 0.570012 1.89934e-20)
(1.01556 0.563437 -8.94804e-21)
(0.987636 0.573268 0)
(0.998521 0.573613 -9.4617e-21)
(0.960782 0.549528 0)
(0.97487 0.565726 0)
(0.929311 0.47975 1.54029e-20)
(0.94522 0.521278 0)
(0.898183 0.351693 1.74531e-20)
(0.913139 0.423261 -1.49301e-20)
(0.873319 0.16968 1.8761e-20)
(0.88444 0.266865 -1.69179e-20)
(0.858517 -0.0434681 0)
(0.864301 0.0658251 -1.81865e-20)
(0.857359 -0.251676 -1.77081e-20)
(0.855594 -0.149506 0)
(0.871038 -0.418645 4.86302e-22)
(0.862262 -0.341021 1.76701e-20)
(0.894713 -0.52345 1.39977e-20)
(0.881543 -0.478476 -1.35371e-20)
(0.924249 -0.566014 -2.31148e-20)
(0.908632 -0.551102 1.1353e-20)
(0.954726 -0.570212 3.01145e-22)
(0.939417 -0.570288 1.07441e-20)
(0.968806 -0.568689 0)
(1.03666 0.539728 -2.95728e-21)
(1.02415 0.538717 -1.10545e-23)
(1.01097 0.534783 -7.141e-22)
(1.00732 -0.612741 4.50608e-21)
(1.0096 -0.607424 -7.45311e-21)
(1.00481 -0.61519 -3.40651e-21)
(1.00877 -0.623999 0)
(1.00318 -0.625029 4.61593e-21)
(1.00348 -0.581106 -9.24889e-23)
(0.976436 -0.554149 4.12534e-21)
(0.990063 -0.559628 -1.18069e-20)
(1.05332 0.53243 6.98165e-21)
(1.04713 0.538466 8.14871e-21)
(1.05826 0.535157 -2.60357e-21)
(1.04912 0.540365 -5.85332e-21)
(1.03647 0.541047 2.23303e-21)
(1.0033 -0.599395 -4.61953e-21)
(1.0049 -0.606401 2.29398e-21)
(0.996558 -0.596702 -6.26452e-22)
(1.00044 -0.596132 2.55643e-21)
(0.985986 -0.604484 0)
(0.991629 -0.600677 0)
(0.973903 -0.594736 3.81146e-21)
(0.979865 -0.60433 -1.22313e-23)
(0.963666 -0.533614 -4.62265e-21)
(0.968262 -0.572388 -3.6595e-21)
(0.958436 -0.402894 0)
(0.960129 -0.477271 4.43874e-21)
(0.959317 -0.20949 0)
(0.958092 -0.312421 0)
(0.964389 0.0167559 0)
(0.961198 -0.0981139 0)
(0.975807 0.239049 5.84392e-21)
(0.96908 0.130946 -5.61215e-21)
(0.993479 0.420972 5.29637e-21)
(0.983935 0.337157 -5.08624e-21)
(1.01329 0.538238 4.53405e-21)
(1.0034 0.488363 -4.35407e-21)
(1.02974 0.590556 0)
(1.02214 0.571617 0)
(1.03967 0.597072 0)
(1.03553 0.59801 0)
(1.04303 0.581124 2.65689e-21)
(1.04207 0.590639 -2.5513e-21)
(1.0413 0.559613 0)
(1.04269 0.570368 0)
(1.03581 0.541242 1.06881e-21)
(1.039 0.549705 0)
(1.02729 0.530614 0)
(1.03192 0.534762 0)
(1.01575 0.527772 -2.49137e-21)
(1.0219 0.528332 2.32643e-21)
(1.00024 0.527527 0)
(1.00845 0.528226 1.3134e-21)
(1.04337 0.529835 1.97678e-21)
(1.04755 0.530797 -2.06449e-21)
(1.03252 0.535703 -3.94794e-21)
(1.03774 0.531835 3.96164e-21)
(1.01855 0.546918 -2.69392e-22)
(1.02573 0.540822 -1.18374e-25)
(1.00027 0.557613 4.41913e-21)
(1.01007 0.552801 -4.20631e-21)
(0.975993 0.557957 4.93367e-21)
(0.989 0.559902 -4.69612e-21)
(0.945242 0.533057 5.69738e-21)
(0.961419 0.549795 -5.42313e-21)
(0.910101 0.465649 6.666e-21)
(0.928015 0.505684 -6.34523e-21)
(0.875565 0.344319 7.69546e-21)
(0.892415 0.411986 -7.32528e-21)
(0.84785 0.172293 8.53871e-21)
(0.860543 0.263751 -8.12806e-21)
(0.832212 -0.0297565 8.92513e-21)
(0.838297 0.073067 -8.4959e-21)
(0.832327 -0.228936 8.692e-21)
(0.830283 -0.132235 -8.27389e-21)
(0.8475 -0.391386 3.19702e-21)
(0.838389 -0.316663 -5.06109e-22)
(0.873572 -0.496913 3.5582e-21)
(0.85949 -0.452231 -3.95853e-21)
(0.907358 -0.542712 -1.62545e-22)
(0.889863 -0.526718 -2.60565e-21)
(0.943713 -0.551057 -3.01022e-22)
(0.925731 -0.54952 0)
(0.960804 -0.551756 0)
(1.01368 -0.599966 2.54353e-21)
(1.06294 0.537027 1.47927e-21)
(1.01463 -0.62005 -2.39039e-21)
(0.991151 0.523561 -1.50922e-21)
(0.990024 0.518823 1.08745e-21)
(0.978874 0.513937 -1.62682e-22)
(1.00931 -0.636012 0)
(1.00018 -0.635599 -3.97701e-23)
(1.00363 -0.567341 -1.97456e-21)
(1.01777 -0.578639 -2.18916e-21)
(1.01553 -0.589695 9.57173e-21)
(1.02035 0.535973 -2.98038e-22)
(1.00454 0.531158 -1.9365e-22)
(1.05159 0.538118 1.48744e-21)
(1.03574 0.538646 1.46988e-22)
(1.00189 -0.61372 5.84914e-22)
(0.991407 -0.631528 -2.26459e-21)
(0.997458 -0.622597 1.05653e-21)
(1.00629 -0.59989 1.37067e-22)
(1.00481 -0.605862 0)
(1.00591 -0.598381 6.44372e-22)
(1.00653 -0.597277 -2.97247e-22)
(1.00216 -0.606551 0)
(1.00427 -0.602623 0)
(0.997842 -0.596369 0)
(0.999878 -0.606183 0)
(0.995423 -0.534425 0)
(0.996215 -0.57359 0)
(0.996623 -0.402945 0)
(0.995524 -0.477601 0)
(1.0004 -0.209578 0)
(0.998322 -0.312515 0)
(1.00576 0.0175096 0)
(1.00273 -0.0980013 0)
(1.01567 0.242346 0)
(1.01008 0.132674 0)
(1.02987 0.426884 0)
(1.02244 0.341948 0)
(1.04441 0.544417 0)
(1.03745 0.494788 0)
(1.05455 0.594679 0)
(1.05026 0.577007 0)
(1.05808 0.598297 0)
(1.05716 0.600706 0)
(1.05554 0.579812 0)
(1.05747 0.590502 0)
(1.04858 0.556482 0)
(1.05252 0.568026 0)
(1.03847 0.53669 -1.07666e-21)
(1.04392 0.54581 0)
(1.02569 0.52416 0)
(1.03243 0.5293 5.25815e-22)
(1.00979 0.520253 0)
(1.01821 0.521162 1.65793e-23)
(1.00041 0.520075 3.10315e-22)
(1.06249 0.528004 -2.34154e-21)
(1.07705 0.532213 6.40064e-22)
(1.06952 0.530813 -1.88658e-21)
(1.04885 0.524471 3.27904e-22)
(1.05527 0.525652 -2.60804e-22)
(1.03391 0.528462 0)
(1.04132 0.525692 -4.85797e-25)
(1.01609 0.537358 0)
(1.02523 0.532574 1.20378e-25)
(0.993897 0.544891 0)
(1.00558 0.541702 0)
(0.965794 0.541671 0)
(0.980655 0.54533 0)
(0.931437 0.51397 0)
(0.949346 0.531848 0)
(0.893083 0.446185 0)
(0.912507 0.485939 0)
(0.855899 0.328084 0)
(0.873942 0.39361 0)
(0.82644 0.162636 0)
(0.839797 0.250443 0)
(0.81046 -0.0309314 0)
(0.816459 0.0675784 0)
(0.8113 -0.221319 0)
(0.808709 -0.128682 0)
(0.827895 -0.377366 0)
(0.817797 -0.305305 0)
(0.857089 -0.478196 0)
(0.841044 -0.435508 0)
(0.895321 -0.521258 1.65208e-22)
(0.875379 -0.506118 0)
(0.935861 -0.530431 -1.04328e-21)
(0.91572 -0.527945 0)
(0.972507 -0.536714 -2.46843e-22)
(0.9549 -0.532651 1.00842e-21)
(1.00463 -0.553442 5.72007e-21)
(0.98856 -0.543968 2.27836e-22)
(0.995307 -0.645065 6.11081e-22)
(0.983028 -0.63899 1.7824e-21)
(1.0682 0.535238 0)
(1.02016 -0.613466 -1.71689e-21)
(0.981966 0.513727 6.90105e-22)
(0.967137 0.502989 -1.39599e-21)
(1.0185 -0.63333 0)
(1.00808 -0.647908 -2.63742e-21)
(1.02067 -0.56453 -3.93304e-21)
(1.03178 -0.592403 -2.17453e-21)
(1.09098 0.525114 1.82646e-21)
(0.988327 -0.65294 0)
(0.972656 -0.643971 -4.44973e-22)
(1.08503 0.530287 5.58042e-21)
(1.10092 0.523399 -5.63244e-21)
(1.03669 -0.578085 4.07679e-21)
(1.0263 -0.604424 0)
(1.01561 0.527265 4.02345e-22)
(0.997468 0.521832 9.49794e-22)
(1.05344 0.530036 0)
(1.03436 0.530142 -4.87171e-23)
(1.09378 0.522255 0)
(1.07354 0.527168 0)
(0.983127 -0.623767 0)
(0.958037 -0.631637 1.68043e-21)
(0.971967 -0.629182 -1.04363e-21)
(0.999239 -0.608629 1.53825e-21)
(0.991941 -0.616453 -2.09629e-21)
(1.00962 -0.59692 -6.63715e-22)
(1.00511 -0.601691 5.22341e-22)
(1.01545 -0.597517 0)
(1.01295 -0.595454 0)
(1.01893 -0.606366 0)
(1.01729 -0.60226 0)
(1.02271 -0.595856 0)
(1.02064 -0.605889 0)
(1.02822 -0.533014 0)
(1.02517 -0.572683 0)
(1.03547 -0.400538 0)
(1.03171 -0.475635 0)
(1.04258 -0.206523 0)
(1.03914 -0.309806 0)
(1.04958 0.0220939 0)
(1.04598 -0.0943822 0)
(1.05838 0.249237 0)
(1.05371 0.138483 0)
(1.06869 0.434485 0)
(1.06353 0.349509 0)
(1.0772 0.550104 0)
(1.07345 0.501738 0)
(1.08034 0.596786 0)
(1.0796 0.580999 0)
(1.07698 0.596856 0)
(1.07944 0.600953 0)
(1.06831 0.575767 0)
(1.07319 0.587636 0)
(1.05612 0.550737 0)
(1.06257 0.563071 0)
(1.04153 0.529686 0)
(1.04909 0.53947 0)
(1.02465 0.515723 0)
(1.03344 0.52166 0)
(1.00465 0.510113 0)
(1.01512 0.511969 -1.62839e-23)
(0.981274 0.507104 -6.47812e-22)
(0.993408 0.509048 -2.67372e-22)
(0.954532 0.490388 2.66077e-21)
(0.968296 0.501802 0)
(1.07198 0.520751 5.27304e-22)
(1.081 0.523628 -6.00487e-22)
(1.05447 0.516831 0)
(1.06319 0.518033 -5.17348e-22)
(1.03584 0.519614 0)
(1.04526 0.517484 0)
(1.01452 0.526596 0)
(1.02548 0.522906 0)
(0.988908 0.531367 0)
(1.00229 0.529686 0)
(0.957543 0.524811 0)
(0.973993 0.530177 0)
(0.920238 0.494225 0)
(0.939569 0.51342 0)
(0.879378 0.425546 0)
(0.9 0.465435 0)
(0.840197 0.309792 0)
(0.859178 0.373738 0)
(0.809412 0.150152 0)
(0.823337 0.234695 0)
(0.793062 -0.0349831 0)
(0.799136 0.0591171 0)
(0.79435 -0.216307 0)
(0.791427 -0.12809 0)
(0.812587 -0.364537 0)
(0.801489 -0.29616 0)
(0.844974 -0.459324 0)
(0.827176 -0.419376 0)
(0.88692 -0.499385 0)
(0.865169 -0.485258 0)
(0.930579 -0.509255 0)
(0.909024 -0.506029 0)
(0.970004 -0.518389 -8.66751e-22)
(0.950877 -0.512763 0)
(1.00522 -0.537078 -4.27106e-22)
(0.987837 -0.526505 1.05467e-21)
(1.04056 -0.561534 0)
(1.02309 -0.548283 -1.86773e-21)
(0.959361 -0.64435 -3.92054e-21)
(0.94106 -0.628112 3.00285e-21)
(1.05289 -0.593065 -6.21633e-21)
(1.05908 -0.576049 -7.56921e-21)
(1.02769 -0.627834 -6.62026e-22)
(1.04518 -0.608059 2.16299e-21)
(1.11279 0.515357 -5.94256e-21)
(1.02096 -0.647398 0)
(0.940531 0.47173 7.38487e-22)
(0.943919 0.476395 -1.26685e-21)
(0.928452 0.457606 6.22929e-22)
(1.00488 -0.658575 2.5216e-21)
(0.978734 -0.656894 -2.74823e-21)
(1.06972 -0.610066 6.67507e-24)
(0.942606 -0.637325 2.31948e-21)
(0.92096 -0.617069 2.11151e-22)
(1.0789 -0.591957 6.15509e-21)
(1.03662 -0.619718 6.0154e-22)
(0.971711 0.495403 -1.56045e-21)
(0.955095 0.484422 1.46969e-21)
(1.01066 0.5098 -4.16962e-22)
(0.989779 0.503968 0)
(1.05476 0.513799 -1.71178e-21)
(1.03245 0.513447 0)
(1.10114 0.506402 -8.66908e-22)
(1.07778 0.511415 2.60089e-21)
(0.944865 -0.615864 -1.49412e-21)
(0.901524 -0.594523 2.11359e-21)
(0.924953 -0.608997 4.57676e-22)
(0.975491 -0.612519 0)
(0.961437 -0.615946 1.11147e-21)
(0.997248 -0.600541 0)
(0.987187 -0.606999 0)
(1.01351 -0.591093 0)
(1.00604 -0.594732 0)
(1.02553 -0.593665 0)
(1.01989 -0.59073 0)
(1.03607 -0.602937 0)
(1.03077 -0.598817 0)
(1.04769 -0.591803 0)
(1.04165 -0.602206 0)
(1.06084 -0.528113 0)
(1.05409 -0.568184 0)
(1.07423 -0.395541 0)
(1.06766 -0.470516 0)
(1.08554 -0.202389 0)
(1.08025 -0.3052 0)
(1.09439 0.0258264 0)
(1.09022 -0.0905966 0)
(1.102 0.253106 0)
(1.09832 0.142303 0)
(1.10825 0.437773 0)
(1.10544 0.353257 0)
(1.11059 0.551224 0)
(1.11012 0.504141 0)
(1.10659 0.594736 0)
(1.10945 0.580573 0)
(1.09626 0.591944 0)
(1.10212 0.597368 0)
(1.08151 0.568918 0)
(1.0893 0.581636 0)
(1.0642 0.542686 0)
(1.07309 0.555547 0)
(1.04528 0.520668 0)
(1.05493 0.530938 0)
(1.02456 0.50543 0)
(1.03521 0.512074 0)
(1.00085 0.497935 -3.74204e-24)
(1.01322 0.500776 3.74593e-24)
(0.973675 0.493416 -2.63452e-23)
(0.987625 0.495899 2.08833e-23)
(0.95901 0.487558 -2.78472e-22)
(1.10487 0.515042 -1.19115e-21)
(1.13033 0.506181 7.13827e-21)
(1.11657 0.513669 -2.54809e-21)
(1.08191 0.510624 -1.22068e-22)
(1.0925 0.513614 -1.39401e-22)
(1.06037 0.506748 0)
(1.07088 0.50811 0)
(1.03829 0.508735 0)
(1.04942 0.507094 0)
(1.01382 0.514065 0)
(1.02639 0.511335 0)
(0.985263 0.516357 0)
(1.00011 0.516041 0)
(0.951229 0.506811 0)
(0.968968 0.513705 0)
(0.911654 0.473707 0)
(0.932058 0.494029 0)
(0.868972 0.404434 0)
(0.890449 0.444307 0)
(0.828374 0.291223 0)
(0.848015 0.353482 0)
(0.796633 0.137576 0)
(0.810967 0.218736 0)
(0.779967 -0.0389532 0)
(0.786114 0.0506373 0)
(0.781665 -0.211056 0)
(0.778443 -0.127364 0)
(0.80135 -0.351037 0)
(0.789349 -0.286611 0)
(0.836555 -0.439317 0)
(0.81721 -0.40231 0)
(0.881783 -0.476438 0)
(0.858416 -0.463206 0)
(0.927947 -0.487502 0)
(0.905285 -0.483275 0)
(0.968881 -0.498995 0)
(0.949132 -0.492304 0)
(1.00599 -0.518304 0)
(0.987648 -0.507828 0)
(1.04317 -0.543174 8.32054e-22)
(1.02432 -0.530056 0)
(1.08464 -0.572772 0)
(1.06308 -0.557539 3.54959e-21)
(0.897744 -0.59561 -1.04738e-21)
(0.875612 -0.568445 1.31113e-21)
(1.09883 -0.609446 0)
(1.10708 -0.589304 0)
(1.1235 0.499817 0)
(1.03392 -0.643527 -5.64592e-22)
(1.05868 -0.625 0)
(0.926654 0.443708 3.25287e-22)
(0.913116 0.429396 1.19361e-21)
(1.02167 -0.660487 6.61278e-22)
(1.08647 -0.628257 1.26694e-21)
(0.999115 -0.665997 6.32579e-22)
(0.96544 -0.653813 -1.19161e-21)
(0.922285 -0.619918 0)
(1.14724 0.493993 -1.38855e-21)
(1.11833 -0.628424 -5.38797e-21)
(0.87084 -0.560223 -4.14773e-21)
(0.846525 -0.529488 -3.09537e-21)
(1.12996 -0.606372 -1.17217e-21)
(1.14362 0.49093 0)
(1.16139 0.480275 4.50355e-21)
(1.04673 -0.63621 -9.02287e-22)
(0.961546 0.467431 0)
(0.942643 0.456177 9.70117e-23)
(1.00473 0.482545 2.17296e-22)
(0.981948 0.476465 -2.2736e-22)
(1.05547 0.487811 1.15805e-22)
(1.02976 0.48636 0)
(1.10818 0.481516 0)
(1.08163 0.485957 -1.17828e-22)
(1.15778 0.465987 6.76942e-21)
(1.13408 0.474722 -3.47884e-21)
(0.885248 -0.569782 -1.03709e-21)
(0.826208 -0.498323 -1.06608e-21)
(0.856745 -0.53978 8.29683e-23)
(0.933111 -0.596756 -4.01211e-23)
(0.910719 -0.587317 0)
(0.969009 -0.598261 0)
(0.952342 -0.599603 -6.05759e-22)
(0.996358 -0.589502 3.96726e-22)
(0.983541 -0.594379 -4.85634e-22)
(1.01794 -0.582561 0)
(1.00774 -0.585055 0)
(1.03586 -0.586573 0)
(1.0272 -0.5831 0)
(1.05303 -0.595644 0)
(1.04432 -0.591814 0)
(1.07196 -0.583543 0)
(1.06222 -0.594426 0)
(1.09246 -0.519463 0)
(1.08211 -0.559584 0)
(1.11213 -0.387998 0)
(1.10261 -0.462214 0)
(1.12786 -0.196899 0)
(1.12063 -0.298662 0)
(1.13865 0.0297008 0)
(1.13386 -0.0860129 0)
(1.14535 0.255986 0)
(1.14249 0.145654 0)
(1.14783 0.439047 0)
(1.14724 0.355506 0)
(1.14408 0.549401 0)
(1.14689 0.504025 0)
(1.13284 0.589307 0)
(1.13937 0.576905 0)
(1.11552 0.583784 0)
(1.12478 0.590413 0)
(1.09476 0.559248 0)
(1.10541 0.57259 0)
(1.07252 0.53225 0)
(1.08375 0.545442 0)
(1.04948 0.509619 0)
(1.0611 0.520214 0)
(1.0252 0.493312 0)
(1.03759 0.500585 0)
(0.998306 0.484115 4.44635e-22)
(1.01226 0.487813 -4.38601e-22)
(0.967658 0.477683 -2.22745e-22)
(0.983419 0.481122 2.70957e-22)
(0.935056 0.460253 0)
(0.951549 0.471503 -1.20841e-22)
(0.90212 0.414353 -2.70944e-21)
(0.91841 0.441603 -5.36088e-22)
(1.11791 0.502654 -5.26832e-22)
(1.13155 0.501144 1.24907e-21)
(1.09134 0.498563 1.2242e-22)
(1.10392 0.501281 6.46974e-22)
(1.06633 0.49482 0)
(1.07856 0.49614 0)
(1.04117 0.49615 0)
(1.0538 0.494922 0)
(1.01392 0.499918 0)
(1.02787 0.498088 0)
(0.982843 0.499843 0)
(0.998932 0.500822 0)
(0.946645 0.487502 0)
(0.965419 0.495816 0)
(0.905361 0.452147 0)
(0.926557 0.473451 0)
(0.861425 0.382566 0)
(0.883473 0.422269 0)
(0.819949 0.272186 0)
(0.839984 0.332596 0)
(0.78769 0.124866 0)
(0.802233 0.202456 0)
(0.770892 -0.0427374 0)
(0.777061 0.0421772 0)
(0.772901 -0.205233 0)
(0.769442 -0.126319 0)
(0.79382 -0.336325 0)
(0.781053 -0.276199 0)
(0.831349 -0.417647 0)
(0.810741 -0.383743 0)
(0.879095 -0.452034 0)
(0.854521 -0.439519 0)
(0.927181 -0.464852 0)
(0.90363 -0.459338 0)
(0.969916 -0.479168 0)
(0.949227 -0.471188 0)
(1.00907 -0.499473 0)
(0.989692 -0.488752 0)
(1.04799 -0.523872 0)
(1.02841 -0.511111 0)
(1.08971 -0.553192 1.76836e-21)
(1.06815 -0.537918 -7.91701e-22)
(1.13648 -0.585765 -8.81873e-21)
(1.11251 -0.569008 2.25277e-21)
(1.15269 -0.623097 0)
(1.16173 -0.601069 4.94341e-21)
(0.815091 -0.475776 1.43158e-21)
(0.793456 -0.442214 2.37676e-22)
(1.03888 -0.658583 6.7291e-22)
(1.07197 -0.643027 -1.21182e-21)
(1.17791 0.456328 3.21905e-21)
(1.01982 -0.670863 -7.26171e-22)
(1.10236 -0.647173 7.03811e-22)
(0.886299 0.377603 1.25588e-21)
(0.893534 0.398026 2.67405e-22)
(0.87742 0.362698 -5.50194e-22)
(0.989738 -0.666713 7.27804e-22)
(1.13801 -0.645352 5.39415e-21)
(0.948528 -0.640512 1.56206e-21)
(1.17679 -0.637213 0)
(0.897761 -0.588347 1.59123e-21)
(0.840788 -0.508913 0)
(0.782079 -0.405432 3.26518e-21)
(0.759649 -0.370332 -2.66437e-21)
(1.05585 -0.652791 3.07458e-22)
(0.912821 0.40561 3.85681e-22)
(0.898142 0.3921 0)
(0.950626 0.428814 -9.25504e-22)
(0.930281 0.417982 0)
(0.999262 0.444512 0)
(0.973673 0.43754 1.13791e-21)
(1.05527 0.45092 0)
(1.02677 0.449027 0)
(1.11377 0.446264 8.07666e-24)
(1.08419 0.45021 0)
(1.16974 0.431468 0)
(1.1428 0.440199 0)
(0.809162 -0.465802 9.04586e-22)
(0.74192 -0.336326 0)
(0.775786 -0.408115 1.56628e-22)
(0.87116 -0.541917 0)
(0.840989 -0.509643 3.44758e-22)
(0.923118 -0.574886 0)
(0.898732 -0.562799 0)
(0.963752 -0.581275 -3.2368e-22)
(0.944626 -0.580292 0)
(0.996096 -0.576007 0)
(0.980727 -0.579339 4.0638e-22)
(1.02274 -0.571412 0)
(1.01001 -0.572884 0)
(1.04609 -0.576377 0)
(1.03463 -0.572639 0)
(1.0694 -0.584755 0)
(1.05753 -0.581438 0)
(1.09511 -0.571504 0)
(1.08192 -0.582903 0)
(1.12252 -0.507384 0)
(1.10876 -0.54731 0)
(1.14823 -0.377714 0)
(1.13586 -0.450809 0)
(1.16837 -0.189602 0)
(1.15918 -0.289799 0)
(1.18131 0.0340261 0)
(1.17576 -0.0802626 0)
(1.18747 0.257729 0)
(1.18524 0.148684 0)
(1.18648 0.437608 0)
(1.188 0.355794 0)
(1.17673 0.54388 0)
(1.18279 0.500597 0)
(1.15836 0.580065 0)
(1.16849 0.56938 0)
(1.13424 0.572289 0)
(1.14679 0.579838 0)
(1.10775 0.546871 0)
(1.12112 0.560524 0)
(1.0809 0.519626 0)
(1.09432 0.532907 0)
(1.05408 0.496737 0)
(1.0675 0.507499 0)
(1.02662 0.479592 0)
(1.04052 0.487401 0)
(0.996857 0.468706 0)
(1.01216 0.473391 0)
(0.96365 0.46067 -5.67473e-23)
(0.980756 0.464871 0)
(0.928191 0.442651 -4.6945e-22)
(0.945886 0.453881 5.79569e-22)
(0.910634 0.424581 -2.65885e-22)
(1.16288 0.479201 0)
(1.19583 0.443907 -7.29328e-21)
(1.17861 0.466074 2.67013e-21)
(1.13032 0.487999 0)
(1.14542 0.486411 0)
(1.10036 0.484671 0)
(1.11467 0.487 0)
(1.07226 0.481411 0)
(1.08597 0.482611 0)
(1.04439 0.482241 0)
(1.05833 0.481372 0)
(1.01475 0.484542 0)
(1.02987 0.483554 0)
(0.981566 0.482215 0)
(0.998676 0.484416 0)
(0.943648 0.46726 0)
(0.963231 0.476893 0)
(0.901117 0.429875 0)
(0.922875 0.452046 0)
(0.856402 0.360193 0)
(0.878784 0.39962 0)
(0.814524 0.252833 0)
(0.834716 0.311293 0)
(0.782142 0.112017 0)
(0.796716 0.185944 0)
(0.765398 -0.0465138 0)
(0.771514 0.0336477 0)
(0.767732 -0.199133 0)
(0.764058 -0.125165 0)
(0.789765 -0.320805 0)
(0.776308 -0.26526 0)
(0.829206 -0.394888 0)
(0.807597 -0.364159 0)
(0.878577 -0.426721 0)
(0.853297 -0.414799 0)
(0.92751 -0.441353 0)
(0.903593 -0.434582 0)
(0.971288 -0.458092 0)
(0.949983 -0.449053 0)
(1.01229 -0.479125 0)
(0.991903 -0.468247 0)
(1.05352 -0.503175 0)
(1.03276 -0.490696 0)
(1.09668 -0.531481 0)
(1.07475 -0.51676 0)
(1.14447 -0.563819 9.50217e-22)
(1.11967 -0.547175 0)
(1.1715 -0.580024 4.67252e-21)
(0.726935 -0.28573 1.42984e-21)
(0.709703 -0.252322 1.23404e-21)
(1.1927 0.422586 -3.37337e-21)
(1.04123 -0.671741 2.67852e-23)
(1.08374 -0.660012 0)
(0.871498 0.331922 1.11188e-21)
(0.862168 0.317992 -1.50028e-22)
(1.01517 -0.675241 -3.87103e-23)
(1.11734 -0.662465 -7.07477e-22)
(0.976776 -0.657629 0)
(1.1567 -0.657126 0)
(0.927446 -0.613381 0)
(1.20568 -0.636833 0)
(0.870315 -0.540735 -3.87359e-21)
(0.809151 -0.440972 0)
(0.748884 -0.319446 -5.02809e-21)
(1.24995 -0.621352 3.08816e-21)
(1.2118 0.429748 2.9759e-21)
(0.696155 -0.187826 -3.17535e-21)
(0.68019 -0.157227 0)
(1.21261 0.41143 -4.62099e-21)
(1.22945 0.399382 1.40496e-21)
(1.06283 -0.668148 0)
(0.899539 0.358132 0)
(0.883822 0.345307 -1.85854e-21)
(0.940507 0.380508 0)
(0.918458 0.369766 0)
(0.993391 0.39586 0)
(0.965521 0.389019 0)
(1.05468 0.403076 0)
(1.02328 0.400733 0)
(1.11802 0.400409 -7.9524e-24)
(1.08616 0.403314 0)
(1.17972 0.387111 2.4282e-21)
(1.14975 0.395241 -2.35985e-22)
(1.22837 0.36877 3.59687e-21)
(1.20597 0.379042 -5.61243e-21)
(0.728856 -0.3037 -1.7873e-22)
(0.6698 -0.129607 8.10089e-22)
(0.697441 -0.221061 -8.09001e-22)
(0.795849 -0.432611 -3.2824e-22)
(0.762425 -0.374362 5.01622e-22)
(0.85983 -0.512332 2.53614e-22)
(0.828445 -0.478031 -3.3132e-22)
(0.914826 -0.550349 0)
(0.888578 -0.535662 -2.5086e-22)
(0.959831 -0.561688 0)
(0.938521 -0.558491 0)
(0.996659 -0.560055 0)
(0.979085 -0.561742 0)
(1.02781 -0.55773 0)
(1.01281 -0.558254 0)
(1.05603 -0.563325 0)
(1.04206 -0.559502 0)
(1.08493 -0.570694 0)
(1.07017 -0.568032 0)
(1.1168 -0.556129 0)
(1.10047 -0.568104 0)
(1.15046 -0.492076 0)
(1.13361 -0.531711 0)
(1.1818 -0.364694 0)
(1.16675 -0.436368 0)
(1.20622 -0.180526 0)
(1.19511 -0.278622 0)
(1.22143 0.038855 0)
(1.21503 -0.0733488 0)
(1.22741 0.258564 0)
(1.22562 0.151525 0)
(1.22331 0.43385 0)
(1.22677 0.354447 0)
(1.2078 0.535072 0)
(1.21699 0.494277 0)
(1.18257 0.567345 0)
(1.19616 0.558376 0)
(1.152 0.557707 0)
(1.16765 0.565935 0)
(1.1202 0.531979 0)
(1.13608 0.545658 0)
(1.08913 0.504977 0)
(1.10453 0.518122 0)
(1.05891 0.48218 0)
(1.07395 0.492947 0)
(1.02864 0.46448 0)
(1.04388 0.47268 0)
(0.996551 0.452101 0)
(1.01295 0.457644 0)
(0.961163 0.442343 0)
(0.979273 0.447385 0)
(0.92337 0.423706 -4.51116e-22)
(0.942403 0.435301 3.98445e-22)
(0.887346 0.380751 -1.56096e-22)
(0.905028 0.40626 5.09963e-23)
(0.855637 0.30426 -1.59901e-23)
(0.870754 0.346525 -1.04913e-21)
(1.17642 0.46283 0)
(1.19422 0.449906 -1.55286e-21)
(1.14148 0.471468 0)
(1.15846 0.469386 0)
(1.10868 0.46929 0)
(1.12451 0.470994 0)
(1.07801 0.466698 0)
(1.09301 0.467669 0)
(1.04786 0.467197 0)
(1.06292 0.466619 0)
(1.01621 0.468174 0)
(1.03231 0.467956 0)
(0.98131 0.463756 0)
(0.999243 0.467084 0)
(0.942059 0.446401 0)
(0.962256 0.457236 0)
(0.898678 0.407224 0)
(0.920798 0.430143 0)
(0.853592 0.337651 0)
(0.876101 0.376703 0)
(0.811724 0.233458 0)
(0.831871 0.289901 0)
(0.779548 0.0992067 0)
(0.794007 0.16945 0)
(0.763023 -0.0502472 0)
(0.769025 0.0251521 0)
(0.76579 -0.192711 0)
(0.76184 -0.123874 0)
(0.788981 -0.304505 0)
(0.774834 -0.253762 0)
(0.830042 -0.371306 0)
(0.807638 -0.343688 0)
(0.880297 -0.401096 0)
(0.854725 -0.38948 0)
(0.929225 -0.417796 0)
(0.905358 -0.409729 0)
(0.973311 -0.436557 0)
(0.951748 -0.426714 0)
(1.01548 -0.457867 0)
(0.994411 -0.447033 0)
(1.05858 -0.481095 0)
(1.0368 -0.469144 0)
(1.1043 -0.507538 0)
(1.08101 -0.493893 0)
(1.15538 -0.536932 0)
(1.12875 -0.52184 0)
(1.21463 -0.569897 0)
(1.18448 -0.553195 -7.98449e-22)
(0.655936 -0.0555984 0)
(0.647573 -0.0328163 -8.26174e-22)
(1.2902 -0.601602 -1.70505e-20)
(1.31695 -0.578631 -1.49151e-20)
(1.04146 -0.679407 -7.80312e-22)
(1.0936 -0.673171 0)
(1.24699 0.358738 3.0578e-21)
(1.00682 -0.67045 8.23257e-22)
(1.13036 -0.671203 0)
(0.841999 0.253483 7.00537e-23)
(0.85165 0.289889 1.15284e-22)
(0.838382 0.241597 -1.15618e-22)
(0.959917 -0.634975 0)
(1.17491 -0.658229 8.8078e-22)
(0.903009 -0.569489 2.36139e-21)
(1.21825 -0.640816 -8.44264e-21)
(0.840153 -0.474815 1.88915e-21)
(1.25974 -0.614599 5.58784e-21)
(0.776457 -0.355484 1.75924e-21)
(0.717608 -0.220049 3.15959e-21)
(0.669777 -0.0814774 1.62355e-22)
(0.633087 0.0636943 1.96751e-21)
(0.638448 0.0479344 -6.54596e-22)
(1.30854 -0.562887 0)
(1.34069 -0.546862 1.01132e-21)
(1.06788 -0.678718 0)
(0.857856 0.277657 -2.11879e-22)
(0.848376 0.265455 1.61474e-22)
(0.887047 0.301415 -8.31864e-22)
(0.870738 0.290081 1.60658e-21)
(0.93077 0.321998 0)
(0.907198 0.312012 0)
(0.987455 0.337096 0)
(0.957599 0.330336 0)
(1.05291 0.345004 0)
(1.0195 0.342023 0)
(1.12186 0.343776 0)
(1.0873 0.345195 0)
(1.18758 0.333675 0)
(1.15568 0.33961 -2.64934e-22)
(1.24074 0.317382 0)
(1.21637 0.325878 0)
(0.664223 -0.104508 0)
(0.633323 0.0753369 -3.38823e-22)
(0.644462 -0.0139073 -4.1677e-22)
(0.720209 -0.271683 1.13861e-22)