/*--------------------------------*- C++ -*----------------------------------*\
  =========                 |
  \\      /  F ield         | OpenFOAM: The Open Source CFD Toolbox
   \\    /   O peration     | Website:  https://openfoam.org
    \\  /    A nd           | Version:  10
     \\/     M anipulation  |
\*---------------------------------------------------------------------------*/
FoamFile
{
    format      ascii;
    class       volScalarField;
    location    "13";
    object      p;
}
// * * * * * * * * * * * * * * * * * * * * * * * * * * * * * * * * * * * * * //

dimensions      [0 2 -2 0 0 0 0];

internalField   nonuniform List<scalar> 
6397
(
0.233305
0.218628
0.0106159
0.00955266
0.00827274
0.00947295
0.435122
0.179618
-0.395365
-0.420313
0.374815
0.264959
-0.00620861
-0.00792331
-0.0148324
-0.288028
-0.280749
-0.289172
0.839778
0.776376
0.744487
-0.497499
-0.448101
-0.453085
-0.00689962
-0.00888645
-0.00599692
0.014542
0.0135285
0.0166013
0.0166134
0.00771262
0.00847547
0.00854281
0.00590397
0.00637011
0.00680657
0.00739242
0.00442358
0.00410746
0.00499845
0.00533835
0.0165185
0.0115997
0.01345
0.010778
0.00945941
0.0109624
0.0025199
0.00221695
0.00181143
0.00127122
0.0017263
0.343338
0.332337
0.137882
0.148901
-0.025091
0.0166634
0.0131989
0.0211434
0.0259281
0.0300806
0.033219
0.0345199
0.0340619
0.0315037
0.0266596
0.00470177
0.0111547
0.00419151
0.00679147
0.0107007
0.0155879
0.0210259
0.0258801
0.0294116
0.0309703
0.0303431
0.0274058
0.00516073
0.0109382
0.0185347
0.0217025
0.00694854
0.0115099
0.00657728
0.013033
0.00911647
0.0124417
-0.00953314
0.00133446
0.0111755
0.0128966
-0.029456
-0.0124548
0.00655173
0.0114756
0.00914331
0.00070356
0.00358481
-0.00319464
-0.00183244
-0.000111331
-0.00270063
0.0102368
0.00435021
0.0221472
0.0165189
0.0283822
0.0263112
0.026421
0.0284959
0.0163257
0.0221323
0.00971742
0.00118813
-0.041948
-0.0176847
0.0245742
0.0150869
0.0343711
0.030749
0.0365925
0.0362599
0.0329935
0.0355563
0.0255831
0.0296303
0.018162
0.0219668
0.0166959
0.0174055
0.01651
0.0165282
0.0141331
0.0152507
0.0129831
0.00340641
-0.0274681
-0.0488518
-0.0707046
-0.0803837
-0.0014378
0.0381945
0.0414214
0.0182344
0.0103619
0.0119409
0.0174951
-0.0524977
0.00509883
0.00803969
-0.00218966
0.00156093
-0.00871799
-0.00588632
-0.00950377
-0.0102216
-0.000480663
-0.00620979
0.0146334
0.00682568
0.0276792
0.0218379
0.0345201
0.0319329
0.0363849
0.0356968
0.0370159
-0.00340329
-0.0229735
0.0210573
0.0110449
0.0320964
0.0278743
0.0361101
0.0347874
0.0357981
0.0365292
0.0317836
0.0341319
0.0275848
0.0292432
0.0221127
0.0241712
0.0198644
0.0207387
0.0190028
0.0146971
0.0156362
0.0126874
0.0136921
-0.11559
-0.101494
-0.0422462
0.0723474
0.0785034
0.0452517
-0.00252866
-0.118276
-0.150707
-0.156423
0.0161787
0.0165432
0.012979
0.0116759
0.0119385
0.0183274
0.0197625
-0.0761102
0.00958373
0.0110554
0.00463475
0.00746736
-0.00282952
0.00117834
-0.0110581
-0.00707471
-0.0150752
-0.0139758
-0.00899672
-0.0135014
0.00750737
-0.00162784
0.027486
0.0175972
0.0446247
0.0365617
0.0586742
0.0517387
0.0653625
-0.0507699
-0.0819248
-0.00672406
-0.0257111
0.0170523
0.00712463
0.0287418
0.0240635
0.0338218
0.0318344
0.0352814
0.0349203
0.0339882
0.0349373
0.0308939
0.0326097
0.0263365
0.0284584
0.0226011
0.0243497
0.0210887
0.0150563
0.0157601
0.0140394
0.0840572
-0.129717
-0.0543299
-0.190553
-0.17955
0.0493778
-0.00297459
0.0130155
0.0119933
0.0157335
0.0155437
0.0201304
0.0181469
0.0108553
0.0110803
0.0864525
0.0838402
0.0522021
0.0167948
-0.0962311
0.00904473
0.0102845
0.00487478
0.00726861
-0.00191095
0.00181227
-0.0103826
-0.00607328
-0.016579
-0.0141343
-0.0138926
-0.0166397
0.00144341
-0.00763192
0.0253953
0.0128406
0.0505752
0.0382454
0.0729548
0.0621593
0.0911645
0.0827991
0.10099
0.0977363
0.0898081
0.0980688
-0.111818
-0.184242
-0.148668
-0.0489823
-0.0777293
-0.00888205
-0.0263085
0.0134671
0.00398539
0.0250699
0.0202373
0.0306273
0.0283667
0.0329272
0.0320743
0.0330731
0.0332248
0.0312811
0.0326723
0.0278655
0.0297048
0.0239476
0.0258886
0.0220274
0.0150176
0.0156077
0.0140701
-0.215244
-0.212647
0.0743949
0.0765343
-0.151729
-0.0588102
0.0110511
0.0152002
0.0194325
0.0173266
-0.198565
0.000104578
-0.22833
-0.225818
0.0504411
0.0571071
0.0578112
0.0163569
-0.10948
0.0101454
0.0102072
0.010306
0.00873451
0.00966914
0.00552072
0.00739114
7.59011e-05
0.0030953
-0.00728492
-0.00345639
-0.0138725
-0.0109645
-0.0137833
-0.0150677
-0.00167313
-0.00931957
0.0217222
0.00896219
0.0496626
0.0356329
0.0752751
0.0630993
0.092509
0.0854084
0.0953151
0.09607
0.0825602
0.0915706
0.0501833
0.068778
-0.165084
-0.212083
-0.193506
-0.0991055
-0.132043
-0.0449489
-0.0697618
-0.0101284
-0.0254323
0.0101856
0.00141035
0.0213822
0.0166322
0.0271352
0.0247477
0.0298015
0.0287449
0.0305012
0.0303613
0.0295898
0.0301056
0.0271188
0.0285246
0.0235379
0.0254319
0.0214978
-0.228566
-0.217036
0.0334974
0.0266892
0.0145029
0.0153287
0.0135917
0.0127079
0.0148476
0.0142869
0.0146744
0.0150867
0.0127867
0.013798
0.010782
0.0117634
0.00988167
-0.163953
-0.0586724
-0.204843
0.00273584
-0.221689
0.0402402
-0.207173
-0.212932
0.0321952
-0.00192868
0.00265297
0.00943988
0.00909877
-0.115343
0.00952149
0.00959642
0.00854951
0.00918939
0.00626435
0.00760336
0.00232303
0.00451196
-0.00311755
-0.000265061
-0.00835632
-0.00595525
-0.0091634
-0.0096586
-0.000202873
-0.0061869
0.0197109
0.0086134
0.0454209
0.032334
0.069142
0.0579952
0.0840304
0.0779813
0.0856784
0.0866959
0.0707414
0.0805411
0.0392057
0.0569093
-0.0085504
0.0175104
-0.181802
-0.184981
-0.189851
-0.138275
-0.163411
-0.0836987
-0.110689
-0.0400878
-0.0602334
-0.0107491
-0.0238206
0.00728779
-0.000608165
0.0178022
0.0132663
0.0235615
0.0211275
0.0264293
0.0252631
0.0274419
0.027128
0.0270344
0.0272752
0.0252618
0.0263238
0.0221849
0.0238507
0.0184105
0.0203855
0.0143378
0.016364
0.0125582
0.0118443
0.00987487
0.0108118
0.0137755
0.0128379
0.0140709
0.0142852
0.012338
0.0133125
0.0103423
0.0113268
-0.183004
-0.168197
-0.0363392
-0.0391108
0.008656
0.00945447
-0.165668
-0.0556453
-0.197405
-5.16246e-05
-0.203275
0.0191741
-0.184086
-0.000190983
-0.139943
-0.148205
-0.0360925
-0.0742672
-0.0774133
-0.119596
-0.1057
-0.0940296
-0.114959
-0.0720498
-0.105645
0.00795463
0.00816503
0.00746696
-0.114122
0.00876318
0.00840935
0.00896824
0.00894648
0.00842148
0.00879242
0.00694132
0.0078116
0.00435294
0.00578172
0.000887979
0.00268482
-0.00224121
-0.000849393
-0.00222935
-0.00285534
0.00466292
0.000254661
0.0209535
0.0120081
0.0419041
0.031175
0.0613917
0.052261
0.0729425
0.0684439
0.0724522
0.0743713
0.0574504
0.0668609
0.0283692
0.0446854
-0.0150875
0.00834934
-0.0419251
-0.150914
-0.138859
-0.145374
-0.153136
-0.110681
-0.130543
-0.0695422
-0.0899502
-0.0352994
-0.0512573
-0.0110042
-0.0219824
0.00477204
-0.00223063
0.0144519
0.010216
0.0200506
0.017646
0.0230218
0.0217878
0.0242625
0.0238157
0.0242125
0.0243613
0.022933
0.0237213
0.0205267
0.0218464
0.0172844
0.0190039
0.0137269
0.0155399
0.0121501
0.00824867
0.00803723
0.0100322
0.00892049
0.012583
0.0113366
0.01334
0.0133449
0.0117731
0.01271
0.00979364
0.0107569
0.0089358
-0.158366
-0.0538171
-0.180083
-0.0121223
-0.174366
-0.0127576
-0.145905
-0.0417672
-0.106761
-0.0842172
-0.0659398
-0.0683393
-0.126493
-0.142525
-0.160883
-0.0576692
-0.0385865
-0.0385004
-0.181279
-0.126895
-0.156997
0.00767698
0.00701464
0.00734489
0.00689153
-0.108925
0.00813306
0.00779696
0.00845554
0.00835937
0.00826322
0.00842627
0.00742953
0.00792787
0.00592855
0.00675103
0.00406502
0.00500024
0.0028187
0.00326883
0.00414325
0.00301201
0.0109006
0.00664539
0.0233006
0.0163345
0.0394372
0.0312151
0.0539847
0.0472538
0.0618007
0.0589632
0.0594623
0.0620415
0.0451004
0.0537847
0.0184945
0.0333562
-0.0198169
0.000745929
-0.0693346
-0.0432596
-0.0973867
-0.096313
-0.0778688
-0.118002
-0.110164
-0.11302
-0.119053
-0.0879223
-0.10196
-0.0576296
-0.072738
-0.0310317
-0.0435911
-0.0110871
-0.0202309
0.00257098
-0.0035745
0.0113702
0.00746874
0.0167182
0.0143884
0.0197191
0.0184498
0.0211218
0.0205815
0.0213311
0.0213567
0.0204733
0.0210269
0.0186587
0.0196774
0.0160922
0.017443
0.0132233
0.0146674
0.0118583
0.0071781
0.00758555
0.00656858
0.0067143
0.00818609
0.0070601
0.0111891
0.00968986
0.0124705
0.012218
0.0111461
0.0120113
0.00922936
0.0101643
0.00840005
-0.146457
-0.0580834
-0.157332
-0.0367844
-0.139743
-0.055559
-0.103049
-0.0948593
-0.0633643
-0.142528
-0.0320118
-0.183806
-0.0225001
-0.0148831
-0.210937
-0.186312
-0.220366
0.00636023
-0.104951
0.00679057
0.00582819
0.00639527
0.00754026
0.00721362
0.00796469
0.00780591
0.00803148
0.00804377
0.00768774
0.00791033
0.00699129
0.00736909
0.00627628
0.00659861
0.00634366
0.00614119
0.00857747
0.00709206
0.0145808
0.0110395
0.0245032
0.0191023
0.0365533
0.0304821
0.046843
0.0421764
0.0514309
0.050033
0.0475866
0.0506622
0.0339893
0.0420302
0.0102323
0.0233344
-0.0233022
-0.00541506
-0.0656352
-0.0434953
-0.11308
-0.0889835
-0.159456
-0.136785
-0.0504314
-0.0271347
-0.0375577
-0.0768536
-0.0641174
-0.0911826
-0.0861119
-0.0879241
-0.0918007
-0.0704256
-0.0802977
-0.0481789
-0.0594019
-0.0275274
-0.0374227
-0.011162
-0.0187711
0.00062755
-0.00474503
0.00857485
0.00500941
0.0136233
0.0113966
0.0165988
0.0153199
0.0181121
0.0175053
0.0185253
0.0184385
0.0180141
0.0183782
0.0166892
0.0174451
0.0147156
0.0157652
0.0124707
0.0136148
0.0102601
0.0113184
0.00931637
0.00622183
0.0069926
0.00674311
0.00513521
0.00556104
0.00640254
0.00539041
0.00960561
0.00795053
0.0114224
0.0108811
0.0104696
0.0111928
0.00865904
0.00956612
0.00714567
0.00783862
0.00593022
0.00651528
-0.0114496
-0.0207425
-0.213567
-0.179312
-0.135349
-0.0729242
0.00806172
-0.134468
-0.0751275
0.00533832
0.00513886
0.00465586
-0.104299
-0.110063
-0.0603717
-0.160404
-0.0223567
-0.21095
-0.000913502
-0.247798
0.00265333
-0.26311
-0.0192174
-0.00692952
-0.257156
-0.235909
-0.195389
-0.107602
0.0062502
0.00577421
0.00696689
0.00662585
0.00746074
0.00724899
0.00771047
0.00762035
0.00771241
0.00773935
0.00756935
0.00764382
0.00760284
0.00753218
0.00845034
0.00787348
0.0110614
0.0094744
0.0163569
0.0133505
0.0241537
0.0201039
0.0329504
0.0285817
0.0399008
0.0368453
0.0420476
0.041717
0.037248
0.0405888
0.0244481
0.0318618
0.00339873
0.0149218
-0.0256705
-0.0102096
-0.0613079
-0.0428607
-0.100434
-0.0808538
-0.137086
-0.11937
-0.163914
-0.151972
-0.030591
-0.02741
-0.0272321
-0.0452079
-0.0368691
-0.0621787
-0.054214
-0.0720585
-0.0685002
-0.0697415
-0.0723654
-0.057474
-0.064487
-0.0409331
-0.0493894
-0.0247354
-0.0326003
-0.0112525
-0.0175976
-0.00109388
-0.0057761
0.00604553
0.00280757
0.0107711
0.00866294
0.0136857
0.0124152
0.0152732
0.0146172
0.0158584
0.0156734
0.0156213
0.0158317
0.0146909
0.0152332
0.013208
0.0140068
0.0114377
0.0123701
0.00960396
0.0105065
0.00880717
0.00632878
0.00625476
0.00546183
0.00604473
0.00403749
0.00463236
0.00483715
0.0040443
0.0079686
0.00627903
0.0102324
0.00942236
0.00972546
0.010259
0.00807688
0.00892671
0.00660353
0.00728719
0.00594164
-0.0229963
-0.0314605
-0.206697
-0.172315
-0.130259
-0.100711
0.00468515
0.00427383
-0.115779
-0.126558
-0.0720672
-0.177196
-0.0218745
-0.237233
0.0124353
-0.287317
0.0214897
-0.315243
0.0113343
-0.313125
-0.0096105
-0.288277
-0.0392331
-0.0319514
-0.25179
-0.0431191
-0.051983
-0.0504355
0.00545997
-0.212185
-0.176232
-0.120917
0.00566447
0.00519307
0.00639545
0.00605914
0.00692969
0.00668198
0.00729488
0.00713073
0.00751846
0.00741556
0.00772677
0.00760951
0.0082024
0.00790534
0.00943433
0.00868769
0.012052
0.0105351
0.016506
0.0140543
0.0225359
0.0193002
0.0288771
0.0257945
0.0333336
0.0314784
0.0337122
0.0341394
0.0283776
0.0318157
0.0164722
0.0232547
-0.00214466
0.0079761
-0.027095
-0.0139074
-0.0570903
-0.0415984
-0.0893194
-0.0732735
-0.118773
-0.105001
-0.139463
-0.130401
-0.148412
-0.145371
-0.0326083
-0.0365385
-0.0329244
-0.0314943
-0.0415128
-0.0365276
-0.0523522
-0.0469945
-0.0587833
-0.0565506
-0.0569166
-0.0588322
-0.0480091
-0.0531473
-0.0354316
-0.04193
-0.0225892
-0.0288905
-0.0114348
-0.0167421
-0.00267087
-0.00675356
0.00373665
0.00080085
0.00814417
0.00615708
0.0109783
0.00972716
0.0126181
0.0119236
0.0133444
0.0130789
0.0133361
0.0134215
0.0127216
0.0130939
0.0116476
0.0122301
0.0102955
0.0109937
0.00883382
0.00956133
0.00746818
0.00809802
0.00687325
0.00574471
0.00573478
0.00484321
0.00546625
0.00326535
0.00398596
0.00359788
0.00307386
0.00643352
0.00482331
0.00899337
0.00797287
0.00892716
0.00926008
0.00747422
0.00825593
0.00600928
0.00671209
0.00448408
0.00528015
0.00392714
0.00403542
-0.134163
-0.141719
-0.147905
-0.176073
0.00367277
0.00372609
0.00335642
-0.126657
-0.125908
-0.103286
-0.190079
-0.0454715
-0.256003
0.00941505
-0.321859
0.0380474
-0.366856
0.0328766
-0.378872
0.00981564
-0.35555
-0.0199914
-0.310988
-0.0627738
-0.0599456
-0.0687897
-0.0744271
-0.0458569
-0.259993
-0.0643531
0.00360999
0.00574809
0.00330441
-0.146117
0.00425912
0.00389812
0.00510408
0.00464047
0.00581454
0.00548012
0.00635398
0.00609597
0.0067764
0.00657522
0.00712807
0.00695322
0.00753434
0.00731179
0.00823227
0.0078272
0.00958447
0.00880226
0.0119932
0.0106385
0.0156572
0.0136783
0.0202594
0.017866
0.0246652
0.0225686
0.0272819
0.0263034
0.026423
0.0273674
0.0208369
0.0242645
0.00984857
0.0160227
-0.00661084
0.00227362
-0.0280083
-0.0167662
-0.0531192
-0.0402092
-0.0797133
-0.0664551
-0.10352
-0.0923512
-0.119951
-0.112988
-0.124463
-0.0446202
-0.0516733
-0.0356
-0.0391747
-0.0343328
-0.0340343
-0.0391017
-0.036189
-0.0456711
-0.0424511
-0.0495664
-0.0481888
-0.0479081
-0.0494433
-0.0411195
-0.0450287
-0.0313672
-0.0364441
-0.0210502
-0.0261607
-0.0117352
-0.0162111
-0.00413687
-0.00771015
0.00162012
-0.00104201
0.00572267
0.00385508
0.00846556
0.00724044
0.0101411
0.00941686
0.0109858
0.0106523
0.0111687
0.0111498
0.0108193
0.0110518
0.0100662
0.0104844
0.00904984
0.00958254
0.00788265
0.00847997
0.00675376
0.00731643
0.00622845
0.00501108
0.0046238
0.0052444
0.00524101
0.00436537
0.00495944
0.00279683
0.00355327
0.00269159
0.00244688
0.00510357
0.00365987
0.00778477
0.00663209
0.0081105
0.0082534
0.00687109
0.00757543
0.00545449
0.00614322
0.00418864
0.00480931
0.0037047
-0.212428
0.00298094
-0.144495
-0.122644
-0.14718
-0.194707
-0.0970666
-0.263738
-0.025656
-0.342105
-0.172143
0.0312856
-0.40755
0.0520369
-0.440701
0.0316097
-0.431103
-0.0775585
-0.0694557
-0.0750566
-0.0854007
-0.00213659
-0.38536
-0.0862297
-0.0372199
-0.323113
-0.079596
-0.0638325
-0.26001
0.00267223
0.00362873
0.00379189
-0.138976
-0.11775
0.00337326
-0.182119
0.00326524
0.00263816
0.00296794
0.0038711
0.00353612
0.00457643
0.00424081
0.00521368
0.00490731
0.00573168
0.00548293
0.00616551
0.00595498
0.00657113
0.00636544
0.00706264
0.00679594
0.007832
0.00739805
0.00914059
0.00840312
0.0112333
0.0100809
0.0141579
0.0126049
0.0175574
0.0158392
0.0205295
0.0191752
0.0217992
0.0214519
0.0201099
0.0213867
0.0144829
0.017822
0.00440699
0.0100022
-0.0101191
-0.00233043
-0.0285116
-0.0189023
-0.0495673
-0.0388086
-0.0713802
-0.0605407
-0.0907094
-0.0816108
-0.103913
-0.0982155
-0.108898
-0.107593
-0.104802
-0.107978
-0.111288
-0.0943744
-0.100292
-0.056527
-0.0631121
-0.0446067
-0.0501582
-0.0370718
-0.040187
-0.0349882
-0.0353604
-0.0372744
-0.035736
-0.0410614
-0.0391633
-0.0431928
-0.0424985
-0.0415513
-0.0428735
-0.0361723
-0.0392491
-0.0284236
-0.0324796
-0.0199943
-0.0242011
-0.0121405
-0.0159451
-0.00552175
-0.00866072
-0.000339924
-0.00275664
0.00347793
0.00172408
0.00612632
0.0049304
0.00782599
0.00707833
0.00877346
0.00838038
0.00912389
0.00901295
0.00899869
0.00911186
0.00851193
0.00879228
0.00777578
0.00816793
0.00689942
0.00734589
0.00596719
0.00642295
0.00510544
0.00548142
0.00469086
0.00456424
0.00424942
0.00475419
0.00475512
0.00399378
0.00450417
0.00254584
0.00328032
0.00211968
0.00207897
0.00403506
0.00280949
0.00665919
0.00546032
0.00730608
0.00728055
0.00629698
0.0069057
0.0050194
0.00563596
0.00399979
0.00448891
0.00340427
0.0035913
0.00313933
-0.167002
-0.256694
-0.0868007
-0.0801933
-0.0730349
-0.0958742
-0.343187
-0.207478
-0.0132286
-0.427501
0.0419594
-0.484448
-0.165307
-0.0793015
-0.0684084
-0.0692768
-0.0815418
0.0521461
-0.49862
-0.0917786
0.0171944
-0.46488
-0.10315
-0.131388
-0.0971707
-0.0238593
-0.399286
-0.0954438
-0.059362
-0.322474
-0.0838178
0.0022803
0.00232203
0.00198665
0.00238585
0.00375459
0.0031485
0.00202809
-0.225979
0.00284895
0.00256481
0.0034219
0.0031261
0.00404246
0.00373736
0.00459414
0.00432356
0.00506543
0.00483761
0.00547368
0.00527359
0.00587587
0.00566993
0.00637219
0.00610411
0.00711368
0.00670174
0.00828366
0.00763538
0.01002
0.00907921
0.0122829
0.0111005
0.0147195
0.0135157
0.0165824
0.0157818
0.0168906
0.0169893
0.0146616
0.0161405
0.00914269
0.0123381
-4.0282e-05
0.00500689
-0.0128229
-0.00601235
-0.0286316
-0.0204128
-0.0463322
-0.0373412
-0.0642135
-0.0553801
-0.0798589
-0.0724863
-0.0902487
-0.0859275
-0.0940215
-0.0931802
-0.0900506
-0.0928898
-0.0858829
-0.0621383
-0.0659315
-0.0527639
-0.0576056
-0.043638
-0.0479882
-0.0374787
-0.0400863
-0.0351277
-0.035841
-0.0358533
-0.0351825
-0.0378475
-0.0368555
-0.0387319
-0.0385338
-0.0370629
-0.0382512
-0.0326405
-0.0351486
-0.0263323
-0.0296417
-0.0193456
-0.0228529
-0.0126604
-0.0159222
-0.00685876
-0.0096313
-0.00217772
-0.00437814
0.00138026
-0.00026808
0.00393568
0.00276993
0.00565233
0.00488546
0.00669138
0.00624487
0.00719029
0.00699883
0.00726106
0.0072713
0.00700339
0.00716614
0.0065105
0.00678075
0.00587409
0.00620147
0.00512463
0.00549914
0.00439867
0.00476613
0.00407579
0.0034556
0.00282218
0.00310444
0.00412974
0.00384811
0.00430944
0.00430334
0.00369612
0.0041082
0.00243942
0.00309961
0.00180915
0.00193022
0.00326258
0.00223581
0.00565898
0.00449877
0.00653756
0.00637333
0.00576657
0.00626699
0.00465144
0.00519309
0.00379519
0.00419402
0.00311901
0.0034117
0.00283
-0.0782594
-0.0646237
-0.190018
-0.322706
-0.252727
-0.0983569
-0.420957
-0.0682777
-0.057123
-0.0536126
-0.0654185
-0.00901452
-0.501771
-0.198204
-0.0814578
0.0400636
-0.541758
-0.0959629
0.037971
-0.532037
-0.0940191
-0.155725
-0.106341
-0.00804073
-0.476959
-0.122348
-0.11048
-0.0531821
-0.395194
-0.104955
-0.0864352
0.00170377
0.00236916
-0.0688701
-0.0555695
-0.272793
0.00191969
0.00141363
0.00166641
0.00242616
0.00216365
0.00294757
0.00267953
0.00348608
0.00321964
0.00395432
0.00372588
0.00435777
0.00416278
0.00471181
0.00453801
0.00506854
0.00488511
0.00551402
0.00527381
0.00616491
0.00580632
0.00714606
0.00660864
0.00852408
0.00778726
0.0102105
0.0093437
0.0118723
0.0110757
0.0129014
0.0125109
0.0125182
0.0129318
0.00995783
0.011546
0.00464537
0.0076632
-0.00368304
0.00085308
-0.01491
-0.00896437
-0.0284853
-0.0214611
-0.0433803
-0.0358541
-0.0580684
-0.0508598
-0.0706452
-0.0647437
-0.078917
-0.0754499
-0.0813698
-0.0808713
-0.0775573
-0.0802267
-0.0681648
-0.0736116
-0.0534595
-0.0613845
-0.0458518
-0.0347117
-0.0447269
-0.0592041
-0.0590388
-0.0554696
-0.0578427
-0.0489316
-0.0523973
-0.0421764
-0.0454399
-0.0372077
-0.0393825
-0.0348523
-0.0357127
-0.0346973
-0.0345764
-0.035506
-0.0350993
-0.0355874
-0.0357136
-0.0338859
-0.0349903
-0.0301413
-0.0322412
-0.0249032
-0.0276525
-0.0190295
-0.0219921
-0.0132819
-0.0161035
-0.00816398
-0.0106264
-0.00391957
-0.00592928
-0.0005976
-0.00214894
0.00186895
0.000732829
0.00359864
0.00281514
0.00472138
0.00422584
0.00535601
0.00509119
0.00560285
0.00552058
0.00554921
0.00560699
0.00527337
0.00543304
0.00482586
0.00506935
0.00428039
0.00457403
0.0037217
0.00400254
0.00310655
0.00342562
0.00272496
0.00314367
0.00279973
0.00370529
0.0034635
0.00389278
0.00386748
0.00344285
0.00375498
0.0024115
0.00296763
0.00172037
0.0019291
0.00269924
0.00196815
0.00482146
0.00376771
0.00582597
0.00556181
0.0052726
0.00567126
0.00429037
0.00477952
0.0034814
0.00385933
0.00276246
0.00309955
0.00206682
0.00244521
0.00142265
0.00173605
-0.31018
-0.212333
-0.386212
0.00114054
0.00209132
-0.0491711
-0.0610846
-0.103845
-0.48725
-0.0240674
-0.0347499
-0.239181
-0.079296
-0.0148161
-0.554696
-0.0588875
-0.0975792
0.0229486
-0.571109
-0.084281
-0.185828
-0.113204
0.00685054
-0.538048
-0.112283
-0.123326
-0.0445918
-0.466838
-0.144853
-0.125539
-0.087777
-0.376021
-0.114575
-0.0129955
-0.00404942
0.00441847
-0.0437495
-0.0359341
-0.317528
0.00113457
0.000561854
0.000865822
0.0015531
0.00132746
0.00198809
0.00175461
0.00245952
0.00222507
0.00290772
0.00268694
0.00329211
0.00310751
0.00361325
0.00345955
0.00389099
0.00375527
0.00417225
0.00402729
0.00452978
0.00433651
0.00505283
0.00476544
0.00582343
0.00540446
0.00686166
0.00631292
0.00805501
0.00745318
0.00910082
0.00862262
0.00949777
0.00941562
0.00862659
0.0092563
0.00588942
0.00751847
0.000849515
0.00366929
-0.00666868
-0.00260695
-0.016512
-0.0113286
-0.028157
-0.0221603
-0.0406849
-0.0343855
-0.0527676
-0.0468753
-0.0628241
-0.058145
-0.0692395
-0.0665725
-0.0705182
-0.0706131
-0.0668113
-0.0693453
-0.0578207
-0.0629928
-0.0437873
-0.0512866
-0.0259744
-0.0354909
-0.0151843
-0.039057
-0.0270736
-0.0339233
-0.0476701
-0.0437684
-0.0511605
-0.0502588
-0.0495094
-0.0509304
-0.0451346
-0.0475376
-0.0403833
-0.0427606
-0.0364667
-0.0382685
-0.0342984
-0.0351606
-0.0336852
-0.0338436
-0.0337513
-0.0337046
-0.0333426
-0.0336671
-0.0316395
-0.0326765
-0.0284071
-0.0301988
-0.0239832
-0.0263045
-0.0189822
-0.0215138
-0.0139976
-0.0164575
-0.00945607
-0.0116546
-0.00559251
-0.00743437
-0.00248302
-0.00394627
-9.89333e-05
-0.00120727
0.00164262
0.000843634
0.00284436
0.00230248
0.0036066
0.00327295
0.00401647
0.00384912
0.00414842
0.0041116
0.00406463
0.00412905
0.00381267
0.00395579
0.00344728
0.0036436
0.00300076
0.00323908
0.00252335
0.00278105
0.00198497
0.00225028
0.00279144
0.00243223
0.00330649
0.0030874
0.0035138
0.00346424
0.00320922
0.00343017
0.00241865
0.00285403
0.00177611
0.00200797
0.00240078
0.00188686
0.00415473
0.00323787
0.00519881
0.00488549
0.00480208
0.0051247
0.00391055
0.00436727
0.00310085
0.00348774
0.00238336
0.00272012
0.00173934
0.00207356
0.00113448
0.00143188
0.000867484
-0.055052
-0.230518
-0.439124
-0.00309648
0.00550545
0.0135788
0.000924997
0.000140623
-0.0224297
-0.289605
-0.0750779
-0.113536
-0.532825
-0.0472649
-0.0963253
-0.0320631
-0.579184
-0.0736409
-0.222315
-0.116763
-0.00852461
-0.56984
-0.101766
-0.133146
-0.0373284
-0.518404
-0.171832
-0.13327
-0.143643
-0.0883039
-0.438293
-0.142401
-0.124887
-0.0166964
-0.0362328
-0.0472199
-0.353893
0.000775314
0.000555279
0.00116782
0.000962889
0.00155247
0.00135667
0.00195293
0.0017561
0.00231237
0.00214047
0.00260677
0.00246885
0.00283587
0.00272896
0.00302135
0.00293213
0.00320636
0.00311064
0.00345242
0.00331784
0.00382765
0.00362037
0.00438347
0.0040821
0.00511051
0.00473043
0.00588725
0.00550576
0.006444
0.00621509
0.00636638
0.00651252
0.00515951
0.00593181
0.00235701
0.00397815
-0.0023696
0.000241912
-0.00912679
-0.005503
-0.0177393
-0.0132283
-0.0277158
-0.0226028
-0.0382382
-0.032973
-0.0481702
-0.0433567
-0.0561785
-0.0524933
-0.0609735
-0.0590434
-0.061516
-0.0618019
-0.0574541
-0.0601105
-0.0487961
-0.05375
-0.0355185
-0.0426313
-0.0186173
-0.0275345
0.000799837
-0.0088259
0.00240573
0.0159125
0.0204596
0.0100381
-0.0313376
-0.018797
-0.0260669
-0.0395894
-0.0357435
-0.0441429
-0.0423425
-0.0442243
-0.0447073
-0.0416595
-0.0431158
-0.0383638
-0.0400333
-0.0354126
-0.0367833
-0.0335533
-0.0343353
-0.0327554
-0.0330529
-0.0324102
-0.0325758
-0.0317187
-0.0321527
-0.030061
-0.0310292
-0.0272359
-0.0287854
-0.0234519
-0.0254358
-0.0191522
-0.0213351
-0.0147983
-0.016957
-0.0107479
-0.0127198
-0.0072185
-0.00891193
-0.00430037
-0.00568377
-0.0019916
-0.00307461
-0.000237266
-0.00105175
0.00104164
0.000454613
0.00192736
0.00152732
0.00249263
0.00224467
0.00279855
0.00267349
0.00289496
0.00286966
0.00282258
0.00287756
0.0026197
0.00273738
0.00232229
0.00248399
0.00197748
0.00215763
0.00156059
0.0017818
0.00173904
0.00137713
0.0024182
0.00207672
0.00291862
0.00270218
0.00314556
0.00307462
0.00297761
0.00311371
0.00242883
0.00273759
0.00191368
0.00211769
0.00228434
0.0019451
0.00367359
0.00291786
0.0046434
0.00431569
0.00435364
0.00462171
0.00352481
0.00395852
0.00272001
0.00310858
0.00202414
0.0023462
0.00141762
0.00172988
0.000871388
0.00113896
0.000567226
-0.00899386
-0.346441
-0.0693373
-0.240785
-0.47467
-0.000172754
-0.00908515
-0.0330813
-0.0923416
-0.128193
-0.551259
-0.000713865
0.029804
0.0335338
-0.060783
-0.0112617
-0.0201107
-0.265613
-0.11703
-0.0616846
-0.574497
-0.0902687
-0.139577
-0.0546704
-0.542344
-0.203986
-0.121779
-0.157781
-0.0919197
-0.477953
-0.157654
-0.167691
-0.136273
-0.397526
-0.00174637
0.0135277
-0.162103
0.027766
-0.049525
-0.0617523
-0.379015
0.000393511
0.00016399
0.000759731
0.00059354
0.00110594
0.000938897
0.00143107
0.00127621
0.0017016
0.00157674
0.00189995
0.001811
0.00202923
0.00197281
0.00211138
0.00207438
0.0021865
0.00214693
0.00230742
0.00223807
0.00252642
0.00240228
0.00287356
0.00268425
0.00332167
0.00309021
0.0037493
0.00354982
0.00391917
0.00388479
0.00348801
0.00380115
0.00205971
0.00292003
-0.000728813
0.000850628
-0.00512073
-0.00271997
-0.0111694
-0.00794752
-0.0186874
-0.0147699
-0.0272195
-0.0228676
-0.0360393
-0.0316486
-0.0441775
-0.0402593
-0.0505136
-0.0476364
-0.0539739
-0.0526552
-0.0537816
-0.0543531
-0.0495765
-0.0521853
-0.0410717
-0.0458991
-0.0286481
-0.0353617
-0.0128535
-0.0211612
0.00490948
-0.00392906
0.0245586
0.0139421
0.00220116
-0.0037955
0.00714526
-0.0121765
-0.00314752
-0.0246417
-0.0192622
-0.0329451
-0.0291011
-0.0382109
-0.0361656
-0.0395169
-0.0392709
-0.0383881
-0.039143
-0.0362894
-0.0373898
-0.0342003
-0.035196
-0.0327133
-0.0333669
-0.0318972
-0.0322406
-0.0313547
-0.0316263
-0.0305282
-0.0310091
-0.0289588
-0.0298511
-0.0264789
-0.0278273
-0.0232186
-0.0249264
-0.019498
-0.0213916
-0.0156764
-0.0175792
-0.012051
-0.0138255
-0.0088182
-0.0103791
-0.00607304
-0.00738402
-0.00383199
-0.0048926
-0.00206203
-0.00289313
-0.000704945
-0.00133748
0.000303709
-0.000162235
0.00102151
0.000694613
0.00149614
0.00128567
0.00176624
0.00165412
0.00186312
0.00183467
0.00181507
0.00185617
0.00165631
0.00174796
0.00142585
0.00154619
0.00106575
0.00127198
0.000501688
0.000766953
0.00137808
0.000616411
0.000972988
0.00203946
0.00172467
0.00252122
0.00230563
0.00277602
0.00268312
0.002735
0.00279294
0.0024174
0.002602
0.00207835
0.00221955
0.00229525
0.00208185
0.00332781
0.00274428
0.00415976
0.00386081
0.00392614
0.00415768
0.00315145
0.00356334
0.00236892
0.00274691
0.00170359
0.0020164
0.00112425
0.00142318
0.000596256
0.000864205
-0.000158711
0.000246711
-0.000438288
-0.0175676
-0.0863482
-0.254399
-0.488106
-0.00051052
0.0364961
0.000272865
-0.0452016
0.00763853
-0.00928905
0.00500882
-0.00235228
-0.312407
-0.114253
-0.149735
-0.544561
-0.0764039
-0.141867
-0.10492
-0.543118
-0.240623
0.0237711
-0.109501
-0.16726
-0.114065
-0.494251
-0.144185
-0.188138
-0.152726
-0.425199
-0.185645
-0.196646
-0.184794
0.0448833
-0.065679
-0.0324721
-0.0469053
0.042391
-0.0783314
-0.385279
-1.33852e-05
-0.00027383
0.000350896
0.000186153
0.000645666
0.000504114
0.000895579
0.00077992
0.00107514
0.000996699
0.00117317
0.00113507
0.00119648
0.00119351
0.00116764
0.00118675
0.00112452
0.00114519
0.00111349
0.00111234
0.00117549
0.00113377
0.00132596
0.00124065
0.00152761
0.00142557
0.00166432
0.0016145
0.00152905
0.00164596
0.0008374
0.0012707
-0.000727418
0.000180775
-0.00344675
-0.00193176
-0.00749651
-0.00530354
-0.0128895
-0.0100351
-0.0194335
-0.0160408
-0.0267104
-0.0230166
-0.0340782
-0.0304304
-0.0407074
-0.0375399
-0.0456575
-0.043447
-0.048031
-0.0472081
-0.0471916
-0.0480312
-0.0427902
-0.0454427
-0.0346303
-0.0391715
-0.0229212
-0.029195
-0.00812133
-0.0158493
0.00822455
-0.000165153
0.0272899
0.0172471
0.0485069
0.0495564
0.0382451
0.0472523
0.0148983
0.0103258
0.0110189
0.021423
0.0184564
-0.00669632
0.00159587
-0.019113
-0.0135648
-0.0275567
-0.0236956
-0.0330891
-0.0307273
-0.0353882
-0.034596
-0.0353841
-0.0355867
-0.0342769
-0.0349035
-0.0329247
-0.0335927
-0.031823
-0.0323269
-0.0310928
-0.0314212
-0.0304953
-0.0308009
-0.029642
-0.0301233
-0.0281989
-0.0290056
-0.0260299
-0.027202
-0.0232156
-0.0246892
-0.0199882
-0.0216349
-0.016627
-0.0183076
-0.0133771
-0.0149763
-0.0104112
-0.0118523
-0.00782347
-0.00906858
-0.00564223
-0.00668381
-0.00385201
-0.00470188
-0.002413
-0.00309291
-0.00127842
-0.00181167
-0.000406495
-0.000812979
0.000236388
-5.91089e-05
0.000677019
0.000479879
0.000937407
0.000828274
0.00103797
0.00100623
0.00100455
0.00103599
0.0008448
0.000942455
0.000559493
0.000734109
0.000119077
0.000335922
-7.88828e-05
0.000388893
-0.000271061
7.45175e-05
0.00104307
0.000687983
0.00167062
0.0013774
0.00213067
0.00192183
0.00240857
0.00229536
0.00248039
0.00246933
0.00237301
0.00244285
0.00222982
0.00228963
0.00237491
0.0022422
0.00308535
0.00267064
0.00373362
0.00349194
0.00352474
0.00373041
0.0028075
0.00319283
0.00206179
0.00242242
0.00142701
0.0017281
0.000874576
0.00115101
0.000337722
0.000612621
-0.00031987
8.39401e-06
-0.00087065
-0.000594093
-0.0276985
-0.0115762
-0.064827
-0.0372256
-0.0234203
-0.351417
-0.0852976
-0.10869
-0.26387
-0.479986
-0.0595169
-0.140679
-0.180832
-0.515179
0.0608824
0.061121
-0.278494
0.0403822
0.0592394
0.0581144
0.0142662
0.0238634
-0.000449319
-0.000641172
-0.000809303
-0.00118921
-0.000985979
-0.00133152
-0.095036
-0.172297
-0.160749
-0.493612
-0.0195411
-0.000839757
-0.130958
-0.202204
-0.182936
-0.434951
-0.216882
-0.169044
-0.0881122
-0.0556915
-0.224975
-0.215346
-0.368078
-0.230505
-0.0994671
-0.382454
-0.000842238
-0.001026
-0.000428707
-0.000645661
-7.94944e-05
-0.000234135
0.000170315
5.41686e-05
0.000346006
0.000269041
0.000433462
0.000402069
0.000427747
0.000442185
0.000340079
0.000393108
0.000194696
0.000272572
2.8522e-05
0.00011164
-0.000116633
-4.90644e-05
-0.000207634
-0.000169995
-0.000238917
-0.000229403
-0.000252748
-0.000243086
-0.000357435
-0.000284639
-0.000732615
-0.000498564
-0.00161356
-0.00109563
-0.00325284
-0.00232572
-0.00586624
-0.00443006
-0.00957656
-0.00758449
-0.014366
-0.0118466
-0.0200428
-0.0171147
-0.0262255
-0.0231029
-0.0323487
-0.0293353
-0.0377002
-0.0351669
-0.0414889
-0.039835
-0.0429669
-0.042551
-0.0415873
-0.0426519