/*--------------------------------*- C++ -*----------------------------------*\
  =========                 |
  \\      /  F ield         | OpenFOAM: The Open Source CFD Toolbox
   \\    /   O peration     | Website:  https://openfoam.org
    \\  /    A nd           | Version:  10
     \\/     M anipulation  |
\*---------------------------------------------------------------------------*/
FoamFile
{
    format      ascii;
    class       surfaceScalarField;
    location    "13";
    object      phi;
}
// * * * * * * * * * * * * * * * * * * * * * * * * * * * * * * * * * * * * * //

dimensions      [0 3 -1 0 0 0 0];

internalField   nonuniform List<scalar> 
12623
(
0.0967224
0.024228
-0.0374903
-0.0834602
0.0754531
-0.0397272
0.0609965
0.0970324
-0.0126237
-0.0894716
0.00506299
-0.0122052
0.0983528
0.0108848
-0.0974914
0.0101063
-0.00894168
0.0963268
-0.0953016
-0.014395
-0.00309471
0.0455992
-0.0518732
0.00936875
-0.0539811
0.0508864
0.0209461
-0.0109876
-0.00995852
0.00898388
-0.00945653
0.0214187
0.0872757
-0.039423
-0.0478528
-0.0584494
0.0480378
0.0976873
-0.0315221
-0.0207356
0.0233663
0.0288914
0.00354036
0.00605671
-0.0411192
-0.0272418
0.0100466
0.00233413
-0.0011555
-0.00584935
0.00467073
-0.000148734
-0.00346123
0.00594409
-0.00328011
0.00197588
0.00130102
-0.0127151
-0.000815128
0.0122292
-0.0286281
0.00959178
0.0203374
-0.0274469
-0.0138963
-0.000206707
0.0112783
-0.00898961
-0.00208199
0.00431806
-0.00421905
-0.000305714
-0.0149043
0.0305006
-0.0478969
0.0054574
0.0484962
0.00769197
-0.0540791
-0.00150976
-0.0594391
0.0054576
0.0594389
-0.0774818
0.0154842
-0.0181989
0.0801965
-0.074786
-0.0162047
0.0135089
-0.0771908
0.0788048
-0.0150147
0.0134007
-0.0735771
0.0118705
-0.0981924
0.0125741
-0.00924154
0.0948599
-0.0112103
-0.0949474
0.00796522
0.0972488
-0.0956532
0.00863556
-0.00685509
0.0938727
-0.00933978
-0.0931125
0.00679914
-0.0991934
-0.00658955
0.0964432
-0.0943018
0.00768245
0.0907578
-0.0112106
-0.0953048
0.0157575
-0.0061166
0.0166426
0.0802319
-0.0938307
-0.00859177
0.0912118
-0.0928763
0.0076812
0.014187
-0.0156336
0.0802514
-0.0887273
0.0162623
-0.0162017
0.0886667
-0.0178407
-0.0848928
0.0140062
-0.0143157
-0.0936097
-0.09318
-0.0127301
0.0915151
-0.0912335
-0.00968472
-0.0718701
0.00629426
0.0752605
0.0556476
0.0089506
-0.074283
-0.0582089
0.0198753
0.0939812
-0.0215543
0.0883092
-0.0726829
0.00592802
-0.0708126
0.0723579
0.0150955
-0.0131132
-0.0743403
0.0182804
0.0700082
-0.0159306
-0.0106894
0.00716607
0.0808076
-0.0772843
-0.0830653
0.0827938
-0.0104179
0.0820804
-0.00744113
0.00853963
-0.0831789
0.0618872
-0.0612887
0.00596706
-0.00656561
0.00154396
0.0639595
-0.00361627
-0.0618712
0.0100765
-0.00949392
-0.0629578
0.0136378
-0.0125512
-0.0651266
0.0160988
-0.01393
-0.0674019
0.0183748
-0.0160995
-0.0699937
0.0201035
-0.0175116
-0.0710354
0.0215933
-0.0205516
-0.0716581
0.0236506
-0.0230279
0.0251669
-0.0707869
-0.0260381
0.0672631
-0.0645897
-0.00112943
-0.0020623
0.0662033
-0.000181443
0.0707584
-0.00555762
-0.0623945
0.00377178
-0.0604126
0.00809468
-0.0592657
0.0124909
-0.0594223
0.0162554
-0.0608338
0.0197863
-0.0621362
0.0214059
-0.063905
0.0233621
-0.0640293
0.0237749
-0.0641317
0.0252693
0.00622892
0.0733022
-0.0087727
0.0689822
0.00344994
0.0263594
-0.0699763
-0.02717
-0.0622459
0.0244736
0.00956733
0.0758377
-0.0121028
0.0716245
0.00692502
0.0264789
-0.0670446
-0.0294106
-0.0597522
0.0239852
0.0132075
0.0777322
-0.015102
0.0100461
0.0253515
-0.0642587
-0.0281374
-0.0551636
0.0207628
0.0800252
-0.0184977
-0.0216692
0.0834954
0.0219193
-0.0277964
-0.0583815
0.0180947
-0.0513389
0.0809718
-0.0799324
-0.0161414
-0.078907
0.0815079
-0.0242701
-0.0164328
0.0789045
-0.0764421
-0.0112351
-0.0131307
0.0734266
-0.0699253
-0.00463076
-0.00857314
0.066453
-0.0624029
0.00404458
0.000299498
0.059491
-0.0569049
0.0136693
0.00957896
0.055645
-0.0548782
0.0206391
0.0185265
0.0548777
-0.0544227
0.0233198
0.0233616
0.0532429
-0.0523311
0.0235618
0.0240895
0.0494979
-0.045757
0.0170219
0.021152
-0.0412875
0.0136251
-0.0756868
0.0754323
-0.0291561
0.0713894
-0.0320919
-0.0670939
-0.0324349
-0.0766934
0.075619
-0.0249637
-0.0284311
-0.0769228
0.0741299
-0.0177587
-0.0243316
-0.0740891
0.0702903
-0.0123007
-0.0174708
-0.0688785
0.0650838
-0.0087566
-0.0125183
-0.0644625
0.0625029
-0.00460605
-0.00887254
-0.0636734
0.0635475
-5.55308e-05
-0.00478677
-0.065679
0.0680249
0.00457908
0.00131848
-0.0705771
0.0105089
0.00749384
0.0179084
-0.0209892
0.0865762
0.0830903
-0.0181867
0.0787055
-0.013584
-0.0362033
0.00849981
-0.0205236
-0.0443993
-0.0757948
0.0777022
-0.0339993
-0.0301748
0.0260288
-0.0629479
-0.0737522
-0.0322174
0.00215632
-0.0077095
-0.0306501
-0.0317479
0.0350846
0.00516313
-0.000588165
-0.0290034
0.0775694
-0.0741357
0.00996691
0.080124
-0.0853913
-0.0190028
0.082843
-0.0209058
0.0775485
0.014208
-0.0528764
0.0845622
-0.0849136
-0.01579
-0.0172619
0.0844174
-0.0822028
-0.0134497
-0.0136269
0.0803422
-0.0762152
-0.00875776
-0.0104338
0.0718454
-0.0675984
-0.000202443
-0.00407031
0.0628848
-0.0588832
0.00966764
0.00486543
0.0547796
-0.0520357
0.0178952
0.014423
0.049308
-0.047631
0.0216428
0.0206339
0.0456205
-0.0431275
0.0210688
0.022079
0.0403733
-0.0382334
0.0148821
0.0183978
0.0104763
-0.0783193
0.0792696
-0.0301064
-0.0330519
-0.078648
0.0784518
-0.0247675
-0.0278095
-0.0757721
0.0767403
-0.0187268
-0.0216519
-0.0741314
0.0744616
-0.0126309
-0.0148619
-0.0713191
0.0702617
-0.00769918
-0.0093758
-0.0669611
0.0665815
-0.00422638
-0.00557198
-0.0641279
0.0645635
-0.0004912
-0.00233316
-0.0643893
0.0654784
0.00349001
0.0014927
-0.0672415
0.0708299
0.00692052
0.0057307
0.00856475
0.0171063
-0.0115938
0.0810637
0.0845629
0.0145033
0.080782
-0.0124422
0.081615
0.0263999
-0.0303792
-0.0697729
0.0209655
-0.0575136
-0.0146676
-0.0374411
-0.0355829
0.03592
0.00482596
-0.0357271
-0.000443966
0.00496319
-0.00663201
-0.0273346
0.0002872
-0.0259741
-0.0809525
0.0831008
-0.0325276
-0.025185
0.0196139
-0.0642017
-0.0778079
-0.0283296
0.0167643
-0.0142263
0.0777134
0.0774411
0.0168716
-0.0157476
0.0154558
0.0810737
0.0791791
-0.0785494
-0.0130719
0.0814459
-0.0180144
-0.0758275
0.0128271
0.0772084
-0.0726282
0.00676767
-0.0465785
0.0829273
-0.0850209
-0.0169093
-0.0165279
0.0871021
-0.088934
-0.0139581
-0.0151807
0.0879388
-0.0875347
-0.0138538
-0.0146221
0.0855468
-0.0833765
-0.010928
-0.0124217
0.0797156
-0.0756446
-0.00427337
-0.00773125
0.070945
-0.0662198
0.00494242
0.000165804
0.0610386
-0.0567793
0.0136359
0.00924176
0.0522329
-0.0490837
0.0184936
0.0160875
0.0453114
-0.0423867
0.018144
0.0183068
0.0395207
-0.0376566
0.013018
0.0155318
0.00873974
-0.0846516
0.0838919
-0.0332396
-0.0337681
-0.0828424
0.0820668
-0.0293309
-0.0320024
-0.0800684
0.0793096
-0.0240087
-0.0258111
-0.0775138
0.0768152
-0.0180282
-0.0198562
-0.0761702
0.0755904
-0.0120511
-0.0142169
-0.0748929
0.0737783
-0.00658455
-0.00867832
-0.0723404
0.0706308
-0.00251676
-0.00413414
-0.0691447
0.0679884
0.000665142
-0.000847057
-0.0673999
0.0671639
0.00372593
0.0020812
-0.0679724
0.0694773
0.00541565
0.00492219
0.0054138
0.0149485
-0.0147504
0.0808656
0.0852852
0.0823203
-0.0379723
-0.0043868
0.0133044
-0.0512041
-0.00615098
-0.031003
0.0175912
-0.0229937
-0.0724054
0.0110834
-0.0576939
0.0124599
-0.0121291
-0.0276653
0.00907348
-0.0225878
-0.014611
0.014211
0.0814738
-0.0158549
0.0826899
0.0183872
-0.0157332
0.0750593
0.0174522
0.0783761
0.0733426
-0.0729585
0.00638355
0.00864391
0.0775258
0.0820448
-0.0810591
-0.0140576
0.0810717
-0.0170414
-0.0422411
-0.00786036
0.0162606
-0.011113
-0.0473886
0.0193674
-0.0307722
0.0779073
0.0161727
-0.0394251
0.0835173
-0.0874324
-0.0129941
-0.0140697
0.0899339
-0.0901446
-0.0137474
-0.0126792
0.0912549
-0.0911213
-0.0139874
-0.0135118
0.0906317
-0.0893761
-0.0121837
-0.0129113
0.0873131
-0.0842524
-0.0073341
-0.0097942
0.0804704
-0.0758911
0.000363137
-0.00361616
0.0710851
-0.0660073
0.00855809
0.00443574
0.0612898
-0.0568349
0.0140387
0.01137
0.053063
-0.0498492
0.0149302
0.014535
0.0475161
-0.0460909
0.0115928
0.0131986
0.0461721
-0.0472585
0.00591237
0.00882094
0.050317
-0.0550373
0.000333453
0.00261457
0.0589372
-0.0633955
-0.00665467
-0.00396047
-0.0912735
0.0910285
-0.0322826
0.0890007
-0.0861253
-0.0258691
-0.0306024
-0.0902961
0.0887451
-0.0316886
-0.0330356
-0.0856851
0.0841525
-0.0277983
-0.0289424
-0.0821037
0.0804996
-0.0224046
-0.0237624
-0.079244
0.07819
-0.0169742
-0.0186006
-0.0774716
0.0770007
-0.0115802
-0.0134985
-0.0767261
0.076433
-0.00629142
-0.00840377
-0.0759853
0.0752534
-0.00178491
-0.00368645
-0.0743846
0.073445
0.00160473
2.17536e-05
-0.072682
0.0723741
0.00403381
0.00284427
-0.0720476
0.0722525
0.00521078
0.00524869
0.00470778
0.0111076
-0.0124865
0.0822445
0.0806597
0.0840448
-0.0156458
0.00911254
-0.0658721
-0.0815653
-0.0202059
-0.0130427
0.0190852
-0.0534312
-0.0661849
-0.0102533
0.00380001
-0.0439207
0.00308171
-0.0250112
-0.014522
0.0797388
0.0185261
0.0768334
0.0790916
-0.0778569
0.00514885
0.0809107
0.00682479
0.00168499
-0.0502664
0.0180142
-0.0212346
0.00681599
-0.0126355
-0.0757458
-0.0004159
-0.0586403
0.0248986
-0.0365856
-0.0172788
0.0221051
-0.0582575
-0.0151294
-0.0683343
0.0808984
0.0128001
-0.0325434
0.0841377
-0.0854218
-0.0127735
-0.081046
0.0800875
-0.0135635
-0.0139497
0.0878118
-0.0895883
-0.0112176
-0.0116796
0.0902427
-0.0913951
-0.0125949
-0.0120248
0.0924281
-0.0933226
-0.0130929
-0.0124788
0.0938507
-0.093878
-0.0121565
-0.0123831
0.0932247
-0.0917042
-0.00885457
-0.0104475
0.0893749
-0.0861069
-0.00290483
-0.00594547
0.0823597
-0.0780824
0.00428079
0.000688485
0.0738877
-0.0697831
0.00993412
0.00717529
0.066338
-0.0635558
0.012148
0.0110899
0.0618179
-0.0611454
0.0109203
0.0114607
0.0613641
-0.0628847
0.00743297
0.00903965
0.0651893
-0.0671496
0.00229372
0.00491921
0.0698334
-0.0716402
-0.00484789
-0.00127669
0.0729352
-0.0743547
-0.01371
-0.00895827
-0.0976066
0.0989892
-0.0272517
0.0951463
-0.0914831
-0.0162987
-0.0226662
-0.0979162
0.09627
-0.0306364
-0.0295294
-0.0927636
0.0905838
-0.0295088
-0.0295292
-0.0877385
0.0853351
-0.0253948
-0.0260971
-0.0833785
0.0816544
-0.0206804
-0.0218058
-0.0803289
0.079231
-0.0158762
-0.0172752
-0.0784715
0.0779695
-0.0110782
-0.0127391
-0.0777638
0.0777606
-0.00628828
-0.008198
-0.0778478
0.0779125
-0.00184966
-0.00377359
-0.0778801
0.0777518
0.00173307
5.4157e-05
-0.0776551
0.077423
0.00426592
0.00294096
-0.0776254
0.0778505
0.00498568
0.00504626
0.00470142
-0.0048497
-0.00192466
-0.0689714
-0.086425
-0.00990781
-0.0196676
0.0213868
-0.0700535
-0.0759575
-0.0180648
0.0815839
0.00881798
0.0148139
-0.0149649
0.0769844
0.080196
0.010179
-0.012451
0.0773313
0.0735902
0.0111988
-0.0107371
0.0817828
0.0794074
0.0109188
-0.0118055
0.0823604
0.0842265
0.0124345
-0.0124354
0.0797397
0.0833189
-0.0118064
0.0794585
-0.00613836
-0.0360974
0.0130674
-0.0200644
-0.00866319
-0.0420191
0.0262151
-0.0225511
-0.010035
-0.0505299
0.0285426
-0.0430231
-0.00269314
-0.00288967
-0.0808422
-0.0101399
-0.0615246
0.024759
-0.0616296
0.0240509
-0.022203
-0.0778053
0.0262027
-0.0722053
0.0794729
-0.0807999
-0.0122365
0.0787226
-0.011056
-0.0256143
0.0829792
-0.085047
-0.0107057
-0.0117704
0.087439
-0.0883792
-0.0102774
-0.00928765
0.0899811
-0.0912834
-0.0112926
-0.0104229
0.0925752
-0.0939007
-0.0117674
-0.0111871
0.0950564
-0.0959988
-0.0112141
-0.0112274
0.096493
-0.0964124
-0.00893522
-0.00995324
0.0956323
-0.0940449
-0.0044922
-0.00672558
0.0918018
-0.0889795
0.00145854
-0.00155462
0.0859756
-0.0828629
0.00682144
0.00417134
0.0801378
-0.0778244
0.0098347
0.00836471
0.0762214
-0.0752368
0.00993563
0.00985768
0.0748407
-0.0748069
0.00739914
0.00864361
0.074891
-0.0749716
0.00237433
0.00500333
0.0752407
-0.0755403
-0.00454829
-0.00100766
0.0758828
-0.0776411
-0.0119517
-0.00861572
0.079714
-0.082483
-0.019434
-0.0159919
-0.103609
0.105416
-0.0181063
0.100895
-0.0975532
-0.00623104
-0.0126218
-0.105105
0.103435
-0.0255811
-0.0223554
-0.100418
0.0978764
-0.0280946
-0.0265127
-0.0943972
0.0912326
-0.0263442
-0.02605
-0.0885558
0.0861199
-0.022959
-0.0234203
-0.0841731
0.0824683
-0.0189757
-0.019859
-0.0811604
0.0800701
-0.0147859
-0.0159673
-0.0793021
0.0787651
-0.0105412
-0.011971
-0.0785228
0.0785361
-0.00630155
-0.00795569
-0.0787615
0.0791522
-0.00224037
-0.00399899
-0.0795964
0.0800865
0.00124302
-0.000390096
-0.0805459
0.0810406
0.00377117
0.00248158
-0.0817209
0.0815724
0.00513415
0.00436601
-0.081338
0.0822571
0.00422979
0.00493578
-0.0840844
0.0869801
0.00592227
0.00499746
0.00975289
0.00985815
-0.00901592
0.0761422
-0.0119681
0.0879048
0.0780861
0.00961579
-0.00956653
0.0772821
0.0741901
0.00915482
-0.0104396
0.0830675
0.0789957
0.00955252
-0.0116169
0.0844248
0.0833394
0.0104043
-0.0115264
0.0808617
0.0821063
0.00303836
-0.00921125
-0.0746693
-0.0935448
-0.000969983
-0.0246784
0.0280317
-0.0811586
-0.0855058
-0.0216556
0.0103236
-0.0089049
0.0773039
0.0782557
-0.016467
-0.0282935
0.0228519
-0.0167011
-0.0183867
-0.0336674
0.0325277
-0.0265362
-0.0184991
-0.0421707
0.0309492
-0.0492134
-0.0168989
-0.053837
0.0286144
-0.0640413
-0.00790928
0.00370644
-0.089342
-0.0142194
-0.0683591
0.031102
-0.0752756
0.0275283
-0.0880987
-0.0249354
0.0315685
-0.0851988
-0.103248
0.105802
0.00115317
0.00730864
-0.0114153
-0.0852353
-0.100331
0.00439118
-0.0268398
0.0311245
-0.0923833
-0.0901423
0.0866307
-0.0214238
-0.0934611
-0.0235211
0.0780451
-0.0785195
-0.0084305
-0.00987343
0.00928552
0.0778918
0.0740436
-0.00587196
-0.0192295
0.0793948
-0.0824723
-0.00915899
-0.0101807
0.0842735
-0.0862308
-0.00874841
-0.00996923
0.0871511
-0.0882246
-0.00920388
-0.00836737
0.0893572
-0.0906404
-0.0100094
-0.00929032
0.0919553
-0.0933778
-0.010345
-0.00987213
0.094743
-0.096077
-0.00988002
-0.00986221
0.0971658
-0.0979588
-0.00814217
-0.00886453
0.0982593
-0.0979823
-0.00476919
-0.00642505
0.0971004
-0.0955903
-5.16423e-05
-0.00243651
0.0937274
-0.0915447
0.00463883
0.00230843
0.089389
-0.0872613
0.00770704
0.00620897
0.0854076
-0.0837138
0.00824183
0.00800396
0.0822783
-0.0809538
0.00607464
0.00720809
0.079835
-0.0789085
0.00144793
0.00388449
0.0783797
-0.0781069
-0.00482112
-0.0015365
0.0787604
-0.0799347
-0.0107774
-0.0079622
0.0813951
-0.0846387
-0.0161905
-0.0145314
-0.0196636
-0.107958
0.110083
-0.00835607
-0.00312616
-0.110167
0.109661
-0.0175995
-0.0127062
-0.107108
0.10465
-0.0231236
-0.0198029
-0.101123
0.0975971
-0.0245684
-0.0229856
-0.0944163
0.0913846
-0.0233125
-0.0228692
-0.0888577
0.08655
-0.0206513
-0.0208934
-0.0846929
0.0830479
-0.0173307
-0.0180019
-0.0817754
0.0807074
-0.0137179
-0.0146948
-0.0799471
0.0793977
-0.00999182
-0.0112107
-0.079119
0.0790796
-0.0062621
-0.00767705
-0.0792747
0.0796996
-0.00266524
-0.00419416
-0.080264
0.0809892
0.000517851
-0.000954507
-0.0817462
0.0825932
0.00292413
0.00172459
-0.0834205
0.0842239
0.00433076
0.00353872
-0.0847279
0.0851655
0.00379221
0.00443176
-0.0858647
0.0880448
0.0037422
0.00429822
0.00418801
0.0081031
-0.00521412
0.0850158
0.0906766
0.00682929
-0.00817876
0.0774917
0.0797012
0.00886244
-0.00881651
0.0772361
0.0748738
0.00831846
-0.00772695
0.082476
0.0784976
0.00723555
-0.00636415
0.0835534
0.0828481
0.00680626
-0.00824243
0.0822979
0.0825484
0.0792988
-0.0259837
-0.0206964
0.0313235
-0.0154969
-0.0268529
-0.0253136
0.0365555
-0.0321425
-0.0252649
-0.0338047
0.0331325
-0.0537315
-0.0217371
-0.0463193
0.0339086
-0.0668479
-0.0172988
-0.0624756
0.0353891
-0.0790962
-0.0091534
0.00719412
-0.0983717
-0.0132962
-0.0810926
0.034936
-0.0890103
0.0282214
-0.0978851
-0.0237973
0.0321704
-0.0963323
-0.104568
0.106759
0.00500339
0.00835223
-0.0109728
-0.0957511
-0.102227
0.00601092
-0.0239774
0.0279681
-0.101876
-0.0974556
0.0947411
-0.0210829
-0.100924
-0.0205092
-0.0109889
0.00921507
0.0796655
-0.0121638
0.0752185
0.0781491
-0.0795165
-0.00706317
0.0785594
-0.00628218
-0.0138897
0.0807411
-0.0826537
-0.00724644
-0.00895602
0.0844019
-0.0856771
-0.00747327
-0.00822097
0.0865361
-0.0875297
-0.00821024
-0.00750836
0.0885785
-0.0897649
-0.00882306
-0.0082415
0.0909864
-0.0923235
-0.00900792
-0.00865063
0.0936407
-0.094992
-0.00852877
-0.00854498
0.0962026
-0.097273
-0.00707182
-0.00765384
0.0980152
-0.0983792
-0.00440519
-0.00568289
0.0982559
-0.0975955
-0.000712069
-0.00255977
0.0964844
-0.0949371
0.00309153
0.00119736
0.0931788
-0.0911956
0.00572392
0.00445062
0.0892297
-0.0872147
0.00622688
0.006038
0.0853611
-0.0836034
0.0043169
0.00535448
0.0821548
-0.0810246
0.000317769
0.0024359
0.0804128
-0.080328
-0.0049059
-0.00214836
0.0808774
-0.0812492
-0.0104057
-0.00741276
0.0832336
-0.084612
-0.0148121
-0.012547
0.0875306
-0.0907197
-0.0182347
-0.0167449
-0.0194997
-0.108981
0.110527
-0.000393361
0.00216919
-0.111498
0.111687
-0.00854464
-0.00409698
-0.110733
0.108802
-0.0156692
-0.0117522
-0.106235
0.103093
-0.0199822
-0.0172353
-0.0999584
0.0967298
-0.0213398
-0.0198506
-0.0938687
0.0911215
-0.0205653
-0.0200081
-0.0888124
0.0866771
-0.018516
-0.0185842
-0.0849416
0.0833895
-0.0157786
-0.0162664
-0.0821774
0.0811499
-0.0126904
-0.0134826
-0.0804093
0.0798607
-0.00944322
-0.0104702
-0.0795601
0.0794703
-0.00617231
-0.00737644
-0.0795987
0.0799504
-0.00301693
-0.00432261
-0.0804658
0.0811774
-0.000193753
-0.00146987
-0.0819658
0.0828831
0.00200691
0.00093617
-0.0837961
0.0847786
0.00334825
0.00262569
-0.0856846
0.086155
0.00332184
0.00352574
-0.0874368
0.0877421
0.00343687
0.00301643
0.00245848
0.00745613
-0.00400234
0.092873
0.0954634
0.00284186
-0.00403778
0.0862117
0.0895161
0.00565838
-0.00710537
0.0789387
0.0813218
0.00792297
-0.00797522
0.0772884
0.0756914
0.00747395
-0.00680246
0.0818045
0.0779964
0.00624847
-0.00648333
0.0837883
0.0822941
0.0075131
-0.00815884
0.0829437
0.0835782
0.080355
-0.0338638
-0.0136856
0.0376655
-0.0166069
-0.0332722
-0.0173062
0.0386201
-0.0376301
-0.0297287
-0.0258131
0.0359865
-0.0558095
-0.0242367
-0.0393815
0.0380623
-0.0695211
-0.0182615
-0.0575102
0.038419
-0.0825793
-0.0135768
-0.0784886
0.0366863
-0.0935262
-0.0091289
0.00676221
-0.09986
-0.0113656
-0.0935144
0.0329866
-0.101351
0.0232776
-0.0199141
-0.104287
0.0272531
-0.105851
0.00757167
0.058824
-0.0100879
0.0773972
-0.0793264
-0.005134
-0.0723796
0.0545023
0.025449
-0.00126459
0.0819286
-0.0827229
-0.00645215
-0.00635382
0.0842837
-0.0853753
-0.00638166
-0.00666018
0.0858009
-0.0868126
-0.00719853
-0.00708272
0.087759
-0.0888201
-0.00776188
-0.00729517
0.089907
-0.0910906
-0.00782435
-0.00756374
0.0922578
-0.0934632
-0.00732334
-0.00737776
0.0945663
-0.0955857
-0.00605237
-0.00655081
0.0963674
-0.0968851
-0.00388753
-0.00490121
0.0970222
-0.0967341
-0.00100013
-0.00242267
0.096025
-0.0948802
0.00194677
0.00048823
0.093449
-0.0917151
0.00398999
0.00301942
0.0899042
-0.0879876
0.00431028
0.00422717
0.0862084
-0.0845398
0.00264822
0.00357528
0.0832028
-0.0821949
-0.000690173
0.00109895
0.0816569
-0.0815674
-0.00499541
-0.00268633
0.0819538
-0.0828543
-0.00950512
-0.0070264
0.0841808
-0.0857214
-0.0132715
-0.0112205
0.0871548
-0.0898561
-0.0155334
-0.0153116
0.0925616
-0.0966654
-0.0169791
-0.0167942
0.0997884
-0.102984
-0.0167183
-0.0173861
-0.104853
0.106837
0.00301994
0.101979
-0.101442
0.00622519
0.00313664
-0.107921
0.109537
-0.00200977
0.00108515
-0.109968
0.10951
-0.00808674
-0.00452814
-0.108215
0.106192
-0.0136458
-0.0104571
-0.103817
0.101034
-0.0171997
-0.0148603
-0.0983267
0.0955285
-0.0185417
-0.017143
-0.0930321
0.090604
-0.0181372
-0.0175117
-0.0885379
0.0866047
-0.0165829
-0.0165181
-0.085016
0.0835797
-0.0143423
-0.0146776
-0.0824451
0.0814708
-0.011716
-0.0123481
-0.0807568
0.0802128
-0.00889921
-0.00975616
-0.0798941
0.0797597
-0.00603795
-0.00705776
-0.0798208
0.0800786
-0.00327473
-0.0043837
-0.0804922
0.081092
-0.000793608
-0.00188344
-0.0817837
0.0826139
0.00117665
0.000244559
-0.0834552
0.0843676
0.00243579
0.00178444
-0.0852572
0.0856909
0.0028882
0.00263611
-0.086257
0.0875717
0.00212219
0.00245033
-0.0877578
0.0896498
0.00317099
0.00227233
0.00558725
0.00266772
-0.000885491
0.0910908
-0.00481652
0.0930868
0.0933146
0.000783923
-0.00275204
0.0881798
0.0894145
0.00432133
-0.00583499
0.0804523
0.0828911
0.00680708
-0.00702814
0.0775095
0.0766634
0.00661181
-0.00592061
0.0811133
0.07758
0.00531396
-0.00572962
0.084204
0.0816874
0.00535357
-0.00556031
0.0831504
0.0832021
0.00847703
-0.0106044
0.0817929
0.0832718
0.0199099
0.0934164
0.084524
0.0072056
-0.0089784
-0.0980873
-0.0990717
0.00483555
-0.0167383
0.0210158
-0.108565
-0.105767
-0.0139553
-0.0392924
-0.00766545
0.0413881
-0.0193749
-0.0918528
0.00551622
-0.0370193
-0.0100157
0.0396754
-0.0413189
0.0914126
-0.0738637
0.00790011
-0.00313037
0.0104872
0.0860595
0.00177257
0.0865096
-0.0314798
-0.01857
0.0390322
-0.0567794
-0.0242246
-0.0334184
0.040696
-0.0717981
-0.0171745
-0.0539125
0.0400511
-0.0859441
-0.012445
-0.0774092
0.0374045
-0.097944
-0.0103208
-0.092172
0.0318
-0.105898
-0.00613743
0.00423285
-0.0971671
-0.00784923
-0.0963755
0.0253372
-0.110173
-0.0145853
0.0177957
-0.111775
-0.0120785
-0.108274
-0.00799218
0.0783026
-0.0802234
-0.00321323
0.00317432
0.0813722
-0.0826139
-0.0052104
-0.00520505
0.0838916
-0.0843447
-0.00592856
-0.00538251
0.0854229
-0.0861238
-0.00649759
-0.00600454
0.0869652
-0.0878974
-0.00682968
-0.00645382
0.0888432
-0.0898612
-0.00680635
-0.00661794
0.0908558
-0.0918739
-0.00630519
-0.00638317
0.0928011
-0.0936585
-0.00519492
-0.00562367
0.0943251
-0.0947877
-0.00342496
-0.00423462
0.0949516
-0.0947803
-0.00117141
-0.00225872
0.0942691
-0.0933798
0.00105744
-2.29908e-05
0.0922267
-0.0907939
0.00255714
0.00186632
0.0892729
-0.0876531
0.00269042
0.00270623
0.0861518
-0.0847581
0.00125453
0.00207406
0.0836593
-0.082847
-0.00150248
9.42271e-08
0.0824256
-0.0823866
-0.00503446
-0.00310768
0.0827479
-0.0835303
-0.00872274
-0.00666505
0.0846464
-0.0858998
-0.0120181
-0.0101044
0.0883184
-0.0894726
-0.0143792
-0.012893
0.0917351
-0.0939155
-0.0147987
-0.0145317
0.0967246
-0.100265
-0.013178
-0.0145771
0.102301
-0.104496
-0.00988286
-0.0119195
-0.0987904
0.101967
0.0030483
0.0977735
-0.0969985
0.0034578
0.00381862
-0.102606
0.104242
0.00138393
0.00249844
-0.105851
0.10651
-0.00266871
-0.000524539
-0.106716
0.106103
-0.00747387
-0.00473395
-0.104931
0.10318
-0.0118956
-0.00928456
-0.101188
0.0988719
-0.0148832
-0.0128683
-0.0966065
0.0942367
-0.0161719
-0.0148777
-0.0920944
0.089983
-0.0160258
-0.0153694
-0.0881625
0.0864369
-0.0148573
-0.0146975
-0.0850007
0.0836858
-0.0130274
-0.0132414
-0.0826337
0.081717
-0.0107993
-0.011296
-0.0810326
0.0804957
-0.0083624
-0.00907171
-0.0801619
0.0799879
-0.00586396
-0.00672393
-0.079988
0.0801567
-0.00344343
-0.00438377
-0.080465
0.0809357
-0.00126435
-0.00219174
-0.0814954
0.0821836
0.00048847
-0.000315145
-0.0828902
0.083667
0.00165907
0.00107781
-0.0844256
0.0851313
0.00218249
0.00187747
-0.0855055
0.0855213
0.00210646
0.00207612
-0.0858936
0.0877057
0.00135882
0.00190006
0.00144021
0.00328017
-0.00149576
0.0913024
0.0928683
-0.00123139
0.000173571
0.0921486
0.0905874
0.000369513
-0.00144021
0.0892505
0.0899576
0.00289582
-0.00442515
0.0819817
0.0843467
0.00553831
-0.00596597
0.0779371
0.0777766
0.00570922
-0.00507071
0.0804748
0.0773233
0.00444203
-0.00398441
0.0837463
0.0810587
0.00370084
-0.00399479
0.0834443
0.0829185
0.00430505
-0.00620386
0.0836917
0.083582
0.0888074
0.00433219
-0.00540318
-0.0960961
-0.0958491
0.00318281
-0.0092502
0.0109756
-0.11
-0.106334
-0.0074128
-0.0418846
-0.00280015
0.0427039
-0.0224034
0.0868657
-0.0814897
0.00252405
0.0852278
0.00341053
-0.0378358
-0.00365967
0.0403576
-0.0426442
-0.0304301
-0.0123646
0.0410282
-0.0571116
-0.0218169
-0.0287759
0.0414022
-0.0731492
-0.0143129
-0.0520447
0.0396495
-0.0881891
-0.0103119
-0.0774181
0.0356841
-0.101828
-0.00869098
-0.0913302
0.0299574
-0.110518
-0.00638737
-0.0953913
0.021494
-0.113871
-0.00310562
0.00190619
-0.0946497
-0.00361365
-0.0955881
0.0132724
-0.114072
-0.0936947
0.0936902
0.00191066
-0.0028134
-0.0921093
0.00122802
-0.00227008
-0.095193
-0.00424768
0.0895286
-0.00524663
0.0071054
-0.111858
-0.00542831
-0.106152
-0.00717287
0.079969
-0.0812035
-0.00197869
0.00165363
0.0824725
-0.0829735
-0.00470943
-0.00393602
0.0835108
-0.0841245
-0.00531492
-0.00484518
0.0847688
-0.0854902
-0.00577623
-0.00536015
0.0862329
-0.0870448
-0.00601776
-0.00571117
0.0878583
-0.0887223
-0.00594241
-0.00580439
0.0895546
-0.0903946
-0.00546525
-0.00555083
0.0911481
-0.0918346
-0.00450845
-0.00487008
0.0923598
-0.0927171
-0.00306768
-0.00370944
0.0928367
-0.0926927
-0.00131539
-0.00213906
0.0922827
-0.0915746
0.000349272
-0.000433
0.0906529
-0.0895049
0.0014091
0.0009447
0.0882864
-0.0869897
0.00139374
0.00148772
0.0857936
-0.0846908
0.000151716
0.000877923
0.0838305
-0.0832053
-0.00212768
-0.000860163
0.0828975
-0.0829068
-0.00502519
-0.00341549
0.0832422
-0.08392
-0.00804493
-0.00632959
0.0848915
-0.0861978
-0.0107118
-0.00913295
0.0877176
-0.0895183
-0.0125785
-0.0113732
0.0913941
-0.0929344
-0.0132584
-0.0126558
0.0948617
-0.0961129
-0.0119269
-0.0126498
0.0975291
-0.0995921
-0.00781981
-0.0105033
0.101219
-0.102029
-0.00461809
-0.00578632
-0.0947853
0.0959972
0.00224598
0.00208772
-0.0979767
0.0993967
0.00162834
0.00183903
-0.100771
0.102073
8.17737e-05
0.0011241
-0.102923
0.10333
-0.00307557
-0.00137452
-0.103305
0.102751
-0.00692037
-0.00470869
-0.10178
0.100356
-0.0104708
-0.0083137
-0.0987319
0.0968309
-0.0129821
-0.0112446
-0.094953
0.0929646
-0.0141834
-0.0129999
-0.0911432
0.0893235
-0.0142061
-0.0135481
-0.087733
0.0862052
-0.0133296
-0.0131069
-0.0849174
0.0837238
-0.0118338
-0.0119536
-0.0827568
0.0819021
-0.0099447
-0.010329
-0.0812524
0.0807287
-0.00783872
-0.008422
-0.0803858
0.0801795
-0.00565771
-0.00638098
-0.080128
0.0802193
-0.00353473
-0.00433221
-0.0804341
0.0807865
-0.00161675
-0.00240658
-0.0812195
0.0817635
-5.55161e-05
-0.000748166
-0.0823306
0.0829597
0.00103
0.000510707
-0.0835511
0.0841474
0.00158623
0.00128605
-0.0846587
0.0851245
0.00164064
0.00156478
-0.0856385
0.0863649
0.000632381
0.00138613
-0.0861071
0.0899286
0.00169472
0.00169796
0.00449854
0.00136994
0.000234062
0.0896984
0.0899905
-0.000940872
0.000986855
0.0921027
0.0898806
-0.000667183
-0.000181714
0.0900994
0.0902773
0.00146727
-0.00294944
0.0834638
0.0856323
0.00416132
-0.00479514
0.0785709
0.0789885
0.00474623
-0.00423022
0.0799588
0.0772744
0.00362346
-0.00315282
0.0832757
0.080452
0.00287715
-0.00362466
0.0841919
0.0826429
0.00263472
-0.00327904
0.084336
0.0825921
-0.0022569
0.000859267
0.0874571
0.0832714
0.00374422
-0.0143702
0.0958537
0.0911131
-0.041744
0.00110808
0.042204
-0.0242499
0.00295627
-0.00323634
-0.101749
0.00243933
-0.105635
0.0856717
-0.0919153
-0.00812651
-0.0201677
0.0607977
0.0552237
0.0757017
-0.0101978
-0.0968796
0.0955369
-0.00327537
-0.0962313
-0.00388464
-0.0358316
0.0017418
0.0403823
-0.0419984
-0.0267912
-0.00739025
0.040945
-0.0566544
-0.0173633
-0.0257255
0.0397882
-0.0732878
-0.0101783
-0.0521783
0.0367419
-0.0892469
-0.00753506
-0.078574
0.0318049
-0.103676
-0.00642796
-0.0912897
0.0250158
-0.11404
-0.0042758
-0.0947291
0.0165403
-0.117139
0.000482611
-0.092235
-0.000356918
-0.091716
0.0914626
0.000736003
-0.000462724
-0.0918447
0.000591398
-0.0929919
0.000294153
-0.00219468
-0.0956635
0.00861043
-0.115577
-0.0952454
-0.000304485
0.00982425
-0.0214605
0.072434
-0.089584
0.00350681
-0.0124666
0.0775146
-0.0067129
0.0861128
-0.0840559
0.000467095
-0.00239198
0.0824742
-0.0816591
-0.00279372
7.19202e-05
0.0821978
-0.0826591
-0.00424813
-0.00339734
0.0831546
-0.0837097
-0.00475974
-0.00434972
0.0842895
-0.08493
-0.00513572
-0.00478041
0.085582
-0.0862865
-0.0053132
-0.00505918
0.086983
-0.0877122
-0.00521314
-0.00510798
0.088404
-0.0890907
-0.00477852
-0.00485905
0.0896957
-0.0902351
-0.00396897
-0.00426516
0.0906367
-0.0908972
-0.0028071
-0.00330791
0.0909676
-0.09083
-0.00145304
-0.0020687
0.0904852
-0.0899167
-0.000219219
-0.000777738
0.0891822
-0.0882754
0.000502214
0.000210217
0.0873178
-0.0863037
0.000379645
0.00053019
0.085373
-0.084521
-0.000700274
-5.28408e-05
0.0838636
-0.083397
-0.00259429
-0.00151753
0.0831866
-0.0832359
-0.0049759
-0.00362587
0.0835494
-0.0841475
-0.00744677
-0.00601614
0.0849812
-0.0860876
-0.00960544
-0.00829927
0.0873639
-0.0888598
-0.0110826
-0.0100969
0.0904372
-0.0921283
-0.0115672
-0.0110784
0.0937894
-0.094859
-0.0108573
-0.0109887
0.0956168
-0.0956299
-0.00780667
-0.00974554
-0.00587931
-0.0922526
0.093115
0.00104827
0.000438059
-0.0944204
0.0955836
0.00108272
0.000782329
-0.0965921
0.0977469
0.000473495
0.000830572
-0.0984914
0.0994478
-0.000874624
0.000379604
-0.100072
0.100372
-0.00337589
-0.00199851
-0.100287
0.0998116
-0.00644472
-0.00462383
-0.0990213
0.0978721
-0.0093217
-0.00752332
-0.0965571
0.095005
-0.01143
-0.00992961
-0.0934554
0.0917936
-0.0125216
-0.0114503
-0.0902503
0.088687
-0.0126429
-0.0120047
-0.0873026
0.0859562
-0.0119831
-0.0117225
-0.0848075
0.08373
-0.0107563
-0.0108049
-0.0828462
0.0820542
-0.00915265
-0.00944518
-0.0814414
0.0809345
-0.00733186
-0.00780918
-0.0805875
0.0803563
-0.0054265
-0.00603397
-0.0802621
0.0802884
-0.00356099
-0.00423802
-0.0804241
0.0806751
-0.0018677
-0.00254235
-0.0809985
0.0814152
-0.00047216
-0.0010716
-0.0818567
0.0823527
0.000533994
6.9143e-05
-0.082824
0.0833052
0.00110506
0.000814804
-0.0837218
0.08411
0.00125247
0.0011481
-0.0843817
0.0839497
0.00106431
0.00111448
-0.0847872
0.0861661
0.000315793
0.000860474
0.00108071
0.00390454
-0.00194796
0.0875721
0.0889998
-0.000244095
0.00113139
0.0888111
0.0877985
-0.0014599
0.0016634
0.0918992
0.0895521
-0.00155305
0.000956354
0.0906961
0.0903876
0.000119348
-0.00148859
0.0848331
0.086708
0.00273751
-0.00354462
0.0793781
0.0802374
0.0037178
-0.00337679
0.0796178
0.0774476
0.00284411
-0.00238536
0.0828169
0.0799193
0.00211709
-0.00199467
0.0840694
0.0823746
0.00194911
-0.00119082
0.0835777
0.0825465
-0.00031837
0.00480567
0.0829698
0.0817622
0.0744583
0.00178339
-0.111202
0.071224
-0.00798889
-0.000117534
-0.000498079
-0.101133
-0.0976221
0.00127328
-0.0392364
0.00451295
0.0402741
-0.0241417
-0.0313204
0.00627093
0.0389059
-0.0399593
-0.0209641
-0.00378945
0.0382688
-0.055135
-0.000912079
-0.105221
-0.0114242
-0.0244795
0.0355567
-0.0721026
-0.00535672
-0.0543566
0.031364
-0.0888061
-0.00444089
-0.0805611
0.0259019
-0.104562