/*--------------------------------*- C++ -*----------------------------------*\
  =========                 |
  \\      /  F ield         | OpenFOAM: The Open Source CFD Toolbox
   \\    /   O peration     | Website:  https://openfoam.org
    \\  /    A nd           | Version:  10
     \\/     M anipulation  |
\*---------------------------------------------------------------------------*/
FoamFile
{
    format      ascii;
    class       volVectorField;
    location    "13";
    object      U;
}
// * * * * * * * * * * * * * * * * * * * * * * * * * * * * * * * * * * * * * //

dimensions      [0 1 -1 0 0 0 0];

internalField   nonuniform List<vector> 
6397
(
(1.04781 -0.197752 9.03335e-21)
(1.05432 -0.212139 -4.12427e-20)
(1.17717 -0.0326586 0)
(1.18274 -0.0260672 -2.37493e-23)
(1.18491 -0.0263192 2.17976e-22)
(1.17932 -0.0349276 4.7195e-22)
(0.790832 -0.521318 -3.62561e-20)
(0.472052 -0.743375 9.61867e-20)
(-0.13706 -0.124509 1.67646e-20)
(-0.168875 -0.148726 -7.23484e-21)
(0.486064 0.662284 7.69591e-20)
(0.778371 0.678699 -1.06915e-20)
(0.532966 0.030193 -1.15737e-21)
(0.602972 0.0162014 -5.27333e-22)
(0.386503 0.0291625 2.06926e-21)
(-0.0108572 0.00254948 -7.24037e-20)
(0.091382 0.00768552 -3.96174e-20)
(-0.0465399 -0.00526953 3.51639e-20)
(0.32164 -0.0297964 5.43568e-20)
(0.444217 -0.211532 -1.6513e-19)
(0.543968 -0.0563532 -8.50788e-20)
(0.137203 -0.0657234 -9.80729e-20)
(-0.065009 -0.0857228 4.4745e-21)
(0.382205 -0.0580352 -7.08605e-20)
(0.740769 0.0170364 0)
(0.742648 0.014011 4.63023e-22)
(0.856112 0.018462 1.19041e-22)
(1.00934 -0.150443 -1.39549e-21)
(0.985495 -0.139358 3.74133e-22)
(0.966805 -0.13992 -8.14716e-22)
(0.948133 -0.131044 1.14231e-21)
(1.17672 -0.00936601 5.72093e-22)
(1.17336 -0.0150737 4.33958e-22)
(1.18721 -0.0190406 -1.54329e-21)
(1.13968 -0.000718966 1.32534e-22)
(1.13946 -0.00380627 0)
(1.15862 -0.00344613 -1.69129e-22)
(1.15731 -0.00789226 -3.73604e-22)
(1.11037 -0.00101112 2.23012e-22)
(1.11033 0.000744215 -9.69873e-23)
(1.12373 0.000382877 0)
(1.12296 -0.00198975 0)
(0.981872 -0.144042 4.12632e-22)
(1.08029 -0.0760149 5.53169e-22)
(1.07346 -0.080666 -6.60973e-22)
(1.17366 -0.0424505 1.14625e-21)
(1.1482 -0.0488763 5.13236e-22)
(1.14161 -0.0567169 -1.6311e-21)
(1.0926 0.00329315 1.37246e-22)
(1.0878 0.00176745 -1.99538e-23)
(1.08415 0.00229468 1.66688e-22)
(1.08058 0.000325625 -4.44002e-23)
(1.08245 0.00100887 -4.88991e-22)
(0.969205 0.185153 -8.71554e-21)
(1.01531 0.221432 5.75197e-21)
(1.03255 0.0502898 3.16727e-21)
(1.03812 0.0633247 3.27019e-21)
(1.15422 -0.048871 1.99268e-21)
(0.794507 0.0868619 7.22395e-22)
(0.821546 0.0343769 -7.15605e-22)
(0.782019 0.13485 -1.05642e-21)
(0.786104 0.173693 1.03612e-21)
(0.806719 0.201879 1.4439e-21)
(0.837794 0.222448 -1.41925e-21)
(0.869973 0.241647 0)
(0.892603 0.265531 -1.45602e-21)
(0.90118 0.295562 1.52586e-21)
(0.895151 0.327232 0)
(0.867994 0.00208699 1.9883e-22)
(0.854817 -0.0156048 1.93918e-23)
(0.913534 -0.0509209 -1.78394e-22)
(0.82315 0.061684 0)
(0.784807 0.121796 0)
(0.758418 0.17684 0)
(0.748158 0.221394 2.79182e-24)
(0.754434 0.253293 -6.49631e-25)
(0.773003 0.274269 0)
(0.79437 0.289536 1.57021e-25)
(0.80923 0.303723 0)
(0.808497 0.318449 0)
(0.955073 -0.0939129 3.00475e-22)
(0.891137 -0.0595963 -2.81662e-23)
(0.880866 0.353018 0)
(0.79275 0.329708 0)
(0.991405 -0.125821 9.19725e-23)
(0.925676 -0.0946055 0)
(0.857695 0.367915 0)
(0.761403 0.33138 0)
(1.02123 -0.147978 -8.59032e-22)
(0.957636 -0.121272 1.69897e-22)
(0.824676 0.366283 0)
(0.719656 0.316974 0)
(1.04653 -0.161085 7.85926e-22)
(1.06568 -0.167246 5.77343e-22)
(0.781822 0.345703 0)
(0.6663 0.282433 7.64079e-24)
(1.08188 -0.169717 0)
(1.11043 -0.177045 -1.08606e-21)
(1.09776 -0.176508 -6.36062e-23)
(1.02713 -0.127989 -2.41426e-23)
(1.05727 -0.153795 0)
(0.940822 -0.0407596 -5.80878e-23)
(0.987386 -0.0902448 2.51351e-23)
(0.835867 0.0828075 -4.80394e-23)
(0.888598 0.0186316 2.94652e-23)
(0.744705 0.205829 -2.79645e-24)
(0.784613 0.148015 4.63166e-23)
(0.702356 0.28559 1.11034e-22)
(0.715591 0.253371 4.68727e-22)
(0.699533 0.313926 5.4312e-22)
(0.698468 0.305509 -1.09225e-21)
(0.679027 0.309723 0)
(0.695296 0.315875 0)
(0.606722 0.264043 0)
(0.649192 0.294291 0)
(0.554852 0.217703 1.28109e-22)
(0.947912 0.386842 -3.72234e-22)
(0.900872 0.392624 -1.29015e-21)
(0.932051 0.398305 3.58533e-22)
(0.957438 0.331584 -9.05568e-22)
(0.957047 0.36296 8.84939e-22)
(0.954135 0.252719 -1.20511e-23)
(0.959968 0.292659 -4.32713e-23)
(0.920025 0.185948 0)
(0.944824 0.214495 0)
(0.853704 0.143439 -1.40233e-21)
(0.889147 0.16316 -2.01758e-22)
(0.811676 0.0872764 -2.20597e-22)
(0.826864 0.118907 1.39141e-21)
(0.826923 0.00731773 -4.37932e-22)
(0.812891 0.0489065 4.85064e-23)
(0.874683 -0.0672358 7.84008e-22)
(0.848148 -0.0322911 4.07108e-22)
(0.92568 -0.116368 0)
(0.900006 -0.0950448 -8.27585e-22)
(1.0812 -0.166721 6.94732e-22)
(1.02751 -0.154974 -1.97931e-23)
(1.11801 -0.171594 -3.20147e-22)
(0.493233 0.151226 -5.82957e-23)
(0.604531 0.226901 1.12191e-23)
(1.01302 0.4227 -1.76796e-23)
(0.856584 0.362286 1.29341e-21)
(0.987093 0.407259 0)
(0.427306 0.0639686 -1.15009e-23)
(0.424904 0.0916609 9.27447e-22)
(0.385165 0.00664838 -9.22065e-22)
(0.921942 -0.124222 -4.29259e-22)
(1.14252 -0.179478 5.37521e-22)
(1.14153 -0.169673 3.06524e-22)
(0.935908 -0.13131 -4.05186e-22)
(0.725556 0.301704 5.24586e-23)
(1.13287 -0.183099 0)
(1.13873 -0.183862 9.17481e-23)
(1.09896 -0.157013 6.1473e-24)
(1.11872 -0.174534 0)
(1.02851 -0.0869882 -3.78375e-23)
(1.06767 -0.12786 1.01289e-22)
(0.923238 0.0271513 0)
(0.977947 -0.033822 1.74615e-23)
(0.802463 0.157863 0)
(0.860924 0.0937847 1.39065e-24)
(0.701932 0.259376 0)
(0.746335 0.215572 -3.3389e-23)
(0.638266 0.30224 -1.89916e-24)
(0.664938 0.289311 -5.4906e-23)
(0.587335 0.288592 -4.74049e-23)
(0.613038 0.302892 8.35428e-23)
(0.514418 0.219616 4.31997e-23)
(0.553849 0.26154 2.61591e-23)
(0.47076 0.163686 -1.35619e-22)
(1.02741 0.392324 3.62438e-24)
(1.02568 0.415445 1.43077e-23)
(1.01259 0.323414 1.01403e-24)
(1.02231 0.360136 0)
(0.993224 0.242873 0)
(1.00284 0.284391 1.81276e-23)
(0.974371 0.162884 0)
(0.98563 0.201467 0)
(0.929798 0.107083 1.57778e-24)
(0.956137 0.131657 2.04698e-22)
(0.871416 0.0657403 1.61952e-22)
(0.899368 0.0871547 0)
(0.844255 0.0119324 5.83765e-22)
(0.85201 0.0411841 0)
(0.85714 -0.0488513 -2.83616e-23)
(0.846289 -0.0192125 -5.84804e-22)
(0.889364 -0.0970334 -9.7019e-25)
(0.87176 -0.0754858 -1.06772e-22)
(0.906229 -0.113273 4.23024e-22)
(1.08774 -0.161577 -1.48719e-22)
(1.04069 -0.154586 0)
(1.13704 -0.158756 -1.62922e-22)
(1.11806 -0.162659 1.53718e-22)
(0.94592 0.363951 0)
(0.79483 0.302697 0)
(0.527538 0.143119 -2.79441e-22)
(0.457853 0.0588098 1.61254e-22)
(0.453898 -0.0121525 0)
(0.358824 -0.0847637 6.16987e-23)
(0.365287 -0.0401658 -1.03755e-22)
(1.08682 0.40574 0)
(0.885354 0.290977 0)
(1.05057 0.350979 -3.9673e-21)
(0.992642 -0.144398 -3.95893e-22)
(0.948074 -0.135033 0)
(1.13176 -0.146358 3.35021e-22)
(1.14641 -0.151561 2.41429e-24)
(1.13807 -0.138573 -7.52119e-22)
(0.935436 -0.115841 0)
(0.923986 -0.108368 4.31971e-22)
(0.651943 0.227643 0)
(1.16246 -0.174964 -5.29009e-23)
(1.15505 -0.163387 0)
(1.17108 -0.18728 -8.71769e-25)
(1.16813 -0.182988 2.41236e-24)
(1.16164 -0.176478 -7.1928e-24)
(1.16971 -0.185679 0)
(1.11815 -0.126867 4.77132e-25)
(1.14458 -0.157214 -1.87702e-23)
(1.03034 -0.0307735 -7.05281e-25)
(1.07853 -0.0839441 -3.50232e-23)
(0.906518 0.094592 3.01014e-23)
(0.970194 0.0309522 0)
(0.775505 0.205932 0)
(0.838535 0.155511 -3.06775e-23)
(0.665175 0.262967 3.92892e-23)
(0.715436 0.243395 -1.43243e-23)
(0.579856 0.253167 0)
(0.618701 0.267211 6.17552e-24)
(0.507911 0.181575 9.02061e-23)
(0.541586 0.224942 -1.61231e-22)
(0.477954 0.125671 -4.01056e-22)
(1.10566 0.43138 -1.97787e-22)
(1.10338 0.430841 1.77042e-24)
(1.08347 0.384039 -3.85161e-23)
(1.09752 0.413455 2.6184e-22)
(1.05048 0.309805 4.74041e-23)
(1.06697 0.348428 6.86242e-23)
(1.02088 0.232218 0)
(1.03455 0.271149 -1.38044e-22)
(1.00335 0.15417 0)
(1.01068 0.193171 0)
(0.984409 0.0863585 -3.01787e-24)
(0.995788 0.117799 0)
(0.945424 0.03987 0)
(0.967006 0.0608911 0)
(0.90521 0.000368546 0)
(0.922928 0.0203462 0)
(0.889731 -0.0435876 -2.88021e-22)
(0.892814 -0.0216789 0)
(0.9002 -0.0835874 9.6088e-25)
(0.891437 -0.0653507 2.94273e-22)
(0.910256 -0.0988038 -5.00236e-22)
(1.09172 -0.153054 -1.90441e-22)
(1.04918 -0.15034 3.70792e-22)
(1.11683 -0.151621 -3.57496e-22)
(0.47013 -0.0792925 -1.9734e-21)
(0.717334 0.212758 0)
(0.448237 0.036998 3.2435e-22)
(0.996237 0.268413 4.27758e-21)
(0.80751 0.190409 0)
(0.354223 -0.172801 -6.80772e-23)
(0.313618 -0.151193 8.489e-23)
(1.12615 -0.133003 -1.12755e-23)
(1.13009 -0.125416 -1.47575e-23)
(1.00273 -0.141781 -3.51177e-22)
(0.961672 -0.13565 -3.55793e-22)
(0.974282 -0.0951889 -4.62231e-22)
(0.98402 -0.100042 0)
(1.14865 -0.142109 -6.05799e-23)
(1.13847 -0.129647 -9.73598e-23)
(0.516642 -0.134815 1.97926e-21)
(0.586007 -0.175368 1.98266e-22)
(0.379381 -0.247167 1.00464e-21)
(0.946617 -0.119863 2.85698e-23)
(0.568682 0.126614 0)
(1.17123 -0.16508 -6.07939e-23)
(1.15957 -0.15357 2.54027e-22)
(1.19331 -0.181141 3.58683e-23)
(1.18256 -0.174276 -1.03584e-22)
(1.20608 -0.181231 0)
(1.20172 -0.18397 0)
(1.19316 -0.150929 -8.32728e-26)
(1.2039 -0.170908 -2.29295e-29)
(1.13791 -0.0779029 6.98969e-25)
(1.17151 -0.119924 0)
(1.03618 0.0304746 0)
(1.09212 -0.0264338 -4.44032e-29)
(0.906391 0.139683 0)
(0.972824 0.0880347 0)
(0.779121 0.206315 0)
(0.840401 0.180474 0)
(0.67785 0.208615 0)
(0.724002 0.215878 0)
(0.615032 0.152103 0)
(0.64046 0.186673 0)
(0.610703 0.0607348 3.79785e-22)
(0.603603 0.108248 0)
(0.682603 -0.0249588 0)
(0.639941 0.0152799 7.13831e-24)
(0.798215 -0.0980856 0)
(0.744591 -0.0600308 5.4346e-22)
(1.20219 0.421736 -7.39678e-22)
(1.16797 0.323734 -1.40554e-21)
(1.19545 0.386901 7.42857e-22)
(1.17312 0.418342 7.31229e-23)
(1.19321 0.430071 -1.76974e-24)
(1.12103 0.361949 -1.09572e-23)
(1.14784 0.393859 -1.11863e-22)
(1.07374 0.291033 1.48985e-25)
(1.09597 0.32715 0)
(1.03974 0.219312 0)
(1.0551 0.254979 0)
(1.02037 0.148123 0)
(1.02808 0.183843 0)
(1.01296 0.079384 1.18729e-25)
(1.01601 0.112874 0)
(1.00078 0.0239256 0)
(1.00845 0.049495 0)
(0.977113 -0.0160812 0)
(0.98965 0.00239602 0)
(0.957602 -0.0490292 -1.61621e-22)
(0.965503 -0.0331268 1.68094e-22)
(0.956045 -0.0775656 -1.35301e-22)
(0.953663 -0.0645183 1.86214e-23)
(0.962457 -0.0886151 6.52205e-22)
(1.09135 -0.142185 2.47659e-22)
(1.05244 -0.143158 3.75722e-22)
(1.11425 -0.138914 0)
(0.920346 0.162928 0)
(1.11909 0.235775 1.28187e-21)
(0.670361 -0.207976 -1.5526e-21)
(0.846246 -0.146794 0)
(0.628197 0.0992749 0)
(0.368053 -0.0844799 0)
(1.12921 -0.117287 0)
(0.957023 -0.121689 8.02751e-22)
(1.04519 -0.0851626 -3.61831e-22)
(1.05391 -0.0863785 0)
(0.715938 0.070613 2.62191e-22)
(0.281044 -0.259204 -1.683e-23)
(1.04861 0.131964 1.00561e-21)
(0.827875 0.0434246 -3.1219e-22)
(0.441315 -0.299944 -1.21308e-21)
(0.747823 -0.246072 4.99537e-22)
(0.87955 -0.208305 0)
(0.995485 -0.101154 -8.26537e-22)
(0.477586 0.00395745 0)
(1.14616 -0.131088 2.46845e-22)
(1.12566 -0.108774 1.82972e-22)
(1.13523 -0.119896 6.59079e-22)
(1.1716 -0.152007 7.91668e-23)
(1.15815 -0.14172 -2.36471e-22)
(1.201 -0.16835 0)
(1.18582 -0.160831 -4.6924e-23)
(1.229 -0.174183 -4.35068e-30)
(1.2157 -0.173107 4.52394e-30)
(1.24341 -0.158245 -1.60371e-25)
(1.23893 -0.169782 0)
(1.22609 -0.107519 0)
(1.23983 -0.137744 0)
(1.16333 -0.0211279 -5.06917e-25)
(1.20058 -0.067814 4.44033e-29)
(1.06188 0.0774776 1.50217e-29)
(1.11596 0.0290364 -1.55961e-29)
(0.9484 0.149028 0)
(1.0045 0.118893 0)
(0.855474 0.168395 -2.10271e-24)
(0.897483 0.165686 0)
(0.808388 0.139714 3.19487e-24)
(0.824968 0.158826 0)
(0.822049 0.0866535 1.32713e-22)
(0.807188 0.114443 0)
(0.877395 0.0234901 -1.08034e-21)
(0.846328 0.0570448 -2.82804e-22)
(0.924375 -0.0687639 -8.85432e-22)
(0.906146 -0.0177761 5.31921e-22)
(0.958802 -0.186374 -8.91036e-22)
(0.941731 -0.126127 8.83426e-22)
(1.30385 0.348872 1.02153e-21)
(1.2461 0.197044 -2.49885e-22)
(1.28664 0.282382 -1.14582e-21)
(1.27901 0.408039 9.62098e-22)
(1.30018 0.39074 -6.57337e-22)
(1.21115 0.388221 -1.63868e-22)
(1.24747 0.405346 -2.17973e-22)
(1.14269 0.333038 0)
(1.17559 0.362852 2.09055e-22)
(1.0897 0.269403 8.91722e-25)
(1.11405 0.301517 1.5891e-29)
(1.0538 0.20542 0)
(1.06978 0.237339 0)
(1.03326 0.141886 1.09871e-24)
(1.04162 0.17371 0)
(1.02775 0.0785568 1.3591e-24)
(1.02877 0.110039 0)
(1.03018 0.0212541 0)
(1.02866 0.0486035 0)
(1.02944 -0.0228918 0)
(1.03024 -0.00260406 0)
(1.02566 -0.054188 0)
(1.02678 -0.0399987 0)
(1.02793 -0.0753248 0)
(1.02471 -0.0662295 -9.57909e-24)
(1.03353 -0.0823023 2.43103e-22)
(0.962814 0.0230488 -1.32254e-21)
(1.18724 0.102646 0)
(0.90623 -0.27674 -1.28685e-22)
(0.984562 -0.245226 1.08279e-21)
(1.0014 -0.101785 0)
(1.06792 -0.0834148 1.79616e-22)
(0.96857 -0.119577 3.2604e-22)
(1.01133 -0.0987011 -2.8622e-22)
(1.00585 -0.135942 -1.97292e-22)
(0.969459 -0.132685 2.29548e-23)
(1.08854 -0.130301 -3.60069e-24)
(1.05225 -0.134019 1.73762e-22)
(1.12007 -0.119844 3.17937e-22)
(1.10976 -0.125806 -4.42732e-23)
(1.12134 -0.105442 0)
(1.12283 -0.112787 -2.91126e-22)
(1.11749 -0.0979856 -3.06696e-22)
(0.53102 -0.0303457 -2.64338e-22)
(0.293973 -0.212588 -1.64745e-28)
(0.611935 -0.0595724 3.13416e-22)
(0.279503 -0.35173 0)
(0.724468 -0.0765328 0)
(0.52996 -0.331641 0)
(1.11174 0.00939758 2.6668e-22)
(0.865007 -0.0805343 2.03432e-23)
(0.799977 -0.304084 1.01131e-21)
(1.01652 -0.301524 -2.18861e-24)
(0.940821 -0.339882 4.00167e-22)
(1.12068 -0.10025 -2.47851e-22)
(1.11244 -0.0906683 2.44078e-22)
(0.384901 -0.130009 -6.42647e-28)
(1.14096 -0.119703 -3.76952e-24)
(1.13001 -0.110122 1.18442e-22)
(1.1667 -0.13757 4.03558e-23)
(1.15297 -0.129032 0)
(1.19825 -0.151977 -1.8698e-29)
(1.18172 -0.145492 -4.71098e-23)
(1.23316 -0.158803 0)
(1.21551 -0.156746 0)
(1.26444 -0.150528 -2.29626e-25)
(1.24992 -0.157204 0)
(1.27798 -0.11651 0)
(1.2745 -0.137345 0)
(1.25715 -0.0513792 7.58591e-25)
(1.2726 -0.0875187 0)
(1.19701 0.0318807 -9.8563e-26)
(1.23123 -0.0104202 0)
(1.11573 0.10399 0)
(1.15731 0.0714722 0)
(1.04197 0.139206 1.71573e-25)
(1.07611 0.126919 0)
(0.998511 0.134571 -3.0712e-25)
(1.01572 0.141343 0)
(0.988113 0.0985768 -3.47369e-24)
(0.990152 0.120071 2.2673e-28)
(0.990181 0.0330909 5.0685e-25)
(0.989111 0.0698196 0)
(0.992535 -0.0617312 1.1574e-22)
(0.990599 -0.0111956 -4.41314e-22)
(1.01345 -0.168713 1.0014e-22)
(0.999745 -0.115117 9.6735e-22)
(1.06384 -0.268724 -1.0514e-22)
(1.03525 -0.22005 -5.98937e-22)
(1.39185 0.229245 3.15413e-22)
(1.32134 0.0706895 -2.85835e-22)
(1.3658 0.151484 0)
(1.38397 0.341083 -1.29393e-22)
(1.39809 0.294724 3.23635e-22)
(1.31236 0.373622 -6.43855e-23)
(1.35316 0.36703 -1.80175e-23)
(1.22595 0.349152 8.18007e-25)
(1.2688 0.366014 -2.37033e-23)
(1.15321 0.301937 0)
(1.18716 0.327036 0)
(1.10041 0.247751 -3.78893e-25)
(1.12448 0.275292 1.80815e-29)
(1.06491 0.191654 -8.18715e-29)
(1.08074 0.219813 8.666e-29)
(1.04409 0.135278 -1.53539e-25)
(1.05276 0.163501 0)
(1.03757 0.0789638 0)
(1.039 0.107091 0)
(1.04375 0.0253214 -1.11993e-24)
(1.03934 0.0514909 0)
(1.05587 -0.0195379 0)
(1.04937 0.00145089 0)
(1.06848 -0.0514989 -1.0432e-24)
(1.06188 -0.0372262 0)
(1.08246 -0.0701942 1.91245e-24)
(1.07457 -0.0626111 -8.95311e-24)
(1.10273 -0.0755567 3.22668e-22)
(1.09119 -0.0746891 0)
(1.12627 -0.0690424 1.20846e-21)
(1.11369 -0.073785 -9.56048e-22)
(1.13579 -0.0629364 -2.11397e-23)
(0.982084 -0.112411 0)
(1.08894 -0.0688747 2.56365e-22)
(1.02323 -0.0923594 3.55049e-23)
(1.00559 -0.128267 0)
(0.977069 -0.125447 0)
(1.08379 -0.117883 1.60238e-22)
(1.04784 -0.124206 3.97114e-29)
(1.11441 -0.1062 -7.47479e-23)
(1.10505 -0.112175 -2.77908e-22)
(1.11447 -0.0935866 0)
(1.11649 -0.0999678 2.12267e-22)
(1.02988 -0.0734085 -4.20479e-24)
(1.26683 -0.00510579 2.24117e-22)
(1.05561 -0.355237 -1.35971e-21)
(1.10017 -0.313213 -2.57162e-21)
(1.10587 -0.0811728 2.35733e-22)
(1.11059 -0.0872784 -1.15618e-22)
(0.425923 -0.167235 -1.42691e-26)
(0.235394 -0.334617 0)
(0.501233 -0.187271 0)
(0.315523 -0.415886 -4.86041e-28)
(0.613239 -0.186889 -3.3594e-24)
(0.619488 -0.360228 1.89624e-23)
(0.762294 -0.16885 6.2658e-24)
(0.835152 -0.373916 0)
(1.20534 -0.0704412 1.44664e-21)
(0.943333 -0.139236 -6.47036e-24)
(0.981739 -0.398015 -5.61584e-22)
(1.14384 -0.351663 2.72021e-21)
(1.10059 -0.402782 1.45188e-22)
(1.38425 -0.0252059 -1.35033e-21)
(1.14544 -0.118871 -1.4481e-21)
(1.34425 -0.0748415 -9.46731e-22)
(1.19454 -0.38459 3.54748e-21)
(1.1684 -0.305501 -3.17e-21)
(1.21379 -0.330613 -9.22324e-22)
(1.1008 -0.0751084 9.96821e-23)
(1.10009 -0.0716848 0)
(1.09509 -0.0670134 -1.1666e-22)
(0.293343 -0.2649 -6.06698e-28)
(1.11518 -0.0920365 5.4089e-23)
(1.10691 -0.083663 2.08427e-22)
(1.13462 -0.108736 -1.08419e-22)
(1.12381 -0.100541 -5.34899e-23)
(1.1593 -0.1236 0)
(1.14584 -0.116516 0)
(1.18987 -0.135237 0)
(1.17365 -0.130075 0)
(1.22535 -0.14058 0)
(1.20696 -0.13899 0)
(1.26223 -0.134672 0)
(1.2439 -0.139472 0)
(1.29171 -0.110199 8.25898e-30)
(1.27861 -0.125232 -8.5814e-30)
(1.29997 -0.0615541 -2.51662e-25)
(1.29933 -0.0889161 -1.42748e-29)
(1.27604 0.00558501 9.85625e-26)
(1.29218 -0.0291926 0)
(1.22544 0.0712926 0)
(1.25293 0.0402651 0)
(1.16703 0.112432 1.32326e-25)
(1.19594 0.0959609 0)
(1.11688 0.118268 -3.353e-25)
(1.1404 0.119923 0)
(1.07823 0.0883019 3.47355e-24)
(1.09642 0.107589 0)
(1.04798 0.0253482 6.42013e-24)
(1.06194 0.0606049 1.91034e-28)
(1.03461 -0.061273 2.43894e-22)
(1.03833 -0.0161324 0)
(1.04926 -0.153238 -1.07499e-22)
(1.03787 -0.10768 -3.32281e-22)
(1.09514 -0.237863 -8.04512e-23)
(1.06874 -0.196926 2.25001e-22)
(1.12883 -0.274347 2.72658e-21)
(1.44861 0.101049 -8.59161e-22)
(1.4211 0.0348401 2.11507e-21)
(1.4591 0.229353 -2.83454e-24)
(1.4626 0.168451 -9.77679e-23)
(1.40331 0.30938 -6.57176e-22)
(1.4385 0.27748 7.01114e-22)
(1.31364 0.328447 -1.37974e-24)
(1.36017 0.325416 1.83003e-23)
(1.22706 0.309322 -8.17218e-25)
(1.26857 0.322158 -4.87409e-28)
(1.1583 0.271975 0)
(1.19032 0.292123 0)
(1.10783 0.226665 1.24007e-29)
(1.13097 0.249943 -1.31228e-29)
(1.07326 0.17809 0)
(1.08873 0.202634 0)
(1.05263 0.128399 -1.48308e-25)
(1.06131 0.15332 0)
(1.04509 0.078769 0)
(1.04722 0.10354 0)
(1.05044 0.030937 1.11993e-24)
(1.04622 0.0544608 0)
(1.06587 -0.0109856 0)
(1.05711 0.00892735 0)
(1.08653 -0.0421787 1.03411e-25)
(1.07568 -0.0281645 2.61482e-28)
(1.10911 -0.0600405 -1.85936e-24)
(1.09738 -0.0529394 0)
(1.13303 -0.0643703 0)
(1.12053 -0.0640326 -1.02623e-25)
(1.15636 -0.0568046 -3.16619e-22)
(1.14482 -0.0616973 -6.94313e-25)
(1.16667 -0.0492929 -2.74428e-22)
(1.10358 -0.0575315 3.68917e-22)
(1.15661 -0.0390158 -2.09126e-22)
(0.998578 -0.100733 0)
(1.04318 -0.0799266 0)
(1.00453 -0.118737 1.67298e-26)
(0.985195 -0.115046 3.34815e-29)
(1.07678 -0.105864 1.92925e-26)
(1.04151 -0.113941 3.73686e-29)
(1.10895 -0.0929193 1.65207e-23)
(1.09903 -0.0988509 6.85628e-29)
(1.10898 -0.0820679 1.16092e-22)
(1.11107 -0.0874264 -8.33355e-23)
(1.10492 -0.0767424 -6.74541e-24)
(0.32231 -0.295921 2.90399e-26)
(0.20322 -0.435445 -1.23067e-27)
(0.388581 -0.300032 0)
(0.382725 -0.451265 1.08917e-27)
(0.500635 -0.276452 3.71313e-24)
(0.690926 -0.401618 -1.89923e-23)
(0.659222 -0.233438 -1.81665e-23)
(0.865019 -0.440415 5.66235e-23)
(0.860397 -0.182171 -2.14574e-23)
(1.02881 -0.449943 0)
(1.30414 -0.110663 1.03381e-21)
(1.09122 -0.147744 0)
(1.15318 -0.442003 1.19478e-21)
(1.26472 -0.34748 -7.67709e-21)
(1.25142 -0.407467 -3.28248e-21)
(1.39302 -0.074837 -1.13305e-23)
(1.26845 -0.130938 6.27863e-22)
(1.36072 -0.0962031 6.9522e-24)
(1.31896 -0.354127 -1.69191e-21)
(1.26315 -0.294152 -5.25939e-21)
(1.30948 -0.29763 -7.66611e-21)
(1.09551 -0.0620359 0)
(1.09085 -0.0582295 -3.42918e-22)
(1.09591 -0.0691514 1.79251e-22)
(1.08935 -0.061861 -1.87332e-22)
(0.213223 -0.387024 3.64529e-27)
(1.10951 -0.0840645 -9.25404e-23)
(1.10119 -0.0769258 -1.02821e-22)
(1.12776 -0.0982068 1.18856e-23)
(1.1173 -0.0914259 -4.88721e-23)
(1.15075 -0.11041 -1.79847e-25)
(1.13807 -0.104711 1.87055e-28)
(1.17899 -0.119409 0)
(1.16392 -0.115573 0)
(1.21193 -0.122734 0)
(1.19474 -0.122037 0)
(1.24748 -0.116904 2.28276e-25)
(1.22949 -0.121279 0)
(1.28019 -0.0971117 0)
(1.26463 -0.109069 0)
(1.30028 -0.0595245 0)
(1.29249 -0.0806028 0)
(1.29687 -0.00663181 0)
(1.30199 -0.0343488 0)
(1.26674 0.0477621 0)
(1.28471 0.0215488 0)
(1.21908 0.0851361 1.7988e-24)
(1.24427 0.0696394 0)
(1.16599 0.0925337 -3.22384e-25)
(1.19256 0.0930006 5.66409e-28)
(1.11604 0.0663903 0)
(1.1402 0.083536 0)
(1.0771 0.0107992 -5.50398e-25)
(1.09452 0.0416805 -1.91034e-28)
(1.06057 -0.0622515 2.2707e-24)
(1.06547 -0.0246289 5.5479e-28)
(1.07278 -0.138968 5.47464e-23)
(1.06293 -0.100886 2.22305e-25)
(1.11327 -0.208777 2.83091e-23)
(1.08964 -0.175363 -8.34452e-23)
(1.17902 -0.263414 1.19036e-21)
(1.14336 -0.238347 -7.19945e-22)
(1.21919 -0.282364 5.85791e-21)
(1.45262 0.00309505 -1.56084e-22)
(1.42481 -0.0407006 1.87747e-23)
(1.48078 0.109844 2.38589e-23)
(1.47264 0.0546884 0)
(1.45599 0.209305 2.80275e-24)
(1.47549 0.163019 9.90057e-23)
(1.3856 0.268803 0)
(1.4247 0.245008 0)
(1.30004 0.285639 2.31763e-25)
(1.34291 0.281809 0)
(1.222 0.273303 0)
(1.25938 0.282242 0)
(1.1591 0.24423 0)
(1.18858 0.260251 0)
(1.11189 0.206592 -6.93539e-26)
(1.13365 0.226137 0)
(1.07894 0.164882 0)
(1.09377 0.186082 0)
(1.05883 0.121458 -7.96862e-25)
(1.06737 0.143296 0)
(1.05068 0.0778925 -7.86877e-25)
(1.05329 0.0996292 0)
(1.0542 0.03589 -8.49819e-25)
(1.051 0.0565788 5.33399e-29)
(1.06827 -0.00158585 -8.62596e-25)
(1.06003 0.0163752 -4.78275e-28)
(1.08975 -0.0304506 1.06481e-25)
(1.07828 -0.0173159 0)
(1.11462 -0.0476463 0)
(1.10186 -0.0406323 0)
(1.13956 -0.0522988 0)
(1.12724 -0.0515841 1.02799e-25)
(1.16145 -0.0459356 2.87746e-22)
(1.15105 -0.0502121 6.81971e-25)
(1.1706 -0.0393932 -2.52264e-22)
(1.1904 -0.016779 0)
(1.19058 -0.0115816 6.10035e-22)
(1.12141 -0.0427899 -1.83155e-22)
(1.16732 -0.0268267 -4.8163e-23)
(1.01675 -0.0856515 -2.0532e-26)
(1.06465 -0.0640517 -4.26738e-29)
(1.00419 -0.107285 -3.13686e-26)
(0.994906 -0.10171 -5.84412e-29)
(1.06832 -0.0942249 6.79985e-29)
(1.0345 -0.103139 -6.91397e-29)
(1.10345 -0.0796841 3.13203e-23)
(1.09207 -0.0859868 -6.48569e-29)
(1.10434 -0.0703446 -1.15571e-22)
(1.10624 -0.0746992 -3.19153e-23)
(1.10033 -0.0661418 -1.09376e-22)
(0.222696 -0.406745 0)
(0.202849 -0.505008 6.26782e-28)
(0.278016 -0.388965 0)
(0.464174 -0.469716 -4.01174e-26)
(0.390156 -0.338326 -4.38925e-24)
(0.728737 -0.459068 -5.58179e-25)
(0.561535 -0.269865 1.14187e-23)
(0.900994 -0.491944 4.4919e-24)
(0.7862 -0.199844 3.11805e-23)
(1.07459 -0.492895 1.39454e-23)
(1.0479 -0.158712 0)
(1.21057 -0.467783 2.55752e-21)
(1.32938 -0.106024 4.01137e-22)
(1.24045 -0.136449 -7.73205e-22)
(1.31105 -0.417659 -1.44307e-22)
(1.35656 -0.290796 8.08916e-21)
(1.37451 -0.347654 9.74862e-21)
(1.0872 -0.0552506 3.70935e-23)
(0.150655 -0.484711 -7.15819e-27)
(1.09022 -0.0628433 -1.80747e-22)
(1.08018 -0.0476447 9.98259e-22)
(1.08534 -0.0576033 -6.15162e-22)
(1.10356 -0.0763843 2.4714e-23)
(1.09634 -0.0706238 1.68297e-22)
(1.12065 -0.0883649 -1.18703e-23)
(1.11129 -0.0829018 2.19111e-23)
(1.14191 -0.098385 -4.55358e-23)
(1.13038 -0.0937948 4.07525e-23)
(1.16735 -0.105105 -3.39869e-25)
(1.15387 -0.102352 1.74813e-28)
(1.19665 -0.106639 -3.21138e-25)
(1.18145 -0.106728 -1.60969e-28)
(1.22814 -0.100441 7.80943e-26)
(1.21221 -0.104731 0)
(1.25792 -0.0833269 0)
(1.24355 -0.093446 0)
(1.27903 -0.0531324 -4.33838e-25)
(1.27006 -0.0698669 0)
(1.28268 -0.0118666 2.75734e-28)
(1.2835 -0.0334719 -2.86285e-28)
(1.26346 0.0308664 4.69602e-28)
(1.2759 0.0102329 -4.87397e-28)
(1.22469 0.0606884 -7.22632e-28)
(1.24597 0.0482829 7.49758e-28)
(1.17581 0.0660716 -4.15032e-24)
(1.2008 0.066859 9.96349e-28)
(1.12784 0.0434059 2.06743e-24)
(1.15099 0.0581184 1.13644e-27)
(1.09192 -0.00311382 -4.91713e-25)
(1.10769 0.0225752 0)
(1.07739 -0.0634827 1.29305e-24)
(1.08163 -0.0323705 8.53281e-28)
(1.08803 -0.126709 6.36918e-25)
(1.07955 -0.0953693 0)
(1.12334 -0.183864 -1.01634e-22)
(1.10278 -0.156696 0)
(1.18055 -0.227213 -7.39729e-22)
(1.14941 -0.207767 7.28747e-22)
(1.25314 -0.248321 0)
(1.21545 -0.240711 -1.24169e-22)
(1.33118 -0.241513 -6.8551e-21)
(1.29207 -0.248632 6.52415e-21)
(1.40138 -0.0459524 -7.85527e-23)
(1.34477 -0.0750747 -3.82629e-22)
(1.3735 -0.0650327 3.69708e-22)
(1.44533 0.0195943 -2.50573e-23)
(1.42642 -0.0171654 -3.19064e-24)
(1.45449 0.106159 0)
(1.45533 0.0619966 0)
(1.4206 0.183517 1.7111e-24)
(1.44273 0.14759 0)
(1.35543 0.231632 0)
(1.39044 0.211723 0)
(1.28147 0.248252 1.14788e-24)
(1.3184 0.243498 0)
(1.21334 0.240972 0)
(1.24617 0.246999 0)
(1.15705 0.218675 0)
(1.1836 0.231228 0)
(1.1138 0.187819 7.94653e-26)
(1.13385 0.204028 0)
(1.08295 0.152324 0)
(1.09692 0.170488 0)
(1.06354 0.114608 -5.28177e-28)
(1.07188 0.133639 5.59211e-28)
(1.05489 0.0764648 7.86203e-25)
(1.05792 0.095507 7.14401e-28)
(1.05657 0.0396817 1.5722e-24)
(1.05447 0.0578008 7.4437e-28)
(1.06785 0.00669789 1.18504e-25)
(1.0611 0.022558 0)
(1.08668 -0.0192612 8.33923e-25)
(1.07651 -0.00732693 -8.15705e-28)
(1.10958 -0.0355006 7.21748e-28)
(1.09786 -0.0286788 -7.65367e-28)
(1.13264 -0.0410213 0)
(1.12146 -0.0395553 0)
(1.15205 -0.0368424 -4.8687e-23)
(1.14313 -0.0398578 7.51255e-23)
(1.16517 -0.0264186 0)
(1.15995 -0.0320383 -8.58143e-24)
(1.17017 -0.0207316 0)
(1.19526 -0.00628607 0)
(1.178 -0.00338204 -2.42416e-23)
(1.19257 -0.00365019 -1.72722e-22)
(1.13905 -0.0264923 1.70903e-23)
(1.17818 -0.0131715 3.6518e-23)
(1.03619 -0.0680552 4.72291e-27)
(1.086 -0.0463052 0)
(1.00579 -0.0938178 1.46633e-26)
(1.00676 -0.0857503 0)
(1.05921 -0.0829403 0)
(1.02814 -0.0915534 0)
(1.09793 -0.067005 -3.58121e-27)
(1.08432 -0.0738739 0)
(1.10073 -0.0588243 0)
(1.10212 -0.0623295 0)
(1.0916 -0.0524144 0)
(1.09666 -0.055579 -4.60479e-23)
(1.08173 -0.0475423 0)
(1.08641 -0.0493875 7.82264e-23)
(1.3019 -0.103481 -6.14675e-22)
(1.31767 -0.0746217 0)
(1.40203 -0.273015 -6.96913e-22)
(1.3679 -0.226136 -4.93896e-22)
(0.135448 -0.488427 1.90429e-25)
(0.233071 -0.540392 0)
(1.15463 -0.0123853 0)
(0.175841 -0.445337 5.9658e-25)
(0.529263 -0.48889 2.43593e-26)
(1.07691 -0.0449124 1.98133e-22)
(1.07885 -0.0400724 0)
(1.07448 -0.0377201 0)
(0.288256 -0.36669 1.2621e-24)
(0.746059 -0.51442 1.64751e-24)
(0.47473 -0.27565 0)
(0.936265 -0.526768 -1.29513e-23)
(0.727848 -0.193304 0)
(1.11792 -0.517393 0)
(1.02204 -0.153501 0)
(1.26807 -0.475195 -8.74364e-22)
(1.21986 -0.128246 3.07414e-22)
(1.37146 -0.408815 -3.55003e-22)
(1.29479 -0.0670442 0)
(1.2792 -0.0907655 2.1101e-22)
(1.4272 -0.326582 7.09378e-21)
(1.44205 -0.243739 -1.14674e-20)
(1.40028 -0.202293 9.49206e-21)
(0.112613 -0.547997 4.76224e-27)
(1.08591 -0.0579269 8.10094e-23)
(1.0805 -0.0515186 0)
(1.09841 -0.0694801 -2.01468e-23)
(1.09146 -0.0640941 -3.77059e-23)
(1.1141 -0.0794082 0)
(1.10558 -0.0748448 1.95051e-23)
(1.13339 -0.0874777 0)
(1.12312 -0.0839042 5.66079e-24)
(1.15602 -0.0924492 3.39701e-25)
(1.14419 -0.0905657 0)
(1.18152 -0.0926623 6.58816e-25)
(1.16841 -0.093315 0)
(1.20835 -0.0862883 4.25175e-26)
(1.19487 -0.0904497 0)
(1.23337 -0.0712712 -3.94588e-25)
(1.22133 -0.0799742 -3.65517e-28)
(1.25135 -0.0465787 4.33396e-25)
(1.24361 -0.0600884 4.59464e-28)
(1.25572 -0.0143647 -7.26871e-25)
(1.2556 -0.0310777 6.25996e-28)
(1.24177 0.0182198 -9.53824e-28)
(1.25111 0.00256034 9.34789e-28)
(1.21056 0.0404283 -1.36859e-24)
(1.22794 0.0312939 1.37691e-27)
(1.16952 0.0432689 3.53895e-24)
(1.19062 0.0446216 0)
(1.12906 0.0237142 -3.93894e-25)
(1.14851 0.0361854 1.87674e-27)
(1.09952 -0.0146884 -3.33042e-24)
(1.11236 0.00641208 0)
(1.08823 -0.0640851 -1.29265e-24)
(1.09133 -0.038608 -1.26469e-27)
(1.09797 -0.115798 0)
(1.09046 -0.0902049 0)
(1.12858 -0.162098 -9.83649e-23)
(1.1108 -0.140129 1.04445e-22)
(1.17727 -0.196059 0)
(1.15097 -0.181 1.16657e-28)
(1.23866 -0.210975 -1.69183e-22)
(1.20702 -0.206258 2.54632e-22)
(1.30316 -0.202883 -3.01264e-21)
(1.27104 -0.210095 3.005e-21)
(1.3588 -0.169237 0)
(1.3327 -0.188968 4.91585e-22)
(1.33054 -0.0492408 -1.96099e-22)
(1.28799 -0.0466501 6.77705e-23)
(1.30774 -0.0505869 3.19822e-22)
(1.37627 -0.0230513 -5.73417e-22)
(1.35405 -0.0398682 1.9319e-22)
(1.40778 0.0304261 -3.17277e-22)
(1.39545 0.000739783 9.10652e-22)
(1.40978 0.0982226 1.4205e-24)
(1.41324 0.0637533 -1.12979e-23)
(1.37801 0.159449 -1.7111e-24)
(1.39763 0.130734 0)
(1.32359 0.199567 -5.17773e-27)
(1.35263 0.182565 5.47457e-27)
(1.26172 0.21573 3.83771e-27)
(1.29278 0.210421 -4.05852e-27)
(1.20328 0.212484 5.13304e-25)
(1.23164 0.216142 0)
(1.15367 0.195795 -1.22968e-27)
(1.17723 0.205472 1.30098e-27)
(1.11456 0.170625 -9.81482e-27)
(1.13281 0.184022 -3.13842e-28)
(1.08593 0.140487 0)
(1.09899 0.156013 0)
(1.06732 0.107823 4.09937e-25)
(1.07543 0.124358 -2.07552e-29)
(1.05825 0.0745003 -1.10297e-27)
(1.06164 0.0911548 1.16809e-27)
(1.05827 0.0422923 -1.19002e-25)
(1.05717 0.058158 0)
(1.06667 0.0133521 7.44543e-25)
(1.06151 0.027285 0)
(1.08191 -0.00976105 -6.26852e-25)
(1.07362 0.000930812 0)
(1.10114 -0.0248781 1.2654e-27)
(1.09132 -0.0184 -1.34177e-27)
(1.12083 -0.0311279 0)
(1.11135 -0.0291217 0)
(1.1375 -0.029255 3.94781e-23)
(1.12997 -0.031095 6.90542e-23)
(1.14875 -0.0215845 -2.37017e-22)
(1.1442 -0.0259019 1.07392e-22)
(1.15249 -0.0168979 0)
(1.17723 0.00253576 -3.76302e-23)
(1.15844 0.000926874 1.48355e-22)
(1.19805 0.00418069 0)
(1.19246 0.00417154 3.69511e-23)
(1.15438 -0.0102132 -5.17554e-26)
(1.18671 0.00025763 0)
(1.05623 -0.0488929 1.57532e-26)
(1.10626 -0.0278054 9.94238e-29)
(1.01001 -0.078402 0)
(1.02071 -0.0677218 0)
(1.05035 -0.071714 0)
(1.02352 -0.0788768 0)
(1.09211 -0.0551891 3.56023e-27)
(1.07603 -0.0625347 0)
(1.09793 -0.0475746 0)
(1.09831 -0.0504975 0)
(1.08899 -0.043217 -7.5096e-23)
(1.09416 -0.0453313 4.44784e-23)
(1.08346 -0.0412278 5.70818e-25)
(1.27669 -0.0529791 0)
(1.27211 -0.0375341 -2.4228e-22)
(1.42697 -0.171993 -6.83283e-21)
(1.38025 -0.144253 8.3346e-21)
(0.0641708 -0.533687 -6.31402e-28)
(0.277328 -0.549311 2.66219e-26)
(1.07383 -0.0408636 -3.12937e-22)
(1.07 -0.0360884 1.67235e-22)
(0.0858951 -0.464516 -3.77509e-24)
(0.562824 -0.513968 0)
(0.198862 -0.359754 -5.39192e-24)