/*--------------------------------*- C++ -*----------------------------------*\
  =========                 |
  \\      /  F ield         | OpenFOAM: The Open Source CFD Toolbox
   \\    /   O peration     | Website:  https://openfoam.org
    \\  /    A nd           | Version:  10
     \\/     M anipulation  |
\*---------------------------------------------------------------------------*/
FoamFile
{
    format      ascii;
    class       volScalarField;
    location    "70";
    object      p;
}
// * * * * * * * * * * * * * * * * * * * * * * * * * * * * * * * * * * * * * //

dimensions      [0 2 -2 0 0 0 0];

internalField   nonuniform List<scalar> 
28942
(
-0.00378312
-0.00315723
0.00201598
0.0094764
0.00977635
8.80491e-05
0.000285007
2.38656e-05
0.00269876
0.00278666
-0.00232569
-0.00259451
-0.00297723
-0.00289472
0.000190257
0.000496023
0.00986601
0.010136
0.00556755
0.00712785
0.00813796
0.00812962
-0.0052315
-0.00505683
-0.00358563
-0.00380949
0.0138643
0.0138133
0.00352114
0.00346383
1.79575e-05
5.25829e-05
0.000759526
0.000309896
0.00712945
0.00833516
0.0108726
0.0128311
-7.272e-06
0.0150258
0.00907759
0.0115755
0.00172749
0.00163973
0.00170192
0.000287249
0.000152751
0.000228872
0.000264562
0.000369691
0.000707953
0.00277108
0.00284218
0.00283138
0.00298642
-0.00235629
-0.00105424
-0.003384
-0.0032297
-0.00350043
-0.00357359
-0.00357432
-0.00347242
-0.000120918
-0.00182058
-0.000367353
0.000963133
0.00940962
0.00891322
-0.00337476
-0.00358454
-0.00331973
0.00897524
0.00882685
0.00911908
-0.00148728
-0.00109976
-0.000761303
0.00234963
0.00274896
0.00184048
0.000746042
-0.00632321
-0.00755115
0.00107012
0.00379539
0.00483685
0.00562425
0.00400883
0.00413176
0.00609853
0.00547764
-0.00140834
-0.00169815
-0.00197586
-0.00181506
-0.00164155
0.00532017
0.00661104
-0.00786245
0.0112737
0.0104746
0.00576855
0.00936544
0.000886832
0.000793217
0.000704104
0.005458
0.00565073
0.00564483
-0.00322763
-0.00314837
-0.00314007
-0.0026235
-0.00274647
0.0158181
0.0138131
0.0132546
0.0148856
0.00163016
0.00470953
0.00340793
0.00505997
0.00473685
0.0154907
0.0157859
0.014445
0.00590141
0.00698033
0.000189115
0.000288968
0.00010799
0.0104859
0.0109887
0.00765492
0.00730703
0.0127641
0.00668608
0.00797638
0.00903754
-0.00191461
-0.00242257
0.00734564
0.00164477
0.00173341
-0.00118051
-0.00144303
-0.000985672
-0.00252193
0.00657995
0.00570727
0.00370093
0.000263958
0.000208949
8.23536e-05
0.000210788
0.0075164
0.00678019
-0.00187325
-0.00199041
-0.00188563
-0.00414849
-0.00369368
6.35087e-05
-0.00285959
-0.00050712
0.00838015
0.00848911
0.00958323
0.00911854
0.00769627
0.00306605
0.00298343
0.00323854
0.00311431
0.00502776
0.00480559
0.00514069
0.0053612
0.00529917
0.00537023
0.00558139
0.00613543
0.00582946
0.00542741
0.00575755
0.00646325
0.00721708
0.00750907
-0.00058961
-0.0005704
-0.00248203
0.000213472
6.01451e-05
-0.0020032
-0.00209161
0.000288784
0.000351377
0.000314827
0.000246785
0.00178788
0.00174037
0.00172102
-0.00292601
-0.00311278
-0.00277765
-0.00434434
-0.0048261
-0.00413817
-0.00472508
-0.00648993
-0.00518884
0.0160118
0.016722
0.0164895
0.000920754
0.00106561
0.000954236
0.0103376
0.00990966
0.00998995
0.00145069
0.00143483
0.00146656
0.00141851
0.0014028
0.0013865
0.00138708
0.00137006
0.00137054
0.00140327
0.00141898
0.00143471
0.00145069
0.00146705
0.001354
0.00135349
0.0014818
0.00148192
0.00149652
0.00133746
0.00133683
0.00149688
0.0013204
0.00130336
0.00132035
0.00130363
0.00151315
0.00151322
0.00128637
0.00128669
0.001528
0.0015283
0.00126927
0.00126968
0.0015429
0.0015432
0.00125215
0.00125252
0.00155769
0.00155806
0.00123489
0.00123533
0.00157237
0.00157273
0.0012176
0.00121801
0.00158703
0.00158737
0.00120017
0.00120068
0.00160183
0.00160204
0.00118275
0.001183
0.0016158
0.00161611
0.00116518
0.00116507
0.00163094
0.00163092
0.0011473
0.00114688
0.00164458
0.00164445
0.00112842
0.00112873
0.00165883
0.0016585
0.00110988
0.0011106
0.00164387
0.00165815
0.0016731
0.00167258
0.001614
0.00162964
0.00158495
0.00159998
0.00155635
0.00157082
0.00152662
0.00154162
0.00149575
0.0015114
0.00146519
0.00148182
0.00143437
0.00145017
0.00140189
0.00141729
0.00136855
0.00138538
0.00133564
0.00135225
0.00130216
0.00131899
0.00126822
0.00128527
0.00123391
0.00125114
0.00119927
0.00121666
0.00116438
0.00118188
0.00112819
0.00114673
0.00110986
0.00109149
0.00109185
0.00114688
0.00111026
0.00112849
0.0011827
0.00116465
0.00121757
0.0012003
0.00125202
0.00123486
0.00128614
0.00126916
0.00131987
0.00130309
0.00135294
0.00133658
0.00138604
0.00136971
0.00141875
0.00140257
0.00144967
0.00143412
0.00148148
0.00146661
0.00151222
0.00149651
0.00154225
0.00152736
0.0015716
0.00155706
0.00160048
0.00158603
0.00162918
0.00161454
0.00165665
0.00164316
0.00167077
0.00167301
0.0010912
0.00109184
0.00168601
0.00168383
0.00168754
0.00168692
0.00164189
0.00167142
0.00165641
0.00161205
0.00162735
0.00158342
0.00159745
0.00155457
0.00156914
0.00152486
0.00153982
0.00149448
0.00150975
0.0014632
0.00147918
0.00143194
0.00144843
0.00140067
0.00141559
0.00136718
0.00138396
0.00133416
0.00135074
0.00130074
0.00131752
0.00126687
0.00128387
0.00123264
0.00124981
0.00119811
0.00121542
0.00116338
0.00118077
0.00112755
0.00114556
0.00107279
0.00107289
0.00109053
0.00110908
0.00110969
0.00109162
0.00107326
0.00107313
0.0011466
0.00112795
0.00118188
0.00116398
0.00121648
0.00119922
0.00125085
0.00123372
0.00128489
0.00126793
0.00131857
0.00130179
0.00135179
0.00133528
0.00138453
0.00136822
0.00141703
0.00140072
0.00144835
0.00143272
0.00147953
0.00146461
0.00151033
0.00149508
0.00154035
0.00152545
0.00156971
0.00155513
0.00159843
0.00158417
0.00162651
0.00161257
0.00165394
0.00164025
0.00168025
0.00166755
0.00168606
0.00169731
0.00169386
0.00169882
0.00107233
0.00107288
0.00170034
0.00169897
0.00171052
0.00170759
0.00170021
0.00109012
0.00107143
0.00105459
0.00105425
0.00169701
0.00171387
0.00173552
0.00171796
0.00166834
0.00168307
0.0016387
0.00165327
0.00160938
0.00162453
0.00158081
0.0015947
0.00155201
0.00156657
0.00152235
0.00153727
0.00149203
0.00150728
0.00146109
0.00147662
0.00142968
0.00144552
0.00139778
0.00141372
0.00136522
0.00138164
0.0013322
0.00134876
0.00129881
0.00131557
0.00126503
0.00128198
0.0012309
0.00124802
0.00119648
0.00121373
0.00116186
0.00117919
0.00112638
0.00114412
0.00110816
0.00105459
0.00105389
0.00105427
0.00105474
0.00110907
0.00107229
0.00109098
0.00114558
0.00112734
0.00118037
0.00116282
0.00121487
0.00119765
0.00124913
0.00123205
0.00128305
0.00126614
0.00131659
0.00129988
0.00134971
0.00133322
0.00138237
0.00136609
0.00141447
0.00139852
0.00144612
0.00143036
0.00147711
0.00146175
0.00150767
0.00149249
0.00153758
0.00152272
0.00156686
0.00155232
0.00159547
0.00158127
0.00162329
0.00160953
0.00165027
0.00163683
0.00167659
0.00166349
0.0017031
0.00168922
0.00171965
0.00171567
0.00171353
0.00171172
0.00105312
0.00105406
0.00172476
0.00172287
0.00172433
0.00172796
0.0017312
0.00165832
0.00173438
0.00171366
0.00171858
0.0017148
0.0016956
0.00171184
0.00166338
0.00167934
0.00163455
0.00164847
0.00160588
0.00162081
0.00157753
0.00159167
0.00154862
0.00156319
0.00151902
0.00153391
0.00148879
0.00150399
0.001458
0.00147347
0.00142666
0.00144239
0.00139477
0.00141079
0.00136241
0.00137869
0.00132954
0.00134603
0.00129627
0.00131296
0.00126262
0.0012795
0.00122862
0.00124567
0.00119433
0.00121152
0.00115984
0.00117711
0.00112478
0.00114228
0.00108901
0.00110686
0.00105226
0.00107045
0.0010357
0.00103383
0.0010349
0.00103645
0.0010361
0.00103657
0.00103658
0.00103588
0.00103628
0.00107155
0.00103493
0.00105381
0.00110779
0.00108987
0.00114378
0.00112611
0.00117836
0.0011611
0.00121276
0.0011956
0.00124687
0.00122987
0.00128064
0.00126381
0.00131402
0.00129739
0.00134698
0.00133057
0.00137949
0.0013633
0.00141146
0.00139557
0.00144295
0.00142728
0.00147386
0.00145849
0.00150424
0.00148913
0.00153402
0.00151922
0.00156316
0.00154869
0.00159163
0.00157751
0.00161932
0.00160561
0.00164603
0.0016328
0.00167185
0.0016591
0.00169757
0.00168451
0.00172279
0.0017093
0.00173956
0.00173444
0.00172535
0.00172479
0.00173936
0.00173267
0.0010512
0.00103325
0.00101754
0.00101694
0.00173142
0.00174296
0.00176779
0.00168605
0.00174886
0.00174493
0.00172739
0.00172553
0.00170585
0.00170171
0.00168969
0.00170248
0.0016576
0.00167351
0.00163004
0.00164379
0.00160184
0.00161614
0.00157336
0.00158762
0.00154444
0.00155899
0.00151493
0.00152977
0.00148481
0.00149995
0.00145414
0.00146955
0.00142293
0.00143861
0.00139119
0.00140713
0.00135896
0.00137516
0.00132626
0.00134267
0.00129315
0.00130977
0.00125967
0.00127646
0.00122583
0.0012428
0.0011917
0.00120881
0.00115733
0.00117455
0.00112279
0.00114008
0.00108712
0.00110499
0.00106903
0.00101756
0.00101583
0.00101708
0.00101871
0.00101832
0.00101856
0.00101882
0.00101809
0.00107033
0.00103354
0.00105305
0.00110634
0.00108841
0.00114146
0.00112424
0.00117593
0.00115874
0.00121017
0.00119309
0.0012441
0.00122718
0.00127769
0.00126095
0.00131089
0.00129435
0.00134366
0.00132734
0.00137598
0.00135989
0.0014078
0.00139198
0.00143911
0.00142353
0.00146987
0.00145457
0.00150008
0.00148506
0.0015297
0.00151499
0.0015587
0.0015443
0.00158701
0.00157296
0.00161455
0.0016009
0.00164118
0.001628
0.00166678
0.00165414
0.00169173
0.0016795
0.0017155
0.00170227
0.00173941
0.00172893
0.00175443
0.00174847
0.00173805
0.00173511
0.00101438
0.00101568
0.00174056
0.00170038
0.00172434
0.00174435
0.0017517
0.00177226
0.00175577
0.00176259
0.00175852
0.00176385
0.00176014
0.00173624
0.0017008
0.00176181
0.00173483
0.00169568
0.00169487
0.00168057
0.00169373
0.00165202
0.00166608
0.00162463
0.00163838
0.00159669
0.00161076
0.00156833
0.00158256
0.00153951
0.00155401
0.00151012
0.0015249
0.00148014
0.00149521
0.00144961
0.00146496
0.00141856
0.00143416
0.00138699
0.00140284
0.00135494
0.00137104
0.00132243
0.00133874
0.00128951
0.00130603
0.00125621
0.00127291
0.00122257
0.00123944
0.00118863
0.00120564
0.00115444
0.00117157
0.00112005
0.00113728
0.00108521
0.00110284
0.00104909
0.00106724
0.00101291
0.00103117
0.000997905
0.000994646
0.000996482
0.00100015
0.000998985
0.00100127
0.00100089
0.00100114
0.00100133
0.000999775
0.0010006
0.000997849
0.000998885
0.00103253
0.000996614
0.00101443
0.00106859
0.00105083
0.00110436
0.00108666
0.00113877
0.0011216
0.00117307
0.00115596
0.00120711
0.00119013
0.00124084
0.00122402
0.00127422
0.00125759
0.00130721
0.00129078
0.00133978
0.00132357
0.00137189
0.00135591
0.00140352
0.00138779
0.00143463
0.00141915
0.00146521
0.00145001
0.00149524
0.00148031
0.00152469
0.00151006
0.00155351
0.0015392
0.00158165
0.00156769
0.00160903
0.00159546
0.00163554
0.00162242
0.00166108
0.00164846
0.00168558
0.00167357
0.00170914
0.00169718
0.00173127
0.00172103
0.00175275
0.00174013
0.00177113
0.00176489
0.00174418
0.00175374
0.00174243
0.00101093
0.000993313
0.000979843
0.000978431
0.00174502
0.001754
0.00174969
0.00176102
0.00176718
0.00177568
0.00178035
0.00177492
0.00174499
0.00174879
0.00176042
0.00175282
0.00175232
0.00170492
0.0017282
0.00168795
0.00169254
0.00167183
0.00168399
0.00164522
0.00165847
0.00161831
0.00163188
0.00159071
0.00160461
0.00156256
0.00157671
0.00153389
0.00154831
0.00150464
0.00151935
0.00147483
0.00148982
0.00144447
0.00145973
0.0014136
0.00142911
0.00138222
0.00139798
0.00135037
0.00136637
0.00131807
0.00133428
0.00128536
0.00130177
0.00125228
0.00126887
0.00121886
0.00123562
0.00118513
0.00120204
0.00115115
0.00116818
0.00111696
0.00113409
0.00108273
0.00109986
0.00104698
0.00106502
0.00102879
0.000980352
0.000976751
0.000978985
0.000982837
0.000981701
0.000983837
0.000983483
0.000983677
0.000983897
0.000982186
0.000983079
0.000981052
0.00103103
0.000994915
0.00101289
0.0010666
0.00104895
0.00110146
0.00108429
0.00113572
0.00111861
0.0011698
0.0011528
0.00120361
0.00118675
0.00123712
0.00122042
0.00127027
0.00125375
0.00130303
0.00128672
0.00133537
0.00131927
0.00136726
0.00135139
0.00139866
0.00138304
0.00142957
0.0014142
0.00145994
0.00144484
0.00148977
0.00147495
0.00151902
0.00150449
0.00154766
0.00153344
0.00157562
0.00156175
0.00160282
0.00158934
0.00162919
0.00161614
0.00165463
0.00164206
0.00167902
0.00166701
0.00170234
0.00169081
0.00172382
0.00171351
0.00174562
0.00173354
0.00176646
0.00175515
0.00177855
0.00176714
0.00178396
0.00177698
0.00174981
0.000975181
0.000976904
0.00175559
0.00175449
0.00176764
0.00175565
0.00176376
0.00177267
0.00177172
0.00177906
0.00178441
0.00178907
0.00179326
0.00178714
0.00175333
0.00174186
0.00177337
0.00177177
0.00174845
0.0017364
0.00174502
0.00170342
0.0017179
0.00168145
0.00169027
0.00166307
0.00167443
0.00163769
0.00165051
0.00161129
0.00162464
0.00158403
0.00159777
0.00155612
0.00157016
0.00152763
0.00154197
0.00149857
0.00151319
0.00146894
0.00148384
0.00143877
0.00145393
0.0014081
0.00142351
0.00137693
0.00139259
0.0013453
0.00136119
0.00131323
0.00132933
0.00128076
0.00129705
0.00124791
0.00126439
0.00121473
0.00123137
0.00118124
0.00119803
0.0011475
0.00116441
0.00111353
0.00113055
0.00107945
0.0010965
0.00104482
0.0010624
0.00100895
0.00102675
0.000973366
0.00099155
0.000959447
0.000955497
0.00095765
0.000963089
0.000961204
0.000965418
0.000964475
0.000966415
0.000966054
0.000966254
0.00096648
0.000964882
0.000965726
0.000962591
0.000963587
0.000959301
0.000961131
0.000993045
0.000957539
0.000975353
0.00102922
0.00101068
0.00106402
0.00104696
0.00109824
0.00108116
0.00113231
0.00111531
0.00116615
0.00114927
0.00119972
0.00118298
0.00123297
0.0012164
0.00126588
0.00124949
0.00129839
0.0012822
0.00133048
0.00131451
0.00136213
0.00134638
0.0013933
0.00137779
0.00142397
0.00140872
0.00145412
0.00143913
0.00148374
0.00146902
0.00151278
0.00149836
0.00154122
0.0015271
0.00156898
0.00155521
0.00159601
0.00158262
0.00162222
0.00160925
0.00164752
0.00163501
0.00167179
0.00165983
0.00169497
0.00168354
0.00171654
0.00170605
0.00173734
0.00172699
0.00175709
0.00174645
0.0017779
0.00176848
0.0017805
0.00177927
0.00179179
0.00178181
0.00176052
0.00176458
0.00177662
0.00178391
0.00177627
0.00177026
0.00177396
0.000971471
0.000953523
0.000941484
0.000939935
0.00178267
0.00178183
0.00178838
0.00179257
0.00179702
0.00179838
0.00177977
0.00177736
0.00178003
0.00179888
0.00179562
0.00179331
0.00176366
0.00176703
0.00176476
0.00173364
0.00174507
0.00172431
0.00173361
0.00169681
0.00170915
0.00167531
0.00168555
0.00165432
0.00166553
0.00162968
0.00164223
0.0016037
0.00161685
0.00157676
0.00159035
0.00154909
0.00156302
0.00152081
0.00153505
0.00149194
0.00150647
0.00146252
0.00147732
0.00143256
0.00144762
0.00140211
0.00141741
0.00137117
0.00138671
0.00133978
0.00135554
0.00130795
0.00132393
0.00127573
0.0012919
0.00124314
0.00125949
0.00121021
0.00122673
0.00117698
0.00119364
0.00114349
0.00116028
0.00110978
0.00112667
0.0010759
0.00109287
0.00104199
0.00105897
0.00100659
0.00102446
0.000989118
0.000942474
0.000938202
0.000940637
0.000945914
0.000944205
0.000948025
0.000947125
0.000949021
0.000948664
0.000948872
0.00094909
0.000947633
0.00094838
0.000945125
0.000946495
0.000943521
0.000991047
0.000955694
0.000973395
0.00102682
0.00100885
0.00106077
0.00104381
0.00109475
0.00107778
0.00112856
0.00111169
0.00116214
0.00114539
0.00119545
0.00117884
0.00122844
0.001212
0.00126108
0.00124482
0.00129333
0.00127727
0.00132516
0.00130931
0.00135655
0.00134093
0.00138746
0.00137209
0.00141789
0.00140276
0.00144781
0.00143294
0.0014772
0.0014626
0.00150603
0.00149171
0.00153425
0.00152024
0.00156182
0.00154815
0.00158866
0.00157536
0.0016147
0.00160181
0.00163985
0.00162742
0.001664
0.00165209
0.00168706
0.00167569
0.00170875
0.00169813
0.00172927
0.00171921
0.00174879
0.00173907
0.00176624
0.00175836
0.00178678
0.00177202
0.00178613
0.00179821
0.00180853
0.00180435
0.00179816
0.001785
0.00178569
0.00178496
0.00177256
0.0017749
0.000936186
0.000938103
0.00179627
0.00178223
0.00178394
0.00178965
0.00179137
0.00179707
0.00180157
0.00180242
0.00180224
0.00178607
0.00177725
0.00177981
0.00178767
0.00179699
0.00180603
0.00179008
0.00179897
0.00180465
0.00180805
0.00181047
0.00177451
0.00177249
0.00176854
0.00175262
0.00175647
0.00172811
0.00174045
0.00171274
0.0017216
0.00168947
0.00170116
0.00166763
0.00167837
0.0016456
0.00165695
0.00162129
0.00163367
0.00159562
0.00160861
0.00156897
0.00158242
0.00154155
0.00155536
0.00151349
0.00152762
0.00148484
0.00149925
0.00145563
0.00147032
0.0014259
0.00144085
0.00139568
0.00141087
0.00136498
0.0013804
0.00133384
0.00134948
0.00130228
0.00131812
0.00127032
0.00128636
0.001238
0.00125422
0.00120534
0.00122172
0.00117239
0.00118891
0.00113917
0.00115582
0.00110573
0.00112248
0.00107211
0.00108895
0.00103839
0.00105525
0.00100411
0.00102151
0.000969441
0.000986577
0.000934225
0.00095148
0.000920957
0.000917018
0.000918868
0.000925455
0.000923168
0.000928664
0.000927266
0.000930695
0.000929805
0.000931663
0.000931317
0.000931522
0.000931732
0.000930302
0.000931041
0.000927707
0.000929213
0.000924314
0.000926047
0.00092072
0.000922539
0.000953352
0.000918187
0.000936427
0.000989067
0.000970938
0.00102348
0.00100658
0.00105724
0.00104035
0.00109096
0.00107413
0.0011245
0.00110777
0.0011578
0.0011412
0.00119084
0.00117437
0.00122355
0.00120725
0.00125591
0.00123979
0.00128788
0.00127196
0.00131944
0.00130373
0.00135056
0.00133508
0.00138122
0.00136597
0.00141139
0.00139639
0.00144107
0.00142632
0.00147022
0.00145574
0.00149882
0.00148462
0.00152682
0.00151293
0.00155418
0.00154062
0.00158083
0.00156763
0.0016067
0.0015939
0.00163169
0.00161934
0.00165571
0.00164386
0.00167865
0.00166735
0.00170035
0.0016897
0.00172084
0.00171078
0.0017401
0.00173067
0.00175705
0.00174906
0.00177314
0.00176517
0.00177438
0.00179727
0.00180322
0.00180857
0.00180158
0.00178398
0.00178501
0.00179234
0.0017912
0.00179347
0.000931812
0.000914982
0.000903446
0.000900946
0.00179986
0.00180034
0.00180557
0.00180876
0.00181044
0.00181254
0.00178835
0.00178025
0.00179529
0.00179769
0.00180499
0.00179953
0.00180871
0.00181605
0.00181096
0.0018037
0.00181265
0.001785
0.00177185
0.0017599
0.00175813
0.00176606
0.00173924
0.00174841
0.00172095
0.00173057
0.00170288
0.00171229
0.00168109
0.00169223
0.00165913
0.00167008
0.00163667
0.00164812
0.00161252
0.0016248
0.00158712
0.00159998
0.00156073
0.00157405
0.00153356
0.00154726
0.00150574
0.00151975
0.00147731
0.00149161
0.00144833
0.00146291
0.00141884
0.00143367
0.00138886
0.00140392
0.00135842
0.00137371
0.00132754
0.00134305
0.00129625
0.00131196
0.00126457
0.00128047
0.00123253
0.0012486
0.00120016
0.00121639
0.00116748
0.00118387
0.00113455
0.00115106
0.00110139
0.00111801
0.00106805
0.00108475
0.00103456
0.00105133
0.00100106
0.00101784
0.000966658
0.000983717
0.000948988
0.000903903
0.000899736
0.000902093
0.000908496
0.00090631
0.00091144
0.000910105
0.000913415
0.000912554
0.000914347
0.000914014
0.00091422
0.000914416
0.000913051
0.000913761
0.000910911
0.000912102
0.000907262
0.000909232
0.000905109
0.000950981
0.000916039
0.000934261
0.000986426
0.000968591
0.00101991
0.00100319
0.00105346
0.00103671
0.0010869
0.00107021
0.00112015
0.00110356
0.00115317
0.00113671
0.00118591
0.00116959
0.00121834
0.00120218
0.00125041
0.00123444
0.00128209
0.00126632
0.00131337
0.00129781
0.00134421
0.00132887
0.0013746
0.00135949
0.00140452
0.00138965
0.00143395
0.00141932
0.00146286
0.00144849
0.00149122
0.00147714
0.001519
0.00150522
0.00154615
0.00153269
0.0015726
0.0015595
0.00159828
0.00158557
0.00162312
0.00161084
0.001647
0.00163522
0.00166983
0.00165858
0.00169146
0.00168083
0.00171187
0.00170186
0.00173094
0.00172162
0.00174801
0.00173982
0.00176293
0.00175596
0.00177501
0.00176857
0.00179218
0.00178505
0.00180713
0.00179989
0.00178886
0.00180473
0.00180164
0.00179344
0.00179457
0.000897361
0.000898867
0.00180891
0.00180034
0.0018025
0.00180898
0.00180878
0.00181329
0.0018161
0.00181762
0.00181718
0.0017981
0.00178628
0.00178483
0.00178968
0.00178844
0.00180345
0.00179634
0.00181119
0.00180443
0.0018143
0.00180725
0.00182014
0.00181878
0.00181457
0.00180909
0.00179459
0.0017767
0.00178586
0.00175935
0.00175414
0.00174497
0.00175612
0.00172972
0.00173759
0.00171192
0.0017211
0.00169315
0.0017028
0.00167201
0.0016828
0.00165011
0.00166112
0.00162746
0.00163897
0.00160344
0.00161563
0.00157825
0.001591
0.00155212
0.00156531
0.00152519
0.00153877
0.0014976
0.0015115
0.00146941
0.0014836
0.00144067
0.00145513
0.00141142
0.00142613
0.0013817
0.00139664
0.00135152
0.00136668
0.00132091
0.00133628
0.0012899
0.00130547
0.00125851
0.00127426
0.00122676
0.00124269
0.00119468
0.00121077
0.0011623
0.00117854
0.00112966
0.00114602
0.0010968
0.00111326
0.00106374
0.0010803
0.00103054
0.00104717
0.000997268
0.00101392
0.000964035
0.000980614
0.000929021
0.000946369
0.000894974
0.000912168
0.000882647
0.000877226
0.000880259
0.000887468
0.000884901
0.000891478
0.000889751
0.000894286
0.000892981
0.000896184
0.00089536
0.00089708
0.000896759
0.000896967
0.00089715
0.000895854
0.000896533
0.000893821
0.000894945
0.000890846
0.000892453
0.000886272
0.00088859
0.000881837
0.000884028
0.000913832
0.000879816
0.000897083
0.000948284
0.000931425
0.000982959
0.000965825
0.00101617
0.000999541
0.00104944
0.00103283
0.00108258
0.00106604
0.00111554
0.0010991
0.00114826
0.00113195
0.00118071
0.00116454
0.00121284
0.00119683
0.00124461
0.00122879
0.001276
0.00126038
0.00130699
0.00129157
0.00133755
0.00132235
0.00136767
0.00135269
0.00139732
0.00138258
0.00142649
0.00141199
0.00145516
0.00144092
0.00148329
0.00146932
0.00151084
0.00149717
0.00153777
0.00152442
0.00156402
0.00155102
0.00158953
0.0015769
0.00161419
0.001602
0.00163793
0.00162622
0.00166064
0.00164946
0.00168219
0.0016716
0.0017025
0.00169255
0.00172141
0.00171218
0.00173851
0.00173025
0.00175356
0.00174639
0.00176668
0.00176012
0.00177869
0.00177389
0.00177809
0.0018137
0.00181437
0.00180672
0.00180035
0.00180252
0.00180365
0.00181435
0.00180904
0.00181101
0.000892363
0.000875109
0.000865005
0.000863086
0.00181756
0.00181663
0.00182055
0.00182289
0.00182362
0.00182275
0.00178346
0.00177518
0.00177417
0.00178534
0.00179679
0.00180877
0.00181833
0.00181183
0.00181867
0.00182505
0.00182151
0.00181451
0.00181069
0.0017908
0.00179664
0.00180372
0.00177759
0.00177099
0.0017621
0.00177499
0.00174712
0.00175244
0.00173531
0.00174265
0.00171987
0.00172781
0.00170219
0.00171128
0.00168324
0.00169294
0.00166247
0.00167306
0.00164068
0.00165169
0.00161797
0.00162948
0.00159407
0.00160619
0.00156909
0.00158172
0.00154318
0.00155626
0.0015165
0.00152995
0.00148914
0.00150292
0.00146119
0.00147526
0.0014327
0.00144703
0.0014037
0.00141828
0.00137424
0.00138904
0.00134433
0.00135935
0.001314
0.00132923
0.00128327
0.0012987
0.00125217
0.00126778
0.00122072
0.0012365
0.00118894
0.00120488
0.00115687
0.00117295
0.00112453
0.00114074
0.00109196
0.00110828
0.00105921
0.00107562
0.00102631
0.00104279
0.000993317
0.00100983
0.00096044
0.000976853
0.00092618
0.000943466
0.000908895
0.000866133
0.000860473
0.000863804
0.000871018
0.000868572
0.000874479
0.000872857
0.000877195
0.000875941
0.000879008
0.00087822
0.000879868
0.000879559
0.000879764
0.000879938
0.000878702
0.000879352
0.00087671
0.000877818
0.000873871
0.000875396
0.000869604
0.00087191
0.000867175
0.000911615
0.000877367
0.000895059
0.00094562
0.000928505
0.000979176
0.000962664
0.0010122
0.000995691
0.00104518
0.00102872
0.00107803
0.00106164
0.00111069
0.0010944
0.00114311
0.00112694
0.00117525
0.00115923
0.00120707
0.00119122
0.00123855
0.00122287
0.00126964
0.00125416
0.00130034
0.00128506
0.00133062
0.00131556
0.00136046
0.00134562
0.00138984
0.00137523
0.00141876
0.00140439
0.00144717
0.00143305
0.00147506
0.00146121
0.00150239
0.00148883
0.00152911
0.00151586
0.00155516
0.00154225
0.00158048
0.00156795
0.00160498
0.00159287
0.00162858
0.00161693
0.00165116
0.00164004
0.00167262
0.00166207
0.00169283
0.00168292
0.00171162
0.00170245
0.0017287
0.00172043
0.00174384
0.00173658
0.0017572
0.00175065
0.00176801
0.00176334
0.00177605
0.00177178
0.00178789
0.00177751
0.00179376
0.0017852
0.00177995
0.00182106
0.00182129
0.00181114
0.00181221
0.000858302
0.000860431
0.00181763
0.00181732
0.00181894
0.00182514
0.00182395
0.0018273
0.00182894
0.00182903
0.00182756
0.00177685
0.00176678
0.00176067
0.00177658
0.00177022
0.00178134
0.00177473
0.00178912
0.00179563
0.00180979
0.00181612
0.00182408
0.00182266
0.00182826
0.00182287
0.00181508
0.00180775
0.00179759
0.00178993
0.00181233
0.00177446
0.001774
0.00176523
0.00175388
0.00174892
0.00176329
0.00173777
0.00174281
0.0017252
0.00173211
0.00170961
0.00171766
0.00169211
0.0017011
0.00167313
0.00168283
0.00165259
0.00166305
0.00163091
0.00164189
0.00160823
0.00161972
0.00158445
0.00159649
0.00155966
0.00157219
0.00153397
0.00154694
0.00150752
0.00152085
0.00148041
0.00149406
0.0014527
0.00146664
0.00142445
0.00143866
0.00139571
0.00141016
0.00136651
0.00138119
0.00133688
0.00135177
0.00130683
0.00132192
0.00127639
0.00129167
0.00124559
0.00126105
0.00121444
0.00123007
0.00118297
0.00119876
0.0011512
0.00116713
0.00111917
0.00113523
0.00108692
0.00110308
0.00105447
0.00107073
0.00102188
0.0010382
0.000989182
0.00100555
0.000956484
0.000972826
0.000923383
0.000940157
0.000889835
0.000906193
0.000855912
0.000872886
0.000844319
0.000838941
0.000842031
0.000849761
0.000846873
0.000854186
0.000852202
0.000857544
0.000855942
0.000860156
0.000858957
0.000861889
0.000861135
0.000862716
0.000862418
0.00086262
0.000862784
0.000861607
0.000862228
0.000859693
0.000860762
0.000856931
0.000858409
0.000853434
0.000855289
0.000848581
0.000851011
0.000843926
0.000846201
0.000874987
0.00084167
0.00085827
0.000908879
0.00089177
0.000942488
0.000925585
0.000975261
0.000958899
0.00100804
0.000991665
0.00104072
0.0010244
0.00107326
0.00105702
0.00110561
0.00108948
0.00113772
0.00112172
0.00116956
0.00115369
0.00120107
0.00118537
0.00123225
0.00121672
0.00126304
0.00124771
0.00129345
0.00127832
0.00132344
0.00130852
0.00135301
0.0013383
0.00138212
0.00136765
0.00141078
0.00139653
0.00143894
0.00142495
0.0014666
0.00145286
0.0014937
0.00148025
0.0015202
0.00150706
0.00154606
0.00153324
0.00157119
0.00155875
0.00159553
0.0015835
0.00161898
0.0016074
0.00164144
0.00163037
0.0016628
0.0016523
0.00168291
0.00167305
0.00170163
0.00169249
0.00171869
0.00171041
0.00173388
0.00172657
0.0017472
0.00174077
0.0017581
0.00175314
0.00176602
0.00176245
0.00177214
0.00176931
0.00176959
0.00182748
0.00182732
0.00178439
0.00177799
0.00181926
0.0018202
0.00182415
0.00182486
0.0018263
0.000853418
0.000836539
0.000827363
0.000824911
0.00183187
0.00183069
0.00183335
0.00183436
0.00183375
0.00183173
0.001765
0.0017586
0.00174612
0.00175238
0.00178052
0.00178533
0.00180121
0.00180123
0.00181688
0.00182339
0.00182797
0.00183026
0.00182359
0.00181578
0.00180342
0.00179779
0.00178746
0.00176942
0.00177602
0.00182038
0.00176085
0.00174382
0.00176296
0.00176735
0.00175093
0.00174725
0.00173912
0.00174887
0.0017279
0.00173325
0.00171477
0.00172177
0.00169918
0.00170723
0.00168178
0.00169072
0.00166284
0.00167252
0.00164244
0.00165283
0.00162087
0.00163181
0.00159827
0.00160972
0.00157462
0.00158659
0.00155
0.00156245
0.00152453
0.00153739
0.00149831
0.00151153
0.00147143
0.00148497
0.00144397
0.00145779
0.00141598
0.00143005
0.0013875
0.00140181
0.00135856
0.0013731
0.0013292
0.00134395
0.00129944
0.00131439
0.0012693
0.00128443
0.00123879
0.0012541
0.00120795
0.00122343
0.00117679
0.00119242
0.00114533
0.00116111
0.00111362
0.00112952
0.00108167
0.00109768
0.00104954
0.00106564
0.00101725
0.00103342
0.000984865
0.00100108
0.000952429
0.000968654
0.000920051
0.000936252
0.000886773
0.000903254
0.000870133
0.000828284
0.000822459
0.00082585
0.000833368
0.000830764
0.000837389
0.000835498
0.000840675
0.000839122
0.000843174
0.000842028
0.000844834
0.000844111
0.000845627
0.00084534
0.000845539
0.000845694
0.000844575
0.000845166
0.000842753
0.00084377
0.0008401
0.000841526
0.000836735
0.000838508
0.000832113
0.000834573
0.00082961
0.000872606
0.000839698
0.000856023
0.000906158
0.000889211
0.000938666
0.000922393
0.000971194
0.000954937
0.00100368
0.000987458
0.00103606
0.0010199
0.0010683
0.00105221
0.00110034
0.00108436
0.00113214
0.00111628
0.00116366
0.00114795
0.00119487
0.00117932
0.00122573
0.00121036
0.00125623
0.00124105
0.00128635
0.00127136
0.00131605
0.00130127
0.00134534
0.00133077
0.00137419
0.00135985
0.00140259
0.00138847
0.00143051
0.00141664
0.00145793
0.00144431
0.0014848
0.00147146
0.0015111
0.00149805
0.00153675
0.00152404
0.00156171
0.00154935
0.00158588
0.00157393
0.00160919
0.00159769
0.00163153
0.00162052
0.00165279
0.00164234
0.00167283
0.001663
0.00169148
0.00168237
0.00170852
0.00170025
0.00172376
0.00171642
0.00173708
0.00173069
0.00174806
0.00174297
0.00175634
0.00175254
0.00176162
0.00175958
0.00176326
0.0017625
0.00176806
0.00176006
0.0017609
0.00175563
0.00176097
0.00183309
0.00183188
0.00182673
0.0018276
0.000820211
0.00082268
0.00182994
0.00183164
0.00183305
0.00183791
0.00183676
0.00183874
0.00183903
0.00183774
0.00183483
0.00173625
0.00173945
0.0017375
0.00175342
0.0017596
0.00176919
0.00179081
0.00179364
0.00180825
0.00181267
0.00182221
0.0018285
0.00183121
0.00182365
0.00181426
0.00180526
0.00179381
0.00178048
0.00176702
0.00174854
0.00175922
0.00174815
0.00182781
0.00175592
0.00173135
0.00174781
0.00174333
0.00174906
0.00175153
0.00173831
0.00174253
0.00172961
0.00173535
0.00171774
0.0017237
0.00170425
0.00171132
0.00168865
0.0016967
0.00167129
0.0016802
0.00165239
0.00166204
0.0016321
0.00164243
0.00161063
0.00162152
0.00158812
0.00159952
0.0015646
0.0015765
0.00154016
0.00155251
0.00151489
0.00152765
0.0014889
0.001502
0.00146225
0.00147567
0.00143503
0.00144873
0.00140729
0.00142124
0.00137907
0.00139326
0.00135041
0.00136481
0.00132133
0.00133594
0.00129186
0.00130666
0.00126201
0.00127699
0.0012318
0.00124696
0.00120127
0.00121659
0.00117041
0.00118589
0.00113928
0.00115489
0.00110788
0.00112362
0.00107625
0.0010921
0.00104443
0.00106037
0.00101246
0.00102847
0.000980377
0.000996435
0.000948238
0.00096432
0.000916143
0.000932183
0.000883448
0.000899744
0.000850895
0.00086725
0.000817862
0.000834243
0.000806567
0.000801099
0.000804261
0.000812195
0.000809231
0.000816856
0.000814701