/*--------------------------------*- C++ -*----------------------------------*\
  =========                 |
  \\      /  F ield         | OpenFOAM: The Open Source CFD Toolbox
   \\    /   O peration     | Website:  https://openfoam.org
    \\  /    A nd           | Version:  10
     \\/     M anipulation  |
\*---------------------------------------------------------------------------*/
FoamFile
{
    format      ascii;
    class       volVectorField;
    location    "29";
    object      U;
}
// * * * * * * * * * * * * * * * * * * * * * * * * * * * * * * * * * * * * * //

dimensions      [0 1 -1 0 0 0 0];

internalField   nonuniform List<vector> 
25879
(
(1.07841 0.010054 5.78223e-21)
(1.07515 0.0112208 -8.82086e-21)
(1.07511 0.00848675 1.6358e-20)
(1.07795 0.0079017 -1.60356e-20)
(0.905492 -0.454669 1.74544e-22)
(0.882829 -0.437547 -1.58528e-21)
(1.2972 0.0787163 0)
(1.28542 0.0867724 -9.38518e-21)
(1.26161 0.0825863 0)
(1.26323 0.0716163 0)
(1.39019 0.104083 -4.52265e-21)
(1.35143 0.0927625 1.26826e-20)
(1.43758 0.117062 -1.06377e-19)
(0.0620944 -0.268586 2.61806e-20)
(0.18304 -0.297228 -3.88695e-20)
(1.028 0.493532 -1.80758e-20)
(1.08714 0.630479 -1.40712e-20)
(1.27606 -0.680626 3.91059e-20)
(1.41912 -0.633315 -3.15552e-20)
(0.469756 -0.133686 6.66037e-20)
(0.459783 -0.291967 3.01921e-19)
(0.386091 0.73057 -9.73579e-20)
(0.660729 0.63934 8.83027e-20)
(1.03679 0.0431075 5.34555e-21)
(1.0422 0.0478027 6.69996e-21)
(1.03626 0.0467521 3.46923e-22)
(1.02987 0.0395887 -5.71914e-23)
(1.03388 0.036445 -6.95753e-21)
(1.03003 0.0362334 -9.6049e-21)
(1.03936 0.0407609 -3.88545e-21)
(1.04513 0.0457014 4.51008e-20)
(-0.030594 -0.0764708 4.55249e-20)
(-0.0340762 -0.0376055 -1.87763e-20)
(-0.0985382 -0.176239 2.86547e-20)
(0.664992 -0.0249867 -1.16659e-20)
(0.902232 0.0637907 -1.83265e-21)
(0.905178 0.0929047 1.71529e-21)
(1.39778 -0.0892955 -3.57079e-22)
(1.40418 -0.110024 -4.93768e-21)
(1.63074 0.213585 -8.13779e-20)
(1.53479 0.181563 -1.02256e-20)
(1.45276 0.1973 -1.24619e-20)
(0.993925 -0.24516 -1.74254e-20)
(0.984853 -0.222427 0)
(0.982441 -0.202838 -1.34161e-21)
(1.45032 -0.267238 0)
(1.46838 -0.253841 3.06935e-20)
(0.316095 -0.0158458 1.21273e-19)
(0.683955 -0.0180493 6.15095e-21)
(0.811733 0.0308017 0)
(1.19142 -0.441693 3.2852e-21)
(1.19505 -0.39314 -1.18426e-20)
(0.880626 0.275159 -1.60395e-19)
(1.12214 0.442976 0)
(0.61296 0.00679502 -3.6674e-22)
(0.601653 0.00541278 0)
(0.640423 0.00731306 6.16455e-22)
(0.853282 0.224715 -8.88616e-20)
(0.849872 0.202111 8.65447e-20)
(0.894513 0.181142 -1.65739e-19)
(0.900124 0.219084 1.54467e-19)
(0.90844 0.334286 1.01134e-21)
(0.920934 0.270469 -4.72866e-21)
(0.761153 -0.0129811 -9.25326e-23)
(0.820571 -0.0150317 1.52972e-21)
(0.78014 -0.0124128 -1.09782e-21)
(-0.111928 -0.0387165 2.07313e-21)
(-0.0893061 -0.0571145 0)
(-0.0365073 -0.0166971 0)
(-0.0450753 -0.297909 9.77018e-20)
(-0.0420994 -0.21428 -2.69378e-19)
(1.00641 0.029292 1.62683e-20)
(1.01026 0.0411051 0)
(1.0135 0.0449813 -8.78579e-21)
(1.06506 -0.109731 4.49121e-20)
(1.01921 -0.123787 0)
(1.00433 -0.0843766 1.73171e-20)
(1.06872 0.00670292 0)
(1.0676 0.00227601 9.90176e-21)
(1.07083 0.00404474 1.05096e-20)
(0.969492 -0.235643 0)
(0.978593 -0.267073 4.37077e-20)
(0.331191 0.226851 6.33507e-20)
(0.5089 0.176484 3.29912e-19)
(0.432654 0.357178 0)
(0.998643 -0.0142101 1.59285e-20)
(1.00022 -0.0188991 -1.49278e-20)
(1.00489 -0.0219463 0)
(1.11162 0.036756 2.03844e-21)
(1.10499 0.0328465 -5.86973e-23)
(0.114775 -0.314934 -1.43055e-19)
(0.315314 -0.306585 1.66063e-19)
(0.0655648 -0.248505 4.38721e-20)
(1.04169 0.0402714 1.82702e-20)
(1.03726 0.0359616 -5.41446e-22)
(0.943754 -0.433366 4.09583e-21)
(0.936546 -0.448245 -1.74504e-21)
(0.911442 -0.426892 8.5066e-22)
(0.821874 0.0196613 -2.19871e-20)
(0.792346 -0.00134818 -8.57324e-22)
(0.739217 0.0278178 1.82827e-21)
(0.688108 0.0144876 8.41295e-21)
(1.11286 0.0429662 2.02973e-21)
(1.1177 0.0445156 -8.36172e-23)
(1.11849 0.0398662 -1.05993e-22)
(1.07206 -0.0798626 7.96536e-21)
(1.05425 -0.0648176 -2.36189e-21)
(1.1949 -0.51316 -1.92702e-20)
(1.09948 -0.664825 2.09951e-20)
(0.920281 0.121059 -7.61006e-22)
(0.93247 0.147021 7.11494e-22)
(1.19745 0.00401555 -3.77636e-21)
(1.19171 0.000325275 0)
(1.07723 0.034914 4.15203e-21)
(1.07466 0.0385707 -5.34339e-21)
(1.0671 0.159067 -1.96123e-21)
(1.07883 0.168837 2.11572e-21)
(1.36465 0.0733062 1.68232e-20)
(1.2589 0.241284 -5.2235e-21)
(1.22777 0.213858 7.04013e-21)
(1.21883 0.186897 -6.70909e-21)
(1.50978 -0.203637 -4.10658e-21)
(1.51335 -0.187585 0)
(1.45577 0.271937 -3.99486e-20)
(1.4391 0.251975 8.78208e-20)
(0.51582 -0.251982 -8.26217e-20)
(0.801268 -0.208085 0)
(-0.104583 -0.489221 -1.71492e-20)
(0.0157234 -0.458053 0)
(0.0192853 -0.413291 0)
(-0.0835047 -0.421768 -9.37612e-20)
(-0.0996011 -0.332737 1.81407e-19)
(0.908412 -0.0643694 0)
(0.921747 -0.0804331 1.0102e-19)
(0.936119 -0.060152 3.14579e-20)
(0.927018 -0.0490041 -2.59943e-20)
(1.07344 0.0067941 -2.35859e-20)
(1.07151 0.00896487 1.47207e-20)
(1.28139 0.0682083 -1.03404e-20)
(0.626934 -0.0105843 -1.54435e-22)
(0.98241 -0.0759748 -5.368e-20)
(0.954056 -0.0800488 0)
(0.960139 0.010951 -6.42115e-21)
(0.974652 0.0660208 0)
(0.974268 0.177375 0)
(0.982377 0.25703 1.64839e-20)
(0.985326 0.337375 -9.99649e-22)
(0.991982 0.402305 -3.18063e-20)
(0.996259 0.45692 1.5096e-20)
(1.00184 0.497211 -1.26877e-20)
(1.00661 0.524955 1.18874e-21)
(1.01157 0.540734 1.14857e-20)
(1.01613 0.54711 0)
(1.0205 0.547083 -8.76154e-21)
(1.02445 0.544047 8.66454e-21)
(1.02786 0.540902 0)
(1.03065 0.539673 7.31227e-21)
(1.03267 0.541293 -7.39414e-21)
(1.03403 0.545793 7.04718e-21)
(1.03465 0.552724 -1.42988e-20)
(1.03464 0.561495 1.43572e-20)
(1.03379 0.571523 -1.49924e-20)
(1.03203 0.582251 7.56275e-21)
(1.02895 0.59274 0)
(1.0244 0.601835 0)
(1.01788 0.607515 1.0372e-20)
(1.00933 0.607663 1.08892e-21)
(0.998303 0.599112 -1.14728e-20)
(0.985 0.579212 -1.39488e-20)
(0.969248 0.544391 1.40975e-20)
(0.951649 0.492755 -1.6893e-20)
(0.932145 0.422192 1.76507e-20)
(0.911303 0.333651 -1.2241e-21)
(0.888871 0.227469 0)
(0.868467 0.106125 0)
(0.852807 -0.0203685 -5.12172e-21)
(0.847514 -0.139221 -3.039e-20)
(0.836345 0.109676 0)
(0.818424 -0.0168664 8.05053e-21)
(0.895127 -0.0207877 -5.72394e-21)
(0.924826 -0.0753493 5.58793e-21)
(0.923332 -0.166916 -2.54212e-21)
(0.954212 -0.166034 0)
(0.885772 -0.141048 0)
(0.926229 0.224224 0)
(0.908469 0.103806 1.09588e-20)
(0.963721 0.425277 1.79834e-20)
(0.945363 0.332937 1.2006e-21)
(0.99661 0.552539 1.59959e-21)
(0.981194 0.49893 -3.43017e-20)
(1.02103 0.608267 0)
(1.0102 0.588337 1.48285e-20)
(1.0354 0.615028 -2.11862e-20)
(1.02954 0.616229 1.07429e-20)
(1.04117 0.597705 8.50809e-21)
(1.03928 0.608111 9.73979e-21)
(1.04094 0.574113 7.59886e-21)
(1.04169 0.585969 -8.2255e-21)
(1.03698 0.553363 0)
(1.03934 0.563077 -7.34642e-21)
(1.03038 0.539799 0)
(1.03401 0.545429 0)
(1.02076 0.536942 8.05194e-21)
(1.02597 0.536935 0)
(1.00779 0.541812 9.2524e-21)
(1.01461 0.539209 -7.78435e-21)
(0.992397 0.536806 -1.10604e-20)
(1.00021 0.542249 -8.94491e-21)
(0.976008 0.497093 -1.33653e-20)
(0.984045 0.522779 1.06928e-20)
(0.959914 0.407668 -1.57282e-20)
(0.967443 0.459145 1.29166e-20)
(0.944716 0.269606 -1.73962e-20)
(0.951347 0.345006 1.50001e-20)
(0.930649 0.101591 0)
(0.936781 0.188244 1.71553e-20)
(0.927977 0.0127962 -3.65042e-22)
(1.01665 0.159179 0)
(1.01797 -0.042848 2.95585e-20)
(1.01307 0.0547349 0)
(1.02349 0.325153 1.76951e-20)
(1.01979 0.244977 -1.81183e-20)
(1.02915 0.446705 4.79985e-22)
(1.02659 0.392135 9.91129e-25)
(1.03269 0.52079 2.50874e-20)
(1.03171 0.48994 -1.27671e-20)
(1.03493 0.547728 0)
(1.03446 0.538893 -1.15496e-20)
(1.03655 0.546222 0)
(1.03624 0.548674 0)
(1.03713 0.540245 7.35015e-21)
(1.03732 0.542425 0)
(1.03576 0.543613 6.94408e-21)
(1.03692 0.54041 -7.12427e-21)
(1.03185 0.55682 7.00868e-21)
(1.03424 0.549154 -6.73069e-21)
(1.02469 0.575133 0)
(1.02877 0.565518 -6.79329e-21)
(1.01255 0.592229 -8.68754e-21)
(1.01932 0.584181 0)
(0.993056 0.596472 2.94002e-22)
(1.00373 0.596733 8.68122e-21)
(0.964282 0.568736 1.11553e-20)
(0.979711 0.587766 -1.0846e-20)
(0.925844 0.48579 -2.91745e-20)
(0.945977 0.535354 1.31804e-20)
(0.88019 0.331981 5.14486e-22)
(0.903266 0.41792 1.47842e-20)
(0.857056 0.228402 0)
(0.988327 -0.167841 -6.06762e-21)
(0.955919 -0.253533 -5.8794e-23)
(0.924818 -0.25129 -1.2543e-21)
(0.881187 -0.25782 1.11148e-20)
(0.852396 -0.254478 -1.85634e-20)
(0.919316 -0.264679 -9.13497e-21)
(0.879529 -0.367451 0)
(0.913483 -0.373079 1.16859e-20)
(0.805464 -0.134253 -2.33411e-22)
(0.809874 0.110896 8.55851e-21)
(0.792213 -0.00559382 -2.50113e-20)
(1.05912 -0.0468536 1.60255e-20)
(1.0209 -0.152037 1.70639e-20)
(1.0583 -0.147608 -5.53772e-21)
(1.02287 -0.250201 -1.09207e-20)
(0.989731 -0.257501 4.12099e-21)
(0.937349 -0.0190046 -1.22853e-20)
(0.927421 -0.144903 6.22959e-21)
(0.96715 0.226955 -1.48736e-21)
(0.950547 0.107177 6.66917e-21)
(1.00022 0.430028 0)
(0.983978 0.336823 0)
(1.0281 0.558079 4.07584e-21)
(1.01498 0.504085 -1.73974e-23)
(1.04681 0.612966 -3.25275e-21)
(1.0387 0.593512 -3.91334e-21)
(1.05506 0.617689 0)
(1.05211 0.619872 3.12346e-21)
(1.05491 0.598202 0)
(1.05581 0.609596 0)
(1.0493 0.572873 0)
(1.0526 0.585505 0)
(1.04044 0.550843 1.853e-21)
(1.04517 0.561167 -1.77935e-21)
(1.02927 0.535838 1.80927e-21)
(1.03516 0.54228 -1.73736e-21)
(1.01511 0.531033 1.88861e-21)
(1.02267 0.532042 -1.81355e-21)
(0.997038 0.534712 0)
(1.0066 0.532479 0)
(0.975804 0.530743 0)
(0.986734 0.535315 0)
(0.953432 0.493941 2.91281e-21)
(0.964655 0.517945 -2.79698e-21)
(0.931886 0.408152 0)
(0.942409 0.457645 0)
(0.912788 0.273476 2.01351e-21)
(0.921782 0.346782 0)
(0.900721 0.104513 0)
(0.905785 0.192175 0)
(0.896187 -0.0744811 -4.99322e-21)
(0.8982 0.0142906 4.81175e-21)
(0.898346 -0.246573 0)
(0.89596 -0.163068 2.45334e-21)
(1.05934 0.149428 4.78161e-21)
(1.05816 0.0527037 -4.99541e-21)
(1.06315 0.317222 -9.18851e-21)
(1.06158 0.236898 9.22058e-21)
(1.064 0.443105 -4.92896e-22)
(1.06429 0.386009 -2.55437e-25)
(1.06095 0.519292 6.89316e-21)
(1.06287 0.487531 -6.56101e-21)
(1.05612 0.548171 5.61285e-21)
(1.05879 0.538882 -5.34247e-21)
(1.05095 0.5471 4.61851e-21)
(1.05369 0.549791 -4.39607e-21)
(1.0456 0.539715 3.941e-21)
(1.04848 0.54286 -3.75119e-21)
(1.03912 0.540648 3.541e-21)
(1.04269 0.538736 -3.37045e-21)
(1.03049 0.551215 3.38187e-21)
(1.03521 0.544942 -3.21898e-21)
(1.01864 0.566535 3.45676e-21)
(1.02512 0.558624 -3.29026e-21)
(1.00169 0.580015 3.78358e-21)
(1.01101 0.574054 -3.60136e-21)
(0.977168 0.58048 2.09542e-21)
(0.990579 0.582878 -2.62901e-22)
(0.943059 0.549943 3.2796e-21)
(0.961413 0.570473 -2.59805e-21)
(0.899734 0.467356 -1.97156e-22)
(0.922411 0.516391 -2.38217e-21)
(0.852125 0.319656 -5.14342e-22)
(0.875943 0.401814 0)
(0.829816 0.221843 0)
(0.821556 -0.257859 5.55865e-21)
(1.05961 -0.247218 2.66387e-21)
(0.849879 -0.361033 -5.56412e-21)
(0.904344 -0.322973 -2.10924e-21)
(0.876694 -0.241606 1.68026e-21)
(0.883682 -0.315218 -2.4823e-22)
(0.880225 -0.457638 0)
(0.910997 -0.465643 -1.61654e-22)
(0.780592 -0.122331 -4.33614e-21)
(0.77518 -0.237855 -4.7857e-21)
(0.795926 -0.248608 2.04739e-20)
(0.960044 -0.334642 -4.53199e-22)
(0.93015 -0.328865 -2.79354e-22)
(1.02558 -0.337327 2.64222e-21)
(0.992183 -0.339304 2.31637e-22)
(0.95874 -0.264736 1.52653e-21)
(0.943951 -0.467198 -5.45386e-21)
(0.949809 -0.374163 3.00448e-21)
(0.982223 -0.0116715 4.03707e-22)
(0.969367 -0.141296 0)
(1.01188 0.237114 1.53001e-21)
(0.996685 0.116366 -7.75706e-22)
(1.04053 0.440619 0)
(1.02664 0.347516 0)
(1.0631 0.566251 0)
(1.05297 0.513851 0)
(1.07493 0.616739 0)
(1.0705 0.599641 0)
(1.07589 0.617163 0)
(1.07662 0.621377 0)
(1.06909 0.594715 0)
(1.07323 0.607402 0)
(1.0578 0.56767 0)
(1.06385 0.581023 0)
(1.04403 0.544637 0)
(1.05115 0.555399 0)
(1.02839 0.528599 0)
(1.03647 0.535605 0)
(1.00994 0.522095 0)
(1.01962 0.524031 0)
(0.987355 0.523914 0)
(0.999177 0.522559 0)
(0.961267 0.519088 0)
(0.974591 0.523931 0)
(0.934174 0.482829 0)
(0.947639 0.506414 0)
(0.908644 0.398672 0)
(0.921002 0.447224 0)
(0.887394 0.266718 -1.96401e-21)
(0.897181 0.338572 0)
(0.874312 0.101177 0)
(0.879511 0.18692 9.58668e-22)
(0.871465 -0.0746264 0)
(0.871775 0.0133959 3.12602e-23)
(0.872701 -0.160261 5.22363e-22)
(1.09995 -0.0458434 -5.46909e-21)
(1.0971 -0.240099 1.33682e-21)
(1.0975 -0.14552 -4.04172e-21)
(1.10161 0.147457 8.13743e-22)
(1.10082 0.0528133 -6.48287e-22)
(1.10127 0.314902 0)
(1.10194 0.235293 -1.17897e-24)
(1.09669 0.440604 0)
(1.09956 0.383541 2.59761e-25)
(1.08785 0.516765 0)
(1.09277 0.485162 0)
(1.07669 0.545788 0)
(1.08249 0.536494 0)
(1.06537 0.544787 0)
(1.07108 0.547607 0)
(1.05448 0.536784 0)
(1.06001 0.540435 0)
(1.04313 0.536313 0)
(1.04904 0.535233 0)
(1.02999 0.544925 0)
(1.03693 0.539705 0)
(1.01367 0.557557 0)
(1.02239 0.551093 0)
(0.992036 0.567215 0)
(1.00372 0.563275 0)
(0.962489 0.562849 0)
(0.978426 0.567693 0)
(0.923336 0.527487 0)
(0.944136 0.550244 0)
(0.876094 0.442496 2.00368e-22)
(0.900454 0.49216 0)
(0.827466 0.298541 -1.7865e-21)
(0.851303 0.377812 0)
(0.787253 0.102881 -4.94318e-22)
(0.805969 0.20621 1.72677e-21)
(0.761866 -0.118275 1.14614e-20)
(0.772509 -0.00446003 4.51123e-22)
(0.910642 -0.537031 1.29611e-21)
(0.940132 -0.541332 3.58391e-21)
(1.06127 -0.336046 0)
(0.821981 -0.354118 -3.8752e-21)
(0.913989 -0.390231 1.01763e-21)
(0.89395 -0.379927 -1.74773e-21)
(0.851944 -0.44915 0)
(0.882117 -0.528165 -4.56965e-21)
(0.757577 -0.227626 -7.94753e-21)
(0.775796 -0.339859 -3.75941e-21)
(1.13404 -0.234487 3.78923e-21)
(0.912252 -0.588673 0)
(0.93797 -0.593258 -1.67628e-21)
(1.09588 -0.329628 9.81304e-21)
(1.12982 -0.323293 -9.91063e-21)
(0.758786 -0.325101 6.62173e-21)
(0.796952 -0.349129 0)
(0.965905 -0.405545 5.54067e-22)
(0.937534 -0.397452 1.28369e-21)
(1.02815 -0.411836 0)
(0.996112 -0.410656 -7.39927e-23)
(1.09513 -0.407903 0)
(1.06254 -0.412639 0)
(0.978771 -0.462341 0)
(0.96467 -0.591753 3.56865e-21)
(0.971164 -0.537166 -2.29909e-21)
(1.0001 -0.257642 4.64722e-21)
(0.988176 -0.368706 -6.15862e-21)
(1.02808 -0.00142086 -2.02893e-21)
(1.01394 -0.132683 1.61238e-21)
(1.05748 0.25221 0)
(1.04308 0.129225 0)
(1.08324 0.454387 0)
(1.07117 0.36263 0)
(1.09972 0.574472 0)
(1.09301 0.525204 0)
(1.1035 0.618282 0)
(1.10319 0.604444 0)
(1.0965 0.613618 0)
(1.1011 0.620091 0)
(1.08288 0.588271 0)
(1.09027 0.602168 0)
(1.06603 0.559783 0)
(1.07472 0.573735 0)
(1.04756 0.535927 0)
(1.05695 0.54707 0)
(1.02773 0.518917 0)
(1.03786 0.526478 0)
(1.0053 0.510659 0)
(1.01697 0.513572 0)
(0.978628 0.510328 0)
(0.992536 0.510012 0)
(0.94824 0.504137 0)
(0.963727 0.509484 0)
(0.917214 0.467867 0)
(0.932558 0.491261 0)
(0.888838 0.385072 0)
(0.902487 0.432688 0)
(0.865904 0.256915 0)
(0.876479 0.326083 0)
(0.852053 0.0966694 0)
(0.857613 0.179572 0)
(0.849705 -0.0747095 0)
(0.849387 0.0112216 -3.07077e-23)
(0.858286 -0.235241 -1.05866e-21)
(0.852645 -0.157399 -4.42157e-22)
(0.877976 -0.367744 3.28274e-21)
(0.866818 -0.305931 0)
(1.1394 -0.0429171 1.30564e-21)
(1.13653 -0.13979 -1.28158e-21)
(1.14152 0.147461 0)
(1.14141 0.054276 -1.28067e-21)
(1.13739 0.312516 0)
(1.14021 0.2343 0)
(1.12772 0.435929 0)
(1.13324 0.380065 0)
(1.1132 0.510324 0)
(1.12097 0.479442 0)
(1.09617 0.538907 0)
(1.10484 0.529682 0)
(1.07922 0.53828 0)
(1.08762 0.540894 0)
(1.06328 0.530492 0)
(1.0712 0.534139 0)
(1.04744 0.529501 0)
(1.05549 0.528811 0)
(1.03015 0.536808 0)
(1.03912 0.532363 0)
(1.00969 0.547178 0)
(1.02048 0.542009 0)
(0.983739 0.553252 0)
(0.997598 0.5513 0)
(0.949745 0.544089 0)
(0.967905 0.551464 0)
(0.906527 0.503829 0)
(0.929268 0.52896 0)
(0.856582 0.416254 0)
(0.882065 0.466752 0)
(0.807359 0.274681 0)
(0.831246 0.352062 0)
(0.768904 0.0892616 -1.64358e-21)
(0.786342 0.186311 0)
(0.746648 -0.115532 -8.20319e-22)
(0.755103 -0.0124999 1.99091e-21)
(0.746054 -0.307554 0)
(0.74393 -0.216918 -3.50508e-21)
(0.937953 -0.624443 -6.17846e-21)
(0.961433 -0.624639 4.75184e-21)
(0.76578 -0.404512 -9.55938e-21)
(0.754762 -0.38431 -1.00915e-20)
(0.825286 -0.440706 -1.2951e-21)
(0.781979 -0.421119 3.73889e-21)
(1.12733 -0.402716 -9.05271e-21)
(0.856167 -0.519527 0)
(0.891459 -0.419313 7.38203e-22)
(0.865744 -0.354714 -1.53842e-21)
(0.880278 -0.404784 6.42231e-22)
(0.887459 -0.578845 4.36912e-21)
(0.915578 -0.619914 -3.91114e-21)
(0.781376 -0.462691 3.48571e-22)
(0.940223 -0.63882 3.33152e-21)
(0.959102 -0.640242 -4.76557e-22)
(0.772307 -0.441305 7.77753e-21)
(0.802081 -0.433325 9.64029e-22)
(0.925251 -0.446038 -1.7451e-21)
(0.906564 -0.433517 1.65266e-21)
(0.97312 -0.46413 -4.93408e-22)
(0.947543 -0.456115 0)
(1.03064 -0.473199 -2.1102e-21)
(1.00058 -0.47031 0)
(1.09246 -0.471489 -1.07937e-21)
(1.06202 -0.473829 3.21637e-21)
(0.992269 -0.585215 -3.28645e-21)
(0.977321 -0.636853 3.379e-21)
(0.98514 -0.619642 1.09064e-21)
(1.01532 -0.45295 0)
(1.00324 -0.529741 2.7754e-21)
(1.04359 -0.245338 0)
(1.02842 -0.357374 0)
(1.07521 0.0125781 0)
(1.0596 -0.11901 0)
(1.10451 0.266201 0)
(1.09036 0.143377 0)
(1.12693 0.46402 0)
(1.11707 0.374891 0)
(1.13638 0.577358 0)
(1.13352 0.531579 0)
(1.13172 0.614901 0)
(1.13566 0.603981 0)
(1.11681 0.606148 0)
(1.12522 0.614362 0)
(1.09662 0.578814 0)
(1.10711 0.593493 0)
(1.07447 0.549505 0)
(1.08567 0.563783 0)
(1.0516 0.52517 0)
(1.0631 0.536548 0)
(1.02791 0.507363 0)
(1.03991 0.51541 0)
(1.00197 0.497365 0)
(1.01536 0.501276 0)
(0.971803 0.494795 0)
(0.987479 0.495568 0)
(0.937718 0.48743 0)
(0.955071 0.493136 0)
(0.903206 0.451921 0)
(0.920218 0.47469 0)
(0.872345 0.371496 0)
(0.887085 0.41773 0)
(0.848253 0.247147 0)
(0.859258 0.314179 0)
(0.834044 0.0925505 0)
(0.839689 0.172479 0)
(0.832429 -0.0732154 -6.45795e-24)
(0.831589 0.0102429 6.46541e-24)
(0.84323 -0.227581 -8.48038e-23)
(0.836445 -0.153223 5.20329e-23)
(0.853234 -0.295595 -3.94708e-22)
(1.17031 -0.228695 -2.43431e-21)
(1.15956 -0.393732 1.10682e-20)
(1.16402 -0.31721 -4.42808e-21)
(1.17823 -0.0403689 -3.05906e-22)
(1.17415 -0.135489 -3.21601e-22)
(1.17912 0.146723 0)
(1.17949 0.0550765 0)
(1.17178 0.308205 0)
(1.1764 0.231781 0)
(1.15727 0.428392 0)
(1.16533 0.374108 0)
(1.13725 0.500458 0)
(1.1478 0.470536 0)
(1.11463 0.528398 0)
(1.12605 0.519272 0)
(1.09246 0.52835 0)
(1.10337 0.530589 0)
(1.0719 0.52121 0)
(1.08202 0.524598 0)
(1.05199 0.520129 0)
(1.06199 0.519608 0)
(1.03091 0.526414 0)
(1.04174 0.522612 0)
(1.00665 0.534678 0)
(1.01934 0.530727 0)
(0.976839 0.537326 0)
(0.992624 0.537267 0)
(0.939126 0.523707 0)
(0.959097 0.533398 0)
(0.892905 0.479305 0)
(0.917012 0.506358 0)
(0.841301 0.39019 0)
(0.867425 0.441007 0)
(0.791649 0.251377 0)
(0.815661 0.326824 0)
(0.752989 0.0733096 0)
(0.770472 0.166006 0)
(0.732648 -0.119098 0)
(0.739961 -0.0228168 0)
(0.736244 -0.291409 1.20046e-21)
(0.731493 -0.209714 0)
(0.76649 -0.416349 0)
(0.747353 -0.362193 4.7684e-21)
(0.958109 -0.642564 -1.90917e-21)
(0.973954 -0.639242 1.51631e-21)
(0.796097 -0.475857 0)
(0.791804 -0.450627 0)
(1.12328 -0.466596 0)
(0.833415 -0.509431 -8.06949e-22)
(0.795149 -0.481455 0)
(0.907026 -0.461026 2.61491e-22)
(0.896751 -0.444944 1.04265e-21)
(0.864852 -0.569934 9.22732e-22)
(0.80328 -0.499588 1.34822e-21)
(0.894802 -0.610633 1.00258e-21)
(0.921815 -0.634013 -1.16537e-21)
(0.942869 -0.641285 0)
(1.19096 -0.384201 -1.9813e-21)
(0.823807 -0.495133 -3.54515e-21)
(0.958071 -0.638328 -3.90167e-21)
(0.969607 -0.635573 -2.68652e-21)
(0.819719 -0.468157 -7.66628e-22)
(1.15302 -0.458036 0)
(1.18161 -0.447372 5.66938e-21)
(0.812761 -0.497752 -1.36385e-21)
(0.937867 -0.489766 0)
(0.920639 -0.475919 9.93846e-23)
(0.980563 -0.50963 2.37363e-22)
(0.957829 -0.500653 -2.07193e-22)
(1.03336 -0.519673 1.19501e-22)
(1.00585 -0.516385 0)
(1.09032 -0.518242 0)
(1.06178 -0.520721 -1.21605e-22)
(1.14706 -0.505736 7.14981e-21)
(1.11924 -0.514019 -3.65746e-21)
(0.996956 -0.62815 -1.73653e-21)
(0.981355 -0.628604 -1.27548e-21)
(0.98979 -0.632033 -2.11385e-22)
(1.02107 -0.573235 4.90844e-23)
(1.00828 -0.610017 0)
(1.0526 -0.43796 0)
(1.03604 -0.516291 -1.66559e-21)
(1.0878 -0.227718 1.4403e-21)
(1.07009 -0.340611 -1.77742e-21)
(1.12257 0.0287512 0)
(1.10564 -0.10206 0)
(1.15213 0.279354 0)
(1.13834 0.158457 0)
(1.17045 0.471018 0)
(1.16319 0.38531 0)
(1.17237 0.576594 0)
(1.17356 0.534713 0)
(1.15912 0.607624 0)
(1.16735 0.599648 0)
(1.1364 0.595148 0)
(1.14855 0.604865 0)
(1.10987 0.566425 0)
(1.12334 0.581581 0)
(1.08274 0.536825 0)
(1.09628 0.551183 0)
(1.05583 0.512359 0)
(1.06927 0.52382 0)
(1.02865 0.493989 0)
(1.04234 0.502413 0)
(0.999628 0.482392 0)
(1.01452 0.487247 0)
(0.966523 0.477542 0)
(0.983671 0.479447 0)
(0.929396 0.46891 0)
(0.948281 0.475007 0)
(0.892036 0.434355 0)
(0.910406 0.456354 0)
(0.859205 0.356891 0)
(0.874785 0.401426 0)
(0.834354 0.237058 0)
(0.84559 0.301635 0)
(0.820267 0.0884461 0)
(0.825786 0.165239 0)
(0.819655 -0.0704571 7.28421e-22)
(0.818172 0.00928518 -7.1854e-22)
(0.832103 -0.219224 -3.30323e-22)
(0.824236 -0.146746 4.26025e-22)
(0.856705 -0.340915 0)
(0.843209 -0.284132 -1.53946e-22)
(0.889219 -0.427603 -2.4377e-21)
(0.87227 -0.389154 -5.5882e-22)
(1.20491 -0.222458 -1.16519e-21)
(1.19776 -0.308113 2.26844e-21)
(1.21396 -0.0375978 3.06776e-22)
(1.21017 -0.131407 1.4443e-21)
(1.21391 0.144699 0)
(1.21519 0.0555173 0)
(1.20367 0.301703 0)
(1.21 0.227447 0)
(1.18476 0.418283 0)
(1.19516 0.365698 0)
(1.1597 0.487991 0)
(1.17281 0.45904 0)
(1.13198 0.515359 0)
(1.14593 0.506287 0)
(1.10507 0.516063 0)
(1.11828 0.51783 0)
(1.08033 0.509778 0)
(1.09245 0.512801 0)
(1.05673 0.508749 0)
(1.06852 0.508334 0)
(1.0322 0.514029 0)
(1.04473 0.510871 0)
(1.0045 0.520136 0)
(1.0189 0.517425 0)
(0.971279 0.519379 0)
(0.988744 0.521178 0)
(0.930504 0.501573 0)
(0.951929 0.513396 0)
(0.882072 0.453658 0)
(0.907144 0.482263 0)
(0.829454 0.363802 0)
(0.855931 0.414527 0)
(0.779792 0.228508 0)
(0.803718 0.301628 0)
(0.741759 0.0580717 0)
(0.758815 0.146532 0)
(0.722967 -0.123925 0)
(0.729516 -0.0332764 0)
(0.728575 -0.283822 0)
(0.722472 -0.20888 0)
(0.763002 -0.392577 1.59705e-21)
(0.741892 -0.34546 -1.01372e-21)
(0.816208 -0.440147 -5.30477e-21)
(0.788796 -0.423369 1.2133e-21)
(0.84815 -0.475316 0)
(0.844366 -0.448068 2.64127e-21)
(0.965233 -0.629422 1.31612e-21)
(0.974129 -0.622133 1.12166e-22)
(0.845322 -0.557049 8.49617e-22)
(0.814125 -0.521932 -1.28956e-21)
(1.17306 -0.495464 2.79659e-21)
(0.876412 -0.599786 -8.23439e-22)
(0.828668 -0.519738 5.03036e-22)
(0.907172 -0.457404 9.63182e-22)
(0.884707 -0.41019 2.46213e-22)
(0.903189 -0.439572 -4.40802e-22)
(0.9049 -0.624548 8.50918e-22)
(0.852899 -0.502363 3.54971e-21)
(0.928483 -0.635902 1.60833e-21)
(0.878768 -0.478523 0)
(0.946442 -0.637154 1.34511e-21)
(0.95684 -0.632777 0)
(0.960256 -0.625291 1.81813e-21)
(0.965669 -0.617334 -1.56859e-21)
(0.828278 -0.541073 4.12725e-22)
(0.923265 -0.49176 3.33387e-22)
(0.913817 -0.474965 0)
(0.950608 -0.521016 -7.71879e-22)
(0.935366 -0.507081 0)
(0.988703 -0.541639 0)
(0.968557 -0.532624 9.66028e-22)
(1.03578 -0.551951 0)
(1.0112 -0.54834 0)
(1.0871 -0.550278 6.37016e-24)
(1.06127 -0.552802 0)
(1.13877 -0.537608 0)
(1.11344 -0.545576 0)
(0.99358 -0.61824 9.46509e-22)
(0.971101 -0.606482 0)
(0.982936 -0.61212 -2.57518e-23)
(1.01772 -0.615192 0)
(1.00523 -0.621 5.73784e-22)
(1.04988 -0.557226 0)
(1.03271 -0.595256 0)
(1.08952 -0.41959 -1.26889e-21)
(1.06914 -0.498731 0)
(1.13117 -0.208592 0)
(1.11046 -0.321711 1.58155e-21)
(1.16945 0.0455479 0)
(1.1511 -0.0839381 0)
(1.19898 0.291237 0)
(1.18577 0.17322 0)
(1.21269 0.47477 0)
(1.20826 0.393446 0)
(1.20678 0.57139 0)
(1.21214 0.533844 0)
(1.18494 0.595978 0)
(1.1974 0.590773 0)
(1.15474 0.580565 0)
(1.17042 0.591352 0)
(1.12236 0.55129 0)
(1.13856 0.566525 0)
(1.09073 0.522009 0)
(1.10639 0.536177 0)
(1.06021 0.49778 0)
(1.07537 0.509165 0)
(1.02997 0.479087 0)
(1.04513 0.487776 0)
(0.998331 0.466061 0)
(1.01448 0.471791 0)
(0.96288 0.458945 0)
(0.981191 0.461995 0)
(0.923345 0.449047 0)
(0.943451 0.455514 0)
(0.883679 0.415739 0)
(0.903149 0.436778 0)
(0.849332 0.341782 0)
(0.86553 0.384336 0)
(0.824117 0.22697 0)
(0.83539 0.288872 0)
(0.810569 0.0846595 0)
(0.815719 0.158171 0)
(0.810626 -0.0668498 0)
(0.808823 0.00885829 0)
(0.824897 -0.209383 -7.95814e-23)
(0.81608 -0.140108 0)
(0.850822 -0.326345 -5.52901e-22)
(0.836499 -0.271719 6.94118e-22)
(0.866943 -0.372407 -2.44844e-22)
(1.22057 -0.373325 0)
(1.19816 -0.482169 -8.18196e-21)
(1.20938 -0.435669 3.35863e-21)
(1.23717 -0.215768 0)
(1.22921 -0.29946 0)
(1.24664 -0.0348595 0)
(1.24309 -0.126319 0)
(1.24534 0.141613 0)
(1.2475 0.0553358 0)
(1.23235 0.293289 0)
(1.24026 0.221584 0)
(1.20953 0.405801 0)
(1.22201 0.355075 0)
(1.18005 0.473128 0)
(1.1954 0.445123 0)
(1.14792 0.500126 0)
(1.16405 0.490992 0)
(1.11691 0.501854 0)
(1.13211 0.503012 0)
(1.08851 0.496647 0)
(1.10241 0.499202 0)
(1.06162 0.495775 0)
(1.07501 0.495427 0)
(1.03396 0.500035 0)
(1.04804 0.497536 0)
(1.00317 0.503944 0)
(1.01911 0.502484 0)
(0.966995 0.499852 0)
(0.9859 0.503449 0)
(0.923733 0.478146 0)
(0.946313 0.491923 0)
(0.873697 0.427221 0)
(0.899436 0.457103 0)
(0.820571 0.337171 0)
(0.847163 0.387532 0)
(0.771348 0.205885 0)
(0.794955 0.276433 0)
(0.734447 0.0436608 0)
(0.75084 0.127547 0)
(0.717659 -0.126661 0)
(0.723102 -0.0422903 0)
(0.726434 -0.273437 0)
(0.718554 -0.205031 0)
(0.76314 -0.368719 0)
(0.741508 -0.328727 0)
(0.816768 -0.410852 5.38025e-22)
(0.788694 -0.394596 0)
(0.847499 -0.422323 1.72035e-21)
(0.955313 -0.615652 9.11665e-22)
(0.95847 -0.603063 6.56052e-22)
(1.16277 -0.527444 -3.25444e-21)
(0.86039 -0.584447 -1.6712e-23)
(0.836557 -0.544399 0)
(0.925464 -0.479326 7.79088e-22)
(0.92198 -0.46121 -1.06884e-22)
(0.89003 -0.611904 1.37827e-23)
(0.855949 -0.528454 -5.05688e-22)
(0.915581 -0.626503 0)
(0.88141 -0.506471 0)
(0.935618 -0.631945 0)
(0.908238 -0.481279 0)
(0.948856 -0.632122 -2.33164e-21)
(0.954762 -0.629613 0)
(0.952676 -0.624988 -2.67039e-21)
(0.934163 -0.471591 9.25444e-22)
(1.22167 -0.46885 3.08788e-21)
(0.943307 -0.616517 -1.33793e-21)
(0.943531 -0.60218 0)
(1.18572 -0.513665 -4.21346e-21)
(1.20706 -0.499315 1.36651e-21)
(0.847039 -0.566226 0)
(0.939404 -0.513466 0)
(0.931147 -0.496761 -1.263e-21)
(0.963349 -0.541805 0)
(0.950242 -0.528674 0)
(0.996593 -0.561678 0)
(0.978937 -0.552942 0)
(1.03802 -0.571273 0)
(1.01638 -0.567949 0)
(1.08328 -0.568917 -6.27297e-24)
(1.06029 -0.57171 0)
(1.1296 -0.554977 1.7311e-21)
(1.10678 -0.563458 -1.84759e-22)
(1.17206 -0.530415 2.55782e-21)
(1.15151 -0.5442 -3.99296e-21)
(0.977219 -0.592674 -1.58971e-22)
(0.944594 -0.584818 3.76394e-22)
(0.962003 -0.587846 -3.75852e-22)
(1.00584 -0.604698 -3.94944e-22)
(0.99194 -0.598691 5.48401e-22)
(1.03794 -0.598472 6.80698e-22)
(1.02106 -0.606145 -5.51431e-22)
(1.07856 -0.536674 0)
(1.05709 -0.576641 -6.73353e-22)
(1.12566 -0.397164 0)
(1.10168 -0.476883 0)
(1.173 -0.186956 0)
(1.14968 -0.299439 0)
(1.21475 0.0632922 0)
(1.19501 -0.0639209 0)
(1.24398 0.301925 0)
(1.23152 0.18791 0)
(1.2527 0.475189 0)
(1.25131 0.399238 0)
(1.23873 0.561883 0)
(1.24833 0.528973 0)
(1.20854 0.580307 0)
(1.22506 0.577619 0)
(1.17142 0.562764 0)
(1.19034 0.574198 0)
(1.13382 0.533703 0)
(1.15244 0.548658 0)
(1.09825 0.505283 0)
(1.11575 0.519019 0)
(1.06461 0.481628 0)
(1.08125 0.492791 0)
(1.03176 0.46285 0)
(1.04817 0.471689 0)
(0.997966 0.448617 0)
(1.01513 0.455118 0)
(0.960751 0.439311 0)
(0.979917 0.443496 0)
(0.919469 0.428096 0)
(0.940467 0.434955 0)
(0.878044 0.396204 0)
(0.898365 0.41615 0)
(0.842543 0.326267 0)
(0.859197 0.366554 0)
(0.817237 0.217035 0)
(0.828421 0.275997 0)
(0.80441 0.0813855 0)
(0.809129 0.151438 0)
(0.805514 -0.0629203 0)
(0.803143 0.00918963 0)
(0.820818 -0.198416 0)
(0.811434 -0.132803 0)
(0.847708 -0.310691 -5.04696e-22)
(0.832959 -0.258058 4.49383e-22)
(0.882472 -0.39199 -1.29499e-22)
(0.86445 -0.355396 4.72075e-23)
(0.92031 -0.442344 -1.10892e-23)
(0.901275 -0.420754 -7.74855e-22)
(1.24726 -0.363416 0)
(1.23587 -0.422882 -2.05828e-21)
(1.26612 -0.208534 0)
(1.25803 -0.290325 0)
(1.27544 -0.0326781 0)
(1.27222 -0.121405 0)
(1.27278 0.137527 0)
(1.27578 0.0544322 0)
(1.25732 0.283262 0)
(1.26661 0.214401 0)
(1.23115 0.391287 0)
(1.24539 0.342584 0)
(1.19796 0.456134 0)
(1.21518 0.42909 0)
(1.16219 0.482882 0)
(1.18012 0.473606 0)
(1.12779 0.485861 0)
(1.14465 0.486291 0)
(1.09629 0.48194 0)
(1.1117 0.483933 0)
(1.06651 0.481342 0)
(1.08132 0.481016 0)
(1.03605 0.48461 0)
(1.05152 0.482764 0)
(1.00252 0.486352 0)
(1.01982 0.48612 0)
(0.963822 0.479083 0)
(0.983943 0.484375 0)
(0.918586 0.453828 0)
(0.942057 0.469357 0)
(0.867477 0.40039 0)
(0.893621 0.43129 0)
(0.81432 0.310621 0)
(0.840797 0.36039 0)
(0.765956 0.183684 0)
(0.789037 0.251505 0)
(0.730619 0.0300284 0)
(0.746136 0.10913 0)
(0.716197 -0.128103 0)
(0.720338 -0.05024 0)
(0.728528 -0.260938 0)
(0.718733 -0.199518 0)
(0.767959 -0.344994 0)
(0.745282 -0.309848 0)
(0.824322 -0.38335 0)
(0.794499 -0.36802 0)
(0.885707 -0.409956 0)
(0.855845 -0.396527 -2.08267e-22)
(0.926118 -0.602141 0)
(0.92471 -0.582338 -1.75219e-22)
(0.962197 -0.473386 -2.59372e-21)
(0.971013 -0.455798 -1.44231e-21)
(0.877609 -0.595624 -7.07568e-22)
(0.860791 -0.553469 0)
(1.19117 -0.515375 2.42311e-21)
(0.904494 -0.613433 6.98355e-22)
(0.882654 -0.532094 0)
(0.93946 -0.45818 3.94491e-23)
(0.920706 -0.423545 6.8981e-23)
(0.940041 -0.439593 -6.91808e-23)
(0.926038 -0.623163 0)
(0.908088 -0.511225 3.47791e-22)
(0.94144 -0.628122 1.41756e-21)
(0.932061 -0.498948 -2.07044e-21)
(0.94981 -0.630428 1.10607e-21)
(0.956526 -0.492738 1.03234e-21)
(0.950619 -0.630688 8.53731e-22)
(0.943286 -0.627932 1.33154e-21)
(0.928388 -0.619062 9.62033e-23)
(0.902111 -0.578485 3.0125e-22)
(0.906043 -0.600937 -1.9014e-22)
(0.989232 -0.48535 0)
(0.99626 -0.464842 8.45342e-23)
(0.867974 -0.576114 0)
(0.943445 -0.494274 -1.11786e-22)
(0.940548 -0.47645 9.2533e-23)
(0.955115 -0.526687 -5.11312e-22)
(0.948147 -0.510999 1.00021e-21)
(0.975446 -0.553528 0)
(0.964388 -0.541247 0)
(1.00388 -0.571779 0)
(0.98871 -0.563827 0)
(1.03942 -0.579933 0)
(1.0209 -0.577263 0)
(1.07903 -0.576282 0)
(1.05895 -0.579643 0)
(1.11926 -0.561341 0)
(1.09928 -0.570287 -1.73554e-22)
(1.15675 -0.53586 0)
(1.13867 -0.549742 0)
(0.946217 -0.564991 0)
(0.899333 -0.553558 -2.47103e-23)
(0.924025 -0.560253 2.89965e-23)