/*--------------------------------*- C++ -*----------------------------------*\
  =========                 |
  \\      /  F ield         | OpenFOAM: The Open Source CFD Toolbox
   \\    /   O peration     | Website:  https://openfoam.org
    \\  /    A nd           | Version:  10
     \\/     M anipulation  |
\*---------------------------------------------------------------------------*/
FoamFile
{
    format      ascii;
    class       volVectorField;
    location    "12.5";
    object      U;
}
// * * * * * * * * * * * * * * * * * * * * * * * * * * * * * * * * * * * * * //

dimensions      [0 1 -1 0 0 0 0];

internalField   nonuniform List<vector> 
8711
(
(1.04745 0.0116405 0)
(1.04829 0.0122643 -1.18394e-22)
(1.05732 0.011726 -8.11687e-22)
(1.20322 0.0151067 8.78671e-21)
(1.20666 0.00383599 3.00741e-21)
(1.22388 0.00730572 1.74589e-20)
(1.08973 -0.0250968 1.43839e-22)
(1.09094 -0.0307752 2.63253e-21)
(0.608082 -0.0310745 -1.21569e-21)
(0.611238 0.0642902 9.47435e-21)
(0.775992 -0.489393 0)
(0.446693 -0.689164 -3.82946e-20)
(0.596363 0.0932501 -1.41872e-21)
(0.608486 0.0555565 -1.71412e-22)
(0.744204 0.0662745 2.36495e-21)
(0.607913 0.102268 0)
(1.25907 -0.0273324 -7.92201e-21)
(1.2735 -0.028865 7.97686e-21)
(1.2903 -0.0393563 5.13113e-21)
(1.06014 0.00763262 -1.42837e-23)
(1.06041 0.00664701 1.80506e-23)
(1.06411 0.00966079 9.94861e-23)
(1.06346 0.0101435 0)
(1.06016 0.0121298 3.30534e-22)
(1.40264 -0.311888 6.52788e-20)
(1.4095 -0.334413 -1.54453e-20)
(1.46488 -0.393715 2.69684e-20)
(1.23743 -0.276662 -5.33788e-20)
(0.876891 -0.0158935 9.30096e-22)
(0.939128 -0.0147543 -1.2436e-21)
(0.995086 -0.0140088 2.22604e-23)
(0.958429 0.238982 9.27893e-20)
(0.900692 0.263404 2.57633e-20)
(1.36488 0.333973 4.48256e-21)
(1.3607 0.291449 -3.07905e-20)
(1.03918 0.0567435 -3.75681e-20)
(1.04784 0.0683305 1.07797e-20)
(1.03945 -0.0758702 0)
(1.02314 -0.0447916 -4.69983e-20)
(1.02841 -0.047578 6.59333e-20)
(1.01544 -0.0335886 0)
(1.00828 -0.0180252 0)
(-0.0861289 0.0480641 7.24093e-21)
(-0.110504 -0.00924853 9.16967e-20)
(0.488938 0.697473 4.12725e-20)
(0.780068 0.705605 2.40548e-20)
(-0.0556459 0.0560955 -9.33362e-20)
(0.0578764 0.0633735 3.26446e-20)
(-0.0856937 0.0467947 -4.75111e-20)
(1.06214 0.00364379 4.16918e-22)
(1.05976 0.00353957 7.03617e-22)
(1.06188 0.00403329 2.39921e-22)
(1.06437 0.00435123 0)
(1.1333 0.0335257 0)
(1.12764 0.0380032 -6.29375e-23)
(1.11992 0.0404779 -1.93561e-22)
(0.655881 0.0413918 1.01313e-21)
(0.593476 0.0884337 -1.96476e-21)
(0.631157 0.0428006 0)
(0.564953 0.0987195 3.67e-21)
(1.08754 -0.0117021 -1.42327e-21)
(1.09239 -0.0168688 -7.73225e-22)
(1.07396 -0.0266948 1.92284e-21)
(1.06667 -0.0216735 7.85681e-22)
(1.07402 -0.0148914 -4.94438e-21)
(1.0776 -0.0171199 0)
(1.08776 -0.0172397 2.21595e-21)
(1.06457 0.0111589 0)
(1.06472 0.0109098 -4.39999e-22)
(1.06403 0.0112761 1.36525e-23)
(0.981704 -0.0585207 3.40876e-21)
(1.02529 -0.0547822 -1.71462e-21)
(0.984292 -0.0697375 6.5843e-22)
(0.948482 -0.0720673 0)
(1.06872 0.00615606 -3.21346e-21)
(1.06896 -0.000251964 0)
(1.07688 0.00738964 2.49713e-21)
(1.07774 0.0143821 -1.98875e-21)
(1.06418 0.00967707 4.05823e-22)
(1.1033 0.00937138 -2.89304e-23)
(1.10138 0.00715248 5.21968e-22)
(1.11203 0.00281941 1.99433e-22)
(1.11023 0.000841958 0)
(1.06184 0.010066 1.75868e-22)
(1.06229 0.010829 5.92958e-22)
(1.06245 0.0114395 -8.47735e-22)
(0.713966 0.152054 3.65459e-21)
(0.601967 0.168604 -1.22137e-20)
(0.981003 0.307398 4.59986e-22)
(0.904001 0.309238 4.85828e-24)
(1.11064 0.0317536 -7.80911e-22)
(1.1155 0.0298381 -1.10878e-22)
(1.11251 0.044808 2.67061e-22)
(1.20879 -0.142966 1.39948e-21)
(1.19051 -0.124554 -1.37151e-21)
(1.11528 0.117756 9.19735e-21)
(1.09757 0.115975 -5.63381e-22)
(1.08861 0.103013 -4.34531e-21)
(1.10357 0.107408 -1.55314e-21)
(1.14039 0.133379 1.96084e-23)
(1.12852 0.106753 0)
(0.976423 -0.169956 -6.31189e-21)
(0.982627 -0.229573 1.58643e-20)
(0.654871 0.0114122 1.04095e-21)
(0.70246 -0.0296439 4.41984e-22)
(0.751504 -0.0647209 4.27674e-23)
(0.788318 -0.0905806 0)
(0.829163 -0.112417 6.76376e-22)
(0.857621 -0.125806 -7.17188e-22)
(0.884547 -0.134635 -4.5505e-23)
(0.904659 -0.138342 -4.26076e-23)
(0.920166 -0.138349 3.04474e-22)
(0.930425 -0.135095 -4.13708e-22)
(0.93778 -0.130025 -1.50772e-22)
(0.939642 -0.122879 -2.8038e-22)
(0.941781 -0.114982 3.57866e-22)
(0.941166 -0.105558 1.32158e-22)
(0.942199 -0.0956318 2.40247e-22)
(0.990254 -0.0920516 -4.98455e-22)
(0.940933 -0.0841491 4.45938e-22)
(0.983275 -0.0815008 -8.06652e-22)
(0.998239 -0.112895 6.99307e-23)
(0.992744 -0.102692 2.60658e-22)
(0.999801 -0.132666 -1.88935e-23)
(0.998602 -0.123017 1.44883e-22)
(0.988685 -0.148238 1.60961e-22)
(0.994739 -0.141236 7.95042e-23)
(0.960994 -0.153906 0)
(0.975859 -0.152657 4.23074e-23)
(0.912407 -0.14235 7.74389e-23)
(0.938527 -0.1507 0)
(0.838689 -0.105706 -2.46103e-23)
(0.876026 -0.127005 0)
(0.737871 -0.039687 -2.80852e-22)
(0.789175 -0.0759984 -4.99127e-23)
(0.686729 -0.00141947 -1.55249e-21)
(0.656777 0.00790842 8.68885e-22)
(0.623787 0.0492971 2.9583e-22)
(0.726155 -0.0573772 7.47558e-22)
(0.692397 -0.0277014 -4.52439e-22)
(0.78956 -0.100556 -7.64105e-22)
(0.759231 -0.0818249 -7.5529e-22)
(0.837107 -0.121454 -7.31272e-22)
(0.814844 -0.113198 1.1785e-21)
(0.869656 -0.126124 7.84459e-22)
(0.855224 -0.125668 -6.5428e-23)
(0.88855 -0.118819 -1.88368e-23)
(0.880575 -0.123662 -6.12442e-22)
(0.903794 -0.10343 2.25998e-22)
(0.896162 -0.112516 -3.95821e-22)
(0.921141 -0.0799668 0)
(0.911112 -0.0929599 0)
(0.931379 -0.0674822 -1.70352e-22)
(0.546817 0.129522 4.75661e-21)
(0.951021 -0.0600595 6.44944e-22)
(1.02501 -0.0638952 -8.46484e-22)
(0.942632 -0.053712 -5.80842e-22)
(0.521087 0.143555 -1.29697e-21)
(0.582595 0.134261 -3.31664e-21)
(1.03715 -0.0863479 4.87792e-22)
(1.03052 -0.0757449 4.11542e-22)
(1.04743 -0.109644 -2.67692e-22)
(1.04126 -0.0982155 -1.57509e-22)
(1.05148 -0.133539 3.04777e-22)
(1.04807 -0.121871 -2.58209e-22)
(1.04662 -0.154726 -1.59392e-22)
(1.04829 -0.144942 0)
(1.02991 -0.168268 -9.34474e-22)
(1.03831 -0.162828 6.3169e-22)
(0.995894 -0.167797 4.8343e-22)
(1.01408 -0.170319 3.10517e-22)
(0.936184 -0.144074 7.82403e-23)
(0.967212 -0.158901 -5.86382e-22)
(0.847772 -0.0914921 5.17259e-22)
(0.893593 -0.121271 -9.7928e-23)
(0.727424 -0.00906271 0)
(0.791075 -0.0541598 -4.44973e-22)
(0.957809 -0.0477223 -2.06863e-21)
(0.952736 -0.0406546 6.19627e-22)
(0.662331 0.0965945 5.33574e-22)
(0.678567 0.126647 -3.64499e-21)
(0.670761 0.0298386 4.9064e-22)
(0.660697 0.0638257 2.77516e-22)
(0.707736 -0.0310154 1.11165e-22)
(0.687017 -0.0020212 -1.26965e-23)
(0.754637 -0.0769582 -4.28983e-22)
(0.730937 -0.0565808 4.19632e-22)
(0.797855 -0.103369 1.03275e-21)
(0.776 -0.0921635 0)
(0.835206 -0.113259 -1.48129e-22)
(0.816987 -0.110213 -6.49965e-22)
(0.866713 -0.107944 -2.9215e-22)
(0.850603 -0.112393 2.89643e-22)
(0.897366 -0.0928268 -4.98747e-22)
(0.880596 -0.102357 5.0736e-22)
(0.932355 -0.0673014 -2.12629e-23)
(0.912127 -0.0818255 -1.24715e-23)
(0.965591 -0.0389376 -6.01239e-22)
(0.94831 -0.0537078 -2.88594e-22)
(1.01836 -0.0424242 -3.77321e-21)
(0.989852 -0.0460017 2.87358e-22)
(0.526569 0.169607 0)
(0.978868 -0.0258039 0)
(0.52842 0.132447 2.30674e-21)
(0.478811 0.185003 -9.75809e-22)
(0.720647 0.023443 -1.21177e-21)
(0.642389 0.0708092 1.12873e-21)
(1.03813 -0.035495 1.30664e-20)
(1.02883 -0.030139 -5.67091e-21)
(1.0637 -0.0378603 2.09541e-21)
(0.624988 0.196151 -2.30461e-21)
(0.749237 0.177791 -2.58307e-21)
(1.06548 -0.0584448 -1.1809e-22)
(1.05456 -0.0492064 8.81469e-22)
(1.07402 -0.0815946 0)
(1.06506 -0.0698631 1.11899e-22)
(1.08179 -0.106832 4.78428e-22)
(1.07587 -0.0941178 -5.74987e-22)
(1.08703 -0.13286 5.15239e-22)
(1.08326 -0.119923 -6.21773e-22)
(1.08909 -0.157163 1.68723e-21)
(1.08728 -0.145535 -1.21608e-21)
(1.08366 -0.176224 -2.4683e-22)
(1.08608 -0.16766 -3.07406e-22)
(1.06564 -0.184609 0)
(1.07619 -0.182224 -3.71373e-23)
(1.02776 -0.174013 -9.16531e-22)
(1.049 -0.181907 5.17186e-22)
(0.961785 -0.136865 3.17321e-24)
(0.99642 -0.158438 4.56195e-22)
(0.858745 -0.0691582 3.00739e-22)
(0.911565 -0.105252 1.80741e-22)
(0.791751 -0.0249963 -2.73283e-22)
(1.01444 -0.0195538 -2.80162e-22)
(1.02974 -0.00662059 0)
(0.829522 0.132476 2.6652e-21)
(0.779717 0.205635 8.68002e-23)
(0.876287 0.195308 3.83597e-21)
(0.852904 0.162036 -1.28849e-21)
(0.777066 0.0816154 -1.17136e-21)
(0.797295 0.107526 3.84632e-21)
(0.749279 0.0320337 1.07969e-21)
(0.756936 0.0573417 -1.43346e-21)
(0.752302 -0.0177591 -5.51479e-23)
(0.746847 0.00669808 -3.11919e-23)
(0.775144 -0.0581749 0)
(0.760558 -0.0400429 0)
(0.808912 -0.0852347 0)
(0.790235 -0.0735891 0)
(0.84701 -0.0957538 0)
(0.826814 -0.0924848 0)
(0.88725 -0.0915728 -1.04846e-21)
(0.865626 -0.0958352 1.15416e-21)
(0.929464 -0.0746591 -3.23031e-24)
(0.90633 -0.0850398 0)
(0.974 -0.0486305 2.18851e-23)
(0.949284 -0.0632791 1.31022e-23)
(0.994962 -0.0339599 5.80646e-22)
(0.96219 -0.0357312 0)
(0.986992 -0.0359563 3.20034e-22)
(0.992545 -0.0126604 0)
(0.96297 -0.027513 0)
(0.518918 0.205245 5.76942e-21)
(0.464094 0.178645 0)
(0.55643 0.116169 -3.94538e-21)
(0.452357 0.178732 -1.21424e-21)
(0.613995 0.0951335 4.14829e-21)
(1.08337 -0.0328777 -2.97621e-21)
(1.04286 0.00527187 -4.297e-22)
(0.656049 0.221821 6.58635e-22)
(0.448244 0.221817 0)
(0.944242 0.187924 5.53824e-22)
(0.88658 0.232768 0)
(0.951972 0.227692 -5.00034e-22)
(0.796572 0.237758 -2.80812e-22)
(0.407757 0.220555 4.03149e-22)
(0.547987 0.124606 -7.98921e-22)
(0.427811 0.189114 3.58498e-22)
(0.479712 0.147968 2.41982e-21)
(0.657569 0.0986829 -1.41602e-21)
(0.586207 0.115001 0)
(1.08833 -0.0539391 9.57835e-23)
(1.08301 -0.0441844 -2.47542e-22)
(1.09511 -0.0775619 0)
(1.0899 -0.0655293 1.06033e-22)
(1.102 -0.103247 0)
(1.09748 -0.090334 0)
(1.10943 -0.12984 9.76479e-25)
(1.10506 -0.116578 0)
(1.11687 -0.155599 -1.88268e-24)
(1.1129 -0.142949 0)
(1.12202 -0.177776 -1.88989e-24)
(1.1198 -0.16733 0)
(1.11994 -0.192287 0)
(1.12198 -0.186362 0)
(1.10334 -0.191888 1.70853e-25)
(1.11382 -0.194366 0)
(1.0631 -0.168591 0)
(1.08656 -0.18336 0)
(0.993184 -0.117866 0)
(1.03113 -0.145878 0)
(0.883118 -0.0389518 -3.30393e-23)
(0.940196 -0.0802937 2.39825e-22)
(0.752964 0.0490925 -1.61084e-22)
(0.817938 0.00636846 -1.74091e-22)
(0.734904 0.0628157 3.92492e-22)
(0.918527 0.119589 -1.87513e-23)
(0.929107 0.152167 1.91215e-23)
(0.887609 0.0649295 -2.14128e-24)
(0.902476 0.0912596 0)
(0.861089 0.0207643 0)
(0.872087 0.0418164 0)
(0.845686 -0.0172844 0)
(0.849295 0.0011257 0)
(0.85055 -0.048242 0)
(0.844915 -0.0338766 0)
(0.871788 -0.0695984 1.28974e-24)
(0.858681 -0.0603547 0)
(0.905458 -0.0773887 0)
(0.887285 -0.075208 0)
(0.946388 -0.0712833 0)
(0.924982 -0.0760975 0)
(0.990855 -0.0534074 0)
(0.968005 -0.0636655 0)
(1.03534 -0.0281775 3.36994e-23)
(1.01303 -0.04161 0)
(1.07498 -0.00032239 5.3108e-23)
(1.05658 -0.0138605 6.35588e-23)
(1.0997 0.0218026 4.36369e-22)
(1.08905 0.0115106 -4.23551e-22)
(1.02224 -0.0227963 2.71473e-22)
(1.06042 -0.0162706 -1.91983e-22)
(0.966754 -0.0236982 -7.43612e-25)
(0.985142 -0.0259029 -1.90576e-22)
(1.00627 -7.56818e-05 0)
(0.973636 -0.0146368 -7.03971e-23)
(1.10852 0.0308016 -4.13585e-22)
(1.05543 0.0163038 3.64938e-22)
(0.525742 0.233041 -3.65944e-23)
(0.901939 0.271291 9.06888e-22)
(0.969049 0.267298 -9.55618e-22)
(1.14887 0.0334709 0)
(1.15348 0.0404587 0)
(0.670554 0.246241 -6.15632e-22)
(0.428101 0.251703 -7.94465e-22)
(0.810457 0.0507261 1.21605e-21)
(0.756395 0.0751524 -3.41098e-21)
(0.809685 0.270617 8.72259e-22)
(0.369212 0.242724 7.66729e-22)
(0.354853 0.216575 -3.49199e-22)
(0.410816 0.161308 -1.30412e-21)
(1.09719 -0.0304917 1.23493e-24)
(1.09523 -0.0225318 -8.95351e-22)
(1.10131 -0.0515688 0)
(1.09811 -0.0410479 0)
(1.10598 -0.0749004 2.42333e-23)
(1.10239 -0.0629618 7.15509e-23)
(1.1127 -0.0996841 0)
(1.1084 -0.0871392 0)
(1.12213 -0.125444 -8.40298e-25)
(1.11673 -0.112566 0)
(1.13402 -0.150912 3.6148e-24)
(1.12764 -0.138321 0)
(1.14701 -0.174201 1.85439e-24)
(1.14045 -0.162995 0)
(1.15762 -0.192104 0)
(1.15288 -0.184057 0)
(1.15985 -0.199053 2.68499e-24)
(1.16028 -0.197355 0)
(1.14458 -0.187515 0)
(1.155 -0.195989 0)
(1.10227 -0.150911 0)
(1.12721 -0.172435 0)
(1.02541 -0.0887243 -6.77606e-24)
(1.0677 -0.121807 -7.68117e-24)
(0.921766 -0.0132411 1.32008e-22)
(0.976171 -0.0517025 3.35836e-24)
(0.877774 0.0178209 -3.43811e-22)
(1.01339 0.258849 4.53123e-22)
(0.995212 0.345653 -1.33409e-22)
(1.04219 0.332356 0)
(1.0263 0.297446 -7.15141e-22)
(0.992103 0.182963 4.44508e-22)
(0.998879 0.220465 5.73373e-22)
(0.980158 0.114118 0)
(0.984894 0.147388 0)
(0.969633 0.0556547 -1.92927e-24)
(0.974804 0.0840577 0)
(0.958021 0.0110862 1.80262e-24)
(0.963928 0.0318912 0)
(0.948339 -0.0215265 0)
(0.952352 -0.00659792 0)
(0.948876 -0.0448582 0)
(0.946973 -0.0342359 0)
(0.963442 -0.0588573 -1.2895e-24)
(0.954428 -0.0531422 0)
(0.990526 -0.0614259 0)
(0.97566 -0.0615869 0)
(1.02581 -0.052378 0)
(1.00745 -0.0583022 0)
(1.0642 -0.0339057 0)
(1.04511 -0.0440566 0)
(1.10063 -0.0101704 -1.89413e-23)
(1.08381 -0.0220632 8.33938e-26)
(1.13152 0.0144717 -1.18039e-22)
(1.11706 0.00249696 -7.86124e-24)
(1.14197 0.0248121 4.2344e-22)
(1.08328 -0.00626142 -6.62159e-22)
(1.01897 -0.0148971 1.2521e-22)
(1.05558 -0.0101585 2.77738e-22)
(0.973055 -0.0123196 1.42235e-22)
(0.985713 -0.0162419 -3.2886e-22)
(1.01976 0.0114935 9.95263e-23)
(0.98506 -0.00247059 5.48732e-23)
(1.11623 0.0385762 0)
(1.06731 0.0262425 -1.63964e-22)
(1.15611 0.0461726 0)
(0.526933 0.257805 0)
(1.10193 -0.0106459 -1.37582e-21)
(1.10133 -0.00531489 -1.55339e-21)
(1.0656 0.365334 0)
(1.10587 -0.0141014 2.3356e-21)
(0.687587 0.271339 -1.02083e-21)
(0.411314 0.272712 0)
(0.808276 0.30525 4.67832e-22)
(0.324387 0.264006 -3.76013e-22)
(1.18043 0.0515567 -6.86344e-22)
(0.906807 0.344885 -1.63352e-22)
(0.306383 0.225279 3.27503e-22)
(1.01382 0.3707 3.34366e-23)
(0.368651 0.164481 0)
(1.10654 -0.00521949 1.87474e-21)
(1.18129 0.048447 -4.12156e-22)
(1.10524 -0.0297994 4.3958e-22)
(1.10317 -0.022347 -1.45108e-21)
(1.10628 -0.0500382 -1.30959e-22)
(1.10415 -0.0399555 1.84868e-22)
(1.10984 -0.0723745 -2.28005e-23)
(1.10688 -0.061031 -2.8457e-23)
(1.11671 -0.0956464 0)
(1.11243 -0.0838667 0)
(1.12744 -0.119774 8.40297e-25)
(1.1214 -0.107704 0)
(1.14208 -0.143799 -3.31467e-24)
(1.13421 -0.131884 0)
(1.1602 -0.166401 1.55613e-24)
(1.15076 -0.155408 0)
(1.18016 -0.185293 0)
(1.17014 -0.176501 0)
(1.19819 -0.196427 -2.4549e-24)
(1.1898 -0.192158 0)
(1.20716 -0.193692 0)
(1.20439 -0.197183 0)
(1.1972 -0.170491 0)
(1.20514 -0.184902 0)
(1.16009 -0.124902 -3.05423e-25)
(1.18194 -0.149844 7.30048e-26)
(1.09365 -0.0641098 -3.30458e-23)
(1.12853 -0.0950762 3.51525e-23)
(1.01096 -0.00824813 0)
(1.05178 -0.0338053 -4.24261e-24)
(0.941706 0.0287262 0)
(0.972668 0.0123246 0)
(1.09008 0.322907 8.24744e-23)
(1.10401 0.362353 3.10262e-21)
(1.05619 0.251854 2.18967e-22)
(1.07227 0.288264 -2.15185e-22)
(1.03437 0.180226 -2.02844e-21)
(1.0429 0.215589 1.62372e-23)
(1.02552 0.113413 -1.45648e-21)
(1.02773 0.146284 3.76644e-22)
(1.02432 0.0550847 1.89579e-24)
(1.0233 0.083333 1.98422e-21)
(1.02651 0.00966227 -1.80265e-24)
(1.02536 0.0307948 0)
(1.02973 -0.0220924 1.99714e-28)
(1.02793 -0.0077821 -2.37762e-28)
(1.03669 -0.041735 0)
(1.03253 -0.0332628 0)
(1.05101 -0.0505432 0)
(1.04282 -0.0474186 0)
(1.07341 -0.0487308 0)
(1.06128 -0.0509068 0)
(1.10117 -0.0372999 0)
(1.08674 -0.0441078 0)
(1.12997 -0.0188155 0)
(1.11542 -0.0287845 0)
(1.15513 0.00265111 1.13022e-23)
(1.14253 -0.00822253 -3.18199e-22)
(1.1728 0.0229622 0)
(1.16421 0.0130286 2.83175e-22)
(1.18148 0.039118 -1.94791e-22)
(1.17823 0.0316162 0)
(1.18311 0.0443236 5.71596e-22)
(0.559353 0.106711 -1.06054e-21)
(0.846969 0.045573 -2.2319e-21)
(1.08177 -0.000972366 7.06836e-22)
(1.10666 0.000202233 0)
(1.10108 -0.000759707 -5.82096e-22)
(1.01709 -0.00712322 -7.42532e-23)
(1.05235 -0.00389673 -1.80469e-22)
(0.980207 -0.00154602 0)
(0.988281 -0.00680037 7.37928e-23)
(1.03201 0.021692 -2.21914e-22)
(0.996053 0.00853996 1.1817e-22)
(1.12344 0.0450597 0)
(1.0783 0.0348592 1.0523e-22)
(1.15871 0.0507075 0)
(0.536092 0.277045 0)
(0.690038 0.297232 -1.71356e-22)
(0.392742 0.289388 3.61239e-22)
(1.17939 0.0538576 6.18276e-22)
(1.18993 0.0470949 0)
(1.18533 0.0504848 1.95761e-21)
(0.800962 0.337453 -1.26509e-22)
(0.288508 0.271522 0)
(0.912798 0.375058 1.253e-22)
(0.259872 0.219645 -2.76611e-22)
(0.995023 0.403294 1.75547e-22)
(0.379736 0.148881 2.16305e-21)
(1.11655 0.39174 -2.45117e-21)
(0.810246 0.048904 -1.47368e-21)
(0.555414 0.0768093 1.50578e-21)
(1.11017 -0.00229176 0)
(1.10786 0.00488702 -6.9613e-23)
(1.06561 -0.0077645 6.47188e-22)
(1.10644 -0.0148 8.33021e-22)
(1.10835 -0.00859484 0)
(1.10515 -0.0304791 1.66529e-22)
(1.10583 -0.0227061 1.48688e-22)
(1.10569 -0.0491613 -1.14011e-27)
(1.10508 -0.0395425 -9.07766e-23)
(1.1091 -0.069861 2.18303e-23)
(1.10687 -0.0594134 -2.33258e-23)
(1.11623 -0.0914339 0)
(1.11213 -0.0805454 0)
(1.12747 -0.113606 -7.01997e-25)
(1.1213 -0.102512 0)
(1.14306 -0.135604 3.02188e-24)
(1.13472 -0.124696 0)
(1.16301 -0.15635 -1.55613e-24)
(1.15254 -0.146234 0)
(1.18677 -0.174075 -1.30631e-24)
(1.17452 -0.165741 0)
(1.21254 -0.185805 8.60944e-26)
(1.19962 -0.180926 0)
(1.23622 -0.186995 0)
(1.22505 -0.188027 0)
(1.25055 -0.172129 0)
(1.2451 -0.181838 0)
(1.24672 -0.137646 0)
(1.25139 -0.157256 0)
(1.21848 -0.0871958 -4.25198e-26)
(1.23555 -0.11362 0)
(1.17313 -0.0345174 1.58864e-23)
(1.19546 -0.0589212 -1.70362e-23)
(1.11604 0.005501 2.72861e-22)
(1.14852 -0.0130442 -1.56566e-23)
(1.04383 0.025352 -4.73397e-22)
(1.07774 0.0193842 0)
(0.76105 0.0376839 0)
(1.0038 0.0112925 1.73622e-20)
(1.02364 0.0222325 -5.48156e-21)
(1.12114 0.299505 4.05863e-22)
(1.17287 0.364631 -1.95432e-21)
(1.14527 0.332976 -1.57696e-21)
(1.08344 0.23616 -2.00413e-22)
(1.09996 0.267716 2.46345e-22)
(1.06049 0.172855 0)
(1.07008 0.204685 3.6843e-23)
(1.05207 0.111791 -1.32939e-24)
(1.05414 0.142004 0)
(1.05543 0.0574357 0)
(1.05258 0.0836131 0)
(1.06586 0.0135246 0)
(1.06015 0.0341031 0)
(1.07937 -0.0176196 0)
(1.07237 -0.00364151 0)
(1.0947 -0.0358601 0)
(1.08681 -0.0282238 0)
(1.11246 -0.0423413 0)
(1.10321 -0.0404389 0)
(1.13289 -0.0384551 0)
(1.12236 -0.0415606 0)
(1.15431 -0.0263276 1.45957e-24)
(1.14357 -0.0332435 0)
(1.17368 -0.00903597 0)
(1.16435 -0.0181088 0)
(1.18798 0.00970142 0)
(1.18153 0.000334319 0)
(1.19538 0.0264925 -8.47328e-25)
(1.19259 0.0184641 0)
(1.19552 0.0393461 2.08226e-22)
(1.1966 0.0335855 0)
(1.19484 0.0436473 -3.03002e-22)
(1.08005 0.00427324 -2.06109e-24)
(1.09986 0.00467729 1.17622e-21)
(1.01646 0.000479284 -6.83875e-23)
(1.05057 0.0021576 -1.50059e-22)
(0.988039 0.00842895 1.82381e-27)
(0.991397 0.00222761 6.8895e-23)
(1.04418 0.0306305 1.50311e-28)
(1.0074 0.0185461 0)
(1.12942 0.0501465 -1.70893e-24)
(1.08847 0.0419695 4.85724e-23)
(1.16062 0.0541118 -3.54641e-22)
(0.53544 0.294902 0)
(1.10767 -0.004114 0)
(1.18822 0.0437282 1.6395e-22)
(1.1831 0.0455337 -5.7178e-22)
(0.67765 0.322595 6.21629e-23)
(0.373551 0.29867 0)
(0.793288 0.364996 -4.03784e-24)
(0.248635 0.271123 2.73451e-22)
(0.9003 0.399396 0)
(0.21155 0.206947 -1.55154e-21)
(1.05168 0.404221 -1.34137e-21)
(1.20268 0.386744 -1.58512e-21)
(1.14652 0.412566 -3.20727e-21)
(0.288785 0.132268 9.26396e-22)
(0.464811 0.0670839 0)
(0.729939 0.0241202 -2.12336e-21)
(0.88692 0.00406987 1.86233e-21)
(1.16997 -0.000531285 0)
(1.17034 -0.0167443 -1.09045e-22)
(1.07394 -0.0237132 -6.23132e-21)
(1.10419 -0.015987 -5.12887e-22)
(1.10584 -0.00957999 0)
(1.10224 -0.0310187 7.08757e-23)
(1.1031 -0.023241 0)
(1.1026 -0.0483921 2.17543e-27)
(1.1022 -0.0393581 -7.22208e-23)
(1.10617 -0.0673501 0)
(1.10403 -0.0577582 -7.93005e-29)
(1.1135 -0.0871588 0)
(1.10939 -0.0771917 0)
(1.12497 -0.107347 7.02077e-25)
(1.11874 -0.097251 -9.46578e-29)
(1.14091 -0.127268 -1.35569e-25)
(1.1324 -0.117401 0)
(1.16147 -0.145966 -1.2811e-24)
(1.15065 -0.136852 -9.7166e-29)
(1.1865 -0.161964 1.30631e-24)
(1.1735 -0.154427 0)
(1.21504 -0.17289 1.0911e-24)
(1.20048 -0.168241 7.93675e-29)
(1.24461 -0.175303 7.42386e-25)
(1.22997 -0.175389 6.01449e-29)
(1.27045 -0.165095 0)
(1.25839 -0.171983 0)
(1.28569 -0.139003 0)
(1.27986 -0.154052 0)
(1.28337 -0.0983631 -1.2036e-25)
(1.28695 -0.12 0)
(1.26383 -0.052049 -4.80909e-23)
(1.27466 -0.0746372 5.11131e-23)
(1.22784 -0.0126545 -3.47486e-22)
(1.24675 -0.0305249 4.79166e-23)
(1.18593 0.00827769 1.32819e-21)
(1.20576 0.00093608 3.46575e-23)
(1.16973 0.00919577 -8.64399e-22)
(1.19473 0.332831 -5.76094e-22)
(1.23536 0.401705 4.7121e-21)
(1.26859 0.367828 -2.38972e-21)
(1.23046 0.353948 2.19444e-21)
(1.13609 0.279425 -1.0962e-22)
(1.163 0.307239 0)
(1.09895 0.223264 -1.08801e-23)
(1.11505 0.251386 -5.08785e-23)
(1.07581 0.166454 5.2308e-22)
(1.0856 0.195221 -5.57127e-23)
(1.06704 0.1112 1.3104e-24)
(1.06944 0.138423 -5.87145e-22)
(1.07121 0.0616799 0)
(1.06787 0.0856901 0)
(1.0843 0.0206909 0)
(1.0769 0.0400292 0)
(1.10258 -0.00927701 0)
(1.09298 0.00426833 0)
(1.123 -0.0270306 0)
(1.11267 -0.0196038 0)
(1.14364 -0.0331871 9.76808e-25)
(1.13332 -0.0314349 0)
(1.16337 -0.0294251 0)
(1.15363 -0.0323903 0)
(1.18064 -0.0183344 -2.8465e-24)
(1.17233 -0.0246192 0)
(1.19354 -0.00316531 0)
(1.1876 -0.0110988 0)
(1.2006 0.0127563 0)
(1.19766 0.00477255 0)
(1.20141 0.0267175 8.35305e-25)
(1.20146 0.019916 0)
(1.19678 0.0370296 9.85281e-23)
(1.1992 0.0321692 -2.19661e-22)
(1.19223 0.0402608 8.74154e-24)
(1.10943 0.00890381 2.70972e-22)
(1.1118 0.00457097 4.89448e-22)
(1.11382 0.00674325 -6.10321e-22)
(1.07948 0.00920109 -2.77051e-22)
(1.10012 0.00929385 -5.19673e-22)
(1.01709 0.00753944 0)
(1.04969 0.00788532 0)
(0.996205 0.0173326 -1.82379e-27)
(0.995835 0.0105507 0)
(1.05489 0.0379124 1.32833e-28)
(1.01807 0.0270986 0)
(1.13426 0.053764 2.17219e-23)
(1.09684 0.0474435 0)
(1.17722 0.0549614 -3.24477e-22)
(1.16179 0.056188 2.20285e-22)
(1.17746 0.0462387 7.62971e-22)
(1.18107 0.0512504 -1.02285e-21)
(0.527221 0.309523 -1.31569e-28)
(0.664129 0.343757 1.66711e-22)
(0.351478 0.300927 0)
(0.779059 0.386199 -1.02484e-22)
(0.207845 0.25886 -2.28266e-22)
(1.17208 0.0462014 -2.78229e-22)
(1.16877 0.0409339 1.39664e-22)
(1.16344 0.0409615 1.32899e-22)
(0.915112 0.413208 1.91054e-21)
(1.02973 0.431186 0)
(1.15307 0.424714 3.28157e-21)
(1.30664 0.375125 0)
(1.26021 0.406051 0)
(0.16288 0.187609 -2.1642e-22)
(0.238249 0.105394 -1.22677e-22)
(0.443754 0.0367353 3.08737e-21)
(0.676543 0.00361507 5.49077e-22)
(0.933559 -0.0244473 9.15121e-22)
(1.10641 0.00225721 1.08656e-22)
(1.15473 -0.0313178 4.14226e-22)
(1.05901 -0.0498481 2.90732e-21)
(1.1557 -0.0547402 0)
(1.11436 0.00810954 4.54674e-22)
(1.11 0.00602119 -1.11556e-22)
(1.10271 -0.00583576 2.1398e-22)
(1.1054 -0.00126623 -2.17229e-22)
(1.09933 -0.0172543 2.45046e-22)
(1.10132 -0.0111459 -1.17433e-22)
(1.09749 -0.0314494 -2.35155e-22)
(1.09844 -0.0240052 3.54022e-22)
(1.09816 -0.0475108 -1.93096e-27)
(1.09777 -0.0392264 0)
(1.10203 -0.0648182 -2.50568e-28)
(1.09987 -0.0560505 0)
(1.10949 -0.082817 0)
(1.1054 -0.0737649 0)
(1.1209 -0.101032 0)
(1.11475 -0.0919363 0)
(1.1366 -0.118842 -1.30377e-24)
(1.12824 -0.110042 0)
(1.15682 -0.135369 1.28118e-24)
(1.14618 -0.127335 0)
(1.18157 -0.149346 -7.06627e-29)
(1.16868 -0.142776 8.28608e-29)
(1.21028 -0.158848 0)
(1.19554 -0.154797 0)
(1.24122 -0.161168 -3.37679e-26)
(1.22568 -0.161077 0)
(1.2709 -0.153221 0)
(1.25653 -0.158622 0)
(1.29388 -0.132631 2.31863e-25)
(1.28362 -0.144516 0)
(1.30386 -0.100075 6.07181e-26)
(1.3008 -0.117515 0)
(1.29746 -0.0617342 -2.06568e-27)
(1.30259 -0.0809259 0)
(1.27605 -0.0278367 5.26343e-23)
(1.28823 -0.0432461 0)
(1.24421 -0.0090719 9.45902e-24)
(1.26025 -0.0159478 -5.31576e-23)
(1.21787 -0.0120131 -3.48868e-22)
(1.23016 -0.00752586 3.2059e-22)
(1.19863 -0.0389506 0)
(1.20848 -0.0242554 -2.02677e-22)
(1.27639 0.329748 -2.43366e-21)
(1.34135 0.371742 2.869e-21)
(1.35653 0.336821 3.32667e-21)
(1.31624 0.337429 6.39289e-22)
(1.2024 0.301218 6.1174e-22)
(1.23785 0.318283 0)
(1.14552 0.256577 -3.33776e-23)
(1.17148 0.279998 -4.97866e-22)
(1.10857 0.208166 1.02093e-23)
(1.12521 0.232713 -3.19575e-24)
(1.08557 0.158507 -7.81975e-25)
(1.09547 0.183445 -8.00863e-29)
(1.07599 0.109747 0)
(1.07915 0.133821 0)
(1.0789 0.0655216 1.02288e-24)
(1.07614 0.0870224 -1.57682e-28)
(1.09124 0.0282188 0)
(1.08409 0.0459237 0)
(1.10977 0.000192125 0)
(1.09993 0.0129998 0)
(1.13115 -0.0170474 0)
(1.12029 -0.00973963 0)
(1.1523 -0.0237071 -9.11909e-26)
(1.14185 -0.0215973 0)
(1.17107 -0.0212757 0)
(1.16204 -0.0234792 0)
(1.18565 -0.0122715 1.38694e-24)
(1.17888 -0.0174202 0)
(1.1948 0.000245447 0)
(1.19082 -0.00629992 0)
(1.19799 0.013391 0)
(1.1969 0.00681458 0)
(1.19558 0.0248442 -2.39645e-22)
(1.19703 0.0193371 2.55141e-22)
(1.18882 0.0332957 4.87439e-23)
(1.19217 0.0293011 1.68931e-24)
(1.17944 0.038657 -1.60596e-22)
(1.18382 0.0360375 -4.61392e-23)
(1.17433 0.040218 0)
(1.11138 0.0123196 0)
(1.11594 0.0102255 -4.42117e-22)
(1.07912 0.0135199 0)
(1.1012 0.0131465 0)
(1.01881 0.0140239 0)
(1.04913 0.0131686 0)
(1.00434 0.0250035 0)
(1.001 0.0179684 0)
(1.06415 0.0435871 3.02156e-27)
(1.02783 0.0341486 0)
(1.13752 0.0559834 -2.31599e-23)
(1.10387 0.0513633 5.80287e-24)
(1.17413 0.0552381 2.47606e-22)
(1.16134 0.0571507 0)
(1.17644 0.0512576 3.03098e-22)
(0.512481 0.320168 0)
(1.19473 -0.0567718 4.6761e-23)
(1.15077 -0.0759835 -4.54744e-23)
(1.18973 -0.0760271 -1.42551e-21)
(0.641031 0.359323 -1.45535e-22)
(0.321175 0.294581 5.21026e-29)
(1.16673 0.0452717 2.94962e-22)
(1.15817 0.0401916 -2.78294e-22)
(0.767074 0.397836 3.14687e-22)
(0.893185 0.422531 0)
(1.03738 0.427123 2.54008e-21)
(1.16835 0.421952 3.02872e-21)
(1.28246 0.397233 -6.19806e-21)
(1.39507 0.325414 -9.71013e-23)
(1.37116 0.356644 3.53963e-21)
(0.109046 0.154003 -5.63992e-27)
(0.194507 0.0646157 -8.54605e-22)
(0.404664 0.00470136 -2.82545e-22)
(0.697086 -0.0313048 5.66579e-22)
(0.906325 -0.0491756 0)
(1.07656 -0.0770767 1.09451e-21)
(1.11584 0.0106149 4.99304e-22)
(1.10943 0.00784911 1.48056e-21)
(1.09881 -6.02853e-05 7.43623e-25)
(1.15273 0.0358046 5.2573e-22)
(1.15761 0.03581 -2.71574e-22)
(1.10466 0.00430451 -4.74333e-22)
(0.162296 0.237817 -1.11394e-29)
(1.09601 -0.00782922 -2.06276e-22)
(1.09957 -0.00294185 2.1126e-22)
(1.09346 -0.0184764 0)
(1.09563 -0.012566 9.73269e-23)
(1.09208 -0.0317115 1.67814e-27)
(1.09303 -0.0246547 7.28318e-24)
(1.09327 -0.0464368 8.27868e-29)
(1.09264 -0.0388785 0)
(1.09741 -0.0622151 2.50568e-28)
(1.09512 -0.0542224 0)
(1.10487 -0.0785215 0)
(1.10081 -0.0703278 0)
(1.11599 -0.0948951 0)
(1.11002 -0.086734 0)
(1.13106 -0.110734 0)
(1.12307 -0.10293 0)
(1.15029 -0.125208 -1.03222e-24)
(1.14019 -0.118203 -7.88005e-29)
(1.17372 -0.137199 0)
(1.16152 -0.131596 0)
(1.20095 -0.145123 5.6284e-29)
(1.18695 -0.141779 -6.59736e-29)
(1.23069 -0.146876 -7.08714e-25)
(1.21567 -0.146896 5.31961e-29)
(1.26029 -0.140147 3.20171e-29)
(1.24576 -0.144672 -3.75019e-29)
(1.28536 -0.123294 -2.31844e-25)
(1.27372 -0.132971 -2.24793e-29)
(1.30046 -0.0970111 0)
(1.29444 -0.111074 0)
(1.30179 -0.0660033 3.00883e-26)
(1.30288 -0.0815745 -1.65801e-29)
(1.28894 -0.0381819 0)
(1.29694 -0.0509592 0)
(1.2654 -0.0232194 0)
(1.27785 -0.0284644 0)
(1.2407 -0.0262091 1.16652e-22)
(1.25224 -0.0221119 -9.14619e-23)
(1.22328 -0.048669 -1.5638e-23)
(1.23113 -0.0355461 1.8869e-23)
(1.16614 -0.100676 1.12124e-21)
(1.21348 -0.0819807 -4.47482e-22)
(1.21764 -0.0639467 1.39183e-21)
(1.34764 0.299965 -1.23058e-21)
(1.42839 0.306164 9.663e-23)
(1.42207 0.27471 2.67595e-21)
(1.38604 0.290908 0)
(1.27049 0.295774 -8.71795e-22)
(1.3088 0.299914 1.55624e-21)
(1.2022 0.272833 -3.85963e-22)
(1.23447 0.286899 0)
(1.14956 0.23653 3.4192e-23)
(1.17373 0.255901 -1.58142e-22)
(1.11371 0.194765 0)
(1.13011 0.216398 0)
(1.09147 0.15124 3.94674e-25)
(1.10112 0.17312 0)
(1.08136 0.10822 8.51967e-29)
(1.08499 0.129566 -1.01356e-28)
(1.08255 0.0687148 -1.8356e-25)
(1.08072 0.0879415 0)
(1.09274 0.0350511 1.19466e-28)
(1.0867 0.0510919 -1.42188e-28)
(1.10921 0.00923953 0)
(1.10036 0.0211317 0)
(1.12886 -0.00737746 8.70647e-25)
(1.11881 -0.000206226 -1.37661e-28)
(1.14853 -0.0147123 -8.85616e-25)
(1.13883 -0.0121212 0)
(1.1656 -0.0139739 9.32672e-29)
(1.15748 -0.0152196 -1.11123e-28)
(1.1782 -0.00736768 -1.21299e-24)
(1.1725 -0.0112399 0)
(1.1853 0.00244855 0)
(1.18242 -0.00270609 0)
(1.18678 0.012985 -8.94085e-25)
(1.18669 0.00775941 0)
(1.18348 0.0222515 2.90296e-23)
(1.18564 0.017904 -2.46815e-22)
(1.17672 0.0293056 -4.81589e-23)
(1.17999 0.0260494 2.13707e-22)
(1.16759 0.0337632 4.75686e-22)
(1.17196 0.0316012 0)
(1.16247 0.0349549 -3.06847e-22)
(1.11365 0.0150599 0)
(1.11816 0.0129022 -4.56657e-22)
(1.08005 0.0171566 5.72427e-23)
(1.10244 0.0163358 0)
(1.02158 0.0196773 0)
(1.05045 0.0177091 -5.64604e-23)
(1.01218 0.0313588 0)
(1.00662 0.0243336 0)
(1.07183 0.0476936 2.80094e-27)
(1.0365 0.0396862 0)
(1.13953 0.0569084 4.35859e-23)
(1.10877 0.0537735 -5.86271e-24)
(1.17076 0.0543993 8.25121e-23)
(1.16064 0.0569457 -8.41593e-23)
(1.17166 0.0502545 0)
(0.485678 0.325088 0)
(1.14793 0.0353141 0)
(0.612198 0.364563 0)
(0.73257 0.398018 1.81321e-26)
(0.880785 0.413328 0)
(1.02172 0.419647 -4.21593e-21)
(1.16259 0.404885 2.14701e-21)
(1.2898 0.374702 -1.53702e-21)
(0.0592776 0.107965 5.67377e-27)
(0.162579 0.0175337 4.66833e-25)
(0.414674 -0.0396784 -8.42859e-22)
(0.691345 -0.061904 9.15501e-22)
(1.39163 0.330479 0)
(1.45297 0.250328 3.49794e-22)
(1.45406 0.276513 0)
(0.946089 -0.0826932 -1.02752e-21)
(1.09437 -0.106034 -4.66653e-23)
(1.21331 -0.102555 1.30624e-22)
(1.10101 0.00488098 1.60181e-23)
(0.282692 0.278621 1.10621e-28)
(1.19224 -0.107432 -4.75739e-22)
(0.114638 0.203572 1.66806e-28)
(1.12385 0.0266446 -1.39302e-21)
(1.09305 -0.00148446 3.12701e-22)
(1.09567 0.00299113 -4.36992e-21)
(1.08993 -0.00937148 0)
(1.09199 -0.00470514 2.59714e-22)
(1.0876 -0.019547 5.22942e-27)
(1.08897 -0.0139937 -5.30137e-23)
(1.08677 -0.0316866 -1.39442e-27)
(1.0872 -0.0252937 8.41539e-28)
(1.08839 -0.0451798 7.87678e-29)
(1.08745 -0.0382506 0)
(1.09276 -0.0595569 1.05802e-28)
(1.09033 -0.0522751 -1.24231e-28)
(1.10017 -0.074318 0)
(1.09614 -0.06691 0)
(1.11091 -0.0890177 0)
(1.10516 -0.0817056 0)
(1.12519 -0.103083 6.05866e-29)
(1.11763 -0.0961745 -7.11059e-29)