/*--------------------------------*- C++ -*----------------------------------*\
  =========                 |
  \\      /  F ield         | OpenFOAM: The Open Source CFD Toolbox
   \\    /   O peration     | Website:  https://openfoam.org
    \\  /    A nd           | Version:  10
     \\/     M anipulation  |
\*---------------------------------------------------------------------------*/
FoamFile
{
    format      ascii;
    class       surfaceScalarField;
    location    "20";
    object      phi;
}
// * * * * * * * * * * * * * * * * * * * * * * * * * * * * * * * * * * * * * //

dimensions      [0 3 -1 0 0 0 0];

internalField   nonuniform List<scalar> 
57492
(
-0.0199016
0.00277651
0.00433737
0.0127877
-0.00443133
-0.0166054
0.00113515
-0.00370819
0.012464
0.035871
-0.0446268
0.098904
0.0723745
-0.0163826
-0.154896
-0.209934
0.0849968
0.223841
0.0525744
-0.0516111
-0.0269083
0.0259451
-0.0962731
0.0235684
-0.0141309
0.0868357
0.0171385
-0.0608373
0.0224364
-0.103759
0.0987092
-0.0173865
0.0205934
0.0949243
-0.0930813
0.018019
-0.000504801
0.00902086
-0.0265351
-0.00733731
0.0011473
0.0242091
-0.0167521
0.0121364
-0.00272161
0.00256344
-0.0198203
0.100299
-0.0854918
-0.0373111
0.0225036
0.00264483
0.0756074
0.022047
0.00188456
0.00952724
0.0851439
-0.0965557
-0.00810015
0.083998
-0.0740132
0.0195031
-0.0394861
0.0199829
-0.103522
0.0703901
0.0526354
-0.112376
0.0168028
0.0826194
0.0129539
0.0164243
-0.114323
-0.014477
-0.00113366
0.0108367
-0.0204034
0.0107004
0.0160091
-0.0184656
0.00132286
-0.168304
0.183811
0.0104032
-0.0259098
-0.197455
0.077981
-0.0488303
-0.0872326
0.0320324
0.0437089
0.0114912
-0.0601033
-0.0306592
0.00352993
-0.0303568
-0.0810345
0.101433
0.00995871
-0.0379551
0.0134193
-0.00582104
0.0586509
-0.0371828
-0.0356505
0.0141825
-0.0469507
0.0391742
0.0664273
-0.0711414
-0.122966
0.0719448
0.122162
-0.124035
-0.0395633
0.0924569
-0.0530588
-0.0100234
0.0630822
-0.0158903
-0.0371685
-0.0635742
0.082076
-0.0343921
0.0144112
-0.039166
-0.0388194
-0.0500223
0.0735907
-0.0227573
-0.113279
0.0549754
0.0583033
-0.20468
0.0914011
0.103861
-0.036499
0.0273613
-0.0947234
0.0762098
0.0175488
0.0101025
-0.0321129
0.0982529
-0.102639
0.0955648
0.0151844
-0.0936107
0.093435
-0.0120011
0.104281
-0.0361612
-0.0764156
0.00829574
0.117849
0.00161683
0.0788689
-0.0437092
0.0582753
0.0286544
0.13705
-0.0991701
-0.0141806
0.0134083
0.0999424
-0.102482
-0.00758723
0.0108992
0.0138961
0.101244
-0.0998275
-0.0153128
0.00629029
-0.0961533
-0.11733
0.127001
0.134093
-0.143764
-0.0202625
0.133358
-0.230426
0.00286746
0.0130517
-0.000557126
-0.015362
0.00907659
0.00592727
-0.00390022
0.0100759
0.0029009
0.010213
-0.00106154
-0.00639142
0.00583429
-0.00117331
-0.00521811
0.270016
0.0921227
-0.187498
-0.17464
0.0742476
-0.0543915
0.25016
-0.228678
0.0716387
0.231287
0.0385414
-0.175096
0.0334241
-0.0803699
0.0633677
-0.016422
0.0686266
-0.0812024
0.0459999
0.00247945
-0.000611371
0.000908433
0.00555183
0.00126499
0.015533
0.0028065
-0.0885723
0.162603
0.0782627
-0.152293
0.10162
-0.121566
0.0599773
0.157809
-0.055184
0.341394
-0.0295605
-0.103806
-0.208028
0.0942605
0.187547
0.0595865
0.0533544
-0.128612
0.169519
0.00772657
-0.0114348
0.0201905
0.063055
0.0941278
-0.0449525
-0.11223
0.0855017
0.0134243
0.00537433
-0.00196653
-0.0034078
0.0120985
-0.00672413
-0.177803
0.0847858
-0.0662704
0.159287
-0.147101
-0.0903546
0.0596528
-0.0803678
0.0825543
-0.149287
0.0982181
-0.00149108
-0.0481522
-0.0485748
-0.0436337
0.11059
0.0312622
-0.0540496
-0.00642364
0.0168395
-0.0473815
-0.0081592
-0.0180604
-0.0774733
0.0576006
0.000597561
-0.0331717
-0.0250265
-0.00600257
0.00812131
0.0554819
-0.0655875
-0.0147581
0.074343
-0.0585464
-0.00644357
-0.0849259
-0.00679213
-0.0499929
0.0319325
0.00536416
-0.055357
0.00635661
0.00574185
0.117894
0.076459
-0.00868479
0.0422638
-0.134304
-0.0153593
0.0956059
-0.0671776
-0.013069
-0.0228802
0.100791
-0.0932705
0.0820902
0.0415346
-0.00766411
-0.115961
-0.0299877
0.0163798
0.095698
0.0996507
-0.0881038
-0.0321386
-0.0703702
0.0199368
0.0825719
-0.0347038
0.0809727
-0.0784075
0.00161009
-0.106684
-0.0192569
-0.0172961
0.00060257
-0.0257231
0.0189218
0.00237
0.0277577
-0.0157424
-0.0377385
-0.00385689
0.0150092
-0.0144146
0.0173368
0.00503103
-0.00795321
0.0352423
-0.0235649
-0.026092
-0.0156805
0.0440536
0.0068692
-0.0079508
0.00960708
-0.155275
0.0852881
0.154773
0.162876
-0.064996
-0.188235
-0.0766299
0.0842308
-0.00792998
-0.0620919
-0.0110126
-0.0465044
0.000619382
0.00461025
-0.00815674
-0.000560757
0.00410725
-0.0116819
0.0114159
0.00487621
-0.0263507
0.00651206
-0.0191327
-0.0322446
0.00487289
-0.0500343
-0.0311903
-0.0490021
-0.0515247
0.0626427
0.0378841
0.00348188
0.0220643
-0.0745483
-0.0687722
0.0207294
-0.145107
0.0541718
-0.0125868
-0.142458
0.0153554
-0.0180048
-0.00528859
-0.085945
0.0791803
0.0120534
-0.000492935
-0.0891822
0.0843865
-0.00975434
-0.28087
-0.081801
0.102157
0.096457
-0.124086
0.0909149
-0.0188623
0.0185882
-0.0333462
0.0160628
0.00252542
0.0279904
-0.0065453
0.117948
-0.0706569
-0.0406321
-0.00665883
0.097685
-0.0118501
0.159397
-0.0147432
-0.164917
0.0332302
0.119286
0.0068809
0.00805179
-0.0966209
0.121799
0.00162079
0.014442
0.0295097
-0.101619
-0.099433
0.0665776
0.126566
0.058995
-0.00330269
-0.0615748
0.0058825
0.0187631
-0.00671879
-0.0753323
0.0137151
0.100791
0.0101821
-0.0667513
-0.00772517
-0.00297873
-0.0401576
-0.00613558
0.0467564
-0.000463241
-0.00595747
0.00146047
-0.0356606
-0.0269653
-0.0300637
0.0510716
-0.0273393
0.0558912
-0.0221953
0.178724
-0.143587
-0.0624768
-0.00279384
-0.0941468
0.110656
-0.240413
-0.0114333
-0.184591
-0.0982469
0.0424249
0.0819077
0.0580189
-0.123124
0.0409229
0.11851
-0.0775255
0.0392353
-0.0804319
0.0493856
-0.00818901
0.0433009
-0.0780016
0.073936
0.110491
0.030147
0.10938
-0.00329855
-0.108905
0.00282409
0.120862
-0.0125789
0.00109662
0.1247
-0.0127109
-0.00620949
-0.105779
0.0893731
-0.0234397
0.0587664
0.0987317
-0.0237935
0.0183222
-0.0932604
0.0210068
0.100224
-0.0224996
-0.0902484
-0.0297565
0.0962114
0.0161582
-0.0864698
-0.0307916
0.0836069
-0.0400549
-0.0763356
0.0349381
0.0814524
-0.04168
-0.0778971
0.0795223
0.0380926
0.0736732
-0.0210241
-0.0907418
0.0730059
-0.0765933
-0.0445663
0.0450908
0.0724814
-0.0349225
0.0640294
-0.0957137
0.0842286
-0.009539
-0.123305
0.00578092
0.122803
-0.00527849
0.0281093
0.0327626
-0.02921
0.0334661
-0.0370186
0.0261625
-0.0120604
0.0186605
0.0120916
-0.0301131
0.0141646
-0.0671291
-0.0971457
0.0586143
-0.0124316
0.0138921
-0.000283569
-0.012148
-0.013273
-0.114258
0.0838216
-0.0949666
-0.0116369
0.0933305
0.00841019
-0.0991787
-0.00419816
0.0420702
0.0457499
-0.038544
-0.0492761
0.0140789
0.0786538
-0.0506624
0.0768668
-0.017038
0.00157802
-0.00251643
-0.0163577
-0.00303751
0.00461554
-0.00555394
0.00201694
-0.00274114
0.0109372
-0.00203161
0.00404855
-0.00477275
0.0057609
-0.00184337
0.0120915
-0.00607555
0.0118365
-0.00791892
0.00596117
-0.000515127
-0.0133968
-0.00230152
0.0082627
-0.00281665
0.0372726
0.0800775
-0.10097
0.0287873
-0.103707
0.112192
0.117216
-0.00835117
-0.0329654
-0.065174
0.0326423
0.0654971
-0.0172969
0.0702001
-0.0858686
0.00491373
-0.0873846
0.0832702
-0.0837288
-0.0793927
0.0798513
0.0840679
-0.0783726
0.0775749
-0.0798622
-0.0827271
0.0788605
0.0847421
-0.0778356
0.0771614
0.0857009
-0.0753755
0.0744167
-0.0748987
0.0873049
0.0732947
0.0867309
-0.0872963
-0.0743333
-0.0776998
0.0896941
0.0753107
0.084265
-0.075234
-0.0858361
-0.0768357
-0.0864826
-0.0771891
-0.086924
-0.0779313
-0.0885623
-0.0777543
-0.0872964
-0.0811281
-0.0773059
0.0927857
0.0742143
0.0799604
-0.0730013
-0.0787484
-0.0813553
0.0773766
-0.0887751
-0.0772696
-0.0759812
-0.0842694
0.0788953
-0.0729683
0.0917009
0.074053
0.0785122
-0.07152
-0.0921775
-0.0725788
0.091131
-0.0720774
0.0726473
-0.0703652
0.0898044
0.0716917
0.0773451
-0.0709103
0.0756834
-0.0687035
-0.0709812
-0.0834942
0.070206
-0.0920972
-0.0710616
-0.0683777
0.0891624
0.0690197
0.0743661
-0.0670604
-0.064794
-0.0831989
0.0644987
-0.0925144
-0.0643769
-0.0650255
0.0879759
0.066212
0.0727094
-0.0633688
-0.0566798
-0.0827665
0.0562475
-0.0925577
-0.0566365
-0.0607713
0.0876294
0.0611178
0.0715568
-0.0596187
-0.0467667
-0.0827315
0.0467317
-0.0929547
-0.0463697
-0.0546466
0.0869823
0.0552937
0.0703102
-0.0534
-0.0352069
-0.0827096
0.0351849
-0.0931762
-0.0349854
-0.0472327
0.087127
0.0470879
0.0696999
-0.0466224
-0.0221852
-0.0833206
0.0227962
-0.0934915
-0.0218699
-0.0380609
0.0870702
0.0381177
0.0691838
-0.0375447
-0.00822497
-0.0816263
0.00653064
-0.0923636
-0.00935292
-0.0278267
0.0875396
0.0273572
0.0692455
-0.0278884
0.00572888
-0.0829637
-0.00439144
-0.092325
0.00569026
-0.0164362
0.0878099
0.0161659
0.0691454
-0.0163361
0.0205955
-0.0809894
-0.0225698
-0.0900401
0.0183106
-0.00121757
0.0848314
0.00419615
0.0721085
-0.00418063
0.0346454
-0.0816307
-0.0340042
-0.0893428
0.0339481
0.0105074
0.0793789
-0.0050549
0.0742391
0.00837678
0.048637
-0.0484242
-0.0818434
-0.089071
0.0483652
0.0194923
-0.0196932
0.0795798
0.0750141
0.0187173
-0.0737363
0.0734288
-0.0336967
-0.0765193
-0.0456412
0.0617044
-0.0598874
-0.0836605
0.0599088
-0.0872755
-0.0706539
0.0708813
-0.00461889
-0.0197949
-0.0682606
0.0687298
0.022327
0.00915139
-0.0693883
0.0702666
0.0458533
0.0345265
-0.0713232
0.0725
0.063322
0.0551909
-0.0737351
0.0788869
0.0737435
0.0689709
-0.0804404
0.0801685
0.0791323
0.0758231
-0.0842126
0.084299
0.0774885
0.0758073
-0.0833216
0.0830967
0.0746416
0.0781388
-0.0811893
0.0812041
0.0752959
0.0752021
-0.0810182
0.0807467
0.0743245
0.0744002
-0.0803993
0.0799911
0.0720999
0.0729948
-0.0795911
0.0792409
0.0665622
0.0694198
-0.0790024
0.0788902
0.0554059
0.0613563
-0.0788996
0.0790761
0.0379412
0.0470785
-0.0794455
0.0799927
0.0156188
0.0269878
-0.0801286
0.0825419
-0.00746816
0.0040602
0.0826374
-0.0197888
0.0303519
-0.029938
0.0791659
0.0292523
0.0761136
0.0677212
-0.0659267
-0.00597505
-0.0696852
0.0710773
0.0173252
0.00641273
0.0656979
-0.0658959
-0.0276904
-0.016565
0.0666275
-0.0677838
-0.0454661
-0.0368131
0.0692728
-0.0710071
-0.0578844
-0.051911
0.0728761
-0.0747997
-0.0651367
-0.0614999
0.0766918
-0.0785184
-0.0690837
-0.0668114
0.0802482
-0.0817993
-0.0714503
-0.0697902
0.0851487
-0.0858846
-0.0735973
-0.0718846
0.0883852
-0.0883318
-0.0772425
-0.0743351
0.0888935
-0.0895092
-0.0771386
-0.0773696
0.0915662
-0.092831
-0.0760049
-0.0790712
0.0914245
-0.092302
-0.0701841
-0.0739852
0.0930638
-0.0936906
-0.0560097
-0.0636151
0.0941803
-0.0945615
-0.0346042
-0.04588
0.0948483
-0.096216
-0.00798524
-0.0215831
0.0964752
-0.0979155
0.019751
0.00594944
0.0965997
-0.0950781
0.0468435
0.0326324
-0.0926258
0.0574565
-0.0801534
-0.0562533
0.0838185
-0.0311191
0.026977
0.0733526
0.0699395
-0.0690296
-0.0881853
0.0681973
-0.0908837
0.0674892
-0.0641078
-0.0835348
-0.0852009
-0.0659883
0.0632117
-0.03092
0.0695217
-0.0733136
-0.0524614
-0.0421078
-0.0613561
0.061088
-0.00435074
-0.0179393
-0.0611933
0.0617552
0.0217651
0.00904608
-0.0627116
0.0640015
0.0445634
0.0335701
-0.0655566
0.0673046
0.061574
0.0536357
-0.069187
0.0712669
0.0716636
0.0670885
-0.0731946
0.076598
0.0757289
0.0738954
-0.0766832
0.0781526
0.0760191
0.0757221
-0.0810347
0.0803529
0.0753234
0.0752566
-0.0810005
0.0815106
0.0747857
0.0745546
-0.0818553
0.0820927
0.0740871
0.0740555
-0.0822565
0.0823873
0.071969
0.072831
-0.0825191
0.0826992
0.0663822
0.069288
-0.0829523
0.0832794
0.0550789
0.0611031
-0.0837078
0.084237
0.037412
0.0466501
-0.0848226
0.0854524
0.0149891
0.0264022
-0.086016
0.0870185
-0.0084706
0.00349653
-0.0414089
0.0406764
0.0798984
-0.0413364
0.083746
-0.0867976
0.0873208
-0.0316423
-0.0195679
0.066819
-0.06514
0.0156462
0.0683589
0.025437
-0.0383078
0.0378111
0.0738493
0.0784822
0.0638509
-0.0628182
-0.00700773
0.00512364
0.0624129
-0.0629867
-0.0271166
-0.0169703
0.0640314
-0.0655028
-0.0439947
-0.0357685
0.0673397
-0.0694457
-0.0557784
-0.0500741
0.0716931
-0.0739866
-0.0628432
-0.0592525
0.0762102
-0.0783767
-0.0669172
-0.0645878
0.0804271
-0.0824065
-0.0694709
-0.0677398
0.0842484
-0.0860029
-0.0718429
-0.0700427
0.0876432
-0.090165
-0.0747207
-0.0726947
0.0920528
-0.0923378
-0.0768536
-0.0754818
0.0951241
-0.0955771
-0.0755518
-0.0762849
0.0971484
-0.0987122
-0.0686203
-0.0724139
0.100123
-0.101362
-0.0547702
-0.0622043
0.102383
-0.103176
-0.0338112
-0.0448597
0.103725
-0.104086
-0.00762411
-0.0210339
0.104288
-0.104269
0.0197322
0.00615128
0.103996
-0.101281
0.0441289
0.032359
0.0994533
-0.0960338
0.0647778
0.0556287
-0.0775208
-0.0599005
0.0744034
-0.0760333
-0.0892537
-0.0935388
0.0719084
-0.0760138
-0.0882049
-0.0413144
0.0872989
0.0705386
0.0356315
-0.0686454
0.0706689
-0.0855584
-0.0652135
-0.0809527
0.0767286
-0.0798572
-0.0861252
0.0752004
-0.0920107
-0.0905457
0.0931614
-0.0934978
-0.0313058
0.0918083
-0.0399613
0.0465246
-0.0471172
0.0744419
0.0430471
0.0740161
-0.0748102
0.0715747
-0.061978
-0.0713303
0.0735672
-0.0831895
0.082738
0.0730231
-0.0531198
-0.102641
-0.0634026
-0.0677743
0.0638354
-0.0485225
-0.0561001
-0.0604269
0.0572883
-0.0277814
-0.0386994
-0.0557101
0.0548314
-0.00347205
-0.0163611
-0.0550133
0.055722
0.0210563
0.00886421
-0.0569412
0.0586129
0.0428917
0.032351
-0.0606329
0.0629255
0.0592815
0.0516157
-0.0653812
0.0679286
0.0691162
0.0646328
-0.0704156
0.0728178
0.0733267
0.0714084
-0.0749698
0.0768883
0.0741006
0.0735701
-0.07854
0.079949
0.0739144
0.073605
-0.0811219
0.0821135
0.0737942
0.0733816
-0.0829567
0.0836988
0.073345
0.0732123
-0.0843747
0.0850281
0.0713156
0.0721551
-0.0856905
0.0864019
0.0656707
0.0686255
-0.0871585
0.0879629
0.0542746
0.0603466
-0.0887944
0.0896219
0.0365845
0.0458185
-0.090401
0.0911264
0.0142637
0.025623
-0.0919949
0.092475
-0.00895071
0.002628
-0.0205907
-0.0485955
0.0469063
0.0815876
0.0491365
-0.0500406
0.088203
0.084287
0.0782713
0.0635903
-0.0617777
0.0138337
-0.0656977
0.0683293
0.033
0.0233296
0.059983
-0.0598531
-0.00713766
0.00332893
0.0599981
-0.0607902
-0.0263245
-0.0168253
0.0621075
-0.0638905
-0.0422117
-0.0344512
0.0660371
-0.0684627
-0.0533529
-0.0479275
0.0709885
-0.0735756
-0.0602561
-0.0567266
0.0760905
-0.0785524
-0.0644552
-0.062073
0.08091
-0.0832045
-0.0671764
-0.0653822
0.0854124
-0.0875702
-0.0696851
-0.0678348
0.0896608
-0.0917389
-0.0726426
-0.0706041
0.0938306
-0.0960028
-0.0746814
-0.0733901
0.0982375
-0.100499
-0.0732902
-0.0740502
0.102751
-0.104941
-0.0664303
-0.0701615
0.106935
-0.108695
-0.0530102
-0.0602107
0.11016
-0.111328
-0.0326425
-0.0433951
0.112159
-0.112639
-0.00714466
-0.020203
0.112793
-0.112556
0.0194948
0.00630549
0.111949
-0.11094
0.04312
0.0317523
0.107691
-0.103154
0.0602405
0.0523801
0.0990827
-0.0960835
0.0722013
0.0678369
0.0766688
-0.078645
-0.0900345
-0.0936539
0.0742393
0.0753905
-0.0873818
-0.0765631
-0.0914989
-0.0488268
0.0905945
0.0711588
0.0402175
0.0761586
-0.0863251
-0.0749274
-0.0898427
0.0906197
-0.0611734
0.0474205
-0.0770753
0.0748387
-0.0914173
-0.0793152
-0.0877947
-0.0476401
0.0766948
-0.0460927
-0.0214642
-0.0647199
-0.0917183
-0.073587
0.0756228
-0.0551557
-0.0521129
0.0552207
-0.0700366
0.0649405
-0.056882
-0.0578163
-0.0609215
0.0567466
-0.0443476
-0.052081
-0.0537717
0.0518316
-0.0258413
-0.0357245
-0.0501465
0.0497633
-0.00308887
-0.014676
-0.0499838
0.0508402
0.0201999
0.00864371
-0.0522905
0.0542815
0.0409008
0.0309007
-0.056689
0.0594238
0.0565467
0.0492081
-0.0623246
0.0653207
0.06612
0.0617319
-0.0682626
0.0710915
0.0704978
0.0684665
-0.0736798
0.0760148
0.0717656
0.0709819
-0.0780823
0.079904
0.0720927
0.0715375
-0.081499
0.0829418
0.0723514
0.0717866
-0.0842507
0.0854775
0.0721182
0.0719034
-0.086654
0.0878333
0.0701363
0.0709786
-0.0890282
0.0902689
0.0644301
0.0674306
-0.0915208
0.0927683
0.0530271
0.0590946
-0.093964
0.0950751
0.0354734
0.0446228
-0.0960502
0.0968714
0.0134424
0.0246479
-0.0978212
0.098782
-0.00991146
0.00167818
-0.0984953
0.0979012
-0.0307118
-0.020304
-0.097534
0.095352
-0.0466448
-0.0395941
-0.0547708
0.0550687
0.0879051
0.0562146
-0.0559556
0.095093
0.0920383
-0.0541018
0.0541041
0.0815853
0.0852539
-0.0531138
0.0509299
0.0766258
0.0792615
-0.0495083
0.0467186
0.0739485
0.0754377
0.0661677
-0.0633142
0.0301465
-0.0706423
0.0700867
0.0472742
0.0357429
0.0610122
-0.0593832
0.0122047
0.0210276
0.0580692
-0.0578728
-0.00733405
0.00201499
0.0583124
-0.0593294
-0.0253076
-0.0163857
0.0608573
-0.0628907
-0.0401783
-0.0329232
0.0652579
-0.0679067
-0.0507041
-0.0455602
0.0706449
-0.0734353
-0.0574658
-0.0539884
0.0761756
-0.0788841
-0.0617466
-0.0593327
0.0815207
-0.0841261
-0.0645709
-0.0627457
0.0866572
-0.0891657
-0.0671766
-0.0653037
0.0916393
-0.0941593
-0.0701226
-0.0681305
0.0967281
-0.0994154
-0.0719942
-0.0708213
0.102181
-0.105035
-0.0704362
-0.0712849
0.107884
-0.110673
-0.0636419
-0.0673118
0.11325
-0.115535
-0.0507249
-0.0576335
0.117425
-0.118903
-0.0311646
-0.0415054
0.119925
-0.120478
-0.00659224
-0.0191805
0.120585
-0.120156
0.0190653
0.00641267
0.119196
-0.117784
0.0417082
0.0307926
0.11593
-0.11369
0.0580007
0.0505264
0.108782
-0.103311
0.0667301
0.0629286
0.0995468
-0.0965021
0.071794
0.0704752
0.0743244
-0.0762152
-0.0895265
-0.0938708
0.071693
0.0774034
-0.0886266
-0.076005
-0.0904214
0.0801444
-0.0758497
-0.0753615
-0.0937964
0.102228
-0.102895
-0.0459784
0.0993933
-0.0531206
0.053027
-0.0545104
0.0754319
0.0486467
0.074467
0.0798009
-0.0623205
-0.0740723
-0.0899376
0.0238016
-0.094542
-0.054037
0.0654102
-0.0574658
0.0751356
-0.0744741
-0.090188
0.0712286
-0.0899638
-0.0471247
-0.0716323
-0.0903198
-0.0684029
0.0670703
-0.0538231
-0.0551056
-0.0647846
0.0600841
-0.0521815
-0.0555306
-0.0553381
0.0522058
-0.0412154
-0.0473349
-0.0495946
0.0476677
-0.0239144
-0.0331133
-0.0464575
0.0459839
-0.00261529
-0.0134657
-0.0462604
0.0472408
0.0192195
0.00836725
-0.048869
0.0510937
0.0386761
0.0292724
-0.0537846
0.0568424
0.0534889
0.0465173
-0.0600877
0.0634396
0.0627681
0.0584866
-0.066731
0.0699033
0.0673255
0.0651751
-0.0728395
0.0755215
0.0690837
0.0680456
-0.0779376
0.0801298
0.0699005
0.0691213
-0.0821108
0.0839623
0.0704999
0.0698056
-0.0857051
0.0873935
0.0704298
0.0701606
-0.0890535
0.0907421
0.0684478
0.0693185
-0.0924425
0.0941734
0.0626992
0.0657302
-0.0958844
0.0975435
0.0513679
0.0573836
-0.0990769
0.100465
0.0340856
0.0430895
-0.101618
0.102516
0.0125441
0.0234949
-0.103145
0.1035
-0.0102663
0.00104878
-0.104017
0.103324
-0.0300186
-0.020821
-0.0391646
-0.0598371
0.0584794
0.0892628
0.0595353
-0.0598484
0.0954061
0.0917364
-0.0582757
0.0572583
0.0826027
0.0854577
-0.0571379
0.0566893
0.0770744
0.0793819
0.0776166
0.0642085
-0.0615179
0.0274559
-0.0655871
0.0709818
0.0418795
0.0343644
0.0594587
-0.0574392
0.0101851
0.0189684
0.0568225
-0.0568142
-0.00734234
0.00139829
0.0573714
-0.0585653
-0.0241137
-0.0158285
0.060276
-0.062494
-0.0379603
-0.0312125
0.0650431
-0.0678481
-0.0478991
-0.0430112
0.0707421
-0.0736782
-0.0545296
-0.0510944
0.076568
-0.0794524
-0.0588622
-0.0564429
0.082288
-0.0851307
-0.0617283
-0.05991
0.0879273
-0.0907359
-0.0643681
-0.0625071
0.0935447
-0.0964486
-0.0672187
-0.0653216
0.0994365
-0.102568
-0.0688622
-0.0678334
0.105795
-0.109131
-0.0670996
-0.0680588
0.112466
-0.115741
-0.0603664
-0.063977
0.118788
-0.121521
-0.0479916
-0.0545873
0.123801
-0.125584
-0.0293822
-0.0392251
0.12679
-0.127387
-0.00599568
-0.0179741
0.12741
-0.126773
0.018428
0.00643623
0.125521
-0.123685
0.0398716
0.0295412
0.121404
-0.118719
0.0553154
0.048246
0.115852
-0.112829
0.0637074
0.060061
0.107568
-0.101952
0.0661777
0.0652141
0.0960793
-0.0920981
0.0672475
0.0658207
0.0723235
-0.0717555
-0.0905318
-0.0879585
0.0681839
0.076626
-0.0851082
-0.0753573
-0.0904255
-0.0579395
0.0974843
0.0731147
0.0465137
0.078575
-0.0746238
0.0587332
-0.0855941
0.0705488
-0.0741361
-0.0748499
-0.0930188
-0.072669
-0.0917428
-0.0705573
-0.0711093
0.0706671
-0.0669322
-0.0742922
0.0590565
-0.0739834
-0.0727251
-0.0892183
0.0688431
-0.0726679
-0.0867069
0.0683982
-0.0875137
-0.0890512
-0.0644819
0.0656425
-0.0586265
0.0722679
-0.0794046
-0.0639726
-0.0638462
-0.0657865
0.0645715
-0.052608
-0.0552496
-0.0609416
0.057212
-0.0484518
-0.0519008
-0.0534857
0.0501296
-0.0378593
-0.0436087
-0.0473925
0.0453385
-0.0218604
-0.0303762
-0.0440825
0.0435725
-0.00210524
-0.0122098
-0.0438773
0.0449394
0.0181573
0.00806245
-0.04669
0.0490662
0.0362999
0.0275219
-0.0519372
0.0552005
0.0502256
0.0436463
-0.0586745
0.0622661
0.0591765
0.0550126
-0.0658028
0.0692248
0.0639036
0.0616384
-0.0724233
0.0753871
0.0661199
0.0648471
-0.0780967
0.0806106
0.0673867
0.0664117
-0.0829421
0.0851659
0.0682761
0.067474
-0.0873043
0.089426
0.0683081
0.0680222
-0.0915288
0.0936725
0.066304
0.0672157
-0.0958366
0.0980047
0.0605312
0.0635661
-0.100124
0.102169
0.0493232
0.0552643
-0.104004
0.105619
0.0324706
0.0412543
-0.106933
0.107889
0.0115879
0.0221806
-0.108485
0.108689
-0.0104696
0.000452793
-0.108541
0.10871
-0.0301875
-0.0206735
-0.107378
0.105865
-0.0444657
-0.0378326
-0.102754
0.10057
-0.0557555
-0.050009
-0.0614695
0.0623022
0.0945734
0.0628305
-0.0597216
0.0974609
0.0988454
-0.0621424
0.0622189
0.0891863
0.0918963
-0.0617108
0.0607629
0.0835506
0.0859657
-0.0594126
0.0577159
0.0787711
0.0807322
-0.0572574
0.0555795
0.0771098
0.0780751
-0.0530403
0.0501153
0.0760397
0.0770062
0.0692984
-0.0654895
0.0380707
-0.0724232
0.0743228
0.0482158
0.0433889
0.0625952
-0.0601736
0.0250343
0.0314701
0.0579069
-0.0568114
0.00908966
0.0167017
0.0563224
-0.0564314
-0.0072333
0.000909254
0.0571306
-0.0584502
-0.0227941
-0.0151293
0.0603041
-0.0626361
-0.0356284
-0.0293586
0.0652855
-0.0681697
-0.0450149
-0.0403617
0.0711309
-0.074152
-0.0515086
-0.0481332
0.0771459
-0.0801724
-0.0558357
-0.053449
0.0831737
-0.0861994
-0.0587025
-0.0569088
0.0891972
-0.0922375
-0.0613277
-0.0595093
0.0953106
-0.0985107
-0.0640186
-0.0622486
0.101822
-0.105304
-0.0653808
-0.064522
0.108895
-0.112619
-0.0633762
-0.0644669
0.116354
-0.120042
-0.0566785
-0.0602414
0.123487
-0.126581
-0.0448976
-0.0511424
0.129157
-0.13116
-0.0273791
-0.036649
0.132507
-0.133166
-0.00533637
-0.0166275
0.133062
-0.132281
0.0176474
0.0063316
0.130781
-0.128618
0.0377087
0.0280408
0.125957
-0.122916
0.0522741
0.0455851
0.119617
-0.116151
0.0602416
0.0567623
0.112714
-0.109333
0.0627967
0.0617772
0.105993
-0.100921
0.0621756
0.0624802
0.0960341
-0.0898276
0.0621917
0.0632973
0.0652405
-0.0679898
-0.0847644
-0.0871089
0.0625218
0.0763802
-0.0829135
-0.0806264
-0.0657105
0.0746479
-0.0787229
0.104591
-0.107964
-0.0523821
0.10187
-0.0570008
0.0551198
-0.0561709
0.0770908
0.0520491
0.0773935
-0.0750396
-0.0902358
-0.0734739
-0.0922138
0.0662272
-0.0813068
-0.0712565
-0.0932114
-0.068694
-0.0931923
-0.0660969
-0.0885998
0.0652411
-0.0655929
-0.0844126
0.061079
-0.0829468
-0.0877106
-0.0825065
0.0774363
-0.0589025
-0.0640974
0.073462
-0.089991
0.0881039
-0.0934274
-0.0587739
-0.0601131
-0.0700087
0.0675474
-0.0561652
-0.0564187
-0.065835
0.0636741
-0.0504472
-0.0535371
-0.0600071
0.0562875
-0.0447323
-0.0482337
-0.0526524
0.0492719
-0.0344788
-0.0399736
-0.0464589
0.044332
-0.0197335
-0.0275631
-0.0430311
0.0425047
-0.00157883
-0.0109088
-0.0428047
0.0438907
0.0170713
0.00776246
-0.0456963
0.0481464
0.0338499
0.0257163
-0.0511052
0.0544683
0.0468626
0.0406874
-0.0580552
0.0617695
0.0554621
0.0514257
-0.0654435
0.0690187
0.0603284
0.0579643
-0.0723945
0.0755727
0.0629417
0.0614713
-0.0785238
0.0813141
0.0645963
0.0634606
-0.0839527
0.0865121
0.0657168
0.0648354
-0.0890073
0.0915073
0.0658081
0.065527
-0.0940081
0.0965517
0.0637604
0.0647149
-0.0991054
0.101674
0.0579629
0.0610124
-0.104139
0.106484
0.0469782
0.0527984
-0.108608
0.110399
0.0306794
0.0391306
-0.111818
0.11284
0.0105661
0.0207622
-0.113382
0.113465
-0.0105529
-8.98162e-05
-0.113093
0.112304
-0.0293982
-0.0203014
-0.11128
0.109939
-0.0431241
-0.036809
-0.0480346
-0.063819
0.0637791
0.0946133
0.0608519
-0.0613024
0.0979114
0.0958782
-0.0643646
0.0644191
0.0891318
0.0913108
-0.0640171
0.0631835
0.0843842
0.0863677
-0.0619386
0.0603162
0.0803935
0.0819772
-0.0598509
0.0580781
0.0788826
0.0785404
0.0789134
0.0682866
-0.0654619
0.0352459
-0.0712104
0.0745956
0.0448306
0.0404651
0.0621328
-0.0593403
0.0222418
0.028141
0.0578404
-0.0568673
0.00811652
0.0152018
0.0564775
-0.0566739
-0.00703689
0.000519487
0.0574985
-0.0589208
-0.0213717
-0.0143047
0.0608618
-0.0632543
-0.0332358
-0.0274177
0.0659354
-0.0688388
-0.0421114
-0.0376807
0.0718071
-0.0748509
-0.0484647
-0.045165
0.0778959
-0.0810033
-0.0527284
-0.050404
0.0841141
-0.0872725
-0.0555442
-0.0537979
0.0904229
-0.0936411
-0.0581095
-0.0563589
0.0969195
-0.100349
-0.0605894
-0.0589701
0.103898
-0.107625
-0.0616543
-0.0609724
0.111461
-0.11543
-0.0594063
-0.0606311
0.119419
-0.123381
-0.0527163
-0.0562524
0.127119
-0.130506
-0.0415103
-0.047405
0.133334
-0.135513
-0.0251996
-0.0338214
0.136947
-0.137622
-0.00466142
-0.0151936
0.137428
-0.136497
0.016716
0.0061379
0.134823
-0.132448
0.0353341
0.0263664
0.129505
-0.126149
0.0489177
0.0426422
0.122543
-0.118782
0.0564801
0.0531571
0.115025
-0.111325
0.0590971
0.0580202
0.10774
-0.104277
0.0587126
0.0588951
0.0987483
-0.0938862
0.0573296
0.0577683
0.0896367
-0.0866303
0.0580726
0.0582723
-0.0736387
0.0607161
-0.0610609
-0.0744689
0.0626698
-0.0637764
-0.0818402
-0.0813859
0.0574254
0.0739061
-0.0821717
-0.0586593
0.0992272
0.0785965
0.0480482
0.0616323
-0.0958691
-0.0591907
-0.0738316
-0.0898782
0.0693081
-0.0976667
0.0706059
-0.0831016
-0.0720877
-0.0913826
0.0665476
-0.0871384
-0.0700407
-0.0918647
-0.067797
-0.0914922
-0.0654778
-0.0887149
-0.0647947
-0.0833943
0.0611483
-0.0634072
-0.0795812
0.0585432
-0.0787809
-0.087636
-0.0936345
0.0876464
-0.0527858
-0.0625316
-0.0971801
0.0638426
0.0979023
-0.0980072
-0.0624266
-0.0549229
-0.0823377
0.0779527
-0.0545174
-0.0548044
-0.0738513
0.0694365
-0.0517503
-0.0523173
-0.0660222
0.0634739
-0.0478989
-0.0501228
-0.0598836
0.0562275
-0.0410762
-0.0446434
-0.0526906
0.0493873
-0.0311756
-0.0364366
-0.0465852
0.0444667
-0.0176151
-0.0247609
-0.0431267
0.0426474
-0.00109947
-0.00956881
-0.0429195
0.0439869
0.0160039
0.00749031
-0.045781
0.0482258
0.0314051
0.0239222
-0.0511846
0.0545535
0.0434937
0.0377286
-0.0581547
0.0618931
0.0517237
0.0478245
-0.0656105
0.0692535
0.0566854
0.0542469
-0.0727296
0.076051
0.0596204
0.0579952
-0.0791856
0.0821989
0.061583
0.060326
-0.0850915
0.0879397
0.0628685
0.0619429
-0.0907404
0.0935659
0.0629826
0.0627264
-0.0964058
0.0992921
0.0608741
0.0618751
-0.102178
0.105061
0.0550801
0.0581268
-0.107826
0.110415
0.0443893
0.050033
-0.112719
0.114698
0.0287012
0.0368261
-0.116181
0.117209
0.00953765
0.0192788
-0.117702
0.117662
-0.0105136
-0.000581944
-0.1171
0.116033
-0.0283309
-0.0197393
-0.114561
0.113044
-0.0416067
-0.0353371
-0.111117
0.108345
-0.0496097
-0.0461084
-0.104041
0.101192
-0.0558106
-0.0526971
-0.0612245
0.0625107
0.0966251
0.0609515
-0.0574596
0.0977006
0.0989542
-0.0634508
0.0649376
0.0931265
0.0949382
-0.0655443
0.0656961
0.08898
0.0907042
-0.0654086
0.0646904
0.0851023
0.0866552
-0.06356
0.0620558
0.0818978
0.0831075
-0.0602281
0.0594754
0.0796353
0.0803681
-0.057621
0.0552026
0.0795091
0.0807679
-0.0522686
0.0501326
0.0807324
0.0803275
0.0745786
-0.07095
0.041202
-0.0779639
0.0809044
0.0471921
0.044663
0.067698
-0.0638194
0.0313673
0.0372131
0.0615848
-0.0597222
0.0203792
0.0259064
0.0583597
-0.0574834
0.00724018
0.0138393
0.0571933
-0.0574916
-0.00673863
0.000229437
0.0584015
-0.0598894
-0.0198838
-0.0133948
0.0618618
-0.0642586
-0.030839
-0.0254453
0.0669117
-0.0697676
-0.0392556
-0.0350275
0.0726957
-0.0757196
-0.0454409
-0.0422368
0.078779
-0.0819279
-0.0495794
-0.0473446
0.085099
-0.0883303
-0.0523128
-0.0506269
0.0915721
-0.0949044
-0.0547772
-0.0531172
0.0983169
-0.101897
-0.0570094
-0.0555577
0.105603
-0.109485
-0.0577721
-0.0572664
0.11347
-0.117582
-0.0552939
-0.0566464
0.12171
-0.125817
-0.0486093
-0.052125
0.12971
-0.133262
-0.037958
-0.0435118
0.136245
-0.138547
-0.0228977
-0.0308382
0.140046
-0.140713
-0.00399372
-0.0136953
0.140504
-0.139423
0.0156349
0.00592843
0.137618
-0.13509
0.0328064
0.0245616
0.131986
-0.128429
0.0453606
0.0395385
0.124611
-0.12065
0.0525194
0.0493387
0.116687
-0.112781
0.0551911
0.054057
0.109021
-0.105432
0.0551235
0.0551349
0.102097
-0.0989299
0.054163
0.0544329
0.0941891
-0.0895489
0.0534324
0.0535315
0.0852045
-0.0797386
0.0530774
0.053081
-0.0848502
0.0676722
-0.0438829
-0.090011
0.0595607
-0.0614521
-0.0768895
-0.0770834
0.0569055
0.0723372
-0.083903
-0.0723989
-0.089567
0.0639017
-0.100851
-0.0610581
-0.0996146
0.0663362
0.0610925
-0.0949166
0.0681298
-0.0846837
-0.0708792
-0.0905442
0.104608
-0.107643
-0.0527754
0.10068
-0.0535319
0.0520037
-0.0540214
0.0827501
0.0499593
0.0829488
0.0672577
-0.0867239
-0.0691558
-0.0905059
-0.0672573
-0.0897126
-0.0653704
-0.0881391
-0.0632508
-0.0835507
-0.0631192
-0.0779142
-0.0615676
-0.102843
0.0635598
-0.105497
0.104232
-0.0603028
0.0630908
-0.109543
-0.0590453
0.0578412
-0.0719548
-0.0627759
0.0537579
-0.0730002
-0.106935
0.0671828
-0.0876978
-0.0974934
0.0909604
-0.0558936
-0.0543191
-0.089936
0.0883653
-0.0512151
-0.0538985
-0.083702
0.07878
-0.0495955
-0.050141
-0.0751796
0.071362
-0.0479327
-0.0487168
-0.0675432
0.0638926
-0.0442484
-0.046304
-0.0603437
0.0568263
-0.0375588
-0.0410945
-0.0534457
0.0503223
-0.0280521
-0.0330561
-0.0476328
0.0455562
-0.0155385
-0.0220715
-0.0442362
0.0437298
-0.00059305
-0.00824878
-0.0440064
0.0450476
0.0149627
0.00721371
-0.0467898
0.0491651
0.0290298
0.0221799
-0.0520446
0.0553336
0.0402047
0.0348491
-0.0588637
0.0625452
0.0480422
0.0442944
-0.0662307
0.0698738
0.0530423
0.0505614
-0.0733874
0.0767904
0.0562174
0.0544816
-0.0800507
0.0832296
0.0584041
0.0570656
-0.0863218
0.0893993
0.059791
0.0588507
-0.0924532
0.0955479
0.059888
0.0596724
-0.0986589
0.101831
0.0577023
0.0587641
-0.104976
0.108101
0.0519551
0.0549814
-0.111089
0.113866
0.0416123
0.0470454
-0.116305
0.118358
0.0266479
0.0343866
-0.119928
0.120924
0.00854171
0.0177089
-0.121358
0.121195
-0.0103508
-0.00101592
-0.12046
0.119179
-0.0270494
-0.0190042
-0.117433
0.115311
-0.0394849
-0.0335909
-0.112853
0.110463
-0.0472204
-0.0436503
-0.0498764
-0.0619192
0.0626846
0.0958597
0.0593101
-0.0589345
0.097325
0.0963451
-0.0642919
0.0653749