/*--------------------------------*- C++ -*----------------------------------*\
  =========                 |
  \\      /  F ield         | OpenFOAM: The Open Source CFD Toolbox
   \\    /   O peration     | Website:  https://openfoam.org
    \\  /    A nd           | Version:  10
     \\/     M anipulation  |
\*---------------------------------------------------------------------------*/
FoamFile
{
    format      ascii;
    class       surfaceScalarField;
    location    "40";
    object      phi;
}
// * * * * * * * * * * * * * * * * * * * * * * * * * * * * * * * * * * * * * //

dimensions      [0 3 -1 0 0 0 0];

internalField   nonuniform List<scalar> 
57492
(
-0.0246338
0.00302953
0.00541458
0.0161897
-0.00204651
-0.0202979
-0.00228937
-0.00364533
0.0121521
0.0346566
-0.0431634
0.0989013
0.0723708
-0.016379
-0.154893
-0.209914
0.084987
0.223828
0.0525519
-0.0515564
-0.0269137
0.0259182
-0.0961082
0.0234836
-0.0139983
0.0866229
0.0172442
-0.0608006
0.0226593
-0.101906
0.0967822
-0.0175357
0.0208359
0.0931549
-0.0913315
0.00277502
-0.0084598
0.021853
-0.0161682
-0.00963905
-0.00849899
0.0209131
-0.008816
0.0034708
-0.00429386
-0.00159978
-0.015676
0.100529
-0.0853667
-0.0374522
0.0222904
0.0023646
0.0757215
0.0224424
-2.11354e-05
0.0114368
0.0857476
-0.0971633
-0.0101858
0.0848911
-0.0747264
0.0175237
-0.0362519
0.0187282
-0.0969146
0.0653706
0.0490677
-0.11418
0.0152893
0.0837603
0.0151308
0.0184321
-0.115894
-0.0167188
-0.000163606
0.00590002
-0.0255895
0.019853
0.0117225
-0.0131756
0.00128949
-0.167902
0.177708
0.0161987
-0.0260048
-0.192634
0.0711645
-0.0464323
-0.0777139
0.0276609
0.0395532
0.0104998
-0.052801
-0.0281778
0.00326484
-0.0288405
-0.0766805
0.0968924
0.00862861
-0.0362259
0.0130274
-0.00564204
0.0590655
-0.0374461
-0.0359568
0.0143373
-0.0472433
0.0392948
0.0670141
-0.0715529
-0.123683
0.0721065
0.123129
-0.124245
-0.039898
0.0925902
-0.0576948
-0.00955976
0.0672546
-0.0161879
-0.041507
-0.0722299
0.0900388
-0.0339967
0.0153948
-0.0466651
-0.0409596
-0.0500907
0.0735743
-0.0261122
-0.113257
0.0549678
0.0582892
-0.204652
0.0913954
0.0891486
-0.0226425
0.0149333
-0.0814394
0.0643791
0.00479629
0.0199733
-0.0194806
0.0873901
-0.0905521
0.0955109
0.0153092
-0.0935759
0.0934105
-0.0118978
0.104414
-0.0362732
-0.0765386
0.00839807
0.118005
0.00171833
0.0786589
-0.0435998
0.0583513
0.0288914
0.13639
-0.0997208
-0.0126905
0.011346
0.101065
-0.103024
-0.00595929
0.0092626
0.0139151
0.0992898
-0.098051
-0.0151538
0.00659117
-0.0945819
-0.114555
0.120306
0.12856
-0.134311
-0.0205206
0.127474
-0.221508
0.00242569
0.00739574
-0.000915154
-0.00890628
0.00259944
0.00329705
-0.00082062
0.00780523
-0.00438518
0.00726304
-0.000687916
-0.00542663
0.00451148
0.000169734
-0.00559637
0.260444
0.086359
-0.181592
-0.165211
0.0689492
-0.0497857
0.24128
-0.220963
0.0668298
0.223083
0.0350601
-0.169664
0.0306024
-0.0801769
0.0638107
-0.0142362
0.068967
-0.081124
0.0427594
0.00327943
-0.00133231
0.00108241
0.00688489
0.00180912
0.0191128
0.00396181
-0.0884817
0.161564
0.0736739
-0.146756
0.0972814
-0.116796
0.0539887
0.1539
-0.0463243
0.358351
-0.0297566
-0.111366
-0.217228
0.0994103
0.196645
0.0622954
0.0557521
-0.134228
0.177886
0.00762987
-0.0112752
0.0197819
0.0613879
0.0896864
-0.0431393
-0.107935
0.08289
0.0131545
0.00824848
-0.00313528
-0.00511319
0.0157662
-0.00751776
-0.185515
0.0921726
-0.0715214
0.164864
-0.156247
-0.0901733
0.0609048
-0.0867639
0.086008
-0.155491
0.103783
-0.00210075
-0.0514274
-0.0502553
-0.0459562
0.117063
0.032677
-0.0566136
-0.00672384
0.0173813
-0.0499703
-0.00874412
-0.0193019
-0.0820958
-0.00274883
0.00532532
-0.00476802
0.00219153
0.000498057
-0.0233923
0.0201455
-0.0273382
-0.0100197
0.037856
-0.0226501
0.000637178
-0.0295722
0.00215413
-0.0518855
0.0325836
0.00621077
-0.0580962
0.00670733
0.00905891
0.117888
0.076462
-0.0086818
0.0422606
-0.134287
-0.0153667
0.0956178
-0.0671831
-0.0130679
-0.0228919
0.100793
-0.0932678
0.0838509
0.0463454
-0.0119065
-0.11829
-0.0276941
0.0130125
0.0985325
0.105525
-0.0868735
-0.0330245
-0.0710181
0.0209469
0.0830957
-0.0343517
0.0818755
-0.0805483
0.00241359
-0.107783
-0.0130304
-0.0139527
-0.000677442
-0.0354344
0.0254832
0.0079047
0.0205831
-0.00863775
-0.0473798
-0.0128594
0.0131446
-0.0146296
0.0218168
0.00576893
-0.0129561
0.0415876
-0.0356578
-0.0205594
-0.0214279
0.0509976
0.0120179
-0.0110087
0.0113976
-0.159633
0.0914102
0.160396
0.171256
-0.064397
-0.197033
-0.0774206
0.0890436
-0.00695589
-0.0580545
-0.0116701
-0.0439001
0.000718366
0.00248855
-0.0123862
0.00422978
0.00566791
-0.0122897
0.00879943
0.00597879
-0.0215829
-0.00309299
-0.0185531
-0.0301203
0.00477322
-0.0478699
-0.0287376
-0.0490556
-0.0516136
0.0626588
0.0380103
0.00343507
0.0222037
-0.0746943
-0.0688712
0.0206927
-0.134547
0.0490501
-0.0114179
-0.130576
0.0123706
-0.0163413
-0.00525019
-0.0859351
0.0791713
0.0120139
-0.000464278
-0.0891507
0.0843648
-0.0097338
-0.280854
-0.0788318
0.0963325
0.0897294
-0.119511
0.0984125
-0.0179335
0.0272927
-0.0373124
0.0257292
0.00156345
0.0262827
-0.00595265
0.103268
-0.062948
-0.0406755
0.000355526
0.087218
-0.00343059
0.152188
-0.0146861
-0.158023
0.0317239
0.11335
0.00711382
0.00800317
-0.0922795
0.116
0.00353045
0.0221988
0.0328042
-0.108689
-0.104215
0.0695422
0.133528
0.0592579
-0.00340923
-0.0618133
0.00596464
0.0187154
-0.00670079
-0.075636
0.0136003
0.10133
0.0100331
-0.0669537
-0.00915837
-0.00111838
-0.0121379
-0.00423908
0.0169182
-0.00054118
-2.25523e-05
5.55486e-05
-0.0121709
0.0136643
0.0043005
-0.0179874
-0.0227651
0.0502054
-0.020733
0.187353
-0.145716
-0.0644018
-0.002986
-0.0943069
0.110893
-0.233424
-0.00899584
-0.179456
-0.0962256
0.0422572
0.0808698
0.0608869
-0.126467
0.0448203
0.120142
-0.084093
0.0423474
-0.0811242
0.048797
-0.0100201
0.0464082
-0.0784688
0.074408
0.111922
0.0327251
0.109222
-0.0047051
-0.108876
0.00435917
0.120375
-0.0139898
0.00283694
0.12293
-0.0131448
-0.00533391
-0.104451
0.0879714
-0.0237541
0.0587123
0.0997815
-0.0247778
0.0191322
-0.0941359
0.0218797
0.101421
-0.0235187
-0.0910655
-0.0309049
0.0971926
0.0170551
-0.0871738
-0.0323997
0.0845905
-0.042372
-0.0771996
0.0369719
0.0825997
-0.0441195
-0.0787549
0.0805024
0.0405561
0.0747275
-0.0231763
-0.0921073
0.0739492
-0.0775126
-0.0473953
0.0478334
0.0735112
-0.0373131
0.0646452
-0.097482
0.0860387
-0.0117329
-0.125771
0.00864499
0.126327
-0.00920111
0.0309711
0.0724311
0.0276222
-0.00837508
-0.0916782
0.0472908
0.0420713
-0.0169311
0.00853593
-0.0206571
-0.000738195
-0.0671904
-0.097385
0.0588567
-0.0047789
0.00483445
0.000417802
-0.0051967
-0.0131433
-0.114395
0.0839386
-0.0951681
-0.0114848
0.0935096
0.00828828
-0.0993979
-0.00405853
0.0266603
0.0315207
-0.0239264
-0.0342546
0.0142891
0.0509566
-0.0385853
0.0486998
-0.00289004
0.000275423
-0.00432171
-0.00990646
-0.00599839
0.00627381
-0.0103201
0.0017635
-0.00211756
0.0076171
-0.001706
0.00346951
-0.00382356
0.00466979
-0.00161884
0.00867152
-0.00538692
0.0100567
-0.00700576
0.00741477
-0.000845387
-0.0175781
-0.00296742
0.0103822
-0.0038128
0.0352025
0.082292
-0.104482
0.0331684
-0.108469
0.110504
0.118613
-0.00315236
-0.0337003
-0.0645112
0.0334736
0.0647379
-0.0162765
0.0687966
-0.0862205
0.00621581
-0.0870035
0.0815797
-0.0831786
-0.0739379
0.0755368
0.0812635
-0.0727699
0.0730861
-0.0750579
-0.0833477
0.0752271
0.0809372
-0.0717762
0.0721025
0.0810525
-0.0685239
0.0684086
-0.0659465
0.0820206
0.0649784
0.0772982
-0.0785682
-0.0646766
-0.0649158
0.0839824
0.062954
0.0744236
-0.0620412
-0.078231
-0.068861
-0.079808
-0.0701992
-0.0812225
-0.0713554
-0.0836
-0.0715604
-0.0834529
-0.075205
-0.0595427
0.086985
0.0565401
0.0702879
-0.055407
-0.0758601
-0.0829965
0.0755089
-0.0856458
-0.0736673
-0.0763606
-0.0865418
0.0799059
-0.0489813
0.0867119
0.0492543
0.0692717
-0.0479651
-0.0891528
-0.0728536
0.0871164
-0.0401178
0.0397133
-0.0296964
0.0874659
0.0293469
0.0688289
-0.039675
0.0685352
-0.0294026
-0.0767365
-0.0862957
0.0764904
-0.0892872
-0.0766021
-0.0184503
0.0883139
0.0176022
0.0687332
-0.0186483
-0.0781008
-0.0859972
0.0778023
-0.0897781
-0.0776099
-0.00657426
0.0893002
0.00558802
0.0692129
-0.00705393
-0.0793545
-0.0850814
0.0784386
-0.0895481
-0.0795845
0.00533152
0.0905168
-0.00654811
0.070026
0.00451836
-0.080373
-0.0843522
0.0796438
-0.0897155
-0.0802055
0.016838
0.0919933
-0.0183146
0.0712274
0.0156367
-0.0806205
-0.0831653
0.0794336
-0.089327
-0.081009
0.0277084
0.0932459
-0.028961
0.0725834
0.0263524
-0.0795138
-0.0826181
0.0789665
-0.0892427
-0.0795981
0.0373877
0.0946865
-0.0388283
0.0744668
0.0355043
-0.0769131
-0.0797789
0.074074
-0.0877441
-0.0784118
0.0461651
0.0952746
-0.0467532
0.0755272
0.0451047
-0.0730089
-0.0790226
0.0722526
-0.0878891
-0.0728639
0.053549
0.0956145
-0.0538889
0.0764136
0.0526626
-0.0659606
-0.0770118
0.0639499
-0.0858651
-0.0679847
0.0636624
0.0907432
-0.0587912
0.0806186
0.0594573
-0.0571759
-0.0768514
0.0570155
-0.0856287
-0.0574122
0.0678692
0.0860851
-0.063211
0.0833079
0.0651799
-0.0458504
0.0453057
-0.0763067
-0.0863195
-0.0451597
0.0679026
-0.0682675
0.08645
0.0843872
0.0668233
-0.0692422
0.0713749
0.0548828
-0.0687849
0.0448484
-0.0314415
0.0325856
-0.0774508
-0.0328254
-0.0849356
-0.0720903
0.0734154
0.0709275
0.0632345
-0.0730698
0.07482
0.0772164
0.0744195
-0.0764071
0.0778218
0.0782291
0.0778465
-0.078998
0.0799308
0.0768695
0.0772623
-0.0806358
0.0849206
0.0756211
0.0757855
-0.085419
0.0838861
0.07676
0.0750105
-0.086587
0.0854641
0.0742091
0.0728359
-0.0833338
0.0823319
0.0694105
0.0742328
-0.0800133
0.079704
0.0632632
0.0672971
-0.0794906
0.0794684
0.0492765
0.0567535
-0.0796007
0.0798805
0.0290671
0.0395811
-0.080326
0.0809066
0.00500741
0.0171567
-0.0815902
0.0823355
-0.0190599
-0.00723173
-0.0830926
0.0838227
-0.0395583
-0.0297181
-0.0844904
0.0850809
-0.0544795
-0.0474209
-0.0860517
0.0869513
-0.0641106
-0.0597619
0.0860473
-0.0673635
0.0698176
-0.0686557
0.0852881
0.0688735
0.0853314
0.0785487
-0.07446
0.0553686
-0.081483
0.0832127
0.0650935
0.0622457
0.0724696
-0.0697049
0.04234
0.0506722
0.0680692
-0.0666666
0.0249498
0.0338686
0.0655701
-0.0648105
0.00375881
0.0145401
0.0644859
-0.0645655
-0.0185686
-0.0073786
0.0651209
-0.0660887
-0.0387072
-0.0288473
0.0674682
-0.0691171
-0.0537581
-0.0465856
0.0725168
-0.0739826
-0.0632108
-0.0586414
0.0771055
-0.0780876
-0.0692171
-0.0657382
0.0795136
-0.0808212
-0.0702529
-0.0699294
0.0833641
-0.0849552
-0.0720761
-0.0726621
0.0840591
-0.0850056
-0.0756555
-0.0737498
0.0858505
-0.0866059
-0.0788291
-0.076765
0.0872948
-0.0879653
-0.0803385
-0.0795166
0.0886301
-0.0902724
-0.0767695
-0.0789333
0.0913529
-0.0937573
-0.0655803
-0.0717835
0.094591
-0.0936817
-0.046069
-0.0565785
-0.0937348
-0.0327723
-0.069246
0.0330467
0.0871469
-0.0697554
0.0660303
0.0860559
-0.0171477
0.0180562
-0.0858441
-0.01725
-0.0936324
-0.018594
0.0194584
-0.0701105
-0.0779886
-0.0621121
0.0628403
0.0541546
0.0613951
-0.0613656
0.0330172
0.0441315
-0.0643463
0.0669068
0.068367
0.0617285
-0.0692091
0.0715623
0.0748631
0.0721173
-0.073776
0.0757876
0.0762175
0.0756328
-0.0775163
0.0789818
0.075404
0.0755336
-0.0801535
0.0810078
0.0747668
0.0746138
-0.0817221
0.0838367
0.0746454
0.0742963
-0.0826011
0.0829137
0.0738964
0.0740715
-0.0848614
0.0835099
0.070762
0.072285
-0.0836281
0.0838922
0.0629991
0.0671789
-0.0842206
0.0846309
0.0488662
0.0564251
-0.0851129
0.0856741
0.028506
0.0390991
-0.0862603
0.0868562
0.0044116
0.0165704
-0.0874342
0.0879721
-0.0195978
-0.00780972
-0.0884452
0.0888356
-0.0399487
-0.0301912
-0.0891161
0.0892798
-0.0546432
-0.0477013
-0.089091
0.088499
-0.0635186
-0.0595731
-0.0710393
0.071025
0.0853024
-0.069911
0.0860187
-0.0872086
0.0866494
-0.0691962
-0.0660732
0.0808171
-0.078259
0.0625354
0.0826512
0.0641962
-0.0684121
0.0689752
0.0854928
0.0879443
0.0754404
-0.0717435
0.0516717
0.059427
0.0683669
-0.066349
0.0403221
0.0472956
0.0645911
-0.0630847
0.0234434
0.0321107
0.0619444
-0.0612087
0.00302312
0.0133999
0.0609904
-0.0612469
-0.0183121
-0.00759699
0.0619928
-0.0632752
-0.0374248
-0.0281014
0.0649581
-0.0669901
-0.0517261
-0.0449027
0.0691905
-0.0715004
-0.0609008
-0.056441
0.0737876
-0.0767786
-0.0662262
-0.063451
0.0792367
-0.0802216
-0.0692679
-0.0674713
0.083088
-0.0838157
-0.0713484
-0.0697957
0.0854338
-0.0869425
-0.0741469
-0.0721317
0.0883372
-0.0897011
-0.0774653
-0.0753702
0.0910633
-0.0924696
-0.0789323
-0.0781544
0.0939221
-0.0954456
-0.0752459
-0.0774808
0.096951
-0.0984283
-0.0641029
-0.0702781
0.0997262
-0.100585
-0.0452099
-0.0552806
0.100937
-0.100337
-0.0178497
-0.0324211
-0.0619456
0.0200385
-0.00236153
0.00112668
-0.0923976
-0.099925
-0.00277337
0.000583225
-0.0853007
-0.0697876
0.0865261
0.0843982
0.0672282
0.00596571
-0.00419855
-0.0718776
0.00707672
-0.0630566
0.0128092
-0.0149859
-0.0902209
0.0120384
-0.0991542
-0.0816039
0.089861
-0.0916759
-0.0673813
0.0879572
-0.0678838
0.0699747
-0.0696135
0.0851316
0.0666883
0.0876846
-0.0555668
0.0553376
0.00730592
-0.00811495
0.00960639
-0.0645481
0.0589856
0.0211104
-0.0107353
-0.0693607
-0.00469613
-0.0551631
0.0556037
0.0325766
0.020213
-0.056422
0.0582407
0.0523359
0.0433132
-0.0604087
0.0631963
0.0655794
0.0595605
-0.0660994
0.0689726
0.0719899
0.0692142
-0.0716962
0.0742121
0.0737017
0.0729092
-0.0764246
0.0783416
0.0734869
0.0733211
-0.0799526
0.0813052
0.0734142
0.0730028
-0.0824606
0.0834404
0.0736656
0.0731409
-0.0843541
0.0851739
0.0730766
0.0731578
-0.0859114
0.0867165
0.0699569
0.0715476
-0.0875203
0.0883388
0.0621807
0.0663751
-0.089178
0.0900304
0.0480138
0.0555859
-0.0908663
0.0916512
0.027721
0.0382631
-0.0923441
0.0929433
0.00381243
0.0158775
-0.0934231
0.0937855
-0.0199602
-0.00828955
-0.0940031
0.094055
-0.0400007
-0.0304088
-0.0939255
0.0936233
-0.0543411
-0.0475718
-0.0931682
0.0919044
-0.0622548
-0.059118
-0.0658447
-0.0697649
0.0682033
0.086864
0.0700006
-0.0704788
0.0870043
0.0862544
0.086534
0.0784676
-0.0751213
0.059189
-0.0813252
0.0843258
0.0642276
0.0613387
0.0706513
-0.0689329
0.0499534
0.054957
0.0658579
-0.0636767
0.0381409
0.0442207
0.0617929
-0.0602137
0.0218642
0.0302269
0.0590677
-0.0584031
0.00235854
0.0122539
0.0582364
-0.0587
-0.0178485
-0.00776374
0.0596889
-0.0612299
-0.0358838
-0.0271124
0.0632123
-0.0655182
-0.0494202
-0.0429203
0.0680234
-0.0706378
-0.0582865
-0.0539358
0.0732173
-0.0757299
-0.0637136
-0.0608714
0.0781632
-0.0805597
-0.0668714
-0.065038
0.0828109
-0.084973
-0.0691863
-0.0675445
0.0870183
-0.0889908
-0.0721744
-0.0700864
0.0909139
-0.092855
-0.0755242
-0.073447
0.0948285
-0.0968882
-0.0768725
-0.0761809
0.0990163
-0.101219
-0.0730432
-0.0753527
0.103411
-0.105519
-0.0619956
-0.0680859
0.107373
-0.108961
-0.043622
-0.0534261
0.109606
-0.108517
-0.0189385
-0.0317764
0.107663
-0.107402
0.0117776
-0.00362742
0.0272979
-0.0280425
-0.0984096
-0.106003
0.0258985
0.0114771
-0.0737483
-0.0124402
-0.0878463
-0.0687825
0.0862608
0.0867267
0.0642874
0.0253386
-0.0687763
-0.0255257
-0.0927377
0.0493485
-0.0480536
0.0474049
-0.0410494
0.0393085
-0.104262
-0.0428997
-0.0965594
-0.0343787
0.0541163
-0.0226277
-0.0159687
-0.0423364
-0.082567
-0.051015
0.0520915
-0.0118119
-0.0188544
0.0219558
-0.0503886
0.049663
0.00803146
-0.00299317
-0.0496773
0.0505039
0.0317499
0.0201988
-0.0523936
0.0545849
0.0501445
0.0414236
-0.0573596
0.0605291
0.0624098
0.0567858
-0.0638166
0.0670932
0.0687133
0.0659267
-0.070205
0.0731055
0.0708011
0.0697974
-0.0757051
0.0780107
0.0711813
0.0707216
-0.0800345
0.0818277
0.0716211
0.070979
-0.0834322
0.0849162
0.0721816
0.0715363
-0.0862965
0.0876226
0.0717504
0.0717775
-0.0889297
0.0902478
0.0686389
0.0702405
-0.0915734
0.0929217
0.0608324
0.0650494
-0.0942402
0.0954977
0.0467564
0.0542674
-0.0966453
0.0976441
0.0267222
0.0371156
-0.0984405
0.0990452
0.00320781
0.0150811
-0.0994347
0.0995943
-0.0201198
-0.0086791
-0.0995101
0.0991777
-0.0396683
-0.0303246
-0.0986143
0.0978417
-0.0535686
-0.0470084
-0.0966531
0.0962618
-0.0618635
-0.0579293
-0.0944169
0.0924006
-0.065365
-0.0639998
-0.091076
0.0878935
-0.0655999
-0.0665592
-0.0681807
0.0688591
0.0863259
0.0694802
-0.0688557
0.087269
0.0875603
-0.0683711
0.0690788
0.0861563
0.0867424
-0.0689142
0.0673762
0.0866696
0.0866986
-0.0669947
0.0649208
0.0888006
0.0880661
0.0832765
-0.0798759
0.060827
-0.0881426
0.0860989
0.0669646
0.0594213
0.0764073
-0.0732509
0.0560327
0.0578701
0.0691428
-0.0664818
0.0472924
0.0508489
0.063976
-0.0616841
0.035849
0.0417149
0.0597119
-0.0580967
0.0202489
0.0282547
0.0569714
-0.0563719
0.00175906
0.0111286
0.0563566
-0.0569494
-0.0172557
-0.00777904
0.0581628
-0.0599241
-0.0341225
-0.0258991
0.0621408
-0.0646924
-0.0468687
-0.0407036
0.0674185
-0.070245
-0.05546
-0.0512097
0.0730307
-0.0757982
-0.0609461
-0.0580857
0.078493
-0.0811402
-0.0642242
-0.0623432
0.0836975
-0.086199
-0.0666849
-0.0649872
0.0886162
-0.0910149
-0.0697757
-0.0676693
0.0934173
-0.0958992
-0.0730423
-0.0710446
0.0984546
-0.101133
-0.0741944
-0.0736255
0.1039
-0.10675
-0.0701923
-0.0725858
0.109573
-0.112274
-0.0592952
-0.0652631
0.114678
-0.11669
-0.0416102
-0.0510216
0.118259
-0.11942
-0.0177772
-0.0302075
0.118602
-0.116148
0.00932411
-0.00444586
0.11498
-0.112999
0.0373272
0.0247305
0.0512811
-0.0528891
-0.102654
-0.110558
0.0488398
0.0264414
-0.0748512
-0.025825
-0.0875471
0.0418502
-0.0612779
-0.0392062
-0.0964311
0.0927301
-0.0938601
-0.0644699
0.0891661
-0.0652916
0.0664664
-0.0668907
0.0892249
0.0624005
0.0901647
0.0522807
-0.0493777
-0.050957
-0.0984914
0.0196563
-0.0698796
-0.0372457
0.044423
-0.029805
0.0628889
-0.0624168
-0.103126
0.059008
-0.106677
-0.0321905
-0.0473916
-0.0819506
-0.0459738
0.0455796
-0.0114177
-0.0204053
-0.0453011
0.0448319
0.00850068
-0.00271464
-0.0454765
0.0471107
0.0301157
0.0195541
-0.0493153
0.0521022
0.0473576
0.039219
-0.0552702
0.058755
0.0589251
0.0536177
-0.0623388
0.0659057
0.0651464
0.0623429
-0.0692992
0.0724787
0.0676216
0.0664039
-0.0753723
0.0779959
0.0685577
0.067828
-0.080368
0.082551
0.069438
0.0686069
-0.0845731
0.0865053
0.0702494
0.0695143
-0.0883573
0.0901788
0.0699289
0.0699254
-0.0919926
0.0938286
0.0668029
0.0684267
-0.0956531
0.0974823
0.0590031
0.0632249
-0.0992411
0.100863
0.0451346
0.0525086
-0.102296
0.103503
0.0255155
0.0356824
-0.104389
0.104973
0.00262394
0.0141948
-0.105244
0.105187
-0.0200625
-0.00895012
-0.10481
0.104121
-0.0389796
-0.0299475
-0.103154
0.10194
-0.0523539
-0.0460419
-0.100567
0.099092
-0.0603886
-0.0565565
-0.0972559
0.0954691
-0.0635782
-0.0621637
-0.0649502
-0.0678118
0.0669261
0.0872117
0.066966
-0.0672507
0.0875537
0.0867144
-0.0671757
0.0668691
0.086463
0.0864927
-0.0676362
0.0681785
0.0861273
0.0859315
0.0893539
0.082013
-0.0785255
0.0573396
-0.0829738
0.0889058
0.0610325
0.0584605
0.075252
-0.0709217
0.0517024
0.0545965
0.0680997
-0.0653463
0.044539
0.0480268
0.0627446
-0.06038
0.0334844
0.0391131
0.0583625
-0.0567559
0.0186424
0.0262372
0.0556755
-0.0551621
0.00124575
0.0100481
0.0552811
-0.0560257
-0.0165112
-0.00766003
0.0574069
-0.0593446
-0.0321848
-0.0245179
0.0617087
-0.0644211
-0.0441563
-0.0383395
0.0672853
-0.0702461
-0.0524992
-0.0483455
0.0731823
-0.0761237
-0.0580046
-0.0551495
0.0790174
-0.081897
-0.0613447
-0.0594495
0.0847112
-0.087492
-0.0639041
-0.062173
0.0902217
-0.0929854
-0.067012
-0.0649395
0.0957937
-0.0987231
-0.0701128
-0.0682364
0.101755
-0.104933
-0.0710166
-0.0705936
0.108205
-0.111566
-0.0668313
-0.0693134
0.114887
-0.118082
-0.0561007
-0.0619421
0.120971
-0.123439
-0.0391421
-0.0481328
0.125345
-0.126665
-0.0164576
-0.0283006
0.12746
-0.12757
0.00943331
-0.00365055
0.124726
-0.12107
0.0336703
0.0218875
0.116131
-0.111961
0.0548373
0.0439016
0.0687714
-0.0684667
-0.106981
-0.107171
0.0639821
0.0394703
-0.0724713
-0.0387092
-0.0880441
-0.0651434
0.0870587
0.0902573
0.061049
0.0524904
-0.0614876
0.0456378
-0.0645668
0.0549591
-0.0586991
-0.0510465
-0.0963417
-0.0604567
-0.100451
-0.0478246
-0.0542454
0.0612391
-0.0562662
-0.0527975
0.0527074
-0.0560351
-0.0695137
-0.102079
0.0713477
-0.0758863
-0.102443
0.0703414
-0.106165
-0.0811895
-0.0426634
0.0432729
-0.0304145
0.0481824
-0.054453
-0.0479748
-0.0418726
-0.0431448
0.0425647
-0.0108376
-0.0202772
-0.0419016
0.0422515
0.00815073
-0.00205154
-0.0434012
0.0452867
0.0282302
0.0184045
-0.0477593
0.0507631
0.0443538
0.0367464
-0.0541464
0.0578113
0.0552602
0.0502345
-0.061569
0.0653182
0.0613971
0.0585852
-0.0689078
0.072294
0.0642354
0.0628144
-0.075417
0.0783024
0.0656723
0.064705
-0.0809652
0.0834819
0.0669213
0.0659441
-0.0858676
0.088197
0.06792
0.0671286
-0.0904772
0.0927558
0.0676503
0.0676453
-0.0950321
0.0973344
0.0645006
0.0661504
-0.0996267
0.101876
0.056754
0.0609326
-0.104006
0.105978
0.0431627
0.0503784
-0.107644
0.109004
0.0241554
0.0340162
-0.110005
0.110534
0.00209494
0.0131944
-0.110697
0.110435
-0.0198008
-0.00911292
-0.109774
0.10873
-0.0379356
-0.0292866
-0.107366
0.105731
-0.0507182
-0.0446782
-0.103926
0.102
-0.0584629
-0.0547514
-0.100065
0.0984637
-0.061977
-0.0602287
-0.0958257
0.0935098
-0.062154
-0.0623122
-0.0902603
0.087747
-0.0626301
-0.0620422
-0.0648275
0.0659352
0.086446
0.0658775
-0.0625708
0.0844404
0.0881087
-0.0661801
0.0667169
0.0866749
0.0864695
-0.0669345
0.066776
0.0866215
0.0862752
-0.0662418
0.0653254
0.0870437
0.0864657
-0.0658813
0.0650996
0.0900066
0.0887979
-0.0633313
0.0610631
0.0925256
0.091933
0.0879477
-0.0840621
0.0571469
-0.0906972
0.0918223
0.059938
0.0582995
0.0806345
-0.0774219
0.054127
0.0550329
0.0733773
-0.0704441
0.0487693
0.0505519
0.0675655
-0.0647487
0.0417223
0.0451481
0.0621155
-0.0597383
0.0311072
0.0364799
0.05773
-0.0561716
0.017084
0.0242289
0.0551601
-0.0547445
0.00083019
0.00903661
0.054984
-0.0558661
-0.0156291
-0.00742056
0.0573515
-0.0594139
-0.0301225
-0.0230324
0.0618752
-0.064658
-0.0413735
-0.0358781
0.0675795
-0.070598
-0.0494807
-0.045424
0.0736153
-0.0766673
-0.0549526
-0.0521322
0.0797071
-0.0827643
-0.0582875
-0.0564097
0.0857783
-0.0887873
-0.0608952
-0.0591589
0.0917777
-0.0948455
-0.0639442
-0.061949
0.0979999
-0.101312
-0.0668012
-0.065082
0.104749
-0.108351
-0.067414
-0.0671567
0.112052
-0.115839
-0.0630444
-0.0656121
0.119567
-0.123136
-0.0525318
-0.0582143
0.126353
-0.129107
-0.0363876
-0.0449161
0.131247
-0.132717
-0.014988
-0.0261606
0.133467
-0.13343
0.00939659
-0.00290045
0.132664
-0.131198
0.0322052
0.0211208
0.129003
-0.124111
0.0499448
0.0417063
0.118643
-0.111023
0.0627216
0.0585148
0.0705295
-0.0742777
-0.102417
-0.107137
0.0666432
0.0514228
-0.0714037
-0.0564444
-0.0542748
0.0588149
-0.0653435
0.0894732
-0.0929438
-0.0591595
0.0867593
-0.059857
0.0638308
-0.0640009
0.0926956
0.0612681
0.094385
-0.0507289
-0.0883616
-0.0606819
-0.0961166
0.0592363
-0.0652279
-0.0676894
-0.102276
-0.0714615
-0.106504
-0.072347
-0.104374
0.0722883
-0.073157
-0.101548
0.0667293
-0.101578
-0.0804956
-0.0563842
0.0516423
-0.0432329
-0.0571653
0.0665264
-0.0658055
0.061814
-0.0676272
-0.0513521
-0.0488451
-0.0456246
0.0438899
-0.0286798
-0.0358548
-0.0429163
0.0420304
-0.0099517
-0.0193036
-0.0412993
0.0415042
0.00794579
-0.0013204
-0.0426888
0.0446958
0.0262231
0.01722
-0.0473153
0.0504409
0.0412282
0.0341269
-0.0539111
0.0576339
0.0515374
0.0467642
-0.0614482
0.0652687
0.0575766
0.0547709
-0.0689615
0.072485
0.0607119
0.0591216
-0.0757831
0.0788861
0.0625693
0.061407
-0.0817992
0.0846008
0.0641196
0.063031
-0.087301
0.0899748
0.0652463
0.0644284
-0.0926233
0.0953029
0.0649707
0.0649967
-0.0979807
0.100689
0.0617918
0.0634726
-0.103374
0.105985
0.0541428
0.0582483
-0.108434
0.110666
0.0409311
0.0479292
-0.112553
0.11403
0.0226783
0.0321286
-0.115051
0.115616
0.00153001
0.0121733
-0.115637
0.115166
-0.0193294
-0.0091337
-0.114228
0.112857
-0.0365638
-0.0283494
-0.111139
0.109135
-0.0487138
-0.0429609
-0.106968
0.104685
-0.0561801
-0.0525844
-0.102384
0.100092
-0.0596856
-0.0579273
-0.0974999
0.095439
-0.0600931
-0.0597198
-0.059547
-0.0643808
0.064809
0.0860178
0.0611966
-0.0614718
0.0847155
0.0849245
-0.0658274
0.0665593
0.0859429
0.0854512
-0.0669083
0.0668631
0.0866667
0.0859262
-0.0664291
0.0656116
0.0878613
0.0868997
-0.0660823
0.065112
0.0909769
0.0883272
0.0930441
0.0873582
-0.0845156
0.0543042
-0.0900253
0.0931079
0.0568554
0.0556324
0.0803504
-0.0762581
0.0500346
0.0508677
0.0733471
-0.0703852
0.0458074
0.0476409
0.0674869
-0.0646639
0.0388993
0.0422499
0.0620536
-0.0597123
0.0287659
0.0338696
0.0577633
-0.0562836
0.0156042
0.02228
0.0553619
-0.0550581
0.000526443
0.0081149
0.0553738
-0.0563657
-0.0146372
-0.0071049
0.0579372
-0.0600467
-0.0280129
-0.021461
0.0625327
-0.0653145
-0.0385917
-0.0333921
0.0682272
-0.0712459
-0.0464619
-0.0425114
0.0742977
-0.0774182
-0.0518321
-0.0490804
0.0805536
-0.0837284
-0.0551127
-0.0532743
0.0868748
-0.0900431
-0.0577269
-0.0560125
0.0932258
-0.0965211
-0.0606489
-0.0587663
0.099928
-0.103512
-0.0632171
-0.0616751
0.107228
-0.111107
-0.0635348
-0.0634413
0.115074
-0.119127
-0.0589921
-0.0616447
0.123132
-0.127
-0.0486642
-0.054209
0.130508
-0.133513
-0.0333819
-0.0414079
0.135841
-0.137408
-0.0134207
-0.0238335
0.138125
-0.138008
0.00927975
-0.00218381
0.137046
-0.135277
0.0304361
0.0201593
0.132792
-0.129637
0.0467895
0.0392211
0.123395
-0.117271
0.056598
0.0522732
0.111575
-0.107257
0.0624118
0.0609465
-0.0688665
0.0579021
-0.0450708
-0.0551376
0.0689273
-0.0706784
-0.0998272
-0.100458
0.0621286
0.0593993
-0.0719881
-0.0590104
0.0842979
0.0968949
0.0574811
0.0583117
-0.0718508
-0.054088
-0.0603369
-0.0887067
0.0663634
-0.0738572
0.0639795
-0.0700866
-0.0680239
-0.095782
0.0647967
-0.0721225
-0.0726252
-0.101112
-0.0742253
-0.104625
-0.073237
-0.104293
-0.0721487
-0.100078
0.0665879
-0.0694116
-0.0970035
0.0632145
-0.0970849
-0.0814331
-0.0683597
0.0624302
-0.0454226
-0.0575327
-0.0754023
0.0610842
0.0730919
-0.0746046
-0.05602
-0.0493558
-0.0570905
0.0527084
-0.0388508
-0.0435053
-0.0487671
0.0453676
-0.0252804
-0.0319135
-0.0435334
0.0426876
-0.00910587
-0.0174694
-0.042019
0.04216
0.00780477
-0.000651793
-0.0432392
0.0451833
0.0242791
0.0161407
-0.0477973
0.0509351
0.0380904
0.0315129
-0.0544101
0.0581192
0.0478283
0.0432893
-0.0619131
0.0657212
0.0537685
0.050977
-0.0694306
0.073014
0.0571285
0.0554122
-0.0764182
0.0796792
0.0593083
0.0580028
-0.0827917
0.0858289
0.0610824
0.0599186
-0.088797
0.091766
0.0622773
0.0614603
-0.0947306
0.0977436
0.0619577
0.062032
-0.100761
0.103804
0.0587487
0.0604556
-0.106794
0.109709
0.0512278
0.055258
-0.112396
0.114827
0.0385001
0.0452423
-0.116883
0.118454
0.0211081
0.0300722
-0.119499
0.12001
0.00101961
0.0111277
-0.119915
0.119254
-0.0186689
-0.0090388
-0.118075
0.116418
-0.0349069
-0.0271698
-0.114393
0.112071
-0.0463921
-0.0409356
-0.109592
0.107006
-0.0535942
-0.0501053
-0.104417
0.101821
-0.0570896
-0.0553389
-0.0992986
0.0968372
-0.0576317
-0.057197
-0.0943873
0.0915202
-0.0562923
-0.0570971
-0.0875007
0.0846935
-0.0562032
-0.0558375
-0.0599171
0.0613779
0.0832547
0.0593356
-0.0558463
0.0812042
0.0837164
-0.062703
0.0645662
0.0841545
0.0835995
-0.0657864
0.066642
0.0850873
0.084231
-0.0671035
0.0671605
0.0866096
0.0854647
-0.0668092
0.0660723
0.0885981
0.0872511
-0.0649572
0.0650037
0.0909304
0.0894423
-0.0638
0.061899
0.0945966
0.0942478
-0.0592527
0.0576017
0.0985459
0.0970313
0.0937035
-0.0901423
0.0532942
-0.0968624
0.0996092
0.0548548
0.0543222
0.0868475
-0.0822573
0.049714
0.0523376
0.0794438
-0.0765351
0.047126
0.0480542
0.0736396
-0.0706832
0.042851
0.0447454
0.0678192
-0.0650411
0.0361213
0.0393859
0.0625002
-0.0602368
0.0265025
0.0313286
0.0583833
-0.0570026
0.0142235
0.0204265
0.0561831
-0.055974
0.0003173
0.00729538
0.0563852
-0.0574343
-0.0135881
-0.00669365
0.0590395
-0.061142
-0.0259104
-0.0198558
0.0635892
-0.0663014
-0.0358796
-0.0309449
0.0691479
-0.0721187
-0.0434911
-0.0396648
0.075155
-0.0782984
-0.0486887
-0.0460441
0.0814837
-0.084728
-0.0518683
-0.050089
0.0879609
-0.0912393
-0.0544485
-0.0527797
0.0945611
-0.0980259
-0.0571841
-0.0554445
0.101623
-0.105411
-0.0594287
-0.0580783
0.109335
-0.113415
-0.0594547
-0.0595176
0.117556
-0.121748
-0.0548003
-0.0575035
0.125866
-0.129846
-0.0446846
-0.0500907
0.133479
-0.136609
-0.0302518
-0.0377743
0.13903
-0.140648
-0.0118026
-0.0214125
0.141362
-0.141184
0.00910174
-0.0014698
0.140074
-0.138095
0.0284575
0.0190485
0.135351
-0.132007
0.0434455
0.0364773
0.128252
-0.124156
0.0525022
0.0485178
0.117842
-0.111483
0.0560527
0.0546326
0.105626
-0.0987665
0.0563552
0.0562713
-0.0834789
0.0683819
-0.0299737
-0.0722531
0.0639075
-0.0660893
-0.0949031
-0.095659
0.0608
0.0666185
-0.0746271
-0.0676523
-0.0890783
0.0586914
-0.0782239
-0.0550721
-0.0795872
0.0628763
0.061174
-0.073947
0.0677655
-0.0730554
-0.0730506
-0.0953566
0.086593
-0.0896458
-0.0531504
0.0829139
-0.0521672
0.0580545
-0.0598599
0.100351
0.0562077
0.101456
0.0688889
-0.0726296
-0.0754531
-0.0998842
-0.0752569
-0.102605
-0.0729303
-0.103512
-0.0692919
-0.100198
-0.0678623
-0.0952305
-0.0551862
-0.0812315
0.0581938
-0.0839815
0.0815021
-0.0527068
0.0556864
-0.088002
-0.0516659
0.0618414
-0.0896507
-0.0670938
0.0574411
-0.0912587
-0.0856419
0.0600968
-0.0824669
-0.0748732
0.0681576
-0.0493045
-0.0484431
-0.065602
0.0628362
-0.0426567
-0.0468003
-0.0580158
0.0534178
-0.0342528
-0.0386849
-0.0502181
0.0474636
-0.0225258
-0.0287139
-0.0454243
0.0442084
-0.00789004
-0.01543
-0.0436652
0.0438331
0.00763686
-0.000108591
-0.0448114
0.0466027
0.0224878
0.0151625
-0.049077
0.0521008
0.0350667
0.0290385
-0.0554852
0.0591139
0.0441996
0.0399049
-0.0628356
0.0665837
0.0500204
0.0472553
-0.0702562
0.0738403
0.0535444
0.0517396
-0.077288
0.080641
0.0559553
0.054555
-0.0838906
0.0871047
0.0578682
0.0566691
-0.0902838
0.0934914
0.0590697
0.0582812
-0.0967128
0.0999903
0.0586802
0.0588106
-0.103279
0.106579
0.0554485
0.0571671
-0.109806
0.112931
0.0481027
0.0520308
-0.115807
0.11838
0.0359277
0.0423664
-0.120521
0.122189
0.0194395
0.027931
-0.123211
0.123655
0.000576199
0.0101059
-0.123445
0.122615
-0.0178386
-0.00882945
-0.121222
0.119321
-0.033006
-0.0257773
-0.117044
0.114474
-0.0438219
-0.038658
-0.111762
0.108954
-0.0507859
-0.0473935
-0.106153
0.103347
-0.0542842
-0.0525379
-0.100602
0.0978975
-0.0549269
-0.054452
-0.094909
0.0924452
-0.0538286
-0.0541086
-0.0530381
-0.0596898
0.0609624
0.0819821
0.0568381
-0.0560534
0.0804195
0.0808646
-0.0629548
0.0646375
0.0824719