/*--------------------------------*- C++ -*----------------------------------*\
  =========                 |
  \\      /  F ield         | OpenFOAM: The Open Source CFD Toolbox
   \\    /   O peration     | Website:  https://openfoam.org
    \\  /    A nd           | Version:  10
     \\/     M anipulation  |
\*---------------------------------------------------------------------------*/
FoamFile
{
    format      ascii;
    class       surfaceScalarField;
    location    "31.5";
    object      phi;
}
// * * * * * * * * * * * * * * * * * * * * * * * * * * * * * * * * * * * * * //

dimensions      [0 3 -1 0 0 0 0];

internalField   nonuniform List<scalar> 
57492
(
-0.0261272
0.0029138
0.00576598
0.0174474
-0.000667297
-0.0216525
-0.00380733
-0.00352152
0.0116732
0.0334187
-0.0415704
0.0989129
0.0723628
-0.0163819
-0.154894
-0.209904
0.08498
0.223837
0.0524474
-0.0514369
-0.0268461
0.0258356
-0.0958723
0.0233798
-0.0139228
0.0864153
0.0172659
-0.0606907
0.0235126
-0.101014
0.0958857
-0.0183839
0.021481
0.092333
-0.0903014
0.00456996
-0.00508354
0.0127799
-0.0122663
-0.00973826
-0.00683206
0.0211403
-0.00872936
0.00302025
-0.00402915
-0.0012321
-0.0125808
0.10075
-0.0854276
-0.037554
0.0222319
0.002266
0.075877
0.0226066
-0.00174644
0.0129645
0.0863401
-0.0975581
-0.0117962
0.0854539
-0.0754041
0.0162361
-0.034074
0.0178379
-0.0927769
0.0622486
0.0467644
-0.115569
0.0144846
0.0846771
0.0164069
0.0196587
-0.117139
-0.0180887
0.000626932
0.0051045
-0.0232649
0.0175335
0.0107108
-0.0113547
0.00127086
-0.160251
0.17008
0.0153711
-0.0252004
-0.186401
0.0702224
-0.044072
-0.0713367
0.0247459
0.0367912
0.0097996
-0.0485104
-0.0259254
0.00309911
-0.0277542
-0.0737364
0.093431
0.0080596
-0.0348567
0.0125683
-0.00546586
0.0593028
-0.0375982
-0.0361329
0.0144283
-0.0474208
0.0393808
0.0673427
-0.0717952
-0.124123
0.0723196
0.123599
-0.124496
-0.0400844
0.0927848
-0.0607575
-0.00947503
0.0702325
-0.0165147
-0.0442427
-0.0772858
0.0948688
-0.0340978
0.0160527
-0.0509548
-0.0423837
-0.0499612
0.073341
-0.02819
-0.113234
0.0549596
0.0582747
-0.204621
0.0913865
0.0857628
-0.0139292
0.00637563
-0.0782092
0.0613892
-0.00401048
0.028384
-0.0116528
0.0858821
-0.0881585
0.0953515
0.0153424
-0.0934279
0.0932697
-0.011841
0.104328
-0.0362776
-0.07649
0.00843962
0.117903
0.00176772
0.0784722
-0.0434955
0.0582929
0.0288887
0.135999
-0.100357
-0.0120586
0.0104401
0.101975
-0.103655
-0.00520124
0.00849901
0.0146367
0.0983228
-0.0971316
-0.0158279
0.00743844
-0.0938161
-0.108668
0.117629
0.124052
-0.133013
-0.0165607
0.124943
-0.217051
0.00200966
0.00551256
-0.000900604
-0.00662161
0.00168438
0.00334552
8.74945e-05
0.00718286
-0.00558597
0.00611488
-0.000514822
-0.00476422
0.00386362
0.00034461
-0.00510883
0.253748
0.0845535
-0.176758
-0.161543
0.0683967
-0.049188
0.234539
-0.215925
0.0662437
0.218078
0.0343873
-0.165759
0.0287818
-0.0798273
0.063918
-0.0128725
0.0689607
-0.0808274
0.0406486
0.0036919
-0.00189517
0.00111708
0.00743682
0.00202106
0.0204408
0.00444336
-0.0881456
0.160306
0.0707336
-0.142894
0.0945336
-0.113719
0.0508169
0.150883
-0.0413943
0.366536
-0.0327094
-0.111267
-0.22256
0.0978204
0.200447
0.0682683
0.0547142
-0.138083
0.181189
0.00734979
-0.0108713
0.019023
0.0593176
0.087039
-0.0418128
-0.104544
0.0801768
0.0125595
0.0104432
-0.00392541
-0.00651777
0.0177889
-0.00734569
-0.190744
0.0952322
-0.0739933
0.169505
-0.161451
-0.0917341
0.0624415
-0.090396
0.0888155
-0.159871
0.107645
-0.0023541
-0.0535166
-0.0517739
-0.0476583
0.12135
0.0339526
-0.0586544
-0.00697829
0.0179744
-0.05186
-0.00914856
-0.020119
-0.0852576
-0.0369254
0.0134912
0.0127631
0.010671
0.0107396
-0.0335856
-0.0140794
-0.0148593
-0.00357798
0.0291769
-0.00720937
0.0058413
-0.00065045
0.00620422
-0.0536808
0.0335618
0.00663993
-0.0603207
0.00747241
0.0103165
0.117888
0.0764613
-0.00868104
0.0422526
-0.134269
-0.0153796
0.0956345
-0.0671901
-0.0130649
-0.0229121
0.100804
-0.093272
0.0834997
0.0483728
-0.0141756
-0.117697
-0.02598
0.0110281
0.0984516
0.106973
-0.0845799
-0.0334973
-0.0715299
0.0213705
0.0836568
-0.0343555
0.0826035
-0.0817453
0.00271453
-0.1086
-0.0103062
-0.010987
-0.000551296
-0.035148
0.0250188
0.00946195
0.0193963
-0.00706116
-0.0474831
-0.0154097
0.0131535
-0.0147253
0.0243572
0.00618727
-0.0158192
0.0454169
-0.0429448
-0.0171974
-0.0245609
0.0550498
0.014928
-0.0126718
0.0124681
-0.163334
0.0937231
0.164843
0.175907
-0.0649046
-0.202736
-0.0787704
0.0913432
-0.00649196
-0.0554968
-0.0117476
-0.042084
0.000735354
0.00105484
-0.0144672
0.00704888
0.00636353
-0.0122039
0.00687135
0.00638741
-0.0184437
-0.00822746
-0.0179955
-0.0287212
0.00463272
-0.0462688
-0.0272235
-0.0490127
-0.0515875
0.0625773
0.0380229
0.00340376
0.0222496
-0.074666
-0.0688259
0.0206421
-0.128318
0.0460186
-0.0104774
-0.123547
0.0103539
-0.0151248
-0.00522005
-0.0859253
0.0791588
0.0119865
-0.000442696
-0.0891196
0.0843422
-0.00970858
-0.280838
-0.0766464
0.0926261
0.0858675
-0.116495
0.103048
-0.0176547
0.0193727
-0.0229507
0.0195958
-0.000223031
0.0251159
-0.00557502
0.0990246
-0.0611215
-0.0434825
0.00557937
0.0851719
0.00219987
0.148687
-0.0111777
-0.15407
0.0343191
0.110822
0.00354563
0.00980269
-0.0888322
0.113349
0.0019855
0.0176103
0.0345916
-0.113209
-0.107578
0.0720353
0.138131
0.0594368
-0.00345935
-0.0619827
0.00600519
0.0187178
-0.0067018
-0.0758529
0.0135623
0.101671
0.00998169
-0.0671167
-0.00991176
-0.000249033
0.00152149
0.00375224
-0.00300995
-0.00226378
0.00663306
-0.000777321
-0.00433425
0.0363257
0.017998
-0.0476905
-0.027397
0.0568033
-0.0219339
0.192325
-0.152187
-0.0675355
-0.00307526
-0.0944955
0.111133
-0.226696
-0.00889335
-0.173858
-0.0931253
0.0402878
0.0806655
0.062666
-0.128847
0.0471232
0.121662
-0.0881194
0.0443877
-0.0817198
0.0485595
-0.0112273
0.0484311
-0.0789017
0.0748583
0.113144
0.0341988
0.108893
-0.00537544
-0.108628
0.00511067
0.11986
-0.0146247
0.00365728
0.122095
-0.0137462
-0.00449019
-0.103858
0.0872916
-0.0242935
0.0590968
0.100554
-0.0251332
0.0193774
-0.094798
0.0221136
0.102283
-0.0238426
-0.0917299
-0.0313855
0.0979822
0.0173887
-0.0877481
-0.0330807
0.085352
-0.0434896
-0.0779666
0.0378882
0.083568
-0.0453596
-0.079548
0.081418
0.0418365
0.0756629
-0.0242705
-0.0932289
0.0748187
-0.0783419
-0.0488184
0.0491301
0.0745071
-0.0385621
0.0654066
-0.0988369
0.0873801
-0.0128137
-0.127711
0.0100664
0.128864
-0.0112188
0.0325563
0.0685587
0.0473853
-0.026864
-0.08908
0.043862
0.0546822
-0.0299855
0.00882403
-0.0201545
-0.00407928
-0.0671282
-0.0973715
0.0589044
-0.00317812
0.0024008
0.000686896
-0.00386502
-0.0130712
-0.114284
0.0838597
-0.0951196
-0.0113991
0.0934475
0.0082224
-0.0993566
-0.00398546
0.00166712
0.0242821
-0.000575147
-0.0253741
0.0249983
0.0144225
-0.0377537
0.0246788
0.0246016
0.000372024
-0.00340544
-0.00795355
-0.0052881
0.00566012
-0.00869355
0.001645
-0.00181625
0.00628613
-0.00153254
0.00317754
-0.00334879
0.00446037
-0.00144216
0.00769255
-0.00512054
0.00958091
-0.0065627
0.00826278
-0.00102977
-0.0199048
-0.00336406
0.0116268
-0.00439382
0.0336514
0.0822419
-0.104865
0.0349647
-0.109496
0.108183
0.117592
-0.000385208
-0.0342435
-0.063957
0.0340695
0.064131
-0.0154847
0.0677144
-0.0864732
0.00724157
-0.0866833
0.0790755
-0.0809046
-0.0698687
0.0716978
0.078658
-0.0665389
0.0669563
-0.072387
-0.081462
0.0729444
0.0784209
-0.062573
0.0628102
0.078945
-0.0556037
0.0550796
-0.0485852
0.0805004
0.0470298
0.0740225
-0.0746094
-0.0479982
-0.04316
0.0835101
0.0401502
0.0716876
-0.0408251
-0.0739317
-0.0562814
-0.0754258
-0.061079
-0.0769772
-0.0649874
-0.0795756
-0.0672703
-0.0799056
-0.0720571
-0.0330836
0.0874646
0.0291292
0.0682704
-0.0296664
-0.0739912
-0.0815953
0.0741245
-0.0825263
-0.0713704
-0.0745471
-0.0856312
0.078583
-0.0183244
0.088195
0.017594
0.0683723
-0.0184263
-0.0863832
-0.0706902
0.0892999
-0.00634187
0.00523695
0.00572965
0.090603
-0.00703274
0.0688783
-0.00684791
0.0696941
0.00491391
-0.074491
-0.0861131
0.0749729
-0.0871598
-0.0737144
0.0174329
0.0919368
-0.0187667
0.0707036
0.0164233
-0.0751146
-0.0865534
0.0755549
-0.0882895
-0.073985
0.0282224
0.0935826
-0.0298681
0.0720728
0.0268532
-0.0757413
-0.0863754
0.0755633
-0.08866
-0.0753708
0.0380562
0.0948933
-0.039367
0.0734145
0.0367146
-0.0767553
-0.0862677
0.0766477
-0.0892614
-0.0761539
0.0463409
0.0965441
-0.0479917
0.0751613
0.0445941
-0.0780136
-0.0855293
0.0772752
-0.0891337
-0.0781413
0.0535007
0.0974925
-0.0544491
0.0767268
0.0519352
-0.0791914
-0.0851394
0.0788015
-0.0890615
-0.0792635
0.05894
0.0987261
-0.0601736
0.078831
0.0568358
-0.0802773
-0.0821797
0.0773175
-0.0874424
-0.0818965
0.0635254
0.0988025
-0.0636018
0.0796904
0.062666
-0.081374
-0.0809036
0.080098
-0.0872722
-0.0815442
0.0667751
0.0986937
-0.0666664
0.0803652
0.0661003
-0.0804541
-0.0784667
0.0780172
-0.0850376
-0.0826888
0.0731731
0.0931659
-0.0676452
0.0843982
0.0691401
-0.0783174
-0.0776629
0.0775135
-0.0845774
-0.0787776
0.0740654
0.088246
-0.0691455
0.0868373
0.0716262
-0.073858
0.0725885
-0.0763934
-0.0852455
-0.0731899
0.071357
-0.0713855
0.0882745
0.0875542
0.0706401
-0.0721176
0.075244
0.0743872
-0.0701431
0.0706139
-0.0656949
0.0661371
-0.0768356
-0.0670752
-0.0838651
-0.076726
0.0781022
0.0787217
0.0765352
-0.077585
0.0788958
0.0774907
0.0778347
-0.079901
0.0806172
0.0759315
0.07627
-0.0810633
0.0813076
0.0753106
0.0751172
-0.081443
0.0851641
0.0748619
0.0748376
-0.0852672
0.0834274
0.0747842
0.0740214
-0.0858999
0.0847656
0.0680906
0.0692253
-0.0825956
0.0817597
0.0559155
0.0649802
-0.0797886
0.0798748
0.040064
0.0490009
-0.0800626
0.0804594
0.0171972
0.0289414
-0.0809922
0.0816366
-0.0076772
0.00470418
-0.0823486
0.0830755
-0.0305951
-0.0194786
-0.0837698
0.0844041
-0.048626
-0.0400613
-0.0849631
0.085447
-0.0606575
-0.0550082
-0.0858565
0.0861915
-0.0670014
-0.0640112
-0.0870682
0.0876003
-0.0696775
-0.068522
0.0864359
-0.0702211
0.0713916
-0.0698678
0.0867507
0.0708579
0.0880879
0.0837645
-0.0797354
0.065111
-0.0863618
0.0876647
0.0693372
0.0690289
0.0777987
-0.0747246
0.059592
0.0641636
0.0728098
-0.0709309
0.0500564
0.054921
0.0691693
-0.06755
0.0350953
0.0428324
0.0661687
-0.0650641
0.0153187
0.025472
0.0643327
-0.0640312
-0.00714938
0.00418248
0.0642027
-0.0648243
-0.0290449
-0.0182548
0.0672693
-0.068266
-0.0470015
-0.0383801
0.0710691
-0.0721515
-0.0599966
-0.0534783
0.0738141
-0.0754325
-0.0656519
-0.0633248
0.0782975
-0.0802754
-0.0693925
-0.069192
0.0799517
-0.0813457
-0.0723204
-0.0710139
0.0826413
-0.0837725
-0.0742396
-0.0726894
0.0847117
-0.0854807
-0.0773723
-0.0752147
0.0861153
-0.0875537
-0.0804582
-0.0786289
0.0884869
-0.090758
-0.0804177
-0.0806109
0.0919412
-0.0911669
-0.0739642
-0.0775944
-0.0921157
-0.0661264
-0.0688678
0.0648619
0.0872756
-0.0707075
0.0684249
0.0900977
-0.05647
0.0572447
-0.0846398
-0.0558732
-0.0927125
-0.0570196
0.0562717
-0.06812
-0.0766105
-0.0669531
0.0687261
0.0726141
0.0646501
-0.0628509
0.0630627
0.0683109
-0.0708392
0.0735065
0.0760544
0.0744222
-0.0756042
0.07744
0.075655
0.075737
-0.0789672
0.0802006
0.0746981
0.0747427
-0.0811606
0.081938
0.0745332
0.0741572
-0.082546
0.0828962
0.0745117
0.0742296
-0.0832679
0.0851175
0.0729346
0.0736497
-0.0837352
0.08399
0.0678358
0.0706076
-0.0860996
0.0849145
0.0571006
0.0628706
-0.0850522
0.08553
0.0395862
0.0488633
-0.08604
0.0865932
0.016644
0.0284314
-0.087144
0.0876969
-0.00823002
0.00415337
-0.0881956
0.088618
-0.0310175
-0.0199774
-0.0889386
0.089152
-0.0488394
-0.0403819
-0.089253
0.0892562
-0.0606607
-0.0551091
-0.0891783
0.0890355
-0.0668586
-0.0639333
-0.0885938
0.0876975
-0.0687813
-0.0680802
-0.0711136
0.0714718
0.0863924
-0.0696828
0.0858448
-0.0862297
0.0854538
-0.0699316
-0.0687533
0.0863882
-0.084242
0.0671909
0.0877367
0.0670764
-0.0692628
0.0703283
0.0890322
0.090297
0.0817478
-0.0780502
0.0614134
0.0665348
0.0744432
-0.0721739
0.0573227
0.0605566
0.0699604
-0.0677904
0.0478864
0.0527074
0.0657817
-0.0639716
0.0332852
0.0408236
0.0624641
-0.0613153
0.0141699
0.0239645
0.0606145
-0.0604295
-0.00733436
0.00348167
0.0607399
-0.0616093
-0.0281755
-0.0179444
0.0629225
-0.0646436
-0.0452803
-0.0370669
0.0666953
-0.0696493
-0.0570426
-0.0514266
0.0722855
-0.0736715
-0.0642659
-0.0606886
0.0767901
-0.0779383
-0.0682443
-0.0660735
0.079948
-0.08184
-0.0704285
-0.0690042
0.0835637
-0.0851442
-0.0726591
-0.0709657
0.0865879
-0.08794
-0.0760202
-0.0737711
0.089226
-0.0904942
-0.0791899
-0.0773429
0.0917618
-0.0931118
-0.0790676
-0.0793433
0.0945203
-0.0964203
-0.0720642
-0.0761859
0.0975714
-0.0982908
-0.0551538
-0.0649753
-0.0613739
0.0547947
-0.0450049
0.0441092
-0.0918168
-0.0990258
-0.0442699
0.0431474
-0.0836779
-0.0693512
0.0851222
0.0890153
0.0690497
0.0467507
-0.0455137
-0.069357
0.0458258
-0.060449
-0.0319612
0.0306535
-0.0905091
-0.0320852
-0.0989019
-0.0789769
0.0873599
-0.0893357
-0.0679557
0.0853334
-0.0673247
0.0708831
-0.0700751
0.0882243
0.0679675
0.0919308
-0.0541875
0.056228
0.0437853
0.0336903
-0.0337206
-0.0604187
0.0539577
-0.0234243
0.0252033
-0.0557367
0.0334605
-0.058222
0.0606605
0.0606242
0.0528007
-0.062973
0.065987
0.0696001
0.0659985
-0.0687074
0.0715683
0.0731935
0.0717018
-0.0741488
0.076432
0.0733718
0.0731565
-0.0783983
0.0800947
0.0730017
0.0727764
-0.0815282
0.0827712
0.0732903
0.0727237
-0.0838427
0.0847803
0.0735741
0.073158
-0.0856433
0.0864218
0.0721561
0.0727867
-0.0872462
0.0880574
0.0670245
0.0697832
-0.0888602
0.0897316
0.0562292
0.0620678
-0.0905984
0.0914419
0.0387428
0.0479964
-0.0922039
0.0928779
0.01597
0.0276694
-0.0934259
0.0938566
-0.00866065
0.00360537
-0.0941513
0.0942991
-0.0311652
-0.0202721
-0.0942784
0.0940799
-0.0486409
-0.0403612
-0.093717
0.0932179
-0.0601616
-0.0547463
-0.0926271
0.0919699
-0.0662015
-0.0633425
-0.0912327
0.0897362
-0.0672848
-0.0673429
-0.0683528
-0.0694634
0.0682655
0.0875903
0.0693777
-0.0695509
0.0852954
0.0857591
0.0884874
0.0849796
-0.0819684
0.0641798
-0.0874044
0.0899584
0.0664957
0.0646516
0.0775804
-0.0760442
0.0598771
0.0621468
0.0727008
-0.0701507
0.0547725
0.0572132
0.0676735
-0.0652636
0.0454765
0.0502302
0.0630636
-0.061108
0.0313296
0.0386237
0.0595219
-0.0583608
0.0130087
0.0223784
0.0577079
-0.0576405
-0.00740179
0.00282876
0.0581284
-0.0591747
-0.0271293
-0.0174564
0.0607703
-0.0628172
-0.0432334
-0.0354713
0.0651844
-0.0677287
-0.0544983
-0.0490594
0.0703364
-0.0729818
-0.0616205
-0.0580809
0.0754896
-0.0779444
-0.0657894
-0.0635657
0.0802943
-0.0825463
-0.0681764
-0.0666544
0.0846617
-0.0866652
-0.0706556
-0.0688503
0.0885605
-0.0904303
-0.0741503
-0.0718758
0.092288
-0.0941884
-0.0772895
-0.0754852
0.0961334
-0.0981719
-0.0770292
-0.0773984
0.100265
-0.102416
-0.0699127
-0.074093
0.104404
-0.104846
-0.0547116
-0.0629878
0.105732
-0.107389
-0.0304285
-0.0433837
-0.0170742
0.0176368
-0.0994645
-0.107366
-0.0170972
-0.0325256
-0.070552
0.0324033
-0.0854277
-0.0676513
0.0834338
0.091979
0.0659468
-0.0187094
-0.0651335
0.0191945
-0.0920668
0.00572905
-0.0481772
0.0671269
0.00194788
-0.00257839
-0.106735
0.000981591
-0.0984982
-0.0332931
0.0508989
0.00699583
-0.0220243
-0.0118439
-0.0790992
-0.0479451
0.0501097
0.0230387
0.014344
-0.0113903
-0.0509095
0.0526347
0.0420602
0.0326607
-0.0546246
0.0573697
0.0578791
0.0508107
-0.0607145
0.0638035
0.0665111
0.0626536
-0.0670756
0.0702754
0.0699937
0.0684296
-0.0732123
0.0758684
0.0707157
0.0702195
-0.0782035
0.0802826
0.0709226
0.0704414
-0.0821215
0.0837898
0.071622
0.0708847
-0.0853293
0.0867778
0.0721256
0.0716185
-0.0881575
0.0895241
0.0707895
0.071407
-0.0908768
0.0922326
0.0656688
0.0684305
-0.0935906
0.0949426
0.0548772
0.0607098
-0.0962051
0.0973635
0.0375844
0.0467338
-0.0983583
0.0991276
0.0152007
0.0266746
-0.0996778
0.100008
-0.00899124
0.00305516
-0.100103
0.0999489
-0.0310116
-0.0203663
-0.0995437
0.0988955
-0.0479927
-0.039956
-0.0980506
0.0970513
-0.0591623
-0.0539014
-0.0959658
0.0948235
-0.0650592
-0.062257
-0.0933125
0.0927597
-0.0667321
-0.0658319
-0.0908089
0.0887012
-0.0658479
-0.066402
-0.0872582
0.0839576
-0.0643508
-0.0658818
-0.0673809
0.0683586
0.0843177
0.0683515
-0.0674365
0.0830426
0.0844044
-0.06822
0.0692843
0.086526
0.0858978
-0.0694927
0.0682973
0.0894197
0.088279
-0.0682561
0.0664553
0.0937799
0.0919721
0.0898181
-0.0867923
0.06347
-0.0944327
0.0919152
0.0689727
0.0613322
0.0836724
-0.0808363
0.0613437
0.0615317
0.0767791
-0.0741178
0.0572158
0.0580896
0.0714052
-0.0686527
0.05202
0.0545006
0.0659743
-0.0633884
0.0428906
0.0475519
0.0610548
-0.0590068
0.0292816
0.0362901
0.0573873
-0.0562443
0.0118657
0.020759
0.0556781
-0.0556763
-0.00740359
0.0022626
0.0563526
-0.057615
-0.0258669
-0.0167802
0.059433
-0.0617144
-0.040952
-0.0336533
0.0642784
-0.0670577
-0.0517191
-0.0464954
0.0698811
-0.0727066
-0.058795
-0.0552574
0.0754591
-0.0781834
-0.0630651
-0.0608132
0.0808286
-0.0834024
-0.0656025
-0.0640092
0.0858608
-0.0882507
-0.0682657
-0.0663919
0.0905823
-0.0929411
-0.0717915
-0.0695443
0.0953443
-0.097847
-0.0747867
-0.0730821
0.10044
-0.103157
-0.0743124
-0.0748055
0.105945
-0.108761
-0.0670974
-0.0713043
0.111447
-0.113882
-0.0522768
-0.0603015
0.115143
-0.114746
-0.0308253
-0.0421223
0.115992
-0.11584
-0.00273104
-0.0158514
0.0131516
-0.0134481
-0.106439
-0.114689
0.0120009
-0.0184788
-0.0707826
0.0191564
-0.0853897
-0.00141542
-0.0579891
0.00408027
-0.0951655
0.0876696
-0.0889164
-0.0631039
0.0839774
-0.0637444
0.0682326
-0.0684124
0.0939597
0.064231
0.0959169
0.013286
-0.0470406
-0.0116705
-0.100276
-0.00456494
-0.0428335
-0.0362052
0.0420858
0.00111521
0.029302
-0.0285167
-0.107224
0.0272307
-0.112618
-0.0313807
-0.0166684
-0.0784216
-0.0442986
0.0458923
0.021445
0.0121313
-0.0475339
0.049234
0.0403601
0.0310191
-0.0520309
0.0553126
0.0545975
0.0480138
-0.0588071
0.06245
0.0628683
0.0591591
-0.0660335
0.0695032
0.066524
0.0648461
-0.0727276
0.0756866
0.0677567
0.0669951
-0.07834
0.0807505
0.0685122
0.0677879
-0.0829502
0.0850107
0.0695615
0.068685
-0.086977
0.0888978
0.0702048
0.0696521
-0.0907746
0.0926624
0.0689017
0.0695303
-0.0945392
0.0964153
0.0637926
0.0665538
-0.098264
0.100059
0.0530827
0.058861
-0.101692
0.103137
0.0361388
0.0451005
-0.104322
0.105197
0.0143258
0.0254903
-0.105728
0.105944
-0.00920722
0.00252357
-0.105817
0.105353
-0.0305473
-0.0202393
-0.104578
0.103513
-0.0469284
-0.0391807
-0.102228
0.100769
-0.0577033
-0.0526163
-0.0992209
0.097609
-0.0634473
-0.0607086
-0.0959975
0.0943985
-0.0651331
-0.0642205
-0.0924186
0.0906172
-0.0640466
-0.0644221
-0.064181
-0.0674517
0.0669447
0.0848247
0.066258
-0.0662245
0.0830091
0.0832107
-0.0675004
0.0675128
0.0865135
0.0853421
-0.0686008
0.0694591
0.0885613
0.087191
0.0930188
0.0892504
-0.086094
0.0603135
-0.0897967
0.0956405
0.063129
0.0607858
0.083133
-0.0789505
0.0571612
0.0585707
0.0762581
-0.07345
0.0544077
0.0553972
0.0705746
-0.0676797
0.0491251
0.0516252
0.0648646
-0.062178
0.040204
0.0447368
0.059769
-0.0576852
0.0271978
0.0338811
0.0560697
-0.0549707
0.0107666
0.0191435
0.0544823
-0.054618
-0.00726782
0.00177423
0.0554249
-0.056862
-0.0244298
-0.0159733
0.0588299
-0.0612722
-0.0385097
-0.0316854
0.0639859
-0.0669001
-0.0488049
-0.0437818
0.0698533
-0.0728239
-0.0558244
-0.0523042
0.0757565
-0.0786803
-0.0601413
-0.0578806
0.0815453
-0.0843726
-0.0627753
-0.0611442
0.0871126
-0.0898235
-0.0655549
-0.0636518
0.0925226
-0.0952977
-0.0690164
-0.0668452
0.0981512
-0.10114
-0.0717976
-0.0702285
0.104238
-0.107475
-0.0710759
-0.0717074
0.110782
-0.114127
-0.0637526
-0.0679968
0.117352
-0.120302
-0.0493264
-0.0570771
0.122823
-0.124888
-0.0287606
-0.039601
0.124273
-0.123444
-0.00356036
-0.0164662
0.121349
-0.118854
0.024736
0.00990582
0.0425864
-0.0417823
-0.113422
-0.115595
0.0393273
-0.00368611
-0.0685119
0.00452973
-0.0858391
-0.0638801
0.081633
0.0968568
0.0630146
0.0125772
-0.0572804
0.0154656
-0.0577842
0.0220916
-0.0536666
-0.011273
-0.095563
-0.0264258
-0.102367
-0.0441687
-0.0300454
0.0370801
-0.035444
-0.0458049
0.0285174
-0.0492215
-0.0421477
-0.106859
0.0521975
-0.0560058
-0.109613
0.0517893
-0.115187
-0.077578
-0.0377783
0.0397095
-0.000815952
0.0402455
-0.0453459
-0.024945
-0.0142013
-0.0413317
0.0426805
0.0200962
0.0105091
-0.0447915
0.0475624
0.0375892
0.0289081
-0.0507672
0.0543255
0.0510391
0.0448091
-0.0580478
0.0618544
0.0590617
0.0554367
-0.0655934
0.0692181
0.0628994
0.0611071
-0.0726242
0.0758062
0.0645747
0.063589
-0.0787278
0.0814418
0.0657982
0.0648663
-0.083981
0.0864143
0.0671282
0.0661458
-0.0887761
0.0911235
0.0678574
0.0672903
-0.0934479
0.0957973
0.0665523
0.0672059
-0.098139
0.100487
0.0614445
0.0642121
-0.102753
0.10492
0.0509164
0.056595
-0.106898
0.108577
0.0344597
0.0431219
-0.109925
0.110901
0.0133495
0.0241427
-0.111387
0.111486
-0.00930689
0.00203824
-0.111148
0.110393
-0.0297926
-0.0199009
-0.109266
0.1078
-0.0454627
-0.0380533
-0.10609
0.104195
-0.055808
-0.0509067
-0.10222
0.100195
-0.0614228
-0.0587334
-0.0981872
0.0961802
-0.063126
-0.0622124
-0.0942195
0.0925576
-0.0623846
-0.0624615
-0.0899104
0.0875415
-0.0607351
-0.0615338
-0.0842589
0.0815122
-0.0611334
-0.0604617
-0.0643977
0.0658498
0.081557
0.0649909
-0.061361
0.0778823
0.0822263
-0.0664507
0.0672852
0.0839903
0.0826098
-0.067827
0.0679622
0.0863783
0.0848003
-0.0676814
0.0669525
0.0892902
0.0874718
-0.0676885
0.0670025
0.0946457
0.0922828
-0.0652542
0.0629672
0.0991439
0.0976652
0.0953417
-0.0915593
0.0593465
-0.0980154
0.0991344
0.0618482
0.0603409
0.0883613
-0.0854346
0.0573868
0.0575878
0.0815883
-0.0788668
0.0544398
0.0547245
0.0760623
-0.0731403
0.0514857
0.0525926
0.0701772
-0.067206
0.0461539
0.0486621
0.0643282
-0.0616101
0.037486
0.041859
0.0591847
-0.0571193
0.0251324
0.0314557
0.055544
-0.0545155
0.00973809
0.0175682
0.0541171
-0.0543767
-0.00700824
0.00137588
0.0552845
-0.056844
-0.0228702
-0.0150656
0.0589184
-0.0614344
-0.0359937
-0.029611
0.0642088
-0.0671642
-0.0458495
-0.0410074
0.0701665
-0.0732172
-0.0527737
-0.0493018
0.0762671
-0.079348
-0.0570604
-0.0548308
0.0823945
-0.0854243
-0.0597455
-0.0580977
0.088395
-0.0913804
-0.0625694
-0.0606811
0.0943981
-0.0975386
-0.0658759
-0.0638276
0.100794
-0.104218
-0.0683738
-0.066973
0.107771
-0.11147
-0.0673773
-0.068154
0.115217
-0.118964
-0.0600058
-0.0642498
0.122552
-0.125867
-0.046011
-0.0534891
0.128702
-0.130912
-0.0265514
-0.0367655
0.132425
-0.133355
-0.00263025
-0.0149526
0.133446
-0.130899
0.0221892
0.00999627
0.127291
-0.121017
0.0455153
0.0357195
0.0583846
-0.061921
-0.11165
-0.117611
0.0549783
0.0110984
-0.067033
-0.0466594
-0.0341305
0.0245705
-0.0597593
0.0824953
-0.0860912
-0.0575376
0.0795056
-0.0583713
0.0655889
-0.0658123
0.0993673
0.0628761
0.101847
-0.0107785
-0.0863336
-0.0261001
-0.0958887
0.0327178
-0.0578671
-0.0399739
-0.104541
-0.0513581
-0.111507
-0.0596038
-0.111931
0.0658453
-0.0666331
-0.110863
0.0602652
-0.112031
-0.077258
-0.0460022
0.0423472
-0.0212901
-0.0412397
0.0486154
-0.0540351
0.0500711
-0.0550637
-0.036247
-0.0300616
-0.0392722
0.0398169
-0.00136062
-0.0111263
-0.0409893
0.0423568
0.0187287
0.0093367
-0.0443297
0.0470898
0.0348291
0.0269352
-0.0504149
0.0541128
0.0473412
0.041484
-0.0579605
0.0618647
0.0551575
0.051589
-0.0656842
0.0693859
0.0591977
0.0572876
-0.0728922
0.0762159
0.061251
0.0600827
-0.0793342
0.0822998
0.0628325
0.0617479
-0.0851344
0.0879023
0.0643602
0.0633113
-0.0906197
0.0933443
0.0651328
0.064573
-0.096066
0.0988184
0.0637999
0.0644842
-0.101561
0.1043
0.0587055
0.0614694
-0.10692
0.109406
0.0484299
0.053975
-0.111641
0.11355
0.0325506
0.0408877
-0.115013
0.116014
0.0123482
0.0226795
-0.116532
0.116485
-0.00926012
0.0015207
-0.115936
0.114901
-0.0287568
-0.0193522
-0.113442
0.111614
-0.0436344
-0.0365947
-0.109535
0.107271
-0.0535441
-0.0488279
-0.104938
0.102561
-0.0590461
-0.0564003
-0.100214
0.0978797
-0.0607915
-0.0598653
-0.0955981
0.0933509
-0.0601374
-0.0601799
-0.0907531
0.0886704
-0.0586524
-0.058936
-0.0578825
-0.064351
0.0651974
0.0807106
0.060833
-0.0606573
0.0777066
0.0787083
-0.0665233
0.0675868
0.0829267
0.0812838
-0.068221
0.0684043
0.086195
0.0841661
-0.0681369
0.0674162
0.0900109
0.0877392
-0.0679712
0.0669831
0.0956338
0.0917278
0.098836
0.0952506
-0.0925481
0.056644
-0.0978834
0.101061
0.0586704
0.0577081
0.0884937
-0.0845446
0.0534377
0.0535335
0.0818507
-0.0790346
0.0516237
0.0520305
0.0761573
-0.0731756
0.048504
0.0497153
0.0701845
-0.0671955
0.0431649
0.045671
0.0643246
-0.0616323
0.0347937
0.0389881
0.0592471
-0.057244
0.0231293
0.0290705
0.0557415
-0.0548022
0.00879876
0.0160656
0.0544979
-0.0548534
-0.00665271
0.00107162
0.0558524
-0.0574708
-0.0212518
-0.0140666
0.0595822
-0.0621034
-0.0334725
-0.0274995
0.0648618
-0.0677932
-0.0429182
-0.038249
0.0707947
-0.0738797
-0.0496887
-0.0463003
0.0769966
-0.0801753
-0.0538817
-0.0517139
0.0833396
-0.0865056
-0.0565795
-0.0549334
0.089635
-0.0928158
-0.0593886
-0.0575516
0.0960651
-0.0994666
-0.0624744
-0.0605783
0.103
-0.10671
-0.0646637
-0.0634398
0.110546
-0.114525
-0.0633981
-0.0643181
0.118553
-0.122588
-0.0559706
-0.0602224
0.126468
-0.130075
-0.0424041
-0.0496086
0.133177
-0.135614
-0.024114
-0.0336637
0.137258
-0.138081
-0.00180684
-0.0133091
0.138026
-0.137072
0.0212353
0.00994051
0.132757
-0.127902
0.0406606
0.0314046
0.12296
-0.118832
0.0561371
0.0500359
-0.0488814
0.0405125
-0.0408526
-0.0460708
0.0668479
-0.0687738
-0.110105
-0.111564
0.0595801
0.0249043
-0.0673669
-0.057906
0.0767543
0.105114
0.0588233
0.0460395
-0.0586194
-0.0424839
-0.0255789
-0.0868548
0.0535312
-0.0615268
0.0362487
-0.0632901
-0.0398113
-0.0960513
0.0448508
-0.0622054
-0.0519003
-0.103998
-0.0609586
-0.110152
-0.0664661
-0.112097
-0.0703764
-0.10926
0.0674902
-0.0707888
-0.106806
0.063541
-0.107615
-0.0779326
-0.0561379
0.0511697
-0.0312788
-0.0493194
-0.0617454
0.0524455
0.0603783
-0.062356
-0.0473418
-0.0382434
-0.0471038
0.0441116
-0.0182979
-0.0259958
-0.0421292
0.0411338
-0.000365192
-0.00914386
-0.0418828
0.0433121
0.0172993
0.00858769
-0.0451919
0.0477968
0.0322242
0.0250554
-0.0509886
0.0546071
0.0437227
0.0382923
-0.0584289
0.0623368
0.0512495
0.0477673
-0.0661807
0.0699215
0.0554569
0.0534437
-0.0734888
0.0769053
0.0578346
0.0565154
-0.0801586
0.0833078
0.0596833
0.0584946
-0.0863674
0.0894001
0.0613275
0.0602517
-0.0924106
0.0954521
0.0620913
0.0615625
-0.0985096
0.101602
0.0607078
0.0614267
-0.104677
0.107726
0.0556563
0.0583944
-0.110648
0.113385
0.0456934
0.0510526
-0.115825
0.117912
0.0304636
0.0384473
-0.119467
0.120496
0.011319
0.0211248
-0.12095
0.120784
-0.00909331
0.00106622
-0.120043
0.11876
-0.0274736
-0.0186118
-0.117018
0.114885
-0.0415012
-0.0348528
-0.112498
0.109927
-0.0509735
-0.0464409
-0.107298
0.10463
-0.0563789
-0.0537704
-0.102004
0.0993997
-0.058187
-0.0572393
-0.0968642
0.0943475
-0.0576208
-0.0576443
-0.0918914
0.0894255
-0.0561865
-0.0564798
-0.0869088
0.083933
-0.0545618
-0.0553658
-0.0798069
0.0766733
-0.0547724
-0.0542452
-0.059361
0.061176
0.0758916
0.0582886
-0.0544559
0.0728406
0.0756819
-0.0628708
0.0650221
0.0785594
0.0770135
-0.0665663
0.0677023
0.0817907
0.0797396
-0.0683809
0.0685894
0.0859865
0.0834875
-0.0683202
0.0675924
0.0907388
0.0880084
-0.0664143
0.0663973
0.0956508
0.0929058
-0.0650473
0.0629407
0.101474
0.100186
-0.0599726
0.0581728
0.106914
0.104815
0.102156
-0.0984113
0.054926
-0.10551
0.108526
0.0551573
0.0554687
0.0950655
-0.0904407
0.0520192
0.0543623
0.0877676
-0.0850332
0.0507033
0.0508603
0.0822878
-0.0794152
0.048751
0.0492852
0.0765135
-0.0735238
0.0455143
0.0468136
0.0705544
-0.0676015
0.040212
0.0427016
0.0647928
-0.0621734
0.0321742
0.0361795
0.0598762
-0.0579691
0.0212222
0.0267733
0.0565666
-0.0557276
0.00795983
0.0146631
0.0555147
-0.055945
-0.00622237
0.000858671
0.0569956
-0.0586256
-0.0196218
-0.013016
0.0607139
-0.0631697
-0.0310167
-0.0254113
0.0658509
-0.0687082
-0.0400609
-0.0355677
0.0716585
-0.0747328
-0.0466144
-0.04335
0.077876
-0.0811063
-0.0506514
-0.0485707
0.0843382
-0.0875916
-0.0533261
-0.0517015
0.0908374
-0.094171
-0.0560551
-0.0543058
0.0976055
-0.101222
-0.0588577
-0.0571438
0.10499
-0.108944
-0.0607098
-0.0596721
0.113006
-0.117172
-0.0592322
-0.0602554
0.121334
-0.125463
-0.0518412
-0.0560607
0.129418
-0.133097
-0.0387254
-0.0456535
0.136285
-0.138832
-0.0215675
-0.0304755
0.140556
-0.141358
-0.00100492
-0.0115853
0.141172
-0.140096
0.0201592
0.00975456
0.138165
-0.135413
0.0379076
0.0294745
0.129888
-0.123661
0.0499108
0.0445109
0.117473
-0.109806
0.0558743
0.0533919
-0.0667083
0.0533673
-0.0275117
-0.0592479
0.0660342
-0.068871
-0.104778
-0.10598
0.0622082
0.0383044
-0.0694227
-0.0392351
-0.0874309
0.0533934
-0.0662697
-0.0494796
-0.0662244
0.0578723
0.0534065
-0.0624878
0.0470198
-0.065459
-0.0518737
-0.0960779
0.0781105
-0.0814768
-0.0514061
0.0741793
-0.0505247
0.0574165
-0.0594969
0.108994
0.0553492
0.110593
0.054727
-0.0635651
-0.0617259
-0.103231
-0.0681522
-0.108466
-0.0710119
-0.111462
-0.0707932
-0.109256
-0.0711722
-0.104505
-0.0519857
-0.069677
0.0553929
-0.0714115
0.0683904
-0.0489646
0.0537524
-0.0761148
-0.049049
0.0645674
-0.0985967
-0.0707485
0.0592634
-0.100676
-0.0742258
0.0583012
-0.0788633
-0.0623882
0.0564592
-0.0414128
-0.0434774
-0.0542208
0.0519288
-0.0289868
-0.036005
-0.0482766
0.045368
-0.0153893
-0.0223436
-0.044012
0.0434846
0.000162196
-0.00778785
-0.0438659
0.0450914
0.0160738
0.00820643
-0.0469468
0.0494025
0.0297685
0.0232
-0.0523808
0.055786
0.0403175
0.035314
-0.0594374
0.0632253
0.0474616
0.0441158
-0.0670029
0.0707238
0.0517361
0.0496661
-0.0743129
0.0777903
0.0543572
0.0529262
-0.0811413
0.0844262
0.0563985
0.0551436
-0.0876534
0.0908866
0.0580942
0.0570245
-0.0941239
0.097415
0.0588002
0.0583252
-0.100733
0.104091
0.05735
0.0581089
-0.107424
0.110714
0.0523664
0.0550613
-0.113865
0.116791
0.0427675
0.0479015
-0.119382
0.121555
0.0282905
0.0358562
-0.123193
0.124196
0.0103159
0.019487
-0.124576
0.124292
-0.00880894
0.000686004
-0.123383
0.121891
-0.0259808
-0.0177037
-0.119914
0.117535
-0.039122
-0.0328763
-0.114909
0.112109
-0.0481739
-0.0438149
-0.109263
0.106383
-0.0534991
-0.0509242
-0.10355
0.100738
-0.0553752
-0.0544056
-0.0980014
0.0952924
-0.0549118
-0.0549078
-0.0926444
0.0900028
-0.053545
-0.0538318
-0.0870075
0.0844574
-0.0520117
-0.0523704
-0.0512646
-0.0587037
0.0603728
0.0742225
0.0555451
-0.0543215
0.0716171
0.0725232
-0.0626165
0.0645847
0.0765912
0.0747698
-0.0661586
0.067306