/*--------------------------------*- C++ -*----------------------------------*\
  =========                 |
  \\      /  F ield         | OpenFOAM: The Open Source CFD Toolbox
   \\    /   O peration     | Website:  https://openfoam.org
    \\  /    A nd           | Version:  10
     \\/     M anipulation  |
\*---------------------------------------------------------------------------*/
FoamFile
{
    format      ascii;
    class       surfaceScalarField;
    location    "32";
    object      phi;
}
// * * * * * * * * * * * * * * * * * * * * * * * * * * * * * * * * * * * * * //

dimensions      [0 3 -1 0 0 0 0];

internalField   nonuniform List<scalar> 
57492
(
-0.0206128
0.000514458
0.0045142
0.0155841
0.00489475
-0.0157387
-0.00976881
-0.00344567
0.011529
0.0342806
-0.042364
0.0989378
0.0723604
-0.0163959
-0.154902
-0.209944
0.0849971
0.223885
0.0523461
-0.0513992
-0.026745
0.025798
-0.095932
0.0234702
-0.0141563
0.0866182
0.0170262
-0.060612
0.024688
-0.104693
0.09978
-0.0197752
0.022143
0.0958825
-0.0933375
0.0490101
0.0136107
-0.0315749
-0.0310459
-0.00289162
0.0301423
0.0217594
-0.0255061
0.0211438
0.00147068
0.0081845
-0.0200799
0.100407
-0.0858935
-0.0372923
0.0227784
0.00296552
0.0758094
0.0216324
0.000997596
0.0103877
0.0855619
-0.0969472
-0.0088834
0.0843383
-0.0744574
0.0193727
-0.0390314
0.0196587
-0.103745
0.0706362
0.0524818
-0.113267
0.0171775
0.083327
0.0127621
0.0164144
-0.115207
-0.014474
0.00271042
0.0145537
-9.63393e-05
-0.0171678
0.0162827
-0.0151328
0.00156062
-0.145635
0.168825
0.000593692
-0.0237833
-0.187317
0.0865811
-0.0448996
-0.0867192
0.0320098
0.043399
0.0113103
-0.0608039
-0.0294251
0.00350983
-0.0299706
-0.0803152
0.0994555
0.0108303
-0.0370663
0.0127494
-0.0056537
0.0583817
-0.0370083
-0.0354957
0.0141223
-0.0467614
0.0390958
0.0660473
-0.0708446
-0.12251
0.0722653
0.12109
-0.124182
-0.039363
0.0927003
-0.0532617
-0.0107347
0.0639964
-0.0163493
-0.0369124
-0.062112
0.0813596
-0.035597
0.0144875
-0.0376047
-0.0389947
-0.0496487
0.0731189
-0.0224249
-0.113241
0.0549619
0.0582788
-0.20462
0.0913794
0.125495
-0.0429471
0.0319415
-0.11449
0.092757
0.0214492
0.011289
-0.037535
0.116846
-0.122258
0.0952347
0.0150705
-0.093279
0.0931024
-0.0120241
0.103855
-0.0359916
-0.0761014
0.00823809
0.117347
0.00157825
0.0787206
-0.043619
0.0580008
0.0282909
0.137048
-0.0999756
-0.0152125
0.0147462
0.100442
-0.10329
-0.00851869
0.0118328
0.0161439
0.102157
-0.100529
-0.0177711
0.00834834
-0.0968972
-0.102831
0.130958
0.128171
-0.156299
-0.00757815
0.138175
-0.233427
0.001241
0.0135473
0.000621493
-0.0154098
0.0148227
0.00756209
-0.00550446
0.0087712
0.011556
0.00858372
-0.00054085
-0.00256491
0.0031864
-0.00281793
0.000253024
0.268728
0.0976897
-0.18398
-0.182438
0.0835483
-0.0617538
0.246934
-0.228507
0.0795036
0.232552
0.0431285
-0.173946
0.0331328
-0.0798291
0.0629397
-0.0162434
0.0680516
-0.0805298
0.0456109
0.00426686
-0.00427269
0.000520284
0.00739976
0.00138131
0.0194564
0.00352748
-0.0877478
0.160818
0.0779858
-0.151056
0.101458
-0.121154
0.0618281
0.155917
-0.0569266
0.33691
-0.0393494
-0.0902607
-0.2073
0.0784452
0.183533
0.0749322
0.0448386
-0.130974
0.16458
0.00703533
-0.010481
0.0185644
0.0596323
0.0946793
-0.0443985
-0.109913
0.0819813
0.0119316
0.00899818
-0.00322469
-0.00577348
0.0131515
-0.00415335
-0.178787
0.0802502
-0.063818
0.162355
-0.145138
-0.0954043
0.0617554
-0.079037
0.0846459
-0.150747
0.0991297
-0.00100959
-0.0481489
-0.0499712
-0.0443194
0.111116
0.0323329
-0.0553129
-0.00660638
0.0175999
-0.0481028
-0.00821969
-0.0181134
-0.0781383
0.123736
-0.00879489
-0.0509541
-0.0639869
0.0114982
0.0733031
0.0389346
-0.0747336
-0.00979703
0.0960288
-0.0684766
-0.0150518
-0.0999249
-0.0195058
-0.0517289
0.0336155
0.00500949
-0.0567384
0.00835137
0.00480015
0.117904
0.0764518
-0.00868806
0.0422484
-0.134288
-0.0153783
0.0956277
-0.0671858
-0.0130637
-0.0229099
0.100817
-0.0932854
0.0764486
0.0387714
-0.00714526
-0.108075
-0.0281038
0.0159158
0.0886366
0.0918242
-0.0811566
-0.0318855
-0.0707806
0.0192629
0.0834032
-0.0354595
0.0815357
-0.0779617
0.000920737
-0.107161
-0.0167571
-0.0113749
0.00280234
-0.00252514
0.00436605
0.00305384
0.0173646
-0.0120309
-0.00785876
-0.00827585
0.00990168
-0.014073
0.0163442
0.00478113
-0.00705232
0.0344176
-0.0217769
-0.0267138
-0.0141793
0.042825
0.00577189
-0.00714942
0.00931436
-0.15841
0.0802746
0.158386
0.161175
-0.0678287
-0.18875
-0.0793585
0.0821233
-0.00842515
-0.0620144
-0.00987571
-0.0459646
0.000473149
0.00449441
-0.0067642
-0.00116433
0.00343413
-0.0109297
0.0110605
0.00436361
-0.0262881
0.00859425
-0.0185842
-0.0320326
0.00465223
-0.049349
-0.0312496
-0.0488086
-0.0513128
0.0624071
0.0377143
0.00347762
0.0219628
-0.0742491
-0.068495
0.0206599
-0.146402
0.0548139
-0.0121574
-0.143942
0.0152458
-0.0177057
-0.00524979
-0.0859301
0.0791507
0.0120292
-0.000466334
-0.0891268
0.0843433
-0.00970086
-0.280849
-0.0809098
0.102197
0.0977028
-0.123799
0.0904768
-0.0198519
-0.00998328
0.000186244
-0.0102138
0.000230527
0.0277378
-0.00650558
0.137978
-0.0823904
-0.0487236
-0.00686434
0.114362
-0.0139189
0.161999
-0.00325891
-0.166319
0.045268
0.123396
-0.0066644
0.0141769
-0.0943644
0.125456
-0.00143197
-0.00878183
0.0285899
-0.101719
-0.100418
0.0685231
0.127239
0.0588532
-0.00321308
-0.0614533
0.00581323
0.0188423
-0.00675057
-0.0751951
0.0138287
0.100462
0.0103379
-0.0666907
-0.00725805
-0.00398393
-0.0467898
-0.00487777
0.0522128
-0.000545181
-0.00962595
0.0021591
-0.039323
-0.0514749
-0.0378284
0.0796773
-0.047951
0.0851856
-0.0288832
0.179898
-0.158746
-0.0691036
-0.0026453
-0.0942432
0.110717
-0.232555
-0.0165151
-0.176829
-0.0920775
0.0363508
0.083224
0.0580839
-0.12413
0.0405717
0.120108
-0.0774555
0.0396698
-0.0809579
0.0497544
-0.00846638
0.0436986
-0.0784559
0.0744271
0.111587
0.0298236
0.108357
-0.00265925
-0.107907
0.00220905
0.119853
-0.0117832
0.000287027
0.125608
-0.0137222
-0.00533215
-0.106554
0.0900916
-0.0245152
0.0600316
0.0992119
-0.0229251
0.0174305
-0.0937173
0.0199483
0.100722
-0.0214587
-0.090832
-0.0289791
0.0968861
0.0154008
-0.08697
-0.029736
0.08416
-0.0390334
-0.0771462
0.0338584
0.0823212
-0.0408176
-0.0787854
0.0805696
0.037327
0.0746168
-0.0202751
-0.0916687
0.0739717
-0.0774623
-0.0435043
0.0438102
0.0736658
-0.0341708
0.0652832
-0.0965848
0.0849648
-0.00865513
-0.124613
0.00463354
0.123913
-0.0039335
0.0275465
-0.0582492
-0.0348629
0.0299902
0.0631219
-0.0426829
-0.0279864
0.0124201
0.0156773
-0.0393442
0.0153911
-0.0668635
-0.0967476
0.0583605
-0.0134446
0.0156037
-0.00158373
-0.0118609
-0.0132965
-0.113763
0.0834403
-0.0945431
-0.0116616
0.0929083
0.00843961
-0.0987446
-0.0042381
0.0431929
0.0539175
-0.0393608
-0.0577496
0.0202976
0.0823189
-0.0594235
0.0843347
-0.0101195
0.00277441
0.00284795
-0.0169973
0.00582978
-0.00305537
0.00867772
0.00161396
-0.0014656
0.00843536
-0.00117995
0.0027939
-0.00264555
0.00668896
-0.000729072
0.0103228
-0.00569917
0.0123881
-0.00642824
0.00569242
-0.000441537
-0.0124003
-0.00219782
0.00789024
-0.00263936
0.0355666
0.0745344
-0.0941853
0.0260073
-0.0966665
0.106226
0.109335
-0.00879285
-0.0332627
-0.0647587
0.032919
0.0651024
-0.0167904
0.0695125
-0.0859848
0.0055676
-0.0871167
0.0825823
-0.0832982
-0.0367684
0.0374844
0.0830779
-0.0469778
0.0464822
-0.025039
-0.0830243
0.0247651
0.0839714
-0.0570999
0.0562065
0.0854277
-0.0630109
0.0615546
-0.0691087
0.0876199
0.0669164
0.0926968
-0.092665
-0.0691405
-0.0773632
0.0911228
0.0738603
0.0907518
-0.0754182
-0.0904252
-0.0652507
-0.0906473
-0.0568779
-0.0907752
-0.0468499
-0.0928265
-0.0347172
-0.091255
-0.0266104
-0.0801104
0.0954571
0.0757761
0.0868
-0.0761586
-0.0117192
-0.0824836
0.0111785
-0.0922447
-0.0107295
0.00156814
-0.0876071
0.00355535
-0.0772847
0.0953429
0.0773988
0.0861546
-0.0766393
-0.0961182
0.00544167
0.0959199
-0.0777288
0.0771518
-0.077018
0.0956411
0.0772968
0.0858351
-0.0774093
0.0849901
-0.076173
0.0147802
-0.0875456
-0.0148417
-0.097096
0.0157579
-0.0763786
0.0959274
0.0760923
0.0844567
-0.0758452
0.0281994
-0.0882798
-0.0274652
-0.0972779
0.0283814
-0.075182
0.0952707
0.0758387
0.0833437
-0.0740689
0.0398765
-0.0892514
-0.0389049
-0.0976963
0.0402949
-0.0744847
0.0951772
0.0745782
0.0825241
-0.0736651
0.050125
-0.0901966
-0.0491798
-0.0978015
0.0502302
-0.0734054
0.0941567
0.074426
0.0811195
-0.0720008
0.0584322
-0.0913877
-0.0572411
-0.0983319
0.0589626
-0.0728142
0.093769
0.0732018
0.0800013
-0.0716959
0.0650146
-0.0924651
-0.0639372
-0.0982419
0.0649247
-0.0717066
0.0925297
0.0729459
0.0782272
-0.0699326
0.0699842
-0.0908825
-0.0715668
-0.0968622
0.0686045
-0.0708782
0.0921102
0.0712977
0.0771109
-0.0697619
0.073145
-0.0928535
-0.071174
-0.0957498
0.0720326
-0.0692081
0.0911066
0.0702118
0.0753311
-0.0674283
0.0753478
-0.0896004
-0.0786009
-0.0927862
0.0723842
-0.0642449
0.0881179
0.0672336
0.0759655
-0.0648792
0.076185
-0.0896913
-0.0760941
-0.0913473
0.0747461
-0.0615985
0.0794903
0.0702261
0.0759171
-0.0615501
0.0774905
-0.0780012
-0.0891805
-0.0901438
0.076287
-0.0597983
0.0621454
0.0771432
0.0739058
-0.057787
-0.0870164
0.0864831
-0.0755607
-0.0898973
-0.0751203
0.0789352
-0.0780945
-0.0900213
0.0764481
-0.0876566
-0.0817585
0.0816414
-0.0710569
-0.0738763
-0.0764749
0.075063
-0.0625253
-0.0664004
-0.0738376
0.0727747
-0.0481169
-0.0560157
-0.0719768
0.071395
-0.0268833
-0.0381071
-0.0711055
0.07611
-0.00144911
-0.0145522
-0.0758833
0.0749654
0.025683
0.0114052
-0.0782007
0.0782048
0.0464781
0.034249
-0.0774048
0.0777086
0.0612508
0.0570064
-0.0766351
0.0778289
0.0726665
0.0679899
-0.0788522
0.0797022
0.0765488
0.0747529
-0.0804174
0.080972
0.0767422
0.0764367
-0.0813355
0.0815024
0.0756717
0.0757288
-0.0814907
0.081309
0.0746077
0.0745899
-0.0809915
0.080551
0.0733864
0.0735194
-0.0800397
0.0794734
0.0707782
0.0718089
-0.0774102
0.0801969
0.0674394
0.0692967
0.0804459
0.0618964
-0.0539674
0.0551436
0.075967
-0.0525695
0.0725078
0.0729612
-0.0744983
-0.0633421
-0.0718472
0.0702274
-0.0561672
-0.0604361
0.0764098
-0.0786766
-0.0674951
-0.0655168
0.0803964
-0.0820602
-0.0700321
-0.0682127
0.0836144
-0.0850862
-0.0721933
-0.0704467
0.0864473
-0.0877347
-0.0745578
-0.0727078
0.0889479
-0.0901132
-0.076244
-0.0749597
0.0912139
-0.0922863
-0.0750862
-0.0755386
0.0955305
-0.095781
-0.0688899
-0.072174
0.0980667
-0.0974753
-0.0574693
-0.0629649
0.0975015
-0.0974189
-0.0347998
-0.0468236
0.0988204
-0.0996805
-0.00986943
-0.0252088
0.0966912
-0.096624
0.0156907
0.00245239
0.096382
-0.0960301
0.039943
0.0281394
0.0955461
-0.0950177
0.0584342
0.0497462
0.0944961
-0.0950203
0.0691288
0.064403
0.0941689
-0.0944704
0.0726857
0.0711811
0.0920613
-0.0903154
0.0745411
0.072337
-0.087371
0.0735038
-0.0927935
-0.0751983
0.079893
0.0556966
-0.0504974
0.0681552
0.0767978
-0.076602
-0.0878524
0.0748202
-0.0853934
0.0762344
-0.074341
-0.0946869
-0.0903888
-0.0838011
0.079947
-0.0717067
0.0875976
-0.0907172
-0.0720787
-0.0713238
-0.0763429
0.0739385
-0.0686526
-0.0702722
-0.0719095
0.0698295
-0.0604453
-0.0643713
-0.0680066
0.0664733
-0.0465835
-0.0541929
-0.0652835
0.0644738
-0.0260736
-0.0369174
-0.0640073
0.0640981
-0.00153994
-0.0140857
-0.0644686
0.0666328
0.0235188
0.0110347
-0.0661944
0.0675132
0.0451593
0.0346874
-0.0706812
0.0706549
0.0612772
0.0538384
-0.0721896
0.0738974
0.0709587
0.0664552
-0.0754979
0.076965
0.0750816
0.0731524
-0.0782444
0.0793251
0.0756615
0.0751573
-0.0801813
0.0808288
0.0750243
0.0748726
-0.0812817
0.0815747
0.0743147
0.074137
-0.0817293
0.0817891
0.0733266
0.0733647
-0.0817714
0.0817428
0.0708069
0.0718266
-0.0819219
0.0837453
0.0656161
0.0691175
0.0447939
-0.044989
0.0761622
0.0439563
0.0807306
-0.0841148
0.0857196
0.0540919
0.0615268
0.0670601
-0.069143
-0.0540843
0.0648205
-0.0482577
0.0430983
-0.0422828
0.0673397
0.0706172
0.0716276
-0.0741631
-0.0608066
-0.0579515
0.0764442
-0.078614
-0.0653253
-0.0632357
0.0806838
-0.0827039
-0.0680121
-0.0661429
0.0846262
-0.0864932
-0.0703263
-0.0685243
0.0882758
-0.090025
-0.0728087
-0.0709252
0.0917428
-0.0934903
-0.0744966
-0.0732419
0.0952428
-0.0970038
-0.0733252
-0.0737861
0.0986888
-0.100213
-0.0673661
-0.070489
0.101556
-0.103998
-0.0550278
-0.0616212
0.105035
-0.104287
-0.0355473
-0.0457866
0.105996
-0.10506
-0.0108061
-0.0234999
0.105046
-0.104788
0.0154328
0.00243828
0.104299
-0.103581
0.0392256
0.0276501
0.102649
-0.101536
0.0573209
0.0488143
0.100327
-0.0990229
0.0678249
0.0631937
0.0977389
-0.0964161
0.071363
0.069897
0.0951208
-0.0914489
0.0708692
0.0710417
0.0894201
-0.0860306
0.0714307
0.0714749
-0.0936224
-0.0714358
0.0741182
-0.0759806
-0.0835309
-0.0836078
0.0716954
-0.0768184
-0.0870147
0.0449122
0.0847636
0.0642317
-0.0416941
-0.0723257
0.0725912
-0.0949525
-0.0707368
-0.0952113
0.0720974
-0.0755895
-0.0800389
0.0704856
-0.081996
-0.094616
0.0902428
-0.0885354
0.0523845
0.0897426
0.0454124
-0.0323434
0.0330011
0.066682
-0.0319079
0.0637963
-0.0929574
0.0917977
-0.0695771
-0.0731395
0.0733129
-0.0953847
0.0992209
0.0719543
-0.0530258
-0.118149
-0.066876
-0.0894158
0.0860913
-0.0687542
-0.0690539
-0.0824919
0.0778651
-0.0670799
-0.0677244
-0.0744797
0.0704832
-0.0646561
-0.0668868
-0.0678502
0.0653044
-0.0578994
-0.0617383
-0.0630002
0.0610355
-0.0446188
-0.0518887
-0.0595062
0.0584618
-0.0250292
-0.0353881
-0.0579128
0.0578769
-0.00150401
-0.0135367
-0.0583305
0.0593298
0.0225195
0.010581
-0.0605906
0.0622141
0.0435358
0.0334267
-0.0642015
0.0662392
0.0592395
0.051851
-0.0683528
0.0705384
0.0687731
0.0643416
-0.0726543
0.0746472
0.0730887
0.0710365
-0.0764342
0.0780023
0.0740935
0.0733702
-0.0793249
0.080435
0.0739142
0.0735499
-0.0813438
0.0821033
0.0735552
0.0732282
-0.0827297
0.0832762
0.0727801
0.0727383
-0.0837651
0.084274
0.070298
0.0713377
-0.0852998
0.0868024
0.0641134
0.0680917
0.0597939
0.0341311
-0.0330983
0.0751293
-0.034783
0.0341675
0.0853791
0.0800787
0.0705199
0.0660883
-0.0686929
-0.0514797
-0.0639209
0.061727
-0.0395001
-0.0460903
0.0712901
-0.0734862
-0.0586105
-0.0553543
0.0762897
-0.0787386
-0.0628764
-0.0604323
0.0811086
-0.0834458
-0.0656748
-0.0637729
0.0857171
-0.0879637
-0.0680798
-0.066253
0.0901583
-0.092364
-0.0706029
-0.0687306
0.0945678
-0.0968345
-0.0722299
-0.0710381
0.0991307
-0.101471
-0.0709848
-0.0714899
0.103749
-0.105913
-0.0652016
-0.0682111
0.107869
-0.109578
-0.0533191
-0.0596654
0.110944
-0.111986
-0.0345056
-0.0444201
0.112721
-0.113043
-0.0104836
-0.0227651
0.11304
-0.112623
0.0150159
0.00243497
0.111855
-0.110755
0.0381259
0.0268816
0.109378
-0.107732
0.0556745
0.0474376
0.105906
-0.103982
0.0659007
0.0613685
0.102036
-0.100123
0.0694492
0.0679512
0.0983096
-0.0965621
0.0691217
0.0692285
0.0929788
-0.0887405
0.0671924
0.0678916
0.0850593
-0.0823481
0.0677743
0.0680142
0.0696423
-0.071819
-0.0798192
-0.0800808
0.067375
0.0734978
-0.0951375
-0.0733179
-0.0892863
0.0343872
0.0895229
0.0612888
-0.0314698
0.0741887
-0.0976191
-0.0689838
-0.0828741
0.0927295
-0.071666
0.0632711
-0.0694852
0.0672329
-0.0778285
-0.0720932
-0.0772112
-0.0581262
0.093308
-0.0453014
-0.0281482
-0.0693389
-0.094436
-0.0913865
0.0958557
-0.057495
-0.0529567
0.0548782
-0.0919236
0.0881464
-0.0657998
-0.0629439
-0.0851451
0.0811188
-0.0647279
-0.0660526
-0.0777455
0.0747939
-0.0641283
-0.0643512
-0.0708074
0.0677077
-0.0615565
-0.0629002
-0.0646003
0.0616168
-0.0549159
-0.0586309
-0.0589139
0.0565813
-0.0422861
-0.0491858
-0.0547596
0.0534987
-0.0237683
-0.0335664
-0.0528179
0.0527442
-0.00143026
-0.012856
-0.053263
0.0543457
0.0214369
0.0100622
-0.0558827
0.0578256
0.0415929
0.0318897
-0.0600941
0.0625793
0.0567542
0.0495825
-0.0651572
0.0677871
0.0661433
0.0617637
-0.0703513
0.0727932
0.0706469
0.0684723
-0.0750171
0.0770185
0.0720921
0.0711463
-0.0787641
0.0803016
0.0723767
0.0718043
-0.0816408
0.0828404
0.0723556
0.071889
-0.0839201
0.0849449
0.0717553
0.0716585
-0.0859396
0.0869738
0.0692638
0.070343
-0.088966
0.0903722
0.0627072
0.0660996
-0.0915969
0.0931059
0.0508755
0.0585692
-0.0945348
0.0958472
0.0330748
0.0439835
0.022951
-0.022526
0.0849542
-0.0227178
0.0218665
0.0966985
0.0897561
0.0227977
-0.0220077
0.0743394
0.0803503
0.0220815
-0.0222151
0.0668156
0.0705937
0.0225278
-0.0229217
0.0616827
0.0641089
0.0615807
-0.0632613
-0.0378195
-0.0610932
0.0597103
-0.0215387
-0.0309823
0.0655536
-0.0680177
-0.0490156
-0.0437981
0.0709962
-0.0736835
-0.0559231
-0.0523758
0.0764063
-0.0791058
-0.0601769
-0.0577095
0.0817299
-0.084332
-0.0630727
-0.0611488
0.0868805
-0.0894352
-0.0655251
-0.0637046
0.0919677
-0.09456
-0.0680106
-0.0661981
0.097198
-0.0999453
-0.0694827
-0.0684001
0.102745
-0.105604
-0.0681257
-0.0686905
0.108411
-0.111129
-0.0624841
-0.0654035
0.113612
-0.115808
-0.0511229
-0.0571826
0.117617
-0.119028
-0.0330951
-0.0426107
0.119954
-0.120395
-0.0100432
-0.0218388
0.120364
-0.119826
0.0144777
0.00240418
0.118814
-0.117353
0.0366648
0.0258702
0.115547
-0.113401
0.053528
0.0456317
0.111043
-0.108568
0.0634266
0.0590103
0.106091
-0.103657
0.0670153
0.0654736
0.10132
-0.0990658
0.0668675
0.0668917
0.0968836
-0.0947082
0.065017
0.0657094
0.0903632
-0.0857685
0.0631797
0.0636691
0.0825965
-0.0799321
0.0645686
0.064203
0.0672761
-0.0694309
-0.0756736
-0.0773781
0.0647221
0.0738038
-0.0947526
-0.0710125
-0.0872577
0.0787615
-0.0836511
-0.0691714
-0.0857959
0.0997002
-0.0991521
0.0325267
0.100696
0.0208706
-0.0119756
0.0116643
0.0619941
-0.0126065
0.0603412
0.0809733
-0.0703204
-0.0681492
-0.078493
0.0221483
-0.108046
-0.0680083
0.0834318
-0.0607248
0.0691667
-0.0693966
-0.0754437
0.0650547
-0.0732661
-0.0584722
-0.0788749
-0.0916446
-0.0885038
0.0888046
-0.0577958
-0.0580287
-0.0882928
0.0847552
-0.0622622
-0.0624322
-0.080675
0.0780813
-0.0621342
-0.0619724
-0.0752707
0.0722436
-0.0611012
-0.0615406
-0.0690116
0.065592
-0.0581369
-0.0596682
-0.0621741
0.0588545
-0.0515963
-0.0552129
-0.0558311
0.0532095
-0.0396645
-0.0461625
-0.0511274
0.0496769
-0.0223178
-0.0314842
-0.0488741
0.0487631
-0.00131923
-0.0120532
-0.0493032
0.0504761
0.020264
0.0095221
-0.0521998
0.054376
0.0394166
0.0301659
-0.056913
0.0597301
0.0539371
0.0470455
-0.0626689
0.065668
0.0631442
0.058825
-0.0685991
0.0714106
0.0678354
0.0655411
-0.0740005
0.076372
0.0697206
0.0685563
-0.0784922
0.0804138
0.0704552
0.0696841
-0.0821494
0.0837648
0.0707402
0.0701534
-0.0852828
0.0867694
0.0702688
0.0701405
-0.0882533
0.0897735
0.0677435
0.0688592
-0.091313
0.0929008
0.0611193
0.0645601
-0.0962192
0.0971086
0.0499861
0.0552508
0.04194
0.0104036
-0.011226
0.0857767
-0.00943741
0.00980538
0.0963305
0.0907222
0.0101349
-0.0106814
0.0748859
0.0792592
0.0105169
-0.0107405
0.0670393
0.0704292
0.0650327
0.0613413
-0.0633591
-0.0358017
-0.0596533
0.0589858
-0.0208712
-0.0292943
0.065617
-0.0682238
-0.0464088
-0.0415401
0.0710163
-0.0739082
-0.0530313
-0.0495833
0.0767722
-0.079631
-0.057318
-0.0548455
0.0824415
-0.0852693
-0.0602448
-0.0583384
0.0880655
-0.0908941
-0.0626964
-0.0609084
0.0937231
-0.096639
-0.0650948
-0.0633691
0.0996267
-0.102757
-0.066352
-0.0654123
0.105969
-0.109275
-0.0648199
-0.0654787
0.112547
-0.115737
-0.0592943
-0.0621316
0.118673
-0.121292
-0.0485045
-0.0542459
0.123468
-0.125167
-0.031396
-0.040435
0.126301
-0.126847
-0.00949728
-0.0207041
0.126781
-0.126132
0.0138283
0.00233838
0.12491
-0.12315
0.0349052
0.0246477
0.120966
-0.118391
0.0509529
0.0434482
0.115577
-0.112617
0.0604674
0.0561958
0.109678
-0.106781
0.0641178
0.0625345
0.103988
-0.101274
0.0641541
0.0640983
0.0986576
-0.0961222
0.0624816
0.063093
0.0937098
-0.0913403
0.0608102
0.0612567
0.0871404
-0.0825474
0.0599755
0.0600031
0.0774325
-0.0736086
0.0612308
0.0596072
0.0668408
-0.0672525
-0.0728544
-0.0692599
0.0624921
0.0729702
-0.0889613
-0.0701689
-0.0862602
0.00982914
0.100672
0.059043
-0.0126637
0.0776635
-0.0803413
0.0611668
-0.098442
0.0721803
-0.081334
-0.0696561
-0.084289
-0.0686742
-0.0792154
-0.085031
-0.0814874
0.0789857
-0.0768923
-0.0871244
0.0637344
-0.0831908
-0.0692989
-0.0733973
0.0642266
-0.068796
-0.0682849
0.062744
-0.0677773
-0.0888433
-0.0824491
0.085521
-0.0637968
0.0899702
-0.0976279
-0.0738297
-0.0713538
-0.0874122
0.0878588
-0.0582424
-0.0599199
-0.0855277
0.0830406
-0.059775
-0.0601011
-0.0803038
0.0773874
-0.0592178
-0.0592356
-0.0743556
0.0711307
-0.0578762
-0.0585088
-0.0677296
0.0641379
-0.0545452
-0.0562671
-0.0605205
0.0569895
-0.0480653
-0.0515956
-0.05375
0.0509302
-0.0368447
-0.042923
-0.0486535
0.0470411
-0.0207055
-0.0292076
-0.046129
0.0459688
-0.00115898
-0.0111411
-0.0465133
0.0477446
0.0190327
0.00897757
-0.049584
0.0519305
0.0370702
0.0283265
-0.0546681
0.057719
0.0508862
0.0443079
-0.0609189
0.0641922
0.0598709
0.055625
-0.0673999
0.0704956
0.0647398
0.0623334
-0.0733771
0.0760549
0.0670428
0.0656748
-0.0784986
0.0807641
0.0681897
0.0672404
-0.0828636
0.0848684
0.0687354
0.0680539
-0.0867984
0.0887189
0.0683483
0.0682105
-0.0906456
0.0926185
0.0657707
0.0669324
-0.0946083
0.0966232
0.0591045
0.0625702
-0.0985765
0.101627
0.0469359
0.0532974
-0.103775
0.105531
0.0307707
0.0397916
-0.104966
0.105989
0.00880616
0.0214358
-0.00180733
0.00190702
0.0962308
0.00345525
-0.00393814
0.106472
0.10232
-0.00148746
0.00198146
0.0852827
0.0911418
-0.00124593
0.000506294
0.0756255
0.0799948
0.000213151
-0.000876228
0.0677023
0.0711486
0.00110982
-0.00196918
0.0628534
0.0652663
0.00291924
-0.0035774
0.0597012
0.0612912
0.0590606
-0.0592666
-0.0206652
-0.0586354
0.058876
-0.00381796
-0.0122385
0.0612009
-0.0631127
-0.0338899
-0.0273599
0.0657442
-0.0684981
-0.0436549
-0.0389087
0.0713906
-0.0743736
-0.0500483
-0.0466908
0.0773302
-0.0803119
-0.0543363
-0.0518889
0.0832629
-0.0862523
-0.0572554
-0.0553874
0.0892305
-0.0922637
-0.0596632
-0.0579303
0.0953255
-0.0985057
-0.0619146
-0.0603073
0.101777
-0.105209
-0.06292
-0.0621407
0.108733
-0.112375
-0.0611786
-0.0619547
0.116004
-0.119574
-0.0557247
-0.0585018
0.122891
-0.125868
-0.0455267
-0.050929
0.128345
-0.130273
-0.029468
-0.0379581
0.131565
-0.132198
-0.00886412
-0.019413
0.132094
-0.131353
0.0130874
0.00223471
0.129953
-0.127946
0.0328986
0.0232475
0.125448
-0.122539
0.0480432
0.0409501
0.11936
-0.116019
0.0571263
0.0530175
0.112688
-0.109405
0.0608349
0.0592029
0.106239
-0.10317
0.0610848
0.0609329
0.10025
-0.0974552
0.0596864
0.0601734
0.0947927
-0.0921832
0.0582006
0.0585943
0.0896168
-0.0870056
0.0573643
0.0574367
0.0842666
-0.0797958
0.0567599
0.0568682
0.0751575
-0.0690424
0.0566289
0.0578537
0.059199
-0.0627946
-0.0641817
-0.0656412
0.0557978
0.0737043
-0.0850021
-0.0978402
-0.07668
0.0747916
-0.0829526
0.112284
-0.112005
0.00852726
0.11211
-0.00376405
0.00616128
-0.00698904
0.0605289
0.00517051
0.0598667
-0.0708838
-0.0850325
-0.0703743
-0.0825889
0.0697905
-0.08739
-0.0691893
-0.0793251
-0.0666214
-0.0755719
-0.0626959
-0.0683837
0.0570455
-0.0588252
-0.062402
0.0523701
-0.0609657
-0.0860228
-0.103039
0.0977266
-0.0685172
-0.0755208
0.0857642
-0.108084
0.108665
-0.114596
-0.0695905
-0.0710538
-0.0902724
0.0892511
-0.0627754
-0.0638997
-0.0891042
0.0884031
-0.0575413
-0.0597729
-0.0858606
0.0831523
-0.0570667
-0.0575586
-0.0802685
0.0771849
-0.0561342
-0.0563518
-0.0739621
0.0705733
-0.0544875
-0.055286
-0.0670475
0.0633707
-0.0508684
-0.0527413
-0.0596571
0.0560326
-0.0444409
-0.0478819
-0.0526691
0.049721
-0.0338966
-0.0395594
-0.0473162
0.0455809
-0.0189701
-0.0268028
-0.0445757
0.044356
-0.000939307
-0.0101359
-0.0448835
0.0461343
0.017782
0.00845007
-0.0480298
0.0504773
0.0346226
0.026431
-0.0533393
0.0565341
0.0476914
0.041446
-0.0598974
0.0633489
0.0564194
0.0522617
-0.0667427
0.070038
0.0614445
0.0589396
-0.0731395
0.0760611
0.0641212
0.0625733
-0.0787742
0.0813413
0.0656227
0.0645272
-0.083763
0.0861162
0.0663821
0.0656322
-0.0884159
0.0907264
0.0660378
0.0659109
-0.0930499
0.0954299
0.0633906
0.0646089
-0.0978181
0.100205
0.056718
0.060182
-0.102507
0.104696
0.044747
0.0509954
-0.108036
0.110015
0.0287915
0.0364509
0.0194461
-0.0145999
0.0136393
0.0971914
0.0140811
-0.0147665
0.107157
0.101801
-0.0139914
0.013261
0.086013
0.0907897
-0.0124198
0.0114901
0.0765552
0.0808359
-0.0105033
0.009463
0.0687427
0.0721354
-0.0092956
0.00812526
0.0640238
0.0654337
0.0624275
0.0593358
-0.0604097
-0.0195913
-0.0588834
0.0590118
-0.00394636
-0.0117862
0.0618542
-0.0637976
-0.0319465
-0.0259155
0.0663142
-0.069129
-0.0408401
-0.0363921
0.07205
-0.0750603
-0.047038
-0.0437698
0.0780641
-0.0811123
-0.0512881
-0.048885
0.0841591
-0.0872623
-0.0541522
-0.0523406
0.0903699
-0.0935506
-0.0564826
-0.0548227
0.0967762
-0.100142
-0.0585489
-0.0570817
0.103613
-0.107258
-0.0592749
-0.0586694
0.111003
-0.114877
-0.0573045
-0.0582103
0.118752
-0.122585
-0.051892
-0.0546267
0.126172
-0.129415
-0.0422837
-0.0473414
0.132124
-0.134232
-0.0273601
-0.0352496
0.135639
-0.136323
-0.00817965
-0.0180061
0.136201
-0.135385
0.0122715
0.00211255
0.13385
-0.13166
0.0307094
0.0217119
0.128924
-0.125774
0.0448932
0.0382135
0.122336
-0.118729
0.0535192
0.0495796
0.11511
-0.111544
0.0572689
0.0555843
0.108105
-0.104789
0.0577679
0.0574941
0.101646
-0.0986543
0.0566942
0.0570313
0.0958059
-0.0930321
0.0554268
0.0557459
0.0902987
-0.0875342
0.0545999
0.0547034
0.0846877
-0.0817167
0.0537889
0.0540217
0.0767077
-0.0719834
0.0519047
0.0528447
0.0674949
-0.0638916
0.0487668
0.0513093
-0.0843062
0.0677359
-0.0666205
-0.0856663
0.049929
-0.0521505
-0.0587443
-0.0586652
0.0447027
0.072828
-0.0830386
-0.0132505
0.110594
0.0606157
0.00356663
0.0719944
-0.117107
-0.0694826
-0.0717369
-0.0836698
0.0802409
-0.11633
0.0731678
-0.0863298
-0.0712125
-0.0805657
0.0730734
-0.0927275
-0.0692835
-0.076663
-0.0658483
-0.0724195
-0.0604953
-0.0667137
-0.0545214
-0.060031
0.0435604
-0.0464789
-0.0558257
0.040621
-0.0557258
-0.0849317
-0.118664
0.111606
-0.0625325
-0.0715409
-0.117884
0.072318
0.123881
-0.123574
-0.0718483
-0.0642648
-0.105602
0.100823
-0.0637388
-0.06505
-0.0968687
0.0928111
-0.0587179
-0.059945
-0.0902353
0.0888375
-0.0561436
-0.0571971
-0.086134
0.0832616
-0.0541943
-0.0548551
-0.0802269
0.0770208
-0.0529281
-0.0533171
-0.0737088
0.0702884
-0.051067
-0.0519741
-0.0667708
0.0631323
-0.0472299
-0.0492238
-0.0594517
0.0558348
-0.0408241
-0.0442013
-0.0524597
0.0494725
-0.0309093
-0.0361843
-0.0470155
0.0452126
-0.0171672
-0.0243459
-0.0441475
0.0438658
-0.000657563
-0.00907086
-0.044355
0.045587
0.01655
0.00796084
-0.0474825
0.0499579
0.0321471
0.0245355
-0.0528671
0.0561219
0.0444366
0.0385369
-0.0595592
0.0630998
0.0528788
0.0488244
-0.0665976
0.0700181
0.058024
0.0554418
-0.0732702
0.0763762
0.0610152
0.0593212
-0.0793029
0.0821145
0.0628111
0.0616005
-0.0848107
0.087462
0.0637308
0.062936
-0.0900776
0.0927333
0.0633821
0.0632952
-0.0954022
0.0981311
0.0606617
0.06194
-0.100858
0.103564
0.0540125
0.0574551
-0.106142
0.108551
0.0423374
0.0484173
-0.110668
0.113541
0.0259182
0.0343342
-0.115831
0.116644
0.00771414
0.0171566
-0.1152
0.114787
-0.0128381
-0.0023198
-0.0237058
0.0244752
0.106388
0.0244598
-0.0231473
0.113475
0.111348
-0.0243905
0.0250148
0.0965671
0.101886
-0.0245321
0.0238093
0.0867358
0.0912724
-0.022915
0.0218492
0.077621
0.0817302
-0.0206471
0.0193353
0.0700545
0.0733375
-0.0179598
0.0174128
0.0645708
0.0668092
-0.0159837
0.014461
0.0620517
0.0638565
-0.0123413
0.011481
0.061476
0.0619864
0.0598723
-0.0593191
-0.0044996
-0.0604871
0.0619991
0.00996906
0.00295185
0.0597459
-0.0607348
-0.0186024
-0.0113594
0.0624343
-0.0646785
-0.0297024
-0.0242159
0.0672315
-0.0700232
-0.0380484
-0.0338391
0.0729151
-0.0758988
-0.0440543
-0.0408779
0.0788988
-0.0819726
-0.0482143
-0.0458851
0.0850683
-0.0882408
-0.0509796
-0.049245
0.0914281
-0.0947051
-0.0532056
-0.0516354
0.098039
-0.101522
-0.0550658
-0.0537477
0.105111
-0.108872
-0.0555137
-0.0550803
0.112732
-0.116728
-0.0533081
-0.054351
0.12074
-0.124731
-0.0479006
-0.0506149
0.128493
-0.13191
-0.0388664
-0.0435799
0.134771
-0.136998
-0.0251328
-0.0323884
0.138483
-0.139201
-0.00746193
-0.0165216
0.13908
-0.138195
0.0113867
0.00199143
0.136578
-0.134275
0.028407
0.0200949
0.131411
-0.128098
0.0415805
0.0353492
0.124513
-0.120745
0.0497513
0.0459941
0.116962
-0.113208
0.0535153
0.051801
0.109596
-0.106111
0.0542833
0.0538818
0.102816
-0.0996758
0.0535537
0.0537365
0.0966962
-0.0938054
0.052536
0.0527662
0.0909738
-0.0881214
0.0517475
0.0518717
0.0852187
-0.0822158
0.050786
0.051119
0.0791184
-0.075876
0.0486623
0.0497473
0.0711423
-0.066418
0.0440424
0.0465756
0.0619875
-0.0570723
0.0357058
0.0402722
-0.0963634
0.0755346
-0.0457917
-0.101789
0.0349641
-0.0370289
-0.053661
-0.0546615
0.0325532
0.0738334
-0.0837042
-0.0727737
-0.0821086
0.068528
-0.126294
-0.0658076
-0.11982
0.0704637
0.0679759
-0.111988
0.0732484
-0.0865049
-0.0716058
-0.0782434
0.120266
-0.120119
-0.0129847
0.117893
-0.0207746
0.0190049
-0.0207804
0.0632515
0.0176082
0.0633957
0.0744776
-0.0916706
-0.0687332
-0.0737781
-0.0638961
-0.0690186
-0.056857
-0.0643781
-0.0479155
-0.0585945
-0.0392182
-0.0536364
-0.0586647
-0.127493
0.0598638
-0.132433
0.132372
-0.0586038
0.0500512
-0.135868
-0.0466168
0.026255
-0.0502588
-0.0296572
0.0234227
-0.0518291
-0.130703
0.0532604
-0.0838721
-0.123777
0.115631
-0.0637021
-0.0572127
-0.114625
0.112792
-0.0606999
-0.0632589
-0.10721
0.101805
-0.0583339
-0.0594678
-0.0985956
0.0954696
-0.0555919
-0.0567352
-0.0924377
0.0894918
-0.0531977
-0.0541651
-0.0865741
0.0835833
-0.0512034
-0.0519375
-0.0804975
0.077273
-0.0497035
-0.0502313
-0.0739468
0.0705195
-0.0476397
-0.0486479
-0.0670305
0.0634574
-0.0436568
-0.0457348
-0.0598679
0.0563275
-0.0372837
-0.0406117
-0.0530214
0.0500631
-0.027951
-0.0328782
-0.047638
0.0458112
-0.0153404
-0.0219208
-0.0447306
0.0443887
-0.000315702
-0.00799019
-0.0448221
0.0460004
0.0153717
0.00752744
-0.0478455
0.0502807
0.0297119
0.0226904
-0.0531618
0.0563982
0.0412002
0.0356558
-0.0598296
0.0633805
0.0493279
0.045393
-0.0669106
0.07039
0.0545446
0.0519117
-0.073732
0.076964
0.0577832
0.0559792
-0.0800492
0.0830529
0.0598073
0.0585153
-0.0859672
0.0888696
0.0608284
0.0600217
-0.0917515
0.0946865
0.0604472
0.0604133
-0.0976505
0.100662
0.0576502
0.058976
-0.103655
0.106616
0.0510518
0.0544622
-0.109409
0.111992
0.0397544
0.0456241
-0.114242
0.116113
0.0240477
0.0320839
-0.118378
0.119533
0.00655865
0.0148916
-0.00290591
-0.0337543
0.0334972
0.106645
0.0324105
-0.0326984
0.113763
0.110004
-0.0344706
0.0343697
0.0966681
0.100913
-0.0339752