/*--------------------------------*- C++ -*----------------------------------*\
  =========                 |
  \\      /  F ield         | OpenFOAM: The Open Source CFD Toolbox
   \\    /   O peration     | Website:  https://openfoam.org
    \\  /    A nd           | Version:  10
     \\/     M anipulation  |
\*---------------------------------------------------------------------------*/
FoamFile
{
    format      ascii;
    class       surfaceScalarField;
    location    "27";
    object      phi;
}
// * * * * * * * * * * * * * * * * * * * * * * * * * * * * * * * * * * * * * //

dimensions      [0 3 -1 0 0 0 0];

internalField   nonuniform List<scalar> 
57492
(
-0.005628
0.000304374
0.00121457
0.00410906
0.00150255
-0.00433312
-0.00279742
-0.000875803
0.00271303
0.00907192
-0.0109091
0.0386064
0.0296177
-0.00602139
-0.0622026
-0.0831279
0.0348257
0.0869086
0.0138021
-0.0131713
-0.00675039
0.00611964
-0.0251044
0.00728643
-0.00429208
0.02211
0.00481867
-0.016121
0.011236
-0.0415011
0.039512
-0.00924695
0.00989531
0.0380553
-0.0367146
0.0038317
0.000789129
0.000115703
-0.00473653
-0.00264866
-0.00203608
0.00851643
-0.00552644
0.00399961
-0.00112183
0.000678191
-0.0054155
0.0295361
-0.0263274
-0.0110207
0.00781203
0.00209901
0.022667
0.00477001
-0.000857279
0.00536272
0.0344786
-0.0389841
-0.00484895
0.0339998
-0.0300082
0.00425636
-0.00894334
0.00468698
-0.034796
0.0245537
0.0144986
-0.0460583
0.0053554
0.0336603
0.00704261
0.00833172
-0.0467464
-0.00764359
-0.00106217
0.00130366
-0.00581977
0.00557828
0.00188713
-0.00318601
0.000236705
-0.0457174
0.046851
0.00618912
-0.00732271
-0.0622192
0.0280049
-0.0115031
-0.025219
0.0107415
0.0118785
0.00259902
-0.0172562
-0.00871514
0.000752277
-0.00863884
-0.0250501
0.0301447
0.0035442
-0.010241
0.0032234
-0.00162125
0.0144334
-0.00936662
-0.00889834
0.00383156
-0.012064
0.00948455
0.0170129
-0.0178595
-0.0305385
0.0222061
0.0261919
-0.0341853
-0.0102389
0.0265647
-0.0180576
-0.00275355
0.0208111
-0.00582569
-0.0122319
-0.0275392
0.0351712
-0.0134576
0.00473766
-0.0171629
-0.0151139
-0.0118834
0.0191698
-0.00749426
-0.0378189
0.020329
0.0174899
-0.0731023
0.0352834
0.0412954
-0.0109993
0.00738232
-0.0376784
0.0301638
0.00313297
0.00799862
-0.00955898
0.0398765
-0.0413168
0.0265626
0.00464765
-0.0263916
0.0255859
-0.00331531
0.0304726
-0.0107201
-0.0224746
0.00272207
0.0343612
0.000759083
0.0206131
-0.0121631
0.0171358
0.00995534
0.0327678
-0.0415344
-0.00501757
0.00430059
0.0422514
-0.0428676
-0.00212656
0.00345973
0.00763161
0.0404395
-0.0398757
-0.00819536
0.00470214
-0.0385716
-0.0356526
0.0455448
0.0434432
-0.0533355
-0.00030753
0.0508038
-0.0861488
0.00154759
0.00343823
-0.000464555
-0.00452127
0.00191816
0.00362904
-0.00189112
0.00125364
0.00255565
0.00213081
-0.000583699
-0.00209812
0.00163356
-0.000145705
-0.00195241
0.102193
0.0398862
-0.0701703
-0.0719094
0.0317424
-0.0197067
0.0901577
-0.0885494
0.0311805
0.0891114
0.0179067
-0.0665699
0.0124131
-0.031305
0.0247377
-0.00584579
0.0269085
-0.0316276
0.0171322
0.00095337
-0.000830992
0.000181996
0.00169377
0.000474167
0.0046044
0.00119843
-0.0343992
0.0628257
0.0291438
-0.0575702
0.0393035
-0.0467943
0.0234276
0.0578336
-0.0184355
0.138473
-0.011306
-0.0411708
-0.085996
0.0396254
0.0766495
0.0221979
0.022865
-0.0534316
0.070192
0.00168621
-0.00256201
0.00439924
0.0186613
0.0338804
-0.0143366
-0.0382051
0.0250498
0.00268348
0.00286929
-0.00125474
-0.00161455
0.00332602
-0.000456728
-0.0789852
0.0387975
-0.0290051
0.0691928
-0.0686026
-0.0344596
0.024077
-0.0371376
0.0327919
-0.0642569
0.0378968
-0.000698979
-0.0189533
-0.0182446
-0.014967
0.0427964
0.0100674
-0.0183776
-0.00184108
0.00525169
-0.0167653
-0.00231128
-0.0062437
-0.0294749
-0.00383644
0.00460896
0.00268226
-0.00345478
0.00542041
-0.00279529
-0.00646157
-0.00736144
-0.00163919
0.014421
-0.00428256
0.00153008
-0.00353493
0.00193463
-0.0154279
0.00918422
0.00219394
-0.0176219
0.0026227
0.000703312
0.0464856
0.0310494
-0.00326785
0.0174482
-0.0540905
-0.00311815
0.035853
-0.0265226
-0.00621228
-0.00489135
0.041367
-0.0395939
0.0345772
0.0185306
-0.00427435
-0.0488335
-0.0119429
0.00602938
0.0404907
0.0429469
-0.0363592
-0.0138807
-0.0286934
0.00918435
0.0333898
-0.0133431
0.0332426
-0.0337803
0.00154461
-0.0435811
-0.0057888
-0.00510499
-5.6245e-06
-0.00305462
0.0031618
0.00139537
0.00029964
0.00111606
-0.00447033
-0.00487555
0.000842072
-0.00503227
0.00778246
0.00194142
-0.0046916
0.017806
-0.0168199
-0.00601843
-0.00784317
0.0187653
0.0068839
-0.00325034
0.00318963
-0.0635898
0.036582
0.0658053
0.070866
-0.0251161
-0.0802095
-0.0311234
0.0383996
-0.00236048
-0.019405
-0.00328458
-0.0128419
0.000240399
0.00108794
-0.00379788
0.00123216
0.00147778
-0.00365593
0.00350614
0.00123773
-0.00718417
-0.000269639
-0.00592916
-0.00827364
0.00136094
-0.0167162
-0.00861797
-0.0142864
-0.0149289
0.0179277
0.0112876
0.000929575
0.00678739
-0.0220034
-0.0197362
0.00573684
-0.0521056
0.0201154
-0.00280581
-0.0527457
0.00627697
-0.00563692
0.00223882
-0.0368541
0.0325352
0.00208012
0.00196108
-0.0340455
0.0343233
0.00245862
-0.112415
-0.0297794
0.0376169
0.037707
-0.047371
0.0378462
-0.00542858
0.00609348
-0.00773267
0.00632887
-0.000235389
0.00729931
-0.00141864
0.0465367
-0.0281179
-0.0180582
-0.000360634
0.0392394
-0.00226161
0.0608602
0.00212608
-0.0632938
0.0200267
0.0463025
-0.00546902
0.00711857
-0.0344148
0.0473229
0.000181417
0.00614746
0.0130593
-0.0403403
-0.0423229
0.0245114
0.0510769
0.0154871
-0.000767684
-0.0162163
0.00149687
0.00512696
-0.0017039
-0.0199248
0.00390392
0.0255054
0.00325822
-0.018056
-0.00318929
0.000695219
0.00110615
-0.000882106
-5.92504e-05
-0.000164789
0.00010962
-9.00669e-05
0.00108659
0.00363192
0.00541661
-0.00893891
-0.0116696
0.0227586
-0.00846626
0.0627072
-0.0544794
-0.0198973
-0.000287005
-0.0262891
0.0304801
-0.0808962
-0.00102963
-0.0589442
-0.0320382
0.0100862
0.0320563
0.0252333
-0.0519342
0.0197521
0.0473619
-0.0350577
0.0181361
-0.0322608
0.0188799
-0.0047552
0.0197906
-0.0313169
0.0296624
0.0448222
0.0140713
0.0447593
-0.00172762
-0.0445774
0.00154573
0.0494248
-0.00555888
0.000893426
0.0500123
-0.00646479
-0.000963021
-0.0425845
0.0358083
-0.0108048
0.0250087
0.0404066
-0.0107044
0.00838707
-0.0380893
0.00953018
0.0410516
-0.0101752
-0.0367862
-0.0131496
0.0392314
0.00754916
-0.035151
-0.0139407
0.0341809
-0.0182596
-0.0312118
0.0162135
0.0332579
-0.0186209
-0.0318097
0.032171
0.0171435
0.030104
-0.0101763
-0.0370712
0.029705
-0.0311825
-0.0202217
0.0202326
0.0296942
-0.0158796
0.0257619
-0.0394143
0.0348394
-0.00560143
-0.0509489
0.00473983
0.0519247
-0.00571566
0.0136254
0.0174775
0.00641853
-0.00250962
-0.0213864
0.0126276
0.0107011
-0.00585122
0.00106854
-0.00327561
-0.00266848
-0.019184
-0.02924
0.018053
-5.28305e-05
-3.72364e-05
3.1808e-05
-8.46385e-05
-0.00362594
-0.0332473
0.0247101
-0.0289668
-0.00315026
0.0284912
0.00220137
-0.030231
-0.000937168
0.0107647
0.0185658
-0.00960333
-0.0197272
0.00983968
0.0234746
-0.0225496
0.0270072
0.00139836
0.000277112
-0.00120233
-0.00417977
-0.00168092
0.00195803
-0.00288326
0.000374112
-0.000630159
0.00238685
-0.000419703
0.000793814
-0.00104986
0.00126078
-0.000167055
0.000793403
-0.00131795
0.00257873
-0.001485
0.00199265
-0.000142962
-0.00510002
-0.000709622
0.00270227
-0.000852584
0.0149817
0.0338162
-0.0427685
0.013032
-0.0442418
0.0461916
0.0490368
-0.00218862
-0.0133258
-0.0253876
0.0132082
0.0255052
-0.00643864
0.0272242
-0.0341114
0.00269571
-0.034522
0.0371176
-0.0371884
-0.0221004
0.0221712
0.0374919
-0.0216791
0.0213048
-0.0222229
-0.036654
0.0216884
0.0379305
-0.0216638
0.0212251
0.0386212
-0.0207093
0.0200186
-0.0205523
0.0396233
0.0195501
0.0393412
-0.0391335
-0.0207599
-0.0220643
0.0412326
0.020455
0.0385089
-0.021232
-0.0380338
-0.021809
-0.0379393
-0.0217582
-0.0377954
-0.021823
-0.0382367
-0.021659
-0.0373291
-0.0231305
-0.0218314
0.0430503
0.0200136
0.0368534
-0.0201759
-0.0218464
-0.0358829
0.0210753
-0.0374389
-0.0217366
-0.0210473
-0.0370786
0.0222429
-0.019818
0.0429945
0.0198738
0.0367279
-0.0196926
-0.0383051
-0.0201811
0.0430934
-0.0196319
0.0195331
-0.0194128
0.0429761
0.0195301
0.0366891
-0.019593
0.036517
-0.0192407
-0.0195738
-0.036364
0.0188592
-0.0377925
-0.0200863
-0.0193908
0.0430174
0.0193495
0.0364291
-0.0193029
-0.0176549
-0.0358167
0.0171077
-0.0373157
-0.0181318
-0.0193416
0.0428396
0.0195194
0.036202
-0.0191145
-0.0152105
-0.0352213
0.014615
-0.0367365
-0.0157897
-0.0194642
0.0428372
0.0194666
0.036064
-0.0193262
-0.0122115
-0.0347514
0.0117416
-0.0362873
-0.0126606
-0.0194699
0.0426229
0.0196843
0.035787
-0.019193
-0.0087213
-0.0343255
0.00829538
-0.0358381
-0.00917051
-0.0195101
0.0426117
0.0195213
0.0356106
-0.0193337
-0.00479656
-0.0341208
0.00459185
-0.0354396
-0.00519502
-0.0192492
0.0424044
0.0194565
0.0352938
-0.0189324
-0.000600088
-0.032989
-0.000531647
-0.0346058
-0.00143395
-0.0188309
0.0424209
0.0188144
0.0351404
-0.0186775
0.00356831
-0.0331131
-0.00344424
-0.034181
0.00314349
-0.0179408
0.0422578
0.0181039
0.0347334
-0.0175339
0.00794163
-0.0318753
-0.00917939
-0.0330705
0.00683117
-0.0152696
0.0408148
0.0167126
0.0355447
-0.0160809
0.0119293
-0.0318157
-0.011989
-0.032625
0.0114838
-0.013843
0.0373509
0.017307
0.03596
-0.0142583
0.0158476
-0.0160182
-0.0316451
-0.0324218
0.0156444
-0.0131405
0.0138983
0.0365931
0.0354684
-0.0126489
-0.0309205
0.0312034
-0.0122718
-0.0316293
-0.0153094
0.0194911
-0.0190001
-0.032136
0.0188223
-0.031753
-0.0304146
0.0308868
-0.00391639
-0.00839061
-0.0300413
0.0304639
0.00416925
0.000313854
-0.0309786
0.0315733
0.0111468
0.00778066
-0.0322168
0.032877
0.0164475
0.0139716
-0.0335198
0.0360509
0.0197118
0.0182164
-0.0366437
0.0365038
0.0218283
0.0204825
-0.0381804
0.0381729
0.0213123
0.0204946
-0.0375057
0.0373275
0.0201968
0.0218923
-0.0365494
0.0366885
0.0203159
0.0203283
-0.036795
0.0368769
0.019792
0.0199071
-0.0369352
0.0369727
0.0194926
0.0194748
-0.0369903
0.0369909
0.0195188
0.0193318
-0.0369782
0.0369554
0.019707
0.0194793
-0.0369254
0.0368889
0.019493
0.0195513
-0.0368431
0.0367882
0.0181589
0.0188601
-0.0362305
0.0373391
0.0161984
0.0172703
0.0372987
0.0139387
-0.0108839
0.0114438
0.0360332
-0.0105075
0.035092
0.0343148
-0.03423
-0.0161657
-0.0344021
0.0341319
-0.0123787
-0.0143456
0.0345301
-0.0348964
-0.0183112
-0.0172337
0.0352026
-0.0355057
-0.0190306
-0.0186262
0.0357926
-0.0360602
-0.0190586
-0.018906
0.0362992
-0.0365123
-0.0190898
-0.0188754
0.0366977
-0.0368616
-0.0194291
-0.0190554
0.0370041
-0.0371274
-0.0200526
-0.0195501
0.0380746
-0.0379582
-0.0208763
-0.0202848
0.0385946
-0.0381211
-0.0222317
-0.0211726
0.0378566
-0.0375735
-0.0219422
-0.0220874
0.0378667
-0.0377485
-0.0218548
-0.0228372
0.0364219
-0.0360313
-0.0204769
-0.0215077
0.0355887
-0.0351181
-0.0162603
-0.0185744
0.034654
-0.0342204
-0.00960414
-0.0131247
0.0338441
-0.0339128
-0.00136528
-0.00557134
0.0336723
-0.0339401
0.00709901
0.00290301
0.0333815
-0.0328509
0.0151138
0.0109251
-0.0321634
0.0181348
-0.032626
-0.0180035
0.0371578
0.0115847
-0.0101557
0.0337801
0.0216142
-0.0212078
-0.0321593
0.0212583
-0.0318076
0.0207689
-0.019869
-0.0335259
-0.0325749
-0.0298664
0.0291041
-0.0115096
0.0307918
-0.0317658
-0.0170294
-0.0143841
-0.028649
0.0288122
-0.00407964
-0.00793546
-0.02911
0.0295374
0.00374185
1.6125e-05
-0.0300707
0.0306935
0.010524
0.00724737
-0.0313732
0.0320825
0.0157381
0.0132919
-0.0327786
0.033467
0.0190234
0.0175203
-0.0340806
0.0353395
0.0205695
0.0198689
-0.0351087
0.0355207
0.0209003
0.0207254
-0.036727
0.0363117
0.0206121
0.020686
-0.0363986
0.0366062
0.0201083
0.0202414
-0.0367811
0.0369314
0.0196417
0.0197322
-0.0370586
0.0371671
0.0193842
0.0193475
-0.0372584
0.0373374
0.0194398
0.0192405
-0.0374071
0.037472
0.0196422
0.0194096
-0.0375321
0.0375877
0.0194374
0.0194912
-0.0376336
0.0376658
0.0181266
0.0188143
-0.0377214
0.038267
0.0156529
0.0172147
0.00772739
-0.00771018
0.036016
0.00767872
0.0372065
-0.0382016
0.0385902
0.0111961
0.014004
0.0327349
-0.0330233
-0.0120903
0.0322547
-0.00967538
0.00725086
-0.00690868
0.0334379
0.0346327
0.0334028
-0.033724
-0.0158445
-0.0139661
0.03399
-0.0343712
-0.0179299
-0.0169677
0.0347532
-0.0351326
-0.0186512
-0.0182443
0.0354928
-0.0358318
-0.0187196
-0.0185458
0.0361386
-0.0364183
-0.0188101
-0.0185687
0.0366691
-0.0369003
-0.0191979
-0.0188045
0.0371118
-0.0373091
-0.0198553
-0.0193386
0.0374878
-0.0376458
-0.0207183
-0.0201062
0.0377757
-0.0383204
-0.0216871
-0.0210427
0.0384395
-0.0379201
-0.0224615
-0.0219683
0.0383072
-0.0377167
-0.0224452
-0.0224502
0.0374973
-0.037205
-0.0207691
-0.0217271
0.0368542
-0.0364606
-0.0166539
-0.0189251
0.0360537
-0.0356543
-0.0100036
-0.0135316
0.035288
-0.0349661
-0.00168712
-0.00593761
0.0346994
-0.0344785
0.00687813
0.00263625
0.0343061
-0.0335131
0.0143208
0.0107527
0.0331257
-0.0323269
0.0204596
0.0177474
-0.0328874
-0.0187474
0.0229105
-0.0232069
-0.0315112
-0.031941
0.0225246
-0.023146
-0.0322202
0.00817269
0.0380963
0.0322666
-0.00692066
-0.0206004
0.0212122
-0.0341377
-0.019722
-0.0337658
0.0233674
-0.0240846
-0.0307939
0.0233212
-0.0318949
-0.0345087
0.039859
-0.0396113
0.0109484
0.0393247
0.00870706
-0.00346021
0.00380521
0.0330929
-0.00361172
0.0324181
-0.0326735
0.0320948
-0.0191433
-0.0211502
0.0216949
-0.0343105
0.035051
0.0205538
-0.0143228
-0.041282
-0.0187727
-0.0312421
0.0302637
-0.016051
-0.0178948
-0.0293656
0.0284874
-0.0106313
-0.013486
-0.0281819
0.0280016
-0.00389925
-0.00763002
-0.0283053
0.0287439
0.00330327
-0.000287622
-0.0292949
0.0299419
0.00987693
0.00669638
-0.0306516
0.0314013
0.0149885
0.0125823
-0.0321479
0.0328786
0.0182927
0.0167736
-0.0335538
0.0341757
0.0199475
0.0191938
-0.034719
0.035197
0.0204223
0.020182
-0.0356135
0.0359719
0.0202537
0.0202695
-0.0362802
0.0365524
0.019836
0.0199331
-0.0367922
0.0370078
0.0194261
0.0194925
-0.0372011
0.0373783
0.0192069
0.0191543
-0.0375415
0.0376974
0.0192839
0.0190773
-0.0378484
0.0379994
0.0194911
0.0192586
-0.038149
0.0382962
0.0192902
0.0193417
-0.0384344
0.0385584
0.0180027
0.018676
-0.038829
0.0391424
0.0153394
0.0169441
0.0135351
0.00446482
-0.00410638
0.0356575
-0.00482714
0.00473965
0.0381838
0.0368442
0.0343315
0.0320105
-0.0323859
-0.011715
-0.0316929
0.0313214
-0.00654915
-0.00935781
0.032616
-0.0329919
-0.0154685
-0.013736
0.0334581
-0.0339074
-0.0174806
-0.0165016
0.034358
-0.0348075
-0.0182016
-0.0177937
0.0352348
-0.0356393
-0.0183152
-0.0181185
0.0360088
-0.036351
-0.0184679
-0.0181991
0.0366642
-0.03696
-0.0189021
-0.0184913
0.0372382
-0.0375063
-0.0195872
-0.0190604
0.0377596
-0.0379997
-0.0204782
-0.0198528
0.0382186
-0.038413
-0.0214927
-0.0208238
0.0385692
-0.038678
-0.0223527
-0.0218121
0.0387293
-0.0387066
-0.0224679
-0.0223989
0.0386043
-0.0384219
-0.0209515
-0.0218295
0.0381682
-0.0378564
-0.0169656
-0.0191789
0.0375116
-0.037152
-0.0103631
-0.0138765
0.0368012
-0.0364687
-0.00201957
-0.0062885
0.0361663
-0.035891
0.00660281
0.00233382
0.0356488
-0.0354349
0.0141069
0.0105106
0.0346845
-0.0336379
0.0194131
0.0169969
0.0328405
-0.0324797
0.0229604
0.0217272
0.0235905
-0.0236692
-0.0318162
-0.0322992
0.02341
0.0223331
-0.0347759
-0.0227728
-0.033532
0.00518093
0.0388834
0.0314482
-0.00373845
0.0221751
-0.0359317
-0.0220543
-0.0324088
0.0278732
-0.0271498
0.0262837
-0.0235559
0.0234413
-0.0321846
-0.0237665
-0.0316056
-0.0214001
0.0336715
-0.010873
-0.0122908
-0.0187126
-0.0349484
-0.0323911
0.0335672
-0.0154989
-0.0137179
0.0149982
-0.0320882
0.0307479
-0.017803
-0.0172937
-0.0297418
0.0286019
-0.0149111
-0.0168886
-0.0279129
0.0275624
-0.0102808
-0.0127969
-0.0272089
0.0273327
-0.00402297
-0.00727659
-0.0276303
0.028077
0.00285656
-0.000585271
-0.0286446
0.029313
0.00920846
0.00612882
-0.0300477
0.0308275
0.0142087
0.0118476
-0.0316106
0.0323814
0.0175219
0.0159905
-0.0331066
0.0337801
0.019274
0.0184686
-0.0343842
0.0349244
0.0198821
0.0195779
-0.0353999
0.0358213
0.0198323
0.0197941
-0.0361919
0.0365255
0.0195025
0.0195625
-0.0368259
0.0371031
0.0191488
0.0191921
-0.037359
0.0376019
0.018964
0.0188984
-0.0378341
0.038064
0.019054
0.0188451
-0.0382935
0.0385282
0.0192564
0.0190291
-0.0387648
0.0390019
0.0190531
0.019105
-0.0392309
0.039445
0.0177886
0.018447
-0.0399199
0.0402507
0.0150087
0.0164691
-0.0403355
0.0404588
0.0108251
0.0134502
-0.0406027
0.0405293
0.00525428
0.00856318
0.0016145
-0.00119668
0.0377659
-0.00161763
0.0015812
0.0405657
0.0388803
0.00112847
-0.000571439
0.0351005
0.036776
0.000451309
-0.000516368
0.0331579
0.0342114
0.000563827
-0.00083952
0.0317239
0.0324656
0.0310326
-0.0311145
-0.00646731
-0.03144
0.0307103
-0.000109885
-0.00414577
0.0313646
-0.0316674
-0.0114122
-0.00910768
0.0320635
-0.0325138
-0.0150182
-0.0133399
0.0329975
-0.0335079
-0.0169701
-0.016018
0.0340205
-0.0345323
-0.0176899
-0.0172811
0.0350198
-0.035483
-0.017852
-0.017631
0.0359093
-0.0363086
-0.0180686
-0.0177728
0.0366798
-0.0370365
-0.0185455
-0.0181201
0.0373782
-0.0377142
-0.0192512
-0.0187186
0.0380399
-0.0383593
-0.0201588
-0.0195272
0.0386645
-0.0389542
-0.021203
-0.0205187
0.0392149
-0.0394389
-0.0221287
-0.0215515
0.0396087
-0.0397109
-0.0223657
-0.0222291
0.0397321
-0.0396661
-0.0210175
-0.0218083
0.0395151
-0.0392883
-0.0171925
-0.0193299
0.039006
-0.0386858
-0.0106834
-0.0141588
0.0383495
-0.0380069
-0.00236225
-0.00662473
0.0376693
-0.037337
0.00627051
0.00199626
0.0370166
-0.0367091
0.0137994
0.0101901
0.0364242
-0.0361686
0.0191575
0.0167121
0.0351731
-0.0340727
0.0218599
0.0207317
0.0336019
-0.0333338
0.0231732
0.0229393
0.0232534
-0.023243
-0.032195
-0.0331302
0.0230498
0.0225805
-0.0351814
-0.0221489
-0.0334374
0.023526
-0.0315845
-0.0219858
-0.0341895
0.0416524
-0.0417949
0.00539675
0.0414306
0.00180299
0.00278882
-0.00280256
0.0317376
0.00227228
0.0312269
0.0232416
-0.0269168
-0.0220247
-0.0328239
0.00106283
-0.0330808
-0.0248352
0.0296799
-0.0157178
0.0236482
-0.0229032
-0.03294
0.02299
-0.0324721
-0.0221797
-0.0213681
-0.0345169
-0.0310958
0.0309948
-0.0153979
-0.0151338
-0.0306294
0.0293747
-0.0165483
-0.0169283
-0.0281207
0.0275265
-0.0143169
-0.0156346
-0.0270844
0.0268113
-0.0100077
-0.0123549
-0.0267167
0.0268155
-0.00412178
-0.00718202
-0.0270958
0.0275402
0.00241218
-0.000865519
-0.0281161
0.0287998
0.00852484
0.00555285
-0.0295536
0.0303558
0.0134065
0.0110937
-0.0311669
0.0319703
0.0167185
0.0151795
-0.0327343
0.0334518
0.0185566
0.0177045
-0.0341053
0.0346986
0.0192888
0.0189243
-0.035228
0.0357055
0.0193548
0.0192646
-0.0361326
0.0365231
0.019112
0.0191354
-0.03688
0.0372148
0.018814
0.0188351
-0.0375295
0.0378343
0.0186593
0.0185837
-0.0381316
0.0384315
0.018754
0.0185478
-0.0387354
0.0390494
0.0189424
0.0187253
-0.0393684
0.0396912
0.0187303
0.018786
-0.0400061
0.0403067
0.0174881
0.0181321
-0.0405784
0.0408138
0.0147732
0.0161974
-0.0415563
0.0414814
0.0108999
0.0127078
0.00824976
-0.00206375
0.00192853
0.0379011
0.00212911
-0.00183419
0.0402708
0.0389456
-0.00257239
0.00258998
0.0350829
0.0361321
-0.00293208
0.00309424
0.0329958
0.0338693
0.0327573
0.0305636
-0.0307112
-0.00631976
-0.0301649
0.0305376
-0.00048259
-0.00374706
0.0309289
-0.0311569
-0.0111843
-0.00888994
0.0315943
-0.0320888
-0.0145237
-0.0129024
0.0326173
-0.0331778
-0.0164096
-0.0154894
0.0337439
-0.0343096
-0.0171242
-0.016715
0.0348493
-0.0353636
-0.0173377
-0.0170912
0.03584
-0.0362906
-0.0176179
-0.0172964
0.0367147
-0.0371276
-0.0181326
-0.017696
0.0375286
-0.0379285
-0.0188513
-0.0183176
0.0383227
-0.0387179
-0.0197637
-0.019133
0.0391059
-0.0394884
-0.0208205
-0.0201306
0.0398514
-0.0401882
-0.0217918
-0.0211885
0.040478
-0.0407068
-0.0221369
-0.0219394
0.0408542
-0.0409092
-0.0209625
-0.0216609
0.0408655
-0.0407272
-0.0173307
-0.0193736
0.0405092
-0.0402277
-0.0109649
-0.0143767
0.0399041
-0.039549
-0.00271744
-0.00694833
0.0391751
-0.0387834
0.00587886
0.0016224
0.0383838
-0.0379789
0.0133945
0.00979053
0.0375828
-0.0372074
0.018782
0.016316
0.0368681
-0.0365669
0.0215587
0.0203924
0.0355878
-0.0345731
0.0221585
0.0219602
0.0334291
-0.032808
0.0223688
0.0219059
0.0236034
-0.0228586
-0.0332168
-0.032052
0.0228474
0.0220154
-0.0336708
-0.0216281
-0.0337951
-0.00145548
0.0410519
0.0306318
0.00217807
0.0225298
-0.0308726
0.0152317
-0.0367184
0.01959
-0.0312751
-0.0218003
-0.0344139
-0.0218161
-0.033911
-0.0325626
-0.0226978
0.0209294
-0.020931
-0.032561
0.0160924
-0.0318814
-0.0227064
-0.0330923
0.0227842
-0.023635
-0.032366
0.0231658
-0.0324336
-0.0341295
-0.0291305
0.0300494
-0.0166367
0.0316859
-0.0346852
-0.0196985
-0.0188127
-0.0305476
0.0305064
-0.0153566
-0.015632
-0.0295933
0.0287136
-0.0156686
-0.0160152
-0.027926
0.0272768
-0.0136677
-0.014847
-0.0267955
0.0264896
-0.00970176
-0.0118736
-0.0263698
0.026441
-0.004193
-0.00706221
-0.0267
0.0271318
0.00198038
-0.00112445
-0.0277058
0.0283958
0.00783486
0.0049788
-0.0291617
0.0299799
0.0125883
0.0103278
-0.0308116
0.0316399
0.0158902
0.0143478
-0.0324341
0.033187
0.0178037
0.0169103
-0.0338807
0.0345188
0.0186508
0.0182306
-0.0350955
0.0356225
0.0188278
0.0186879
-0.0361004
0.0365428
0.0186697
0.0186575
-0.0369519
0.0373401
0.0184259
0.018426
-0.0377093
0.0380715
0.0182971
0.0182144
-0.0384291
0.0387938
0.0183893
0.0181902
-0.0391662
0.0395534
0.0185553
0.0183529
-0.0399485
0.0403506
0.0183282
0.0183909
-0.0407448
0.041125
0.0171078
0.0177379
-0.0414738
0.0417868
0.0144602
0.0158487
-0.042044
0.0426621
0.0102819
0.0124506
-0.0428787
0.0430089
0.00526662
0.00803311
-0.042327
0.0422835
-0.00141195
0.00248484
-0.00501968
0.00532161
0.0399689
0.00550918
-0.00529509
0.0420694
0.0415414
-0.00539838
0.00584072
0.0374588
0.0388689
-0.00584395
0.00581019
0.0351167
0.0361289
-0.00574404
0.00564947
0.0330903
0.0339354
-0.00582498
0.00563537
0.0319272
0.0325818
-0.00532203
0.0050187
0.0309352
0.0315402
0.0302078
-0.0297854
-0.000905041
-0.030312
0.030401
0.00492969
0.00207389
0.0299583
-0.0300912
-0.0061868
-0.00357414
0.0303655
-0.0307592
-0.0107906
-0.00861567
0.0312218
-0.031747
-0.0139985
-0.0124398
0.0323137
-0.0329175
-0.0158059
-0.0149227
0.0335284
-0.0341393
-0.0165133
-0.0161041
0.0347227
-0.0352802
-0.0167803
-0.0165078
0.0357996
-0.0362953
-0.0171222
-0.016777
0.0367667
-0.0372306
-0.0176687
-0.0172246
0.0376857
-0.0381445
-0.0183925
-0.0178625
0.0386022
-0.039068
-0.0192979
-0.0186753
0.0395341
-0.0400047
-0.0203498
-0.0196645
0.0404656
-0.0409117
-0.0213457
-0.0207276
0.0413196
-0.0416743
-0.0217821
-0.0215315
0.0419487
-0.0421269
-0.0207844
-0.0213865
0.042193
-0.0421454
-0.0173783
-0.0193075
0.0419924
-0.0417487
-0.0112086
-0.0145297
0.0414356
-0.0410655
-0.00308754
-0.00726145
0.0406534
-0.0402018
0.0054272
0.00121035
0.0397234
-0.0392221
0.0128931
0.00931211
0.038718
-0.0382242
0.0182882
0.015812
0.0377616
-0.0373391
0.0211362
0.0199298
0.0369683
-0.0366335
0.0218237
0.0215895
0.0363201
-0.0353841
0.0214328
0.0215924
0.0344186
-0.0328887
0.0216359
0.021882
0.0223401
-0.0228719
-0.0319019
-0.0324585
0.0219099
0.0217579
-0.032899
-0.0351468
-0.0204694
0.0210163
-0.032299
0.0439733
-0.0443096
-0.0010757
0.0436132
-0.00493498
0.00818375
-0.00829678
0.0310482
0.00779393
0.0307908
-0.021486
-0.0341094
-0.0216265
-0.0346035
0.0186406
-0.0338234
-0.021726
-0.0348914
-0.0217691
-0.0349581
-0.0217388
-0.0334991
0.0226014
-0.0223265
-0.0321767
0.0215409
-0.031398
-0.0338575
-0.0353269
0.0335517
-0.0179233
-0.0201047
0.0232069
-0.038249
0.0371745
-0.0390738
-0.0182055
-0.0186218
-0.0312847
0.0310035
-0.0163556
-0.0165457
-0.0309015
0.0305405
-0.0149957
-0.0155299
-0.0295992
0.0286773
-0.0147467
-0.0150739
-0.0278454
0.0271503
-0.0129727
-0.0140152
-0.0266301
0.0262941
-0.00936574
-0.0113534
-0.0261499
0.0261981
-0.00424117
-0.00691798
-0.0264338
0.0268467
0.00156751
-0.00136019
-0.0274091
0.0280954
0.00714855
0.00441639
-0.0288647
0.0296916
0.0117614
0.00955847
-0.0305369
0.0313833
0.0150438
0.0135025
-0.0322003
0.0329811
0.0170229
0.0160933
-0.0337073
0.0343824
0.0179756
0.0175044
-0.0349995
0.0355697
0.0182576
0.0180709
-0.0360926
0.0365815
0.0181808
0.0181347
-0.0370379
0.0374748
0.017989
0.0179695
-0.0378939
0.0383085
0.0178826
0.0177952
-0.038721
0.0391443
0.0179659
0.0177777
-0.0395784
0.0400314
0.0181023
0.0179188
-0.0404949
0.0409684
0.0178546
0.0179275
-0.0414346
0.0418875
0.0166549
0.0172717
-0.0423067
0.0426862
0.0140807
0.0154295
-0.043008
0.0432633
0.0100266
0.0121287
-0.0438639
0.0440725
0.005058
0.00743245
0.00224782
-0.00878715
0.00861687
0.0401392
0.00829969
-0.00850648
0.0422762
0.0410539
-0.00899568
0.00901013
0.0374444
0.03849
-0.00897422
0.00889029
0.0352006
0.0361648
-0.0087595
0.00858408
0.0332658
0.0340662
-0.00882036
0.00854791
0.0321997
0.0323455
0.0317913
0.0298617
-0.0298152
-0.000951598
-0.0300027
0.0302718
0.0046606
0.00193292
0.029706
-0.0297439
-0.00614896
-0.00368329
0.0300553
-0.0304604
-0.0103854
-0.00830428
0.0309382
-0.0314883
-0.0134484
-0.0119621
0.0320861
-0.0327255
-0.0151665
-0.0143249
0.0333729
-0.0340202
-0.015866
-0.0154566
0.0346386
-0.0352311
-0.0161879
-0.0158894
0.0357863
-0.0363205
-0.016588
-0.0162218
0.0368333
-0.0373423
-0.0171596
-0.0167119
0.0378459
-0.0383576
-0.0178808
-0.0173589
0.0388728
-0.0394028
-0.0187679
-0.0181601
0.0399404
-0.0404923
-0.0197979
-0.0191269
0.0410444
-0.0415936
-0.0207965
-0.0201756
0.0421145
-0.0425917
-0.0213049
-0.0210106
0.0429917
-0.0432935
-0.0204826
-0.0209865
0.0434712
-0.0435162
-0.0173333
-0.0191298
0.0434292
-0.0432226
-0.0114152
-0.0146167
0.0429178
-0.0425302
-0.00347512
-0.00756627
0.0420781
-0.0415673
0.00491633
0.000758287
0.0410106
-0.0404175
0.0123001
0.00875543
0.0398099
-0.039203
0.0176814
0.0152043
0.0386237
-0.0380838
0.0205963
0.0193505
0.0375959
-0.0371519
0.0213797
0.0211016
0.0367419
-0.0363428
0.0210337
0.0211824
0.0351408
-0.0340539
0.020549
0.02068
0.0330872
-0.03247
0.0209237
0.0209432
-0.0224487
0.0179503
-0.027383
-0.0318029
0.0222108
-0.0222353
-0.0313735
-0.0309425
0.0206832
0.0209977
-0.0328803
-0.00779832
0.042905
0.0310397
0.00702606
0.0190987
-0.0396429
-0.0185296
-0.0213483
-0.0343876
0.0215352
-0.0406855
0.0202193
-0.0338777
-0.0215867
-0.0347429
0.0195917
-0.0354648
-0.0217755
-0.0348851
-0.0218866
-0.0348103
-0.0218833
-0.0339423
-0.0222585
-0.0321535
0.0216722
-0.0221737
-0.0308719
0.0210442
-0.0303145
-0.0342081
-0.0393903
0.0373691
-0.0161842
-0.0199648
-0.0397733
0.0200952
0.0408336
-0.0404877
-0.0203107
-0.0170863
-0.035689
0.0343232
-0.0165575
-0.0169416
-0.0332191
0.0319743
-0.0151107
-0.0154416
-0.0311632
0.0306371
-0.0144696
-0.0147188
-0.0296898
0.0287462
-0.0138031
-0.0141266
-0.0278789
0.0271413
-0.0122351
-0.0131478
-0.026581
0.0262132
-0.00899796
-0.0107931
-0.0260444
0.0260706
-0.00426733
-0.00674919
-0.0262845
0.0266753
0.00117664
-0.00157407
-0.0272191
0.0278924
0.00647524
0.00387266
-0.0286557
0.029483
0.0109341
0.00879518
-0.0303346
0.0311925
0.0141859
0.0126508
-0.032026
0.0328282
0.0162207
0.0152598
-0.0335803
0.0342859
0.01727
0.0167523
-0.0349369
0.0355442
0.0176503
0.0174199
-0.0361061
0.036636
0.0176509
0.0175728
-0.0371344
0.0376149
0.0175086
0.0174711
-0.0380788
0.0385402
0.0174211
0.0173314
-0.0390016
0.0394769
0.0174906
0.0173163
-0.0399653
0.0404759
0.0175916
0.0174304
-0.0409991
0.041535
0.0173187
0.0174043
-0.0420645
0.0425814
0.016138
0.0167423
-0.043063
0.0435022
0.0136415
0.0149479
-0.0438783
0.0441858
0.00971912
0.0117526
-0.0444049
0.0448835
0.00457936
0.00721334
-0.045221
0.0451121
-0.000966754
0.00191035
-0.044254
0.0439262
-0.00747053
-0.00407689
-0.0110488
0.0113814
0.0419437
0.0113437
-0.0108012
0.0433837
0.0431999
-0.0114776
0.0118973
0.0397194
0.0409577
-0.0119502
0.0119385
0.0374561
0.0384371
-0.0118668
0.0117333
0.035334
0.0362365
-0.0115412
0.0112937
0.0335132
0.0342584
-0.0109973
0.0110944
0.0321026
0.0326419
-0.0107511
0.0103092
0.0314901
0.0321347
-0.00955461
0.00937356
0.0312207
0.0315454
0.0302717
-0.029733
0.00412188
-0.030673
0.031256
0.00879055
0.00662478
0.0294729
-0.0292189
-0.0012056
0.00167284
0.0293137
-0.0295272
-0.00593541
-0.0035885
0.0298404
-0.0302492
-0.00997667
-0.00799105
0.0307391
-0.031309
-0.0128785
-0.0114722
0.0319319
-0.0325995
-0.0144989
-0.0137021
0.0332751
-0.0339499
-0.0151912
-0.014781
0.0345945
-0.0352139
-0.0155685
-0.0152448
0.0357976
-0.0363638
-0.0160218
-0.0156381
0.0369117
-0.0374598
-0.0166115
-0.016164
0.0380055
-0.0385635
-0.0173228
-0.0168132
0.0391293
-0.0397161
-0.0181811
-0.0175943
0.0403173
-0.040942
-0.0191731
-0.0185258
0.0415765
-0.0422201
-0.0201529
-0.0195411
0.0428462
-0.0434395
-0.0207116
-0.0203844
0.043961
-0.0443848
-0.0200589
-0.020465
0.0446748
-0.0448144
-0.0171937
-0.0188397
0.0447953
-0.0446262
-0.0115842
-0.0146359
0.0443285
-0.0439212
-0.00388238
-0.00786402
0.0434284
-0.0428576
0.00434556
0.000265474
0.0422273
-0.0415466
0.0116194
0.00812507
0.040841
-0.0401284
0.0169687
0.0144987
0.0394397
-0.0387884
0.0199451
0.0186617
0.0381917
-0.0376443
0.0208322
0.0205049
0.0371399
-0.036655
0.0205488
0.0206781
0.0361714
-0.0356594
0.020037
0.0201964
0.0344855
-0.0332562
0.0196943
0.0197694
0.0320501
-0.0303636
0.0193577
0.0194772
-0.0263716
0.0203196
-0.0213309
-0.0366392
0.021321
-0.0217366
-0.0298989
-0.029676
0.0206334
0.0210381
-0.0336991
-0.0213537
-0.0346206
0.0205101
-0.0411442
-0.0198536
-0.0403124
0.0210492
0.0184365
-0.0390268
0.0201032
-0.0343892
-0.0216866
-0.0348317
0.0455894
-0.0457101
-0.00734987
0.0447147
-0.00992653
0.011521
-0.0120291
0.0317288
0.0111463
0.0316307
0.0202785
-0.0354237
-0.0219412
-0.0348304
-0.0220901
-0.0346036
-0.022064
-0.0341369
-0.0217934
-0.0325338
-0.0220856
-0.0305229
-0.0199288
-0.0415279
0.0203124
-0.0420524
0.042017
-0.0198933
0.0204745
-0.0432454
-0.0192815
0.0205557
-0.0283126
-0.022142
0.0192714
-0.0283917
-0.0427559
0.0217026
-0.0345238
-0.0395582
0.0372096
-0.0179621
-0.0173949
-0.0371922
0.0369745
-0.0159666
-0.0170688
-0.0355347
0.0341178
-0.0151406
-0.0155019
-0.033352
0.0325515
-0.0143102
-0.0146759
-0.0317044
0.0308024
-0.0135676
-0.0138717
-0.0298618
0.028911
-0.0128523
-0.013186
-0.0280192
0.0272445
-0.0114604
-0.0122561
-0.0266436
0.0262391
-0.00859349
-0.0101922
-0.0260417
0.0260443
-0.00426994
-0.00655175
-0.0262362
0.0266043
0.000808496
-0.00176595
-0.0271256
0.0277791
0.0058217
0.00335141
-0.0285279
0.0293471
0.0101149
0.00804636
-0.0301972
0.0310597
0.0133234
0.0118007