/*--------------------------------*- C++ -*----------------------------------*\
  =========                 |
  \\      /  F ield         | OpenFOAM: The Open Source CFD Toolbox
   \\    /   O peration     | Website:  https://openfoam.org
    \\  /    A nd           | Version:  10
     \\/     M anipulation  |
\*---------------------------------------------------------------------------*/
FoamFile
{
    format      ascii;
    class       volScalarField;
    location    "34.5";
    object      p;
}
// * * * * * * * * * * * * * * * * * * * * * * * * * * * * * * * * * * * * * //

dimensions      [0 2 -2 0 0 0 0];

internalField   nonuniform List<scalar> 
28942
(
-5.80392
-5.83303
-0.560105
1.48966
1.53595
-0.0505975
-0.0481752
-0.0520133
0.563815
0.602724
-2.87602
-2.85018
-2.79952
-2.80268
-0.00791325
-0.00260412
2.36321
2.52638
1.77618
2.26392
1.48371
1.50649
-2.93346
-2.85508
-3.11475
-2.92648
4.66307
4.83486
0.698675
0.793185
-0.109835
-0.108722
0.0456705
-0.0133215
-1.34828
-1.05051
1.78232
2.50467
-0.0775443
0.824823
1.22729
1.18577
0.577215
0.554176
0.596358
-0.0380139
-0.0367808
-0.0228676
-0.025276
-0.0302615
-0.0197863
0.714168
0.716968
0.589193
0.632793
-2.20862
-1.59752
-2.74167
-2.82118
-2.73306
-2.71452
-2.67695
-2.6893
-0.463301
-0.932158
-0.226993
0.0965747
2.64997
2.51261
-5.82576
-5.82885
-5.86175
2.67172
2.56037
2.72423
-2.96054
-2.93111
-2.31184
-0.444994
-0.868768
-0.282927
-1.01569
-6.14327
-6.46869
-1.5513
-1.00253
-0.543789
-0.982789
-1.46623
-1.51778
-1.23407
-0.824732
-4.17381
-3.54668
-3.19712
-3.68942
-4.33744
-1.32448
-1.16236
-6.43458
1.58238
1.5965
1.64655
1.58063
-1.06817
-1.03128
-1.14252
0.548787
0.584789
0.613157
-2.74916
-2.75862
-5.82442
-5.36397
-5.52952
4.79968
4.34974
3.87052
4.34658
-1.1442
-0.127909
-0.481305
1.16041
1.04995
5.45972
5.6155
5.2258
1.21647
1.43478
-0.0197117
-0.0117087
-0.0224687
3.21744
3.71789
0.905277
0.869844
1.07294
1.87974
2.57794
1.03794
-3.50244
-3.22406
1.5723
0.617954
0.608511
-1.1635
-1.17382
-0.951076
-3.07042
-0.28327
-0.272205
-1.72186
-0.0581847
-0.0734181
-0.074513
-0.0654051
0.355024
-1.20222
-7.76578
-7.41658
-6.88643
-5.93028
-5.20875
-0.039767
-2.50673
-2.25515
1.60403
1.6312
2.11362
1.97571
1.43199
0.0660912
0.0602885
0.722699
0.690251
0.4211
0.335208
0.453855
0.529236
0.492697
0.479905
0.541493
0.732366
0.627091
0.463843
0.583731
0.847282
1.14897
1.33172
-7.01506
-6.66003
-5.61805
-0.0340524
-0.0157735
-8.46787
-7.92812
-0.0233101
-0.0162571
-0.0155133
-0.0252034
-1.31048
-1.35956
-1.31879
-2.82591
-2.79744
-2.904
-2.69551
-2.69834
-2.66636
-3.01427
-3.19639
-2.98257
4.60415
4.22393
4.68904
-0.928851
-0.819689
-0.881403
2.74563
2.67181
2.69708
-2.59606
-2.37478
-2.80248
-2.15665
-1.95254
-1.77221
-1.68709
-1.62202
-1.55177
-1.84953
-2.03525
-2.23508
-2.43959
-2.62797
-1.50142
-1.44067
-2.98245
-2.79065
-3.11965
-1.4067
-1.35229
-2.91319
-1.33698
-1.29407
-1.29126
-1.25679
-3.19903
-2.98035
-1.27626
-1.24595
-3.21428
-2.98944
-1.2817
-1.25739
-3.16209
-2.93855
-1.30937
-1.29024
-3.05008
-2.83387
-1.35985
-1.34568
-2.88634
-2.68408
-1.43437
-1.42523
-2.68785
-2.50686
-1.53471
-1.53046
-2.47442
-2.31848
-1.66247
-1.66313
-2.25969
-2.13118
-1.81655
-1.82412
-2.06256
-1.95719
-1.99501
-2.01432
-1.88301
-1.79846
-2.19811
-2.22628
-1.73239
-1.66641
-2.42637
-2.4538
-1.93275
-1.76682
-1.61583
-1.56555
-2.34699
-2.12602
-2.80814
-2.57581
-3.18601
-3.01705
-3.35305
-3.30109
-3.25171
-3.33463
-2.92135
-3.11151
-2.46901
-2.6998
-2.0219
-2.2397
-1.66409
-1.82825
-1.42982
-1.5327
-1.30326
-1.35351
-1.27665
-1.27817
-1.3421
-1.29795
-1.50419
-1.41031
-1.77233
-1.6249
-2.14457
-1.94545
-2.35808
-2.65613
-2.68437
-1.98983
-2.42712
-2.20196
-1.63193
-1.79743
-1.38735
-1.4957
-1.24641
-1.30483
-1.19416
-1.20985
-1.22622
-1.19929
-1.35296
-1.27714
-1.57313
-1.45254
-1.8813
-1.71889
-2.23901
-2.05774
-2.54917
-2.4087
-2.71306
-2.65468
-2.67058
-2.71751
-2.44587
-2.57682
-2.12668
-2.29135
-1.81281
-1.96521
-1.56645
-1.67857
-1.48234
-1.63785
-2.57755
-2.65459
-1.49809
-1.42805
-1.54774
-1.53709
-1.94859
-1.63328
-1.77292
-2.38781
-2.15618
-2.86384
-2.62832
-3.24773
-3.07561
-3.417
-3.36531
-3.31041
-3.39728
-2.96775
-3.16263
-2.50435
-2.74479
-2.04724
-2.26725
-1.67318
-1.84565
-1.4249
-1.53389
-1.28823
-1.34364
-1.25041
-1.2576
-1.30401
-1.26595
-1.45216
-1.36563
-1.70425
-1.56499
-2.05507
-1.86863
-2.87208
-2.78717
-2.45717
-2.25329
-2.34716
-2.56615
-2.86559
-2.8998
-1.9238
-2.12911
-1.57077
-1.73639
-1.32437
-1.43425
-1.17968
-1.24042
-1.12036
-1.14006
-1.13935
-1.11998
-1.24249
-1.1798
-1.43366
-1.3276
-1.70217
-1.56012
-2.00901
-1.85405
-2.27757
-2.15651
-2.41885
-2.36832
-2.38216
-2.42313
-2.18756
-2.30056
-1.91246
-2.05415
-1.64329
-1.77313
-1.43996
-1.53065
-1.3318
-1.37231
-1.53173
-1.40506
-1.31768
-1.46568
-2.65032
-2.77186
-1.49546
-1.46733
-1.41148
-1.3305
-1.49557
-2.30034
-2.47645
-3.04421
-2.94585
-1.41405
-1.4347
-1.35123
-1.37104
-1.60134
-1.48913
-1.93402
-1.75067
-2.37899
-2.14689
-2.85402
-2.61969
-3.24015
-3.06666
-3.40673
-3.35724
-3.29449
-3.38477
-2.95055
-3.14486
-2.48756
-2.72633
-2.02646
-2.25012
-1.6499
-1.82424
-1.39402
-1.50682
-1.25029
-1.30931
-1.20327
-1.21542
-1.24489
-1.2132
-1.37721
-1.29918
-1.60905
-1.48045
-1.9327
-1.76171
-2.11471
-3.05278
-2.82137
-2.96408
-3.08093
-2.22684
-2.6284
-2.43369
-1.82411
-2.02112
-1.48652
-1.64564
-1.24366
-1.35284
-1.09658
-1.15928
-1.03047
-1.05422
-1.0365
-1.02461
-1.11643
-1.06682
-1.27493
-1.18598
-1.502
-1.38167
-1.76128
-1.63056
-1.9883
-1.88458
-2.10645
-2.06461
-2.07521
-2.10989
-1.91167
-2.0065
-1.68233
-1.80016
-1.45995
-1.5666
-1.2956
-1.36825
-1.21651
-1.2449
-1.22855
-1.21081
-1.37083
-1.27133
-1.47616
-1.46469
-2.63471
-2.79151
-1.43226
-1.44581
-1.39284
-1.34295
-1.43995
-1.23889
-1.24879
-1.48761
-1.26031
-1.2409
-1.34382
-1.29307
-1.54198
-1.42445
-1.88014
-1.69569
-2.31624
-2.0893
-2.78181
-2.55103
-3.16115
-2.99157
-3.32141
-3.27425
-3.20906
-3.29845
-2.87188
-3.06252
-2.41932
-2.65232
-1.9668
-2.18674
-1.5957
-1.76806
-1.33888
-1.4527
-1.19132
-1.2526
-1.13683
-1.15324
-1.16679
-1.14146
-1.28229
-1.21343
-1.49063
-1.37462
-1.78319
-1.62901
-2.11443
-1.94777
-2.4185
-2.27444
-2.95009
-2.52996
-2.75628
-3.1864
-3.09673
-3.17469
-3.21311
-2.91252
-3.07185
-2.44603
-2.70809
-2.59703
-2.07587
-2.26684
-1.69953
-1.8843
-1.38122
-1.53036
-1.14841
-1.25376
-1.00162
-1.06515
-0.929448
-0.957024
-0.923103
-0.918358
-0.981444
-0.944005
-1.10711
-1.03589
-1.29236
-1.19371
-1.5059
-1.39847
-1.69227
-1.60669
-1.78941
-1.75514
-1.76394
-1.79227
-1.6311
-1.70808
-1.44598
-1.541
-1.2676
-1.35292
-1.13813
-1.19476
-1.08309
-1.1005
-1.10977
-1.08667
-1.22583
-1.15541
-1.44711
-1.32594
-1.4863
-1.49212
-1.4643
-1.51196
-2.17288
-2.27618
-2.98164
-2.77554
-1.43672
-1.5429
-1.30437
-1.10892
-1.58849
-1.46168
-1.15161
-1.50689
-1.15003
-1.11494
-1.25327
-1.19427
-1.45595
-1.33803
-1.78413
-1.60639
-2.20089
-1.98392
-2.65118
-2.42755
-3.01477
-2.85301
-3.1674
-3.12264
-3.05953
-3.14516
-2.73682
-2.91908
-2.3052
-2.52741
-1.87199
-2.08311
-1.51332
-1.68031
-1.26174
-1.3738
-1.11364
-1.17579
-1.05371
-1.07348
-1.0727
-1.0536
-1.17044
-1.11141
-1.35273
-1.25084
-1.61295
-1.47495
-1.9069
-1.76098
-2.04809
-3.02705
-2.59791
-2.83321
-3.26035
-3.17188
-3.24756
-3.28584
-3.14416
-2.23423
-2.47706
-2.37121
-1.90129
-2.07351
-1.55292
-1.72393
-1.25697
-1.3956
-1.03878
-1.13786
-0.896377
-0.958774
-0.820296
-0.850721
-0.802996
-0.804644
-0.842019
-0.81547
-0.937637
-0.882854
-1.08323
-1.0053
-1.25343
-1.16772
-1.40221
-1.33378
-1.48011
-1.45256
-1.46048
-1.48264
-1.35632
-1.41663
-1.21175
-1.28595
-1.07324
-1.13928
-0.975469
-1.01757
-0.940967
-0.949488
-0.977987
-0.950414
-1.09601
-1.02567
-1.31732
-1.19169
-1.63954
-1.48307
-1.52193
-1.54928
-2.33943
-2.52989
-1.52091
-1.39338
-1.51424
-1.61168
-1.68641
-1.2285
-1.3095
-1.46522
-1.77629
-1.86862
-1.69488
-1.55324
-0.975672
-1.07743
-1.0202
-1.01577
-0.978867
-1.13703
-1.06983
-1.33957
-1.2247
-1.64805
-1.48188
-2.03983
-1.83501
-2.46777
-2.25558
-2.80995
-2.65785
-2.9544
-2.91179
-2.8549
-2.93438
-2.55459
-2.72422
-2.15233
-2.35953
-1.74647
-1.94468
-1.40725
-1.56563
-1.16599
-1.274
-1.0206
-1.0822
-0.957157
-0.979454
-0.966198
-0.952908
-1.04647
-0.997253
-1.20185
-1.11467
-1.42737
-1.30719
-1.68748
-1.5569
-1.9185
-1.81046
-2.06835
-2.00732
-2.62113
-2.09069
-2.35983
-3.04527
-2.85417
-3.27179
-3.18716
-3.2574
-3.29567
-2.99245
-3.15368
-2.53811
-2.78476
-2.21762
-2.27084
-2.26475
-2.00613
-2.12904
-1.70656
-1.86368
-1.39096
-1.54653
-1.11969
-1.24737
-0.917495
-1.0096
-0.782395
-0.842115
-0.705192
-0.737102
-0.679186
-0.686091
-0.701583
-0.684437
-0.771074
-0.730625
-0.881451
-0.822034
-1.01249
-0.946371
-1.12772
-1.07466
-1.18851
-1.16686
-1.17449
-1.19093
-1.09609
-1.14149
-0.987214
-1.04312
-0.882978
-0.932612
-0.811464
-0.841634
-0.793332
-0.794887
-0.837829
-0.807485
-0.953684
-0.88591
-1.16115
-1.04401
-1.50279
-1.31205
-1.95363
-1.73544
-1.59093
-1.14029
-1.62205
-1.78687
-1.80591
-2.49662
-2.23747
-1.64114
-1.75089
-1.62468
-1.87662
-2.01631
-2.14929
-2.25591
-2.00837
-1.6347
-0.89269
-1.24602
-1.00714
-0.938929
-0.82743
-0.856688
-0.864599
-0.830111
-0.99343
-0.921661
-1.19107
-1.0816
-1.47754
-1.32354
-1.84408
-1.65182
-2.24352
-2.04626
-2.56058
-2.41949
-2.69636
-2.65545
-2.60784
-2.67961
-2.33483
-2.48907
-1.96871
-2.15743
-1.59696
-1.77896
-1.28258
-1.4299
-1.05565
-1.15771
-0.915789
-0.975607
-0.850568
-0.874614
-0.85085
-0.842837
-0.914494
-0.874667
-1.04392
-0.97092
-1.23482
-1.13274
-1.4592
-1.34577
-1.65921
-1.56738
-1.73499
-2.59535
-2.06729
-2.3416
-3.00677
-2.82058
-3.22224
-3.14279
-3.20204
-3.24207
-2.9448
-3.10183
-2.73856
-1.94892
-1.99691
-1.99042
-1.76901
-1.8745
-1.50173
-1.64155
-1.2204
-1.35906
-0.97593
-1.09157
-0.790419
-0.875392
-0.663609
-0.720111
-0.587196
-0.619572
-0.554791
-0.565757
-0.563393
-0.554109
-0.610863
-0.582494
-0.691321
-0.647692
-0.788718
-0.739435
-0.87517
-0.835275
-0.921443
-0.90476
-0.912464
-0.923917
-0.855987
-0.88877
-0.776877
-0.817573
-0.700942
-0.737032
-0.651187
-0.67145
-0.646221
-0.642376
-0.694547
-0.663372
-0.804798
-0.741104
-0.995732
-0.888357
-1.30178
-1.13245
-1.74766
-1.50785
-1.57896
-1.42827
-2.3092
-2.01146
-1.70236
-1.79096
-1.96275
-1.09812
-1.77313
-1.37203
-1.76288
-1.93629
-1.76746
-2.11804
-2.30768
-2.47402
-2.58785
-2.61398
-2.27845
-1.75855
-0.770408
-1.20766
-0.904382
-0.826658
-0.705096
-0.732543
-0.673251
-0.684877
-0.712701
-0.681285
-0.836183
-0.766456
-1.02366
-0.920936
-1.28978
-1.14658
-1.63037
-1.45227
-1.99405
-1.81526
-2.28188
-2.15352
-2.40721
-2.36871
-2.33077
-2.39377
-2.08927
-2.22576
-1.76407
-1.932
-1.43052
-1.59434
-1.14458
-1.27908
-0.935025
-1.02972
-0.802894
-0.859916
-0.737632
-0.762594
-0.73062
-0.727187
-0.778934
-0.747855
-0.883787
-0.824246
-1.0417
-0.956915
-1.23007
-1.13452
-1.40258
-1.3219
-1.50685
-1.46493
-1.5205
-1.52709
-2.01441
-1.48774
-1.74851
-2.52241
-2.27763
-2.91447
-2.73781
-3.11524
-3.04242
-3.08663
-3.12952
-2.83982
-2.98935
-2.41163
-2.64154
-1.88969
-2.15758
-1.71706
-1.61944
-1.6852
-1.68477
-1.7174
-1.52582
-1.61787
-1.29354
-1.41532
-1.0469
-1.16868
-0.830225
-0.933139
-0.662514
-0.739877
-0.544687
-0.597686
-0.470166
-0.502405
-0.433183
-0.447221
-0.430613
-0.427751
-0.459945
-0.441523
-0.515778
-0.485144
-0.585467
-0.550051
-0.648259
-0.61917
-0.682777
-0.670083
-0.678068
-0.685377
-0.639526
-0.662042
-0.584302
-0.612837
-0.53085
-0.556192
-0.498307
-0.510765
-0.502999
-0.495385
-0.55218
-0.521729
-0.654012
-0.595651
-0.826474
-0.729897
-1.09708
-0.947856
-1.48352
-1.27655
-1.93884
-1.71028
-1.72461
-1.57561
-2.5273
-2.15257
-1.85824
-1.95108
-0.994551
-1.33096
-1.50812
-1.9355
-2.17436
-1.25538
-1.22893
-1.78177
-1.52753
-1.94242
-2.41464
-2.64848
-2.83302
-2.92718
-2.89547
-1.08737
-0.768778
-0.834165
-2.7345
-2.32597
-1.18369
-1.92702
-0.652049
-0.706713
-0.565756
-0.601533
-0.53297
-0.54561
-0.526586
-0.525347
-0.571603
-0.540903
-0.683609
-0.619857
-0.857525
-0.762304
-1.10257
-0.970946
-1.40988
-1.25044
-1.73129
-1.57339
-1.98725
-1.87278
-2.1009
-2.06526
-2.03756
-2.09094
-1.82974
-1.94742
-1.54741
-1.69358
-1.25407
-1.39869
-0.998683
-1.11932
-0.808353
-0.894794
-0.685625
-0.739038
-0.6217
-0.646926
-0.608753
-0.609184
-0.64355
-0.620238
-0.72623
-0.678905
-0.853755
-0.785061
-1.00812
-0.929575
-1.15218
-1.08425
-1.2402
-1.20605
-1.25844
-1.93484
-1.42956
-1.6832
-2.41042
-2.18048
-2.77579
-2.61187
-2.95874
-2.89353
-2.92318
-2.96808
-2.68584
-2.82787
-2.28318
-2.50025
-2.04045
-1.44787
-1.36115
-1.41682
-1.42472
-1.45322
-1.28778
-1.36716
-1.08863
-1.19297
-0.87568
-0.981185
-0.68616
-0.776532
-0.536731
-0.606119
-0.428762
-0.477812
-0.357256
-0.388776
-0.31731
-0.333547
-0.305964
-0.308211
-0.320708
-0.310292
-0.356802
-0.336569
-0.404418
-0.380033
-0.448466
-0.427919
-0.473756
-0.464187
-0.472407
-0.476459
-0.4478
-0.46239
-0.410787
-0.430076
-0.374467
-0.3916
-0.355095
-0.361603
-0.36659
-0.356506
-0.414882
-0.385854
-0.507094
-0.454766
-0.658879
-0.574223
-0.89291
-0.764181
-1.2232
-1.04685
-1.60241
-1.41308
-1.92027
-1.77898
-1.45467
-2.43953
-2.87184
-2.48947
-2.06002
-2.01673
-1.91767
-1.73357
-2.05685
-2.18027
-1.18503
-1.28193
-1.65751
-2.1521
-2.46855
-2.16572
-2.76349
-3.02792
-3.20442
-3.24805
-3.13437
-0.894231
-0.583223
-0.618296
-1.65229
-1.64026
-2.046
-0.95043
-1.26828
-1.57593
-2.94249
-2.46502
-2.14352
-0.508588
-0.545472
-0.442797
-0.473959
-0.391109
-0.41344
-0.377597
-0.380592
-0.389887
-0.380103
-0.439818
-0.409172
-0.54067
-0.48346
-0.698572
-0.612098
-0.917716
-0.800675
-1.18584
-1.0474
-1.46516
-1.32765
-1.68919
-1.58882
-1.79092
-1.75822
-1.74084
-1.7845
-1.56699
-1.66572
-1.32764
-1.45203
-1.07446
-1.19989
-0.849926
-0.956491
-0.679595
-0.75734
-0.567297
-0.616575
-0.505906
-0.530767
-0.488485
-0.492017
-0.511573
-0.495066
-0.574558
-0.538101
-0.674907
-0.620583
-0.798536
-0.735367
-0.915664
-0.860153
-0.990653
-0.960478
-1.00235
-1.0039
-0.95108
-0.982918
-1.35777
-0.908604
-1.1262
-1.83288
-1.59612
-2.27015
-2.05999
-2.60246
-2.45385
-2.765
-2.70808
-2.7242
-2.77004
-2.49546
-2.63103
-2.11736
-2.32208
-1.65222
-1.89054
-1.18167
-1.41477
-1.11676
-0.963259
-1.04922
-1.19704
-1.16716
-1.17504
-1.19904
-1.06082
-1.12732
-0.892498
-0.980757
-0.711068
-0.801229
-0.547173
-0.625666
-0.41546
-0.476993
-0.317741
-0.362538
-0.250322
-0.280521
-0.20909
-0.226624
-0.191316
-0.197406
-0.194723
-0.190562
-0.21539
-0.203277
-0.245881
-0.230032
-0.27549
-0.261511
-0.293698
-0.286533
-0.294822
-0.29645
-0.280496
-0.289264
-0.256794
-0.26933
-0.233145
-0.244162
-0.223558
-0.2257
-0.239266
-0.227911
-0.284627
-0.25799
-0.366263
-0.320255
-0.496822
-0.424438
-0.694267
-0.585971
-0.970425
-0.823108
-1.2849
-1.12878
-1.53121
-1.42322
-1.61123
-2.13158
-1.90494
-1.97166
-1.57698
-2.29926
-2.46414
-1.81075
-2.41399
-2.81717
-0.732755
-0.701338
-1.07187
-0.865464
-2.42285
-3.15496
-3.42512
-3.56223
-3.52807
-3.3145
-0.646483
-0.363141
-0.380905
-0.670854
-0.988186
-1.33224
-1.67924
-2.94928
-2.40614
-1.46986
-1.85154
-2.41136
-0.326877
-0.341773
-0.296061
-0.312758
-0.25921
-0.276959
-0.234163
-0.244353
-0.234908
-0.2313
-0.258502
-0.243834
-0.310564
-0.280349
-0.401783
-0.350565
-0.542269
-0.465492
-0.733872
-0.632041
-0.965342
-0.845934
-1.20609
-1.0877
-1.39887
-1.31235
-1.48893
-1.4591
-1.45183
-1.48598
-1.31076
-1.39129
-1.11224
-1.21599
-0.897229
-1.00438
-0.702544
-0.795394
-0.552191
-0.62116
-0.450845
-0.495672
-0.392861
-0.416885
-0.372214
-0.378156
-0.385569
-0.374768
-0.43172
-0.404603
-0.508429
-0.466655
-0.604935
-0.555411
-0.697966
-0.653699
-0.759719
-0.734331
-0.770414
-0.772634
-0.756444
-1.27702
-0.856699
-1.06306
-1.71572
-1.49718
-2.11259
-1.92305
-2.40846
-2.27689
-2.54823
-2.50051
-2.50252
-2.54875
-2.28333
-2.41238
-1.93227
-2.12125
-1.50627
-1.7238
-1.28647
-0.891548
-0.761177
-0.832435
-0.961683
-0.937239
-0.94269
-0.962777
-0.849083
-0.903647
-0.709079
-0.782698
-0.556224
-0.632389
-0.415997
-0.483465
-0.300953
-0.355027
-0.213314
-0.253825
-0.150591
-0.179059
-0.109495
-0.127517
-0.0874954
-0.0962353
-0.0825224
-0.0830378
-0.0914933
-0.0855477
-0.109029
-0.0996256
-0.127779
-0.118734
-0.140653
-0.135306
-0.143469
-0.143399
-0.136238
-0.140995
-0.121751
-0.1296
-0.107139
-0.113752
-0.104463
-0.103582
-0.122413
-0.110632
-0.164169
-0.140103
-0.235092
-0.195467
-0.345112
-0.284462
-0.507542
-0.418897
-0.731437
-0.612113
-0.988948
-0.860595
-1.18471
-1.10104
-1.26579
-1.23935
-1.20553
-1.2563
-1.32926
-1.01193
-1.12188
-2.37579
-2.1045
-2.59126
-2.80275
-0.662561
-0.678342
-1.96319
-2.71485
-3.21109
-2.70313
-3.56841
-3.81016
-3.87637
-3.74367
-3.41836
-0.384009
-0.147275
-0.140508
-0.724029
-0.622826
-0.878906
-0.375832
-0.672307
-0.998769
-1.37203
-1.75477
-2.89035
-2.28535
-1.69474
-1.17222
-2.73097
-0.1364
-0.144582
-0.123106
-0.127507
-0.113968
-0.120416
-0.0974306
-0.105142
-0.0913985
-0.0927048
-0.102853
-0.0946464
-0.132819
-0.115587
-0.185055
-0.155608
-0.268494
-0.222266
-0.392612
-0.325079
-0.558984
-0.470865
-0.757806
-0.655485
-0.961895
-0.861878
-1.12515
-1.0516
-1.20438
-1.1772
-1.17934
-1.20469
-1.0684
-1.13223
-0.907143
-0.992078
-0.727042
-0.817417
-0.560215
-0.640168
-0.429056
-0.489519
-0.338686
-0.37897
-0.284726
-0.307534
-0.262013
-0.269719
-0.26743
-0.26134
-0.299463
-0.280196
-0.356133
-0.325014
-0.4294
-0.391589
-0.501501
-0.46699
-0.550398
-0.530073
-0.560959
-0.560525
-0.533606
-0.552118
-0.483085
-0.510085
-0.804174
-0.451999
-0.620562
-1.19395
-0.996285
-1.59272
-1.39519
-1.94848
-1.77937
-2.20726
-2.09321
-2.32279
-2.28507
-2.27167
-2.31821
-2.06425
-2.18547
-1.74091
-1.91404
-1.35459
-1.55191
-0.953767
-1.15192
-0.594513
-0.766537
-0.576751
-0.439669
-0.510274
-0.687629
-0.637346
-0.746512
-0.726318
-0.731728
-0.747683
-0.65567
-0.700024
-0.540732
-0.60133
-0.413326
-0.477034
-0.294439
-0.351911
-0.194811
-0.241927
-0.116872
-0.153189
-0.0590909
-0.0856199
-0.0190561
-0.0370047
0.00542466
-0.00499133
0.0162519
0.0124151
0.015804
0.0172363
0.00776802
0.0124465
-0.00303963
0.00239637
-0.0119589
-0.00797241
-0.015804
-0.0146575
-0.0130653
-0.0152607
-0.00460808
-0.00934367
0.00367137
0.00017879
0.00158599
0.00447698
-0.0169328
-0.00549917
-0.0540561
-0.0329663
-0.114458
-0.0809445
-0.205599
-0.155624
-0.337313
-0.265772
-0.515359
-0.420843
-0.719385
-0.617309
-0.879437
-0.810667
-0.925865
-0.917871
-0.864508
-0.906176
-0.805843
-2.63277
-2.30794
-0.737552
-0.510158
-2.92611
-3.18704
-2.10004
-3.04052
-3.62906
-0.317347
-0.294749
-0.512362
-0.371295
-2.98768
-3.9722
-4.15055
-4.11999
-3.87895
-3.43115
-0.129347
0.0581881
0.0622457
-0.113654
-0.351995
-0.651348
-0.994575
-1.37535
-1.79999
-2.75486
-2.11001
-1.51058
-1.00655
-0.395908
-0.600844
-3.09578
0.0442907
0.052205
0.039445
0.0392872
0.0429111
0.0424539
0.0418382
0.0416837
0.0428876
0.0428116
0.0354647
0.0405172
0.0156581
0.0273731
-0.01886
0.000226393
-0.0710191
-0.0422895
-0.147801
-0.105895
-0.256588
-0.197838
-0.399283
-0.323961
-0.567262
-0.481175
-0.737485
-0.65414
-0.874523
-0.812555
-0.943755
-0.919075
-0.929584
-0.947008
-0.845399
-0.894481
-0.716597
-0.785183
-0.567151
-0.642701
-0.425553
-0.493721
-0.312359
-0.364787
-0.232665
-0.268465
-0.183079
-0.204422
-0.159264
-0.168172
-0.15844
-0.156108
-0.178973
-0.166128
-0.219053
-0.196785
-0.272824
-0.24488
-0.327058
-0.300943
-0.364798
-0.348933
-0.37479
-0.373468
-0.354695
-0.368774
-0.337726
-0.753804
-0.420145
-0.58327
-1.11314
-0.93107
-1.47212
-1.29511
-1.78738
-1.63828
-2.01024
-1.91316
-2.10164
-2.07404
-2.04443
-2.09157
-1.84925
-1.9623
-1.55216
-1.71059
-1.20157
-1.38069
-0.838338
-1.01809
-0.668794
-0.414606
-0.303331
-0.360105
-0.506964
-0.464459
-0.553863
-0.537224
-0.543357
-0.555559
-0.482411
-0.518137
-0.388847
-0.438311
-0.283651
-0.336457
-0.183631
-0.232234
-0.0979471
-0.138718
-0.0291731
-0.0614622
0.0235434
-0.000916722
0.0619188
0.0444102
0.0876555
0.0762634
0.102376
0.0962874
0.10788
0.106144
0.106544
0.107888
0.101335
0.104227
0.0952887
0.0982493
0.0910963
0.0927714
0.0913266
0.0905773
0.0961159
0.0933355
0.100095
0.0987566
0.0949824
0.0990491
0.0769707
0.0876492
0.0445557
0.0627308
-0.00589921
0.0218815
-0.0798227
-0.0395288
-0.184257
-0.127778
-0.323477
-0.249736
-0.482472
-0.402829
-0.610266
-0.554687
-0.641006
-0.640295
-0.576605
-0.616748
-0.463529
-0.52525
-0.307164
-0.391775
-0.289876
-0.133438
-0.218484
-2.87843
-2.49929
-3.2871
-3.5977
-0.272371
-0.243501
-2.20996
-3.36804
-4.0403
-3.25214
-4.33219
-4.41705
-4.27543
-3.93165
-3.37929
0.0712122
0.207235
0.206408
0.00373561
0.0696112
-0.0513624
0.0780523
-0.0946616
-0.319351
-0.610369
-0.959644
-1.36268
-1.79494
-2.55365
-1.89551
-1.31538
-0.842654
-0.475484
-0.19238
-3.48715
0.202703
0.206483
0.193068
0.199606
0.182
0.185299
0.179162
0.181253
0.171411
0.175479
0.161372
0.166858
0.144522
0.15406
0.118078
0.13264
0.0803145
0.100624
0.0292374
0.0567659
-0.0404641
-0.00296271
-0.134422
-0.0840805
-0.255212
-0.191651
-0.395367
-0.323794
-0.536427
-0.467324
-0.650738
-0.598844
-0.711393
-0.688932
-0.706356
-0.716979
-0.644733
-0.681489
-0.542962
-0.597896
-0.419726
-0.482477
-0.300503
-0.358126
-0.203727
-0.248757
-0.134101
-0.165618
-0.0890326
-0.108753
-0.0649238
-0.0745472
-0.0593542
-0.0599399
-0.07073
-0.0630164
-0.0973916
-0.0823116
-0.135162
-0.115348
-0.174481
-0.155424
-0.202579
-0.190662
-0.210566
-0.2093
-0.19682
-0.206219
-0.169294
-0.183703
-0.140814
-0.15437
-0.394996
-0.130092
-0.255368
-0.707337
-0.547347
-1.03706
-0.871256
-1.35966
-1.20138
-1.63675
-1.50658
-1.82603
-1.74476
-1.89478
-1.87677
-1.83099
-1.87921
-1.64652
-1.75221
-1.37334
-1.51847
-1.05473
-1.21715
-0.729905
-0.890413
-0.433616
-0.576219
-0.187874
-0.303913
-0.180391
-0.0867446
-0.132826
-0.27297
-0.227862
-0.347604
-0.313749
-0.385247
-0.371755
-0.377847
-0.387144
-0.329588
-0.358071
-0.25404
-0.29415
-0.167719
-0.211237
-0.0840949
-0.124957
-0.0107968
-0.0459013
0.04955
0.021016
0.097232
0.0748995
0.133487
0.116702
0.159582
0.147724
0.176745
0.169202
0.186222
0.18236
0.189405
0.1885
0.187979
0.189147
0.18405
0.186184
0.180081
0.181859
0.179296
0.179163
0.181958
0.180386
0.182981
0.183144
0.176166
0.180763
0.159528
0.169099
0.131925
0.147244
0.090538
0.113157
0.0316445
0.0635558
-0.0495275
-0.00586545
-0.155871
-0.0996655
-0.277994
-0.216516
-0.378578
-0.334484
-0.403669
-0.40299
-0.344183
-0.382517
-0.242263
-0.296074
-0.123777
-0.184835
-0.0609696
-3.09021
-2.65729
0.0251483
0.133534
-3.64977
-4.00465
-2.28575
-3.66948
-4.40927
-0.0219011
-0.0146004
-0.134908
-0.0425731
-3.46947
-4.61651
-4.58827
-4.33003
-3.85186
-3.22928
0.203561
0.302722
0.291896
0.196527
0.0840143
-0.0750199
-0.2808
-0.558211
-0.89978
-1.31501
-1.77821
-2.30395
-1.66274
-1.12162
-0.689845
-0.359497
-0.102829
0.194928
0.0962382
-3.87719
0.315971
0.311776
0.31394
0.315742
0.308511
0.311857
0.297825
0.302401
0.290521
0.294631
0.277663
0.28469
0.260356
0.269561
0.237138
0.249665
0.206418
0.222748
0.167441
0.187993
0.118649
0.144508
0.0559449
0.089297
-0.0253094
0.0179399
-0.12744
-0.07397
-0.243944
-0.184614
-0.360434
-0.303404
-0.455369
-0.412018
-0.508813
-0.488232
-0.511056
-0.516244
-0.467458
-0.494377
-0.387348
-0.43129
-0.285909
-0.337883
-0.186134
-0.234501
-0.104086
-0.142426
-0.0437959
-0.0712923
-0.0032462
-0.0212608
0.0205263
0.0105787
0.0295586
0.0267855
0.0252781
0.0289943
0.00918578
0.0185803
-0.0157385
-0.00248738
-0.0428471
-0.0296014
-0.0626194
-0.0542277
-0.0684556
-0.0672367
-0.059045
-0.0655766
-0.039926
-0.0499633
-0.0302289
-0.376495
-0.121274
-0.244785
-0.666434
-0.517722
-0.969138
-0.81759
-1.25929
-1.11784
-1.50173
-1.38879
-1.66044
-1.59354
-1.70863
-1.69935
-1.63816
-1.68785
-1.46208
-1.56176
-1.20992
-1.34322
-0.920155
-1.06743
-0.628148
-0.772373
-0.359772
-0.489781
-0.240619
-0.0754627
0.000883573
-0.0368882
-0.150398
-0.114234
-0.209628
-0.182818
-0.239944
-0.229059
-0.234678
-0.241847
-0.19662
-0.219205
-0.136024
-0.168356
-0.0654979
-0.101242
0.00416969
-0.0300618
0.066623
0.0365167
0.119379
0.0942584
0.162273
0.142015
0.196123
0.180261
0.22188
0.209953
0.240382
0.231989
0.252336
0.247135
0.258389
0.256052
0.259427
0.259454
0.257114
0.258547
0.253914
0.255399
0.253046
0.253058
0.254512
0.253716
0.253523
0.254672
0.246017
0.250675
0.231206
0.239543
0.208126
0.220813
0.174774
0.192869
0.1287
0.153504
0.0669065
0.0999417
-0.0123471
0.0294032
-0.10371
-0.0574457
-0.182111
-0.147149
-0.205648
-0.20279
-0.159094
-0.190447
-0.0690249
-0.117001
0.0303064
-0.0190876
0.126867
0.0787273
0.225554
0.175199
0.252024
0.324756
0.276501
-3.23907
-2.76283
-3.98281
-4.37323
-0.0103606
0.0377206
-2.342
-3.9154
-4.703
-3.61296
-4.80085
-4.64875
-4.25881
-3.68163
-3.00056
0.277255
0.353438
0.33916
0.259937
0.185049
0.0863644
-0.0572095
-0.243114
-0.502559
-0.824972
-1.23834
-1.70798
-2.02956
-1.42879
-0.93808
-0.554113
-0.255764
-0.0223216
0.163016
0.382493
0.371376
0.422447
-4.23258
0.381606
0.368805
0.398178
0.390897
0.401705
0.40122
0.399658
0.401031
0.391284
0.395979
0.380981
0.386539
0.365069
0.373788
0.343607
0.354968
0.316743
0.330926
0.283903
0.301061
0.244756
0.265162
0.198125
0.222525
0.141037
0.171111
0.0698791
0.107413
-0.0164744
0.0284305
-0.113225
-0.0640829
-0.209156
-0.162246
-0.288126
-0.251774
-0.335436
-0.316489
-0.34318
-0.344262
-0.313028
-0.332619
-0.249468
-0.284892
-0.165909
-0.208883
-0.082949
-0.123239
-0.0139811
-0.0463452
0.0378196
0.0140093
0.0740166
0.0577065
0.0969789
0.0870204
0.108402
0.104052
0.109471
0.110152
0.101497
0.106514
0.0866015
0.0946951
0.069286
0.0778578
0.056422
0.0618177
0.0527197
0.0542392
0.059033
0.0546523
0.0724165
0.0651114
0.083809
0.0785426
0.0867337
0.0875188
-0.118983
0.0828732
-0.0119654
-0.363223
-0.237008
-0.633392
-0.495935
-0.91215
-0.773032
-1.17362
-1.04705
-1.38537
-1.28771
-1.51679
-1.46275
-1.5465
-1.54509
-1.46955
-1.52089
-1.29972
-1.39472
-1.06507
-1.18838
-0.799794
-0.934258
-0.534624
-0.665463
-0.291904
-0.409606
-0.086271
-0.183139
0.073617
-0.0012761
0.0769252
0.138008
0.10783
0.0135351
0.0451732
-0.0455374
-0.0169194
-0.0921556
-0.0711322
-0.116271
-0.107537
-0.112413
-0.117926
-0.082409
-0.10027
-0.0338809
-0.0598755
0.0235682
-0.00569861
0.0815255
0.0528953
0.134651
0.108891
0.180663
0.158598
0.219141
0.200824
0.250518
0.23567
0.27545
0.263749
0.294441
0.285665
0.307729
0.301789
0.315433
0.312264
0.318017
0.317298
0.317194
0.317858
0.314934
0.315962
0.314577
0.314447
0.315251
0.315024
0.312967
0.314695
0.305549
0.309915
0.29282
0.299874
0.27394
0.284229
0.247599
0.261784
0.212262
0.231164
0.166186
0.190654
0.108594
0.138782
0.0426018
0.0761205
-0.016646
0.0104419
-0.0395154
-0.0343725
-0.0087952
-0.030813
0.063215
0.0237681
0.148036
0.105648
0.227756
0.188775
0.304996
0.266205
0.343859
-3.2895
-2.80219
0.305971
-4.25489
-4.66959
-2.26137
-4.08054
-4.89514
0.17317
0.168064
0.106603
0.166541
-3.65878
-4.86788
-4.58355
-4.07997
-3.42686
-2.71523
0.3221
0.385341
0.368304
0.417218
0.461362
0.303751
0.246455
0.171893
0.0814105
-0.0438044
-0.210994
-0.446701
-0.744194
-1.14228
-1.60182
-1.75232
-1.20813
-0.772462
-0.431933
-0.163176
0.0509587
0.22227
-4.51972
0.416386
0.400998
0.442526
0.430283
0.460527
0.45191
0.470539
0.466816
0.471948
0.472073
0.465789
0.469804
0.454387
0.460639
0.437164
0.446586
0.41382
0.426196
0.385075
0.400126
0.351016
0.368683
0.311799
0.332061
0.266966
0.290171
0.21446
0.24184
0.151932
0.184545
0.0787466
0.116596
-0.00182527
0.0389482
-0.0810319
-0.0423048
-0.147305
-0.116521
-0.189189
-0.171847
-0.200574
-0.198851
-0.179666
-0.19419
-0.128371
-0.157307
-0.059469
-0.0949263
0.00903914
-0.0242637
0.0665543
0.0394458
0.110752
0.0902732
0.142828
0.128181
0.16463
0.154906
0.177555
0.172136
0.182537
0.180975
0.180627
0.182363
0.173379
0.177525
0.163687
0.168593
0.155755
0.159239
0.154169
0.153172
0.159417
0.15613
0.168125
0.163651
0.174466
0.171461
0.175245
-0.123012
0.0758136
-0.0195698
-0.355792
-0.235301
-0.609727
-0.481106
-0.867771
-0.739577
-1.10413
-0.990545
-1.2891
-1.20481
-1.39643
-1.35379
-1.40946
-1.41522
-1.32618
-1.37932
-1.16079
-1.25229
-0.939804
-1.05529
-0.69417
-0.818298
-0.451129
-0.570807
-0.230132
-0.33719
-0.0421125
-0.131011
0.0376897
0.141703
0.192952
0.167668
0.089699
0.115207
0.0430442
0.0655279
0.00667968
0.0231065
-0.0120977
-0.00527588
-0.00909388
-0.0133703
0.0146518
0.00045731
0.0535803
0.0326632
0.100419
0.076465
0.148639
0.124689
0.193856
0.171802
0.233979
0.214607
0.268447
0.251914
0.297416
0.283595
0.321231
0.309948
0.340079
0.331274
0.353848
0.347613
0.36233
0.358751
0.365846
0.364641
0.366664
0.366286
0.36523
0.36568
0.36555
0.365236
0.3656
0.365813
0.362621
0.36459
0.355803
0.359677
0.345164
0.35099
0.33004
0.338212
0.309635
0.320546
0.283075
0.29718
0.249529
0.267209
0.208842
0.230029
0.163111
0.186293
0.120955
0.140636
0.10053
0.106736
0.117611
0.104015
0.169416
0.140128
0.237041
0.202507
0.304535
0.271374
0.367991
0.336591
0.430381
0.399184
0.494595
0.462476
0.55097
0.498171
0.525463
-3.26024
-2.73129
0.357309
-4.43881
-4.86598
0.159613
0.217334
-2.16203
0.459575
-4.15433
-4.96758
0.529315
-3.67218
-4.80669
-4.40051
-3.80569
-3.10801
-2.39909
0.34654
0.281305
0.229036
0.159692
0.0730837
-0.038533
-0.185899
-0.396591
-0.663915
-1.03641
-1.47212
-1.49107
-1.00935
-0.626432
-0.322773
-0.0789798
0.11895
0.279117
-4.7112
0.403535
0.320815
0.355277
0.381058
0.436072
0.420818
0.464903
0.450464
0.489948
0.478028
0.509205
0.500168
0.522958
0.51697
0.528547
0.526819
0.525081
0.528201
0.513673
0.520123
0.49606
0.505686
0.472021
0.484804
0.442323
0.457838
0.407675
0.425555
0.368903
0.388776
0.32601
0.348028
0.277657
0.302616
0.222433
0.250973
0.159719
0.19196
0.0921193
0.126187
0.0260863
0.0584027
-0.0298867
-0.00371655
-0.0671307
-0.05125
-0.080321
-0.0770548
-0.0649705
-0.0763536
-0.0226318
-0.0466016
0.0340688
0.00497005
0.0901566
0.062875
0.137733
0.115201
0.175208
0.157699
0.203466
0.1904
0.223889
0.214571
0.237601
0.23153
0.245324
0.242166
0.247835
0.247168
0.24624
0.247459
0.242372
0.244434
0.238925
0.240413
0.239168
0.238168
0.243438
0.240946
0.248976
0.246254
0.251781
0.250963
0.247602
0.25069
0.231415
0.241392
0.0631059
0.217572
0.145925
-0.131918
-0.0304353
-0.355201
-0.240489
-0.596188
-0.474449
-0.836773
-0.717952
-1.05148
-0.949089
-1.21325
-1.14056
-1.29939
-1.26684