/*--------------------------------*- C++ -*----------------------------------*\
  =========                 |
  \\      /  F ield         | OpenFOAM: The Open Source CFD Toolbox
   \\    /   O peration     | Website:  https://openfoam.org
    \\  /    A nd           | Version:  10
     \\/     M anipulation  |
\*---------------------------------------------------------------------------*/
FoamFile
{
    format      ascii;
    class       volVectorField;
    location    "34.5";
    object      U;
}
// * * * * * * * * * * * * * * * * * * * * * * * * * * * * * * * * * * * * * //

dimensions      [0 1 -1 0 0 0 0];

internalField   nonuniform List<vector> 
28942
(
(-0.627102 0.314315 -5.86054e-19)
(-0.655612 0.293182 -1.2316e-19)
(1.65567 -1.16964 9.57056e-20)
(2.5303 0.048713 -8.11088e-19)
(2.49235 0.0781804 2.69664e-19)
(1.13796 0.0583752 0)
(1.32971 0.0822653 -3.41667e-21)
(1.48649 0.051853 3.82933e-21)
(2.87769 -0.28102 -5.40932e-20)
(2.85846 -0.259014 1.52707e-19)
(-0.503993 0.334952 -7.85433e-19)
(-0.291758 0.0358591 3.65329e-19)
(-0.138605 0.312195 0)
(-0.150339 0.427573 0)
(2.52065 -0.119197 4.81675e-22)
(2.55372 -0.119144 2.91565e-23)
(2.37205 0.381023 1.59473e-19)
(2.3379 0.340125 2.57951e-19)
(0.952568 -1.44881 8.99069e-19)
(1.51492 -1.58421 -2.58373e-19)
(2.59888 0.691754 1.77409e-19)
(2.61066 0.671977 0)
(0.0192874 0.51549 6.96213e-19)
(-0.238062 0.19139 3.66267e-19)
(2.36388 -0.705467 7.75386e-19)
(3.06279 -0.887694 -7.01519e-19)
(0.69226 -0.995958 2.92562e-18)
(0.70216 -0.767775 -1.13556e-18)
(1.95768 -1.39688 1.23628e-19)
(1.46036 -0.981546 4.17278e-20)
(1.13741 -0.0456858 0)
(1.54875 -0.0789813 7.69664e-21)
(1.91959 -0.123675 2.25367e-20)
(2.25785 -0.106228 7.57295e-21)
(1.58582 2.22376 -3.1313e-19)
(1.14115 2.40018 4.54399e-19)
(1.78132 2.17636 -4.50037e-19)
(1.39166 2.22315 -2.21922e-19)
(0.516578 0.0525833 4.06332e-21)
(0.638766 2.22559 -8.00463e-21)
(2.03817 -0.0241811 0)
(2.35965 -0.0746168 0)
(2.29527 0.647834 -9.30714e-21)
(2.28564 0.69533 2.56267e-20)
(2.41404 0.626219 2.39009e-20)
(1.90746 0.0663719 -1.94299e-21)
(1.8725 0.084218 3.47443e-21)
(2.2776 0.0779461 9.05508e-21)
(2.21993 0.0789328 -2.43318e-21)
(1.97745 0.0777046 1.09685e-20)
(1.8285 0.0930254 -6.30136e-21)
(2.77575 -0.0435156 -1.0663e-19)
(2.76898 -0.0544622 -9.32809e-20)
(2.87125 -0.306627 -1.03512e-21)
(2.84834 -0.283545 2.91153e-20)
(3.28554 -0.416585 6.20245e-19)
(3.64479 -0.52354 2.92593e-19)
(0.138797 0.343682 -4.4512e-19)
(-0.135336 0.273966 0)
(-0.115415 0.380697 1.60315e-19)
(0.0718688 0.333188 3.93065e-19)
(0.162608 0.198509 -3.04906e-19)
(0.211687 0.231508 -3.26428e-19)
(3.05787 -1.14406 0)
(3.50746 -1.03935 6.4379e-20)
(3.09467 -0.871723 -2.32815e-20)
(3.01338 -0.826972 0)
(2.27544 -0.36625 -1.74746e-19)
(2.33225 -0.407559 -1.15967e-19)
(-0.331206 0.195492 1.91718e-18)
(-0.442564 0.250167 -5.99713e-19)
(-0.604078 0.388034 1.4885e-18)
(2.2812 -0.501198 0)
(2.27757 -0.449086 6.19913e-19)
(2.11989 -0.740362 1.73221e-19)
(4.07993 0.547056 5.26967e-19)
(4.15461 0.354604 -5.86274e-19)
(3.93502 0.237304 -3.77749e-19)
(0.554534 -0.300102 2.4341e-21)
(0.835907 -0.492888 -1.33033e-19)
(2.5396 -1.56085 9.67016e-22)
(2.31479 -1.51133 7.39403e-20)
(-0.635928 0.228504 2.96644e-18)
(-0.747661 0.233858 -1.1484e-18)
(3.61123 1.55018 -9.77763e-20)
(3.03279 1.26697 1.28654e-19)
(3.04784 1.88212 -1.68611e-19)
(2.98683 2.0043 6.37646e-19)
(2.95251 2.04397 -4.24181e-19)
(2.53606 1.82346 5.03753e-20)
(2.56453 1.99277 1.25821e-19)
(2.59852 2.10878 -1.47459e-19)
(-0.792847 1.69954 -1.43252e-19)
(-0.855248 1.11601 -3.09425e-20)
(-0.054655 1.16088 6.22431e-20)
(0.375828 1.45291 -1.03796e-18)
(0.116563 1.94403 1.318e-18)
(1.28236 1.49113 7.60179e-19)
(1.54401 1.74987 -2.20105e-19)
(-0.672011 -0.128683 0)
(2.51611 -0.00114473 0)
(2.43004 0.0777844 -5.51042e-19)
(2.4012 0.177024 4.59415e-19)
(2.60812 0.148987 0)
(3.24367 -0.398111 0)
(3.22103 -0.428128 0)
(3.27689 -0.448465 4.28954e-19)
(2.78238 0.392234 -2.06782e-20)
(2.777 0.431458 2.26208e-19)
(2.75601 0.376959 1.23431e-19)
(0.189183 0.392586 9.17717e-19)
(0.251431 0.471556 -1.03273e-18)
(-0.113175 0.284091 -1.03286e-18)
(-0.0343208 -0.0373088 9.61091e-19)
(-0.596628 0.127634 1.98306e-18)
(0.613219 1.0567 4.43755e-19)
(1.08436 0.873882 1.10824e-18)
(0.932563 1.66751 1.13264e-19)
(0.452504 1.59253 -2.47682e-18)
(3.64918 1.21083 -1.0972e-20)
(3.22232 1.22776 -8.71454e-20)
(3.1748 1.09582 1.38839e-19)
(2.23789 -1.63925 1.55748e-19)
(1.65872 -1.19621 -1.02429e-19)
(0.701299 0.353426 -1.46336e-18)
(0.661258 0.160273 0)
(1.07463 0.265357 7.95246e-19)
(1.51343 -1.14292 1.58237e-19)
(1.87099 -1.49321 -4.20982e-19)
(2.19898 0.0729032 -7.61271e-21)
(2.27353 0.0706935 1.36628e-21)
(2.06138 0.0661105 1.55395e-22)
(1.18933 -1.50268 0)
(1.28785 -1.02427 0)
(2.57185 -0.165856 -6.58585e-20)
(2.5289 -0.156696 3.72071e-19)
(2.53182 -0.0457009 0)
(1.96798 -1.52437 0)
(1.98984 -1.24639 -2.5028e-19)
(2.54798 2.22182 1.99478e-19)
(0.639261 1.03896 7.59398e-19)
(0.601581 0.732018 -6.00787e-19)
(1.68094 -1.47109 -1.94452e-19)
(2.51839 0.534582 1.43676e-19)
(2.55024 0.571432 -2.59493e-20)
(3.43335 -0.353919 -6.01464e-20)
(3.44793 -0.299942 8.08947e-20)
(3.41992 -0.285908 2.26917e-19)
(0.489874 0.652906 2.42855e-19)
(2.89007 2.16672 -5.62375e-20)
(2.90715 1.89404 -1.14215e-20)
(3.4753 2.28874 1.82708e-21)
(1.69289 -0.0594881 -1.27075e-21)
(1.68762 -0.059799 -1.6841e-20)
(1.90665 -0.067547 -1.10543e-21)
(1.91676 -0.0861729 4.11831e-21)
(2.44509 2.07679 1.34998e-19)
(1.50102 1.90596 0)
(0.348601 1.8593 1.39887e-18)
(-0.0414071 0.630571 -1.60275e-18)
(-0.283971 2.43718 1.06954e-18)
(2.75975 0.567228 -2.11416e-18)
(3.94135 0.922329 -1.05623e-18)
(2.14496 -0.0928362 1.68457e-21)
(3.40408 -1.45133 1.10924e-19)
(3.30494 -1.4571 2.49492e-19)
(2.59162 0.771105 4.10245e-19)
(2.45273 0.907177 4.17004e-20)
(2.42685 0.581384 2.63779e-19)
(2.47287 0.601143 -1.89428e-19)
(2.64276 0.765126 0)
(2.70677 -0.0768531 3.39005e-21)
(2.7052 -0.0908316 5.5972e-21)
(2.7852 -0.190539 -6.54225e-20)
(2.80343 -0.201239 1.14565e-19)
(2.79692 0.337608 1.98979e-20)
(2.83539 0.349347 -5.1204e-20)
(2.80728 0.370534 0)
(2.77187 0.3526 1.51744e-20)
(2.81282 0.41199 0)
(2.85813 0.555499 -4.75735e-20)
(2.85354 0.629632 -3.14915e-20)
(2.8288 0.723778 -6.25976e-20)
(2.84622 0.694792 0)
(2.93161 0.691768 1.4163e-19)
(2.88639 0.763894 1.66272e-20)
(2.79938 0.793566 -4.39287e-20)
(2.67913 0.977341 -1.86498e-19)
(2.65629 0.822291 -3.73299e-20)
(2.27954 -0.787202 7.05744e-19)
(2.92931 -1.12162 -2.85056e-19)
(-0.657741 0.364407 -1.43171e-18)
(2.00382 0.0700706 7.73429e-21)
(2.36405 0.0746313 0)
(0.547557 -0.258047 1.84083e-18)
(0.484114 -0.334142 8.25853e-19)
(2.25364 0.0867952 -1.56934e-21)
(2.44596 0.0904451 -2.89358e-22)
(2.44861 0.0879731 0)
(2.23193 0.0841779 -7.81442e-22)
(2.15592 -2.00263 8.1586e-20)
(2.12893 -2.04009 -4.27653e-19)
(2.19053 -2.00332 -1.76701e-19)
(0.397774 0.574506 4.12204e-19)
(0.285371 0.296314 -5.16321e-19)
(0.341171 0.382407 5.07567e-19)
(-0.024126 0.173142 0)
(-0.0396814 0.0377832 6.41078e-19)
(0.0208532 0.0870077 -5.55064e-19)
(-0.283772 -0.00723727 -6.044e-19)
(-0.34792 -0.169228 -5.83061e-19)
(-0.230193 -0.135551 0)
(0.196674 1.27779 0)
(0.0931343 0.844772 0)
(0.00158895 0.527625 0)
(3.17122 -0.414447 -5.37832e-20)
(3.10959 -0.399176 0)
(3.13899 -0.427718 5.55034e-20)
(2.31626 -0.0786053 1.17683e-18)
(2.34626 -0.0919705 -4.3237e-19)
(2.33928 -0.0462498 0)
(2.16408 1.40635 1.13636e-20)
(2.19518 1.61068 -2.23006e-20)
(2.14088 1.15364 8.27303e-21)
(2.22393 1.76548 0)
(2.25703 1.87495 1.24833e-20)
(2.29059 1.94213 0)
(2.20407 1.90173 0)
(2.31965 1.97365 -3.58703e-20)
(2.24716 1.93595 0)
(2.15594 1.83277 1.15284e-20)
(2.10856 1.72385 0)
(2.06319 1.57006 -6.68326e-21)
(2.01759 1.3646 1.09655e-20)
(1.98054 1.11521 -8.26449e-21)
(2.34541 1.98033 3.43502e-20)
(2.2871 1.94677 1.09535e-21)
(2.11756 0.859016 2.43551e-22)
(1.94562 0.821974 1.31283e-20)
(2.09415 0.524763 -7.60307e-20)
(2.36667 1.97262 -2.97702e-23)
(2.32356 1.944 1.00467e-21)
(1.91726 0.493219 -2.61082e-20)
(2.38336 1.95793 -2.83191e-20)
(2.39655 1.94314 2.82974e-20)
(2.35491 1.93459 -2.11645e-21)
(2.38159 1.92512 -4.06193e-21)
(2.08953 0.174518 7.39916e-20)
(1.89979 0.148242 1.72999e-20)
(2.406 1.93237 0)
(2.40396 1.91905 4.00548e-21)
(2.07019 -0.191022 -8.83904e-24)
(1.88773 -0.207832 8.85829e-24)
(2.41152 1.92801 0)
(2.42216 1.91879 0)
(2.07248 -0.54799 0)
(1.89316 -0.553336 0)
(2.41322 1.93091 0)
(2.43652 1.92511 -2.10804e-21)
(2.07493 -0.883211 3.45996e-20)
(1.90443 -0.880175 8.39225e-24)
(2.41092 1.94009 -1.13502e-22)
(2.4482 1.93733 2.25603e-21)
(2.08809 -1.18453 -3.47857e-20)
(1.9271 -1.17368 0)
(2.40594 1.95296 0)
(2.45609 1.95254 0)
(2.10282 -1.44466 1.89699e-21)
(1.95668 -1.42765 -3.0104e-20)
(2.39867 1.96379 -1.71726e-20)
(2.46559 1.96503 0)
(2.12446 -1.6577 -1.88204e-21)
(1.99564 -1.63457 2.83618e-20)
(2.38939 1.96339 2.65583e-20)
(2.46906 1.96768 8.1149e-21)
(2.14809 -1.82272 -2.81869e-20)
(2.0409 -1.79448 0)
(2.3832 1.94166 -9.33702e-21)
(2.48023 1.94599 -5.52552e-21)
(2.17884 -1.94276 1.19192e-20)
(2.08662 -1.91168 -2.33749e-20)
(2.36928 1.88839 4.39258e-20)
(2.48468 1.89286 -4.96827e-20)
(2.20521 -2.02496 -1.15497e-20)
(2.13202 -1.99009 -3.30341e-22)
(2.36362 1.79042 0)
(2.48974 1.7969 -2.64906e-20)
(2.23108 -2.07046 2.05017e-20)
(2.17363 -2.04023 -3.99934e-20)
(2.35836 1.646 0)
(2.49914 1.65079 0)
(2.29144 -2.04099 1.14394e-20)
(2.3033 -2.08226 4.16373e-20)
(2.25525 -2.08928 0)
(2.21458 -2.06169 1.85465e-20)
(2.27252 -1.84467 9.01712e-21)
(2.28597 -1.96321 -1.6829e-21)
(2.26215 -1.4609 0)
(2.26689 -1.67793 3.17258e-20)
(2.25677 -0.884868 7.78941e-23)
(2.25917 -1.19536 0)
(2.2681 -0.170529 0)
(2.26173 -0.538884 0)
(2.28932 0.563194 0)
(2.28521 0.202343 0)
(2.31328 1.18375 -1.70033e-20)
(2.30667 0.88967 -4.56395e-21)
(2.34143 1.63816 1.52469e-20)
(2.3259 1.43518 1.77117e-20)
(2.36697 1.90215 -2.12243e-20)
(2.35019 1.79341 -3.0566e-20)
(2.39651 1.99549 0)
(2.3832 1.96664 0)
(2.4143 1.98686 7.04604e-23)
(2.40722 1.99925 0)
(2.41774 1.9464 0)
(2.41784 1.96675 0)
(2.40624 1.92156 0)
(2.41393 1.93049 0)
(2.37912 1.92516 0)
(2.39468 1.91996 0)
(2.33824 1.94181 0)
(2.3605 1.93422 0)
(2.29055 1.91868 0)
(2.31533 1.94014 0)
(2.24813 1.77725 1.9526e-20)
(2.26629 1.86822 0)
(2.22608 1.63642 7.08884e-21)
(2.35898 1.45254 -7.89699e-21)
(2.51261 1.45188 7.83377e-21)
(2.59491 1.87976 0)
(2.63954 1.64278 3.03407e-20)
(2.6154 1.78705 1.35891e-20)
(2.54847 1.94993 -2.59067e-21)
(2.57103 1.93119 1.10383e-20)
(2.50518 1.93555 -6.72476e-23)
(2.52932 1.94763 0)
(2.46071 1.90545 0)
(2.48556 1.91921 0)
(2.40605 1.89358 0)
(2.43571 1.89655 0)
(2.33476 1.9003 0)
(2.37286 1.89553 -7.08723e-27)
(2.2435 1.90261 -6.4518e-23)
(2.29164 1.9045 0)
(2.1323 1.85005 0)
(2.19029 1.88778 0)
(2.01019 1.67047 0)
(2.07049 1.7784 0)
(1.89364 1.31661 0)
(1.9499 1.51749 6.69292e-21)
(1.80273 0.787424 -2.52226e-21)
(1.84534 1.07143 9.11852e-21)
(1.74991 0.137515 0)
(1.77067 0.473632 8.18745e-21)
(1.75008 -0.540939 0)
(1.7421 -0.20595 0)
(1.80107 -1.14263 0)
(1.76878 -0.857226 0)
(1.8961 -1.5902 0)
(1.84365 -1.38887 0)
(2.01375 -1.86477 6.30062e-21)
(1.9541 -1.74762 0)
(2.12636 -1.99696 1.99471e-20)
(2.07098 -1.94658 5.4236e-21)
(2.17914 -2.02296 -1.89584e-20)
(2.30709 -2.09689 -3.94649e-20)
(2.21148 1.44284 -1.60447e-20)
(2.66544 1.44597 3.54045e-20)
(2.2517 -2.06777 0)
(2.2302 -2.03126 0)
(2.31238 -2.09096 0)
(2.27467 -2.08853 0)
(2.38821 -2.04097 0)
(2.36461 -2.09079 -1.04903e-20)
(2.3801 -2.07973 -1.15438e-20)
(2.40757 -1.85053 -1.86055e-20)
(2.40038 -1.96811 3.57286e-21)
(2.42349 -1.46614 -7.124e-23)
(2.41548 -1.68486 0)
(2.44116 -0.882252 0)
(2.43138 -1.19653 0)
(2.4655 -0.16591 0)
(2.45287 -0.533838 0)
(2.48463 0.561311 0)
(2.47563 0.205535 0)
(2.4895 1.19154 0)
(2.49071 0.893561 0)
(2.48899 1.64818 6.18133e-23)
(2.49193 1.44245 -1.72616e-20)
(2.4825 1.90891 4.9808e-23)
(2.48406 1.80396 2.85438e-20)
(2.47508 1.99868 0)
(2.47905 1.97142 0)
(2.46382 1.98373 -3.55073e-23)
(2.47047 1.99944 0)
(2.4413 1.93725 0)
(2.45423 1.96059 0)
(2.40568 1.90592 0)
(2.42517 1.91825 0)
(2.35577 1.90265 0)
(2.38264 1.90079 0)
(2.29064 1.91491 0)
(2.32492 1.90863 0)
(2.21583 1.89194 0)
(2.25403 1.91216 0)
(2.14107 1.75062 -1.30296e-20)
(2.17887 1.84134 0)
(2.36053 1.20503 0)
(2.19967 1.2049 -1.85387e-20)
(2.07452 1.42624 0)
(2.10552 1.61405 -1.41574e-20)
(2.77619 1.61796 -2.71775e-20)
(2.81236 1.4275 -7.62806e-21)
(2.69327 1.20134 -6.63136e-20)
(2.52676 1.2036 0)
(2.70537 1.84464 0)
(2.73939 1.75608 4.04324e-20)
(2.62955 1.91587 -7.57517e-23)
(2.66423 1.89618 -1.11137e-20)
(2.55679 1.90422 6.72456e-23)
(2.59224 1.9161 0)
(2.48762 1.87299 0)
(2.52404 1.88792 0)
(2.41181 1.85597 0)
(2.45237 1.86202 0)
(2.32046 1.85404 0)
(2.36905 1.85394 7.08706e-27)
(2.20848 1.8457 1.23023e-22)
(2.26729 1.85293 0)
(2.07535 1.78406 0)
(2.14444 1.82569 0)
(1.93112 1.6044 -2.81742e-21)
(2.00312 1.71169 0)
(1.79532 1.26051 0)
(1.86055 1.45536 2.80458e-21)
(1.69059 0.752899 -7.64851e-21)
(1.73902 1.02397 -7.26838e-21)
(1.63475 0.125353 0)
(1.65529 0.447154 0)
(1.64113 -0.523435 0)
(1.63001 -0.202812 0)
(1.70751 -1.0977 0)
(1.6668 -0.825407 0)
(1.82288 -1.52449 0)
(1.76028 -1.33203 0)
(1.9591 -1.79137 -7.7225e-23)
(1.89061 -1.67652 0)
(2.09203 -1.9321 6.77753e-23)
(2.02634 -1.87562 0)
(2.21843 -1.97816 1.72729e-20)
(2.15652 -1.96284 -1.72633e-20)
(2.35216 -2.08355 -1.8007e-20)
(2.27634 -2.03574 0)
(2.2783 -1.98907 3.37676e-20)
(2.28423 -2.06758 0)
(2.04968 1.19289 0)
(2.85162 1.18737 8.12373e-21)
(2.31325 -2.08072 -4.42074e-20)
(2.3338 -2.06973 -1.70879e-20)
(2.31456 -2.04931 -9.61655e-21)
(2.33187 -2.00806 -4.29339e-20)
(2.2925 -2.08113 0)
(1.95552 1.40541 -5.60908e-20)
(1.91887 1.17993 2.90378e-20)
(2.71141 0.913349 1.81559e-20)
(2.87735 0.902635 -9.11988e-20)
(2.37482 -2.04289 -6.03255e-20)
(2.3158 -2.05775 3.40816e-20)
(2.3118 -2.01158 1.39466e-19)
(2.34888 -2.02238 3.32071e-20)
(2.43192 -2.07365 -1.98452e-20)
(2.40441 -2.06279 5.29194e-20)
(2.48996 -2.02801 2.28107e-20)
(2.46328 -2.06505 1.40148e-20)
(2.54287 -1.83907 7.53578e-21)
(2.51819 -1.95617 6.64177e-21)
(2.58702 -1.45452 7.12401e-23)
(2.56535 -1.67327 0)
(2.63014 -0.870282 0)
(2.60878 -1.18467 0)
(2.66282 -0.155618 0)
(2.64887 -0.522545 0)
(2.67607 0.56893 0)
(2.67207 0.213265 0)
(2.6663 1.18821 0)
(2.6733 0.898186 0)
(2.63495 1.63783 0)
(2.65268 1.43643 0)
(2.59597 1.89729 -9.98264e-25)
(2.61631 1.79018 0)
(2.55599 1.98679 0)
(2.57576 1.96057 0)
(2.51507 1.96832 -3.39921e-23)
(2.53613 1.98594 0)
(2.46688 1.91668 0)
(2.49213 1.94289 0)
(2.4085 1.87819 0)
(2.43915 1.89428 0)
(2.33669 1.86667 0)
(2.37453 1.86916 0)
(2.24876 1.87062 0)
(2.2946 1.86876 0)
(2.14924 1.84371 0)
(2.19955 1.86555 0)
(2.04764 1.71038 -5.84129e-21)
(2.09827 1.79439 2.92103e-21)
(1.99978 1.58095 2.72688e-20)
(2.36424 0.918501 8.62e-21)
(2.0338 0.919214 -3.49158e-20)
(2.193 0.922903 2.57115e-20)
(2.53996 0.919769 0)
(2.90822 1.57248 2.19894e-20)
(3.00016 1.16061 7.26756e-20)
(2.95388 1.38989 -5.19977e-20)
(2.81074 1.79549 0)
(2.85922 1.70596 0)
(2.70783 1.87103 4.69797e-24)
(2.75489 1.84925 0)
(2.60971 1.86244 0)
(2.65482 1.87382 0)
(2.51738 1.83071 5.20492e-23)
(2.56296 1.84683 0)
(2.42158 1.80881 0)
(2.47127 1.81807 0)
(2.31228 1.79826 0)
(2.36985 1.80301 0)
(2.1828 1.77866 -5.8575e-23)
(2.25064 1.79173 0)
(2.03248 1.70747 -5.91681e-23)
(2.11008 1.75306 0)
(1.8722 1.52828 0)
(1.95246 1.63436 0)
(1.72178 1.19506 0)
(1.79386 1.38249 0)
(1.60702 0.709274 0)
(1.65917 0.969259 0)
(1.54926 0.113374 0)
(1.56977 0.418255 0)
(1.56056 -0.502072 9.55067e-23)
(1.54623 -0.1982 0)
(1.63932 -1.04773 0)
(1.59205 -0.788812 0)
(1.76963 -1.46029 0)
(1.6996 -1.27256 0)
(1.92136 -1.72888 9.3539e-24)
(1.84489 -1.61157 0)
(2.07094 -1.87027 -7.52203e-24)
(1.99698 -1.81413 0)
(2.21329 -1.92016 -5.80123e-23)
(2.1437 -1.90276 0)
(2.33882 -1.95798 3.2382e-20)
(2.27816 -1.93533 -7.43182e-21)
(2.37839 -2.04259 -8.56426e-21)
(2.3942 -1.99378 -1.6023e-20)
(2.30873 -2.07612 1.75137e-20)
(2.3105 -2.07492 1.77919e-20)
(1.89272 0.912626 -7.70913e-21)
(3.03456 0.887482 -5.82473e-20)
(2.28916 -2.05697 -1.27223e-21)
(2.34267 -2.07808 0)
(2.25142 -2.03109 -2.33614e-19)
(2.44752 -2.04295 -2.80114e-20)
(2.41753 -2.09152 -3.88855e-20)
(2.18622 -1.97818 3.32497e-19)
(2.15894 -1.97005 -5.82444e-20)
(2.30267 -2.08131 0)
(2.32161 -1.96936 -3.39785e-20)
(2.25742 -1.96809 -1.76114e-20)
(2.42449 -2.00522 -3.27759e-20)
(2.3794 -1.98208 4.73252e-20)
(2.51092 -2.04192 1.98178e-20)
(2.46907 -2.02859 8.46367e-21)
(2.59705 -2.00043 -1.19361e-20)
(2.55551 -2.03577 -1.00034e-20)
(2.67868 -1.81154 0)
(2.63918 -1.92809 -4.23521e-22)
(2.75361 -1.42744 0)
(2.71662 -1.64537 0)
(2.81928 -0.849013 -7.6932e-23)
(2.78883 -1.15979 0)
(2.85826 -0.145604 0)
(2.84278 -0.505915 0)
(2.86365 0.564062 0)
(2.86541 0.21621 0)
(2.83468 1.16845 0)
(2.85361 0.883889 0)
(2.77758 1.61085 -5.88034e-23)
(2.80863 1.41195 0)
(2.70771 1.87008 -1.92223e-24)
(2.74316 1.76369 0)
(2.63754 1.95906 0)
(2.67247 1.93286 0)
(2.56813 1.93922 6.63389e-23)
(2.60294 1.95785 0)
(2.49573 1.8838 0)
(2.53265 1.91212 0)
(2.41559 1.84042 0)
(2.45691 1.85909 0)
(2.32355 1.82261 0)
(2.37142 1.82835 0)
(2.21533 1.82024 0)
(2.27165 1.82101 0)
(2.09341 1.79149 0)
(2.15555 1.81322 0)
(1.96819 1.66269 2.93772e-21)
(2.03035 1.74449 0)
(1.85513 1.36992 0)
(1.90922 1.53872 5.7749e-21)
(1.77362 0.900632 7.11108e-22)
(1.80815 1.15559 0)
(2.02455 0.612745 3.54222e-20)
(1.75072 0.607079 -1.79239e-21)
(1.87557 0.610774 -1.70757e-20)
(2.37007 0.605775 -1.40946e-20)
(2.19212 0.609299 9.65991e-21)
(2.73277 0.592896 5.05344e-21)
(2.55151 0.601975 -4.92424e-21)
(3.06846 0.582051 0)
(2.90597 0.58823 4.0294e-20)
(3.13727 1.12347 1.54687e-20)
(3.21791 0.572442 3.21159e-20)
(3.18364 0.862818 -7.28324e-20)
(3.02984 1.51695 6.66765e-21)
(3.08782 1.34153 0)
(2.90656 1.7357 0)
(2.97122 1.645 0)
(2.78034 1.81587 5.69056e-24)
(2.84139 1.79021 0)
(2.66133 1.81161 0)
(2.71689 1.82065 0)
(2.549 1.78039 -5.20493e-23)
(2.60278 1.79673 0)
(2.43538 1.75408 0)
(2.49233 1.76605 0)
(2.31058 1.73511 0)
(2.37503 1.74454 0)
(2.1671 1.70457 0)
(2.24166 1.72327 0)
(2.0041 1.62434 8.37821e-24)
(2.08783 1.67374 0)
(1.83231 1.44449 0)
(1.91832 1.54984 0)
(1.67239 1.12375 0)
(1.74899 1.30286 0)
(1.55116 0.661572 0)
(1.60563 0.908782 0)
(1.49303 0.101408 0)
(1.51321 0.388267 0)
(1.50898 -0.476948 -9.55067e-23)
(1.49166 -0.191444 0)
(1.59711 -0.989977 0)
(1.54495 -0.746513 0)
(1.73831 -1.38092 0)
(1.66291 -1.20242 0)
(1.90133 -1.642 6.79114e-23)
(1.81918 -1.52655 0)
(2.06355 -1.78807 -6.06125e-23)
(1.98309 -1.72885 0)
(2.21989 -1.84707 5.73542e-23)
(2.14283 -1.82402 0)
(2.36296 -1.8971 -7.11257e-21)
(2.29393 -1.86864 1.43793e-20)
(2.4932 -1.98703 7.07159e-21)
(2.42851 -1.93714 -1.63019e-20)
(2.4978 -2.10314 -3.2046e-21)
(2.55738 -2.04754 -1.80537e-20)
(2.29746 -2.08674 1.7954e-20)
(2.32906 -2.09643 0)
(2.26123 -2.07052 1.62758e-19)
(2.36315 -2.12173 0)
(1.67303 0.877113 6.71418e-21)
(1.64681 0.600263 -4.66326e-21)
(3.08891 0.25426 3.63387e-20)
(3.24256 0.251838 3.80952e-20)
(2.19558 -2.06687 1.57612e-19)
(2.45115 -2.15175 3.92549e-20)
(2.09261 -1.98758 0)
(2.18667 -1.91473 3.46658e-20)
(2.54594 -2.16867 1.75073e-20)
(2.62411 -2.11308 -3.10775e-20)
(2.13853 -1.90233 -6.82705e-20)
(2.30399 -2.09707 0)
(2.33011 -1.92128 0)
(2.25609 -1.91669 3.04739e-20)
(2.46601 -1.9586 0)
(2.40216 -1.93493 0)
(2.58775 -1.99721 0)
(2.52869 -1.98285 -8.76518e-21)
(2.70492 -1.95575 0)
(2.64783 -1.99111 0)
(2.81482 -1.7674 0)
(2.76077 -1.8835 0)
(2.91873 -1.38797 0)
(2.86791 -1.60273 0)
(3.00108 -0.821842 7.69321e-23)
(2.96429 -1.12547 0)
(3.04372 -0.137012 0)
(3.02795 -0.487817 0)
(3.04101 0.554145 0)
(3.04786 0.215531 0)
(2.99461 1.14321 0)
(3.02303 0.866275 0)
(2.91316 1.57342 3.32305e-24)
(2.95738 1.37964 0)
(2.81509 1.82753 -2.74174e-24)
(2.86495 1.72267 0)
(2.71613 1.91723 0)
(2.76527 1.89043 0)
(2.6204 1.8975 -2.15042e-24)
(2.66796 1.91633 0)
(2.52494 1.8404 0)
(2.57297 1.86975 0)
(2.42488 1.79299 0)
(2.47581 1.81405 0)
(2.31485 1.76772 0)
(2.37155 1.77769 0)
(2.18883 1.756 0)
(2.25409 1.76154 0)
(2.04785 1.72151 0)
(2.11975 1.74543 0)
(1.90435 1.59814 0)
(1.97522 1.67543 0)
(1.77261 1.32173 -5.64041e-21)
(1.8363 1.48137 -5.86285e-21)
(1.71774 1.11803 1.30184e-20)
(2.02592 0.2837 1.91345e-20)
(1.73816 0.293342 0)
(1.87191 0.287504 1.7277e-20)
(2.37557 0.272164 0)
(2.19575 0.27893 -1.95362e-20)
(2.74451 0.257284 -3.02831e-20)
(2.56087 0.26522 1.03854e-20)
(2.92143 0.254058 5.76684e-20)
(3.26022 1.07407 -6.51502e-21)
(3.35262 0.549707 -2.89956e-20)
(3.31803 0.827218 0)
(3.13808 1.44812 1.23677e-20)
(3.20926 1.28092 -1.2401e-20)
(2.99217 1.66525 0)
(3.07205 1.57505 0)
(2.84595 1.74877 6.48328e-24)
(2.92117 1.7207 0)
(2.70923 1.75025 0)
(2.7765 1.75645 0)
(2.58065 1.7216 0)
(2.64324 1.73727 0)
(2.45245 1.69243 0)
(2.5161 1.70636 0)
(2.31509 1.66596 0)
(2.38498 1.67954 0)
(2.16116 1.62546 -3.83296e-23)
(2.24034 1.64921 0)
(1.98968 1.53715 5.079e-23)
(2.07726 1.58998 0)
(1.81082 1.35683 0)
(1.90015 1.46115 0)
(1.64605 1.04938 0)
(1.72487 1.21993 0)
(1.52256 0.613541 0)
(1.57752 0.845975 0)
(1.46546 0.0904462 0)
(1.48484 0.358535 0)
(1.48561 -0.448992 0)
(1.46584 -0.182518 0)
(1.5793 -0.929959 0)
(1.52438 -0.701031 0)
(1.72481 -1.30472 5.47351e-23)
(1.64769 -1.13199 0)
(1.89093 -1.56526 -4.87064e-23)
(1.80703 -1.44898 0)
(2.06226 -1.71258 4.45038e-23)
(1.97628 -1.65288 0)
(2.23041 -1.77422 0)
(2.14794 -1.74959 0)
(2.38151 -1.83007 0)
(2.30826 -1.79843 0)
(2.52603 -1.92063 -5.18041e-23)
(2.45275 -1.8713 -7.03568e-21)
(2.67705 -2.03927 4.5804e-20)
(2.60061 -1.97741 0)
(2.69259 -2.17706 2.89931e-20)
(2.7602 -2.09796 4.91548e-21)
(2.27753 -2.11161 -5.46996e-20)
(2.33941 -2.13463 0)
(1.63139 0.295029 2.84365e-20)
(3.37664 0.248026 5.72598e-20)
(2.20106 -2.10692 2.98191e-20)
(2.06688 -2.03735 1.55278e-21)
(2.1174 -2.11034 -8.0957e-20)
(2.38087 -2.17492 0)
(2.48192 -2.21785 -1.15862e-20)
(2.0357 -1.91451 6.39354e-20)
(1.96147 -1.93587 -7.18693e-20)
(2.01593 -2.01566 6.78128e-20)
(2.59342 -2.23257 3.30351e-20)
(2.76288 -2.22739 -2.50884e-20)
(2.84914 -2.14104 -1.45947e-20)
(2.29285 -2.12952 0)
(2.19798 -1.83601 -1.54278e-21)
(2.0229 -1.83587 -2.40593e-21)
(2.12864 -1.8236 -1.22703e-20)
(2.34606 -1.86078 -1.32491e-20)
(2.26974 -1.84947 1.33277e-20)
(2.50252 -1.8991 -2.65826e-23)
(2.42683 -1.87555 0)
(2.65427 -1.93722 0)
(2.5788 -1.92329 0)
(2.80335 -1.89456 0)
(2.73025 -1.93047 0)
(2.94204 -1.70808 0)
(2.87379 -1.82257 0)
(3.07062 -1.33762 -5.86991e-23)
(3.00872 -1.54684 0)
(3.16617 -0.789521 0)
(3.1241 -1.08302 0)
(3.21213 -0.127908 0)
(3.19605 -0.46707 0)
(3.2031 0.538768 0)
(3.21434 0.212263 0)
(3.1408 1.10423 0)
(3.17835 0.838702 0)
(3.03648 1.51965 5.54802e-23)
(3.09254 1.3317 0)
(2.91372 1.77097 -3.42233e-24)
(2.97603 1.66638 0)
(2.79006 1.8623 0)
(2.85147 1.83456 0)
(2.67089 1.84416 -5.78293e-23)
(2.72993 1.86229 0)
(2.55505 1.78699 0)
(2.61282 1.81671 0)
(2.43765 1.73665 0)
(2.49697 1.75952 0)
(2.31211 1.70577 0)
(2.37637 1.71887 0)
(2.17145 1.68685 0)
(2.24406 1.69591 0)
(2.01452 1.64823 0)
(2.0946 1.67331 0)
(1.85445 1.52712 -6.61278e-23)
(1.93375 1.60271 0)
(1.71069 1.26699 5.66435e-21)
(1.77949 1.41703 0)
(1.59983 0.843101 -7.12633e-21)
(1.64982 1.07486 0)
(1.54824 0.296018 -5.88761e-21)
(1.56495 0.583256 6.57261e-21)
(1.74257 -0.0285482 -1.53018e-20)
(1.54694 -0.00469951 0)
(1.63192 -0.0224629 -2.04612e-20)
(2.0324 -0.0521372 0)
(1.8789 -0.0435895 0)
(2.38284 -0.0692263 0)
(2.2021 -0.0618878 0)
(2.75481 -0.0819174 0)
(2.57019 -0.0765562 0)
(3.1015 -0.0799303 -3.70452e-20)
(2.93339 -0.0843193 -9.80305e-21)
(3.3904 -0.0594918 -7.3728e-21)
(3.25488 -0.0708129 -6.78345e-20)
(3.46861 0.525024 -3.29552e-20)
(3.50662 -0.0470235 -5.68125e-21)
(3.49137 0.242164 1.29729e-20)
(3.37174 1.01569 -6.27866e-21)
(3.42679 0.785057 4.00137e-20)
(3.2332 1.37257 9.87926e-24)
(3.30998 1.21159 0)
(3.07028 1.58541 0)
(3.15619 1.49752 0)
(2.90666 1.67188 6.96693e-24)
(2.99055 1.64225 0)
(2.75403 1.67925 0)
(2.83048 1.68267 0)
(2.61181 1.65446 0)
(2.68232 1.66891 0)
(2.47193 1.62412 0)
(2.54175 1.63933 0)
(2.32493 1.5916 0)
(2.39936 1.60864 0)
(2.1638 1.54254 6.97407e-23)
(2.24608 1.57061 0)
(1.98769 1.44749 0)
(2.07716 1.50309 0)
(1.80638 1.26808 0)
(1.89659 1.37059 0)
(1.64124 0.974739 0)
(1.72008 1.13645 0)
(1.51908 0.566738 0)
(1.57308 0.783578 0)
(1.46422 0.0810913 5.24739e-23)
(1.48235 0.329903 0)
(1.48739 -0.419001 0)
(1.46614 -0.171683 0)
(1.58271 -0.867942 0)
(1.52719 -0.653508 0)
(1.72824 -1.22374 -5.47351e-23)
(1.65129 -1.05872 0)
(1.89566 -1.47556 9.26955e-24)
(1.81058 -1.363 0)
(2.07331 -1.61884 -8.09314e-23)
(1.9836 -1.56026 0)
(2.25169 -1.68854 0)
(2.1636 -1.65818 0)
(2.41551 -1.75494 0)
(2.33585 -1.71892 0)
(2.57095 -1.84808 7.29616e-24)
(2.49305 -1.79821 0)
(2.73895 -1.96358 0)
(2.65272 -1.90349 0)
(2.93478 -2.06569 2.96059e-20)
(2.83215 -2.0227 0)
(2.93913 -2.15191 7.30372e-21)
(3.04165 -2.07553 -5.91511e-20)
(2.25625 -2.14921 0)
(1.93588 -1.84093 -9.10432e-20)
(2.1511 -2.1438 -2.06969e-20)
(1.48495 0.297353 5.87793e-21)
(1.48215 0.0177807 0)
(3.3862 -0.366326 -6.43811e-21)
(3.49899 -0.340832 1.42731e-20)
(2.34265 -2.18661 0)
(2.39252 -2.23509 0)
(2.05357 -2.1374 0)
(2.51238 -2.28314 1.14088e-20)
(2.64229 -2.28206 2.48328e-20)
(2.83625 -2.24401 0)
(3.03274 -2.10694 -7.042e-20)
(3.14962 -2.03067 4.89793e-20)
(2.27402 -2.17301 0)
(2.02902 -1.73345 5.50257e-24)
(1.83097 -1.82414 -2.65363e-20)
(1.8161 -1.69903 8.82445e-20)
(1.93177 -1.72193 -2.56345e-20)
(2.21584 -1.74062 6.45027e-21)
(2.13173 -1.73101 1.22161e-20)
(2.37345 -1.77949 0)
(2.29484 -1.75926 0)
(2.54157 -1.82198 2.65632e-23)
(2.45829 -1.79868 0)
(2.71196 -1.85684 0)
(2.6261 -1.84452 0)
(2.88538 -1.81342 0)
(2.79941 -1.84914 0)
(3.05084 -1.63264 0)
(2.96927 -1.7432 0)
(3.20084 -1.27678 5.86991e-23)
(3.12947 -1.47755 0)
(3.30923 -0.752288 0)
(3.26163 -1.03299 0)
(3.3597 -0.119415 0)
(3.34235 -0.443906 0)
(3.3454 0.517558 0)
(3.36079 0.205739 0)
(3.26836 1.05761 0)
(3.31413 0.803794 0)
(3.14543 1.45794 -4.64596e-23)
(3.21102 1.27603 0)
(3.00251 1.70446 -3.93157e-24)
(3.07508 1.60129 0)
(2.85761 1.7964 0)
(2.9297 1.76793 0)
(2.71803 1.78077 2.87282e-24)
(2.787 1.79761 0)
(2.58443 1.72488 0)
(2.65073 1.75425 0)
(2.45178 1.673 0)
(2.51844 1.69704 0)
(2.31317 1.63673 0)
(2.38372 1.65309 0)
(2.16106 1.60885 0)
(2.23924 1.62271 0)
(1.99301 1.56367 0)
(2.07868 1.59121 0)
(1.82053 1.44663 1.22676e-22)
(1.906 1.51788 0)
(1.66655 1.20181 6.67628e-23)
(1.73961 1.34227 0)
(1.54746 0.809841 -1.08417e-20)
(1.60177 1.02425 1.02089e-20)
(1.50747 0.563955 -9.78797e-21)
(1.76017 -0.348636 -3.83968e-21)
(1.55938 -0.297207 -7.49147e-22)
(1.65033 -0.331512 1.11882e-20)
(2.04538 -0.386065 0)
(1.89367 -0.37039 0)
(2.39175 -0.407979 1.5439e-25)
(2.21308 -0.399785 0)
(2.75717 -0.413781 0)
(2.57551 -0.412811 0)
(3.10213 -0.404697 -1.83127e-20)
(2.93439 -0.414071 1.95261e-20)
(3.2537 -0.387175 1.57776e-21)
(3.56134 0.493571 8.17375e-22)
(3.59936 -0.0391686 1.29939e-20)
(3.58744 0.231054 -1.68177e-21)
(3.46103 0.951277 5.72276e-21)
(3.51778 0.734916 -5.72976e-21)
(3.31103 1.29275 7.94774e-23)
(3.39156 1.1379 0)
(3.13721 1.49949 5.61866e-23)
(3.22701 1.41254 0)
(2.96119 1.58847 7.17566e-24)
(3.05008 1.55648 0)
(2.79588 1.60157 0)
(2.87833 1.60185 0)
(2.64232 1.58087 0)
(2.71876 1.59372 0)
(2.49309 1.55029 0)
(2.56788 1.56631 0)
(2.33907 1.51314 0)
(2.41698 1.53297 0)
(2.17379 1.45718 -3.1411e-23)
(2.25783 1.48874 0)
(1.99666 1.35708 -2.65981e-23)
(2.08624 1.41462 0)
(1.81706 1.18015 0)
(1.90608 1.28009 0)
(1.65529 0.901584 0)
(1.73235 1.05421 0)
(1.53716 0.521679 0)
(1.58911 0.722903 0)
(1.48559 0.073247 -5.24739e-23)
(1.50215 0.302785 0)
(1.51016 -0.388556 3.95677e-23)
(1.48856 -0.159828 0)
(1.60379 -0.807106 0)
(1.54945 -0.606284 0)
(1.74482 -1.14685 0)
(1.6704 -0.987869 0)
(1.90838 -1.39346 8.76739e-24)
(1.82472 -1.2829 0)
(2.08661 -1.53371 6.50559e-23)
(1.99608 -1.47648 0)
(2.2692 -1.6034 0)
(2.17854 -1.57242 0)
(2.44265 -1.67348 0)
(2.35726 -1.63577 0)
(2.61269 -1.76334 7.46931e-24)
(2.52726 -1.71621 0)
(2.79317 -1.86931 0)
(2.70068 -1.81478 0)
(2.99924 -1.96272 -1.81568e-20)
(2.89214 -1.92238 0)
(3.23247 -1.93127 -2.12267e-20)
(3.11293 -1.97383 4.07847e-20)
(1.89128 -2.00812 1.32965e-19)
(1.85294 -1.91637 9.45463e-20)
(3.25765 -1.91081 2.81606e-20)
(3.34915 -1.81791 -2.81624e-20)
(2.21696 -2.20303 0)
(1.49425 -0.263778 -9.35068e-21)
(3.59113 -0.314157 4.90887e-20)
(1.70964 -1.66131 -1.49971e-20)
(2.33889 -2.24692 0)
(1.72856 -1.79881 -7.04911e-21)
(2.08078 -2.17778 0)
(2.40171 -2.29392 0)
(2.00723 -2.1525 0)
(2.54259 -2.33539 0)
(2.69453 -2.29709 0)
(2.90913 -2.20599 6.70625e-21)
(3.12588 -1.9907 2.71257e-20)
(3.36171 -1.70812 0)
(3.46344 -1.61976 6.30342e-20)
(2.25332 -2.22119 0)
(1.81994 -1.57 -3.43365e-20)
(1.59815 -1.58273 -8.22061e-20)
(1.61049 -1.43038 -3.54685e-20)
(1.71634 -1.51245 3.8444e-20)
(2.04173 -1.62286 -2.254e-21)
(1.93751 -1.60132 1.07723e-20)
(2.23364 -1.64274 -4.83686e-21)
(2.14141 -1.63297 4.32558e-24)
(2.40618 -1.68372 -1.61438e-23)
(2.32187 -1.66033 0)
(2.58303 -1.73005 -1.89493e-23)
(2.49438 -1.70684 0)
(2.76543 -1.75988 0)
(2.67321 -1.75003 0)
(2.95536 -1.71679 0)
(2.86018 -1.75124 0)
(3.14203 -1.54548 0)
(3.0499 -1.65014 0)
(3.30855 -1.20792 0)
(3.22969 -1.39839 0)
(3.42818 -0.710784 0)
(3.37562 -0.97682 0)
(3.4829 -0.110928 0)
(3.46442 -0.418459 0)
(3.46395 0.492502 0)
(3.48286 0.197343 0)
(3.37501 1.00317 0)
(3.42734 0.763045 0)
(3.23716 1.38582 5.24361e-24)
(3.31038 1.21096 0)
(3.07833 1.62721 -3.76729e-23)
(3.15897 1.52538 0)
(2.91666 1.72067 0)
(2.99719 1.69097 0)
(2.76078 1.7086 4.64443e-23)
(2.83775 1.7236 0)
(2.61267 1.65542 0)
(2.68593 1.68373 0)
(2.46798 1.60304 0)
(2.54037 1.6278 0)
(2.31926 1.56257 0)
(2.39466 1.58146 0)
(2.15858 1.52772 0)
(2.24091 1.5452 0)
(1.98252 1.47694 0)
(2.07231 1.50668 0)
(1.80173 1.36228 -5.65479e-23)
(1.89157 1.43128 0)
(1.63883 1.13217 -1.12017e-23)
(1.71668 1.26396 0)
(1.51578 0.77032 -4.88041e-21)
(1.57153 0.967955 0)
(1.44636 0.292752 0)
(1.47295 0.541967 1.20071e-20)
(1.45384 -0.235581 1.0098e-20)
(1.44169 0.0319567 0)
(1.58944 -0.578297 1.16111e-20)
(1.48259 -0.495689 0)
(1.52499 -0.539982 -1.14308e-20)
(1.78688 -0.652247 0)
(1.67828 -0.621335 1.39674e-20)
(2.06432 -0.704151 0)