/*--------------------------------*- C++ -*----------------------------------*\
  =========                 |
  \\      /  F ield         | OpenFOAM: The Open Source CFD Toolbox
   \\    /   O peration     | Website:  https://openfoam.org
    \\  /    A nd           | Version:  10
     \\/     M anipulation  |
\*---------------------------------------------------------------------------*/
FoamFile
{
    format      ascii;
    class       volVectorField;
    location    "89.5";
    object      U;
}
// * * * * * * * * * * * * * * * * * * * * * * * * * * * * * * * * * * * * * //

dimensions      [0 1 -1 0 0 0 0];

internalField   nonuniform List<vector> 
28942
(
(0.00442791 -0.0022558 -3.39285e-22)
(0.00599345 -0.00233879 -6.29499e-23)
(0.0179333 -0.0123846 -8.30306e-22)
(0.103306 0.0182353 -5.26829e-21)
(0.102344 0.0222779 1.72484e-21)
(0.0134691 0.000407312 0)
(0.0160024 -5.51084e-06 9.87185e-24)
(0.0185728 0.000525731 -8.69208e-24)
(0.135235 -0.0184459 -2.5709e-22)
(0.133892 -0.0168121 7.31547e-22)
(0.00979302 0.00401503 -6.65125e-22)
(0.0160648 0.00562829 2.51572e-22)
(0.00713608 0.00315259 0)
(0.00470666 0.00207 0)
(0.0423247 0.00191032 -1.38916e-23)
(0.0405938 0.00244433 -5.65474e-24)
(0.0893153 0.0158894 6.6899e-22)
(0.0870033 0.0138579 1.07659e-21)
(0.012163 -0.0151105 2.92646e-21)
(0.0293271 -0.0304633 -7.70246e-22)
(0.0981166 0.037401 9.54317e-22)
(0.0972954 0.0344367 0)
(0.0187356 0.0046257 1.15802e-21)
(0.00786205 0.00236294 5.45524e-22)
(0.0377907 0.0072092 9.34663e-22)
(0.057521 0.00291075 -8.52072e-22)
(0.00764712 -0.0184878 8.51885e-21)
(0.00669322 -0.0165525 -3.13729e-21)
(0.0355048 -0.0253194 5.75555e-22)
(0.0192977 -0.0136802 1.98717e-22)
(0.0138305 -0.00126483 0)
(0.0172899 -0.00108539 -1.25973e-23)
(0.0219928 0.004018 2.64865e-22)
(0.0317532 0.00182092 -4.0105e-23)
(0.0188248 0.0180093 1.3169e-21)
(0.0157195 0.0191195 -1.30907e-21)
(0.0321685 0.0376176 -3.05772e-21)
(0.0186686 0.0305363 -1.06971e-21)
(0.00736911 -1.99887e-05 -8.22285e-24)
(0.00864864 0.0161973 -2.61808e-21)
(0.0306494 -0.00620317 0)
(0.0513427 -0.0109694 0)
(0.111786 -0.0116928 -2.73121e-23)
(0.111277 -0.0116905 8.05246e-23)
(0.115844 -0.0115865 7.01773e-23)
(0.0262218 0.000161599 1.05648e-23)
(0.0244107 -0.000591327 -1.69521e-23)
(0.0349501 -0.00047867 -7.78714e-23)
(0.0334816 -0.000547975 2.222e-23)
(0.0271749 -0.00256932 -1.94523e-22)
(0.0201742 -0.00306447 1.26579e-22)
(0.128658 0.00128873 -4.03135e-22)
(0.127972 0.000817586 -3.76535e-22)
(0.134552 -0.0212119 -3.7697e-24)
(0.133006 -0.019486 1.39621e-22)
(0.082471 0.00634995 7.08852e-22)
(0.101723 -0.000769816 2.45144e-22)
(0.00305784 0.00162046 -5.59888e-22)
(0.00894067 0.00367872 0)
(0.00825534 0.00328821 2.35332e-22)
(0.00288191 0.00148774 4.83072e-22)
(0.000362127 0.000226196 -4.01761e-22)
(0.000192836 0.000122655 -3.85769e-22)
(0.109756 -0.0426054 0)
(0.104885 -0.0256117 1.24296e-22)
(0.121756 -0.0331172 -4.23331e-23)
(0.123405 -0.0437702 0)
(0.0901041 -0.0328028 -6.39749e-22)
(0.0936078 -0.03527 -4.20504e-22)
(0.00188442 -0.00112919 1.12165e-21)
(0.00248792 -0.00201684 -3.5345e-22)
(0.00487154 -0.003155 8.76903e-22)
(0.0848726 -0.0457588 0)
(0.091199 -0.0396232 2.17182e-21)
(0.080541 -0.0530239 5.86864e-22)
(0.114118 0.0124093 2.33218e-22)
(0.112715 0.00690778 -2.58715e-22)
(0.125086 0.0110141 -1.0892e-22)
(0.00468305 -0.00286166 -5.37813e-23)
(0.00633805 -0.00442556 4.51583e-22)
(0.0510043 -0.0311449 1.27453e-22)
(0.0331517 -0.0205352 -2.57992e-22)
(0.00211041 -0.00059568 3.19083e-21)
(0.00515594 -0.00207192 -1.24348e-21)
(0.100978 0.0482493 1.44082e-23)
(0.0970272 0.0552168 -7.67972e-22)
(0.0807193 0.054013 7.01106e-22)
(0.0472035 0.0345101 -2.69112e-21)
(0.0444318 0.0316059 1.90589e-21)
(0.029491 0.0205951 -1.14026e-22)
(0.0327116 0.0232479 -6.43177e-22)
(0.0379526 0.0283578 8.72137e-22)
(0.00440757 0.00272974 -5.80762e-23)
(0.00775957 0.00398113 -1.67764e-23)
(0.00318815 0.00202218 3.36181e-23)
(0.00192322 0.00164658 -4.49333e-22)
(0.00145006 0.0015709 5.50809e-22)
(0.0157419 0.0115434 -3.2637e-21)
(0.0174947 0.0136353 7.47697e-22)
(0.00880303 -0.00384608 0)
(0.101389 0.00515939 0)
(0.0984003 0.0156832 -3.96352e-21)
(0.0604414 0.0104756 1.94548e-21)
(0.0886813 0.0178811 0)
(0.135447 -0.00107677 0)
(0.134885 -0.00179022 0)
(0.133191 -0.00228494 -2.58067e-22)
(0.114973 0.0266142 -2.1265e-22)
(0.114065 0.0280167 2.10215e-21)
(0.113267 0.0254765 1.12803e-21)
(0.00229357 0.00129923 1.04337e-21)
(0.0015112 0.000777362 -1.17108e-21)
(0.0190435 -0.00553266 -5.45082e-22)
(0.0201226 -0.00506078 4.6483e-22)
(0.00909616 -0.00292582 9.18805e-22)
(0.00647658 0.0111507 1.48014e-21)
(0.0189676 0.0181626 3.46037e-21)
(0.0134649 0.0228015 2.7218e-22)
(0.00492079 0.0143072 -8.63073e-21)
(0.116982 0.0477545 5.58256e-23)
(0.10786 0.0582436 1.07319e-21)
(0.118319 0.0548824 -1.85084e-21)
(0.0390837 -0.0294125 7.3304e-22)
(0.0240048 -0.0172618 -4.69089e-22)
(0.00532075 -0.000740219 -4.10648e-21)
(0.00453783 -0.00359021 0)
(0.0124954 -0.00166962 2.00478e-21)
(0.0219601 -0.0161275 7.79885e-22)
(0.0342488 -0.0277792 -1.95979e-21)
(0.0330388 -3.16888e-05 5.36061e-23)
(0.0351431 0.000124165 -3.95469e-23)
(0.0310137 0.000142599 -1.65804e-24)
(0.0280502 -0.0419404 0)
(0.0295997 -0.0428316 0)
(0.0896236 -0.0186528 -4.63897e-22)
(0.0995915 -0.0220904 3.15129e-21)
(0.0870346 -0.0252785 0)
(0.0471087 -0.0401809 0)
(0.0581679 -0.0513754 -7.8468e-22)
(0.0413104 0.0393377 2.08823e-21)
(-2.24475e-06 0.000214554 5.07446e-22)
(-0.000194124 0.00013101 -3.33968e-22)
(0.0223225 -0.0192369 -7.92727e-22)
(0.120268 -0.011458 3.95886e-22)
(0.119632 -0.0114023 -7.65763e-23)
(0.115413 -0.00572667 -6.52619e-23)
(0.108339 0.000976158 8.69707e-23)
(0.117604 -0.00032565 1.74461e-22)
(8.22794e-05 0.000259078 1.96087e-22)
(0.0437421 0.034418 3.2112e-21)
(0.0618701 0.0463075 -7.89955e-22)
(0.0593041 0.0393635 -3.03533e-24)
(0.021539 -0.000794242 5.31348e-24)
(0.0212214 -0.00077219 2.7573e-23)
(0.023034 -0.000543628 1.0116e-24)
(0.0257271 -0.00056355 -1.3606e-23)
(0.0454168 0.0380892 1.33762e-22)
(0.0189606 0.0160584 0)
(0.000138028 -2.71817e-05 3.64224e-22)
(0.000420923 -0.000254813 -4.04097e-22)
(0.00185793 -0.00100724 2.81671e-22)
(0.036545 -0.00771715 -1.8329e-21)
(0.0648521 -0.00209803 -7.46783e-22)
(0.0299426 -0.000181526 -2.13627e-24)
(0.0744642 -0.00764398 2.70033e-22)
(0.0706766 -0.0157264 5.75592e-23)
(0.0943032 0.0399233 2.14732e-21)
(0.0914037 0.0454587 9.92836e-23)
(0.088748 0.0290899 1.21766e-21)
(0.0914733 0.0308068 -8.82421e-22)
(0.0986951 0.0410846 0)
(0.126119 -0.000312827 1.5001e-22)
(0.12689 -0.000745536 2.8341e-22)
(0.128093 -0.0123533 -2.96664e-22)
(0.129557 -0.0121589 5.07833e-22)
(0.117054 0.0241589 2.60848e-22)
(0.119112 0.0250603 -7.38727e-22)
(0.1171 0.0261712 0)
(0.115134 0.024908 1.53728e-22)
(0.116671 0.0280932 0)
(0.117172 0.0361141 -5.52956e-22)
(0.11571 0.0381654 -3.01816e-22)
(0.111336 0.041977 -5.42117e-22)
(0.11373 0.0401098 0)
(0.116418 0.0430853 1.79396e-21)
(0.113696 0.0450073 4.73864e-23)
(0.108329 0.0441874 -3.04447e-22)
(0.0996271 0.0502889 -1.29025e-21)
(0.0984179 0.0455005 -2.27278e-22)
(0.0249435 -0.00846586 5.72901e-23)
(0.0327965 -0.00932223 -2.28455e-23)
(0.00628017 -0.00248523 -6.86635e-22)
(0.0293483 -9.23394e-05 -3.38202e-23)
(0.0376714 -0.000271268 0)
(-3.17139e-06 -3.97837e-05 4.2857e-22)
(1.30285e-05 -4.71464e-05 2.18344e-22)
(0.0340677 -0.00175933 1.62352e-23)
(0.0403137 -0.00171095 6.72766e-24)
(0.0398777 -0.00118078 0)
(0.0329416 -0.000816967 7.14534e-24)
(0.0853915 0.00334404 -1.0911e-22)
(0.08462 0.00302635 5.15472e-22)
(0.0854772 0.00310695 2.38673e-22)
(0.000670587 0.000271958 3.89474e-22)
(-0.000159399 -0.000129261 -5.64753e-22)
(-0.000201046 -0.000169001 4.81013e-22)
(0.00149976 0.00061721 0)
(7.98597e-05 8.77402e-05 1.1331e-21)
(0.000171844 -3.90127e-05 -8.16215e-22)
(0.00744617 0.00367249 -9.86439e-22)
(0.00145117 0.00078106 -1.17941e-21)
(0.00172006 0.000860379 0)
(0.00157198 0.00754435 0)
(0.000576941 0.00328137 0)
(0.000313306 0.00197697 0)
(0.136622 -0.00108774 5.71314e-23)
(0.137635 -0.000921905 0)
(0.135994 -0.00187183 -6.65692e-23)
(0.0881099 -0.0148525 4.43263e-21)
(0.0901167 -0.0152619 -1.60905e-21)
(0.0890322 -0.0128772 0)
(0.0957598 0.000362958 -6.39201e-24)
(0.0963176 0.000355152 1.2793e-23)
(0.0951998 0.00037007 -4.32445e-24)
(0.09687 0.000348874 0)
(0.0974207 0.000350407 -8.15824e-24)
(0.097965 0.000346551 0)
(0.0979591 -0.000231106 0)
(0.098501 0.000331663 3.0282e-23)
(0.0984891 -0.000249668 0)
(0.0974211 -0.000224328 -8.21575e-24)
(0.0968703 -0.000222925 0)
(0.0963167 -0.000220907 4.27721e-24)
(0.0957561 -0.000223029 -6.38932e-24)
(0.0951976 -0.000224407 4.31904e-24)
(0.0990239 0.000315034 -2.89774e-23)
(0.0990172 -0.000262599 -1.01311e-24)
(0.0946307 0.000382208 1.40234e-29)
(0.0946231 -0.000219906 -6.60082e-24)
(0.0940511 0.000392244 3.51082e-23)
(0.0995396 0.000304508 2.70747e-26)
(0.0995489 -0.000268049 -1.01388e-24)
(0.0940464 -0.000223302 1.30094e-23)
(0.100057 0.000292795 2.72656e-23)
(0.100572 0.000283244 -2.72432e-23)
(0.100071 -0.000274461 2.04161e-24)
(0.100588 -0.000279375 4.03532e-24)
(0.0934881 0.000412431 -3.41585e-23)
(0.0934757 -0.000225291 -8.56317e-24)
(0.101082 0.000272112 0)
(0.1011 -0.000285425 -3.98018e-24)
(0.0929024 0.000422899 4.2259e-27)
(0.0928909 -0.000222316 -4.23649e-27)
(0.101589 0.000262896 0)
(0.101607 -0.000290161 0)
(0.0923104 0.000429857 0)
(0.0922986 -0.000222941 0)
(0.102091 0.000251843 0)
(0.10211 -0.000296194 1.91201e-24)
(0.0917124 0.000436694 -1.77276e-23)
(0.0916997 -0.000222802 -4.32635e-27)
(0.10259 0.000242654 1.00229e-25)
(0.102609 -0.000300847 -2.04203e-24)
(0.0911079 0.000441553 1.78123e-23)
(0.0910948 -0.000224388 0)
(0.103085 0.000231595 0)
(0.103105 -0.000306606 0)
(0.0904977 0.000446795 -1.12703e-24)
(0.0904838 -0.000224033 1.93433e-23)
(0.103576 0.000222516 1.2393e-23)
(0.103596 -0.000310543 0)
(0.089882 0.000450187 -1.0044e-25)
(0.0898668 -0.000223942 -1.83081e-23)
(0.104064 0.000211734 -1.85368e-23)
(0.104084 -0.000315444 -5.37942e-24)
(0.0892469 0.000447163 1.8667e-23)
(0.0892346 -0.000224431 0)
(0.104549 0.000203925 6.10549e-24)
(0.10457 -0.000315229 3.58768e-24)
(0.0886084 0.00045047 -9.44947e-24)
(0.0885961 -0.000227778 1.91602e-23)
(0.105028 0.000198264 -2.43815e-23)
(0.105057 -0.000308639 2.74802e-23)
(0.0879387 0.000439215 9.74119e-24)
(0.0879355 -0.000236862 3.08302e-25)
(0.105512 0.000194907 0)
(0.105538 -0.000302625 1.30943e-23)
(0.0872607 0.000428136 -1.95956e-23)
(0.0872647 -0.000253048 3.91984e-23)
(0.10601 0.00018305 0)
(0.10602 -0.000302344 0)
(0.0882386 0.0011103 -9.63884e-24)
(0.0875548 0.00110771 -3.90141e-23)
(0.0865585 0.000410676 0)
(0.0865795 -0.000280688 -1.99714e-23)
(0.089555 0.00110614 -6.05154e-24)
(0.0889007 0.00110914 1.18853e-24)
(0.0908011 0.00108671 0)
(0.0901768 0.001096 -1.95452e-23)
(0.0920097 0.00106305 -3.77322e-26)
(0.0914092 0.00107545 0)
(0.0931901 0.00103539 0)
(0.0926032 0.00104966 0)
(0.0943447 0.00100045 0)
(0.093771 0.00101955 0)
(0.0954533 0.00096316 8.53873e-24)
(0.0948958 0.000980875 2.15286e-24)
(0.0965584 0.000935947 -8.23492e-24)
(0.0960123 0.000949501 -8.52666e-24)
(0.0976414 0.000912067 1.46208e-23)
(0.0970961 0.000918515 1.86748e-23)
(0.0987245 0.000891114 0)
(0.0981852 0.000904478 0)
(0.0997693 0.000866574 -6.42093e-26)
(0.0992506 0.0008788 0)
(0.100793 0.000839194 0)
(0.100283 0.000853097 0)
(0.101801 0.000810559 0)
(0.101299 0.000824866 0)
(0.102792 0.00078182 0)
(0.102298 0.000796102 0)
(0.103768 0.000753352 0)
(0.103282 0.000767464 0)
(0.10473 0.000725395 0)
(0.104251 0.000739254 0)
(0.105683 0.000682308 -9.96204e-24)
(0.105206 0.000710438 0)
(0.106162 0.000659286 -3.21681e-24)
(0.106499 0.000167191 3.14105e-24)
(0.106506 -0.000306246 -3.11491e-24)
(0.105225 -0.000785588 0)
(0.106179 -0.00077803 -1.27812e-23)
(0.105702 -0.000780502 -6.58572e-24)
(0.10426 -0.000794966 1.80285e-24)
(0.104743 -0.000791491 -7.05391e-24)
(0.103288 -0.000796474 5.83786e-26)
(0.103775 -0.000797042 0)
(0.102301 -0.000794031 0)
(0.102796 -0.000795217 0)
(0.101297 -0.000791985 0)
(0.101801 -0.00079283 0)
(0.100275 -0.000791386 0)
(0.100788 -0.000791364 7.685e-30)
(0.0992343 -0.000793637 6.48529e-26)
(0.0997568 -0.000792004 0)
(0.0981791 -0.000791767 0)
(0.0987062 -0.000793851 0)
(0.0970985 -0.000790522 0)
(0.0976396 -0.00079021 0)
(0.0959968 -0.00079699 0)
(0.0965488 -0.000790935 -4.32316e-24)
(0.0948727 -0.000811314 1.13754e-24)
(0.0954368 -0.000806853 -5.57757e-24)
(0.0937379 -0.000829827 0)
(0.0943122 -0.000818875 -4.53794e-24)
(0.0925682 -0.000844793 0)
(0.0931565 -0.000837286 0)
(0.0913705 -0.00086066 0)
(0.0919729 -0.000852562 0)
(0.0901398 -0.00087601 0)
(0.0907604 -0.000868456 0)
(0.08887 -0.000892602 -4.95037e-24)
(0.0895111 -0.000882855 0)
(0.0875649 -0.000928619 -2.00548e-23)
(0.0882219 -0.000905365 -4.97572e-24)
(0.0868896 -0.000957034 2.0417e-23)
(0.0868564 0.00110652 3.86854e-23)
(0.106644 0.000639847 6.29792e-24)
(0.106657 -0.000775804 -1.23012e-23)
(0.0858719 -0.000319327 0)
(0.0862053 -0.000999939 0)
(0.0861441 0.00110493 0)
(0.0858414 0.000385765 0)
(0.0888283 0.00176744 0)
(0.087483 0.00179792 9.68723e-24)
(0.0881611 0.00178078 9.77943e-24)
(0.0901258 0.00173555 1.24272e-23)
(0.0894839 0.00175251 -2.4841e-24)
(0.0913502 0.00169552 3.84157e-26)
(0.0907439 0.00171543 0)
(0.0925398 0.00165525 0)
(0.0919487 0.00167555 0)
(0.0937008 0.00161405 0)
(0.0931237 0.00163475 0)
(0.0948375 0.00157453 0)
(0.0942718 0.00159336 0)
(0.095944 0.00153322 0)
(0.095394 0.00155443 0)
(0.0970298 0.00149605 -3.45095e-26)
(0.096486 0.00151538 8.90273e-24)
(0.098085 0.00145678 -3.31109e-26)
(0.0975629 0.00147564 -1.73674e-23)
(0.0991389 0.00141612 0)
(0.0986129 0.00143549 0)
(0.100167 0.001379 3.20602e-26)
(0.099656 0.00139734 0)
(0.101176 0.00134222 0)
(0.100674 0.00136063 0)
(0.102167 0.00130535 0)
(0.101673 0.00132375 0)
(0.103143 0.0012688 0)
(0.102657 0.001287 0)
(0.104103 0.00123281 0)
(0.103625 0.00125072 0)
(0.105048 0.00119643 0)
(0.104577 0.0012149 0)
(0.105985 0.00114783 6.80421e-24)
(0.105517 0.00117437 0)
(0.106985 0.000156041 0)
(0.10712 0.000620972 6.15762e-24)
(0.106923 0.00109945 0)
(0.106453 0.00112315 6.62854e-24)
(0.106479 -0.00124596 1.31861e-23)
(0.106947 -0.00123998 3.23838e-24)
(0.107135 -0.000777729 2.5284e-23)
(0.10699 -0.000307607 0)
(0.10554 -0.00126056 0)
(0.10601 -0.00125299 -1.99086e-23)
(0.104592 -0.00127363 5.67175e-26)
(0.105067 -0.00126629 7.09681e-24)
(0.103634 -0.00128099 -5.83784e-26)
(0.104115 -0.00127777 0)
(0.102661 -0.00128671 0)
(0.10315 -0.00128383 0)
(0.101672 -0.00129327 0)
(0.102168 -0.0012898 0)
(0.100665 -0.00130175 0)
(0.10117 -0.0012972 -7.68498e-30)
(0.0996406 -0.00131292 -1.29623e-25)
(0.100155 -0.001307 0)
(0.0986003 -0.00132504 0)
(0.0991224 -0.00131899 0)
(0.0975356 -0.00133934 2.18103e-24)
(0.0980712 -0.00133152 0)
(0.0964539 -0.0013558 0)
(0.0969956 -0.00134531 -2.17193e-24)
(0.0953492 -0.00137989 4.54744e-24)
(0.0959009 -0.00136753 4.51959e-24)
(0.0942213 -0.00140391 0)
(0.0947894 -0.00139186 0)
(0.093067 -0.00143188 0)
(0.0936474 -0.00141751 0)
(0.091885 -0.00146271 0)
(0.0924796 -0.00144693 0)
(0.0906719 -0.00149665 0)
(0.0912826 -0.00147919 0)
(0.0894241 -0.00153538 7.91757e-26)
(0.0900527 -0.00151533 0)
(0.0881379 -0.00158179 -8.02859e-26)
(0.0887869 -0.00155774 0)
(0.0868168 -0.00166078 -2.09991e-23)
(0.087481 -0.00161772 2.09895e-23)
(0.0867894 0.00181517 1.97156e-23)
(0.0855147 -0.00105427 0)
(0.0861446 -0.00171633 -4.27103e-23)
(0.0851618 -0.000364944 0)
(0.107391 0.00108178 0)
(0.107417 -0.00123412 -3.14067e-24)
(0.0854245 0.0011031 4.99284e-23)
(0.0860885 0.00183316 1.99731e-23)
(0.0848072 -0.00111141 1.07979e-23)
(0.0854611 -0.00177954 5.39748e-23)
(0.0851105 0.00035648 0)
(0.107337 0.00155442 2.59021e-23)
(0.107791 0.0015307 -1.27915e-23)
(0.107606 -0.000776237 -6.22211e-24)
(0.10788 -0.00122597 3.09334e-23)
(0.0870891 0.00253603 7.00679e-23)
(0.0853669 0.00185048 -3.93407e-23)
(0.085677 0.00259232 -1.75871e-22)
(0.0863801 0.00256118 -4.00315e-23)
(0.0884233 0.00246868 1.94967e-23)
(0.0877629 0.00250359 -5.96091e-23)
(0.0897032 0.00240424 -1.99355e-23)
(0.0890706 0.0024362 -1.50413e-23)
(0.0909516 0.00234665 -4.96911e-24)
(0.0903349 0.00237632 -4.97332e-24)
(0.0921481 0.00229116 -3.84157e-26)
(0.0915566 0.00231917 0)
(0.0933084 0.00223535 0)
(0.0927319 0.00226315 0)
(0.0944404 0.00218067 0)
(0.0938777 0.00220786 0)
(0.0955474 0.00212799 0)
(0.0949968 0.00215392 0)
(0.0966295 0.00207753 0)
(0.0960912 0.00210218 0)
(0.0976881 0.00202723 0)
(0.097161 0.00205203 0)
(0.0987252 0.00197855 6.16061e-29)
(0.09821 0.00200376 0)
(0.0997458 0.00192881 0)
(0.0992371 0.00195316 0)
(0.100749 0.00188159 3.19789e-26)
(0.10025 0.00190499 0)
(0.101734 0.00183566 0)
(0.101243 0.00185851 0)
(0.102702 0.00179056 0)
(0.10222 0.00181301 0)
(0.103655 0.00174626 0)
(0.10318 0.00176831 0)
(0.104592 0.00170273 0)
(0.104125 0.00172442 0)
(0.105516 0.00165856 0)
(0.105056 0.00168099 0)
(0.106428 0.00160669 3.46356e-24)
(0.105973 0.00163344 -1.74332e-24)
(0.106883 0.00158075 -1.32157e-23)
(0.10746 0.000149101 -2.94928e-24)
(0.107855 0.00106351 1.23262e-23)
(0.107591 0.000608603 -9.42905e-24)
(0.107465 -0.000316701 0)
(0.106916 -0.00170389 -9.81313e-24)
(0.107824 -0.00168008 -2.83088e-23)
(0.107371 -0.00169268 2.27986e-23)
(0.106003 -0.00172825 0)
(0.10646 -0.00171533 0)
(0.105076 -0.00174253 -9.07775e-29)
(0.10554 -0.00173401 0)
(0.104139 -0.00175694 0)
(0.104609 -0.00175 0)
(0.103187 -0.00177063 -5.98305e-26)
(0.103665 -0.00176372 0)
(0.102219 -0.00178552 0)
(0.102705 -0.00177786 0)
(0.101234 -0.00180254 0)
(0.101729 -0.00179373 0)
(0.100233 -0.00182216 6.47793e-26)
(0.100735 -0.00181203 0)
(0.0992135 -0.00184413 6.6303e-26)
(0.0997253 -0.00183285 0)
(0.0981744 -0.00186952 0)
(0.0986963 -0.00185625 0)
(0.0971152 -0.00189842 0)
(0.0976477 -0.00188373 0)
(0.0960341 -0.00193184 0)
(0.0965766 -0.00191418 0)
(0.0949298 -0.00196777 0)
(0.0954852 -0.00194922 0)
(0.0938003 -0.00200878 -7.43584e-26)
(0.0943683 -0.00198772 0)
(0.0926437 -0.00205421 0)
(0.0932256 -0.00203095 0)
(0.091457 -0.0021045 0)
(0.0920543 -0.00207868 0)
(0.0902372 -0.00216096 -1.21601e-28)
(0.0908514 -0.00213189 0)
(0.0889822 -0.002225 1.38183e-28)
(0.0896145 -0.00219206 0)
(0.0876945 -0.00230598 8.29615e-26)
(0.0883394 -0.00226095 0)
(0.0863801 -0.00242155 -4.3646e-23)
(0.0870398 -0.00235857 1.07283e-23)
(0.0847656 -0.00184307 1.09824e-23)
(0.0857226 -0.00249203 2.18173e-23)
(0.0846928 0.00109482 -1.95483e-23)
(0.0844335 -0.000414185 -2.09216e-23)
(0.108242 0.00150776 3.13014e-24)
(0.108278 -0.00167281 2.22459e-23)
(0.0846092 0.00184793 2.46622e-24)
(0.0840889 -0.00117551 0)
(0.0847294 0.00250521 2.69608e-22)
(0.0850579 -0.00256522 3.35516e-23)
(0.0840743 -0.00191137 4.47776e-23)
(0.0864135 0.00346361 -4.438e-22)
(0.0861739 0.00360759 8.1402e-23)
(0.0843841 0.000329385 0)
(0.0871622 0.00330248 4.50148e-23)
(0.0866809 0.00340532 2.29865e-23)
(0.0883744 0.00319739 4.0623e-23)
(0.0877311 0.00323979 -6.19506e-23)
(0.0896397 0.00310503 -2.01889e-23)
(0.0890184 0.00315295 -1.00797e-23)
(0.0908518 0.00302052 1.01155e-23)
(0.0902502 0.00306148 1.02496e-23)
(0.0920351 0.00294164 0)
(0.0914448 0.00297945 -1.93411e-26)
(0.0931834 0.00286877 0)
(0.0926132 0.0029051 0)
(0.0943035 0.00279823 3.75103e-26)
(0.0937468 0.00283312 0)
(0.0953976 0.00273058 0)
(0.0948536 0.00276409 0)
(0.0964678 0.00266572 0)
(0.0959356 0.00269778 0)
(0.0975149 0.00260349 0)
(0.0969941 0.00263426 0)
(0.0985404 0.00254287 3.43313e-26)
(0.0980301 0.00257285 0)
(0.0995457 0.00248395 6.63848e-29)
(0.0990457 0.00251359 0)
(0.100534 0.00242589 0)
(0.100042 0.00245457 0)
(0.101505 0.00236993 -6.38968e-26)
(0.101021 0.00239771 0)
(0.102459 0.00231557 0)
(0.101984 0.00234258 0)
(0.103397 0.00226255 0)
(0.10293 0.00228891 0)
(0.104321 0.00221072 0)
(0.103861 0.0022365 0)
(0.10523 0.00215984 0)
(0.104777 0.0021852 0)
(0.106125 0.00210859 0)
(0.105679 0.00213446 0)
(0.10701 0.00205563 -1.72969e-24)
(0.106567 0.00208122 0)
(0.107885 0.00199837 0)
(0.107447 0.00202707 -3.35039e-24)
(0.108752 0.00193964 -3.29461e-27)
(0.108321 0.00196967 0)
(0.108312 0.00104634 -1.24974e-23)
(0.109191 0.00191707 7.52194e-25)
(0.108696 0.00148915 6.11589e-24)
(0.107925 0.000138403 4.49954e-24)
(0.108054 0.000594823 -3.10559e-24)
(0.108071 -0.000774486 -1.5645e-24)
(0.107932 -0.000320398 1.56047e-24)
(0.108729 -0.0016656 0)
(0.108339 -0.00122459 -1.41749e-23)
(0.108363 -0.00212167 -6.36072e-24)
(0.109238 -0.00209927 -1.21782e-23)
(0.108801 -0.00211017 2.79671e-23)
(0.107488 -0.00215162 -3.33859e-24)
(0.107927 -0.00213665 0)
(0.106603 -0.00217792 0)
(0.107046 -0.00216433 0)
(0.105705 -0.00219968 -1.12582e-28)
(0.106156 -0.00218915 0)
(0.104795 -0.00222089 0)
(0.105252 -0.00221036 0)
(0.103871 -0.00224231 5.98305e-26)
(0.104335 -0.00223149 0)
(0.102931 -0.00226528 0)
(0.103403 -0.00225355 0)
(0.101975 -0.0022906 0)
(0.102455 -0.00227762 0)
(0.101002 -0.00231877 0)
(0.101491 -0.00230433 0)
(0.100012 -0.00235009 -1.26674e-28)
(0.10051 -0.00233402 0)
(0.0990034 -0.00238538 0)
(0.0995102 -0.00236719 0)
(0.0979749 -0.00242476 0)
(0.0984918 -0.00240462 0)
(0.0969256 -0.00246885 0)
(0.0974527 -0.0024461 0)
(0.0958538 -0.00251717 0)
(0.0963927 -0.00249239 0)
(0.0947577 -0.00257099 7.43584e-26)
(0.0953089 -0.0025434 0)
(0.0936357 -0.00263044 0)
(0.0942001 -0.0026 0)
(0.0924852 -0.00269615 0)
(0.0930641 -0.00266246 0)
(0.0913041 -0.00276932 -7.90466e-26)
(0.0918986 -0.00273174 0)
(0.0900906 -0.00285086 8.05505e-26)
(0.0907015 -0.00280907 0)
(0.0888434 -0.00294244 -8.20241e-26)
(0.0894709 -0.00289516 0)
(0.0875729 -0.00305196 1.07819e-23)
(0.0882065 -0.00299252 -2.12678e-23)
(0.086304 -0.0031948 -1.08608e-23)
(0.0869358 -0.00311822 2.20822e-23)
(0.0843803 -0.00263539 3.17108e-25)
(0.085658 -0.00327187 2.22942e-23)
(0.0839421 0.00106872 -2.00468e-23)
(0.0837013 -0.000453692 0)
(0.0838328 0.00179664 -1.93907e-22)
(0.0833619 -0.00122424 0)
(0.109389 0.00236527 -3.12051e-24)
(0.1098 0.0023327 2.28585e-24)
(0.109173 -0.00165908 -1.19755e-23)
(0.109668 -0.00208264 -1.35468e-23)
(0.0837941 0.00244946 -1.88614e-22)
(0.0833728 -0.0019756 -4.52156e-23)
(0.085284 0.00359603 0)
(0.0878553 0.00411803 -5.14211e-23)
(0.0837019 -0.00270635 -2.21979e-23)
(0.0850026 -0.00334703 3.37381e-23)
(0.0872937 0.00411269 1.03229e-22)
(0.0836443 0.000299899 0)
(0.0887465 0.00394155 0)
(0.0882691 0.00403289 -4.58002e-23)
(0.0898961 0.00381218 0)
(0.0893045 0.00387361 0)
(0.0910775 0.0037019 0)
(0.0904898 0.00375433 1.04427e-23)
(0.0922197 0.00360275 0)
(0.0916512 0.00365176 0)
(0.0933409 0.00350965 0)
(0.0927829 0.00355478 0)
(0.0944372 0.00342283 0)
(0.0938922 0.00346589 0)
(0.0955091 0.00333956 -3.75103e-26)
(0.0949761 0.00338072 0)
(0.0965578 0.00325996 0)
(0.0960363 0.00329933 0)
(0.0975842 0.00318378 0)
(0.0970737 0.00322146 0)
(0.0985895 0.00311068 0)
(0.0980895 0.00314687 0)
(0.0995748 0.0030401 -8.0068e-29)
(0.0990846 0.00307508 0)
(0.100541 0.00297183 7.79763e-29)
(0.10006 0.00300582 0)
(0.101491 0.00290534 0)
(0.101018 0.00293828 0)
(0.102424 0.00284111 7.36175e-29)
(0.101959 0.00287299 0)
(0.103341 0.00277881 0)
(0.102884 0.00280974 0)
(0.104244 0.00271823 0)
(0.103794 0.00274833 0)
(0.105132 0.00265916 0)
(0.104689 0.00268853 0)
(0.106006 0.00260129 0)
(0.105571 0.00263012 0)
(0.106867 0.00254371 0)
(0.106438 0.00257256 0)
(0.107718 0.00248652 0)
(0.107294 0.0025151 0)
(0.108557 0.00242679 3.31888e-24)
(0.108137 0.00245541 3.40126e-24)
(0.108973 0.00239522 -6.36918e-24)
(0.108762 0.00102975 -6.13525e-24)
(0.109628 0.00189515 0)
(0.109136 0.00146619 -6.18726e-24)
(0.108383 0.000129973 0)
(0.108507 0.000583333 6.26142e-24)
(0.108526 -0.000774773 9.34629e-24)
(0.108389 -0.00032401 -3.16051e-24)
(0.10879 -0.00122017 -1.83584e-23)
(0.109025 -0.00255055 3.19718e-24)
(0.109855 -0.00251164 1.18857e-23)
(0.109446 -0.00253632 0)
(0.108186 -0.00258321 -6.63426e-24)
(0.108608 -0.00256774 6.65613e-24)
(0.107335 -0.00261319 0)
(0.107762 -0.00259888 0)
(0.106471 -0.0026416 -1.32416e-28)
(0.106904 -0.00262758 0)
(0.105594 -0.00266968 0)
(0.106034 -0.00265562 0)
(0.104703 -0.00269857 0)
(0.105151 -0.00268397 0)
(0.103798 -0.00272932 0)
(0.104252 -0.00271368 0)
(0.102876 -0.00276271 0)
(0.103339 -0.00274567 0)
(0.101939 -0.00279929 6.44088e-26)
(0.10241 -0.00278059 0)
(0.100985 -0.00283958 -6.61763e-26)
(0.101464 -0.00281894 0)
(0.100013 -0.00288429 0)
(0.100501 -0.00286136 0)
(0.0990223 -0.00293366 0)
(0.0995201 -0.00290841 0)
(0.0980117 -0.00298823 0)
(0.0985195 -0.00296027 0)
(0.0969798 -0.00304811 0)
(0.0974986 -0.00301747 0)
(0.0959251 -0.00311416 0)
(0.0964554 -0.00308036 0)
(0.094846 -0.00318682 0)
(0.0953887 -0.00314965 0)
(0.0937408 -0.00326677 -7.71839e-26)
(0.0942968 -0.00322584 0)
(0.0926078 -0.00335502 7.87142e-26)
(0.0931778 -0.00330981 0)
(0.0914459 -0.00345236 -8.02097e-26)
(0.0920305 -0.00340257 0)
(0.0902549 -0.0035592 0)
(0.0908539 -0.00350456 0)
(0.0890349 -0.00367553 0)
(0.089648 -0.00361607 0)
(0.0878018 -0.00380628 8.54984e-26)
(0.0884211 -0.00373854 1.08512e-23)
(0.0865573 -0.00396111 -5.65497e-23)
(0.0871752 -0.00388026 0)
(0.084361 -0.00343054 -3.35111e-23)
(0.0859396 -0.00404625 -3.14857e-25)
(0.0831882 0.00104137 6.26764e-23)
(0.0829591 -0.000488644 0)
(0.110219 0.00230441 -1.18859e-23)
(0.110274 -0.00249739 -2.2912e-23)
(0.082968 0.00173395 -3.30916e-23)
(0.0841337 0.0031585 1.10834e-24)
(0.0830118 0.00239659 9.42129e-23)
(0.0826339 -0.0012636 0)
(0.0826541 -0.00202235 1.13127e-23)
(0.0862693 0.00409131 -9.69659e-23)
(0.0853286 0.00400204 8.27129e-23)
(0.0837364 0.00325174 -8.13787e-23)
(0.0830101 -0.00276781 -3.39775e-23)
(0.0836975 -0.00350871 2.26657e-23)
(0.0853327 -0.00414427 2.22465e-23)
(0.0828944 0.000270598 0)
(0.0894873 0.0046925 2.88058e-24)
(0.0880417 0.00471411 5.02766e-25)
(0.0888328 0.00469264 2.25199e-23)
(0.0904924 0.0045375 2.22368e-23)
(0.0899923 0.00462137 -2.23521e-23)
(0.0915928 0.00438559 4.11738e-26)
(0.0910259 0.00445752 0)
(0.0927023 0.00426407 0)
(0.0921516 0.00432194 0)
(0.0937857 0.00415334 0)
(0.0932466 0.00420806 0)
(0.0948482 0.00404896 0)
(0.0943196 0.00410012 0)
(0.0958881 0.00395041 3.8098e-26)
(0.095371 0.0039992 0)
(0.0969061 0.00385592 0)
(0.0963998 0.00390266 0)
(0.0979032 0.00376548 0)
(0.0974072 0.00381022 0)
(0.09888 0.0036789 0)
(0.098394 0.00372174 0)
(0.0998373 0.00359586 0)
(0.099361 0.00363697 0)
(0.100776 0.00351595 -3.42512e-26)
(0.100309 0.00355554 0)
(0.101698 0.00343889 9.05721e-29)
(0.101239 0.00347713 0)
(0.102603 0.00336431 0)
(0.102152 0.00340127 0)
(0.103493 0.00329228 6.3603e-26)
(0.10305 0.00332801 0)
(0.104368 0.00322249 0)
(0.103932 0.00325713 0)
(0.105229 0.00315475 0)
(0.1048 0.00318839 0)
(0.106076 0.0030888 0)
(0.105654 0.00312158 0)
(0.106911 0.0030243 0)
(0.106495 0.00305641 0)
(0.107733 0.00296065 0)
(0.107323 0.00299242 0)
(0.108543 0.00289759 5.39643e-26)
(0.108139 0.00292907 0)
(0.109342 0.00283477 -3.33338e-24)
(0.108945 0.00286667 0)
(0.11013 0.00276676 3.17328e-24)
(0.109737 0.00280118 0)
(0.110911 0.00269601 3.01549e-24)
(0.11052 0.00273145 -3.09108e-24)
(0.110049 0.00186936 5.9861e-24)
(0.111305 0.00266286 0)
(0.110635 0.00227736 8.89331e-24)
(0.109201 0.00101338 0)
(0.109569 0.00144628 0)
(0.108833 0.000122493 0)
(0.108954 0.00057021 0)
(0.108973 -0.000773472 0)
(0.10884 -0.000326941 0)
(0.109609 -0.00165117 1.2205e-23)
(0.109232 -0.00121727 3.03913e-24)
(0.110684 -0.00248159 2.98673e-24)
(0.110094 -0.00207215 2.38841e-23)
(0.11059 -0.00291747 1.54994e-23)
(0.111374 -0.00287638 2.95934e-24)
(0.110981 -0.00289578 -6.02629e-24)
(0.109801 -0.00295958 3.18609e-24)
(0.110194 -0.00293762 -1.91071e-23)
(0.109001 -0.00299654 -1.27695e-28)
(0.109402 -0.00297791 0)
(0.108188 -0.00303076 0)
(0.108596 -0.00301333 0)
(0.107363 -0.00306551 -1.52569e-28)
(0.107777 -0.00304822 0)
(0.106525 -0.0031004 0)
(0.106945 -0.00308288 0)
(0.105673 -0.00313649 0)
(0.106101 -0.00311825 0)
(0.104807 -0.00317473 0)
(0.105242 -0.00315531 0)
(0.103926 -0.00321587 0)
(0.104369 -0.00319491 0)
(0.10303 -0.00326054 -1.28646e-25)
(0.10348 -0.00323774 0)
(0.102118 -0.00330938 0)
(0.102576 -0.00328442 0)
(0.101189 -0.00336301 0)
(0.101656 -0.00333558 0)
(0.100242 -0.00342184 0)
(0.100718 -0.00339177 0)
(0.0992768 -0.00348636 0)
(0.0997619 -0.00345337 0)
(0.0982916 -0.003557 -7.22689e-26)
(0.0987868 -0.00352089 0)
(0.0972852 -0.00363443 0)
(0.0977911 -0.00359484 0)
(0.0962566 -0.00371923 0)
(0.0967738 -0.00367589 0)
(0.0952042 -0.00381206 7.71839e-26)
(0.0957334 -0.00376461 0)
(0.0941272 -0.0039137 -2.11789e-28)
(0.0946689 -0.00386175 0)
(0.0930249 -0.00402472 1.60203e-25)
(0.0935793 -0.00396805 0)
(0.0918973 -0.00414519 0)
(0.0924642 -0.00408381 0)
(0.0907442 -0.00427476 0)
(0.0913237 -0.00420872 0)
(0.0895674 -0.00441184 -2.45666e-28)
(0.0901591 -0.0043434 0)
(0.0883676 -0.0045601 0)
(0.0889692 -0.00448363 0)
(0.0871915 -0.00473738 -3.36366e-23)
(0.0877756 -0.00464487 0)
(0.0847063 -0.00423646 -3.07115e-25)
(0.0866112 -0.00483782 5.71316e-23)
(0.0823934 0.000994353 0)
(0.0872303 0.00472394 1.30681e-22)
(0.0821715 0.00167779 2.26081e-23)
(0.111704 0.00307326 -3.00981e-24)
(0.112078 0.00304039 0)
(0.111094 -0.00246805 2.90285e-24)
(0.11176 -0.00285356 -5.76927e-24)
(0.082213 -0.000521677 0)
(0.0818959 -0.00129437 0)
(0.0823632 0.00246832 0)
(0.0819281 -0.00206207 -1.1142e-23)
(0.0823103 -0.00283113 -2.2429e-23)
(0.0830281 -0.00359083 0)
(0.0840669 -0.00433103 5.77751e-23)
(0.0860103 -0.00493968 -4.60817e-23)
(0.0821321 0.000236188 0)
(0.0901127 0.00531058 -1.08437e-26)
(0.0863824 0.00469023 4.10256e-23)
(0.0886779 0.00539725 -1.46247e-22)
(0.0893929 0.00537096 4.28454e-23)
(0.0913759 0.00523196 -1.39272e-23)
(0.0907629 0.00525333 -2.2328e-23)
(0.0924114 0.00509351 0)
(0.0919064 0.00517415 0)
(0.0934618 0.00492997 -4.117e-26)
(0.0929263 0.00500721 0)
(0.0945108 0.00479606 0)
(0.0939903 0.0048606 0)
(0.0955333 0.00467381 0)
(0.0950249 0.00473402 0)
(0.0965342 0.00455865 0)
(0.0960364 0.00461535 0)
(0.0975138 0.00444937 -3.8098e-26)
(0.0970266 0.00450342 0)
(0.0984734 0.00434468 0)
(0.0979961 0.00439648 0)
(0.0994139 0.00424438 0)
(0.098946 0.004294 0)
(0.100336 0.00414832 0)
(0.0998771 0.00419585 0)
(0.10124 0.00405619 0)
(0.10079 0.00410179 0)
(0.102128 0.00396766 3.40531e-26)
(0.101686 0.0040115 0)