/*--------------------------------*- C++ -*----------------------------------*\
  =========                 |
  \\      /  F ield         | OpenFOAM: The Open Source CFD Toolbox
   \\    /   O peration     | Website:  https://openfoam.org
    \\  /    A nd           | Version:  10
     \\/     M anipulation  |
\*---------------------------------------------------------------------------*/
FoamFile
{
    format      ascii;
    class       volScalarField;
    location    "16";
    object      p;
}
// * * * * * * * * * * * * * * * * * * * * * * * * * * * * * * * * * * * * * //

dimensions      [0 2 -2 0 0 0 0];

internalField   nonuniform List<scalar> 
6397
(
0.281039
0.269768
-0.00454488
-0.00296252
-0.00250784
-0.00402688
0.503983
0.278938
-0.339384
-0.337021
0.269706
0.15694
-0.00439853
-0.00573137
-0.0119853
-0.491149
-0.489572
-0.475088
0.835479
0.787945
0.7474
-0.374021
-0.325403
-0.312864
-0.00517719
-0.00703876
-0.00470985
-0.0378597
-0.048115
-0.0322436
-0.0412693
-1.34133e-05
-0.000902911
-0.00167134
0.00187118
0.00148101
0.00123973
0.000638408
0.00215264
0.00238715
0.00225595
0.00200581
-0.0250691
-0.00879492
-0.011833
-0.00591295
-0.00519887
-0.00735086
0.00201166
0.00160332
0.00161079
0.000998152
0.0013751
0.298813
0.280791
0.192709
0.203698
0.0414674
-0.102334
-0.104363
-0.0931685
-0.0812468
-0.0692126
-0.0611914
-0.0579651
-0.0593571
-0.0651867
-0.0758969
-0.077346
-0.0995787
-0.076206
-0.0726515
-0.0640759
-0.0545607
-0.047679
-0.0449446
-0.0468151
-0.0524941
-0.0626348
-0.0782145
-0.0697022
-0.0885499
-0.0923835
-0.100136
-0.0604164
-0.0747979
-0.113778
-0.127915
-0.0502203
-0.0605241
-0.138281
-0.16002
-0.040629
-0.032056
-0.162762
-0.194101
-0.0373276
-0.0243503
-0.0306843
-0.0490849
-0.0441043
-0.0494682
-0.0512111
-0.03711
-0.0440679
-0.0289381
-0.0314059
-0.0356087
-0.0305376
-0.0569247
-0.0441356
-0.101159
-0.0756402
-0.172235
-0.133672
-0.214105
-0.0932908
-0.125389
-0.108999
-0.0699497
-0.0793193
-0.0651782
-0.065351
-0.0787915
-0.0695669
-0.109236
-0.0931574
-0.131343
-0.12386
-0.119719
-0.130396
-0.0853427
-0.103679
-0.0531021
-0.0678755
-0.024916
-0.0295202
-0.0187823
-0.253225
-0.224266
-0.0866523
-0.13824
-0.0914064
-0.281754
-0.265186
-0.300772
-0.033237
-0.015825
-0.0117797
-0.0257975
-0.184337
-0.0234267
-0.0197296
-0.0272084
-0.0262559
-0.0238248
-0.0269373
-0.0146714
-0.0192368
-0.0136809
-0.01255
-0.024782
-0.0179388
-0.0489337
-0.0347501
-0.0957312
-0.0688483
-0.173154
-0.130703
-0.219911
-0.0702586
-0.0786414
-0.0626066
-0.0645184
-0.0704272
-0.064556
-0.0961345
-0.0805228
-0.135305
-0.114876
-0.155862
-0.149558
-0.135451
-0.150027
-0.0929588
-0.114917
-0.0559521
-0.0728298
-0.0429243
-0.0192814
-0.022952
-0.00898032
-0.0142578
-0.0891372
-0.142894
-0.244703
-0.2592
-0.299548
-0.31859
-0.29295
-0.0401473
-0.0789017
-0.027485
-0.0193725
-0.0198606
-0.00757776
-0.00389973
-0.00401557
-0.0251508
-0.0327556
-0.196735
-0.00651871
-0.00509831
-0.00925251
-0.00802362
-0.00893498
-0.00949594
-0.00220155
-0.00615003
0.00278135
0.000889873
-0.00182946
0.00171113
-0.0152971
-0.00768597
-0.0400519
-0.0257843
-0.0860337
-0.059794
-0.162673
-0.120548
-0.210884
-0.049216
-0.0472235
-0.0481326
-0.0486318
-0.0542655
-0.0499123
-0.0725203
-0.061658
-0.109032
-0.0881622
-0.155645
-0.133037
-0.173527
-0.170444
-0.145036
-0.163938
-0.0967954
-0.120999
-0.0568508
-0.0749814
-0.0430075
-0.014789
-0.0176033
-0.011227
-0.323221
-0.136461
-0.248973
-0.0115603
-0.0621735
-0.313812
-0.283357
-0.00734771
-0.00500351
-0.0147868
-0.0151123
-0.0311271
-0.0233564
0.00145276
6.96101e-06
-0.323222
-0.300407
-0.287986
-0.0193063
-0.194914
0.00267493
0.00203831
0.00458274
0.00341886
0.00882782
0.00603095
0.0147109
0.0119674
0.0149635
0.0158894
0.00693793
0.0117643
-0.00704815
0.000728902
-0.0310793
-0.0173665
-0.0735245
-0.0494287
-0.143742
-0.104941
-0.236132
-0.188987
-0.305914
-0.278288
-0.292909
-0.311376
0.00496576
0.0291246
0.0176676
-0.0136226
-0.00578995
-0.0253414
-0.0197639
-0.0417387
-0.0327026
-0.0690176
-0.0533813
-0.116581
-0.0902128
-0.169398
-0.145024
-0.183003
-0.183071
-0.147101
-0.169364
-0.0955733
-0.12096
-0.0553045
-0.0732478
-0.0414861
-0.0116281
-0.0135614
-0.00948084
0.00129823
0.0345335
-0.258894
-0.253994
-0.119255
-0.236251
-0.00183269
-0.0147312
-0.0285296
-0.0211501
-0.0437946
-0.255981
0.0309034
0.00516537
-0.246992
-0.207302
-0.201195
-0.0177439
-0.179454
0.00803362
0.00223374
0.00539334
0.0125922
0.0103357
0.0177457
0.015116
0.0229175
0.020436
0.0262445
0.0253309
0.0226106
0.0252983
0.013456
0.0185221
-0.0002687
0.00733164
-0.0226202
-0.0100596
-0.059836
-0.0389017
-0.119972
-0.0867225
-0.201071
-0.159352
-0.270743
-0.24159
-0.268923
-0.281655
-0.18431
-0.233933
0.0586088
0.0473104
0.0563878
0.0441653
0.0538449
0.0221092
0.0325566
0.0011471
0.011472
-0.0228869
-0.010025
-0.0596976
-0.0388865
-0.118074
-0.0866401
-0.174042
-0.149478
-0.181772
-0.185378
-0.140813
-0.164968
-0.0895422
-0.114294
-0.0516687
-0.0684971
-0.0385684
0.0187095
0.0329959
-0.1424
-0.125221
-0.0135829
-0.0156497
-0.010967
-0.0101888
-0.0110929
-0.0113027
-0.00966239
-0.0105512
-0.00773293
-0.00872942
-0.00433142
-0.00638631
-0.00158429
-0.0971211
-0.209537
-0.0315372
-0.218293
-0.00178564
-0.201039
0.0149028
0.000455873
-0.155006
-0.064891
-0.0851476
0.00648116
0.00114555
-0.154478
0.0153081
0.0112031
0.022608
0.0190221
0.0289134
0.0258059
0.0334242
0.0314671
0.0327565
0.0336381
0.0271935
0.0305228
0.0180829
0.0229982
0.00505758
0.0122223
-0.0150189
-0.00389283
-0.046544
-0.0290259
-0.0951049
-0.0684559
-0.161114
-0.126548
-0.223408
-0.195446
-0.229035
-0.236912
-0.159878
-0.202473
-0.0500096
-0.106833
0.0570566
0.0246775
0.0423476
0.0756465
0.0684191
0.07459
0.0777227
0.0562431
0.0667829
0.0315014
0.0443378
0.00041472
0.0171436
-0.0465556
-0.0203681
-0.113458
-0.078576
-0.168328
-0.145592
-0.169551
-0.176292
-0.127094
-0.151089
-0.0800048
-0.102371
-0.0463468
-0.0612996
-0.0256792
-0.0346732
-0.013633
-0.0188108
-0.00998566
-0.00801982
-0.00630233
-0.00743484
-0.0086456
-0.00841316
-0.00875166
-0.00872425
-0.00894219
-0.00887335
-0.00788269
-0.00863275
-0.00751383
0.00326515
-0.00792172
0.00534316
-0.0050331
-0.0066351
-0.0777489
-0.177156
-0.0309612
-0.181305
-0.0183518
-0.1606
-0.023351
-0.10967
-0.0227768
-0.0362319
-0.0354283
0.0540635
0.0417795
-0.0129397
-0.0537039
-0.0394905
0.0947428
0.05326
0.0876614
-0.00343217
-0.0115755
-0.00926495
-0.128258
0.00966919
0.0031285
0.0210771
0.0157956
0.0297155
0.0256934
0.0356357
0.0330624
0.0379578
0.0373139
0.0356108
0.0373835
0.0296616
0.0329841
0.0210867
0.0256939
0.00907235
0.0156207
-0.00848113
0.0011277
-0.0345359
-0.0202471
-0.0722883
-0.051846
-0.121751
-0.0958801
-0.169881
-0.147792
-0.179278
-0.181852
-0.12844
-0.162523
-0.0363361
-0.0846258
0.01133
0.0303359
0.0103544
0.0616589
0.0471669
0.0829235
0.073553
0.0906125
0.0888963
0.0811139
0.0878663
0.0578185
0.0708749
0.021843
0.0416537
-0.0331476
-0.00295366
-0.103384
-0.0679734
-0.152445
-0.133375
-0.147731
-0.156538
-0.108115
-0.129681
-0.0681021
-0.086906
-0.0401108
-0.0525714
-0.02249
-0.0302501
-0.0117591
-0.0164228
-0.0082881
-0.00430736
-0.00343865
-0.00584914
-0.0051839
-0.00715019
-0.00648111
-0.00879363
-0.00788665
-0.0110476
-0.00989068
-0.0124501
-0.0119689
-0.0124037
-0.0684095
-0.149701
-0.0426796
-0.154558
-0.0429046
-0.132612
-0.0548004
-0.0758259
-0.0723672
0.00568634
-0.0694917
-0.0899483
0.0823025
0.112617
0.125266
-0.0527697
-0.102328
-0.0791398
0.126588
0.0949961
0.104155
-0.0181145
-0.0158858
-0.0015885
-0.00626776
-0.110075
0.0117316
0.00491946
0.0241123
0.0183746
0.0330024
0.0290219
0.0380379
0.0360369
0.0391108
0.0390738
0.0363115
0.0381502
0.0306632
0.0337528
0.0228056
0.0270269
0.0120243
0.0178462
-0.00303402
0.00512287
-0.0242116
-0.0127548
-0.0529533
-0.0376323
-0.08813
-0.070023
-0.120576
-0.105812
-0.127906
-0.128908
-0.0903196
-0.114409
-0.0205835
-0.0577693
0.0503781
0.0169444
0.0769254
-0.00524648
-0.0280014
0.0332875
0.0151061
0.0626587
0.0489965
0.0838603
0.0741596
0.0947911
0.0907805
0.0922264
0.0953475
0.0731367
0.0848291
0.0355877
0.0567419
-0.0220435
0.00907519
-0.0881956
-0.0559546
-0.127795
-0.113298
-0.119544
-0.128633
-0.0867769
-0.104106
-0.0555772
-0.0701908
-0.0334759
-0.043429
-0.0190559
-0.0254157
-0.00993747
-0.0139385
-0.00682214
-0.00121894
-0.000550473
-0.00266558
-0.00196047
-0.00422888
-0.00344125
-0.00628036
-0.0051372
-0.00968134
-0.0077548
-0.0143481
-0.0119795
-0.0177656
-0.0163697
-0.018484
-0.0730461
-0.135178
-0.0655245
-0.142809
-0.0770823
-0.118321
-0.0965209
-0.0520989
-0.116715
0.0377878
-0.131741
0.113485
-0.106232
-0.137174
0.143847
0.104298
0.129482
-0.0100303
-0.105872
0.00155395
-0.00636954
-0.00371652
0.0136225
0.00729933
0.0252511
0.0197855
0.0334799
0.0298414
0.0378314
0.0361652
0.0383889
0.0385703
0.0357229
0.0373999
0.0306312
0.0334159
0.0235798
0.0273651
0.0140965
0.0191798
0.00135415
0.00818711
-0.0156319
-0.00656988
-0.0372023
-0.0258917
-0.0615839
-0.0493136
-0.0815636
-0.0728634
-0.0836496
-0.0856938
-0.0557137
-0.0733697
-0.00468366
-0.0318686
0.0476514
0.022856
0.0796222
0.0670368
0.0827821
0.0847969
-0.0395356
-0.0820978
-0.0607836
0.000471691
-0.0188711
0.0343657
0.0181652
0.0613078
0.0486508
0.0812892
0.0721517
0.0926858
0.0881629
0.0924484
0.0942277
0.0765985
0.0866851
0.0414288
0.0614764
-0.0118242
0.016477
-0.0674027
-0.0410796
-0.0964406
-0.0866146
-0.0894573
-0.0964967
-0.0660295
-0.0783129
-0.0436477
-0.0542233
-0.0270436
-0.0346263
-0.0156546
-0.0207609
-0.00815916
-0.0115092
-0.00343468
-0.00548063
-0.00196525
-9.6567e-05
0.000796588
0.000411954
-0.00129582
-0.000669824
-0.0029725
-0.00204298
-0.00595519
-0.00421698
-0.0113898
-0.00833606
-0.0182683
-0.0148581
-0.0229364
-0.0210945
-0.0224908
-0.0235705
-0.0131131
-0.0193882
-0.132506
-0.101866
0.0958577
0.0739421
-0.0911158
-0.135853
-0.00011264
-0.100356
-0.144908
-0.00379741
-0.0124384
-0.00506003
-0.123889
-0.114711
-0.149935
-0.0358606
-0.169925
0.0630992
-0.178015
0.135881
-0.172325
0.14974
-0.118961
-0.155497
0.121309
0.0794799
0.0592644
-0.116266
0.00515364
0.0011282
0.0156113
0.0103813
0.0255349
0.0208542
0.0327152
0.0295501
0.0363693
0.0349671
0.0367176
0.0369249
0.0343585
0.035832
0.0299006
0.0323506
0.023685
0.027017
0.0154694
0.0198477
0.00479277
0.0104645
-0.00874364
-0.00161879
-0.0248316
-0.0165433
-0.0414524
-0.0333142
-0.0531168
-0.0483908
-0.0510866
-0.0543377
-0.0283313
-0.042432
0.00743503
-0.0120069
0.0442524
0.0269208
0.0660099
0.0577982
0.0652223
0.0683982
0.0434456
0.0565801
-0.0631618
-0.0917941
-0.0786529
-0.028705
-0.0462702
0.00494256
-0.0116052
0.0343763
0.0202058
0.0584714
0.0470792
0.0766738
0.068371
0.0876215
0.0831892
0.0882628
0.0894199
0.0748079
0.0834829
0.0444638
0.0616898
0.000457773
0.0235139
-0.0427334
-0.0225369
-0.0649948
-0.0573883
-0.0621481
-0.0659198
-0.0479533
-0.0555781
-0.0330857
-0.0402679
-0.0211498
-0.0267048
-0.0124487
-0.0164263
-0.00643545
-0.00920525
-0.00240461
-0.00419642
-0.00110554
0.00153609
0.0017728
0.000891993
0.00126095
-0.000114999
0.000449508
-0.00204347
-0.000894574
-0.00628054
-0.00376629
-0.0138049
-0.00968614
-0.0223228
-0.0182029
-0.0275406
-0.0256177
-0.0251106
-0.0275927
-0.0206019
-0.13221
-0.101822
0.0395703
0.0267925
-0.122773
-0.150049
0.00236995
0.000601853
-0.149846
-0.157789
-0.185033
-0.117812
-0.215184
-0.0232242
-0.230384
0.0837115
-0.22555
0.148574
-0.203837
0.141542
-0.173281
0.102362
-0.108204
-0.140959
0.0566034
-0.0837366
-0.0862564
-0.110849
0.00226429
0.0158394
0.0076011
-0.140467
0.00875214
0.00516397
0.0173209
0.0130315
0.0253908
0.0215883
0.0313091
0.0287129
0.0343189
0.0331845
0.034566
0.0347632
0.0325517
0.033785
0.028723
0.0308393
0.0233241
0.0262164
0.0162843
0.0200176
0.00740822
0.0120815
-0.00332759
0.00225086
-0.0152963
-0.00923993
-0.0265497
-0.0212084
-0.0330121
-0.0306973
-0.0292544
-0.0326928
-0.0131869
-0.0224544
0.0144763
0.000348844
0.0402728
0.0282323
0.0544046
0.0493497
0.0514854
0.055328
0.0321563
0.0435584
0.00187126
0.0179126
-0.0708266
-0.0787166
-0.0480785
-0.0603293
-0.0199299
-0.0344126
0.00820798
-0.00567567
0.0336722
0.0213348
0.0549591
0.04487
0.0713073
0.0638106
0.0813111
0.0772134
0.0824637
0.0831459
0.071761
0.0787176
0.0475561
0.0612457
0.0133709
0.0311485
-0.0196355
-0.00415731
-0.0383988
-0.0311273
-0.040286
-0.0409726
-0.0332945
-0.037366
-0.0241704
-0.0287373
-0.0159671
-0.0198764
-0.00955633
-0.0125324
-0.00490136
-0.00703658
-0.00167455
-0.00312142
0.000375442
-0.000493181
0.00101044
0.00217092
0.00225505
0.00177344
0.00200293
0.000898384
0.00144393
-0.00150929
-1.09695e-05
-0.0072972
-0.00388678
-0.016598
-0.0116685
-0.0258572
-0.021527
-0.0305352
-0.0290019
-0.0250334
-0.0302327
-0.0117812
-0.0196024
-0.000885077
-0.00508159
-0.170003
-0.176711
-0.0154582
-0.0129099
0.00239065
-0.00199554
0.0013005
-0.000860721
-0.0145768
-0.215008
-0.178853
-0.259322
-0.123501
-0.288824
-0.0111894
-0.292512
0.0990586
-0.269117
0.149436
-0.228273
0.118905
-0.183942
0.0746543
-0.0862142
-0.0672037
-0.0652263
-0.083564
-0.143828
0.0288547
-0.110205
-0.00453104
0.00171011
-0.00141156
-0.179358
0.00615288
0.00436409
0.0112885
0.00853604
0.0182567
0.0147737
0.0247566
0.0216971
0.0295391
0.0274373
0.0320112
0.0310778
0.0322328
0.0323845
0.0305399
0.0315946
0.0272791
0.0290863
0.0226452
0.025127
0.0166624
0.0198214
0.00932078
0.0131545
0.000818489
0.00518276
-0.00809388
-0.00366567
-0.0156894
-0.0122092
-0.019003
-0.0180884
-0.0146705
-0.01794
-0.00155831
-0.00908582
0.0180881
0.00813883
0.0358547
0.0276427
0.0448911
0.0418047
0.0407831
0.0446009
0.0241723
0.0338323
0.0123226
-0.0649643
-0.0672207
-0.0542644
-0.0605903
-0.0358516
-0.0459088
-0.0129855
-0.0247205
0.0106417
-0.00112262
0.032563
0.0219051
0.0512163
0.0423498
0.0656955
0.0590323
0.0746968
0.0709688
0.076261
0.0765191
0.0681878
0.0735042
0.0495843
0.060094
0.023472
0.0370469
-0.00222297
0.00998135
-0.0188175
-0.0119019
-0.0240186
-0.0226294
-0.0218897
-0.0235322
-0.0168873
-0.0195412
-0.011563
-0.0141752
-0.00700122
-0.00916218
-0.00349352
-0.00512045
-0.000971176
-0.00211824
0.000698073
-3.57138e-05
0.00127195
0.00260184
0.00248097
0.00269084
0.00266848
0.00255695
0.00265
0.00171468
0.00230379
-0.00141625
0.000572396
-0.00881566
-0.0045585
-0.0191909
-0.013882
-0.0280952
-0.0241237
-0.0310293
-0.0305353
-0.0244731
-0.029173
-0.0121573
-0.0185824
-0.00666897
-0.0110888
0.000605155
-0.0313247
-0.0283006
-0.232712
-0.214786
-0.292911
-0.204453
-0.340832
-0.127418
-0.0329509
-0.362
0.00107941
-0.347563
0.105202
-0.301933
0.137364
-0.0615897
-0.0468958
-0.0425616
-0.0564148
-0.243182
0.092986
-0.0788244
-0.187505
0.0402485
-0.106206
-0.141608
-0.00333543
0.000302335
0.00204617
0.00252708
-0.046962
-0.0407434
0.0022342
-0.232438
0.00481496
0.00256085
0.00358943
0.00819962
0.00633521
0.0127968
0.0103327
0.0183891
0.0155509
0.0236534
0.0211574
0.0275441
0.0258202
0.0296047
0.0288132
0.029838
0.0299361
0.0284443
0.0293252
0.0256905
0.0272208
0.0217473
0.0238592
0.0166969
0.0193534
0.0106492
0.0137834
0.00391968
0.00733444
-0.00273462
0.000512896
-0.00787044
-0.00560808
-0.00935838
-0.00920443
-0.00511814
-0.00802918
0.00536126
-0.000578944
0.0194789
0.0128526
0.0316523
0.0260929
0.0370839
0.0354425
0.0326225
0.0361558
0.0184827
0.0265244
-0.00189973
0.00881333
-0.0237998
-0.0129787
-0.0517568
-0.0427201
-0.0337877
-0.0518791
-0.05013
-0.0497765
-0.0517077
-0.0410165
-0.0462149
-0.0261542
-0.0341957
-0.00736799
-0.0170714
0.0125347
0.00256339
0.0312811
0.0221342
0.0475312
0.0397789
0.0601892
0.0543707
0.0682261
0.064879
0.0699849
0.0699638
0.0639618
0.0679851
0.0497279
0.0577757
0.0296216
0.040107
0.00917362
0.0190332
-0.00554381
0.00081982
-0.0123548
-0.00984197
-0.0132404
-0.0133303
-0.01108
-0.0123827
-0.00791187
-0.00953461
-0.00482538
-0.00632208
-0.00227674
-0.00347591
-0.000392606
-0.00125239
0.000901247
0.000336919
0.00175156
0.00141989
0.00208256
0.00288478
0.00267856
0.00313515
0.00301987
0.00322708
0.00321676
0.00233791
0.00303175
-0.00170419
0.000866535
-0.0104503
-0.00558811
-0.0209748
-0.015789
-0.0286281
-0.0254207
-0.0296506
-0.0301339
-0.0226283
-0.0270508
-0.012312
-0.0174687
-0.00490624
-0.00794557
-0.00182235
-0.306687
-0.260306
-0.0501472
-0.0348449
-0.0399004
-0.375532
-0.228784
-0.0370611
-0.417896
-0.126174
-0.422315
0.0111588
-0.0538391
-0.037163
-0.0256102
-0.0194505
-0.0306457
-0.385595
0.1015
-0.0503529
-0.319084
0.101697
-0.0610826
-0.0615969
-0.0727672
-0.246365
0.0518147
-0.0999476
-0.183277
-0.000546086
-0.135055
0.00384698
0.00192165
0.0030563
5.68703e-05
0.00201481
0.001708
0.00144588
-0.295111
0.00613997
0.00494261
0.00924494
0.00756586
0.0132903
0.0111436
0.0179259
0.0155966
0.0222409
0.0201891
0.025457
0.0240203
0.0272089
0.0265229
0.0274589
0.0275139
0.0263395
0.0270589
0.0240343
0.0253208
0.0207005
0.0224865
0.0164592
0.0186827
0.0114893
0.0140472
0.00615729
0.00883386
0.00117008
0.00356092
-0.00230667
-0.000842444
-0.00276906
-0.00300005
0.00103597
-0.00143046
0.00896202
0.00460375
0.0191637
0.0135275
0.0278216
0.0239928
0.0308792
0.0301986
0.0264089
0.0296079
0.0145313
0.0212891
-0.00213419
0.00658441
-0.0197621
-0.0111086
-0.0278784
-0.0348026
-0.030823
-0.0389732
-0.037546
-0.0373671
-0.0389556
-0.0303269
-0.0344639
-0.0183378
-0.0249146
-0.00275636
-0.0108287
0.0139391
0.00549632
0.0299705
0.0221252
0.0440487
0.0373125
0.0551142
0.0500112
0.062144
0.0591951
0.0639131
0.063739
0.0593569
0.0624432
0.048317
0.0545661
0.0325919
0.0408213
0.0160967
0.0241567
0.00319495
0.00895313
-0.00415822
-0.00114076
-0.00679846
-0.00594261
-0.00654412
-0.0069154
-0.00495794
-0.00584028
-0.00302976
-0.00399576
-0.00127571
-0.00211331
8.71964e-05
-0.000534934
0.00105165
0.000626125
0.00167283
0.0014158
0.00193767
0.00270101
0.00188518
0.00235313
0.0031039
0.00289025
0.00352846
0.00332061
0.00375124
0.00367867
0.00279466
0.00367962
-0.00220264
0.000937462
-0.0117827
-0.00669627
-0.0215527
-0.0169217
-0.0275055
-0.0252111
-0.0269928
-0.0281368
-0.0201788
-0.0241722
-0.0114718
-0.0157537
-0.0044139
-0.00758409
-0.00186848
-0.0557621
-0.0439198
-0.383043
-0.3058
-0.0408848
-0.44986
-0.245112
-0.0125445
-0.00322673
0.00423528
-0.00500114
-0.476351
-0.117911
-0.0641462
-0.0233091
-0.458002
0.0156279
-0.0435605
-0.40023
0.0808907
-0.0694316
-0.0740113
-0.0657829
-0.318825
0.0543468
-0.0746134
-0.0921784
-0.237409
0.000920176
-0.125875
-0.172324
0.00243222
0.00183338
-0.059572
-0.0458728
-0.358683
0.00456572
0.00307982
0.00374791
0.00680522
0.00561822
0.00970165
0.00817897
0.0132084
0.0113722
0.0171002
0.0151566
0.0206786
0.0189711
0.023374
0.0221603
0.0248881
0.024284
0.0251615
0.0251749
0.0242713
0.0248514
0.0223558
0.0234304
0.0195532
0.0210552
0.016007
0.0178607
0.0119311
0.0140158
0.00770051
0.00980293
0.00394438
0.00571397
0.0015852
0.00252796
0.00167812
0.00127173
0.00495235
0.00291161
0.0110807
0.00774846
0.0185344
0.014687
0.0244447
0.0218702
0.0259892
0.0258836
0.0217173
0.0245866
0.0118873
0.0174018
-0.00162951
0.00540071
-0.0158991
-0.00887378
-0.0278491
-0.0223158
-0.0341953
-0.0323116
-0.0461624
-0.0332683
-0.0346592
-0.0157903
-0.01001
-0.0242071
-0.0205028
-0.0281657
-0.0268146
-0.0272458
-0.0283164
-0.0216574
-0.0249906
-0.0118568
-0.0173168
0.000976304
-0.00578954
0.0150306
0.00791032
0.0287271
0.0220103
0.0408567
0.0350409
0.0504621
0.046024
0.0565807
0.0540047
0.0582564
0.0580106
0.0547417
0.057153
0.0460325
0.0509676
0.0335226
0.0400905
0.0200657
0.0267054
0.00882614
0.0139747
0.00151783
0.00468111
-0.00207483
-0.00066961
-0.00307027
-0.002812
-0.00262842
-0.00296437
-0.00159642
-0.00214674
-0.000486411
-0.00103119
0.000452487
8.91494e-06
0.001125
0.000809402
0.00157881
0.0013494
0.00192799
0.00169211
0.00188573
0.00279159
0.00243492
0.00333881
0.00306997
0.00388534
0.003621
0.00401193
0.00396926
0.00311245
0.00444439
-0.00260229
0.000885964
-0.0125065
-0.00766378
-0.0208708
-0.0170427
-0.025077
-0.023626
-0.0235388
-0.0250387
-0.017207
-0.0207739
-0.00970662
-0.0133699
-0.00355171
-0.0063369
7.71065e-06
-0.00147594
0.00205228
0.00120352
-0.0462444
-0.449012
-0.342095
0.00264275
0.00210073
0.0119149
0.0029417
-0.502113
-0.247387
-0.0304413
-0.0441509
-0.0769679
-0.0155943
-0.505067
-0.109707
-0.0615932
-0.0361932
-0.463243
0.00619164
-0.0759135
-0.0903697
-0.0584757
-0.391133
0.0393888
-0.086085
-0.0836976
-0.302178
-0.00503233
-0.0920399
-0.115341
-0.217765
-0.0569765
-0.158004
-0.0261017
-0.0150043
-0.0117604
0.0200032
0.0295846
-0.411853
0.00338807
0.00257823
0.00296502
0.00494115
0.00410308
0.00709122
0.00595061
0.00969287
0.00832588
0.0127763
0.0111793
0.0160654
0.0144254
0.0190653
0.0176296
0.0213482
0.0203135
0.0226694
0.0221336
0.0229589
0.0229394
0.0222609
0.0227249
0.0206786
0.0215709
0.018335
0.0195919
0.0153823
0.0169219
0.0120458
0.0137428
0.00868571
0.0103399
0.00584591
0.00716109
0.00424525
0.00484588
0.00461893
0.00415252
0.00737219
0.00570476
0.0121085
0.00956165
0.0175352
0.0148338
0.0215583
0.019874
0.0221265
0.0223595
0.0182068
0.0207254
0.0100828
0.0145882
-0.000743647
0.0048542
-0.0121014
-0.00652267
-0.0213615
-0.0171616
-0.0254894
-0.0242654
-0.0234195
-0.0253278
-0.0196538
0.0195969
0.0359733
0.0271358
0.00488224
0.0121831
-0.00719099
-0.00178041
-0.0151269
-0.0117379
-0.0189963
-0.0176338
-0.0189561
-0.0196136
-0.0145007
-0.0173376
-0.00656781
-0.0109859
0.00407548
-0.00149401
0.0159054
0.00992466
0.0275662
0.0218313
0.037982
0.0329805
0.0462653
0.0424344
0.0515708
0.0493263
0.0531024
0.0528343
0.0503368
0.0522546
0.0433481
0.0473131
0.0332367
0.0385606
0.0221482
0.0276557
0.0123636
0.0169465
0.00538496
0.00850424
0.00132977
0.0030339
-0.000467294
0.00020936
-0.000845318
-0.000781364
-0.000501365
-0.000727772
9.30067e-05
-0.000215679
0.000666017
0.00038961
0.00109382
0.000894352
0.00137243
0.00123401
0.00157777
0.00147217
0.00152678
0.00160059
0.00283092
0.00248106
0.00354934
0.00318345
0.00425677
0.00390955
0.00459388
0.00449951
0.00312695
0.00438843
-0.00227641
0.000770907
-0.0124953
-0.00871331
-0.0190978
-0.0161483
-0.0218118
-0.021035
-0.0197283
-0.0213428
-0.0140722
-0.0171779
-0.00775299
-0.0108212
-0.00271659
-0.00498477
0.000150545
-0.00102971
0.00175037
0.00114646
0.00210222
0.0116071
-0.492302
-0.362336
-0.0207015
-0.0139055
-0.00607988
0.000735042
0.00234255
-0.0388154
-0.0927652
-0.00735117
-0.523231
-0.242902
-0.0603289
-0.0282484
-0.500156
-0.107758
-0.0797556
-0.111252
-0.0508779
-0.440603
-0.0246527
-0.0954715
-0.0753255
-0.361663
-0.0250229
-0.113919
-0.107344
-0.104572
-0.274796
-0.0740692
-0.142461
-0.195552
0.0473753
0.0333309
0.0213901
-0.444401
0.0035611
0.00286235
0.0050963
0.00423455
0.0070601
0.00600358
0.00942252
0.00818542
0.0121201
0.0107334
0.0149215
0.0135278
0.0174575
0.0162426
0.0194036
0.0185175
0.0205589
0.0200843
0.0208538
0.0208115
0.0203121
0.0206813
0.0190119
0.0197489
0.0170628
0.0181088
0.0146155
0.0158887
0.0118923
0.0132703
0.00922483
0.0105264
0.00707459
0.0080534
0.00599709
0.00636975
0.00649954
0.00603162
0.0087851
0.00743194
0.012447
0.0105004
0.01642
0.0144796
0.0191327
0.0180346
0.0190827
0.0195165
0.0156028
0.0177432
0.00894895
0.0126199
0.000286956
0.00475543
-0.00853807
-0.00424065
-0.0154682
-0.0124291
-0.0180196
-0.0173493
-0.0153267
-0.0173893
-0.00764801
-0.0117599
-0.019502
-0.00854215
0.00172491
-0.00350209
0.0256348
0.0419285
0.0330247
0.0119853
0.0187126
0.000353057
0.00586579
-0.00751243
-0.00414011
-0.011515
-0.0099416
-0.0119476
-0.0122036
-0.008579
-0.0107122
-0.00210788
-0.00568395
0.00666891
0.00206648
0.0165837
0.0115621
0.0264868
0.0216003
0.0354095
0.0311194
0.0425246
0.039233
0.0471002
0.0451687
0.0484702
0.0482061
0.0462515
0.0478028
0.0405581
0.0437918
0.0322615
0.0366402
0.0230525
0.0276374
0.0144811
0.0185517
0.00795859
0.0109397
0.00373058
0.00557979
0.00143082
0.00238157
0.000467715
0.000823674
0.000283742
0.000310214
0.00046105
0.000347929
0.000731941
0.000595769
0.000956716
0.000853572
0.00109285
0.00103442
0.00115923
0.00114139
0.00106248
0.00117535
0.00194939
0.00118451
0.00282358
0.00242993
0.00369046
0.00323768
0.00453296
0.00413006
0.00487749
0.00482577
0.00298729
0.00442035
-0.00320003
0.0003804
-0.0113624
-0.00767803
-0.0165695
-0.0143591
-0.0181872
-0.0178653
-0.0159842
-0.0175184
-0.0111988
-0.0137777
-0.00608003
-0.00855484
-0.00209099
-0.00388632
0.000309403
-0.000688143
0.0015863
0.00110705
0.00193897
-0.0291993
-0.116583
0.00131932
-0.505972
-0.361201
0.00236085
0.0526891
-0.05378
-0.0197269
-0.51199
-0.233722
0.00183796
0.00187757
0.0105598
-0.0788885
0.05547
0.0490722
-0.137406
-0.0429806
-0.467121
-0.124543
-0.101535
-0.0672805
-0.396231
-0.0816207
-0.141862
-0.119983
-0.0943432
-0.317287
-0.107061
-0.133883
-0.127906
-0.238546
-0.147988
-0.0285683
-0.0166479
-0.172659
-0.00577774
0.0236786
0.0109953
-0.450863
0.00356555
0.0029326
0.00505615
0.00426857
0.00685361
0.0059117
0.00897174
0.00787646
0.0113324
0.01013
0.0137301
0.0125425
0.0158846
0.0148533
0.0175453
0.016787
0.0185504
0.0181335
0.0188375
0.0187822
0.0184187
0.0187116
0.0173547
0.0179605
0.0157435
0.0166086
0.013728
0.0147743
0.0115179
0.0126309
0.00940961
0.0104295
0.00778865
0.00851322
0.00708173
0.00729825
0.00763488
0.00719048
0.00952516
0.00842773
0.0123653
0.0108727
0.0152859
0.0138834
0.0171074
0.0164066
0.0167774
0.017247
0.0137355
0.0156187
0.00827652
0.0112506
0.0014102
0.00493624
-0.00541433
-0.00211121
-0.0103611
-0.00826995
-0.0116816
-0.0115996
-0.00855668
-0.0107396
-0.00139791
-0.00524195
0.00861325
0.00265748
0.0643658
0.0603704
0.0674172
0.0467059
0.0566921
0.0307957
0.0380587
0.0178812
0.0241448
0.00670793
0.011935
-0.000991419
0.00239813
-0.00514178
-0.00347051
-0.00600346
-0.00597795
-0.00358881
-0.00517661
0.0015987
-0.00128769
0.00880816
0.00501038
0.0171013
0.0128857
0.0254944
0.0213417
0.033113
0.0294458
0.0392064
0.0363874
0.0431259
0.0414646
0.0443378
0.0440881
0.0425283
0.0438021
0.0378265
0.0404997
0.0309239
0.0345765
0.023029
0.0270235
0.0156351
0.0192249
0.00960937
0.0124133
0.00537208
0.00727529
0.00276366
0.00389242
0.00138074
0.00195109
0.000788381
0.001013
0.00062757
0.000673649
0.000647875
0.000627319
0.000702635
0.000677698
0.000727638
0.000723416
0.000707285
0.000730959
0.000574411
0.00067464
0.000323617
0.00046022
0.00169734
0.000574538
0.0010312
0.0027704
0.00227438
0.00376492
0.00326002
0.00468379
0.00425237
0.00497836
0.0049799
0.00283831
0.0043862
-0.003183
0.000189047
-0.00974636
-0.00672833
-0.0136881
-0.0120725
-0.0146126
-0.0145375
-0.0126139
-0.0139307
-0.00878926
-0.0108255
-0.00479585
-0.00672506
-0.00163217
-0.00308105
0.000357021
-0.0004759
0.0014605
0.00103121
0.00193651
0.00176653
0.00190996
-0.0423136
-0.0108736
-0.490417
-0.347446
0.00227884
0.0168318
0.000216624
-0.0717074
-0.0290272
-0.042853
0.0708695
0.0657472
-0.173807
-0.034848
-0.473167
-0.232819
-0.101463
-0.0595297
-0.413361
-0.166575
-0.1777
-0.0158246
-0.128126
-0.0853357
-0.339097
-0.163359
-0.150144
-0.11513
-0.267347
-0.198504
-0.167362
-0.152372
-0.204001
0.0144704
0.0120582
0.0399735
0.0296327
0.00690432
-0.00105762
-0.435045
0.00347069
0.00282046
0.00487804
0.00414032
0.00651349
0.00565211
0.00841333
0.00742719
0.0104757
0.00943138
0.0125302
0.0115159
0.0143591
0.0134847
0.0157684
0.0151242
0.016631
0.0162709
0.0168953
0.016837
0.016568
0.0168017
0.0156996
0.0161956
0.0143777
0.0150873
0.0127341
0.0135852
0.0109595
0.0118486
0.00931301
0.0101022
0.00811161
0.00863715
0.00768031
0.0077838
0.00825086
0.00783579
0.00982339
0.00892716
0.0120435
0.0108904
0.014209
0.0131861
0.0154246
0.014988
0.0149166
0.0154143
0.0123252
0.0138812
0.00791162
0.0103002
0.00252062
0.00526878
-0.0026489
-0.000175784
-0.00612238
-0.00469317
-0.00650592
-0.00676443
-0.00293253
-0.00524251
0.00373097
9.48302e-05
0.0140943
0.0081867
0.0259921
0.0298768
0.0214721
0.0211579
0.0768297
0.0739465
0.0697405
0.0803416
0.0787519
0.0505224
0.0597703
0.0350764
0.0422954
0.0226412
0.0286539
0.0121132
0.0170918
0.00456106
0.00792876
0.000273185
0.00203806
-0.000998264
-0.000721406
0.000605119
-0.00053073
0.00468684
0.00238352
0.0105799
0.00745829
0.0174951
0.0139661
0.0245813
0.0210671
0.0310619
0.0279382
0.0362651
0.0338556
0.039611
0.0381947
0.0406627
0.0404351
0.0391703
0.0402279
0.0352426
0.0374782
0.0294377
0.0325162
0.0227079
0.0261263
0.0161603
0.0193578
0.0106054
0.0132272
0.00644199
0.00834924
0.00364488
0.0048906
0.0019536
0.00268521
0.00103828
0.00142161
0.000599167
0.000776832
0.000409484
0.000485079
0.000323077
0.000360398
0.00026278
0.000293933
0.00018495
0.000232177
6.75533e-05
0.00015957
-0.00015868
-5.45652e-05
-0.000248848
0.000614746
-0.000292306
0.000191658
0.00161677
0.00109703
0.00272978
0.00216729
0.00379861
0.00326798
0.00472415
0.00429777
0.00495126
0.00499686
0.00273154
0.0042937
-0.00272024
0.00023321
-0.00788001
-0.00554884
-0.0108016
-0.0096253
-0.0113691
-0.0113795
-0.00975939
-0.0107951
-0.00684255
-0.00838888
-0.00379788
-0.00527437
-0.00130182
-0.00246458
0.000332964
-0.000361059
0.00127125
0.000906525
0.00153858
0.00147633
0.00146854
0.0015361
-0.0587426
0.0591863
0.01644
0.0405492
0.0508388
-0.221178
-0.00189407
-0.0262281
-0.452647
-0.329293
-0.0940281
-0.0520865
-0.417368
-0.250805
0.0361043
0.0390681
-0.225656
-0.000912688
0.0272764
0.0216276
0.0716784
0.0816008
-0.000289327
-0.000809538
-0.000804305
0.00131703
0.00115303
0.000979586
-0.129595
-0.07795
-0.349551
-0.23441
-0.0613973
-0.045159
-0.161238
-0.105005
-0.279211
-0.262515
-0.210992
-0.187744
-0.00049772
0.0268932
-0.135777
-0.219688
-0.290125
-0.17443
-0.0157582
-0.404472
0.00212356
0.00169445
0.00323677
0.00263397
0.00457303
0.00388112
0.00608795
0.00530295
0.00779177
0.00691722
0.00958685
0.00868286
0.0113417
0.0104793
0.012884
0.0121486
0.0140638
0.0135252
0.0147854
0.0144839
0.0150096
0.0149586
0.0147447
0.0149349
0.0140359
0.0144406
0.0129621
0.0135374
0.0116423
0.0123232
0.0102453
0.0109408
0.00899175
0.00958568
0.00813782
0.00849983
0.00792718
0.00794123
0.0085093
0.00811826
0.00983849
0.00909518
0.0115986
0.0106957
0.0132248
0.0124695
0.0140354
0.0137705
0.0134647
0.0139427
0.0112855
0.0125697
0.00774837
0.009649
0.00355945
0.005677
-0.000269967
0.00153017
-0.00254942
-0.00167413
-0.00215268
-0.00273897
0.00160225
-0.000688014
0.00827525
0.00460783
0.0185745
0.0128692
0.0330614
0.0253312
0.0322077
0.0857477