/*--------------------------------*- C++ -*----------------------------------*\
  =========                 |
  \\      /  F ield         | OpenFOAM: The Open Source CFD Toolbox
   \\    /   O peration     | Website:  https://openfoam.org
    \\  /    A nd           | Version:  10
     \\/     M anipulation  |
\*---------------------------------------------------------------------------*/
FoamFile
{
    format      ascii;
    class       surfaceScalarField;
    location    "3";
    object      phi;
}
// * * * * * * * * * * * * * * * * * * * * * * * * * * * * * * * * * * * * * //

dimensions      [0 3 -1 0 0 0 0];

internalField   nonuniform List<scalar> 
57492
(
0.000979852
-2.28391e-05
-0.00019031
-0.000766704
-0.000931155
0.0011039
0.00080711
-3.56384e-05
0.00010277
0.000403645
-0.000470777
0.00320704
0.00336115
-0.000288239
-0.00627995
-0.00861695
0.00398128
0.00784271
0.00243626
-0.00237649
-0.00126
0.00120024
-0.00449043
0.00120565
-0.000553244
0.00383802
0.000733743
-0.00278792
0.000778326
-0.00418796
0.00397599
-0.00056636
0.000739427
0.00385961
-0.00382072
-0.00305989
-0.00100253
0.00296998
0.00109244
-0.000149142
-0.00290198
-8.76411e-06
0.00154941
-0.00168827
-1.02784e-05
-0.000315102
0.000861978
0.00374163
-0.00348394
-0.00130465
0.00104696
0.000406349
0.00299036
0.000344927
-0.000310706
0.000767954
0.00329951
-0.00375676
-0.000645
0.00322243
-0.00288814
0.000142567
-0.000310441
0.000167874
-0.00182711
0.00132873
0.000640947
-0.00464814
0.000340857
0.0033743
0.00093299
0.00106335
-0.00470702
-0.00100448
-3.28732e-05
-0.00115116
-0.00155652
0.00274056
-0.000818584
0.000823379
-3.7668e-05
-0.00477857
0.00352913
0.00177122
-0.000521786
-0.00458099
0.000289705
-0.000487285
-0.00114173
0.000594127
0.000471612
7.59892e-05
-0.00079156
-0.000364045
1.38771e-05
-0.000415263
-0.00129837
0.0015181
0.000195533
-0.000476144
0.000136793
-7.59115e-05
0.00263877
-0.0017666
-0.00167884
0.000806673
-0.00220265
0.00151386
0.00332755
-0.00257335
-0.00529364
0.00411793
0.00374907
-0.00509371
-0.00133524
0.0038556
-0.00076551
-0.000177603
0.000943113
-0.000297872
-0.000467637
-0.00146421
0.00203506
-0.000868714
0.000219353
-0.00081592
-0.000867648
-0.00232049
0.00352614
-0.000248284
-0.00195877
0.00118352
0.000775246
-0.00446746
0.00250869
0.00443586
-0.000425536
1.60211e-05
-0.00402634
0.00325635
-0.000385849
0.00156536
-0.000335043
0.00433565
-0.00442614
0.00420502
0.000705985
-0.00417727
0.00405875
-0.000406966
0.0043547
-0.00161688
-0.00314907
0.000411243
0.00491382
0.000146866
0.00292755
-0.00160065
0.00273185
0.00203496
0.00473062
-0.00408131
-0.000606791
0.00057166
0.00411644
-0.00421502
-0.000333476
0.000467186
0.000452856
0.00408835
-0.00405496
-0.00048625
0.000170566
-0.00390567
-0.00583405
0.00319469
0.00447046
-0.0018311
-0.00230668
0.00389061
-0.00741799
-0.000125363
-0.00075338
4.09398e-05
0.000837803
-0.00134383
-0.000469803
0.000483247
-0.000477755
-0.00134932
-0.00035882
8.86876e-05
0.000233855
-0.000192915
6.01099e-05
0.000173745
0.00915775
0.00352551
-0.00692567
-0.00575759
0.00168214
-0.000233463
0.00770908
-0.008894
0.00217768
0.00839846
0.00153584
-0.00690432
0.00145681
-0.00289865
0.0022192
-0.000777354
0.0024653
-0.00296138
0.00195289
-0.000147627
0.000139112
-1.43246e-05
-0.000302526
-3.54099e-05
-0.000925494
-0.000143736
-0.00311913
0.00568289
0.00316842
-0.00573218
0.00413351
-0.00478734
0.00271895
0.00514229
-0.00217835
0.011683
-0.00327281
-0.000253322
-0.0081569
0.000348686
0.00645979
0.00487456
0.000478085
-0.00612042
0.00599102
5.89768e-05
-9.46152e-05
0.000161747
0.00106509
0.00206235
-0.000737235
-0.00239021
0.00133499
0.000133748
-0.00027156
9.91485e-05
0.000172411
-0.000644837
0.000373277
-0.00750776
0.00315457
-0.00208927
0.00644247
-0.0062425
-0.00336664
0.00210137
-0.00283734
0.00249472
-0.00589988
0.00226252
-1.68107e-05
-0.00106863
-0.00117708
-0.000819051
0.00256233
0.000519245
-0.000969405
-9.59567e-05
0.000246311
-0.000888096
-9.81194e-05
-0.00030294
-0.00165379
-0.00173194
-0.000685478
4.87731e-05
0.00236864
-0.00156737
-0.00280532
0.00264075
0.00150717
0.000239493
-0.00331403
0.000953569
-0.000131877
0.00117207
-0.000169731
-0.000724693
0.000421753
8.40633e-05
-0.000808756
0.000252632
-0.000897469
0.0042583
0.00334045
-0.000172038
0.00213001
-0.00648866
-0.000107952
0.00237342
-0.00182215
-0.000443323
8.25288e-05
0.00332082
-0.0035113
0.00266917
0.00179933
-0.000723657
-0.00374484
-0.000642241
0.000156468
0.00315494
0.00353077
-0.00237368
-0.00145276
-0.00299536
0.000946294
0.00350183
-0.00137582
0.00348154
-0.00355848
0.00017721
-0.00454839
0.000887635
0.000605583
-3.30505e-05
0.0030978
-0.0016133
-0.00241565
0.00110129
-0.00205893
0.00405543
0.00205393
0.000151262
-0.000193807
0.000351813
7.14745e-05
-0.00022948
0.00104977
-0.00127755
3.39686e-05
-0.000379589
0.000885061
0.0005443
-0.000132936
0.00010516
-0.00706292
0.00311817
0.00709932
0.00769135
-0.00259021
-0.00846777
-0.00344138
0.00406981
-9.95174e-05
-0.000977132
-0.000221718
-0.000588102
1.24408e-05
4.29314e-05
-0.000138821
4.88572e-05
4.70326e-05
-0.000131718
0.000139822
3.48274e-05
-0.000293615
2.30757e-05
-0.000304014
-0.000347974
6.3885e-05
-0.000913274
-0.000367872
-0.002069
-0.0022788
0.00269788
0.00164992
0.000114082
0.000982016
-0.00316509
-0.00305956
0.000894837
-0.0031756
0.00140067
-5.21841e-05
-0.00370822
0.00077566
-0.000243034
0.000596317
-0.00340462
0.00274943
5.88762e-05
0.00044463
-0.00303249
0.00318418
0.00236063
-0.0102327
-0.00200044
0.0024159
0.00321276
-0.00381253
0.00225179
-0.00039434
-0.000416876
0.000656368
-0.000466665
4.97896e-05
0.000317249
-4.41747e-05
0.0047176
-0.0029003
-0.00231413
0.000496826
0.00413018
0.000252377
0.00578927
-0.0017619
-0.00633405
0.000156425
0.00400257
0.00163028
-0.000243255
-0.00389094
0.00429062
2.9394e-05
-0.000496059
0.000809415
-0.00237914
-0.00320501
0.00148764
0.00356941
0.00275486
-0.000163374
-0.00289279
0.000301305
0.000813867
-0.000261657
-0.00335823
0.000486839
0.00438525
0.000462257
-0.00300662
-0.000134357
7.01067e-06
-0.000349692
0.0002832
8.3819e-05
-1.73271e-05
0.00012868
3.40643e-06
-0.000481778
0.000191355
-0.0013379
0.00127522
-0.00369352
0.00528228
-0.00133613
0.00336892
-0.00599462
-0.00106783
-0.000114602
-0.00403882
0.00464026
-0.00535168
0.00053723
-0.00357166
-0.00265296
0.00087294
0.00292014
0.00275127
-0.00533055
0.00235083
0.00453118
-0.00396187
0.00211746
-0.0030777
0.00165356
-0.000693317
0.00230798
-0.00302322
0.0028327
0.00448084
0.00164473
0.00437664
-0.000267299
-0.00437992
0.000270575
0.00480758
-0.000632443
0.000201504
0.00511314
-0.000473652
-0.000300462
-0.00433903
0.00366736
-0.000908217
0.002354
0.00423545
-0.00105617
0.000802848
-0.00398213
0.000879837
0.00431295
-0.000957336
-0.00385333
-0.00132917
0.00412633
0.000759692
-0.00366673
-0.00141917
0.00359182
-0.00189765
-0.00328126
0.00165252
0.00352639
-0.00196832
-0.00333516
0.00340583
0.00184907
0.00315774
-0.00114935
-0.00385747
0.00313409
-0.00325334
-0.00215849
0.00210978
0.0031828
-0.0017276
0.00272685
-0.00409886
0.00366098
-0.000711464
-0.00519491
0.000700915
0.0054658
-0.000971801
0.00163676
-0.000865442
0.00303192
-0.00324219
0.00107571
-0.000439063
0.00316917
-0.00359555
-0.000171819
0.00122107
0.00100467
-0.00309626
-0.00396284
0.00246369
-7.23908e-05
7.57972e-05
5.63762e-06
-7.80285e-05
-0.000348406
-0.00472329
0.00347104
-0.00375766
-0.000256703
0.00366596
0.000216429
-0.00395016
-2.39324e-05
-0.000403301
0.00182268
0.000430966
-0.00185035
0.00195915
0.000402832
-0.00276528
0.00180666
0.00197517
-4.60735e-05
8.78347e-05
0.000563822
9.46208e-05
-0.000140694
0.000182455
-3.02043e-05
7.2797e-05
-0.000401413
3.14303e-05
-6.16346e-05
0.000104227
-0.000123673
7.24457e-05
-0.000767357
8.26462e-05
-0.000206319
0.000155092
5.61642e-05
-5.73189e-06
-0.000183368
-1.7819e-05
7.39831e-05
-2.35508e-05
0.000967408
0.00270908
-0.00352002
0.00132125
-0.00382131
0.00346748
0.00379348
0.000236849
-0.00117585
-0.00241248
0.00115438
0.00243395
-0.000696322
0.00267991
-0.00315944
0.000162652
-0.00327145
0.00385405
-0.00389153
-1.19379e-05
4.94178e-05
0.0038514
3.50487e-05
-3.23933e-05
-2.3862e-05
-0.00388681
1.91344e-05
0.00387926
-9.84128e-07
-2.68793e-05
0.00394728
5.65316e-05
-0.000124547
2.78252e-05
0.00404466
-0.000125208
0.00399605
-0.00397334
5.1173e-06
-0.000187901
0.00423259
-3.24514e-08
0.003884
-7.58561e-05
-0.00385262
-6.41828e-05
-0.00384032
-1.32856e-05
-0.00383599
3.07212e-05
-0.00391936
7.14262e-05
-0.0038564
-8.6816e-05
-0.000182163
0.00441507
-3.14505e-07
0.00370177
6.83928e-08
-1.90105e-05
-0.00385528
-1.25119e-05
-0.00388896
1.35445e-05
-2.7102e-05
-0.00407902
0.000250839
1.06856e-07
0.00441494
2.5732e-08
0.00370225
-3.71364e-07
-0.00403289
0.000116824
0.00441493
2.78384e-07
-2.6802e-07
1.66711e-07
0.00441469
7.6839e-08
0.00370242
1.05294e-07
0.00370293
-3.4577e-07
-2.28861e-05
-0.00405559
-5.49014e-07
-0.00405566
-1.09206e-07
3.95105e-07
0.00441452
-2.33038e-07
0.00370319
1.37187e-07
9.62167e-09
-0.00405527
-3.2462e-07
-0.00405508
-5.70444e-07
3.91151e-07
0.00441401
1.1859e-07
0.00370391
-3.25782e-07
9.8859e-08
-0.00405471
-6.56767e-07
-0.00405479
-1.95902e-07
8.51306e-07
0.00441337
-2.06422e-07
0.0037046
1.61457e-07
-6.07741e-10
-0.00405428
-4.34847e-07
-0.00405412
-6.66539e-07
1.29706e-06
0.00441192
1.4934e-07
0.00370621
-3.13426e-07
1.14858e-07
-0.00405362
-7.67985e-07
-0.00405367
-3.32494e-07
2.67147e-06
0.00440944
-1.89408e-07
0.0037087
1.79559e-07
9.38546e-06
-0.00406244
-5.70606e-07
-0.00404345
-8.35316e-07
4.92796e-06
0.00440434
1.71904e-07
0.00371393
-2.98681e-07
2.64701e-05
-0.00394787
-0.000141035
-0.00397454
-4.24432e-05
9.92679e-06
0.00439459
-1.73555e-07
0.00370646
1.73888e-05
2.62595e-05
-0.00396695
-7.18429e-06
-0.00394515
-3.12713e-06
1.93584e-05
0.00437503
2.01603e-07
0.00368037
4.54495e-05
5.64502e-05
-0.00382769
-0.000195706
-0.00383179
-5.69115e-05
0.000187649
0.00418752
-1.37796e-07
0.00379222
7.58013e-05
6.50833e-05
-0.00381112
-8.16618e-05
-0.0037905
2.37964e-05
0.000165694
0.00387869
0.00014313
0.00385465
0.000103265
0.000103821
-0.000145529
-0.00376941
-0.00377642
8.97341e-05
1.16683e-05
3.74753e-05
0.00382955
0.00382947
3.685e-05
-0.00382472
0.00388414
-0.000141085
-0.00384711
-0.000123143
0.000177384
-0.000153269
-0.00379352
9.05986e-05
-0.00368963
-0.00380046
0.00383318
-3.99106e-05
-0.000112021
-0.00369387
0.00369463
-1.33107e-06
-1.71857e-06
-0.00369533
0.00369597
-1.07551e-06
-1.46825e-06
-0.00369656
0.00369711
-8.76219e-07
-1.24759e-06
-0.00369765
0.00394923
-7.41016e-07
-1.08495e-06
-0.00393766
0.00388323
7.35691e-05
-9.48259e-07
-0.00400767
0.00397578
-5.01347e-07
-7.50263e-05
-0.00384806
0.0037914
-6.78929e-05
0.000100845
-0.00370098
0.0037013
-3.47776e-07
-3.47866e-05
-0.00370161
0.0037019
-2.64499e-07
-6.29705e-07
-0.00370219
0.00370246
-1.88779e-07
-5.57297e-07
-0.00370272
0.00370296
-1.24502e-07
-4.95608e-07
-0.0037032
0.00370343
-7.5033e-08
-4.46621e-07
-0.00370365
0.00370386
-3.95706e-08
-4.12866e-07
-0.00370408
0.00370428
-5.373e-09
-3.87321e-07
-0.00368257
0.00376914
5.65576e-05
2.15729e-05
0.00375963
4.69935e-05
-2.28739e-05
7.41118e-05
0.00377831
-2.86273e-06
0.00380946
0.00378391
-0.00372164
1.35278e-05
-0.00382063
0.00381238
4.51009e-05
6.65414e-05
0.00372133
-0.00370392
-2.13295e-08
4.51482e-05
0.0037037
-0.00370347
-5.16545e-08
-5.25447e-07
0.00370323
-0.00370299
-8.19141e-08
-5.46343e-07
0.00370274
-0.00370248
-1.26039e-07
-5.76711e-07
0.0037022
-0.00370191
-1.83235e-07
-6.21022e-07
0.00370161
-0.00370129
-2.47505e-07
-6.75416e-07
0.00377642
-0.00377096
-3.34982e-07
-7.31357e-07
0.00383433
-0.00379293
-5.4684e-05
-8.15927e-07
0.00376825
-0.00374369
4.68718e-05
6.03416e-06
0.00379072
-0.00381549
3.83137e-05
-3.97914e-05
0.00369763
-0.0036971
-6.44476e-07
-1.02734e-06
0.00369654
-0.00369595
-7.86507e-07
-1.12482e-06
0.00369533
-0.00369466
-1.00147e-06
-1.29229e-06
0.00369396
-0.00373512
-1.28121e-06
-1.53767e-06
0.00373643
-0.00379178
-1.56173e-06
-1.81846e-06
0.00376591
-0.00371216
3.59885e-05
-2.07459e-06
-0.00367268
5.11206e-05
-0.00387777
-0.000122605
0.00377111
6.26321e-05
8.80157e-07
0.00380864
0.000141484
-0.000126379
-0.00370474
0.000114157
-0.00364536
0.000128568
-0.000118651
-0.00388769
-0.00379133
-0.0038024
0.00374012
-7.88041e-05
0.00384667
-0.00387996
-8.93078e-05
-7.888e-05
-0.00369231
0.00369301
-4.0611e-05
-6.42058e-05
-0.00369384
0.0036946
-2.09059e-06
-2.55266e-06
-0.0036953
0.00369595
-1.72426e-06
-2.16775e-06
-0.00369655
0.00369711
-1.43675e-06
-1.84595e-06
-0.00369763
0.00369812
-1.22625e-06
-1.60731e-06
-0.0036986
0.00377323
-1.06206e-06
-1.42805e-06
-0.00369947
0.00369988
-9.09937e-07
-1.26943e-06
-0.00380188
0.00373476
-7.65993e-07
-1.15942e-06
-0.003701
0.00370132
-6.71585e-07
-1.02563e-06
-0.00370163
0.00370193
-5.62716e-07
-9.3916e-07
-0.00370221
0.00370248
-4.6028e-07
-8.38324e-07
-0.00370273
0.00370298
-3.71691e-07
-7.4936e-07
-0.00370321
0.00370344
-3.01927e-07
-6.7658e-07
-0.00370365
0.00370386
-2.50715e-07
-6.23409e-07
-0.00370406
0.00370426
-2.04252e-07
-5.84469e-07
-0.00370416
0.0037341
2.66187e-05
2.16667e-05
8.83561e-06
-1.66027e-05
0.00378608
2.28175e-06
0.00377766
-0.00372286
0.00375962
2.58734e-05
5.82335e-05
0.00376209
-0.00376308
4.60885e-05
0.00373174
3.12307e-05
-2.4375e-06
4.48519e-05
0.00376623
0.00379042
0.00376376
-0.00373634
-1.38955e-05
6.72279e-05
0.00370414
-0.00370392
-2.39427e-07
1.29457e-05
0.0037037
-0.00370348
-2.75242e-07
-7.42987e-07
0.00370325
-0.00370301
-3.21651e-07
-7.75422e-07
0.00370276
-0.0037025
-3.88009e-07
-8.24882e-07
0.00370223
-0.00370194
-4.72134e-07
-8.93877e-07
0.00370164
-0.00370132
-5.66362e-07
-9.77011e-07
0.00370098
-0.00370063
-6.79218e-07
-1.07091e-06
0.00370027
-0.00375417
-7.84159e-07
-1.17655e-06
0.00374685
-0.00369907
-9.12e-07
-1.28737e-06
0.00373747
-0.00369812
-1.03645e-06
-1.38741e-06
0.00369762
-0.00369709
-1.18132e-06
-1.5256e-06
0.00369653
-0.00369593
-1.37843e-06
-1.68456e-06
0.00369532
-0.00369466
-1.65427e-06
-1.91048e-06
0.00369398
-0.00369326
-2.00345e-06
-2.21874e-06
0.0036925
-0.00369169
-2.37006e-06
-2.5753e-06
0.00369085
-0.00365215
-2.70329e-06
-2.92354e-06
0.00363081
-0.00358075
6.41031e-05
2.97743e-05
-0.00390834
-9.02722e-05
0.000101527
-0.000156749
-0.00359013
-0.00355824
7.90175e-05
-0.000210182
-0.0036513
2.47951e-05
0.00373711
0.00373725
3.93417e-05
-5.62532e-05
8.13116e-05
-0.00391275
-5.1921e-05
-0.00391268
7.73833e-05
-0.000155506
-0.00351201
5.48231e-05
-0.00353568
-0.00392021
0.00376908
-0.00375809
1.488e-05
0.00373038
6.34927e-05
6.72448e-05
-2.90553e-05
0.00372804
4.43675e-05
0.00376013
-0.00386732
0.00390816
-9.27599e-05
-0.000103564
8.61787e-05
-0.00389529
0.00395414
-8.82169e-05
0.000318397
-0.00418432
-1.67483e-05
-0.00390254
0.00387081
-5.75849e-05
-8.46505e-05
-0.00382003
0.00375883
-1.76019e-05
-2.80975e-05
-0.00373049
0.00369316
-3.27713e-06
-3.58707e-05
-0.00369392
0.00369465
-2.81712e-06
-3.31313e-06
-0.00369533
0.00369597
-2.36521e-06
-2.84754e-06
-0.00369657
0.00369713
-2.00185e-06
-2.44443e-06
-0.00369766
0.00369816
-1.72841e-06
-2.13687e-06
-0.00369864
0.00369908
-1.50773e-06
-1.90185e-06
-0.00369952
0.00369992
-1.31671e-06
-1.70464e-06
-0.0037003
0.00370068
-1.14449e-06
-1.53608e-06
-0.00370103
0.00370136
-9.98272e-07
-1.37822e-06
-0.00370167
0.00370196
-8.59421e-07
-1.24796e-06
-0.00370225
0.00370251
-7.28802e-07
-1.11851e-06
-0.00370277
0.00370301
-6.1442e-07
-1.0025e-06
-0.00370324
0.00370346
-5.21265e-07
-9.05172e-07
-0.00370366
0.00370386
-4.49731e-07
-8.29975e-07
-0.00370405
0.00370424
-3.88196e-07
-7.72955e-07
-0.00371463
0.00372098
2.02655e-05
1.12758e-05
2.11244e-05
2.45734e-05
-8.70768e-06
0.00377021
-3.99652e-05
1.1454e-05
0.00376562
0.00376227
0.00375265
0.00375148
-0.00374753
4.21375e-05
-0.00374605
0.00372561
5.97825e-05
3.66611e-05
0.00370448
-0.00371798
-3.9577e-07
2.41787e-05
0.00370411
-0.00370391
-4.41798e-07
-9.18011e-07
0.00370371
-0.00370349
-4.90077e-07
-9.479e-07
0.00370327
-0.00370303
-5.56834e-07
-9.97835e-07
0.00370279
-0.00370253
-6.47489e-07
-1.06953e-06
0.00370226
-0.00370197
-7.59418e-07
-1.16448e-06
0.00370167
-0.00370135
-8.85224e-07
-1.27694e-06
0.00370102
-0.00370068
-1.0266e-06
-1.40224e-06
0.00370031
-0.00369992
-1.17493e-06
-1.5402e-06
0.00369952
-0.00369909
-1.33914e-06
-1.69027e-06
0.00369863
-0.00369815
-1.51718e-06
-1.84865e-06
0.00369764
-0.0036971
-1.72043e-06
-2.03311e-06
0.00369654
-0.00369595
-1.972e-06
-2.24797e-06
0.00369533
-0.00369469
-2.29737e-06
-2.52573e-06
0.00369402
-0.00369333
-2.69538e-06
-2.88158e-06
0.00369262
-0.00369186
-3.12395e-06
-3.29243e-06
0.00369108
-0.00369024
-3.5363e-06
-3.70818e-06
0.00365638
-0.00358836
-3.91414e-06
-4.09367e-06
0.00354884
-0.00355619
6.21798e-05
3.94957e-05
6.97161e-05
-6.79456e-05
-0.00353745
-0.0035393
5.2818e-05
0.000113894
-0.00394046
-9.26614e-05
-0.00371415
3.74585e-05
0.00370438
0.00373834
3.1636e-05
0.000134536
-0.00411804
1.7508e-06
-0.00358171
0.000801759
-0.00330837
0.00431327
-6.65052e-05
4.53449e-05
-0.00351813
-9.98357e-05
-0.00350412
-0.00261344
0.00397515
0.000613465
-0.00204371
-0.000138765
-0.00389897
-0.00376657
0.00392346
0.000161504
0.000337529
-0.000128952
-0.00388392
0.00384715
-5.59891e-05
2.27947e-05
-0.00381415
0.00376095
-4.38134e-06
-5.16515e-05
-0.00373747
0.00372418
-4.31557e-06
-4.61922e-06
-0.00369273
0.00369344
-3.98495e-06
-4.41971e-06
-0.00369413
0.00369479
-3.48655e-06
-3.99815e-06
-0.00369544
0.00369606
-2.984e-06
-3.4899e-06
-0.00369664
0.00369721
-2.5634e-06
-3.03209e-06
-0.00369774
0.00369824
-2.23213e-06
-2.66679e-06
-0.00369871
0.00369917
-1.96011e-06
-2.37685e-06
-0.00369959
0.0037
-1.72348e-06
-2.1321e-06
-0.00370038
0.00370075
-1.51118e-06
-1.91826e-06
-0.00370109
0.00370142
-1.32419e-06
-1.72353e-06
-0.00370173
0.00370202
-1.15266e-06
-1.55438e-06
-0.0037023
0.00370256
-9.94266e-07
-1.3958e-06
-0.00370281
0.00370305
-8.53833e-07
-1.25307e-06
-0.00370328
0.00370349
-7.35536e-07
-1.13038e-06
-0.00370369
0.00370388
-6.39995e-07
-1.03058e-06
-0.00370406
0.00370423
-5.60382e-07
-9.51325e-07
-0.0037164
0.00373715
-4.84479e-07
-8.86463e-07
-0.00372818
0.00372596
1.70971e-05
3.00938e-05
-0.0037406
0.00373642
4.16386e-05
4.88551e-05
5.25715e-05
-2.93436e-05
0.00374239
-3.28385e-05
7.95826e-06
0.0037613
0.00372411
3.66143e-05
1.51231e-05
0.00371847
0.00376954
-2.59386e-05
1.81097e-05
0.00373586
0.00374184
-2.25717e-05
3.97825e-06
0.00375693
0.00375566
0.00375987
-0.00374666
4.65734e-05
-0.00381791
0.003716
0.000105886
-2.64073e-05
0.00373741
-0.00372964
3.4369e-05
2.74084e-05
0.00370443
-0.00370427
-5.63961e-07
-1.02456e-06
0.0037041
-0.00370391
-6.2665e-07
-1.08598e-06
0.00370372
-0.00370352
-6.95907e-07
-1.14069e-06
0.0037033
-0.00370307
-7.87014e-07
-1.21352e-06
0.00370283
-0.00370257
-9.03649e-07
-1.31027e-06
0.0037023
-0.00370202
-1.04386e-06
-1.43217e-06
0.00370172
-0.00370141
-1.2008e-06
-1.57406e-06
0.00370108
-0.00370073
-1.37355e-06
-1.73093e-06
0.00370037
-0.00369998
-1.56121e-06
-1.90321e-06
0.00369958
-0.00369915
-1.76991e-06
-2.09412e-06
0.00369869
-0.00369821
-2.00031e-06
-2.30329e-06
0.0036977
-0.00369716
-2.25935e-06
-2.54016e-06
0.0036966
-0.00369601
-2.56406e-06
-2.81067e-06
0.0036954
-0.00369476
-2.93364e-06
-3.13743e-06
0.00369411
-0.00369344
-3.36916e-06
-3.5328e-06
0.00369275
-0.00369203
-3.843e-06
-3.98308e-06
0.00369128
-0.0036905
-4.32015e-06
-4.45298e-06
0.00368968
-0.0036888
-4.7938e-06
-4.91648e-06
0.00364391
-0.00357646
-5.27654e-06
-5.38674e-06
0.00357943
-0.00356654
3.24502e-05
5.57954e-05
5.43581e-05
-5.07982e-05
-0.00352169
-0.00354262
3.04382e-05
0.000110139
-0.00391606
-2.82621e-05
-0.00368414
0.000285003
-0.00360129
1.75457e-06
-0.0036833
0.00373763
-0.00374317
4.71819e-05
0.00372458
2.10067e-05
4.7525e-05
-3.2466e-05
0.00374187
1.30199e-05
0.00375051
0.000272769
-0.00317831
2.9223e-06
-0.00355784
-0.00192052
-0.00197353
-0.00309988
0.00355961
0.000153734
8.32673e-05
-5.749e-05
-0.00354747
5.94958e-05
-0.00351885
-0.00288647
-0.000352174
-0.00381709
-0.00371132
0.00375885
0.000113977
0.000185824
-0.00378733
0.00373664
-5.29809e-06
-5.68649e-06
-0.00369043
0.00369121
-5.16625e-06
-5.44368e-06
-0.00369192
0.00369258
-4.97588e-06
-5.3252e-06
-0.00369321
0.00369383
-4.6014e-06
-5.05261e-06
-0.00369444
0.00369505
-4.09278e-06
-4.60678e-06
-0.00369564
0.00369623
-3.56978e-06
-4.08535e-06
-0.00369679
0.00369734
-3.11076e-06
-3.59785e-06
-0.00369786
0.00369836
-2.73006e-06
-3.18758e-06
-0.00369883
0.00369928
-2.40813e-06
-2.84726e-06
-0.0036997
0.0037001
-2.12543e-06
-2.55454e-06
-0.00370048
0.00370084
-1.87188e-06
-2.29591e-06
-0.00370118
0.0037015
-1.64614e-06
-2.063e-06
-0.0037018
0.00370209
-1.44209e-06
-1.85716e-06
-0.00370237
0.00370263
-1.25609e-06
-1.66935e-06
-0.00370288
0.00370311
-1.08987e-06
-1.50025e-06
-0.00370333
0.00370354
-9.45505e-07
-1.35189e-06
-0.00370374
0.00370392
-8.23801e-07
-1.22599e-06
-0.00370409
0.00370425
-7.21162e-07
-1.12129e-06
-0.0037044
0.00370454
-6.25919e-07
-1.03229e-06
-0.00373558
0.00372266
3.00159e-05
-9.419e-07
2.83395e-05
4.0462e-05
-6.41411e-05
0.00376607
-1.71916e-05
2.93257e-05
0.00374916
0.00374738
8.4903e-08
-7.80759e-08
0.00371847
0.00370548
-3.62286e-05
5.39954e-05
0.0037181
0.00370553
0.00377719
0.00376185
-0.00375075
3.54735e-05
-0.00371506
0.00375282
6.81288e-05
2.03822e-05
0.00373955
-0.00370455
-6.24401e-07
1.62031e-05
0.00370441
-0.00370426
-7.15652e-07
-1.16539e-06
0.0037041
-0.00370393
-7.98402e-07
-1.24358e-06
0.00370375
-0.00370355
-8.94161e-07
-1.3238e-06
0.00370334
-0.00370311
-1.01227e-06
-1.42331e-06
0.00370288
-0.00370263
-1.15617e-06
-1.54695e-06
0.00370236
-0.00370208
-1.32455e-06
-1.69624e-06
0.00370179
-0.00370148
-1.51223e-06
-1.86732e-06
0.00370115
-0.00370081
-1.71779e-06
-2.05592e-06
0.00370045
-0.00370006
-1.94403e-06
-2.26331e-06
0.00369966
-0.00369924
-2.19682e-06
-2.49476e-06
0.00369879
-0.00369831
-2.47797e-06
-2.75245e-06
0.00369781
-0.00369728
-2.79186e-06
-3.04138e-06
0.00369672
-0.00369613
-3.1495e-06
-3.36676e-06
0.00369553
-0.0036949
-3.56295e-06
-3.74248e-06
0.00369426
-0.00369359
-4.03335e-06
-4.17643e-06
0.00369291
-0.00369221
-4.54474e-06
-4.66083e-06
0.00369149
-0.00369073
-5.07881e-06
-5.17591e-06
0.00368994
-0.00368909
-5.63926e-06
-5.71143e-06
0.00368819
-0.00368722
-6.25108e-06
-6.28465e-06
0.00362449
-0.0035851
-6.93741e-06
-6.93024e-06
0.00354703
-0.00351903
3.14967e-05
-7.63324e-06
0.000100975
-6.52203e-05
-0.0035546
-0.00349852
8.04601e-05
8.11915e-05
-0.00371225
6.46634e-07
-0.00368303
4.64236e-05
0.00370748
0.00373875
2.70932e-05
0.000161426
-0.00348994
-0.000474619
-0.00421119
-7.64467e-05
-0.00357648
1.70456e-06
-0.00368208
2.96578e-06
-0.0036183
-0.00415471
-0.000705298
0.000134051
-0.000419979
-0.00386878
-0.000312223
-0.00376491
-5.8288e-05
-0.0035544
6.3721e-05
-0.000119402
-0.00349892
0.000104632
-0.00353943
-0.00373526
-0.00338023
0.00352986
4.09797e-06
0.00355527
-0.00391758
-0.000342986
-0.000177131
-0.00363773
0.00368808
6.36305e-05
7.79536e-05
-0.00368922
0.00369024
-6.32283e-06
-6.82419e-06
-0.00369113
0.00369189
-5.92577e-06
-6.32758e-06
-0.00369255
0.00369315
-5.57967e-06
-5.98961e-06
-0.00369372
0.00369427
-5.15368e-06
-5.61839e-06
-0.00369482
0.00369537
-4.64445e-06
-5.15378e-06
-0.00369592
0.00369647
-4.11896e-06
-4.63549e-06
-0.00369701
0.00369753
-3.63609e-06
-4.1352e-06
-0.00369804
0.00369852
-3.21443e-06
-3.69123e-06
-0.00369898
0.00369942
-2.84626e-06
-3.30626e-06
-0.00369983
0.00370022
-2.51918e-06
-2.968e-06
-0.0037006
0.00370095
-2.22557e-06
-2.66651e-06
-0.00370128
0.0037016
-1.96304e-06
-2.39609e-06
-0.0037019
0.00370218
-1.7273e-06
-2.15555e-06
-0.00370245
0.00370271
-1.51391e-06
-1.93874e-06
-0.00370295
0.00370319
-1.32195e-06
-1.74352e-06
-0.0037034
0.00370361
-1.15171e-06
-1.56963e-06
-0.0037038
0.00370398
-1.00299e-06
-1.41735e-06
-0.00370414
0.0037043
-8.74223e-07
-1.28585e-06
-0.00370444
0.00370457
-7.61098e-07
-1.17285e-06
-0.0037047
0.00373536
-6.43794e-07
-1.06766e-06
-0.00373818
0.0037469
3.84629e-05
2.55213e-05
-0.00369689
0.00371274
3.05736e-05
7.10124e-05
6.35043e-05
-4.70111e-05
0.00373267
-1.45794e-05
-6.84565e-06
0.00373417
0.00375641
4.71032e-05
-1.19328e-07
0.00371908
0.00374748
1.10294e-07
-8.39374e-08
0.00371844
0.00370547
5.29738e-08
-3.94711e-08
0.00371808
0.0037055
-2.77813e-05
2.2467e-05
0.00374719
0.00374937
-1.63481e-05
2.12489e-05
0.00373385
0.00375663
0.00376518
-0.00372269
2.56407e-05
-0.00374782
0.00372585
4.32223e-05
4.44517e-05
0.00373014
-0.00372207
2.74006e-05
2.78333e-05
0.00370468
-0.00370455
-7.49917e-07
-1.19065e-06
0.00370442
-0.00370428
-8.54988e-07
-1.29604e-06
0.00370413
-0.00370397
-9.62557e-07
-1.39262e-06
0.00370379
-0.0037036
-1.08694e-06
-1.50052e-06
0.00370339
-0.00370317
-1.2332e-06
-1.62835e-06
0.00370294
-0.00370269
-1.40452e-06
-1.77952e-06
0.00370243
-0.00370216
-1.60086e-06
-1.95609e-06
0.00370187
-0.00370156
-1.81863e-06
-2.15589e-06
0.00370124
-0.0037009
-2.05737e-06
-2.37595e-06
0.00370055
-0.00370017
-2.32137e-06
-2.61844e-06
0.00369977
-0.00369935
-2.61665e-06
-2.88951e-06
0.00369891
-0.00369845
-2.94607e-06
-3.19297e-06
0.00369796
-0.00369743
-3.31281e-06
-3.53213e-06
0.00369689
-0.00369632
-3.72297e-06
-3.91087e-06
0.00369572
-0.0036951
-4.18288e-06
-4.33658e-06
0.00369447
-0.00369381
-4.69162e-06
-4.81249e-06
0.00369314
-0.00369244
-5.24138e-06
-5.33367e-06
0.00369172
-0.00369097
-5.82871e-06
-5.89253e-06
0.00369019
-0.00368936
-6.46988e-06
-6.49408e-06
0.00368848
-0.00368754
-7.19538e-06
-7.16403e-06
0.00368653
-0.00368545
-8.02325e-06
-7.93174e-06
0.00368428
-0.00364383
-8.95398e-06
-8.80085e-06
0.00360426
-0.00353815
3.85218e-05
4.0894e-05
5.32453e-05
-8.50777e-05
-0.0035076
-0.00353714
5.22283e-05
5.30118e-05
-0.00360384
-0.00397343
-0.000364133
1.73085e-05
-0.0035837
0.00376056
-0.00376985
3.98628e-05
0.00375728
-3.57316e-06
4.13579e-05
-3.54011e-05
0.00372789
5.12641e-05
0.00371594
5.14095e-07
-0.00368184
1.64337e-06
-0.00368076
-0.000113457
-0.00377524
3.03655e-06
-0.00367962
4.66738e-06
-0.00367847
6.4964e-06
-0.0035905
7.28701e-05
-3.88648e-05
-0.0035416
3.0612e-05
-0.00349488
-0.00368173
-0.00382964
0.00364627
-0.000159624
-0.000297348
0.000412041
-0.00408812
0.0039949
-0.00415812
-0.000134135
-0.000198867
-0.0035163
0.00357766
-5.72624e-05
-4.71542e-05
-0.00364849
0.00368858
2.35402e-05
7.12447e-06
-0.00368973
0.00369075
-7.34585e-06
-7.97136e-06
-0.00369163
0.00369239
-6.68758e-06
-7.21222e-06
-0.00369305
0.00369364
-6.16677e-06
-6.64654e-06
-0.00369418
0.0036947
-5.67485e-06
-6.15907e-06
-0.00369521
0.00369573
-5.16035e-06
-5.6662e-06
-0.00369624
0.00369676
-4.63604e-06
-5.15106e-06
-0.00369727
0.00369777
-4.13616e-06
-4.64388e-06
-0.00369825
0.00369872
-3.68021e-06
-4.17328e-06
-0.00369916
0.00369959
-3.27068e-06
-3.74935e-06
-0.00369999
0.00370037
-2.90257e-06
-3.36942e-06
-0.00370073
0.00370108
-2.57112e-06
-3.02826e-06
-0.0037014
0.00370171
-2.27402e-06
-2.72209e-06
-0.00370201
0.00370229
-2.0076e-06
-2.44879e-06
-0.00370255
0.00370281
-1.76713e-06
-2.20345e-06
-0.00370304
0.00370327
-1.54981e-06
-1.98236e-06
-0.00370349
0.00370369
-1.35416e-06
-1.78338e-06
-0.00370388
0.00370405
-1.17915e-06
-1.6054e-06
-0.00370421
0.00370437
-1.02433e-06
-1.44756e-06
-0.0037045
0.00370463
-8.89918e-07
-1.31013e-06
-0.00370475
0.00370488
-7.67278e-07
-1.19095e-06
-0.00373148
0.00374492
2.5023e-05
-1.07733e-06
4.60836e-05
1.88869e-05
-4.19496e-05
0.00375573
-2.94959e-05
3.44025e-06
0.00376022
0.0037458
1.24218e-07
-1.41859e-07
0.0037191
0.00370565
1.2563e-07
-9.00028e-08
0.00371841
0.00370546
5.15034e-08
-3.39894e-08
0.00371807
0.00370546
-4.36709e-05
3.28074e-05
0.00375805
0.00370567
0.00375403
0.00375967
-0.00376201
2.79823e-05
-0.00375155
0.00373523
5.95399e-05
5.25683e-05
0.00373299
-0.00370483
-7.56771e-07
-1.18653e-06
0.00370471
-0.00370459
-8.71692e-07
-1.31079e-06
0.00370447
-0.00370433
-9.89523e-07
-1.41978e-06
0.00370419
-0.00370403
-1.12307e-06
-1.53779e-06
0.00370385
-0.00370366
-1.27599e-06
-1.67362e-06
0.00370346
-0.00370325
-1.45006e-06
-1.82954e-06
0.00370302
-0.00370277
-1.64832e-06
-2.00783e-06
0.00370252
-0.00370225
-1.87194e-06
-2.21114e-06
0.00370197
-0.00370166
-2.11926e-06
-2.43896e-06
0.00370135
-0.00370102
-2.39064e-06
-2.68994e-06
0.00370067
-0.0037003
-2.69127e-06
-2.96689e-06
0.00369991
-0.0036995
-3.02716e-06
-3.27621e-06
0.00369907
-0.00369862
-3.40207e-06
-3.62265e-06
0.00369814
-0.00369763
-3.81864e-06
-4.00934e-06
0.00369711
-0.00369655
-4.28048e-06
-4.43921e-06
0.00369597
-0.00369536
-4.78947e-06
-4.9156e-06
0.00369474
-0.00369408
-5.34297e-06
-5.43821e-06
0.00369342
-0.00369272
-5.93771e-06
-6.00321e-06
0.003692
-0.00369125
-6.58035e-06
-6.6107e-06
0.00369047
-0.00368964
-7.29643e-06
-7.27641e-06
0.00368877
-0.00368785
-8.12071e-06
-8.03302e-06
0.00368687
-0.00368582
-9.07181e-06
-8.91074e-06
0.0036847
-0.00368351
-1.01492e-05
-9.91442e-06
0.00363157
-0.00358172
-1.13346e-05
-1.10414e-05
0.00355859
-0.00356278
3.48048e-05
2.91e-05
-0.000198353
2.89754e-05
-0.00359554
-0.00365509
7.51805e-05
-4.15631e-05
-0.0035285
-0.0035044
1.67951e-05
9.30683e-07
-0.00358746
4.4731e-05
0.00371599
0.00376665
1.98505e-05
9.14722e-05
-0.00412691
-0.000122677
3.49892e-07
-0.00368054
0.000202601
-0.00419925
-3.59887e-05
-0.00366117
1.61171e-06
-0.00367933
-4.49841e-05
-0.00370128
3.13875e-06
-0.0036781
4.89771e-06
-0.00367688
6.85693e-06
-0.00363622
-3.04761e-05
-0.00355269
4.48318e-05
-4.53263e-05
-0.003528
4.74985e-05
-0.00350706
-0.00368045
-0.00408559
0.00391795
3.35106e-05
-0.000218476
-0.00406873
0.000160297
0.00420414
-0.0041069
-0.000315716
-4.13004e-06
-0.00380594
0.00372089
-7.45727e-05
-8.68666e-05
-0.00368519
0.00363857
-1.06446e-05
-1.14483e-05
-0.00365595
0.00368895
-9.46385e-06
-1.02516e-05
-0.00369007
0.00369108
-8.35395e-06
-9.08941e-06
-0.00369196
0.00369273
-7.46073e-06
-8.09658e-06
-0.00369341
0.00369401
-6.76843e-06
-7.31947e-06
-0.00369456
0.00369508
-6.19687e-06
-6.70841e-06
-0.00369558
0.00369609
-5.66126e-06
-6.17107e-06
-0.00369658
0.00369707
-5.13004e-06
-5.6466e-06
-0.00369756
0.00369804
-4.6126e-06
-5.12852e-06
-0.0036985
0.00369894
-4.1261e-06
-4.63337e-06
-0.00369937
0.00369978
-3.67961e-06
-4.17485e-06
-0.00370016
0.00370054
-3.27416e-06
-3.75736e-06
-0.00370089
0.00370122
-2.9077e-06
-3.37992e-06