/*--------------------------------*- C++ -*----------------------------------*\
  =========                 |
  \\      /  F ield         | OpenFOAM: The Open Source CFD Toolbox
   \\    /   O peration     | Website:  https://openfoam.org
    \\  /    A nd           | Version:  10
     \\/     M anipulation  |
\*---------------------------------------------------------------------------*/
FoamFile
{
    format      ascii;
    class       volScalarField;
    location    "23.5";
    object      p;
}
// * * * * * * * * * * * * * * * * * * * * * * * * * * * * * * * * * * * * * //

dimensions      [0 2 -2 0 0 0 0];

internalField   nonuniform List<scalar> 
28942
(
-0.414135
-0.409366
-0.334733
0.225132
0.235318
0.0113264
0.010282
0.00880765
-0.0163207
-0.00879104
-0.554137
-0.547084
-0.563605
-0.564614
0.00347517
0.0075778
0.477532
0.498834
0.0460728
0.138738
0.378279
0.379994
-0.593047
-0.596313
-0.602282
-0.630752
0.760516
0.779759
-0.121768
-0.109466
-0.00546259
-0.00479346
0.0216183
0.00828491
0.250392
0.301883
0.521447
0.644272
0.00554674
0.552754
0.339657
0.367547
-0.0371634
-0.0280708
-0.0233798
0.0123963
0.0104769
0.0130232
0.0131189
0.0129784
0.0176443
0.0171866
0.0185336
-0.00760565
0.00146629
-0.493335
-0.418435
-0.569385
-0.56169
-0.56593
-0.572064
-0.5753
-0.574114
-0.244375
-0.352087
-0.203785
-0.122595
0.41162
0.380756
-0.414287
-0.420998
-0.424339
0.397358
0.381504
0.387368
-0.217041
-0.209266
-0.146222
-0.307028
-0.369964
-0.276918
-0.425
-0.479732
-0.519586
0.00512579
0.0985846
0.170444
0.149688
0.0830226
0.096894
0.136882
0.157247
-0.58347
-0.586696
-0.571266
-0.564267
-0.561811
0.162915
0.213359
-0.557313
0.253486
0.255599
0.233092
0.239872
-0.0376603
-0.0346802
-0.0434096
0.215824
0.224973
0.225706
-0.567821
-0.567444
-0.423783
-0.389893
-0.390466
0.888246
0.822179
0.777629
0.846773
0.0425468
0.189439
0.123452
-0.033392
-0.0546765
0.916689
0.923648
0.892955
-0.0275555
0.0190503
0.014854
0.0175451
0.0148043
0.371756
0.492703
0.26643
0.256675
0.336552
0.107793
0.274886
0.406183
-0.617681
-0.604337
0.0281848
-0.0120659
-0.0105875
-0.364464
-0.383079
-0.350983
-0.598344
0.231676
0.22751
0.020948
-0.000526983
-0.00136232
-0.00122561
-0.000405487
0.305773
0.237814
-0.456492
-0.410854
-0.40291
-0.429991
-0.408037
0.000205359
-0.605494
-0.572972
0.400282
0.414045
0.461777
0.441175
0.371103
0.0879698
0.0847209
0.0197512
0.0115126
0.19048
0.178416
0.197951
0.209183
0.207515
0.217943
0.23061
0.266632
0.247122
0.226833
0.24752
0.288351
0.345388
0.362013
-0.274683
-0.229077
-0.379143
0.0124212
0.0131876
-0.377443
-0.372696
0.0114134
0.0110076
0.011936
0.011918
-0.233599
-0.229665
-0.215571
-0.566407
-0.575232
-0.58876
-0.581287
-0.583381
-0.580904
-0.613901
-0.680809
-0.636972
0.880643
0.857776
0.894022
-0.0260119
-0.0186733
-0.0248791
0.467744
0.450423
0.460799
-0.153129
-0.168393
-0.139141
-0.184039
-0.199441
-0.213525
-0.222195
-0.225189
-0.234769
-0.207374
-0.191174
-0.174661
-0.158514
-0.143867
-0.234181
-0.244715
-0.126569
-0.130619
-0.115652
-0.24015
-0.251345
-0.119124
-0.242435
-0.240713
-0.253866
-0.252045
-0.107001
-0.1098
-0.235336
-0.246323
-0.0998136
-0.102139
-0.226789
-0.237089
-0.0941897
-0.096008
-0.215792
-0.225088
-0.0900235
-0.0913417
-0.20305
-0.211137
-0.0873031
-0.0881212
-0.189463
-0.196196
-0.0860393
-0.0863773
-0.175762
-0.181138
-0.0862971
-0.0861625
-0.162631
-0.16668
-0.0882371
-0.0875573
-0.150481
-0.153231
-0.0918466
-0.0906821
-0.139768
-0.141127
-0.0975316
-0.0956587
-0.130282
-0.130718
-0.105131
-0.10261
-0.122275
-0.121938
-0.0974815
-0.105641
-0.115068
-0.111635
-0.0873029
-0.0914341
-0.0841798
-0.0849238
-0.0871663
-0.0849583
-0.0958317
-0.0907789
-0.110695
-0.102421
-0.132208
-0.120523
-0.159791
-0.145625
-0.188969
-0.174409
-0.213228
-0.202209
-0.227136
-0.221593
-0.227509
-0.229175
-0.21451
-0.22244
-0.192699
-0.204349
-0.167934
-0.180322
-0.145359
-0.156137
-0.127684
-0.135891
-0.121103
-0.116216
-0.114929
-0.140818
-0.120121
-0.129643
-0.16809
-0.153717
-0.199677
-0.183607
-0.230402
-0.215588
-0.252866
-0.243124
-0.260681
-0.258867
-0.251304
-0.258077
-0.227881
-0.240987
-0.195606
-0.212273
-0.16176
-0.178491
-0.132604
-0.146226
-0.110694
-0.120793
-0.0959045
-0.102486
-0.0871637
-0.0908181
-0.084241
-0.084959
-0.087641
-0.0850922
-0.0979215
-0.0918577
-0.106019
-0.116182
-0.116126
-0.112333
-0.122837
-0.115963
-0.12921
-0.127279
-0.0956964
-0.115008
-0.10417
-0.0848558
-0.0893348
-0.0810182
-0.0821436
-0.0831233
-0.0813737
-0.0907223
-0.0862344
-0.104096
-0.0966423
-0.123904
-0.113106
-0.149451
-0.136078
-0.176591
-0.163205
-0.199575
-0.189148
-0.212487
-0.207436
-0.212866
-0.214336
-0.201083
-0.208279
-0.181369
-0.191879
-0.159206
-0.170259
-0.139326
-0.148767
-0.124144
-0.131092
-0.111887
-0.112789
-0.114734
-0.118693
-0.116773
-0.108378
-0.106258
-0.109727
-0.138774
-0.126945
-0.167534
-0.15234
-0.200831
-0.183893
-0.233045
-0.217546
-0.25638
-0.246295
-0.264341
-0.262536
-0.254672
-0.261617
-0.230419
-0.244043
-0.197187
-0.214438
-0.162753
-0.179756
-0.132716
-0.146773
-0.110018
-0.120441
-0.0943494
-0.101359
-0.0847494
-0.0888397
-0.0807947
-0.0820628
-0.0828057
-0.0810174
-0.0914273
-0.0862355
-0.107086
-0.0983846
-0.128387
-0.127623
-0.117502
-0.135837
-0.112311
-0.101613
-0.144474
-0.143949
-0.140862
-0.129294
-0.141726
-0.112021
-0.110433
-0.101908
-0.0966063
-0.141041
-0.161179
-0.178003
-0.159066
-0.111906
-0.125299
-0.092368
-0.100965
-0.0811265
-0.0858096
-0.07666
-0.0781194
-0.0779582
-0.0766386
-0.0844888
-0.080576
-0.0964737
-0.0897582
-0.11451
-0.104713
-0.137943
-0.12568
-0.163021
-0.1506
-0.184211
-0.174529
-0.196147
-0.191518
-0.196576
-0.19785
-0.18612
-0.192513
-0.16867
-0.177958
-0.149233
-0.158898
-0.132039
-0.140167
-0.119324
-0.125038
-0.114962
-0.109258
-0.111309
-0.110967
-0.106191
-0.111918
-0.0958518
-0.103059
-0.134901
-0.122527
-0.164835
-0.149034
-0.19945
-0.181856
-0.232781
-0.216766
-0.25674
-0.246416
-0.264776
-0.262989
-0.254879
-0.261973
-0.230067
-0.243998
-0.196441
-0.21388
-0.161507
-0.17871
-0.131042
-0.145445
-0.107817
-0.118512
-0.0914465
-0.0988329
-0.0809858
-0.0855235
-0.075979
-0.0778022
-0.0766064
-0.0755637
-0.0833774
-0.0791874
-0.0966161
-0.0892158
-0.115908
-0.105638
-0.141924
-0.126746
-0.161334
-0.150757
-0.110227
-0.0902292
-0.180321
-0.155062
-0.205187
-0.137609
-0.154287
-0.208037
-0.229052
-0.157762
-0.172798
-0.190212
-0.136684
-0.154747
-0.107194
-0.120633
-0.08761
-0.0962456
-0.0761629
-0.0810028
-0.0712258
-0.0729551
-0.0717866
-0.0708679
-0.0772934
-0.0739328
-0.0878867
-0.0819183
-0.104114
-0.0952823
-0.125377
-0.114254
-0.148301
-0.13695
-0.167623
-0.15875
-0.178608
-0.174352
-0.179144
-0.180202
-0.170045
-0.17562
-0.154864
-0.162931
-0.138119
-0.14642
-0.123552
-0.130396
-0.113208
-0.117788
-0.107942
-0.109937
-0.107788
-0.107201
-0.111735
-0.109665
-0.111404
-0.108143
-0.110636
-0.0992206
-0.10428
-0.0860518
-0.0931131
-0.0888843
-0.0781387
-0.0828528
-0.105645
-0.096439
-0.129331
-0.116585
-0.160097
-0.143887
-0.195574
-0.17755
-0.229596
-0.213272
-0.253863
-0.243439
-0.261855
-0.260119
-0.251816
-0.258985
-0.226803
-0.240837
-0.193129
-0.210573
-0.158147
-0.175373
-0.127603
-0.142085
-0.104038
-0.114928
-0.0871447
-0.0948246
-0.075921
-0.0808703
-0.0698962
-0.0722625
-0.0691806
-0.0688568
-0.0741276
-0.070925
-0.0849748
-0.0788176
-0.101206
-0.0925509
-0.119856
-0.11055
-0.147732
-0.128508
-0.179607
-0.166492
-0.202262
-0.16952
-0.104046
-0.10665
-0.083381
-0.0749408
-0.228985
-0.165939
-0.243781
-0.204478
-0.155986
-0.135455
-0.225691
-0.174935
-0.16627
-0.185006
-0.130039
-0.14777
-0.10085
-0.114174
-0.0815954
-0.0901145
-0.0701252
-0.0750082
-0.0648571
-0.0667898
-0.0647807
-0.0642189
-0.0693224
-0.0664893
-0.0785464
-0.0733185
-0.0929544
-0.0850885
-0.11203
-0.102034
-0.132739
-0.122469
-0.15025
-0.142198
-0.160277
-0.156381
-0.160952
-0.161787
-0.153184
-0.15796
-0.140208
-0.147092
-0.126058
-0.133044
-0.11403
-0.119632
-0.105987
-0.109442
-0.102609
-0.103724
-0.102719
-0.113546
-0.112943
-0.11398
-0.108461
-0.111703
-0.0980268
-0.103855
-0.0911615
-0.0809244
-0.0696755
-0.0745707
-0.0980942
-0.0886877
-0.12216
-0.109206
-0.153362
-0.136941
-0.189238
-0.17102
-0.223535
-0.207101
-0.247818
-0.23742
-0.255646
-0.253998
-0.24552
-0.252709
-0.220637
-0.234578
-0.187285
-0.204553
-0.152667
-0.169721
-0.122352
-0.136747
-0.0987037
-0.109672
-0.0814596
-0.0893496
-0.0696046
-0.0749067
-0.0626415
-0.0655171
-0.0606419
-0.0610063
-0.0638758
-0.0615918
-0.0724199
-0.0674995
-0.0856926
-0.0785532
-0.10144
-0.0934769
-0.114042
-0.108581
-0.139803
-0.117487
-0.198711
-0.182345
-0.110558
-0.0658892
-0.224685
-0.244341
-0.247905
-0.18318
-0.17605
-0.246292
-0.258254
-0.25907
-0.161883
-0.141681
-0.118278
-0.192311
-0.195945
-0.237876
-0.218009
-0.156146
-0.175262
-0.120962
-0.138066
-0.0930951
-0.105824
-0.0744667
-0.0827409
-0.0631809
-0.0680176
-0.0577305
-0.0597997
-0.0571179
-0.0568675
-0.0607638
-0.0584264
-0.0686659
-0.0641576
-0.0812738
-0.0743656
-0.0981868
-0.0893015
-0.116711
-0.107506
-0.132458
-0.125209
-0.141558
-0.138001
-0.142385
-0.142999
-0.13589
-0.139901
-0.125011
-0.130771
-0.113325
-0.119062
-0.103721
-0.108133
-0.0978332
-0.100256
-0.0962608
-0.0964896
-0.0991733
-0.0971499
-0.106984
-0.102408
-0.117644
-0.112939
-0.115933
-0.116688
-0.117899
-0.110097
-0.114075
-0.0982834
-0.104807
-0.082128
-0.0906292
-0.0634394
-0.0730256
-0.0605027
-0.0535241
-0.0564535
-0.0721454
-0.06572
-0.0894363
-0.0800125
-0.113576
-0.100601
-0.144772
-0.128365
-0.180587
-0.162407
-0.214738
-0.198391
-0.238753
-0.228501
-0.246325
-0.244789
-0.236195
-0.243342
-0.21171
-0.2254
-0.17906
-0.195955
-0.145194
-0.161883
-0.115417
-0.129583
-0.0919432
-0.102872
-0.074518
-0.0825397
-0.0621615
-0.067755
-0.0543619
-0.0576994
-0.051158
-0.0521729
-0.0527735
-0.0513538
-0.0592195
-0.0554153
-0.0697406
-0.0640675
-0.0823928
-0.0759558
-0.0929833
-0.0883211
-0.0963022
-0.0957902
-0.116598
-0.0940561
-0.218056
-0.253637
-0.243606
-0.102231
-0.108566
-0.0621091
-0.0517985
-0.197654
-0.195021
-0.262578
-0.183633
-0.164707
-0.140158
-0.111994
-0.089643
-0.209303
-0.22569
-0.263728
-0.254342
-0.242561
-0.183514
-0.20556
-0.143862
-0.162761
-0.110333
-0.12645
-0.084142
-0.0961322
-0.0664188
-0.074317
-0.0555182
-0.0602195
-0.0500197
-0.0521637
-0.048972
-0.0489856
-0.0518032
-0.0499225
-0.0584538
-0.0546309
-0.0693237
-0.063343
-0.0841348
-0.0763286
-0.100541
-0.0923692
-0.114594
-0.108113
-0.122815
-0.119576
-0.123799
-0.124201
-0.118499
-0.121794
-0.109577
-0.114289
-0.100185
-0.104759
-0.092834
-0.0961417
-0.0889364
-0.0904057
-0.0890397
-0.0884757
-0.0933092
-0.0906662
-0.0971648
-0.123767
-0.120275
-0.122757
-0.121199
-0.12322
-0.112996
-0.117759
-0.0997656
-0.10698
-0.0821998
-0.0914183
-0.0723669
-0.0509062
-0.0435291
-0.0466666
-0.06267
-0.0562207
-0.0798775
-0.0705058
-0.103747
-0.0909315
-0.134513
-0.118336
-0.169818
-0.151898
-0.20343
-0.187355
-0.226923
-0.216924
-0.234157
-0.23275
-0.224128
-0.231159
-0.200281
-0.213586
-0.16867
-0.185015
-0.135913
-0.152062
-0.10698
-0.120772
-0.0839228
-0.0946992
-0.0664915
-0.0745649
-0.0537655
-0.0595874
-0.0452454
-0.048988
-0.0409458
-0.0425576
-0.0410515
-0.0404405
-0.04555
-0.042775
-0.0536733
-0.0492547
-0.0634933
-0.0585327
-0.0715506
-0.0680183
-0.0738963
-0.0736912
-0.0679956
-0.072035
-0.269468
-0.266657
-0.0830508
-0.0623291
-0.235874
-0.116304
-0.0413779
-0.260306
-0.211474
-0.269361
-0.258253
-0.2041
-0.275484
-0.18784
-0.164426
-0.135843
-0.105083
-0.0750202
-0.055113
-0.225161
-0.237853
-0.260079
-0.246548
-0.245057
-0.208581
-0.225479
-0.168351
-0.188944
-0.129955
-0.148359
-0.0984351
-0.113395
-0.0742388
-0.0853361
-0.0576802
-0.0650858
-0.0473331
-0.0518237
-0.0419054
-0.0440687
-0.040518
-0.0407498
-0.0426214
-0.0411544
-0.0481082
-0.0449265
-0.0573294
-0.0522317
-0.07013
-0.0633564
-0.0845144
-0.0773275
-0.0969659
-0.0912083
-0.104367
-0.101424
-0.105502
-0.105703
-0.101303
-0.10394
-0.0941689
-0.0979245
-0.0868662
-0.0903823
-0.0815645
-0.0838687
-0.0794803
-0.0800789
-0.0811054
-0.0798166
-0.0866087
-0.0833592
-0.0963231
-0.0909047
-0.111109
-0.10298
-0.129188
-0.120862
-0.125756
-0.131306
-0.131056
-0.127146
-0.130002
-0.117215
-0.122842
-0.10242
-0.110378
-0.0834991
-0.0934133
-0.0621236
-0.0729809
-0.0401309
-0.0510721
-0.0333954
-0.0293039
-0.0309734
-0.0410555
-0.0367493
-0.0526909
-0.0462891
-0.069602
-0.0604197
-0.0928776
-0.0803936
-0.122818
-0.107076
-0.157189
-0.13974
-0.189905
-0.174266
-0.21266
-0.203001
-0.219503
-0.218233
-0.209669
-0.216518
-0.186679
-0.199479
-0.156393
-0.172039
-0.125047
-0.140506
-0.0972322
-0.110519
-0.0748138
-0.0853329
-0.0575525
-0.0655948
-0.0445993
-0.0505809
-0.0354898
-0.0395721
-0.0302312
-0.03237
-0.0289783
-0.0290985
-0.0316977
-0.0298639
-0.0376837
-0.034369
-0.0451276
-0.0413846
-0.0509974
-0.0484741
-0.0523056
-0.0523675
-0.0471566
-0.0506116
-0.036461
-0.0423217
-0.268311
-0.273578
-0.0473815
-0.0301304
-0.249989
-0.222349
-0.241866
-0.25403
-0.268806
-0.268896
-0.209506
-0.104808
-0.114558
-0.0398254
-0.0285745
-0.286254
-0.188066
-0.160315
-0.128649
-0.0962646
-0.0660481
-0.230839
-0.215328
-0.200097
-0.0402193
-0.0243048
-0.214704
-0.237902
-0.229052
-0.224969
-0.217593
-0.226163
-0.188819
-0.205054
-0.150829
-0.170107
-0.114921
-0.132169
-0.0857388
-0.0994406
-0.0637232
-0.0738344
-0.0484923
-0.0553301
-0.0388184
-0.0430425
-0.0335584
-0.0356947
-0.0319186
-0.0323255
-0.0333833
-0.0322845
-0.0378075
-0.0352147
-0.0454922
-0.0412206
-0.0563982
-0.0505992
-0.0688772
-0.0626173
-0.0798332
-0.0747486
-0.0864744
-0.0838057
-0.0877475
-0.0877647
-0.0845405
-0.0865865
-0.0790075
-0.0819079
-0.0735694
-0.0761415
-0.0700957
-0.0715046
-0.0696286
-0.0694511
-0.072591
-0.0706703
-0.0791385
-0.075411
-0.0895331
-0.0838389
-0.096498
-0.139772
-0.13219
-0.136799
-0.140464
-0.14095
-0.134614
-0.13833
-0.122843
-0.129406
-0.10626
-0.115077
-0.0859201
-0.0965054
-0.0631237
-0.0746584
-0.0514424
-0.0233278
-0.0188258
-0.0206834
-0.0310108
-0.0267983
-0.0424465
-0.0361928
-0.0588072
-0.0499427
-0.0811956
-0.069198
-0.109951
-0.0948311
-0.143006
-0.126217
-0.17451
-0.15945
-0.196357
-0.187104
-0.202782
-0.201646
-0.193232
-0.199842
-0.171281
-0.183477
-0.14255
-0.157378
-0.112857
-0.127507
-0.0863857
-0.0990578
-0.0648011
-0.0749695
-0.0478761
-0.0558071
-0.0348439
-0.0409126
-0.0252894
-0.0296387
-0.0192292
-0.0218137
-0.0168048
-0.0175584
-0.0179653
-0.0169588
-0.0220696
-0.0197258
-0.0274979
-0.0247646
-0.0316216
-0.0299017
-0.031875
-0.0323538
-0.0270983
-0.0300984
-0.0184243
-0.0230574
-0.0094463
-0.0139071
-0.242406
-0.0190933
-0.033587
-0.0153532
-0.00322297
-0.005807
-0.252232
-0.274091
-0.259631
-0.229181
-0.125984
-0.0177765
-0.263975
-0.274626
-0.210476
-0.297139
-0.184124
-0.152667
-0.119108
-0.086329
-0.057211
-0.180134
-0.163107
-0.141711
0.00784246
0.00834927
-0.00180396
-0.157796
-0.194225
-0.226079
-0.0286427
-0.0127975
-0.246179
-0.196173
-0.18159
-0.207652
-0.205033
-0.195176
-0.204166
-0.166821
-0.182398
-0.13176
-0.149499
-0.0989759
-0.114693
-0.0726003
-0.0849315
-0.0528579
-0.0619345
-0.039062
-0.0452799
-0.0301495
-0.034065
-0.025136
-0.0272062
-0.0233225
-0.0238644
-0.0242375
-0.0234603
-0.0277083
-0.0256469
-0.0339847
-0.0304735
-0.0431293
-0.0382384
-0.0538317
-0.0484354
-0.0634035
-0.05894
-0.0693481
-0.06693
-0.0707397
-0.0705954
-0.0684073
-0.0699327
-0.0642788
-0.0664295
-0.060472
-0.0622185
-0.0585962
-0.0592226
-0.0595383
-0.0586854
-0.0636545
-0.0611905
-0.0710904
-0.0669493
-0.0820888
-0.0761113
-0.0974864
-0.0891712
-0.118574
-0.107225
-0.145108
-0.131592
-0.139102
-0.151811
-0.149387
-0.151203
-0.152426
-0.143624
-0.148238
-0.12989
-0.137457
-0.111295
-0.121103
-0.089277
-0.100641
-0.0650515
-0.0773154
-0.0405351
-0.0527302
-0.0173502
-0.0287467
-0.0087325
-0.00669577
-0.00744441
-0.0134881
-0.0107279
-0.0210124
-0.0168632
-0.0320742
-0.0260458
-0.0476937
-0.0392474
-0.0689406
-0.0575634
-0.0961979
-0.0818629
-0.127602
-0.111638
-0.157628
-0.143265
-0.178442
-0.169639
-0.184454
-0.183437
-0.175271
-0.181593
-0.154495
-0.166013
-0.12749
-0.141413
-0.0996276
-0.113378
-0.0746731
-0.0866447
-0.0540848
-0.063823
-0.037647
-0.0453924
-0.0246819
-0.0307646
-0.0148341
-0.019373
-0.00814204
-0.0110841
-0.0047502
-0.00602985
-0.00460258
-0.00429196
-0.00710987
-0.0055925
-0.0108382
-0.00894918
-0.0135433
-0.0124696
-0.0130586
-0.0137986
-0.00857869
-0.0112799
-0.0016411
-0.00521324
0.00449822
0.00164182
0.00648139
-0.252342
-0.269551
-0.00113313
0.00826398
-0.264305
-0.231187
-0.252176
-0.275142
-0.206854
-0.11025
-0.122937
-0.0178929
-0.00664935
-0.279843
-0.17617
-0.14218
-0.107951
-0.0763647
-0.0497639
-0.118338
-0.101387
-0.0795601
-0.0953943
-0.133801
-0.17102
-0.205044
-0.0252671
-0.0116886
0.00754637
-0.00141863
-0.249233
-0.144309
-0.123118
-0.174875
-0.162065
-0.183686
-0.182274
-0.170937
-0.17969
-0.143839
-0.158547
-0.111986
-0.127968
-0.0827644
-0.0967404
-0.0593919
-0.0703053
-0.0419238
-0.0499642
-0.0295958
-0.0351745
-0.0214907
-0.0250735
-0.0167799
-0.0187547
-0.0148609
-0.0155022
-0.0153118
-0.0148105
-0.0179423
-0.0163519
-0.0229489
-0.0201266
-0.0304772
-0.0264224
-0.0395377
-0.0349396
-0.0478367
-0.0439428
-0.0531454
-0.050956
-0.0546323
-0.05435
-0.053055
-0.0541309
-0.0501346
-0.0516411
-0.0477263
-0.0487655
-0.0472168
-0.0471745
-0.049358
-0.0479315
-0.0544444
-0.0515259
-0.0626012
-0.0581322
-0.0740659
-0.0679018
-0.0895104
-0.0812808
-0.0990933
-0.159647
-0.146129
-0.153763
-0.165408
-0.163471
-0.163426
-0.165371
-0.154068
-0.159624
-0.138256
-0.146886
-0.11749
-0.128379
-0.0935604
-0.105817
-0.0679528
-0.0808795
-0.0421142
-0.054932
-0.0297255
0.000933019
0.00334066
0.00246804
-0.00387923
-0.00118057
-0.0111893
-0.00718402
-0.0217356
-0.0160072
-0.036454
-0.0285113
-0.0563534
-0.0457067
-0.0818541
-0.0684392
-0.111328
-0.0963269
-0.139658
-0.126087
-0.159357
-0.151026
-0.164987
-0.164063
-0.156251
-0.162242
-0.136745
-0.147535
-0.111569
-0.124534
-0.0856481
-0.0984434
-0.0623307
-0.0735405
-0.0428679
-0.0521105
-0.0270514
-0.0345437
-0.0142937
-0.0203191
-0.00430622
-0.00895578
0.00284198
-0.000366521
0.00699315
0.00529637
0.00819614
0.00794327
0.0069936
0.00783395
0.004659
0.00585711
0.00310228
0.00365683
0.00409282
0.00320634
0.00805669
0.00576023
0.0132927
0.0106953
0.0171185
0.0155118
0.0181351
0.0179388
0.0170216
0.017789
0.00599
0.0138723
0.0157603
-0.243494
-0.255482
-0.262968
-0.227923
-0.137213
0.00376863
-0.23434
-0.265704
-0.198692
-0.263736
-0.164879
-0.129745
-0.0963392
-0.0671702
-0.043484
-0.0573793
-0.0413312
-0.0202637
0.0211433
0.0182823
0.0113273
-0.0360683
-0.0728907
-0.109898
-0.146247
-0.180642
-0.0230858
-0.0114203
-0.0026395
0.00367635
-0.246725
-0.0850804
-0.0630965
-0.125198
-0.106286
-0.152329
-0.141217
-0.158562
-0.158159
-0.145406
-0.154043
-0.120234
-0.133718
-0.0920026
-0.106045
-0.0666052
-0.07873
-0.0463291
-0.0558009
-0.0311162
-0.0381325
-0.0202545
-0.0251908
-0.0129784
-0.0162153
-0.00861076
-0.0104675
-0.00664471
-0.00735382
-0.00671217
-0.00644319
-0.00861505
-0.00743488
-0.0124963
-0.0102878
-0.0185605
-0.0152666
-0.0261151
-0.0222501
-0.0332478
-0.0298747
-0.0379764
-0.0359962
-0.0395337
-0.0391372
-0.0385952
-0.0392908
-0.0366934
-0.0376573
-0.0354581
-0.0359048
-0.036089
-0.0354894
-0.0392236
-0.0373233
-0.0451006
-0.0418143
-0.0538221
-0.0491004
-0.0656185
-0.0593171
-0.0810337
-0.0728301
-0.101245
-0.0905057
-0.127495
-0.113531
-0.16209
-0.142651
-0.152992
-0.175387
-0.169725
-0.180325
-0.178946
-0.176955
-0.179654
-0.165723
-0.172271
-0.147722
-0.157469
-0.124684
-0.136707
-0.0986477
-0.111913
-0.0714685
-0.0851049
-0.0444584
-0.0578736
-0.0189064
-0.0313434
0.00360391
-0.00726409
0.0128129
0.0136464
0.0134336
0.010107
0.0117393
0.00534553
0.00795709
-0.00165254
0.00216553
-0.0115789
-0.00620499
-0.0252723
-0.017898
-0.0436684
-0.0338349
-0.0672131
-0.0548232
-0.0945333
-0.0806069
-0.120997
-0.108291
-0.139534
-0.131682
-0.144836
-0.143972
-0.13663
-0.142251
-0.118444
-0.128483
-0.0951394
-0.107126
-0.0712036
-0.0830201
-0.0495887
-0.0600006
-0.031345
-0.0400418
-0.016266
-0.0234447
-0.00384916
-0.00974837
0.00612539
0.00144417
0.0135533
0.0101698
0.0182588
0.0162514
0.020277
0.0195854
0.020106
0.0204092
0.0188816
0.0195291
0.0182314
0.0183801
0.0195377
0.0185946
0.022827
0.0210094
0.0263667
0.0247134
0.0281544
0.0275601
0.0275487
0.0281225
0.0251727
0.0265444
0.0233559
-0.229313
-0.235346
0.00796776
0.0148672
-0.25413
-0.219628
-0.211979
-0.251399
-0.186688
-0.116778
-0.131066
0.00285345
0.0131547
-0.244443
-0.151234
-0.116507
-0.0852535
-0.0591823
-0.0386648
-0.000628637
0.0146997
0.0319486
0.017364
-0.0162268
-0.0515604
-0.0866995
-0.121621
-0.155346
-0.0220073
-0.0120383
-0.00464967
0.000467155
0.0108104
0.00381592
-0.23831
-0.0261438
-0.00493984
-0.0692461
-0.0478172
-0.105892
-0.0887744
-0.128854
-0.119743
-0.132412
-0.133044
-0.119241
-0.127518
-0.0967352
-0.108621
-0.0724949
-0.0844742
-0.0509637
-0.0612392
-0.0337087
-0.0417854
-0.0206455
-0.0266881
-0.0111906
-0.015507
-0.00473213
-0.00762398
-0.000729498
-0.00245363
0.00123541
0.000485586
0.0014774
0.00155472
0.000193069
0.00102258
-0.00270819
-0.00103724
-0.00746438
-0.00485444
-0.013647
-0.010452
-0.0197125
-0.0168157
-0.0239097
-0.022122
-0.0255123
-0.0250246
-0.0251031
-0.0254834
-0.0240424
-0.0245592
-0.0237678
-0.0237302
-0.0253246
-0.0242736
-0.0292554
-0.026977
-0.0357495
-0.0321792
-0.0448813
-0.0399814
-0.0568525
-0.0504917
-0.0721909
-0.0640491
-0.0917604
-0.0814306
-0.103633
-0.179053
-0.158642
-0.169694
-0.192115
-0.186596
-0.196214
-0.195283
-0.191454
-0.194935
-0.178253
-0.185842
-0.157967
-0.16888
-0.132581
-0.145773
-0.104331
-0.118674
-0.0753307
-0.0898081
-0.047099
-0.0610634
-0.0205603
-0.0335022
-0.00845091
0.0215976
0.0226688
0.022424
0.0187263
0.0204031
0.0141293
0.0166588
0.00749771
0.0110969
-0.00173239
0.00324815
-0.014316
-0.00755395
-0.0311043
-0.0221398
-0.0525558
-0.0412642
-0.0775586
-0.0647897
-0.102023
-0.0902395
-0.119381
-0.112
-0.124437
-0.123585
-0.116826
-0.122051
-0.0999814
-0.109265
-0.0785331
-0.0895508
-0.0565652
-0.0674096
-0.0366654
-0.0462679
-0.0196982
-0.027815
-0.00545252
-0.0122656
0.00649933
0.000791507
0.0163123
0.0116768
0.0238476
0.0203783
0.0289111
0.0266942
0.0315238
0.0305069
0.0321438
0.0320318
0.031788
0.032004
0.0318299
0.0316762
0.0332578
0.0323533
0.0357299
0.0344479
0.0376429
0.0368665
0.0376916
0.037931
0.0358427
0.0369684
0.0326016
0.034384
0.0278865
0.0304325
0.0213478
0.0248243
0.00587703
0.012498
0.0172352
-0.21204
-0.213054
-0.240427
-0.207008
-0.146294
0.0226289
-0.186499
-0.233245
-0.171889
-0.222472
-0.13643
-0.103559
-0.0753992
-0.0527424
-0.0352236
0.0482122
0.0607873
0.0756434
0.0186407
0.0133089
0.00690285
0.0630649
0.0336141
0.00165755
-0.0314777
-0.0652153
-0.0984873
-0.130547
-0.0219152
-0.0135703
-0.00762846
-0.00363431
-0.00127347
5.13913e-05
-0.225043
0.0274769
0.0448537
-0.0127401
0.00791917
-0.0534268
-0.0335799
-0.0858273
-0.070987
-0.104285
-0.0970093
-0.105693
-0.107069
-0.0933285
-0.100818
-0.0740889
-0.0841371
-0.053928
-0.0638575
-0.036097
-0.0446157
-0.0216867
-0.0284529
-0.010636
-0.015767
-0.00250984
-0.00623787
0.0031576
0.000602728
0.00678511
0.00520261
0.00870952
0.007942
0.00919418
0.00911693
0.00842586
0.00896119
0.00636192
0.00757086
0.00275686
0.00476029
-0.00218497
0.000400743
-0.00727236
-0.00481274
-0.010979
-0.00937033
-0.0126023
-0.0120449
-0.0126226
-0.0127463
-0.0122412
-0.0123979
-0.0127325
-0.0123101
-0.015016
-0.0136123
-0.0195578
-0.0169915
-0.0265043
-0.0227295
-0.0358985
-0.0308922
-0.0479081
-0.0415562
-0.0630112
-0.0550275
-0.0819045
-0.0719456
-0.105394
-0.0930664
-0.133307
-0.118805
-0.175308
-0.148567
-0.162481
-0.196336
-0.186723
-0.209252
-0.203971
-0.212644
-0.212132
-0.206456
-0.210744
-0.19123
-0.199889
-0.168596
-0.180705
-0.140817
-0.155195
-0.110341
-0.125767
-0.0794342
-0.0948129
-0.0498737
-0.0644096
-0.0225809
-0.035901
0.00173796
-0.00996198
0.0221511
0.0124078
0.0310608
0.0309514
0.031179
0.0296766
0.0305782
0.0267988
0.0284099
0.0223851
0.0247888
0.0161801
0.0195305
0.0076954
0.0122581
-0.0037312
0.0023948
-0.0188583
-0.0107911
-0.0381411
-0.0279892
-0.0607209
-0.0491652
-0.0830884
-0.0722698
-0.0992593
-0.0923373
-0.104172
-0.103274
-0.0972066
-0.102025
-0.0817123
-0.0902476
-0.0620561
-0.0721416
-0.0419842
-0.0518905
-0.0237635
-0.0325679
-0.0080941
-0.0156129
0.00524469
-0.00116043
0.0166199
0.0111633
0.0261312
0.0216145
0.0336106
0.0301396
0.0388507
0.036517
0.0418626
0.0406193
0.0430729
0.042646
0.0433891
0.0432708
0.0439262
0.0435702
0.0452655
0.0445041
0.0467943
0.0460881
0.047211
0.0472102
0.0458615
0.0467533
0.0430506
0.044604
0.0391574
0.0412375
0.0340436
0.0367738
0.0273374
0.0308943
0.0232455
-0.192694
-0.189662
0.000470279
0.00734135
-0.223027
-0.191177
-0.160964
-0.212405
-0.155567
-0.119889
-0.13384
0.0214144
0.0303952
-0.199012
-0.121663
-0.0917817
-0.0672138
-0.0478878
-0.0330818
0.0893827
0.0985653
0.110243
0.101495
0.0765785
0.0484113
0.0180503
-0.0135464
-0.0457756
-0.0774952
-0.107579
-0.0228746
-0.0161899
-0.0116329
-0.00888326
-0.00738546
-0.00682436
0.000702039
-0.0067147
-0.208225
0.0707005
0.0853788
0.0368159
0.0545155
-0.00091
0.0180464
-0.0374222
-0.0198552
-0.0651694
-0.0526391
-0.0793069
-0.0739692
-0.0792868
-0.0809641
-0.0685737
-0.0749031
-0.0528808
-0.0610221
-0.0366531
-0.0446411
-0.0222356
-0.0291429
-0.0104204
-0.0159924
-0.00120494
-0.00550379
0.00569711
0.00251374
0.0106187
0.00838444
0.0138735
0.012436
0.015727
0.0149606
0.0163953
0.0161966
0.016049
0.0163423
0.0146862
0.015506
0.0120767
0.0135509
0.00824731
0.0102821
0.00405852
0.00611478
0.000810465
0.00224991
-0.000809194
-0.000201989
-0.00117043
-0.00108985
-0.00132508
-0.00119877
-0.00240785
-0.00169016
-0.00523719
-0.00357083
-0.0102195
-0.00744862
-0.017465
-0.0135599
-0.0269858
-0.0219393
-0.0389078
-0.0326297
-0.0536268
-0.0458837
-0.0717242
-0.0622309
-0.0937926
-0.082264
-0.106388
-0.192153
-0.163746
-0.178748
-0.213629
-0.203807
-0.226373
-0.221213
-0.229078
-0.229008
-0.221422
-0.22653
-0.204153
-0.21389
-0.179165
-0.192472
-0.149007
-0.164562
-0.116357
-0.132833
-0.0836073
-0.0998625
-0.0526422
-0.0678115
-0.0245352
-0.0382041
0.000381771
-0.011625
0.0113939
0.0386564
0.0388729
0.0389391
0.0371044
0.038013
0.0342434
0.0358234
0.0300659
0.0323251
0.0243302
0.0274139
0.0166167
0.0207508
0.00635976
0.0118449
-0.00710013
6.68987e-05
-0.0241984
-0.015197
-0.0443071
-0.0339934
-0.0645105
-0.0546889
-0.0794838
-0.0730145
-0.0843148
-0.0833341
-0.078107
-0.0824452
-0.0639421
-0.0717532
-0.0459829
-0.0551905
-0.0276897
-0.036715
-0.0110685
-0.0191075
0.00331683
-0.00360241
0.0157
0.00973402
0.0264038
0.0212505
0.0354867
0.0311555
0.0427624
0.0393657
0.0480196
0.0456497
0.0512681
0.0498795
0.0529086
0.0522465
0.053731
0.0533636
0.0545607
0.0541101
0.0555905
0.0550783
0.0560999
0.0559761
0.0552152
0.0558614
0.0528033
0.0541778
0.0492898
0.0511577
0.0449151
0.0472141
0.0395126
0.0423611
0.0327772
0.0363307
0.0243141
0.0287757
0.013718
0.0192687
-0.00687394
0.000649396
0.00753047
-0.172712
-0.166605
-0.203098
-0.173467
-0.148084
0.038404
-0.136685
-0.190363
-0.139024
-0.175446
-0.107956
-0.0817479
-0.0608032
-0.044533
-0.0321335
0.121297
0.125724
0.134298
0.130978
0.113034
0.0892355
0.0619857
0.0327733
0.00232726
-0.0283813
-0.0583934
-0.0868338
-0.0250359
-0.0200023
-0.0168818
-0.0152757
-0.0146843
-0.0147182
-0.0150278
0.00761733
-0.00705331
0.00077132
-0.189226
0.104323
0.115444
0.0771441
0.0913123
0.0445301
0.0614139
0.0104666
0.0275087
-0.0208386
-0.00594479
-0.0433222
-0.0334996
-0.0545907
-0.0505585
-0.0541665
-0.0556569
-0.0456833
-0.0506457
-0.0335149
-0.0398197
-0.0208901
-0.0271214
-0.00950695
-0.0149866
7.57919e-06
-0.00450394
0.00758215
0.00402963
0.0133738
0.0106871
0.017603
0.0156689
0.0204954
0.0192024
0.0222549
0.021505
0.0230555
0.0227646
0.0230471
0.0231453
0.0222588
0.0227581
0.0204931
0.0215142
0.0176494
0.0191905
0.0142879
0.0159696
0.0114757
0.0127519
0.0098836
0.0105222
0.00925834
0.00949821
0.00869128
0.00903388
0.0071692
0.00810387
0.00395457
0.00580341
-0.00131406
0.00158578
-0.00871915
-0.00475158
-0.0182438
-0.0132169
-0.0299669
-0.0238181
-0.0442037
-0.0367443
-0.0614741
-0.0524315
-0.0821251
-0.0714025
-0.106182
-0.0937926
-0.132491
-0.119091
-0.17877
-0.145612
-0.162453
-0.208236
-0.194248
-0.230259
-0.220343
-0.242934
-0.237864
-0.244904
-0.245305
-0.235768
-0.241695
-0.216489
-0.227282
-0.189213
-0.203681
-0.156764
-0.173448
-0.122051
-0.139519
-0.0875964
-0.104657
-0.0553004
-0.0710866
-0.0263474
-0.0403674
-0.0010123
-0.01323
0.0204498
0.010207
0.0378597
0.0295411
0.0458518
0.0451211
0.0455881
0.0454264
0.0458053
0.0438058
0.0447605
0.0410462
0.0425591
0.0371484
0.0392471
0.0319042
0.0347123
0.0249654
0.0286716
0.0158603
0.020716
0.0040311
0.010318
-0.0109217
-0.00305273
-0.0285673
-0.0194978
-0.0465673
-0.0377666
-0.0603186
-0.0543058
-0.0651378
-0.0640266
-0.0597833
-0.0636234
-0.0469319
-0.0540419
-0.030553
-0.0389497
-0.0138901
-0.0221084
0.00124844
-0.00607644
0.0143989
0.00806397
0.0258063
0.0202973
0.035766
0.0309577
0.044314
0.0402248
0.0512606
0.0480023
0.0564043
0.0540635
0.0597629
0.0582917
0.0617054
0.0608738
0.0628703
0.0623431
0.0637652
0.0633404
0.0642798
0.0641049
0.0637758
0.0641962
0.0618352
0.0629852
0.0586584
0.060373
0.0546554
0.0567432
0.0499464
0.052396
0.044359
0.0472779
0.0376398
0.0411585
0.0294777
0.0337602
0.0195401
0.0247264
0.0138366
-0.15288
-0.144626
-0.0154081
-0.182072
-0.155267
-0.11458
-0.168537
-0.12341
-0.116649
-0.128583
0.0370628
0.0444404
-0.153141
-0.0960169
-0.0736606
-0.0561022
-0.0425756
-0.0324067
0.141983
0.141843
0.146983
-0.0154177
-0.0067213
0.148458
0.139447
0.123012
0.100696
0.0743203
0.0460051
0.0165965
-0.0128788
-0.0415412
-0.0685489
-0.0285497
-0.0251892
-0.0235018
-0.0230029
-0.0232368
-0.0238425
-0.0244444
-0.16949
0.12715
0.134779
0.106868
0.117537
0.081333
0.0948866
0.0519508
0.0669532
0.0223221
0.0369554
-0.00382504
0.00853769
-0.0222823
-0.0142879
-0.0311579
-0.0279441
-0.031169
-0.0321215
-0.0251298
-0.0286958
-0.0162143
-0.0208596
-0.00673953
-0.0114464
0.00202836
-0.00222119
0.00954835
0.00595902
0.0156818
0.0127873
0.0204824
0.0182412
0.0240795