/*--------------------------------*- C++ -*----------------------------------*\
  =========                 |
  \\      /  F ield         | OpenFOAM: The Open Source CFD Toolbox
   \\    /   O peration     | Website:  https://openfoam.org
    \\  /    A nd           | Version:  10
     \\/     M anipulation  |
\*---------------------------------------------------------------------------*/
FoamFile
{
    format      ascii;
    class       surfaceScalarField;
    location    "23.5";
    object      phi;
}
// * * * * * * * * * * * * * * * * * * * * * * * * * * * * * * * * * * * * * //

dimensions      [0 3 -1 0 0 0 0];

internalField   nonuniform List<scalar> 
57492
(
-0.00435504
0.000127861
0.000969726
0.00325745
0.00119696
-0.00300812
-0.00254387
-0.000843115
0.00255795
0.00880821
-0.010523
0.0386151
0.0296152
-0.00602525
-0.0622051
-0.0831316
0.0348258
0.0869209
0.0115076
-0.0107346
-0.00560154
0.00482849
-0.0203124
0.00545941
-0.00291902
0.017772
0.00443999
-0.0132448
0.0121437
-0.0424322
0.0404983
-0.0102098
0.0105208
0.0389441
-0.0373212
0.0106833
0.00231779
-0.00464651
-0.0083546
-0.00209242
0.00354729
0.00922844
-0.00736126
0.00591626
-0.000647418
0.00117273
-0.0062162
0.0270703
-0.023853
-0.0101777
0.00696042
0.00167436
0.0207191
0.00467683
-0.000356597
0.0049082
0.0343168
-0.0388684
-0.00433404
0.0338016
-0.0298242
0.00469187
-0.00949189
0.00480002
-0.0361192
0.0259266
0.0148845
-0.0456214
0.00580488
0.0334062
0.00641034
0.00776239
-0.0463859
-0.00699788
-0.000622058
0.00260971
-0.00281073
0.000823074
0.00283441
-0.00376877
0.000312304
-0.0393746
0.0422474
0.00364175
-0.00651463
-0.0589537
0.0308463
-0.0112671
-0.028477
0.0125336
0.0130879
0.00285552
-0.0194028
-0.00988516
0.000811005
-0.00868885
-0.0254698
0.0301587
0.00399994
-0.0102108
0.00313087
-0.00160897
0.0122959
-0.00805442
-0.00748922
0.00324775
-0.0105492
0.00824247
0.0146027
-0.0161289
-0.0270076
0.0198416
0.0232949
-0.0306929
-0.00943734
0.0240014
-0.0171123
-0.00293532
0.0200476
-0.00572112
-0.0113911
-0.0251333
0.0328643
-0.0134521
0.00455731
-0.0152027
-0.0144879
-0.00954285
0.0150023
-0.00683382
-0.0378252
0.0203315
0.0174937
-0.0731133
0.0352881
0.0562875
-0.017128
0.0121686
-0.0513282
0.041711
0.00750322
0.00707324
-0.0149428
0.0525036
-0.0546888
0.0219725
0.00445818
-0.0219907
0.0212717
-0.00221817
0.0260022
-0.0096092
-0.0193063
0.0029133
0.029239
0.00122137
0.0162084
-0.00963247
0.0146958
0.00911227
0.0248681
-0.0418243
-0.00572971
0.00524524
0.0423087
-0.0431663
-0.00282088
0.00416294
0.0085503
0.0413777
-0.0406964
-0.00923158
0.00548015
-0.039362
-0.0300437
0.0467355
0.0407301
-0.0574219
0.00499482
0.0528583
-0.0878968
0.00100773
0.00362258
-0.000203889
-0.00442642
0.00361205
0.00331195
-0.00177425
0.00194145
0.00344486
0.00222478
-0.000376458
-0.00145498
0.00125109
-0.000329563
-0.00112542
0.103572
0.042972
-0.0708904
-0.0756534
0.0353828
-0.021929
0.090118
-0.0904304
0.0347205
0.0910927
0.0203343
-0.0677927
0.0132755
-0.0312183
0.0244573
-0.00651459
0.0266295
-0.0314956
0.0181417
0.000866131
-0.000877368
0.000139098
0.00141162
0.000424241
0.00363881
0.00103026
-0.0340931
0.0625645
0.0305773
-0.0590487
0.0406334
-0.0480971
0.0254345
0.0582039
-0.021074
0.133011
-0.0128177
-0.036912
-0.0832813
0.0355821
0.073263
0.0241658
0.0207703
-0.0520449
0.0668568
0.0015867
-0.00242981
0.00414465
0.0180633
0.0345552
-0.0143475
-0.038271
0.0244025
0.00246904
0.00256467
-0.0011508
-0.00141387
0.00254791
1.67602e-05
-0.0764443
0.0360414
-0.0273007
0.0677036
-0.0653851
-0.0350144
0.0239552
-0.0350226
0.0322063
-0.0625688
0.0368015
-0.00054992
-0.0182112
-0.0180404
-0.0146275
0.0414502
0.00997879
-0.0180406
-0.00181959
0.00523268
-0.016342
-0.00224855
-0.00602265
-0.0285305
0.0313879
0.00134321
-0.00942001
-0.0233111
0.00459248
0.0231908
0.00360467
-0.0187664
-0.00362735
0.0269863
-0.0163786
-0.00104461
-0.0250175
-0.000781126
-0.0152314
0.00920874
0.00200374
-0.0172351
0.00287703
-0.000329122
0.0464891
0.0310473
-0.00326927
0.0174451
-0.0540876
-0.00311902
0.0358554
-0.0265243
-0.00621215
-0.00489332
0.0413706
-0.0395963
0.0326874
0.0161608
-0.00258158
-0.0462666
-0.0122995
0.00708676
0.0379001
0.0390874
-0.0352262
-0.0136055
-0.0285406
0.00883423
0.0333119
-0.0135137
0.0330487
-0.0331405
0.00126994
-0.0433243
-0.0054034
-0.00442505
0.000194371
0.00158738
0.000311895
-0.000702317
0.00218056
-0.00149069
0.000897509
-0.00191691
0.00108935
-0.00506491
0.0066378
0.00177346
-0.00334636
0.0156527
-0.0129405
-0.00777711
-0.00643302
0.0168367
0.005249
-0.00264875
0.00285353
-0.0627237
0.034216
0.0645491
0.0681221
-0.0255581
-0.0775784
-0.0312406
0.0366391
-0.00254927
-0.0200311
-0.00288943
-0.0129717
0.000211721
0.0017678
-0.00304628
-1.93278e-05
0.00129781
-0.003853
0.0044398
0.001181
-0.00877776
0.00187848
-0.00588987
-0.00841409
0.00133222
-0.0169081
-0.00901292
-0.0122186
-0.0130721
0.0150783
0.0102124
0.00045483
0.0065185
-0.0191919
-0.0171132
0.00449589
-0.0545874
0.0217543
-0.00328617
-0.0559061
0.00765647
-0.00633776
0.00221958
-0.0368529
0.0325411
0.00209221
0.00194544
-0.0340609
0.034335
0.00245094
-0.112417
-0.0301762
0.0391948
0.0398609
-0.0482828
0.035798
-0.00586902
0.00397727
-0.00760463
0.00362175
0.000355528
0.00738359
-0.00151203
0.0606279
-0.0361939
-0.0226287
-0.00180533
0.0507118
-0.00502667
0.0625122
0.00698958
-0.0645069
0.0250492
0.0482587
-0.0107957
0.00969637
-0.0341704
0.0495232
0.000273995
0.00334775
0.0121792
-0.038706
-0.0408838
0.0241467
0.0495098
0.0135858
-0.000722148
-0.0141979
0.0013343
0.00448226
-0.00144575
-0.017665
0.00341602
0.0224914
0.00285979
-0.0160425
-0.00281244
-9.55228e-05
-0.00675131
-0.00213814
0.00833988
0.000549572
-0.00236182
0.000385088
-0.00477458
-0.00921225
-0.00493404
0.0117845
-0.0154987
0.0281099
-0.00973417
0.0606462
-0.0561668
-0.0199781
-0.000342647
-0.023557
0.0273157
-0.0791205
-0.00176223
-0.0576382
-0.0304066
0.00892429
0.0324331
0.0243931
-0.0510213
0.0185523
0.0471024
-0.0332215
0.0172954
-0.0321297
0.0190777
-0.00424349
0.018958
-0.0312255
0.0295629
0.0445106
0.0132886
0.0447635
-0.000936102
-0.0445286
0.00070118
0.0495854
-0.00474463
-7.72459e-05
0.0509177
-0.00681721
-0.000786478
-0.043314
0.0365159
-0.0112288
0.0256306
0.0401359
-0.0103464
0.00808325
-0.0378728
0.00919148
0.0407337
-0.00978925
-0.0365975
-0.0127518
0.0390029
0.00723325
-0.0349965
-0.0133907
0.0339508
-0.0174738
-0.0310346
0.0154888
0.0330197
-0.0178258
-0.0316462
0.0319982
0.0163428
0.0298969
-0.00946639
-0.0367733
0.0295303
-0.0310133
-0.0192869
0.0192884
0.0295288
-0.0151071
0.0257171
-0.0389844
0.0343944
-0.00487644
-0.0503396
0.00378354
0.050936
-0.00437999
0.0127234
-0.0076564
-0.00594578
0.00370809
0.00989409
-0.00458996
-0.00187483
-0.00119161
0.00200144
-0.00546406
0.0015457
-0.0165216
-0.0255866
0.0164927
-0.000786551
0.00117164
-0.00018011
-0.00060644
-0.00242552
-0.0282449
0.0210379
-0.0249715
-0.00187565
0.0244216
0.00122404
-0.0261626
-3.29108e-05
0.0096314
0.0224583
-0.00883333
-0.0232563
0.0135355
0.0233928
-0.027297
0.0314108
0.00458294
0.000371401
-0.000564417
-0.00423203
-0.000559644
0.000931045
-0.00112406
0.000401315
-0.000508718
0.00233218
-0.000365915
0.000767229
-0.000874632
0.00147665
-0.00017999
0.00153775
-0.0014044
0.00288106
-0.00158439
0.0017328
-0.000105308
-0.00427624
-0.000613465
0.00234627
-0.000718773
0.0153487
0.0317774
-0.0400394
0.0108035
-0.0409496
0.0454948
0.046731
-0.00415017
-0.0131372
-0.0255215
0.0129908
0.0256679
-0.00669162
0.0275246
-0.0339702
0.00236749
-0.0345806
0.0359754
-0.0366467
0.020313
-0.0196418
0.0354702
0.0198512
-0.019346
0.0208223
-0.0370446
-0.0204243
0.0354274
0.017823
-0.0177802
0.0358034
0.0161124
-0.0164884
0.0130869
0.0364158
-0.0136992
0.0372335
-0.0372252
0.0130786
0.0078818
0.0379839
-0.00944992
0.0359264
0.0091889
-0.0362255
0.0151127
-0.0362275
0.0178251
-0.0363901
0.0200138
-0.0375848
0.0215076
-0.0372227
0.0204602
0.00454558
0.0393576
-0.00591933
0.0340902
0.0063818
0.0210977
-0.0371331
-0.0210092
-0.0376303
0.0215053
0.0208673
-0.0399785
-0.0180219
0.00246407
0.0391391
-0.00224551
0.0340238
0.00253044
-0.0393672
0.0226042
0.0389839
-0.00141292
0.00156811
-0.00530094
0.0388835
0.00540135
0.0340083
-0.00139742
0.0340206
-0.00531327
0.0205736
-0.0400102
-0.0205418
-0.0400867
0.0212931
-0.00908582
0.0389486
0.00902072
0.0341237
-0.00918882
0.0208511
-0.0402928
-0.0205685
-0.0402434
0.0210078
-0.0125585
0.0389989
0.0125081
0.0342107
-0.0126455
0.0208406
-0.0406377
-0.0204957
-0.0405133
0.0211104
-0.0157268
0.0392779
0.0154478
0.0344206
-0.0159367
0.020976
-0.0408635
-0.0207501
-0.0406118
0.0210745
-0.0183298
0.039453
0.0181547
0.0345455
-0.0184547
0.0212069
-0.0411548
-0.0209157
-0.0408249
0.0214201
-0.0205235
0.0398806
0.0200959
0.0347887
-0.0207667
0.0216104
-0.0414173
-0.0213478
-0.0407932
0.0215787
-0.0220622
0.0401196
0.0218233
0.0348612
-0.0221347
0.0222259
-0.0403488
-0.0232944
-0.0401704
0.021603
-0.0232618
0.0406344
0.022747
0.0351278
-0.0235284
0.0227732
-0.0409042
-0.0222179
-0.0397552
0.0223581
-0.0239217
0.0409543
0.0236018
0.035056
-0.02385
0.0236002
-0.03918
-0.0253244
-0.038464
0.022309
-0.0229189
0.0401257
0.0237475
0.0361099
-0.0239728
0.0241738
-0.0389402
-0.0244135
-0.0378337
0.0235435
-0.0233439
0.0368082
0.0266614
0.0367463
-0.0239803
0.0251743
-0.0257155
-0.038399
-0.0372706
0.0246112
-0.0248397
0.0254665
0.0361814
0.0363546
-0.0244481
-0.0396684
0.0400509
-0.0247959
-0.0403334
-0.0250506
0.0262695
-0.0262519
-0.0384165
0.0249983
-0.0359994
-0.0385722
0.0389524
-0.022598
-0.0238458
-0.0370382
0.0367676
-0.0210772
-0.0213803
-0.0364811
0.0361712
-0.0204402
-0.0206292
-0.0358336
0.0354606
-0.0201955
-0.0201581
-0.0350688
0.0374151
-0.0203682
-0.02015
-0.0366956
0.035854
-0.0195828
-0.0202897
-0.0364599
0.0357917
-0.0186777
-0.0202477
-0.0340518
0.0331045
-0.0155411
-0.0160403
-0.032087
0.0319041
-0.00926702
-0.0126817
-0.0317932
0.0317412
-0.00219357
-0.00580842
-0.0317637
0.0318633
0.00530171
0.00154564
-0.0320378
0.0322834
0.0122625
0.00884624
-0.0325844
0.0329267
0.0178124
0.0151468
-0.0332837
0.0336377
0.0214693
0.0197388
-0.0339645
0.0342534
0.0233129
0.0224202
-0.0338855
0.0354515
0.0250955
0.0241154
0.0358288
0.0250891
-0.0252091
0.0254462
0.0359443
-0.0248741
0.0360195
0.0360754
-0.0358242
-0.024224
-0.0363
0.036079
-0.024227
-0.0242049
0.0358268
-0.0358724
-0.0234827
-0.0238474
0.0357598
-0.0356255
-0.0209009
-0.0222473
0.0354889
-0.0353644
-0.0160612
-0.0185914
0.035267
-0.0352037
-0.0092522
-0.0127428
0.0351771
-0.0351847
-0.00138979
-0.00533984
0.0352189
-0.0352646
0.00642748
0.00256458
0.0359941
-0.0361221
0.0132065
0.00991849
0.0368566
-0.0366097
0.0175781
0.0158472
0.0364758
-0.0363277
0.0213595
0.01988
0.0369069
-0.0374115
0.0220099
0.0210394
0.0362591
-0.0363918
0.0214258
0.0214518
0.0365053
-0.0365945
0.0211997
0.0211212
0.0366542
-0.0366867
0.0214526
0.0211342
0.0366934
-0.0371136
0.0220233
0.0215853
0.0369654
-0.037291
0.0226346
0.0222098
0.0364998
-0.0357506
0.023862
0.0227522
-0.0345465
0.0237941
-0.0410298
-0.0255555
0.0357799
0.0254951
-0.0242395
0.0354444
0.0253437
-0.0255669
-0.0357762
0.024375
-0.0335777
0.0258506
-0.0255975
-0.0412829
-0.0381329
-0.0399868
0.0388929
-0.023702
0.041001
-0.0417502
-0.0248063
-0.0240364
-0.0379079
0.0375034
-0.0221936
-0.0228608
-0.0371709
0.0368232
-0.0207294
-0.0210478
-0.0364644
0.0360848
-0.0200606
-0.0202704
-0.0356788
0.0352345
-0.0197512
-0.0197521
-0.0347553
0.0342392
-0.0198522
-0.0196708
-0.0337291
0.0338679
-0.0197216
-0.0197795
-0.0327193
0.0322717
-0.0182301
-0.0190992
-0.0328386
0.0319256
-0.0146281
-0.0166072
-0.0312354
0.0310216
-0.00905324
-0.0119915
-0.0308902
0.030841
-0.00214429
-0.00567701
-0.0308768
0.0310015
0.00517711
0.00150975
-0.0312109
0.0314998
0.0119736
0.00863682
-0.0318508
0.0322489
0.0174143
0.0147958
-0.0326664
0.0330856
0.0210501
0.0193214
-0.0334799
0.033839
0.0229538
0.0220259
-0.0342151
0.0352014
0.0241091
0.0237393
0.0245815
-0.0248625
0.0362254
0.0240238
0.0363376
-0.0355695
0.036445
0.0246196
0.0247211
0.0357976
-0.0361352
-0.0238894
0.0351159
-0.0235578
0.0238881
-0.0236788
0.0352351
0.0350451
0.0364738
-0.0366701
-0.0240276
-0.0238663
0.0366863
-0.036697
-0.023472
-0.0238312
0.0366697
-0.0366152
-0.0209553
-0.0222746
0.0365495
-0.0364859
-0.0161249
-0.0186571
0.0364363
-0.0364056
-0.00928289
-0.0127924
0.0363944
-0.0363991
-0.00138509
-0.00535109
0.0364132
-0.0364306
0.00644484
0.00257875
0.0364492
-0.0364746
0.0132319
0.00993712
0.0364882
-0.0371211
0.0182111
0.0158608
0.0369537
-0.0365523
0.0209581
0.0197125
0.0369047
-0.0366225
0.0217277
0.0213918
0.0366743
-0.0367147
0.0214661
0.0215037
0.0367416
-0.0367492
0.0212072
0.0211482
0.0367301
-0.0366832
0.0214057
0.021115
0.036607
-0.0364953
0.0219116
0.0215092
0.036341
-0.0361294
0.0224229
0.0220555
0.0358451
-0.0346199
0.0226368
0.0224679
0.0338363
-0.0324409
0.0229796
0.0230106
-0.0424079
-0.0249399
0.0236949
-0.0247965
-0.0324762
-0.0313339
0.0225879
-0.0256655
-0.0349071
0.0244265
0.0360423
0.035009
-0.023572
-0.0247376
0.0244387
-0.040984
-0.0246243
-0.0425212
0.0220029
-0.023672
-0.0308071
0.0211135
-0.0304445
-0.0393597
0.0362956
-0.0355153
0.0238393
0.0361253
0.0245967
-0.0230123
0.0233365
0.034911
-0.0225609
0.0345576
-0.0429058
0.043116
-0.0248345
-0.0252091
0.0246531
-0.0419652
0.0447661
0.0231161
-0.0168818
-0.0510004
-0.0233488
-0.0427169
0.0418789
-0.0239682
-0.0245408
-0.0408685
0.0394997
-0.0223333
-0.023026
-0.0387202
0.0377151
-0.0211885
-0.0220813
-0.0373045
0.0368844
-0.0203093
-0.0206372
-0.036457
0.0360113
-0.0196149
-0.019843
-0.0355411
0.035032
-0.0192421
-0.0192819
-0.0344865
0.0339048
-0.0192705
-0.0191252
-0.0333111
0.0327179
-0.0191285
-0.0191858
-0.0321591
0.0316337
-0.0177048
-0.0185403
-0.0311773
0.0307889
-0.0142397
-0.0161507
-0.0304695
0.0302332
-0.00881693
-0.0116722
-0.0300905
0.0300434
-0.00209715
-0.00553429
-0.030094
0.0302443
0.00502687
0.00145908
-0.0304879
0.0308184
0.0116431
0.00839315
-0.0312158
0.0316652
0.0169648
0.0143985
-0.0321371
0.0326147
0.0205725
0.0188494
-0.0330693
0.0334912
0.0225319
0.0215713
-0.0340518
0.0347393
0.0234216
0.0231787
0.0239451
0.024091
-0.0233558
0.0354901
-0.0244694
0.0242419
0.0362698
0.0359592
0.0350258
0.036353
-0.036871
-0.0233714
-0.0357737
0.0348139
-0.0226122
-0.0229784
0.0371169
-0.0372247
-0.0239198
-0.0236204
0.0374627
-0.0375664
-0.0233683
-0.0235933
0.037626
-0.0376513
-0.02093
-0.022215
0.0376546
-0.0376484
-0.016131
-0.0186538
0.0376425
-0.0376412
-0.00928414
-0.0127983
0.0376432
-0.0376438
-0.00138452
-0.00534908
0.0376369
-0.0376189
0.00642681
0.00257184
0.0375867
-0.037541
0.0131862
0.00990497
0.0374788
-0.0374064
0.0181386
0.0157987
0.0373335
-0.0372633
0.0208879
0.0196396
0.0371948
-0.037142
0.0216748
0.0213233
0.0370956
-0.0370481
0.0214187
0.0214573
0.036992
-0.0369186
0.0211338
0.0210921
0.0368214
-0.0366952
0.0212795
0.0210178
0.0365369
-0.0363385
0.0217132
0.0213508
0.0360928
-0.0357839
0.022114
0.0218099
0.0354003
-0.0349256
0.0221622
0.0220843
0.0337204
-0.0321429
0.0214021
0.0218053
0.0307164
-0.0296345
0.0200316
0.0211614
0.0192206
-0.0201887
-0.0294764
-0.0286326
0.0182187
0.0241562
-0.040487
-0.023409
-0.0351701
0.0243229
0.0360444
0.0345229
-0.0222699
0.0237275
-0.0425766
-0.0196783
-0.0313175
0.030027
-0.0327264
0.0341102
-0.0168693
0.0158641
-0.0276274
-0.0180365
-0.0283092
-0.0271302
0.042993
-0.0112798
-0.0166084
-0.0193551
-0.0386125
-0.0422456
0.0446806
-0.0193168
-0.0161428
0.0168902
-0.043756
0.042814
-0.0238925
-0.0224242
-0.0420551
0.0408221
-0.0227352
-0.0237819
-0.0399633
0.0393641
-0.0217341
-0.0221672
-0.0384021
0.0379206
-0.020707
-0.0211193
-0.0374383
0.0369518
-0.0198228
-0.0201549
-0.0364624
0.0359578
-0.0191103
-0.0193535
-0.0354313
0.0348659
-0.0186767
-0.0187554
-0.034262
0.033618
-0.0186266
-0.0185213
-0.0329578
0.0322973
-0.018468
-0.0185256
-0.0316694
0.0310879
-0.0171233
-0.0179124
-0.0305769
0.0301437
-0.0138064
-0.0156397
-0.0297995
0.0295486
-0.00856606
-0.011328
-0.0294001
0.0293578
-0.00205486
-0.00538573
-0.0294237
0.0295981
0.00485243
0.00139318
-0.0298733
0.0302415
0.0112748
0.008118
-0.0306807
0.0311758
0.0164698
0.0139593
-0.0316958
0.0322246
0.0200437
0.0183294
-0.0327327
0.0332111
0.0220534
0.0210632
-0.0339778
0.0345047
0.0228947
0.0224121
-0.0349124
0.0354395
0.0233122
0.0235374
-0.0359561
0.0367232
0.0235558
0.0240801
0.0241511
-0.0237952
0.0359139
-0.0245261
0.0242144
0.0370348
0.0356694
0.0236482
-0.0229815
0.0348234
0.0358122
0.0227841
-0.0225082
0.034635
0.0348284
0.0224658
-0.0223162
0.0343733
0.0345153
0.0358294
-0.036349
-0.0220925
-0.0355079
0.0347071
-0.0215154
-0.0219485
0.0368917
-0.0372789
-0.0229842
-0.0224358
0.0377296
-0.0380207
-0.0236287
-0.0231697
0.0382635
-0.0384606
-0.0231711
-0.0233505
0.0386082
-0.0387145
-0.0208237
-0.0220675
0.0387865
-0.038836
-0.0160815
-0.0185818
0.0388702
-0.0388935
-0.00926079
-0.0127642
0.038904
-0.0388968
-0.00139171
-0.00533866
0.0388663
-0.0388085
0.006369
0.00254141
0.0387225
-0.0386074
0.0130711
0.0098189
0.0384678
-0.0383102
0.017981
0.0156591
0.0381437
-0.0379743
0.0207185
0.0194731
0.0378131
-0.037663
0.0215247
0.0211621
0.0375236
-0.0373891
0.0212842
0.0213179
0.0372518
-0.0370996
0.0209817
0.0209547
0.0369257
-0.0367213
0.0210751
0.0208439
0.0364823
-0.0361992
0.0214301
0.0211119
0.0358654
-0.0354647
0.0217133
0.0214761
0.0349882
-0.0344187
0.0215926
0.0216078
0.0337534
-0.032985
0.0206337
0.0211401
0.031402
-0.0296835
0.0183131
0.0195784
0.0284987
-0.0274308
0.0147963
0.0170339
0.013027
-0.0138734
-0.0267809
-0.0264143
0.0120104
0.0227715
-0.039531
-0.0209661
-0.0338823
0.0234398
-0.0359894
-0.0175663
-0.0317878
0.0357072
-0.0357765
0.023625
0.0363344
0.0235873
-0.0215122
0.021805
0.0340804
-0.0209236
0.0341185
0.0217595
-0.031093
-0.0139268
-0.0282559
-0.0049196
-0.0349452
-0.0323919
0.0392543
-0.0181423
0.0100874
-0.0105004
-0.0263679
0.00895115
-0.025278
-0.0287144
-0.0230326
-0.0368071
-0.0419433
0.0427125
-0.0200861
-0.0188317
-0.0431023
0.0421
-0.0228902
-0.022814
-0.0408583
0.0403309
-0.0222078
-0.0225402
-0.039784
0.039227
-0.0211771
-0.0216203
-0.0386723
0.0381188
-0.0201534
-0.0205647
-0.0375718
0.0370249
-0.0192759
-0.0196078
-0.0364795
0.0359224
-0.0185532
-0.0188082
-0.0353467
0.0347331
-0.0180632
-0.0181796
-0.03408
0.0333836
-0.0179301
-0.0178682
-0.0326666
0.0319466
-0.0177479
-0.0178087
-0.0312598
0.0306246
-0.016488
-0.0172256
-0.0300678
0.0295989
-0.0133375
-0.015083
-0.0292318
0.0289691
-0.00830341
-0.0109609
-0.0288193
0.0287844
-0.00201998
-0.00523585
-0.028866
0.0290633
0.00465523
0.00131149
-0.0293666
0.0297679
0.0108735
0.00781462
-0.0302436
0.0307783
0.0159351
0.0134836
-0.0313401
0.0319134
0.0194704
0.0177675
-0.0324684
0.0329959
0.0215259
0.0205083
-0.0334778
0.0339154
0.0224571
0.0219302
-0.0349938
0.035138
0.023168
0.0224591
0.0234416
0.0239194
-0.0237547
0.0357492
-0.0235462
0.0242779
0.0363031
0.0360426
0.0225546
-0.0223452
0.034614
0.0346121
0.021938
-0.021816
0.034513
0.0344212
0.0345043
0.0364755
-0.0370815
-0.0214866
-0.035722
0.034658
-0.0204513
-0.0211949
0.0375331
-0.0379393
-0.0225781
-0.0219841
0.0383548
-0.0387403
-0.0232431
-0.0227542
0.0390773
-0.0393676
-0.0228809
-0.0230136
0.0396022
-0.0397877
-0.0206381
-0.0218329
0.039926
-0.0400278
-0.0159796
-0.0184436
0.0400981
-0.0401417
-0.00921718
-0.0126939
0.0401562
-0.0401373
-0.00141056
-0.00532416
0.0400799
-0.0399799
0.00626898
0.00248397
0.0398382
-0.039655
0.012888
0.0096772
0.0394386
-0.0391952
0.0177376
0.0154427
0.0389381
-0.038675
0.0204555
0.019216
0.0384209
-0.0381785
0.0212823
0.020908
0.0379511
-0.0377327
0.0210658
0.0210906
0.0375162
-0.0372877
0.0207532
0.0207382
0.0370391
-0.0367585
0.0207945
0.0205953
0.0364417
-0.0360772
0.0210657
0.020795
0.03566
-0.0351742
0.0212274
0.0210589
0.0346131
-0.0339607
0.0209402
0.0210468
0.0332175
-0.0323764
0.0197926
0.0203969
0.031454
-0.0304647
0.0173237
0.0186561
0.0288498
-0.0272761
0.0132226
0.0154191
0.0257758
-0.024724
0.0078993
0.0105101
0.00573619
-0.00606563
-0.0249486
-0.0238716
0.00488379
0.0202329
-0.036324
-0.0184423
-0.0330063
0.0243011
0.0363112
0.0341611
-0.0204268
0.0195907
-0.0338206
0.0106344
-0.0428509
0.0144311
-0.0348898
-0.0149034
-0.0308112
-0.010717
-0.0280392
-0.0413706
-0.022289
0.0143016
-0.0163569
-0.0393153
0.00874693
-0.0372963
-0.00676474
-0.0256688
0.00155177
-0.00255184
-0.0239485
0.00139077
-0.0237106
-0.0350165
-0.0387043
0.0408088
-0.0202468
0.0408353
-0.0436823
-0.019442
-0.0209016
-0.0423266
0.0430999
-0.0208594
-0.0203495
-0.0426249
0.0420616
-0.0223269
-0.022339
-0.0414514
0.0408155
-0.0215719
-0.02193
-0.0401759
0.0395388
-0.0205401
-0.0209807
-0.0389151
0.0383001
-0.0195384
-0.0199409
-0.0376975
0.0370991
-0.0186775
-0.0190053
-0.0365058
0.0359042
-0.0179515
-0.0182149
-0.0352873
0.0346345
-0.0174104
-0.0175628
-0.0339419
0.0332027
-0.0171909
-0.0171756
-0.032439
0.0316686
-0.0169776
-0.0170449
-0.0309313
0.0302487
-0.0158055
-0.0164883
-0.0296525
0.0291528
-0.0128378
-0.0144868
-0.0287666
0.028495
-0.00803181
-0.0105747
-0.0283464
0.0283203
-0.0019939
-0.00508728
-0.0284179
0.0286364
0.00443679
0.00121388
-0.0289648
0.0293946
0.0104438
0.00748615
-0.0299012
0.0304692
0.015367
0.012977
-0.0310666
0.031678
0.018859
0.0171702
-0.0322735
0.0328451
0.0209543
0.0199127
-0.0333732
0.0338593
0.0219711
0.0214021
-0.0342945
0.0351418
0.0223206
0.0220238
-0.0357694
0.0363396
0.0230549
0.022814
-0.0360992
0.0367992
0.0236011
0.0238276
0.0243277
-0.0239468
0.0359222
-0.0243847
0.0233041
0.0378797
0.0362542
0.0236254
-0.0226645
0.0347883
0.0357212
0.0224748
-0.0222122
0.0343515
0.0344224
0.0218841
-0.0214907
0.0341196
0.0340931
0.0211583
-0.0210041
0.0339262
0.0341719
0.0206143
-0.0199081
0.0334549
0.0337287
0.0354729
-0.0357694
-0.0201549
-0.0344842
0.0338875
-0.0193114
-0.0194381
0.0367284
-0.0372802
-0.0209348
-0.0202359
0.0379537
-0.0384825
-0.0220493
-0.0213106
0.0389842
-0.0394596
-0.0227678
-0.0222525
0.0398884
-0.0402708
-0.0224985
-0.0225847
0.0405915
-0.0408542
-0.0203754
-0.0215122
0.0410556
-0.0412053
-0.01583
-0.0182422
0.0413063
-0.0413647
-0.00915884
-0.0125929
0.0413784
-0.041344
-0.00144501
-0.00531042
0.0412569
-0.0411131
0.00612522
0.00239691
0.0409154
-0.0406652
0.0126377
0.00947951
0.0403738
-0.0400477
0.0174115
0.0151512
0.0397043
-0.0393526
0.0201037
0.0188726
0.0390102
-0.0386807
0.0209527
0.0205656
0.0383705
-0.0380723
0.0207676
0.0207804
0.0377799
-0.0374779
0.0204512
0.0204458
0.0371575
-0.0368042
0.0204412
0.0202748
0.0364134
-0.0359727
0.0206249
0.0204043
0.0354783
-0.034915
0.0206641
0.0205645
0.0342786
-0.0335543
0.0202159
0.0204105
0.0327458
-0.0318477
0.0188945
0.0195883
0.0308794
-0.02985
0.0162944
0.0176877
0.0287893
-0.0277304
0.0121637
0.0143583
0.0267185
-0.0254289
0.00660972
0.00949817
0.0243458
-0.0233554
0.000400377
0.00380071
-0.00263226
0.00214171
-0.02322
-0.0230825
-0.00290521
0.0174133
-0.0341467
-0.043264
-0.0167752
0.0147498
-0.0341392
0.0377702
-0.0372168
0.0230478
0.0381282
0.0229461
-0.0198991
0.020032
0.033322
-0.0189962
0.0329846
-0.0158382
-0.0320715
-0.0117086
-0.0298196
0.0102721
-0.0364149
-0.00709816
-0.0277058
-0.00230915
-0.0259115
0.00227896
-0.0240858
-0.00600253
0.00605737
-0.0232749
-0.00622169
-0.0228633
-0.0334414
-0.0454222
0.0442137
-0.0182335
-0.0123401
0.0133591
-0.044283
0.0464191
-0.0473176
-0.0114416
-0.0157782
-0.0423862
0.0429814
-0.020842
-0.0190741
-0.0436923
0.043969
-0.0211361
-0.0210604
-0.0433609
0.0426786
-0.0216445
-0.0217309
-0.0419632
0.0412355
-0.0208443
-0.0212146
-0.0405184
0.0398148
-0.0198364
-0.0202635
-0.0391335
0.0384671
-0.0188721
-0.0192596
-0.0378181
0.0371764
-0.0180357
-0.0183563
-0.0365429
0.0359039
-0.0173125
-0.0175814
-0.0352534
0.0345698
-0.0167268
-0.0169124
-0.0338472
0.0330756
-0.0164193
-0.016453
-0.0322754
0.0314641
-0.0161663
-0.0162447
-0.0306843
0.029961
-0.0150822
-0.0157085
-0.0293302
0.0288043
-0.0123119
-0.013856
-0.0284015
0.0281236
-0.00775385
-0.0101719
-0.0279769
0.0279614
-0.0019784
-0.00494056
-0.0280739
0.0283117
0.00419895
0.00110134
-0.0286623
0.0291161
0.00998987
0.00713563
-0.0296483
0.0302439
0.0147714
0.0124448
-0.0308705
0.0315138
0.0182158
0.0165436
-0.0321438
0.0327533
0.0203448
0.0192827
-0.0333221
0.0338525
0.0214407
0.0208333
-0.0343345
0.0347764
0.0218788
0.0215418
-0.0358094
0.0363444
0.0225199
0.021781
0.0229552
0.023709
-0.0237163
0.0359296
-0.0232928
0.0235504
0.0376221
0.0366704
0.0228593
-0.0226993
0.0346283
0.0348641
0.0224625
-0.0221532
0.0340422
0.0341857
0.0217772
-0.021337
0.0336795
0.0337171
0.020634
-0.0204307
0.0337229
0.0334689
0.0333301
0.0359359
-0.0366527
-0.0194381
-0.0351409
0.0340435
-0.018214
-0.0186431
0.0372609
-0.0378118
-0.0203839
-0.0196277
0.0384178
-0.0390223
-0.0214447
-0.0207046
0.0396039
-0.0401654
-0.0222062
-0.0216709
0.0406834
-0.0411551
-0.0220268
-0.0220668
0.0415594
-0.0418966
-0.0200381
-0.0211079
0.0421577
-0.0423505
-0.0156371
-0.0179812
0.0424768
-0.0425439
-0.00909177
-0.0124666
0.0425514
-0.042497
-0.00149937
-0.00530296
0.0423778
-0.0421894
0.00593686
0.00227768
0.0419364
-0.0416211
0.0123224
0.00922644
0.0412576
-0.0408535
0.0170075
0.0147877
0.0404294
-0.0399952
0.0196695
0.0184486
0.039571
-0.0391608
0.0205426
0.0201414
0.0387736
-0.0384007
0.0203947
0.0203932
0.0380371
-0.0376657
0.0200797
0.0200822
0.0372774
-0.0368559
0.0200197
0.0198866
0.0363965
-0.0358857
0.0201142
0.0199448
0.0353214
-0.0346888
0.0200314
0.0200002
0.0339863
-0.0332004
0.0194299
0.019708
0.0323375
-0.0313938
0.0179509
0.0187254
0.0303907
-0.0293383
0.0152419
0.0166847
0.0282721
-0.0272208
0.0111124
0.0132921
0.0262297
-0.0253293
0.00570928
0.00850708
0.0241935
-0.0233536
-0.000439573
0.00266494
0.0229896
-0.0230738
-0.00613748
-0.00326917
-0.0109914
0.00801462
-0.0343195
-0.0369476
-0.00890631
0.00930922
-0.0232662
-0.0231915
-0.00878859
0.013584
-0.0329809
0.0240492
0.0376293
0.033486
-0.0184386
0.00627433
-0.0460372
-0.00755467
-0.0126678
-0.0311122
0.00659075
-0.0445994
0.01048
-0.0343471
-0.00807044
-0.0288473
0.00724118
-0.0356415
-0.0031701
-0.0268449
0.00163982
-0.0252724
0.00600823
-0.0240366
0.00938615
-0.0233518
-0.0113669
0.0118375
-0.0237368
-0.010728
-0.0238305
-0.0325253
-0.0490325
0.0479729
-0.010382
-0.00462097
-0.0442207
0.00280449
0.0492627
-0.0468528
-0.00703089
-0.00732454
-0.0472488
0.04663
-0.0176146
-0.0150542
-0.0461419
0.0452558
-0.0199558
-0.018586
-0.0448413
0.0447547
-0.0210494
-0.020646
-0.0440089
0.04321
-0.0208457
-0.0209851
-0.0423994
0.0415937
-0.0200386
-0.020404
-0.0408124
0.0400543
-0.0190783
-0.0194822
-0.039326
0.0386179
-0.018164
-0.0185314
-0.0379312
0.0372543
-0.0173588
-0.0176696
-0.0365882
0.0359193
-0.0166436
-0.0169153
-0.0352427
0.0345366
-0.0160206
-0.0162358
-0.0337935
0.0330001
-0.0156259
-0.0157099
-0.0321741
0.0313319
-0.015324
-0.0154188
-0.0305178
0.0297602
-0.0143246
-0.0148944
-0.0290994
0.0285504
-0.0117629
-0.0131951
-0.0281334
0.0278502
-0.00747068
-0.00975491
-0.0277066
0.0277
-0.00197187
-0.00479691
-0.0278267
0.0280818
0.00394386
0.000974674
-0.0284513
0.0289253
0.00951583
0.00676614
-0.0294784
0.0300961
0.0141537
0.0118918
-0.0307462
0.0314155
0.0175465
0.0158934
-0.0320741
0.0327159
0.019703
0.0186241
-0.0333202
0.03389
0.0208708
0.020229
-0.0344144
0.0349019
0.0213912
0.0210175
-0.0353463
0.0362553
0.021611
0.0213366
-0.0371549
0.0377156
0.022487
0.0220556
-0.0377135
0.0382612
0.0235015
0.0229482
0.0243833
-0.0237506
0.0369894
-0.0241921
0.0233593
0.039094
0.0378205
0.0236194
-0.0230642
0.0353743
0.0365393
0.022951
-0.0227524
0.0344297
0.0347509
0.022477
-0.0221265
0.0336917
0.0339103
0.0217077
-0.0212234
0.0331952
0.0332982
0.020684
-0.0199102
0.032949
0.0329295
0.0195397
-0.0190535
0.0328358
0.0329596
0.0191336
-0.0178737
0.0322261
0.0330646
0.0347719
-0.0353307
-0.0176552
-0.0335467
0.0329284
-0.0172553
-0.0172135
0.0360836
-0.03687
-0.0186517
-0.0178901
0.0375319
-0.0382061
-0.0197097
-0.0189658
0.0388741
-0.0395464
-0.0207724
-0.0200367
0.0402023
-0.0408455
-0.021563
-0.021015
0.0414481
-0.0420056
-0.0214692
-0.0214642
0.0424904
-0.0428989
-0.0196296
-0.0206231
0.043216
-0.0434474
-0.0154056
-0.0176642
0.0435935
-0.0436633
-0.009022
-0.0123205
0.0436588
-0.04358
-0.00157816
-0.00530744
0.0434258
-0.043192
0.00570309
0.00212345
0.0428852
-0.0425073
0.0119445
0.0089196
0.042076
-0.0415993
0.0165308
0.0143565
0.041101
-0.0405913
0.0191598
0.0179503
0.0400928
-0.0396095
0.0200592
0.019643
0.0391519
-0.0387106
0.0199533
0.0199356
0.0382815
-0.0378461
0.0196443
0.0196532
0.0373954
-0.0369114
0.0195357
0.0194359
0.0363896
-0.0358158
0.0195404
0.0194231
0.0351892
-0.0344955
0.0193377
0.0193736
0.0337358
-0.0328978
0.018592
0.0189483
0.0319908
-0.0310124
0.0169725
0.0178184
0.0299862
-0.0289235
0.0141792
0.0156584
0.0278625
-0.0268288
0.0100787
0.0122312
0.0258678
-0.0250112
0.00485269
0.00754609
0.0243118
-0.0238137
-0.000937723
0.00196551
0.0233362
-0.023126
-0.00634776
-0.0037466
0.0233886
-0.0238475
-0.0102691
-0.008526
-0.00717004
0.00475929
-0.0319087
-0.0375269
-0.0121795
0.013089
-0.0247399
-0.0250823
-0.0109447
0.0099986
-0.0324995
-0.00904285
-0.0301398
0.000503268
-0.0450275
-0.00232854
-0.0421901
-0.0015274
-0.00148742
-0.0403075
0.00634961
-0.0334556
-0.0040737
-0.0279437
0.0394699
-0.0383313
0.0223629
0.0395655
0.0232637
-0.0174445
0.0176375
0.0320331
-0.0167024
0.0321863
0.00332026
-0.0342024
0.000919334
-0.0261244
0.00555833
-0.0248225
0.00948363
-0.0241341
0.0123604
-0.0238747
0.0137003
-0.0243481
0.00254125
-0.0430251
-0.0045436
-0.0449784
0.0476304
-0.000110783
-0.00626186
-0.0438011
0.00508458
-0.0129551
-0.0255456
0.0137608
-0.0120368
-0.0260007
-0.0417402
-0.00754678
-0.0315695
-0.0463698
0.0455261
-0.00618727
-0.00106788
-0.0474767
0.0488504
-0.0117556
-0.00927513
-0.0483203
0.0475048
-0.0167992
-0.0145241
-0.0472771
0.0468001
-0.0194788
-0.0183583
-0.0461447
0.0453632
-0.0202679
-0.0199906
-0.0445094
0.0436228
-0.0199591
-0.0201312
-0.0427423
0.0418798
-0.0191761
-0.0195235
-0.0410515
0.040253
-0.0182799
-0.0186538
-0.0394897
0.0387501
-0.0174244
-0.017768
-0.0380348
0.0373312
-0.0166553
-0.0169543
-0.0366403
0.0359489
-0.0159522
-0.0162244
-0.0352536
0.0345328
-0.0152998
-0.0155405
-0.0337783
0.0329735
-0.0148211
-0.0149554
-0.0321327
0.0312697
-0.014461
-0.014578
-0.0304298