/*--------------------------------*- C++ -*----------------------------------*\
  =========                 |
  \\      /  F ield         | OpenFOAM: The Open Source CFD Toolbox
   \\    /   O peration     | Website:  https://openfoam.org
    \\  /    A nd           | Version:  10
     \\/     M anipulation  |
\*---------------------------------------------------------------------------*/
FoamFile
{
    format      ascii;
    class       volScalarField;
    location    "18";
    object      p;
}
// * * * * * * * * * * * * * * * * * * * * * * * * * * * * * * * * * * * * * //

dimensions      [0 2 -2 0 0 0 0];

internalField   nonuniform List<scalar> 
28942
(
-0.00327367
-0.00257087
0.00273826
0.0104603
0.0107605
0.000195407
0.000529474
7.44797e-05
0.00367015
0.00375829
-0.00163494
-0.00190013
-0.00231987
-0.00223791
0.000339721
0.000750774
0.010722
0.0109921
0.00640544
0.00795793
0.00898086
0.00897821
-0.00479353
-0.00456353
-0.003128
-0.00332284
0.0147492
0.0146968
0.00429638
0.00425282
5.00093e-05
9.71243e-05
0.00132585
0.000575083
0.00792043
0.00913679
0.011701
0.0136815
4.93925e-05
0.0158972
0.0100493
0.012547
0.00320709
0.00316281
0.00319523
0.000493242
0.000328477
0.00039483
0.000455337
0.000669747
0.00120169
0.00391945
0.00397877
0.00378103
0.00394685
-0.00179984
-0.000524028
-0.00276409
-0.00261514
-0.00292379
-0.00297847
-0.00296016
-0.00284749
0.000518797
-0.0012722
0.000311518
0.0016985
0.0102741
0.00977738
-0.00280354
-0.0030452
-0.00277001
0.00982664
0.0096834
0.00997303
-0.000921739
-0.000515729
-0.000104489
0.0030983
0.00350014
0.00255419
0.0014195
-0.00595628
-0.00724376
0.00173299
0.00450554
0.00556635
0.00636583
0.00472001
0.00486718
0.00686386
0.00622169
-0.000389594
-0.000772979
-0.00115684
-0.000941894
-0.000677416
0.00608491
0.00739595
-0.00755677
0.0122576
0.0114587
0.00675321
0.01035
0.00200224
0.0020075
0.00183224
0.00633711
0.00652781
0.00652079
-0.00259158
-0.00250647
-0.00260674
-0.00204342
-0.00209411
0.016703
0.0146921
0.014119
0.0157616
0.00232173
0.00547791
0.00415188
0.00586048
0.00554275
0.0163835
0.016675
0.0153181
0.00672075
0.00780446
0.000354623
0.000486747
0.000233038
0.0113456
0.0118547
0.00862668
0.00827857
0.0137355
0.00749861
0.00880697
0.00984446
-0.00105079
-0.0015928
0.00818042
0.00317105
0.00319962
-0.00055606
-0.000745003
-0.0002691
-0.00175009
0.00734966
0.00646773
0.00438981
0.000419857
0.00034314
0.000178618
0.000352493
0.00830392
0.00756876
-0.00103112
-0.00116327
-0.00102381
-0.00375052
-0.00324117
0.00015573
-0.00233222
6.18651e-05
0.00922019
0.00932407
0.0104352
0.00996765
0.00853288
0.00415998
0.00409064
0.00423426
0.00412594
0.00591982
0.00569648
0.00602459
0.00624561
0.00617487
0.00622176
0.00642728
0.00697308
0.00667092
0.00625938
0.00658703
0.00729667
0.00804052
0.00834117
0.000561147
0.000543919
-0.00180033
0.000377154
0.00017894
-0.00123031
-0.00129457
0.000520758
0.000558941
0.000511438
0.000447614
0.00260056
0.00259359
0.0025764
-0.00226246
-0.00247052
-0.00205318
-0.00381571
-0.00433539
-0.0035749
-0.00423537
-0.00605522
-0.00469264
0.0168973
0.0176134
0.0173778
0.00213956
0.00227955
0.00214981
0.0111987
0.0107728
0.0108529
0.00207442
0.00205081
0.00209791
0.00202717
0.00200356
0.00198005
0.00198083
0.00195657
0.00195778
0.00200404
0.00202763
0.00205122
0.00207499
0.00209836
0.00193339
0.00193457
0.00212152
0.00212211
0.00214552
0.00191033
0.00191108
0.00214602
0.00188702
0.00186375
0.00188781
0.00186454
0.00216883
0.00216958
0.00184046
0.00184135
0.00219238
0.00219338
0.00181729
0.00181811
0.00221613
0.00221725
0.00179419
0.00179482
0.00223999
0.00224113
0.0017711
0.0017716
0.00226393
0.00226508
0.00174797
0.00174841
0.00228808
0.00228891
0.00172487
0.00172525
0.00231208
0.00231284
0.00170169
0.00170204
0.00233651
0.00233709
0.00167851
0.00167868
0.00236082
0.00236135
0.00165544
0.00165497
0.00238576
0.00238603
0.00163184
0.00163132
0.00241073
0.00241093
0.00160735
0.00160742
0.00238519
0.00241023
0.00243609
0.00243601
0.00233582
0.00236056
0.00228741
0.00231179
0.00223952
0.00226341
0.00219186
0.00221568
0.00214415
0.00216805
0.00209743
0.00212101
0.0020504
0.00207367
0.00200346
0.00202701
0.00195635
0.00197997
0.00190973
0.00193304
0.00186318
0.00188645
0.00181677
0.00183998
0.00177043
0.00179361
0.00172419
0.00174733
0.00167811
0.00170117
0.00163127
0.00165499
0.00160737
0.00158313
0.00158322
0.00165528
0.00160785
0.00163169
0.00170221
0.00167884
0.00174856
0.00172542
0.00179488
0.00177171
0.00184132
0.00181809
0.00188783
0.00186456
0.00193449
0.00191113
0.00198122
0.00195799
0.00202793
0.00200466
0.00207504
0.00205142
0.00212236
0.00209879
0.00216972
0.00214581
0.00221736
0.00219352
0.0022652
0.00224125
0.00231328
0.00228918
0.00236173
0.00233738
0.00241059
0.00238602
0.00243561
0.00243546
0.00158321
0.00158364
0.00246153
0.00246084
0.00246074
0.00246151
0.00238463
0.0024343
0.00240939
0.00233537
0.00235998
0.00228711
0.00231117
0.00223928
0.00226316
0.00219164
0.00221543
0.00214419
0.00216789
0.0020969
0.00212061
0.00204991
0.00207356
0.00200319
0.00202632
0.00195618
0.00197969
0.00190957
0.00193286
0.00186306
0.0018863
0.00181666
0.00183985
0.00177036
0.0017935
0.00172415
0.00174724
0.00167802
0.00170108
0.00163132
0.00165482
0.00155881
0.00155909
0.00158372
0.0016077
0.00160864
0.00158501
0.00155985
0.00155901
0.00165579
0.00163237
0.00170231
0.001679
0.00174856
0.00172544
0.00179487
0.00177171
0.00184128
0.00181807
0.00188779
0.00186453
0.00193442
0.00191109
0.00198119
0.00195781
0.00202814
0.00200464
0.00207503
0.00205154
0.00212228
0.00209878
0.00216971
0.00214596
0.0022173
0.00219348
0.00226511
0.00224118
0.00231315
0.0022891
0.00236144
0.00233725
0.00241011
0.0023857
0.00245975
0.00243487
0.00245934
0.0024862
0.00248505
0.00248682
0.00155996
0.00156074
0.00248592
0.00248431
0.00251167
0.00251051
0.00248702
0.00158446
0.00156083
0.00153582
0.00153659
0.00248243
0.00250971
0.00253355
0.00250838
0.00243298
0.00245767
0.00238383
0.00240833
0.00233501
0.00235935
0.00228683
0.00231082
0.00223902
0.00226291
0.00219141
0.00221519
0.00214401
0.00216769
0.00209675
0.00212037
0.00204969
0.00207323
0.00200283
0.00202621
0.00195602
0.00197941
0.00190943
0.00193271
0.00186293
0.00188617
0.00181654
0.00183972
0.00177025
0.00179338
0.00172404
0.00174713
0.00167791
0.00170097
0.00163148
0.00165471
0.00160804
0.00153499
0.00153591
0.00153528
0.0015352
0.00160924
0.00156173
0.00158563
0.00165611
0.00163274
0.00170232
0.00167915
0.00174854
0.00172542
0.00179485
0.00177169
0.00184125
0.00181804
0.00188776
0.00186449
0.00193437
0.00191105
0.00198111
0.00195773
0.00202801
0.00200454
0.00207502
0.0020515
0.00212222
0.00209862
0.0021696
0.00214589
0.00221717
0.00219336
0.00226495
0.00224104
0.00231296
0.00228893
0.0023612
0.00233705
0.00240973
0.00238542
0.00245878
0.00243417
0.00250907
0.00248375
0.00253592
0.00253434
0.00251114
0.00251235
0.00153692
0.00153773
0.00253549
0.00253717
0.00256149
0.00255969
0.00256122
0.00256481
0.00259669
0.00251209
0.00252882
0.002549
0.00248108
0.00250585
0.00243176
0.00245635
0.00238291
0.00240723
0.00233449
0.00235871
0.00228648
0.00231045
0.00223869
0.00226256
0.00219111
0.00221488
0.00214372
0.00216739
0.00209651
0.0021201
0.00204947
0.00207297
0.00200258
0.00202601
0.00195583
0.00197919
0.00190923
0.00193252
0.00186274
0.00188598
0.00181636
0.00183954
0.00177008
0.00179321
0.00172388
0.00174697
0.00167776
0.00170081
0.00163155
0.00165463
0.00158502
0.00160836
0.00153774
0.00156142
0.00151215
0.00151376
0.00151287
0.00151144
0.0015116
0.00151197
0.00151155
0.00151381
0.00151278
0.00156259
0.00151535
0.00153892
0.00160967
0.00158622
0.00165615
0.00163296
0.00170229
0.0016792
0.00174851
0.00172539
0.00179481
0.00177165
0.0018412
0.00181799
0.00188769
0.00186443
0.00193429
0.00191098
0.00198102
0.00195764
0.00202788
0.00200443
0.0020749
0.00205137
0.00212208
0.00209847
0.00216943
0.00214573
0.00221698
0.00219318
0.00226474
0.00224084
0.00231272
0.0022887
0.00236094
0.0023368
0.0024094
0.00238514
0.00245818
0.00243375
0.00250758
0.00248276
0.00255795
0.00253267
0.00258516
0.00258332
0.0025364
0.0025375
0.00256051
0.00256227
0.00153839
0.00151468
0.00149
0.00149095
0.00258826
0.00258661
0.00261307
0.0025717
0.00261058
0.00260888
0.00259825
0.00253707
0.0025276
0.00254998
0.00247999
0.00250427
0.00243076
0.00245535
0.00238225
0.00240646
0.00233402
0.00235811
0.00228606
0.00231001
0.0022383
0.00226215
0.00219074
0.0022145
0.00214338
0.00216704
0.0020962
0.00211977
0.00204918
0.00207267
0.00200232
0.00202573
0.00195559
0.00197894
0.001909
0.00193228
0.00186253
0.00188575
0.00181616
0.00183933
0.00176989
0.00179302
0.00172371
0.00174679
0.00167759
0.00170064
0.00163153
0.00165455
0.0015853
0.00160839
0.00156185
0.00148856
0.00148985
0.00148906
0.00148811
0.00148838
0.00148858
0.00148832
0.00148909
0.00156328
0.00151598
0.00153989
0.00160987
0.00158665
0.00165611
0.00163305
0.00170224
0.00167917
0.00174845
0.00172534
0.00179473
0.00177158
0.00184111
0.00181791
0.00188759
0.00186434
0.00193418
0.00191087
0.00198089
0.00195752
0.00202773
0.00200429
0.00207473
0.00205121
0.00212188
0.00209828
0.00216921
0.00214553
0.00221674
0.00219295
0.00226447
0.00224058
0.00231241
0.00228841
0.00236059
0.00233647
0.00240902
0.00238478
0.00245771
0.00243334
0.00250674
0.00248219
0.00255633
0.0025313
0.00260708
0.00258165
0.00263459
0.00263271
0.00256133
0.00256245
0.0014906
0.00149209
0.00258684
0.00260903
0.00261272
0.00258724
0.00261175
0.00262157
0.00264472
0.00263839
0.00263607
0.00266021
0.0026587
0.00256205
0.00257535
0.0026262
0.00260163
0.00252726
0.00255079
0.00247901
0.00250355
0.00243013
0.0024545
0.00238169
0.00240588
0.00233351
0.00235757
0.00228557
0.00230951
0.00223785
0.00226168
0.00219033
0.00221406
0.002143
0.00216664
0.00209584
0.0021194
0.00204885
0.00207233
0.00200201
0.00202541
0.00195531
0.00197864
0.00190874
0.00193201
0.00186228
0.0018855
0.00181594
0.0018391
0.00176968
0.0017928
0.00172351
0.00174659
0.00167741
0.00170045
0.00163138
0.00165439
0.0015853
0.00160837
0.00153873
0.00156209
0.00149121
0.00151522
0.00146606
0.00146713
0.00146644
0.0014654
0.00146563
0.00146526
0.00146523
0.00146545
0.00146534
0.00146638
0.00146582
0.00146834
0.00146723
0.00151674
0.00146945
0.00149314
0.00156367
0.00154037
0.00160999
0.00158686
0.00165606
0.00163302
0.00170218
0.00167911
0.00174837
0.00172526
0.00179464
0.00177149
0.00184099
0.0018178
0.00188745
0.00186421
0.00193402
0.00191072
0.00198071
0.00195735
0.00202754
0.00200411
0.00207451
0.002051
0.00212164
0.00209805
0.00216894
0.00214527
0.00221643
0.00219266
0.00226412
0.00224025
0.00231203
0.00228805
0.00236017
0.00233607
0.00240855
0.00238433
0.0024572
0.00243284
0.00250612
0.00248163
0.00255536
0.00253068
0.00260507
0.00258019
0.00265609
0.00263034
0.00268442
0.00268207
0.00258672
0.00264908
0.0026124
0.00149193
0.00146828
0.00144452
0.00144543
0.00258735
0.00261219
0.00263779
0.00263696
0.00266161
0.00268611
0.00271013
0.00270794
0.00258707
0.00262627
0.00267312
0.00267418
0.00265027
0.00257586
0.00260158
0.0025267
0.00255088
0.00247819
0.00250269
0.00242945
0.00245376
0.00238105
0.00240522
0.00233291
0.00235695
0.00228501
0.00230894
0.00223733
0.00226115
0.00218985
0.00221357
0.00214256
0.00216619
0.00209544
0.00211898
0.00204848
0.00207194
0.00200167
0.00202506
0.00195499
0.00197831
0.00190844
0.0019317
0.00186201
0.00188522
0.00181568
0.00183884
0.00176945
0.00179256
0.0017233
0.00174636
0.00167722
0.00170025
0.0016312
0.0016542
0.00158523
0.00160822
0.00153895
0.00156212
0.00151551
0.00144254
0.00144339
0.00144287
0.00144234
0.00144246
0.00144246
0.00144237
0.00144258
0.00144252
0.00144306
0.00144279
0.00144368
0.00151747
0.00147031
0.00149396
0.00156382
0.0015407
0.00160995
0.00158693
0.00165599
0.00163296
0.00170209
0.00167903
0.00174826
0.00172517
0.00179451
0.00177138
0.00184085
0.00181767
0.00188729
0.00186406
0.00193384
0.00191055
0.0019805
0.00195716
0.0020273
0.00200389
0.00207424
0.00205076
0.00212134
0.00209778
0.00216861
0.00214496
0.00221607
0.00219232
0.00226372
0.00223987
0.00231158
0.00228762
0.00235966
0.00233559
0.00240799
0.0023838
0.00245658
0.00243225
0.00250544
0.00248098
0.00255458
0.00252998
0.00260401
0.00257926
0.00265416
0.00262891
0.00270532
0.00267958
0.00266433
0.00266914
0.00273379
0.00273114
0.00261195
0.00144471
0.00144634
0.00269789
0.00261229
0.00269845
0.00263744
0.00263728
0.00266236
0.00266222
0.002687
0.00271149
0.00273574
0.00275968
0.00275721
0.00261214
0.00267368
0.00272246
0.00272292
0.00269807
0.0026249
0.00264959
0.00257527
0.00260005
0.00252592
0.00255039
0.00247726
0.00250167
0.00242864
0.00245291
0.00238031
0.00240444
0.00233224
0.00235625
0.00228439
0.00230829
0.00223676
0.00226055
0.00218933
0.00221302
0.00214208
0.00216568
0.00209499
0.00211851
0.00204807
0.00207151
0.00200129
0.00202466
0.00195464
0.00197795
0.00190812
0.00193137
0.00186171
0.0018849
0.00181541
0.00183855
0.00176919
0.00179229
0.00172306
0.00174612
0.001677
0.00170002
0.001631
0.00165399
0.00158507
0.00160803
0.00153904
0.00156209
0.00149253
0.00151581
0.00144539
0.00146919
0.0014201
0.00142147
0.00142066
0.00141952
0.00141968
0.00141949
0.00141945
0.00141964
0.00141957
0.00141974
0.0014197
0.00142002
0.00141981
0.00142082
0.00142032
0.00142253
0.00142147
0.001471
0.00142358
0.0014474
0.00151779
0.00149448
0.0015639
0.00154092
0.00160988
0.00158689
0.0016559
0.00163288
0.00170198
0.00167894
0.00174814
0.00172505
0.00179436
0.00177124
0.00184068
0.00181751
0.00188709
0.00186388
0.00193362
0.00191034
0.00198026
0.00195692
0.00202703
0.00200363
0.00207394
0.00205046
0.002121
0.00209745
0.00216823
0.0021446
0.00221565
0.00219192
0.00226325
0.00223942
0.00231106
0.00228713
0.00235909
0.00233505
0.00240735
0.00238319
0.00245586
0.00243157
0.00250463
0.00248021
0.00255369
0.00252913
0.00260302
0.00257832
0.00265267
0.00262781
0.00270285
0.0026776
0.00275397
0.00272843
0.00269006
0.00269631
0.002783
0.00277984
0.00263724
0.00263737
0.00274717
0.0027471
0.00272313
0.002662
0.00266249
0.00144603
0.00142254
0.00139883
0.00139981
0.00268793
0.00268749
0.00271231
0.00273692
0.00276134
0.00278524
0.00277131
0.00277132
0.00279535
0.00280892
0.00280626
0.00279626
0.0026373
0.00272319
0.00274724
0.00267242
0.00269739
0.00262338
0.0026482
0.0025739
0.00259849
0.00252493
0.00254938
0.00247623
0.00250056
0.00242773
0.00245195
0.0023795
0.00240359
0.00233149
0.00235547
0.00228371
0.00230758
0.00223613
0.0022599
0.00218875
0.00221242
0.00214154
0.00216513
0.0020945
0.002118
0.00204761
0.00207104
0.00200087
0.00202422
0.00195425
0.00197755
0.00190776
0.00193099
0.00186138
0.00188456
0.0018151
0.00183823
0.00176891
0.001792
0.0017228
0.00174585
0.00167677
0.00169978
0.00163079
0.00165377
0.00158487
0.00160783
0.001539
0.00156194
0.00149283
0.00151594
0.00146954
0.00139669
0.00139778
0.00139708
0.00139655
0.00139663
0.00139668
0.0013966
0.00139683
0.00139676
0.00139694
0.00139689
0.00139706
0.00139697
0.00139762
0.0013973
0.00139812
0.00147158
0.00142459
0.00144816
0.00151792
0.00149476
0.00156385
0.0015409
0.00160979
0.00158682
0.0016558
0.00163279
0.00170186
0.00167882
0.00174799
0.00172492
0.00179419
0.00177108
0.00184048
0.00181733
0.00188687
0.00186367
0.00193336
0.0019101
0.00197997
0.00195665
0.00202671
0.00200333
0.00207359
0.00205013
0.00212061
0.00209708
0.0021678
0.00214419
0.00221517
0.00219147
0.00226272
0.00223892
0.00231047
0.00228657
0.00235843
0.00233443
0.00240662
0.0023825
0.00245505
0.00243081
0.00250373
0.00247936
0.00255267
0.00252817
0.00260188
0.00257724
0.00265134
0.00262658
0.00270107
0.00267617
0.00275109
0.00272607
0.00280263
0.00277631
0.00277182
0.00283196
0.00283513
0.00285794
0.00285484
0.0028281
0.002715
0.00272452
0.00266245
0.00266259
0.00139889
0.00140065
0.0027492
0.00268722
0.0026878
0.0027136
0.00271287
0.00273777
0.00276246
0.00278684
0.00281085
0.00281964
0.00281841
0.00284273
0.00285056
0.00287693
0.00288138
0.0028442
0.00282087
0.00279742
0.00286024
0.00288366
0.00266256
0.00277057
0.00279402
0.00272103
0.0027454
0.00267087
0.00269601
0.0026216
0.00264621
0.00257254
0.00259705
0.00252372
0.0025481
0.00247513
0.0024994
0.00242675
0.00245091
0.0023786
0.00240265
0.00233068
0.00235462
0.00228297
0.0023068
0.00223545
0.00225919
0.00218812
0.00221176
0.00214096
0.00216452
0.00209397
0.00211745
0.00204712
0.00207053
0.00200041
0.00202375
0.00195383
0.00197711
0.00190738
0.00193059
0.00186103
0.00188419
0.00181477
0.00183789
0.00176861
0.00179168
0.00172253
0.00174556
0.00167652
0.00169952
0.00163057
0.00165353
0.00158467
0.00160761
0.00153882
0.00156174
0.00149289
0.0015159
0.00144663
0.00146979
0.00139967
0.0014232
0.00137444
0.00137595
0.00137513
0.0013737
0.00137386
0.00137371
0.00137365
0.00137388
0.0013738
0.00137401
0.00137395
0.00137413
0.00137408
0.00137423
0.00137418
0.00137452
0.00137438
0.00137533
0.00137483
0.00137677
0.00137599
0.00142509
0.0013777
0.00140156
0.00147188
0.0014486
0.00151789
0.00149494
0.00156377
0.00154083
0.0016097
0.00158673
0.00165568
0.00163268
0.00170171
0.00167869
0.00174782
0.00172476
0.001794
0.0017709
0.00184026
0.00181712
0.00188662
0.00186343
0.00193308
0.00190983
0.00197965
0.00195635
0.00202636
0.00200299
0.00207319
0.00204976
0.00212018
0.00209667
0.00216732
0.00214373
0.00221464
0.00219096
0.00226213
0.00223836
0.00230982
0.00228595
0.00235771
0.00233374
0.00240582
0.00238174
0.00245416
0.00242996
0.00250273
0.00247841
0.00255154
0.00252711
0.00260061
0.00257605
0.00264992
0.00262524
0.00269946
0.00267467
0.00274916
0.00272429
0.00279917
0.00277418
0.00282398
0.00273897
0.00275016
0.00290717
0.00290272
0.00268772
0.00268795
0.00277388
0.00271257
0.00271322
0.00140018
0.00137666
0.001353
0.00135375
0.0027392
0.00273836
0.00276333
0.00278807
0.00281255
0.00283669
0.00286693
0.00286552
0.00289028
0.00289153
0.00286968
0.00284559
0.00282261
0.002886
0.00290878
0.00292844
0.00293243
0.00268794
0.00281758
0.00284061
0.00276834
0.00279311
0.00271834
0.00274335
0.00266907
0.00269371
0.00261999
0.00264449
0.00257111
0.00259553
0.00252242
0.00254674
0.00247395
0.00249816
0.00242569
0.0024498
0.00237764
0.00240164
0.0023298
0.0023537
0.00228216
0.00230596
0.00223471
0.00225841
0.00218744
0.00221106
0.00214034
0.00216387
0.00209339
0.00211684
0.00204659
0.00206997
0.00199992
0.00202324
0.00195338
0.00197664
0.00190696
0.00193016
0.00186064
0.00188379
0.00181442
0.00183752
0.00176829
0.00179135
0.00172223
0.00174525
0.00167625
0.00169923
0.00163032
0.00165328
0.00158445
0.00160738
0.00153863
0.00156153
0.00149283
0.00151573
0.00144685
0.00146982
0.00142364
0.00135109
0.00135222
0.00135161
0.00135077
0.0013509
0.00135092
0.00135083
0.00135107
0.001351
0.00135121
0.00135114
0.00135133
0.00135127
0.00135142
0.00135138
0.00135154
0.00135147
0.00135196
0.00135173
0.00135235
0.00142555
0.00137851
0.00140222
0.00147199
0.0014488
0.00151783
0.00149492
0.00156369
0.00154075
0.00160959
0.00158663
0.00165554
0.00163256
0.00170155
0.00167854
0.00174763
0.00172458
0.00179378
0.00177069
0.00184001
0.00181688
0.00188633
0.00186316
0.00193276
0.00190953
0.0019793
0.00195602
0.00202596
0.00200262
0.00207276
0.00204934
0.0021197
0.00209621
0.00216679
0.00214323
0.00221405
0.0021904
0.00226148
0.00223775
0.0023091
0.00228527
0.00235692
0.00233299
0.00240494
0.00238091
0.00245318
0.00242904
0.00250164
0.00247738
0.00255032
0.00252596
0.00259924
0.00257475
0.00264837
0.00262378
0.00269772
0.00267302
0.00274723
0.00272246
0.00279683
0.00277206
0.00284655
0.00282166
0.00289782
0.00287219
0.00295372
0.00294904
0.00292274
0.00276377
0.00277567
0.0027131
0.00271339
0.0013529
0.00135458
0.0027997
0.00273811
0.00273875
0.00276485
0.00276397
0.002789
0.00281379
0.00283826
0.00286233
0.00291415
0.00291233
0.00293567
0.00294329
0.00296819
0.00297479
0.00293823
0.00291714
0.00289401
0.0028715
0.0028478
0.00291159
0.0029345
0.00295733
0.00297865
0.00271339
0.00286495
0.00288903
0.00281523
0.002839
0.00276541
0.00279069
0.0027162
0.00274078
0.00266718
0.00269168
0.0026183
0.00264272
0.00256958
0.00259392
0.00252104
0.00254529
0.0024727
0.00249685
0.00242456
0.00244861
0.00237661
0.00240056
0.00232886
0.00235271
0.0022813
0.00230506
0.00223392
0.00225759
0.00218671
0.0022103
0.00213966
0.00216317
0.00209277
0.0021162
0.00204602
0.00206938
0.0019994
0.00202269
0.0019529
0.00197613
0.00190651
0.00192969
0.00186023
0.00188336
0.00181405
0.00183713
0.00176794
0.00179099
0.00172192
0.00174492
0.00167596
0.00169893
0.00163007
0.00165301
0.00158422
0.00160714
0.00153842
0.00156132
0.00149266
0.00151554
0.00144691
0.00146978
0.00140054
0.00142375
0.00135337
0.0013772
0.00132863
0.00132958
0.00132895
0.00132804
0.00132825
0.00132794
0.00132789
0.00132812
0.00132804
0.00132827
0.0013282
0.0013284
0.00132834
0.00132852
0.00132847
0.00132863
0.00132858
0.00132873
0.00132868
0.00132889
0.00132878
0.00132966
0.0013292
0.00133121
0.00133033
0.00137926
0.0013323
0.00135609
0.00142587
0.00140268
0.00147196
0.00144894
0.00151775
0.00149485
0.00156359
0.00154067
0.00160946
0.00158652
0.00165539
0.00163242
0.00170137
0.00167837
0.00174741
0.00172438
0.00179353
0.00177046
0.00183973
0.00181662
0.00188602
0.00186286
0.00193241
0.0019092
0.00197891
0.00195565
0.00202553
0.00200221
0.00207228
0.00204889
0.00211917
0.00209571
0.00216621
0.00214267
0.00221341
0.00218979
0.00226078
0.00223708
0.00230833
0.00228453
0.00235606
0.00233217
0.002404
0.00238001
0.00245213
0.00242804
0.00250047
0.00247627
0.00254901
0.00252472
0.00259777
0.00257337
0.00264671
0.00262222
0.00269584
0.00267126
0.00274511
0.00272046
0.00279446
0.00276979
0.00284378
0.00281915
0.00289304
0.00286848
0.00291733
0.00278882
0.0028015
0.0029997
0.00299484
0.0027386
0.00273894
0.00282525
0.00276374
0.00276439
0.00135409
0.00133065
0.00130763
0.00130841
0.0027906
0.00278969
0.00281478
0.0028396
0.00286408
0.00288813
0.00295887
0.00295539
0.00297796
0.00298277
0.00296278
0.00294167
0.00291992
0.00289667
0.00287365
0.00293731
0.00295998
0.00298207
0.00300358
0.00301855
0.00302279
0.00273893
0.00290979
0.00293253
0.0028612
0.00288598
0.00281175
0.00283657
0.00276284
0.00278733
0.002714
0.00273842
0.00266519
0.00268959
0.00261651
0.00264083
0.00256797
0.00259222
0.00251959
0.00254376
0.00247138
0.00249546
0.00242336
0.00244735
0.00237552
0.00239942
0.00232786
0.00235167
0.00228038
0.0023041
0.00223308
0.00225671
0.00218594
0.00220949
0.00213895
0.00216242
0.00209211
0.00211551
0.00204541
0.00206874
0.00199884
0.00202211
0.00195238
0.0019756
0.00190604
0.0019292
0.0018598
0.00188291
0.00181365
0.00183671
0.00176758
0.0017906
0.00172159
0.00174457
0.00167566
0.00169862
0.00162979
0.00165272
0.00158398
0.00160688
0.00153821
0.00156109
0.00149247
0.00151534
0.00144678
0.00146962
0.00140076
0.00142379
0.00137747
0.00130523
0.00130588
0.0013055
0.00130505
0.00130516
0.00130517
0.00130508
0.00130533
0.00130526
0.00130547
0.0013054
0.0013056
0.00130554
0.00130573
0.00130566
0.00130584
0.00130578
0.00130595
0.0013059
0.00130607
0.001306
0.00130645
0.00130624
0.00130687
0.00137978
0.00133302
0.00135665
0.00142602
0.00140298
0.0014719
0.001449
0.00151767
0.00149478
0.00156348
0.00154057
0.00160932
0.0015864
0.00165522
0.00163227
0.00170117
0.00167819
0.00174718
0.00172417
0.00179326
0.00177021
0.00183943
0.00181634
0.00188568
0.00186254
0.00193203
0.00190884
0.00197849
0.00195525
0.00202506
0.00200176
0.00207177
0.0020484
0.0021186
0.00209517
0.00216559
0.00214208
0.00221272
0.00218914
0.00226002
0.00223635
0.00230749
0.00228374
0.00235514
0.0023313
0.00240298
0.00237904
0.002451
0.00242697
0.00249922
0.00247509
0.00254762
0.0025234
0.0025962
0.00257189
0.00264496
0.00262056
0.00269385
0.00266939
0.00274285
0.00271835
0.00279191
0.00276738
0.00284093
0.00281643
0.0028897
0.00286537
0.00293815
0.00291402
0.002988
0.00296242
0.00304304
0.00303614
0.00301141
0.00281402
0.00282727
0.00276422
0.0027646
0.00130722
0.00130939
0.00285105
0.00278949
0.00279015
0.00281647
0.00281554
0.00284069
0.00286553
0.00288999
0.00291397
0.00300141
0.00299823
0.00301993
0.0030298
0.00305278
0.00305968
0.00302499
0.00300696
0.00298706
0.00296682
0.00294509
0.00292272
0.0028994
0.00296305
0.00298545
0.00300698
0.00302797
0.00304697
0.00306591
0.00276459
0.00295457
0.00297707
0.00290632
0.00292877
0.00285718
0.00288239
0.00280876
0.00283298
0.00276026
0.00278452
0.00271168
0.00273597
0.00266311
0.00268739
0.00261464
0.00263886
0.00256628
0.00259044
0.00251806
0.00254215
0.00246999
0.00249401
0.00242209
0.00244602
0.00237436
0.00239821
0.0023268
0.00235056
0.00227941
0.00230309
0.00223218
0.00225578
0.00218511
0.00220863
0.00213819
0.00216164
0.00209141
0.00211479
0.00204476
0.00206807
0.00199824
0.00202149
0.00195184
0.00197503
0.00190554
0.00192867
0.00185933
0.00188242
0.00181322
0.00183627
0.00176719
0.0017902
0.00172123
0.00174421
0.00167534
0.00169828
0.00162951
0.00165242
0.00158372
0.00160661
0.00153798
0.00156085
0.00149227
0.00151512
0.0014466
0.00146943
0.00140082
0.00142375
0.00135462
0.00137772
0.00130772
0.00133136
0.00128279
0.00128375
0.00128324
0.00128228
0.00128243
0.00128225
0.00128221
0.0012824
0.00128232
0.00128254
0.00128247
0.00128267
0.00128261
0.0012828
0.00128274
0.00128293
0.00128287
0.00128305
0.00128299
0.00128317
0.00128311
0.00128328
0.00128323
0.00128344
0.00128333
0.00128423
0.00128375
0.00128596
0.00128497
0.00133372
0.00128695
0.00131039
0.00138016
0.0013571
0.0014261
0.00140312
0.00147183
0.00144897
0.00151758
0.0014947
0.00156336
0.00154046
0.00160917
0.00158626
0.00165503
0.0016321
0.00170095
0.00167799
0.00174693
0.00172393
0.00179297
0.00176994
0.0018391
0.00181603
0.00188531
0.0018622
0.00193162
0.00190846
0.00197803
0.00195482
0.00202456
0.00200129
0.00207121
0.00204787
0.00211799
0.00209459
0.00216491
0.00214144
0.00221199
0.00218843
0.00225921
0.00223558
0.0023066
0.00228289
0.00235416
0.00233036
0.0024019
0.00237801
0.00244981
0.00242583
0.00249789
0.00247383
0.00254615
0.002522
0.00259456
0.00257034
0.00264311
0.00261882
0.00269178
0.00266744
0.00274051
0.00271614
0.00278925
0.00276489
0.00283791
0.00281359
0.00288634
0.00286217
0.00293427
0.00291042
0.00298159
0.0029581
0.00300493
0.00283933
0.00285309
0.00308359
0.00307739
0.00278997
0.00279038
0.00287683
0.00281536
0.00281604
0.00130832
0.00128504
0.00126244
0.00126341
0.00284249
0.00284151
0.00286672
0.00289157
0.00291599
0.00293987
0.00304219
0.00303771
0.00305799
0.00306277
0.0030491
0.00303055
0.00301208
0.00299081
0.00297021
0.00294792
0.00292504
0.0029888
0.0030109
0.00303209
0.00305176
0.00307109
0.0030886
0.00309881
0.00310494
0.00279036
0.00299533
0.00301443
0.00295039
0.00297401
0.002902
0.00292509
0.00285373
0.00287822
0.00280577
0.00282975
0.00275757
0.0027817
0.00270927
0.00273343
0.00266095
0.00268511
0.00261269
0.00263681
0.00256452
0.00258859
0.00251646
0.00254048
0.00246854
0.00249249
0.00242077
0.00244464
0.00237315
0.00239694
0.00232569
0.0023494
0.00227839
0.00230202
0.00223125
0.0022548
0.00218425
0.00220773
0.00213739
0.0021608
0.00209068
0.00211402
0.00204409
0.00206737
0.00199762
0.00202084
0.00195126
0.00197442
0.00190501
0.00192812
0.00185885
0.00188192
0.00181278
0.0018358
0.00176679
0.00178977
0.00172086
0.00174382
0.00167501
0.00169793
0.00162921
0.0016521
0.00158345
0.00160633
0.00153774
0.0015606
0.00149207
0.0015149
0.00144642
0.00146924
0.00140079
0.00142361
0.00135486
0.00137779
0.00133168
0.00125955
0.00126029
0.00125986
0.0012594
0.00125948
0.00125949
0.00125943
0.00125962
0.00125956
0.00125975
0.00125969
0.00125988
0.00125981
0.00126
0.00125994
0.00126013
0.00126007
0.00126026
0.00126019
0.00126039
0.00126032
0.00126051
0.00126045
0.00126065
0.00126057
0.00126108
0.00126084
0.00126163
0.00133435
0.00128786
0.00131114
0.00138036
0.00135735
0.00142607
0.00140322
0.00147176
0.00144891
0.00151748
0.00149462
0.00156322
0.00154035
0.001609
0.00158611
0.00165483
0.00163191
0.00170071
0.00167777
0.00174665
0.00172368
0.00179266
0.00176965
0.00183875
0.0018157
0.00188492
0.00186182
0.00193118
0.00190804
0.00197755
0.00195435
0.00202402
0.00200077
0.00207062
0.00204731
0.00211734
0.00209397
0.0021642
0.00214075
0.0022112
0.00218768
0.00225835
0.00223476
0.00230566
0.00228199
0.00235312
0.00232937
0.00240075
0.00237692
0.00244855
0.00242463
0.0024965
0.0024725
0.0025446
0.00252053
0.00259284
0.00256871
0.00264119
0.00261701
0.00268963
0.00266541
0.00273809
0.00271386
0.00278651
0.00276231
0.00283479
0.00281068
0.00288279
0.00285884
0.00293033
0.00290664
0.00297704
0.00295385
0.00302269
0.00300008
0.00306949
0.00304512
0.00311962
0.00311249
0.00309124
0.00286474
0.00287902
0.00281585
0.00281629
0.00126147
0.00126413
0.0029027
0.00284137
0.00284206
0.00286864
0.00286761
0.00289286
0.00291771
0.00294207
0.00296581
0.00307735
0.00307413
0.00309321
0.00310251
0.00308692
0.00307138
0.00305528
0.0030356
0.00301608
0.00299499
0.00297321
0.00295061
0.00301454
0.00303628
0.00305693
0.00307635
0.00309426
0.00311042
0.00312516
0.00310345
0.00313434
0.0031245
0.00281627
0.00303533
0.00305233
0.00299028
0.00301194
0.00294498
0.00296813
0.0028974
0.0029213
0.00285028
0.00287392
0.00280269
0.00282653
0.00275481
0.00277878
0.00270679
0.00273081
0.00265873
0.00268276
0.00261068
0.0026347
0.0025627
0.00258668
0.0025148
0.00253874
0.00246703
0.0024909
0.00241939
0.00244319
0.00237189
0.00239562
0.00232453
0.00234819
0.00227732
0.00230091
0.00223026
0.00225377
0.00218334
0.00220678
0.00213656
0.00215993
0.0020899
0.00211321
0.00204337
0.00206662
0.00199696
0.00202015
0.00195065
0.00197379
0.00190445
0.00192754
0.00185834
0.00188138
0.00181231
0.00183531
0.00176636
0.00178933
0.00172048
0.00174341
0.00167466
0.00169756
0.00162889
0.00165177
0.00158317
0.00160603
0.0015375
0.00156033
0.00149185
0.00151467
0.00144623
0.00146904
0.00140064
0.00142344
0.00135491
0.00137776
0.00130887
0.00133197
0.00126193
0.00128556
0.00123719
0.00123821
0.00123763
0.00123665
0.00123683
0.00123661
0.00123658
0.00123673
0.00123667
0.00123684
0.00123678
0.00123696
0.0012369
0.00123708
0.00123702
0.00123721
0.00123714
0.00123733
0.00123727
0.00123747
0.0012374
0.0012376
0.00123753
0.00123774
0.00123767
0.00123787
0.00123781
0.00123817
0.00123796
0.001239
0.00123847
0.00124062
0.00123966
0.00128833
0.0012415
0.00126496
0.00133463
0.00131156
0.00138039
0.00135755
0.00142602