/*--------------------------------*- C++ -*----------------------------------*\
  =========                 |
  \\      /  F ield         | OpenFOAM: The Open Source CFD Toolbox
   \\    /   O peration     | Website:  https://openfoam.org
    \\  /    A nd           | Version:  10
     \\/     M anipulation  |
\*---------------------------------------------------------------------------*/
FoamFile
{
    format      ascii;
    class       volVectorField;
    location    "18";
    object      U;
}
// * * * * * * * * * * * * * * * * * * * * * * * * * * * * * * * * * * * * * //

dimensions      [0 1 -1 0 0 0 0];

internalField   nonuniform List<vector> 
28942
(
(0.0049365 -0.00255122 -2.89256e-22)
(0.00667593 -0.0027512 -5.06015e-23)
(0.0183231 -0.0126353 -9.91982e-22)
(0.103305 0.018238 -5.78788e-21)
(0.102342 0.0222796 1.89021e-21)
(0.0248857 0.000945186 0)
(0.0296574 0.000601278 2.24249e-23)
(0.0340173 0.00120962 -1.99131e-23)
(0.134608 -0.0155057 -3.431e-22)
(0.133103 -0.0139711 9.69572e-22)
(0.0117395 0.00571352 -4.89639e-22)
(0.0185529 0.00754144 1.64252e-22)
(0.00841837 0.00419381 0)
(0.00578579 0.00297239 0)
(0.0706659 0.00251789 -2.83736e-23)
(0.0684545 0.00354006 -9.34771e-24)
(0.0894955 0.0158329 7.24141e-22)
(0.0871785 0.0138404 1.16259e-21)
(0.0122663 -0.0152209 3.31561e-21)
(0.0295931 -0.0306791 -8.74244e-22)
(0.0986304 0.0370513 1.04664e-21)
(0.0977417 0.0341079 0)
(0.0202834 0.00550075 1.05654e-21)
(0.00861492 0.00275727 4.79749e-22)
(0.0398131 0.00818989 8.25618e-22)
(0.0600408 0.0037704 -7.52659e-22)
(0.00769522 -0.0184995 9.05461e-21)
(0.00673312 -0.0165583 -3.32328e-21)
(0.0360217 -0.0256028 6.89046e-22)
(0.0195655 -0.0138419 2.40542e-22)
(0.025455 -0.00246189 0)
(0.0318147 -0.00239318 -2.33959e-23)
(0.0396759 0.00627012 5.09902e-22)
(0.0552399 0.0022778 -9.52774e-23)
(0.0190496 0.0181983 1.44934e-21)
(0.0158961 0.0193153 -1.48841e-21)
(0.0325175 0.0379787 -3.2919e-21)
(0.018856 0.0308448 -1.13048e-21)
(0.0140029 0.000290015 -1.83367e-23)
(0.00874117 0.0163648 -2.7911e-21)
(0.0306477 -0.00620315 0)
(0.0513409 -0.0109695 0)
(0.106509 -0.0115105 -5.014e-23)
(0.106397 -0.0108448 1.47805e-22)
(0.10739 -0.0114734 1.28598e-22)
(0.047004 0.000684402 2.19534e-23)
(0.0438899 -0.000376693 -3.65974e-23)
(0.060679 -0.000430342 -1.50775e-22)
(0.0584118 -0.000481408 4.22699e-23)
(0.0484638 -0.00373298 -3.73434e-22)
(0.0371495 -0.00483384 2.37653e-22)
(0.125084 0.00265408 -5.70676e-22)
(0.124797 0.00215163 -5.19075e-22)
(0.134215 -0.0184797 -4.05002e-24)
(0.13251 -0.0168548 1.8148e-22)
(0.0874943 0.00957687 6.05853e-22)
(0.10687 0.00256821 1.75523e-22)
(0.00365047 0.00206728 -4.68341e-22)
(0.0102423 0.00461616 0)
(0.00929161 0.00396573 2.06936e-22)
(0.0033756 0.00183445 4.02231e-22)
(0.000499134 0.000328414 -3.36999e-22)
(0.00031557 0.000217383 -3.11597e-22)
(0.112156 -0.0424288 0)
(0.10789 -0.0250496 8.39343e-23)
(0.124558 -0.0319548 -1.90846e-23)
(0.125611 -0.0429116 0)
(0.090433 -0.0324547 -6.94193e-22)
(0.093964 -0.0348685 -4.58094e-22)
(0.00211773 -0.00125685 9.51539e-22)
(0.00279783 -0.00222736 -3.02035e-22)
(0.00541143 -0.00349712 7.51674e-22)
(0.0853614 -0.0454878 0)
(0.0916325 -0.0392589 2.36609e-21)
(0.0811057 -0.0528566 6.42062e-22)
(0.118259 0.0101971 1.42073e-22)
(0.117388 0.00392746 -1.62114e-22)
(0.129119 0.00748802 -1.28233e-23)
(0.00478368 -0.00292131 -6.36674e-23)
(0.00647538 -0.0045168 5.78143e-22)
(0.0520672 -0.0315751 1.73231e-22)
(0.0339302 -0.0209371 -2.88447e-22)
(0.00230897 -0.000709134 3.04348e-21)
(0.00554351 -0.0022949 -1.18894e-21)
(0.103052 0.0483829 4.21208e-23)
(0.0987109 0.055448 -8.85942e-22)
(0.0820228 0.0544362 8.17953e-22)
(0.0479834 0.0349367 -3.06673e-21)
(0.045206 0.0320381 2.17336e-21)
(0.0299826 0.0208908 -1.34515e-22)
(0.0332327 0.0235648 -7.20618e-22)
(0.0385387 0.0287136 9.81896e-22)
(0.0062795 0.00447683 -2.58885e-23)
(0.0102313 0.00630543 -9.27028e-24)
(0.00436254 0.0031804 1.85765e-23)
(0.00288765 0.00266159 -2.2814e-22)
(0.00240107 0.00257577 2.66419e-22)
(0.0159749 0.0116989 -3.67826e-21)
(0.0177404 0.0138046 8.49903e-22)
(0.00935196 -0.00414887 0)
(0.101389 0.00516012 0)
(0.0984 0.0156844 -4.27136e-21)
(0.06044 0.0104756 2.20066e-21)
(0.0886799 0.0178811 0)
(0.134511 -0.0105382 0)
(0.133763 -0.0116187 0)
(0.132996 -0.0121713 -6.5198e-22)
(0.115242 0.0255051 -2.45493e-22)
(0.114382 0.026978 2.41008e-21)
(0.113514 0.0244508 1.29337e-21)
(0.00286344 0.001767 8.45971e-22)
(0.00200917 0.00118181 -9.4952e-22)
(0.0209464 -0.00656741 -4.5504e-22)
(0.0225938 -0.00656536 3.67601e-22)
(0.0103842 -0.00371274 6.98507e-22)
(0.00652562 0.0112981 1.56111e-21)
(0.0190994 0.0183845 3.66343e-21)
(0.0135813 0.0230523 2.7485e-22)
(0.00496337 0.0144681 -9.12472e-21)
(0.119192 0.0473768 7.00368e-23)
(0.109367 0.0580778 1.26362e-21)
(0.120025 0.0544252 -2.18135e-21)
(0.0395741 -0.0296929 8.25536e-22)
(0.0242993 -0.0174439 -5.46912e-22)
(0.00534158 -0.000664313 -4.33607e-21)
(0.00455523 -0.00353296 0)
(0.0125555 -0.00156341 2.12856e-21)
(0.0222053 -0.0162846 8.64287e-22)
(0.0346278 -0.0280183 -2.20183e-21)
(0.0578141 0.000182888 1.10115e-22)
(0.0610217 0.000339989 -7.34727e-23)
(0.0546422 0.000413164 -3.36493e-24)
(0.0282967 -0.0421686 0)
(0.0298427 -0.0429887 0)
(0.0896225 -0.0186521 -5.27523e-22)
(0.0995904 -0.0220891 3.55022e-21)
(0.087033 -0.0252788 0)
(0.0476199 -0.0404561 0)
(0.0587628 -0.051603 -8.75724e-22)
(0.0418007 0.0397138 2.25174e-21)
(0.000258035 0.000485583 3.25292e-22)
(-1.18486e-06 0.000340706 -1.95349e-22)
(0.0225417 -0.0193997 -8.82884e-22)
(0.108513 -0.011851 7.44438e-22)
(0.108248 -0.0113178 -1.38707e-22)
(0.120109 -0.00175311 -3.36348e-23)
(0.113604 0.00587482 4.48239e-23)
(0.122349 0.00501505 -4.01652e-25)
(0.000279232 0.000443156 1.3852e-22)
(0.0443864 0.0348054 3.55194e-21)
(0.0628234 0.046756 -8.79962e-22)
(0.0603962 0.0398539 -3.5953e-24)
(0.0390501 -0.00140952 9.21841e-24)
(0.038527 -0.00154105 5.12087e-23)
(0.0415893 -0.00162124 2.89783e-24)
(0.0461224 -0.0012541 -2.56063e-23)
(0.0460261 0.0384742 1.37017e-22)
(0.0192069 0.0162391 0)
(0.000363295 -0.000178787 2.11983e-22)
(0.000699488 -0.000549218 -2.35566e-22)
(0.00267399 -0.00167845 1.43248e-22)
(0.0386223 -0.00865236 -1.7091e-21)
(0.0678821 -0.00311275 -6.75861e-22)
(0.0527667 -0.000888025 -1.89187e-24)
(0.0768974 -0.00724062 2.53594e-22)
(0.0727526 -0.0157321 -3.63344e-23)
(0.0948451 0.039671 2.348e-21)
(0.0920312 0.0452798 9.87056e-23)
(0.0890842 0.0289624 1.32257e-21)
(0.0918296 0.0306357 -9.58454e-22)
(0.0992813 0.0407413 0)
(0.123619 -0.00140902 2.00107e-22)
(0.124057 -0.00186033 3.86758e-22)
(0.127076 -0.0101618 -3.85749e-22)
(0.128406 -0.00978232 6.64583e-22)
(0.117216 0.022879 3.05702e-22)
(0.119294 0.0236699 -8.68017e-22)
(0.11734 0.0249247 0)
(0.115343 0.0237574 1.77471e-22)
(0.116988 0.0269063 0)
(0.11777 0.0350271 -6.37568e-22)
(0.116365 0.0371822 -3.44152e-22)
(0.112062 0.0412257 -6.12881e-22)
(0.114426 0.0392419 0)
(0.117263 0.0421686 2.05697e-21)
(0.114563 0.0442223 4.73196e-23)
(0.109091 0.0435629 -3.40364e-22)
(0.100444 0.0499755 -1.43609e-21)
(0.0990954 0.0451754 -2.52145e-22)
(0.0324281 -0.0143038 -5.37703e-23)
(0.0411702 -0.0162144 1.99805e-23)
(0.00742108 -0.00335936 -5.27333e-22)
(0.0520819 0.000143519 -7.47752e-23)
(0.0646845 -0.000215509 0)
(7.76143e-05 -0.000113664 2.68809e-22)
(8.23249e-05 -0.00011117 1.37223e-22)
(0.0591805 -0.0023872 3.27624e-23)
(0.0682601 -0.0022823 1.17299e-23)
(0.0676355 -0.00145125 0)
(0.0574812 -0.000864474 1.40271e-23)
(0.107874 0.000648729 -1.62504e-22)
(0.107847 0.000573446 7.78998e-22)
(0.10795 0.000587308 3.79041e-22)
(0.00101938 0.000567783 2.96062e-22)
(-9.94161e-05 -7.1836e-05 -4.54787e-22)
(-0.000160313 -0.000136282 3.61377e-22)
(0.00176598 0.000790919 0)
(0.000134293 0.00013405 1.02772e-21)
(0.000242414 -2.07129e-06 -7.05256e-22)
(0.00808211 0.00401381 -8.95346e-22)
(0.00163948 0.000885463 -1.10842e-21)
(0.00190634 0.000958085 0)
(0.00158521 0.00763354 0)
(0.000582314 0.00331961 0)
(0.000316028 0.00200095 0)
(0.134638 -0.0106262 1.25727e-22)
(0.134777 -0.0104014 0)
(0.133855 -0.0117852 -1.4432e-22)
(0.0882508 -0.0146641 4.78875e-21)
(0.0902503 -0.0150624 -1.73898e-21)
(0.0891592 -0.0127039 0)
(0.109546 1.1177e-05 -9.44935e-24)
(0.109587 1.00103e-05 1.89134e-23)
(0.109503 1.30528e-05 -6.39099e-24)
(0.109627 9.09225e-06 0)
(0.109664 8.76441e-06 -1.20675e-23)
(0.109699 7.9115e-06 0)
(0.109698 -2.9331e-05 0)
(0.109732 6.23883e-06 4.47861e-23)
(0.10973 -2.99477e-05 0)
(0.109663 -2.99113e-05 -1.21453e-23)
(0.109627 -3.07631e-05 0)
(0.109588 -3.17083e-05 6.32692e-24)
(0.109546 -3.28481e-05 -9.44756e-24)
(0.109503 -3.39598e-05 6.383e-24)
(0.109763 4.86972e-06 -4.28566e-23)
(0.109762 -2.99435e-05 -1.50037e-24)
(0.109458 1.48901e-05 8.37251e-28)
(0.109458 -3.46066e-05 -9.76101e-24)
(0.109409 1.68159e-05 5.19169e-23)
(0.109792 4.22747e-06 4.00806e-26)
(0.109792 -2.90486e-05 -1.50197e-24)
(0.109409 -3.5516e-05 1.92383e-23)
(0.10982 3.4496e-06 4.03744e-23)
(0.109847 2.79738e-06 -4.03412e-23)
(0.10982 -2.81981e-05 3.02398e-24)
(0.109847 -2.728e-05 5.97944e-24)
(0.109358 2.04842e-05 -5.05127e-23)
(0.109358 -3.70284e-05 -1.26627e-23)
(0.109873 2.09357e-06 0)
(0.109873 -2.64591e-05 -5.89775e-24)
(0.109305 2.29222e-05 6.24736e-27)
(0.109305 -3.79998e-05 -6.26303e-27)
(0.109897 1.58623e-06 0)
(0.109897 -2.55145e-05 0)
(0.109248 2.51921e-05 0)
(0.109248 -3.92994e-05 0)
(0.10992 1.13129e-06 0)
(0.10992 -2.45725e-05 2.83599e-24)
(0.109188 2.76634e-05 -2.62239e-23)
(0.109188 -4.0489e-05 -6.39911e-27)
(0.109942 7.29005e-07 1.48693e-25)
(0.109942 -2.35881e-05 -3.02888e-24)
(0.109125 3.01785e-05 2.63492e-23)
(0.109125 -4.18565e-05 0)
(0.109963 2.48832e-07 0)
(0.109963 -2.26937e-05 0)
(0.109058 3.30803e-05 -1.66806e-24)
(0.109058 -4.30371e-05 2.86306e-23)
(0.109982 -2.63069e-07 1.84057e-23)
(0.109982 -2.17175e-05 0)
(0.108988 3.58155e-05 -1.45683e-25)
(0.108987 -4.46489e-05 -2.70984e-23)
(0.110001 -9.02514e-07 -2.75348e-23)
(0.110001 -2.09275e-05 -7.99353e-24)
(0.108912 3.74419e-05 2.76434e-23)
(0.108912 -4.62784e-05 0)
(0.110019 -1.611e-06 9.07223e-24)
(0.110019 -2.00822e-05 5.33143e-24)
(0.108832 4.00594e-05 -1.39983e-23)
(0.108832 -4.86724e-05 2.83907e-23)
(0.110036 -2.31719e-06 -3.62723e-23)
(0.110037 -1.8709e-05 4.08822e-23)
(0.108745 4.0392e-05 1.4448e-23)
(0.108746 -5.12393e-05 4.57402e-25)
(0.110053 -3.04439e-06 0)
(0.110053 -1.78137e-05 1.95012e-23)
(0.108652 4.14071e-05 -2.90821e-23)
(0.108654 -5.50169e-05 5.81864e-23)
(0.110069 -3.24003e-06 0)
(0.110069 -1.77149e-05 0)
(0.108749 0.000130696 -1.42962e-23)
(0.108656 0.000137418 -5.79237e-23)
(0.108553 4.17539e-05 0)
(0.108556 -6.04755e-05 -2.9673e-23)
(0.108916 0.000117081 -8.97601e-24)
(0.108835 0.000124066 1.76211e-24)
(0.109062 0.000103381 0)
(0.108991 0.000110332 -2.89472e-23)
(0.109192 9.08518e-05 -5.58244e-26)
(0.109129 9.697e-05 0)
(0.109309 7.93191e-05 0)
(0.109252 8.49867e-05 0)
(0.109414 6.81159e-05 0)
(0.109363 7.37092e-05 0)
(0.109506 5.93205e-05 1.26252e-23)
(0.10946 6.37313e-05 3.18205e-24)
(0.10959 5.17686e-05 -1.21735e-23)
(0.109549 5.54257e-05 -1.26117e-23)
(0.109665 4.51969e-05 2.16184e-23)
(0.109628 4.79287e-05 2.7649e-23)
(0.109734 3.9597e-05 0)
(0.1097 4.24921e-05 0)
(0.109794 3.42911e-05 -9.50976e-26)
(0.109765 3.68751e-05 0)
(0.109849 2.98477e-05 0)
(0.109823 3.19749e-05 0)
(0.109899 2.60199e-05 0)
(0.109875 2.7895e-05 0)
(0.109944 2.24997e-05 0)
(0.109922 2.42088e-05 0)
(0.109984 1.93663e-05 0)
(0.109964 2.09038e-05 0)
(0.11002 1.65271e-05 0)
(0.110003 1.79272e-05 0)
(0.110054 1.30427e-05 -1.48403e-23)
(0.110038 1.51532e-05 0)
(0.11007 1.13574e-05 -4.80064e-24)
(0.110085 -3.82854e-06 4.68389e-24)
(0.110084 -1.74269e-05 -4.64491e-24)
(0.110037 -3.53138e-05 0)
(0.11007 -3.22966e-05 -1.9056e-23)
(0.110054 -3.35016e-05 -9.80032e-24)
(0.110002 -3.93574e-05 2.6786e-24)
(0.11002 -3.72305e-05 -1.0495e-23)
(0.109964 -4.32058e-05 8.6722e-26)
(0.109983 -4.14079e-05 0)
(0.109921 -4.68709e-05 0)
(0.109943 -4.50037e-05 0)
(0.109874 -5.08884e-05 0)
(0.109898 -4.87987e-05 0)
(0.109822 -5.54262e-05 0)
(0.109848 -5.31231e-05 1.13953e-29)
(0.109764 -6.03064e-05 9.60829e-26)
(0.109793 -5.78203e-05 0)
(0.109699 -6.57179e-05 0)
(0.109732 -6.31019e-05 0)
(0.109628 -7.05785e-05 0)
(0.109665 -6.82166e-05 0)
(0.109549 -7.62916e-05 0)
(0.10959 -7.30916e-05 -6.39419e-24)
(0.10946 -8.33579e-05 1.67921e-24)
(0.109506 -8.03161e-05 -8.24765e-24)
(0.109362 -9.18848e-05 0)
(0.109413 -8.70244e-05 -6.71149e-24)
(0.109252 -0.000100711 0)
(0.109308 -9.62203e-05 0)
(0.109129 -0.000110642 0)
(0.109192 -0.000105503 0)
(0.108991 -0.000122047 0)
(0.109062 -0.000116204 0)
(0.108835 -0.000134717 -7.33144e-24)
(0.108915 -0.000127925 0)
(0.108661 -0.000150449 -2.97751e-23)
(0.108751 -0.000141743 -7.38021e-24)
(0.108563 -0.000160511 3.0335e-23)
(0.108557 0.000144729 5.74427e-23)
(0.110086 1.00307e-05 9.39749e-24)
(0.110085 -3.13305e-05 -1.83726e-23)
(0.108449 -6.74732e-05 0)
(0.10846 -0.000172927 0)
(0.108452 0.000152423 0)
(0.108447 4.1113e-05 0)
(0.108758 0.00021957 0)
(0.10857 0.000246483 1.4399e-23)
(0.108667 0.00023241 1.45225e-23)
(0.108925 0.00019469 1.84431e-23)
(0.108844 0.000206921 -3.68619e-24)
(0.10907 0.000172 5.69876e-26)
(0.108999 0.000182848 0)
(0.1092 0.000152133 0)
(0.109137 0.000161808 0)
(0.109315 0.000134288 0)
(0.109259 0.000142966 0)
(0.109419 0.000118589 0)
(0.109369 0.000126105 0)
(0.109512 0.000104056 0)
(0.109466 0.00011115 0)
(0.109595 9.18462e-05 -5.10537e-26)
(0.109554 9.80293e-05 1.31653e-23)
(0.109669 8.11492e-05 -4.90423e-26)
(0.109633 8.60226e-05 -2.57152e-23)
(0.109737 7.14988e-05 0)
(0.109704 7.61127e-05 0)
(0.109798 6.31573e-05 4.75049e-26)
(0.109768 6.71896e-05 0)
(0.109852 5.59309e-05 0)
(0.109826 5.94112e-05 0)
(0.109902 4.95852e-05 0)
(0.109878 5.26578e-05 0)
(0.109946 4.39251e-05 0)
(0.109924 4.66616e-05 0)
(0.109986 3.8816e-05 0)
(0.109967 4.12973e-05 0)
(0.110023 3.39676e-05 0)
(0.110005 3.63616e-05 0)
(0.110056 2.86529e-05 1.01355e-23)
(0.11004 3.13838e-05 0)
(0.110099 -4.6623e-06 0)
(0.1101 8.9282e-06 9.20229e-24)
(0.110087 2.35585e-05 0)
(0.110072 2.59367e-05 9.88384e-24)
(0.11007 -4.73548e-05 1.96703e-23)
(0.110086 -4.55704e-05 4.8379e-24)
(0.110099 -3.03821e-05 3.77295e-23)
(0.110099 -1.69988e-05 0)
(0.110039 -5.24711e-05 0)
(0.110055 -4.96573e-05 -2.96899e-23)
(0.110004 -5.79619e-05 8.44048e-26)
(0.110022 -5.5135e-05 1.05589e-23)
(0.109965 -6.32802e-05 -8.67216e-26)
(0.109985 -6.05793e-05 0)
(0.109923 -6.90538e-05 0)
(0.109945 -6.60977e-05 0)
(0.109876 -7.54632e-05 0)
(0.1099 -7.21612e-05 0)
(0.109824 -8.26199e-05 0)
(0.109851 -7.89582e-05 -1.13953e-29)
(0.109767 -9.04472e-05 -1.92135e-25)
(0.109796 -8.64529e-05 0)
(0.109703 -9.92721e-05 0)
(0.109736 -9.4686e-05 0)
(0.109632 -0.000108711 3.22889e-24)
(0.109669 -0.000103876 0)
(0.109554 -0.000118906 0)
(0.109594 -0.000113505 -3.21541e-24)
(0.109466 -0.000130714 6.72818e-24)
(0.109511 -0.00012473 6.68352e-24)
(0.109368 -0.000143863 0)
(0.109418 -0.000137173 0)
(0.109258 -0.000158644 0)
(0.109315 -0.000151022 0)
(0.109136 -0.000175463 0)
(0.109199 -0.000166777 0)
(0.108999 -0.000194636 0)
(0.109069 -0.000184761 0)
(0.108845 -0.000216376 1.17598e-25)
(0.108924 -0.000205158 0)
(0.108672 -0.000241553 -1.19441e-25)
(0.108761 -0.000228461 0)
(0.108475 -0.000273927 -3.12691e-23)
(0.108576 -0.000256968 3.12547e-23)
(0.108467 0.000261432 2.93072e-23)
(0.108349 -0.000187513 0)
(0.108366 -0.0002941 -6.37402e-23)
(0.108338 -7.51193e-05 0)
(0.110101 2.19679e-05 0)
(0.110101 -4.36361e-05 -4.69759e-24)
(0.10834 0.000160506 7.43367e-23)
(0.108357 0.000277589 2.97355e-23)
(0.108231 -0.000203162 1.61027e-23)
(0.10825 -0.00031615 8.05522e-23)
(0.108333 4.08345e-05 0)
(0.110089 3.83809e-05 3.87121e-23)
(0.110103 3.53754e-05 -1.91294e-23)
(0.110113 -2.9717e-05 -9.30401e-24)
(0.110114 -4.17864e-05 4.62783e-23)
(0.108384 0.000392362 1.04159e-22)
(0.108239 0.000295453 -5.85565e-23)
(0.108142 0.000448104 -2.65222e-22)
(0.108267 0.000418109 -5.94791e-23)
(0.108591 0.000346856 2.90109e-23)
(0.108491 0.000368913 -8.86504e-23)
(0.108775 0.000306648 -2.96374e-23)
(0.108686 0.000326225 -2.23674e-23)
(0.108938 0.000271279 -7.37847e-24)
(0.108859 0.000288561 -7.39399e-24)
(0.109082 0.000240266 -5.69876e-26)
(0.109012 0.000255187 0)
(0.10921 0.00021301 0)
(0.109148 0.000226241 0)
(0.109325 0.000188781 0)
(0.109269 0.00020054 0)
(0.109427 0.000167305 0)
(0.109378 0.000177708 0)
(0.109519 0.000148166 0)
(0.109475 0.000157385 0)
(0.109602 0.000131182 0)
(0.109562 0.000139363 0)
(0.109676 0.000116244 7.61938e-30)
(0.10964 0.000123599 0)
(0.109743 0.00010324 0)
(0.10971 0.000109462 0)
(0.109803 9.1808e-05 4.7497e-26)
(0.109774 9.73503e-05 0)
(0.109857 8.17528e-05 0)
(0.109831 8.66163e-05 0)
(0.109906 7.28799e-05 0)
(0.109882 7.71814e-05 0)
(0.10995 6.49787e-05 0)
(0.109928 6.88167e-05 0)
(0.10999 5.78503e-05 0)
(0.10997 6.13271e-05 0)
(0.110026 5.12268e-05 0)
(0.110008 5.44944e-05 0)
(0.110059 4.46234e-05 5.16637e-24)
(0.110043 4.79e-05 -2.59902e-24)
(0.110074 4.14326e-05 -1.97396e-23)
(0.110113 -4.93498e-06 -4.40547e-24)
(0.110115 2.0407e-05 1.84364e-23)
(0.110114 7.5526e-06 -1.40789e-23)
(0.110113 -1.66881e-05 0)
(0.110072 -6.28963e-05 -1.46617e-23)
(0.110102 -5.68971e-05 -4.23696e-23)
(0.110087 -5.96966e-05 3.40887e-23)
(0.110041 -6.97121e-05 0)
(0.110057 -6.62967e-05 0)
(0.110007 -7.61436e-05 -5.77074e-31)
(0.110024 -7.27503e-05 0)
(0.109968 -8.32511e-05 0)
(0.109988 -7.96075e-05 0)
(0.109926 -9.11383e-05 -8.90466e-26)
(0.109948 -8.70913e-05 0)
(0.10988 -9.99195e-05 0)
(0.109904 -9.54094e-05 0)
(0.109829 -0.000109686 0)
(0.109855 -0.000104679 0)
(0.109772 -0.000120476 9.60661e-26)
(0.109801 -0.000114951 0)
(0.109709 -0.000132461 9.84154e-26)
(0.109741 -0.000126291 0)
(0.109639 -0.000145675 0)
(0.109675 -0.000138892 0)
(0.109561 -0.000160421 0)
(0.109601 -0.000152885 0)
(0.109474 -0.000176858 0)
(0.109518 -0.000168312 0)
(0.109377 -0.000195275 0)
(0.109426 -0.00018581 0)
(0.109268 -0.000216131 -1.10309e-25)
(0.109324 -0.000205377 0)
(0.109147 -0.000239802 0)
(0.109209 -0.000227591 0)
(0.109011 -0.000266696 0)
(0.109081 -0.000252827 0)
(0.108859 -0.000297226 -1.25023e-29)
(0.108937 -0.000281483 0)
(0.108688 -0.000332019 1.76046e-29)
(0.108776 -0.000314051 0)
(0.108495 -0.000373371 1.23887e-25)
(0.108594 -0.000351436 0)
(0.108275 -0.000425559 -6.53148e-23)
(0.108389 -0.000397872 1.6043e-23)
(0.108126 -0.00033922 1.64385e-23)
(0.108155 -0.00045579 3.26129e-23)
(0.108222 0.000168797 -2.90575e-23)
(0.108218 -8.40636e-05 -3.12128e-23)
(0.110117 3.29945e-05 4.69152e-24)
(0.110116 -5.45956e-05 3.33062e-23)
(0.10811 0.000312148 3.56986e-24)
(0.108105 -0.000220552 0)
(0.107987 0.000463666 4.05097e-22)
(0.108028 -0.000487853 5.03919e-23)
(0.107997 -0.000364421 6.71988e-23)
(0.108011 0.000645394 -6.82785e-22)
(0.107903 0.00070193 1.21537e-22)
(0.108215 4.08709e-05 0)
(0.108201 0.0005706 6.70716e-23)
(0.108099 0.00061272 3.4926e-23)
(0.108419 0.000502427 6.0425e-23)
(0.10831 0.000534571 -9.22458e-23)
(0.10862 0.000443269 -3.00638e-23)
(0.108523 0.000472245 -1.50262e-23)
(0.108798 0.000391575 1.50614e-23)
(0.108712 0.000416359 1.52654e-23)
(0.108957 0.000346642 0)
(0.10888 0.000368347 -3.74246e-26)
(0.109098 0.000307537 0)
(0.10903 0.000326465 0)
(0.109225 0.000273046 5.57688e-26)
(0.109163 0.000289763 0)
(0.109337 0.000242501 0)
(0.109283 0.000257318 0)
(0.109439 0.000215403 0)
(0.109389 0.000228547 0)
(0.109529 0.000191364 0)
(0.109485 0.000203011 0)
(0.109611 0.000170042 5.10137e-26)
(0.109571 0.00018035 0)
(0.109684 0.000151189 6.33765e-30)
(0.109648 0.000160373 0)
(0.10975 0.000134656 0)
(0.109718 0.000142632 0)
(0.109809 0.000120078 -9.49887e-26)
(0.109781 0.000127145 0)
(0.109863 0.000107219 0)
(0.109837 0.000113447 0)
(0.109911 9.58487e-05 0)
(0.109888 0.000101365 0)
(0.109955 8.57201e-05 0)
(0.109933 9.06433e-05 0)
(0.109994 7.66162e-05 0)
(0.109975 8.10534e-05 0)
(0.11003 6.82949e-05 0)
(0.110012 7.23787e-05 0)
(0.110062 6.04557e-05 -2.58144e-24)
(0.110046 6.42274e-05 0)
(0.110092 5.31942e-05 0)
(0.110077 5.68055e-05 -5.01293e-24)
(0.110119 4.58059e-05 2.26229e-27)
(0.110106 4.94285e-05 0)
(0.110128 1.87916e-05 -1.86924e-23)
(0.110132 4.27723e-05 1.12993e-24)
(0.11013 3.11029e-05 9.16443e-24)
(0.110127 -4.97513e-06 6.7247e-24)
(0.110127 6.66004e-06 -4.64175e-24)
(0.110127 -2.9203e-05 -2.33644e-24)
(0.110126 -1.67765e-05 2.3327e-24)
(0.110128 -5.30064e-05 0)
(0.110127 -4.06075e-05 -2.11997e-23)
(0.110104 -7.11103e-05 -9.52827e-24)
(0.11013 -6.57478e-05 -1.82379e-23)
(0.110117 -6.81494e-05 4.19683e-23)
(0.110075 -7.81714e-05 -4.9913e-24)
(0.11009 -7.44598e-05 0)
(0.110044 -8.61637e-05 0)
(0.11006 -8.21468e-05 0)
(0.11001 -9.41291e-05 -1.90622e-30)
(0.110028 -9.00879e-05 0)
(0.109972 -0.000103036 0)
(0.109992 -9.84572e-05 0)
(0.109931 -0.000112985 8.90466e-26)
(0.109952 -0.000107876 0)
(0.109885 -0.000124081 0)
(0.109909 -0.000118383 0)
(0.109834 -0.000136434 0)
(0.10986 -0.000130097 0)
(0.109778 -0.000150147 0)
(0.109807 -0.000143114 0)
(0.109716 -0.000165387 -5.6465e-30)
(0.109748 -0.000157564 0)
(0.109647 -0.000182299 0)
(0.109682 -0.000173617 0)
(0.10957 -0.00020119 0)
(0.109609 -0.000191496 0)
(0.109484 -0.000222336 0)
(0.109528 -0.000211428 0)
(0.109388 -0.000246117 0)
(0.109437 -0.000233874 0)
(0.109281 -0.000272989 1.10309e-25)
(0.109336 -0.000259141 0)
(0.109161 -0.000303433 0)
(0.109223 -0.000287735 0)
(0.109027 -0.000337981 0)
(0.109096 -0.000320164 0)
(0.108877 -0.000377208 -1.17574e-25)
(0.108954 -0.000356973 0)
(0.108709 -0.000421793 1.20022e-25)
(0.108796 -0.000398791 0)
(0.10852 -0.000472786 -1.22488e-25)
(0.108617 -0.000446388 0)
(0.108306 -0.000533374 1.61457e-23)
(0.108416 -0.000501266 -3.18259e-23)
(0.108066 -0.000607603 -1.63177e-23)
(0.108189 -0.000568666 3.31224e-23)
(0.107893 -0.00052204 6.63919e-25)
(0.107934 -0.000649115 3.36147e-23)
(0.108095 0.000176028 -2.9919e-23)
(0.108092 -9.20962e-05 0)
(0.107977 0.0003266 -2.90349e-22)
(0.107972 -0.000235161 0)
(0.110122 5.99385e-05 -4.69929e-24)
(0.110135 5.64103e-05 3.44258e-24)
(0.110141 -5.12741e-05 -1.79612e-23)
(0.110143 -6.33346e-05 -2.0358e-23)
(0.107841 0.000466517 -2.851e-22)
(0.107858 -0.000391149 -6.78563e-23)
(0.10779 0.000710156 0)
(0.10805 0.000772213 -7.90007e-23)
(0.107749 -0.000558888 -3.33164e-23)
(0.107794 -0.000693735 5.11135e-23)
(0.107925 0.000811232 1.58438e-22)
(0.108089 4.07874e-05 0)
(0.108255 0.000685379 0)
(0.108153 0.000729788 -7.02227e-23)
(0.108461 0.000606519 0)
(0.108359 0.00064491 0)
(0.108654 0.000535462 0)
(0.10856 0.000569791 1.55673e-23)
(0.108826 0.000474095 0)
(0.108743 0.00050371 0)
(0.108981 0.000420504 0)
(0.108906 0.000446381 0)
(0.109119 0.000373507 0)
(0.109052 0.00039627 0)
(0.109242 0.000332043 -5.57688e-26)
(0.109182 0.000352136 0)
(0.109353 0.000295348 0)
(0.109299 0.000313145 0)
(0.109453 0.000262799 0)
(0.109404 0.00027859 0)
(0.109542 0.000233907 0)
(0.109498 0.000247921 0)
(0.109622 0.000208289 -7.68463e-30)
(0.109583 0.000220707 0)
(0.109694 0.000185622 7.05986e-30)
(0.109659 0.000196618 0)
(0.109759 0.000165622 0)
(0.109727 0.000175303 0)
(0.109817 0.00014796 6.13628e-30)
(0.109789 0.000156522 0)
(0.10987 0.000132349 0)
(0.109844 0.000139916 0)
(0.109918 0.000118517 0)
(0.109895 0.000125229 0)
(0.109961 0.000106196 0)
(0.10994 0.000112184 0)
(0.109999 9.51502e-05 0)
(0.10998 0.000100528 0)
(0.110034 8.5176e-05 0)
(0.110017 9.00399e-05 0)
(0.110066 7.61892e-05 0)
(0.110051 8.05891e-05 0)
(0.110095 6.7367e-05 4.97951e-24)
(0.110081 7.16092e-05 5.08905e-24)
(0.110109 6.34305e-05 -9.56421e-24)
(0.110141 1.73972e-05 -9.18059e-24)
(0.110144 4.05671e-05 0)
(0.110142 2.92941e-05 -9.27138e-24)
(0.110139 -5.21479e-06 0)
(0.11014 6.19937e-06 9.36938e-24)
(0.110139 -2.88091e-05 1.39839e-23)
(0.110139 -1.70486e-05 -4.72592e-24)
(0.11014 -3.97265e-05 -2.74798e-23)
(0.110107 -8.52904e-05 4.80636e-24)
(0.110132 -7.76233e-05 1.79226e-23)
(0.11012 -8.19356e-05 0)
(0.110079 -9.3469e-05 -9.94532e-24)
(0.110093 -8.91979e-05 9.97815e-24)
(0.110048 -0.000102296 0)
(0.110064 -9.79283e-05 0)
(0.110014 -0.000111844 -2.8503e-30)
(0.110032 -0.00010695 0)
(0.109977 -0.000122548 0)
(0.109996 -0.000117044 0)
(0.109937 -0.000134522 0)
(0.109958 -0.00012837 0)
(0.109892 -0.000147891 0)
(0.109915 -0.000141025 0)
(0.109842 -0.000162792 0)
(0.109867 -0.000155144 0)
(0.109786 -0.000179373 9.60513e-26)
(0.109815 -0.000170863 0)
(0.109725 -0.000197839 -9.84098e-26)
(0.109757 -0.000188359 0)
(0.109657 -0.000218409 0)
(0.109692 -0.000207845 0)
(0.109581 -0.0002414 0)
(0.10962 -0.000229585 0)
(0.109497 -0.00026719 0)
(0.10954 -0.000253915 0)
(0.109402 -0.000296214 0)
(0.109451 -0.00028127 0)
(0.109297 -0.000328982 0)
(0.109351 -0.000312099 0)
(0.10918 -0.000366064 0)
(0.10924 -0.000346949 0)
(0.109048 -0.000408097 -1.15109e-25)
(0.109116 -0.000386424 0)
(0.108901 -0.000455799 1.1754e-25)
(0.108976 -0.000431193 0)
(0.108736 -0.000510028 -1.19983e-25)
(0.108821 -0.000482045 0)
(0.10855 -0.000571834 0)
(0.108646 -0.000539909 0)
(0.108342 -0.00064259 0)
(0.108449 -0.00060597 0)
(0.108109 -0.000725492 1.28995e-25)
(0.10823 -0.000681936 1.63132e-23)
(0.107845 -0.000825447 -8.56316e-23)
(0.107981 -0.000773248 0)
(0.107644 -0.000743717 -5.06622e-23)
(0.1077 -0.000882478 -6.71517e-25)
(0.107962 0.000183226 9.36338e-23)
(0.107959 -9.95205e-05 0)
(0.110147 5.26539e-05 -1.78957e-23)
(0.110145 -7.45087e-05 -3.45098e-23)
(0.107827 0.000331719 -4.9908e-23)
(0.107722 0.000618052 6.82721e-25)
(0.107689 0.000474775 1.454e-22)
(0.107834 -0.000250165 0)
(0.107712 -0.000416445 1.70852e-23)
(0.107778 0.000848057 -1.45239e-22)
(0.107639 0.000862871 1.25955e-22)
(0.107597 0.000683249 -1.24729e-22)
(0.107596 -0.000596986 -5.13743e-23)
(0.107485 -0.000795457 3.44394e-23)
(0.107546 -0.000946284 3.37227e-23)
(0.107956 4.03491e-05 0)
(0.10809 0.000894218 4.40945e-24)
(0.107816 0.00100421 -7.27734e-25)
(0.107957 0.000946844 3.41839e-23)
(0.108307 0.000795295 3.37557e-23)
(0.108203 0.000843542 -3.39311e-23)
(0.108508 0.000704963 6.18133e-26)
(0.108408 0.000749196 0)
(0.108692 0.00062468 0)
(0.108602 0.000663473 0)
(0.108859 0.000554284 0)
(0.108778 0.000588351 0)
(0.109009 0.000492401 0)
(0.108936 0.000522341 0)
(0.109143 0.000437904 5.69457e-26)
(0.109078 0.000464304 0)
(0.109264 0.000389765 0)
(0.109205 0.000413099 0)
(0.109372 0.000347132 0)
(0.109319 0.000367811 0)
(0.109469 0.000309297 0)
(0.109422 0.000327655 0)
(0.109556 0.00027569 0)
(0.109514 0.000291996 0)
(0.109635 0.000245865 -5.10061e-26)
(0.109597 0.000260331 0)
(0.109706 0.000219437 8.0777e-30)
(0.109671 0.000232254 0)
(0.10977 0.000196059 0)
(0.109739 0.000207388 0)
(0.109827 0.000175378 9.49642e-26)
(0.109799 0.000185406 0)
(0.109879 0.000157064 0)
(0.109853 0.000165946 0)
(0.109925 0.000140813 0)
(0.109903 0.000148701 0)
(0.109967 0.000126336 0)
(0.109947 0.000133371 0)
(0.110005 0.000113377 0)
(0.109987 0.000119682 0)
(0.11004 0.000101726 0)
(0.110023 0.000107399 0)
(0.110071 9.12635e-05 8.10423e-26)
(0.110056 9.63617e-05 0)
(0.1101 8.15595e-05 -5.00126e-24)
(0.110086 8.64244e-05 0)
(0.110126 7.21165e-05 4.76226e-24)
(0.110113 7.67509e-05 0)
(0.11015 6.38321e-05 4.55529e-24)
(0.110138 6.78874e-05 -4.65229e-24)
(0.110156 3.84166e-05 9.00269e-24)
(0.110161 5.97547e-05 0)
(0.110158 4.98095e-05 1.33995e-23)
(0.110152 1.658e-05 0)
(0.110154 2.73257e-05 0)
(0.110151 -5.65074e-06 0)
(0.110152 5.69611e-06 0)
(0.110151 -2.85472e-05 0)
(0.110151 -1.71143e-05 0)
(0.110153 -4.99994e-05 1.83055e-23)
(0.110152 -3.91416e-05 4.55141e-24)
(0.110156 -7.18614e-05 4.50592e-24)
(0.110154 -6.09811e-05 3.58969e-23)
(0.110135 -9.00418e-05 2.33648e-23)
(0.110158 -8.30437e-05 4.48908e-24)
(0.110147 -8.62833e-05 -9.11002e-24)
(0.11011 -9.8742e-05 4.80147e-24)
(0.110123 -9.42004e-05 -2.87811e-23)
(0.110083 -0.000108301 1.79236e-30)
(0.110097 -0.000103436 0)
(0.110053 -0.000118137 0)
(0.110068 -0.000113075 0)
(0.11002 -0.000129254 -3.80487e-30)
(0.110037 -0.000123538 0)
(0.109983 -0.000141727 0)
(0.110002 -0.000135314 0)
(0.109943 -0.00015569 0)
(0.109964 -0.000148516 0)
(0.109899 -0.00017129 0)
(0.109922 -0.000163277 0)
(0.10985 -0.000188692 0)
(0.109875 -0.000179757 0)
(0.109796 -0.000208089 -1.92094e-25)
(0.109824 -0.00019813 0)
(0.109736 -0.000229722 0)
(0.109767 -0.000218612 0)
(0.109669 -0.000253874 0)
(0.109703 -0.000241465 0)
(0.109595 -0.000280901 0)
(0.109633 -0.000267007 0)
(0.109512 -0.000311239 0)
(0.109554 -0.000295628 0)
(0.10942 -0.000345383 -1.07874e-25)
(0.109467 -0.000327805 0)
(0.109316 -0.000383908 0)
(0.109369 -0.000364063 0)
(0.109201 -0.000427464 0)
(0.109261 -0.000405018 0)
(0.109073 -0.000476782 1.15109e-25)
(0.109139 -0.000451358 0)
(0.108929 -0.000532704 -2.31407e-29)
(0.109003 -0.000503864 0)
(0.108768 -0.000596238 2.39941e-25)
(0.10885 -0.000563456 0)
(0.108587 -0.000668587 0)
(0.10868 -0.000631233 0)
(0.108385 -0.000751149 0)
(0.108489 -0.000708488 0)
(0.108158 -0.000845582 -4.36805e-29)
(0.108275 -0.000796774 0)
(0.107903 -0.000954668 0)
(0.108034 -0.00089808 0)
(0.107615 -0.00108759 -5.12638e-23)
(0.107763 -0.00101757 0)
(0.107382 -0.00101334 -6.6962e-25)
(0.107456 -0.00116526 8.73972e-23)
(0.107817 0.000188145 0)
(0.107677 0.00104591 1.98152e-22)
(0.107673 0.000337749 3.41948e-23)
(0.110153 7.48879e-05 -4.54672e-24)
(0.110164 7.08819e-05 0)
(0.110167 -6.96469e-05 4.39463e-24)
(0.110169 -7.99517e-05 -8.71012e-24)
(0.107818 -0.000106377 0)
(0.107686 -0.000266177 0)
(0.107544 0.000513809 0)
(0.107557 -0.000442985 -1.68274e-23)
(0.107433 -0.000638522 -3.40798e-23)
(0.107316 -0.000853059 0)
(0.107207 -0.0010857 8.82537e-23)
(0.107288 -0.0012472 -7.0488e-23)
(0.107813 4.03954e-05 0)
(0.107873 0.00114538 -1.64531e-26)
(0.107522 0.00109161 6.29172e-23)
(0.107584 0.00127124 -2.25095e-22)
(0.107733 0.00120812 6.52982e-23)
(0.108137 0.00101363 -2.12855e-23)
(0.108008 0.00107659 -3.3893e-23)
(0.108358 0.00090119 0)
(0.108253 0.000955608 0)
(0.108555 0.000800326 -6.18076e-26)
(0.108459 0.000849452 0)
(0.108734 0.000710866 0)
(0.108647 0.000754202 0)
(0.108895 0.000631851 0)
(0.108817 0.000670132 0)
(0.10904 0.000562122 0)
(0.10897 0.0005959 0)
(0.109171 0.000500531 -5.69457e-26)
(0.109107 0.000530384 0)
(0.109288 0.000446018 0)
(0.109231 0.000472453 0)
(0.109393 0.000397675 0)
(0.109342 0.00042113 0)
(0.109488 0.000354736 0)
(0.109442 0.000375576 0)