/*--------------------------------*- C++ -*----------------------------------*\
  =========                 |
  \\      /  F ield         | OpenFOAM: The Open Source CFD Toolbox
   \\    /   O peration     | Website:  https://openfoam.org
    \\  /    A nd           | Version:  10
     \\/     M anipulation  |
\*---------------------------------------------------------------------------*/
FoamFile
{
    format      ascii;
    class       surfaceScalarField;
    location    "35.5";
    object      phi;
}
// * * * * * * * * * * * * * * * * * * * * * * * * * * * * * * * * * * * * * //

dimensions      [0 3 -1 0 0 0 0];

internalField   nonuniform List<scalar> 
12623
(
0.376076
0.0830221
-0.1349
-0.324198
0.288433
-0.116302
0.203945
0.339008
-0.164711
-0.315215
0.140918
-0.17598
0.359701
0.155287
-0.315184
0.166134
-0.173597
0.322648
-0.303152
-0.188013
0.00406842
0.159486
-0.184542
0.0209872
-0.196089
0.200157
-0.226767
-0.0103774
0.237145
-0.109262
0.00647029
-0.123975
0.447212
-0.181163
-0.266049
-0.287683
0.23324
0.501654
-0.204032
-0.146948
0.149899
0.201082
0.0189539
0.0336952
-0.256681
-0.193271
0.0652763
0.0968357
-0.0113928
-0.0757403
-0.00970258
-0.0157571
-0.0571315
0.169724
-0.0406459
0.013496
-0.0249407
-0.0531397
0.0322847
0.0457957
-0.0920743
-0.00440698
0.0715405
-0.0624116
-0.0828024
0.00294755
0.0304788
-0.0548973
0.0214709
-0.0387551
-0.0173483
0.059051
-0.133436
0.125159
-0.272661
0.0257582
0.280598
0.0408667
-0.304219
-0.00930851
-0.310385
0.0244545
0.311689
-0.209614
0.0702704
-0.0700172
0.20936
-0.215039
-0.0120189
0.0174446
-0.198099
0.20093
-0.107196
0.104365
-0.197864
0.0700356
-0.401104
0.154982
-0.155843
0.401965
-0.163657
-0.375257
0.137809
0.362178
-0.470793
0.0954
-0.0988967
0.47429
-0.121118
-0.439309
0.0896339
-0.437535
-0.12629
0.442707
-0.407313
0.124759
0.466588
-0.0831927
-0.478764
0.0953683
-0.047163
0.0972836
0.416468
-0.479878
-0.0793559
0.476041
-0.462123
0.0776447
0.135085
-0.138587
0.204432
-0.247892
0.185252
-0.184616
0.247256
-0.176337
-0.233007
0.161451
-0.175487
-0.292376
-0.273412
-0.185807
0.271206
-0.263647
-0.0429917
-0.34126
0.0375784
0.346673
0.248712
0.0439241
-0.335628
-0.24918
0.0872255
0.410667
-0.102551
0.375581
-0.309301
0.0362715
-0.307808
0.309275
0.0736019
-0.0829858
-0.299891
0.0759775
0.288945
-0.0556478
-0.0283113
0.0171453
0.314299
-0.303133
-0.325265
0.322525
-0.0255717
0.314021
-0.027508
0.0315563
-0.318069
0.260776
-0.264675
0.213498
-0.209599
0.211934
0.251123
-0.202281
-0.267803
0.207345
-0.204218
-0.257959
0.194143
-0.203988
-0.247341
0.17969
-0.190308
-0.228164
0.163526
-0.182703
-0.212498
0.138291
-0.153957
-0.193276
0.0980207
-0.117243
-0.181012
0.0445469
-0.0568114
-0.0219413
-0.175104
0.0160339
0.272492
-0.272314
0.211756
0.194712
0.244592
-0.188181
0.267565
0.199638
-0.273264
0.214448
-0.264803
0.198885
-0.256515
0.185855
-0.242491
0.165666
-0.227842
0.148878
-0.207478
0.117926
-0.191864
0.0824077
-0.178805
0.0314875
-0.1754
-0.0253464
-0.158418
0.257564
0.168419
0.233119
-0.146945
-0.0894134
-0.179492
0.0938009
-0.18283
-0.0819832
-0.110536
0.246098
0.122003
0.225191
-0.102609
-0.146604
-0.191995
0.159107
-0.194035
-0.135398
-0.0500865
0.235668
0.0605166
-0.0399346
-0.188742
-0.207178
0.203925
-0.214242
-0.168536
0.229052
-0.00540312
-0.0728825
0.231917
-0.215358
0.232401
-0.224222
-0.1952
-0.2344
0.263964
-0.27782
0.074373
-0.245824
0.250587
-0.0776456
0.0127369
0.288455
-0.292186
0.172149
0.132638
0.290868
-0.28579
0.206678
0.198321
0.279603
-0.269082
0.188363
0.208261
0.257043
-0.242714
0.151337
0.173816
0.226437
-0.209505
0.100995
0.132601
0.195765
-0.186039
0.0217617
0.0686672
0.186061
-0.192855
-0.0751893
-0.0253245
0.20851
-0.223449
-0.153597
-0.119743
-0.242194
-0.176455
-0.19901
0.193061
0.165056
0.216056
0.248087
-0.231743
0.220971
-0.18973
0.194417
0.0113463
0.0971321
-0.211534
0.218444
-0.124153
-0.0739281
-0.243866
0.246681
-0.185518
-0.179379
-0.266656
0.259132
-0.196463
-0.210283
-0.268224
0.250286
-0.19166
-0.21331
-0.247141
0.223875
-0.164915
-0.199136
-0.218339
0.205478
-0.0897479
-0.141409
-0.201891
0.0214714
-0.036347
0.112239
-0.119719
0.239397
0.214404
-0.11062
0.241488
0.208934
-0.258419
-0.192709
0.223815
-0.249281
-0.245979
0.237475
0.256591
0.25764
-0.243745
-0.245637
-0.253665
0.265326
-0.20459
0.216795
-0.270624
-0.267596
0.249708
-0.174821
-0.189022
-0.283163
0.209574
-0.203441
0.0982312
0.272377
-0.29452
-0.0555034
0.281662
-0.119905
0.207286
0.137374
-0.244151
0.297242
-0.303582
0.0807132
0.0154589
0.306466
-0.30578
0.171463
0.135523
0.304035
-0.293016
0.19566
0.196575
0.27879
-0.268292
0.177866
0.194034
0.254885
-0.242579
0.139031
0.160409
0.226714
-0.214168
0.088449
0.116736
0.201854
-0.19622
0.0161272
0.0563534
0.196083
-0.202959
-0.0683131
-0.0254615
0.217165
-0.234018
-0.136744
-0.105537
-0.160765
-0.230141
0.219996
0.175201
0.228306
-0.216946
0.218652
0.00964041
0.100181
-0.217847
0.235677
-0.141984
-0.0731227
-0.233691
0.255828
-0.207656
-0.177393
-0.246423
0.259477
-0.209517
-0.200878
-0.240451
0.246626
-0.197835
-0.194284
-0.222389
0.219639
-0.162164
-0.174899
-0.20343
0.196779
-0.0830973
-0.1252
-0.193552
0.19622
0.0188036
-0.0331198
0.0628146
0.143791
-0.132291
0.227897
0.219607
0.139811
0.26901
-0.127159
0.249008
-0.256986
0.253933
-0.250612
-0.245204
-0.257419
0.230266
-0.262752
-0.284068
0.263272
-0.154025
-0.303109
-0.169982
0.215768
-0.200851
-0.29808
0.226614
-0.281469
-0.263307
0.268618
0.248622
0.238703
-0.234055
-0.25526
-0.254844
0.23024
0.159306
-0.158625
0.203751
0.206998
0.159594
-0.165572
0.169176
0.265407
0.286976
-0.290838
-0.123297
0.291464
-0.17006
-0.210629
0.132207
0.215796
-0.206602
0.0942041
-0.25909
0.312712
-0.323124
-0.0450911
-0.0980312
0.332437
-0.338445
0.0867217
0.0247716
0.339579
-0.336667
0.168551
0.136657
0.321025
-0.316202
0.190837
0.180933
0.297609
-0.287416
0.167672
0.175442
0.269931
-0.258307
0.127407
0.142925
0.240787
-0.228765
0.0764276
0.0992154
0.21575
-0.210175
0.0105526
0.0433375
0.210476
-0.216488
-0.0623011
-0.0251605
0.230031
-0.242897
-0.123878
-0.0919938
-0.14039
-0.273323
0.270364
0.25955
0.260621
-0.265711
0.26
0.180912
0.232959
-0.256514
0.251978
0.0141766
0.103667
-0.250614
0.255351
-0.146721
-0.0717583
-0.259428
0.263775
-0.212002
-0.18147
-0.264409
0.260852
-0.205959
-0.201512
-0.252528
0.24162
-0.186927
-0.18596
-0.22956
0.217648
-0.150253
-0.16284
-0.20459
0.199555
-0.0780622
-0.112142
-0.195798
0.199127
0.0154741
-0.0293629
0.0553404
0.169843
-0.169483
0.227537
0.230825
0.2487
-0.320761
-0.183199
-0.236238
-0.255236
0.232964
-0.269102
-0.21387
0.205514
-0.246488
-0.224456
-0.244673
0.224354
-0.212168
-0.310266
0.232767
-0.289882
-0.173268
0.177955
0.26072
-0.168362
0.286558
0.187658
-0.190167
0.206261
0.175776
0.21888
0.210978
-0.206153
0.0893797
0.122825
0.22036
0.327652
-0.331266
-0.119683
0.313497
-0.155905
-0.337254
-0.195675
0.215207
-0.202565
-0.349897
0.225736
-0.320794
0.216296
0.159094
-0.262364
0.346819
-0.367688
-0.0242224
-0.0824786
0.376215
-0.377767
0.0882739
0.0332991
0.366707
-0.358642
0.160487
0.125597
0.34562
-0.330428
0.175645
0.16791
0.315341
-0.298841
0.151173
0.160354
0.282858
-0.266425
0.110974
0.126942
0.251281
-0.237779
0.0629259
0.0840712
0.227989
-0.22347
0.0060338
0.0335474
0.224268
-0.230606
-0.0559632
-0.0243624
0.240724
-0.255735
-0.108867
-0.0818765
0.27312
-0.293148
-0.133997
-0.123005
0.313845
-0.340585
-0.15646
-0.149285
0.358888
-0.387168
-0.174285
-0.177372
-0.287331
0.295973
0.23998
0.272292
-0.256127
0.189349
0.215202
-0.30284
0.30952
0.25287
0.253753
-0.313559
0.305371
0.1891
0.22892
-0.303715
0.299976
0.0179156
0.105323
-0.29739
0.294933
-0.144265
-0.0691715
-0.291992
0.288421
-0.20843
-0.178529
-0.283705
0.275611
-0.197865
-0.196796
-0.264529
0.250887
-0.173285
-0.174878
-0.237938
0.2251
-0.137414
-0.149891
-0.216152
0.207474
-0.0693842
-0.103194
-0.203927
0.203689
0.0157116
-0.0258156
0.052876
0.176601
-0.177937
0.228874
0.217259
0.248718
0.177559
-0.190732
-0.233315
-0.23681
0.158242
-0.180463
0.196428
-0.365861
-0.408246
-0.159385
-0.230118
-0.249574
0.23425
-0.270585
-0.153401
0.298536
0.175306
0.216765
0.22174
-0.218928
0.0865677
0.228248
0.116317
-0.204881
-0.230524
0.23012
-0.294267
-0.137923
0.12151
-0.220397
-0.156482
-0.214757
0.205939
-0.330306
-0.140661
0.153321
-0.378522
-0.123738
-0.425168
0.22621
0.153243
-0.258232
0.361572
-0.379068
-0.102187
-0.337031
0.319203
-0.135572
-0.131364
0.397572
-0.408755
-0.0130391
-0.0639747
0.409775
-0.406073
0.0845722
0.0343191
0.396285
-0.382249
0.14645
0.115809
0.365186
-0.346879
0.157338
0.150847
0.328235
-0.309382
0.13232
0.14171
0.291652
-0.274567
0.0938897
0.109211
0.260395
-0.248487
0.0510185
0.0698984
0.240801
-0.23687
0.00210276
0.0258615
0.237373
-0.242371
-0.0509647
-0.0238597
0.251852
-0.266096
-0.0946233
-0.072396
0.28426
-0.29897
-0.119287
-0.104841
0.324172
-0.34204
-0.138592
-0.124082
0.374774
-0.404384
-0.144675
-0.144638
0.429667
-0.448075
-0.10533
-0.134102
-0.267927
0.28688
0.170396
0.247526
-0.230035
0.104019
0.13784
-0.303026
0.321327
0.22168
0.199056
-0.339174
0.342575
0.24947
0.235905
-0.353
0.357042
0.185058
0.218495
-0.356563
0.35179
0.0226893
0.105802
-0.345962
0.337401
-0.135703
-0.0633444
-0.327673
0.316614
-0.197371
-0.168802
-0.306124
0.293835
-0.185577
-0.186306
-0.280205
0.264193
-0.157273
-0.161248
-0.249684
0.236702
-0.124432
-0.135382
-0.225651
0.219427
-0.0631599
-0.092143
-0.216272
0.217567
0.0144164
-0.022661
0.0515153
0.0746414
-0.0895914
-0.205447
-0.214777
0.0593836
-0.0555257
0.0614895
-0.431132
-0.455053
-0.0485474
0.22518
0.148484
0.190901
-0.191921
0.217785
0.231465
0.18355
-0.189292
0.212003
0.210509
0.184215
-0.17804
0.222699
0.212181
0.170908
-0.164699
0.254512
0.241585
0.156904
-0.145452
0.287085
0.278762
-0.129969
0.30372
-0.218181
-0.236275
0.227212
-0.267677
-0.172537
-0.214468
0.20603
-0.294358
-0.104467
-0.199881
0.155971
-0.332956
-0.0182151
0.0088449
-0.205407
-0.0267413
-0.196921
0.0679392
-0.384972
-0.0305374
0.0293066
-0.453822
-0.0339945
-0.427675
0.334009
-0.352678
-0.116903
0.315911
-0.111871
-0.249201
0.377756
-0.400371
-0.079572
-0.106286
0.420847
-0.430673
-0.00321268
-0.0434992
0.431202
-0.425223
0.0785924
0.0348482
0.412573
-0.396202
0.130079
0.103159
0.376425
-0.35573
0.136643
0.13107
0.335019
-0.315242
0.112543
0.120999
0.297803
-0.281975
0.0780625
0.0917717
0.269867
-0.259367
0.0405179
0.0577904
0.253125
-0.249099
-0.00192268
0.0196198
0.250257
-0.255599
-0.0456227
-0.0227022
0.266377
-0.281103
-0.0798976
-0.0616181
0.29779
-0.315171
-0.101906
-0.0881536
0.332881
-0.353915
-0.117558
-0.106372
0.381288
-0.408148
-0.117815
-0.117264
0.431627
-0.452619
-0.0843385
-0.110623
0.458654
-0.45362
0.0242724
-0.0425119
-0.239714
0.259126
0.0846063
0.224627
-0.216015
0.000232793
0.0442969
-0.279696
0.301553
0.148539
0.117271
-0.326468
0.339826
0.208321
0.174141
-0.361874
0.380433
0.230911
0.213857
-0.394244
0.403313
0.175989
0.204683
-0.405723
0.401534
0.0268784
0.103392
-0.392319
0.378442
-0.121826
-0.0541297
-0.362044
0.342872
-0.178199
-0.152404
-0.325323
0.308268
-0.168521
-0.168757
-0.29241
0.275545
-0.140408
-0.14539
-0.26059
0.247343
-0.111185
-0.120427
-0.238509
0.233043
-0.0576933
-0.0833089
-0.231145
0.229865
0.0156971
-0.0207637
-0.230089
0.238428
0.0782283
0.0512915
-0.244437
0.258641
0.13428
0.110308
0.156445
0.185589
-0.188853
0.221049
-0.183148
0.244597
0.233906
0.185859
-0.18164
0.207784
0.207515
0.176338
-0.173545
0.219906
0.20688
0.162424
-0.157979
0.250067
0.230464
0.141798
-0.133711
0.278998
0.262581
-0.0427918
0.0415424
-0.204157
-0.213777
-0.0450296
0.108846
-0.117831
-0.444838
-0.438495
0.0937214
0.116919
-0.0986369
0.297629
0.286928
-0.188567
-0.220245
0.200249
-0.261896
-0.11951
-0.199426
0.152126
-0.290513
-0.0358111
-0.190811
0.0682247
-0.333241
0.0413103
-0.196689
-0.0391204
-0.379846
0.0881102
-0.0802831
-0.221604
0.0954316
-0.211479
-0.127964
-0.417542
-0.15408
-0.417188
0.132773
-0.17898
-0.419937
-0.240941
0.225628
-0.0649705
-0.0979753
0.115348
-0.238976
-0.260449
-0.0784676
0.147765
-0.178697
-0.386257
-0.390412
0.421223
0.101962
-0.358849
0.116202
0.311458
-0.325929
-0.0841662
-0.0941458
0.106022
0.285753
0.281994
-0.0646811
-0.237518
0.34347
-0.372923
-0.0874496
-0.0943306
0.396595
-0.420635
-0.0555319
-0.0826145
0.434548
-0.442384
0.00462387
-0.0295863
0.441322
-0.434041
0.0713116
0.0337854
0.419654
-0.401793
0.112218
0.0887723
0.380674
-0.359759
0.115728
0.109952
0.338796
-0.320223
0.0939699
0.100036
0.30362
-0.289301
0.063744
0.0751684
0.277883
-0.267784
0.0304194
0.0463719
0.261943
-0.258375
-0.00549095
0.0137789
0.260883
-0.267413
-0.0390927
-0.0201939
0.278829
-0.292492
-0.066235
-0.0502023
0.307203
-0.323377
-0.0857314
-0.0734428
0.341201
-0.362425
-0.0963341
-0.0885478
0.38461
-0.405353
-0.0970719
-0.0950797
0.428167
-0.445223
-0.0672831
-0.0878091
0.45121
-0.44452
0.0175825
-0.0365244
0.0704241
-0.22432
0.235263
-0.0107102
-0.0437214
-0.250338
0.266435
0.0685092
0.0292223
-0.287896
0.305501
0.130934
0.0958095
-0.330309
0.356608
0.182022
0.149333
-0.381388
0.405691
0.206609
0.189077
-0.424775
0.438275
0.162488
0.185599
-0.442965
0.439022
0.0308209
0.0987031
-0.427489
0.409028
-0.103365
-0.0425964
-0.38739
0.362415
-0.153225
-0.130765
-0.339736
0.318815
-0.147601
-0.146078
-0.301703
0.28507
-0.123775
-0.128278
-0.270426
0.257951
-0.0987105
-0.105783
-0.24947
0.245156
-0.05338
-0.0748273
-0.244355
0.247151
0.0129013
-0.0199624
-0.253557
0.258246
0.0735397
0.0448848
-0.267087
0.281101
0.120267
0.101467
0.14517
0.184162
-0.191471
0.251905
0.281771
0.19009
-0.185498
0.216458
0.232525
0.179465
-0.172655
0.200975
0.201481
0.165412
-0.157073
0.211567
0.199636
0.147687
-0.135233
0.237613
0.221078
0.124922
-0.116183
0.270259
0.25227
0.276766
-0.133076
-0.206679
0.144718
-0.254488
-0.0441175
-0.191119
0.0649525
-0.287241
0.0421815
-0.191683
-0.0415451
-0.330816
0.10464
-0.205897
-0.142433
-0.365376
0.131684
-0.227815
-0.201139
-0.395383
0.107036
-0.0874369
-0.280048
0.125585
-0.257525
-0.200386
-0.398248
-0.131392
-0.333362
0.105905
-0.165701
-0.351948
-0.289034
0.277152
-0.0755552
-0.100768
0.114839
-0.294119
-0.302762
-0.0870395
0.0869135
-0.111796
-0.308479
-0.339224
0.360394
0.0847352
-0.32508
0.0727695
-0.0916265
0.0949405
0.282439
-0.0866599
0.277027
0.317972
-0.335717
-0.0664217
0.312823
-0.0595317
-0.225876
0.353726
-0.37888
-0.0622961
-0.0763214
0.402766
-0.422614
-0.0356836
-0.0587281
0.435642
-0.441837
0.0108189
-0.0165587
0.441841
-0.43306
0.0625303
0.03379
0.42029
-0.401262
0.0931895
0.0760024
0.382265
-0.360757
0.0942194
0.0909551
0.342117
-0.323266
0.0751188
0.0813966
0.308069
-0.293423
0.0490974
0.0599716
0.282795
-0.273704
0.0213279
0.0357444
0.269953
-0.2692
-0.00624404
0.0100279
0.273709
-0.280909
-0.0318922
-0.015685
0.290015
-0.299857
-0.056393
-0.041096
0.310617
-0.323777
-0.0725712
-0.0626831
0.338604
-0.355665
-0.079273
-0.0737216
0.373629
-0.394164
-0.0765363
-0.0771159
0.416071
-0.4313
-0.0520539
-0.065902
0.441387
-0.431066
0.00726104
-0.0264376
0.40718
-0.385842
0.0806228
0.0465389
0.0907544
-0.261318
0.244825
-0.048478
-0.0626333
-0.235407
0.23891
-0.0142127
-0.0343035
-0.25413
0.274734
0.047905
0.0140019
-0.295004
0.317422
0.108517
0.0755398
-0.339841
0.365938
0.155925
0.126913
-0.391817
0.418352
0.180074
0.163199
-0.440167
0.457247
0.145408
0.163785
-0.464727
0.462366
0.0331818
0.0912237
-0.449871
0.428948
-0.0824422
-0.0301014
-0.404964
0.378091
-0.126352
-0.106781
-0.353609
0.330789
-0.124781
-0.121596
-0.312538
0.295448
-0.106685
-0.110027
-0.280864
0.268099
-0.0859454
-0.0911992
-0.260039
0.256375
-0.0497166
-0.0667669
-0.257318
0.261518
0.00870089
-0.0209052
-0.268612
0.276691
0.0654607
0.0377915
-0.289692
0.29512
0.114839
0.0884655
0.125075
0.160997
-0.16448
0.32613
0.367333
0.175445
-0.183162
0.259622
0.292736
0.18003
-0.174089
0.210517
0.229393
0.166137
-0.157033
0.19187
0.193529
0.148216
-0.139136
0.202487
0.190819
0.129736
-0.120344
0.228221
0.211679
0.111884
-0.102152
0.260528
0.24381
0.269555
-0.0515596
-0.199237
0.0591827
-0.248718
0.0429076
-0.191845
-0.0428071
-0.285979
0.116115
-0.203157
-0.147483
-0.325767
0.149314
-0.223527
-0.219059
-0.347457
0.146723
-0.248953
-0.230502
-0.365267
0.131787
-0.274473
-0.196614
-0.367335
0.109249
-0.0937776
-0.318234
0.122751
-0.307621
-0.14762
-0.316123
-0.0740051
0.0653613
-0.316436
-0.0935498
-0.288935
0.00584725
0.220316
-0.218252
0.318109
-0.336529
-0.0480021
-0.292824
0.225232
0.0734389
-0.0342464
0.360823
-0.377571
-0.0455475
-0.0520273
0.399688
-0.415127
-0.0202454
-0.036611
0.427219
-0.43205
0.0156505
-0.00446684
0.432742
-0.424195
0.0539838
0.0344817
0.412999
-0.394767
0.0749575
0.0648065
0.377436
-0.356374
0.0731568
0.073624
0.338844
-0.320328
0.0566028
0.0638665
0.306113
-0.292684
0.0356677
0.0457574
0.283669
-0.277458
0.0151172
0.0267297
0.275098
-0.275804
-0.0055373
0.00766715
0.277957
-0.281487
-0.0283622
-0.0135327
0.28565
-0.292472
-0.0495709
-0.0369329
0.301708
-0.314387
-0.0598928
-0.0534466
0.328616
-0.345269
-0.0626201
-0.0594923
0.363095
-0.382353
-0.0572787
-0.0592899
0.400451
-0.415572
-0.0369337
-0.0478031
0.424305
-0.421124
0.00407978
-0.0177042
0.404943
-0.381508
0.0571869
0.0303585
0.36254
-0.348471
0.0706656
0.0717871
0.337143
-0.326699
0.0549173
0.0614422
-0.27171
0.263927
-0.0677724
0.279369
-0.297735
-0.0754117
-0.0793807
-0.258773
0.252886
-0.0425913
-0.0574791
-0.246059
0.245024
-0.0131779
-0.0274759
-0.253224
0.271317
0.0298111
0.00580239
-0.293718
0.319498
0.0827373
0.0531393
-0.344637
0.372005
0.128557
0.101773
-0.398222
0.42526
0.153036
0.136982
-0.447777
0.465555
0.12763
0.141267
-0.473474
0.470825
0.0358309
0.0833042
-0.456933
0.43496
-0.0604701
-0.0162092
-0.411275
0.386017
-0.101094
-0.0830955
-0.363084
0.340845
-0.102542
-0.098664
-0.322878
0.30583
-0.0896373
-0.0920595
-0.291782
0.27832
-0.0724839
-0.0771509
-0.270219
0.265492
-0.0449893
-0.0586656
-0.267712
0.272794
0.00361879
-0.0231253
-0.282444
0.290958
0.0569469
0.0281411
-0.302341
0.321567
0.0956125
0.0770828
-0.336151
0.353503
0.123567
0.110491
0.133533
0.140897
-0.15238
0.337612
-0.132235
0.40791
0.375995
0.15769
-0.161599
0.26353
0.298047
0.157698
-0.150896
0.203715
0.225492
0.142395
-0.132846
0.182321
0.185029
0.123632
-0.114635
0.19349
0.181604
0.106126
-0.0998445
0.221939
0.20317
0.0905659
-0.0813601
0.251322
0.234531
0.0802571
-0.0767773
0.278959
0.268452
0.102104
0.343444
0.302353
-0.0968759
0.11296
-0.334318
-0.311814
-0.0827965
0.0611893
-0.0704578
-0.307167
-0.316756
0.0512461
0.043951
-0.200281
-0.0438496
-0.247675
-0.38821
0.118707
0.128186
-0.203917
-0.148227
-0.285235
0.354758
-0.296435
0.0151156
-0.0337907
0.0617372
0.315498
-0.00605456
0.327022
0.169607
-0.22345
-0.227037
-0.317788
0.16953
-0.246334
-0.253292
-0.324667
0.151921
-0.269087
-0.225645
-0.336236
0.14155
-0.293272
-0.179113
-0.335842
0.129828
-0.32449
-0.127532
-0.282141
0.103356
-0.0856873
-0.329483
0.118013
-0.348975
-0.0830696
-0.276323
0.0580149
-0.0693193
-0.295863
0.0463221
-0.305063
-0.218151
0.323018
-0.340503
-0.0305177
-0.00766302
0.356222
-0.372646
-0.0291243
-0.0363076
0.388298
-0.399094
-0.00944943
-0.0209587
0.408313
-0.41352
0.0208578
0.00475183
0.413578
-0.407379
0.0477847
0.0345403
0.396765
-0.38147
0.059662
0.0541921
0.365076
-0.346997
0.0550775
0.0572304
0.330712
-0.315723
0.0416135
0.047582
0.303895
-0.295271
0.0270439
0.0339295
0.289507
-0.287402
0.0130129
0.0209652
0.286572
-0.288161
-0.00394788
0.00683659
0.29014
-0.295004
-0.0234981
-0.0115535
0.301633
-0.311451
-0.0397522
-0.0303047
0.321902
-0.332784
-0.0490112
-0.0429953
0.342776
-0.353071
-0.052326
-0.0494999
0.363516
-0.374628
-0.0461665
-0.0488444
0.385407
-0.395021
-0.0273197
-0.037024
0.400313
-0.400449
0.00421534
-0.0124127
0.392531
-0.376009
0.0406646
0.0224412
0.355858
-0.339428
0.0542364
0.0516357
0.331287
-0.323945
0.0475752
0.0533005
0.314558
-0.305747
0.0375102
0.0418599
-0.317507
0.310206
-0.0681109
0.330273
-0.34299
-0.0729701
-0.0700305
-0.294325
0.2835
-0.0569478
-0.0634995
-0.273149
0.26719
-0.0366331
-0.0471277
-0.261618
0.257713
-0.00927296
-0.0219037
-0.258918
0.268683
0.0200464
0.00459728
-0.285675
0.3102
0.0582124
0.0361468
-0.33669
0.366396
0.0988513
0.0752837
-0.394043
0.421162
0.125917
0.109335
-0.44227
0.457966
0.111933
0.12016
-0.464357
0.4614
0.0387882
0.0769138
-0.44926
0.429404
-0.0406146
-0.00406925
-0.407885
0.385032
-0.0782418
-0.0615761
-0.36509
0.345595
-0.0830459
-0.0787218
-0.32991
0.314627
-0.0743544
-0.0763744
-0.302161
0.288995
-0.0593181
-0.0646853
-0.280131
0.274161
-0.03902
-0.0498011
-0.275174
0.280802
-0.0020091
-0.0241379
-0.290828
0.302374
0.0454009
0.0181154
-0.316951
0.326194
0.0863699
0.0625049
-0.337926
0.355933
0.10556
0.0987588
0.101256
0.102839
-0.107308
0.412379
0.44665
0.111986
-0.123208
0.348835
0.380673
0.126198
-0.125792
0.263124
0.301037
0.122242
-0.115933
0.197406
0.221942
0.108412
-0.100449
0.174358
0.177508
0.092761
-0.0851011
0.185831
0.173916
0.0778763
-0.0709328
0.214995
0.195945
0.0641669
-0.0584247
0.24558
0.227765
0.0527954
-0.0529155
0.279079
0.262823
0.311175
-0.0815542
0.101055
-0.348984
-0.353818
-0.0707265
0.037915
-0.050252
-0.292726
-0.297085
0.0292534
0.13815
-0.210244
-0.144996
-0.250906
0.342777
-0.327698
3.67581e-05
0.32913
0.00759232
0.191319
-0.225629
-0.228023
-0.284249
0.194906
-0.248825
-0.264992
-0.306088
0.174264
-0.268677
-0.249578
-0.300734
0.161959
-0.289497
-0.200183
-0.315166
0.150659
-0.314102
-0.159207
-0.304166
0.134987
-0.341463
-0.109191
-0.256019
0.119016
-0.366936
-0.0790804
-0.266562
0.079492
-0.0701182
-0.363191
0.101316
-0.370808
-0.062449
-0.283666
-0.354793
0.340829
-0.056154
0.0590709
-0.36101
-0.0528541
0.0734736
-0.377594
-0.0658579
0.460792
0.0279381
-0.035076
-0.285588
0.0190347
-0.288182
-0.224997
0.330828
-0.34533
-0.0160159
-0.0045331
0.359031
-0.369242
-0.0189128
-0.0226067
0.377498
-0.384422
-0.00252546
-0.0127028
0.388441
-0.389922
0.0223387
0.00877103
0.388283
-0.382916
0.0424182
0.0329009
0.37455
-0.362796
0.0479077
0.0458261
0.349989
-0.336495
0.0415838
0.0444237
0.324399
-0.314196
0.0314109
0.0354853
0.306228
-0.300937
0.0217529
0.0259618
0.296888
-0.294879
0.0110033
0.016916
0.292981
-0.293079
-0.00384991
0.00493872
0.293778
-0.296873
-0.0204032
-0.0108547
0.30126
-0.307584
-0.0334285
-0.0259169
0.314347
-0.322209
-0.0411496
-0.0362319
0.330646
-0.340578
-0.042394
-0.0410631
0.351007
-0.361865
-0.0353086
-0.0384155
0.371228
-0.378685
-0.0198629
-0.0276607
0.382703
-0.382477
0.0039893
-0.00839468
0.376995
-0.365922
0.0295912
0.0169594
0.350888
-0.338126
0.0414752
0.0366018
0.323907
-0.313875
0.0375425
0.0390815
0.305405
-0.29946
0.0315649
0.0333905
0.295573
-0.291682
0.0151436
0.0253662
-0.329542
0.318165
-0.0615934
-0.0594389
-0.310954
0.301632
-0.0587891
-0.0628199
-0.292576
0.284995
-0.049367
-0.0544433
-0.278823
0.274036
-0.0318454
-0.0409554
-0.271094
0.269351
-0.00753002
-0.0189621
-0.269491
0.27374
0.0157972
0.00445774
-0.283192
0.30027
0.041135
0.0266945
-0.321498
0.347479
0.0728698
0.0540555
-0.372032
0.396112
0.101837
0.0847824
-0.415254
0.430419
0.0967685
0.101017
-0.438406
0.439013
0.0381809
0.0689265
-0.431968
0.417109
-0.0257557
0.00297562
-0.399655
0.380381
-0.0589673
-0.0441219
-0.36389
0.347526
-0.0666828
-0.0622306
-0.334439
0.321408
-0.061323
-0.0632871
-0.311094
0.299638
-0.0478623
-0.0543717
-0.290673
0.283398
-0.031745
-0.0408358
-0.281519
0.285574
-0.006064
-0.0222585
-0.293535
0.307419
0.0315161
0.0101544
-0.321222
0.339856
0.0677365
0.0487018
-0.358679
0.379667
0.084572
0.0799356
-0.380785
0.413652
0.0858405
0.100137
0.0991019
0.0646854
-0.0695812
0.417274
0.445477
0.0756539
-0.0795545
0.352735
0.386746
0.080833
-0.0792608
0.261552
0.302316
0.0754851
-0.0701673
0.192088
0.218167
0.0647712
-0.0594886
0.169075
0.172112
0.0545183
-0.0497784
0.181091
0.168946
0.0454474
-0.0417145
0.211262
0.191614
0.0384682
-0.0372652
0.244377
0.224519
0.0297985
-0.0268806
0.276161
0.255356
0.00283996
-0.00294598
0.315604
0.287134
0.0185842
-0.0589225
0.369468
0.34266
0.209869
-0.228794
-0.222483
-0.256446
-0.00870449
0.00536237
-0.28834
-0.0137074
-0.283179
0.339741
-0.365963
-0.0327
-0.073271
0.229295
0.213444
0.300821
-0.0343514
-0.289503
0.289942
0.0147047
-0.285707
0.00156638
0.221337
-0.25206
-0.267777
-0.281464
0.198746
-0.273308
-0.263754
-0.291913
0.182222
-0.28894
-0.221649
-0.279268
0.175498
-0.314336
-0.175441
-0.298932
0.158697
-0.337812
-0.145269
-0.268089
0.143306
-0.365754
-0.0987828
-0.236317
0.116519
-0.382138
-0.0688098
-0.260201
-0.0470805
-0.370552
0.0566226
-0.360826
0.352022
-0.0382768
0.0363378
-0.36689
-0.030273
-0.379195
0.0449801
0.0948829
-0.392217
-0.045
-0.273742
-0.388786
0.0678146
0.040342
-0.0825615
0.271515
-0.439532
0.0670432
-0.0432345
0.297021
-0.237611
0.347697
-0.344722
-0.00293785
-0.0106743
0.345743
-0.347275
-0.0144839
-0.00351229
0.355641
-0.361667
-0.0128866
-0.0142409
0.367479
-0.370997
0.000992506
-0.00689048
0.372525
-0.371174
0.0209886
0.0102983
0.367265
-0.361517
0.03667
0.0289914
0.354033
-0.345799
0.0396736
0.0383424
0.33698
-0.328746
0.03335
0.0356043
0.321128
-0.315095
0.0253776
0.027868
0.309883
-0.306099
0.0179689
0.0207499
0.302564
-0.300182
0.00862086
0.0133813
0.29821
-0.297853
-0.00420692
0.00296711
0.298694
-0.301676
-0.0174212
-0.010014
0.305792
-0.311451
-0.02777
-0.0218009
0.317809
-0.325393
-0.0335657
-0.029873
0.333258
-0.341392
-0.03426
-0.0331982
0.348569
-0.35509
-0.0287879
-0.031239
0.360492
-0.364902
-0.0154528
-0.0222581
0.367186
-0.366424
0.00322706
-0.00611125
0.362187
-0.354441
0.0218454
0.0127228
0.34484
-0.334315
0.0309505
0.0270007
0.324882
-0.31576
0.0284207
0.029648
0.306059
-0.296741
0.0222465
0.0236898
0.0185676
-0.345723
0.338726
-0.0491574
-0.046555
-0.333035
0.32503
-0.0535879
-0.0537477
-0.315371
0.307099
-0.050517
-0.0531609
-0.298783
0.290962
-0.041547
-0.0461273
-0.284921
0.280474
-0.0273986
-0.0349139
-0.278261
0.27796
-0.00722826
-0.0167492
-0.279
0.281887
0.0129096
0.00341749
-0.286979
0.296441
0.0316727
0.0216029
-0.309132
0.326193
0.0558094
0.0413644
-0.344047
0.363937
0.0819473
0.0669277
-0.382398
0.399911
0.0792555
0.0825571
-0.411941
0.416833
0.0332883
0.0568966
-0.413672
0.403104
-0.0151876
0.00613629
-0.38939
0.373381
-0.0429587
-0.0304074
-0.359202
0.345074
-0.0525549
-0.0480516
-0.333624
0.322699
-0.050398
-0.0518369
-0.314515
0.306162
-0.039509
-0.0461872
-0.299143
0.292541
-0.0251428
-0.0338173
-0.288818
0.290054
-0.00729917
-0.0185362
-0.295462
0.307134
0.0198441
0.00474554
-0.320487
0.338586
0.0496372
0.0353493
-0.35563
0.36847
0.0717325
0.0628916
-0.390432
0.407167
0.0691062
0.0781747
0.0667367
0.0404831
-0.0351053
0.455414
0.469361
0.0301472
-0.0304026
0.41753
0.440519
0.0296356
-0.0277532
0.350853
0.385979
0.0253167
-0.0227328
0.258968
0.299879
0.0196491
-0.017189
0.189628
0.215083
0.0151903
-0.0134945
0.167379
0.170113
0.0119343
-0.0102909
0.179447
0.167386
0.00862378
-0.0071526
0.209791
0.189947
0.00663399
-0.0074845
0.245227
0.224
0.00890757
-0.00796173
0.275215
0.256779
0.00317745
0.0138804
0.298546
0.28235
0.273979
-0.0197806
-0.279515
0.281586
-0.0239989
0.00122108
-0.00180956
-0.287751
-0.29104
0.00655409
0.245402
-0.25286
-0.261721
-0.262502
0.22412
-0.277434
-0.268045
-0.277173
0.202121
-0.293207
-0.236741
-0.276821
-0.00126591
-0.283722
0.198531
-0.311973
-0.192014
-0.262695
0.185823
-0.341462
-0.162504
-0.281697
0.16982
-0.364325
-0.133955
-0.232917
-0.0216324
-0.369957
0.0246989
-0.359132
0.35475
-0.0172501
0.0121905
-0.361058
-0.010264
-0.371253
0.0134864
0.148544
-0.397779
-0.0769545
-0.228172
-0.385214
0.0307186
0.115719
-0.402975
-0.0468532
-0.258348
-0.39963
0.0558237
0.0872178
-0.41162
-0.0184621
-0.27506
0.00667007
-0.0269049
0.301821
0.302432
-0.471824
0.266675
0.0519114
-0.0461011
0.410657
-0.0030895
0.00408043
-0.288742
-0.296063
0.00193266
-0.0439864
0.39833
-0.25393
0.328334
-0.350724
-0.0103103
-0.309358
-0.0228075
0.308166
-0.0153749
0.347851
-0.343496
-0.00729269
-0.0135472
0.34275
-0.344951
-0.0122826
-0.00425817
0.349179
-0.354754
-0.00731209
-0.0100131
0.359032
-0.361848
0.00380928
-0.00261265
0.361834
-0.359577
0.0187318
0.0102841
0.354825
-0.348694
0.0305392
0.0242391
0.341921
-0.335289
0.0330409
0.0315693
0.329213
-0.323856
0.0279934
0.0295284
0.319228
-0.315173
0.0213222
0.0232398
0.311477
-0.308202
0.0146932
0.0170548
0.305185
-0.302939
0.00637472
0.0103647
0.301453
-0.301498
-0.0041624
0.00148147
0.302632
-0.305266
-0.0147866
-0.00888027
0.308772
-0.313332
-0.0232104
-0.0182949
0.318217
-0.323708
-0.0280744
-0.0249882
0.329245
-0.335316
-0.0281889
-0.027661
0.341305
-0.347301
-0.0227916
-0.0252505
0.352057
-0.355241
-0.0122682
-0.0175025
0.356069
-0.354884
0.00204188
-0.00528357
0.351312
-0.345408
0.0159417
0.00915099
0.338242
-0.330333
0.0230412
0.0198346
0.323026
-0.316265
0.0216596
0.022341
0.310794
-0.30416
0.015612
0.0182192
0.297812
-0.291589
0.00848196
0.0122199
0.292344
-0.291847
0.00605732
0.00232112
-0.0115652
-0.290302
0.00580413
0.288066
-0.29357
-0.00606107
-0.00184863
-0.35234
0.349142
-0.0350787
-0.0278631
-0.344134
0.337913
-0.0429358
-0.0415475
-0.330213
0.321145
-0.0445201
-0.0460482
-0.314594
0.307575
-0.0434981
-0.0466094
-0.301223
0.294686
-0.0350104
-0.0397749
-0.290055
0.286236
-0.0235798
-0.0302833
-0.284237
0.283948
-0.00693944
-0.0147498
-0.285189
0.287766
0.0103324
0.00217647
-0.291438
0.296842
0.0262687
0.0179312
-0.304125
0.314479
0.0454553
0.0340816
-0.327374
0.344125
0.0651962
0.0540331
-0.361835
0.379486
0.061604
0.0648472
-0.391608
0.397251
0.0276455
0.0447744
-0.395755
0.389285
-0.00871698
0.00763188
-0.379876
0.368173
-0.0312557
-0.0209983
-0.356173
0.343879
-0.0402604
-0.036052
-0.332765
0.322691
-0.0403241
-0.040723
-0.314713
0.308286
-0.0330818
-0.0382093
-0.30321
0.298661
-0.020593
-0.0287419
-0.295647
0.294546
-0.00619816
-0.0155227
-0.297845
0.305121
0.0125678
0.00144705
-0.316607
0.331423
0.0348212
0.0238634
-0.348001
0.36645
0.0532828
0.0463136
-0.385288
0.398564
0.0558297
0.0593372
-0.411104
0.434756
0.0433912
0.0541969
0.0336371
0.00433683
0.0115546
0.439523
0.427597
-0.0158327
0.0193413
0.414021
0.436241
-0.024238
0.0283063
0.346784
0.381082
-0.0312574
0.0333623
0.256863
0.296928
-0.034583
0.0349324
0.189279
0.213862
-0.0343043