/*--------------------------------*- C++ -*----------------------------------*\
  =========                 |
  \\      /  F ield         | OpenFOAM: The Open Source CFD Toolbox
   \\    /   O peration     | Website:  https://openfoam.org
    \\  /    A nd           | Version:  10
     \\/     M anipulation  |
\*---------------------------------------------------------------------------*/
FoamFile
{
    format      ascii;
    class       volVectorField;
    location    "35.5";
    object      U;
}
// * * * * * * * * * * * * * * * * * * * * * * * * * * * * * * * * * * * * * //

dimensions      [0 1 -1 0 0 0 0];

internalField   nonuniform List<vector> 
6397
(
(4.08633 -0.668709 1.84388e-19)
(4.10063 -0.415511 -8.83016e-19)
(4.33676 -1.96815 0)
(4.51298 -2.06892 -8.18707e-21)
(4.15186 -2.31984 -3.89787e-20)
(4.10565 -2.26342 -4.3358e-20)
(3.18329 -1.73497 -9.88433e-19)
(1.74734 -2.77025 1.82217e-18)
(0.783728 2.06613 4.39722e-19)
(0.904028 1.4445 -1.12043e-19)
(2.32026 3.41634 6.36249e-19)
(3.47238 4.07478 8.08562e-21)
(3.68261 0.107155 -3.88531e-20)
(3.67453 0.0949285 -1.64937e-20)
(2.53962 0.110708 3.21247e-20)
(0.90287 1.43289 -4.44696e-18)
(1.69589 0.208687 -2.31359e-18)
(-0.927207 0.194914 2.07533e-18)
(1.28665 0.449912 8.08581e-19)
(2.2162 -0.170814 -2.51834e-18)
(1.78181 0.331732 -1.2814e-18)
(-0.166941 0.429834 -1.60521e-18)
(-0.480398 0.9699 6.40689e-20)
(2.57972 0.460184 -8.02814e-19)
(4.05107 0.129448 0)
(4.31793 0.074664 4.52484e-21)
(4.42866 0.124796 -1.34451e-23)
(2.71057 -0.788643 3.51049e-19)
(2.7347 -0.0388659 -7.67983e-20)
(2.61557 -1.44187 1.31912e-19)
(2.56664 -0.864016 -1.94568e-19)
(5.08055 -1.82659 -1.09203e-19)
(4.96423 -1.8559 -5.68055e-20)
(4.59345 -2.12832 2.36895e-19)
(5.84182 -0.916404 -2.57708e-20)
(5.73378 -1.06638 0)
(5.56592 -1.33558 4.35863e-20)
(5.3815 -1.5023 5.92803e-20)
(5.78182 -0.352676 1.09813e-20)
(5.79767 -0.219366 -1.98372e-20)
(5.94013 -0.469089 0)
(5.8439 -0.704358 0)
(2.67845 -1.86414 -4.89457e-20)
(3.33148 -2.35992 -4.0894e-20)
(3.26136 -2.18514 1.97014e-20)
(3.99905 -2.13178 -3.94997e-20)
(3.69227 -2.38268 -4.81886e-20)
(3.64525 -2.2608 1.18728e-19)
(5.14636 0.08506 4.01188e-20)
(4.91951 -0.0807069 -6.56155e-21)
(4.72912 -0.0860435 8.92274e-20)
(4.60313 -0.1141 -3.61596e-20)
(4.6986 -0.0859524 -2.3027e-19)
(4.57893 1.15959 -9.10692e-20)
(3.60224 0.825502 5.83296e-20)
(4.03867 0.0449268 7.48685e-20)
(4.05504 0.0613595 7.19389e-20)
(4.42393 -0.193054 -1.40086e-19)
(3.16854 2.71323 -9.98803e-20)
(3.11221 2.64503 1.00807e-19)
(3.16991 2.67463 8.65586e-20)
(3.10909 2.57603 -8.51573e-20)
(3.00751 2.42202 -1.03728e-19)
(2.83196 2.20904 1.01955e-19)
(2.63896 1.867 0)
(2.43402 1.34543 1.56145e-19)
(2.298 0.615467 -1.65156e-19)
(2.25219 -0.25472 0)
(3.28128 2.7043 -1.2077e-19)
(3.04491 2.40968 1.22691e-21)
(3.2598 2.52147 1.14428e-19)
(3.28513 2.73235 0)
(3.24178 2.6493 0)
(3.15252 2.49197 0)
(3.01733 2.29695 -2.49562e-22)
(2.83051 2.03649 4.64275e-23)
(2.63289 1.6731 0)
(2.42566 1.15594 -9.63167e-24)
(2.29044 0.475585 0)
(2.2442 -0.314187 0)
(3.20443 2.14688 -1.87685e-19)
(2.92921 2.01887 1.05132e-20)
(2.34533 -1.14772 0)
(2.33353 -1.11077 0)
(3.14151 1.58373 -2.19573e-20)
(2.85065 1.43924 0)
(2.51478 -1.92662 0)
(2.51258 -1.79611 0)
(3.08015 0.871326 4.2345e-19)
(2.77655 0.725627 -3.78215e-20)
(2.76142 -2.50558 0)
(2.76411 -2.31976 0)
(3.02185 0.0780804 -3.23156e-19)
(3.01553 -0.698016 -2.28154e-19)
(2.98866 -2.8367 0)
(2.995 -2.64971 9.69594e-21)
(3.51234 1.06345 0)
(3.45747 -0.526123 4.63309e-19)
(3.44939 0.253502 3.18889e-20)
(3.56436 2.32023 -1.53594e-19)
(3.50869 1.79271 0)
(3.53266 2.75542 -4.44423e-20)
(3.54829 2.63019 1.54789e-19)
(3.38723 2.57337 3.05739e-20)
(3.47986 2.71406 3.76825e-20)
(3.10282 2.12596 2.5001e-22)
(3.26643 2.36869 -3.17261e-20)
(2.7179 1.46529 -1.80771e-21)
(2.91115 1.83761 -2.78751e-20)
(2.41716 0.376047 -2.73445e-20)
(2.53255 0.983337 5.46309e-20)
(2.44989 -1.02705 0)
(2.37682 -0.319772 0)
(2.83843 -2.11815 0)
(2.62088 -1.64829 0)
(3.05915 -2.44209 -1.56977e-20)
(2.67515 -2.02568 -1.9544e-19)
(3.10498 -3.00249 -6.93473e-20)
(2.89824 -2.64343 1.9271e-19)
(2.45453 -0.194969 2.4023e-19)
(2.52181 -1.17985 -2.34764e-19)
(2.60037 1.5346 1.36161e-21)
(2.48606 0.765015 6.08814e-21)
(2.94944 2.37602 0)
(2.7767 2.07469 0)
(3.15746 2.61081 8.91485e-20)
(3.09396 2.53429 1.44594e-20)
(3.12075 2.62159 1.48702e-20)
(3.17366 2.65298 -8.8559e-20)
(2.92021 2.24526 5.61186e-20)
(3.03031 2.497 -5.73941e-21)
(2.69755 1.23845 -1.23892e-19)
(2.78932 1.81188 -5.1142e-20)
(2.59001 -0.164867 0)
(2.60524 0.542251 1.47094e-19)
(3.05469 -1.32099 -1.82653e-19)
(2.75494 -1.39656 -7.61262e-21)
(3.46602 -1.19817 1.16671e-19)
(3.29467 -2.67044 -2.88416e-20)
(3.2184 -2.84486 6.79592e-21)
(3.31119 -3.14621 -1.37738e-21)
(3.2872 -3.14258 6.94678e-20)
(3.41822 -3.24947 0)
(3.48368 -2.81886 1.87523e-20)
(3.4149 -2.44126 -2.46057e-20)
(3.63666 -2.60167 2.447e-20)
(2.60262 -1.40036 5.2404e-20)
(3.94226 -0.466731 -2.52784e-19)
(3.95109 -1.16657 -1.11846e-19)
(2.66244 -1.80951 4.80869e-20)
(3.20905 -3.0079 2.99289e-21)
(4.01288 1.10618 0)
(3.9814 0.340394 -6.26831e-20)
(3.978 2.28958 4.82372e-21)
(3.98853 1.78926 0)
(3.84159 2.66084 -2.13883e-20)
(3.89868 2.57875 3.59247e-20)
(3.60392 2.42144 0)
(3.72852 2.58843 2.81103e-21)
(3.27293 1.92991 0)
(3.44567 2.19615 1.40028e-21)
(2.89955 1.26789 0)
(3.08275 1.63429 2.22247e-21)
(2.61404 0.272119 -1.68413e-21)
(2.72319 0.822434 2.35173e-21)
(2.61882 -0.948915 7.72697e-22)
(2.55019 -0.332085 -1.45231e-21)
(2.96303 -1.89835 4.00889e-24)
(2.75815 -1.47937 -4.22207e-22)
(3.16874 -2.21809 5.89871e-21)
(3.00914 -2.14995 4.45654e-21)
(3.15739 -2.79657 3.07622e-21)
(2.85033 -0.108275 -2.65645e-22)
(2.89035 -1.2002 0)
(2.93067 1.78017 0)
(2.8497 0.951199 -4.76692e-21)
(3.17008 2.55761 0)
(3.02805 2.30381 0)
(3.28493 2.62199 -9.30941e-23)
(3.24961 2.63051 -1.46629e-20)
(3.14528 2.51939 -9.52522e-21)
(3.23887 2.59085 0)
(2.88319 2.0957 -3.48369e-20)
(3.03125 2.37087 0)
(2.63204 1.13961 3.12412e-21)
(2.73645 1.68852 3.49152e-20)
(2.52992 -0.218327 6.09209e-23)
(2.54362 0.475281 1.28121e-20)
(2.55474 -0.864489 -5.25181e-20)
(3.0663 -1.81843 4.89199e-20)
(2.80512 -1.85038 0)
(3.82215 -1.70011 4.13223e-20)
(3.41763 -1.7468 -3.68407e-20)
(3.49408 -3.1694 0)
(3.41706 -3.14421 0)
(3.3933 -2.94972 -1.33228e-20)
(3.59044 -2.1906 -1.03023e-21)
(3.85401 -2.35586 0)
(3.85568 -2.76939 -5.66992e-21)
(3.67004 -2.95405 2.3151e-21)
(3.66185 -3.16639 0)
(3.47343 -3.01046 0)
(3.59448 -2.94181 -3.78939e-20)
(2.72973 -2.16098 5.99444e-20)
(2.71833 -2.10185 0)
(3.7268 -2.02903 -7.31868e-20)
(4.21358 -1.59044 -6.0411e-22)
(4.13615 -1.89533 1.4549e-19)
(2.76086 -1.74953 0)
(2.67938 -1.33763 -1.98146e-20)
(3.38109 -3.05781 0)
(4.45283 -0.378631 3.15317e-20)
(4.43966 -1.04015 0)
(4.52121 1.15949 8.46798e-22)
(4.54228 0.40301 3.73211e-21)
(4.40814 2.24567 -1.02409e-20)
(4.49507 1.80931 0)
(4.15824 2.52725 6.54854e-23)
(4.28046 2.4833 -7.80293e-21)
(3.83221 2.24286 -1.60591e-23)
(3.98197 2.42891 -3.65491e-21)
(3.46204 1.73414 -2.39864e-22)
(3.63837 2.0079 0)
(3.07638 1.0732 0)
(3.26489 1.43124 2.44485e-22)
(2.78831 0.176716 -2.28283e-22)
(2.89949 0.658781 9.57486e-23)
(2.8101 -0.833369 0)
(2.74033 -0.326639 -3.60707e-23)
(3.11697 -1.68153 5.35806e-22)
(2.92764 -1.2849 -1.23894e-22)
(3.32423 -1.98599 1.27204e-21)
(3.63199 -3.24544 -2.49429e-20)
(3.66256 -3.29249 6.33988e-23)
(3.49967 -2.26099 -1.17759e-20)
(3.56152 -2.918 4.3354e-20)
(3.37865 -0.141544 1.16428e-21)
(3.42825 -1.29283 -4.43677e-20)
(3.36407 1.8365 0)
(3.3511 0.959192 4.91862e-20)
(3.45633 2.62828 0)
(3.39657 2.38445 0)
(3.48269 2.60088 1.74124e-22)
(3.49013 2.66294 0)
(3.2692 2.40932 0)
(3.3939 2.52335 0)
(2.94948 1.95149 0)
(3.10976 2.23525 0)
(2.66423 1.0345 1.02755e-20)
(2.79266 1.54851 0)
(2.57815 -0.228828 -6.03362e-23)
(2.59331 0.414297 -1.0501e-20)
(2.61115 -0.821276 2.19348e-20)
(3.04344 -2.14717 3.62669e-20)
(2.83652 -2.16281 -5.60573e-20)
(3.35733 -2.09735 7.92618e-20)
(4.11633 -2.53964 3.55339e-20)
(3.44965 -3.07335 0)
(3.51912 -3.03088 1.68742e-20)
(3.45848 -2.67398 4.00876e-20)
(3.36603 -2.83013 0)
(4.04721 -2.91866 7.81974e-21)
(3.78111 -3.0551 3.14197e-20)
(3.63971 -2.14886 4.84979e-21)
(3.97674 -1.99247 3.45238e-21)
(2.77249 -2.32939 4.70849e-20)
(2.77205 -2.29993 3.90259e-20)
(2.82828 -1.26594 4.40579e-21)
(2.92431 -1.67738 0)
(4.64035 -1.42417 2.28831e-20)
(4.5438 -1.70855 7.54545e-21)
(4.37111 -2.70085 -3.56491e-20)
(4.59988 -2.77609 -9.34894e-21)
(4.21913 -2.95811 -8.88488e-20)
(2.80161 -2.05915 1.6087e-20)
(3.45973 -3.06807 0)
(4.94745 -0.286749 2.32646e-20)
(4.89103 -0.949293 -9.04946e-20)
(5.00932 1.15583 -2.6344e-20)
(5.05598 0.430612 6.82845e-20)
(4.81852 2.14789 0)
(4.96774 1.74341 0)
(4.46995 2.37108 -2.0542e-23)
(4.65002 2.35317 -4.60264e-27)
(4.06164 2.05886 1.59179e-23)
(4.24692 2.25838 0)
(3.63186 1.53495 0)
(3.82572 1.80707 9.1577e-28)
(3.22448 0.887653 0)
(3.4097 1.21763 0)
(2.96704 0.0987131 0)
(3.0609 0.501307 0)
(2.99237 -0.758955 0)
(2.9461 -0.333771 0)
(3.25731 -1.50021 0)
(3.10099 -1.1622 0)
(3.73827 -1.91745 -7.38713e-22)
(3.48384 -1.74462 0)
(4.30621 -2.24932 0)
(4.02497 -2.07108 2.16774e-22)
(4.92277 -2.50033 0)
(4.62874 -2.41226 -4.89521e-21)
(3.88431 -3.10785 -9.01429e-21)
(3.57278 -2.5014 -6.76408e-21)
(3.75512 -2.81811 9.05364e-21)
(4.06359 -3.28233 1.07296e-20)
(3.98437 -3.29751 -6.33941e-23)
(4.10445 -2.36579 -9.56688e-21)
(4.09133 -3.00237 -1.45e-20)
(4.04088 -0.202451 7.06904e-25)
(4.07996 -1.38117 0)
(3.93632 1.83119 0)
(3.98877 0.937508 0)
(3.8284 2.64199 0)
(3.8798 2.39676 0)
(3.70158 2.51954 -1.39049e-23)
(3.77389 2.64097 0)
(3.40502 2.24088 0)
(3.57007 2.37839 0)
(3.05361 1.78745 0)
(3.22375 2.06349 0)
(2.78542 0.924694 1.3288e-21)
(2.90506 1.41145 -1.38244e-21)
(2.69722 -0.216826 1.16931e-21)
(2.70886 0.359294 8.33677e-23)
(2.75608 -0.778295 -7.28038e-21)
(3.04756 -2.3165 -4.02023e-20)
(2.86557 -2.33812 -5.04478e-20)
(3.32663 -2.25283 0)
(3.24289 -2.35725 0)
(3.34277 -2.13785 5.30765e-21)
(4.80352 -2.59138 1.14332e-19)
(5.22442 -2.314 0)
(3.37873 -2.9694 0)
(3.5629 -3.08023 0)
(4.29557 -1.79445 0)
(2.86055 -2.25239 -5.79433e-20)
(3.02341 -1.18582 -6.32187e-21)
(3.12296 -1.58573 0)
(3.18828 -2.57832 3.75334e-21)
(3.86324 -3.04263 -3.90369e-20)
(3.08399 -1.68272 3.70826e-21)
(2.98572 -1.9185 -2.92724e-21)
(4.34688 -2.72234 9.89929e-20)
(4.97096 -1.96381 2.81572e-20)
(5.44151 -1.74413 0)
(2.97819 -2.00383 4.14709e-20)
(3.44183 -3.06077 0)
(5.02624 -1.23119 -6.43745e-20)
(4.56833 -1.58428 -2.95424e-21)
(4.86606 -1.50996 -1.04408e-19)
(5.36664 -0.187716 -3.4713e-20)
(5.28389 -0.809712 7.26065e-20)
(5.40792 1.11913 0)
(5.48417 0.466402 2.09291e-20)
(5.13862 1.98759 6.80785e-27)
(5.35039 1.62671 -7.07892e-27)
(4.69732 2.15781 -2.19403e-23)
(4.94644 2.14777 0)
(4.2134 1.83752 0)
(4.44925 2.04028 0)
(3.74504 1.32334 3.53705e-23)
(3.95089 1.5917 -9.15706e-28)
(3.36001 0.736147 -2.29233e-27)
(3.51456 1.03194 2.37978e-27)
(3.14756 0.064691 0)
(3.21488 0.400909 0)
(3.15243 -0.666969 -4.68543e-23)
(3.12254 -0.3079 0)
(3.40507 -1.28069 4.36038e-23)
(3.25489 -1.00717 0)
(3.8589 -1.64497 5.24256e-22)
(3.63038 -1.48808 0)
(4.41012 -1.92911 3.02446e-21)
(4.13621 -1.78005 -2.39409e-22)
(5.0942 -2.11282 1.73579e-20)
(4.74948 -2.06095 1.89145e-21)
(5.73656 -1.48447 6.81489e-20)
(5.46349 -1.95696 -1.73362e-20)
(3.71061 -2.31539 1.62568e-21)
(3.18709 -1.45754 1.18878e-21)
(3.46236 -1.91951 -1.99764e-21)
(4.13696 -2.98642 1.27877e-20)
(3.9286 -2.68094 -6.44984e-21)
(4.48463 -3.22918 -2.21264e-20)
(4.31591 -3.20172 -4.76615e-21)
(4.7238 -2.37093 0)
(4.61947 -2.97598 2.67158e-20)
(4.74599 -0.258413 -6.78815e-22)
(4.76948 -1.41722 -2.19912e-26)
(4.54402 1.7405 0)
(4.66061 0.859538 0)
(4.24888 2.53838 -1.30452e-22)
(4.40108 2.29657 0)
(3.96509 2.39989 -6.93235e-23)
(4.10189 2.54032 0)
(3.59982 2.07116 0)
(3.79011 2.22935 0)
(3.20263 1.63786 0)
(3.38423 1.8913 0)
(2.93143 0.834403 0)
(3.05074 1.2778 0)
(2.8631 -0.227795 0)
(2.87623 0.308529 1.41207e-22)
(2.93331 -0.730867 3.51596e-21)
(2.82496 -1.07928 -4.25352e-21)
(2.93843 -0.877155 0)
(5.5491 -0.749718 1.55488e-20)
(5.86149 -0.616609 -9.33207e-20)
(3.02303 -2.23814 0)
(3.23543 -1.91503 -1.43875e-22)
(2.92225 -2.40347 -3.698e-20)
(3.09715 -2.38597 3.56435e-20)
(2.78788 -2.40848 2.38686e-20)
(2.81783 -2.4192 -1.33937e-21)
(2.99193 -2.34882 2.22167e-21)
(2.84335 -2.39251 -2.10022e-20)
(3.50413 -2.14722 -3.20766e-20)
(3.22001 -2.26987 5.97608e-21)
(4.14683 -1.79177 0)
(3.83258 -1.98603 2.34035e-20)
(4.39594 -1.58322 3.56012e-21)
(3.21746 -2.7849 -3.78356e-21)
(3.55662 -3.02199 -2.1407e-26)
(2.94022 -2.16566 2.9385e-21)
(3.89822 -2.74353 0)
(2.73696 -1.28026 0)
(4.42696 -2.0555 0)
(2.75769 -0.189354 -4.14421e-22)
(2.64673 -0.299397 4.72076e-23)
(5.05096 -0.874519 -1.34603e-19)
(5.78163 0.540903 2.46915e-20)
(5.53149 0.527654 9.22074e-20)
(4.78528 -1.34971 1.45861e-20)
(4.58766 -1.35122 -4.62656e-22)
(3.35417 -2.94058 -2.18708e-26)
(5.29881 -1.00916 6.10689e-22)
(5.09584 -1.27603 -1.58197e-20)
(5.66696 -0.081346 -1.26339e-20)
(5.56931 -0.642142 0)
(5.67234 1.06368 6.80063e-27)
(5.76623 0.477741 1.49841e-20)
(5.33781 1.79119 0)
(5.58218 1.47977 0)
(4.82112 1.90021 -2.24689e-23)
(5.12346 1.89802 0)
(4.28508 1.58143 0)
(4.5616 1.76252 0)
(3.82935 1.10526 -7.97042e-23)
(4.03579 1.34235 0)
(3.4997 0.58597 -5.14271e-23)
(3.62663 0.847838 0)
(3.31824 -0.00580215 0)
(3.36741 0.297341 0)
(3.33044 -0.641513 -8.88458e-24)
(3.28024 -0.325325 0)
(3.60703 -1.14638 1.01263e-23)
(3.43205 -0.92149 0)
(4.0489 -1.4133 -4.50782e-23)
(3.82249 -1.29866 2.71822e-27)
(4.52415 -1.60482 -1.86857e-23)
(4.28173 -1.50683 0)
(5.18356 -1.71054 2.78031e-21)
(4.8305 -1.68427 4.0951e-22)
(5.87183 -1.25434 -2.15572e-20)
(5.57377 -1.61387 -1.59023e-20)
(5.81397 0.475641 3.48304e-20)
(5.98072 -0.540364 2.00513e-21)
(3.29133 -1.21749 -4.22676e-23)
(2.89476 -0.0603295 3.74923e-22)
(3.05985 -0.686086 0)
(3.84014 -2.08848 2.08178e-22)
(3.55006 -1.67903 -7.33603e-22)
(4.37894 -2.81561 -8.41635e-22)
(4.10433 -2.48043 -1.12322e-23)
(4.89077 -3.09184 5.37031e-23)
(4.6439 -3.04098 -7.66966e-22)
(5.3069 -2.32687 0)
(5.12402 -2.88214 0)
(5.40591 -0.327594 3.24014e-22)
(5.40621 -1.43067 -3.80347e-26)
(5.12799 1.5908 3.0983e-26)
(5.30133 0.74359 -3.27991e-26)
(4.6531 2.36154 3.16863e-23)
(4.9056 2.123 0)
(4.17873 2.22816 0)
(4.39753 2.3712 0)
(3.75675 1.85805 -7.92611e-24)
(3.95957 2.0362 0)
(3.35312 1.46796 0)
(3.5276 1.69234 0)
(3.11082 0.75159 -3.95408e-23)
(3.19016 1.16085 0)
(3.06233 -0.211678 9.07996e-23)
(3.04364 0.281273 -2.26373e-22)
(3.24707 -1.11446 9.4557e-21)
(3.09915 -0.692219 0)
(3.51037 -1.80023 1.31807e-20)
(3.33172 -1.4876 -2.18173e-20)
(3.57488 -2.06138 -1.80098e-20)
(2.89655 -2.49065 0)
(3.34725 -2.46227 -3.8874e-20)
(3.09406 -2.48976 2.7383e-21)
(2.75271 -2.40976 0)
(2.792 -2.46739 0)
(2.9325 -2.28542 -1.35044e-20)
(2.79076 -2.3646 -3.96295e-27)
(3.37606 -2.04314 6.56896e-21)
(3.13319 -2.18185 2.23297e-20)
(3.88855 -1.66954 0)
(3.63902 -1.87074 -7.97091e-21)
(2.68135 0.543202 -1.06582e-23)
(2.80803 0.588072 -1.09459e-21)
(5.62897 1.65008 -4.84542e-20)
(5.51644 1.48477 -2.43588e-20)
(4.31882 -1.26038 1.1673e-20)
(4.11752 -1.46328 -4.85611e-21)
(3.00905 -2.39441 -3.8591e-25)
(3.50782 -2.68995 0)
(2.72533 -1.48677 0)
(3.89455 -2.04675 -1.11743e-24)
(2.55675 -0.431977 -2.91679e-23)
(4.45886 -0.903301 -4.48802e-20)
(2.57373 0.550981 2.65173e-23)
(5.05771 0.507963 0)
(2.8411 1.12994 -6.15582e-21)
(2.71518 1.19781 4.19015e-23)
(5.42203 1.74759 -1.35414e-19)
(5.20028 2.13285 3.00548e-20)
(5.43707 2.37563 3.6746e-20)
(3.05327 0.975575 9.65043e-21)
(3.03855 1.42778 6.17662e-21)
(3.32268 1.14701 1.05597e-20)
(4.90979 2.29717 -9.02453e-21)
(4.97659 1.71908 2.98794e-20)
(4.56021 1.8638 9.38607e-21)
(4.44672 -1.07175 1.11575e-20)
(4.1513 -1.13296 0)
(4.28042 -0.944654 -1.3499e-20)
(3.21977 -2.57179 -3.13422e-26)
(4.9215 -1.12183 -1.18635e-21)
(4.70049 -1.13222 1.383e-20)
(5.44309 -0.785579 1.43749e-20)
(5.22528 -1.03897 1.17264e-21)
(5.81719 0.0159682 0)
(5.70399 -0.473201 0)
(5.79925 0.964524 0)
(5.90452 0.457662 0)
(5.42225 1.5545 0)
(5.68493 1.28265 0)
(4.87471 1.61127 0)
(5.18894 1.61075 0)
(4.33817 1.31106 -3.49971e-27)
(4.61588 1.47256 3.63567e-27)
(3.91273 0.901131 4.43281e-23)
(4.11399 1.11187 5.75481e-27)
(3.60685 0.454133 5.1427e-23)
(3.7353 0.696598 0)
(3.4376 -0.0449351 0)
(3.48247 0.225162 0)
(3.48421 -0.522117 -5.3022e-24)
(3.40642 -0.276818 0)
(3.77536 -0.878294 5.52544e-24)
(3.59118 -0.703115 0)
(4.16513 -1.16211 4.50709e-23)
(3.95901 -1.01377 0)
(4.64088 -1.38064 7.08915e-23)
(4.38392 -1.28659 3.04381e-27)
(5.22944 -1.38669 1.08158e-21)
(4.93471 -1.41597 0)
(5.80249 -1.01994 1.49521e-21)
(5.53571 -1.2806 -8.70447e-22)
(5.85588 0.280874 -5.45538e-21)
(5.96731 -0.511199 1.18099e-21)
(5.46986 1.13992 -2.39214e-20)
(3.00296 0.076367 5.72792e-21)
(2.92844 0.607974 -1.5639e-20)
(3.40697 -0.995659 2.27229e-23)
(3.17487 -0.493305 7.71096e-22)
(3.91104 -1.8065 3.68761e-21)
(3.64604 -1.42428 -3.8653e-21)
(4.52385 -2.49733 -1.65754e-25)
(4.21003 -2.1693 1.14058e-23)
(5.19106 -2.8044 -5.36685e-23)
(4.85844 -2.7303 -1.68269e-26)
(5.7416 -2.16481 0)
(5.4982 -2.64619 0)
(5.9066 -0.374804 -5.52107e-26)
(5.88088 -1.36856 5.84244e-26)
(5.56964 1.38809 0)
(5.78142 0.609463 0)
(4.95693 2.06277 3.55679e-23)
(5.27196 1.86161 0)
(4.34043 1.9765 0)
(4.61895 2.07928 0)
(3.88242 1.65221 7.92613e-24)
(4.08376 1.81248 0)
(3.49505 1.31163 0)
(3.65214 1.49896 0)
(3.2767 0.687775 -1.09324e-23)
(3.32467 1.04557 1.12746e-26)
(3.26894 -0.188664 -8.82528e-23)
(3.20618 0.265666 0)
(3.43292 -1.03333 0)
(3.29246 -0.639042 -6.91879e-24)
(3.72417 -1.6916 -6.289e-21)
(3.5598 -1.38383 -4.12699e-23)
(3.90231 -1.93277 1.54696e-20)
(3.36582 -2.49312 -1.0571e-19)
(3.72561 -2.42722 5.1304e-20)
(2.83075 -2.45346 0)
(3.08264 -2.51918 0)
(2.65564 -2.30369 -2.31406e-24)
(2.69708 -2.40686 -4.91144e-27)
(2.80605 -2.13067 -1.57943e-24)
(2.68547 -2.23083 -3.13745e-27)
(3.21742 -1.88728 -1.38274e-23)
(2.98785 -2.02001 -2.11514e-27)
(3.74656 -1.54269 7.78587e-21)
(3.48199 -1.72542 4.54009e-22)
(3.96859 -1.34072 4.32921e-21)
(2.818 -1.68901 6.73528e-25)
(3.43859 -1.96934 -2.13162e-25)
(2.57005 -0.539876 0)
(3.86614 -0.895915 1.25607e-24)
(2.50313 0.541203 4.78049e-23)
(4.45637 0.553831 4.49672e-20)
(2.63819 1.31845 -9.11037e-23)
(4.95357 1.83356 7.9569e-21)
(2.87223 1.63513 -3.8102e-23)
(5.20114 2.60097 0)
(3.60453 1.2756 -1.18906e-20)
(3.31182 1.52375 0)
(5.19125 2.62924 1.72408e-20)
(4.21024 1.66617 6.41562e-20)
(4.56916 2.10214 7.49671e-21)
(3.75852 1.10281 -2.76582e-22)
(3.81197 1.43778 -1.48473e-20)
(3.92849 1.26388 -1.91217e-22)
(3.93248 1.34535 8.17323e-21)
(4.28651 1.3176 7.78141e-20)
(4.1015 1.08544 8.09915e-20)
(3.93322 -0.987511 0)
(4.08572 -0.845946 -6.11412e-20)
(4.49348 -0.864443 2.45743e-20)
(4.36812 -0.736857 -2.5775e-20)
(3.07553 -1.84178 1.76954e-25)
(4.9622 -0.862466 -7.75255e-21)
(4.75185 -0.892791 -7.01328e-21)
(5.48317 -0.550568 -1.08836e-23)
(5.25517 -0.779333 -1.27625e-21)
(5.82854 0.104619 8.02062e-24)
(5.70769 -0.303049 -1.31908e-26)
(5.80145 0.860306 0)
(5.88644 0.444458 0)
(5.42287 1.31671 0)
(5.6766 1.07675 0)
(4.88532 1.35031 2.8117e-23)
(5.20023 1.31116 0)
(4.37191 1.08866 0)
(4.65604 1.18284 0)
(3.95983 0.722672 0)
(4.1771 0.879113 0)
(3.66767 0.316695 0)
(3.80383 0.527216 0)
(3.55551 -0.0992205 0)
(3.57769 0.13368 0)
(3.66358 -0.484234 6.10405e-23)
(3.56901 -0.261782 0)
(3.90118 -0.840813 3.20285e-24)
(3.76595 -0.641706 1.55546e-26)
(4.18592 -1.07253 0)
(4.02995 -0.968034 0)
(4.5829 -1.12246 1.10839e-23)
(4.37406 -1.10383 -3.04377e-27)
(5.06837 -1.1031 2.68084e-23)
(4.81762 -1.12866 1.04803e-26)
(5.63121 -0.784403 3.34205e-21)
(5.35827 -1.00697 2.22533e-24)
(5.82799 0.110833 -1.88177e-21)
(5.83203 -0.422845 -1.53894e-21)
(5.07993 1.24247 -2.23519e-20)
(5.5575 0.726039 1.46679e-20)
(4.62065 1.42758 -8.55751e-20)
(3.33406 0.754448 1.5728e-21)
(3.57607 0.915166 -2.43162e-22)
(3.10131 0.191132 -1.93316e-22)
(3.13156 0.546321 0)
(3.48999 -0.743062 -2.24658e-23)
(3.25066 -0.266485 -7.80897e-22)
(4.03587 -1.53316 0)
(3.76637 -1.16309 0)
(4.64525 -2.14148 1.16818e-23)
(4.33039 -1.85911 0)
(5.35058 -2.4454 0)
(4.99048 -2.35608 0)
(5.97126 -1.95258 0)
(5.67888 -2.33894 0)
(6.20737 -0.410532 1.20518e-22)
(6.1422 -1.28055 0)
(5.85308 1.14866 0)
(6.07831 0.4566 0)
(5.18357 1.74773 6.31878e-23)
(5.51336 1.56868 0)
(4.51631 1.70868 -1.22113e-23)
(4.81519 1.77508 0)
(4.02017 1.44358 -3.60324e-23)
(4.23109 1.58165 1.6724e-27)
(3.62333 1.16002 -4.98346e-23)
(3.7966 1.3025 -2.19396e-26)
(3.40235 0.647576 -7.40492e-24)
(3.47114 0.93645 0)
(3.41784 -0.142515 0)
(3.38206 0.263222 0)
(3.60141 -0.938873 0)
(3.51153 -0.553292 6.93013e-24)
(3.93024 -1.5631 1.14324e-20)
(3.79808 -1.25489 4.05303e-23)
(4.18315 -1.78324 -1.11796e-20)
(4.29937 -2.22589 0)
(4.73561 -2.05257 -1.30793e-19)
(3.38719 -2.40301 6.39791e-20)
(3.83631 -2.33982 2.42374e-20)
(2.74775 -2.30501 7.89059e-24)
(3.02446 -2.40678 1.48841e-26)
(2.53486 -2.11237 4.76444e-24)
(2.58487 -2.24515 1.06482e-26)
(2.68201 -1.89384 -5.08489e-27)
(2.5685 -2.0113 5.17007e-27)
(3.05821 -1.65582 1.03671e-21)
(2.85444 -1.77961 1.16516e-28)
(3.50663 -1.32976 -7.75612e-21)
(3.27646 -1.50101 -1.05626e-21)
(3.72498 -1.15472 -1.08733e-20)
(2.68251 -0.656131 0)
(3.36027 -0.827804 7.2815e-26)
(2.51396 0.555372 0)
(3.84501 0.553244 -5.38098e-24)
(2.58301 1.44981 -5.5617e-23)
(4.38418 1.95307 -7.60289e-23)
(2.80887 1.85266 7.07353e-23)
(4.72183 2.82623 2.18251e-22)
(3.13993 1.80749 1.61274e-23)
(4.90206 2.92673 2.48958e-22)
(3.54577 1.60973 0)
(4.86615 2.5242 -7.48261e-22)
(4.14476 1.35562 -1.77248e-20)
(4.01557 1.56734 2.54076e-20)
(4.18713 1.76303 8.7567e-22)
(3.97948 0.935583 -8.6242e-20)
(3.69259 1.1027 -7.43392e-20)
(4.17751 -0.715793 -1.59618e-21)
(2.95028 -0.75093 -3.89342e-25)
(4.51507 -0.644666 -2.32913e-20)
(4.20072 -0.485369 1.93713e-19)
(4.37784 -0.653048 -1.18326e-19)
(4.95247 -0.625435 8.01219e-22)
(4.73258 -0.730494 2.14529e-20)
(5.41485 -0.344963 1.08705e-23)
(5.1716 -0.56289 1.60419e-21)
(5.73017 0.167577 -9.45327e-23)
(5.56065 -0.138577 -1.06001e-22)
(5.71586 0.730695 -7.74431e-24)
(5.7217 0.450262 -1.4818e-27)
(5.37175 1.05373 -2.02332e-23)
(5.53092 0.935396 -4.61368e-27)
(4.85983 1.04431 8.67044e-24)
(5.09232 1.09093 0)
(4.35386 0.818115 0)
(4.58139 0.961893 0)
(3.94928 0.515758 -5.63019e-23)
(4.13042 0.695128 0)
(3.69679 0.21231 2.87899e-26)
(3.79983 0.403404 -2.98895e-26)
(3.63364 -0.0657818 3.0452e-26)
(3.64257 0.117723 -3.16057e-26)
(3.69505 -0.341035 -3.14704e-26)
(3.65699 -0.160057 3.26526e-26)
(3.81064 -0.612643 -1.28208e-22)
(3.74604 -0.459333 3.2678e-26)
(4.06115 -0.781021 6.36647e-23)
(3.92122 -0.699523 3.18398e-26)
(4.44573 -0.885557 6.88361e-24)
(4.24796 -0.837488 0)
(4.92831 -0.848803 5.66884e-23)
(4.6815 -0.897644 2.72867e-26)
(5.41221 -0.569339 3.81066e-23)
(5.18419 -0.747371 0)
(5.63522 0.0637369 4.29372e-21)
(5.58706 -0.304013 0)
(5.19295 0.836566 2.07285e-20)
(5.50021 0.469032 -2.22729e-20)
(4.51052 1.04178 0)
(4.81621 1.03265 2.75469e-21)
(4.19467 0.79938 9.05329e-20)
(4.31493 0.920588 -8.63937e-20)
(3.5481 0.93713 1.64521e-21)
(3.84457 1.13807 1.32018e-20)
(3.67788 1.05333 -1.27894e-20)
(3.39548 0.558363 5.15715e-22)
(3.47372 0.760703 5.48368e-23)
(3.20298 0.180435 0)
(3.2886 0.38614 0)
(3.44218 -0.462102 -3.11731e-23)
(3.25769 -0.102433 0)
(4.04677 -1.20598 0)
(3.72856 -0.843513 0)
(4.72932 -1.80583 -1.15162e-23)
(4.38035 -1.53348 0)
(5.44522 -2.11328 0)
(5.07583 -2.01447 0)
(6.08097 -1.73644 0)
(5.77376 -2.05015 0)
(6.31349 -0.435483 -6.66132e-23)
(6.24698 -1.1748 0)
(5.93507 0.881559 0)
(6.17208 0.293691 0)
(5.27958 1.40427 2.33366e-26)
(5.58893 1.23936 -2.47146e-26)
(4.65202 1.40909 1.21982e-23)
(4.93486 1.43962 1.39604e-26)
(4.15562 1.22249 8.18897e-23)
(4.36836 1.33104 3.67898e-26)
(3.75881 0.990369 -6.86576e-24)
(3.94304 1.11092 0)
(3.51378 0.594483 5.79341e-23)
(3.61619 0.831119 -6.14616e-26)
(3.54039 -0.082944 6.1806e-26)
(3.52332 0.290016 -6.55601e-26)
(3.76691 -0.811864 0)
(3.68022 -0.442075 0)
(4.13743 -1.38592 -4.06466e-21)
(3.97675 -1.1045 6.12516e-21)
(4.59154 -1.74077 0)
(4.37877 -1.59259 -3.17075e-22)
(4.79025 -1.83116 0)
(4.40393 -2.01217 0)
(5.2567 -1.65245 -1.72844e-20)
(4.88254 -1.84312 6.24356e-20)
(3.40479 -2.13455 -9.67071e-21)
(3.89813 -2.11054 -1.91934e-20)
(2.69309 -2.00926 1.52432e-24)
(2.9955 -2.11092 0)
(2.43056 -1.80048 -2.45601e-24)
(2.50358 -1.93255 0)
(2.56011 -1.56944 0)
(2.45565 -1.68962 0)
(2.93395 -1.35028 -1.92969e-25)
(2.72214 -1.45615 0)
(3.42328 -1.11528 0)
(3.17866 -1.23895 0)
(3.80127 -0.795872 0)
(3.62838 -0.96411 -7.7836e-21)
(4.10217 -0.507795 0)
(3.95208 -0.633142 1.73467e-20)
(4.36117 1.41921 3.16721e-20)
(4.05314 1.21956 0)
(3.89148 0.867066 5.45247e-21)
(4.08055 0.718037 5.78152e-21)
(2.63969 0.564062 6.299e-24)
(3.31363 0.563261 0)
(5.23856 -1.53042 0)
(2.58917 1.60263 8.35408e-24)
(3.80398 1.95509 4.14801e-24)
(4.23219 -0.419205 4.86387e-20)
(4.0195 -0.440824 0)
(4.11861 -0.364551 0)
(2.79643 2.09744 2.30129e-23)
(4.26088 2.99263 5.48203e-23)
(3.08424 2.0873 0)
(4.4261 3.28003 -2.57809e-22)
(3.4242 1.8789 0)
(4.54892 2.84492 0)
(3.73882 1.7323 0)
(4.51379 2.24467 -2.82648e-21)
(4.24364 1.62047 -5.1609e-21)
(3.7705 1.46067 2.13855e-21)
(4.28602 1.28149 0)
(4.54891 1.45848 -1.4361e-20)
(3.53512 0.985064 -4.85737e-20)
(3.78276 0.816588 9.24376e-20)
(3.95054 0.637292 -9.05815e-20)
(2.89494 0.56408 2.65603e-25)
(4.53153 -0.535813 1.31694e-20)
(4.36752 -0.492286 0)
(4.89154 -0.467309 -2.20959e-21)
(4.69656 -0.493608 -5.71982e-21)
(5.22867 -0.19785 0)
(5.05088 -0.327993 2.67831e-21)
(5.46214 0.229099 0)
(5.34948 0.0255442 1.94111e-22)
(5.45638 0.628351 7.74567e-24)
(5.48561 0.45293 0)
(5.16229 0.834026 5.07637e-23)
(5.32772 0.76495 0)
(4.7126 0.791084 4.94333e-24)
(4.93278 0.839935 0)
(4.26841 0.597896 -5.1012e-23)
(4.46778 0.708982 -4.87232e-26)
(3.95087 0.373273 5.62467e-23)
(4.08288 0.498344 5.62192e-26)
(3.80261 0.162438 -6.12795e-23)
(3.857 0.292222 5.73016e-26)
(3.79035 -0.0720631 -6.2305e-26)
(3.79329 0.0817116 6.06804e-26)
(3.85491 -0.366839 -6.63127e-23)
(3.82361 -0.188935 6.72021e-26)
(4.04088 -0.62252 1.32522e-22)
(3.94046 -0.494136 0)
(4.32738 -0.722936 2.19126e-24)
(4.18915 -0.683441 6.6639e-26)
(4.59871 -0.717555 -1.24953e-22)
(4.47025 -0.724499 0)
(4.8805 -0.638106 -5.66567e-23)
(4.73802 -0.688673 -6.20008e-26)
(5.17043 -0.402574 0)
(5.02788 -0.54375 0)
(5.32853 0.0414182 8.39152e-21)
(5.28229 -0.207486 -8.78206e-21)
(5.10655 0.590662 0)
(5.27316 0.324756 -4.84277e-27)
(4.60301 0.797684 3.60007e-21)
(4.85466 0.757681 -5.5501e-21)
(4.25276 0.654099 4.59836e-20)
(4.39923 0.740542 -4.58881e-20)
(4.00539 0.477538 0)
(4.12604 0.568784 -5.75683e-21)
(4.17243 0.932632 7.47452e-21)
(4.4842 0.975285 -6.52276e-22)
(4.33576 0.960036 -1.27162e-20)
(3.82868 0.819822 1.65375e-20)
(4.00986 0.890696 -7.36483e-21)
(3.57208 0.518687 8.22681e-21)
(3.67669 0.701907 -2.51343e-20)
(3.41902 0.145006 -3.40228e-23)
(3.49701 0.328692 2.81111e-22)
(3.45699 -0.270363 3.11716e-23)
(3.39068 -0.0439167 0)
(3.92489 -0.844186 1.21762e-25)
(3.64006 -0.546033 -1.28707e-25)
(4.64613 -1.40426 -1.0058e-25)
(4.26048 -1.1447 1.06328e-25)
(5.40386 -1.73285 -1.49163e-23)
(5.01834 -1.61644 0)
(5.99063 -1.48604 -4.62525e-27)
(5.71729 -1.71833 4.89227e-27)
(6.17406 -0.469348 -5.38625e-23)
(6.12545 -1.05175 -4.4004e-26)
(5.84361 0.621851 0)
(6.0498 0.122881 0)
(5.24753 1.11951 2.31954e-23)
(5.53296 0.951558 -8.65105e-28)
(4.69645 1.15647 -5.94571e-26)
(4.94554 1.17073 6.29815e-26)
(4.25763 1.02091 7.04815e-24)
(4.45356 1.11055 0)
(3.89869 0.822403 5.67209e-23)
(4.07642 0.936423 0)
(3.63488 0.530428 -6.56269e-23)
(3.75886 0.72456 0)
(3.64354 -0.0122281 1.28489e-25)
(3.62565 0.323157 -1.36256e-25)
(3.9022 -0.655684 0)
(3.7725 -0.305873 0)
(4.29257 -1.18199 2.53931e-21)
(4.08762 -0.927589 7.0617e-21)
(4.77811 -1.49655 -1.49113e-20)
(4.50949 -1.38033 3.49493e-21)
(4.99723 -1.56351 0)
(5.38577 -1.3695 1.97365e-20)
(5.67772 -1.12342 -3.78859e-20)
(4.53217 -1.61237 0)
(5.0259 -1.48437 -1.939e-20)
(3.46002 -1.6676 4.71674e-23)
(3.99823 -1.66985 0)
(2.61657 -1.55303 -9.34308e-24)
(2.97982 -1.6329 -8.79166e-26)
(2.32091 -1.36829 0)
(2.40073 -1.47529 0)
(2.46867 -1.17442 0)
(2.35196 -1.27272 0)
(2.82357 -0.983191 1.91858e-25)
(2.63659 -1.07611 0)
(3.23269 -0.80529 0)
(3.01879 -0.894214 0)
(3.67519 -0.620799 -1.70785e-20)
(3.46287 -0.714033 7.52149e-21)
(3.86261 -0.531086 5.4087e-22)
(4.55141 1.29455 0)
(4.62915 0.97909 8.40909e-21)
(3.8113 0.498365 6.81242e-20)
(3.88915 0.351349 -8.33443e-20)
(2.69895 1.74399 -1.19345e-24)
(3.30824 1.92733 1.77051e-24)
(4.27394 -0.315545 -7.64262e-20)
(4.19343 -0.236268 5.18155e-20)
(2.80811 2.37323 -7.48187e-23)
(3.76485 3.00804 0)
(3.09524 2.38867 -1.14016e-22)
(4.09962 3.47542 -1.37093e-22)
(3.40036 2.16954 0)
(4.09052 3.22603 0)
(3.66987 2.00545 -6.57784e-22)
(4.25041 2.52998 3.43814e-23)
(3.99153 1.82458 0)
(4.12278 1.97478 3.55047e-21)
(4.44101 1.67991 -4.8549e-21)
(3.39193 1.22965 0)
(4.76622 1.43432 4.50805e-21)
(3.4192 0.942 4.29956e-20)
(4.77617 0.970604 -2.05319e-20)
(4.79547 1.24415 1.19558e-20)
(3.66746 0.668065 -6.97011e-20)
(4.6616 0.827089 -6.83867e-21)
(4.82249 0.745017 -5.6269e-21)
(4.93 0.934132 2.57374e-20)
(5.96634 -0.61037 6.64075e-20)
(3.70754 0.280434 1.61323e-21)
(3.81219 0.182645 1.81258e-19)
(2.929 1.85034 0)
(4.54714 -0.342509 -5.92723e-21)
(4.38866 -0.388483 2.54726e-20)
(4.83687 -0.276074 0)
(4.66191 -0.381542 0)
(5.0696 -0.0541453 0)
(4.92216 -0.226724 0)
(5.17868 0.28789 0)
(5.09857 0.0941554 0)
(5.12888 0.562919 3.20998e-23)
(5.13986 0.443682 2.01108e-27)
(4.89364 0.654889 -3.05894e-23)
(5.00875 0.643074 6.60217e-26)
(4.54288 0.581931 -4.18095e-23)
(4.70756 0.645784 8.3142e-26)
(4.21665 0.437122 5.09611e-23)
(4.35828 0.523445 1.00612e-25)
(4.0077 0.296927 0)
(4.09142 0.378505 -3.45814e-27)
(3.90658 0.154761 6.12206e-23)
(3.94818 0.246362 3.75292e-27)
(3.86622 -0.0344698 0)
(3.88656 0.0857268 3.98565e-27)
(3.89344 -0.252483 3.09307e-25)
(3.87971 -0.127979 0)
(4.01808 -0.426221 -1.3376e-22)
(3.95336 -0.33527 0)
(4.20476 -0.560513 -6.60824e-23)
(4.11228 -0.490542 1.35135e-25)
(4.434 -0.62597 1.31944e-22)
(4.31312 -0.606669 0)
(4.71742 -0.528236 0)
(4.56996 -0.597806 0)