/*--------------------------------*- C++ -*----------------------------------*\
  =========                 |
  \\      /  F ield         | OpenFOAM: The Open Source CFD Toolbox
   \\    /   O peration     | Website:  https://openfoam.org
    \\  /    A nd           | Version:  10
     \\/     M anipulation  |
\*---------------------------------------------------------------------------*/
FoamFile
{
    format      ascii;
    class       volVectorField;
    location    "29";
    object      U;
}
// * * * * * * * * * * * * * * * * * * * * * * * * * * * * * * * * * * * * * //

dimensions      [0 1 -1 0 0 0 0];

internalField   nonuniform List<vector> 
28942
(
(-0.100006 0.0767999 -6.55452e-20)
(-0.0925945 0.0933286 -1.3905e-20)
(0.469878 -0.328296 3.41212e-20)
(1.01564 0.0425278 -1.45539e-19)
(0.993969 0.0523179 4.7645e-20)
(0.289214 0.0122235 0)
(0.352218 0.0342467 2.78953e-22)
(0.389931 0.0100559 -2.26085e-22)
(1.22486 -0.127876 -5.14356e-21)
(1.21271 -0.113629 1.532e-20)
(-0.106968 -0.156546 -1.01353e-19)
(-0.0973533 -0.11217 4.68537e-20)
(-0.108315 -0.0613852 0)
(-0.102659 -0.0758308 0)
(0.782178 -0.0240043 -3.95621e-22)
(0.776671 -0.0209159 -1.0285e-22)
(0.938365 0.10503 2.98151e-20)
(0.921738 0.0903141 4.82402e-20)
(0.330423 -0.452553 8.11782e-20)
(0.634432 -0.728782 -2.28679e-20)
(1.00133 0.232807 3.69932e-20)
(1.00094 0.220841 0)
(0.0131642 -0.0205427 9.89895e-20)
(-0.0826912 -0.0409605 5.50684e-20)
(0.659156 -0.176557 1.09945e-19)
(1.04229 -0.287249 -9.99256e-20)
(0.201405 -0.457971 4.82495e-19)
(0.209851 -0.379661 -1.86066e-19)
(0.747149 -0.542755 3.21335e-21)
(0.452044 -0.314339 7.49112e-24)
(0.296829 -0.0202644 0)
(0.385182 -0.0286439 3.31951e-22)
(0.480357 -0.0102244 1.05395e-20)
(0.641205 -0.0241702 -1.34713e-21)
(0.463016 0.495608 1.85618e-20)
(0.385276 0.544692 -1.0736e-20)
(0.606588 0.697347 -1.14061e-19)
(0.393552 0.626457 -4.89673e-20)
(0.155169 0.0173268 -2.51217e-22)
(0.211222 0.495704 -7.196e-20)
(0.656473 -0.0598667 0)
(0.855496 -0.0780456 0)
(1.51199 -0.184523 3.36666e-22)
(1.50492 -0.218951 -1.95131e-21)
(1.47999 -0.175533 -7.899e-22)
(0.537687 0.0141911 3.17598e-22)
(0.509408 0.0257654 -5.17867e-22)
(0.671044 0.0152864 -2.47797e-21)
(0.652027 0.0146286 6.92064e-22)
(0.556559 0.0130527 -5.98676e-21)
(0.461225 0.00415811 3.71803e-21)
(1.13729 0.0199951 -8.07581e-21)
(1.13605 0.0139088 -7.73133e-21)
(1.22085 -0.146255 -1.54383e-22)
(1.20682 -0.131885 3.26163e-21)
(1.32437 -0.203854 8.65784e-20)
(1.54797 -0.281758 4.38874e-20)
(-0.0743799 -0.0339056 -6.49083e-20)
(-0.0977471 -0.0498126 0)
(-0.0860641 -0.0433621 2.33455e-20)
(-0.0719889 -0.0333538 5.69949e-20)
(-0.0256733 -0.0115996 -4.5265e-20)
(-0.0198346 -0.0067374 -4.81528e-20)
(1.35465 -0.58783 0)
(1.5008 -0.519397 1.56358e-20)
(1.3844 -0.450247 -6.2943e-21)
(1.31122 -0.442967 0)
(0.936249 -0.223812 -2.97903e-20)
(0.955826 -0.243706 -1.95032e-20)
(-0.0695377 0.0564152 2.17785e-19)
(-0.0818946 0.0530013 -6.89731e-20)
(-0.0964247 0.0766187 1.73075e-19)
(0.934943 -0.313702 0)
(0.947934 -0.275411 1.03605e-19)
(0.883241 -0.434216 2.68812e-20)
(1.48353 0.211479 6.93864e-20)
(1.50664 0.173447 -7.66564e-20)
(1.45017 0.134953 -4.85054e-20)
(0.144663 -0.0822347 1.50752e-21)
(0.206326 -0.130291 -3.89053e-20)
(1.00371 -0.632393 -5.16887e-21)
(0.737772 -0.505509 1.30886e-20)
(-0.0992947 0.0511828 3.70402e-19)
(-0.0975039 0.0450535 -1.42327e-19)
(1.30435 0.567193 -1.12908e-20)
(1.21736 0.526949 -1.4306e-21)
(1.11501 0.657491 -4.44405e-21)
(0.970719 0.663216 1.25308e-20)
(0.935499 0.650304 -9.195e-21)
(0.705907 0.480936 2.21274e-21)
(0.767659 0.56875 2.48943e-22)
(0.804643 0.646742 2.05794e-21)
(-0.0834593 -0.416974 -1.54938e-20)
(-0.0543892 -0.402628 -3.78537e-21)
(-0.0733849 -0.234421 7.59091e-21)
(-0.0907905 -0.295479 -1.13767e-19)
(-0.0995757 -0.337172 1.44811e-19)
(0.39624 0.311186 -1.76537e-20)
(0.442518 0.375121 2.05712e-21)
(-0.0115348 0.00640797 0)
(1.00708 0.00427692 0)
(0.965341 0.0534494 -1.04335e-19)
(0.889879 0.135607 7.77053e-20)
(1.08017 0.118386 0)
(1.27116 0.00243765 0)
(1.26523 -0.00218311 0)
(1.2782 -0.00680076 3.83387e-20)
(1.09144 0.152538 -5.3807e-21)
(1.0888 0.165382 5.7282e-20)
(1.08121 0.144721 3.05838e-20)
(-0.0698687 -0.0331217 1.3242e-19)
(-0.0620806 -0.0293757 -1.48615e-19)
(0.146744 0.0436034 -1.21244e-19)
(0.134502 -0.00333353 1.17199e-19)
(-0.067671 0.0536539 2.22569e-19)
(0.161905 0.238921 8.00259e-20)
(0.378998 0.231939 1.96132e-19)
(0.294449 0.454903 1.64741e-20)
(0.131126 0.356511 -4.63904e-19)
(1.31014 0.428618 -1.63216e-22)
(1.15857 0.421605 9.80938e-21)
(1.19465 0.395148 -1.75454e-20)
(0.826969 -0.645373 1.18325e-20)
(0.55847 -0.407893 -4.61709e-21)
(0.160505 0.00050908 -2.44239e-19)
(0.150668 -0.0744345 0)
(0.312598 -0.0503239 1.30225e-19)
(0.5211 -0.403129 1.41695e-20)
(0.745538 -0.635889 -3.13679e-20)
(0.637833 0.0172385 1.87811e-21)
(0.67233 0.0164475 -1.46628e-21)
(0.596923 0.0154569 -7.16895e-23)
(0.515953 -0.788071 0)
(0.543603 -0.612456 0)
(1.06121 -0.133437 -1.5502e-20)
(1.04738 -0.115386 9.01671e-20)
(1.03184 -0.0811375 0)
(0.841591 -0.753827 0)
(0.841535 -0.691171 -3.21678e-20)
(0.763039 0.731309 6.99343e-20)
(-0.0113806 -0.0213017 1.0389e-19)
(-0.00634904 0.0050532 -8.05843e-20)
(0.567148 -0.527446 -1.54623e-20)
(1.44058 -0.127925 1.17801e-21)
(1.43819 -0.153082 2.09939e-22)
(1.51747 -0.212832 -1.20019e-20)
(1.53065 -0.190327 1.60564e-20)
(1.53057 -0.166674 5.30767e-20)
(-0.016202 0.0118512 3.4573e-20)
(0.884841 0.714421 6.18305e-20)
(1.01934 0.679554 -1.91896e-20)
(1.12282 0.743435 1.69699e-22)
(0.451645 -0.0162292 -2.33607e-23)
(0.451914 -0.0178922 -7.26447e-22)
(0.495603 -0.0222218 -5.22837e-23)
(0.535653 -0.0214967 4.59513e-24)
(0.825023 0.702259 1.90022e-20)
(0.456283 0.427599 0)
(0.00976733 -0.104657 9.59355e-20)
(-0.0174232 -0.0397665 -1.06169e-19)
(-0.0878268 -0.138566 8.7615e-20)
(0.684248 0.0553919 -2.61023e-19)
(1.23407 0.189794 -1.27815e-19)
(0.60658 -0.0232038 1.74737e-22)
(1.27377 -0.475142 2.04022e-20)
(1.23215 -0.548036 4.81641e-20)
(0.983465 0.258905 8.59947e-20)
(0.968222 0.29438 7.838e-21)
(0.939316 0.184346 5.15997e-20)
(0.957294 0.189999 -3.72735e-20)
(1.00887 0.257379 0)
(1.10834 0.0147048 2.28017e-21)
(1.11107 0.0128864 4.31294e-21)
(1.16536 -0.0779718 -6.9338e-21)
(1.17678 -0.0804119 1.16372e-20)
(1.10058 0.137493 5.7399e-21)
(1.11324 0.142758 -1.55778e-20)
(1.10248 0.148624 0)
(1.09001 0.140986 3.91142e-21)
(1.10192 0.16042 0)
(1.11231 0.214052 -1.35171e-20)
(1.10696 0.229968 -8.21765e-21)
(1.08609 0.259064 -1.58888e-20)
(1.09812 0.245551 0)
(1.12117 0.26191 4.4019e-20)
(1.10502 0.278583 3.00473e-21)
(1.07049 0.278058 -1.01474e-20)
(1.02024 0.337614 -4.43937e-20)
(1.01694 0.282052 -8.22407e-21)
(0.012156 -0.436017 4.93909e-20)
(0.213149 -0.399778 -2.11049e-20)
(-0.0966122 0.0262929 -1.65652e-19)
(0.576795 0.0134945 -1.38134e-21)
(0.707933 0.0154584 0)
(-0.0187675 -0.0075605 1.02788e-19)
(-0.0278683 0.00908493 5.41172e-20)
(0.6614 0.0155635 6.06408e-22)
(0.753342 0.0163792 1.83166e-22)
(0.745694 0.0166929 0)
(0.647881 0.0179359 2.33867e-22)
(0.971644 -0.546482 1.19899e-20)
(0.952755 -0.56539 -6.28638e-20)
(0.969851 -0.513406 -3.41145e-20)
(-0.0474127 -0.0181652 5.84725e-20)
(-0.00235792 0.00800663 -7.45077e-20)
(0.00426383 0.0193626 7.43825e-20)
(-0.0620869 -0.0338042 0)
(-0.0278842 -0.01538 9.58537e-20)
(-0.0257451 -0.0144767 -8.34047e-20)
(-0.0821567 -0.0213399 -8.70758e-20)
(-0.104584 -0.0443623 -8.94034e-20)
(-0.063218 -0.0301696 0)
(0.0557897 0.233813 0)
(0.0258412 0.141579 0)
(0.00929004 0.0807951 0)
(1.25439 0.00188629 -3.98167e-21)
(1.24253 0.00541897 0)
(1.24991 0.00160645 4.03783e-21)
(0.926298 -0.0883935 2.0504e-19)
(0.939542 -0.0942861 -7.45209e-20)
(0.93588 -0.0761154 0)
(1.0293 0.577325 4.02565e-22)
(1.02725 0.56888 -8.04298e-22)
(1.03051 0.58678 2.74585e-22)
(1.02448 0.562314 0)
(1.02091 0.557791 5.19453e-22)
(1.01635 0.555546 0)
(1.02262 0.559627 0)
(1.01106 0.556147 -2.26388e-21)
(1.01981 0.561002 0)
(1.02496 0.560948 5.41166e-22)
(1.02615 0.564607 0)
(1.02673 0.570462 -2.6464e-22)
(1.02649 0.578068 3.99966e-22)
(1.02534 0.586516 -2.74277e-22)
(1.00506 0.558719 2.16675e-21)
(1.01653 0.564255 8.37055e-23)
(1.03082 0.597153 1.6866e-24)
(1.02314 0.595722 4.34732e-22)
(1.02987 0.607687 -2.50246e-21)
(0.998045 0.561536 -2.21137e-24)
(1.01227 0.567691 9.95339e-23)
(1.01953 0.604597 -8.87828e-22)
(0.990458 0.562251 -2.62159e-21)
(0.9823 0.557881 2.61967e-21)
(1.00747 0.568914 -1.84354e-22)
(1.0021 0.564968 -4.4369e-22)
(1.02811 0.616784 2.43386e-21)
(1.01443 0.611876 5.93538e-22)
(0.9738 0.545562 0)
(0.996392 0.553043 4.37817e-22)
(1.02374 0.62353 -3.26148e-25)
(1.00728 0.616277 3.27552e-25)
(0.964982 0.523022 0)
(0.990303 0.530888 0)
(1.01761 0.625346 0)
(0.99805 0.615413 0)
(0.956131 0.488961 0)
(0.984039 0.497182 -2.84737e-22)
(1.00903 0.619884 1.72498e-21)
(0.986501 0.607097 3.93247e-25)
(0.947261 0.442865 -1.53035e-23)
(0.977548 0.45137 3.04539e-22)
(0.998073 0.60413 -1.73309e-21)
(0.972674 0.588532 0)
(0.938736 0.38521 0)
(0.971118 0.393784 0)
(0.984836 0.575403 1.21887e-22)
(0.956802 0.557405 -2.12069e-21)
(0.930768 0.316738 -2.22899e-21)
(0.964873 0.325254 0)
(0.969578 0.531305 5.48581e-23)
(0.93916 0.511495 2.00835e-21)
(0.923687 0.239136 3.3956e-21)
(0.959094 0.246716 1.07339e-21)
(0.951897 0.469181 -2.35407e-21)
(0.920223 0.448895 0)
(0.918065 0.15388 -1.15976e-21)
(0.954031 0.160013 -7.17636e-22)
(0.934619 0.390424 1.27749e-21)
(0.901052 0.370059 -2.49698e-21)
(0.913263 0.0637733 5.04835e-21)
(0.9491 0.0662703 -5.68884e-21)
(0.915092 0.292618 -1.46805e-21)
(0.881573 0.274191 -4.29123e-23)
(0.909708 -0.0296273 0)
(0.945032 -0.0303831 -2.88541e-21)
(0.898016 0.181918 2.86874e-21)
(0.863994 0.166224 -5.52055e-21)
(0.908757 -0.125734 0)
(0.943339 -0.126958 0)
(0.952624 0.31127 1.45246e-21)
(0.93569 0.198474 6.31486e-21)
(0.881523 0.0602024 0)
(0.8477 0.0484475 2.72357e-21)
(0.986839 0.488951 8.43715e-22)
(0.970338 0.408899 -1.68369e-22)
(1.0144 0.590928 0)
(1.00172 0.548658 2.41894e-21)
(1.03254 0.629504 3.5585e-24)
(1.02476 0.616848 0)
(1.04075 0.627567 0)
(1.03781 0.63204 0)
(1.04098 0.607554 0)
(1.04187 0.61867 0)
(1.03632 0.584502 -5.3917e-22)
(1.03928 0.595824 -1.42305e-22)
(1.02846 0.564867 5.12255e-22)
(1.03274 0.574007 5.34012e-22)
(1.01773 0.55226 -9.50007e-22)
(1.02345 0.557747 -1.1524e-21)
(1.00338 0.54866 0)
(1.01107 0.549111 0)
(0.98506 0.551606 5.11397e-24)
(0.994636 0.549996 0)
(0.964049 0.545834 0)
(0.974818 0.551165 0)
(0.941747 0.509646 0)
(0.952946 0.532721 0)
(0.919896 0.429387 0)
(0.930659 0.4753 0)
(0.900303 0.305364 0)
(0.909661 0.37241 0)
(0.885507 0.147382 0)
(0.892049 0.229843 0)
(0.879057 -0.0318533 1.84931e-21)
(0.880747 0.0601722 0)
(0.879227 -0.124141 5.65926e-22)
(0.91106 -0.217866 -6.51979e-22)
(0.944038 -0.220986 6.46502e-22)
(0.986129 0.0713796 0)
(0.980645 -0.124819 2.86173e-21)
(0.982765 -0.0263826 1.40452e-21)
(0.994295 0.25234 -3.57526e-22)
(0.989803 0.165235 1.51381e-21)
(1.00319 0.399411 -1.03083e-23)
(0.998719 0.330974 0)
(1.01149 0.502246 0)
(1.00747 0.45681 0)
(1.01846 0.557266 0)
(1.01515 0.535536 0)
(1.02398 0.5724 0)
(1.0214 0.568802 -8.16465e-28)
(1.02775 0.566806 -5.14338e-24)
(1.0261 0.570775 0)
(1.02945 0.560906 0)
(1.02886 0.562884 0)
(1.0285 0.564436 0)
(1.02949 0.561489 0)
(1.02447 0.576236 0)
(1.02692 0.569598 2.68451e-22)
(1.01657 0.591653 -8.24462e-23)
(1.02112 0.583717 3.35328e-22)
(1.0029 0.604398 0)
(1.01066 0.598845 2.87893e-22)
(0.98156 0.603627 0)
(0.993323 0.606723 0)
(0.951297 0.572197 0)
(0.967532 0.592959 0)
(0.913302 0.491526 0)
(0.933069 0.539061 0)
(0.872319 0.350245 6.32652e-22)
(0.892898 0.428787 0)
(0.834644 0.15288 2.71249e-21)
(0.852778 0.257811 6.12598e-22)
(0.819067 0.03893 -2.78436e-21)
(0.919958 0.0759505 -6.30632e-21)
(0.882302 -0.213447 -1.16843e-21)
(0.980164 -0.220541 2.63686e-21)
(0.834796 -0.0735463 0)
(0.806968 -0.0778702 0)
(0.906666 -0.0505013 0)
(0.868029 -0.0648565 0)
(0.99301 0.328019 0)
(0.962812 0.0940923 -1.6855e-21)
(0.977534 0.216365 -1.55569e-21)
(1.02252 0.502762 -1.75777e-21)
(1.00834 0.424676 3.62643e-22)
(1.0441 0.600623 -4.54935e-24)
(1.03444 0.561117 0)
(1.05561 0.634069 0)
(1.05118 0.623914 0)
(1.05743 0.627947 0)
(1.05758 0.634364 0)
(1.05226 0.605022 0)
(1.05552 0.61745 0)
(1.04259 0.579834 0)
(1.04793 0.592133 0)
(1.0303 0.558849 2.10765e-24)
(1.03678 0.568654 -5.49102e-22)
(1.01558 0.544761 1.9828e-24)
(1.02318 0.55088 1.0678e-21)
(0.997519 0.539474 0)
(1.00709 0.540921 0)
(0.975215 0.540613 -2.49632e-24)
(0.986876 0.539816 0)
(0.949697 0.534065 0)
(0.962738 0.539626 0)
(0.923129 0.498199 0)
(0.936399 0.521002 0)
(0.897783 0.418951 0)
(0.910172 0.464277 0)
(0.875828 0.296746 0)
(0.886222 0.362739 0)
(0.860013 0.141909 0)
(0.86692 0.222596 0)
(0.853375 -0.031771 -1.2461e-21)
(0.855295 0.0565907 0)
(0.915767 -0.303167 0)
(0.888444 -0.295669 -1.06116e-21)
(0.858132 -0.205974 0)
(0.854147 -0.119941 -1.21566e-21)
(1.02016 -0.120082 -3.0434e-21)
(1.01869 -0.216325 -7.44577e-22)
(0.981624 -0.309202 -5.54359e-21)
(0.946869 -0.30847 0)
(1.0259 0.0767312 0)
(1.02282 -0.020655 4.57095e-21)
(1.03196 0.256477 -1.17099e-23)
(1.02846 0.169465 -1.52324e-21)
(1.03692 0.402813 1.03082e-23)
(1.03437 0.334574 0)
(1.04028 0.504873 0)
(1.03881 0.45986 0)
(1.04158 0.558959 0)
(1.04117 0.537689 0)
(1.04126 0.573321 0)
(1.04159 0.570079 8.16457e-28)
(1.03968 0.566962 1.02102e-23)
(1.04062 0.571336 0)
(1.0367 0.559955 0)
(1.0384 0.562577 0)
(1.03142 0.562092 -1.31549e-22)
(1.03444 0.559804 0)
(1.02327 0.572178 0)
(1.02775 0.566481 1.30982e-22)
(1.01111 0.585297 -2.75973e-22)
(1.0178 0.578672 -2.69818e-22)
(0.993169 0.594743 0)
(1.003 0.590971 0)
(0.967502 0.589734 0)
(0.98143 0.594994 0)
(0.93309 0.554016 0)
(0.951366 0.576847 0)
(0.89149 0.470441 0)
(0.912952 0.519107 0)
(0.847849 0.329544 -8.17896e-24)
(0.869494 0.407204 0)
(0.809782 0.13843 8.8769e-24)
(0.827702 0.239238 0)
(0.783586 -0.0813922 2.45849e-21)
(0.794633 0.0295663 -2.45719e-21)
(0.949191 -0.0331648 -3.33078e-21)
(0.798961 -0.192385 0)
(0.777006 -0.190897 4.67028e-21)
(0.825969 -0.191104 0)
(0.864937 -0.284885 0)
(1.01797 -0.306852 7.02477e-22)
(0.896307 -0.173866 -7.64171e-21)
(0.937489 -0.158972 -3.08813e-21)
(0.796254 -0.298924 -1.44652e-21)
(0.775745 -0.292417 -5.93037e-21)
(0.858239 -0.186178 0)
(0.838227 -0.197304 -4.06645e-21)
(0.846082 -0.273228 1.98812e-21)
(0.983766 -0.387394 1.30501e-21)
(1.01772 -0.387967 -6.40858e-21)
(0.980976 -0.140934 -1.15363e-20)
(0.928402 -0.278662 6.22186e-21)
(0.963871 -0.366908 2.5522e-20)
(0.970154 -0.260793 6.4813e-21)
(1.00761 0.11219 -3.35375e-21)
(0.993997 -0.0148285 1.00591e-20)
(1.03462 0.343652 3.31095e-21)
(1.02132 0.233505 2.62237e-21)
(1.05922 0.51444 7.04397e-22)
(1.04783 0.438554 7.64474e-22)
(1.07491 0.607517 4.54935e-24)
(1.06839 0.570483 0)
(1.07947 0.635734 0)
(1.07855 0.628153 0)
(1.07462 0.625424 0)
(1.07802 0.633745 0)
(1.06369 0.599851 0)
(1.06972 0.613446 0)
(1.0493 0.573104 0)
(1.05681 0.586104 0)
(1.03277 0.551099 0)
(1.04127 0.561352 0)
(1.01427 0.53565 -1.21979e-25)
(1.02382 0.542467 0)
(0.992667 0.528477 0)
(1.00396 0.53095 0)
(0.966692 0.527642 -2.16224e-24)
(0.980232 0.527776 0)
(0.937258 0.519876 0)
(0.952262 0.52591 0)
(0.907036 0.484042 0)
(0.922065 0.506663 0)
(0.878797 0.406116 0)
(0.892516 0.450617 0)
(0.855015 0.286603 0)
(0.866183 0.351056 0)
(0.838505 0.136055 0)
(0.845651 0.214338 0)
(0.832061 -0.0309048 -5.35691e-22)
(0.833843 0.0534743 2.75952e-22)
(0.833369 -0.115393 2.09491e-21)
(0.922326 -0.377333 5.34594e-22)
(0.874843 -0.355387 -1.94092e-21)
(0.896769 -0.367567 1.68121e-21)
(0.951828 -0.384784 0)
(1.06104 -0.11463 2.2807e-21)
(1.05562 -0.302218 6.29917e-21)
(1.05848 -0.210957 -5.25647e-21)
(1.06714 0.080757 0)
(1.06433 -0.0160802 0)
(1.07052 0.258692 2.85254e-26)
(1.06865 0.172436 0)
(1.0715 0.403932 0)
(1.07116 0.336204 0)
(1.06968 0.504711 8.73715e-24)
(1.07091 0.460313 0)
(1.06519 0.557723 0)
(1.06772 0.536938 0)
(1.05901 0.57144 0)
(1.06224 0.568466 0)
(1.0521 0.564652 -5.06909e-24)
(1.05562 0.56924 0)
(1.04438 0.556888 -4.26607e-24)
(1.04839 0.559976 0)
(1.0349 0.557753 0)
(1.03993 0.556127 0)
(1.02277 0.566165 0)
(1.02925 0.561337 0)
(1.00668 0.57688 0)
(1.01533 0.571606 0)
(0.984795 0.582918 0)
(0.996607 0.581001 0)
(0.955192 0.573651 4.57924e-24)
(0.971065 0.581078 0)
(0.917149 0.53383 0)
(0.937185 0.558602 0)
(0.872618 0.447927 0)
(0.89543 0.497406 0)
(0.827113 0.30816 9.55261e-25)
(0.849518 0.384711 0)
(0.788528 0.122355 -1.07119e-24)
(0.806459 0.219863 0)
(0.764211 -0.0862671 -8.03726e-24)
(0.774273 0.019009 0)
(0.759 -0.285953 3.98686e-21)
(0.758921 -0.18975 -1.00627e-21)
(0.779657 -0.380824 -1.02667e-21)
(0.764221 -0.369231 -2.06673e-21)
(0.888952 -0.288778 3.14796e-21)
(0.821561 -0.301275 2.57225e-21)
(0.856972 -0.341407 -4.37614e-22)
(1.05395 -0.38435 -4.91799e-21)
(0.92093 -0.388863 -4.41847e-22)
(0.798528 -0.390797 0)
(0.952955 -0.474811 -3.56372e-20)
(0.774909 -0.436718 -2.58098e-21)
(0.788468 -0.452604 -3.85318e-21)
(0.988477 -0.509091 5.7003e-20)
(0.98593 -0.554535 -9.18573e-21)
(0.852725 -0.297062 0)
(1.00256 -0.349952 -6.96651e-21)
(0.997154 -0.436583 -3.28943e-21)
(1.02526 -0.125283 -6.71216e-21)
(1.01219 -0.245549 9.7626e-21)
(1.05275 0.128882 3.47696e-21)
(1.03943 0.00194165 1.73193e-21)
(1.07781 0.358721 -1.64519e-21)
(1.06559 0.249777 -1.77455e-21)
(1.09748 0.524289 0)
(1.08879 0.45106 2.76526e-23)
(1.1064 0.610986 0)
(1.10346 0.577071 0)
(1.10356 0.633704 -3.51806e-24)
(1.10633 0.628691 0)
(1.09192 0.619686 0)
(1.09859 0.629616 0)
(1.07529 0.592092 0)
(1.08403 0.606526 0)
(1.05625 0.564245 0)
(1.06598 0.577723 0)
(1.03579 0.541432 -1.80285e-24)
(1.04618 0.552095 0)
(1.01381 0.52488 -1.44532e-25)
(1.02505 0.532322 0)
(0.988987 0.515811 0)
(1.00187 0.519327 0)
(0.959808 0.51286 4.12472e-24)
(0.974974 0.514004 0)
(0.926965 0.503974 0)
(0.943687 0.510379 0)
(0.893569 0.46863 0)
(0.910112 0.490813 0)
(0.863 0.392531 0)
(0.877757 0.435971 0)
(0.837947 0.276114 0)
(0.849625 0.338838 0)
(0.821159 0.130236 0)
(0.828328 0.205956 0)
(0.815191 -0.0300365 2.61242e-22)
(0.816688 0.0507959 0)
(0.82254 -0.188545 0)
(0.817049 -0.110708 4.49232e-22)
(0.843319 -0.32662 4.91812e-23)
(0.831379 -0.261428 0)
(0.887083 -0.41466 1.96823e-21)
(0.857554 -0.383013 -8.92703e-23)
(0.870454 -0.399854 -8.31529e-22)
(0.930964 -0.439362 -7.86419e-22)
(0.907325 -0.428258 5.32885e-22)
(0.987551 -0.452988 2.88387e-22)
(0.95814 -0.448143 -3.11974e-22)
(1.05327 -0.453608 0)
(1.01948 -0.455679 3.07083e-21)
(1.09471 -0.295942 1.43114e-21)
(1.08809 -0.448408 2.64433e-21)
(1.09168 -0.378005 -5.88033e-21)
(1.10256 -0.109735 7.79502e-22)
(1.09928 -0.205273 0)
(1.10804 0.082807 0)
(1.10601 -0.0126297 0)
(1.10918 0.259172 2.02108e-25)
(1.1091 0.173976 0)
(1.10615 0.402716 0)
(1.10813 0.335893 0)
(1.09909 0.501743 -8.73715e-24)
(1.10307 0.458188 0)
(1.0888 0.553501 0)
(1.09426 0.53325 0)
(1.07686 0.566712 0)
(1.08293 0.563905 0)
(1.06471 0.559805 0)
(1.07078 0.564443 0)
(1.0524 0.551635 2.32156e-25)
(1.05863 0.554999 0)
(1.0389 0.551491 0)
(1.04588 0.550438 0)
(1.023 0.558301 0)
(1.03134 0.554339 0)
(1.00325 0.566595 0)
(1.01372 0.562664 0)
(0.977749 0.569241 0)
(0.99136 0.569156 0)
(0.944637 0.555828 -4.57924e-24)
(0.962231 0.565363 0)
(0.903482 0.512179 0)
(0.925003 0.538728 0)
(0.856613 0.424425 0)
(0.880476 0.474464 0)
(0.809811 0.286369 7.22195e-24)
(0.832725 0.361542 0)
(0.771059 0.106222 -7.84849e-24)
(0.788913 0.200408 0)
(0.748052 -0.0926363 7.94633e-24)
(0.757205 0.00718848 0)
(0.74559 -0.279061 -9.16916e-22)
(0.744153 -0.189474 1.90147e-21)
(0.764766 -0.420139 7.78572e-22)
(0.752399 -0.357201 -1.74781e-21)
(0.790458 -0.486406 3.25978e-22)
(0.782102 -0.466146 -1.3364e-21)
(0.884213 -0.391412 2.67363e-21)
(0.822679 -0.395952 0)
(0.917957 -0.474352 2.55271e-20)
(0.805696 -0.464348 0)
(0.833019 -0.312024 3.25845e-22)
(0.848479 -0.366644 -2.26644e-22)
(1.05274 -0.508637 2.18281e-21)
(1.08455 -0.505134 2.47497e-21)
(0.936701 -0.544932 2.33236e-20)
(0.801947 -0.504947 3.89059e-21)
(0.977938 -0.600278 0)
(1.01432 -0.50322 5.50577e-21)
(0.809942 -0.518054 1.69072e-21)
(0.803827 -0.495679 -1.65001e-21)
(1.00787 -0.56096 -1.23406e-20)
(0.851333 -0.396217 0)
(1.0381 -0.336158 0)
(1.02607 -0.427279 6.09099e-21)
(1.06844 -0.109217 0)
(1.05287 -0.229291 0)
(1.09687 0.14337 0)
(1.08327 0.0171015 -1.7943e-21)
(1.12081 0.3697 0)
(1.10955 0.262673 0)
(1.13574 0.529904 0)
(1.12975 0.459742 0)
(1.13765 0.610496 0)
(1.13838 0.579637 0)
(1.12734 0.628049 3.51806e-24)
(1.1338 0.625398 0)
(1.10899 0.61087 0)
(1.11888 0.622125 0)
(1.08687 0.581812 0)
(1.0982 0.59682 0)
(1.0634 0.553316 0)
(1.07523 0.567065 0)
(1.03927 0.52999 1.4939e-25)
(1.05142 0.540922 0)
(1.0141 0.512529 -1.63365e-25)
(1.02688 0.520509 0)
(0.986427 0.501673 0)
(1.0007 0.506198 0)
(0.954511 0.49655 -2.14789e-25)
(0.971053 0.498745 0)
(0.918824 0.486516 0)
(0.936978 0.493287 0)
(0.882787 0.451878 0)
(0.900587 0.473474 0)
(0.850371 0.378111 0)
(0.865926 0.420211 0)
(0.824517 0.265351 0)
(0.836473 0.326077 0)
(0.807781 0.124525 0)
(0.814849 0.197537 0)
(0.80277 -0.0291384 0)
(0.803641 0.0482869 0)
(0.811079 -0.179763 -3.83349e-22)
(0.805264 -0.106095 -4.56073e-22)
(0.820458 -0.249422 7.55263e-22)
(0.901003 -0.462331 9.21874e-22)
(0.873843 -0.429203 0)
(0.886043 -0.447044 8.41313e-22)
(0.940922 -0.488341 0)
(0.919286 -0.476321 -9.40856e-22)
(0.992187 -0.504445 -1.70629e-21)
(0.965404 -0.497806 5.64361e-22)
(1.02163 -0.5089 3.50119e-21)
(1.13401 -0.289055 -6.95872e-22)
(1.12256 -0.441808 -2.19339e-21)
(1.1295 -0.369894 0)
(1.14367 -0.105078 1.51021e-21)
(1.13976 -0.199041 -1.51515e-21)
(1.1484 0.0840388 0)
(1.14706 -0.00960199 0)
(1.14717 0.257967 3.67752e-25)
(1.14861 0.174113 0)
(1.14008 0.399112 0)
(1.14433 0.333522 0)
(1.12786 0.496006 0)
(1.13455 0.453459 0)
(1.11193 0.546404 0)
(1.12023 0.526708 0)
(1.09446 0.559251 0)
(1.10325 0.556514 0)
(1.07727 0.552513 -4.43251e-24)
(1.08577 0.557051 0)
(1.0606 0.544257 4.03392e-24)
(1.06893 0.547734 0)
(1.04331 0.543353 0)
(1.05213 0.542771 0)
(1.0239 0.548672 0)
(1.03397 0.545542 0)
(1.00077 0.554594 0)
(1.01292 0.551972 0)
(0.971977 0.55389 0)
(0.987214 0.555605 0)
(0.935784 0.536495 0)
(0.954873 0.548045 0)
(0.892031 0.489333 0)
(0.914767 0.517482 0)
(0.843394 0.400191 4.64316e-24)
(0.868021 0.450547 0)
(0.795866 0.26441 -5.2823e-24)
(0.819008 0.337922 0)
(0.757468 0.0906063 5.70388e-24)
(0.775013 0.181135 0)
(0.73565 -0.0989789 0)
(0.744123 -0.0040253 0)
(0.735164 -0.273641 0)
(0.732589 -0.190282 0)
(0.757879 -0.403586 -4.65377e-24)
(0.743519 -0.345493 -7.72844e-22)
(0.800554 -0.472092 2.65368e-21)
(0.777277 -0.445619 0)
(0.828421 -0.510818 1.78538e-21)
(0.826767 -0.486296 -2.0187e-22)
(0.883118 -0.476975 -8.0922e-21)
(0.827859 -0.473207 0)
(0.865498 -0.411847 1.22114e-21)
(1.11691 -0.499376 4.4421e-21)
(0.911741 -0.549285 3.84288e-21)
(0.960769 -0.610193 5.22275e-22)
(0.935534 -0.594724 -1.02615e-20)
(0.817294 -0.519571 0)
(0.819194 -0.53821 -7.85497e-22)
(0.995487 -0.606678 9.24225e-21)
(0.975322 -0.630518 -6.76614e-21)
(0.962061 -0.630304 8.32642e-21)
(0.832535 -0.534308 2.00594e-21)
(0.854208 -0.517052 -1.10484e-21)
(0.853953 -0.492697 -9.58761e-22)
(0.853586 -0.478455 0)
(1.04528 -0.491826 -3.41303e-22)
(1.01729 -0.595582 -7.75355e-22)
(1.03374 -0.553319 -2.33724e-21)
(1.0754 -0.320878 -3.10903e-21)
(1.05967 -0.41394 3.12652e-21)
(1.11027 -0.0931926 -6.61429e-24)
(1.09306 -0.213064 0)
(1.14056 0.156467 0)
(1.12616 0.0319639 0)
(1.16338 0.378833 0)
(1.15319 0.274034 0)
(1.17352 0.53285 0)
(1.17034 0.465994 0)
(1.16828 0.606519 -4.09649e-24)
(1.17276 0.579051 0)
(1.15044 0.618869 0)
(1.1606 0.618498 0)
(1.12553 0.599054 0)
(1.13853 0.611333 0)
(1.09818 0.569142 0)
(1.11197 0.584427 0)
(1.0706 0.540469 0)
(1.08437 0.554278 0)
(1.04312 0.516932 1.65345e-24)
(1.05688 0.528001 0)
(1.01508 0.498773 -1.78246e-25)
(1.02924 0.507196 0)
(0.984952 0.486275 0)
(1.00041 0.491747 0)
(0.950795 0.47898 -3.27054e-24)
(0.968451 0.482243 0)
(0.912819 0.467795 0)
(0.932126 0.474913 0)
(0.874639 0.434118 0)
(0.893457 0.45496 0)
(0.840809 0.363168 0)
(0.856949 0.403672 0)
(0.814561 0.254548 0)
(0.826592 0.313051 0)
(0.798276 0.119083 0)
(0.805035 0.189268 0)
(0.794178 -0.0281129 -5.43621e-24)
(0.794596 0.0459318 0)
(0.80375 -0.17139 3.85022e-22)
(0.797242 -0.101103 0)
(0.826498 -0.297237 -3.93355e-22)
(0.813618 -0.237413 0)
(0.859827 -0.393513 -2.57435e-22)
(0.842064 -0.349331 3.21589e-22)
(0.891373 -0.46516 -6.34526e-22)
(0.878616 -0.428554 0)
(0.88391 -0.447581 -8.78038e-22)
(0.915754 -0.498343 0)
(0.90228 -0.482712 0)
(0.95168 -0.524787 0)
(0.932334 -0.512681 0)
(0.997855 -0.542004 0)
(0.973606 -0.534648 0)
(1.05273 -0.548361 -2.22506e-21)
(1.02464 -0.547266 -5.05156e-22)
(1.11148 -0.540979 -5.04963e-22)
(1.08173 -0.546179 -4.17139e-21)
(1.15749 -0.433326 -3.06645e-21)
(1.14119 -0.532418 -4.62638e-22)
(1.1493 -0.490342 1.06604e-21)
(1.17233 -0.281434 -6.42591e-22)
(1.16521 -0.362567 3.8821e-21)
(1.18329 -0.100777 5.07574e-25)
(1.1786 -0.193057 0)
(1.18732 0.0846756 0)
(1.18624 -0.00741252 0)
(1.18363 0.25515 5.1795e-25)
(1.18647 0.172989 0)
(1.17256 0.393167 0)
(1.17896 0.329095 0)
(1.15537 0.487569 0)
(1.16463 0.446164 0)
(1.13409 0.536559 0)
(1.14508 0.517408 0)
(1.11143 0.549223 0)
(1.12278 0.546443 0)
(1.08955 0.542951 8.53134e-24)
(1.10033 0.547233 0)
(1.06883 0.534907 0)
(1.0791 0.538355 0)
(1.04802 0.533456 0)
(1.05855 0.533253 0)
(1.02539 0.537392 0)
(1.03705 0.535057 0)
(0.999163 0.541003 0)
(1.01285 0.539657 0)
(0.967399 0.537023 2.61369e-24)
(0.984094 0.540488 0)
(0.928538 0.515839 0)
(0.948905 0.529291 0)
(0.882696 0.465515 0)
(0.906382 0.495069 0)
(0.832849 0.375465 -4.64316e-24)
(0.857957 0.425887 0)
(0.785129 0.242472 9.48904e-25)
(0.808242 0.314072 0)
(0.747457 0.0754858 -1.03738e-23)
(0.764542 0.162135 0)
(0.727011 -0.104299 0)
(0.734727 -0.0145181 0)
(0.728472 -0.267785 0)
(0.724824 -0.190056 0)
(0.753906 -0.385814 9.16851e-25)
(0.738222 -0.33395 0)
(0.799362 -0.44612 0)
(0.774716 -0.422599 0)
(0.854586 -0.467115 1.10674e-21)
(0.826619 -0.45962 0)
(0.879593 -0.497073 -1.26718e-22)
(0.88103 -0.473178 -1.57038e-21)
(0.885262 -0.543071 0)
(1.00095 -0.618897 -1.16415e-20)
(0.913025 -0.59643 -2.53068e-21)
(0.856371 -0.374238 2.56981e-22)
(0.875298 -0.408278 0)
(1.10558 -0.568065 -4.3688e-22)
(1.13196 -0.560226 8.90952e-22)
(0.836727 -0.531227 0)
(0.832167 -0.556085 0)
(0.935874 -0.622713 0)
(0.839443 -0.555953 7.73592e-22)
(0.85642 -0.540314 1.09339e-21)
(0.879261 -0.519975 0)
(0.903303 -0.502992 -1.9727e-21)
(0.905131 -0.48096 1.28569e-21)
(0.859381 -0.540737 0)
(1.04227 -0.582421 1.02413e-24)
(0.992597 -0.630966 -2.80605e-21)
(1.01119 -0.62051 9.23811e-21)
(1.02497 -0.608154 -3.38518e-21)
(1.07744 -0.477817 1.5789e-21)
(1.06039 -0.539887 2.32037e-21)
(1.11362 -0.303873 0)
(1.09526 -0.398566 0)
(1.15191 -0.0765543 6.61348e-24)
(1.13316 -0.195549 0)
(1.18404 0.169825 0)
(1.16902 0.0471836 0)
(1.20531 0.386569 0)
(1.1964 0.284955 0)
(1.21023 0.532583 0)
(1.21006 0.469894 0)
(1.19757 0.598604 4.09649e-24)
(1.2059 0.574715 0)
(1.17228 0.606101 0)
(1.18607 0.607747 0)
(1.14116 0.584368 0)
(1.15708 0.597304 0)
(1.109 0.554255 0)
(1.12503 0.569513 0)
(1.0777 0.52587 0)
(1.09322 0.539531 0)
(1.04722 0.502418 -1.3048e-24)
(1.06241 0.513493 0)
(1.01668 0.483783 -1.89172e-25)
(1.03204 0.492541 0)
(0.984485 0.469836 0)
(1.00092 0.476169 0)
(0.948583 0.460422 2.30226e-25)
(0.967092 0.464749 0)
(0.908877 0.448069 0)
(0.929061 0.455534 0)
(0.869031 0.415542 0)
(0.888646 0.435499 0)
(0.834146 0.347865 0)
(0.850703 0.386523 0)
(0.807813 0.24386 0)
(0.819766 0.299917 0)
(0.792231 0.114079 0)
(0.798567 0.181295 0)
(0.789197 -0.0265625 1.0001e-23)
(0.789059 0.0441381 0)
(0.799779 -0.162708 4.35111e-24)
(0.792753 -0.0960978 0)
(0.82312 -0.281758 -6.07661e-22)
(0.810033 -0.225138 5.68996e-22)
(0.838781 -0.331922 -4.61633e-22)
(0.909259 -0.491329 -1.4915e-22)
(0.897518 -0.454308 -2.83703e-23)
(0.90262 -0.473739 4.41753e-22)
(0.930829 -0.523976 0)
(0.918732 -0.508324 0)
(0.962743 -0.550127 6.50616e-27)
(0.945546 -0.538088 0)
(1.00383 -0.567227 0)
(0.982216 -0.559894 0)
(1.05272 -0.574107 -9.60717e-22)
(1.02758 -0.572334 1.00038e-21)
(1.07885 -0.572755 2.0611e-22)
(1.19099 -0.422362 3.17288e-23)
(1.16963 -0.521649 9.63733e-22)
(1.1807 -0.479177 -5.89135e-23)
(1.20832 -0.273506 6.47027e-22)
(1.20007 -0.352957 -6.48099e-22)
(1.2202 -0.0968732 1.145e-23)
(1.21528 -0.187022 0)
(1.22374 0.0845481 1.07094e-23)
(1.22317 -0.00538966 0)
(1.21772 0.250734 6.48247e-25)
(1.22193 0.170689 0)
(1.20289 0.384996 0)
(1.21133 0.322713 0)
(1.18106 0.47659 0)
(1.19271 0.436445 0)
(1.15486 0.524149 0)
(1.16832 0.505523 0)
(1.12748 0.536822 0)
(1.14114 0.533883 0)
(1.10135 0.531314 -4.09883e-24)
(1.11418 0.535185 0)
(1.07695 0.523767 -3.03737e-24)
(1.089 0.527052 0)
(1.05294 0.521955 0)
(1.06502 0.522051 0)
(1.02737 0.524599 0)
(1.04047 0.523025 0)
(0.99832 0.525961 0)
(1.0134 0.52586 0)
(0.963911 0.518819 -2.61369e-24)
(0.981896 0.523962 0)
(0.922788 0.494081 2.2652e-24)
(0.94422 0.509298 0)
(0.875349 0.440985 0)
(0.89973 0.47173 0)
(0.824821 0.350519 0)
(0.850146 0.400756 0)
(0.777368 0.220764 9.1414e-25)
(0.800239 0.290242 0)
(0.740683 0.0609057 8.35179e-24)
(0.757205 0.143542 0)
(0.721743 -0.108743 0)
(0.728639 -0.0243316 0)
(0.725459 -0.26041 0)
(0.720561 -0.188682 0)
(0.753795 -0.367266 8.71164e-25)
(0.736646 -0.320675 0)
(0.8019 -0.420349 0)
(0.776039 -0.399807 0)
(0.857399 -0.440955 -5.8588e-22)
(0.829644 -0.432714 0)
(0.907858 -0.458393 -5.01485e-22)
(0.883484 -0.448998 1.06141e-21)
(0.95555 -0.651678 1.06574e-20)
(0.97395 -0.644973 1.11261e-20)
(0.927511 -0.491037 5.2871e-22)
(0.930422 -0.469754 -5.28496e-22)
(0.890242 -0.587165 0)
(0.894642 -0.434607 -3.48565e-22)
(1.15801 -0.549692 3.33748e-21)
(0.998377 -0.621537 -2.22344e-21)
(0.848559 -0.570254 0)
(0.981773 -0.629519 -5.88376e-22)
(0.914857 -0.625082 0)
(0.849605 -0.575846 0)
(0.939102 -0.632175 0)
(0.861226 -0.562637 0)
(0.879897 -0.54245 0)
(0.901816 -0.524395 1.92069e-22)
(0.924857 -0.511716 5.10794e-22)
(0.948636 -0.502832 0)
(0.952285 -0.482072 9.25128e-22)
(0.8677 -0.582505 0)
(1.02914 -0.607165 -4.21812e-21)
(0.989386 -0.618159 -5.82895e-21)
(1.00219 -0.605238 -3.08407e-21)
(1.01462 -0.608989 4.00223e-21)