/*--------------------------------*- C++ -*----------------------------------*\
  =========                 |
  \\      /  F ield         | OpenFOAM: The Open Source CFD Toolbox
   \\    /   O peration     | Website:  https://openfoam.org
    \\  /    A nd           | Version:  10
     \\/     M anipulation  |
\*---------------------------------------------------------------------------*/
FoamFile
{
    format      ascii;
    class       volVectorField;
    location    "35.5";
    object      U;
}
// * * * * * * * * * * * * * * * * * * * * * * * * * * * * * * * * * * * * * //

dimensions      [0 1 -1 0 0 0 0];

internalField   nonuniform List<vector> 
40874
(
(0.705806 -0.19242 0)
(0.606225 -0.156288 3.70201e-19)
(1.06793 -0.541194 -4.58943e-20)
(1.00191 -0.479372 1.69457e-19)
(1.01023 -0.701317 1.12773e-19)
(1.00631 -0.717266 4.91787e-20)
(1.04061 -0.718309 1.59963e-20)
(1.14317 -0.47778 1.21838e-20)
(1.04268 -0.422471 -3.83889e-21)
(0.751221 -0.614083 1.31345e-19)
(0.744288 -0.427557 -1.75616e-19)
(0.450516 -0.596784 1.66102e-19)
(0.827744 -0.659844 1.50103e-20)
(0.828548 -0.375589 9.89847e-20)
(0.832686 -0.275198 -9.67197e-20)
(0.777949 -0.251153 9.24545e-20)
(0.995883 -0.639361 -1.42382e-21)
(1.13978 -0.691444 0)
(0.942932 -0.698425 -3.12882e-19)
(0.980776 -0.279073 -8.42039e-20)
(0.971351 -0.343236 -4.39614e-21)
(0.959036 -0.427943 -1.55631e-19)
(0.587042 -0.529552 1.43512e-20)
(0.555328 -0.630126 5.51627e-20)
(0.907462 -0.331181 1.3443e-19)
(1.12958 -0.461236 -8.04982e-21)
(1.15753 -0.459832 1.91178e-20)
(1.13807 -0.394565 9.07291e-21)
(1.17335 -0.413868 0)
(1.27338 -0.434375 -1.08651e-20)
(1.27268 -0.467392 -5.10102e-22)
(1.20944 -0.405578 7.76386e-22)
(1.16649 -0.464054 0)
(-0.161213 0.292786 6.40931e-20)
(-0.211097 0.227903 0)
(-0.139448 0.212772 0)
(-0.119714 0.242784 -4.6577e-22)
(0.549129 0.0128748 -3.13152e-22)
(0.513754 0.0118526 5.73425e-22)
(0.576822 0.0164229 -3.05402e-21)
(0.65209 0.0151208 0)
(0.657728 0.0127129 -9.49211e-22)
(0.597393 0.014887 1.39795e-21)
(0.53059 0.0152387 3.32746e-22)
(0.654582 0.0136289 9.56449e-22)
(0.588338 0.0132842 -6.44165e-22)
(0.510193 0.0134704 0)
(0.925834 0.624433 -1.99631e-20)
(0.808803 0.621382 4.15266e-20)
(0.788015 0.482659 -1.29091e-20)
(0.904442 0.491738 0)
(1.09585 0.610732 0)
(1.03143 0.566528 3.0778e-21)
(1.35162 -0.390193 4.12036e-20)
(1.39999 -0.33499 0)
(1.3179 -0.302338 0)
(1.28791 -0.326371 0)
(1.27186 -0.395314 -6.19172e-21)
(1.42594 -0.415488 -2.18741e-20)
(1.2769 -0.286641 1.02835e-19)
(1.42401 -0.26736 -1.35304e-19)
(1.27486 0.569241 0)
(1.16694 0.58596 0)
(1.175 0.525031 -1.09822e-21)
(1.33623 0.558538 9.14419e-22)
(-0.0342305 -0.0264282 6.88319e-20)
(-0.0738749 -0.0293127 -5.47916e-20)
(-0.0488968 -0.0295234 -5.17932e-20)
(-0.0412771 0.0294434 0)
(-0.00875462 0.00614524 -1.62502e-19)
(-0.00947001 0.00749233 -1.63316e-19)
(0.0275708 -0.045755 2.45211e-19)
(0.00807821 -0.0132621 4.26622e-20)
(0.0146679 -0.0299526 4.07125e-20)
(0.414884 -0.048119 -1.41317e-22)
(0.462961 -0.00442734 9.71991e-21)
(0.287177 0.0277876 -3.08448e-21)
(0.198907 -0.0261487 -2.34671e-22)
(0.239684 0.0180835 6.12836e-22)
(0.38865 0.0156834 0)
(0.374207 0.0155629 -4.65935e-22)
(0.182983 0.0122924 -2.07152e-21)
(0.845948 0.386438 6.42436e-20)
(0.801237 0.372821 7.07725e-20)
(0.812519 0.293512 -3.56006e-20)
(0.855487 0.288521 1.589e-19)
(1.31722 0.256094 -5.37224e-23)
(1.31784 0.26759 -1.68088e-20)
(1.2983 0.251884 -1.29329e-21)
(1.40081 0.311555 1.08038e-20)
(1.57207 0.291876 6.75848e-20)
(1.48834 0.245159 -5.56374e-21)
(1.60231 0.416764 7.37418e-20)
(1.27793 -0.680309 0)
(1.30774 -0.426762 -3.95634e-20)
(0.678312 -0.0188831 7.70708e-22)
(0.616056 -0.0248753 2.94603e-23)
(0.554406 -0.0271017 -9.31122e-22)
(0.634899 -0.0223549 1.98346e-22)
(0.702334 -0.0180433 3.81329e-22)
(0.995625 -0.038888 0)
(0.988942 -0.0320819 3.64304e-22)
(-0.0229103 0.0276798 -6.11449e-21)
(0.0643785 0.00802937 -4.08531e-20)
(-0.0497259 0.0148371 0)
(-0.0487139 0.0490697 0)
(0.9345 0.361304 0)
(0.915353 0.411575 -6.25292e-20)
(0.211449 -0.0701775 5.72046e-19)
(0.189754 -0.162545 -8.72737e-19)
(-0.0119197 0.138093 0)
(-0.0768144 0.189548 2.02184e-20)
(0.993986 -0.0371558 -2.92467e-20)
(0.514687 -0.0135839 -4.04095e-22)
(0.473353 -0.00931537 5.12406e-22)
(0.552768 0.00669024 -2.6591e-21)
(0.463201 0.00183941 1.33392e-21)
(0.537157 0.620603 1.29764e-21)
(0.478483 0.686495 -1.05949e-20)
(0.673802 0.816307 2.7231e-21)
(0.408406 0.690963 1.01582e-19)
(0.167951 -0.275282 -1.03721e-19)
(0.315131 -0.58575 1.12972e-19)
(0.234133 0.586447 -1.91621e-20)
(0.577347 0.012356 0)
(0.499988 0.0110167 0)
(0.475259 0.0147687 1.0525e-21)
(0.42266 0.012407 0)
(0.0983366 -0.00756695 0)
(0.131657 -0.00767525 3.20138e-22)
(1.00312 -0.0159801 -7.40728e-20)
(0.626962 0.0137873 1.11842e-21)
(1.10062 -0.0467556 0)
(1.10051 -0.0469601 -1.94972e-21)
(0.671126 0.00157004 0)
(1.35292 0.259236 1.09208e-20)
(1.34808 0.247797 -9.12717e-21)
(1.39578 0.278886 -8.08299e-21)
(1.52915 -0.117756 4.05464e-20)
(1.59686 -0.111842 -3.25993e-20)
(1.5918 -0.14849 1.68932e-20)
(1.52475 -0.153678 6.2063e-20)
(1.4043 -0.0846754 -2.24963e-22)
(1.41992 -0.112287 -1.21717e-20)
(0.103366 0.142842 -5.88224e-20)
(0.0376541 0.151526 6.80466e-20)
(0.00151597 0.150593 -6.34588e-20)
(0.0676126 -0.11886 -2.08711e-19)
(0.0350765 -0.0249316 -2.81603e-19)
(0.0906419 -0.0866529 1.79364e-19)
(1.16489 -0.613326 0)
(1.39915 -0.306368 -9.89442e-21)
(1.33781 -0.275789 3.14249e-20)
(-0.0559464 0.00221338 1.4487e-19)
(-0.0348308 -0.00683788 0)
(-0.0326276 0.0124351 0)
(-0.0547916 -0.0154177 0)
(-0.0494195 0.0669638 -2.52622e-20)
(-0.0271565 0.0335477 4.9754e-20)
(-0.0211778 0.0676263 0)
(0.108056 0.0508493 1.01909e-19)
(0.31156 0.0559138 -2.16051e-19)
(0.407948 0.0849077 -7.40108e-20)
(0.0701098 0.0292547 0)
(0.373512 -0.164005 -2.65083e-21)
(0.326898 -0.364983 2.82457e-19)
(0.456728 -0.441329 -2.70799e-20)
(0.612185 -0.296125 -3.22315e-19)
(1.09919 0.508705 -3.33075e-21)
(0.804243 0.0829203 0)
(0.105493 -0.364488 -1.00984e-19)
(0.113215 -0.419783 -1.94973e-19)
(0.463877 -0.507445 -1.22207e-19)
(0.116838 -0.31062 9.77695e-20)
(0.682782 -0.016389 0)
(0.614691 -0.0164414 -4.90182e-21)
(1.44231 0.102413 1.34365e-19)
(1.40768 0.0608121 -7.18463e-20)
(1.24453 0.0562442 -1.01638e-19)
(0.0249468 0.0147293 -7.7242e-20)
(0.0587467 0.0436214 3.44949e-20)
(0.216866 0.123597 1.34023e-20)
(0.188063 0.126506 2.07742e-20)
(1.19707 -0.369622 6.60303e-20)
(1.0828 -0.264444 1.96897e-20)
(1.21536 0.0222894 1.81483e-22)
(1.21263 0.0233985 0)
(1.2112 0.0203613 0)
(0.91778 0.300172 4.01199e-20)
(0.909739 0.27427 -9.90274e-20)
(0.929683 0.278585 -6.01678e-22)
(0.999639 0.478993 1.96519e-20)
(1.06142 0.457817 3.98806e-21)
(0.263744 0.17526 3.43028e-19)
(0.0851977 0.185446 0)
(0.0591365 0.101379 0)
(0.20764 0.086011 0)
(1.24946 0.746461 2.48699e-20)
(1.37922 0.683717 8.87985e-20)
(1.35884 0.711922 -2.57754e-20)
(1.11772 0.687625 -1.58208e-20)
(-0.1078 0.0583968 -5.53858e-20)
(-0.119282 0.0541111 -2.09877e-19)
(-0.0744722 0.0450919 -3.9414e-20)
(-0.0804579 0.04357 0)
(1.21596 0.0271143 1.16249e-22)
(1.21844 0.024881 7.1171e-23)
(-0.127344 0.064261 4.32992e-19)
(0.345908 0.0032343 1.25334e-21)
(0.3958 -0.000334346 0)
(1.01364 -0.0345555 -2.57598e-20)
(1.01771 -0.0377809 5.90156e-20)
(0.868181 0.797556 -8.52827e-20)
(1.09895 -0.0943985 -6.3029e-20)
(1.01775 -0.117652 0)
(1.08342 -0.119384 -4.35441e-20)
(1.08786 -0.102107 3.56173e-20)
(1.01841 -0.077562 1.1385e-20)
(1.00957 -0.0966739 1.94711e-20)
(0.62669 -0.0645758 -2.36516e-19)
(0.484364 0.0464876 1.42242e-19)
(0.415215 -0.0493972 -4.09875e-19)
(0.649199 0.0135777 0)
(0.644269 0.0128405 -1.45107e-22)
(0.915555 0.825812 8.17559e-20)
(0.47932 0.509317 -3.03527e-22)
(0.546883 0.566172 0)
(1.03249 -0.1285 0)
(-0.180747 0.197058 0)
(1.51829 -0.0255743 0)
(1.47884 -0.00259002 3.8338e-21)
(-0.111859 0.0636214 1.25033e-19)
(-0.108 0.0585975 5.15598e-20)
(1.38968 -0.26658 0)
(-0.133539 0.341964 -1.04847e-19)
(-0.0849152 0.322846 1.38107e-19)
(-0.0778935 0.411489 -3.19568e-19)
(-0.107732 0.434728 2.89509e-19)
(-0.143046 0.309787 -4.96134e-20)
(0.530284 -0.310509 0)
(0.655859 -0.395984 -5.16553e-20)
(-0.0354989 0.0786785 5.60403e-20)
(-0.0215039 0.03525 -4.94514e-20)
(0.957275 0.724533 0)
(1.1284 0.751852 -5.34976e-21)
(0.981777 0.640245 -5.56879e-20)
(0.719391 0.53795 0)
(0.700604 0.342124 -1.09886e-19)
(0.639924 0.448971 7.76844e-20)
(0.48283 0.329162 -2.90328e-19)
(0.607291 0.233506 3.5464e-20)
(1.40621 0.107062 -1.76853e-20)
(1.38475 0.0954454 2.26084e-20)
(1.40088 0.0831527 8.90215e-21)
(1.42514 0.0958128 0)
(1.44251 -0.0683755 2.3334e-20)
(1.37218 -0.0607445 -2.0064e-20)
(1.42947 -0.0315816 0)
(-0.121854 0.377803 0)
(-0.0821532 0.451228 4.37629e-20)
(-0.0995961 0.256248 5.90674e-20)
(0.0278278 0.174718 1.58875e-20)
(0.0491507 0.0912597 -6.33494e-20)
(0.0654828 0.129785 1.7771e-19)
(0.0990058 0.284416 -4.81524e-19)
(0.0258865 0.166918 -2.84741e-19)
(0.0172006 0.107208 -4.0712e-20)
(0.76298 0.0397137 5.63604e-20)
(0.785816 0.0224024 -1.10021e-19)
(0.781716 0.0606232 0)
(0.385477 0.127115 3.63943e-20)
(1.20897 0.0188371 8.53109e-23)
(1.46555 0.098395 0)
(1.11557 -0.0496478 -8.02345e-21)
(1.21859 0.0469129 0)
(1.20584 0.0411924 -4.26759e-22)
(1.19359 0.0365089 1.01609e-22)
(1.18201 0.0321504 4.58243e-23)
(1.1707 0.0288201 -5.33794e-22)
(1.16059 0.0253275 7.67492e-22)
(1.15164 0.0202692 9.95748e-23)
(1.14278 0.0167177 2.04689e-22)
(1.13467 0.0135169 -1.40254e-22)
(1.12743 0.0104417 -3.90944e-28)
(1.12061 0.00751078 1.2545e-22)
(1.11454 0.0047434 1.32419e-21)
(1.10883 0.00208471 -1.50117e-21)
(1.10376 -0.000434951 -9.3783e-26)
(1.09903 -0.00287111 2.12991e-22)
(1.09487 -0.00517749 -3.83658e-21)
(1.09102 -0.00742169 3.63611e-21)
(1.08776 -0.00950394 0)
(1.08467 -0.0116362 -5.23995e-22)
(1.08203 -0.0136782 0)
(1.07975 -0.0156473 -4.78373e-21)
(1.07785 -0.0175483 4.7245e-21)
(1.07626 -0.0194254 3.06352e-22)
(1.07503 -0.0212482 -1.52537e-25)
(1.0741 -0.0230535 0)
(1.07353 -0.0248149 -5.27056e-21)
(1.07327 -0.0265659 4.89986e-21)
(1.07336 -0.0282825 -5.383e-21)
(1.07377 -0.0299943 1.07522e-20)
(1.07455 -0.0316796 -1.08315e-20)
(1.07568 -0.0333651 5.39912e-21)
(1.0772 -0.0350369 0)
(1.07912 -0.0367236 5.76995e-21)
(1.08161 -0.0385699 -1.00703e-20)
(1.08466 -0.040113 6.06608e-21)
(1.08837 -0.0418591 0)
(1.09122 -0.0430854 4.72169e-21)
(1.09512 -0.0450897 0)
(1.25204 0.0527448 3.04309e-22)
(1.24436 0.061886 9.10307e-22)
(1.26007 0.0691596 4.3423e-22)
(1.27641 0.0769402 0)
(1.28523 0.0654817 8.28254e-22)
(1.26785 0.0586199 9.40474e-22)
(1.22361 0.0405206 0)
(1.23792 0.0457542 7.53991e-21)
(1.19754 0.0307366 -2.09863e-22)
(1.21006 0.0350783 1.08694e-21)
(1.17411 0.0232631 0)
(1.1854 0.0264916 0)
(1.15401 0.0164758 0)
(1.1632 0.0204308 -7.9464e-22)
(1.13731 0.0106113 -1.1371e-23)
(1.14533 0.0135258 3.73933e-27)
(1.12311 0.00509984 -6.38628e-23)
(1.12995 0.00782715 -1.64298e-26)
(1.11115 3.75983e-05 5.27437e-23)
(1.1169 0.00253725 3.32336e-26)
(1.10119 -0.00461241 -6.58564e-23)
(1.10596 -0.00231163 2.83139e-26)
(1.09314 -0.0089878 -6.188e-22)
(1.09693 -0.00674274 -1.236e-22)
(1.08647 -0.0128811 1.73084e-22)
(1.0896 -0.010937 6.02643e-22)
(1.08145 -0.0166964 -8.78232e-23)
(1.08379 -0.0148021 8.58896e-26)
(1.07783 -0.0203103 -1.01548e-22)
(1.07948 -0.0185081 0)
(1.07556 -0.023784 1.00651e-25)
(1.07653 -0.0220477 4.60781e-26)
(1.07461 -0.0271555 1.12218e-22)
(1.07492 -0.0254677 -4.78846e-26)
(1.07501 -0.0304537 0)
(1.07464 -0.0288006 0)
(1.07681 -0.0336984 -5.68383e-26)
(1.07572 -0.0320719 -5.34856e-26)
(1.08016 -0.0369404 8.10625e-22)
(1.07827 -0.0352971 1.13224e-25)
(1.0855 -0.0400414 -1.17414e-21)
(1.08241 -0.0386895 0)
(1.08888 -0.0418842 0)
(1.21381 0.0532371 0)
(1.22934 0.0572466 0)
(1.18944 0.0424393 0)
(1.20137 0.047695 2.92926e-22)
(1.16712 0.0337574 6.71096e-22)
(1.17792 0.0374494 -4.46061e-23)
(1.14794 0.0224272 -2.46883e-23)
(1.15732 0.0288244 5.15476e-24)
(1.13153 0.0152459 0)
(1.13954 0.0187987 0)
(1.11759 0.00863568 4.57872e-26)
(1.12422 0.0118218 1.18974e-28)
(1.10603 0.00278466 -1.15136e-25)
(1.11153 0.00562722 -4.59928e-26)
(1.09651 -0.00250672 0)
(1.10102 6.96216e-05 0)
(1.08882 -0.0073109 0)
(1.09244 -0.00497439 0)
(1.08273 -0.0118208 0)
(1.08557 -0.00962554 0)
(1.07819 -0.0159752 -6.04066e-27)
(1.08028 -0.0139336 0)
(1.07505 -0.0199197 -5.03534e-26)
(1.07645 -0.0179743 0)
(1.07325 -0.0237008 0)
(1.07399 -0.0218329 5.3808e-26)
(1.0728 -0.027355 -5.7984e-26)
(1.07286 -0.0255451 0)
(1.07372 -0.0309192 -6.08739e-26)
(1.07309 -0.0291499 5.91339e-26)
(1.07609 -0.0344267 -6.29181e-26)
(1.07472 -0.0326804 6.112e-26)
(1.07995 -0.0378675 -6.16181e-26)
(1.07786 -0.0361725 6.26779e-26)
(1.08494 -0.0409934 0)
(1.08211 -0.0393397 6.34523e-26)
(1.09247 -0.0444185 0)
(1.08908 -0.0430816 0)
(1.30397 0.073054 5.81806e-23)
(1.32431 0.0808049 0)
(1.31303 0.0944642 5.15433e-22)
(1.29402 0.0852155 3.41495e-21)
(1.3471 0.0890344 -4.14156e-21)
(1.33344 0.105001 5.27867e-22)
(1.36992 0.0945486 9.86618e-21)
(1.09321 -0.0434044 -3.32029e-21)
(1.0974 -0.0453183 -1.03889e-21)
(1.09634 -0.0460177 0)
(1.25158 0.0796679 -2.82019e-22)
(1.2371 0.0734063 -8.69945e-22)
(1.26678 0.087738 1.0869e-24)
(1.30154 0.106118 1.52246e-21)
(1.32076 0.116821 -4.1738e-21)
(1.43192 0.11836 1.14395e-20)
(1.39273 0.118229 6.45581e-21)
(1.37844 0.0761551 -1.47119e-20)
(1.33315 0.0655014 -1.16033e-21)
(1.35473 0.0714043 2.49063e-21)
(1.29266 0.0533118 1.03064e-22)
(1.31222 0.059744 -1.48786e-21)
(1.25792 0.0424579 2.82644e-22)
(1.27465 0.0475131 -1.46184e-21)
(1.22801 0.0322825 2.38181e-22)
(1.24298 0.0364424 -6.65759e-22)
(1.20106 0.0245327 -7.67758e-22)
(1.21409 0.0279214 -1.07158e-21)
(1.17741 0.0174334 1.20141e-22)
(1.1889 0.0205928 -3.115e-23)
(1.15767 0.011556 0)
(1.16705 0.0148556 1.45859e-22)
(1.14099 0.00611075 -5.16705e-24)
(1.149 0.00881014 -2.60609e-26)
(1.12665 0.0012064 9.54907e-24)
(1.13356 0.00362943 1.69668e-27)
(1.11447 -0.00328559 0)
(1.12031 -0.00105354 -3.43193e-26)
(1.10429 -0.00743811 0)
(1.10915 -0.00537046 8.23657e-26)
(1.09592 -0.0113242 0)
(1.09992 -0.00938152 1.29008e-22)
(1.08918 -0.01494 2.91683e-25)
(1.09236 -0.0131361 -2.86689e-25)
(1.08394 -0.018418 6.3614e-24)
(1.08637 -0.0166783 0)
(1.08015 -0.0217548 -9.21077e-23)
(1.08187 -0.0200827 0)
(1.07772 -0.0249833 -1.94886e-25)
(1.07876 -0.0233627 9.5094e-26)
(1.07663 -0.0281347 0)
(1.077 -0.0265508 -9.38076e-26)
(1.07689 -0.0312335 1.098e-22)
(1.07659 -0.0296745 2.08505e-25)
(1.07856 -0.034291 0)
(1.07754 -0.0327552 3.30466e-25)
(1.08177 -0.0373723 -9.85369e-22)
(1.07995 -0.0357906 1.08258e-25)
(1.08682 -0.0404001 9.52236e-22)
(1.08396 -0.0390278 -1.30065e-22)
(1.09004 -0.0419945 2.75011e-22)
(1.10231 -0.0468754 1.03176e-21)
(1.10257 -0.0481346 0)
(1.10642 -0.0480839 -5.10064e-21)
(1.10543 -0.0482769 1.51209e-21)
(1.20937 0.0602732 6.65947e-23)
(1.22259 0.0671493 -1.04682e-22)
(1.18441 0.0479436 0)
(1.19632 0.0536419 9.98786e-23)
(1.16311 0.0379304 -2.26112e-22)
(1.17332 0.0429142 -5.90003e-23)
(1.14494 0.027939 -4.543e-23)
(1.15354 0.0323074 -3.70418e-23)
(1.12975 0.0202415 0)
(1.13706 0.0239491 0)
(1.11636 0.0131402 0)
(1.1228 0.0165846 -3.63687e-28)
(1.10506 0.00683789 5.96084e-26)
(1.11047 0.00990441 -2.70572e-28)
(1.09562 0.00115182 0)
(1.10013 0.00392729 0)
(1.08787 -0.00402944 1.10201e-25)
(1.09155 -0.00149203 0)
(1.08171 -0.00879954 -1.22019e-26)
(1.08462 -0.00644884 -8.86944e-26)
(1.07694 -0.0132746 6.57189e-27)
(1.07915 -0.0110754 0)
(1.07354 -0.0174747 0)
(1.07508 -0.0154017 0)
(1.07145 -0.0214775 1.83098e-27)
(1.07233 -0.0194962 0)
(1.07064 -0.025331 -4.57424e-28)
(1.07088 -0.023419 0)
(1.07115 -0.0290754 4.91056e-28)
(1.07073 -0.0272135 0)
(1.07305 -0.03275 -1.27054e-25)
(1.07192 -0.0309175 0)
(1.07654 -0.0364114 -9.90104e-28)
(1.07457 -0.0345765 1.27557e-25)
(1.08219 -0.0402937 2.61793e-22)
(1.07909 -0.0383142 0)
(1.09023 -0.0443034 1.28027e-21)
(1.08581 -0.0422546 -1.02467e-21)
(1.10043 -0.0481605 -1.01153e-21)
(1.09531 -0.0463637 -2.5516e-22)
(1.28348 0.0963367 -1.51782e-21)
(1.24213 0.088813 -2.92347e-22)
(1.2287 0.0810124 1.99719e-23)
(1.25666 0.0974966 4.80334e-22)
(1.28931 0.117744 6.71282e-22)
(1.30754 0.129849 -1.25429e-21)
(1.09819 -0.0481603 0)
(1.10646 -0.0500384 1.25025e-21)
(1.10408 -0.0500583 -2.58638e-22)
(1.41905 0.130262 3.49509e-21)
(1.3557 0.117745 -5.29703e-21)
(1.10725 -0.0478216 -1.69831e-21)
(1.34182 0.127657 3.64686e-21)
(1.11359 -0.0495272 -4.09118e-21)
(1.43802 0.0734381 -1.27882e-20)
(1.46228 0.12308 -5.23497e-22)
(1.49607 0.105579 -2.99495e-20)
(1.49877 0.0838915 6.03486e-21)
(1.46898 0.077019 4.47247e-21)
(1.38377 0.0616322 -1.30237e-20)
(1.4087 0.0665542 7.3506e-21)
(1.33931 0.0506289 8.56299e-22)
(1.36085 0.0566053 -4.11246e-21)
(1.29857 0.0406488 6.2798e-23)
(1.31825 0.0455226 4.50084e-22)
(1.26248 0.0320693 -3.32556e-22)
(1.27997 0.0359726 0)
(1.23171 0.0235802 0)
(1.24656 0.0272029 6.80674e-22)
(1.20413 0.0172753 7.28264e-22)
(1.21761 0.0198805 0)
(1.18081 0.0113556 2.08486e-22)
(1.19206 0.014126 3.04403e-25)
(1.16073 0.00622233 0)
(1.17047 0.00891882 -2.0693e-22)
(1.14359 0.00152033 7.82642e-24)
(1.15178 0.00389352 1.31744e-25)
(1.12903 -0.00276753 7.30137e-24)
(1.13603 -0.000649711 -5.05849e-26)
(1.11667 -0.00668499 2.88506e-23)
(1.12259 -0.004734 0)
(1.10634 -0.0103288 -4.4406e-23)
(1.11127 -0.00850823 -8.23685e-26)
(1.09783 -0.013785 5.7551e-23)
(1.10189 -0.0120703 0)
(1.09101 -0.0170399 6.91942e-23)
(1.09423 -0.0154039 0)
(1.0857 -0.0201849 8.39597e-23)
(1.08817 -0.0186078 0)
(1.08184 -0.0232326 9.21058e-23)
(1.08359 -0.0216999 0)
(1.07936 -0.0262097 -3.70739e-25)
(1.08043 -0.024711 3.6731e-25)
(1.07823 -0.0291378 -1.97602e-25)
(1.07862 -0.0276624 3.939e-25)
(1.07846 -0.0320361 -2.15776e-22)
(1.07817 -0.0305742 3.9916e-25)
(1.08011 -0.0349163 0)
(1.07911 -0.0334653 -6.36812e-25)
(1.08328 -0.0378063 0)
(1.08149 -0.0363293 -6.58977e-25)
(1.08829 -0.0407457 3.63175e-22)
(1.08548 -0.0393689 2.33082e-22)
(1.0949 -0.0436064 -1.11597e-21)
(1.09154 -0.0421709 -2.41568e-22)
(1.10416 -0.0468781 0)
(1.09927 -0.0453737 1.04197e-21)
(1.10918 -0.0479171 5.25003e-22)
(1.11096 -0.0499294 2.7869e-22)
(1.11285 -0.0498647 4.38615e-21)
(1.10839 -0.0496779 0)
(1.20268 0.0664488 -2.08596e-22)
(1.21576 0.0734636 0)
(1.17908 0.0538455 0)
(1.19045 0.0597932 8.53705e-23)
(1.15839 0.0422885 -1.09611e-25)
(1.16834 0.0480541 5.53223e-23)
(1.14043 0.0321914 4.16948e-23)
(1.14921 0.0370364 3.98494e-23)
(1.12502 0.0236188 0)
(1.13242 0.0278389 0)
(1.11204 0.0159301 1.26122e-25)
(1.11826 0.0196543 1.24375e-27)
(1.10114 0.009125 0)
(1.10635 0.0124291 4.77369e-28)
(1.0921 0.0030204 -3.40054e-25)
(1.0964 0.00599405 0)
(1.08472 -0.00251711 -2.22346e-26)
(1.08821 0.000187618 3.41445e-25)
(1.07886 -0.00761092 1.2202e-26)
(1.08161 -0.00511634 3.66458e-28)
(1.07442 -0.0123334 2.12724e-25)
(1.07647 -0.0100129 0)
(1.07131 -0.0167698 2.315e-25)
(1.0727 -0.0145831 -2.20189e-25)
(1.06949 -0.0209879 8.23421e-29)
(1.07024 -0.0189029 -2.32442e-25)
(1.06895 -0.0250412 2.51176e-25)
(1.06906 -0.0230324 0)
(1.06973 -0.0289756 2.5787e-25)
(1.06917 -0.0270209 -2.51701e-25)
(1.07189 -0.0328283 2.63447e-25)
(1.07063 -0.0309109 -2.589e-25)
(1.07554 -0.0365929 -1.0595e-27)
(1.07353 -0.0347252 -2.64537e-25)
(1.08087 -0.0403531 -2.66818e-22)
(1.07795 -0.0384398 0)
(1.08819 -0.0441683 0)
(1.0843 -0.042281 0)
(1.09277 -0.0461546 0)
(1.27232 0.107022 -6.56967e-22)
(1.32825 0.141884 5.26188e-22)
(1.23259 0.0973099 -4.34617e-23)
(1.21995 0.0889772 -1.75032e-22)
(1.11273 -0.0517821 -1.25448e-21)
(1.1106 -0.0520169 0)
(1.24622 0.106215 0)
(1.44888 0.143878 -1.36827e-20)
(1.11481 -0.0493051 1.40848e-20)
(1.12137 -0.0497886 -1.46379e-20)
(1.48905 0.125947 0)
(1.3795 0.129504 2.3191e-21)
(1.40487 0.146412 -2.73629e-20)
(1.49913 0.0603225 1.33373e-21)
(1.53292 0.0671055 -4.04937e-22)
(1.52453 0.0877678 1.50143e-20)
(1.36507 0.141076 5.6103e-21)
(1.35091 0.154393 1.32905e-21)
(1.44479 0.0518843 4.3872e-21)
(1.4717 0.0546429 -6.32421e-21)
(1.39215 0.0446628 -4.41622e-22)
(1.41723 0.0476462 9.31959e-22)
(1.34402 0.0360343 -3.51183e-22)
(1.36693 0.0407932 1.43844e-21)
(1.30273 0.0275078 0)
(1.32289 0.0314596 -4.50317e-24)
(1.26604 0.0209388 -6.68789e-24)
(1.28378 0.0240399 9.77204e-24)
(1.23446 0.0145676 0)
(1.24952 0.0174668 0)
(1.20711 0.00942645 0)
(1.22034 0.0117074 0)
(1.18345 0.00474408 -2.4483e-24)
(1.19479 0.00697268 2.03292e-24)
(1.16306 0.000587428 -4.19446e-23)
(1.17294 0.002773 -1.21788e-24)
(1.14553 -0.00325217 -1.05542e-23)
(1.1539 -0.00130874 8.44737e-26)
(1.13075 -0.00682085 1.06816e-23)
(1.13784 -0.00504518 -4.68323e-26)
(1.11826 -0.0101353 -5.24744e-23)
(1.12424 -0.00847761 4.36367e-25)
(1.10783 -0.0132589 4.51137e-24)
(1.1128 -0.0116925 5.79508e-25)
(1.09926 -0.0162652 -5.69174e-23)
(1.10333 -0.0147597 -7.96627e-25)
(1.09239 -0.0191415 -6.91902e-23)
(1.09562 -0.017692 0)
(1.08705 -0.021951 -7.48288e-23)
(1.08954 -0.0205371 0)
(1.08318 -0.024706 6.50846e-25)
(1.08494 -0.0233163 -6.43509e-25)
(1.0807 -0.0274271 7.09967e-25)
(1.08177 -0.0260535 -7.03441e-25)
(1.07958 -0.0301289 0)
(1.07997 -0.0287641 0)
(1.07983 -0.0328251 1.05366e-22)
(1.07953 -0.0314621 7.71177e-25)
(1.0815 -0.0355284 0)
(1.08048 -0.0341624 1.23053e-24)
(1.08469 -0.0382432 0)
(1.08289 -0.0368608 4.344e-25)
(1.08974 -0.0410303 -1.15585e-22)
(1.08692 -0.0396894 -2.30865e-22)
(1.09653 -0.0437783 -5.87031e-22)
(1.09301 -0.0423976 2.31789e-22)
(1.10565 -0.0467589 4.92666e-22)
(1.10091 -0.0453675 1.22228e-21)
(1.1103 -0.0478999 -5.25029e-22)
(1.11953 -0.0508119 0)
(1.12078 -0.0503903 1.93371e-21)
(1.11675 -0.0514061 -1.0712e-21)
(1.11857 -0.0512355 0)
(1.1148 -0.051512 -7.76917e-22)
(1.19568 0.073464 1.66842e-22)
(1.20775 0.0811581 -1.6837e-22)
(1.17269 0.0593056 -2.70606e-25)
(1.18381 0.0661168 -2.16975e-25)
(1.15305 0.0471476 -4.08768e-25)
(1.1625 0.0530124 1.53642e-26)
(1.13586 0.0365495 0)
(1.14413 0.041615 0)
(1.12131 0.0274268 1.18891e-25)
(1.12827 0.0318293 0)
(1.10887 0.0193276 -2.71592e-25)
(1.11485 0.0232607 -8.80046e-28)
(1.09834 0.0121197 0)
(1.10338 0.0156208 0)
(1.08957 0.00565885 0)
(1.09375 0.00880569 0)
(1.08238 -0.000194842 3.79828e-25)
(1.08578 0.00266426 0)
(1.07665 -0.0055579 0)
(1.07934 -0.00292981 -4.07209e-25)
(1.07228 -0.0105323 0)
(1.0743 -0.00808878 0)
(1.0692 -0.0151924 0)
(1.07058 -0.0128967 0)
(1.06737 -0.0196105 -1.91339e-27)
(1.06813 -0.0174274 0)
(1.06679 -0.0238474 -4.95723e-28)
(1.06692 -0.0217481 0)
(1.06748 -0.0279541 -1.03971e-27)
(1.06697 -0.0259139 0)
(1.06955 -0.031977 5.46112e-25)
(1.06834 -0.029973 0)
(1.07315 -0.0359691 5.55186e-25)
(1.07114 -0.0339722 -5.47784e-25)
(1.07856 -0.0399887 -4.42209e-27)
(1.07562 -0.0379785 -5.55254e-25)
(1.08611 -0.0440961 0)
(1.08202 -0.0420296 0)
(1.09608 -0.0482513 5.56226e-22)
(1.09081 -0.0461881 0)
(1.61549 0.120335 4.24954e-21)
(1.60563 0.0905762 0)
(1.38838 0.155173 -1.69964e-21)
(1.53031 0.114654 1.12449e-20)
(1.1085 -0.0523117 -5.50154e-22)
(1.10202 -0.0503068 -5.47416e-22)
(1.27707 0.128013 -8.60946e-22)
(1.26118 0.116236 0)
(1.31362 0.154357 2.01018e-21)
(1.29402 0.141454 1.08794e-21)
(1.37607 0.167958 3.38931e-21)
(1.62775 0.0769105 4.1593e-20)
(1.62977 0.133927 3.64882e-20)
(1.51216 0.131398 -2.16515e-20)
(1.62389 0.0472546 -2.36952e-20)
(1.6052 0.0583603 0)
(1.2106 0.0954693 2.10572e-22)
(1.22283 0.104598 -2.23208e-22)
(1.43334 0.166038 2.51428e-20)
(1.63025 0.0887575 -4.52849e-20)
(1.61309 0.0563718 0)
(1.33529 0.169436 9.37482e-22)
(1.10627 -0.0526028 1.09972e-21)
(1.1153 -0.0542687 -1.06395e-21)
(1.11315 -0.0547056 1.07781e-21)
(1.63038 0.114155 1.03166e-20)
(1.48331 0.150879 7.37159e-21)
(1.6171 0.178343 0)
(1.50134 0.0384986 1.39343e-21)
(1.53925 0.0442127 0)
(1.44924 0.0315442 -2.0003e-21)
(1.47407 0.034211 2.5127e-21)
(1.39784 0.0262383 4.30866e-22)
(1.42286 0.0279584 0)
(1.34815 0.0203451 6.86178e-22)
(1.37207 0.0236845 -1.18915e-23)
(1.30579 0.0143928 -5.41913e-22)
(1.32618 0.0172888 -1.27011e-23)
(1.2688 0.00963061 1.41005e-23)
(1.28666 0.0118947 -1.67721e-23)
(1.23677 0.00521843 -3.25948e-22)
(1.25209 0.00726955 5.5594e-24)
(1.20923 0.00144001 1.18945e-22)
(1.22251 0.00319056 -4.15135e-24)
(1.18536 -0.00201306 0)
(1.19683 -0.000342476 0)
(1.16479 -0.00517504 4.33939e-23)
(1.17473 -0.00352465 0)
(1.1471 -0.00813005 0)
(1.15556 -0.00662792 0)
(1.13219 -0.010936 -1.12148e-25)
(1.13934 -0.00952465 3.33018e-25)
(1.11962 -0.0136194 2.37892e-23)
(1.12563 -0.0122659 -7.34263e-25)
(1.10913 -0.0162101 7.37892e-23)
(1.11413 -0.0149022 0)
(1.10051 -0.0187499 0)
(1.1046 -0.017468 0)
(1.09362 -0.0212375 -1.86637e-24)
(1.09686 -0.0199785 2.67633e-24)
(1.08828 -0.0237066 3.99172e-24)
(1.09077 -0.0224574 1.01416e-24)
(1.08441 -0.0261669 -1.24033e-24)
(1.08617 -0.0249209 6.27061e-26)
(1.08193 -0.0286295 -1.36111e-24)
(1.083 -0.0273821 5.65667e-26)
(1.08082 -0.0311035 0)
(1.08121 -0.0298502 -1.40152e-24)
(1.08109 -0.0335968 -9.87381e-23)
(1.08078 -0.0323333 -7.73689e-25)
(1.08279 -0.0361199 0)
(1.08175 -0.0348413 7.58928e-25)
(1.08602 -0.0386681 0)
(1.0842 -0.0373728 1.63205e-24)
(1.09108 -0.0412939 0)
(1.08827 -0.0399994 8.64585e-25)
(1.09797 -0.0439178 2.3103e-22)
(1.09435 -0.0425927 0)
(1.10716 -0.0467354 -9.91192e-22)
(1.10232 -0.0453572 -1.13891e-22)
(1.11826 -0.0495965 4.5563e-21)
(1.11245 -0.0481278 0)
(1.12505 -0.0517587 -1.00613e-21)
(1.12562 -0.050238 3.12911e-21)
(1.12645 -0.051391 -1.8942e-21)
(1.12263 -0.052681 -1.03069e-21)
(1.12421 -0.0523166 2.03497e-21)
(1.11929 -0.0534504 2.03968e-21)
(1.12109 -0.0530679 2.49494e-21)
(1.11739 -0.0538596 5.31124e-22)
(1.18762 0.0792408 -2.57514e-24)
(1.19896 0.0870999 3.26872e-23)
(1.16605 0.0645103 1.60061e-24)
(1.17652 0.0716401 0)
(1.14714 0.0515844 1.10474e-25)
(1.15628 0.0578433 -1.53566e-26)
(1.13071 0.0403858 -1.13142e-25)
(1.13863 0.045784 2.99032e-25)
(1.11662 0.0306557 1.11398e-24)
(1.12339 0.0353651 0)
(1.10466 0.0220831 -1.9925e-26)
(1.11039 0.0262373 -1.09122e-24)
(1.09458 0.0144833 -1.4581e-24)
(1.0994 0.0181727 0)
(1.08618 0.00768484 0)
(1.09018 0.0109942 1.46389e-24)
(1.07932 0.00153844 8.93896e-25)
(1.08257 0.00453817 0)
(1.07386 -0.00408441 9.39541e-25)
(1.07642 -0.00133139 -8.71565e-25)
(1.06973 -0.00928276 0)
(1.07163 -0.00673046 -9.28499e-25)
(1.06684 -0.0141474 1.02142e-24)
(1.06813 -0.0117516 0)
(1.06518 -0.0187547 -2.08734e-27)
(1.06586 -0.0164789 -1.02139e-24)
(1.06474 -0.0231696 1.08604e-24)
(1.06481 -0.0209825 0)
(1.06556 -0.0274473 1.11155e-24)
(1.06499 -0.0253224 -1.08976e-24)
(1.06773 -0.0316333 1.13084e-24)
(1.06647 -0.0295494 -1.11538e-24)
(1.07138 -0.0357618 1.14245e-24)
(1.06936 -0.0337024 -1.13528e-24)
(1.07672 -0.0398865 1.15686e-24)
(1.07381 -0.0378196 -1.14918e-24)
(1.08402 -0.0440218 -1.16305e-24)
(1.0801 -0.0419513 -1.15685e-24)
(1.09385 -0.0483259 -5.63734e-22)
(1.0886 -0.0461542 1.14286e-24)
(1.09976 -0.0504786 5.58442e-22)
(1.23596 0.114257 7.21504e-22)
(1.26408 0.136675 9.89971e-22)
(1.24974 0.124685 -1.15797e-21)
(1.29775 0.165906 -3.28031e-22)
(1.27991 0.151275 -9.80578e-22)
(1.41651 0.181233 6.26219e-22)
(1.62021 0.0198423 -7.41381e-21)
(1.60642 0.0275541 -6.98057e-21)
(1.53972 0.0600895 9.07946e-21)
(1.56134 0.0971751 -2.06165e-20)
(1.11982 -0.0492684 2.89916e-21)
(1.12632 -0.0500277 -1.53197e-21)
(1.35964 0.187602 5.41999e-22)
(1.31716 0.181905 -2.7519e-21)
(1.12208 -0.0560706 -1.59072e-21)
(1.12015 -0.0566306 1.06746e-21)
(1.61873 0.160596 -5.74572e-20)
(1.50773 0.157708 -6.27078e-20)
(1.59783 0.0272539 2.62537e-20)
(1.47265 0.179764 -4.85525e-20)
(1.40758 0.203276 0)
(1.21313 0.111719 1.18292e-23)
(1.20135 0.102067 0)
(1.50695 0.0160418 -4.24058e-21)
(1.54745 0.0192156 -2.00078e-22)
(1.45171 0.0110508 0)
(1.47797 0.0130295 0)
(1.40051 0.00733978 0)
(1.42545 0.00871401 -3.03864e-23)
(1.35082 0.00418688 7.36999e-22)
(1.37492 0.0059681 1.18095e-23)
(1.30785 0.00101561 1.13918e-21)
(1.3285 0.0026322 0)
(1.27065 -0.00174982 -4.50171e-22)
(1.28858 -0.000397683 0)
(1.23843 -0.00432401 1.32247e-22)
(1.2539 -0.00311648 1.57271e-23)
(1.21065 -0.00662946 -2.61509e-22)
(1.22403 -0.00551885 2.87447e-23)
(1.18666 -0.00885826 8.81933e-23)
(1.1982 -0.00775645 0)
(1.16603 -0.0109714 0)
(1.17598 -0.00985632 0)
(1.14834 -0.0130352 2.50836e-23)
(1.15681 -0.0119691 3.96481e-24)
(1.13339 -0.0150772 6.24522e-24)
(1.14055 -0.0140338 -1.79451e-25)
(1.12078 -0.0171162 1.32972e-23)
(1.12681 -0.0160733 1.35201e-25)
(1.11028 -0.019163 -3.44848e-23)
(1.11528 -0.0181179 0)
(1.10166 -0.021233 0)
(1.10574 -0.0201774 1.14541e-24)
(1.09476 -0.0233247 -5.65338e-23)
(1.09801 -0.0222581 -8.40516e-25)
(1.08943 -0.0254506 7.08157e-23)
(1.09191 -0.0243676 -2.92343e-24)
(1.08556 -0.0276145 0)
(1.08732 -0.0265128 3.37775e-24)
(1.0831 -0.0298182 -2.60885e-24)
(1.08416 -0.0286971 3.87808e-24)
(1.08201 -0.0320644 -9.15194e-23)
(1.08238 -0.0309224 2.80042e-24)
(1.08229 -0.0343552 1.00225e-22)
(1.08197 -0.033191 -1.48778e-24)
(1.08401 -0.0366965 0)
(1.08296 -0.0355069 -1.5701e-24)
(1.08727 -0.0390826 8.13133e-25)
(1.08544 -0.0378691 -2.44231e-24)
(1.09235 -0.0415517 -1.06103e-22)
(1.08954 -0.0403176 0)
(1.09934 -0.044064 0)
(1.09562 -0.0427847 0)
(1.10863 -0.0467323 -4.55065e-22)
(1.10373 -0.0454082 1.15969e-22)
(1.11391 -0.0479927 9.31263e-22)
(1.12975 -0.0526418 -4.6884e-22)
(1.13053 -0.0513947 -4.9555e-21)
(1.1305 -0.0520166 3.58878e-22)
(1.12796 -0.0537555 -6.09861e-26)
(1.12902 -0.0532069 0)
(1.12547 -0.0549256 -2.6425e-22)
(1.12682 -0.0543317 -1.01069e-21)
(1.12389 -0.0555011 -1.53823e-21)
(1.17935 0.0848059 2.58436e-24)
(1.19016 0.0931688 -3.25202e-23)
(1.15891 0.0691948 -1.60223e-24)
(1.16889 0.0768067 0)
(1.14098 0.0556463 -8.8005e-25)
(1.14963 0.0621607 2.72306e-25)
(1.12544 0.0439423 2.37926e-24)
(1.13293 0.0495838 6.27988e-26)
(1.1121 0.03377 -1.41253e-25)
(1.11851 0.0386825 -2.13496e-24)
(1.10071 0.0248332 -2.91224e-24)
(1.10618 0.0291642 -1.58311e-26)
(1.09107 0.0169062 -1.02406e-25)
(1.09568 0.0207549 2.90278e-24)
(1.08302 0.00981693 5.53499e-26)
(1.08685 0.0132672 0)
(1.07643 0.00341267 2.95001e-26)
(1.07955 0.00653799 3.59046e-27)
(1.0712 -0.00243669 8.75752e-28)
(1.07365 0.000426267 1.90271e-27)
(1.06722 -0.00784157 0)
(1.06906 -0.00518852 0)
(1.06446 -0.0128938 1.91204e-28)
(1.06569 -0.0104062 -5.20211e-28)
(1.06288 -0.0176741 -9.06016e-29)
(1.06352 -0.0153132 0)
(1.06249 -0.022252 -5.3729e-28)
(1.06253 -0.0199843 0)