/*--------------------------------*- C++ -*----------------------------------*\
  =========                 |
  \\      /  F ield         | OpenFOAM: The Open Source CFD Toolbox
   \\    /   O peration     | Website:  https://openfoam.org
    \\  /    A nd           | Version:  10
     \\/     M anipulation  |
\*---------------------------------------------------------------------------*/
FoamFile
{
    format      ascii;
    class       surfaceScalarField;
    location    "5.5";
    object      phi;
}
// * * * * * * * * * * * * * * * * * * * * * * * * * * * * * * * * * * * * * //

dimensions      [0 3 -1 0 0 0 0];

internalField   nonuniform List<scalar> 
29080
(
0.0907635
-0.145255
-0.0153211
0.0698123
0.0509805
0.039783
0.0158008
0.0402358
-0.0352158
-0.0208209
0.0539525
0.00726417
-0.0454159
0.049904
-0.00236913
0.00641768
0.0315052
-0.0585217
0.0476468
-0.0206303
-0.0485362
0.0291147
0.0509267
0.0472669
0.00697137
-0.0647061
0.0104678
-0.0416452
0.0958947
-0.00698266
0.0152301
-0.103356
-0.0159607
0.060795
-0.0838142
0.0553125
0.0822682
0.0663075
-0.0268394
-0.107376
0.0377565
0.0651948
0.00442492
0.000796624
0.0508892
-0.0161871
-0.0326053
0.0500152
0.0264789
0.0535902
-0.0883032
0.00823408
0.0200067
0.0748227
0.0204008
0.0635861
-0.00408454
0.00156235
-0.000478564
-0.00491366
0.00382988
-0.00986592
-0.017586
0.0290143
-0.00618893
-0.00372973
5.274e-05
-0.00653696
-0.000130536
-0.00365875
-0.00779187
-0.0692932
0.00389911
0.00589906
0.0594951
-0.034195
-0.0483071
0.0132089
0.0409141
-0.0384248
-0.0366844
-0.00316625
0.00207081
0.0058341
-0.00473866
0.00865289
-0.0118191
-0.00237342
0.0110263
0.00507173
-0.00537434
0.00542744
0.00547839
-0.037858
-0.00431223
0.0313796
0.0107906
0.00224103
-0.029145
-0.0109541
0.0348585
0.00160339
-0.0342209
0.0229203
0.00762596
0.0225645
0.0317354
-0.0355484
0.012595
0.0305154
-0.00756197
0.0250607
-0.0483622
-0.0122469
0.0170854
0.0122947
-0.00431944
0.0196528
0.0100276
0.0195368
0.0306314
0.0854424
0.00822881
-0.0469344
-0.0467368
0.00438264
0.0804187
0.000641063
-0.0564096
0.0598109
0.000981297
-0.0445871
-0.00359371
-0.0579194
-0.00403209
0.0142594
0.0476921
-0.066223
0.0122026
-0.0448907
0.0195818
0.0751397
0.0286618
-0.0412239
-0.0625775
-0.0291096
0.0254382
0.078811
0.0715409
-0.104215
0.0670277
-0.0343539
-0.0385102
0.0557127
0.0543384
0.00478666
0.0153823
-0.0125645
-0.00760442
0.0257063
0.00161498
-0.0225346
-0.0053824
0.00525186
-0.00904115
-0.0607419
-0.0375194
0.00844355
0.0898177
-0.027418
0.0240577
-0.0573815
0.053888
-0.0580544
-0.0232517
0.0525449
-0.0361763
0.0680232
-0.00703473
0.0891357
-0.0400618
-0.0490739
-0.0604989
0.0512143
0.0984203
-0.0285143
-0.029846
0.0199355
-0.00372275
0.0167572
-0.0415487
0.0132207
-0.0467895
0.00680286
0.00549187
0.0168305
-3.82024e-05
0.0600356
-0.000186524
-0.0443971
0.0548196
0.00434173
-0.0147642
-0.0877235
-0.00826395
0.0515903
-0.00734305
0.0210053
-0.0409325
0.0187562
-0.0426415
0.00527325
-0.0357219
0.0380746
-0.0438613
-7.09522e-05
0.0492055
-0.036546
0.00242745
0.0490648
-0.0479202
-0.00244952
0.00130492
-0.00121892
-0.00131716
0.0516008
-0.0137753
-0.00797471
0.00640337
0.0153467
-0.0221956
0.016351
-0.00793069
-0.00170588
0.0325033
-0.00509114
0.0407978
-0.0020292
-0.0404745
0.0760426
-0.00358061
-0.0869281
0.0144662
-0.00210177
0.0512094
0.026935
0.0550441
-0.00637427
0.00649578
-0.0551656
0.0555319
0.00471355
-0.00520138
0.000321174
-0.0461452
0.0466964
-0.000872372
-0.0466764
0.0472388
-0.000241236
-0.00165538
0.0452429
-0.0452755
0.00168804
0.0463896
-0.0028748
-0.0451702
-0.0013647
0.0457416
-0.0462408
0.00186399
0.0460896
-0.0016961
-0.0457582
0.000595246
0.0456543
-0.0455024
-0.000747184
0.0463597
-0.000229838
-0.0455346
0.0342825
0.0840139
-0.121877
-0.0726294
0.0778023
-0.0120536
-0.0514846
0.00971219
0.053826
-0.0486529
-0.0170866
0.0536859
0.0117507
-0.0124378
-0.0479659
0.00927427
-0.0490081
-0.0523516
0.00745143
0.0519062
-0.00700599
0.010077
-0.0527165
-0.00117296
-0.030341
0.00299209
0.0285219
-0.0185069
0.0175389
-0.000204917
0.00186143
-0.0199796
-0.000388814
0.00382365
-0.0323033
-0.0281074
-0.00466263
0.00362509
0.015852
-0.0409673
0.0185141
0.0409373
-0.016265
-0.0431864
0.0242243
0.0556957
-0.0614059
0.00611465
0.0590469
-0.0144813
-0.0190995
0.0226267
-0.00475982
0.00781744
-0.000728394
-0.0449239
-0.000492882
-0.0404155
-0.00698933
-0.0389847
-0.00142024
-1.0512e-05
-0.0136396
-0.0253273
-1.7705e-05
0.0439356
-0.0541241
-0.00345109
-0.0024086
-0.0253259
1.8192e-05
-1.96176e-05
1.86983e-05
-0.0253201
-2.44774e-05
0.0527119
-0.0526856
-7.61262e-06
-0.00139408
-0.0253151
1.77105e-05
-2.27375e-05
2.26597e-05
-0.0253068
-3.09837e-05
0.052657
-0.0526255
-8.83473e-06
-1.08054e-05
-0.0252984
2.17649e-05
-3.01124e-05
2.89559e-05
-0.0252866
-4.0836e-05
0.0525901
-0.0525493
-1.18751e-05
-1.36583e-05
-0.0252739
2.94925e-05
-4.21488e-05
3.90788e-05
-0.025257
-5.59895e-05
0.0525025
-0.0524477
-1.57491e-05
-1.72549e-05
-0.0252382
4.19205e-05
-6.07128e-05
5.43901e-05
-0.0252139
-7.87047e-05
0.0523841
-0.0523089
-2.08872e-05
-2.16487e-05
-0.0251861
6.0356e-05
-8.81809e-05
7.65743e-05
-0.0251513
-0.000111371
0.0522211
-0.052117
-2.74639e-05
-2.74297e-05
-0.0251112
8.51834e-05
-0.000125255
0.000102254
-0.0250585
-0.000154996
0.0519966
-0.0518555
-3.87684e-05
-3.53007e-05
-0.0380611
0.000106902
0.0128957
0.000136925
-0.0396508
0.00145275
0.0517001
-0.052686
0.00112283
-4.85291e-05
-0.0443856
0.00684096
-0.0021061
0.00280135
-0.0454971
-0.00168985
0.0483769
-0.0463036
0.000728014
0.00253188
-0.0467694
0.00429758
-0.0030253
0.00360337
-0.0456738
-0.00469896
0.0453763
-0.0469407
0.00516783
0.00337024
-0.00298366
0.00243255
-0.0464101
-0.0022474
-0.000443219
-0.00109768
0.0482373
-0.000566119
0.0473617
-0.00349362
-0.0457913
0.0483737
-0.0461888
-0.00328261
0.000812009
0.0490098
-0.00144804
-0.000799558
0.0498489
0.0488296
-0.0490284
-4.23701e-05
0.0511996
-0.00293619
0.0485731
-0.047826
-0.00299459
-0.0468721
0.0461594
-0.0023126
-0.0029979
-0.0455268
0.0439683
-0.00054756
-0.00105729
-0.0387515
0.0519553
-0.000308055
0.00666953
-0.0520768
0.0521799
-0.000228322
-0.000276509
-0.0522686
0.0523446
-0.000164191
-0.000200116
-0.0524109
0.0524674
-0.000117166
-0.000144987
-0.0525169
0.0525593
-8.45439e-05
-0.000105484
-0.0525971
0.0526296
-6.26122e-05
-7.86706e-05
-0.0526592
0.0526842
-4.7686e-05
-6.06352e-05
-0.0527077
0.0527245
-3.64309e-05
-4.7994e-05
-0.0527441
0.0538391
-0.00110556
-3.72365e-05
-0.00217866
0.00300082
-0.00197091
0.0501697
0.049563
0.0450601
-0.0465624
0.00100948
-0.00200109
0.0479119
-0.0513404
-2.26347e-05
-0.00105911
0.0527051
-0.0526835
-2.9222e-05
-2.9395e-05
0.0526567
-0.0526268
-3.87896e-05
-3.75475e-05
0.052592
-0.0525524
-5.14475e-05
-4.84602e-05
0.0525068
-0.0524542
-6.8386e-05
-6.28128e-05
0.0523933
-0.0523222
-9.2023e-05
-8.25337e-05
0.0522397
-0.0521429
-0.000124285
-0.000109913
0.0520313
-0.0519028
-0.000167258
-0.000146922
0.0517582
-0.0504747
-0.00016066
-0.000193124
0.0482833
-0.0490404
0.00148513
0.000340498
0.0482708
-0.0456959
0.00259295
0.00260059
0.00197951
-0.000506917
-1.0512e-05
0.0503663
-0.00238053
0.0508834
-0.00213298
-0.0491866
0.0010897
-0.00125935
-0.0450005
0.0505613
-0.0504831
-0.00204915
0.00166733
0.0500233
-0.00112932
0.00146359
0.0503735
-0.0460858
0.00190002
0.0490036
-0.049458
-0.00254017
-0.048231
0.0463359
-0.000417498
-0.00222534
-0.0464649
0.0452861
0.000631222
-0.00118625
-0.0519239
0.0520416
-0.000425724
3.17089e-05
-0.0521423
0.052232
-0.000318001
-0.000377233
-0.0523108
0.0523793
-0.000232672
-0.000278967
-0.0524391
0.0524911
-0.000169185
-0.000204764
-0.0525365
0.0525763
-0.000124297
-0.000150907
-0.0526112
0.0526421
-9.34722e-05
-0.000113603
-0.0526694
0.0526937
-7.1979e-05
-8.79576e-05
-0.0527153
0.0527349
-5.60335e-05
-6.96264e-05
-0.0527532
0.0516905
-4.28611e-05
-5.55256e-05
-0.0504573
0.0514249
-0.00100997
-0.000945403
-0.00199438
0.051016
-0.0496605
-0.00246699
0.0497469
0.0491025
-0.0508199
-0.00156525
-0.002006
0.052784
-0.0517378
-3.66635e-05
-3.69729e-05
0.0527536
-0.052734
-4.22446e-05
-4.33517e-05
0.0527123
-0.0526887
-5.28076e-05
-5.10755e-05
0.0526627
-0.0526331
-6.83316e-05
-6.35997e-05
0.0526001
-0.0525624
-8.91942e-05
-8.14805e-05
0.05252
-0.0524712
-0.000117203
-0.000105213
0.0524159
-0.0523518
-0.00015611
-0.000137831
0.0522788
-0.0521942
-0.000208862
-0.000182896
0.0520985
-0.0519892
-0.000276536
-0.00024262
0.0518665
-0.0516712
-0.000355964
-0.000315828
0.0509318
-0.0499529
0.000506223
-0.000398886
0.0480466
-0.0449225
-0.000531157
0.000694263
0.0450616
-0.0439519
0.000578313
0.00211866
0.00250941
-0.00320738
-0.0453879
0.0452688
-0.0458692
0.0031098
0.00321694
-0.0496335
-0.00195748
-0.00167831
-0.0453723
-0.00276949
-0.0454384
-0.00141758
0.000587499
0.0512035
0.0028924
-0.0033728
-0.0449075
0.00213861
-0.0451154
-0.00274304
0.0513487
0.0502423
-0.0503763
-0.002333
0.0504671
-0.050822
-0.00169422
0.0513806
-0.00204283
0.0024976
0.0505027
-0.00275802
0.00176751
0.050477
0.00154623
-0.00143042
-0.0497493
-0.0493187
0.0521126
-0.0519011
-0.00164197
-0.0519727
0.0508908
-0.00145819
-0.00181758
-0.0502429
0.050619
-0.00079368
-0.00157743
-0.0501643
0.0514477
-0.000652194
-0.00073153
-0.0520677
0.0521551
-0.000513136
-0.000588274
-0.0522346
0.0523068
-0.000390153
-0.000456698
-0.0523715
0.0524286
-0.000289787
-0.00034369
-0.0524794
0.0525243
-0.00021405
-0.000255611
-0.0525643
0.0525996
-0.000159644
-0.000190896
-0.0526313
0.0526594
-0.000121534
-0.000145257
-0.0526846
0.0527071
-9.44017e-05
-0.000113236
-0.0527274
0.0527454
-7.40083e-05
-8.99496e-05
-0.0527617
0.0527763
-5.75262e-05
-7.18278e-05
-0.0522123
0.0513587
-0.000156406
-0.000381364
-0.00145765
0.000302324
-0.00221378
0.0522778
0.0519059
0.0504371
0.0512761
-0.052801
-4.03613e-05
-0.00110619
0.0527878
-0.0527736
-5.08717e-05
-5.01419e-05
0.0527574
-0.052739
-6.06913e-05
-5.95184e-05
0.0527191
-0.0526968
-7.50906e-05
-7.09816e-05
0.0526722
-0.0526445
-9.59817e-05
-8.8222e-05
0.0526139
-0.0525795
-0.000123619
-0.000112102
0.0525413
-0.0524982
-0.000160292
-0.000143351
0.0524502
-0.0523957
-0.000210678
-0.000185844
0.0523347
-0.0522656
-0.000277966
-0.000243861
0.0521891
-0.0521034
-0.000362188
-0.000319138
0.0520094
-0.0519055
-0.000459884
-0.00040984
0.0517935
-0.0507231
-0.000564227
-0.000510865
0.049414
-0.0499191
-2.60687e-05
-0.000614754
0.0482707
-0.0480281
0.000335759
0.000470218
0.0466025
-0.0457079
0.00221518
0.00179133
0.0454267
-0.00171441
-0.0453828
0.00167055
0.00185741
-0.0019471
-0.0461947
-0.00172059
0.00175595
-0.0497847
-0.0511685
-0.00245314
-0.00242131
0.00135114
0.0515472
-0.00242454
0.0505059
-0.00306861
-0.0457426
-0.0017779
-0.0450519
-0.0018707
-0.0448147
0.000273486
-0.000371191
-0.0449542
-0.00233132
0.0509689
0.000980241
-0.0495098
-0.00129487
0.00166775
-0.0515414
0.0530813
-0.0523667
-0.00200947
-0.0527546
0.053119
-0.00200633
-0.00212643
-0.0530638
0.0525999
-0.000994363
-0.00176239
-0.0519613
0.0520281
-0.000860521
-0.000938779
-0.0520955
0.0521598
-0.000716479
-0.000798901
-0.0522231
0.0522825
-0.000572536
-0.000651606
-0.0523387
0.0523911
-0.000442535
-0.000512861
-0.0524398
0.0524844
-0.000334351
-0.000392438
-0.0525253
0.0525625
-0.000251259
-0.000296523
-0.0525965
0.0526273
-0.000190438
-0.000224921
-0.0526553
0.0526805
-0.000146736
-0.000173254
-0.0527033
0.0527237
-0.000114817
-0.000136026
-0.0527421
0.0527585
-9.04349e-05
-0.000108331
-0.0527733
0.0527866
-7.08164e-05
-8.66277e-05
-0.0524739
0.0523716
-5.41372e-05
-6.86312e-05
-0.0514189
0.050773
-0.0010484
-0.000504893
-0.0507991
0.0512546
-0.00278686
-0.00206888
0.00246804
-0.00256835
0.0510692
-0.00182784
0.000820841
0.0522105
0.0519889
-0.000366395
-8.08947e-06
0.0526523
0.0523603
0.0517801
-0.0500692
-0.00258481
0.0502295
0.050835
-0.0517611
-0.00140693
-0.00199222
0.0528176
-0.0528057
-5.22154e-05
-4.96605e-05
0.0527929
-0.0527788
-6.50196e-05
-6.29491e-05
0.0527633
-0.0527461
-7.78786e-05
-7.49759e-05
0.0527275
-0.0527068
-9.58322e-05
-8.95932e-05
0.0526841
-0.0526587
-0.000121308
-0.000110956
0.0526311
-0.0526006
-0.000154162
-0.00013971
0.0525674
-0.0525308
-0.00019696
-0.000176507
0.0524909
-0.0524467
-0.000254863
-0.000225738
0.0523987
-0.052346
-0.000330696
-0.000291835
0.0522894
-0.0522281
-0.000423512
-0.000375707
0.0521632
-0.0520941
-0.000528979
-0.000474728
0.0520223
-0.051948
-0.000638549
-0.000582643
0.0518729
-0.0511546
-0.000744388
-0.000689805
0.0498917
-0.0491859
-0.000369967
-0.000792758
0.0475381
-0.0462657
0.000942752
0.000143489
0.0451853
-0.0456803
0.00216556
0.00077709
0.00104145
-0.00178213
0.0504684
-0.00197447
-0.0472888
0.00201564
-0.0501326
-0.0013144
-0.0462989
0.00185361
-0.0522889
-0.00193144
0.00176072
-0.0514485
-0.000362871
-0.044823
0.0506276
-0.0513148
-0.00189761
0.00241851
0.0499545
-0.00174542
0.00183439
0.0508136
-0.00148174
-0.0451686
0.00167884
-0.00153051
-0.0459065
0.0507521
-0.0519483
-0.00159068
0.0508197
-0.00184973
0.00179772
-0.0494686
-0.00140662
0.00176709
-0.0526494
0.0534513
-0.0532321
-0.00162588
-0.0532347
0.0531059
-0.00188071
-0.00171482
-0.0528177
0.0524444
-0.00163304
-0.0018382
-0.0522326
0.0522465
-0.0010083
-0.00155051
-0.0522651
0.0522876
-0.000883022
-0.000957389
-0.0523133
0.0523425
-0.000745596
-0.000824643
-0.0523744
0.0524075
-0.000605694
-0.000683498
-0.0524415
0.0524754
-0.000476487
-0.000546846
-0.0525092
0.0525419
-0.000367077
-0.00042616
-0.0525735
0.0526035
-0.000281231
-0.000328131
-0.0526318
0.0526581
-0.000216753
-0.000253253
-0.0526825
0.0527047
-0.000168942
-0.000197617
-0.0527249
0.0527431
-0.000132974
-0.000156229
-0.0527594
0.052774
-0.000105024
-0.000124662
-0.052787
0.0527987
-8.24721e-05
-9.96953e-05
-0.0528093
0.052819
-6.38453e-05
-7.92727e-05
-0.052771
0.0524952
-0.000772552
-0.000456893
-0.00152199
-0.000987572
0.000797099
0.0512596
0.00123435
-0.00082995
0.0504153
0.0507152
-0.000555768
0.000483627
0.0522827
0.0522303
1.75205e-06
-7.74887e-06
0.0526583
0.0528457
0.00042181
-0.000877866
0.0520033
0.0521942
0.0514624
0.0514726
-0.0528327
-4.68398e-05
-0.00183437
0.0528229
-0.0528116
-6.34713e-05
-5.95118e-05
0.0527994
-0.0527859
-7.85028e-05
-7.51922e-05
0.0527713
-0.0527554
-9.38403e-05
-8.95081e-05
0.0527381
-0.0527191
-0.000114901
-0.000106836
0.0526984
-0.0526757
-0.000144044
-0.000131624
0.0526513
-0.0526248
-0.000180663
-0.000164097
0.0525966
-0.0525662
-0.000227373
-0.000204671
0.052534
-0.0524995
-0.000289366
-0.000257912
0.0524634
-0.0524254
-0.000368734
-0.000327926
0.0523864
-0.0523462
-0.000463699
-0.000414683
0.0523059
-0.0522654
-0.000569533
-0.000515008
0.0522256
-0.0521863
-0.00067788
-0.000622393
0.0521481
-0.0521107
-0.00078182
-0.000728024
0.0520742
-0.0519189
-0.000525341
-0.000829168
0.0514243
-0.0505587
7.71354e-05
-0.000351105
0.0501324
-0.0485423
0.000575412
0.000350827
0.0480043
-0.0466368
0.000496407
0.000503537
0.000815251
-0.00142639
-0.0471768
0.00214496
-0.0505168
-0.00225688
0.00156867
0.0515018
-0.00275656
0.0504541
-0.000609899
-0.0460519
0.00141421
-0.0510957
0.000184744
-0.0464895
0.00158777
-0.0536364
-0.00118341
0.00142452
-0.0524861
-0.000438443
-0.0462607
-0.00020634
-0.04593
0.0504802
-0.0483066
-0.00300355
-0.00103044
0.00151963
-0.0460238
-0.0455395
-0.000993265
-0.00203374
0.00167619
0.0507729
0.0508569
-0.00241048
-0.0487501
-0.00223485
0.00198957
-0.0533911
0.0539962
-0.0543025
-0.00192857
-0.0541784
0.0541305
-0.00157795
-0.00136561
-0.0539961
0.0537508
-0.00163542
-0.00158046
-0.053607
0.0530554
-0.00108142
-0.00169439
-0.0525499
0.0525268
-0.000985171
-0.00104508
-0.0525107
0.0525011
-0.00087341
-0.000941269
-0.0524975
0.0524999
-0.000747944
-0.000821115
-0.0525076
0.0525197
-0.000617839
-0.000691172
-0.0525357
0.0525545
-0.000495353
-0.000562789
-0.0525758
0.0525984
-0.000389717
-0.000447393
-0.0526219
0.0526453
-0.000304675
-0.000351598
-0.0526683
0.0526903
-0.000238749
-0.000276284
-0.0527111
0.0527302
-0.000188097
-0.000218375
-0.0527478
0.0527636
-0.000148782
-0.000173774
-0.0527778
0.0527904
-0.000117662
-0.000138868
-0.0528017
0.0528117
-9.24884e-05
-0.00011096
-0.0528207
0.0528286
-7.18044e-05
-8.81998e-05
-0.0524409
0.0521006
-0.00043229
-6.91668e-05
-0.0513086
0.0508726
-0.00115463
-0.000730003
0.000716261
-0.00111036
0.00100219
0.0513678
0.051281
-0.000380294
3.55198e-06
0.0526594
0.0528522
2.13257e-06
-7.33079e-06
0.0526634
0.0528514
0.000666301
-0.00131561
0.0526526
0.0528532
0.0517155
-0.0510115
-0.00176219
0.0500171
0.0507441
-0.0510609
-0.00158079
-0.00201275
0.0528456
-0.0528377
-5.47324e-05
-4.97058e-05
0.0528287
-0.0528184
-7.37844e-05
-6.85086e-05
0.0528071
-0.0527947
-9.09484e-05
-8.64603e-05
0.0527813
-0.0527666
-0.00010853
-0.000102904
0.0527508
-0.0527335
-0.000132196
-0.000122626
0.052715
-0.052695
-0.000164097
-0.000150123
0.0526738
-0.0526512
-0.000203296
-0.000185271
0.0526276
-0.0526027
-0.000252284
-0.000228273
0.052577
-0.0525505
-0.000315887
-0.000283529
0.0525239
-0.0524973
-0.000395332
-0.000354499
0.0524717
-0.0524471
-0.000488317
-0.000440323
0.0524243
-0.0524033
-0.000590514
-0.000537768
0.0523845
-0.0523674
-0.000695068
-0.000641193
0.0523516
-0.0523363
-0.000797116
-0.000743812
0.0523206
-0.0519438
-0.000902064
-0.000844882
0.0513402
-0.0508115
-0.000451625
-0.000954697
0.0499271
-0.0488671
-0.000484573
-0.000533569
0.0480133
-0.0460381
-0.00147887
-0.000350238
0.0457804
-0.0469082
0.000380657
0.000557603
-0.000216102
0.000536034
-0.0458595
0.0476087
-0.0468034
-0.00102137
-0.000292798
-0.000243061
-0.0475437
0.000679426
-0.049782
0.000445241
-0.0463124
0.00172471
-0.0513958
-0.000213392
-0.0467145
0.00169179
-0.0521883
0.000643226
-0.0471102
0.00171321
-0.0536725
-0.00234322
0.00207077
-0.0537487
0.000999622
-0.04541
7.64589e-05
-0.0455643
0.00149115
-0.0461849
-0.00210967
0.00064731
-0.0450156
0.0513148
-0.0528166
-0.00150171
-0.0073493
-0.0026269
-0.0362087
0.051102
-0.0502996
-0.00256462
-0.00188299
0.00150322
0.0511526
-0.00269366
0.0516676
0.00295823
0.0504946
-0.00235081
0.00236722
0.0506081
0.0444497
-0.0200497
-0.0317493
0.0513436
-0.00243925
-0.0483137
-0.00275753
0.00299515
-0.0539101
0.0546037
-0.0546247
-0.00273649
-0.054648
0.0549199
-0.0022005
-0.00238751
-0.0544898
0.054437
-0.00152507
-0.000935525
-0.0540152
0.0534838
-0.00110404
-0.00115867
-0.0528652
0.0528107
-0.00102698
-0.00107574
-0.0527631
0.0527219
-0.000943998
-0.000997436
-0.0526873
0.0526597
-0.000845793
-0.000906703
-0.0526387
0.0526243
-0.000733557
-0.000800084
-0.0526162
0.0526142
-0.00061576
-0.000683112
-0.0526175
0.0526254
-0.000503265
-0.000566088
-0.0526371
0.0526518
-0.000404329
-0.000459165
-0.0526684
0.0526861
-0.00032237
-0.000368244
-0.0527042
0.0527221
-0.000256584
-0.000294418
-0.0527392
0.0527553
-0.000204177
-0.000235557
-0.0527702
0.0527837
-0.000162244
-0.000188638
-0.0527958
0.0528066
-0.000128438
-0.000150991
-0.0528161
0.0528246
-0.000100959
-0.000120546
-0.0528321
0.0528387
-7.83833e-05
-9.57067e-05
-0.0528447
0.0524719
-5.94346e-05
-7.52186e-05
-0.0517997
0.0506888
-4.37869e-05
-5.77984e-05
-0.00141153
-0.000649491
1.15899e-05
0.0520057
0.0521348
-7.47463e-06
2.64946e-06
0.0526643
0.0528563
2.13221e-06
-6.62375e-06
0.0526679
0.0528562
1.10376e-05
-1.47143e-05
0.0526562
0.0528576
0.00115711
-0.00229916
0.0526438
0.0528579
0.0505222
0.0513165
-0.0528557
-4.15349e-05
-0.000995838
0.0528499
-0.052843
-6.15785e-05
-5.55789e-05
0.0528353
-0.0528263
-8.27103e-05
-7.62825e-05
0.0528164
-0.0528053
-0.000102073
-9.63571e-05
0.0527932
-0.0527798
-0.000121896
-0.000115027
0.0527655
-0.05275
-0.0001477
-0.000136936
0.0527337
-0.0527162
-0.000181549
-0.000166465
0.052698
-0.0526788
-0.00022248
-0.00020345
0.0526591
-0.0526387
-0.00027272
-0.000247993
0.0526182
-0.0525977
-0.000336412
-0.000304025
0.052578
-0.0525593
-0.000413986
-0.000374195
0.0525426
-0.0525279
-0.000503014
-0.00045708
0.0525157
-0.0525061
-0.000600203
-0.000549884
0.0524987
-0.0524929
-0.000700848
-0.000648571
0.0524879
-0.0524828
-0.00080224
-0.000748763
0.0524769
-0.0524707
-0.000908256
-0.000850774
0.0524633
-0.0518827
-0.00103229
-0.000962115
0.0513132
-0.0505964
-0.00120132
-0.00110303
0.0496368
-0.0505976
-0.000518063
-0.00130993
0.0491028
-0.0473409
-0.00138119
-0.000937205
0.0472142
-0.0466019
-0.00163364
-0.000419538
-0.00426185
-0.000188602
-0.0469098
0.000667392
-0.0487247
-0.00230414
0.0012148
0.0516974
-0.00250496
0.0506954
0.0467036
-0.0578721
-0.00888121
-0.000172715
-0.046353
0.00106591
-0.05077
7.20811e-05
-0.0461434
0.00210347
-0.052221
0.000887632
-0.0469982
0.00231143
-0.053065
0.00165904
-0.0469926
0.00245369
-0.0542696
-0.00280885
0.00253887
-0.0539953
0.000839719
-0.0457567
-0.000229133
-0.0474134
-0.00563282
-0.0623252
-0.00220855
0.0508584
-0.0478349
-0.00263725
-0.0545338
0.00290146
0.0553404
-0.055427
-0.0025507
-0.0547687
0.0545422
-0.00251005
-0.00223707
-0.0540337
0.0534159
-0.00158269
-0.00187903
-0.0536465
0.053224
-0.00110255
-0.00116614
-0.0531401
0.0530661
-0.00103008
-0.00107476
-0.0529998
0.0529404
-0.00096762
-0.0010094
-0.0528874
0.0528409
-0.000897533
-0.000944403
-0.0528004
0.052766
-0.000811473
-0.000866121
-0.0527377
0.0527157
-0.000711524
-0.000771741
-0.0526998
0.05269
-0.000605992
-0.000667224
-0.0526859
0.0526868
-0.000504201
-0.000561967
-0.0526921
0.0527006
-0.000412923
-0.000464396
-0.0527118
0.0527245
-0.000335072
-0.000379366
-0.0527381
0.0527519
-0.00027041
-0.000308042
-0.0527656
0.0527785
-0.000217171
-0.000249189
-0.0527907
0.0528019
-0.000173432
-0.000200834
-0.0528121
0.0528213
-0.000137573
-0.000161176
-0.0528294
0.0528367
-0.000108241
-0.000128737
-0.0528433
0.0528491
-8.42325e-05
-0.000102243
-0.0528545
0.0528595
-6.45022e-05
-8.05686e-05
-0.0528646
0.0528694
-4.85271e-05
-6.28919e-05
-0.0522044
0.0515239
-0.000821206
-0.000746533
-0.0513143
0.051168
-0.00206219
-0.00222973
0.00170699
-0.00197051
0.051122
-0.00129851
0.000726196
0.0517249
0.0520761
-0.000661085
9.23606e-06
0.0526576
0.0521999
-5.92357e-06
2.17331e-06
0.052668
0.0528596
1.66216e-06
-5.37648e-06
0.0526717
0.05286
9.02693e-06
-1.23666e-05
0.0526596
0.0528612
1.52971e-05
-1.72307e-05
0.0526458
0.0528608
0.0517198
-0.0504474
-0.00275599
0.0506985
0.0512046
-0.052575
-0.00119422
-0.00159364
0.0528632
-0.0528586
-4.61223e-05
-0.000707655
0.0528539
-0.0528485
-6.69188e-05
-6.0303e-05
0.0528425
-0.0528353
-8.98317e-05
-8.2357e-05
0.0528271
-0.0528175
-0.000111654
-0.000104574
0.0528068
-0.0527948
-0.000133882
-0.00012576
0.052782
-0.0527682
-0.000161464
-0.000149766
0.0527539
-0.0527388
-0.000196642
-0.00018078
0.0527233
-0.0527069
-0.000238788
-0.000219019
0.0526903
-0.0526733
-0.000289758
-0.000264627
0.0526565
-0.0526401
-0.000352793
-0.00032081
0.0526249
-0.0526112
-0.000427716
-0.000389375
0.0525996
-0.0525903
-0.000512348
-0.000468677
0.0525835
-0.052579
-0.000604688
-0.000556673
0.0525765
-0.0525751
-0.000702163
-0.000651106
0.0525742
-0.0525729
-0.00080359
-0.000749695
0.0525707
-0.0525676
-0.00091134
-0.00085296
0.0525641
-0.0525621
-0.00103431
-0.00096562
0.0525622
-0.0525666
-0.00119689
-0.00110292
0.0525752
-0.0516428
-0.00145051
-0.0013013
0.0509578
-0.0514742
-0.000864817
-0.00162216
0.0503406
-0.0485246
-0.00344963
-0.0015532
-0.00608282
-0.00185568
0.0510532
-0.000110845
-0.0469717
0.000636957
-0.0482958
0.00232892
-0.0552367
-0.00251924
-0.0549704
0.00276551
0.000586904
-0.0468679
0.00108502
-0.0497515
0.00133483
-0.0465906
0.00192052
-0.0518301
0.00104057
-0.0463798
0.00245427
-0.0529804
0.00151262
-0.0476655
0.00291531
-0.0540091
0.00194557
-0.0479314
-0.000370235
-0.052676
0.00515668
-0.0561956
-0.00683315
-0.000483282
-0.0566853
-0.00720074
0.00836225
-0.0573571
0.0507951
-0.0515063
-0.00135105
0.0502118
-0.0504478
-0.00251999
0.00208409
0.0507713
-0.00264362
0.050335
-0.00139557
0.00191364
0.0508689
-0.0473088
-0.00327142
0.00309262
-0.0550579
0.0554489
-0.0551405
-0.00357983
-0.0551494
0.0552926
-0.00269389
-0.00221969
-0.0548887
0.0545559
-0.00217727
-0.00183315
-0.0539019
0.0534416
-0.00112236
-0.00122508
-0.0533489
0.0532654
-0.00101903
-0.00107346
-0.0531879
0.0531182
-0.000960379
-0.000997281
-0.0530553
0.0529994
-0.000911657
-0.000946523
-0.0529492
0.0529049
-0.000853223
-0.000894218
-0.0528657
0.0528318
-0.000777651
-0.000826907
-0.0528031
0.0527799
-0.000688277
-0.000743023
-0.0527619
0.0527494
-0.000593485
-0.000649305
-0.052742
0.0527391
-0.000501342
-0.000554496
-0.0527402
0.0527445
-0.000417214
-0.000465492
-0.0527512
0.0527597
-0.000343497
-0.000386118
-0.0527692
0.0527792
-0.000280426
-0.00031756
-0.0527894
0.0527993
-0.000227135
-0.000259363
-0.0528089
0.052818
-0.000182478
-0.000210436
-0.0528265
0.0528342
-0.000145367
-0.000169634
-0.0528414
0.052848
-0.000114804
-0.000135911
-0.052854
0.0528596
-8.98296e-05
-0.000108289
-0.0528649
0.0528699
-6.95281e-05
-8.58205e-05
-0.0528746
0.052879
-5.29424e-05
-6.76102e-05
-0.0524675
0.051895
-0.000248655
-0.000335039
-0.00184103
-0.0549439
0.00306613
-0.00337043
0.00369643
-0.0553839
-0.0552917
-0.00321926
-0.00116665
0.00113831
0.0511503
0.00140044
-0.00158175
0.0505163
0.0512869
-0.000873301
0.000675397
0.0519228
0.0523411
-9.86188e-06
7.46831e-06
0.05266
0.0528654
-4.90172e-06
2.09905e-06
0.0526708
0.0528622
8.13082e-07
-3.74046e-06
0.0526746
0.0528629
6.76848e-06
-9.69025e-06
0.0526625
0.0528643
1.22113e-05
-1.40107e-05
0.0526476
0.0528633
0.000593259
-0.00127666
0.0523808
0.052299
0.0513324
0.0514903
-0.052203
-0.000481552
-0.000551109
0.0528651
-0.0528616
-4.96329e-05
-4.55751e-05
0.0528581
-0.0528545
-7.05845e-05
-6.37516e-05
0.0528503
-0.0528452
-9.49726e-05
-8.65021e-05
0.0528388
-0.0528309
-0.00011953
-0.000110932
0.0528217
-0.0528112
-0.000144386
-0.000134958
0.0527999
-0.0527878
-0.000173558
-0.000161082
0.0527753
-0.0527623
-0.000209702
-0.000193257
0.0527489
-0.0527348
-0.000252825
-0.000232438
0.0527205
-0.0527059
-0.000304346
-0.000278927
0.0526917
-0.052678
-0.00036651
-0.000335058
0.0526655
-0.0526544
-0.000438786
-0.000401867
0.0526453
-0.0526381
-0.000519503
-0.000477812
0.0526331
-0.0526299
-0.000607875
-0.000561709
0.0526282
-0.0526274
-0.000702969
-0.000652802
0.0526269
-0.0526261
-0.000804332
-0.000750225
0.052625
-0.0526235
-0.000912801
-0.000854113
0.0526224
-0.0526227
-0.001034
-0.000966747
0.0526257
-0.052633
-0.00118963
-0.00109992
0.0526464
-0.0526688
-0.00142813
-0.00128787
0.0526974
-0.0517329
-0.00182935
-0.00159349
0.051179
-0.0515003
-0.00312836
-0.00210707
0.05258
-0.0560767
-0.00538448
-0.00500313
0.0570506
-0.0641073
-0.000144123
-0.0058592
-0.0314096
-0.0375967
0.00489904
-0.0100274
0.0226557
-0.0440379
-0.0474812
-0.00014289
-1.75725e-05
-0.0463672
0.000605485
-0.0478162
-0.0024632
0.00122615
0.052106
-0.00212682
0.0504349
0.000758134
-0.0462912
0.00110464
-0.0489356
0.00159783
-0.0471478
0.00156496
-0.0509408
0.00242216
-0.0472893
0.00252692
-0.052592
0.00191352
-0.0476335
0.00311136
-0.054355
0.00259066
-0.0508923
0.00341844
-0.0565777
0.00717495
-0.055498
0.0120622
-0.0467635
-0.0547877
0.00354029
0.00401609
-0.0554481
-0.00385972
0.00407288
-0.0554407
-0.00454108
0.00460934
-0.0555163
0.0512965
-0.0504469
-0.0024313
-0.00504347
0.00932506
-0.0483195
-0.00203022
0.00119349
0.0513531
-0.0462447
-0.00628002
-0.00162823
0.0508945
-0.0467209
-0.055314
0.0551915
-0.00373725
-0.00432315
-0.0553064
0.0547609
-0.00303434
-0.00333416
-0.055091
0.0548249
-0.00242786
-0.00254974
-0.0544549
0.0535416
-0.001264
-0.00146308
-0.0534649
0.0533909
-0.00104838
-0.00114835
-0.0533172
0.0532476
-0.000949396
-0.000999774
-0.0531823
0.0531227
-0.000900777
-0.000932028
-0.0530683
0.0530196
-0.000862915
-0.000892107
-0.0529756
0.0529367
-0.000814326
-0.000850304
-0.0529022
0.0528723
-0.000747761
-0.000792399
-0.0528467
0.0528257
-0.000667197
-0.000717417
-0.0528089
0.0527965
-0.000581101
-0.000632547
-0.0527882
0.0527836
-0.000496739
-0.000546158
-0.0527822
0.0527834
-0.000418464
-0.000464099
-0.0527868
0.0527916
-0.000348314
-0.000389441
-0.0527975
0.052804
-0.000286962
-0.000323445
-0.0528109
0.0528181
-0.000234263
-0.00026632
-0.0528253
0.0528324
-0.000189591
-0.000217632
-0.0528394
0.0528461
-0.000152129
-0.00017662
-0.0528527
0.0528589
-0.000121052
-0.000142439
-0.0528649
0.0528706
-9.55462e-05
-0.000114269
-0.0528761
0.0528812
-7.47137e-05
-9.12662e-05
-0.052886
0.0528906
-5.74712e-05
-7.24176e-05
-0.052612
0.0527807
-0.000417355
-5.64904e-05
-0.0515892
0.0513511
-0.00111291
-0.000649511
-0.000491413
-0.00126097
0.000669259
0.051742
0.0512195
-0.000740441
9.1319e-06
0.0526542
0.0522699
-7.38694e-06
5.73737e-06
0.0526616
0.0528671
-4.07513e-06
2.19839e-06
0.0526727
0.0528638
-1.70772e-07
-1.98957e-06
0.0526767
0.0528649
4.41984e-06
-6.95304e-06
0.052665
0.0528667
9.33179e-06
-1.12422e-05
0.0526495
0.0528657
0.000578686
-0.000840733
0.0526429
0.0528665
0.0517178
-0.0495826
-0.00304171
0.0504975
0.0512524
-0.052603
-0.00116946
-0.000973816
0.0524289
-0.0528723
-3.81528e-05
-0.000725178
0.0528685
-0.0528656
-5.25732e-05
-4.93543e-05
0.0528632
-0.0528611
-7.27374e-05
-6.60831e-05
0.0528587
-0.0528554
-9.82727e-05
-8.89337e-05
0.0528508
-0.0528447
-0.000125619
-0.000115466
0.0528372
-0.0528284
-0.000153233
-0.000142462
0.0528187
-0.0528082
-0.000184002
-0.000170781
0.0527974
-0.0527861
-0.000221033
-0.000204064
0.0527744
-0.0527622
-0.000265085
-0.000244114
0.0527496
-0.0527368
-0.00031715
-0.000291459
0.0527243
-0.0527123
-0.000378524
-0.000347555
0.0527014
-0.0526916
-0.000448552
-0.000412813
0.0526834
-0.0526767
-0.000526204
-0.000486027
0.0526716
-0.0526679
-0.000611599
-0.000566804
0.0526653
-0.0526635
-0.000704768
-0.000655373
0.0526622
-0.0526612
-0.000805348
-0.00075154
0.0526605
-0.0526604
-0.000912902
-0.000854793
0.0526613
-0.0526641
-0.00103129
-0.000965786
0.0526694
-0.0526786
-0.0011804
-0.00109459
0.052693
-0.0527142
-0.001407
-0.00127346
0.0527436
-0.0527855
-0.00178742
-0.00156407
0.0528428
-0.0535687
-0.00240246
-0.00204984
0.0544526
-0.0557524
-0.00408467
-0.0041192
0.0587008
-0.0556398
-0.00320508
-0.00291083
0.0497717
-0.0474086
-0.00250596
-0.000969123
0.00373666
0.00211381
-0.0520952
0.0490638
-0.0383208
-0.00700641
-0.00462477
8.89266e-05
-0.045698
0.000564757
-0.0472763
0.000957359
-0.0456507
0.00113739
-0.0485081
0.00190059
-0.0466263
0.00167264
-0.0500865
0.00283441
-0.0482102
0.0021503
-0.0516309
0.00374533