/*--------------------------------*- C++ -*----------------------------------*\
  =========                 |
  \\      /  F ield         | OpenFOAM: The Open Source CFD Toolbox
   \\    /   O peration     | Website:  https://openfoam.org
    \\  /    A nd           | Version:  10
     \\/     M anipulation  |
\*---------------------------------------------------------------------------*/
FoamFile
{
    format      ascii;
    class       volVectorField;
    location    "5.5";
    object      U;
}
// * * * * * * * * * * * * * * * * * * * * * * * * * * * * * * * * * * * * * //

dimensions      [0 1 -1 0 0 0 0];

internalField   nonuniform List<vector> 
14667
(
(1.03748 0.0666488 -1.16183e-19)
(0.887665 0.0444781 -4.8871e-20)
(0.776489 0.0293111 -4.27493e-21)
(0.887891 0.0261538 5.9025e-22)
(0.865597 0.0284786 1.23877e-21)
(0.990671 -0.0894934 -2.54206e-20)
(1.03264 -0.0823302 5.57663e-20)
(0.637736 0.0410793 -1.87418e-21)
(0.725135 0.0338959 0)
(0.872207 0.0304665 -4.10752e-22)
(1.03699 -0.0668924 -2.43698e-20)
(1.02553 -0.0393955 1.30803e-20)
(0.986125 -0.0231126 -3.31345e-20)
(0.886154 -0.075224 9.79867e-20)
(0.684028 0.0267813 -3.20692e-21)
(1.01846 -0.0308698 0)
(1.0188 -0.0291572 0)
(0.812697 0.0206948 -7.25919e-22)
(0.504799 0.0192461 0)
(1.03996 -0.0585012 0)
(1.05599 0.0850202 -8.45059e-20)
(0.885573 -0.00309455 6.08389e-20)
(0.997404 0.015886 0)
(1.00134 0.0404812 4.23033e-21)
(-0.00433517 -0.0933114 5.35705e-20)
(0.332796 -0.092509 1.80776e-19)
(-0.0335404 -0.0466011 5.62762e-20)
(-0.112905 -0.11252 -2.16124e-19)
(-0.10033 -0.127845 3.94155e-21)
(0.808457 0.0924696 1.58142e-20)
(0.860363 0.0621038 -1.51802e-21)
(0.872609 0.0349071 -4.45946e-20)
(-0.0520375 0.119895 1.64864e-20)
(-0.133417 0.0828595 8.3847e-20)
(-0.192619 0.0404148 9.4718e-20)
(0.00835349 0.0560001 -1.42705e-19)
(0.0556188 0.119998 -1.99172e-21)
(0.679377 -0.078676 1.97454e-21)
(0.668551 -0.0417725 2.26578e-21)
(0.806387 -0.0323075 -1.0718e-22)
(0.800618 -0.0255959 0)
(0.686165 0.00437838 -2.34677e-20)
(0.543788 -0.193945 5.24884e-19)
(0.603684 -0.0713287 -1.71557e-19)
(0.425116 -0.0340267 -1.19849e-19)
(0.349899 -0.246634 8.01439e-20)
(0.567069 -0.402982 -6.84198e-21)
(1.25708 -0.0243731 -1.2049e-19)
(1.28962 -0.0519914 4.18677e-20)
(0.969482 -0.0496664 0)
(0.952963 -0.0129267 0)
(0.733211 0.0353057 0)
(0.793359 0.0138907 0)
(0.84851 0.0108632 -7.84884e-20)
(1.36219 -0.285233 1.9238e-20)
(1.39831 -0.262793 1.2041e-20)
(1.36397 0.236166 4.25715e-20)
(1.43048 0.219692 2.98615e-20)
(0.312899 0.141798 -4.72453e-20)
(0.500737 0.0964886 3.75082e-20)
(-0.0931125 -0.0759907 1.61674e-19)
(-0.100803 -0.0717123 0)
(0.971141 -0.467948 -1.18943e-20)
(0.985294 -0.391174 -5.97546e-20)
(0.905384 -0.342373 -4.86438e-21)
(0.852305 -0.600829 -9.29851e-21)
(0.923515 -0.538827 5.22417e-20)
(0.479871 0.702503 5.26454e-20)
(0.789808 0.729716 -1.91205e-20)
(0.902799 0.0390667 3.94187e-20)
(0.921268 0.0228301 -3.66759e-20)
(0.925583 0.0467053 -3.98358e-20)
(0.143005 -0.00339612 0)
(0.141498 -0.237269 4.12253e-20)
(0.997587 -0.10092 4.66898e-20)
(1.19436 -0.177052 6.02058e-20)
(1.31191 -0.130569 -1.97403e-19)
(1.24412 -0.11897 1.24744e-19)
(0.91046 0.00489405 2.10088e-19)
(0.895671 -0.0258452 4.74984e-22)
(0.880653 -0.0261563 -8.00601e-22)
(0.937222 -0.0212751 0)
(0.890536 -0.0251363 1.06416e-21)
(1.01039 0.0220367 -2.62351e-22)
(1.00761 0.0229566 0)
(-0.213632 -0.0759723 0)
(-0.409407 -0.0419739 -1.0131e-19)
(0.576863 0.0737986 2.4704e-20)
(0.81003 0.0441111 -1.41522e-19)
(1.01234 -0.16951 -3.39965e-20)
(1.20313 -0.187181 4.68021e-20)
(1.07645 -0.110182 -1.80097e-21)
(1.07477 -0.0967681 3.60597e-21)
(1.05039 4.83989e-05 -1.37407e-21)
(1.05039 -0.000343534 6.80931e-22)
(1.00345 0.00664574 -3.31753e-21)
(0.998916 0.00109754 -2.5082e-21)
(1.02416 0.0280458 -1.07842e-21)
(1.00927 0.0263697 2.21246e-21)
(1.03518 0.037547 -2.90707e-21)
(1.0242 0.0369029 1.19533e-21)
(1.43172 -0.325221 5.65752e-21)
(1.4297 -0.266712 3.53757e-20)
(0.933539 0.132796 6.99494e-21)
(0.913158 0.108089 -2.43972e-20)
(0.939036 0.0897776 3.19474e-21)
(0.959512 0.111039 3.05355e-21)
(0.965119 0.174833 2.0956e-20)
(0.951891 0.145678 4.75523e-22)
(0.585783 -0.022258 9.96934e-22)
(0.369873 -0.0118669 -1.33573e-22)
(0.405206 -0.00926757 -1.73476e-21)
(0.621395 -0.0150928 0)
(0.744008 -0.036785 2.74258e-21)
(0.749536 -0.0244898 -1.0654e-21)
(1.2345 -0.121731 -8.5583e-21)
(1.25525 -0.136046 2.27405e-20)
(1.24365 -0.122106 0)
(0.548386 -0.0466353 -2.52686e-21)
(0.418961 -0.0436775 -9.66937e-22)
(0.610857 -0.0353096 -4.97028e-22)
(1.05013 6.02463e-05 6.13126e-22)
(1.05012 -0.000428369 -3.15448e-21)
(1.04976 -0.000464643 1.63609e-21)
(1.04934 -0.000478406 -2.02529e-21)
(1.04947 0.000256263 0)
(1.04983 0.000114185 -3.66843e-22)
(1.04892 -0.000708537 5.72509e-21)
(1.04851 -0.000654926 -2.89312e-21)
(1.04857 0.000236898 0)
(1.04904 0.00014171 0)
(1.048 -0.000747114 0)
(1.04745 -0.000797121 3.19501e-21)
(1.04744 0.000224964 0)
(1.04803 0.000192183 0)
(1.0468 -0.000900984 -3.21063e-21)
(1.04608 -0.00100965 0)
(1.04602 0.000215501 0)
(1.04678 0.000211688 0)
(1.04525 -0.00115617 3.56099e-21)
(1.04428 -0.00132837 -3.53531e-21)
(1.04415 0.000175345 0)
(1.04516 0.000197936 0)
(1.04317 -0.00153957 0)
(1.04186 -0.00178841 -3.92456e-21)
(1.04162 9.18434e-05 -9.21335e-25)
(1.04299 0.00013973 0)
(1.04034 -0.00208797 3.95013e-21)
(1.03855 -0.00243329 0)
(1.0381 -6.28572e-05 0)
(1.04001 2.85352e-05 0)
(1.03639 -0.00278523 -4.20833e-24)
(1.03385 -0.00312278 0)
(1.03327 -0.000237291 0)
(1.03586 -0.000164128 0)
(1.03093 -0.00365055 -6.69591e-21)
(1.02786 -0.00449047 5.88914e-21)
(1.02707 -0.000670591 6.08362e-22)
(1.03033 -0.00034199 0)
(1.02404 -0.00487349 0)
(1.02001 -0.00474597 0)
(1.01958 -0.000519501 1.10821e-21)
(1.02355 -0.000869031 -6.5532e-22)
(1.01548 -0.00522069 -1.48837e-21)
(1.01035 -0.00506498 -1.59238e-21)
(1.01009 1.86889e-05 1.59079e-21)
(1.01506 -0.000689152 -1.49828e-21)
(1.0048 0.000554341 -3.13205e-21)
(1.00463 -0.00498502 3.17459e-21)
(1.05065 4.82445e-05 9.79217e-23)
(1.05063 -0.000256891 -5.95915e-22)
(0.99851 -0.004872 -4.32389e-24)
(1.05062 0.000249429 -4.71307e-22)
(1.05085 0.000230567 9.21285e-22)
(1.05087 5.70266e-05 1.03109e-23)
(1.05031 -0.000316934 0)
(1.05058 -0.000321287 6.4214e-22)
(1.00809 -0.0101155 7.47305e-22)
(1.01823 -0.00920879 3.65791e-21)
(1.01342 -0.00974233 -1.45681e-21)
(1.02622 -0.00762847 -2.88388e-21)
(1.02241 -0.00836493 2.9727e-21)
(1.03248 -0.00516006 0)
(1.02947 -0.00659243 0)
(1.0373 -0.00327367 4.10815e-24)
(1.03508 -0.00411007 0)
(1.04082 -0.00218763 -1.90188e-24)
(1.0392 -0.00266364 0)
(1.04343 -0.00147554 0)
(1.04222 -0.00179406 0)
(1.04539 -0.00101157 -3.32375e-24)
(1.04448 -0.00121534 0)
(1.04688 -0.000717748 -9.12088e-27)
(1.04619 -0.000843781 0)
(1.04804 -0.000529735 0)
(1.0475 -0.00060704 0)
(1.04893 -0.00039603 -7.31406e-27)
(1.04852 -0.000452897 0)
(1.04964 -0.000265858 0)
(1.04928 -0.00034017 0)
(1.04997 -0.000305307 1.66517e-21)
(1.05079 -0.000312243 6.06024e-22)
(1.05084 -0.000201283 -6.25125e-22)
(1.05009 0.000317144 2.68248e-22)
(1.05037 0.000273586 0)
(1.04938 0.000307024 3.23819e-23)
(1.04978 0.000339945 3.1261e-22)
(1.0485 0.000298985 0)
(1.04894 0.000294164 1.09436e-23)
(1.04745 0.000377253 0)
(1.04801 0.00032197 0)
(1.04607 0.000520543 0)
(1.0468 0.000437948 0)
(1.04426 0.000726312 0)
(1.04523 0.000612043 0)
(1.04183 0.00102649 0)
(1.04314 0.000861666 0)
(1.03854 0.00145695 0)
(1.04031 0.0012222 0)
(1.03409 0.00208356 0)
(1.03647 0.00174256 0)
(1.02827 0.00279164 6.25789e-22)
(1.03135 0.00245282 0)
(1.02116 0.00369647 -3.32731e-22)
(1.02488 0.00319905 2.47255e-23)
(1.01299 0.00485344 1.51643e-21)
(1.01716 0.00403493 0)
(1.00844 0.00576444 4.0638e-21)
(1.05105 6.5941e-05 3.69758e-22)
(1.05105 0.000215773 -7.72834e-23)
(1.00236 -0.0106528 -7.83576e-22)
(0.992633 0.00188599 1.71752e-21)
(1.05087 -0.000596194 0)
(1.05105 -0.000527407 -1.46439e-22)
(1.05098 -0.000290903 -1.44665e-22)
(0.998266 0.00768898 0)
(1.01461 -0.0146797 7.4073e-22)
(1.02273 -0.0126178 5.81651e-22)
(1.01891 -0.0137318 0)
(1.02936 -0.0101303 2.72451e-21)
(1.02621 -0.0113272 -2.93402e-21)
(1.03443 -0.0074486 0)
(1.03198 -0.00854896 -1.08375e-21)
(1.03845 -0.00565758 -4.08403e-24)
(1.03658 -0.00649901 0)
(1.04156 -0.00424827 3.29042e-27)
(1.04011 -0.00491227 0)
(1.04395 -0.00315337 1.77364e-24)
(1.04284 -0.00365925 0)
(1.04575 -0.00236924 2.31815e-27)
(1.04491 -0.0027239 0)
(1.04714 -0.00182994 -1.77859e-27)
(1.04649 -0.00207152 0)
(1.04823 -0.0014558 0)
(1.04772 -0.00162286 0)
(1.0491 -0.00117363 -1.60421e-27)
(1.04869 -0.00130158 0)
(1.0498 -0.000908052 0)
(1.04947 -0.00103373 0)
(1.05041 -0.000715899 -2.71325e-24)
(1.05011 -0.000812331 -8.42029e-23)
(1.05066 -0.000661124 -1.01559e-21)
(1.05102 -0.000150515 1.15212e-24)
(1.05109 0.000451261 -1.35751e-22)
(1.05066 0.000575516 -4.6019e-22)
(1.05089 0.000501833 -2.93753e-22)
(1.05014 0.000672622 -1.48471e-22)
(1.05041 0.000618085 1.5285e-22)
(1.04946 0.000759642 -6.54719e-25)
(1.04983 0.000726281 -1.01674e-23)
(1.04861 0.000962484 0)
(1.04905 0.000853504 0)
(1.04757 0.00122066 0)
(1.04812 0.00108069 0)
(1.04625 0.00155301 0)
(1.04695 0.00137393 0)
(1.04455 0.00199605 0)
(1.04545 0.00175556 0)
(1.04234 0.00261112 0)
(1.04352 0.00227775 0)
(1.03942 0.0034452 0)
(1.04098 0.00299796 0)
(1.0356 0.00453041 0)
(1.03764 0.00395594 0)
(1.03068 0.00584052 0)
(1.03328 0.00516065 0)
(1.02472 0.00728319 -3.25026e-22)
(1.0278 0.00656022 3.18278e-22)
(1.01818 0.00904874 -2.28653e-21)
(1.02153 0.00811786 0)
(1.01101 0.01108 1.70191e-21)
(1.01447 0.00992127 -2.48423e-21)
(0.993098 0.00887486 1.83945e-21)
(1.00399 0.0137807 -1.40382e-21)
(1.00713 0.0121708 4.59733e-22)
(1.00997 -0.0155004 4.64755e-23)
(0.99176 -0.00438803 1.68598e-21)
(0.986018 0.00264605 4.32127e-23)
(1.05114 -0.000253409 1.4015e-22)
(0.988207 0.0106791 0)
(1.00075 0.0154833 1.95023e-21)
(1.05121 -0.000456174 2.84058e-22)
(1.05115 0.00062008 0)
(1.05096 -0.000741233 2.98759e-22)
(1.05114 -0.000655391 -1.49475e-24)
(1.05132 0.000541462 0)
(1.05126 0.000403209 1.40596e-22)
(1.00507 -0.0163289 -3.11632e-21)
(0.996092 -0.0107458 0)
(1.01666 -0.0201624 7.264e-22)
(1.02287 -0.0178606 -8.97392e-22)
(1.01989 -0.0190848 -3.88374e-22)
(1.02841 -0.0150809 7.71826e-23)
(1.02586 -0.0165819 -7.04294e-22)
(1.03308 -0.0121668 2.19454e-23)
(1.03088 -0.0136454 -1.95934e-23)
(1.03693 -0.0095942 0)
(1.03509 -0.0108333 -1.45916e-22)
(1.04008 -0.00732396 1.29864e-26)
(1.03859 -0.00842377 0)
(1.04265 -0.0054179 1.90138e-24)
(1.04143 -0.00631568 0)
(1.04467 -0.0039753 -1.77364e-24)
(1.04372 -0.00463861 0)
(1.04626 -0.00295574 9.20997e-27)
(1.04551 -0.00341854 0)
(1.04751 -0.00225385 -7.93778e-27)
(1.04692 -0.00257176 0)
(1.04851 -0.00176215 0)
(1.04804 -0.00198708 0)
(1.04932 -0.00139622 -1.35687e-24)
(1.04894 -0.00156674 0)
(1.04997 -0.00110901 0)
(1.04966 -0.00124388 0)
(1.05052 -0.000893005 5.97899e-23)
(1.05025 -0.000987211 -2.38686e-22)
(1.05075 -0.000816954 1.00026e-24)
(1.05122 8.93571e-05 2.76092e-22)
(1.05117 -0.00010356 0)
(1.05122 0.000219335 -1.40053e-22)
(1.05072 0.000783079 2.97159e-22)
(1.05095 0.000702456 0)
(1.0502 0.000952272 0)
(1.05047 0.000869046 0)
(1.04955 0.00110136 6.54795e-25)
(1.04989 0.00101964 0)
(1.04875 0.00134203 0)
(1.04917 0.00120656 0)
(1.04777 0.00170718 0)
(1.04829 0.00150864 0)
(1.04655 0.00219741 0)
(1.04719 0.0019354 0)
(1.04503 0.00285417 0)
(1.04583 0.00249968 0)
(1.04311 0.00376263 9.14253e-25)
(1.04412 0.0032721 0)
(1.04067 0.00498156 9.81278e-25)
(1.04196 0.0043318 0)
(1.03762 0.0065139 0)
(1.03923 0.00571119 0)
(1.03384 0.00831395 0)
(1.03582 0.00738382 0)
(1.02943 0.0102393 0)
(1.0317 0.00928224 0)
(1.02461 0.0122183 -3.53279e-22)
(1.02708 0.0112325 0)
(1.01988 0.0142485 0)
(1.02209 0.0131111 1.51506e-21)
(1.01584 0.0169044 -2.23234e-21)
(1.01741 0.0152834 4.33714e-22)
(1.01251 0.0207205 1.02324e-21)
(1.0141 0.0186114 0)
(0.984632 -0.00408918 1.79081e-21)
(0.999847 -0.0170189 1.9741e-21)
(1.0133 -0.0212085 -1.18251e-21)
(1.0514 0.000373938 0)
(1.05146 0.0004839 1.29391e-22)
(0.979427 0.00436498 -2.88366e-21)
(0.997698 0.0176561 -9.93571e-22)
(0.983243 0.0128052 0)
(0.994414 0.0201757 0)
(1.05129 -0.000576599 -4.22353e-22)
(1.01096 0.0233003 -1.02904e-21)
(0.989457 -0.0109525 8.39082e-22)
(1.00942 -0.0220796 1.20639e-21)
(1.02515 -0.0245553 1.19477e-21)
(1.0286 -0.0223282 -3.82511e-22)
(1.02702 -0.0234969 7.4026e-22)
(1.03164 -0.0197797 -5.22195e-22)
(1.03024 -0.0211206 1.04275e-21)
(1.03453 -0.016914 5.03532e-24)
(1.03314 -0.0183712 0)
(1.03722 -0.0139699 -2.34182e-24)
(1.03591 -0.0154277 0)
(1.03971 -0.0111309 0)
(1.03849 -0.012528 0)
(1.04194 -0.00854504 1.8322e-26)
(1.04086 -0.00979625 0)
(1.04387 -0.00640164 0)
(1.04294 -0.00740733 0)
(1.0455 -0.00478522 1.75026e-24)
(1.04472 -0.00553028 0)
(1.04685 -0.00362341 1.64744e-24)
(1.0462 -0.00415418 0)
(1.04796 -0.00280321 -1.54101e-24)
(1.04743 -0.00317769 0)
(1.04886 -0.00221412 0)
(1.04844 -0.00248562 0)
(1.0496 -0.0017698 -1.34406e-24)
(1.04925 -0.00197785 0)
(1.05018 -0.00141369 0)
(1.04991 -0.0015836 7.92467e-29)
(1.05067 -0.00112281 1.91076e-23)
(1.05044 -0.00126104 0)
(1.05107 -0.000903541 -1.45857e-22)
(1.05088 -0.00100974 1.54199e-22)
(1.05138 -0.000716267 5.61236e-22)
(1.05124 -0.000808904 1.47907e-22)
(1.05142 -0.000503975 2.7299e-22)
(1.05128 -0.000214283 -1.40513e-22)
(1.05135 -0.000392355 -1.32754e-22)
(1.05135 9.72413e-05 0)
(1.0513 -6.63724e-05 0)
(1.05137 0.000218899 -1.35173e-22)
(1.05153 0.000593047 -2.58252e-22)
(1.05124 0.000782493 -6.65297e-23)
(1.0514 0.000683942 -1.28977e-22)
(1.05081 0.00100893 0)
(1.05104 0.000889021 -7.0591e-23)
(1.0503 0.00123888 0)
(1.05057 0.00112919 0)
(1.04968 0.00146063 0)
(1.05 0.00134408 0)
(1.04894 0.00177511 0)
(1.04933 0.00160139 0)
(1.04803 0.00223308 0)
(1.04851 0.00198607 0)
(1.04693 0.00283467 0)
(1.0475 0.0025149 0)
(1.0456 0.00362914 0)
(1.04629 0.00320164 0)
(1.04401 0.00471707 -9.14253e-25)
(1.04484 0.00413104 0)
(1.04209 0.00616087 -9.81278e-25)
(1.04309 0.00539359 0)
(1.03983 0.00794874 0)
(1.041 0.00701595 0)
(1.03723 0.0100002 0)
(1.03857 0.00894865 0)
(1.03438 0.0121606 0)
(1.03583 0.0110818 0)
(1.03139 0.0141935 3.44825e-22)
(1.03289 0.0132032 0)
(1.02853 0.0162274 0)
(1.02991 0.0151887 0)
(1.02637 0.0187013 0)
(1.02726 0.0173491 -4.06652e-22)
(1.02494 0.0223526 1.95168e-21)
(1.02562 0.0203379 9.34235e-22)
(1.02465 0.0249047 -2.09367e-21)
(1.0515 -0.00062559 -6.79375e-22)
(0.976959 -0.00298994 -4.72412e-22)
(0.993981 -0.017436 -2.12409e-21)
(0.972491 0.0062442 9.62243e-22)
(1.02345 -0.0257067 -8.11495e-22)
(1.00559 -0.0229802 0)
(0.977709 0.01526 -1.09373e-21)
(1.05161 0.000704852 5.19461e-22)
(1.0517 0.000599968 -1.24578e-22)
(1.05163 0.000524061 3.17637e-22)
(0.990652 0.0231965 -2.19772e-21)
(1.00841 0.0303869 1.14904e-21)
(1.05148 -0.000813248 0)
(1.05159 -0.000715631 0)
(1.02428 0.0320199 -2.21771e-21)
(0.982141 -0.0106833 1.5606e-23)
(1.02127 -0.0268348 -1.34175e-23)
(1.03798 -0.0276614 1.33999e-23)
(1.03834 -0.0251747 -1.00736e-23)
(1.03817 -0.0263728 0)
(1.03882 -0.02282 -4.56605e-22)
(1.0386 -0.0239887 0)
(1.0394 -0.020352 0)
(1.03913 -0.0216155 8.98401e-23)
(1.04014 -0.017704 0)
(1.03974 -0.0190486 0)
(1.04117 -0.0148853 0)
(1.04063 -0.0163131 0)
(1.04243 -0.0120145 -2.12994e-24)
(1.04178 -0.0134386 0)
(1.04378 -0.00937217 3.9948e-24)
(1.0431 -0.0106492 0)
(1.04512 -0.00716756 0)
(1.04446 -0.00820722 0)
(1.04638 -0.00546521 -1.48568e-26)
(1.04576 -0.00625569 0)
(1.0475 -0.0042056 -1.62433e-24)
(1.04696 -0.00478603 0)
(1.04847 -0.00328766 1.52134e-24)
(1.048 -0.00371064 0)
(1.04927 -0.00260873 0)
(1.04889 -0.00292404 0)
(1.04992 -0.00208696 1.34406e-24)
(1.04961 -0.00233218 0)
(1.05044 -0.00166684 0)
(1.05019 -0.00186644 -7.92467e-29)
(1.05086 -0.00131546 0)
(1.05066 -0.00148344 0)
(1.0512 -0.00103423 1.42466e-22)
(1.05104 -0.00116678 0)
(1.05135 -0.000921914 -2.79297e-22)
(1.05153 -0.00041864 0)
(1.05169 -0.000613123 -1.3085e-22)
(1.05161 -0.000533812 2.67265e-22)
(1.05141 -0.000172021 -1.29642e-22)
(1.05146 -0.00031897 1.30063e-22)
(1.05147 0.000104074 0)
(1.05143 -3.79773e-05 0)
(1.05152 0.000335929 0)
(1.05149 0.000212138 0)
(1.05157 0.000428497 -3.85602e-22)
(1.05132 0.000946069 0)
(1.05148 0.00082149 0)
(1.05092 0.00123682 0)
(1.05113 0.00108787 0)
(1.05043 0.00151225 -6.05671e-25)
(1.05069 0.00137874 0)
(1.04985 0.00179025 0)
(1.05015 0.00164459 0)
(1.04916 0.00217451 0)
(1.04952 0.0019638 0)
(1.04834 0.00271499 0)
(1.04877 0.00242583 0)
(1.04736 0.00340416 0)
(1.04787 0.00304023 0)
(1.04624 0.00429382 0)
(1.04682 0.00381735 0)
(1.04495 0.00548872 0)
(1.04561 0.00484808 0)
(1.04351 0.00703999 0)
(1.04425 0.0062201 0)
(1.04195 0.00892143 0)
(1.04274 0.00794401 0)
(1.04034 0.0110377 1.1086e-24)
(1.04115 0.00995928 1.31659e-28)
(1.03875 0.0132263 0)
(1.03954 0.012135 0)
(1.03722 0.0153227 -2.26993e-26)
(1.03798 0.014291 0)
(1.0358 0.0173558 0)
(1.03649 0.0163335 0)
(1.03475 0.0197218 -1.01958e-22)
(1.03521 0.0184764 3.82034e-22)
(1.0342 0.0231478 -1.81449e-21)
(1.03445 0.0212524 -7.51049e-22)
(1.03438 0.0286729 2.58031e-21)
(1.03433 0.0256243 1.43062e-21)
(1.03484 0.0325866 3.33672e-21)
(0.968892 -0.00177091 9.51353e-22)
(0.987713 -0.0177226 1.2961e-21)
(1.0517 0.000457433 1.82026e-22)
(1.05177 0.000509842 1.2584e-22)
(0.964908 0.00829623 0)
(1.00103 -0.0236742 9.17042e-22)
(0.971518 0.01821 -5.50364e-23)
(1.03776 -0.0291166 -5.63036e-23)
(1.01911 -0.0280706 5.62002e-23)
(0.987876 0.0273804 -2.28526e-21)
(1.00709 0.0352658 -1.22686e-21)
(1.0518 -0.000699682 -4.01078e-22)
(1.02368 0.0429154 -2.53977e-21)
(1.03539 0.0436566 -9.95063e-23)
(1.05177 -0.00052251 -1.24438e-22)
(1.05187 -0.00060196 0)
(0.974307 -0.0102439 0)
(1.03739 -0.0307567 2.34723e-21)
(1.05181 -0.0299642 -4.53555e-22)
(1.04965 -0.0268161 -8.33493e-22)
(1.05069 -0.0282626 8.4202e-22)
(1.04782 -0.0244074 -1.98601e-22)
(1.0487 -0.0255347 0)
(1.0464 -0.0223139 -8.74944e-23)
(1.04709 -0.023347 0)
(1.04535 -0.0201623 0)
(1.04584 -0.0212574 8.80227e-23)
(1.0447 -0.0177939 0)
(1.04496 -0.0190141 0)
(1.04455 -0.0151578 2.2516e-24)
(1.04456 -0.0165038 0)
(1.04486 -0.0124271 2.12994e-24)
(1.04466 -0.013786 0)
(1.04549 -0.00988306 -3.94864e-24)
(1.04514 -0.0111169 0)
(1.04633 -0.00771777 -1.83517e-24)
(1.04589 -0.00874602 0)
(1.04727 -0.00599835 -1.73541e-24)
(1.0468 -0.00680293 0)
(1.04818 -0.00468729 1.4808e-26)
(1.04773 -0.00529671 0)
(1.049 -0.00369931 -1.27009e-26)
(1.04861 -0.00415879 0)
(1.0497 -0.0029457 0)
(1.04937 -0.0032982 0)
(1.05027 -0.00235557 0)
(1.05 -0.00263379 0)
(1.05071 -0.00187917 0)
(1.0505 -0.0021055 0)
(1.05107 -0.00148571 0)
(1.0509 -0.00167334 0)
(1.05135 -0.00117377 -1.433e-22)
(1.05122 -0.00131879 0)
(1.05159 -0.000923767 -2.75428e-22)
(1.05148 -0.00104031 4.18703e-22)
(1.0517 -0.000804684 0)
(1.05163 -0.000346197 0)
(1.05169 -0.000448457 -1.23967e-22)
(1.05153 -0.000130987 6.1109e-23)
(1.05157 -0.000253236 -6.16998e-23)
(1.05158 0.000100504 0)
(1.05154 -1.44573e-05 0)
(1.05161 0.000305195 0)
(1.05159 0.000197469 0)
(1.05165 0.00038104 -2.13719e-22)
(1.05184 0.000548322 -1.20008e-22)
(1.05168 0.000792351 1.32102e-22)
(1.05177 0.000660938 1.27722e-22)
(1.05141 0.00110183 0)
(1.05156 0.000938801 0)
(1.05105 0.00145088 0)
(1.05124 0.00127984 0)
(1.0506 0.00176715 6.05671e-25)
(1.05083 0.00161423 0)
(1.05006 0.00209067 0)
(1.05034 0.00192116 0)
(1.04943 0.00253227 0)
(1.04976 0.00229141 0)
(1.04869 0.00313662 0)
(1.04907 0.00281541 0)
(1.04785 0.00388765 0)
(1.04828 0.00349327 0)
(1.0469 0.0048363 0)
(1.04738 0.00433069 0)
(1.04588 0.00608289 8.89535e-25)
(1.0464 0.0054182 0)
(1.04482 0.00766032 9.51163e-25)
(1.04535 0.00683189 0)
(1.04379 0.00952747 0)
(1.04429 0.00856235 0)
(1.04288 0.0115894 -1.1086e-24)
(1.04332 0.010543 -1.31659e-28)
(1.04213 0.013694 0)
(1.04249 0.0126463 0)
(1.04149 0.0157281 -2.59937e-26)
(1.04181 0.0147214 0)
(1.04091 0.0177494 0)
(1.04119 0.0167283 0)
(1.04043 0.020123 0)
(1.04066 0.0188589 0)
(1.04021 0.0235221 -4.45879e-22)
(1.04029 0.0216313 0)
(1.04048 0.0290119 0)
(1.04029 0.0259373 -2.98047e-23)
(1.04149 0.0379133 -5.1791e-22)
(1.04089 0.0329176 1.07925e-21)
(1.03573 0.0510942 3.75403e-21)
(1.0431 0.0515482 1.1959e-21)
(1.04216 0.0440678 -2.19741e-21)
(0.960115 -0.00038335 -4.77735e-22)
(0.980811 -0.0177179 -4.49079e-22)
(0.956555 0.0107945 0)
(0.996279 -0.0244033 -4.443e-22)
(0.965526 0.0219892 5.248e-22)
(1.01648 -0.0293759 9.85174e-22)
(0.984157 0.0320413 5.68074e-22)
(1.05267 -0.0320468 0)
(1.03655 -0.0326836 -1.89563e-21)
(1.00535 0.0411095 0)
(1.02293 0.0502299 2.5086e-21)
(1.04393 0.0608287 1.99328e-21)
(1.03614 0.0599834 -2.0064e-21)
(1.05192 -0.00075768 5.05786e-22)
(1.04433 0.0713649 -6.36164e-21)
(1.0519 0.000609011 0)
(1.05183 -0.000440648 2.43013e-22)
(1.05193 -0.000509746 1.18311e-22)
(1.05195 0.000511612 4.64972e-22)
(1.05188 0.000461682 -3.50959e-22)
(1.04824 0.0702161 -2.51716e-20)
(1.052 -0.000658874 -1.21774e-22)
(0.965749 -0.00949473 0)
(1.05357 -0.0346479 -1.51936e-21)
(1.06375 -0.0327533 4.69925e-22)
(1.06014 -0.0280424 -8.66812e-22)
(1.06191 -0.0301339 8.75148e-22)
(1.05665 -0.0251149 -7.95364e-22)
(1.05834 -0.0264391 3.08502e-22)
(1.05365 -0.0230309 -1.91847e-22)
(1.05508 -0.0240038 3.9396e-22)
(1.05129 -0.0212457 0)
(1.05241 -0.0221214 0)
(1.04941 -0.01944 0)
(1.05029 -0.0203632 0)
(1.04803 -0.0173583 0)
(1.04865 -0.0184424 0)
(1.04719 -0.0149785 -2.2516e-24)
(1.04754 -0.0161968 0)
(1.04687 -0.01249 0)
(1.04697 -0.0137323 0)
(1.047 -0.0101328 2.75058e-26)
(1.04689 -0.0112819 0)
(1.04747 -0.00808045 2.32088e-26)
(1.0472 -0.00906163 0)
(1.04813 -0.00640418 0)
(1.04778 -0.00719498 0)
(1.04885 -0.00508281 1.67848e-26)
(1.04849 -0.00570293 0)
(1.04953 -0.00404996 -1.44171e-26)
(1.0492 -0.00453493 0)
(1.05012 -0.00323663 0)
(1.04984 -0.00361971 0)
(1.0506 -0.00258755 0)
(1.05038 -0.00289438 0)
(1.05098 -0.0020619 0)
(1.05081 -0.00231114 0)
(1.05128 -0.00163138 -1.15611e-24)
(1.05114 -0.00183515 0)
(1.05152 -0.00127616 6.901e-23)
(1.05141 -0.0014429 0)
(1.05174 -0.000994962 2.67935e-22)
(1.05163 -0.00112389 -6.96011e-23)
(1.05184 -0.000860743 -1.32292e-22)
(1.0517 -0.000278345 -5.94098e-23)
(1.05176 -0.000371581 1.81784e-22)
(1.05163 -9.93007e-05 0)
(1.05166 -0.000194688 0)
(1.05168 9.0282e-05 0)
(1.05165 -4.52359e-06 0)
(1.05169 0.000262123 0)
(1.05168 0.000173483 0)
(1.05175 0.000399298 -1.17002e-22)
(1.05171 0.00032981 8.73385e-23)
(1.05181 0.000432203 -1.16938e-22)
(1.05174 0.000880153 -2.56159e-22)
(1.05183 0.000734109 -1.26317e-22)
(1.0515 0.00124955 0)
(1.05163 0.00105184 0)
(1.05119 0.00164395 0)
(1.05136 0.00144858 0)
(1.0508 0.00200059 0)
(1.05101 0.00182689 0)
(1.05031 0.00236673 0)
(1.05056 0.00217523 0)
(1.04974 0.00285463 0)
(1.05004 0.00259028 0)
(1.04909 0.00350473 0)
(1.04942 0.00316105 0)
(1.04836 0.00429664 0)
(1.04873 0.00388259 0)
(1.04757 0.00527765 0)
(1.04797 0.00475734 0)
(1.04675 0.00653756 -1.08132e-26)
(1.04716 0.00586964 0)
(1.04596 0.0080919 -1.29825e-26)
(1.04635 0.0072805 0)
(1.04529 0.00989234 0)
(1.04561 0.0089655 0)
(1.04481 0.011861 0)
(1.04503 0.0108626 0)
(1.04452 0.0138823 0)
(1.04465 0.0128722 0)
(1.04431 0.0158899 -2.48953e-24)
(1.04441 0.0148866 0)
(1.04409 0.0179631 0)
(1.04421 0.016908 0)
(1.04384 0.0203425 -1.89773e-22)
(1.04396 0.0190858 0)
(1.04369 0.023683 1.57415e-24)
(1.04374 0.0218466 1.9207e-22)
(1.04395 0.0289391 9.03754e-22)
(1.04375 0.0259939 -8.82765e-22)
(1.0449 0.0373034 -1.03129e-21)
(1.04432 0.0326043 -9.22749e-22)
(1.04663 0.0505166 -2.23304e-21)
(1.04563 0.0432323 2.14988e-21)
(1.0477 0.0594485 6.24034e-21)
(0.950703 0.00126501 1.30227e-22)
(0.973673 -0.0178174 -4.85141e-22)
(1.05191 0.000392674 -1.67727e-22)
(1.052 0.000427955 1.10634e-22)
(1.05111 0.0754157 -4.29316e-21)
(0.947446 0.013687 1.10703e-21)
(0.990802 -0.0250395 0)
(0.958789 0.0262721 1.1592e-21)
(1.01326 -0.0308473 -9.85621e-22)
(0.980044 0.0375935 -1.02008e-23)
(1.03569 -0.03495 0)
(1.0031 0.0481856 -1.30959e-21)
(1.06536 -0.0362993 -9.42581e-22)
(1.05398 -0.0378882 1.99456e-21)
(1.02281 0.0588848 0)
(1.03648 0.0704615 -2.10588e-21)
(1.04639 0.0839395 1.71163e-21)
(1.05207 -0.000564106 1.22085e-22)
(0.956852 -0.00889371 0)
(1.0668 -0.0408384 0)
(1.07155 -0.0387813 2.27494e-22)
(1.06782 -0.0303686 -1.32252e-21)
(1.0698 -0.0340171 6.74833e-22)
(1.06374 -0.0256797 -4.25285e-22)
(1.06577 -0.0276754 4.26085e-22)
(1.05988 -0.0231068 0)
(1.06177 -0.0242116 1.04722e-22)
(1.05656 -0.0214405 4.79776e-26)
(1.05814 -0.0222106 0)
(1.05392 -0.020036 0)
(1.05517 -0.0207295 0)
(1.05183 -0.018524 0)
(1.05281 -0.0193124 0)
(1.05021 -0.0166913 0)
(1.05096 -0.0176509 0)
(1.04909 -0.0145724 2.16863e-24)
(1.04959 -0.0156581 0)
(1.04846 -0.0123434 -2.03134e-24)
(1.04871 -0.0134588 0)
(1.04829 -0.0102036 3.83883e-24)
(1.04832 -0.0112513 0)
(1.0485 -0.00830213 2.55917e-26)
(1.04836 -0.00921708 0)
(1.04894 -0.0067035 1.6766e-24)
(1.0487 -0.00746426 0)
(1.04948 -0.00539802 1.59273e-24)
(1.04921 -0.00601669 0)
(1.05002 -0.00434022 -1.60075e-26)
(1.04976 -0.00484138 0)
(1.05051 -0.00348223 0)
(1.05027 -0.00388897 0)
(1.05091 -0.00278496 0)
(1.05072 -0.00311566 0)
(1.05124 -0.00221713 0)
(1.05108 -0.00248669 0)
(1.0515 -0.0017529 1.15611e-24)
(1.05137 -0.00197386 0)
(1.05171 -0.00136907 0)
(1.05161 -0.00155366 0)
(1.0519 -0.00104715 -1.01224e-24)
(1.05181 -0.00120438 0)
(1.05208 -0.000813531 1.23983e-22)
(1.052 -0.000926626 0)
(1.05224 -0.000615623 -1.16636e-22)
(1.05216 -0.00071347 -2.44847e-22)
(1.05213 -0.000471236 -2.31635e-22)
(1.05189 -0.000359069 -2.40116e-24)
(1.05199 -0.000419374 -2.31973e-22)
(1.05176 -0.000220852 0)
(1.05181 -0.000299519 -5.59778e-23)
(1.05172 -8.02138e-05 0)
(1.05173 -0.000151962 0)
(1.05176 7.1547e-05 0)
(1.05173 -5.29029e-06 0)
(1.05175 0.000215983 0)
(1.05176 0.000141661 0)
(1.05178 0.000332324 0)
(1.05176 0.000275236 0)
(1.05184 0.000359988 2.16352e-22)
(1.05208 0.00046517 -4.45938e-22)
(1.05195 0.000674541 1.21848e-22)
(1.05202 0.000557529 0)
(1.05179 0.000964747 0)
(1.05187 0.000801333 1.18951e-22)
(1.0516 0.0013695 0)
(1.0517 0.00115916 0)
(1.05135 0.00180342 0)
(1.05148 0.00158848 0)
(1.05103 0.00220565 -5.93223e-25)
(1.0512 0.00200885 0)
(1.0506 0.00261697 0)
(1.05082 0.00240354 0)
(1.05008 0.00314271 0)
(1.05035 0.0028605 0)
(1.04951 0.00382398 0)
(1.0498 0.00346525 0)
(1.04889 0.00464332 0)
(1.04921 0.0042161 0)
(1.04822 0.00564165 0)
(1.04856 0.00511481 0)
(1.04755 0.00689272 -8.78722e-25)
(1.04789 0.00623357 0)
(1.04695 0.00839804 -9.38181e-25)
(1.04724 0.00761657 0)
(1.04648 0.0101107 0)
(1.04669 0.00923159 0)
(1.04621 0.0119785 0)
(1.04632 0.0110295 0)
(1.04611 0.0139313 0)
(1.04615 0.0129485 0)
(1.04607 0.0159379 2.43065e-24)
(1.04609 0.014926 0)
(1.04598 0.0180701 0)
(1.04604 0.0169801 0)
(1.04586 0.0205302 0)
(1.04592 0.0192365 0)
(1.04584 0.0238335 -5.61817e-26)
(1.04582 0.0220236 0)
(1.04629 0.0289555 0)
(1.04598 0.0260886 0)
(1.04755 0.0375156 -1.86503e-23)
(1.04679 0.0326826 4.48007e-22)
(1.04977 0.0517832 -9.61653e-22)
(1.04857 0.0437428 9.57217e-22)
(1.05085 0.0620874 1.00574e-21)
(1.05231 -0.000517877 3.49095e-22)
(0.940211 0.00325879 -1.30142e-22)
(0.965357 -0.0176304 0)
(1.07294 -0.0450517 -1.26685e-22)
(1.06765 -0.0466793 7.9976e-24)
(0.937853 0.0174282 -1.11672e-21)
(0.984808 -0.0258388 0)
(0.951274 0.0313792 -9.08268e-22)
(1.00941 -0.0325235 0)
(0.975279 0.0441716 1.25934e-21)
(1.03391 -0.0376737 0)
(1.001 0.0564932 1.29299e-21)
(1.05429 -0.0419315 0)
(1.02192 0.0691794 3.3594e-21)
(1.03691 0.0827746 -1.37721e-21)
(1.0512 0.0877763 -8.75267e-22)
(1.04624 0.0913441 1.81054e-20)
(1.05295 0.106226 -2.35955e-21)
(1.05243 -0.000672235 -1.15411e-22)
(1.05216 0.000512391 8.91941e-22)
(1.05223 0.000428155 2.09027e-22)
(1.0525 -0.000576432 3.43297e-22)
(1.05213 0.000387434 0)
(0.946787 -0.00779194 0)
(1.07376 -0.0529037 5.07846e-22)
(1.07347 -0.051353 1.60957e-21)
(1.07122 -0.0366586 -1.10187e-21)
(1.07261 -0.0432027 -1.74406e-21)
(1.06786 -0.0280094 -3.88027e-22)
(1.06967 -0.0317108 1.0021e-21)
(1.0642 -0.0235036 -4.12458e-22)
(1.06604 -0.0253768 8.28321e-22)
(1.06065 -0.0212724 0)
(1.0624 -0.0222057 0)
(1.05756 -0.0199732 4.92725e-26)
(1.05903 -0.020563 0)
(1.05506 -0.0188781 0)
(1.05624 -0.0194287 0)
(1.05308 -0.0176005 0)
(1.05401 -0.018278 0)
(1.05152 -0.0159848 0)
(1.05225 -0.0168347 0)
(1.05038 -0.0140967 -2.16863e-24)
(1.0509 -0.0150653 0)
(1.04967 -0.0121023 2.03134e-24)
(1.04997 -0.0131015 0)
(1.04937 -0.0101712 -3.77592e-24)
(1.04947 -0.0111198 0)
(1.04941 -0.00842317 2.77083e-26)
(1.04936 -0.0092695 0)
(1.04968 -0.00691118 -2.36223e-26)
(1.04953 -0.00763679 0)
(1.05006 -0.00563505 -1.55389e-24)
(1.04986 -0.00624503 0)
(1.05046 -0.00456899 -1.7486e-26)
(1.05026 -0.00507773 0)
(1.05085 -0.00368339 0)
(1.05066 -0.00410541 0)
(1.05118 -0.00295236 0)
(1.05102 -0.0033001 0)
(1.05147 -0.00235316 0)
(1.05133 -0.00263776 0)
(1.05171 -0.00186439 0)
(1.05159 -0.0020966 0)
(1.05192 -0.0014653 0)
(1.05181 -0.00165568 0)
(1.0521 -0.00114055 9.96313e-25)
(1.05201 -0.00129562 0)
(1.05227 -0.000883685 -1.84848e-22)
(1.05219 -0.00100895 6.18942e-23)
(1.05236 -0.000777296 1.90456e-24)
(1.06797 -0.0538818 -2.64185e-22)
(1.07409 -0.0625608 0)
(1.07429 -0.0613573 5.76096e-23)
(1.05219 -0.000381559 1.09874e-22)
(1.05255 -0.000480961 -7.94974e-24)
(1.05236 -0.000418508 1.08226e-22)
(1.05193 -0.00028267 0)
(1.05204 -0.000328952 0)
(1.05181 -0.000169375 0)
(1.05186 -0.000230466 5.53569e-23)
(1.05178 -7.04247e-05 0)
(1.05179 -0.000122408 0)
(1.05183 4.57907e-05 0)
(1.0518 -1.36938e-05 0)
(1.05181 0.000165464 0)
(1.05183 0.00010292 0)
(1.05182 0.000267444 0)
(1.05181 0.00021791 0)
(1.05193 0.000328828 5.53022e-23)
(1.05186 0.000298773 1.39195e-23)
(1.05203 0.000357247 -1.11189e-22)
(1.05199 0.000734491 -9.10558e-23)
(1.05208 0.00061217 -5.90352e-23)
(1.05183 0.00104472 0)
(1.05191 0.000875258 3.00223e-23)
(1.0517 0.00145859 0)
(1.05176 0.00124061 0)
(1.05153 0.00192421 0)
(1.05162 0.0016899 0)
(1.05128 0.00237823 5.93223e-25)
(1.05142 0.00215418 0)
(1.05091 0.0028393 -6.26289e-25)
(1.0511 0.0026027 0)
(1.05046 0.00339733 0)
(1.05069 0.00310119 0)
(1.04996 0.00409984 0)
(1.05021 0.00373094 0)
(1.04942 0.00493967 0)
(1.04969 0.00450231 0)
(1.04885 0.00594935 -8.02629e-25)
(1.04914 0.0054192 0)
(1.04828 0.00718317 0)
(1.04856 0.0065372 0)
(1.04778 0.00863308 0)
(1.04802 0.00788397 0)