/*--------------------------------*- C++ -*----------------------------------*\
  =========                 |
  \\      /  F ield         | OpenFOAM: The Open Source CFD Toolbox
   \\    /   O peration     | Website:  https://openfoam.org
    \\  /    A nd           | Version:  10
     \\/     M anipulation  |
\*---------------------------------------------------------------------------*/
FoamFile
{
    format      ascii;
    class       volVectorField;
    location    "36";
    object      U;
}
// * * * * * * * * * * * * * * * * * * * * * * * * * * * * * * * * * * * * * //

dimensions      [0 1 -1 0 0 0 0];

internalField   nonuniform List<vector> 
25879
(
(1.08422 -9.75007e-05 8.52434e-21)
(1.08109 0.00215883 -1.28331e-20)
(1.08037 -0.0016699 2.38622e-20)
(1.08328 -0.00326878 -2.35132e-20)
(1.03863 0.573113 3.5358e-22)
(1.05953 0.569993 -3.76822e-21)
(1.36285 0.119369 0)
(1.33977 0.125409 -3.834e-21)
(1.31443 0.11582 0)
(1.32152 0.0983496 0)
(1.46554 0.181284 -2.92129e-21)
(1.42315 0.15668 7.03648e-21)
(1.51441 0.20571 -6.81333e-20)
(0.117332 0.138248 4.40209e-20)
(0.149104 0.232371 -6.55874e-20)
(1.03856 0.530903 -2.24793e-20)
(1.09863 0.677805 -2.49028e-20)
(1.29608 -0.653413 6.25767e-20)
(1.43058 -0.564335 -6.59209e-20)
(0.471598 -0.0932838 6.65084e-20)
(0.457944 -0.244065 2.99843e-19)
(0.38555 0.763679 -1.07967e-19)
(0.667219 0.672724 9.52345e-20)
(1.0362 0.0435414 4.80765e-21)
(1.04158 0.0481733 6.0529e-21)
(1.03577 0.0471972 3.46484e-22)
(1.02936 0.0401529 -4.85544e-23)
(1.03311 0.036897 -6.23322e-21)
(1.02941 0.0367836 -8.63366e-21)
(1.03858 0.0411366 -3.49469e-21)
(1.04436 0.045937 4.05953e-20)
(-0.0781294 0.0102484 5.86315e-20)
(-0.0813014 -0.0314856 -2.7757e-20)
(-0.0881551 0.0462124 3.78818e-20)
(1.37814 0.41701 6.2541e-21)
(1.43369 0.215678 2.07052e-22)
(1.4547 0.202048 -1.93409e-22)
(0.972687 -0.137081 -1.13262e-21)
(0.958403 -0.123068 -1.57199e-20)
(1.63691 0.309581 -5.37737e-20)
(1.57807 0.278161 -6.92693e-21)
(1.50231 0.283671 -7.78522e-21)
(0.995537 -0.226626 -1.54793e-20)
(0.987311 -0.207551 0)
(0.985209 -0.190829 -1.48679e-21)
(1.40198 -0.178184 0)
(1.41446 -0.156153 4.91313e-20)
(0.149958 0.0212519 7.28053e-20)
(0.505299 0.0649802 3.36398e-21)
(0.684578 0.101661 0)
(1.19148 -0.396331 -6.06683e-22)
(1.19012 -0.345726 -5.9592e-21)
(0.781107 0.272653 -1.1925e-19)
(1.03905 0.439353 0)
(0.597332 0.00674074 -2.75567e-22)
(0.586092 0.00529453 0)
(0.624108 0.00719572 4.90539e-22)
(0.852742 0.246522 -9.44456e-20)
(0.850044 0.219823 9.13203e-20)
(0.894971 0.195331 -1.77151e-19)
(0.900623 0.235044 1.66381e-19)
(0.910349 0.363906 9.75861e-22)
(0.920639 0.290244 -4.16511e-21)
(0.742112 -0.00297333 1.14708e-22)
(0.807557 -0.00319057 3.05424e-21)
(0.765539 -0.00172436 -2.22806e-21)
(-0.0965011 -0.042865 2.15935e-21)
(-0.0537739 -0.0497448 0)
(-0.0795284 -0.0479425 0)
(-0.0829523 0.308744 1.02063e-19)
(-0.0398674 0.105715 -2.80692e-19)
(1.00635 0.0295902 1.49888e-20)
(1.0102 0.0414149 0)
(1.01339 0.0452693 -8.1616e-21)
(1.06509 -0.109676 5.02786e-20)
(1.01921 -0.123765 0)
(1.00434 -0.0843466 1.90543e-20)
(1.07317 -0.00202086 0)
(1.07109 -0.00682184 1.3918e-20)
(1.07493 -0.00556045 1.5109e-20)
(0.971186 -0.220288 0)
(0.979587 -0.247722 3.902e-20)
(0.332618 0.271438 6.40209e-20)
(0.513236 0.216191 3.36697e-19)
(0.438048 0.405176 0)
(0.998684 -0.0140669 1.84515e-20)
(1.00025 -0.0187568 -1.72922e-20)
(1.00492 -0.0217436 0)
(1.12687 0.0309301 3.85795e-21)
(1.11868 0.0259997 -1.09233e-22)
(0.259416 0.310232 -1.18985e-19)
(0.462391 0.228705 1.51927e-19)
(0.121188 0.33396 2.73727e-20)
(1.04082 0.0404679 1.6394e-20)
(1.03636 0.0362741 -4.86099e-22)
(1.0212 0.539659 4.65543e-21)
(1.02523 0.551651 -3.54161e-21)
(1.04871 0.557118 1.67893e-21)
(1.43313 0.312426 9.34454e-21)
(1.41337 0.342954 6.15821e-22)
(1.43876 0.37511 -9.1597e-22)
(1.41337 0.408671 -6.71634e-21)
(1.12746 0.0404008 4.03982e-21)
(1.13271 0.0426504 -3.88146e-23)
(1.1356 0.0351954 -2.15078e-22)
(1.07229 -0.0797829 9.37277e-21)
(1.05449 -0.0646637 -2.791e-21)
(1.18174 -0.447316 7.50796e-22)
(1.09561 -0.620256 1.38524e-20)
(1.46967 0.165624 2.22282e-22)
(1.48043 0.138281 1.3114e-23)
(1.15004 -0.133637 -5.01864e-22)
(1.14098 -0.126223 0)
(1.15898 -0.019658 3.67382e-21)
(1.15907 -0.021682 -4.72594e-21)
(1.06534 0.170692 -2.68246e-21)
(1.07771 0.182645 2.82943e-21)
(1.45012 0.140589 1.10714e-20)
(1.27058 0.284304 5.65133e-21)
(1.24016 0.251971 -1.12714e-20)
(1.23285 0.223537 3.36527e-20)
(1.43735 -0.0911628 -6.08633e-21)
(1.42892 -0.0695159 0)
(1.48635 0.35556 -2.39946e-20)
(1.47807 0.333977 4.73596e-20)
(0.574623 0.159292 -6.17677e-20)
(0.810155 0.0905425 0)
(-0.271153 0.421955 -1.74966e-20)
(-0.247743 0.406332 0)
(-0.184757 0.289444 0)
(-0.173659 0.27805 -1.14826e-19)
(-0.10501 0.159679 2.16777e-19)
(0.908716 -0.0614209 0)
(0.922405 -0.0777098 9.91826e-20)
(0.937225 -0.0596411 3.11497e-20)
(0.927696 -0.0483257 -2.57396e-20)
(1.07834 -0.0029817 -3.39627e-20)
(1.0767 0.000158806 2.13659e-20)
(1.34681 0.100832 -5.10551e-21)
(0.610618 -0.00449941 -2.90881e-22)
(0.909507 0.158864 -4.55239e-20)
(0.929994 0.173027 0)
(0.924244 0.0821485 -6.46981e-21)
(0.921435 0.0239222 0)
(0.919457 -0.0890048 0)
(0.925163 -0.179168 1.62096e-20)
(0.930035 -0.268084 -6.73713e-22)
(0.937173 -0.345937 -3.22832e-20)
(0.945037 -0.412867 1.54738e-20)
(0.95376 -0.4676 -1.34325e-20)
(0.962836 -0.509638 1.12402e-21)
(0.971857 -0.538745 1.22961e-20)
(0.981007 -0.556845 0)
(0.989681 -0.565169 -9.43553e-21)
(0.998226 -0.567422 9.32759e-21)
(1.0059 -0.566119 0)
(1.01302 -0.564715 7.673e-21)
(1.01899 -0.564791 -7.7618e-21)
(1.02426 -0.56771 7.23484e-21)
(1.02848 -0.573252 -1.46105e-20)
(1.03209 -0.581294 1.45247e-20)
(1.03479 -0.590963 -1.50536e-20)
(1.0367 -0.601848 7.56499e-21)
(1.0374 -0.612812 0)
(1.03668 -0.622758 0)
(1.03416 -0.629493 1.03834e-20)
(1.02944 -0.630515 1.17308e-21)
(1.02247 -0.622499 -1.15698e-20)
(1.01289 -0.601926 -1.43252e-20)
(1.00142 -0.565739 1.44833e-20)
(0.988038 -0.511062 -1.76938e-20)
(0.974528 -0.437544 1.84576e-20)
(0.960927 -0.344799 -1.22288e-21)
(0.95015 -0.237763 0)
(0.936984 -0.112891 0)
(0.928741 0.0162837 -4.97643e-21)
(0.917875 0.141614 -3.37818e-20)
(0.984123 -0.14814 0)
(0.975288 -0.0116212 1.07408e-20)
(0.88205 0.0394124 -4.98927e-21)
(0.958269 0.158825 6.01965e-21)
(0.962691 0.251144 -2.72514e-21)
(0.93267 0.251495 0)
(0.874241 0.155872 0)
(0.904363 -0.201597 0)
(0.891815 -0.0818015 1.00833e-20)
(0.933584 -0.405264 1.68276e-20)
(0.917877 -0.310369 1.19967e-21)
(0.966322 -0.542083 1.50474e-21)
(0.949767 -0.482644 -3.21408e-20)
(0.994817 -0.609112 0)
(0.981348 -0.583372 1.38797e-20)
(1.01461 -0.624795 -1.99209e-20)
(1.00581 -0.621776 1.00778e-20)
(1.02548 -0.613569 8.16856e-21)
(1.02104 -0.621172 9.17819e-21)
(1.02948 -0.594275 7.52065e-21)
(1.0282 -0.604148 -7.89581e-21)
(1.02896 -0.577469 0)
(1.02975 -0.585166 -7.26954e-21)
(1.02496 -0.569439 0)
(1.0275 -0.572131 0)
(1.01753 -0.571736 8.96445e-21)
(1.0218 -0.569713 0)
(1.00729 -0.573368 1.05962e-20)
(1.01285 -0.57407 -8.66514e-21)
(0.995362 -0.551674 -1.27905e-20)
(1.00166 -0.567164 -1.02423e-20)
(0.982409 -0.486234 -1.52934e-20)
(0.989143 -0.525487 1.23633e-20)
(0.969802 -0.3689 -1.75869e-20)
(0.976107 -0.434142 1.47774e-20)
(0.960659 -0.205421 -1.92326e-20)
(0.964906 -0.292111 1.6777e-20)
(0.958225 -0.0196462 0)
(0.958256 -0.112082 1.88317e-20)
(0.956415 0.0719112 -9.0397e-22)
(0.889223 -0.0616851 0)
(0.884527 0.1341 2.60208e-20)
(0.886993 0.0360016 0)
(0.899233 -0.242018 1.56922e-20)
(0.894099 -0.155527 -1.60687e-20)
(0.916724 -0.388563 4.26738e-22)
(0.90772 -0.321447 9.56613e-25)
(0.938303 -0.489755 2.43123e-20)
(0.926892 -0.444752 -1.22764e-20)
(0.961278 -0.541923 0)
(0.949334 -0.521115 -1.12956e-20)
(0.983886 -0.556205 0)
(0.972379 -0.552169 0)
(1.00413 -0.555553 7.43152e-21)
(0.994134 -0.556009 0)
(1.02066 -0.559524 7.03617e-21)
(1.01267 -0.556065 -7.2055e-21)
(1.03387 -0.573813 7.1544e-21)
(1.02751 -0.565233 -6.8222e-21)
(1.04443 -0.595746 0)
(1.03948 -0.583832 -6.93686e-21)
(1.05149 -0.620059 -9.22048e-21)
(1.04863 -0.607889 0)
(1.05264 -0.634672 3.33402e-22)
(1.05325 -0.629617 9.22986e-21)
(1.045 -0.616596 1.24397e-20)
(1.05051 -0.631584 -1.21092e-20)
(1.02803 -0.537585 -3.41119e-20)
(1.03822 -0.586715 1.52622e-20)
(1.00574 -0.380748 6.5277e-22)
(1.01817 -0.4698 1.74272e-20)
(0.995937 -0.27327 0)
(0.907197 0.241097 -4.88813e-21)
(0.937417 0.327391 6.93465e-23)
(0.967424 0.331694 -1.20543e-21)
(0.869539 0.269401 1.05245e-20)
(0.898006 0.264875 -1.81243e-20)
(0.835168 0.283001 -6.9211e-21)
(0.869085 0.372349 0)
(0.838844 0.375868 8.97354e-21)
(0.970297 0.119396 3.57965e-22)
(1.03125 -0.178971 1.19834e-20)
(1.02136 -0.0463899 -3.45211e-20)
(0.860207 0.132528 1.17301e-20)
(0.885948 0.22895 1.29118e-20)
(0.864712 0.219327 -4.36273e-21)
(0.891918 0.309216 -8.05471e-21)
(0.912515 0.31938 3.33887e-21)
(0.843763 0.0573303 -9.79768e-21)
(0.836618 0.174157 4.9226e-21)
(0.865112 -0.174328 -1.13945e-21)
(0.853383 -0.0601241 5.32691e-21)
(0.897404 -0.378296 0)
(0.879997 -0.282467 0)
(0.935282 -0.520098 3.46623e-21)
(0.916392 -0.458264 -1.54134e-23)
(0.969766 -0.593844 -2.82728e-21)
(0.953434 -0.564891 -3.32831e-21)
(0.996242 -0.616113 0)
(0.98422 -0.610077 2.71502e-21)
(1.01379 -0.609705 0)
(1.00614 -0.615217 0)
(1.02398 -0.593118 0)
(1.01971 -0.601877 0)
(1.02916 -0.577579 1.85104e-21)
(1.02712 -0.584753 -1.77752e-21)
(1.03064 -0.570249 1.91465e-21)
(1.03035 -0.572612 -1.83859e-21)
(1.02896 -0.573308 2.11621e-21)
(1.03016 -0.570866 -2.03213e-21)
(1.02499 -0.576408 0)
(1.02718 -0.576232 0)
(1.01949 -0.557509 0)
(1.02237 -0.571361 0)
(1.01263 -0.4957 3.6368e-21)
(1.01613 -0.532976 -3.49239e-21)
(1.00551 -0.381591 0)
(1.00899 -0.445155 0)
(0.999626 -0.219967 2.47711e-21)
(1.00266 -0.305967 0)
(0.994745 -0.0297481 0)
(0.997251 -0.126358 0)
(0.993682 0.161325 -5.39716e-21)
(0.992966 0.0666679 5.3475e-21)
(1.00036 0.335986 0)
(0.996786 0.252342 2.63041e-21)
(0.861654 -0.0475534 3.58355e-21)
(0.859844 0.0429944 -3.74048e-21)
(0.872217 -0.220114 -7.32167e-21)
(0.865649 -0.135795 7.34902e-21)
(0.891052 -0.362525 -4.38e-22)
(0.880704 -0.295966 -2.00953e-25)
(0.915506 -0.465524 6.0059e-21)
(0.903013 -0.419959 -5.71676e-21)
(0.942467 -0.521608 5.05599e-21)
(0.928874 -0.499443 -4.81251e-21)
(0.969987 -0.5398 4.26768e-21)
(0.95641 -0.534359 -4.06212e-21)
(0.995406 -0.542065 3.73049e-21)
(0.983194 -0.54151 -3.55081e-21)
(1.01706 -0.547945 3.4521e-21)
(1.00679 -0.543902 -3.28584e-21)
(1.03546 -0.563581 3.42293e-21)
(1.02664 -0.554627 -3.25809e-21)
(1.05176 -0.587116 3.65939e-21)
(1.04391 -0.57457 -3.48318e-21)
(1.0657 -0.614637 4.20908e-21)
(1.05916 -0.600807 -4.00641e-21)
(1.07537 -0.635824 2.53536e-21)
(1.0713 -0.627118 -2.91705e-22)
(1.07742 -0.628501 4.10039e-21)
(1.07762 -0.637575 -3.10492e-21)
(1.06897 -0.561171 -2.70581e-22)
(1.07462 -0.604256 -3.01878e-21)
(1.05123 -0.409641 -6.52517e-22)
(1.06089 -0.496232 0)
(1.04113 -0.303423 0)
(0.934571 0.261138 6.16955e-21)
(0.87303 0.298693 1.9672e-21)
(0.899341 0.367034 -5.47277e-21)
(1.00535 0.407895 -2.30983e-21)
(1.03588 0.337233 2.20413e-21)
(1.03816 0.411177 -3.05582e-22)
(0.871357 0.453784 0)
(0.845297 0.4527 -4.20791e-22)
(1.0153 0.0882238 -5.72041e-21)
(1.00856 0.223404 -5.68252e-21)
(0.974607 0.241963 2.63413e-20)
(0.94455 0.395779 -3.99254e-22)
(0.973578 0.402418 -2.76378e-22)
(0.901339 0.377038 1.95634e-21)
(0.920937 0.387008 1.94319e-22)
(0.8076 0.286887 1.25665e-21)
(0.822583 0.447609 -3.86361e-21)
(0.813162 0.376154 1.88976e-21)
(0.810984 0.069773 2.63241e-22)
(0.80681 0.182332 0)
(0.832617 -0.156535 1.17209e-21)
(0.81996 -0.044535 -5.8763e-22)
(0.86825 -0.358895 0)
(0.849114 -0.263891 0)
(0.910095 -0.501118 0)
(0.889052 -0.438603 0)
(0.949303 -0.577954 0)
(0.930476 -0.547159 0)
(0.980988 -0.604423 0)
(0.966266 -0.596205 0)
(1.00395 -0.601854 0)
(0.993546 -0.605531 0)
(1.01951 -0.587968 0)
(1.01253 -0.595509 0)
(1.02986 -0.574119 0)
(1.02524 -0.580525 0)
(1.03651 -0.567954 0)
(1.0336 -0.569765 0)
(1.04043 -0.571746 0)
(1.03874 -0.568965 0)
(1.04275 -0.575262 0)
(1.04172 -0.57483 0)
(1.04397 -0.557097 0)
(1.0435 -0.570446 0)
(1.04384 -0.49652 0)
(1.04408 -0.533123 0)
(1.0425 -0.383769 0)
(1.04344 -0.446749 0)
(1.03947 -0.223337 -2.60812e-21)
(1.04178 -0.309077 0)
(1.03539 -0.0333403 0)
(1.03804 -0.130821 1.30147e-21)
(1.03309 0.160513 0)
(1.03372 0.0640069 4.28922e-23)
(1.03417 0.252543 6.53419e-22)
(0.840254 0.128285 -3.73576e-21)
(0.855762 0.284777 8.35281e-22)
(0.84606 0.210269 -2.63666e-21)
(0.839101 -0.0416414 5.59733e-22)
(0.838249 0.0438036 -4.39712e-22)
(0.85012 -0.206886 0)
(0.843234 -0.12614 -8.82208e-25)
(0.87031 -0.348082 0)
(0.859276 -0.281439 2.04315e-25)
(0.897277 -0.449386 0)
(0.883107 -0.404425 0)
(0.928283 -0.504791 0)
(0.912411 -0.482711 0)
(0.960375 -0.52368 0)
(0.944383 -0.517632 0)
(0.990208 -0.527903 0)
(0.975728 -0.526226 0)
(1.01607 -0.535904 0)
(1.00361 -0.53083 0)
(1.0389 -0.552938 0)
(1.02774 -0.543348 0)
(1.06019 -0.57747 0)
(1.04968 -0.564388 0)
(1.08002 -0.606456 0)
(1.07033 -0.591749 0)
(1.09685 -0.63056 0)
(1.08896 -0.62013 0)
(1.10739 -0.628715 0)
(1.10315 -0.634727 0)
(1.10765 -0.569381 2.75015e-22)
(1.10901 -0.608409 0)
(1.09589 -0.426131 -2.72335e-21)
(1.10309 -0.509138 0)
(1.0774 -0.201476 -7.24227e-22)
(1.08709 -0.322614 2.63273e-21)
(1.05727 0.0658478 1.78422e-20)
(1.06641 -0.0716667 7.55597e-22)
(0.855596 0.507769 9.03267e-22)
(0.836028 0.499346 2.26247e-21)
(0.883824 0.364815 0)
(0.931467 0.36204 -4.30878e-21)
(1.00981 0.467557 1.17924e-21)
(1.04106 0.47205 -2.18882e-21)
(0.898813 0.452726 0)
(0.878667 0.51521 -3.84153e-21)
(1.0481 0.199396 -1.19005e-20)
(1.0001 0.344712 -5.28642e-21)
(0.842462 0.271621 2.0533e-21)
(0.869118 0.544268 0)
(0.852907 0.531308 -1.06204e-21)
(0.868667 0.350453 5.68066e-21)
(0.856314 0.334559 -5.73428e-21)
(1.03762 0.323025 1.05758e-20)
(0.96354 0.35753 0)
(0.953845 0.453486 4.93164e-22)
(0.980901 0.461251 1.31239e-21)
(0.912916 0.432051 0)
(0.931403 0.443479 -5.975e-23)
(0.883587 0.403995 0)
(0.897125 0.419224 0)
(0.804 0.438038 0)
(0.840314 0.514121 2.07244e-21)
(0.820626 0.485429 -1.3116e-21)
(0.784468 0.28694 2.81459e-21)
(0.791634 0.371224 -3.75128e-21)
(0.785536 0.0786331 -1.24513e-21)
(0.782117 0.187324 9.74087e-22)
(0.806893 -0.14242 0)
(0.793931 -0.0331757 0)
(0.843572 -0.338214 0)
(0.82368 -0.245871 0)
(0.888245 -0.479141 0)
(0.865575 -0.416649 0)
(0.931474 -0.558529 0)
(0.910526 -0.526112 0)
(0.967718 -0.589202 0)
(0.950663 -0.57879 0)
(0.995479 -0.590781 0)
(0.982648 -0.592465 0)
(1.01592 -0.580061 0)
(1.0065 -0.586156 0)
(1.03115 -0.568381 0)
(1.02408 -0.573794 0)
(1.04279 -0.563718 0)
(1.03734 -0.564839 0)
(1.05223 -0.568365 0)
(1.04769 -0.56522 0)
(1.06081 -0.572317 0)
(1.05656 -0.571653 0)
(1.06883 -0.554847 0)
(1.06493 -0.567774 0)
(1.07549 -0.49529 0)
(1.0724 -0.531375 0)
(1.07982 -0.383567 0)
(1.07809 -0.446057 0)
(1.0809 -0.224743 0)
(1.08092 -0.30935 0)
(1.07879 -0.0353263 0)
(1.08022 -0.132469 0)
(1.07561 0.160917 0)
(1.07711 0.0631349 -4.21312e-23)
(1.07377 0.337786 -1.25884e-21)
(1.07449 0.253432 -6.52636e-22)
(1.0736 0.472982 4.31326e-21)
(1.07308 0.411985 0)
(0.825099 0.123705 7.7369e-22)
(0.831778 0.200486 -7.22913e-22)
(0.82196 -0.0394632 0)
(0.821752 0.0429334 -7.59037e-22)
(0.832544 -0.198732 0)
(0.825729 -0.120802 0)
(0.8538 -0.335029 0)
(0.842002 -0.270789 0)
(0.88304 -0.433202 0)
(0.867576 -0.389623 0)
(0.917403 -0.487112 0)
(0.899767 -0.46555 0)
(0.953268 -0.5064 0)
(0.935391 -0.499918 0)
(0.986782 -0.512469 0)
(0.970499 -0.509764 0)
(1.01627 -0.522373 0)
(1.002 -0.516432 0)
(1.04307 -0.540441 0)
(1.02988 -0.530446 0)
(1.06897 -0.565527 0)
(1.05607 -0.55218 0)
(1.09437 -0.595434 0)
(1.08177 -0.580171 0)
(1.11803 -0.621753 0)
(1.10658 -0.60999 0)
(1.13648 -0.624222 0)
(1.12821 -0.627781 0)
(1.14488 -0.571221 0)
(1.14224 -0.606846 0)
(1.1398 -0.43478 0)
(1.14412 -0.514366 0)
(1.12284 -0.215862 -2.92645e-21)
(1.13251 -0.334338 0)
(1.09963 0.0422513 -1.47118e-21)
(1.11201 -0.088159 3.60279e-21)
(1.0764 0.291742 0)
(1.09023 0.170868 -5.90988e-21)
(0.872249 0.546787 -3.88002e-21)
(0.86223 0.526543 2.64216e-21)
(1.02876 0.427683 -1.52733e-20)
(1.06393 0.399701 -1.8854e-20)
(0.928747 0.453379 -1.42336e-21)
(0.994306 0.443005 5.25963e-21)
(0.872757 0.387136 -4.69168e-21)
(0.903233 0.519839 0)
(1.07358 0.518996 9.36424e-22)
(1.10699 0.470411 -2.12608e-21)
(1.10335 0.516753 9.48784e-22)
(0.888231 0.556511 3.67287e-21)
(0.885059 0.56339 -2.8449e-21)
(1.01988 0.508889 3.14749e-22)
(0.892714 0.550732 2.11547e-21)
(0.8849 0.529947 -2.48543e-22)
(1.05191 0.486171 1.37897e-20)
(0.961197 0.450214 1.18884e-21)
(1.01553 0.514141 -1.94241e-21)
(1.04381 0.518255 1.83537e-21)
(0.964272 0.499151 -4.34887e-22)
(0.989089 0.507622 0)
(0.926078 0.475526 -1.46222e-21)
(0.943191 0.488119 0)
(0.899959 0.445965 -6.792e-22)
(0.911671 0.461279 2.16091e-21)
(0.830645 0.492742 -1.66065e-21)
(0.880455 0.507894 1.57499e-21)
(0.85568 0.504335 5.02959e-22)
(0.789116 0.423758 0)
(0.808347 0.467214 1.34989e-21)
(0.765983 0.282211 0)
(0.774719 0.361397 0)
(0.765102 0.0844829 0)
(0.76272 0.187688 0)
(0.785812 -0.127626 0)
(0.773014 -0.0225505 0)
(0.823063 -0.316305 0)
(0.802734 -0.226967 0)
(0.869671 -0.455187 0)
(0.845829 -0.393058 0)
(0.916195 -0.53677 0)
(0.893464 -0.502861 0)
(0.956436 -0.571586 0)
(0.937325 -0.558991 0)
(0.988489 -0.57737 0)
(0.973483 -0.577027 0)
(1.01337 -0.56992 0)
(1.00171 -0.574515 0)
(1.03313 -0.560507 0)
(1.02377 -0.56489 0)
(1.04955 -0.557311 0)
(1.04165 -0.557792 0)
(1.06435 -0.562592 0)
(1.05704 -0.559223 0)
(1.07901 -0.566692 0)
(1.07164 -0.565959 0)
(1.09362 -0.549622 0)
(1.08638 -0.562284 0)
(1.10684 -0.491002 0)
(1.10052 -0.526547 0)
(1.11689 -0.380901 0)
(1.11241 -0.442462 0)
(1.12231 -0.224318 0)
(1.12027 -0.307656 0)
(1.12259 -0.0369142 0)
(1.12316 -0.133148 0)
(1.11862 0.159193 -1.03149e-23)
(1.12121 0.061057 1.03248e-23)
(1.11246 0.336598 -3.77033e-23)
(1.11611 0.252131 1.33006e-23)
(1.10971 0.410405 -5.97206e-22)
(0.83311 0.258683 -1.29183e-21)
(0.864226 0.368371 5.67649e-21)
(0.847533 0.318916 -2.1239e-21)
(0.814008 0.11868 -1.51539e-22)
(0.821628 0.191376 -1.55795e-22)
(0.809679 -0.0375818 0)
(0.809914 0.041342 0)
(0.819506 -0.190571 0)
(0.812924 -0.115657 0)
(0.841244 -0.321865 0)
(0.829026 -0.260004 0)
(0.872185 -0.41638 0)
(0.855721 -0.374435 0)
(0.909246 -0.468324 0)
(0.89016 -0.4475 0)
(0.948241 -0.487781 0)
(0.928789 -0.480936 0)
(0.984791 -0.49567 0)
(0.967006 -0.491941 0)
(1.01736 -0.507345 0)
(1.00151 -0.500627 0)
(1.04764 -0.526129 0)
(1.03264 -0.515904 0)
(1.07764 -0.551258 0)
(1.0626 -0.537928 0)
(1.10811 -0.581283 0)
(1.09282 -0.565897 0)
(1.13819 -0.608859 0)
(1.12334 -0.596235 0)
(1.16436 -0.615015 0)
(1.1521 -0.616369 0)
(1.1807 -0.568238 0)
(1.17416 -0.6005 0)
(1.18228 -0.438918 0)
(1.18349 -0.514971 0)
(1.16901 -0.227131 0)
(1.17734 -0.341771 0)
(1.14519 0.0275663 0)
(1.15818 -0.101613 0)
(1.11463 0.270641 2.46246e-21)
(1.13066 0.153513 0)
(1.08495 0.46144 0)
(1.09956 0.374797 9.31649e-21)
(0.907689 0.528789 -1.00918e-21)
(0.904824 0.507446 8.23378e-22)
(1.04015 0.548584 0)
(1.06911 0.525867 0)
(0.890051 0.428041 0)
(0.929488 0.522539 -8.64399e-22)
(0.988872 0.518703 0)
(1.07322 0.550834 3.91303e-22)
(1.1003 0.548312 1.64623e-21)
(0.909183 0.564987 9.24824e-22)
(1.01287 0.564265 1.97842e-21)
(0.900759 0.578427 7.36251e-22)
(0.902587 0.569001 -8.6072e-22)
(0.912911 0.548885 0)
(0.859179 0.349985 -8.66389e-22)
(1.02777 0.587434 -5.97212e-21)
(0.928465 0.528909 -2.33649e-21)
(0.926907 0.509415 -1.46914e-21)
(1.05396 0.566526 -1.61385e-21)
(0.882662 0.409403 0)
(0.877569 0.389712 2.49138e-21)
(0.958104 0.523139 -1.67589e-21)
(1.02069 0.547062 0)
(1.04655 0.550715 1.14881e-22)
(0.975203 0.532114 2.08265e-22)
(0.996959 0.540642 -1.97046e-22)
(0.93993 0.507223 8.30174e-23)
(0.955975 0.520859 0)
(0.916862 0.476392 0)
(0.927256 0.492591 -8.44689e-23)
(0.902272 0.439874 3.54337e-21)
(0.90864 0.458765 -1.90371e-21)
(0.877756 0.483244 -8.49303e-22)
(0.92662 0.488919 -5.83737e-22)
(0.903475 0.48502 -6.77838e-23)
(0.824783 0.469184 -1.65378e-23)
(0.851599 0.479697 0)
(0.778486 0.406527 0)
(0.799807 0.446309 -7.26477e-22)
(0.752312 0.274745 6.28992e-22)
(0.762393 0.34901 -7.63377e-22)
(0.749178 0.0890655 0)
(0.747767 0.186187 0)
(0.768956 -0.112451 0)
(0.756405 -0.012215 0)
(0.806622 -0.293928 0)
(0.785983 -0.20769 0)
(0.854528 -0.430251 0)
(0.829887 -0.368773 0)
(0.903563 -0.513531 0)
(0.879433 -0.478354 0)
(0.947159 -0.552203 0)
(0.926295 -0.537549 0)
(0.982984 -0.562023 0)
(0.966056 -0.559731 0)
(1.01184 -0.55772 0)
(0.998168 -0.560877 0)
(1.03572 -0.550427 0)
(1.02428 -0.553867 0)
(1.05659 -0.548411 0)
(1.04641 -0.548422 0)
(1.07642 -0.553904 0)
(1.06651 -0.550536 0)
(1.09679 -0.557733 0)
(1.08649 -0.557135 0)
(1.11763 -0.540828 0)
(1.10723 -0.553303 0)
(1.13719 -0.483419 0)
(1.12773 -0.5182 0)
(1.15297 -0.375752 0)
(1.14573 -0.435947 0)
(1.16276 -0.222241 0)
(1.15875 -0.303997 0)
(1.16532 -0.0378763 0)
(1.16511 -0.132697 0)
(1.16077 0.155778 1.29184e-21)
(1.16424 0.0589354 -1.27415e-21)
(1.15156 0.332949 -5.21894e-22)
(1.15693 0.247922 7.02113e-22)
(1.14006 0.466321 0)
(1.14623 0.406055 -2.68518e-22)
(1.12727 0.542693 -3.48088e-21)
(1.1337 0.511971 -8.22232e-22)
(0.82714 0.245255 -5.23807e-22)
(0.841694 0.301849 1.06008e-21)
(0.807071 0.112288 1.51977e-22)
(0.815216 0.181796 6.5935e-22)
(0.801531 -0.0363182 0)
(0.802421 0.0388936 0)
(0.81054 -0.182397 0)
(0.80428 -0.110776 0)
(0.83232 -0.30807 0)
(0.819951 -0.248855 0)
(0.864415 -0.398373 0)
(0.847227 -0.358335 0)
(0.903569 -0.448047 0)
(0.883351 -0.428064 0)
(0.944981 -0.467715 0)
(0.924319 -0.460457 0)
(0.983897 -0.477475 0)
(0.964931 -0.47272 0)
(1.01903 -0.490752 0)
(1.00185 -0.483363 0)
(1.05237 -0.509977 0)
(1.03577 -0.499666 0)
(1.08601 -0.534796 0)
(1.06906 -0.521677 0)
(1.12099 -0.564391 0)
(1.1033 -0.549186 0)
(1.15696 -0.592526 0)
(1.13897 -0.579395 0)
(1.19054 -0.601934 0)
(1.17441 -0.601225 0)
(1.21474 -0.561849 0)
(1.20434 -0.590387 0)
(1.22231 -0.44055 0)
(1.2209 -0.51265 0)
(1.2119 -0.235271 0)
(1.2192 -0.346881 0)
(1.1876 0.0145502 0)
(1.20123 -0.112528 0)
(1.15376 0.253373 0)
(1.17165 0.138481 0)
(1.11681 0.439068 3.77304e-21)
(1.13515 0.354621 -2.23895e-21)
(1.0775 0.549125 -1.24511e-20)
(1.09797 0.503346 2.77129e-21)
(1.04044 0.588502 0)
(1.05869 0.575506 5.94711e-21)
(0.94708 0.514619 7.27304e-22)
(0.947834 0.495566 1.12908e-22)
(0.93253 0.570549 9.64136e-22)
(0.985217 0.572075 -1.89214e-21)
(0.89786 0.420216 1.0118e-21)
(0.918367 0.589668 -8.12265e-22)
(1.0059 0.598818 7.56046e-22)
(1.12024 0.560219 1.4352e-21)
(1.15382 0.53401 4.13735e-22)
(1.14351 0.550907 -5.97724e-22)
(0.91475 0.585073 6.97099e-22)
(1.01964 0.603668 5.98542e-21)
(0.920422 0.567318 1.16348e-21)
(1.031 0.594977 0)
(0.932009 0.547443 8.39295e-22)
(0.947519 0.532371 0)
(0.966075 0.522023 1.14859e-21)
(0.967924 0.504182 -9.31487e-22)
(0.958175 0.573308 5.02956e-22)
(1.07246 0.569786 4.10671e-22)
(1.09635 0.566558 0)
(1.02648 0.567262 -7.6084e-22)
(1.04905 0.570084 0)
(0.985519 0.553097 0)
(1.00513 0.561601 9.45563e-22)
(0.954238 0.528821 0)
(0.968483 0.542018 0)
(0.93414 0.498268 3.95468e-24)
(0.942911 0.514124 0)
(0.922022 0.462333 0)
(0.927123 0.48066 0)
(0.927166 0.467109 4.01761e-22)
(0.970113 0.485079 0)
(0.949053 0.475264 3.97957e-23)
(0.877549 0.456978 0)
(0.903442 0.461345 1.96817e-22)
(0.821865 0.442796 0)
(0.84958 0.452437 0)
(0.772288 0.386944 -4.57058e-22)
(0.79517 0.422327 0)
(0.742587 0.265809 0)
(0.754248 0.334128 5.82532e-22)
(0.737559 0.0931221 0)
(0.736946 0.184022 0)
(0.75633 -0.0974761 0)
(0.744158 -0.00233645 0)
(0.793991 -0.271398 0)
(0.773252 -0.188432 0)
(0.842654 -0.404651 0)
(0.817519 -0.344109 0)
(0.893472 -0.48906 0)
(0.868313 -0.452889 0)
(0.939773 -0.531198 0)
(0.917463 -0.514656 0)
(0.978854 -0.544834 0)
(0.960248 -0.540688 0)
(1.01123 -0.543543 0)
(0.995779 -0.545326 0)
(1.03882 -0.538204 0)
(1.0255 -0.540797 0)
(1.06371 -0.537075 0)
(1.05147 -0.536783 0)
(1.08813 -0.542402 0)
(1.07584 -0.539229 0)
(1.11374 -0.545635 0)
(1.10074 -0.54532 0)
(1.14037 -0.528771 0)
(1.12702 -0.541084 0)
(1.16591 -0.4728 0)
(1.15348 -0.506658 0)
(1.18712 -0.368039 0)
(1.17728 -0.426619 0)
(1.2011 -0.218369 0)
(1.19519 -0.29811 0)
(1.20589 -0.0383197 0)
(1.20477 -0.13094 0)
(1.20123 0.151535 0)
(1.20476 0.056805 0)
(1.18918 0.326142 -1.4238e-22)
(1.19618 0.242088 0)
(1.17267 0.459089 -1.00356e-21)
(1.1814 0.399552 1.24896e-21)
(1.16355 0.503811 -4.11356e-22)
(0.856854 0.331823 0)
(0.89572 0.40082 -3.32677e-21)
(0.875594 0.370889 1.25107e-21)
(0.824452 0.231795 0)
(0.839182 0.285849 0)
(0.80369 0.105283 0)
(0.812374 0.17145 0)
(0.7971 -0.0356226 0)
(0.798504 0.035736 0)
(0.805191 -0.174559 0)
(0.799336 -0.106408 0)
(0.826723 -0.294118 0)
(0.814366 -0.237813 0)
(0.859565 -0.379696 0)
(0.841873 -0.341815 0)
(0.900277 -0.426788 0)
(0.879214 -0.407763 0)
(0.943438 -0.446631 0)
(0.92191 -0.438957 0)
(0.98407 -0.458221 0)
(0.964233 -0.45248 0)
(1.02124 -0.47289 0)
(1.00298 -0.464952 0)
(1.05713 -0.492284 0)
(1.03918 -0.482025 0)
(1.09388 -0.516439 0)
(1.0753 -0.503728 0)
(1.13277 -0.545037 0)
(1.113 -0.53033 0)
(1.17388 -0.572919 0)
(1.15313 -0.559711 0)
(1.21426 -0.584855 0)
(1.19452 -0.582386 0)
(1.24638 -0.551857 0)
(1.23199 -0.576251 0)
(1.26044 -0.440862 0)
(1.25619 -0.507667 0)
(1.25232 -0.24447 0)
(1.25902 -0.352064 0)
(1.22688 -0.000379261 0)
(1.24141 -0.124882 0)
(1.18972 0.235175 0)
(1.20952 0.121533 0)
(1.14582 0.420226 0)
(1.16827 0.335687 0)
(1.09845 0.533644 1.36269e-21)
(1.12245 0.486375 0)
(1.07782 0.56 4.19897e-21)
(0.987465 0.514172 5.22177e-22)
(0.990917 0.494778 4.08984e-22)
(0.918286 0.442951 -1.46195e-21)
(0.937615 0.597953 -7.51708e-23)
(0.982211 0.601884 0)
(1.11249 0.566802 1.01895e-21)
(1.13277 0.556956 -1.62368e-22)
(0.928791 0.597987 5.58601e-23)
(1.00078 0.611703 -7.59775e-22)
(0.92958 0.583256 0)
(1.01197 0.606035 0)
(0.937109 0.564297 0)
(1.02749 0.583925 0)
(0.949369 0.548896 -1.62117e-21)
(0.965168 0.538792 0)
(0.984424 0.531923 -1.73052e-21)
(1.02025 0.567202 1.38634e-21)
(0.895364 0.380814 1.0841e-21)
(1.00745 0.524846 -1.00479e-21)
(1.01188 0.50557 0)
(0.916526 0.423636 -1.61513e-21)
(0.916129 0.403908 4.69758e-22)
(0.958662 0.602489 0)
(1.07045 0.578008 0)
(1.09162 0.573908 -1.64035e-21)
(1.0303 0.576964 0)
(1.04986 0.579032 0)
(0.995239 0.564313 0)
(1.01208 0.572009 0)
(0.968162 0.541527 0)
(0.980478 0.554036 0)
(0.950891 0.512278 -3.89371e-24)
(0.95834 0.527543 0)
(0.941313 0.477596 8.82467e-22)
(0.945187 0.495447 -9.52784e-23)
(0.937366 0.439871 1.14327e-21)
(0.938335 0.458557 -1.85735e-21)
(0.972782 0.464213 -6.44499e-23)
(1.0165 0.484993 2.56238e-22)
(0.994494 0.474635 -2.55933e-22)
(0.928862 0.444615 -1.3758e-22)
(0.951416 0.454093 1.99988e-22)
(0.879036 0.430274 1.91482e-22)
(0.904929 0.436444 -1.89117e-22)
(0.822085 0.414515 0)
(0.850703 0.424005 -1.89391e-22)
(0.769806 0.365514 0)
(0.794317 0.396614 0)
(0.737056 0.256372 0)
(0.750266 0.318742 0)
(0.730135 0.0964228 0)
(0.730325 0.18101 0)
(0.747713 -0.0828897 0)
(0.736065 0.00695369 0)
(0.784878 -0.248856 0)
(0.764297 -0.169358 0)
(0.833754 -0.378572 0)
(0.80841 -0.319216 0)
(0.885716 -0.463574 0)
(0.859856 -0.426672 0)
(0.934107 -0.508761 0)
(0.910646 -0.490516 0)
(0.975946 -0.525978 0)
(0.955899 -0.520075 0)
(1.01143 -0.527585 0)
(0.994394 -0.528044 0)
(1.0423 -0.524085 0)
(1.02731 -0.525899 0)
(1.07078 -0.523624 0)
(1.05669 -0.523151 0)
(1.09927 -0.528496 0)
(1.08488 -0.525664 0)
(1.12955 -0.530859 0)
(1.11415 -0.530959 0)
(1.1614 -0.51385 0)
(1.14539 -0.526074 0)
(1.19232 -0.45935 0)
(1.17721 -0.492236 0)
(1.21848 -0.357851 0)
(1.20626 -0.414593 0)
(1.23629 -0.212833 0)
(1.22864 -0.290103 0)
(1.24313 -0.0382328 0)
(1.24123 -0.128067 0)
(1.23844 0.146555 0)
(1.24216 0.0543003 0)
(1.22431 0.317969 0)
(1.23235 0.23574 0)
(1.20387 0.449191 -1.02592e-21)
(1.21461 0.390088 9.09786e-22)
(1.17933 0.522587 -2.53854e-22)
(1.19206 0.493096 9.49889e-23)
(1.15258 0.544264 -1.84059e-23)
(1.16616 0.538812 -1.32337e-21)
(0.856936 0.31384 0)
(0.875608 0.350741 -7.14716e-22)
(0.824738 0.218027 0)
(0.839717 0.269652 0)
(0.803385 0.0979709 0)
(0.812442 0.160629 0)
(0.795861 -0.0354667 0)
(0.797767 0.0321087 0)
(0.803001 -0.167094 0)
(0.79759 -0.102532 0)
(0.82411 -0.280117 0)
(0.811865 -0.22696 0)
(0.857413 -0.360487 0)
(0.83938 -0.324987 0)
(0.899198 -0.404785 0)
(0.877563 -0.386779 0)
(0.943447 -0.424839 0)
(0.921395 -0.416721 0)
(0.985161 -0.438184 0)
(0.964757 -0.431524 0)
(1.02383 -0.453987 0)
(1.00475 -0.44564 0)
(1.06177 -0.473286 0)
(1.04274 -0.463208 0)
(1.10106 -0.496477 0)
(1.08114 -0.484338 0)
(1.14318 -0.523603 0)
(1.12169 -0.509659 0)
(1.18862 -0.550499 0)
(1.16554 -0.537618 0)
(1.23488 -0.564033 0)
(1.21198 -0.560274 0)
(1.27435 -0.537619 0)
(1.25616 -0.557996 0)
(1.29536 -0.438067 0)
(1.2879 -0.498735 0)
(1.29015 -0.253374 0)
(1.2961 -0.355449 0)
(1.26293 -0.0172929 0)
(1.27874 -0.138258 0)
(1.22204 0.212898 0)
(1.24387 0.101643 0)
(1.17208 0.395164 0)
(1.19799 0.311741 0)
(1.11947 0.509276 0)
(1.14552 0.461109 0)
(1.07356 0.552789 0)
(1.09576 0.538832 -8.27051e-22)
(1.0335 0.517375 0)
(1.03886 0.496553 -3.07917e-22)
(0.999325 0.553234 -3.4199e-21)
(0.99876 0.537208 -1.89996e-21)
(0.944427 0.607528 -6.85816e-22)
(0.980949 0.614492 0)
(0.937232 0.420476 8.60214e-22)
(0.940166 0.596318 6.34908e-22)
(0.996757 0.611568 0)
(1.13821 0.541909 5.68868e-23)
(1.17096 0.528841 1.1689e-22)
(1.15411 0.526407 -1.17231e-22)
(0.943461 0.579074 0)
(1.00673 0.60004 4.60746e-22)
(0.952216 0.564077 1.00943e-21)
(1.00968 0.581856 -2.89998e-21)
(0.965084 0.554288 7.57825e-22)
(1.00022 0.563144 1.33584e-21)
(0.982018 0.54818 5.81349e-22)
(1.00307 0.542935 9.99506e-22)
(1.02787 0.537145 2.19973e-23)
(1.06207 0.508684 8.06913e-22)
(1.05578 0.530314 -2.37618e-22)
(0.985905 0.546506 0)
(0.986546 0.528248 -4.20766e-22)
(0.962019 0.612874 0)
(1.10368 0.565402 -1.23492e-22)
(1.12134 0.554936 1.2473e-22)
(1.06802 0.577946 -6.00459e-22)
(1.08577 0.57318 1.21039e-21)
(1.03354 0.57873 0)
(1.05036 0.579789 0)
(1.00392 0.568066 0)
(1.01806 0.574738 0)
(0.981139 0.547562 0)
(0.991517 0.558909 0)
(0.966874 0.520038 0)
(0.973111 0.534533 0)
(0.959472 0.487208 0)
(0.962525 0.504257 -1.02058e-22)
(0.957207 0.450924 0)
(0.957829 0.469195 0)