/*--------------------------------*- C++ -*----------------------------------*\
  =========                 |
  \\      /  F ield         | OpenFOAM: The Open Source CFD Toolbox
   \\    /   O peration     | Website:  https://openfoam.org
    \\  /    A nd           | Version:  10
     \\/     M anipulation  |
\*---------------------------------------------------------------------------*/
FoamFile
{
    format      ascii;
    class       surfaceScalarField;
    location    "30.5";
    object      phi;
}
// * * * * * * * * * * * * * * * * * * * * * * * * * * * * * * * * * * * * * //

dimensions      [0 3 -1 0 0 0 0];

internalField   nonuniform List<scalar> 
57492
(
-0.00682925
0.000183668
0.00148312
0.00516247
0.00344959
-0.00515846
-0.00512038
-0.000784725
0.00236299
0.00811557
-0.00969384
0.0386357
0.029606
-0.00603417
-0.0622075
-0.0831267
0.0348173
0.086945
0.0135228
-0.0128952
-0.00656615
0.0059385
-0.024663
0.00715861
-0.00428143
0.0217859
0.00472407
-0.0158643
0.0126916
-0.0406802
0.0387247
-0.0107361
0.0109824
0.0373115
-0.0356023
-0.000306309
0.0032066
-0.00594138
0.00304109
0.00215207
0.000536414
-0.0029948
-0.000528124
0.00159971
0.00108048
0.0013021
0.00137637
0.0298182
-0.0259099
-0.0112127
0.00730441
0.00145338
0.0227051
0.00565967
-0.00261655
0.00702051
0.0351691
-0.039573
-0.00659004
0.034737
-0.0307635
0.00345698
-0.00757987
0.0041229
-0.0312134
0.0217077
0.0129626
-0.0477273
0.00471665
0.0348083
0.00820237
0.00951756
-0.0482504
-0.00899447
-0.000600688
0.00153781
-0.00390758
0.00297046
0.00146185
-0.00226748
0.000204952
-0.0365838
0.0378671
0.0046942
-0.00597744
-0.0541119
0.0275468
-0.0100187
-0.0185874
0.0071158
0.00942031
0.00205127
-0.0134401
-0.00579188
0.000644592
-0.00786226
-0.0226943
0.0273549
0.00320163
-0.00928642
0.00290992
-0.00148576
0.0142347
-0.00928958
-0.00867074
0.0037256
-0.012108
0.00947154
0.0168712
-0.0184626
-0.0309853
0.0217132
0.0277347
-0.0342659
-0.0107788
0.0265821
-0.0205615
-0.00280575
0.0233672
-0.00633832
-0.0142231
-0.0320442
0.0397689
-0.014063
0.00525896
-0.0207702
-0.016533
-0.0114868
0.0186454
-0.00896419
-0.0377839
0.0203149
0.0174691
-0.0730459
0.035262
0.0389008
0.00410375
-0.00702991
-0.0359746
0.0270106
-0.0110592
0.0229493
0.00457205
0.0422088
-0.0426771
0.0262568
0.00456444
-0.0260972
0.0252973
-0.00332194
0.0301775
-0.0105787
-0.0222583
0.00265951
0.0340285
0.000713449
0.0204321
-0.0120911
0.0169563
0.00976207
0.0324559
-0.042473
-0.00463412
0.0037063
0.0434008
-0.0437968
-0.00158185
0.00290563
0.0089314
0.0395228
-0.0389709
-0.00948334
0.00610638
-0.0378552
-0.0262537
0.0410693
0.0356269
-0.0504425
0.00608041
0.0472591
-0.0795931
-0.000490219
0.00174887
9.41137e-05
-0.00135276
0.00155343
-0.000443932
-0.000577786
0.00118343
0.000947784
0.00134913
-0.000178043
-0.000756775
0.000850888
-0.000370385
-0.000386389
0.0948514
0.0388819
-0.0652472
-0.0684861
0.0319718
-0.019559
0.0824385
-0.0832648
0.0315717
0.0836649
0.0182178
-0.0626007
0.0104724
-0.0308893
0.0247969
-0.00437999
0.0267766
-0.0312273
0.0149231
0.00125494
-0.00127243
0.000201158
0.00211707
0.000620986
0.00574054
0.001539
-0.0339988
0.0611293
0.0261856
-0.0533162
0.0362692
-0.0434913
0.0203216
0.0549
-0.0140923
0.146793
-0.0171013
-0.0378359
-0.0918556
0.0338544
0.0815061
0.0314323
0.0194429
-0.0585788
0.0729903
0.00147442
-0.00225915
0.00383741
0.01666
0.0312553
-0.0131082
-0.0348071
0.0224793
0.00229631
0.00381641
-0.00168206
-0.00213435
0.00405539
-0.000238981
-0.084833
0.0404087
-0.0306344
0.0750586
-0.0738367
-0.0374459
0.0264496
-0.0405689
0.0360208
-0.0692886
0.0418223
-0.000791794
-0.0209345
-0.020096
-0.0165719
0.0470968
0.0112975
-0.0204323
-0.00203611
0.00589649
-0.0186358
-0.00258825
-0.00693966
-0.0326307
-0.021798
0.00368478
0.00929556
0.00881762
0.00476964
-0.0126214
-0.0139462
0.00899171
0.00333102
-0.00755309
0.0104989
0.00217754
0.0182338
0.00156067
-0.0171714
0.0102317
0.00248689
-0.0196583
0.00349626
0.000559128
0.046494
0.0310441
-0.00327101
0.0174366
-0.0540692
-0.00313981
0.0358816
-0.0265333
-0.00620843
-0.00492839
0.0413937
-0.0396051
0.0326336
0.0204614
-0.00704927
-0.0460457
-0.00910116
0.00316568
0.0385691
0.0428984
-0.0315382
-0.0142283
-0.0293492
0.00932636
0.0342511
-0.0136252
0.0341382
-0.0347414
0.00157282
-0.0445471
-0.000642665
0.000340306
0.000319128
0.00109669
0.00115878
0.00119412
-0.00402423
0.00259691
0.00252401
-0.00848925
-0.000693439
-0.00454478
0.00993477
0.00214246
-0.00753245
0.0214543
-0.0233656
-0.00263348
-0.0105684
0.0223089
0.00971384
-0.00452938
0.00389575
-0.0682397
0.0376118
0.0710366
0.074983
-0.0265556
-0.0858732
-0.0332446
0.039988
-0.00209597
-0.017425
-0.00317332
-0.0116026
0.00022019
-0.000574038
-0.00523798
0.00395708
0.00185494
-0.0032534
0.00123313
0.00144623
-0.00403515
-0.00445623
-0.00543612
-0.00741318
0.00124671
-0.0152749
-0.00758622
-0.0141422
-0.0147449
0.0177457
0.0111415
0.000942726
0.00667645
-0.0217614
-0.0194902
0.005688
-0.0466481
0.0173278
-0.00189302
-0.0465311
0.00408418
-0.0042012
0.00229171
-0.0368454
0.0325086
0.00204503
0.00200164
-0.0339878
0.0342778
0.00250308
-0.112394
-0.0275513
0.0339842
0.033928
-0.0441515
0.0422528
-0.00528964
-0.00403946
0.00737049
-0.00278082
-0.00125864
0.00657539
-0.00119899
0.0451442
-0.0287319
-0.0270297
0.0106174
0.0410089
0.00870726
0.0557054
0.00855526
-0.0581803
0.0246795
0.0425075
-0.0114816
0.0104001
-0.0294411
0.0437205
-0.00119575
-0.00158507
0.01447
-0.0446138
-0.0461949
0.0273304
0.0557871
0.0154889
-0.000871624
-0.0161591
0.00154188
0.00502752
-0.00164666
-0.0200711
0.00375581
0.0257869
0.00306527
-0.0181089
-0.00370895
0.00134794
0.00910109
0.00161718
-0.00987667
-0.000841598
0.00189536
-0.0003943
0.00760002
0.0112191
0.0156839
-0.0250076
-0.0182812
0.0330966
-0.0113191
0.0693943
-0.0643954
-0.0232801
-0.000550736
-0.026312
0.0306185
-0.0725922
-0.00107873
-0.0531089
-0.0280514
0.00856807
0.0322698
0.0270749
-0.0546281
0.0219164
0.0492597
-0.0389063
0.0202936
-0.0329697
0.018721
-0.00604497
0.0219221
-0.0319057
0.0302773
0.046415
0.0154683
0.0439086
-0.00243604
-0.0438379
0.00236539
0.0483148
-0.0061508
0.00174459
0.0492712
-0.00735098
0.000155004
-0.0420752
0.0351967
-0.0116573
0.0257318
0.0413652
-0.0107242
0.00827387
-0.0389148
0.00935023
0.0421191
-0.0101042
-0.0376652
-0.0133377
0.0402787
0.00756679
-0.0359056
-0.0142302
0.0351436
-0.018995
-0.0322458
0.0167204
0.0345205
-0.0195392
-0.0328926
0.0334367
0.0181526
0.0313429
-0.0110235
-0.0384721
0.0308943
-0.0322809
-0.0213047
0.0211346
0.0310644
-0.0168839
0.0269221
-0.0410456
0.0364259
-0.00640377
-0.0532763
0.0058263
0.0549011
-0.00745107
0.0150551
0.0018049
0.0204748
-0.0182431
-0.00403662
0.00115658
0.0275641
-0.0269158
0.00028673
-0.00125499
-0.00752099
-0.0189302
-0.0289487
0.0178319
0.000385412
-0.000779711
1.64445e-05
0.000368967
-0.00364499
-0.0329378
0.0244917
-0.0287265
-0.00318736
0.0282688
0.00223122
-0.0299707
-0.000986967
-0.0166453
0.0126292
0.0159747
-0.0119586
0.0233935
-0.0156341
-0.0244047
0.00397686
0.0320459
0.00020553
0.000323777
-0.000189002
0.00013827
6.72609e-05
0.000462047
0.000291117
-0.00038235
0.00144036
-0.000290495
0.000581612
-0.000672845
0.00105568
-8.9302e-05
0.000495467
-0.00105356
0.00210924
-0.00114287
0.00257564
-0.000253278
-0.00685174
-0.00095412
0.00352976
-0.0012074
0.0123593
0.0323423
-0.0415359
0.0147723
-0.0438881
0.0414751
0.0456238
0.00149087
-0.0139221
-0.0247394
0.0138599
0.0248016
-0.00548924
0.025997
-0.0344298
0.00388175
-0.0341104
0.0344533
-0.035045
-0.0173275
0.0179192
0.0343533
-0.0149784
0.0150784
-0.0190449
-0.0351959
0.0191958
0.0344326
-0.0126731
0.0125938
0.0349013
-0.00919491
0.0087262
-0.00614157
0.0357233
0.00531953
0.0339639
-0.033848
-0.00625747
-0.00450513
0.0373733
0.00285515
0.0330101
-0.00355127
-0.0330301
-0.0100128
-0.0332271
-0.0124762
-0.0335018
-0.0147036
-0.0344168
-0.0164126
-0.0342566
-0.019205
-0.000924279
0.0391468
-0.000849236
0.0315033
0.00058248
-0.020156
-0.0351814
0.0201415
-0.0350999
-0.0193127
-0.020743
-0.0371744
0.022736
0.00424035
0.039442
-0.00453556
0.0316753
0.00406841
-0.0367092
-0.0191337
0.0397527
0.00771473
-0.00802542
0.0108814
0.0402167
-0.0113453
0.0318975
0.00749251
0.0322588
0.0105201
-0.0208103
-0.0373725
0.0210083
-0.0371125
-0.020407
0.0137418
0.04061
-0.0141351
0.0326182
0.0133823
-0.0207951
-0.0377059
0.0211285
-0.0375827
-0.0203249
0.0160733
0.0411762
-0.0166395
0.0331216
0.0155699
-0.0207095
-0.0379132
0.0209167
-0.0378817
-0.0204105
0.0180174
0.0415657
-0.0184069
0.033555
0.0175841
-0.0206513
-0.0381826
0.0209208
-0.0382706
-0.0202624
0.0193703
0.0421074
-0.0199119
0.0341225
0.0188027
-0.0206528
-0.0383151
0.0207854
-0.038483
-0.0204404
0.0204105
0.042366
-0.0206691
0.0345767
0.0199563
-0.020675
-0.0385977
0.0209576
-0.0386763
-0.0204817
0.0209652
0.0427187
-0.0213179
0.0351916
0.0203503
-0.0208049
-0.0377133
0.0199204
-0.0382468
-0.0212343
0.0214125
0.0426515
-0.0213453
0.0353265
0.0212776
-0.0212509
-0.0377866
0.0213242
-0.0383043
-0.0211935
0.0216137
0.0424959
-0.0214581
0.0353307
0.0216095
-0.0214413
-0.0368919
0.0205467
-0.0374956
-0.02225
0.0234031
0.0401996
-0.0211068
0.0367418
0.021992
-0.0218796
-0.0368624
0.02185
-0.037353
-0.0220222
0.0231396
0.0377598
-0.0206998
0.0375219
0.0223595
-0.022256
0.0219018
-0.0365082
-0.0375561
-0.0220529
0.0215343
-0.0213206
0.0375462
0.0375264
0.0215297
-0.036628
0.0373462
0.0211319
-0.0363876
0.0216614
-0.0222052
0.0224385
-0.0367414
-0.0228912
-0.0368701
-0.0369764
0.0370146
0.021286
0.0209164
-0.0358895
0.0358456
0.0210015
0.0210455
-0.0357674
0.0356555
0.0210326
0.0208636
-0.0355157
0.0353606
0.0212837
0.0210565
-0.0351996
0.0369364
0.0209992
0.0211693
-0.0368067
0.0360273
0.0199752
0.0202712
-0.0370889
0.0366316
0.0155357
0.0168577
-0.0355024
0.0349735
0.00925508
0.013723
-0.0340665
0.03403
0.00289162
0.00622657
-0.0340398
0.0341127
-0.00460849
-0.000859012
-0.0342503
0.034448
-0.0115429
-0.00816303
-0.0346937
0.0349741
-0.0169199
-0.0143808
-0.035267
0.0355551
-0.0202
-0.0186998
-0.0358174
0.0360435
-0.0215441
-0.0209314
-0.0362232
0.0363564
-0.0215912
-0.021525
-0.0365768
0.0369674
-0.0210905
-0.0213272
0.0365739
-0.0209271
0.0212028
-0.0205176
0.036861
0.0212414
0.0374878
0.0368262
-0.0356116
0.0207774
-0.0375061
0.0376662
0.0213695
0.0216796
0.0352016
-0.034342
0.020418
0.0211995
0.033862
-0.0333439
0.0194383
0.0198703
0.0328142
-0.0322856
0.0170554
0.018273
0.0317922
-0.0313506
0.0129408
0.0150765
0.0309906
-0.0307234
0.00722522
0.0101601
0.0305665
-0.0305252
0.000541214
0.00391153
0.0312183
-0.0312763
-0.00619946
-0.00285816
0.0320207
-0.0319557
-0.0125412
-0.00926848
0.0321266
-0.0323594
-0.0161798
-0.0145327
0.0332293
-0.0338286
-0.0187134
-0.0183351
0.0334068
-0.033873
-0.0199408
-0.0195555
0.0343234
-0.0347445
-0.0199894
-0.0198745
0.0351219
-0.0354608
-0.0201015
-0.019885
0.0357634
-0.0364229
-0.0205748
-0.0201792
0.0367989
-0.0376997
-0.0213493
-0.0208174
0.0380073
-0.0376221
-0.022438
-0.0217146
-0.0378252
-0.0226882
-0.0361214
0.0221722
0.0368382
-0.0207819
0.0207245
0.0381831
-0.0229712
0.0230822
-0.036981
-0.0229039
-0.0378925
-0.0228802
0.0224238
-0.0356649
-0.0365395
-0.0361108
0.0358565
0.0213862
0.035991
-0.0357721
0.0219533
0.0215417
-0.035715
0.035906
0.0210951
0.0210579
-0.0359863
0.0360306
0.0209572
0.0209652
-0.0360424
0.0360264
0.0210486
0.0208517
-0.0359873
0.0359372
0.0213337
0.0210957
-0.0358804
0.0358046
0.021075
0.0212262
-0.0357458
0.0363867
0.0193344
0.0203299
-0.0356151
0.0355451
0.0156057
0.0176293
-0.0363688
0.0356763
0.00994759
0.0128993
-0.0353868
0.0353682
0.00291016
0.00651607
-0.0353771
0.0354242
-0.0046556
-0.000867906
-0.0355137
0.0356461
-0.0116754
-0.00825249
-0.0358137
0.0360067
-0.017113
-0.0145484
-0.0362067
0.0363989
-0.0203922
-0.0188998
-0.036565
0.0366957
-0.0216748
-0.0210975
-0.0367833
0.0368271
-0.021635
-0.0216127
-0.0367587
0.0366177
-0.0209494
-0.0212587
-0.0209163
0.0210755
0.0367017
-0.0204898
0.0364117
-0.0361904
0.0361066
-0.0206981
-0.0204999
0.0372849
-0.0368956
0.0209802
0.0373606
0.0206489
-0.0206234
0.0212491
0.0375574
0.0379399
0.0364093
-0.0354467
0.0198148
0.0211934
0.034464
-0.0339652
0.0199191
0.0202168
0.0334295
-0.0328551
0.0188638
0.0193346
0.0322715
-0.0316904
0.0164743
0.0176894
0.0311482
-0.0306617
0.0124544
0.0145343
0.0302635
-0.029966
0.00692776
0.00976185
0.0297869
-0.0297263
0.000480672
0.00373235
0.0297777
-0.0299255
-0.00605165
-0.00280677
0.0301738
-0.0308878
-0.0118271
-0.00902023
0.0313237
-0.0313741
-0.0161295
-0.0140967
0.0322572
-0.0324176
-0.018553
-0.017452
0.0329751
-0.0335291
-0.0193867
-0.0189981
0.0340552
-0.0345472
-0.0194974
-0.0193485
0.0349932
-0.0354012
-0.0196936
-0.0194389
0.0357742
-0.0361244
-0.0202246
-0.0198061
0.036455
-0.0367703
-0.0210339
-0.0204868
0.0370664
-0.0374288
-0.0220756
-0.0214185
0.0375883
-0.0376631
-0.0228291
-0.0225287
-0.035358
0.0220097
-0.0236846
0.0231394
-0.0373474
-0.0378397
-0.0235079
0.0223157
-0.0361573
-0.0203554
0.0359723
0.0375228
0.0210869
0.0231063
-0.0229479
-0.0358233
0.0225136
-0.0347654
-0.0239466
0.0233776
-0.0367783
-0.0241797
-0.0376066
-0.0371717
0.0365267
-0.0370019
-0.0202229
0.0358948
-0.0197235
0.0213399
-0.0208147
0.0370322
0.020628
0.0382347
-0.0340023
0.035089
0.0214269
0.0222314
-0.0228817
-0.0341152
0.0331639
-0.0242095
0.0217292
-0.0306836
0.021393
-0.0356275
0.0359136
0.0216672
0.0214712
-0.0358711
0.0358862
0.021371
0.0215842
-0.0359184
0.0359497
0.0210638
0.0210257
-0.0361088
0.036238
0.020828
0.0208061
-0.0363387
0.0364176
0.0209697
0.020751
-0.0364796
0.0365328
0.0212805
0.0210336
-0.0365827
0.0366293
0.0210284
0.0211763
-0.0366761
0.036711
0.0192994
0.0202831
-0.0367459
0.0367688
0.0155828
0.0175944
-0.0367713
0.0367766
0.00994228
0.0128968
-0.0367791
0.0367784
0.00291086
0.00651362
-0.0367841
0.0368042
-0.00467577
-0.000873589
-0.0368468
0.0369158
-0.0117444
-0.00829506
-0.0370078
0.0371142
-0.0172194
-0.0146403
-0.0372202
0.037312
-0.020484
-0.0190058
-0.0373758
0.0374036
-0.0217026
-0.0211613
-0.0373912
0.0373381
-0.0215819
-0.0216002
-0.0372642
0.0369293
-0.0206145
-0.0211848
-0.0205725
-0.0202492
0.020031
0.0369199
0.0201514
-0.0203115
0.0361323
0.036314
0.0371563
0.0369625
-0.0363389
0.0203566
-0.0373982
0.037831
0.020654
0.0202132
0.0351613
-0.0350304
0.0196839
0.0200158
0.0342151
-0.0336669
0.0193709
0.0194015
0.0330825
-0.0324617
0.0182431
0.0187502
0.0318345
-0.0312118
0.0158516
0.0170622
0.0306313
-0.0301096
0.0119326
0.0139538
0.0296805
-0.0293564
0.00660364
0.00933275
0.0291553
-0.029077
0.000402338
0.00353128
0.0291177
-0.0292739
-0.00589538
-0.00276608
0.0295349
-0.0298885
-0.0114736
-0.00875924
0.030323
-0.0308372
-0.0156154
-0.0136622
0.0314016
-0.032009
-0.0179456
-0.0168875
0.0326328
-0.0332546
-0.0187649
-0.0183743
0.0338465
-0.0344015
-0.0189424
-0.0187565
0.0349086
-0.0353786
-0.0192235
-0.0189319
0.0358154
-0.0362338
-0.0198062
-0.0193693
0.036636
-0.0370295
-0.0206404
-0.0200846
0.0374099
-0.0377798
-0.0217056
-0.0210381
0.0381146
-0.0380421
-0.0229017
-0.0221939
0.0382832
-0.0390015
-0.0234615
-0.0232668
-0.0238351
0.0240729
-0.0378444
-0.0389803
-0.0238563
-0.0227854
-0.0359195
0.0234172
-0.0361969
-0.019756
0.0353393
0.0382285
0.0202305
-0.0217679
-0.0365568
0.0238148
-0.0365203
-0.0147431
-0.0301827
0.0489026
0.0235378
-0.0238149
-0.0387032
0.0231046
-0.0374112
-0.0229532
0.0340486
0.0209505
-0.0214492
0.0144707
-0.03654
-0.0318053
0.0332635
0.020271
0.0204623
-0.018219
-0.0339685
0.0345632
0.0208322
0.0206881
-0.0348687
0.0350774
0.0214585
0.0211657
-0.0354093
0.0356107
0.0211696
0.0212523
-0.0357552
0.036023
0.020796
0.0208812
-0.0362573
0.0364664
0.020619
0.0205718
-0.0366524
0.0368234
0.0207987
0.0205651
-0.0369849
0.0371435
0.021122
0.0208721
-0.0373044
0.0374655
0.0208674
0.0210154
-0.0376226
0.0377699
0.0191522
0.0201259
-0.0379009
0.0380135
0.0154701
0.0174634
-0.0380995
0.0381642
0.0098776
0.0128108
-0.038206
0.0382261
0.00289081
0.00647184
-0.0382306
0.0382283
-0.00467345
-0.000878131
-0.0382286
0.0382369
-0.0117527
-0.00829533
-0.0382528
0.0382697
-0.0172364
-0.0146562
-0.0382771
0.0382637
-0.0204706
-0.0190132
-0.0382205
0.0381413
-0.0216235
-0.021118
-0.0380258
0.0378742
-0.0214303
-0.0214848
-0.0376079
0.0376494
-0.020656
-0.0209185
-0.0371803
0.0366671
-0.0197098
-0.0201034
-0.0363957
0.0355162
-0.0188765
-0.0194521
-0.0194254
0.0197666
0.0357912
0.0198462
-0.0197778
0.0354478
0.0357601
-0.0197339
0.0202893
0.0363645
0.0363466
-0.0205089
0.0203051
0.037236
0.0369367
-0.0205178
0.020185
0.0385613
0.038022
0.0379662
-0.0373056
0.0199934
-0.0392484
0.037915
0.0215184
0.0189482
0.0366413
-0.0360758
0.0197911
0.0195489
0.0350703
-0.0345727
0.0191863
0.0190103
0.0340318
-0.0334421
0.0187813
0.0188606
0.0328185
-0.0321613
0.0175859
0.0181266
0.0315006
-0.0308467
0.0151977
0.0164015
0.0302374
-0.0296886
0.0113838
0.0133446
0.0292346
-0.0288875
0.00625648
0.00887879
0.028666
-0.0285708
0.000307119
0.00330979
0.0286017
-0.0287556
-0.00574146
-0.00273512
0.0290217
-0.0293941
-0.0111012
-0.00849316
0.029859
-0.0304103
-0.0150641
-0.0131973
0.0310234
-0.0316876
-0.0172814
-0.0162744
0.0323679
-0.0330468
-0.018086
-0.017694
0.0336931
-0.0343014
-0.018334
-0.0181102
0.0348616
-0.0353871
-0.018698
-0.0183717
0.0358823
-0.0363635
-0.019325
-0.0188741
0.0368324
-0.0372982
-0.0201746
-0.0196158
0.0377578
-0.0382155
-0.0212479
-0.0205785
0.0386636
-0.0390984
-0.0224669
-0.0217458
0.039421
-0.0393545
-0.0235279
-0.0229442
0.0400752
-0.0401628
-0.0237273
-0.0231356
-0.0228917
0.0228413
-0.0386527
-0.0398146
-0.0232399
-0.0224955
-0.0351919
0.0234435
-0.0358256
-0.0195061
-0.0317938
0.023218
-0.0366337
0.0365935
-0.0368183
-0.0186517
0.0356062
-0.0187905
0.0207263
-0.0204904
0.0383254
0.0197256
0.0389158
-0.017757
-0.0280598
0.0225085
-0.0370784
-0.0297547
-0.00365314
-0.0271294
0.0303815
0.0176984
-0.0214896
0.0209909
-0.038154
-0.0215743
-0.0397299
-0.0251651
0.0125063
-0.0355919
-0.03162
0.0324817
0.0194092
0.0192239
-0.0331805
0.0334599
0.0205528
0.0199892
-0.0339037
0.0344732
0.0208891
0.0207219
-0.034965
0.0353976
0.0207371
0.0207604
-0.0357778
0.0361193
0.0204545
0.0205009
-0.0364279
0.0367137
0.0203332
0.0202631
-0.0369814
0.037241
0.020539
0.0202974
-0.0374984
0.0377605
0.0208598
0.0206147
-0.0380289
0.0383009
0.0205953
0.020747
-0.0385683
0.038824
0.0188966
0.0198585
-0.0390557
0.0392601
0.0152657
0.0172316
-0.0394268
0.0395539
0.00975047
0.0126441
-0.0396379
0.0396807
0.00284806
0.00638781
-0.039687
0.0396658
-0.00465223
-0.000884484
-0.0396273
0.0395777
-0.0117031
-0.00825678
-0.0395196
0.0394482
-0.0171649
-0.0145981
-0.0393573
0.0392379
-0.0203512
-0.0189223
-0.0390864
0.0388989
-0.0214359
-0.0209666
-0.0386793
0.038428
-0.021179
-0.0212652
-0.0381542
0.0378592
-0.020361
-0.0206448
-0.0375074
0.0371038
-0.0193062
-0.0197515
-0.0191666
-0.0193745
0.0191299
0.0360357
0.0191593
-0.0192294
0.0355179
0.0355449
-0.0195279
0.0196206
0.0362718
0.0359486
-0.0201802
0.0206528
0.0367634
0.0363771
0.0381844
0.037873
-0.0371839
0.0193043
-0.0375873
0.0391397
0.019966
0.019234
0.0365755
-0.0355163
0.0187318
0.0189405
0.0350249
-0.0344875
0.0186489
0.018519
0.0339106
-0.0332868
0.0181575
0.0182837
0.0326328
-0.0319484
0.0169015
0.0174726
0.0312636
-0.0305876
0.0145216
0.0157167
0.029958
-0.0293896
0.0108153
0.012715
0.0289165
-0.0285502
0.00589019
0.00840572
0.0283103
-0.0281986
0.00019541
0.00306988
0.0282177
-0.0283652
-0.00559396
-0.00271602
0.0286329
-0.0290177
-0.0107164
-0.00822544
0.0295052
-0.0300893
-0.01448
-0.0127098
0.0307435
-0.0314535
-0.0165713
-0.0156203
0.0321806
-0.0329055
-0.0173612
-0.016967
0.0335954
-0.0342469
-0.0176825
-0.0174204
0.0348514
-0.0354249
-0.0181245
-0.0177672
0.0359721
-0.03651
-0.0187871
-0.0183269
0.0370397
-0.0375723
-0.019642
-0.019086
0.0381052
-0.0386456
-0.0207075
-0.0200457
0.0391868
-0.0397272
-0.0219264
-0.0212047
0.0402503
-0.0407421
-0.0230361
-0.0224211
0.0406093
-0.0409319
-0.0234047
-0.0232684
0.0412725
-0.0410958
-0.0217509
-0.0228994
-0.0194171
0.0190078
-0.0393206
-0.0409304
-0.0195826
-0.0216334
-0.0330646
0.0227789
-0.0353865
-0.0186355
0.0350123
0.0391563
0.019709
-0.0191848
-0.0303659
-0.0199731
-0.0341862
-0.0179581
-0.0300748
0.022075
-0.0362003
0.0207945
-0.036882
-0.0345354
0.00571716
-0.0109005
0.0061757
-0.0298106
-0.0152841
-0.0298026
0.0185225
-0.0376686
-0.016569
0.0155551
-0.0383067
-0.0167776
-0.0407218
-0.0344465
-0.0270586
0.0290365
0.0157205
0.0269488
-0.0293111
0.00807949
0.0123965
-0.0304873
0.0313234
0.0185731
0.0177731
-0.0321765
0.0329609
0.0197685
0.0191361
-0.0336665
0.0343012
0.0202544
0.0200163
-0.0348641
0.0353689
0.0202324
0.0201975
-0.0358211
0.0362346
0.020041
0.0200487
-0.0366151
0.0369751
0.0199731
0.0198826
-0.037321
0.0376651
0.0201949
0.0199516
-0.0380132
0.0383733
0.0204998
0.0202666
-0.0387434
0.0391214
0.0202174
0.0203769
-0.0394945
0.0398547
0.0185363
0.0194854
-0.0401855
0.0404799
0.0149713
0.0169009
-0.0407241
0.0409131
0.00956155
0.0123999
-0.0410407
0.0411076
0.00278119
0.00626014
-0.0411189
0.041083
-0.00461634
-0.000895731
-0.0410107
0.0409087
-0.0116011
-0.00818454
-0.0407813
0.0406249
-0.0170086
-0.0144708
-0.0404378
0.0402136
-0.0201269
-0.0187352
-0.0399545
0.0396591
-0.0211405
-0.0207076
-0.0393366
0.0389882
-0.0208305
-0.0209427
-0.0386244
0.0382443
-0.0199808
-0.020281
-0.0378577
0.0376229
-0.0190714
-0.0193649
-0.037021
0.0365202
-0.0181508
-0.0185647
-0.0355869
0.034999
-0.0180476
-0.0178572
-0.0184556
0.0188205
0.035153
0.0189465
-0.0181136
0.0341661
0.0355032
-0.0189371
0.0193214
0.0356515
0.0354282
-0.0195207
0.0196462
0.0361463
0.0357493
-0.0196932
0.0196582
0.0367983
0.0363301
-0.0201749
0.0202174
0.0382829
0.0376678
-0.0199883
0.0196333
0.0395113
0.0391449
0.0391178
-0.0381668
0.0190151
-0.039556
0.0394949
0.0196944
0.0192708
0.0375339
-0.0369487
0.0187192
0.018601
0.0360476
-0.0355497
0.0182339
0.0180394
0.0350232
-0.0344518
0.0180775
0.0179925
0.0338457
-0.0331954
0.0175072
0.0176777
0.0325191
-0.0318156
0.016198
0.0167963
0.0311148
-0.0304247
0.0138315
0.0150158
0.0297821
-0.0292005
0.0102337
0.0120725
0.0287134
-0.0283316
0.0055084
0.00791862
0.0280753
-0.0279477
6.78064e-05
0.00281361
0.0279536
-0.0280929
-0.00545472
-0.00271009
0.0283596
-0.0287529
-0.0103231
-0.00795867
0.0292582
-0.0298694
-0.0138689
-0.0122044
0.0305573
-0.0313043
-0.0158244
-0.0149323
0.0320677
-0.0328271
-0.0166018
-0.0162036
0.0335495
-0.0342341
-0.0169979
-0.0166979
0.0348743
-0.0354879
-0.0175109
-0.017127
0.0360797
-0.036667
-0.0181998
-0.0177351
0.0372505
-0.0378425
-0.01905
-0.0185025
0.0384411
-0.0390565
-0.0200921
-0.019447
0.0396828
-0.0403226
-0.0212866
-0.0205784
0.0409598
-0.0415813
-0.0224146
-0.021784
0.0421509
-0.0426389
-0.0229167
-0.0226987
0.0430002
-0.0429716
-0.0217794
-0.0225381
0.0427482
-0.0421258
-0.0173999
-0.019806
-0.0135905
0.0124938
-0.0396251
-0.0415709
-0.0141454
-0.0205803
-0.0316691
-0.0287968
0.00566137
-0.0181652
-0.0301588
0.0354085
-0.0362997
-0.0171563
0.0347288
-0.0174339
0.020503
-0.0202117
0.03922
0.0200674
0.0399305
0.0215147
-0.0348262
0.0202522
-0.035658
-0.0149689
-0.03039
0.0183219
-0.0366814
0.0157284
-0.037842
0.0125354
-0.0383483
-0.00910106
0.00851047
-0.0390345
-0.0102893
-0.0403827
-0.0335121
-0.0274199
0.0266255
0.00887385
0.00316539
-0.00391517
-0.028047
0.0277192
-0.0279961
0.00344229
0.00596066
-0.0269485
0.0285461
0.0141229
0.0120735
-0.0299926
0.0310253
0.0175404
0.0163266
-0.0319166
0.0327426
0.0189425
0.0182448
-0.0334953
0.0341822
0.0195674
0.0192636
-0.0348026
0.0353692
0.0196658
0.0195771
-0.0358857
0.0363654
0.0195613
0.0195322
-0.0368135
0.037244
0.0195426
0.0194345
-0.0376639
0.0380875
0.0197713
0.0195317
-0.0385203
0.0389713
0.0200488
0.0198338
-0.0394361
0.0399126
0.0197409
0.0199122
-0.0403846
0.0408426
0.0180784
0.0190133
-0.0412661
0.041645
0.0145924
0.0164773
-0.0419621
0.04221
0.00931367
0.0120828
-0.0423802
0.0424727
0.00268871
0.00608988
-0.0424925
0.0424474
-0.00457131
-0.000915481
-0.0423482
0.0422007
-0.0114536
-0.0080853
-0.0420105
0.0417746
-0.0167727
-0.0142805
-0.0414956
0.0411701
-0.0198013
-0.0184562
-0.0408066
0.0404066
-0.0207405
-0.0203441
-0.0399844
0.0395419
-0.0203879
-0.0205205
-0.0390925
0.0386337
-0.019522
-0.0198317
-0.0381752
0.0377112
-0.0186075
-0.0189064
-0.0371943
0.0368058
-0.0177622
-0.0180479
-0.0173512
-0.0184791
0.0185397
0.0350924
0.0175486
-0.01777
0.0343875
0.0345727
-0.0189983
0.0193022
0.0353477
0.0349696
-0.0195323
0.019685
0.0359936
0.0355192
-0.0197556
0.0197422
0.0368117
0.0362595
-0.0202662
0.0202242
0.0383248
0.0371438
0.0391574
0.0391034
-0.0386118
0.0185235
-0.0395474
0.0401188
0.0191229
0.0188268
0.0376028
-0.0366465
0.0177629
0.0175919
0.0361478
-0.0356165
0.0177026
0.0175407
0.0350596
-0.0344607
0.0174786
0.0174355
0.0338316
-0.0331615
0.0168371
0.0170486
0.0324698
-0.0317542
0.0154824
0.0161045
0.0310442
-0.0303466
0.0131339
0.0143058
0.029697
-0.0291074
0.00964406
0.0114229
0.0286105
-0.0282164
0.00511425
0.0074217
0.0279458
-0.0278034
-7.45981e-05
0.00254308
0.0277965
-0.0279269
-0.0053244
-0.00271698
0.0281918
-0.0285915
-0.00992344
-0.00769372
0.0291118
-0.0297456
-0.0132351
-0.011684
0.0304604
-0.0312352
-0.0150495
-0.0142175
0.0320245
-0.0328071
-0.0158191
-0.0154143
0.0335515
-0.0342596
-0.0162897
-0.0159536
0.034927
-0.035573
-0.0168649
-0.0164597
0.0362019
-0.0368308
-0.0175709
-0.0171062
0.0374598
-0.0381024
-0.0184074
-0.0178735
0.0387576
-0.0394375
-0.0194122
-0.0187918
0.0401379
-0.0408647
-0.0205598
-0.0198779
0.0416031
-0.0423437
-0.0216741
-0.0210456
0.0430526
-0.0436984
-0.0222709
-0.0219898
0.0442257
-0.0445855
-0.0214196
-0.0220108
0.0443822
-0.0438055
-0.0179767
-0.0200093
0.0433154
-0.042754
-0.0108508
-0.0146354
0.00710006
-0.00861378
-0.0282889
-0.0266257
-0.00523174
0.00459566
-0.0397466
-0.0412382
-0.00674754
-0.0188531
-0.0309812
-0.0170468
0.0340055
0.0410683
0.0191179
-0.00161685
-0.0269119
0.000532654
0.0195962
-0.0341701
-0.00183296
-0.0278309
-0.0155625
-0.0295653
0.0176864
-0.0350225
-0.0112248
-0.0277789
0.0150917
-0.0360447
0.0118671
-0.0371737
0.00813847
-0.0379763
0.00373896
-0.0381778
-0.000566152
-0.000525603
-0.0386548
-0.00167135
-0.040133
-0.032769
-0.0270685
0.0266539
0.0038569
-0.00322402
-0.0258947
0.00220686
0.0271285
-0.0259344
-0.00441812
0.000592642
-0.0267248
0.0269498
0.0086489
0.00588969
-0.0276705
0.0283728
0.0134206
0.0113527
-0.0296569
0.0307855
0.0164117
0.0150425
-0.0317162
0.0325825
0.0180762
0.0173142
-0.0333774
0.03411
0.0188348
0.0184687
-0.0347797
0.0353991
0.0190463
0.0189074
-0.0359712
0.0365094
0.0190231
0.0189602
-0.0370184
0.0375134
0.0190476
0.0189254
-0.0380014
0.0384982
0.0192745
0.0190437
-0.0390086
0.0395424
0.0195151
0.0193233
-0.0400931
0.0406588
0.0191752
0.0193614
-0.0412201
0.0417664
0.0175322
0.018452
-0.0422733
0.0427287
0.0141369
0.0159704
-0.0431119
0.0434146
0.00901092
0.0116997
-0.0436257
0.0437461
0.0025683
0.0058788
-0.0437784
0.0437307
-0.0045236
-0.000947827
-0.0436123
0.0434277
-0.0112689
-0.00796688
-0.0431823
0.042874
-0.0164643
-0.0140352
-0.0425091
0.0420877
-0.01938
-0.0180913
-0.0416249
0.0411256
-0.0202411
-0.0198814
-0.040609
0.040078
-0.0198569
-0.0200039
-0.0395484
0.0390168
-0.0189904
-0.0193021
-0.0384929
0.0379679
-0.0180824
-0.0183824
-0.0374487
0.0369802
-0.0172938
-0.0175287
-0.0365134
0.035852
-0.0164949
-0.0168845
-0.0346988
0.034019
-0.0163669
-0.0162807
-0.0171066
0.017526
0.0339681
0.0171411
-0.0162633
0.0331412
0.03404
-0.0178742
0.0185205
0.0344461
0.0342246
-0.0189186
0.0192506
0.0350157
0.0345715
-0.019507
0.0196841
0.0358164
0.0352628
-0.0197765
0.0197825
0.0368057
0.0361671
-0.0197001
0.0201101
0.0379147
0.0372263
-0.0200237
0.0197285
0.0395152
0.0392439
-0.0190861
0.0190499
0.0411045
0.0405728
0.0405696
-0.0397046
0.0182579
-0.0411952
0.041759
0.0184861
0.0184923
0.038994
-0.0378186
0.017348
0.0181162
0.0373178
-0.0367998
0.0172449
0.0170912
0.0362708
-0.0357112
0.017143
0.0170117
0.0351292
-0.0345087
0.0168582
0.0168535
0.0338621
-0.0331782
0.0161532
0.0164019
0.0324768
-0.0317549
0.0147605
0.0154031
0.0310412
-0.0303412
0.0124339
0.0135921
0.0296892
-0.0290957
0.00905051
0.010771
0.0285922
-0.0281885
0.00471054
0.00691829
0.0279061
-0.0277508
-0.000229875
0.00226064
0.0277326
-0.0278555
-0.00520152
-0.00273519
0.0281191
-0.028525
-0.0095175
-0.00743013
0.0290587
-0.0297112
-0.0125826
-0.0111503
0.0304465
-0.0312404
-0.0142557
-0.0134822
0.0320449
-0.0328399
-0.0150241
-0.0146098
0.033596
-0.0343187
-0.0155671
-0.0151975
0.0350053
-0.0356762
-0.016194
-0.015773
0.0363346
-0.0369971
-0.0169084
-0.0164479
0.0376633
-0.0383475
-0.0177232
-0.0172073
0.0390492
-0.0397823
-0.0186791
-0.0180902
0.0405439
-0.0413427
-0.0197611
-0.0191164
0.0421661
-0.043009
-0.0208312
-0.0202222
0.0438395
-0.0446278
-0.0214825
-0.0211593
0.0453161
-0.0458491
-0.0208866
-0.0213226
0.0461656
-0.0462201
-0.0179222
-0.0196929
0.0456177
-0.0445684
-0.0119
-0.0152378
0.0434536
-0.041673
-0.00345199
-0.00786235
0.00307839
-0.00637343
-0.0249939
-0.0253802
0.00362769
-0.00463443
-0.0391262
-0.0407415
0.00269624
-0.0161668
-0.0303769
0.0169605
-0.0334441
0.00628007
-0.0254948
-0.00671963
-0.0252486
0.00563391
-0.000252479
-0.0253715
-0.0122415
-0.0285487
0.0143844
-0.0343152
0.0346333
-0.0353143
-0.0156859
0.0336107
-0.0152408
0.0190357
-0.0193189
0.0413877
0.0188354
0.0419593
-0.00731459
-0.0268378
0.0111611
-0.0353387
0.00741023
-0.0364455
0.00332074
-0.0375581
-0.000860147
-0.0378433
-0.00563423
-0.037655
-0.00883192
-0.0252844
0.00862152
-0.0256043
0.0259086
-0.00913614
0.0110003
-0.0263334
-0.0102713
0.00824784
-0.0370623
-0.0103118
0.00640808
-0.0389018
-0.0259026
0.0116186
-0.0319753
-0.0246959
0.0238378
-0.00355998
-0.00550701
-0.0248189
0.0257803
0.00289558
-0.00038849
-0.0260647
0.0265654
0.00814826
0.00560524
-0.0275343
0.0285562
0.0123987
0.0103838
-0.029592
0.0306084
0.0153953
0.0140067
-0.0315669
0.0324668
0.0171763
0.0163557
-0.0332994
0.0340735
0.0180608
0.0176361
-0.0347873
0.0354534
0.0183802
0.0181936
-0.036074
0.0366631
0.018434
0.0183396
-0.0372254
0.0377771
0.018496
0.0183632
-0.0383253
0.0388869
0.0187128
0.0184955
-0.039466
0.0400725
0.0189085
0.0187443
-0.0406988
0.0413421
0.0185318
0.0187352
-0.0419813
0.0426041
0.0169093
0.0178129
-0.0431838
0.0437063
0.0136144