/*--------------------------------*- C++ -*----------------------------------*\
  =========                 |
  \\      /  F ield         | OpenFOAM: The Open Source CFD Toolbox
   \\    /   O peration     | Website:  https://openfoam.org
    \\  /    A nd           | Version:  10
     \\/     M anipulation  |
\*---------------------------------------------------------------------------*/
FoamFile
{
    format      ascii;
    class       volVectorField;
    location    "30.5";
    object      U;
}
// * * * * * * * * * * * * * * * * * * * * * * * * * * * * * * * * * * * * * //

dimensions      [0 1 -1 0 0 0 0];

internalField   nonuniform List<vector> 
28942
(
(-0.142189 0.0878905 -6.72725e-20)
(-0.140094 0.100205 -1.40405e-20)
(0.464 -0.322779 2.60767e-20)
(1.01565 0.0423751 -1.46252e-19)
(0.99396 0.0521757 4.78754e-20)
(0.287591 0.012893 0)
(0.351896 0.0357216 1.51563e-23)
(0.38838 0.0113198 7.31181e-23)
(1.1836 -0.130406 -5.7998e-21)
(1.1747 -0.119392 1.70489e-20)
(-0.111141 0.0901756 -1.11497e-19)
(-0.0542702 0.0431749 4.94655e-20)
(-0.0707853 0.0252955 0)
(-0.0719729 0.0561172 0)
(0.760807 -0.0192164 -1.94059e-22)
(0.753932 -0.016655 -7.66785e-23)
(0.944136 0.138608 2.83986e-20)
(0.92737 0.126442 4.61744e-20)
(0.298285 -0.389503 1.35715e-19)
(0.581731 -0.624805 -3.76659e-20)
(1.02153 0.27561 3.39231e-20)
(1.01788 0.262127 0)
(0.0744867 0.00516926 1.07057e-19)
(-0.0463823 -0.026005 5.87643e-20)
(0.681507 -0.131372 1.1478e-19)
(1.03776 -0.236308 -1.04328e-19)
(0.175768 -0.344178 4.916e-19)
(0.180247 -0.278238 -1.85886e-19)
(0.710029 -0.507279 1.1684e-20)
(0.43681 -0.30123 3.76483e-21)
(0.284211 -0.0191028 0)
(0.369716 -0.0266566 5.58014e-22)
(0.464753 -0.00888943 9.45833e-21)
(0.621943 -0.0210033 -6.3328e-22)
(0.496709 0.562652 -1.06334e-20)
(0.415915 0.628341 2.89517e-20)
(0.647672 0.812933 -8.6449e-20)
(0.421541 0.748841 -4.33915e-20)
(0.153913 0.0169965 5.15571e-23)
(0.227248 0.580547 -4.31091e-20)
(0.656245 -0.059855 0)
(0.855223 -0.0780443 0)
(0.91997 0.187937 -1.88989e-21)
(0.897653 0.206595 5.59469e-21)
(0.972935 0.18665 4.79433e-21)
(0.536182 0.0162153 1.19488e-22)
(0.509112 0.0278113 -2.12496e-22)
(0.667837 0.0186113 -7.42695e-22)
(0.649878 0.0177912 2.0323e-22)
(0.557046 0.0152278 -5.24437e-21)
(0.462713 0.00562523 3.31747e-21)
(1.13833 -0.0194882 -1.00381e-20)
(1.13467 -0.0230788 -9.34857e-21)
(1.18001 -0.142684 -1.62775e-22)
(1.1695 -0.131363 3.44593e-21)
(1.25232 -0.143168 9.15118e-20)
(1.4452 -0.225154 4.3147e-20)
(-0.0494817 -0.0141403 -6.86264e-20)
(-0.0528905 -0.00129636 0)
(-0.0424373 -0.0187372 2.51593e-20)
(-0.0504114 -0.0242231 6.03117e-20)
(-0.0240452 -0.0153001 -4.69787e-20)
(-0.0190812 -0.00887859 -4.8195e-20)
(1.29073 -0.525434 0)
(1.43077 -0.455452 1.54807e-20)
(1.31554 -0.39212 -6.1951e-21)
(1.2508 -0.390903 0)
(0.920781 -0.179134 -2.93554e-20)
(0.939341 -0.199704 -1.92896e-20)
(-0.0850467 0.0569462 2.23646e-19)
(-0.106176 0.0639248 -7.05612e-20)
(-0.137036 0.0974769 1.77015e-19)
(0.90545 -0.25372 0)
(0.927145 -0.223683 1.02956e-19)
(0.857271 -0.358401 2.78159e-20)
(1.57288 0.258546 7.64418e-20)
(1.60853 0.215296 -8.41862e-20)
(1.55081 0.16485 -5.51641e-20)
(0.145238 -0.0820603 9.50189e-22)
(0.207541 -0.129126 -3.26348e-20)
(0.966988 -0.592547 -3.07339e-21)
(0.723621 -0.488781 1.25997e-20)
(-0.116878 0.0620819 3.7401e-19)
(-0.12468 0.0600925 -1.43828e-19)
(1.37092 0.631591 -1.35181e-20)
(1.27854 0.598828 8.92297e-21)
(1.17558 0.737096 -1.48682e-20)
(1.02988 0.731444 5.87581e-20)
(0.983294 0.698197 -4.0704e-20)
(0.739531 0.511016 5.39067e-21)
(0.813555 0.617608 1.08033e-20)
(0.85129 0.711058 -1.30356e-20)
(-0.132913 0.33071 -1.59407e-20)
(-0.176274 0.246432 -3.7668e-21)
(-0.0392237 0.202269 7.55068e-21)
(0.00495445 0.281529 -1.17206e-19)
(0.0133101 0.366806 1.48605e-19)
(0.407916 0.326427 5.40561e-20)
(0.462997 0.407049 -1.66779e-20)
(-0.0392547 0.0189443 0)
(1.00709 0.00426789 0)
(0.96526 0.0533713 -1.04751e-19)
(0.890207 0.135436 7.80102e-20)
(1.08041 0.11814 0)
(1.36352 -0.0946058 0)
(1.35673 -0.107117 0)
(1.38119 -0.108357 8.06766e-20)
(1.10862 0.170827 -4.43766e-21)
(1.10642 0.18612 4.832e-20)
(1.09618 0.161868 2.57755e-20)
(-0.0442648 0.00353732 1.35822e-19)
(-0.0337841 0.0203848 -1.52471e-19)
(0.047903 0.0775503 -1.19361e-19)
(0.0302365 0.0669801 1.11823e-19)
(-0.126916 0.0979002 2.25887e-19)
(0.183882 0.341334 7.64396e-20)
(0.411309 0.338531 1.89399e-19)
(0.318705 0.578779 1.7864e-20)
(0.145034 0.458683 -4.37074e-19)
(1.37638 0.48578 -7.74394e-22)
(1.21303 0.480276 -3.65393e-22)
(1.2441 0.448234 -3.7731e-22)
(0.772351 -0.586654 2.07178e-20)
(0.530748 -0.38257 -1.24777e-20)
(0.171025 0.0801895 -2.40155e-19)
(0.147615 -0.00267834 0)
(0.315677 0.0475471 1.27291e-19)
(0.491305 -0.371813 2.25968e-20)
(0.692918 -0.568416 -5.59685e-20)
(0.634403 0.0200243 2.68105e-22)
(0.667861 0.0194549 -5.19121e-22)
(0.593608 0.0179878 -1.58413e-23)
(0.480006 -0.661104 0)
(0.508955 -0.49865 0)
(1.06096 -0.133799 -1.33959e-20)
(1.04715 -0.11592 7.70348e-20)
(1.03174 -0.0811208 0)
(0.789683 -0.655258 0)
(0.795981 -0.589595 -3.65594e-20)
(0.820982 0.842126 4.68642e-20)
(0.0538954 0.127829 9.29192e-20)
(0.0371501 0.0860191 -6.98326e-20)
(0.520283 -0.466359 -2.67194e-20)
(1.01747 0.150305 2.63083e-20)
(1.02213 0.172395 -5.05081e-21)
(1.4059 -0.177328 -1.05624e-20)
(1.39969 -0.154509 1.41259e-20)
(1.39822 -0.1457 4.26009e-20)
(0.0214763 0.0578863 3.15147e-20)
(0.946955 0.800451 1.37405e-20)
(1.08525 0.760683 -9.91328e-21)
(1.17943 0.805919 2.35944e-22)
(0.437775 -0.0138305 -9.83913e-23)
(0.43711 -0.0154622 -1.22114e-21)
(0.479405 -0.0199013 -1.22603e-22)
(0.519912 -0.0182933 2.20173e-22)
(0.881036 0.79542 2.22604e-20)
(0.480682 0.473737 0)
(-0.13261 0.352326 1.31863e-19)
(-0.156857 0.238858 -1.4698e-19)
(-0.145461 0.470535 1.07495e-19)
(0.654007 0.097269 -2.63562e-19)
(1.24292 0.251295 -1.31187e-19)
(0.589547 -0.0196796 1.97094e-22)
(1.25833 -0.427484 2.11055e-20)
(1.2142 -0.508913 4.69546e-20)
(1.00558 0.308461 7.85514e-20)
(0.994018 0.352736 7.38851e-21)
(0.952316 0.228206 4.8546e-20)
(0.970728 0.23351 -3.50613e-20)
(1.03224 0.304572 0)
(1.11089 -0.0181666 3.80777e-22)
(1.11198 -0.0227137 3.58305e-22)
(1.13977 -0.0893144 -7.62102e-21)
(1.14858 -0.0928809 1.29674e-20)
(1.11839 0.151601 4.41929e-21)
(1.13376 0.157266 -1.17538e-20)
(1.12147 0.165342 0)
(1.10638 0.156802 3.22614e-21)
(1.12183 0.179909 0)
(1.1385 0.243197 -1.09327e-20)
(1.13399 0.262289 -6.90085e-21)
(1.11459 0.297811 -1.34848e-20)
(1.12587 0.281072 0)
(1.15408 0.299347 3.49345e-20)
(1.13805 0.319522 2.94333e-21)
(1.10015 0.321405 -8.89176e-21)
(1.0531 0.394326 -3.82682e-20)
(1.04415 0.333427 -7.34499e-21)
(0.507534 0.00860816 7.94967e-20)
(0.70443 -0.0735651 -3.12251e-20)
(-0.136578 0.165326 -1.6518e-19)
(0.574171 0.0158971 2.32624e-23)
(0.703318 0.0191069 0)
(-0.023379 0.0496146 1.69983e-19)
(-0.0162408 0.019315 7.66608e-20)
(0.660992 0.0186828 4.43028e-22)
(0.751741 0.0205426 1.22809e-22)
(0.743259 0.0208635 0)
(0.646808 0.0210356 1.16286e-22)
(0.832027 -0.485131 9.39326e-21)
(0.837165 -0.491564 -4.77548e-20)
(0.85155 -0.518066 -1.87943e-20)
(-0.0147367 0.0337584 5.87982e-20)
(-0.00335411 0.0069898 -7.33323e-20)
(0.00211644 0.0175249 7.00757e-20)
(-0.0480455 -0.0294236 0)
(-0.0254515 -0.014609 1.03079e-19)
(-0.0241469 -0.0170425 -8.80458e-20)
(-0.0444865 -0.00828258 -9.34787e-20)
(-0.0859115 -0.035672 -9.49085e-20)
(-0.0497978 -0.0241349 0)
(0.0642563 0.30721 0)
(0.0300067 0.181393 0)
(0.0107784 0.105149 0)
(1.33462 -0.103504 -1.01613e-20)
(1.31082 -0.103397 0)
(1.32764 -0.112242 1.09453e-20)
(0.921382 -0.0554565 2.00957e-19)
(0.93466 -0.0637865 -7.30318e-20)
(0.931564 -0.0445304 0)
(0.939748 -0.485465 9.6108e-22)
(0.933144 -0.426935 -1.89023e-21)
(0.947469 -0.529373 5.43701e-22)
(0.927399 -0.354943 0)
(0.922808 -0.271197 1.53852e-21)
(0.919998 -0.17847 0)
(0.886561 -0.177586 0)
(0.917932 -0.079581 -5.82655e-21)
(0.883544 -0.0819424 0)
(0.891175 -0.268012 1.40218e-21)
(0.897773 -0.349906 0)
(0.905315 -0.420568 -5.58379e-22)
(0.914075 -0.478232 8.86094e-22)
(0.923947 -0.521378 -5.42847e-22)
(0.916877 0.0219827 5.5744e-21)
(0.882675 0.0163557 1.8379e-22)
(0.955314 -0.55994 1.05136e-23)
(0.934657 -0.551307 7.21672e-22)
(0.963155 -0.576966 -3.58113e-21)
(0.918186 0.122575 -5.39001e-24)
(0.884859 0.116113 1.81202e-22)
(0.945162 -0.567916 -1.30798e-21)
(0.921864 0.219669 -5.13795e-21)
(0.92798 0.30953 5.1335e-21)
(0.889811 0.211624 -3.67784e-22)
(0.897576 0.299716 -6.8905e-22)
(0.97168 -0.584234 3.48621e-21)
(0.955867 -0.574951 8.34364e-22)
(0.935998 0.388936 0)
(0.907477 0.377523 6.79506e-22)
(0.979403 -0.585188 -3.7129e-25)
(0.966733 -0.575945 3.71615e-25)
(0.945651 0.455735 0)
(0.919128 0.443067 0)
(0.986631 -0.582753 0)
(0.976678 -0.574355 0)
(0.956188 0.508497 0)
(0.931822 0.495232 -2.79107e-22)
(0.993037 -0.580573 1.34154e-21)
(0.985701 -0.573129 3.31245e-25)
(0.967128 0.547385 -1.45125e-23)
(0.945015 0.534155 2.98012e-22)
(0.998361 -0.580401 -1.34807e-21)
(0.993525 -0.574211 0)
(0.977692 0.573289 0)
(0.957943 0.560739 0)
(1.00266 -0.583179 7.89923e-23)
(1.00028 -0.578182 -1.32897e-21)
(0.987493 0.588232 -1.56811e-21)
(0.970129 0.576799 0)
(1.00595 -0.588811 1.59603e-24)
(1.00609 -0.584869 1.25664e-21)
(0.996072 0.594355 2.3013e-21)
(0.981163 0.584415 6.19831e-22)
(1.00834 -0.596911 -1.27253e-21)
(1.0111 -0.593879 0)
(1.00324 0.594084 -7.28646e-22)
(0.990773 0.585722 -4.13229e-22)
(1.00994 -0.606898 6.39864e-22)
(1.01533 -0.604628 -1.29251e-21)
(1.00914 0.589647 2.6554e-21)
(0.999195 0.582875 -2.99607e-21)
(1.01068 -0.618468 -6.62584e-22)
(1.0187 -0.617052 -2.17603e-23)
(1.01342 0.5826 0)
(1.00601 0.577396 -1.33841e-21)
(1.01032 -0.630782 1.4016e-21)
(1.02126 -0.630463 -2.80819e-21)
(1.01642 0.574183 0)
(1.01125 0.570604 0)
(1.00355 -0.616709 6.55819e-22)
(1.00055 -0.627839 2.69554e-21)
(1.00873 -0.643208 0)
(1.02277 -0.644163 1.5133e-21)
(1.00643 -0.59734 4.0079e-22)
(1.00547 -0.606387 -7.93274e-23)
(1.00595 -0.585851 0)
(1.00665 -0.590379 1.33875e-21)
(1.00156 -0.585633 2.95389e-24)
(1.00429 -0.58427 0)
(0.993526 -0.59194 0)
(0.998028 -0.588831 0)
(0.983699 -0.584155 0)
(0.989358 -0.59175 0)
(0.973527 -0.535624 -1.19801e-21)
(0.978607 -0.566425 -2.56986e-22)
(0.964559 -0.431004 1.26154e-21)
(0.968614 -0.490186 1.15709e-21)
(0.957018 -0.274642 -2.63115e-21)
(0.959945 -0.358978 -3.27282e-21)
(0.954346 -0.0798977 0)
(0.95544 -0.181046 0)
(0.955477 0.12824 1.30199e-23)
(0.954276 0.0242936 0)
(0.963124 0.320267 0)
(0.958404 0.2281 0)
(0.976866 0.468916 0)
(0.969414 0.40133 0)
(0.993176 0.559784 0)
(0.984975 0.521689 0)
(1.00781 0.597588 0)
(1.00093 0.58438 0)
(1.01786 0.599807 0)
(1.0135 0.601876 0)
(1.02252 0.584938 1.06432e-21)
(1.02096 0.593628 0)
(1.02302 0.575411 3.273e-22)
(1.01813 0.566028 -3.17972e-22)
(1.01519 0.563739 3.15366e-22)
(0.991172 0.574695 0)
(1.00722 0.565294 1.25968e-21)
(0.999905 0.570711 6.98561e-22)
(0.969485 0.573355 -2.07511e-22)
(0.980997 0.576109 7.36377e-22)
(0.942473 0.547467 -7.07192e-24)
(0.956511 0.564444 0)
(0.912739 0.481612 0)
(0.927691 0.520372 0)
(0.88505 0.366168 0)
(0.898303 0.430212 0)
(0.864716 0.204812 0)
(0.873654 0.290374 -1.19381e-27)
(0.856138 0.0159331 -1.04787e-23)
(0.858849 0.112173 0)
(0.858702 -0.174823 0)
(0.856169 -0.0809326 0)
(0.871644 -0.342388 0)
(0.864051 -0.263485 0)
(0.891626 -0.467904 0)
(0.880847 -0.411597 6.06513e-22)
(0.916285 -0.538732 -1.21427e-22)
(0.903507 -0.510213 6.16417e-22)
(0.943101 -0.562529 0)
(0.929567 -0.555256 4.565e-22)
(0.968581 -0.563344 0)
(0.956216 -0.564042 0)
(0.98985 -0.56551 0)
(0.979812 -0.563281 0)
(1.00687 -0.578127 0)
(0.998797 -0.570531 0)
(1.021 -0.599405 3.30577e-22)
(1.01422 -0.587877 0)
(1.03235 -0.626762 1.43847e-21)
(1.02701 -0.61249 3.36951e-22)
(1.03683 -0.641603 -1.54702e-21)
(0.996224 -0.638629 -2.72502e-21)
(1.02235 0.566165 -6.39086e-22)
(1.01323 0.559681 1.21427e-21)
(1.02288 -0.656967 0)
(1.04012 -0.655673 0)
(0.990079 -0.647585 0)
(1.00559 -0.654068 0)
(0.997455 -0.61237 0)
(0.984644 -0.630653 -5.78013e-22)
(0.991827 -0.621866 -6.31799e-22)
(1.00552 -0.59542 -8.07438e-22)
(1.002 -0.603309 1.60992e-22)
(1.00991 -0.58606 -2.64898e-24)
(1.00817 -0.589504 0)
(1.01057 -0.587771 0)
(1.01075 -0.585502 0)
(1.00818 -0.595238 0)
(1.00981 -0.591757 0)
(1.0047 -0.587714 0)
(1.00681 -0.59533 0)
(1.00072 -0.53898 0)
(1.00299 -0.569911 0)
(0.997567 -0.434533 5.59066e-24)
(0.998926 -0.493907 -1.32275e-21)
(0.993581 -0.276861 6.29534e-24)
(0.995051 -0.361195 3.03766e-21)
(0.991846 -0.0806749 0)
(0.992449 -0.182379 0)
(0.992718 0.12952 -6.62365e-24)
(0.991875 0.0244612 0)
(0.997791 0.323876 0)
(0.994661 0.230558 0)
(1.00712 0.474372 0)
(1.00203 0.405982 0)
(1.0182 0.565647 0)
(1.01267 0.527575 0)
(1.02742 0.60216 0)
(1.02324 0.58978 0)
(1.03231 0.602142 0)
(1.03045 0.605396 0)
(1.03209 0.585075 -7.31393e-22)
(1.03283 0.594756 0)
(1.01882 0.558914 0)
(1.02075 0.558086 -6.21856e-22)
(1.02734 0.564482 0)
(1.03021 0.574694 -6.88146e-22)
(1.00427 0.558199 -1.26013e-21)
(1.01212 0.553808 -3.00486e-22)
(1.01803 0.554865 -2.4942e-21)
(1.01796 0.557815 0)
(0.984755 0.564611 0)
(0.995113 0.562194 1.91991e-21)
(0.959725 0.560265 -5.7879e-24)
(0.972988 0.564625 -7.41035e-22)
(0.929544 0.532246 7.07184e-24)
(0.945168 0.550163 0)
(0.896749 0.46615 0)
(0.913199 0.50471 0)
(0.866295 0.353264 0)
(0.880871 0.415655 0)
(0.843856 0.197049 0)
(0.853737 0.279773 1.1938e-27)
(0.833797 0.0144849 2.00246e-23)
(0.837172 0.107555 0)
(0.83632 -0.170347 0)
(0.833556 -0.0790932 0)
(0.85003 -0.333976 -2.82254e-22)
(0.841978 -0.256337 0)
(0.872525 -0.455801 0)
(0.860299 -0.401066 2.81055e-22)
(0.900951 -0.52467 -4.61092e-22)
(0.886253 -0.496875 -5.00283e-22)
(0.932342 -0.548138 0)
(0.916563 -0.54085 0)
(0.962066 -0.550551 0)
(0.947667 -0.55026 0)
(0.987202 -0.555009 0)
(0.975257 -0.55166 0)
(1.00816 -0.569217 0)
(0.998083 -0.560939 0)
(1.02669 -0.59155 -5.04626e-24)
(1.01766 -0.579494 0)
(1.04333 -0.620312 5.55633e-24)
(1.03529 -0.605238 0)
(1.05725 -0.651519 1.62929e-21)
(1.05078 -0.636144 -1.62843e-21)
(0.975531 -0.637337 -1.36364e-21)
(1.04203 -0.666929 0)
(1.06268 -0.664625 3.93881e-21)
(1.02122 -0.666494 0)
(1.02359 0.555419 0)
(1.01895 0.55 2.95557e-22)
(0.981585 -0.652481 -4.19455e-21)
(0.963899 -0.639657 -1.64836e-21)
(1.04156 -0.672898 -1.04096e-21)
(1.06617 -0.673002 -5.02818e-21)
(1.00035 -0.661259 0)
(1.03352 0.560738 -2.56593e-21)
(1.02764 0.550887 1.25187e-21)
(1.02183 0.551559 6.20052e-22)
(1.02462 0.547611 -3.09401e-21)
(0.949427 -0.624416 -5.04265e-21)
(0.949071 -0.634694 3.12742e-21)
(0.910913 -0.601035 1.44855e-20)
(0.932606 -0.617396 2.90544e-21)
(0.975005 -0.620006 -1.17138e-21)
(0.963338 -0.624408 4.09178e-21)
(0.992891 -0.605541 1.22551e-21)
(0.984776 -0.613246 9.62546e-22)
(1.00561 -0.591178 3.17779e-22)
(0.999805 -0.597872 2.95889e-22)
(1.01452 -0.583707 2.64898e-24)
(1.0105 -0.586241 0)
(1.02016 -0.586948 0)
(1.01778 -0.583994 0)
(1.02348 -0.595218 0)
(1.02212 -0.591479 0)
(1.02613 -0.5879 0)
(1.02496 -0.595352 0)
(1.02857 -0.539329 0)
(1.02746 -0.570148 0)
(1.03044 -0.435267 0)
(1.0295 -0.494395 0)
(1.03106 -0.277379 3.88185e-26)
(1.03082 -0.362173 0)
(1.03133 -0.081081 0)
(1.03121 -0.182832 0)
(1.03193 0.130306 -6.8472e-24)
(1.03151 0.0245086 0)
(1.03441 0.326772 0)
(1.03284 0.232349 0)
(1.03947 0.478885 0)
(1.03668 0.409859 0)
(1.04525 0.569959 0)
(1.04247 0.532242 0)
(1.0487 0.604589 0)
(1.04742 0.593297 0)
(1.04796 0.602094 0)
(1.04887 0.606593 0)
(1.04265 0.582951 -3.69986e-22)
(1.04582 0.593559 1.89853e-22)
(1.03848 0.571698 1.32489e-21)
(1.01846 0.553595 3.00561e-22)
(1.01896 0.54802 -1.23202e-21)
(1.01821 0.551754 9.52565e-22)
(1.01973 0.55357 0)
(1.00259 0.549223 8.97278e-22)
(1.02058 0.543278 2.64009e-21)
(1.01207 0.546025 -2.06591e-21)
(0.979922 0.55278 0)
(0.991903 0.551822 0)
(0.952048 0.545651 4.44071e-25)
(0.96669 0.551414 0)
(0.919146 0.515528 0)
(0.936103 0.534351 0)
(0.883878 0.449298 6.78824e-24)
(0.901529 0.487607 0)
(0.85125 0.339141 0)
(0.866863 0.399788 0)
(0.827097 0.188353 0)
(0.837775 0.268086 0)
(0.815717 0.0124672 -9.54821e-24)
(0.819693 0.10218 0)
(0.817903 -0.166057 -8.443e-24)
(0.815147 -0.0779238 0)
(0.832336 -0.32423 0)
(0.823768 -0.249091 0)
(0.856794 -0.442046 0)
(0.843442 -0.389241 0)
(0.88857 -0.508523 0)
(0.871983 -0.481624 0)
(0.92372 -0.531765 0)
(0.906047 -0.524261 0)
(0.957118 -0.535927 4.83505e-24)
(0.940929 -0.53453 0)
(0.985682 -0.542768 0)
(0.97203 -0.538269 0)
(1.01024 -0.558515 0)
(0.998317 -0.549599 0)
(1.03282 -0.581669 2.41737e-25)
(1.02169 -0.569238 0)
(1.0542 -0.611299 -2.17933e-25)
(1.04366 -0.595759 0)
(1.07394 -0.644101 -6.39961e-24)
(1.06435 -0.627782 0)
(1.09004 -0.669299 4.37646e-21)
(1.08259 -0.658791 -9.06771e-22)
(1.06695 -0.673315 -1.16904e-21)
(1.09522 -0.672572 -2.07719e-21)
(0.970508 -0.650878 1.51987e-21)
(1.01733 -0.670148 2.0204e-21)
(1.02093 0.542565 -2.95268e-22)
(1.02799 0.54172 -2.08187e-21)
(0.930625 -0.6196 -6.03036e-23)
(1.03867 -0.670508 0)
(0.884909 -0.566332 -2.56612e-20)
(1.09766 -0.664842 -4.27904e-21)
(1.06507 -0.661747 -5.64332e-21)
(0.840029 -0.508849 3.77144e-20)
(0.818499 -0.464276 -6.75915e-21)
(0.992926 -0.662035 0)
(0.891233 -0.576703 -3.09245e-21)
(0.864624 -0.54707 -1.84007e-21)
(0.935498 -0.605696 -2.68066e-21)
(0.915477 -0.595615 4.18069e-21)
(0.966564 -0.606934 1.19477e-21)
(0.952231 -0.608656 5.73333e-22)
(0.989453 -0.596547 -5.77208e-22)
(0.978892 -0.602429 -6.02196e-22)
(1.0066 -0.584771 0)
(0.99864 -0.590345 -1.03839e-23)
(1.01979 -0.578947 0)
(1.01362 -0.580718 0)
(1.0302 -0.583381 -2.75957e-24)
(1.02532 -0.579909 0)
(1.03914 -0.592176 0)
(1.03482 -0.588254 0)
(1.04798 -0.584991 0)
(1.04357 -0.592293 0)
(1.05673 -0.536825 0)
(1.05245 -0.567319 0)
(1.06413 -0.433463 -5.6335e-24)
(1.06063 -0.492236 0)
(1.06922 -0.276578 -5.1587e-26)
(1.06701 -0.360995 0)
(1.0718 -0.0809064 0)
(1.07082 -0.182354 0)
(1.07232 0.130483 1.36641e-23)
(1.07224 0.024553 0)
(1.07243 0.327771 0)
(1.07231 0.232885 0)
(1.07322 0.480464 0)
(1.07277 0.411256 0)
(1.07344 0.570905 0)
(1.07355 0.533678 0)
(1.07086 0.603779 0)
(1.07262 0.593459 0)
(1.06433 0.599197 0)
(1.06808 0.60473 0)
(1.05397 0.578292 1.81184e-22)
(1.05952 0.589738 0)
(1.04046 0.554794 0)
(1.04754 0.566354 3.24549e-22)
(1.02394 0.535323 1.45097e-23)
(1.03256 0.544285 0)
(1.01344 0.542781 1.24947e-21)
(1.01446 0.527893 -6.74602e-23)
(1.01337 0.536177 -5.986e-22)
(1.01716 0.550435 -4.69375e-22)
(1.01475 0.547545 3.22956e-22)
(1.02477 0.550126 1.66001e-22)
(1.02056 0.551338 -1.62605e-22)
(1.03496 0.541637 0)
(1.0296 0.54692 1.37262e-21)
(1.02298 0.534659 5.7074e-22)
(1.04071 0.534371 1.1266e-21)
(1.03213 0.533788 -2.57435e-21)
(1.00198 0.5385 2.91849e-22)
(1.01296 0.53644 0)
(0.976716 0.539611 0)
(0.989981 0.539822 0)
(0.946313 0.5298 4.73989e-25)
(0.962159 0.536796 0)
(0.91121 0.4977 0)
(0.929234 0.517339 0)
(0.874044 0.431469 -6.78824e-24)
(0.892607 0.46946 0)
(0.839782 0.324173 0)
(0.856179 0.383012 0)
(0.814237 0.178958 0)
(0.825586 0.255623 0)
(0.801696 0.0100363 0)
(0.806205 0.0962119 0)
(0.80335 -0.161767 9.35908e-25)
(0.800774 -0.0769076 0)
(0.818169 -0.314127 0)
(0.80924 -0.241738 0)
(0.844236 -0.427206 0)
(0.829949 -0.376573 0)
(0.878757 -0.490754 0)
(0.860677 -0.465101 0)
(0.917123 -0.513561 0)
(0.897841 -0.505904 0)
(0.953575 -0.51964 -4.83505e-24)
(0.93589 -0.517098 0)
(0.985118 -0.528826 0)
(0.969961 -0.523233 0)
(1.01296 -0.545913 0)
(0.999344 -0.536468 0)
(1.0393 -0.569629 4.80506e-24)
(1.02623 -0.556967 0)
(1.0651 -0.599756 -5.36636e-24)
(1.05225 -0.583931 0)
(1.09027 -0.63376 6.32719e-24)
(1.07783 -0.616652 0)
(1.11313 -0.662135 -9.43877e-22)
(1.10214 -0.649682 1.82967e-21)
(1.12963 -0.66383 1.09712e-21)
(1.12245 -0.668142 -2.44044e-21)
(1.09656 -0.641872 -6.72977e-22)
(1.13287 -0.645274 -3.02593e-21)
(0.956544 -0.639957 2.01116e-21)
(1.0102 -0.664451 0)
(0.910444 -0.593914 1.83824e-20)
(1.03204 -0.656124 0)
(1.02778 0.526052 2.57988e-22)
(1.01681 0.51795 -1.87505e-22)
(1.04108 0.543406 1.27989e-21)
(1.04893 0.53656 1.38391e-21)
(0.865862 -0.532414 1.79812e-20)
(1.05983 -0.634998 5.6983e-21)
(0.795882 -0.419026 0)
(0.822988 -0.478467 3.93698e-21)
(1.09182 -0.599835 2.75745e-21)
(1.13222 -0.607559 -5.28603e-21)
(0.796874 -0.423923 -7.43411e-21)
(0.98191 -0.653222 0)
(0.876264 -0.551422 0)
(0.849311 -0.52011 3.10342e-21)
(0.923294 -0.584925 0)
(0.901272 -0.572306 0)
(0.959147 -0.591787 0)
(0.942405 -0.590803 -5.93912e-22)
(0.986839 -0.585552 0)
(0.973912 -0.589583 0)
(1.00829 -0.576301 0)
(0.998215 -0.580778 0)
(1.02563 -0.572012 0)
(1.01736 -0.5731 0)
(1.04063 -0.57733 2.75958e-24)
(1.03335 -0.573507 0)
(1.05497 -0.58629 0)
(1.04781 -0.582344 0)
(1.06986 -0.579001 0)
(1.06234 -0.58629 0)
(1.08479 -0.531281 0)
(1.07743 -0.56142 0)
(1.09787 -0.429113 1.41462e-25)
(1.09168 -0.487229 0)
(1.10743 -0.274004 -1.41863e-25)
(1.10319 -0.357522 0)
(1.11241 -0.0801122 0)
(1.11052 -0.180681 0)
(1.11302 0.130069 -1.25737e-25)
(1.11318 0.0246174 0)
(1.11097 0.327113 0)
(1.11221 0.232256 0)
(1.1076 0.479674 0)
(1.10945 0.4106 0)
(1.10228 0.569073 0)
(1.10529 0.532503 0)
(1.0936 0.600089 0)
(1.09842 0.590752 0)
(1.08119 0.593598 0)
(1.08784 0.600043 0)
(1.0658 0.57121 0)
(1.07378 0.583323 0)
(1.04794 0.546714 -2.9426e-22)
(1.05712 0.558718 -3.29484e-22)
(1.03813 0.535662 5.60802e-22)
(1.00705 0.539604 6.42162e-22)
(1.00412 0.522424 0)
(1.00502 0.531901 6.0562e-22)
(1.015 0.549304 0)
(1.01045 0.545469 -6.55531e-22)
(1.02673 0.550571 -1.00912e-21)
(1.02047 0.551029 3.43732e-22)
(1.03366 0.548074 1.93405e-21)
(1.02603 0.524442 -2.51184e-22)
(1.04697 0.52533 -1.0907e-21)
(1.03705 0.523911 0)
(1.00251 0.52633 5.24111e-22)
(1.01485 0.525224 -5.25665e-22)
(0.97486 0.52521 0)
(0.989305 0.526496 0)
(0.942407 0.512908 4.94259e-25)
(0.95926 0.521073 0)
(0.905594 0.479012 0)
(0.924433 0.499369 0)
(0.867058 0.41293 0)
(0.886272 0.450531 0)
(0.831643 0.308584 0)
(0.848598 0.365578 0)
(0.80502 0.168986 0)
(0.816906 0.242565 0)
(0.791454 0.00713418 -6.67771e-24)
(0.796454 0.0896991 0)
(0.792441 -0.157582 7.5071e-24)
(0.790137 -0.076212 0)
(0.807387 -0.303596 0)
(0.798258 -0.234264 0)
(0.834728 -0.411378 0)
(0.819656 -0.363217 0)
(0.871552 -0.471589 0)
(0.852231 -0.447298 0)
(0.912548 -0.493951 0)
(0.891956 -0.486125 0)
(0.951443 -0.502034 0)
(0.932562 -0.498304 0)
(0.985474 -0.51347 0)
(0.969035 -0.506856 0)
(1.01624 -0.53167 3.87375e-24)
(1.0011 -0.521814 0)
(1.046 -0.555662 -4.16529e-24)
(1.03115 -0.542925 0)
(1.07594 -0.585762 4.74097e-24)
(1.06091 -0.569961 0)
(1.10632 -0.620138 0)
(1.09111 -0.602723 0)
(1.13573 -0.650803 0)
(1.12135 -0.636798 0)
(1.16005 -0.658324 -9.1886e-24)
(1.14876 -0.659298 -1.09121e-21)
(1.17157 -0.611427 8.16837e-21)
(1.16795 -0.643727 0)
(1.1277 -0.547877 4.93988e-21)
(1.17077 -0.557135 6.84026e-22)
(0.939204 -0.616139 -6.32352e-21)
(0.999277 -0.646316 0)
(1.0047 0.51164 1.05473e-21)
(1.05691 0.527729 2.09298e-21)
(0.887866 -0.550178 3.58875e-21)
(0.801526 -0.419032 1.9776e-22)
(0.838198 -0.469197 -9.79245e-21)
(1.02238 -0.625711 0)
(1.0503 -0.589489 -1.73306e-21)
(0.767735 -0.355155 7.16145e-21)
(0.751073 -0.297077 -8.27331e-21)
(0.775626 -0.340167 8.19918e-21)
(1.08296 -0.536001 5.26627e-21)
(1.11819 -0.464902 -3.89391e-21)
(1.1656 -0.47926 -3.06094e-21)
(0.967561 -0.631469 0)
(0.80914 -0.449298 -1.55121e-22)
(0.753722 -0.322901 -3.849e-22)
(0.780391 -0.390131 -1.29597e-21)
(0.865233 -0.526609 -1.21273e-21)
(0.837702 -0.493977 1.21937e-21)
(0.914115 -0.563545 -1.82769e-24)
(0.890991 -0.549034 0)
(0.953358 -0.574915 0)
(0.934757 -0.571629 0)
(0.985045 -0.572473 0)
(0.970096 -0.574775 0)
(1.01052 -0.565754 0)
(0.998433 -0.569108 0)
(1.0319 -0.562995 -2.08336e-24)
(1.02159 -0.563431 0)
(1.0513 -0.568911 0)
(1.04173 -0.564906 0)
(1.07075 -0.577621 0)
(1.06092 -0.573861 0)
(1.09138 -0.56995 0)
(1.08093 -0.57736 0)
(1.11226 -0.522708 0)
(1.10193 -0.552455 0)
(1.13089 -0.422187 5.49204e-24)
(1.12203 -0.479357 0)
(1.1448 -0.269639 -2.27066e-25)
(1.13858 -0.351796 0)
(1.15221 -0.0786473 0)
(1.14937 -0.177766 0)
(1.15309 0.129178 -1.31655e-23)
(1.15339 0.0247759 0)
(1.14915 0.324909 0)
(1.1516 0.230602 0)
(1.14189 0.476426 0)
(1.14591 0.407912 0)
(1.13115 0.564229 0)
(1.13701 0.528536 0)
(1.11641 0.59332 0)
(1.12428 0.584942 0)
(1.0982 0.585215 0)
(1.10767 0.592401 0)
(1.07772 0.561759 -4.97004e-24)
(1.08818 0.574332 0)
(1.05586 0.536537 2.95523e-22)
(1.06697 0.548882 0)
(1.03221 0.515048 -2.87096e-22)
(1.04431 0.525165 0)
(1.00608 0.499306 -2.34711e-22)
(1.01954 0.50638 2.59517e-22)
(0.993008 0.518958 -5.56803e-22)
(0.99162 0.493566 0)
(0.991723 0.506877 -7.72252e-22)
(0.999859 0.538176 0)
(0.995745 0.52946 0)
(1.01195 0.549644 0)
(1.00534 0.544979 0)
(1.02803 0.552285 0)
(1.01956 0.552109 0)
(1.04689 0.546248 -1.3044e-21)
(1.03723 0.550385 -3.54297e-22)
(1.0666 0.53116 -2.92565e-22)
(1.05676 0.539779 -2.54285e-21)
(1.05364 0.514382 -1.24824e-21)
(1.0765 0.520507 -2.51901e-22)
(1.06493 0.51713 5.12106e-22)
(1.02994 0.512642 -2.40637e-22)
(1.04207 0.512922 1.51925e-21)
(1.00401 0.512926 3.75467e-25)
(1.01751 0.512722 0)
(0.974316 0.509763 0)
(0.989726 0.512196 0)
(0.940184 0.495168 5.05353e-25)
(0.957832 0.504437 0)
(0.902106 0.459683 0)
(0.921534 0.480661 0)
(0.862662 0.393894 0)
(0.8823 0.431043 0)
(0.826507 0.292545 0)
(0.843826 0.347683 0)
(0.799091 0.158538 0)
(0.811393 0.229048 0)
(0.784619 0.00377238 1.24358e-23)
(0.790075 0.0826978 0)
(0.784877 -0.153615 0)
(0.782887 -0.0758848 0)
(0.799789 -0.292778 0)
(0.790559 -0.226783 0)
(0.828147 -0.394732 0)
(0.812428 -0.349302 0)
(0.866864 -0.451258 0)
(0.84653 -0.428452 0)
(0.909898 -0.473213 3.76466e-24)
(0.888313 -0.465169 0)
(0.950615 -0.483358 0)
(0.930837 -0.478436 0)
(0.986642 -0.496877 0)
(0.96915 -0.489351 0)
(1.01991 -0.515933 -3.87375e-24)
(1.00345 -0.505795 0)
(1.05271 -0.539924 3.80281e-25)
(1.03628 -0.527261 0)
(1.08634 -0.569571 -9.09154e-24)
(1.06936 -0.554034 0)
(1.12152 -0.603557 0)
(1.10374 -0.586265 0)
(1.15733 -0.63524 0)
(1.13953 -0.620426 0)
(1.18953 -0.648165 5.69212e-25)
(1.17432 -0.645574 0)
(1.20997 -0.612508 0)
(1.2019 -0.638698 0)
(1.21104 -0.493517 5.37387e-21)
(1.21305 -0.565025 0)
(1.1544 -0.37944 4.79637e-22)
(1.20301 -0.398715 -9.84679e-21)
(0.918817 -0.577095 0)
(0.731268 -0.255084 -1.01966e-20)
(0.86244 -0.489791 -2.52434e-21)
(1.00843 0.485736 2.34304e-22)
(0.993025 0.479064 0)
(1.07642 0.534617 -2.92332e-22)
(1.08799 0.524261 6.12996e-22)
(0.985483 -0.612481 0)
(1.00858 -0.576128 0)
(0.81172 -0.391671 0)
(1.03741 -0.52215 1.70682e-21)
(1.07004 -0.449348 3.85389e-21)
(1.10466 -0.359642 0)
(1.1385 -0.259862 -1.0517e-20)
(1.18885 -0.284374 8.02154e-21)
(0.950177 -0.59434 0)
(0.743162 -0.293777 5.8063e-25)
(0.708326 -0.167383 -2.82614e-21)
(0.694805 -0.135725 9.15665e-21)
(0.717973 -0.220577 -2.79304e-21)
(0.798383 -0.419485 6.31627e-22)
(0.769522 -0.360582 1.28619e-21)
(0.856394 -0.500456 0)
(0.827931 -0.465909 0)
(0.907277 -0.541067 1.82718e-24)
(0.88305 -0.524672 0)
(0.949272 -0.556444 0)
(0.929227 -0.551167 0)
(0.984181 -0.557451 0)
(0.96756 -0.558142 0)
(1.01324 -0.55323 0)
(0.99933 -0.555458 0)
(1.03843 -0.551944 2.08336e-24)
(1.02619 -0.551777 0)
(1.06199 -0.558191 0)
(1.05027 -0.554162 0)
(1.08621 -0.566288 0)
(1.07391 -0.5629 0)
(1.11218 -0.558002 0)
(1.099 -0.565633 0)
(1.13863 -0.511276 0)
(1.12552 -0.540579 0)
(1.16246 -0.412797 -4.9959e-24)
(1.15109 -0.468769 0)
(1.18044 -0.263566 -3.03631e-25)
(1.17237 -0.343938 0)
(1.19024 -0.0764689 0)
(1.18645 -0.173635 0)
(1.19159 0.127958 2.99386e-25)
(1.19189 0.0251291 0)
(1.18614 0.321339 0)
(1.18959 0.228098 0)
(1.17535 0.470891 0)
(1.18138 0.40337 0)
(1.15944 0.556526 0)
(1.16803 0.521938 0)
(1.13882 0.583604 0)
(1.14965 0.576171 0)
(1.115 0.574169 0)
(1.12719 0.581921 0)
(1.0897 0.550051 9.59484e-24)
(1.10245 0.562896 0)
(1.06392 0.524445 4.01483e-24)
(1.07683 0.53698 0)
(1.03724 0.50252 -5.10409e-22)
(1.05073 0.512941 4.97212e-22)
(1.02315 0.493434 -4.34324e-22)
(0.981139 0.516196 -1.43998e-22)
(0.976343 0.48859 -2.9985e-23)
(0.97817 0.503222 4.19661e-22)
(0.991892 0.53734 0)
(0.985748 0.527662 0)
(1.00806 0.550377 5.74034e-27)
(0.999366 0.544962 0)
(1.02866 0.554301 0)
(1.01787 0.553547 0)
(1.05214 0.549206 -7.06131e-22)
(1.04016 0.55288 7.22963e-22)
(1.06436 0.543051 -7.08194e-23)
(1.06044 0.50201 2.14102e-23)
(1.08616 0.508235 5.42246e-22)
(1.07318 0.504783 -4.29028e-23)
(1.03446 0.499592 2.27805e-22)
(1.0476 0.500375 -2.28195e-22)
(1.00633 0.498619 3.61475e-24)
(1.02081 0.499135 0)
(0.97493 0.493477 3.22719e-24)
(0.991157 0.496961 0)
(0.939481 0.476787 5.0772e-25)
(0.957735 0.487072 0)
(0.900525 0.439923 0)
(0.920343 0.461426 0)
(0.860557 0.374561 0)
(0.880428 0.411206 0)
(0.824001 0.276218 0)
(0.841526 0.329512 0)
(0.796029 0.147706 0)
(0.808643 0.215203 0)
(0.780767 -2.1826e-05 -5.75812e-24)
(0.786637 0.0752676 0)
(0.780306 -0.149897 -4.81654e-24)
(0.778636 -0.0759304 0)
(0.795123 -0.281766 0)
(0.785832 -0.219356 0)
(0.824334 -0.377403 0)
(0.808069 -0.334933 0)
(0.864566 -0.430032 0)
(0.843438 -0.408765 0)
(0.909046 -0.451677 -3.76466e-24)
(0.88678 -0.443348 0)
(0.950984 -0.463903 3.01693e-24)
(0.930596 -0.457814 0)
(0.988536 -0.47928 0)
(0.970214 -0.470975 0)
(1.02389 -0.498932 0)
(1.00633 -0.488637 0)
(1.05925 -0.522651 4.07626e-25)
(1.04148 -0.510208 0)
(1.09606 -0.55143 8.27343e-24)
(1.07739 -0.536389 0)
(1.13541 -0.584372 0)
(1.11539 -0.567572 0)
(1.17691 -0.615958 0)
(1.15603 -0.600971 0)
(1.2169 -0.631566 6.70607e-25)
(1.19751 -0.627156 0)
(1.24676 -0.604177 0)
(1.23383 -0.625335 0)
(1.25562 -0.500825 -3.48231e-21)
(1.25421 -0.563784 0)
(1.23797 -0.306586 -3.77313e-21)
(1.24975 -0.414343 7.39299e-21)
(0.74296 -0.239597 1.55413e-20)
(0.726295 -0.200756 1.12345e-20)
(1.1696 -0.15437 4.11024e-21)
(1.21944 -0.183033 -4.10839e-21)
(0.895862 -0.519465 0)
(0.976716 0.473311 -3.91798e-22)
(1.09932 0.511858 2.42998e-21)
(0.677212 -0.0483252 -1.72468e-21)
(0.968311 -0.55978 0)
(0.689936 -0.0752076 -7.09423e-22)
(0.83715 -0.411833 0)
(0.992217 -0.505509 0)
(0.789435 -0.306098 0)
(1.02105 -0.432713 0)
(1.05335 -0.342298 0)
(1.08619 -0.23809 1.04794e-21)
(1.1181 -0.127326 3.26188e-21)
(1.14605 -0.0167882 0)
(1.19622 -0.0490515 7.98216e-21)
(0.930258 -0.539277 0)
(0.687898 -0.109679 -3.52618e-21)
(0.665096 0.0459498 -7.51682e-21)
(0.661401 0.0640417 -3.18814e-21)