/*--------------------------------*- C++ -*----------------------------------*\
  =========                 |
  \\      /  F ield         | OpenFOAM: The Open Source CFD Toolbox
   \\    /   O peration     | Website:  https://openfoam.org
    \\  /    A nd           | Version:  10
     \\/     M anipulation  |
\*---------------------------------------------------------------------------*/
FoamFile
{
    format      ascii;
    class       surfaceScalarField;
    location    "34";
    object      phi;
}
// * * * * * * * * * * * * * * * * * * * * * * * * * * * * * * * * * * * * * //

dimensions      [0 3 -1 0 0 0 0];

internalField   nonuniform List<scalar> 
57492
(
0.000239862
-1.08244e-05
-4.45149e-05
-0.000184523
-0.000165736
0.000272482
0.000133115
-2.88937e-05
8.12697e-05
0.000324882
-0.000377258
0.00315951
0.00338651
-0.000271952
-0.00627407
-0.00862819
0.00404533
0.00774237
0.000911669
-0.000842979
-0.000441532
0.000372841
-0.0016321
0.000297258
-0.000110951
0.00144579
0.000343035
-0.00106346
0.00155344
-0.00463187
0.00442579
-0.00134736
0.00131334
0.00425033
-0.00401022
-0.000631112
-0.000213042
0.000705602
0.000138553
-0.000124967
-0.000853174
0.000347028
0.000239233
-0.000334472
-2.97278e-05
-5.50749e-05
8.12659e-05
0.00211273
-0.00203053
-0.000762511
0.000680313
0.000296163
0.00170268
0.00011388
-0.000324017
0.000787719
0.00333657
-0.00380027
-0.00066061
0.0032624
-0.00292581
0.000135597
-0.000289005
0.000153409
-0.00166652
0.00122206
0.000580057
-0.00466373
0.000192586
0.00333955
0.00113159
0.00122553
-0.00473331
-0.00115595
-0.00013398
-0.000203805
-0.000712748
0.00105053
-0.000292262
0.000180623
-2.23411e-05
-0.00257704
0.0021839
0.000746061
-0.000352922
-0.00307439
0.000921825
-0.00042448
-0.00112757
0.000596063
0.000456954
7.455e-05
-0.000778971
-0.000362143
1.35468e-05
-0.0003681
-0.00113667
0.00129475
0.000210017
-0.0004171
0.000116751
-6.77504e-05
0.000949831
-0.000633231
-0.000589578
0.000272978
-0.000820465
0.000650615
0.00111968
-0.00111844
-0.00214363
0.00204586
0.0012162
-0.00251587
-0.000609603
0.00200703
-0.000708817
-0.000152544
0.000861361
-0.000271863
-0.000436954
-0.00137703
0.00189565
-0.00079048
0.000203468
-0.000768699
-0.000811804
-0.000728716
0.00102597
-0.000233485
-0.00190172
0.00115076
0.000750957
-0.0043214
0.00241968
0.00486302
-0.00102776
0.0005496
-0.00438486
0.00359946
0.00011694
0.00114662
-0.000925559
0.00478732
-0.00488952
0.00177912
0.000377079
-0.00181317
0.00178752
-0.000119343
0.00215316
-0.000806196
-0.00160048
0.000253515
0.0024116
0.000118642
0.00112239
-0.000693339
0.00135847
0.00106034
0.00150785
-0.00472003
-0.000656118
0.000577283
0.00479886
-0.00485278
-0.000324396
0.000457148
0.00118583
0.00451338
-0.0044373
-0.00126191
0.000855885
-0.00430193
-0.00284396
0.00255815
0.00258039
-0.00229458
-0.000316576
0.00323738
-0.00576477
1.4966e-05
-0.000120158
-8.03063e-07
0.000105995
-0.000329005
9.49834e-06
6.89995e-05
-0.000139007
-0.000258998
-5.80836e-05
6.92549e-06
1.17892e-05
-1.25922e-05
9.19877e-06
2.5904e-06
0.00734289
0.00378535
-0.00590467
-0.00522357
0.00233032
-0.000696695
0.00570926
-0.00788569
0.00308594
0.00713007
0.00228009
-0.00638043
0.0016213
-0.00286849
0.00213699
-0.000889801
0.00236036
-0.00291756
0.0021785
-3.03695e-05
2.21779e-05
-2.63282e-06
-7.13334e-05
-3.55089e-06
-0.000226253
-2.96033e-05
-0.00294403
0.00535759
0.00339101
-0.00580457
0.00436159
-0.00494526
0.0029815
0.00475755
-0.00238146
0.0101554
-0.00152098
-0.00177735
-0.00685704
0.00221529
0.00546917
0.0024709
0.00158657
-0.00505394
0.00568267
4.70243e-05
-7.59179e-05
0.000128294
0.00082057
0.00176331
-0.000628422
-0.00195546
0.00104522
0.000100233
-9.73735e-05
2.68474e-05
7.05261e-05
-0.000301976
0.000204602
-0.00662579
0.00342251
-0.00201621
0.00521949
-0.00575432
-0.00251349
0.00164202
-0.00263025
0.00209613
-0.0052202
0.00195783
-2.6472e-05
-0.000946747
-0.000984609
-0.00071369
0.00223405
0.000437469
-0.000837207
-8.54669e-05
0.000208984
-0.000773816
-8.98631e-05
-0.000272127
-0.00144844
-0.0002507
-6.45865e-05
2.05343e-05
0.000294752
-0.000223393
-0.000545446
0.000518139
0.000143211
1.75157e-05
-0.000384119
8.29188e-05
-4.29431e-06
0.000106004
-2.55097e-06
-0.00064282
0.000370693
8.35244e-05
-0.000726345
0.000173771
-0.000475746
0.00427353
0.00333167
-0.000178486
0.00212873
-0.00648339
-1.02407e-05
0.00226376
-0.0017974
-0.000456117
0.000291981
0.00316389
-0.00346611
0.00328145
0.00188728
-0.000544356
-0.00462438
-0.00100893
0.000465832
0.00382454
0.00404295
-0.00316459
-0.00163821
-0.00303618
0.00124232
0.00343207
-0.00119219
0.00350806
-0.00395408
0.000415109
-0.00464348
8.54656e-05
3.51906e-05
-4.79992e-06
0.00106416
-0.000626217
-0.000603675
7.89381e-05
-0.000334617
0.00131983
0.000370904
-1.94832e-05
-0.000187355
0.000332464
6.8425e-05
-0.000213534
0.000993585
-0.00121772
3.67841e-05
-0.000358369
0.000832465
0.000519489
-0.000125378
9.9472e-05
-0.0061389
0.00364701
0.00591439
0.0077318
-0.00201958
-0.0082257
-0.00287097
0.00446387
-9.71557e-05
-0.00087623
-0.000163281
-0.000523447
9.19119e-06
4.76759e-05
-0.000130292
3.77052e-05
4.49108e-05
-0.000130029
0.000144275
3.3429e-05
-0.00029898
3.86594e-05
-0.000266017
-0.000313419
5.59887e-05
-0.000805721
-0.000336526
-0.00101311
-0.00108868
0.00124687
0.000854915
4.20038e-05
0.00053359
-0.00158871
-0.00142205
0.000375373
-0.00293876
0.00133208
-5.98478e-05
-0.00350676
0.0008089
-0.000240894
0.000876279
-0.0033472
0.00256387
-9.2948e-05
0.000679254
-0.00272798
0.002925
0.00252848
-0.0101971
-0.00177023
0.00218657
0.00302572
-0.00346386
0.00206537
-0.000322258
3.95118e-07
1.71206e-05
-3.60958e-06
4.00469e-06
0.00028489
-4.13586e-05
0.00549391
-0.00332408
-0.00229771
0.00012788
0.00471759
-0.000149237
0.00470288
0.000117133
-0.00513659
0.00135177
0.00334347
7.63277e-06
0.000526379
-0.00296731
0.0037927
5.62682e-06
-9.2364e-06
0.000760557
-0.00212547
-0.0028543
0.00123674
0.00309344
0.00106929
-6.01279e-05
-0.0011245
0.000115333
0.000352657
-0.00010383
-0.0013731
0.000294284
0.00172943
0.000246108
-0.00126655
-0.000135016
7.49136e-05
-6.51877e-06
1.04758e-05
-3.58677e-06
-3.70217e-07
1.12368e-05
-2.72944e-07
-1.74826e-05
4.86842e-05
-0.000104733
6.72855e-05
-0.00174035
0.00268339
-0.000769268
0.00293345
-0.00381904
-0.000854754
3.76852e-06
-0.00187302
0.00216353
-0.00401657
0.00024549
-0.00275176
-0.00184573
0.000580915
0.00269784
0.00291127
-0.00541652
0.00260359
0.00430143
-0.00420718
0.00223963
-0.00308619
0.00160818
-0.000761618
0.00245439
-0.00302548
0.00281073
0.00437697
0.00187385
0.00497535
-0.000254312
-0.00494386
0.000222827
0.00550778
-0.000680265
0.000147833
0.00552858
-0.000880341
5.62082e-05
-0.00470444
0.00397031
-0.00135217
0.00291044
0.00431052
-0.00139469
0.00113079
-0.00404661
0.00125816
0.00439153
-0.00133917
-0.00387942
-0.00165767
0.0041424
0.00105781
-0.00369491
-0.00184949
0.00362389
-0.00237055
-0.0032442
0.00214492
0.00346982
-0.00238838
-0.00327279
0.00329062
0.00222939
0.0030522
-0.0014697
-0.00381189
0.00302631
-0.00318529
-0.00258373
0.0026063
0.00300374
-0.00203716
0.00250563
-0.00407408
0.0036203
-0.00101592
-0.00507316
0.00104832
0.00538268
-0.00135784
0.00190739
-0.000282543
0.00103246
-0.00109686
0.000346945
-0.000122693
0.00132201
-0.00148186
-5.42618e-05
0.000312499
0.000112666
-0.00137249
-0.00212343
0.00137787
-5.39683e-08
-2.18977e-07
3.02059e-07
-3.56029e-07
-0.000131814
-0.00235525
0.00179372
-0.00208419
-9.01469e-05
0.00204252
6.29894e-05
-0.00218471
3.75329e-05
-0.000351976
0.00189304
0.000379619
-0.00192068
0.00199065
0.000488577
-0.0028312
0.00191008
0.00197361
-2.6108e-06
5.41421e-07
3.726e-05
-4.82029e-06
2.2095e-06
-4.27888e-06
-5.74081e-06
4.51281e-06
-5.68556e-05
1.15394e-06
-6.89475e-06
5.66675e-06
-4.48553e-05
2.17037e-05
-0.00026911
2.2771e-05
-6.76263e-05
4.44747e-05
5.33058e-05
-5.35351e-06
-0.00017333
-1.69423e-05
7.02481e-05
-2.22958e-05
0.00140087
0.00329776
-0.00423281
0.00137082
-0.00450765
0.0045377
0.00472543
-5.68422e-05
-0.00118317
-0.0024447
0.00115901
0.00246887
-0.00070992
0.00272166
-0.00319492
0.000158137
-0.00331276
0.00418269
-0.00421877
-1.35355e-05
4.96158e-05
0.00418407
3.74742e-05
-3.88524e-05
-2.64391e-05
-0.00420872
1.63914e-05
0.00421837
-1.69897e-06
-3.26043e-05
0.00429619
6.09458e-05
-0.000138761
2.97291e-05
0.00440585
-0.000139389
0.00435278
-0.00432445
1.39921e-06
-0.000205516
0.00461416
-2.79549e-06
0.00423402
-8.67531e-05
-0.00418931
-7.419e-05
-0.00417197
-1.90365e-05
-0.00416299
2.84879e-05
-0.00424882
7.22944e-05
-0.00417564
-9.96137e-05
-0.000199519
0.00481656
-2.88791e-06
0.0040383
-3.80548e-06
-2.10955e-05
-0.00416929
-1.83373e-05
-0.00420561
8.87448e-06
-2.97885e-05
-0.00440549
0.000265991
-7.92784e-07
0.00481967
-2.31738e-06
0.00404157
-4.06478e-06
-0.00435544
0.00012004
0.00482272
-6.08683e-07
-2.43658e-06
-7.37449e-07
0.00482533
-1.87722e-06
0.00404436
-3.39847e-06
0.00404733
-3.70258e-06
-2.50913e-05
-0.00437394
-6.46293e-06
-0.0043737
-6.83603e-06
-4.84294e-07
0.00482785
-2.0349e-06
0.00404989
-3.04964e-06
-3.53419e-07
-0.00436683
-6.75884e-06
-0.00436637
-7.67869e-06
-4.87945e-07
0.00482983
-1.49248e-06
0.00405279
-3.38463e-06
-1.72489e-07
-0.00435904
-7.61366e-06
-0.00435881
-7.73533e-06
2.81774e-08
0.00483149
-1.68519e-06
0.00405556
-2.7403e-06
-2.29561e-07
-0.00435085
-7.96235e-06
-0.00435042
-8.62361e-06
5.12335e-07
0.00483213
-1.15424e-06
0.00405918
-3.10559e-06
-1.57531e-08
-0.00434196
-8.86887e-06
-0.00434167
-8.76067e-06
2.01487e-06
0.00483149
-1.37466e-06
0.00406366
-2.47208e-06
1.00033e-05
-0.00434267
-9.29863e-06
-0.00432196
-9.70807e-06
4.49568e-06
0.00482785
-8.54599e-07
0.00407102
-2.85695e-06
2.83126e-05
-0.00421098
-0.000160001
-0.004239
-5.46435e-05
9.97809e-06
0.00481897
-1.10116e-06
0.00406439
1.66042e-05
2.80347e-05
-0.00422154
-1.74688e-05
-0.00419783
-1.31425e-05
2.0327e-05
0.00479923
-5.87676e-07
0.0040372
4.75196e-05
6.00971e-05
-0.00406278
-0.000218864
-0.0040668
-7.09317e-05
0.000205049
0.00459504
-8.49917e-07
0.00416129
8.0962e-05
6.8987e-05
-0.00403393
-9.78349e-05
-0.00401188
1.40724e-05
0.000181041
0.00425747
0.000156524
0.0042311
0.000111227
0.000109597
-0.000165924
-0.0039776
-0.00398497
8.26882e-05
1.19803e-05
4.06773e-05
0.00420481
0.00420469
3.83845e-05
-0.00404955
0.00412383
-0.000172112
-0.00406122
-0.000154251
0.000186442
-0.00017442
-0.00398962
8.19637e-05
-0.0038805
-0.004045
0.00408957
-6.20302e-05
-0.00014004
-0.00394925
0.00395806
-1.81059e-05
-1.9688e-05
-0.00396624
0.00397392
-1.564e-05
-1.70513e-05
-0.00398106
0.00398778
-1.34754e-05
-1.4756e-05
-0.00399406
0.00427165
-1.16026e-05
-1.2744e-05
-0.00426435
0.00421028
7.04554e-05
-1.10318e-05
-0.00434991
0.00431964
-8.57945e-06
-9.00115e-05
-0.00418471
0.00412672
-8.07753e-05
0.000102327
-0.00403164
0.00403514
-6.29053e-06
-4.43117e-05
-0.00403839
0.00404146
-5.38367e-06
-6.1389e-06
-0.00404432
0.00404703
-4.58617e-06
-5.30113e-06
-0.00404956
0.00405196
-3.8876e-06
-4.5661e-06
-0.00405419
0.00405631
-3.27423e-06
-3.92282e-06
-0.0040583
0.00406018
-2.73366e-06
-3.35764e-06
-0.00406193
0.0040636
-2.25233e-06
-2.85904e-06
-0.00404113
0.00413743
6.02221e-05
2.16225e-05
0.00412819
4.99138e-05
-2.59812e-05
8.10369e-05
0.00414976
-5.2202e-06
0.00418393
0.00415222
-0.00408255
1.12899e-05
-0.00419383
0.00418599
4.6224e-05
6.96165e-05
0.00408078
-0.00406018
-3.99535e-06
4.57564e-05
0.00405832
-0.00405632
-4.47354e-06
-4.723e-06
0.00405421
-0.00405194
-5.00389e-06
-5.21411e-06
0.00404956
-0.004047
-5.60822e-06
-5.76882e-06
0.0040443
-0.0040414
-6.29796e-06
-6.40264e-06
0.00403834
-0.00403505
-7.09064e-06
-7.12873e-06
0.00411384
-0.00410444
-7.99497e-06
-7.96726e-06
0.00416972
-0.00412078
-6.79826e-05
-8.91125e-06
0.0040898
-0.00405874
4.12364e-05
-2.49137e-06
0.00410496
-0.00412663
3.05492e-05
-5.33938e-05
0.0039939
-0.00398761
-1.31264e-05
-1.26957e-05
0.00398092
-0.00397373
-1.49325e-05
-1.43629e-05
0.00396607
-0.00395782
-1.70081e-05
-1.628e-05
0.00394904
-0.00398428
-1.94033e-05
-1.84892e-05
0.00397639
-0.00402515
-2.21715e-05
-2.10391e-05
0.00398706
-0.0039184
1.40276e-05
-2.40131e-05
-0.00386455
2.81113e-05
-0.00408039
-0.000155256
0.00414199
6.72347e-05
-2.28454e-06
0.00418305
0.000133561
-0.000131732
-0.00388232
9.15423e-05
-0.00382253
0.000148593
-0.000152575
-0.00407641
-0.00397276
-0.00402808
0.00397273
-0.000116764
0.0040634
-0.00408576
-0.000132903
-0.000118926
-0.00393159
0.00394142
-7.18628e-05
-9.88936e-05
-0.00395069
0.0039594
-2.68143e-05
-2.89649e-05
-0.00396749
0.00397508
-2.32292e-05
-2.51398e-05
-0.00398214
0.00398877
-2.0108e-05
-2.18137e-05
-0.00399495
0.00400075
-1.74006e-05
-1.8922e-05
-0.00400615
0.00409167
-1.50715e-05
-1.64298e-05
-0.00401594
0.0040204
-1.30436e-05
-1.42786e-05
-0.00413514
0.00406566
-1.12949e-05
-1.2411e-05
-0.00403212
0.00403558
-9.75132e-06
-1.07748e-05
-0.00403881
0.00404185
-8.42581e-06
-9.36308e-06
-0.00404469
0.00404737
-7.27117e-06
-8.14028e-06
-0.00404988
0.00405226
-6.26153e-06
-7.0738e-06
-0.00405447
0.00405658
-5.37632e-06
-6.14107e-06
-0.00405854
0.00406041
-4.59766e-06
-5.32289e-06
-0.00406215
0.0040638
-3.90546e-06
-4.60217e-06
-0.00406504
0.00409916
2.6103e-05
2.03815e-05
9.37555e-06
-1.90868e-05
0.00415947
1.04281e-06
0.00415033
-0.00408802
0.00412956
2.56979e-05
6.10557e-05
0.00413098
-0.00413084
4.60895e-05
0.00409873
2.99597e-05
-7.10295e-07
4.61471e-05
0.00413762
0.00416414
0.00413031
-0.00409891
-2.01065e-05
6.90801e-05
0.00406219
-0.00406042
-5.76056e-06
9.03068e-06
0.00405857
-0.00405658
-6.46052e-06
-6.57765e-06
0.00405449
-0.00405224
-7.2476e-06
-7.30546e-06
0.00404988
-0.00404734
-8.14513e-06
-8.13288e-06
0.00404467
-0.00404179
-9.17047e-06
-9.0786e-06
0.00403876
-0.00403551
-1.03441e-05
-1.01613e-05
0.00403207
-0.00402838
-1.16862e-05
-1.1403e-05
0.00402447
-0.00407923
-1.32263e-05
-1.28208e-05
0.00406727
-0.00401105
-1.49837e-05
-1.4452e-05
0.00404811
-0.00400054
-1.70257e-05
-1.63304e-05
0.00399475
-0.00398851
-1.93581e-05
-1.84859e-05
0.0039819
-0.00397477
-2.20567e-05
-2.09808e-05
0.00396719
-0.00395903
-2.51695e-05
-2.38575e-05
0.00395034
-0.00394098
-2.87648e-05
-2.71798e-05
0.003931
-0.00392026
-3.29146e-05
-3.10172e-05
0.00390882
-0.00385711
-3.76843e-05
-3.54501e-05
0.00382263
-0.0037576
2.65054e-05
-6.3659e-06
-0.00410184
-0.000136488
7.49752e-05
-0.000147284
-0.00375022
-0.0037205
3.78824e-05
-0.000218299
-0.00381131
2.46728e-05
0.00410593
0.00410593
3.89516e-05
-8.88684e-05
9.91268e-05
-0.00408666
-9.94579e-05
-0.00409125
4.67822e-05
-0.000143264
-0.00365374
8.32731e-06
-0.00368205
-0.00409194
0.00414022
-0.00412703
1.25066e-05
0.00409878
6.6108e-05
7.08362e-05
-2.99951e-05
0.00409678
4.46905e-05
0.00413207
-0.00404905
0.0041063
-0.000156701
-0.000157576
0.000122318
-0.004056
0.00412644
-3.6326e-05
0.000270123
-0.00436024
-8.01872e-05
-0.00411381
0.00409263
-0.000111724
-0.000143999
-0.00405023
0.00399533
-6.1865e-05
-7.6524e-05
-0.00397484
0.00394374
-4.07598e-05
-7.84052e-05
-0.00395285
0.00396139
-3.53584e-05
-3.80776e-05
-0.00396933
0.00397678
-3.06773e-05
-3.30767e-05
-0.0039837
0.00399022
-2.66183e-05
-2.8741e-05
-0.00399628
0.00400198
-2.31021e-05
-2.49836e-05
-0.00400728
0.00401227
-2.00625e-05
-2.17354e-05
-0.00401692
0.00402131
-1.74297e-05
-1.89288e-05
-0.00402539
0.00402925
-1.51485e-05
-1.64934e-05
-0.00403285
0.00403625
-1.31555e-05
-1.43783e-05
-0.00403943
0.00404243
-1.14263e-05
-1.2539e-05
-0.00404523
0.00404788
-9.92023e-06
-1.09408e-05
-0.00405036
0.0040527
-8.6044e-06
-9.54797e-06
-0.00405489
0.00405696
-7.45166e-06
-8.33042e-06
-0.0040589
0.00406074
-6.439e-06
-7.26336e-06
-0.00406247
0.0040641
-5.54254e-06
-6.32492e-06
-0.00407685
0.00408506
1.78906e-05
7.63782e-06
1.90895e-05
2.67202e-05
-1.03744e-05
0.00414312
-4.25322e-05
1.01037e-05
0.00413836
0.00413451
0.00412377
0.00411965
-0.00411415
4.05884e-05
-0.00411478
0.00409332
6.04093e-05
3.48343e-05
0.00406568
-0.0040791
-6.69378e-06
2.06128e-05
0.0040625
-0.00406076
-7.50617e-06
-7.56027e-06
0.00405893
-0.00405696
-8.42335e-06
-8.40912e-06
0.0040549
-0.00405268
-9.46311e-06
-9.37086e-06
0.00405035
-0.00404785
-1.06492e-05
-1.04667e-05
0.00404521
-0.00404237
-1.20042e-05
-1.1719e-05
0.00403938
-0.00403617
-1.35539e-05
-1.31518e-05
0.00403278
-0.00402914
-1.53279e-05
-1.47929e-05
0.00402529
-0.00402115
-1.73636e-05
-1.66736e-05
0.00401677
-0.00401205
-1.96983e-05
-1.88343e-05
0.00400706
-0.00400169
-2.2391e-05
-2.1323e-05
0.00399599
-0.00398986
-2.54888e-05
-2.41859e-05
0.00398335
-0.00397634
-2.90645e-05
-2.74919e-05
0.00396889
-0.00396087
-3.31915e-05
-3.13082e-05
0.00395234
-0.00394314
-3.7956e-05
-3.57163e-05
0.00393336
-0.00392282
-4.34502e-05
-4.08052e-05
0.0039116
-0.00389952
-4.97676e-05
-4.66704e-05
0.00385247
-0.00376892
-5.70485e-05
-5.34104e-05
0.00371488
-0.00370934
2.78477e-06
-1.61569e-05
1.99391e-05
-3.32897e-05
-0.0036687
-0.00367688
-1.25213e-05
0.000133595
-0.00409794
-9.42744e-05
-0.0038603
3.76702e-05
0.00407122
0.00410833
2.96806e-05
0.000173488
-0.00426581
2.18546e-05
-0.00370888
0.000884704
-0.00340709
0.00443247
-1.18155e-05
-2.61361e-05
-0.00363892
-6.27295e-05
-0.00361778
-0.00269446
0.00411784
0.000550221
-0.00207462
-0.000240216
-0.00405262
-0.00392118
0.00410056
9.07366e-05
0.000268895
-7.22294e-05
-0.00407259
0.004047
-0.000131104
-5.2216e-05
-0.00402494
0.00397997
-6.67521e-05
-0.000121941
-0.00396565
0.00396173
-5.79462e-05
-6.22039e-05
-0.00393734
0.00394686
-5.02811e-05
-5.4021e-05
-0.00395572
0.00396402
-4.36636e-05
-4.69299e-05
-0.00397175
0.003979
-3.79327e-05
-4.0801e-05
-0.00398575
0.0039921
-3.29684e-05
-3.54938e-05
-0.00399802
0.00400359
-2.86688e-05
-3.08982e-05
-0.00400877
0.00401366
-2.49469e-05
-2.6921e-05
-0.00401821
0.0040225
-2.17225e-05
-2.34795e-05
-0.0040265
0.00403028
-1.89249e-05
-2.04964e-05
-0.00403381
0.00403714
-1.64896e-05
-1.79057e-05
-0.00404025
0.0040432
-1.43696e-05
-1.56518e-05
-0.00404594
0.00404855
-1.25214e-05
-1.36895e-05
-0.00405098
0.00405328
-1.09062e-05
-1.19781e-05
-0.00405543
0.00405747
-9.49173e-06
-1.0482e-05
-0.00405938
0.00406119
-8.25006e-06
-9.17135e-06
-0.00406288
0.0040645
-7.1554e-06
-8.02018e-06
-0.00407914
0.00410322
-6.18826e-06
-7.00391e-06
-0.00409455
0.0040932
1.38589e-05
2.77522e-05
-0.00411034
0.00410662
4.13838e-05
4.89728e-05
5.5443e-05
-3.09322e-05
0.00411384
-3.26957e-05
4.36453e-06
0.00413495
0.00409396
3.99898e-05
1.58101e-05
0.00408732
0.00414357
-2.65998e-05
1.69461e-05
0.00410643
0.00411298
-2.0773e-05
-6.68507e-07
0.00412977
0.00412825
0.00413138
-0.00411585
4.48794e-05
-0.00419608
0.00408513
0.000110284
-3.50258e-05
0.00410462
-0.00409489
3.08649e-05
2.36039e-05
0.00406605
-0.00406452
-8.22181e-06
-8.23242e-06
0.00406292
-0.0040612
-9.22194e-06
-9.16173e-06
0.0040594
-0.00405747
-1.03538e-05
-1.02104e-05
0.00405544
-0.00405326
-1.16413e-05
-1.14018e-05
0.00405097
-0.00404851
-1.31099e-05
-1.27606e-05
0.00404591
-0.00404313
-1.47875e-05
-1.4313e-05
0.00404019
-0.00403704
-1.67059e-05
-1.60886e-05
0.00403371
-0.00403014
-1.89027e-05
-1.81219e-05
0.00402636
-0.0040223
-2.14227e-05
-2.04536e-05
0.004018
-0.00401338
-2.43173e-05
-2.3132e-05
0.00400849
-0.00400323
-2.76492e-05
-2.62143e-05
0.00399765
-0.00399166
-3.1487e-05
-2.97641e-05
0.00398529
-0.00397844
-3.59138e-05
-3.38593e-05
0.00397116
-0.00396333
-4.10217e-05
-3.85858e-05
0.00395501
-0.00394605
-4.69141e-05
-4.40422e-05
0.00393652
-0.00392627
-5.37028e-05
-5.03358e-05
0.00391535
-0.00390361
-6.15061e-05
-5.75823e-05
0.00389112
-0.00387771
-7.04612e-05
-6.59051e-05
0.00381842
-0.00373491
-8.07255e-05
-7.54403e-05
0.00372481
-0.00369624
-5.47132e-05
-2.26201e-05
-2.25663e-05
9.56788e-06
-0.00362593
-0.00365489
-6.39115e-05
0.000129645
-0.0040541
-2.64397e-05
-0.003812
0.000329746
-0.00371085
2.36391e-05
-0.00379525
0.00410848
-0.00411356
4.64576e-05
0.00409493
1.79214e-05
4.73384e-05
-3.17729e-05
0.0041142
8.61563e-06
0.00412385
0.000336863
-0.00325538
4.58078e-05
-0.00365402
-0.00188245
-0.00211285
-0.00319529
0.00369357
5.19462e-05
-7.46538e-07
7.4022e-06
-0.00363258
-4.09079e-05
-0.00361473
-0.00295143
-0.000484077
-0.00394941
-0.0038692
0.00393324
2.66928e-05
9.32687e-05
-0.00397748
0.00393657
-9.01936e-05
-9.64589e-05
-0.00389872
0.0039105
-7.85276e-05
-8.40927e-05
-0.00392152
0.0039319
-6.83276e-05
-7.32245e-05
-0.0039416
0.00395073
-5.94142e-05
-6.3722e-05
-0.00395925
0.00396725
-5.16687e-05
-5.54434e-05
-0.00397471
0.00398173
-4.49482e-05
-4.82594e-05
-0.00398826
0.00399442
-3.91218e-05
-4.20311e-05
-0.00400015
0.00400556
-3.40723e-05
-3.66344e-05
-0.0040106
0.00401535
-2.96965e-05
-3.19595e-05
-0.00401977
0.00402395
-2.59022e-05
-2.79093e-05
-0.00402785
0.00403154
-2.26075e-05
-2.43966e-05
-0.00403498
0.00403823
-1.9741e-05
-2.13449e-05
-0.00404127
0.00404414
-1.72431e-05
-1.86891e-05
-0.00404682
0.00404937
-1.50632e-05
-1.63743e-05
-0.00405174
0.00405399
-1.31575e-05
-1.43539e-05
-0.0040561
0.00405809
-1.14882e-05
-1.2587e-05
-0.00405996
0.00406174
-1.00236e-05
-1.10392e-05
-0.0040634
0.00406498
-8.73527e-06
-9.68063e-06
-0.00406646
0.00406787
-7.59749e-06
-8.48451e-06
-0.00410305
0.00408999
2.69177e-05
-7.42858e-06
2.54017e-05
4.2214e-05
-6.92616e-05
0.00414089
-1.57197e-05
2.80879e-05
0.00412259
0.00412046
-1.52976e-07
-8.91059e-07
0.00408837
0.00407416
-3.79807e-05
5.64699e-05
0.00408794
0.00407411
0.00415295
0.00413403
-0.00412084
3.1691e-05
-0.00408362
0.00412577
6.81319e-05
1.53819e-05
0.00410744
-0.0040679
-8.6736e-06
1.02036e-05
0.0040665
-0.004065
-9.7187e-06
-9.63255e-06
0.00406343
-0.00406175
-1.09012e-05
-1.07304e-05
0.00405999
-0.0040581
-1.22441e-05
-1.19743e-05
0.00405611
-0.00405398
-1.37731e-05
-1.33902e-05
0.00405173
-0.00404933
-1.55173e-05
-1.50053e-05
0.00404679
-0.00404407
-1.7509e-05
-1.68501e-05
0.0040412
-0.00403812
-1.97864e-05
-1.89595e-05
0.00403486
-0.00403137
-2.23939e-05
-2.13745e-05
0.00402768
-0.00402372
-2.53843e-05
-2.41436e-05
0.00401953
-0.00401503
-2.8819e-05
-2.73234e-05
0.00401026
-0.00400514
-3.277e-05
-3.09808e-05
0.00399971
-0.00399388
-3.73199e-05
-3.51921e-05
0.00398769
-0.00398104
-4.25646e-05
-4.00469e-05
0.00397398
-0.00396639
-4.86116e-05
-4.56466e-05
0.00395833
-0.00394966
-5.55804e-05
-5.21048e-05
0.00394045
-0.00393055
-6.35996e-05
-5.95458e-05
0.00392004
-0.00390874
-7.28045e-05
-6.8102e-05
0.00389673
-0.00388385
-8.33372e-05
-7.79121e-05
0.00387018
-0.00385557
-9.53346e-05
-8.91129e-05
0.00377637
-0.00372223
-0.000108855
-0.000101823
0.00367
-0.00362583
-8.50697e-05
-0.000116143
-8.53338e-06
2.44171e-05
-0.00363061
-0.00358968
-4.46905e-05
9.93917e-05
-0.00382374
4.18204e-06
-0.00379255
4.60563e-05
0.00407696
0.00411117
2.32166e-05
0.000201921
-0.00357591
-0.000412997
-0.00430065
-2.25621e-05
-0.00364582
2.55021e-05
-0.00377495
4.90687e-05
-0.00369569
-0.00422765
-0.000836635
0.000243656
-0.000546658
-0.00392465
-0.000241295
-0.0038157
1.16779e-05
-0.00361984
-5.34541e-05
-2.20479e-05
-0.00355511
-3.11451e-05
-0.00361199
-0.00384584
-0.00350185
0.00367376
-0.000119963
0.00366849
-0.00401731
-0.000487811
-0.000317442
-0.0038015
0.00386871
-4.05125e-05
-3.44738e-05
-0.00388174
0.00389417
-0.000102618
-0.000109493
-0.0039059
0.00391702
-8.96502e-05
-9.58262e-05
-0.00392746
0.00393731
-7.81837e-05
-8.36594e-05
-0.00394654
0.00395524
-6.81166e-05
-7.29469e-05
-0.00396337
0.00397103
-5.93295e-05
-6.35736e-05
-0.00397818
0.00398492
-5.1685e-05
-5.54101e-05
-0.00399121
0.00399713
-4.50467e-05
-4.83177e-05
-0.00400266
0.00400787
-3.92863e-05
-4.21637e-05
-0.00401274
0.00401733
-3.42883e-05
-3.68261e-05
-0.00402162
0.00402567
-2.99497e-05
-3.2196e-05
-0.00402945
0.00403302
-2.61792e-05
-2.81764e-05
-0.00403636
0.00403951
-2.2897e-05
-2.46818e-05
-0.00404246
0.00404525
-2.0035e-05
-2.16386e-05
-0.00404786
0.00405034
-1.75355e-05
-1.89843e-05
-0.00405265
0.00405484
-1.53491e-05
-1.66657e-05
-0.00405689
0.00405883
-1.34334e-05
-1.46371e-05
-0.00406065
0.00406238
-1.17524e-05
-1.28595e-05
-0.004064
0.00406554
-1.02749e-05
-1.12995e-05
-0.00406699
0.00406836
-8.97352e-06
-9.92805e-06
-0.00406965
0.00410439
-7.82242e-06
-8.71845e-06
-0.00410845
0.00411894
3.59691e-05
2.1341e-05
-0.00406482
0.00408298
2.7894e-05
7.20397e-05
6.59164e-05
-4.86446e-05
0.00410531
-1.11933e-05
-1.299e-05
0.00410717
0.00413168
4.9654e-05
1.07251e-06
0.00409017
0.00412147
-9.2956e-08
-8.94034e-07
0.00408935
0.00407514
1.87526e-06
-2.85614e-06
0.00408892
0.00407509
-2.67575e-05
1.99797e-05
0.00412098
0.00412333
-1.24033e-05
1.70422e-05
0.00410653
0.00413143
0.00413986
-0.00409228
2.05602e-05
-0.00412149
0.00409813
4.03969e-05
4.1586e-05
0.00409966
-0.00408978
2.18132e-05
2.27571e-05
0.00406969
-0.00406839
-9.97514e-06
-9.88311e-06
0.00406703
-0.00406557
-1.11768e-05
-1.09971e-05
0.00406404
-0.0040624
-1.25384e-05
-1.22594e-05
0.00406068
-0.00405884
-1.40868e-05
-1.36939e-05
0.0040569
-0.00405483
-1.58503e-05
-1.5328e-05
0.00405264
-0.0040503
-1.78616e-05
-1.71919e-05
0.00404783
-0.00404518
-2.01576e-05
-1.932e-05
0.00404238
-0.00403939
-2.2782e-05
-2.17524e-05
0.00403623
-0.00403284
-2.57859e-05
-2.45363e-05
0.00402925
-0.00402541
-2.92295e-05
-2.77269e-05
0.00402134
-0.00401698
-3.31826e-05
-3.1389e-05
0.00401236
-0.0040074
-3.7727e-05
-3.55983e-05
0.00400215
-0.00399652
-4.29569e-05
-4.04421e-05
0.00399054
-0.00398413
-4.89799e-05
-4.60214e-05
0.00397732
-0.00397002
-5.59173e-05
-5.24505e-05
0.00396226
-0.00395394
-6.39021e-05
-5.98566e-05
0.00394511
-0.00393563
-7.30769e-05
-6.8378e-05
0.00392557
-0.00391479
-8.359e-05
-7.81608e-05
0.00390335
-0.0038911
-9.55884e-05
-8.9354e-05
0.00387811
-0.00386424
-0.000109205
-0.000102099
0.00384955
-0.00383388
-0.000124526
-0.000116508
0.00381735
-0.00376078
-0.000141636
-0.000132678
0.00370496
-0.00362355
-0.000112554
-0.00010051
-9.19739e-05
3.9979e-05
-0.00355999
-0.00360467
-0.000110858
7.01712e-05
-0.00369199
-0.00404888
-0.000515091
5.3774e-05
-0.00365225
0.00413587
-0.00414538
3.74082e-05
0.004133
-1.01153e-05
3.921e-05
-3.356e-05
0.00410088
4.94565e-05
0.00408788
4.81944e-06
-0.00377186
2.74734e-05
-0.00375335
-5.86567e-05
-0.00382845
5.23813e-05
-0.00373639
7.96665e-05
-0.00372156
0.000109283
-0.00362442
-8.28526e-05
9.45637e-05
-0.0035717
-0.000142971
-0.00354455
-0.00377085
-0.00394841
0.00378075
-0.000320144
-0.000449328
0.000553835
-0.00415338
0.00409583
-0.00423871
-0.000306445
-0.000367674
-0.00365806
0.00373553
-0.000197435
-0.000194758
-0.00382328
0.00387852
-9.57498e-05
-0.000122223
-0.00389089
0.00390262
-0.000114356
-0.00012186
-0.00391368
0.00392417
-0.000100134
-0.000106884
-0.00393401
0.00394332
-8.74964e-05
-9.35049e-05
-0.00395205
0.0039603
-7.6363e-05
-8.16756e-05
-0.00396802
0.0039753
-6.66147e-05
-7.12915e-05
-0.00398211
0.00398854
-5.81128e-05
-6.22218e-05
-0.00399455
0.00400022
-5.07157e-05
-5.43248e-05
-0.00400551
0.00401052
-4.42872e-05
-4.74609e-05
-0.00401519
0.0040196
-3.87019e-05
-4.1499e-05
-0.00402373
0.00402762
-3.38476e-05
-3.63205e-05
-0.00403127
0.00403471
-2.96243e-05
-3.18194e-05
-0.00403793
0.00404098
-2.5945e-05
-2.79025e-05
-0.00404383
0.00404653
-2.27344e-05
-2.4489e-05
-0.00404906
0.00405145
-1.99285e-05
-2.15093e-05
-0.00405369
0.00405581
-1.74725e-05
-1.89046e-05
-0.0040578
0.00405968
-1.53197e-05
-1.66243e-05
-0.00406145
0.00406313
-1.34301e-05
-1.46254e-05
-0.0040647
0.00406619
-1.17695e-05
-1.28709e-05
-0.0040676
0.00406893
-1.0308e-05
-1.13291e-05
-0.00407018
0.00407138
-9.01739e-06
-9.9717e-06
-0.00410149
0.00411719
2.02702e-05
-8.77266e-06
4.38464e-05
1.70714e-05
-4.32565e-05
0.0041315
-2.81001e-05
-1.41572e-06
0.00413668
0.00412065
-1.88664e-06
9.63254e-07
0.00409109
0.00407632
-3.60366e-08
-8.9879e-07
0.00409029
0.00407606
1.82935e-06
-2.75852e-06
0.00408985
0.00407602
-4.43903e-05
3.15472e-05
0.00413383
0.00407618
0.00412942
0.00413427
-0.004136
2.22828e-05
-0.0041261
0.00410875
5.77463e-05
4.97611e-05
0.00410328
-0.00407141
-1.00489e-05
-9.96455e-06
0.00407023
-0.00406897
-1.124e-05
-1.10663e-05
0.00406764
-0.00406623
-1.25918e-05
-1.232e-05
0.00406474
-0.00406315
-1.41275e-05
-1.37434e-05
0.00406149
-0.0040597
-1.58747e-05
-1.53629e-05
0.00405782
-0.0040558
-1.78647e-05
-1.72078e-05
0.00405368
-0.00405141
-2.01334e-05
-1.93116e-05
0.00404902
-0.00404645
-2.27223e-05
-2.17126e-05
0.00404375
-0.00404085
-2.56801e-05
-2.44557e-05
0.0040378
-0.00403452
-2.90639e-05
-2.75936e-05
0.00403106
-0.00402735
-3.29406e-05
-3.11877e-05
0.00402342
-0.00401922
-3.73878e-05
-3.53101e-05
0.00401477
-0.00401
-4.24962e-05
-4.00447e-05
0.00400496
-0.00399954
-4.83696e-05
-4.54884e-05
0.00399381
-0.00398767
-5.51265e-05
-5.17521e-05
0.00398116
-0.00397417
-6.28994e-05
-5.89614e-05
0.00396678
-0.00395885
-7.18329e-05
-6.72549e-05
0.00395044
-0.00394144
-8.20813e-05
-7.67827e-05
0.0039319
-0.00392168
-9.38023e-05
-8.77017e-05
0.00391087
-0.00389931
-0.000107149
-0.000100169
0.00388708
-0.00387402
-0.000122257
-0.00011433
0.00386023
-0.00384553
-0.000139223
-0.000130305
0.00383003
-0.00381356
-0.000158105
-0.000148176
0.00374614
-0.00367978
-0.000178907
-0.000167939
0.00364131
-0.00362899
-0.000155296
-0.00014933
-0.000317094
0.000105449
-0.00360405
-0.00368791
-0.000111888
0.000124327
-0.00355699
-0.00355506
-0.000185814
1.64034e-05
-0.00365462
4.3277e-05
0.0040883
0.00414394
1.42637e-05
0.000249863
-0.00418572
-0.000302855
5.60096e-06
-0.00374999
0.000343324
-0.00424685
3.47068e-07
-0.00371125
2.94556e-05
-0.00373042
1.55703e-05
-0.00373858
5.58504e-05
-0.00371258
8.48189e-05
-0.00369709
0.00011622
-0.00364607
0.00011124
-0.00355862
-0.000153099
0.000130533
-0.00353442
-0.000169568
-0.00353859
-0.00374884
-0.00419122
0.00404076
-0.00015598
-0.000408948
-0.00410252
0.000325748
0.00428649
-0.00416264
-0.000532794
-0.000207591
-0.00394316
0.00387191
-0.000248895
-0.000270076
-0.00384866
0.00381275
-0.000161525
-0.000171503
-0.00384202
0.00388886
-0.000142597
-0.000151493
-0.00390054
0.0039116
-0.000125413
-0.00013354
-0.003922
0.00393184
-0.000109981
-0.000117278
-0.00394109
0.00394985
-9.62525e-05
-0.000102755
-0.00395806
0.00396584
-8.41346e-05
-8.98913e-05
-0.00397312
0.00398001
-7.35008e-05
-7.85756e-05
-0.00398646
0.00399255
-6.42073e-05
-6.86704e-05
-0.00399825
0.00400364
-5.61065e-05
-6.00289e-05
-0.00400869
0.00401346
-4.90549e-05
-5.25048e-05
-0.00401792
0.00402213
-4.29195e-05
-4.59593e-05
-0.00402608
0.00402981
-3.75799e-05
-4.0266e-05