/*--------------------------------*- C++ -*----------------------------------*\
  =========                 |
  \\      /  F ield         | OpenFOAM: The Open Source CFD Toolbox
   \\    /   O peration     | Website:  https://openfoam.org
    \\  /    A nd           | Version:  10
     \\/     M anipulation  |
\*---------------------------------------------------------------------------*/
FoamFile
{
    format      ascii;
    class       volScalarField;
    location    "85";
    object      p;
}
// * * * * * * * * * * * * * * * * * * * * * * * * * * * * * * * * * * * * * //

dimensions      [0 2 -2 0 0 0 0];

internalField   nonuniform List<scalar> 
28942
(
-0.00375207
-0.00312677
0.00204647
0.0095021
0.009802
7.64536e-05
0.000261379
1.71834e-05
0.00272636
0.00281421
-0.00229464
-0.00256327
-0.00294561
-0.00286316
0.000175013
0.000465917
0.0098932
0.0101632
0.00559731
0.00715713
0.00816501
0.00815665
-0.00519838
-0.00502393
-0.0035528
-0.00377681
0.0138917
0.0138408
0.00355107
0.0034937
1.2803e-05
4.59565e-05
0.000707137
0.000285037
0.00715586
0.00836153
0.0108993
0.0128578
-1.2859e-05
0.0150524
0.0091022
0.0116002
0.00174555
0.00165632
0.00171999
0.000264506
0.000136042
0.000209839
0.000243184
0.000341041
0.000660325
0.00279682
0.00286808
0.0028591
0.00301397
-0.00232433
-0.00102263
-0.00335208
-0.00319788
-0.00346837
-0.00354153
-0.0035422
-0.00344037
-8.98173e-05
-0.00178859
-0.000336596
0.00099322
0.0094374
0.00894106
-0.00334426
-0.00355381
-0.00328914
0.00900342
0.00885487
0.00914731
-0.00145751
-0.00107006
-0.000732208
0.00237987
0.00277914
0.00187101
0.000777048
-0.0062914
-0.00751891
0.00109842
0.00382324
0.00486448
0.00565157
0.00403644
0.00415898
0.00612553
0.00550489
-0.00137894
-0.00166797
-0.00194541
-0.00178493
-0.00161167
0.00534692
0.00663762
-0.00783027
0.0112993
0.0105003
0.00579422
0.00939101
0.00091394
0.000819588
0.000731065
0.00548466
0.0056774
0.00567152
-0.00319584
-0.00311666
-0.00310942
-0.00259305
-0.0027163
0.0158449
0.0138404
0.0132815
0.0149124
0.00165827
0.00473688
0.00343561
0.00508959
0.0047665
0.015518
0.015813
0.0144717
0.00593087
0.0070096
0.00017134
0.000266133
9.47757e-05
0.0105144
0.011017
0.00767956
0.00733164
0.0127888
0.00671541
0.00800531
0.00906431
-0.00188366
-0.00239105
0.00737487
0.00166279
0.00175195
-0.00114904
-0.00141122
-0.000954695
-0.00249051
0.00660696
0.00573441
0.00372884
0.000244769
0.000192739
7.22344e-05
0.000194079
0.00754326
0.00680668
-0.0018439
-0.00196104
-0.00185611
-0.00411715
-0.00366299
5.40884e-05
-0.00282721
-0.000475253
0.0084072
0.00851617
0.00961034
0.00914563
0.00772334
0.00309086
0.00300818
0.00326566
0.00314136
0.00505428
0.00483214
0.0051673
0.0053878
0.00532587
0.00539713
0.00560834
0.00616245
0.00585645
0.00545447
0.00578462
0.00649029
0.0072442
0.00753616
-0.000561565
-0.000542313
-0.00245195
0.00019515
4.88922e-05
-0.00197458
-0.00206284
0.000265577
0.000327339
0.000292106
0.000225843
0.00175901
0.00171002
0.00169244
-0.00289458
-0.00308103
-0.00274602
-0.00431178
-0.00479322
-0.00410572
-0.00469226
-0.00645639
-0.00515587
0.0160386
0.0167488
0.0165162
0.000946957
0.00109173
0.000980693
0.0103652
0.00993726
0.0100175
0.00140371
0.00138799
0.00141964
0.0013718
0.00135655
0.0013407
0.00134089
0.00132465
0.00132484
0.00135686
0.00137234
0.00138786
0.00140372
0.00142022
0.00130915
0.00130836
0.00143507
0.00143519
0.00144982
0.00129327
0.00129241
0.00145037
0.00127697
0.00126081
0.00127676
0.00126095
0.00146692
0.00146709
0.00124482
0.001245
0.00148226
0.00148266
0.00122881
0.00122908
0.0014977
0.00149814
0.00121285
0.0012131
0.00151311
0.00151363
0.00119685
0.00119717
0.00152849
0.00152903
0.00118087
0.0011812
0.00154394
0.00154449
0.00116482
0.00116525
0.0015597
0.00156008
0.0011488
0.001149
0.00157456
0.00157514
0.00113263
0.00113253
0.00159084
0.00159101
0.00111608
0.00111582
0.00160553
0.00160564
0.00109849
0.00109907
0.001621
0.00162087
0.00108168
0.00108251
0.00160485
0.00162033
0.00163652
0.00163622
0.00157272
0.00158959
0.00154192
0.00155786
0.00151188
0.00152702
0.00148106
0.00149654
0.00144928
0.00146548
0.00141837
0.00143526
0.00138763
0.00140347
0.00135572
0.0013705
0.00132305
0.00133959
0.00129151
0.00130737
0.00125973
0.00127567
0.00122787
0.00124383
0.00119597
0.00121195
0.00116403
0.00118004
0.00113206
0.00114807
0.00109868
0.00111594
0.00108184
0.0010649
0.00106532
0.00111581
0.00108208
0.0010987
0.0011487
0.00113204
0.00118066
0.00116482
0.00121252
0.00119661
0.00124441
0.00122849
0.00127628
0.00126038
0.00130792
0.0012922
0.00133992
0.00132418
0.00137217
0.00135616
0.00140283
0.00138729
0.00143494
0.00142009
0.00146652
0.0014503
0.00149755
0.0014821
0.00152833
0.00151303
0.00155896
0.00154359
0.00158972
0.00157399
0.00161949
0.00160481
0.00163488
0.00163643
0.00106464
0.00106528
0.00165096
0.00164926
0.00165222
0.0016516
0.00160319
0.0016351
0.00161884
0.00157114
0.00158757
0.00154069
0.00155557
0.00151041
0.00152566
0.00147958
0.00149505
0.00144837
0.00146402
0.00141664
0.00143291
0.00138557
0.00140206
0.00135482
0.00136916
0.00132195
0.00133842
0.00129026
0.00130612
0.00125851
0.00127441
0.00122668
0.00124262
0.00119484
0.00121078
0.00116298
0.00117892
0.00113123
0.00114709
0.00109823
0.0011149
0.00104784
0.00104802
0.00106397
0.00108107
0.00108133
0.00106492
0.00104809
0.00104812
0.00111553
0.001098
0.00114782
0.00113129
0.00117951
0.00116366
0.00121134
0.00119543
0.00124319
0.00122728
0.00127507
0.00125914
0.00130693
0.00129104
0.00133869
0.00132286
0.00137072
0.00135458
0.00140186
0.00138619
0.00143341
0.00141842
0.00146503
0.00144931
0.00149617
0.00148066
0.00152701
0.00151165
0.00155754
0.00154234
0.00158769
0.00157268
0.00161744
0.00160255
0.00164633
0.00163233
0.001651
0.0016641
0.00166137
0.00166511
0.00104732
0.00104761
0.00166625
0.00166512
0.00167872
0.00167651
0.00166618
0.00106364
0.00104608
0.00103097
0.00103047
0.00166385
0.0016812
0.00170504
0.00168605
0.00163255
0.0016486
0.00160048
0.0016162
0.00156898
0.00158525
0.0015386
0.00155331
0.00150835
0.0015236
0.00147755
0.001493
0.00144642
0.00146203
0.00141507
0.00143078
0.0013837
0.00139951
0.00135224
0.00136784
0.00132041
0.00133644
0.00128861
0.0013045
0.00125684
0.00127274
0.00122504
0.00124095
0.00119324
0.00120915
0.00116145
0.00117735
0.0011298
0.0011456
0.00109712
0.00111348
0.00108023
0.00103125
0.00103049
0.00103088
0.00103133
0.0010805
0.00104669
0.00106406
0.00111442
0.00109739
0.00114615
0.00112998
0.00117784
0.001162
0.00120962
0.00119374
0.00124142
0.00122553
0.00127324
0.00125734
0.00130507
0.00128917
0.00133685
0.00132097
0.00136854
0.00135274
0.00140013
0.00138433
0.00143156
0.00141598
0.00146296
0.00144731
0.00149409
0.00147858
0.00152491
0.00150956
0.00155539
0.00154022
0.00158534
0.00157048
0.00161465
0.00160002
0.00164356
0.00162914
0.00167293
0.00165758
0.00168998
0.00168695
0.0016807
0.00167935
0.00102943
0.00102992
0.00169294
0.00169251
0.00169703
0.0017007
0.00170298
0.00163072
0.00170593
0.00168091
0.00168853
0.00168579
0.00166331
0.00168082
0.00162827
0.00164565
0.00159702
0.00161209
0.00156618
0.00158223
0.00153604
0.00155102
0.00150565
0.00152092
0.00147488
0.00149031
0.00144382
0.00145939
0.00141259
0.00142824
0.00138122
0.00139693
0.00134968
0.00136545
0.00131805
0.00133393
0.00128632
0.00130219
0.00125459
0.00127047
0.00122285
0.00123873
0.00119111
0.00120699
0.00115939
0.00117525
0.00112779
0.00114357
0.00109556
0.00111163
0.00106259
0.00107896
0.00102841
0.00104526
0.00101389
0.00101145
0.00101281
0.0010148
0.00101434
0.00101472
0.00101489
0.00101342
0.00101419
0.00104558
0.00101179
0.00102965
0.00107905
0.0010627
0.00111245
0.00109617
0.00114398
0.00112816
0.00117567
0.00115983
0.00120739
0.00119154
0.00123913
0.00122327
0.00127089
0.00125502
0.00130264
0.00128678
0.00133437
0.00131852
0.00136601
0.00135023
0.00139758
0.00138181
0.001429
0.00141334
0.0014603
0.00144469
0.00149137
0.00147589
0.00152214
0.00150682
0.00155254
0.00153741
0.00158241
0.00156758
0.00161152
0.00159707
0.0016399
0.00162585
0.00166843
0.0016539
0.00169663
0.00168161
0.00171378
0.00170975
0.00169379
0.00169373
0.00171036
0.0017036
0.00102711
0.00101075
0.000996672
0.000995664
0.00170262
0.00171619
0.00174179
0.00165721
0.00172451
0.00172171
0.00170074
0.00169414
0.00167653
0.00167295
0.00165827
0.00167232
0.00162334
0.00164066
0.00159341
0.0016083
0.00156306
0.00157842
0.00153274
0.00154788
0.0015023
0.00151757
0.00147158
0.00148699
0.0014406
0.00145614
0.00140944
0.00142506
0.00137812
0.00139381
0.00134667
0.00136241
0.00131511
0.00133093
0.00128347
0.0012993
0.00125181
0.00126765
0.00122015
0.00123599
0.00118848
0.00120432
0.00115682
0.00117266
0.00112519
0.00114101
0.00109362
0.00110938
0.00106049
0.00107709
0.00104362
0.000997393
0.000995095
0.000996793
0.000998843
0.000998312
0.00099834
0.00099885
0.000997612
0.00104406
0.00100991
0.00102884
0.00107753
0.00106096
0.00110983
0.00109413
0.0011414
0.00112561
0.00117302
0.00115722
0.00120467
0.00118886
0.00123634
0.00122052
0.00126802
0.00125219
0.00129969
0.00128387
0.00133135
0.00131554
0.00136293
0.00134717
0.00139443
0.00137871
0.00142581
0.00141016
0.00145704
0.00144146
0.00148804
0.00147259
0.00151873
0.00150345
0.00154904
0.00153397
0.00157883
0.00156404
0.00160791
0.00159349
0.00163613
0.00162217
0.00166381
0.0016502
0.0016905
0.00167571
0.00171747
0.00170551
0.00173271
0.00172802
0.00170799
0.00170544
0.000993016
0.000993804
0.00171181
0.00167479
0.0016967
0.00171662
0.0017263
0.00175078
0.00173181
0.00173888
0.00173562
0.00174361
0.00174123
0.00170616
0.0016738
0.0017401
0.00171036
0.0016672
0.0016671
0.00164999
0.00166449
0.00161877
0.00163414
0.00158901
0.00160392
0.00155893
0.00157405
0.00152871
0.00154383
0.00149833
0.00151357
0.00146768
0.00148305
0.00143679
0.00145228
0.00140571
0.00142129
0.00137448
0.00139013
0.00134311
0.00135882
0.00131164
0.00132741
0.0012801
0.00129589
0.00124853
0.00126433
0.00121695
0.00123276
0.00118537
0.00120117
0.00115379
0.00116959
0.00112222
0.00113802
0.00109068
0.00110645
0.00105865
0.00107494
0.00102485
0.00104186
0.000991458
0.00100833
0.000978798
0.000974653
0.000976885
0.000981809
0.000980289
0.000983191
0.000982791
0.000982831
0.000983169
0.000980715
0.000981977
0.000977623
0.000979261
0.00100875
0.000975793
0.00099203
0.00104223
0.00102612
0.00107541
0.00105911
0.00110685
0.00109116
0.00113838
0.00112263
0.00116992
0.00115417
0.00120148
0.00118572
0.00123306
0.00121729
0.00126465
0.00124887
0.00129624
0.00128047
0.00132781
0.00131205
0.00135931
0.00134359
0.00139074
0.00137506
0.00142204
0.00140643
0.00145318
0.00143766
0.0014841
0.0014687
0.00151471
0.00149947
0.00154493
0.0015299
0.00157462
0.00155987
0.00160364
0.00158924
0.00163184
0.00161787
0.00165911
0.0016457
0.00168551
0.0016721
0.00171053
0.00169885
0.00173507
0.00172084
0.00175374
0.00174881
0.00171524
0.00173179
0.00171474
0.00098902
0.000972949
0.000961146
0.000959014
0.00171667
0.00172771
0.00172398
0.00173703
0.00174572
0.00175696
0.00176442
0.00176033
0.00171621
0.00172761
0.00173966
0.0017334
0.00173206
0.00167976
0.00170497
0.00166052
0.00166607
0.00164225
0.00165569
0.00161307
0.00162758
0.00158381
0.00159853
0.00155406
0.00156901
0.00152402
0.00153908
0.00149375
0.00150894
0.00146321
0.00147853
0.00143242
0.00144786
0.00140144
0.00141697
0.0013703
0.00138591
0.00133904
0.0013547
0.00130768
0.00132339
0.00127624
0.00129198
0.00124478
0.00126053
0.0012133
0.00122906
0.00118181
0.00119757
0.00115034
0.00116609
0.00111886
0.00113461
0.00108739
0.00110313
0.00105613
0.00107174
0.00102272
0.00103967
0.00100559
0.000963114
0.00095811
0.00096118
0.000966369
0.000964885
0.000967463
0.000967111
0.000967072
0.000967452
0.000964794
0.000966144
0.000963079
0.00100708
0.000973528
0.000990081
0.00104009
0.00102388
0.00107213
0.00105648
0.00110352
0.00108782
0.00113496
0.00111926
0.0011664
0.0011507
0.00119786
0.00118215
0.00122933
0.00121361
0.00126082
0.0012451
0.00129231
0.00127659
0.00132377
0.00130807
0.00135519
0.00133951
0.00138652
0.00137089
0.00141773
0.00140217
0.00144878
0.0014333
0.0014796
0.00146425
0.00151011
0.00149492
0.00154021
0.00152524
0.0015698
0.0015551
0.00159872
0.00158438
0.00162686
0.00161292
0.00165406
0.00164064
0.00168023
0.00166726
0.00170457
0.00169284
0.00172935
0.00171571
0.00175318
0.00174037
0.00175598
0.00174496
0.00177083
0.00176519
0.00172225
0.000955895
0.000956977
0.00173721
0.00172756
0.00174822
0.00172957
0.00173894
0.0017488
0.0017492
0.00175905
0.00176709
0.00177455
0.00178154
0.00177682
0.00172597
0.00172373
0.00175671
0.00175672
0.00173154
0.00171615
0.00172606
0.00167981
0.00169578
0.00165526
0.00166525
0.0016346
0.0016472
0.00160672
0.00162078
0.00157797
0.00159247
0.00154856
0.00156335
0.00151873
0.0015337
0.0014886
0.00150372
0.00145819
0.00147345
0.00142752
0.0014429
0.00139666
0.00141213
0.00136563
0.00138118
0.00133448
0.00135009
0.00130324
0.00131889
0.00127192
0.0012876
0.00124058
0.00125627
0.00120921
0.00122491
0.00117784
0.00119354
0.00114647
0.00116217
0.00111511
0.0011308
0.00108374
0.00109944
0.00105245
0.00106808
0.00102049
0.00103685
0.000986621
0.00100333
0.000953688
0.00097079
0.000942472
0.000937173
0.000940016
0.000947495
0.000944813
0.000950589
0.000949436
0.000951703
0.000951318
0.000951338
0.000951707
0.000949305
0.000950582
0.000945974
0.000947471
0.000941206
0.000943898
0.000971136
0.000938506
0.000954849
0.00100518
0.000987377
0.00103711
0.00102166
0.0010685
0.00105285
0.00109984
0.00108419
0.00113116
0.00111552
0.00116248
0.00114684
0.00119382
0.00117817
0.00122518
0.00120952
0.00125656
0.00124089
0.00128793
0.00127227
0.00131928
0.00130364
0.00135059
0.00133497
0.00138181
0.00136624
0.00141292
0.00139741
0.00144385
0.00142844
0.00147456
0.00145927
0.00150495
0.00148983
0.00153494
0.00152003
0.0015644
0.00154977
0.00159322
0.00157893
0.00162126
0.00160737
0.00164836
0.00163497
0.00167442
0.00166154
0.00169886
0.00168694
0.00172251
0.00171073
0.00174515
0.00173303
0.00176887
0.00175802
0.00175855
0.00175881
0.00178281
0.0017741
0.00173449
0.00173911
0.00176284
0.00176876
0.00175832
0.00174591
0.00175061
0.000951458
0.000934396
0.000924679
0.000922375
0.00176015
0.00176079
0.00176984
0.00177665
0.00178388
0.00178801
0.00176717
0.0017663
0.0017702
0.00179126
0.00178937
0.00178223
0.00173779
0.00175366
0.00175231
0.00171684
0.00172981
0.00170511
0.00171578
0.00167451
0.00168829
0.00165045
0.00166192
0.00162703
0.00163948
0.00159993
0.0016137
0.0015716
0.0015859
0.00154249
0.00155714
0.00151289
0.00152776
0.00148292
0.00149797
0.00145265
0.00146784
0.00142212
0.00143743
0.00139139
0.0014068
0.00136049
0.00137598
0.00132947
0.00134502
0.00129835
0.00131394
0.00126717
0.00128279
0.00123595
0.00125158
0.00120471
0.00122035
0.00117347
0.00118911
0.00114223
0.00115786
0.00111099
0.00112662
0.00107975
0.00109539
0.0010485
0.00106414
0.00101739
0.00103296
0.000984002
0.00100095
0.00096787
0.000927484
0.00092163
0.000924937
0.000932078
0.000929741
0.000934762
0.00093365
0.000935933
0.000935532
0.000935589
0.00093595
0.000933828
0.000934881
0.000930082
0.000932204
0.000927603
0.000968712
0.000935824
0.000952217
0.00100248
0.000985402
0.0010334
0.00101795
0.00106462
0.00104903
0.00109582
0.00108025
0.00112701
0.00111144
0.0011582
0.00114262
0.00118941
0.00117383
0.00122064
0.00120505
0.00125189
0.00123629
0.00128314
0.00126754
0.00131436
0.00129878
0.00134554
0.00132999
0.00137665
0.00136114
0.00140763
0.00139218
0.00143844
0.00142309
0.00146902
0.00145379
0.00149928
0.00148422
0.00152913
0.00151429
0.00155847
0.0015439
0.00158716
0.00157294
0.00161509
0.00160126
0.00164209
0.00162875
0.00166803
0.00165523
0.00169261
0.00168055
0.00171598
0.00170449
0.00173829
0.00172717
0.00175843
0.00174922
0.00178181
0.00176551
0.00177222
0.00179326
0.0018023
0.00180068
0.0017958
0.00178121
0.0017646
0.00176573
0.00174807
0.00175092
0.000918657
0.00091977
0.00178023
0.00175939
0.00176206
0.00176846
0.0017718
0.00177998
0.00178708
0.00179061
0.00179316
0.00177755
0.00177005
0.00177388
0.00178644
0.00179705
0.00180498
0.00178283
0.00178922
0.00179245
0.00180295
0.00180803
0.00175015
0.00176297
0.00175997
0.00174026
0.00174534
0.00171268
0.00172654
0.00169464
0.00170488
0.0016685
0.00168159
0.00164405
0.00165607
0.00161953
0.00163212
0.00159276
0.00160636
0.00156474
0.00157889
0.00153591
0.00155043
0.00150653
0.0015213
0.00147674
0.0014917
0.00144663
0.00146175
0.00141626
0.00143149
0.00138567
0.00140101
0.00135492
0.00137033
0.00132403
0.00133951
0.00129306
0.00130858
0.00126202
0.00127757
0.00123094
0.0012465
0.00119984
0.00121541
0.00116874
0.00118431
0.00113763
0.0011532
0.00110653
0.0011221
0.00107543
0.001091
0.00104432
0.0010599
0.00101323
0.00102877
0.000981312
0.000997673
0.000948964
0.000964791
0.000915815
0.000931667
0.000905704
0.000900185
0.000902754
0.000912004
0.000908722
0.000916386
0.000914585
0.000918973
0.000917842
0.000920148
0.000919749
0.000919814
0.00092017
0.000918021
0.000919094
0.000914109
0.000916413
0.000909162
0.000911625
0.000903879
0.000906619
0.000932797
0.000900334
0.000917785
0.000966599
0.000949187
0.000998458
0.000982948
0.00102939
0.00101391
0.00106046
0.00104495
0.0010915
0.001076
0.00112253
0.00110704
0.00115358
0.00113808
0.00118466
0.00116914
0.00121575
0.00120022
0.00124685
0.00123132
0.00127796
0.00126243
0.00130905
0.00129353
0.00134009
0.0013246
0.00137106
0.00135561
0.0014019
0.00138653
0.00143257
0.00141729
0.00146301
0.00144786
0.00149313
0.00147814
0.00152284
0.00150807
0.00155204
0.00153754
0.0015806
0.00156644
0.00160839
0.00159463
0.00163528
0.00162199
0.00166112
0.00164837
0.00168569
0.00167361
0.00170902
0.00169755
0.00173105
0.00172025
0.00175066
0.00174136
0.00176931
0.00176006
0.0017717
0.00177807
0.00178579
0.00180867
0.00180282
0.00176099
0.0017625
0.00177737
0.00176985
0.00177307
0.000912708
0.000897496
0.000888116
0.000884663
0.00178021
0.00178223
0.00178992
0.00179569
0.00180001
0.00180478
0.00178377
0.00177697
0.00179349
0.00179446
0.0017993
0.00179108
0.0017979
0.00181218
0.00180957
0.00180606
0.00181385
0.00176213
0.00176613
0.00175503
0.0017497
0.001759
0.0017279
0.00173851
0.00170678
0.00171781
0.00168597
0.00169675
0.00166139
0.00167391
0.0016368
0.00164904
0.00161181
0.00162453
0.00158521
0.00159871
0.00155745
0.00157147
0.00152887
0.00154327
0.00149971
0.00151437
0.00147011
0.00148498
0.00144017
0.0014552
0.00140996
0.00142512
0.00137953
0.00139479
0.00134893
0.00136427
0.0013182
0.0013336
0.00128738
0.00130282
0.0012565
0.00127196
0.00122557
0.00124106
0.00119462
0.00121012
0.00116367
0.00117917
0.00113272
0.00114821
0.00110177
0.00111726
0.00107082
0.00108631
0.00103986
0.00105536
0.00100887
0.00102438
0.00097797
0.00099344
0.000945766
0.000961608
0.000928694
0.000890185
0.000884249
0.000887697
0.000896656
0.000893476
0.000900601
0.00089885
0.000903191
0.000902066
0.000904349
0.000903954
0.00090404
0.000904378
0.000902315
0.000903342
0.000899301
0.000901001
0.000893815
0.000896784
0.000890681
0.000929841
0.000897261
0.000915017
0.000963661
0.000946527
0.000994285
0.000978973
0.00102514
0.00100973
0.00105602
0.0010406
0.00108689
0.00107147
0.00111777
0.00110235
0.00114866
0.00113324
0.00117958
0.00116414
0.00121052
0.00119507
0.00124147
0.00122602
0.00127243
0.00125698
0.00130336
0.00128793
0.00133426
0.00131885
0.00136507
0.00134971
0.00139577
0.00138047
0.00142629
0.00141108
0.00145657
0.0014415
0.00148654
0.00147163
0.0015161
0.00150141
0.00154514
0.00153072
0.00157356
0.00155947
0.00160122
0.00158753
0.00162798
0.00161476
0.00165371
0.00164102
0.00167822
0.00166616
0.00170145
0.00169003
0.00172326
0.00171258
0.00174298
0.00173348
0.0017604
0.0017522
0.00177483
0.00176722
0.00179447
0.00178613
0.00181054
0.00180436
0.00179214
0.00178717
0.00178552
0.00177194
0.00177355
0.000880831
0.000881725
0.00179562
0.00178048
0.00178357
0.00179086
0.00179213
0.00179907
0.00180442
0.00180854
0.00181073
0.00179748
0.00178679
0.00178642
0.00179505
0.00179476
0.00180899
0.00179683
0.00180942
0.0018
0.00180745
0.00179771
0.00181748
0.00181858
0.00181678
0.0018135
0.0017732
0.00177487
0.00178532
0.00175469
0.00175055
0.00173752
0.00175018
0.00171949
0.00172875
0.00169891
0.00170948
0.00167739
0.00168841
0.0016535
0.00166566
0.00162897
0.00164129
0.00160378
0.00161655
0.00157729
0.00159071
0.00154975
0.00156366
0.0015214
0.00153569
0.00149246
0.00150702
0.00146306
0.00147783
0.0014333
0.00144824
0.00140326
0.00141833
0.001373
0.00138818
0.00134257
0.00135782
0.00131201
0.00132732
0.00128135
0.00129671
0.00125063
0.00126602
0.00121987
0.00123527
0.00118909
0.0012045
0.0011583
0.00117371
0.00112751
0.00114292
0.00109672
0.00111213
0.00106594
0.00108135
0.00103515
0.00105056
0.00100433
0.00101976
0.000973503
0.000988929
0.000942867
0.000958051
0.000909325
0.000925769
0.000878012
0.000893874
0.000868437
0.000861002
0.000865034
0.000875559
0.00087177
0.000881111
0.000878817
0.000884859
0.000883111
0.000887399
0.000886302
0.000888536
0.000888145
0.000888251
0.000888571
0.000886584
0.000887584
0.000883712
0.000885291
0.000879503
0.000881823
0.000872392
0.000876078
0.000866009
0.000869205
0.000894421
0.000862944
0.000879243
0.000926735
0.000911367
0.000959603
0.000943516
0.00098997
0.000974718
0.00102064
0.00100533
0.00105133
0.001036
0.00108202
0.0010667
0.00111273
0.0010974
0.00114346
0.00112812
0.00117421
0.00115886
0.00120499
0.00118962
0.00123578
0.00122041
0.00126657
0.0012512
0.00129735
0.00128199
0.00132808
0.00131275
0.00135873
0.00134345
0.00138926
0.00137405
0.00141962
0.0014045
0.00144974
0.00143475
0.00147954
0.00146472
0.00150894
0.00149433
0.00153783
0.00152349
0.00156609
0.00155208
0.00159361
0.00157998
0.00162024
0.00160708
0.00164584
0.00163321
0.00167026
0.00165824
0.00169337
0.00168202
0.001715
0.00170442
0.00173471
0.00172517
0.00175224
0.00174385
0.00176768
0.00175998
0.00178189
0.00177602
0.00178227
0.00179767
0.00179981
0.00181321
0.00180779
0.00178252
0.00178412
0.0018025
0.00179069
0.00179355
0.000874684
0.000858025
0.000850678
0.000847827
0.00180098
0.00180142
0.00180773
0.00181257
0.00181586
0.00181756
0.00178616
0.00177893
0.00177897
0.00178925
0.00179849
0.00180822
0.00181541
0.00180625
0.00181065
0.00182356
0.00182242
0.00181771
0.00181607
0.00179906
0.00180391
0.00178382
0.00177919
0.00177356
0.0017611
0.00177544
0.00174337
0.00175003
0.00172887
0.00173759
0.0017107
0.00172001
0.00169026
0.00170073
0.00166857
0.00167964
0.00164509
0.00165703
0.00162066
0.00163298
0.0015954
0.00160819
0.00156903
0.00158237
0.00154168
0.00155549
0.00151355
0.00152772
0.00148482
0.00149927
0.00145561
0.00147029
0.00142605
0.00144089
0.00139619
0.00141117
0.00136611
0.0013812
0.00133586
0.00135103
0.00130547
0.0013207
0.00127499
0.00129026
0.00124445
0.00125975
0.00121386
0.00122918
0.00118325
0.00119858
0.00115264
0.00116797
0.00112203
0.00113735
0.00109142
0.00110674
0.00106081
0.00107613
0.0010302
0.00104553
0.000999586
0.00101491
0.000968955
0.000984284
0.000938701
0.000953733
0.000906138
0.00092266
0.000889681
0.00085376
0.000845634
0.000850339
0.000860866
0.00085732
0.000865441
0.0008633
0.000869131
0.000867419
0.000871596
0.000870529
0.000872709
0.000872325
0.000872441
0.000872748
0.000870812
0.000871793
0.000867902
0.00086951
0.000863827
0.00086603
0.000857346
0.000860917
0.000853851
0.000891755
0.000859608
0.000876657
0.000923728
0.000907597
0.000955025
0.000939811
0.000985425
0.000970211
0.00101591
0.00100069
0.00104641
0.00103118
0.00107692
0.00106169
0.00110745
0.00109221
0.00113801
0.00112275
0.00116858
0.00115332
0.00119918
0.00118391
0.0012298
0.00121452
0.00126042
0.00124514
0.00129102
0.00127575
0.00132158
0.00130634
0.00135206
0.00133686
0.00138242
0.00136729
0.0014126
0.00139757
0.00144255
0.00142764
0.00147218
0.00145744
0.0015014
0.00148688
0.00153012
0.00151587
0.00155823
0.00154429
0.00158559
0.00157204
0.00161208
0.00159899
0.00163756
0.00162499
0.00166187
0.00164991
0.00168487
0.00167358
0.00170636
0.00169586
0.00172602
0.00171648
0.00174361
0.00173514
0.00175926
0.00175158
0.00177222
0.00176649
0.00178223
0.00177698
0.00179608
0.00178462
0.00180291
0.00179511
0.00178893
0.00180652
0.00180824
0.00179265
0.00179416
0.000842335
0.000844064
0.00180718
0.00180048
0.00180294
0.00181008
0.00181017
0.00181587
0.00181997
0.00182257
0.00182362
0.00178285
0.00177367
0.00176854
0.00178717
0.00178156
0.00179205
0.00178185
0.00179427
0.00179857
0.00181053
0.00181445
0.00181998
0.00181606
0.00182792
0.00182485
0.00181926
0.00181403
0.00180574
0.00179987
0.00179393
0.00177939
0.00178001
0.0017677
0.00175725
0.00174867
0.00176456
0.00173491
0.00174125
0.0017197
0.00172794
0.0017014
0.0017108
0.00168117
0.00169152
0.00165948
0.00167054
0.00163625
0.00164806
0.00161194
0.00162422
0.0015867
0.00159946
0.00156045
0.00157372
0.00153327
0.00154699
0.00150535
0.00151942
0.00147682
0.00149117
0.00144782
0.0014624
0.00141845
0.0014332
0.00138879
0.00140367
0.0013589
0.00137389
0.00132883
0.0013439
0.00129863
0.00131376
0.00126833
0.00128351
0.00123797
0.00125318
0.00120757
0.0012228
0.00117715
0.00119238
0.00114672
0.00116196
0.0011163
0.00113153
0.00108587
0.0011011
0.00105546
0.00107068
0.00102504
0.00104027
0.000994629
0.00100985
0.000964215
0.000979438
0.000933916
0.000949037
0.000902904
0.000918771
0.000871357
0.000886299
0.000839274
0.000855168
0.000831001
0.000823436
0.000827669
0.000838828
0.000834521
0.000845215
0.000842502
0.000849755
0.000847565
0.000853381
0.000851715
0.00085578
0.00085474
0.00085687
0.000856493
0.000856614
0.000856911
0.000855029
0.000855986
0.000852166
0.000853754
0.00084816
0.000850286
0.000843184
0.000845878
0.00083593
0.00083961
0.000828908
0.000832271
0.000856656
0.000825755
0.000841084
0.000888713
0.000872414
0.000920125
0.000904204
0.000950381
0.000935286
0.000980679
0.000965547
0.00101098
0.000995849
0.00104128
0.00102615
0.00107161
0.00105647
0.00110195
0.0010868
0.00113232
0.00111716
0.00116271
0.00114754
0.00119313
0.00117794
0.00122356
0.00120837
0.001254
0.00123881
0.00128442
0.00126924
0.00131479
0.00129964
0.00134509
0.00132999
0.00137527
0.00136023
0.00140527
0.00139033
0.00143503
0.00142022
0.00146448
0.00144983
0.00149353
0.00147909
0.00152207
0.0015079
0.00155001
0.00153616
0.00157722
0.00156375
0.00160357
0.00159055
0.00162892
0.00161641
0.00165312
0.00164121
0.00167601
0.00166477
0.00169739
0.00168694
0.001717
0.00170747
0.0017346
0.0017261
0.00175019
0.00174264
0.0017632
0.0017572
0.00177305
0.00176853
0.00178097
0.00177725
0.00177922
0.00181441
0.00181576
0.00179593
0.00179021
0.00180227
0.00180363
0.00181516
0.00180953
0.00181175
0.000836039
0.000819848
0.000813549
0.000809917
0.00181831
0.00181832
0.0018233
0.00182671
0.00182856
0.00182898
0.00177402
0.00176838
0.00175679
0.00176232
0.00178888
0.00179164
0.00180548
0.00180311
0.00181652
0.00182062
0.00182279
0.00183101
0.0018266
0.00182093
0.00181055
0.00180681
0.00179817
0.00178231
0.00178825
0.00180347
0.0017686
0.0017523
0.00176862
0.00177418
0.00175403
0.00175142
0.00173963
0.00175077
0.00172584
0.00173247
0.00171009
0.00171841
0.00169184
0.00170122
0.00167175
0.00168203
0.00165012
0.00166114
0.00162705
0.00163877
0.00160285
0.0016151
0.00157769
0.00159041
0.00155156
0.00156476
0.00152456
0.00153818
0.00149683
0.0015108
0.0014685
0.00148275
0.00143971
0.00145418
0.00141054
0.00142519
0.00138107
0.00139586
0.00135138
0.00136627
0.00132151
0.00133648
0.0012915
0.00130654
0.0012614
0.00127648
0.00123124
0.00124634
0.00120103
0.00121616
0.0011708
0.00118594
0.00114057
0.00115571
0.00111034
0.00112547
0.00108011
0.00109524
0.0010499
0.00106502
0.00101969
0.00103481
0.000989479
0.0010046
0.00095928
0.000974394
0.000929104
0.000944197
0.000899018
0.000914084
0.000867489
0.000882898
0.000851778
0.00081663
0.000808177
0.000813035
0.000823842
0.000820077
0.000829479
0.000826864
0.000834074
0.000831889
0.000837613
0.000835988
0.000839953
0.000838938
0.00084102
0.00084065
0.000840777
0.000841063
0.000839239
0.000840167
0.00083646
0.000838001
0.000832529
0.000834627
0.00082764
0.000830234
0.000820727
0.000824429
0.000816988
0.000853535
0.000822836
0.000837893
0.000885376
0.000869162
0.000915471
0.000900336
0.000945636
0.000930575
0.000975757
0.000960721
0.00100586
0.00099083
0.00103597
0.00102094
0.0010661
0.00105106
0.00109625
0.00108119
0.00112642
0.00111135
0.00115662
0.00114154
0.00118684
0.00117175
0.00121708
0.00120199
0.00124733
0.00123224
0.00127756
0.00126248
0.00130774
0.00129269
0.00133785
0.00132284
0.00136783
0.00135289
0.00139764
0.0013828
0.00142722
0.0014125
0.00145648
0.00144192
0.00148534
0.001471
0.00151371
0.00149963
0.00154148
0.00152771
0.00156853
0.00155514
0.00159474
0.00158178
0.00161996
0.00160751
0.00164404
0.00163219
0.00166683
0.00165564
0.00168812
0.00167771
0.00170769
0.00169817
0.00172531
0.0017168
0.00174086
0.00173338
0.00175391
0.00174781
0.0017641
0.00175936
0.00177113
0.00176824
0.00177437
0.00177282
0.0017808
0.0017719
0.00177443
0.00176969
0.00177436
0.00182148
0.00182177
0.00181124
0.0018125
0.000804721
0.000806513
0.00182242
0.00181781
0.00181993
0.00182584
0.00182579
0.00183004
0.00183268
0.00183378
0.00183324
0.00174781
0.00175174
0.00175075
0.00176627
0.00177078
0.00177857
0.00179838
0.00179905
0.00181148
0.00181358
0.00182077
0.0018247
0.00183303
0.00182766
0.00182034
0.00181328
0.00180361
0.00179188
0.00177988
0.00176297
0.001774
0.00176326
0.00181239
0.00176649
0.0017425
0.0017561
0.00175262
0.00175518
0.0017588
0.00174195
0.0017474
0.00173079
0.00173779
0.00171639
0.00172361
0.00170031
0.00170868
0.00168208
0.00169145
0.00166206
0.0016723
0.0016405
0.00165148
0.00161756
0.00162921
0.00159347
0.00160566
0.0015684
0.00158108
0.0015424
0.00155553
0.00151556
0.0015291
0.00148802
0.00150189
0.0014599
0.00147405
0.00143131
0.00144568
0.00140234
0.00141689
0.00137308
0.00138776
0.00134358
0.00135838
0.00131391
0.00132879
0.00128411
0.00129905
0.00125421
0.00126919
0.00122425
0.00123926
0.00119425
0.00120927
0.00116423
0.00117926
0.0011342
0.00114923
0.00110417
0.0011192
0.00107415
0.00108918
0.00104414
0.00105916
0.00101415
0.00102916
0.000984154
0.000999164
0.000954172
0.000969176
0.000924205
0.0009392
0.000894372
0.000909267
0.000863479
0.000878814
0.000832796
0.000848235
0.000801665
0.000816728
0.000793605
0.000785799
0.000790187
0.000801771