/*--------------------------------*- C++ -*----------------------------------*\
  =========                 |
  \\      /  F ield         | OpenFOAM: The Open Source CFD Toolbox
   \\    /   O peration     | Website:  https://openfoam.org
    \\  /    A nd           | Version:  10
     \\/     M anipulation  |
\*---------------------------------------------------------------------------*/
FoamFile
{
    format      ascii;
    class       volVectorField;
    location    "85";
    object      U;
}
// * * * * * * * * * * * * * * * * * * * * * * * * * * * * * * * * * * * * * //

dimensions      [0 1 -1 0 0 0 0];

internalField   nonuniform List<vector> 
28942
(
(0.00442887 -0.00225636 -3.40599e-22)
(0.00599467 -0.00233949 -6.32366e-23)
(0.017934 -0.012385 -8.27426e-22)
(0.103306 0.0182354 -5.26153e-21)
(0.102344 0.022278 1.72269e-21)
(0.0137032 0.000417349 0)
(0.0162834 2.9359e-06 1.0138e-23)
(0.0188936 0.000539156 -8.93552e-24)
(0.135236 -0.018441 -2.55927e-22)
(0.133893 -0.016807 7.28347e-22)
(0.00979407 0.00401525 -6.68698e-22)
(0.0160665 0.0056288 2.53204e-22)
(0.00713682 0.00315288 0)
(0.00470714 0.00207014 0)
(0.0429955 0.00192876 -1.42124e-23)
(0.0412444 0.00247351 -5.75104e-24)
(0.0893156 0.0158888 6.68134e-22)
(0.0870035 0.0138573 1.07526e-21)
(0.0121633 -0.0151108 2.92015e-21)
(0.0293277 -0.030464 -7.6856e-22)
(0.0981172 0.0373997 9.52858e-22)
(0.097296 0.0344356 0)
(0.0187371 0.00462625 1.16121e-21)
(0.00786271 0.0023632 5.47272e-22)
(0.0377931 0.00721 9.3806e-22)
(0.0575242 0.00291145 -8.5517e-22)
(0.00764722 -0.0184883 8.5108e-21)
(0.00669329 -0.016553 -3.13452e-21)
(0.0355058 -0.02532 5.73547e-22)
(0.0192982 -0.0136805 1.9799e-22)
(0.0140687 -0.00128884 0)
(0.0175884 -0.00110965 -1.28685e-23)
(0.0223677 0.00407448 2.69918e-22)
(0.0322758 0.00183796 -4.12028e-23)
(0.018825 0.0180095 1.31469e-21)
(0.0157197 0.0191196 -1.30597e-21)
(0.0321689 0.0376177 -3.05392e-21)
(0.0186688 0.0305363 -1.06879e-21)
(0.00750215 -1.62077e-05 -8.45349e-24)
(0.00864873 0.0161973 -2.61536e-21)
(0.0306493 -0.00620318 0)
(0.0513426 -0.0109694 0)
(0.11181 -0.011721 -2.71356e-23)
(0.111303 -0.0117194 8.00087e-23)
(0.115864 -0.0116161 6.97247e-23)
(0.0266663 0.00017131 1.08169e-23)
(0.0248267 -0.000590817 -1.73713e-23)
(0.0355249 -0.000478364 -7.95799e-23)
(0.0340355 -0.000548105 2.26977e-23)
(0.0276359 -0.00260031 -1.98353e-22)
(0.0205285 -0.00310742 1.29007e-22)
(0.128656 0.00129754 -4.0133e-22)
(0.127971 0.000825932 -3.74922e-22)
(0.134554 -0.0212075 -3.7702e-24)
(0.133007 -0.0194814 1.39045e-22)
(0.0824773 0.00635195 7.11711e-22)
(0.101729 -0.000767584 2.46991e-22)
(0.00305817 0.00162063 -5.62032e-22)
(0.00894157 0.00367908 0)
(0.00825614 0.00328854 2.361e-22)
(0.00288222 0.0014879 4.84955e-22)
(0.000362182 0.000226232 -4.03261e-22)
(0.000192871 0.000122678 -3.87347e-22)
(0.10976 -0.0426058 0)
(0.10489 -0.0256115 1.25312e-22)
(0.121761 -0.0331165 -4.28662e-23)
(0.123409 -0.0437698 0)
(0.0901048 -0.0328029 -6.38912e-22)
(0.0936086 -0.03527 -4.19926e-22)
(0.00188489 -0.00112947 1.12605e-21)
(0.00248853 -0.00201725 -3.54826e-22)
(0.00487255 -0.00315566 8.80334e-22)
(0.0848737 -0.0457592 0)
(0.0912 -0.0396234 2.16881e-21)
(0.0805422 -0.0530245 5.85996e-22)
(0.114125 0.0124061 2.35507e-22)
(0.112723 0.00690388 -2.61202e-22)
(0.125093 0.0110093 -1.10982e-22)
(0.00468322 -0.00286175 -5.36102e-23)
(0.00633828 -0.00442571 4.49229e-22)
(0.0510061 -0.0311457 1.26563e-22)
(0.0331529 -0.0205359 -2.57547e-22)
(0.00211081 -0.000595917 3.19739e-21)
(0.00515665 -0.00207234 -1.24598e-21)
(0.100981 0.0482492 1.37775e-23)
(0.0970297 0.0552167 -7.65746e-22)
(0.0807212 0.0540131 6.98862e-22)
(0.0472047 0.0345105 -2.68412e-21)
(0.0444329 0.0316065 1.9009e-21)
(0.0294918 0.0205955 -1.1365e-22)
(0.0327124 0.0232483 -6.41798e-22)
(0.0379535 0.0283582 8.70142e-22)
(0.00440805 0.00272892 -5.8545e-23)
(0.00776047 0.0039805 -1.68959e-23)
(0.00318844 0.00202203 3.38575e-23)
(0.00192331 0.00164624 -4.52671e-22)
(0.0014501 0.00157037 5.55031e-22)
(0.0157422 0.0115436 -3.25651e-21)
(0.017495 0.0136355 7.45916e-22)
(0.00880401 -0.00384663 0)
(0.101389 0.00515941 0)
(0.0984003 0.0156832 -3.95951e-21)
(0.0604413 0.0104756 1.94216e-21)
(0.0886811 0.0178812 0)
(0.135452 -0.00108826 0)
(0.13489 -0.00180214 0)
(0.133197 -0.00229653 -2.5341e-22)
(0.114974 0.0266116 -2.12158e-22)
(0.114065 0.0280143 2.0975e-21)
(0.113267 0.0254742 1.12554e-21)
(0.00229382 0.00129935 1.04774e-21)
(0.00151136 0.000777425 -1.17598e-21)
(0.0190465 -0.00553413 -5.47501e-22)
(0.0201262 -0.00506259 4.67208e-22)
(0.00909814 -0.00292687 9.23514e-22)
(0.00647661 0.0111504 1.47893e-21)
(0.0189677 0.0181621 3.45731e-21)
(0.013465 0.0228012 2.72183e-22)
(0.00492082 0.0143071 -8.62327e-21)
(0.116986 0.0477534 5.55752e-23)
(0.107862 0.0582426 1.06978e-21)
(0.118322 0.0548809 -1.84494e-21)
(0.0390847 -0.0294132 7.31499e-22)
(0.0240054 -0.0172622 -4.67781e-22)
(0.00532083 -0.000740581 -4.10306e-21)
(0.0045379 -0.00359059 0)
(0.0124955 -0.00167016 2.00289e-21)
(0.0219607 -0.0161278 7.785e-22)
(0.0342496 -0.0277798 -1.95578e-21)
(0.0335851 -2.64899e-05 5.4852e-23)
(0.0357196 0.000130912 -4.03539e-23)
(0.0315291 0.000149414 -1.69642e-24)
(0.0280508 -0.0419414 0)
(0.0296003 -0.0428326 0)
(0.0896234 -0.0186528 -4.63064e-22)
(0.0995913 -0.0220905 3.14607e-21)
(0.0870345 -0.0252785 0)
(0.0471098 -0.0401818 0)
(0.0581692 -0.0513765 -7.83162e-22)
(0.0413109 0.0393379 2.08558e-21)
(-2.26193e-06 0.00021454 5.10444e-22)
(-0.000194151 0.000131026 -3.36194e-22)
(0.022323 -0.0192374 -7.9126e-22)
(0.120282 -0.011488 3.93242e-22)
(0.119647 -0.011433 -7.60856e-23)
(0.115421 -0.00572389 -6.59301e-23)
(0.108347 0.00097901 8.78612e-23)
(0.117612 -0.000321979 1.77827e-22)
(8.22772e-05 0.00025912 1.97124e-22)
(0.043743 0.0344184 3.20533e-21)
(0.0618715 0.0463078 -7.88393e-22)
(0.0593058 0.0393641 -3.02427e-24)
(0.0219045 -0.000808629 5.41133e-24)
(0.0215825 -0.000788221 2.81666e-23)
(0.0234249 -0.00056171 1.05444e-24)
(0.0261603 -0.000577501 -1.38904e-23)
(0.0454176 0.0380895 1.33766e-22)
(0.0189609 0.0160586 0)
(0.000138324 -2.76179e-05 3.66742e-22)
(0.00042132 -0.00025522 -4.06886e-22)
(0.00185882 -0.0010083 2.83795e-22)
(0.0365485 -0.00771872 -1.83793e-21)
(0.0648571 -0.0020997 -7.49336e-22)
(0.0304399 -0.000193375 -2.1491e-24)
(0.0744676 -0.00764376 2.7062e-22)
(0.0706796 -0.0157267 5.9736e-23)
(0.0943039 0.0399221 2.14412e-21)
(0.0914045 0.0454576 9.92837e-23)
(0.0887484 0.029089 1.21602e-21)
(0.0914738 0.0308059 -8.81234e-22)
(0.0986958 0.0410833 0)
(0.126117 -0.000320368 1.49422e-22)
(0.126888 -0.000753444 2.82235e-22)
(0.128093 -0.0123483 -2.95507e-22)
(0.129557 -0.0121536 5.05805e-22)
(0.117054 0.0241559 2.60184e-22)
(0.119112 0.0250571 -7.3681e-22)
(0.1171 0.0261683 0)
(0.115134 0.0249054 1.53373e-22)
(0.116672 0.0280904 0)
(0.117173 0.0361115 -5.51643e-22)
(0.115711 0.038163 -3.01154e-22)
(0.111337 0.041975 -5.4099e-22)
(0.113731 0.0401076 0)
(0.116419 0.043083 1.78973e-21)
(0.113697 0.0450052 4.73869e-23)
(0.10833 0.0441855 -3.03875e-22)
(0.0996281 0.0502875 -1.28787e-21)
(0.0984188 0.0454991 -2.26882e-22)
(0.0249502 -0.00847168 5.85985e-23)
(0.0328047 -0.0093286 -2.33695e-23)
(0.00628187 -0.00248629 -6.90098e-22)
(0.0298404 -8.78554e-05 -3.47027e-23)
(0.0382836 -0.000268905 0)
(-3.1033e-06 -3.9877e-05 4.31423e-22)
(1.30909e-05 -4.72045e-05 2.19744e-22)
(0.0346305 -0.00177656 1.65975e-23)
(0.0409636 -0.00172639 6.85514e-24)
(0.0405208 -0.00118859 0)
(0.0334874 -0.000820293 7.30352e-24)
(0.0855846 0.00341172 -1.08772e-22)
(0.0848153 0.00308983 5.13861e-22)
(0.0856769 0.00317337 2.37823e-22)
(0.000670643 0.000271975 3.91362e-22)
(-0.000159405 -0.000129258 -5.67173e-22)
(-0.000201054 -0.000168993 4.83323e-22)
(0.00149993 0.000617296 0)
(7.98869e-05 8.77616e-05 1.13625e-21)
(0.00017188 -3.90004e-05 -8.18962e-22)
(0.00744677 0.00367278 -9.89154e-22)
(0.00145132 0.000781144 -1.18185e-21)
(0.00172022 0.000860461 0)
(0.00157198 0.00754422 0)
(0.000576945 0.00328132 0)
(0.000313307 0.00197693 0)
(0.136626 -0.00109986 5.63906e-23)
(0.137639 -0.000934439 0)
(0.135999 -0.00188435 -6.57341e-23)
(0.0881102 -0.0148527 4.42714e-21)
(0.090117 -0.015262 -1.60705e-21)
(0.0890324 -0.0128773 0)
(0.0963131 0.000342856 -6.39522e-24)
(0.0968927 0.000332712 1.27992e-23)
(0.0957318 0.000352462 -4.32515e-24)
(0.0974673 0.000324345 0)
(0.0980406 0.000324153 -8.16594e-24)
(0.0986078 0.000318527 0)
(0.0986046 -0.00028388 0)
(0.0991671 0.000301585 3.03237e-23)
(0.0991573 -0.000305128 0)
(0.098044 -0.000274645 -8.22318e-24)
(0.0974705 -0.000270781 0)
(0.0968946 -0.000266158 4.27876e-24)
(0.0963122 -0.000265624 -6.39186e-24)
(0.0957325 -0.000264176 4.31975e-24)
(0.0997136 0.00028293 -2.90173e-23)
(0.0997084 -0.000320347 -1.01468e-24)
(0.0951416 0.000367242 -4.98526e-29)
(0.0951369 -0.000256549 -6.60011e-24)
(0.0945413 0.00038002 3.50986e-23)
(0.100253 0.000270833 2.71187e-26)
(0.100264 -0.000327555 -1.01578e-24)
(0.0945397 -0.000256935 1.30059e-23)
(0.100794 0.000257791 2.73174e-23)
(0.101332 0.000247208 -2.72949e-23)
(0.10081 -0.000335431 2.0451e-24)
(0.10135 -0.000341491 4.04336e-24)
(0.0939586 0.000403245 -3.41491e-23)
(0.0939492 -0.000255927 -8.56032e-24)
(0.101867 0.000235144 0)
(0.101886 -0.000348505 -3.98811e-24)
(0.0933534 0.000416512 4.22342e-27)
(0.093345 -0.000249676 -4.23401e-27)
(0.102397 0.000225279 0)
(0.102417 -0.000353882 0)
(0.0927424 0.00042617 0)
(0.0927337 -0.000247074 0)
(0.102924 0.000213701 0)
(0.102944 -0.000360341 1.91663e-24)
(0.092126 0.000435706 -1.77096e-23)
(0.0921164 -0.000243658 -4.32223e-27)
(0.103446 0.000204288 1.00481e-25)
(0.103467 -0.000365069 -2.04698e-24)
(0.0915036 0.000443196 1.77942e-23)
(0.0914934 -0.000242024 0)
(0.103965 0.000193099 0)
(0.103985 -0.000370686 0)
(0.0908761 0.000451046 -1.12556e-24)
(0.0908651 -0.000238431 1.93159e-23)
(0.104479 0.000184162 1.24276e-23)
(0.1045 -0.000374108 0)
(0.0902436 0.000456919 -9.86504e-26)
(0.0902311 -0.000235168 -1.8282e-23)
(0.10499 0.000173678 -1.85891e-23)
(0.105011 -0.00037821 -5.39478e-24)
(0.0895921 0.000456185 1.86382e-23)
(0.0895824 -0.000232495 0)
(0.105498 0.000166491 6.12319e-24)
(0.10552 -0.000376692 3.598e-24)
(0.0889378 0.000461837 -9.43222e-24)
(0.088928 -0.000232845 1.91247e-23)
(0.105999 0.000161755 -2.44552e-23)
(0.106029 -0.000368147 2.75633e-23)
(0.0882525 0.000452621 9.72209e-24)
(0.0882517 -0.000239035 3.07656e-25)
(0.106504 0.000159657 0)
(0.106532 -0.000359985 1.31348e-23)
(0.0875595 0.000443528 -1.95534e-23)
(0.0875658 -0.000252541 3.91129e-23)
(0.107024 0.000148954 0)
(0.107035 -0.000357575 0)
(0.0885479 0.00113907 -9.61993e-24)
(0.0878494 0.00113784 -3.89296e-23)
(0.0868426 0.000427901 0)
(0.0868659 -0.000277771 -1.99242e-23)
(0.0898949 0.00113185 -6.04162e-24)
(0.0892249 0.00113645 1.18651e-24)
(0.0911735 0.00110871 0)
(0.0905326 0.00111991 -1.95168e-23)
(0.0924169 0.00108095 -3.76974e-26)
(0.0917987 0.00109543 0)
(0.0936341 0.00104901 0)
(0.0930285 0.00106545 0)
(0.094828 0.00100943 0)
(0.0942342 0.00103094 0)
(0.0959773 0.000967735 8.54122e-24)
(0.0953992 0.000987605 2.15285e-24)
(0.0971249 0.000936615 -8.23884e-24)
(0.0965576 0.00095202 -8.52821e-24)
(0.0982519 0.000909411 1.46344e-23)
(0.0976845 0.000917297 1.86893e-23)
(0.0993803 0.000885655 0)
(0.0988181 0.000900503 0)
(0.100472 0.000858646 -6.43137e-26)
(0.0999296 0.000872031 0)
(0.101542 0.000829118 0)
(0.101009 0.000844027 0)
(0.102597 0.000798917 0)
(0.102072 0.000813929 0)
(0.103636 0.000769189 0)
(0.103119 0.000783891 0)
(0.104659 0.000740301 0)
(0.104149 0.000754555 0)
(0.105666 0.000712253 0)
(0.105164 0.000726119 0)
(0.106663 0.000668851 -9.99251e-24)
(0.106163 0.000697361 0)
(0.107164 0.000645985 -3.22691e-24)
(0.107534 0.000134253 3.15117e-24)
(0.107542 -0.000359243 -3.12495e-24)
(0.106187 -0.000866714 0)
(0.107184 -0.000853958 -1.28217e-23)
(0.106686 -0.000859149 -6.60625e-24)
(0.105178 -0.000880058 1.80792e-24)
(0.105683 -0.000874883 -7.0741e-24)
(0.10416 -0.000883696 5.85277e-26)
(0.10467 -0.000883429 0)
(0.103127 -0.00088169 0)
(0.103645 -0.000882845 0)
(0.102076 -0.000878672 0)
(0.102604 -0.000880164 0)
(0.101008 -0.000875795 0)
(0.101544 -0.000877069 7.69915e-30)
(0.0999209 -0.000874673 6.49388e-26)
(0.100467 -0.000874812 0)
(0.0988206 -0.000868179 0)
(0.09937 -0.000872752 0)
(0.0976957 -0.000861263 0)
(0.0982587 -0.000863876 0)
(0.0965507 -0.000861559 0)
(0.0971242 -0.000858595 -4.32522e-24)
(0.095385 -0.000869271 1.1373e-24)
(0.0959695 -0.000868278 -5.57749e-24)
(0.0942102 -0.000880848 0)
(0.0948043 -0.000873352 -4.53691e-24)
(0.0930024 -0.000888409 0)
(0.0936095 -0.00088464 0)
(0.0917686 -0.00089673 0)
(0.0923888 -0.000892406 0)
(0.0905037 -0.000904556 0)
(0.0911411 -0.000900755 0)
(0.0892017 -0.000913784 -4.9416e-24)
(0.0898587 -0.000907663 0)
(0.0878663 -0.000943018 -2.00106e-23)
(0.0885383 -0.000923029 -4.96575e-24)
(0.0871763 -0.00096829 2.03687e-23)
(0.0871367 0.00113798 3.85985e-23)
(0.107667 0.000626948 6.31821e-24)
(0.107683 -0.000848629 -1.23416e-23)
(0.086144 -0.000314211 0)
(0.0864778 -0.00100836 0)
(0.0864107 0.00113765 0)
(0.0861114 0.000404646 0)
(0.0891309 0.00181116 0)
(0.0877578 0.00184347 9.66619e-24)
(0.0884496 0.00182543 9.76005e-24)
(0.0904581 0.00177699 1.24066e-23)
(0.089801 0.00179518 -2.47981e-24)
(0.0917142 0.00173417 3.83654e-26)
(0.0910918 0.00175555 0)
(0.0929377 0.00169083 0)
(0.0923294 0.00171268 0)
(0.0941345 0.00164641 0)
(0.0935392 0.00166874 0)
(0.0953092 0.00160356 0)
(0.0947242 0.00162406 0)
(0.0964556 0.00155902 0)
(0.0958852 0.0015819 0)
(0.0975826 0.00151891 -3.45288e-26)
(0.0970179 0.00153974 8.90598e-24)
(0.0986808 0.0014768 -3.314e-26)
(0.0981372 0.00149695 -1.73808e-23)
(0.099779 0.00143346 0)
(0.0992306 0.00145413 0)
(0.100853 0.00139415 3.21124e-26)
(0.100319 0.00141352 0)
(0.101907 0.0013555 0)
(0.101382 0.0013748 0)
(0.102945 0.0013171 0)
(0.102428 0.00133622 0)
(0.103967 0.00127938 0)
(0.103458 0.00129812 0)
(0.104972 0.0012425 0)
(0.104471 0.00126082 0)
(0.105962 0.00120529 0)
(0.105469 0.00122418 0)
(0.106942 0.0011554 6.82487e-24)
(0.106452 0.00118271 0)
(0.108041 0.000124561 0)
(0.108163 0.000608574 6.17773e-24)
(0.107923 0.00110599 0)
(0.107431 0.00113017 6.64924e-24)
(0.107463 -0.00134181 1.32268e-23)
(0.10795 -0.00133203 3.2485e-24)
(0.10818 -0.000847366 2.53655e-23)
(0.108047 -0.000358101 0)
(0.106482 -0.00136289 0)
(0.106972 -0.00135224 -1.997e-23)
(0.105491 -0.00138072 5.68703e-26)
(0.105988 -0.00137121 7.11712e-24)
(0.104489 -0.00139068 -5.85275e-26)
(0.104992 -0.0013864 0)
(0.103472 -0.00139717 0)
(0.103982 -0.00139411 0)
(0.102437 -0.00140288 0)
(0.102956 -0.00140002 0)
(0.101385 -0.00140902 0)
(0.101913 -0.00140581 -7.69912e-30)
(0.100316 -0.00141653 -1.29788e-25)
(0.100853 -0.00141258 0)
(0.0992319 -0.00142374 0)
(0.0997759 -0.00142032 0)
(0.0981241 -0.00143203 2.18197e-24)
(0.0986811 -0.00142734 0)
(0.0970005 -0.00144157 0)
(0.097563 -0.00143456 -2.17287e-24)
(0.0958553 -0.00145824 4.54659e-24)
(0.0964269 -0.00144969 4.51956e-24)
(0.0946884 -0.00147423 0)
(0.0952758 -0.00146623 0)
(0.0934969 -0.00149386 0)
(0.0940957 -0.00148369 0)
(0.0922795 -0.0015162 0)
(0.0928916 -0.00150467 0)
(0.0910329 -0.00154169 0)
(0.0916601 -0.00152844 0)
(0.0897534 -0.00157218 7.90112e-26)
(0.0903976 -0.00155621 0)
(0.0884376 -0.00161067 -8.00947e-26)
(0.0891012 -0.00159055 0)
(0.0870883 -0.00168254 -2.09455e-23)
(0.0877663 -0.00164295 2.09359e-23)
(0.0870511 0.00186152 1.96668e-23)
(0.0857736 -0.0010601 0)
(0.0864025 -0.00173489 -4.25891e-23)
(0.0854201 -0.000357806 0)
(0.10841 0.00108825 0)
(0.108438 -0.00132198 -3.15077e-24)
(0.0856779 0.00113708 4.97968e-23)
(0.0863376 0.00188024 1.9919e-23)
(0.0850528 -0.00111476 1.07684e-23)
(0.085706 -0.00179509 5.38212e-23)
(0.0853669 0.000376934 0)
(0.108302 0.00158007 2.59816e-23)
(0.108774 0.00155533 -1.28312e-23)
(0.10867 -0.000842232 -6.24253e-24)
(0.10892 -0.00130909 3.10345e-23)
(0.0873325 0.00259582 6.9884e-23)
(0.0856037 0.00189819 -3.92363e-23)
(0.0858972 0.00265264 -1.75315e-22)
(0.0866116 0.00262111 -3.99231e-23)
(0.0886911 0.00252784 1.94521e-23)
(0.0880182 0.00256313 -5.94579e-23)
(0.0899973 0.00246227 -1.98937e-23)
(0.0893513 0.00249486 -1.50054e-23)
(0.0912742 0.00240319 -4.96088e-24)
(0.0906429 0.00243369 -4.96393e-24)
(0.0925012 0.00234588 -3.83654e-26)
(0.0918942 0.00237485 0)
(0.0936939 0.00228802 0)
(0.093101 0.00231687 0)
(0.0948604 0.00223112 0)
(0.0942802 0.00225945 0)
(0.0960039 0.00217611 0)
(0.0954349 0.00220322 0)
(0.0971243 0.00212336 0)
(0.0965666 0.00214916 0)
(0.0982227 0.00207086 0)
(0.0976755 0.00209678 0)
(0.0993011 0.00202009 6.36832e-29)
(0.0987652 0.00204629 0)
(0.100364 0.00196824 0)
(0.0998342 0.00199365 0)
(0.101411 0.00191917 3.20273e-26)
(0.10089 0.00194345 0)
(0.10244 0.0018716 0)
(0.101928 0.00189525 0)
(0.103453 0.00182503 0)
(0.102949 0.0018482 0)
(0.10445 0.00177937 0)
(0.103954 0.00180209 0)
(0.105432 0.00173451 0)
(0.104943 0.00175687 0)
(0.106398 0.00168886 0)
(0.105917 0.00171207 0)
(0.107352 0.00163481 3.47354e-24)
(0.106877 0.00166276 -1.74834e-24)
(0.107828 0.00160764 -1.32559e-23)
(0.108535 0.000119404 -2.95892e-24)
(0.108893 0.00106977 1.23655e-23)
(0.108654 0.000596993 -9.45956e-24)
(0.10854 -0.000364775 0)
(0.107867 -0.00181873 -9.84345e-24)
(0.108811 -0.00178525 -2.83993e-23)
(0.10834 -0.00180298 2.28694e-23)
(0.106914 -0.001851 0)
(0.107391 -0.00183426 0)
(0.105947 -0.00187064 -9.51775e-29)
(0.106431 -0.00185964 0)
(0.104968 -0.00188815 0)
(0.105459 -0.00187993 0)
(0.103974 -0.00190294 -5.99574e-26)
(0.104473 -0.00189572 0)
(0.102963 -0.00191713 0)
(0.10347 -0.00191004 0)
(0.101935 -0.00193175 0)
(0.102451 -0.00192434 0)
(0.100891 -0.00194748 6.48585e-26)
(0.101415 -0.00193947 0)
(0.0998295 -0.00196416 6.63505e-26)
(0.100362 -0.00195569 0)
(0.0987491 -0.00198307 0)
(0.0992916 -0.00197317 0)
(0.0976497 -0.00200448 0)
(0.0982022 -0.00199363 0)
(0.0965298 -0.00202968 0)
(0.0970915 -0.00201624 0)
(0.095388 -0.00205679 0)
(0.0959619 -0.0020427 0)
(0.0942226 -0.00208861 -7.42696e-26)
(0.0948083 -0.00207218 0)
(0.0930318 -0.00212465 0)
(0.0936305 -0.00210609 0)
(0.0918125 -0.00216558 0)
(0.0924259 -0.00214443 0)
(0.0905621 -0.00221286 -1.31465e-28)
(0.0911914 -0.00218835 0)
(0.0892782 -0.00226807 1.4767e-28)
(0.0899247 -0.0022395 0)
(0.0879633 -0.0023408 8.27304e-26)
(0.0886216 -0.00229978 0)
(0.086623 -0.002449 -4.35122e-23)
(0.0872954 -0.00238958 1.06969e-23)
(0.084998 -0.00185572 1.09486e-23)
(0.0859533 -0.00251618 2.17519e-23)
(0.0849335 0.00112989 -1.94992e-23)
(0.0846785 -0.000405133 -2.08629e-23)
(0.109244 0.00153125 3.13998e-24)
(0.109283 -0.00177245 2.23175e-23)
(0.0848337 0.00189597 2.45811e-24)
(0.0843218 -0.00117662 0)
(0.0849378 0.00256396 2.68755e-22)
(0.0852771 -0.00258619 3.34404e-23)
(0.0842948 -0.00192134 4.46331e-23)
(0.0866125 0.00353539 -4.4234e-22)
(0.0863644 0.0036794 8.11456e-23)
(0.0846276 0.000351351 0)
(0.0873782 0.00337444 4.48839e-23)
(0.086888 0.00347748 2.29121e-23)
(0.0886108 0.0032692 4.05122e-23)
(0.0879569 0.00331154 -6.17732e-23)
(0.0898988 0.00317697 -2.01415e-23)
(0.0892659 0.00322491 -1.00535e-23)
(0.0911358 0.00309217 1.00944e-23)
(0.0905215 0.00313331 1.02255e-23)
(0.092346 0.00301261 0)
(0.091742 0.00305079 -1.87237e-26)
(0.0935231 0.00293883 0)
(0.0929382 0.00297563 0)
(0.094674 0.00286721 3.74693e-26)
(0.0941017 0.00290266 0)
(0.0958007 0.0027983 0)
(0.0952402 0.00283246 0)
(0.0969055 0.00273204 0)
(0.0963558 0.00276482 0)
(0.0979889 0.00266837 0)
(0.0974497 0.00269987 0)
(0.0990523 0.00260631 3.4344e-26)
(0.0985229 0.00263703 0)
(0.100097 0.00254596 6.93607e-29)
(0.099577 0.0025763 0)
(0.101125 0.0024864 0)
(0.100613 0.00251584 0)
(0.102138 0.00242898 -6.39906e-26)
(0.101634 0.00245748 0)
(0.103134 0.0023732 0)
(0.102638 0.00240092 0)
(0.104115 0.00231873 0)
(0.103626 0.00234583 0)
(0.10508 0.00226537 0)
(0.1046 0.00229194 0)
(0.106031 0.00221277 0)
(0.105558 0.00223902 0)
(0.106967 0.00215941 0)
(0.106501 0.00218641 0)
(0.107891 0.0021035 -1.73467e-24)
(0.107429 0.00213065 0)
(0.108804 0.00204248 0)
(0.108347 0.0020731 -3.35995e-24)
(0.109707 0.00197945 -3.57375e-27)
(0.109259 0.0020117 0)
(0.109368 0.00105237 -1.25372e-23)
(0.110163 0.00195477 7.5449e-25)
(0.109715 0.00151153 6.13499e-24)
(0.109018 0.00011046 4.51412e-24)
(0.109135 0.000583995 -3.11566e-24)
(0.109153 -0.000836549 -1.56957e-24)
(0.109025 -0.000365602 1.56554e-24)
(0.10975 -0.00175965 0)
(0.109396 -0.00130302 -1.42216e-23)
(0.109305 -0.00224337 -6.38083e-24)
(0.110211 -0.00220812 -1.22165e-23)
(0.10976 -0.00222544 2.80563e-23)
(0.108396 -0.00228451 -3.34863e-24)
(0.108852 -0.00226426 0)
(0.107474 -0.00231972 0)
(0.107936 -0.00230191 0)
(0.106539 -0.00234756 -1.17969e-28)
(0.107008 -0.00233428 0)
(0.10559 -0.00237239 0)
(0.106066 -0.00236033 0)
(0.104626 -0.00239526 5.99574e-26)
(0.10511 -0.00238397 0)
(0.103646 -0.00241767 0)
(0.104138 -0.00240647 0)
(0.102649 -0.00244059 0)
(0.10315 -0.00242904 0)
(0.101637 -0.00246466 0)
(0.102145 -0.00245246 0)
(0.100607 -0.00249036 -1.36769e-28)
(0.101124 -0.00247728 0)
(0.0995593 -0.00251872 0)
(0.100085 -0.00250414 0)
(0.0984928 -0.00255007 0)
(0.0990286 -0.00253406 0)
(0.0974066 -0.00258529 0)
(0.097952 -0.00256708 0)
(0.0962992 -0.00262407 0)
(0.0968557 -0.00260412 0)
(0.095169 -0.00266792 7.42696e-26)
(0.0957371 -0.00264536 0)
(0.0940143 -0.00271719 0)
(0.0945949 -0.00269186 0)
(0.0928328 -0.00277269 0)
(0.0934271 -0.0027441 0)
(0.0916222 -0.00283582 -7.88722e-26)
(0.0922313 -0.00280323 0)
(0.090381 -0.00290767 8.03488e-26)
(0.0910056 -0.00287068 0)
(0.0891077 -0.00299008 -8.17957e-26)
(0.089748 -0.00294731 0)
(0.0878125 -0.00309118 1.07491e-23)
(0.0884583 -0.0030358 -2.12044e-23)
(0.0865207 -0.00322655 -1.0825e-23)
(0.0871637 -0.00315357 2.20107e-23)
(0.0845882 -0.00265334 3.10764e-25)
(0.0858638 -0.00330015 2.22156e-23)
(0.0841706 0.00110458 -1.9989e-23)
(0.0839337 -0.000442704 0)
(0.0840463 0.00184446 -1.93303e-22)
(0.0835827 -0.00122302 0)
(0.110287 0.00242079 -3.12984e-24)
(0.110714 0.00238498 2.29252e-24)
(0.11021 -0.00174695 -1.20134e-23)
(0.110656 -0.00218404 -1.35897e-23)
(0.0839935 0.0025063 -1.88016e-22)
(0.0835818 -0.00198307 -4.50697e-23)
(0.0854696 0.00366526 0)
(0.0880486 0.00419739 -5.1244e-23)
(0.0838991 -0.00272148 -2.21243e-23)
(0.0851979 -0.00337199 3.36129e-23)
(0.0874787 0.00419034 1.02884e-22)
(0.0838754 0.000323278 0)
(0.0889563 0.00402288 0)
(0.0884705 0.0041134 -4.56518e-23)
(0.0901243 0.00389482 0)
(0.0895231 0.00395565 0)
(0.0913266 0.00378548 0)
(0.0907282 0.00383747 1.04155e-23)
(0.0924918 0.00368691 0)
(0.0919116 0.00373567 0)
(0.093638 0.00359408 0)
(0.0930672 0.00363912 0)
(0.0947611 0.00350729 0)
(0.0942025 0.00355036 0)
(0.0958618 0.00342387 -3.74693e-26)
(0.0953142 0.00346513 0)
(0.0969409 0.00334393 0)
(0.0964039 0.0033835 0)
(0.0979997 0.00326724 0)
(0.0974728 0.0033052 0)
(0.0990389 0.00319351 0)
(0.0985216 0.00323004 0)
(0.10006 0.00312222 -8.38786e-29)
(0.0995514 0.00315757 0)
(0.101063 0.00305314 8.17377e-29)
(0.100563 0.00308754 0)
(0.10205 0.00298569 0)
(0.101558 0.00301913 0)
(0.103022 0.00292039 7.73354e-29)
(0.102538 0.00295281 0)
(0.103979 0.00285687 0)
(0.103502 0.00288843 0)
(0.104921 0.00279487 0)
(0.104451 0.00282571 0)
(0.105848 0.00273409 0)
(0.105386 0.00276436 0)
(0.106761 0.0026741 0)
(0.106306 0.00270405 0)
(0.10766 0.00261384 0)
(0.107212 0.00264412 0)
(0.108547 0.00255294 0)
(0.108105 0.00258352 0)
(0.109421 0.00248822 3.32816e-24)
(0.108984 0.00251939 3.41097e-24)
(0.109855 0.0024537 -6.38816e-24)
(0.109834 0.00103553 -6.15458e-24)
(0.110615 0.00193078 0)
(0.110172 0.0014872 -6.20659e-24)
(0.109493 0.000103899 0)
(0.109604 0.000573385 6.28114e-24)
(0.109624 -0.000832811 9.37628e-24)
(0.109499 -0.000366254 -3.17061e-24)
(0.109863 -0.00129346 -1.84177e-23)
(0.109912 -0.00268761 3.20676e-24)
(0.110772 -0.00263366 1.19236e-23)
(0.110348 -0.00266633 0)
(0.109041 -0.00273275 -6.65348e-24)
(0.109479 -0.0027114 6.67541e-24)
(0.108157 -0.00277258 0)
(0.108601 -0.00275376 0)
(0.107259 -0.00280771 -1.38722e-28)
(0.10771 -0.00279067 0)
(0.106347 -0.00283996 0)
(0.106805 -0.00282413 0)
(0.10542 -0.00287066 0)
(0.105885 -0.00285543 0)
(0.104477 -0.00290103 0)
(0.10495 -0.00288584 0)
(0.103519 -0.00293202 0)
(0.104 -0.00291642 0)
(0.102544 -0.00296436 6.44597e-26)
(0.103033 -0.002948 0)
(0.101553 -0.00299877 -6.62138e-26)
(0.102051 -0.00298127 0)
(0.100545 -0.00303618 0)
(0.101051 -0.00301706 0)
(0.0995192 -0.00307705 0)
(0.100035 -0.00305618 0)
(0.0984741 -0.00312218 0)
(0.098999 -0.00309905 0)
(0.097409 -0.0031719 0)
(0.0979442 -0.00314641 0)
(0.0963223 -0.00322729 0)
(0.0968684 -0.00319886 0)
(0.0952125 -0.00328903 0)
(0.0957703 -0.00325733 0)
(0.0940779 -0.00335802 -7.70135e-26)
(0.0946484 -0.00332256 0)
(0.092917 -0.00343546 7.85161e-26)
(0.0935008 -0.00339562 0)
(0.0917288 -0.00352231 -7.99848e-26)
(0.0923264 -0.00347771 0)
(0.0905129 -0.00361919 0)
(0.0911242 -0.00356945 0)
(0.0892695 -0.00372624 0)
(0.0898941 -0.00367132 0)
(0.0880146 -0.00384847 8.51957e-26)
(0.0886447 -0.00378489 1.08155e-23)
(0.0867497 -0.00399569 -5.6339e-23)
(0.0873776 -0.00391851 0)
(0.0845461 -0.00345249 -3.33893e-23)
(0.0861222 -0.00407736 -3.09058e-25)
(0.0834052 0.00107769 6.2489e-23)
(0.0831796 -0.0004758 0)
(0.111148 0.00235342 -1.19216e-23)
(0.111203 -0.00261134 -2.29856e-23)
(0.083171 0.00178125 -3.29863e-23)
(0.0843196 0.00322224 1.09461e-24)
(0.0832011 0.00245193 9.38884e-23)
(0.0828433 -0.00126012 0)
(0.0828523 -0.00202731 1.12736e-23)
(0.0864476 0.00416657 -9.66095e-23)
(0.0855016 0.00407492 8.24117e-23)
(0.0839142 0.00331605 -8.10901e-23)
(0.0831969 -0.00278022 -3.3856e-23)
(0.0838729 -0.00352775 2.25808e-23)
(0.0855058 -0.0041722 2.21628e-23)
(0.0831137 0.000295207 0)
(0.0896732 0.00477878 2.87057e-24)
(0.088213 0.00479713 5.06494e-25)
(0.0890108 0.00477714 2.24387e-23)
(0.090694 0.00462716 2.21649e-23)
(0.0901861 0.00470945 -2.22799e-23)
(0.0918113 0.00447776 4.10523e-26)
(0.0912357 0.00454851 0)
(0.0929399 0.00435815 0)
(0.0923794 0.00441513 0)
(0.0940442 0.00424894 0)
(0.0934944 0.00430294 0)
(0.0951295 0.00414579 0)
(0.0945892 0.00419638 0)
(0.096194 0.00404819 3.80345e-26)
(0.0956643 0.00409652 0)
(0.0972383 0.00395444 0)
(0.0967186 0.00400083 0)
(0.0982634 0.00386452 0)
(0.0977532 0.00390902 0)
(0.0992698 0.00377825 0)
(0.0987689 0.00382095 0)
(0.100258 0.00369534 0)
(0.0997663 0.00373641 0)
(0.10123 0.00361539 -3.42601e-26)
(0.100746 0.00365502 0)
(0.102185 0.00353809 9.49382e-29)
(0.101709 0.00357648 0)
(0.103125 0.00346305 0)
(0.102657 0.00350028 0)
(0.104051 0.00339028 6.36821e-26)
(0.10359 0.00342642 0)
(0.104962 0.00331947 0)
(0.104508 0.00335466 0)
(0.105859 0.00325032 0)
(0.105412 0.00328472 0)
(0.106743 0.00318248 0)
(0.106303 0.00321627 0)
(0.107613 0.00311549 0)
(0.107179 0.00314893 0)
(0.108469 0.00304856 0)
(0.108042 0.00308209 0)
(0.109313 0.00298109 5.41031e-26)
(0.108892 0.00301494 0)
(0.110144 0.00291219 -3.3427e-24)
(0.109731 0.00294736 0)
(0.110962 0.0028367 3.18305e-24)
(0.110554 0.00287496 0)
(0.111772 0.00275744 3.02424e-24)
(0.111367 0.00279737 -3.1002e-24)
(0.11105 0.00190242 6.00392e-24)
(0.112178 0.00271964 0)
(0.111577 0.00232288 8.91992e-24)
(0.110289 0.00101895 0)
(0.110619 0.00146595 0)
(0.109958 9.83531e-05 0)
(0.110067 0.000561042 0)
(0.110086 -0.000827203 0)
(0.109965 -0.000366028 0)
(0.110659 -0.00173256 1.22437e-23)
(0.110319 -0.00128523 3.04842e-24)
(0.111625 -0.00258691 2.99611e-24)
(0.111095 -0.00216603 2.3959e-23)
(0.111439 -0.00305172 1.55463e-23)
(0.112244 -0.00299193 2.96841e-24)
(0.111841 -0.00302094 -6.04499e-24)
(0.110623 -0.00311049 3.19526e-24)
(0.11103 -0.00308065 -1.91643e-23)
(0.109796 -0.00316122 -1.33517e-28)
(0.11021 -0.00313606 0)
(0.108953 -0.00320596 0)
(0.109376 -0.0031837 0)
(0.108097 -0.00324811 -1.59542e-28)
(0.108527 -0.00322747 0)
(0.107228 -0.0032877 0)
(0.107664 -0.00326816 0)
(0.106343 -0.00332597 0)
(0.106787 -0.00330694 0)
(0.105444 -0.00336404 0)
(0.105896 -0.00334498 0)
(0.10453 -0.00340283 0)
(0.104989 -0.00338331 0)
(0.1036 -0.00344319 -1.28736e-25)
(0.104067 -0.00342278 0)
(0.102655 -0.00348595 0)
(0.10313 -0.00346423 0)
(0.101693 -0.00353198 0)
(0.102176 -0.00350852 0)
(0.100714 -0.00358191 0)
(0.101205 -0.00355644 0)
(0.0997168 -0.00363653 0)
(0.100218 -0.0036086 0)
(0.098701 -0.00369646 -7.2171e-26)
(0.0992114 -0.00366579 0)
(0.0976651 -0.00376264 0)
(0.0981856 -0.00372874 0)
(0.096608 -0.00383589 0)
(0.0971392 -0.00379835 0)
(0.0955284 -0.00391709 7.70135e-26)
(0.0960711 -0.00387546 0)
(0.0944254 -0.00400724 -2.25043e-28)
(0.0949799 -0.00396101 0)
(0.0932984 -0.00410708 1.59741e-25)
(0.093865 -0.00405595 0)
(0.0921474 -0.00421687 0)
(0.0927259 -0.00416076 0)
(0.0909723 -0.00433642 0)
(0.0915627 -0.0042753 0)
(0.0897749 -0.00446422 -2.56984e-28)
(0.0903767 -0.00440032 0)
(0.0885558 -0.00460406 0)
(0.0891669 -0.0045317 0)
(0.0873615 -0.00477387 -3.35023e-23)
(0.0879545 -0.00468495 0)
(0.0848704 -0.00426142 -3.01786e-25)
(0.0867724 -0.00487102 5.68948e-23)
(0.0825993 0.00103113 0)
(0.087396 0.00480461 1.30202e-22)
(0.0823642 0.00172437 2.25353e-23)
(0.112487 0.00314609 -3.01855e-24)
(0.112871 0.00310757 0)
(0.112045 -0.00256425 2.91197e-24)
(0.11264 -0.00295874 -5.78724e-24)
(0.082422 -0.000507065 0)
(0.0820944 -0.0012888 0)
(0.0825438 0.00252346 0)
(0.0821158 -0.00206466 -1.11035e-23)
(0.0824872 -0.00284106 -2.23449e-23)
(0.0831942 -0.00360727 0)
(0.0842224 -0.00435324 5.75421e-23)
(0.0861633 -0.00496978 -4.58909e-23)
(0.08234 0.000261975 0)
(0.0902762 0.00540053 -1.08032e-26)
(0.0865419 0.00476856 4.08638e-23)
(0.0888303 0.00548263 -1.45658e-22)
(0.0895509 0.00545862 4.2681e-23)
(0.0915529 0.0053253 -1.38773e-23)
(0.0909329 0.00534491 -2.22475e-23)
(0.0926031 0.00519079 0)
(0.0920908 0.00526946 0)
(0.0936689 0.00503069 -4.10485e-26)
(0.0931256 0.00510629 0)
(0.094735 0.0048996 0)
(0.0942058 0.00496279 0)
(0.0957763 0.00477978 0)
(0.0952583 0.00483881 0)
(0.0967976 0.00466671 0)
(0.0962894 0.00472241 0)
(0.0977994 0.00455924 -3.80345e-26)
(0.0973009 0.00461242 0)
(0.0987827 0.0044561 0)
(0.0982933 0.00450715 0)
(0.0997484 0.00435713 0)
(0.0992677 0.00440612 0)
(0.100697 0.00426213 0)
(0.100225 0.00430916 0)
(0.10163 0.00417082 0)
(0.101165 0.00421605 0)
(0.102546 0.00408287 3.40528e-26)
(0.10209 0.00412646 0)
(0.103448 0.00399794 1.07376e-28)