/*--------------------------------*- C++ -*----------------------------------*\
  =========                 |
  \\      /  F ield         | OpenFOAM: The Open Source CFD Toolbox
   \\    /   O peration     | Website:  https://openfoam.org
    \\  /    A nd           | Version:  10
     \\/     M anipulation  |
\*---------------------------------------------------------------------------*/
FoamFile
{
    format      ascii;
    class       volScalarField;
    location    "80.5";
    object      p;
}
// * * * * * * * * * * * * * * * * * * * * * * * * * * * * * * * * * * * * * //

dimensions      [0 2 -2 0 0 0 0];

internalField   nonuniform List<scalar> 
28942
(
-0.00376416
-0.00313873
0.00203475
0.00949131
0.00979122
7.95212e-05
0.000267719
1.89235e-05
0.00271518
0.00280304
-0.00230646
-0.00257512
-0.00295753
-0.00287507
0.000179154
0.000474168
0.00988203
0.010152
0.00558571
0.00714562
0.00815385
0.0081455
-0.00521057
-0.00503608
-0.00356493
-0.00378893
0.0138806
0.0138296
0.00353945
0.00348209
1.4132e-05
4.7705e-05
0.000721343
0.000291737
0.0071448
0.00835048
0.0108882
0.0128467
-1.13938e-05
0.0150413
0.00909158
0.0115895
0.00173625
0.00164726
0.00171066
0.000270627
0.000140514
0.000214927
0.00024893
0.00034879
0.000673289
0.00278599
0.00285721
0.0028479
0.00300281
-0.0023363
-0.00103454
-0.00336406
-0.00320984
-0.00348037
-0.00355354
-0.00355421
-0.00345237
-0.000101647
-0.00180058
-0.000348361
0.000981578
0.00942616
0.00892981
-0.00335624
-0.00356584
-0.00330114
0.00899212
0.0088436
0.00913599
-0.00146931
-0.00108186
-0.000743869
0.00236819
0.00276747
0.00185928
0.000765231
-0.00630367
-0.00753127
0.00108694
0.00381187
0.00485316
0.00564032
0.00402512
0.00414774
0.00611435
0.00549365
-0.0013905
-0.00167965
-0.00195714
-0.00179663
-0.00162335
0.00533579
0.00662653
-0.00784261
0.0112886
0.0104895
0.00578343
0.00938024
0.000902711
0.000808521
0.000719866
0.00547357
0.00566631
0.00566043
-0.0032078
-0.0031286
-0.00312143
-0.00260501
-0.00272819
0.0158338
0.0138292
0.0132704
0.0149013
0.00164683
0.00472563
0.00342428
0.00507802
0.00475493
0.0155069
0.0158019
0.0144606
0.00591933
0.00699809
0.000176031
0.000272219
9.8235e-05
0.010503
0.0110057
0.00766894
0.00732102
0.0127782
0.0067039
0.00799386
0.00905319
-0.00189551
-0.00240297
0.00736337
0.00165342
0.00174252
-0.00116092
-0.00142316
-0.000966485
-0.00250242
0.00659578
0.0057232
0.00371746
0.000249869
0.000197058
7.49116e-05
0.000198527
0.00753211
0.00679561
-0.00185557
-0.00197273
-0.00186783
-0.00412931
-0.00367501
5.65658e-05
-0.00283928
-0.000487223
0.00839604
0.00850501
0.00959918
0.00913447
0.00771217
0.00308017
0.0029975
0.00325457
0.00313028
0.00504322
0.00482107
0.00515623
0.00537672
0.00531477
0.00538599
0.00559719
0.00615128
0.00584529
0.00544329
0.00577344
0.00647912
0.00723302
0.00752498
-0.000573032
-0.0005538
-0.00246383
0.000200016
5.17923e-05
-0.00198615
-0.00207444
0.000271844
0.000333891
0.000298274
0.000231478
0.00175847
0.0017097
0.00169185
-0.00290648
-0.00309298
-0.00275795
-0.00432387
-0.00480537
-0.00411779
-0.0047044
-0.00646867
-0.00516804
0.0160275
0.0167377
0.0165051
0.000935929
0.00108072
0.000969613
0.010354
0.00992605
0.0100063
0.0014099
0.00139438
0.00142559
0.00137841
0.00136329
0.00134759
0.00134783
0.00133171
0.00133192
0.0013636
0.00137887
0.00139421
0.00140985
0.00142611
0.00131634
0.00131556
0.00144077
0.00144084
0.0014553
0.00130056
0.00129972
0.00145575
0.00128435
0.00126825
0.00128413
0.00126838
0.0014721
0.0014722
0.00125229
0.00125246
0.00148714
0.00148749
0.00123628
0.00123655
0.00150228
0.00150265
0.00122031
0.00122056
0.00151739
0.00151784
0.00120427
0.00120459
0.00153245
0.00153292
0.00118823
0.00118854
0.00154758
0.00154804
0.00117208
0.00117252
0.00156299
0.00156329
0.00115596
0.00115616
0.00157752
0.001578
0.00113968
0.00113956
0.00159344
0.00159352
0.00112302
0.00112271
0.00160778
0.00160781
0.0011053
0.00110583
0.00162288
0.00162267
0.00108827
0.00108909
0.00160712
0.00162223
0.00163803
0.00163765
0.00157571
0.0015922
0.00154558
0.00156118
0.00151616
0.00153099
0.00148594
0.00150113
0.00145474
0.00147062
0.00142432
0.00144095
0.00139402
0.00140962
0.00136245
0.00137712
0.00133013
0.00134648
0.00129879
0.00131456
0.00126713
0.00128302
0.0012353
0.00125127
0.00120335
0.00121937
0.00117125
0.00118735
0.00113903
0.00115518
0.00110538
0.00112275
0.00108838
0.00107129
0.0010717
0.00112269
0.00108865
0.00110547
0.00115583
0.00113906
0.001188
0.00117207
0.00121996
0.00120402
0.00125184
0.00123594
0.00128361
0.00126777
0.00131505
0.00129944
0.00134678
0.00133117
0.00137864
0.00136284
0.00140881
0.00139356
0.00144048
0.00142584
0.00147147
0.00145557
0.00150191
0.00148676
0.00153205
0.00151708
0.00156201
0.00154698
0.00159208
0.0015767
0.00162114
0.00160681
0.00163617
0.00163797
0.001071
0.00107164
0.00165202
0.00165018
0.0016534
0.00165275
0.00160541
0.00163661
0.00162071
0.00157408
0.00159015
0.0015443
0.00155885
0.00151465
0.00152959
0.00148441
0.00149959
0.00145376
0.00146914
0.00142255
0.00143855
0.00139188
0.00140814
0.00136148
0.00137571
0.00132896
0.00134526
0.00129747
0.00131324
0.00126584
0.0012817
0.00123405
0.00124998
0.00120214
0.00121813
0.00117013
0.00118616
0.00113811
0.00115412
0.00110485
0.00112163
0.00105398
0.00105413
0.00107029
0.00108756
0.00108793
0.00107128
0.00105428
0.00105429
0.00112237
0.00110477
0.00115492
0.00113829
0.00118681
0.00117088
0.00121872
0.00120279
0.00125056
0.00123467
0.00128231
0.00126646
0.00131396
0.00129819
0.00134542
0.00132974
0.00137706
0.00136113
0.00140783
0.00139235
0.0014388
0.00142406
0.00146983
0.00145441
0.00150036
0.00148516
0.00153055
0.00151552
0.00156041
0.00154555
0.00158987
0.00157521
0.00161892
0.00160439
0.00164709
0.00163345
0.00165215
0.00166466
0.00166175
0.00166581
0.00105341
0.0010538
0.00166708
0.00166593
0.00167892
0.00167654
0.00166697
0.00106986
0.00105215
0.00103692
0.00103645
0.00166454
0.00168168
0.00170499
0.0016864
0.00163397
0.00164965
0.00160262
0.00161799
0.00157182
0.00158773
0.00154211
0.0015565
0.00151249
0.00152743
0.00148228
0.00149745
0.00145171
0.00146705
0.00142085
0.00143632
0.00138991
0.00140551
0.00135881
0.00137426
0.0013273
0.00134317
0.00129571
0.00131151
0.00126407
0.00127992
0.00123232
0.00124822
0.00120046
0.00121641
0.00116852
0.00118451
0.0011366
0.00115255
0.00110365
0.00112015
0.00108663
0.00103716
0.00103634
0.00103677
0.00103725
0.00108706
0.0010529
0.00107041
0.0011212
0.00110409
0.00115322
0.00113695
0.00118508
0.00116916
0.00121693
0.00120103
0.00124869
0.00123283
0.00128037
0.00126456
0.00131196
0.0012962
0.00134343
0.00132772
0.00137471
0.00135913
0.00140586
0.00139029
0.00143675
0.00142143
0.00146756
0.00145221
0.00149806
0.00148287
0.00152823
0.00151321
0.00155803
0.0015432
0.00158729
0.00157277
0.0016159
0.00160162
0.00164411
0.00163004
0.00167274
0.00165776
0.00168964
0.00168641
0.00168118
0.00167969
0.00103528
0.00103591
0.00169318
0.00169237
0.00169628
0.00169981
0.0017023
0.00162991
0.00170523
0.00168135
0.00168843
0.00168541
0.00166384
0.00168102
0.00162956
0.00164656
0.00159903
0.00161374
0.00156889
0.00158458
0.00153941
0.00155407
0.00150964
0.0015246
0.00147947
0.00149461
0.00144895
0.00146426
0.00141822
0.00143363
0.00138728
0.00140278
0.00135612
0.00137172
0.00132479
0.00134052
0.00129328
0.00130905
0.0012617
0.00127751
0.00123001
0.00124587
0.00119822
0.00121413
0.00116635
0.0011823
0.00113451
0.00115043
0.001102
0.00111822
0.00106872
0.00108527
0.00103422
0.00105129
0.00101947
0.00101703
0.00101839
0.0010204
0.00101996
0.00102038
0.00102051
0.00101914
0.00101988
0.00105178
0.00101761
0.00103558
0.00108558
0.00106903
0.00111919
0.00110279
0.00115099
0.00113506
0.00118284
0.00116694
0.0012146
0.00119874
0.00124628
0.00123046
0.00127787
0.0012621
0.00130937
0.00129365
0.00134076
0.00132509
0.00137198
0.00135643
0.00140307
0.00138755
0.00143395
0.00141856
0.00146465
0.00144934
0.00149509
0.00147993
0.0015252
0.0015102
0.00155491
0.00154013
0.00158409
0.0015696
0.00161249
0.0015984
0.00164018
0.00162647
0.00166801
0.00165384
0.0016955
0.00168084
0.00171255
0.00170829
0.00169394
0.00169374
0.00170996
0.00170312
0.00103286
0.00101625
0.00100212
0.00100114
0.00170203
0.00171517
0.00174063
0.00165662
0.00172295
0.00171992
0.0016997
0.00169423
0.00167627
0.00167247
0.00165863
0.00167234
0.00162445
0.0016414
0.00159523
0.00160977
0.00156558
0.00158059
0.00153592
0.00155073
0.00150611
0.00152107
0.00147598
0.0014911
0.00144555
0.00146082
0.00141488
0.00143026
0.00138401
0.00139949
0.00135293
0.00136849
0.00132168
0.00133735
0.00129027
0.001306
0.00125876
0.00127454
0.00122716
0.00124299
0.00119546
0.00121133
0.00116368
0.00117959
0.00113182
0.00114777
0.00109994
0.00111588
0.00106656
0.0010833
0.00104956
0.00100267
0.00100038
0.00100204
0.00100411
0.00100359
0.00100369
0.00100415
0.00100301
0.00105025
0.00101578
0.00103469
0.00108398
0.00106727
0.00111654
0.00110069
0.00114834
0.00113245
0.00118009
0.00116424
0.00121176
0.00119595
0.00124334
0.00122757
0.00127483
0.00125911
0.00130623
0.00129056
0.00133752
0.00132191
0.00136867
0.00135314
0.00139967
0.00138421
0.00143049
0.00141513
0.00146111
0.00144584
0.00149146
0.00147634
0.00152149
0.00150654
0.00155111
0.00153638
0.0015802
0.00156575
0.00160858
0.00159451
0.0016361
0.00162248
0.00166311
0.00164983
0.00168911
0.00167468
0.0017154
0.00170377
0.00173059
0.00172563
0.00170776
0.0017051
0.000998352
0.000999362
0.00171123
0.00167349
0.00169578
0.00171581
0.00172496
0.0017488
0.00173014
0.00173723
0.00173374
0.00174117
0.00173853
0.00170591
0.00167285
0.0017381
0.0017089
0.00166676
0.00166641
0.00165017
0.00166431
0.00161968
0.00163468
0.00159062
0.00160518
0.00156123
0.001576
0.00153166
0.00154647
0.00150191
0.00151684
0.00147186
0.00148694
0.00144153
0.00145674
0.00141094
0.00142628
0.00138015
0.00139559
0.00134917
0.00136469
0.00131802
0.00133363
0.00128672
0.00130239
0.00125531
0.00127104
0.00122381
0.00123958
0.00119221
0.00120803
0.00116053
0.00117639
0.00112877
0.00114467
0.00109694
0.00111287
0.00106458
0.00108102
0.00103053
0.00104767
0.000996713
0.0010138
0.000983761
0.000979659
0.000981872
0.000986706
0.000985238
0.000988092
0.000987668
0.000987795
0.000988099
0.000985801
0.000986996
0.000982878
0.000984433
0.00101455
0.000981105
0.000997623
0.00104834
0.00103199
0.00108178
0.00106533
0.00111352
0.00109769
0.00114525
0.00112941
0.00117688
0.0011611
0.00120843
0.00119268
0.0012399
0.00122419
0.00127128
0.00125562
0.00130257
0.00128695
0.00133375
0.00131819
0.0013648
0.00134931
0.0013957
0.00138029
0.00142643
0.00141111
0.00145695
0.00144174
0.00148721
0.00147214
0.00151714
0.00150224
0.00154666
0.00153198
0.00157565
0.00156125
0.00160397
0.00158992
0.00163148
0.00161786
0.00165807
0.001645
0.00168382
0.00167074
0.00170821
0.00169685
0.00173212
0.00171821
0.00175073
0.00174554
0.00171471
0.00172972
0.00171387
0.00099428
0.000977937
0.000966103
0.000964071
0.001716
0.00172656
0.00172265
0.00173537
0.00174353
0.00175421
0.00176111
0.00175676
0.00171563
0.00172546
0.00173731
0.00173077
0.00172967
0.00167848
0.00170326
0.00165986
0.00166512
0.00164221
0.00165531
0.00161375
0.0016279
0.00158518
0.00159955
0.00155611
0.00157072
0.00152673
0.00154146
0.00149709
0.00151197
0.00146714
0.00148217
0.00143691
0.00145208
0.00140644
0.00142172
0.00137575
0.00139113
0.00134487
0.00136035
0.00131384
0.00132939
0.00128266
0.00129828
0.00125137
0.00126704
0.00121998
0.0012357
0.0011885
0.00120427
0.00115694
0.00117275
0.0011253
0.00114115
0.00109357
0.00110946
0.00106195
0.00107775
0.00102828
0.00104534
0.00101104
0.000967673
0.000962875
0.000965809
0.000970856
0.000969411
0.000971997
0.000971616
0.000971671
0.000972014
0.000969539
0.000970807
0.000967921
0.00101281
0.000978877
0.000995663
0.00104612
0.00102972
0.00107848
0.00106264
0.00111014
0.00109432
0.00114174
0.00112597
0.00117324
0.00115752
0.00120466
0.00118898
0.00123599
0.00122035
0.00126724
0.00125165
0.00129841
0.00128286
0.00132947
0.00131397
0.0013604
0.00134497
0.00139119
0.00137584
0.00142181
0.00140655
0.00145222
0.00143707
0.00148237
0.00146736
0.00151219
0.00149735
0.0015416
0.00152698
0.00157048
0.00155614
0.0015987
0.00158471
0.00162615
0.00161256
0.00165268
0.00163959
0.00167821
0.00166556
0.00170194
0.00169051
0.00172611
0.00171278
0.00174934
0.00173682
0.00175404
0.0017429
0.00176697
0.00176107
0.00172137
0.000960705
0.00096207
0.00173432
0.00172654
0.00174555
0.00172833
0.00173745
0.00174709
0.00174722
0.00175655
0.00176405
0.00177096
0.00177742
0.00177243
0.00172505
0.00172084
0.00175346
0.00175316
0.00172836
0.0017138
0.00172341
0.00167822
0.00169385
0.00165434
0.00166401
0.00163432
0.00164659
0.00160714
0.00162085
0.00157908
0.00159323
0.00155034
0.0015648
0.00152118
0.00153582
0.00149168
0.00150649
0.00146186
0.00147682
0.00143175
0.00144685
0.0014014
0.00141662
0.00137083
0.00138615
0.00134008
0.00135549
0.00130917
0.00132466
0.00127812
0.00129368
0.00124697
0.00126257
0.00121571
0.00123137
0.00118437
0.00120007
0.00115295
0.00116868
0.00112144
0.00113722
0.00108985
0.00110567
0.00105823
0.00107404
0.00102593
0.00104243
0.000991854
0.0010087
0.000958473
0.000975741
0.000946871
0.000941708
0.000944475
0.000951695
0.000949151
0.000954707
0.000953554
0.000955858
0.000955454
0.000955554
0.00095589
0.00095364
0.000954837
0.000950466
0.000951896
0.000945911
0.000948469
0.000976505
0.000943352
0.000959979
0.0010108
0.000992966
0.00104312
0.00102743
0.00107482
0.00105901
0.00110639
0.00109064
0.00113784
0.00112215
0.00116919
0.00115355
0.00120046
0.00118486
0.00123165
0.00121609
0.00126276
0.00124724
0.00129379
0.00127831
0.00132471
0.00130929
0.00135552
0.00134015
0.00138618
0.00137089
0.00141668
0.00140148
0.00144697
0.00143188
0.00147699
0.00146204
0.00150669
0.00149191
0.00153597
0.00152141
0.00156473
0.00155045
0.00159284
0.0015789
0.0016202
0.00160665
0.00164664
0.00163358
0.00167205
0.0016595
0.00169589
0.00168427
0.00171896
0.00170747
0.00174105
0.0017292
0.00176422
0.00175363
0.00175642
0.00175637
0.00177816
0.00176921
0.00173325
0.00173776
0.00175898
0.00176518
0.00175532
0.0017443
0.0017488
0.000956202
0.000939022
0.000929124
0.000926918
0.00175812
0.0017585
0.00176703
0.00177333
0.00178002
0.00178363
0.00176305
0.00176188
0.00176551
0.00178637
0.00178423
0.0017778
0.00173652
0.00174977
0.00174818
0.00171368
0.0017263
0.00170254
0.00171289
0.00167267
0.0016861
0.00164926
0.00166041
0.0016265
0.00163861
0.00160008
0.00161351
0.00157244
0.0015864
0.001544
0.00155832
0.00151506
0.0015296
0.00148572
0.00150045
0.00145605
0.00147094
0.00142608
0.00144111
0.00139586
0.00141102
0.00136543
0.00138069
0.00133482
0.00135016
0.00130405
0.00131947
0.00127315
0.00128863
0.00124214
0.00125767
0.00121103
0.00122661
0.00117984
0.00119546
0.00114857
0.00116423
0.00111721
0.00113292
0.00108578
0.00110152
0.00105425
0.00107003
0.00102277
0.00103852
0.000989158
0.0010062
0.000972811
0.00093141
0.000925779
0.000928958
0.000935861
0.000933616
0.00093851
0.000937402
0.000939699
0.000939284
0.000939414
0.00093974
0.000937741
0.000938746
0.000934217
0.000936198
0.000931903
0.000974066
0.000940774
0.0009574
0.00100805
0.000990901
0.00103939
0.00102374
0.0010709
0.00105517
0.0011023
0.00108663
0.00113358
0.00111797
0.00116478
0.00114921
0.00119589
0.00118036
0.00122692
0.00121144
0.00125788
0.00124243
0.00128875
0.00127335
0.00131953
0.00130417
0.00135019
0.0013349
0.00138071
0.00136549
0.00141107
0.00139594
0.00144122
0.0014262
0.00147111
0.00145623
0.00150067
0.00148596
0.00152981
0.00151533
0.00155844
0.00154423
0.00158643
0.00157255
0.00161367
0.00160019
0.00164001
0.001627
0.00166533
0.00165284
0.00168931
0.00167755
0.00171211
0.0017009
0.00173389
0.00172303
0.00175354
0.00174458
0.00177642
0.00176038
0.00176835
0.00178789
0.00179717
0.00179508
0.00178996
0.00177561
0.00176224
0.00176297
0.00174648
0.00174923
0.00092294
0.000924408
0.00177683
0.00175743
0.00175993
0.00176612
0.00176919
0.00177688
0.00178347
0.0017865
0.00178854
0.00177258
0.00176483
0.00176838
0.00178038
0.00179077
0.00179892
0.00177759
0.0017845
0.00178825
0.00179761
0.00180222
0.00174853
0.00175825
0.00175503
0.00173616
0.00174096
0.00170925
0.00172278
0.00169184
0.00170176
0.00166639
0.00167914
0.00164259
0.00165429
0.00161874
0.001631
0.00159264
0.00160591
0.00156531
0.00157912
0.00153715
0.00155133
0.00150842
0.00152286
0.00147926
0.00149391
0.00144975
0.00146457
0.00141994
0.0014349
0.00138987
0.00140495
0.00135959
0.00137478
0.00132913
0.0013444
0.00129852
0.00131386
0.00126778
0.00128318
0.00123693
0.00125238
0.00120598
0.00122148
0.00117495
0.00119049
0.00114384
0.00115942
0.00111265
0.00112827
0.00108138
0.00109704
0.00105002
0.00106573
0.0010186
0.00103432
0.000986382
0.00100287
0.000953688
0.000969733
0.000920204
0.000936332
0.000909565
0.000904231
0.000906728
0.000915565
0.000912466
0.000919784
0.000918017
0.000922335
0.000921219
0.000923517
0.000923107
0.000923242
0.000923562
0.000921557
0.00092257
0.000917902
0.000920045
0.000913224
0.000915574
0.000908195
0.000910792
0.000937803
0.000904804
0.000922381
0.000971854
0.000954389
0.00100407
0.00098836
0.00103537
0.00101972
0.00106669
0.00105107
0.0010979
0.00108233
0.001129
0.00111348
0.00116002
0.00114455
0.00119096
0.00117553
0.00122183
0.00120643
0.00125262
0.00123726
0.00128333
0.00126801
0.00131394
0.00129867
0.00134445
0.00132924
0.00137482
0.00135968
0.00140503
0.00138998
0.00143503
0.00142009
0.00146477
0.00144996
0.00149418
0.00147955
0.00152317
0.00150876
0.00155166
0.00153752
0.00157952
0.00156571
0.00160664
0.00159322
0.00163287
0.00161991
0.00165808
0.00164565
0.00168207
0.00167028
0.00170485
0.00169364
0.00172636
0.00171581
0.00174548
0.00173642
0.00176369
0.00175466
0.00176588
0.00177533
0.00178266
0.00180242
0.00179635
0.00175907
0.00176049
0.00177371
0.00176756
0.00177062
0.00091715
0.000901589
0.000892085
0.000888776
0.00177753
0.00177932
0.00178653
0.00179181
0.00179564
0.00179992
0.00177801
0.00177096
0.00178718
0.00178843
0.00179376
0.00178608
0.00179339
0.00180663
0.00180358
0.00179941
0.00180741
0.00176018
0.00176062
0.00174932
0.00174477
0.00175377
0.00172359
0.00173389
0.0017031
0.00171381
0.00168293
0.00169339
0.00165901
0.0016712
0.00163508
0.001647
0.00161076
0.00162314
0.00158483
0.00159799
0.00155774
0.00157143
0.00152983
0.00154389
0.00150132
0.00151566
0.00147235
0.00148691
0.00144301
0.00145774
0.00141337
0.00142825
0.00138347
0.00139847
0.00135335
0.00136845
0.00132306
0.00133824
0.00129261
0.00130787
0.00126204
0.00127736
0.00123136
0.00124673
0.00120058
0.001216
0.00116973
0.00118518
0.0011388
0.00115429
0.00110779
0.00112332
0.0010767
0.00109227
0.00104553
0.00106114
0.00101424
0.00102991
0.000982977
0.000998638
0.000950463
0.000966498
0.00093335
0.000893671
0.000887995
0.000891259
0.000899807
0.000896815
0.000903628
0.000901921
0.000906158
0.000905057
0.000907313
0.000906912
0.000907062
0.000907364
0.000905445
0.000906415
0.000902575
0.000904188
0.000897452
0.000900223
0.000894497
0.000934874
0.000901863
0.000919642
0.00096886
0.00095168
0.000999923
0.000984405
0.0010311
0.00101554
0.00106221
0.00104669
0.00109321
0.00107774
0.00112413
0.00110871
0.00115496
0.00113958
0.00118572
0.00117038
0.00121641
0.0012011
0.00124702
0.00123175
0.00127756
0.00126233
0.001308
0.00129282
0.00133834
0.00132322
0.00136855
0.00135349
0.00139859
0.00138362
0.00142843
0.00141357
0.00145801
0.00144329
0.00148726
0.00147271
0.0015161
0.00150177
0.00154443
0.00153037
0.00157215
0.00155841
0.00159914
0.00158578
0.00162525
0.00161235
0.00165036
0.00163798
0.00167429
0.00166252
0.00169697
0.00168583
0.00171828
0.00170785
0.00173753
0.00172826
0.00175452
0.00174653
0.00176856
0.00176114
0.0017878
0.00177966
0.00180372
0.00179734
0.00178531
0.00178409
0.00178209
0.00176968
0.00177121
0.00088474
0.000885951
0.00179162
0.00177786
0.00178081
0.00178785
0.00178892
0.0017954
0.00180028
0.00180393
0.00180563
0.00179094
0.00178002
0.00177944
0.00178786
0.00178742
0.0018018
0.00179006
0.0018031
0.00179419
0.00180214
0.00179293
0.00181172
0.00181239
0.00181018
0.00180652
0.00177093
0.00176858
0.00177877
0.00174897
0.0017446
0.00173239
0.00174473
0.00171496
0.00172392
0.001695
0.00170526
0.00167412
0.00168482
0.00165088
0.00166271
0.00162701
0.001639
0.00160247
0.00161491
0.00157665
0.00158973
0.00154978
0.00156335
0.00152209
0.00153604
0.0014938
0.00150803
0.00146502
0.00147948
0.00143587
0.00145051
0.00140641
0.0014212
0.00137668
0.00139159
0.00134674
0.00136176
0.00131662
0.00133172
0.00128635
0.00130152
0.00125596
0.00127119
0.00122546
0.00124074
0.00119487
0.0012102
0.00116421
0.00117957
0.00113346
0.00114886
0.00110265
0.00111808
0.00107175
0.00108722
0.00104078
0.00105629
0.0010097
0.00102527
0.00097855
0.000994144
0.000947492
0.00096292
0.000913792
0.000930368
0.000881908
0.000898051
0.000871883
0.000864769
0.000868641
0.00087857
0.000875024
0.000883871
0.000881647
0.000887502
0.000885809
0.000889967
0.000888899
0.000891093
0.0008907
0.000890864
0.000891149
0.000889309
0.000890247
0.00088658
0.000888083
0.000882579
0.000884771
0.000875999
0.000879396
0.000869933
0.000872965
0.000899068
0.000867037
0.000883538
0.000931744
0.000916082
0.000964826
0.000948602
0.00099562
0.000980176
0.00102659
0.00101113
0.00105747
0.00104206
0.00108827
0.00107291
0.00111899
0.00110367
0.00114963
0.00113434
0.0011802
0.00116495
0.0012107
0.00119548
0.00124112
0.00122594
0.00127148
0.00125634
0.00130174
0.00128665
0.0013319
0.00131686
0.00136193
0.00134697
0.0013918
0.00137692
0.00142147
0.0014067
0.00145088
0.00143624
0.00147996
0.00146549
0.00150863
0.00149438
0.00153681
0.00152282
0.00156438
0.00155071
0.00159122
0.00157793
0.00161721
0.00160436
0.0016422
0.00162987
0.00166605
0.00165431
0.00168862
0.00167754
0.00170976
0.00169942
0.00172901
0.00171969
0.00174612
0.00173793
0.00176118
0.00175366
0.00177503
0.00176934
0.00177526
0.00179427
0.00179606
0.00180587
0.00180027
0.00177994
0.00178146
0.00179819
0.00178774
0.00179048
0.000878649
0.000861906
0.000854222
0.000851519
0.00179765
0.00179793
0.00180379
0.00180817
0.001811
0.00181225
0.00177896
0.00177153
0.00177138
0.00178182
0.00179148
0.00180165
0.00180931
0.00180067
0.00180557
0.0018176
0.00181605
0.00181095
0.00180893
0.00179141
0.00179645
0.00178123
0.00177222
0.0017664
0.00175464
0.0017687
0.00173747
0.00174386
0.00172354
0.00173197
0.00170596
0.00171497
0.00168614
0.00169629
0.00166507
0.00167583
0.00164223
0.00165385
0.00161846
0.00163045
0.00159385
0.00160631
0.00156814
0.00158115
0.00154146
0.00155493
0.00151398
0.00152783
0.0014859
0.00150003
0.00145733
0.00147169
0.00142837
0.00144291
0.00139909
0.00141378
0.00136955
0.00138437
0.0013398
0.00135472
0.00130986
0.00132487
0.00127978
0.00129486
0.00124958
0.00126472
0.00121928
0.00123446
0.00118888
0.00120411
0.00115841
0.00117367
0.00112787
0.00114317
0.00109725
0.00111259
0.00106657
0.00108193
0.0010358
0.00105121
0.00100495
0.0010204
0.000974025
0.00098951
0.000943346
0.000958617
0.000910562
0.00092718
0.000893982
0.000856717
0.000849064
0.000853497
0.000863396
0.000860064
0.00086783
0.000865753
0.000871383
0.000869736
0.000873762
0.00087273
0.000874859
0.000874474
0.000874645
0.000874916
0.000873136
0.00087405
0.000870399
0.000871914
0.000866547
0.000868625
0.000860523
0.000863824
0.000857225
0.000896391
0.00086382
0.000880972
0.000928696
0.000912414
0.000960325
0.000944908
0.00099109
0.000975707
0.00102184
0.0010065
0.00105251
0.00103721
0.0010831
0.00106784
0.00111361
0.00109839
0.00114405
0.00112886
0.00117442
0.00115926
0.00120472
0.0011896
0.00123495
0.00121987
0.00126511
0.00125007
0.00129519
0.00128019
0.00132516
0.00131022
0.00135501
0.00134013
0.00138469
0.0013699
0.00141418
0.0013995
0.00144341
0.00142886
0.00147231
0.00145793
0.00150081
0.00148665
0.00152882
0.00151492
0.00155623
0.00154264
0.00158293
0.00156971
0.00160878
0.001596
0.00163365
0.00162138
0.0016574
0.00164571
0.00167987
0.00166884
0.00170088
0.00169061
0.00172009
0.00171076
0.00173726
0.00172899
0.00175254
0.00174505
0.00176516
0.0017596
0.00177487
0.00176977
0.00178841
0.00177712
0.00179513
0.00178718
0.00178114
0.00180282
0.00180417
0.00178974
0.0017912
0.000845959
0.000847938
0.00180258
0.00179721
0.00179958
0.00180643
0.00180639
0.00181166
0.00181532
0.00181748
0.00181808
0.00177503
0.00176568
0.00176037
0.0017791
0.00177337
0.001784
0.00177382
0.00178661
0.00179132
0.00180371
0.0018081
0.00181411
0.00181069
0.00182176
0.0018183
0.00181233
0.00180675
0.00179814
0.00179197
0.00179102
0.00177178
0.00177219
0.00176057
0.00174993
0.00174207
0.00175766
0.00172884
0.00173492
0.00171419
0.00172215
0.00169647
0.00170558
0.00167684
0.00168689
0.00165577
0.00166652
0.00163317
0.00164466
0.0016095
0.00162147
0.00158492
0.00159736
0.00155932
0.00157226
0.00153281
0.00154619
0.00150554
0.00151928
0.00147766
0.00149169
0.00144929
0.00146355
0.00142053
0.00143498
0.00139145
0.00140605
0.00136211
0.00137683
0.00133255
0.00134737
0.00130281
0.00131772
0.00127293
0.00128791
0.00124293
0.00125796
0.00121283
0.00122791
0.00118264
0.00119776
0.00115237
0.00116753
0.00112204
0.00113723
0.00109163
0.00110686
0.00106116
0.00107642
0.00103062
0.00104591
0.000999999
0.00101533
0.000969312
0.000984678
0.000938655
0.000953967
0.000907313
0.000923314
0.000875409
0.000890654
0.000842955
0.00085909
0.000834032
0.000826846
0.000830879
0.000841395
0.000837391
0.000847411
0.000844812
0.000851777
0.000849677
0.000855244
0.00085365
0.000857546
0.000856547
0.000858613
0.000858238
0.00085841
0.000858671
0.000856952
0.000857836
0.000854279
0.000855764
0.000850506
0.000852513
0.000845793
0.00084833
0.00083902
0.00084245
0.00083244
0.000835614
0.000860894
0.000829413
0.00084506
0.000893295
0.000876859
0.000925086
0.000909017
0.000955742
0.000940454
0.00098636
0.000971076
0.00101689
0.00100166
0.00104734
0.00103215
0.00107772
0.00106256
0.00110801
0.0010929
0.00113824
0.00112316
0.0011684
0.00115335
0.0011985
0.00118348
0.00122853
0.00121355
0.00125849
0.00124355
0.00128837
0.00127347
0.00131815
0.0013033
0.0013478
0.00133302
0.0013773
0.0013626
0.00140659
0.00139201
0.00143563
0.00142118
0.00146435
0.00145007
0.00149268
0.0014786
0.00152051
0.00150669
0.00154776
0.00153425
0.0015743
0.00156116
0.00160002
0.00158731
0.00162477
0.00161256
0.00164841
0.00163677
0.00167078
0.0016598
0.00169168
0.00168146
0.00171085
0.00170154
0.00172805
0.00171975
0.00174328
0.00173591
0.00175596
0.00175013
0.00176552
0.00176114
0.00177317
0.00176958
0.0017713
0.0018104
0.00181138
0.00178775
0.0017819
0.00179905
0.00180037
0.00181026
0.00180595
0.0018081
0.000839803
0.000823477
0.000816763
0.000813345
0.00181435
0.00181427
0.00181883
0.00182182
0.00182324
0.00182324
0.00176564
0.00175986
0.00174811
0.00175377
0.00178062
0.00178376
0.00179798
0.00179607
0.00180991
0.00181449
0.00181713
0.00182468
0.00181988
0.00181385
0.00180314
0.00179907
0.00179014
0.00177389
0.00177996
0.00180026
0.00176046
0.00174402
0.00176087
0.00176621
0.00174678
0.00174395
0.00173289
0.00174375
0.00171962
0.00172599
0.00170442
0.00171246
0.00168673
0.00169583
0.00166724
0.00167722
0.00164622
0.00165693
0.00162377
0.00163518
0.00160022
0.00161214
0.00157569
0.0015881
0.00155022
0.00156309
0.00152387
0.00153717
0.0014968
0.00151044
0.00146912
0.00148305
0.00144096
0.00145511
0.0014124
0.00142674
0.00138352
0.00139802
0.00135438
0.001369
0.00132502
0.00133975
0.00129549
0.0013103
0.00126582
0.00128069
0.00123603
0.00125095
0.00120613
0.00122111
0.00117616
0.00119117
0.00114611
0.00116116
0.00111599
0.00113107
0.00108581
0.00110092
0.00105556
0.00107071
0.00102524
0.00104042
0.000994859
0.00101007
0.000964412
0.000979657
0.000933919
0.000949177
0.000903449
0.000918711
0.000871635
0.000887249
0.000855747
0.000819198
0.000811272
0.00081583
0.000826005
0.000822473
0.000831357
0.000828862
0.000835729
0.000833653
0.000839091
0.000837547
0.000841322
0.000840353
0.000842359
0.000841993
0.000842168
0.000842417
0.000840762
0.000841615
0.000838183
0.000839616
0.000834506
0.000836473
0.000829908
0.000832342
0.000823468
0.00082691
0.000819972
0.000857852
0.000826643
0.000842011
0.000889996
0.000873673
0.000920528
0.000905203
0.000951046
0.000935813
0.000981454
0.000966281
0.00101176
0.000996639
0.00104199
0.00102691
0.00107214
0.0010571
0.00110222
0.00108721
0.00113223
0.00111726
0.00116218
0.00114724
0.00119207
0.00117716
0.00122189
0.00120701
0.00125165
0.0012368
0.00128132
0.00126652
0.0013109
0.00129615
0.00134035
0.00132567
0.00136965
0.00135505
0.00139875
0.00138425
0.00142759
0.00141324
0.00145612
0.00144193
0.00148426
0.00147028
0.00151192
0.00149819
0.00153901
0.00152558
0.0015654
0.00155233
0.00159097
0.00157833
0.0016156
0.00160345
0.00163913
0.00162754
0.0016614
0.00165047
0.00168223
0.00167204
0.00170136
0.00169205
0.00171859
0.00171027
0.00173379
0.00172647
0.00174651
0.00174057
0.00175642
0.00175182
0.00176319
0.00176042
0.00176619
0.00176476
0.00177237
0.00176361
0.00176592
0.00176106
0.00176584
0.00181718
0.0018171
0.00180771
0.00180894
0.000808046
0.000810162
0.00181722
0.00181392
0.001816
0.00182158
0.00182147
0.00182532
0.00182755
0.00182824
0.0018273
0.00173897
0.00174277
0.0017416
0.00175719
0.001762
0.00177012
0.00179026
0.00179134
0.00180418
0.00180672
0.00181437
0.00181877
0.00182652
0.00182077
0.00181312
0.00180572
0.00179575
0.00178375
0.00177149
0.00175426
0.00176526
0.00175444
0.00180887
0.00175782
0.00173373
0.00174786
0.00174419
0.00174735
0.00175075
0.0017346
0.00173981
0.00172392
0.00173067
0.00171003
0.001717
0.00169449
0.00170259
0.00167682
0.00168591
0.00165738
0.00166733
0.00163642
0.0016471
0.0016141
0.00162544
0.00159065
0.00160252
0.00156621
0.00157857
0.00154086
0.00155367
0.00151468
0.00152789
0.00148779
0.00150134
0.00146031
0.00147414
0.00143235
0.00144641
0.001404
0.00141824
0.00137533
0.00138972
0.0013464
0.00136091
0.00131725
0.00133187
0.00128793
0.00130263
0.00125847
0.00127324
0.00122889
0.00124371
0.00119922
0.00121409
0.00116947
0.00118437
0.00113964
0.00115458
0.00110975
0.00112472
0.00107979
0.00109479
0.00104978
0.00106481
0.00101969
0.00103476
0.00098955
0.00100464
0.000959345
0.000974468
0.000929086
0.000944234
0.000898882
0.000913974
0.00086769
0.000883199
0.000836635
0.000852262
0.000805065
0.000820464
0.00079634
0.00078897
0.000793132
0.000803988