/*--------------------------------*- C++ -*----------------------------------*\
  =========                 |
  \\      /  F ield         | OpenFOAM: The Open Source CFD Toolbox
   \\    /   O peration     | Website:  https://openfoam.org
    \\  /    A nd           | Version:  10
     \\/     M anipulation  |
\*---------------------------------------------------------------------------*/
FoamFile
{
    format      ascii;
    class       volScalarField;
    location    "20";
    object      p;
}
// * * * * * * * * * * * * * * * * * * * * * * * * * * * * * * * * * * * * * //

dimensions      [0 2 -2 0 0 0 0];

internalField   nonuniform List<scalar> 
14667
(
0.293118
0.302834
-0.00525582
-0.00434852
-0.00146198
0.22262
0.209817
-0.00538142
0.00342023
0.00236881
0.225825
0.239424
0.321001
0.253124
-0.00696707
0.206465
0.213612
0.0215303
0.0125539
0.21557
0.247009
0.327286
0.263312
0.254902
-0.336383
-0.352331
-0.398578
-0.373077
-0.37341
0.55545
0.519391
0.512973
-0.525994
-0.525105
-0.5802
-0.533709
-0.550382
0.00559002
-0.0038602
0.00557816
0.0139239
0.021581
0.705097
0.720367
0.814058
0.788929
0.692852
-0.175174
-0.12627
-0.159143
-0.227541
0.634244
0.582033
0.541452
-0.0913605
-0.129836
-0.401195
-0.345015
-0.441886
-0.429399
-0.373793
-0.394459
0.298971
0.356163
0.451431
0.386049
0.257298
0.317461
0.176729
0.484008
0.469736
0.461063
0.888064
0.827491
-0.096439
-0.0280819
-0.0434859
-0.0871004
0.482697
0.495643
0.00882091
0.00520863
0.00499678
-0.00105632
-0.000682701
-0.432012
-0.457438
-0.350294
-0.326219
-0.307324
-0.306214
-0.0998283
-0.0826101
-0.195432
-0.218409
-0.270423
-0.256729
-0.114703
-0.122771
-0.0698462
-0.0826557
-0.233691
-0.174445
0.411832
0.449976
0.433889
0.404117
0.38773
0.379661
-0.00911714
-0.0113518
-0.00801949
-0.00757595
-0.00308161
-0.00637494
0.00410453
-0.00727515
-0.0040235
-0.0057883
-0.00890473
-0.00545541
-0.187872
-0.208314
-0.196208
-0.182202
-0.167445
-0.179554
-0.166089
-0.150034
-0.139485
-0.152356
-0.13655
-0.126668
-0.120714
-0.128837
-0.120236
-0.116799
-0.112174
-0.115151
-0.115918
-0.117476
-0.114285
-0.111835
-0.121774
-0.12902
-0.128625
-0.119809
-0.13924
-0.152259
-0.156823
-0.14093
-0.167407
-0.18372
-0.198481
-0.176261
-0.202348
-0.222004
-0.245034
-0.221619
-0.240019
-0.254679
-0.278708
-0.265366
-0.262764
-0.263506
-0.28541
-0.286425
-0.275285
-0.254179
-0.200112
-0.223363
-0.237859
-0.175969
-0.17522
-0.199596
-0.240723
-0.246402
-0.230525
-0.239015
-0.23862
-0.221707
-0.232546
-0.189491
-0.206921
-0.158
-0.173345
-0.133234
-0.144295
-0.119902
-0.125125
-0.117568
-0.117415
-0.126174
-0.120427
-0.147339
-0.135092
-0.179997
-0.162546
-0.214528
-0.197512
-0.229119
-0.245434
-0.222996
-0.166219
-0.172663
-0.147861
-0.15887
-0.123567
-0.13505
-0.108003
-0.114353
-0.103418
-0.10444
-0.10861
-0.104782
-0.125042
-0.115243
-0.155489
-0.13838
-0.201264
-0.176546
-0.254622
-0.228279
-0.294733
-0.277596
-0.302424
-0.304164
-0.290759
-0.194772
-0.170954
-0.214549
-0.232796
-0.266102
-0.25874
-0.239435
-0.244908
-0.202117
-0.212414
-0.210799
-0.199516
-0.20856
-0.170293
-0.18607
-0.142917
-0.155897
-0.123797
-0.131962
-0.116432
-0.118648
-0.120189
-0.116985
-0.134693
-0.126035
-0.161039
-0.146335
-0.197255
-0.178231
-0.234875
-0.216534
-0.261617
-0.249986
-0.267128
-0.217696
-0.147024
-0.150829
-0.150569
-0.141558
-0.147347
-0.123841
-0.133706
-0.105442
-0.114057
-0.0946018
-0.0988694
-0.0928969
-0.0926491
-0.100498
-0.0954342
-0.11976
-0.108489
-0.153559
-0.134694
-0.203026
-0.176493
-0.260287
-0.23182
-0.303592
-0.285212
-0.312302
-0.313239
-0.27949
-0.300344
-0.21793
-0.223408
-0.252467
-0.187826
-0.215865
-0.207097
-0.228463
-0.191199
-0.195146
-0.245776
-0.12383
-0.283295
-0.274686
-0.119169
-0.141358
-0.169228
-0.193982
-0.142287
-0.172473
-0.158872
-0.184306
-0.181208
-0.173426
-0.181265
-0.149887
-0.161892
-0.129
-0.138813
-0.115694
-0.121078
-0.113218
-0.113091
-0.121029
-0.115903
-0.138925
-0.128615
-0.16866
-0.152203
-0.209131
-0.187871
-0.250941
-0.230795
-0.279521
-0.267518
-0.284974
-0.186501
-0.208263
-0.16405
-0.125475
-0.126058
-0.117147
-0.122238
-0.102358
-0.110336
-0.0877227
-0.0945033
-0.0799954
-0.0827804
-0.0809279
-0.0794132
-0.0906418
-0.0845991
-0.111435
-0.0994537
-0.146737
-0.127067
-0.198427
-0.170671
-0.259046
-0.22869
-0.306389
-0.286199
-0.316758
-0.317106
-0.283577
-0.305127
-0.224886
-0.25581
-0.16662
-0.194453
-0.191334
-0.148771
-0.124723
-0.133618
-0.113092
-0.181431
-0.168732
-0.165967
-0.145864
-0.260173
-0.142657
-0.171399
-0.107988
-0.0863489
-0.114491
-0.099752
-0.14088
-0.12863
-0.152272
-0.148947
-0.145241
-0.150679
-0.128944
-0.137415
-0.114047
-0.120927
-0.105979
-0.108899
-0.107398
-0.105486
-0.118089
-0.111602
-0.138757
-0.127008
-0.172036
-0.153685
-0.216701
-0.193365
-0.262205
-0.240293
-0.293221
-0.280388
-0.296784
-0.298897
-0.270841
-0.287131
-0.240931
-0.213463
-0.228723
-0.17555
-0.195539
-0.15458
-0.0933683
-0.100688
-0.0977586
-0.100533
-0.101732
-0.092931
-0.0974985
-0.0806152
-0.08705
-0.0696311
-0.0745375
-0.0651975
-0.0664604
-0.0682667
-0.0658182
-0.0793567
-0.0726865
-0.101133
-0.0887008
-0.137156
-0.117152
-0.189459
-0.161385
-0.251335
-0.220195
-0.30167
-0.279694
-0.314271
-0.313907
-0.281249
-0.302776
-0.221513
-0.253025
-0.160722
-0.189929
-0.135644
-0.249692
-0.166851
-0.129107
-0.157619
-0.0757826
-0.094483
-0.144118
-0.0745952
-0.071487
-0.0884336
-0.12681
-0.10621
-0.277243
-0.254159
-0.0971985
-0.149162
-0.0685228
-0.0517843
-0.0650099
-0.0570944
-0.0873186
-0.0753257
-0.109584
-0.0992331
-0.120656
-0.116998
-0.117409
-0.120511
-0.106728
-0.112442
-0.0970019
-0.101325
-0.0935217
-0.0942764
-0.0984825
-0.094912
-0.112143
-0.104199
-0.135846
-0.122545
-0.172363
-0.152397
-0.220112
-0.195268
-0.268657
-0.245245
-0.301581
-0.28808
-0.305227
-0.307531
-0.294803
-0.219018
-0.228055
-0.225462
-0.196191
-0.209109
-0.162893
-0.180497
-0.125129
-0.14413
-0.106446
-0.0785411
-0.0771775
-0.077206
-0.0785559
-0.0705159
-0.0744698
-0.0605705
-0.0656647
-0.0525307
-0.0559724
-0.0505095
-0.0506723
-0.0551578
-0.0520143
-0.0671161
-0.060099
-0.0890225
-0.0766191
-0.124517
-0.104842
-0.17607
-0.148351
-0.237894
-0.206633
-0.289596
-0.266737
-0.30467
-0.302993
-0.273142
-0.294101
-0.213302
-0.244969
-0.151727
-0.181265
-0.103877
-0.125691
-0.0853594
-0.145176
-0.112715
-0.0840021
-0.0686081
-0.137628
-0.0849841
-0.126282
-0.0492556
-0.064396
-0.111479
-0.0928248
-0.226569
-0.0704985
-0.0564604
-0.201232
-0.198889
-0.129925
-0.0490534
-0.0350817
-0.0355626
-0.0344059
-0.0444327
-0.0388255
-0.0615277
-0.0521796
-0.0801031
-0.0712811
-0.0907187
-0.086814
-0.0902282
-0.0916421
-0.0838282
-0.0873154
-0.0786181
-0.080696
-0.0792732
-0.0780414
-0.0877008
-0.0824747
-0.10431
-0.0949431
-0.13063
-0.116061
-0.169429
-0.14837
-0.219294
-0.193398
-0.269746
-0.245444
-0.304059
-0.289938
-0.308343
-0.31053
-0.278859
-0.297501
-0.254544
-0.195941
-0.200244
-0.177638
-0.188203
-0.14956
-0.164578
-0.116673
-0.133357
-0.100125
-0.0539065
-0.0568048
-0.0553066
-0.0580061
-0.0578176
-0.0557942
-0.0573548
-0.049764
-0.053221
-0.0417474
-0.0457486
-0.0362158
-0.0383933
-0.0362723
-0.0355031
-0.0420656
-0.0384624
-0.0543491
-0.047266
-0.0757346
-0.0637068
-0.109726
-0.0909288
-0.159015
-0.132469
-0.219158
-0.188546
-0.271142
-0.247885
-0.28829
-0.285394
-0.259203
-0.27907
-0.200336
-0.231753
-0.138588
-0.168369
-0.0902227
-0.112401
-0.0549149
-0.0711773
-0.0454257
-0.0280856
-0.0406712
-0.127542
-0.10075
-0.122088
-0.0791437
-0.11298
-0.0630892
-0.0997474
-0.0377025
-0.0510936
-0.0822621
-0.0609961
-0.0180187
-0.036703
-0.222191
-0.0120662
-0.0399142
-0.175323
-0.172032
-0.0402599
-0.05296
0.00747374
-0.193643
-0.11514
-0.0426747
-0.0297508
-0.0217324
-0.0249004
-0.020348
-0.0203134
-0.0254344
-0.0219475
-0.0378853
-0.03083
-0.0530975
-0.0456897
-0.0629598
-0.0590482
-0.064304
-0.0645065
-0.0613763
-0.0630004
-0.0600616
-0.060197
-0.0643501
-0.0613599
-0.0758086
-0.0691545
-0.0947734
-0.0843069
-0.122902
-0.107489
-0.163098
-0.141387
-0.213998
-0.187638
-0.265172
-0.240522
-0.300265
-0.285763
-0.304968
-0.30701
-0.274952
-0.294078
-0.249745
-0.173152
-0.175692
-0.159293
-0.167628
-0.13638
-0.148698
-0.108753
-0.122919
-0.0800073
-0.0943282
-0.0662129
-0.0399861
-0.0399681
-0.0392254
-0.0398072
-0.0364268
-0.0381522
-0.0309913
-0.0340014
-0.0246671
-0.027715
-0.0212299
-0.0223757
-0.0228197
-0.0213934
-0.0292865
-0.0254448
-0.0414661
-0.0345374
-0.0617631
-0.0504225
-0.0934059
-0.0759491
-0.139201
-0.1145
-0.196028
-0.166907
-0.247082
-0.223906
-0.266017
-0.261956
-0.240062
-0.258346
-0.183119
-0.213783
-0.121859
-0.151564
-0.0732905
-0.095769
-0.0382855
-0.0545675
-0.0105181
-0.0237599
0.0011241
-0.114777
-0.0928346
-0.0525721
-0.0410722
0.0283222
-0.111001
-0.0764854
-0.103404
-0.0643335
-0.0912809
-0.0557064
-0.0744985
-0.0370186
-0.0502346
-0.0540611
-0.0297482
-0.00626067
-0.166346
-0.104867
-0.0469344
-0.0331897
-0.0177522
-0.0244964
-0.00952135
-0.012866
-0.00668994
-0.00746251
-0.00871985
-0.00701529
-0.0169621
-0.0120514
-0.0288373
-0.0228597
-0.0374753
-0.0339305
-0.0403432
-0.0396053
-0.0401906
-0.0403145
-0.0420392
-0.0405972
-0.0492348
-0.0448496
-0.0629816
-0.0552726
-0.0835772
-0.0723687
-0.112797
-0.096905
-0.153509
-0.131623
-0.204289
-0.178056
-0.255179
-0.230644
-0.290366
-0.275758
-0.295451
-0.297282
-0.265909
-0.284649
-0.213838
-0.241473
-0.158014
-0.185255
-0.141345
-0.151409
-0.147457
-0.151807
-0.152935
-0.141923
-0.148116
-0.124065
-0.133764
-0.101497
-0.113203
-0.0768053
-0.0892849
-0.0644602
-0.0299691
-0.0266636
-0.0281419
-0.0244837
-0.0255009
-0.0223611
-0.0234727
-0.0191115
-0.0209488
-0.01419
-0.0168156
-0.00930469
-0.0115419
-0.00759637
-0.00790369
-0.0103256
-0.00843579
-0.0171109
-0.0132038
-0.0288334
-0.0222401
-0.0476192
-0.0371903
-0.076308
-0.0605289
-0.117625
-0.0953204
-0.169689
-0.14283
-0.218462
-0.195949
-0.239032
-0.233722
-0.21673
-0.233155
-0.162732
-0.192169
-0.102357
-0.131833
-0.0539234
-0.0761871
-0.0188397
-0.0351724
0.00834894
-0.00439734
0.0194048
-0.133258
-0.10602
-0.0884397
-0.0442846
-0.0598313
-0.103807
-0.0766415
-0.0973882
-0.0685443
-0.0862503
-0.063575
-0.0702906
-0.0610762
-0.0500764
-0.0250765
0.0308848
0.00493417
0.0345394
-0.147377
-0.0195006
-0.0227122
-0.123316
-0.0325067
-0.098394
-0.0582119
-0.0417864
-0.02049
-0.0301111
-0.00665921
-0.0128018
0.00146339
-0.00194958
0.00531323
0.0038557
0.00564867
0.00595654
0.00111581
0.00409015
-0.00759646
-0.00300291
-0.0151767
-0.0118539
-0.0188098
-0.0174536
-0.0206966
-0.0197084
-0.0248989
-0.0222857
-0.0341996
-0.0288156
-0.0495164
-0.0410972
-0.071113
-0.0594724
-0.100733
-0.0847279
-0.141035
-0.119466
-0.190658
-0.165067
-0.240291
-0.216343
-0.274958
-0.260479
-0.280533
-0.282009
-0.252255
-0.270266
-0.201546
-0.228459
-0.173813
-0.076062
-0.0751555
-0.0557684
-0.119479
-0.102542
-0.111676
-0.130034
-0.125671
-0.132581
-0.132357
-0.12626
-0.130457
-0.113084
-0.120383
-0.0951615
-0.104598
-0.0744244
-0.0850274
-0.0530485
-0.0636992
-0.0425854
-0.0142981
-0.0167288
-0.0104702
-0.0122518
-0.00738701
-0.00891568
-0.00381149
-0.00572194
0.000626792
-0.0016466
0.0042367
0.00271108
0.00454202
0.00489029
0.00106577
0.00322748
-0.00573481
-0.00190052
-0.0167539
-0.010619
-0.0337547
-0.0243809
-0.0591194
-0.0452221
-0.095316
-0.0757798
-0.141465
-0.117514
-0.186559
-0.165379
-0.208181
-0.201759
-0.190231
-0.20419
-0.140535
-0.168059
-0.0817519
-0.110807
-0.0329959
-0.0554931
0.0022719
-0.0140172
0.0284778
0.0163774
0.0463486
0.0383083
0.0607943
0.0525943
0.0701118
0.0612162
0.0829723
-0.101112
-0.0871958
-0.035759
-0.0267229
-0.100427
-0.0800246
-0.0953634
-0.0761785
-0.085327
-0.0750438
-0.0697391
-0.0757038
-0.0492025
-0.0238087
0.00810526
0.0396946
-0.0961638
-0.0721022
-0.0952309
-0.0907365
-0.0924453
0.0644083
-0.0848505
0.0856698
-0.0758871
-0.095453
-0.0517631
-0.0665823
-0.0271875
-0.0386392
-0.00915524
-0.0173584
0.00317286
-0.00235747
0.0111743
0.00769853
0.0157305
0.0137956
0.0178137
0.0170938
0.0163113
0.017641
0.0105779
0.0138306
0.00419064
0.00717718
0.000113521
0.00186174
-0.00314547
-0.00140442
-0.00894801
-0.00553969
-0.0196404
-0.0136054
-0.0358909
-0.0270718
-0.0578668
-0.0461096
-0.0871735
-0.0714296
-0.12622
-0.105404
-0.173774
-0.149284
-0.221312
-0.198346
-0.254929
-0.240795
-0.260919
-0.262029
-0.23419
-0.251334
-0.185889
-0.211478
-0.134765
-0.159801
-0.112162
-0.100595
-0.0932625
-0.111366
-0.106734
-0.115641
-0.114431
-0.112619
-0.114975
-0.103607
-0.108785
-0.0898696
-0.0972417
-0.0729152
-0.0816956
-0.0543759
-0.0637595
-0.0449975
-0.0180591
-0.0094456
-0.0135272
-0.00283931
-0.00592314
0.00198966
-0.000255099
0.00577034
0.00393753
0.00956103
0.00761418
0.0135193
0.0115842
0.0159863
0.0150847
0.0151923
0.0160283
0.0112881
0.0135731
0.00468877
0.00835295
-0.00545727
0.000137136
-0.0205366
-0.0122812
-0.0424474
-0.0305022
-0.0732448
-0.0566515
-0.112724
-0.0921393
-0.152851
-0.13368
-0.174665
-0.167418
-0.161449
-0.172692
-0.117083
-0.142098
-0.0612118
-0.0892216
-0.0124726
-0.0352172
0.0230668
0.00677494
0.0482626
0.0368561
0.0651254
0.0576317
0.0803594
0.0726332
0.0948681
0.0866957
0.0887164
0.0996701
0.0992959
-0.0999698
-0.0894215
-0.101178
-0.0871622
-0.0977463
-0.087876
-0.088546
-0.0907743
-0.073014
-0.0942526
-0.0508461
-0.0213855
0.0120508
0.043768
0.0711329
0.0987376
0.0893243
-0.0841865
-0.1203
-0.118392
-0.111551
-0.0699208
-0.0818595
-0.00974254
-0.0153314
-0.0232618
-0.066532
-0.0618082
-0.0961999
-0.0585351
-0.0714364
-0.0342751
-0.0459114
-0.014509
-0.0238059
0.000652813
-0.00639616
0.0117957
0.00672137
0.0195298
0.0160343
0.0246559
0.0223669
0.0279384
0.0265121
0.0287551
0.0287757
0.0257423
0.0277097
0.0206936
0.0232445
0.0164203
0.0184084
0.0122817
0.0145015
0.00549991
0.0093872
-0.00594796
0.00042057
-0.0225079
-0.0135989
-0.0442418
-0.0326802
-0.0725796
-0.057431
-0.10966
-0.0899591
-0.154424
-0.131392
-0.199241
-0.17755
-0.231339
-0.217758
-0.237612
-0.23844
-0.212675
-0.228729
-0.167698
-0.191488
-0.12062
-0.143599
-0.0998328
-0.0845653
-0.0775903
-0.0954691
-0.0905848
-0.101108
-0.0990054
-0.101014
-0.10176
-0.0956244
-0.0989476
-0.0856539
-0.0911496
-0.0722093
-0.0792923
-0.0564692
-0.0645528
-0.0397592
-0.0481699
-0.0314694
-5.20104e-05
-0.00466278
0.0074775
0.00399632
0.0129737
0.0104405
0.0172203
0.0151857
0.0211213
0.0191805
0.0245641
0.0229758
0.0259975
0.0256388
0.0243933
0.0255601
0.0203256
0.022617
0.0140762
0.0175063
0.00489619
0.00990984
-0.00824523
-0.00110406
-0.0267824
-0.0167386
-0.0522689
-0.0385883
-0.0848046
-0.0678028
-0.118917
-0.102374
-0.139785
-0.132188
-0.13125
-0.139688
-0.0931112
-0.115066
-0.041475
-0.0677505
0.00607255
-0.0164003
0.0416012
0.0253481
0.0662715
0.0551602
0.0831052
0.0753462
0.0961132
0.089988
0.104482
0.10092
0.101749
0.105035
-0.103078
-0.0956509
-0.0292191
-0.0216227
-0.106472
-0.0986998
-0.104546
-0.104373
-0.0954598
-0.111374
-0.0784688
-0.1173
-0.0530948
-0.0196784
0.0163625
0.0492124
0.0749931
0.0968259
0.0865212
0.0887376
0.0884136
-0.0666377
-0.0582674
-0.0957081
-0.14793
-0.14412
-0.13305
-0.116325
-0.0536463
-0.101122
-0.0386895
-0.0486034
-0.0196809
-0.0288177
-0.00384105
-0.0113661
0.00912503
0.00302252
0.0191394
0.0144814
0.0266631
0.0231791
0.0321763
0.0296418
0.0362358
0.034358
0.0386752
0.0377437
0.0380218
0.0388014
0.0344916
0.0364791
0.0302679
0.0323753
0.0255595
0.0280839
0.018272
0.0223828
0.00664831
0.0130531
-0.00963116
-0.000923447
-0.0305642
-0.0194752
-0.0573821
-0.0431036
-0.0919683
-0.0736409
-0.133471
-0.112123
-0.17516
-0.154943
-0.205384
-0.192519
-0.211623
-0.212275
-0.188722
-0.203472
-0.147734
-0.169369
-0.105377
-0.12593
-0.0708636
-0.0869709
-0.0453622
-0.057104
-0.0426206
-0.0573198
-0.0499627
-0.0710537
-0.0644449
-0.0819369
-0.0769446
-0.0888742
-0.0859416
-0.0912902
-0.0906686
-0.0890582
-0.0907467
-0.0824999
-0.0862834
-0.0723037
-0.0778082
-0.0592972
-0.0660917
-0.0445608
-0.0520639
-0.0369285
-0.0140396
-0.00159051
-0.00761354
0.00866927
0.00380071
0.0166586
0.0129498
0.0225507
0.0198284
0.0270974
0.0249325
0.0309991
0.0291166
0.0338592
0.0326391
0.0343779
0.0344721
0.0322364
0.0335942
0.0282018
0.0304189
0.0223952
0.0255518
0.0142197
0.0186426
0.00294663
0.00902503
-0.0124411
-0.00416456
-0.0329934
-0.0220255
-0.0588211
-0.0453393
-0.0863489
-0.0728548
-0.104901
-0.0976668
-0.10039
-0.106163
-0.0692786
-0.0876411
-0.0232644
-0.0470907
0.0217378
0.000172262
0.0565783
0.0405947
0.0806687
0.0698387
0.0966342
0.0894176
0.107168
0.102576
0.110748
0.110004
0.106595
0.109426
0.102282
-0.0353398
-0.110853
-0.106559
-0.116478
-0.11532
-0.115395
-0.126185
-0.105163
-0.137038
-0.0846418
-0.144995
-0.0543188
-0.0169953
0.0216797
0.0543807
0.0748971
0.0823541
0.0787396
0.0785491
0.077957
0.0682262
0.0680181
-0.072674
-0.103996
-0.0757299
-0.0480353
-0.0502545
-0.178119
-0.170776
-0.153807
-0.130843
-0.0372974
-0.00663597
-0.0139086
-0.0281976
-0.0212288
-0.110786
-0.0374324
-0.0434715
-0.0224634
-0.0302321
-0.00777358
-0.0149428
0.00515171
-0.00109707
0.0163026
0.0109726
0.0254148
0.0211121
0.0326741
0.0292548
0.038396
0.0357099
0.0429454
0.0407897
0.046407
0.0448585
0.0476188
0.0473906
0.0457516
0.0470356
0.0419251
0.0439894
0.0368915
0.0396023
0.0294275
0.0335767
0.0180937
0.024291
0.00258568
0.0108496
-0.0170875
-0.00669623
-0.0419771
-0.0287636
-0.0737594
-0.0569452
-0.111788
-0.0922231
-0.15015
-0.131513
-0.178163
-0.166229
-0.184018
-0.184346
-0.163356
-0.176658
-0.126869
-0.146038
-0.0897871
-0.107711
-0.059804
-0.0737358
-0.0477133
-0.0333095
-0.0207165
-0.0268423
-0.0467042
-0.0399723
-0.0595601
-0.0532923
-0.070518
-0.0653411
-0.0786659
-0.0749938
-0.0832339
-0.081436
-0.0838087
-0.0840302
-0.0803765
-0.0825823
-0.0732299
-0.0772412
-0.0628822
-0.0684147
-0.0501276
-0.0567346
-0.0359491
-0.0431535
-0.0285786
0.00609273
-3.91932e-05
0.0165635
0.0116429
0.0247244
0.0209415
0.0308246
0.0279958
0.03555
0.0333129
0.0393178
0.0375657
0.0415182
0.0406833
0.0412738
0.0417168
0.0388406
0.0402726
0.0349729
0.0370653
0.0296602
0.0325227
0.0224786
0.0263279
0.0129387
0.0180408
0.000375913
0.00707628
-0.0158145
-0.00724369
-0.0355783
-0.025316
-0.0565361
-0.0462215
-0.0715007
-0.0654212
-0.0696273
-0.0732684
-0.0456721
-0.0602427
-0.00669373
-0.0272542
0.0341086
0.0142476
0.0671636
0.0518933
0.0900974
0.0798392
0.104532
0.0982043
0.112177
0.109218
0.112824
0.113345
0.106537
0.110675
0.0939858
0.100679
0.0868584
-0.123625
-0.122703
-0.0293033
-0.0219246
-0.131093
-0.137675
-0.129575
-0.153689
-0.116234
-0.167764
-0.0903615
-0.176798
-0.0543507
-0.012663
0.0271957
0.0571815
0.0718162
0.0744906
0.0670935
0.0570193
0.0565622
0.0563918
0.0450108
0.0452742
-0.107757
-0.0494745
-0.0748322
-0.0299076
-0.0276128
-0.0454045
-0.208308
-0.195203
-0.171505
-0.141501
-0.0149349
-0.0143332
-0.00930079
-0.125653
-0.0287754
-0.0304875
-0.020728
-0.0252997
-0.00965042
-0.0153355
0.00186944
-0.00382668
0.012686
0.00738675
0.0224127
0.0177135
0.0307219
0.0267506
0.0376615
0.0343494
0.043446
0.0406869
0.0482932
0.0459694
0.0523377
0.0504347
0.0548399
0.0538672
0.0546022
0.0551055
0.0516203
0.0534
0.0466127
0.0493606
0.0392194
0.0432818
0.0284822
0.0343092
0.0140939
0.0217392
-0.00399673
0.00554246
-0.0267304
-0.0146793
-0.0556286
-0.0403487
-0.0902058
-0.0724062
-0.125218
-0.10819
-0.150863
-0.139937
-0.15605
-0.156511
-0.137584
-0.149376
-0.105966
-0.12248
-0.0743591
-0.0896022
-0.0488224
-0.0607185
-0.0295577
-0.0385632
-0.021727
-0.0254784
-0.0197469
-0.0376569
-0.0314975
-0.0498009
-0.0437919
-0.0609475
-0.0555599
-0.0701736
-0.0658559
-0.0766384
-0.0737957
-0.0797663
-0.0786454
-0.0792417
-0.0799717
-0.075005
-0.0775814
-0.0672634
-0.0715492
-0.0564967
-0.0622144
-0.0435487
-0.0502611
-0.0365254
-0.0144111
0.000582803
-0.0065826
0.0132447
0.00719198
0.0236455
0.018734
0.0317713
0.0279867
0.0379475
0.0350692
0.0427225
0.0404838
0.0461841
0.0446474
0.0476802
0.0472227
0.0468601
0.0475377
0.0443378
0.0457567
0.0407161
0.0426565
0.0359199
0.0384816
0.0296875
0.0329982
0.021711
0.0259404
0.0116064
0.016945
-0.000883515
0.00566162
-0.0155001
-0.00798439
-0.0305042
-0.0231619
-0.0411939
-0.0368166
-0.0401523
-0.0425969
-0.0222232
-0.0333382
0.00910076
-0.00768304
0.0440405
0.0267681
0.0738216
0.0599237
0.0948081
0.0854466
0.107447
0.10206
0.11299
0.111076
0.112021
0.113256
0.104652
0.109213
0.0920027
0.0988275
0.0758134
0.0843265
0.0666267
-0.141539
-0.144632
-0.149778
-0.165893
-0.145816
-0.186423
-0.126983
-0.202538
-0.0941665
-0.210726
-0.0520507
-0.00690551
0.0323517
0.0571232
0.0658214
0.0634995
0.0547366
0.04357
0.0330558
0.0318352
0.0333263
0.0198188
0.0215445
-0.0229137
-0.0103748
-0.00567221
-0.0161962
-0.106665
-0.0698066
-0.0392635
-0.235387
-0.214444
-0.183252
-0.146022
-0.00880226
-0.00971722
-0.00692969
-0.0153489
-0.0230951
-0.00465991
-0.00432681
-0.146083
-0.0151752
-0.0137804
-0.0137101
-0.0150926
-0.00769965
-0.0111044
0.000519298
-0.00378441
0.00978426
0.00509515
0.0190089
0.0144521
0.0275597
0.0233932
0.0351442
0.0314808
0.0417396
0.0385585
0.0474763
0.0447076
0.052477
0.0500606
0.0568255
0.054739
0.0601059
0.0586598
0.0612034
0.060993
0.0594209
0.0606766
0.0549513
0.0574985
0.047933
0.0517807
0.0379912
0.043352
0.0249122
0.0318454
0.00855031
0.0171747
-0.0120017
-0.00110655
-0.0381442
-0.0243184
-0.0694631
-0.0533351
-0.101206
-0.0857665
-0.124251
-0.114506
-0.128502
-0.129138
-0.112335
-0.122528
-0.085766
-0.0995519
-0.0596002
-0.0722099
-0.0383712
-0.0483044
-0.022149
-0.029778
-0.0154764
-0.0188398
-0.0136379
-0.0299784
-0.0243278
-0.0415981
-0.0357647
-0.0529421
-0.0473614
-0.0631257
-0.0582326
-0.0713173
-0.0675182
-0.0768165
-0.0744433
-0.0790519
-0.0783718
-0.0776591
-0.0788227
-0.0725346
-0.0755594
-0.0638459
-0.0686158
-0.0522131
-0.0583307
-0.0383766
-0.0455065
-0.0308082
0.00771166
0.000685697
0.0199412
0.014086
0.0299907
0.0252263
0.0379429
0.0342169
0.0440815
0.0412122
0.0487258
0.0465857
0.0516937
0.0504514
0.0525133
0.0523847
0.0513253
0.0521272
0.0488594
0.0502101
0.0455229
0.0472989
0.041245
0.0435099
0.0358927
0.0387113
0.0292943
0.0327612
0.0212764
0.0254684
0.0118271
0.0167185
0.00136319
0.00666603
-0.00871719
-0.003872
-0.0152728
-0.0127081
-0.0135637
-0.0157529
0.000257605
-0.00819893
0.0247275
0.0115204
0.0531317
0.038925
0.0784389
0.0665009
0.0967581
0.0885671
0.107545
0.103039
0.111572
0.110361
0.109561
0.111273
0.101873
0.106397
0.0895759
0.0962285
0.0738943
0.0821069
0.0548624
0.0647014
0.0443754
-0.164222
-0.172287
-0.0329412
-0.024766
-0.171228
-0.19925
-0.162117
-0.222944
-0.135487
-0.238993
-0.0947622
-0.243681
-0.0467394
7.23567e-05
0.0357343
0.0532343
0.0564309
0.0508765
0.0406276
0.0291128
0.0171917
0.00910671
0.0120932
-0.00378156
0.000756956
0.0137811
-0.000300347
0.00572537
0.00541209
-0.00829474
-0.100417
-0.0611699
-0.0303167
-0.255419
-0.225938
-0.187575
-0.144054
-0.000276999
-0.171853
0.00604101
0.00995659
-0.000691799
0.0023691
-0.00368619
-0.00278543
-0.00219687
-0.00335094
0.00209026
-0.000366758
0.00858512
0.00510946
0.0163296
0.0123737
0.0242745
0.0203246
0.0318439
0.0281264
0.0387848
0.0354018
0.0450285
0.0419915
0.0506378
0.0479079
0.055676
0.0532258
0.0601558
0.0579901
0.063879
0.0621406
0.0658555
0.0651219
0.0653156
0.0659431
0.0618794
0.0639575
0.0556596
0.0591105
0.0467138
0.0515306
0.0350148
0.0412123
0.0203519
0.028091
0.00181714
0.0116572
-0.0218559
-0.00933084
-0.050194
-0.0356133
-0.0787249
-0.0648905
-0.0988979
-0.0904868
-0.102098
-0.102899
-0.0883979
-0.0968986
-0.0668795
-0.0779764
-0.0458971
-0.0560132
-0.0286783
-0.0367766
-0.0151854
-0.0215391
-0.00476291
-0.00968385
0.00342165
-0.000420117
0.00362123
-0.00399906
2.12967e-05
-0.0131396
-0.00838691
-0.0234565
-0.0181689
-0.0346927
-0.0289884
-0.0462292
-0.0404715
-0.0572961
-0.05187
-0.0671029
-0.0624069
-0.0748564
-0.0712865
-0.0797899
-0.0777203
-0.0812713
-0.0809953
-0.0788676
-0.0805735
-0.0724031
-0.0761448
-0.0620902
-0.0676805
-0.0486317
-0.0557525
-0.0409165
-0.0163796
0.0005728
-0.007458
0.0145945
0.00787921
0.02617
0.020649
0.035732
0.0311922
0.0433942
0.0397892
0.0493371
0.0465676
0.0536178
0.051696
0.0559568
0.0550516
0.0562143
0.0563292
0.0548534
0.0556894
0.0525289
0.053784
0.0494924
0.0510994
0.0457187
0.0476998
0.0411642
0.0435425
0.0357585
0.0385713
0.0294758
0.0327227
0.0224607
0.0260393
0.0152163
0.018814
0.00891757
0.0118392
0.00574923
0.00676653
0.00868326
0.00627327
0.020108
0.0132785
0.0393401
0.028989
0.0618176
0.0505131
0.0823642
0.0726027
0.0975574
0.0907423
0.106348
0.102745
0.109034
0.108416
0.106248
0.108285
0.0985409
0.102959
0.0868159
0.0931294
0.0717278
0.0796689
0.0538161
0.0630667
0.0338607
0.0440485
0.0231495
0.00684577
-0.1904
-0.204707
-0.193196
-0.23589
-0.175963
-0.260351
-0.139817
-0.273321
-0.0911414
-0.271794
-0.0388763
0.00656404
0.0354347
0.0457689
0.0441922
0.0361948
0.0249793
0.0130412
0.0013144
-0.00914462
-0.010759
-0.0170411
0.0159739
0.0181132
0.0170965
-0.00516601
-0.0221613
-0.015095
0.0112702
-9.50576e-06
-0.0886764
-0.0489927
-0.0195977
-0.265596
-0.228035
-0.183219
-0.135033
0.00671533
-0.00805276
-0.017379
0.00969263
-0.0263548
-0.201807
0.0110714
0.0135253
0.00702092
0.00885225
0.00512851
0.00574003
0.0062953
0.00540641
0.009715
0.00772658
0.0151473
0.0122222
0.0217278
0.0183545
0.0286243
0.0251726
0.035377
0.0320369
0.041748
0.0386196
0.0476415
0.0447553
0.05307
0.0504118
0.0580545
0.0556186
0.062557
0.060372
0.0663631
0.0645799
0.0689608
0.0678849
0.0694343
0.0695071
0.0672189
0.0686819
0.0621852
0.0650492
0.0544693
0.0586534
0.0441745
0.0496473
0.0310691
0.0380126
0.0142724
0.0232115
-0.00726582
0.00412419
-0.0328485
-0.0197266
-0.0580767
-0.0459426
-0.0751602
-0.0681676
-0.0774332
-0.0782835
-0.0664228
-0.0731535
-0.0497569
-0.0583211
-0.0334896
-0.0413601
-0.0198369
-0.0263045
-0.00889414
-0.01405
-0.000246749
-0.00431868
0.00342179
0.00702937
0.0122603
0.00982167
0.000234649
0.00382237
-0.00813869
-0.00377394
-0.0178619
-0.0128339
-0.0288263
-0.0232101
-0.0405752
-0.0346388
-0.0524945
-0.0465559
-0.0638556
-0.0582948
-0.0738219
-0.0690696
-0.0814883
-0.0779998
-0.0859721
-0.0841818
-0.0864734
-0.0867655
-0.0824009
-0.0850347
-0.0735224
-0.0785508
-0.060379
-0.0674295
-0.0441472
-0.0525813
-0.0353254
0.00801687
0.000398825
0.0211693
0.0149165
0.0320051
0.0268382
0.0409783
0.0367125
0.0482092
0.0448055
0.0537344
0.0511863
0.0574325
0.0558258
0.0591272
0.0585295
0.0589917
0.0592534
0.0576031
0.0584152
0.0554588
0.0566079
0.0527257
0.0541637
0.04943
0.0511464
0.0455856
0.0475762
0.041197
0.0434572
0.0363348
0.0388154
0.0312307
0.0337889
0.0264084
0.0287359
0.0228559
0.0243899
0.0221357
0.0220266
0.0261242
0.0234354
0.0361442
0.0303575
0.0515596
0.0433367
0.0692683
0.0603642
0.0855402
0.0777925
0.0976298
0.0922107
0.104417
0.101701
0.105895
0.105793
0.102549
0.10479
0.0949635
0.0992367
0.08388
0.0898193
0.069766
0.0771836
0.0531872
0.0617218
0.0347242
0.0441709
0.0150369
0.0249831
0.00492928
-0.217706
-0.239735
-0.0374928
-0.02783
-0.21275
-0.272551
-0.184847
-0.294496
-0.138525
-0.301245
-0.0833478
-0.291181
-0.0299226
0.0104432
0.0307666
0.0345205
0.0293566
0.0193986
0.00753271
-0.00439779
-0.0154573
-0.0244934
0.0193808
0.0196459
0.0195195
0.0197698
-0.0305299
0.0195611
-0.0247153
-0.0334143
0.0163213
0.00803284
-0.0169262
-0.0338845
-0.024772
-0.07231
-0.0342451
-0.00795108
-0.264099
-0.219422
-0.169778
-0.118732
0.0143844
0.0145488
0.0163638
-0.233622
0.0179814
0.018994
0.015177
0.0166128
0.0128174
0.0138897
0.0117576
0.0120506
0.0127937
0.0120106
0.0158089
0.0140659
0.0204729
0.0179707
0.0261301
0.0232195
0.0321866
0.0291364
0.0382617
0.0352389
0.0441291
0.0412307
0.0496813
0.0469474
0.0548958
0.0523308
0.0597627
0.057375
0.0642194
0.0620496
0.0680703
0.0662441
0.0709324
0.0696733
0.0720946
0.0717686
0.0709543
0.0718411
0.067205
0.0694119
0.0608501
0.0643478
0.0519471
0.0567226
0.0402345
0.046481
0.0249271
0.0330936
0.00531431
0.0156591
-0.0175325
-0.00589177
-0.0392684
-0.0289387
-0.0532241
-0.0476232
-0.0550251
-0.0556737
-0.0468917
-0.0518384
-0.0346717
-0.040963
-0.0225136
-0.0284404
-0.0119709
-0.01701
-0.00325015
-0.00738997
0.00383821
0.000490023
0.00966241
0.00688868
0.0121636
0.00998487
0.0124355
0.0038837
0.00712963
-0.00377849
0.000253498
-0.0130278
-0.00820466
-0.0237974
-0.0182357
-0.0357964
-0.0296675
-0.0485714
-0.042122
-0.0614824
-0.0550571
-0.0736989
-0.067737
-0.0842137
-0.0792381
-0.0918867
-0.0884818
-0.0955044
-0.0942781
-0.0939785
-0.0954397
-0.0866456
-0.0910543
-0.0737557
-0.0808364
-0.0566942
-0.0656749
-0.0472684
-0.0183549
7.6501e-05
-0.00867054
0.0152212
0.00805442
0.0274061
0.0216142
0.0374417
0.0326541
0.0457274
0.04179
0.0523488
0.0492456
0.0572331
0.0550157
0.0602408
0.0589769
0.0613835
0.0610318
0.0610338
0.0613623
0.0597049
0.0604633
0.0577544
0.0587947
0.0553207
0.0565936
0.052468
0.053943
0.0492468
0.0509005
0.0457143
0.0475137
0.0419991
0.0438668
0.0383716
0.0401497
0.0353305
0.0367355
0.0336904
0.0342718
0.034579
0.0337422
0.0391846
0.036357
0.0481587
0.0431323
0.0607333
0.0541056
0.0747738
0.0677426
0.087542
0.0814737
0.0969176
0.0927392
0.101913
0.099983
0.102403
0.102705
0.0987117
0.10105
0.0913605
0.0954527
0.0809467
0.0865033
0.0679054
0.0747333
0.0527029
0.0605306
0.0358737
0.0444662
0.0180088
0.0270007
8.58631e-05
0.00897563
-0.00860776
-0.242902
-0.273973
-0.226793
-0.304982
-0.186834
-0.320957
-0.131611
-0.318826
-0.0726318
-0.298884
-0.0221125
0.00977498
0.0213006
0.0199327
0.0119384
0.000408397
-0.0118528
-0.0233336
0.0184817
0.0186979
0.0167677
0.016464
-0.0332929
0.0189764
-0.0403727
0.0207605
-0.0440627
0.0203413
-0.0445084
0.0155
-0.0320203
-0.0425749
-0.0520263
-0.0180658
0.00366337
-0.250223
-0.200253
-0.147967
-0.0967854
0.0165789
0.0161902
-0.00962702
-0.0385436
-0.0228122
-0.0281433
-0.0193305
-0.0288392
0.0178858
0.0181351
-0.263931
0.0203883
0.0198375
0.0199593
0.0203704
0.0185134
0.0192918
0.0172187
0.0178116
0.0167654
0.0168268
0.0179051
0.0171166
0.0206739
0.0191024
0.024748
0.0225721
0.0296959
0.0271411
0.0350863
0.0323588
0.040595
0.0378411
0.0460166
0.0433255
0.0512407
0.0486573
0.056222
0.0537634
0.0609285
0.0586128
0.0652835
0.0631581
0.0691051
0.0672792
0.0720785
0.0707307
0.0736637
0.0730813
0.073316
0.0737614
0.0706672
0.0722932
0.0655786
0.0684322
0.0579675
0.0621006
0.0475193