/*--------------------------------*- C++ -*----------------------------------*\
  =========                 |
  \\      /  F ield         | OpenFOAM: The Open Source CFD Toolbox
   \\    /   O peration     | Website:  https://openfoam.org
    \\  /    A nd           | Version:  10
     \\/     M anipulation  |
\*---------------------------------------------------------------------------*/
FoamFile
{
    format      ascii;
    class       volVectorField;
    location    "13.5";
    object      U;
}
// * * * * * * * * * * * * * * * * * * * * * * * * * * * * * * * * * * * * * //

dimensions      [0 1 -1 0 0 0 0];

internalField   nonuniform List<vector> 
28942
(
(0.00557666 -0.00299429 -2.55867e-22)
(0.00750065 -0.0034335 -4.24036e-23)
(0.0184684 -0.0127234 -1.07807e-21)
(0.103306 0.0182264 -6.06837e-21)
(0.102346 0.0222691 1.9795e-21)
(0.0282151 0.00114624 0)
(0.0336344 0.000890499 2.58131e-23)
(0.0384157 0.00145835 -2.28364e-23)
(0.133521 -0.013449 -3.91922e-22)
(0.131999 -0.0120464 1.10436e-21)
(0.0139093 0.00796224 -3.64675e-22)
(0.0210608 0.00998722 1.01659e-22)
(0.00987876 0.00567035 0)
(0.00712401 0.00434107 0)
(0.0769573 0.00245857 -3.21848e-23)
(0.0748315 0.0036201 -1.00268e-23)
(0.0895618 0.0158488 7.52504e-22)
(0.0872415 0.0138645 1.20684e-21)
(0.0122801 -0.0152317 3.51452e-21)
(0.0296322 -0.0306967 -9.27436e-22)
(0.0987569 0.0370622 1.09382e-21)
(0.0978575 0.0341265 0)
(0.0216354 0.0065195 9.92858e-22)
(0.00932636 0.00322688 4.35548e-22)
(0.041258 0.00917234 7.65351e-22)
(0.0616719 0.00462912 -6.97717e-22)
(0.00769859 -0.0184717 9.31542e-21)
(0.00673656 -0.016532 -3.4134e-21)
(0.0361566 -0.025658 7.48202e-22)
(0.0196313 -0.0138758 2.62408e-22)
(0.0288662 -0.00284686 0)
(0.036053 -0.00286713 -2.55046e-23)
(0.0446092 0.00666739 5.81754e-22)
(0.061168 0.00217209 -1.11595e-22)
(0.0191009 0.018238 1.51627e-21)
(0.0159351 0.0193568 -1.58048e-21)
(0.0325909 0.0380524 -3.40806e-21)
(0.0188935 0.0309114 -1.1598e-21)
(0.016031 0.000446807 -2.08071e-23)
(0.00876117 0.0164016 -2.87578e-21)
(0.0306515 -0.00620225 0)
(0.0513471 -0.0109674 0)
(0.105359 -0.00788358 -5.61017e-23)
(0.105354 -0.00739104 1.64983e-22)
(0.10593 -0.00794931 1.43872e-22)
(0.0525865 0.000920128 2.48103e-23)
(0.0491752 -0.000186371 -4.18384e-23)
(0.0670036 -0.000296135 -1.67307e-22)
(0.0646319 -0.000337081 4.66518e-23)
(0.0541112 -0.00387717 -4.22009e-22)
(0.0419856 -0.00517458 2.67073e-22)
(0.122526 0.00349763 -6.55952e-22)
(0.122493 0.00297432 -5.92895e-22)
(0.133349 -0.016674 -4.14197e-24)
(0.131631 -0.0152103 2.05158e-22)
(0.0910228 0.012968 5.39742e-22)
(0.110115 0.00604878 1.31009e-22)
(0.00440349 0.00273524 -4.05451e-22)
(0.0116391 0.00591725 0)
(0.0103699 0.00488464 1.88189e-22)
(0.00397957 0.00234179 3.47293e-22)
(0.000723584 0.000506339 -2.89026e-22)
(0.000546662 0.000415951 -2.61747e-22)
(0.113183 -0.0419639 0)
(0.109432 -0.0242568 6.20857e-23)
(0.125794 -0.0306547 -6.22752e-24)
(0.126406 -0.04198 0)
(0.0905069 -0.0324351 -7.22159e-22)
(0.0940461 -0.0348447 -4.77331e-22)
(0.00244027 -0.00145551 8.3671e-22)
(0.00320045 -0.002505 -2.68927e-22)
(0.00604364 -0.0039573 6.73245e-22)
(0.0854475 -0.0454426 0)
(0.0917183 -0.0392298 2.46528e-21)
(0.0811987 -0.0527883 6.69693e-22)
(0.120569 0.00773069 8.50513e-23)
(0.120112 0.000724461 -1.03324e-22)
(0.131057 0.00386143 4.80773e-23)
(0.00481897 -0.0029422 -6.89006e-23)
(0.00652328 -0.00454817 6.46587e-22)
(0.0524684 -0.031674 1.97496e-22)
(0.0342512 -0.0210753 -3.0545e-22)
(0.00249062 -0.000847451 2.95518e-21)
(0.00587375 -0.00251546 -1.15646e-21)
(0.103859 0.0481525 5.66836e-23)
(0.0992637 0.0553439 -9.46239e-22)
(0.0824136 0.0544716 8.77799e-22)
(0.0482097 0.0350327 -3.25936e-21)
(0.0454424 0.0321446 2.31048e-21)
(0.0301247 0.0209682 -1.45157e-22)
(0.033378 0.0236439 -7.59968e-22)
(0.0386992 0.0287965 1.03793e-21)
(0.00884136 0.0064174 -3.15832e-24)
(0.0132474 0.0088813 -3.92961e-24)
(0.00601197 0.00475716 7.87445e-24)
(0.00439688 0.00400225 -7.4486e-23)
(0.00392698 0.00376956 6.83967e-23)
(0.0160367 0.0117381 -3.88982e-21)
(0.0178031 0.0138444 9.02256e-22)
(0.00978633 -0.00441256 0)
(0.101389 0.005158 0)
(0.0984003 0.01568 -4.43734e-21)
(0.0604534 0.0104749 2.33842e-21)
(0.0886981 0.0178765 0)
(0.131555 -0.0157159 0)
(0.130656 -0.0166967 0)
(0.130401 -0.0174778 -9.2016e-22)
(0.115244 0.0254357 -2.62932e-22)
(0.114406 0.0269131 2.57206e-21)
(0.113532 0.0244141 1.3809e-21)
(0.00363683 0.00250667 7.11213e-22)
(0.00273254 0.00187628 -7.98268e-22)
(0.0227983 -0.00798216 -3.98679e-22)
(0.0250706 -0.00866061 3.04461e-22)
(0.0119148 -0.00498507 5.50093e-22)
(0.00653306 0.0113392 1.60012e-21)
(0.0191175 0.0184448 3.76218e-21)
(0.0136011 0.0231125 2.7544e-22)
(0.00497072 0.0145078 -9.36372e-21)
(0.120007 0.0468074 7.75974e-23)
(0.109802 0.0578324 1.36167e-21)
(0.12053 0.0539581 -2.35164e-21)
(0.0396845 -0.0297373 8.72809e-22)
(0.0243633 -0.0174773 -5.87118e-22)
(0.00534081 -0.000631749 -4.44697e-21)
(0.00455456 -0.00350265 0)
(0.0125588 -0.001517 2.18904e-21)
(0.0222534 -0.0163104 9.0709e-22)
(0.0347017 -0.0280502 -2.32534e-21)
(0.0640421 0.000323623 1.24323e-22)
(0.0673717 0.000462525 -8.08461e-23)
(0.0607004 0.000551449 -3.78635e-24)
(0.0283307 -0.0421683 0)
(0.0298721 -0.0429651 0)
(0.0896531 -0.0186365 -5.61802e-22)
(0.0996232 -0.0220661 3.76471e-21)
(0.0870406 -0.0252753 0)
(0.04772 -0.0404759 0)
(0.0588742 -0.0515891 -9.22072e-22)
(0.0419098 0.0397871 2.333e-21)
(0.000789429 0.000985947 2.01139e-22)
(0.000435686 0.000769733 -9.9511e-23)
(0.022578 -0.0194208 -9.28674e-22)
(0.106634 -0.00835204 8.37795e-22)
(0.106505 -0.00793775 -1.55189e-22)
(0.122715 0.00217769 -1.20648e-23)
(0.116609 0.0104803 1.60785e-23)
(0.124668 0.00990879 -1.24251e-22)
(0.000701477 0.000830826 9.78069e-23)
(0.0445559 0.0348867 3.72429e-21)
(0.0630887 0.0468307 -9.25543e-22)
(0.060754 0.0399573 -3.88672e-24)
(0.0439505 -0.00160789 9.9821e-24)
(0.0434014 -0.00181289 5.58241e-23)
(0.0467566 -0.002082 3.37623e-24)
(0.0516749 -0.00153424 -2.82814e-23)
(0.0461739 0.0385486 1.38131e-22)
(0.0192663 0.0162786 0)
(0.000905355 -0.000680355 1.11471e-22)
(0.00134546 -0.0012462 -1.2413e-22)
(0.00412317 -0.00295687 4.64554e-23)
(0.0401906 -0.00958662 -1.64739e-21)
(0.0699368 -0.00420908 -6.40181e-22)
(0.0587173 -0.00124289 -1.50817e-24)
(0.0782295 -0.0067639 2.44286e-22)
(0.0737985 -0.0155664 -8.63932e-23)
(0.0949754 0.0396921 2.44964e-21)
(0.0921731 0.0452919 9.81331e-23)
(0.0891759 0.0290035 1.37629e-21)
(0.0919285 0.0306736 -9.97384e-22)
(0.0994177 0.0407408 0)
(0.121788 -0.00191713 2.26486e-22)
(0.121981 -0.00242442 4.40619e-22)
(0.126187 -0.0090041 -4.35151e-22)
(0.127346 -0.0083705 7.51546e-22)
(0.117162 0.0227821 3.29743e-22)
(0.119208 0.0234863 -9.37374e-22)
(0.117305 0.0248071 0)
(0.11533 0.023699 1.90079e-22)
(0.116979 0.0267832 0)
(0.117833 0.0347974 -6.82019e-22)
(0.116458 0.0369753 -3.66213e-22)
(0.112202 0.0410814 -6.49355e-22)
(0.114545 0.0390664 0)
(0.117408 0.0418891 2.19333e-21)
(0.114731 0.0439949 4.71057e-23)
(0.109249 0.0434465 -3.58791e-22)
(0.10063 0.0499107 -1.51019e-21)
(0.0992482 0.0451526 -2.64855e-22)
(0.03915 -0.0193316 -1.35145e-22)
(0.0480527 -0.0218278 5.15654e-23)
(0.00893759 -0.00480307 -4.20053e-22)
(0.0580255 0.000299423 -8.57192e-23)
(0.0711152 -0.000101652 0)
(0.000294539 -0.000299274 1.71379e-22)
(0.000279854 -0.000272972 8.29886e-23)
(0.0653897 -0.0024064 3.70065e-23)
(0.0746582 -0.00227073 1.26986e-23)
(0.0740164 -0.00137103 0)
(0.0636177 -0.000747888 1.56207e-23)
(0.10705 0.000450433 -1.80368e-22)
(0.107033 0.000395374 8.65415e-22)
(0.107106 0.000406578 4.22173e-22)
(0.00162404 0.0011256 2.32809e-22)
(4.69396e-05 5.43237e-05 -3.76958e-22)
(3.13147e-05 5.61112e-06 2.68345e-22)
(0.00208909 0.00104399 0)
(0.000210901 0.000204253 9.58379e-22)
(0.00034291 6.54495e-05 -6.25767e-22)
(0.0086439 0.00435485 -8.36081e-22)
(0.00181242 0.000989759 -1.06122e-21)
(0.00208032 0.00105499 0)
(0.00158752 0.00765691 0)
(0.000583356 0.00332977 0)
(0.000316509 0.00200755 0)
(0.131086 -0.015462 1.68845e-22)
(0.130814 -0.0149635 0)
(0.13017 -0.0164785 -1.92895e-22)
(0.088302 -0.0146311 4.97247e-21)
(0.0903017 -0.0150239 -1.80607e-21)
(0.089208 -0.0126679 0)
(0.108247 7.37514e-06 -1.0573e-23)
(0.108278 7.07627e-06 2.11623e-23)
(0.108216 8.41825e-06 -7.14826e-24)
(0.108307 6.95038e-06 0)
(0.108334 7.28018e-06 -1.35093e-23)
(0.10836 7.07079e-06 0)
(0.108359 -2.08539e-05 0)
(0.108385 6.09545e-06 5.01581e-23)
(0.108383 -2.12116e-05 0)
(0.108334 -2.16306e-05 -1.35959e-23)
(0.108306 -2.26336e-05 0)
(0.108278 -2.37277e-05 7.07892e-24)
(0.108247 -2.49274e-05 -1.05701e-23)
(0.108216 -2.60925e-05 7.13932e-24)
(0.108408 5.36806e-06 -4.79972e-23)
(0.108406 -2.10869e-05 -1.68063e-24)
(0.108183 9.33385e-06 8.77892e-28)
(0.108182 -2.68177e-05 -1.09142e-23)
(0.108147 1.03842e-05 5.80341e-23)
(0.108429 5.15984e-06 4.48998e-26)
(0.108429 -2.02483e-05 -1.683e-24)
(0.108147 -2.7531e-05 2.15066e-23)
(0.108451 4.73577e-06 4.52388e-23)
(0.108471 4.3284e-06 -4.52016e-23)
(0.10845 -1.94867e-05 3.38787e-24)
(0.10847 -1.87166e-05 6.7008e-24)
(0.10811 1.30459e-05 -5.64644e-23)
(0.10811 -2.87915e-05 -1.41545e-23)
(0.10849 3.88164e-06 0)
(0.10849 -1.80277e-05 -6.60926e-24)
(0.108071 1.47104e-05 6.98072e-27)
(0.108072 -2.95284e-05 -6.99822e-27)
(0.108508 3.45901e-06 0)
(0.108508 -1.73368e-05 0)
(0.108031 1.63517e-05 0)
(0.108031 -3.03966e-05 0)
(0.108525 2.99651e-06 0)
(0.108525 -1.67332e-05 3.17943e-24)
(0.107988 1.82376e-05 -2.92818e-23)
(0.107987 -3.1068e-05 -7.14629e-27)
(0.108542 2.52191e-06 1.66713e-25)
(0.108542 -1.61093e-05 -3.39569e-24)
(0.107942 2.02506e-05 2.94218e-23)
(0.107941 -3.17754e-05 0)
(0.108557 2.00176e-06 0)
(0.108557 -1.55713e-05 0)
(0.107894 2.26608e-05 -1.86171e-24)
(0.107893 -3.22695e-05 3.19492e-23)
(0.108572 1.41546e-06 2.06421e-23)
(0.108572 -1.49558e-05 0)
(0.107843 2.49615e-05 -1.5683e-25)
(0.107843 -3.3156e-05 -3.02392e-23)
(0.108587 6.68847e-07 -3.08815e-23)
(0.108586 -1.44886e-05 -8.96557e-24)
(0.107789 2.63096e-05 3.08377e-23)
(0.107789 -3.40152e-05 0)
(0.1086 -1.77382e-07 1.01757e-23)
(0.1086 -1.40043e-05 5.97985e-24)
(0.107732 2.8387e-05 -1.56077e-23)
(0.107732 -3.55446e-05 3.16548e-23)
(0.108613 -1.03735e-06 -4.069e-23)
(0.108613 -1.29841e-05 4.58614e-23)
(0.10767 2.85701e-05 1.61036e-23)
(0.107671 -3.70325e-05 5.09706e-25)
(0.108626 -1.92525e-06 0)
(0.108626 -1.2445e-05 2.18783e-23)
(0.107605 2.93597e-05 -3.24017e-23)
(0.107606 -3.94604e-05 6.4828e-23)
(0.108638 -2.10259e-06 0)
(0.108638 -1.26894e-05 0)
(0.107673 9.28125e-05 -1.59344e-23)
(0.107607 9.76414e-05 -6.45323e-23)
(0.107534 2.96392e-05 0)
(0.107536 -4.30996e-05 -3.30469e-23)
(0.107792 8.27046e-05 -1.00119e-23)
(0.107734 8.79628e-05 1.96514e-24)
(0.107897 7.25195e-05 0)
(0.107845 7.77563e-05 -3.22982e-23)
(0.10799 6.33587e-05 -6.23443e-26)
(0.107945 6.78136e-05 0)
(0.108075 5.51016e-05 0)
(0.108033 5.91349e-05 0)
(0.108151 4.7401e-05 0)
(0.108114 5.11628e-05 0)
(0.108218 4.21064e-05 1.41232e-23)
(0.108185 4.48046e-05 3.55833e-24)
(0.10828 3.77285e-05 -1.36208e-23)
(0.10825 3.98554e-05 -1.41069e-23)
(0.108335 3.39489e-05 2.42011e-23)
(0.108308 3.54127e-05 3.09469e-23)
(0.108386 3.06706e-05 0)
(0.108361 3.24084e-05 0)
(0.108431 2.72354e-05 -1.06534e-25)
(0.108409 2.89492e-05 0)
(0.108472 2.41604e-05 0)
(0.108452 2.56735e-05 0)
(0.108509 2.12018e-05 0)
(0.108491 2.26704e-05 0)
(0.108543 1.83565e-05 0)
(0.108527 1.97664e-05 0)
(0.108573 1.571e-05 0)
(0.108559 1.70215e-05 0)
(0.108601 1.32234e-05 0)
(0.108588 1.4449e-05 0)
(0.108627 1.01762e-05 -1.665e-23)
(0.108614 1.20298e-05 0)
(0.108639 8.71591e-06 -5.38678e-24)
(0.10865 -2.66051e-06 5.25576e-24)
(0.10865 -1.26474e-05 -5.21203e-24)
(0.108614 -2.55279e-05 0)
(0.108638 -2.34556e-05 -2.13819e-23)
(0.108626 -2.41977e-05 -1.09949e-23)
(0.108587 -2.84945e-05 3.00423e-24)
(0.108601 -2.68981e-05 -1.17722e-23)
(0.108558 -3.11786e-05 9.72435e-26)
(0.108573 -2.99806e-05 0)
(0.108526 -3.36251e-05 0)
(0.108542 -3.23639e-05 0)
(0.10849 -3.64225e-05 0)
(0.108509 -3.49607e-05 0)
(0.108451 -3.97243e-05 0)
(0.108471 -3.79961e-05 1.27694e-29)
(0.108408 -4.35962e-05 1.07618e-25)
(0.10843 -4.15954e-05 0)
(0.10836 -4.82361e-05 0)
(0.108384 -4.59801e-05 0)
(0.108307 -5.22639e-05 0)
(0.108334 -5.03413e-05 0)
(0.108249 -5.6887e-05 0)
(0.108279 -5.43048e-05 -7.15499e-24)
(0.108184 -6.24143e-05 1.87696e-24)
(0.108217 -6.01648e-05 -9.2248e-24)
(0.108113 -6.87659e-05 0)
(0.10815 -6.5109e-05 -7.50411e-24)
(0.108033 -7.48516e-05 0)
(0.108074 -7.18127e-05 0)
(0.107944 -8.1406e-05 0)
(0.10799 -7.8032e-05 0)
(0.107845 -8.89166e-05 0)
(0.107896 -8.50835e-05 0)
(0.107735 -9.72313e-05 -8.17579e-24)
(0.107792 -9.27146e-05 0)
(0.10761 -0.000107585 -3.31739e-23)
(0.107674 -0.000101827 -8.22728e-24)
(0.107542 -0.000114345 3.37842e-23)
(0.107537 0.0001028 6.39835e-23)
(0.10865 7.61576e-06 1.05455e-23)
(0.10865 -2.2912e-05 -2.06184e-23)
(0.107461 -4.77617e-05 0)
(0.107468 -0.000122706 0)
(0.107463 0.000108061 0)
(0.107459 2.91252e-05 0)
(0.107679 0.000155904 0)
(0.107546 0.000174576 1.60462e-23)
(0.107614 0.00016487 1.61881e-23)
(0.107798 0.000138099 2.05723e-23)
(0.10774 0.000146865 -4.11116e-24)
(0.107902 0.00012179 6.36121e-26)
(0.107851 0.000129512 0)
(0.107995 0.000107627 0)
(0.10795 0.000114524 0)
(0.108079 9.50511e-05 0)
(0.108038 0.000101132 0)
(0.108155 8.4395e-05 0)
(0.108118 8.94157e-05 0)
(0.108223 7.46685e-05 0)
(0.108189 7.93427e-05 0)
(0.108284 6.69361e-05 -5.7131e-26)
(0.108254 7.09058e-05 1.47294e-23)
(0.108339 6.03737e-05 -5.49045e-26)
(0.108312 6.32786e-05 -2.87822e-23)
(0.108389 5.43009e-05 0)
(0.108365 5.72084e-05 0)
(0.108434 4.88069e-05 5.32187e-26)
(0.108412 5.15036e-05 0)
(0.108475 4.37611e-05 0)
(0.108455 4.62263e-05 0)
(0.108512 3.9047e-05 0)
(0.108494 4.13528e-05 0)
(0.108545 3.46379e-05 0)
(0.108529 3.67879e-05 0)
(0.108575 3.04604e-05 0)
(0.108561 3.2503e-05 0)
(0.108603 2.64421e-05 0)
(0.108589 2.84333e-05 0)
(0.108628 2.19471e-05 1.13714e-23)
(0.108616 2.42581e-05 0)
(0.108661 -3.50992e-06 0)
(0.108661 6.76299e-06 1.0328e-23)
(0.108651 1.76157e-05 0)
(0.10864 1.96034e-05 1.109e-23)
(0.108639 -3.48238e-05 2.20692e-23)
(0.10865 -3.36294e-05 5.42863e-24)
(0.108661 -2.23306e-05 4.23379e-23)
(0.108661 -1.23963e-05 0)
(0.108615 -3.86673e-05 0)
(0.108627 -3.65015e-05 -3.33104e-23)
(0.108589 -4.26665e-05 9.46677e-26)
(0.108602 -4.06195e-05 1.18438e-23)
(0.108559 -4.63285e-05 -9.72431e-26)
(0.108574 -4.44705e-05 0)
(0.108527 -5.03441e-05 0)
(0.108544 -4.82775e-05 0)
(0.108492 -5.49096e-05 0)
(0.10851 -5.25463e-05 0)
(0.108453 -6.01524e-05 0)
(0.108473 -5.74373e-05 -1.27694e-29)
(0.10841 -6.61008e-05 -2.15204e-25)
(0.108432 -6.30445e-05 0)
(0.108362 -7.30504e-05 0)
(0.108387 -6.93922e-05 0)
(0.10831 -8.04317e-05 3.61352e-24)
(0.108337 -7.66592e-05 0)
(0.108252 -8.8259e-05 0)
(0.108282 -8.41395e-05 -3.59844e-24)
(0.108188 -9.70454e-05 7.52377e-24)
(0.108221 -9.26247e-05 7.47556e-24)
(0.108117 -0.000106461 0)
(0.108153 -0.000101752 0)
(0.108038 -0.000116637 0)
(0.108078 -0.000111428 0)
(0.107949 -0.000127953 0)
(0.107995 -0.000122131 0)
(0.107851 -0.000140728 0)
(0.107902 -0.000134166 0)
(0.107741 -0.000155146 1.31129e-25)
(0.107798 -0.000147712 0)
(0.107618 -0.000172071 -1.33088e-25)
(0.107681 -0.00016322 0)
(0.107479 -0.000193901 -3.48197e-23)
(0.107551 -0.000182491 3.48037e-23)
(0.107473 0.000184752 3.26311e-23)
(0.10739 -0.000132557 0)
(0.107402 -0.000207586 -7.09169e-23)
(0.107383 -5.27439e-05 0)
(0.108662 1.64159e-05 0)
(0.108662 -3.22555e-05 -5.27164e-24)
(0.107384 0.000113302 8.27066e-23)
(0.107395 0.000195626 3.30759e-23)
(0.107308 -0.000143035 1.79098e-23)
(0.107321 -0.000222356 8.96173e-23)
(0.107379 2.90106e-05 0)
(0.108653 2.90461e-05 4.34415e-23)
(0.108663 2.65458e-05 -2.14673e-23)
(0.108672 -2.20493e-05 -1.04416e-23)
(0.108672 -3.0928e-05 5.19383e-23)
(0.107413 0.000276385 1.15923e-22)
(0.107312 0.000207599 -6.51507e-23)
(0.107243 0.000314099 -2.94984e-22)
(0.107331 0.000293843 -6.61835e-23)
(0.10756 0.000245537 3.23246e-23)
(0.107489 0.000260523 -9.8695e-23)
(0.10769 0.000217792 -3.30331e-23)
(0.107627 0.000231386 -2.49127e-23)
(0.107807 0.000192947 -8.23087e-24)
(0.10775 0.000205119 -8.24614e-24)
(0.107911 0.000170973 -6.36121e-26)
(0.10786 0.000181518 0)
(0.108003 0.000151692 0)
(0.107958 0.00016105 0)
(0.108086 0.000134692 0)
(0.108046 0.00014291 0)
(0.108161 0.000119946 0)
(0.108125 0.000127038 0)
(0.108228 0.000107092 0)
(0.108196 0.000113214 0)
(0.108289 9.59342e-05 0)
(0.108259 0.000101247 0)
(0.108344 8.62284e-05 5.38781e-30)
(0.108317 9.10689e-05 0)
(0.108393 7.78238e-05 0)
(0.108369 8.1834e-05 0)
(0.108438 7.01502e-05 5.32144e-26)
(0.108416 7.3919e-05 0)
(0.108478 6.30686e-05 0)
(0.108459 6.65344e-05 0)
(0.108515 5.65234e-05 0)
(0.108497 5.97303e-05 0)
(0.108548 5.04596e-05 0)
(0.108532 5.34302e-05 0)
(0.108578 4.48155e-05 0)
(0.108563 4.75843e-05 0)
(0.108605 3.94952e-05 0)
(0.108592 4.21291e-05 0)
(0.10863 3.41315e-05 5.79648e-24)
(0.108618 3.67918e-05 -2.91591e-24)
(0.108642 3.15256e-05 -2.21503e-23)
(0.108672 -3.75801e-06 -4.94415e-24)
(0.108673 1.52511e-05 2.0692e-23)
(0.108672 5.53431e-06 -1.57998e-23)
(0.108671 -1.21689e-05 0)
(0.10864 -4.68131e-05 -1.64517e-23)
(0.108663 -4.22639e-05 -4.75482e-23)
(0.108652 -4.43579e-05 3.82517e-23)
(0.108617 -5.19262e-05 0)
(0.108629 -4.94172e-05 0)
(0.10859 -5.64428e-05 1.65052e-30)
(0.108604 -5.40463e-05 0)
(0.108562 -6.1432e-05 0)
(0.108576 -5.88694e-05 0)
(0.10853 -6.70251e-05 -9.98304e-26)
(0.108546 -6.41463e-05 0)
(0.108495 -7.33488e-05 0)
(0.108513 -7.0088e-05 0)
(0.108456 -8.05152e-05 0)
(0.108476 -7.68208e-05 0)
(0.108413 -8.8584e-05 1.07602e-25)
(0.108435 -8.44374e-05 0)
(0.108366 -9.76775e-05 1.10199e-25)
(0.10839 -9.2977e-05 0)
(0.108314 -0.000107666 0)
(0.108341 -0.000102547 0)
(0.108257 -0.0001187 0)
(0.108286 -0.000113104 0)
(0.108193 -0.000130668 0)
(0.108226 -0.000124439 0)
(0.108123 -0.000143705 0)
(0.108159 -0.000137063 0)
(0.108045 -0.000158108 -1.23238e-25)
(0.108085 -0.000150718 0)
(0.107957 -0.000174183 0)
(0.108002 -0.000165916 0)
(0.10786 -0.00019229 0)
(0.10791 -0.000182967 0)
(0.107751 -0.000212766 -3.96415e-30)
(0.107807 -0.000202215 0)
(0.107629 -0.000236124 7.9911e-30)
(0.107692 -0.000224058 0)
(0.107493 -0.000264052 1.37947e-25)
(0.107563 -0.000249198 0)
(0.107338 -0.000299247 -7.26434e-23)
(0.107418 -0.000280587 1.78563e-23)
(0.107234 -0.000237632 1.82779e-23)
(0.107253 -0.000319472 3.628e-23)
(0.107301 0.000118692 -3.23427e-23)
(0.107299 -5.87369e-05 -3.47169e-23)
(0.108674 2.47147e-05 5.26556e-24)
(0.108673 -4.06082e-05 3.73776e-23)
(0.107222 0.000218419 3.96909e-24)
(0.107219 -0.000154473 0)
(0.107136 0.000323065 4.50251e-22)
(0.107164 -0.000340713 5.59874e-23)
(0.107143 -0.000254324 7.46605e-23)
(0.107149 0.000445307 -7.59319e-22)
(0.107071 0.000484974 1.34949e-22)
(0.107297 2.90187e-05 0)
(0.107283 0.000398315 7.46167e-23)
(0.107212 0.000426116 3.88503e-23)
(0.107437 0.000353532 6.72543e-23)
(0.107359 0.000374753 -1.02636e-22)
(0.107579 0.000313531 -3.3496e-23)
(0.10751 0.000333251 -1.67355e-23)
(0.107706 0.000278029 1.67923e-23)
(0.107644 0.000295077 1.70083e-23)
(0.10782 0.000246876 0)
(0.107764 0.000261976 -4.07525e-26)
(0.107922 0.000219503 0)
(0.107872 0.000232786 0)
(0.108013 0.000195227 6.22992e-26)
(0.107969 0.000206996 0)
(0.108095 0.000173829 0)
(0.108055 0.000184182 0)
(0.108169 0.000155114 0)
(0.108133 0.000164149 0)
(0.108236 0.000138817 0)
(0.108204 0.000146668 0)
(0.108296 0.000124591 5.70964e-26)
(0.108267 0.000131429 0)
(0.10835 0.000112097 3.3503e-30)
(0.108324 0.000118209 0)
(0.108399 0.00010111 0)
(0.108375 0.000106418 0)
(0.108443 9.11612e-05 -1.06426e-25)
(0.108421 9.60291e-05 0)
(0.108483 8.20563e-05 0)
(0.108463 8.65085e-05 0)
(0.108519 7.37005e-05 0)
(0.108501 7.77907e-05 0)
(0.108551 6.60167e-05 0)
(0.108535 6.97781e-05 0)
(0.108581 5.89478e-05 0)
(0.108566 6.24088e-05 0)
(0.108608 5.24051e-05 0)
(0.108595 5.5624e-05 0)
(0.108632 4.61986e-05 -2.89638e-24)
(0.108621 4.91715e-05 0)
(0.108655 4.04951e-05 0)
(0.108644 4.33492e-05 -5.62521e-24)
(0.108676 3.44772e-05 2.71761e-27)
(0.108665 3.74253e-05 0)
(0.108683 1.39922e-05 -2.09794e-23)
(0.108685 3.2075e-05 1.26831e-24)
(0.108684 2.33584e-05 1.02866e-23)
(0.108682 -3.69684e-06 7.5475e-24)
(0.108682 4.86348e-06 -5.2097e-24)
(0.108682 -2.18828e-05 -2.62228e-24)
(0.108682 -1.24242e-05 2.61808e-24)
(0.108683 -3.96468e-05 0)
(0.108682 -3.02036e-05 -2.37914e-23)
(0.108664 -5.32775e-05 -1.06928e-23)
(0.108684 -4.94772e-05 -2.04682e-23)
(0.108674 -5.11291e-05 4.71027e-23)
(0.108642 -5.85141e-05 -5.60045e-24)
(0.108653 -5.57431e-05 0)
(0.108619 -6.44523e-05 0)
(0.108631 -6.15142e-05 0)
(0.108593 -7.00849e-05 9.63552e-31)
(0.108606 -6.72466e-05 0)
(0.108564 -7.64195e-05 0)
(0.108579 -7.31565e-05 0)
(0.108533 -8.35496e-05 9.98304e-26)
(0.108549 -7.98803e-05 0)
(0.108498 -9.15838e-05 0)
(0.108516 -8.74472e-05 0)
(0.10846 -0.000100636 0)
(0.10848 -9.59771e-05 0)
(0.108418 -0.000110795 0)
(0.10844 -0.000105573 0)
(0.108372 -0.000122155 -6.11765e-31)
(0.108395 -0.00011632 0)
(0.10832 -0.000134703 0)
(0.108347 -0.000128274 0)
(0.108264 -0.000148569 0)
(0.108293 -0.000141488 0)
(0.108201 -0.000163791 0)
(0.108233 -0.000155961 0)
(0.108131 -0.000180559 0)
(0.108167 -0.000171972 0)
(0.108054 -0.000199159 1.23238e-25)
(0.108093 -0.000189611 0)
(0.107967 -0.00021996 0)
(0.108012 -0.00020926 0)
(0.107871 -0.000243389 0)
(0.107921 -0.000231322 0)
(0.107764 -0.000269889 -1.31113e-25)
(0.107819 -0.000256229 0)
(0.107644 -0.000299924 1.33747e-25)
(0.107705 -0.000284442 0)
(0.107509 -0.000334143 -1.36389e-25)
(0.107578 -0.000316443 0)
(0.107359 -0.000374802 1.79679e-23)
(0.107436 -0.000353237 -3.54205e-23)
(0.107189 -0.000424409 -1.81489e-23)
(0.107276 -0.000398443 3.68245e-23)
(0.10707 -0.000363179 7.01517e-25)
(0.107097 -0.000451801 3.7339e-23)
(0.107212 0.000123502 -3.32617e-23)
(0.107211 -6.42207e-05 0)
(0.10713 0.000228924 -3.22727e-22)
(0.107127 -0.000163617 0)
(0.108678 4.57013e-05 -5.27508e-24)
(0.108687 4.30292e-05 3.8644e-24)
(0.108692 -3.84725e-05 -2.01609e-23)
(0.108694 -4.7832e-05 -2.28515e-23)
(0.107033 0.000323488 -3.16763e-22)
(0.107047 -0.000271815 -7.5391e-23)
(0.106993 0.000490068 0)
(0.107174 0.000535472 -8.77767e-23)
(0.10697 -0.000387185 -3.70207e-23)
(0.106999 -0.000481142 5.67364e-23)
(0.107086 0.000561336 1.76122e-22)
(0.107209 2.88505e-05 0)
(0.107319 0.000478883 0)
(0.107247 0.00050819 -7.80987e-23)
(0.107465 0.000426758 0)
(0.107392 0.000452175 0)
(0.107602 0.000378805 0)
(0.107535 0.000402082 1.73382e-23)
(0.107725 0.000336964 0)
(0.107665 0.000357216 0)
(0.107836 0.000300008 0)
(0.107782 0.000317894 0)
(0.107936 0.000267232 0)
(0.107887 0.00028315 0)
(0.108026 0.000238132 -6.22992e-26)
(0.107982 0.000252241 0)
(0.108107 0.000212436 0)
(0.108067 0.000224878 0)
(0.10818 0.000189865 0)
(0.108144 0.000200779 0)
(0.108245 0.000170103 0)
(0.108213 0.000179653 0)
(0.108304 0.000152796 -3.713e-30)
(0.108276 0.00016116 0)
(0.108358 0.00013756 3.44662e-30)
(0.108332 0.000144958 0)
(0.108406 0.000124041 0)
(0.108382 0.000130603 0)
(0.108449 0.000111859 3.12679e-30)
(0.108428 0.000117805 0)
(0.108488 0.000100771 0)
(0.108469 0.000106188 0)
(0.108524 9.06427e-05 0)
(0.108506 9.55946e-05 0)
(0.108556 8.13783e-05 0)
(0.10854 8.59077e-05 0)
(0.108585 7.29111e-05 0)
(0.108571 7.70492e-05 0)
(0.108611 6.51919e-05 0)
(0.108598 6.89599e-05 0)
(0.108636 5.82654e-05 0)
(0.108624 6.16573e-05 0)
(0.108657 5.1309e-05 5.58841e-24)
(0.108647 5.46479e-05 5.71063e-24)
(0.108668 4.83011e-05 -1.07346e-23)
(0.108692 1.29587e-05 -1.03047e-23)
(0.108695 3.05338e-05 0)
(0.108694 2.2099e-05 -1.04066e-23)
(0.108692 -3.86886e-06 0)
(0.108692 4.65327e-06 1.05166e-23)
(0.108691 -2.17743e-05 1.56958e-23)
(0.108691 -1.28576e-05 -5.30445e-24)
(0.108692 -2.97742e-05 -3.08433e-23)
(0.108666 -6.4296e-05 5.39408e-24)
(0.108686 -5.84994e-05 2.01181e-23)
(0.108676 -6.19191e-05 0)
(0.108645 -7.03312e-05 -1.116e-23)
(0.108656 -6.71497e-05 1.11968e-23)
(0.108622 -7.6709e-05 0)
(0.108634 -7.36077e-05 0)
(0.108596 -8.35314e-05 6.89411e-31)
(0.108609 -8.00381e-05 0)
(0.108568 -9.12143e-05 0)
(0.108582 -8.72591e-05 0)
(0.108537 -9.98549e-05 0)
(0.108553 -9.54096e-05 0)
(0.108503 -0.000109567 0)
(0.10852 -0.000104571 0)
(0.108465 -0.000120469 0)
(0.108485 -0.000114863 0)
(0.108424 -0.000132673 1.07601e-25)
(0.108445 -0.000126403 0)
(0.108378 -0.000146288 -1.10198e-25)
(0.108401 -0.0001393 0)
(0.108328 -0.000161373 0)
(0.108353 -0.00015364 0)
(0.108272 -0.000178057 0)
(0.1083 -0.000169513 0)
(0.10821 -0.000196493 0)
(0.108242 -0.000187036 0)
(0.108141 -0.000216909 0)
(0.108177 -0.000206438 0)
(0.108065 -0.00023963 0)
(0.108104 -0.000227959 0)
(0.10798 -0.000265075 0)
(0.108024 -0.000251985 0)
(0.107885 -0.000293729 -1.28475e-25)
(0.107934 -0.000278973 0)
(0.10778 -0.00032611 1.31103e-25)
(0.107834 -0.000309421 0)
(0.107662 -0.000362788 -1.33736e-25)
(0.107722 -0.000343881 0)
(0.10753 -0.000404364 0)
(0.107598 -0.00038292 0)
(0.107383 -0.000451601 0)
(0.107458 -0.000427204 0)
(0.107218 -0.000506861 1.43435e-25)
(0.107303 -0.000477771 1.8144e-23)
(0.107033 -0.000573326 -9.50924e-23)
(0.107128 -0.00053874 0)
(0.106895 -0.000513824 -5.62536e-23)
(0.106932 -0.000610817 -7.06333e-25)
(0.10712 0.000128361 1.0406e-22)
(0.107119 -6.92123e-05 0)
(0.108697 3.99918e-05 -2.00895e-23)
(0.108695 -5.6194e-05 -3.87355e-23)
(0.107025 0.000231025 -5.54317e-23)
(0.106949 0.000422542 7.36859e-25)
(0.106928 0.000326836 1.61549e-22)
(0.107031 -0.00017324 0)
(0.106946 -0.000288016 1.89638e-23)
(0.106985 0.000586058 -1.61319e-22)
(0.106887 0.000592813 1.39753e-22)
(0.106862 0.000467876 -1.38564e-22)
(0.106864 -0.00041182 -5.70261e-23)
(0.106785 -0.000547321 3.82043e-23)
(0.106824 -0.000652506 3.74647e-23)
(0.107116 2.83154e-05 0)
(0.1072 0.000623133 4.90315e-24)
(0.107008 0.000695928 -7.68318e-25)
(0.107107 0.000658195 3.79894e-23)
(0.107353 0.000557133 3.75569e-23)
(0.107279 0.000589287 -3.7752e-23)
(0.107496 0.000496667 6.88441e-26)
(0.107425 0.000526349 0)
(0.107628 0.000442553 0)
(0.107564 0.000468751 0)
(0.107748 0.000394583 0)
(0.107689 0.000417872 0)
(0.107856 0.000351927 0)
(0.107803 0.000372618 0)
(0.107953 0.000313976 6.35939e-26)
(0.107906 0.000332404 0)
(0.108041 0.000280246 0)
(0.107998 0.000296608 0)
(0.10812 0.000250381 0)
(0.108082 0.000264853 0)
(0.108192 0.000224048 0)
(0.108157 0.000236796 0)
(0.108256 0.000200891 0)
(0.108225 0.000212096 0)
(0.108314 0.000180529 -5.70927e-26)
(0.108286 0.000190386 0)
(0.108366 0.000162553 3.87163e-30)
(0.108341 0.000171274 0)
(0.108414 0.000146565 0)
(0.108391 0.000154333 0)
(0.108456 0.000132192 1.06413e-25)
(0.108435 0.000139199 0)
(0.108494 0.000119157 0)
(0.108476 0.00012552 0)
(0.108529 0.000107294 0)
(0.108512 0.000113089 0)
(0.108561 9.64836e-05 0)
(0.108545 0.000101764 0)
(0.108589 8.66444e-05 0)
(0.108575 9.14477e-05 0)
(0.108615 7.77203e-05 0)
(0.108603 8.20701e-05 0)
(0.108639 6.97181e-05 9.09427e-26)
(0.108627 7.36144e-05 0)
(0.108661 6.22694e-05 -5.61282e-24)
(0.10865 6.60372e-05 0)
(0.10868 5.48768e-05 5.3451e-24)
(0.108671 5.85119e-05 0)
(0.108699 4.85009e-05 5.11392e-24)
(0.10869 5.16185e-05 -5.22226e-24)
(0.108704 2.90429e-05 1.01064e-23)
(0.108708 4.52461e-05 0)
(0.108706 3.79032e-05 1.50423e-23)
(0.108702 1.25464e-05 0)
(0.108702 2.05865e-05 0)
(0.1087 -4.25927e-06 0)
(0.108701 4.40056e-06 0)
(0.108701 -2.17946e-05 0)
(0.1087 -1.30338e-05 0)
(0.108702 -3.77459e-05 2.05473e-23)
(0.108701 -2.96074e-05 5.10903e-24)
(0.108704 -5.43278e-05 5.05818e-24)
(0.108703 -4.6084e-05 4.02949e-23)
(0.108688 -6.80565e-05 2.62253e-23)
(0.108705 -6.29365e-05 5.0396e-24)
(0.108697 -6.52717e-05 -1.02263e-23)
(0.108669 -7.45984e-05 5.38916e-24)
(0.108678 -7.11615e-05 -3.23035e-23)
(0.108648 -8.17213e-05 5.73775e-30)
(0.108659 -7.81216e-05 0)
(0.108625 -8.87558e-05 0)
(0.108637 -8.51319e-05 0)
(0.1086 -9.67621e-05 3.97822e-31)
(0.108613 -9.26431e-05 0)
(0.108572 -0.000105774 0)
(0.108586 -0.000101137 0)
(0.108542 -0.000115897 0)
(0.108557 -0.000110691 0)
(0.108508 -0.000127253 0)
(0.108525 -0.000121414 0)
(0.108471 -0.00013997 0)
(0.10849 -0.000133435 0)
(0.108431 -0.000154178 -2.152e-25)
(0.108452 -0.000146881 0)
(0.108386 -0.000170008 0)
(0.108409 -0.000161884 0)
(0.108336 -0.00018758 0)
(0.108362 -0.000178568 0)
(0.108281 -0.000207054 0)
(0.10831 -0.000197071 0)
(0.108221 -0.000228645 0)
(0.108252 -0.000217569 0)
(0.108153 -0.000252633 -1.20613e-25)
(0.108188 -0.000240321 0)
(0.108079 -0.00027939 0)
(0.108117 -0.000265641 0)
(0.107995 -0.000309382 0)
(0.108038 -0.000293953 0)
(0.107903 -0.000343141 1.28475e-25)
(0.10795 -0.000325759 0)
(0.107799 -0.000381251 -7.03406e-30)
(0.107852 -0.000361616 0)
(0.107684 -0.000424364 2.67464e-25)
(0.107743 -0.000402144 0)
(0.107555 -0.000473189 0)
(0.107621 -0.000448019 0)
(0.107411 -0.000528491 0)
(0.107485 -0.000499972 0)
(0.10725 -0.000591233 -1.80711e-29)
(0.107333 -0.000558882 0)
(0.107071 -0.000663198 0)
(0.107163 -0.000625907 0)
(0.106869 -0.000750589 -5.68958e-23)
(0.106973 -0.000704569 0)
(0.10671 -0.000695903 -7.01337e-25)
(0.106758 -0.000801413 9.69317e-23)
(0.107019 0.000131312 0)
(0.106911 0.000722134 2.20002e-22)
(0.106918 0.000233951 3.79732e-23)
(0.108701 5.68883e-05 -5.1043e-24)
(0.10871 5.38739e-05 0)
(0.108712 -5.28368e-05 4.93362e-24)
(0.108714 -6.07069e-05 -9.77816e-24)
(0.107021 -7.35537e-05 0)
(0.106929 -0.000183657 0)
(0.106827 0.000353364 0)
(0.106838 -0.000305029 -1.86777e-23)
(0.106751 -0.000438526 -3.78054e-23)
(0.106668 -0.000584558 0)
(0.10659 -0.000742457 9.78393e-23)
(0.106641 -0.000854535 -7.81707e-23)
(0.107017 2.83725e-05 0)
(0.107044 0.000794984 -1.82827e-26)
(0.106803 0.000751117 6.98266e-23)
(0.106842 0.000875886 -2.49817e-22)
(0.106946 0.000835657 7.25016e-23)
(0.10723 0.000708001 -2.36727e-23)
(0.107139 0.000749746 -3.7666e-23)
(0.107387 0.000632622 0)
(0.107312 0.000669146 0)
(0.107528 0.00056485 -6.88378e-26)
(0.107459 0.000597898 0)
(0.107656 0.000504406 0)
(0.107594 0.000533741 0)
(0.107772 0.000450508 0)
(0.107716 0.000476692 0)
(0.107877 0.000402447 0)
(0.107826 0.000425788 0)
(0.107972 0.000359595 -6.35939e-26)
(0.107926 0.00038041 0)
(0.108058 0.000321427 0)
(0.108016 0.000339955 0)
(0.108136 0.000287533 0)
(0.108098 0.000303971 0)
(0.108205 0.000257543 0)
(0.108171 0.000272076 0)