/*--------------------------------*- C++ -*----------------------------------*\
  =========                 |
  \\      /  F ield         | OpenFOAM: The Open Source CFD Toolbox
   \\    /   O peration     | Website:  https://openfoam.org
    \\  /    A nd           | Version:  10
     \\/     M anipulation  |
\*---------------------------------------------------------------------------*/
FoamFile
{
    format      ascii;
    class       volScalarField;
    location    "39.5";
    object      p;
}
// * * * * * * * * * * * * * * * * * * * * * * * * * * * * * * * * * * * * * //

dimensions      [0 2 -2 0 0 0 0];

internalField   nonuniform List<scalar> 
28942
(
-0.00369543
-0.00306249
0.00212174
0.00962937
0.00992967
0.000125395
0.000367616
4.33974e-05
0.00283915
0.00292729
-0.00223497
-0.00250526
-0.00289252
-0.00280964
0.000242209
0.000595505
0.00999895
0.0102687
0.00569032
0.00725056
0.00827054
0.00826283
-0.00516991
-0.00499041
-0.00351935
-0.00373898
0.0139986
0.0139476
0.00363513
0.00357979
3.16312e-05
7.1437e-05
0.000947348
0.000398108
0.00725821
0.00846499
0.0110043
0.0129649
1.10827e-05
0.0151624
0.00923367
0.0117314
0.00207471
0.00201821
0.0020511
0.000362546
0.000211128
0.000290476
0.000335047
0.00047104
0.000876528
0.00293931
0.00300855
0.00296928
0.00312626
-0.00227863
-0.00097186
-0.00330363
-0.00314839
-0.00342286
-0.00349538
-0.00349647
-0.00339361
-2.76379e-05
-0.00174055
-0.000269409
0.00107013
0.00954018
0.0090435
-0.00328297
-0.00349474
-0.00322757
0.00910307
0.00895568
0.0092471
-0.00139025
-0.0010002
-0.000654102
0.00245938
0.00285908
0.00194498
0.000844308
-0.00625132
-0.00748599
0.00118148
0.0039127
0.00495651
0.00574605
0.00412667
0.00425317
0.00622366
0.00559971
-0.00128968
-0.00158887
-0.00187258
-0.00170619
-0.00152653
0.00544562
0.00673899
-0.00779755
0.0114268
0.0106279
0.00592176
0.0095193
0.00102596
0.000944348
0.000844867
0.00559597
0.00578852
0.00578229
-0.00314559
-0.00306547
-0.00304766
-0.00252595
-0.00264622
0.0159546
0.0139481
0.0133891
0.0150216
0.00174522
0.0048347
0.00352956
0.005178
0.00485555
0.0156267
0.015922
0.0145804
0.00602228
0.00710223
0.000247366
0.000362553
0.000150469
0.0106142
0.0111185
0.00781086
0.00746314
0.0129199
0.00680629
0.00809984
0.00916698
-0.00180592
-0.0023265
0.00746905
0.00200093
0.00207168
-0.00109616
-0.00136663
-0.000891682
-0.00242754
0.00670522
0.00583137
0.00381582
0.000324247
0.00026011
0.000115474
0.000264079
0.00764382
0.00690865
-0.00175911
-0.00187876
-0.00177192
-0.004069
-0.00360878
9.4402e-05
-0.00278308
-0.000423955
0.00851237
0.0086208
0.00971625
0.00925141
0.00782816
0.00323031
0.00314923
0.00338398
0.00326187
0.00516752
0.00494516
0.00527934
0.00549988
0.00543671
0.00550474
0.00571517
0.00626801
0.00596261
0.00555938
0.00588924
0.0065953
0.00734746
0.00764047
-0.00044948
-0.000433461
-0.00237962
0.000272982
9.77932e-05
-0.00189155
-0.00198242
0.000369237
0.000430555
0.000389226
0.000317919
0.00215233
0.00212313
0.00209296
-0.00283922
-0.00302981
-0.00268833
-0.00427385
-0.0047609
-0.00406511
-0.00465766
-0.00643099
-0.00512221
0.0161487
0.0168595
0.0166267
0.00107437
0.00122053
0.00110325
0.0104688
0.0100411
0.0101215
0.00162718
0.00160556
0.00164888
0.00158404
0.00156279
0.0015417
0.00154247
0.00152081
0.00152184
0.00156327
0.00158447
0.00160589
0.00162766
0.00164931
0.00150037
0.0015012
0.00167068
0.00167122
0.00169299
0.00148012
0.00148053
0.00169344
0.00145973
0.0014395
0.00146023
0.00144006
0.00171525
0.00171586
0.00141945
0.00142002
0.00173744
0.00173838
0.00139954
0.00140013
0.00176003
0.0017611
0.00137977
0.00138038
0.00178287
0.00178398
0.00136016
0.00136073
0.00180596
0.00180701
0.00134071
0.00134116
0.00182936
0.0018301
0.00132135
0.00132175
0.00185274
0.00185344
0.00130207
0.00130241
0.00187644
0.00187698
0.00128287
0.00128302
0.00190041
0.00190091
0.00126382
0.00126345
0.00192461
0.00192483
0.00124439
0.00124405
0.00194908
0.00194929
0.0012244
0.00122454
0.00192379
0.00194828
0.00197393
0.00197388
0.00187523
0.00189956
0.00182799
0.00185175
0.00178195
0.00180489
0.00173649
0.00175916
0.00169154
0.00171393
0.0016481
0.00167015
0.00160505
0.00162634
0.00156243
0.00158365
0.00152033
0.00154134
0.00147927
0.00149974
0.00143879
0.00145896
0.00139891
0.00141878
0.00135959
0.00137919
0.00132078
0.00134013
0.00128243
0.00130155
0.00124385
0.00126335
0.00122433
0.00120471
0.00120484
0.00126363
0.00122482
0.00124427
0.00130245
0.00128305
0.00134117
0.00132179
0.00138031
0.00136068
0.00141996
0.00140007
0.00146019
0.00144001
0.00150102
0.00148053
0.00154257
0.00152182
0.00158463
0.00156361
0.00162745
0.00160589
0.00167131
0.00164946
0.0017156
0.00169314
0.00176085
0.00173817
0.00180671
0.00178372
0.00185328
0.00182987
0.00190068
0.00187675
0.00194851
0.00192455
0.00197309
0.00197326
0.00120466
0.00120528
0.00199861
0.00199752
0.00199831
0.00199882
0.00192219
0.0019713
0.00194662
0.00187375
0.00189792
0.00182692
0.00185013
0.00178094
0.00180386
0.00173558
0.00175818
0.00169098
0.00171318
0.001647
0.00166896
0.00160391
0.00162561
0.00156178
0.00158254
0.00151976
0.00154068
0.0014787
0.00149916
0.00143828
0.00145842
0.00139845
0.00141829
0.00135916
0.00137874
0.00132038
0.00133971
0.00128208
0.00130118
0.00124368
0.00126294
0.00118499
0.00118499
0.00120492
0.00122438
0.0012252
0.00120589
0.00118601
0.0011851
0.00126387
0.00124461
0.00130233
0.00128299
0.00134094
0.00132159
0.00138004
0.00136043
0.00141967
0.00139979
0.00145986
0.00143969
0.00150066
0.00148019
0.00154214
0.00152132
0.00158435
0.00156313
0.00162706
0.00160561
0.00167068
0.00164892
0.00171503
0.00169279
0.00176012
0.0017375
0.00180591
0.00178294
0.00185231
0.00182905
0.00189926
0.00187574
0.00194684
0.00192296
0.00199508
0.00197103
0.00199606
0.00202223
0.00201971
0.00202299
0.00118587
0.00118639
0.00202272
0.00202033
0.00204681
0.00204441
0.00202367
0.00120521
0.0011861
0.00116649
0.00116693
0.00201661
0.00204595
0.00207274
0.00204543
0.00196829
0.00199248
0.0019198
0.00194395
0.00187202
0.00189586
0.00182539
0.00184846
0.00177958
0.00180243
0.00173438
0.00175689
0.00168989
0.00171205
0.00164609
0.00166788
0.00160301
0.00162446
0.00156069
0.00158177
0.00151903
0.00153978
0.00147805
0.00149846
0.00143768
0.00145779
0.00139789
0.00141772
0.00135865
0.00137821
0.00131992
0.00133923
0.00128164
0.00130073
0.00124349
0.00126253
0.00122435
0.00116587
0.00116632
0.00116596
0.00116604
0.00122547
0.00118694
0.00120626
0.00126385
0.00124467
0.00130202
0.00128283
0.00134058
0.00132124
0.00137964
0.00136005
0.00141921
0.00139936
0.00145936
0.00143922
0.00150011
0.00147966
0.0015415
0.00152072
0.00158356
0.00156245
0.00162635
0.00160488
0.00166983
0.00164799
0.00171405
0.00169187
0.001759
0.00173644
0.00180463
0.00178174
0.00185085
0.00182768
0.00189755
0.00187417
0.00194468
0.00192103
0.00199226
0.00196839
0.0020408
0.0020162
0.00206824
0.00206478
0.00204733
0.00204763
0.00116682
0.00116762
0.00207048
0.00207089
0.00208177
0.0020885
0.0020919
0.00204861
0.0021187
0.00204832
0.00205753
0.00206765
0.00201285
0.00203779
0.00196407
0.00198832
0.00191649
0.00194004
0.00186958
0.00189311
0.00182343
0.00184642
0.0017778
0.00180055
0.00173278
0.00175521
0.00168844
0.00171053
0.0016448
0.00166653
0.00160187
0.00162324
0.00155962
0.00158067
0.00151807
0.00153877
0.00147717
0.00149755
0.00143688
0.00145695
0.00139716
0.00141695
0.00135799
0.00137751
0.0013193
0.00133859
0.00128108
0.00130014
0.00124314
0.00126205
0.00120529
0.00122423
0.00116712
0.00118619
0.00114725
0.00114786
0.00114755
0.00114698
0.00114699
0.00114736
0.00114707
0.00114846
0.00114785
0.00118732
0.00114933
0.00116829
0.00122547
0.00120642
0.0012635
0.0012445
0.00130157
0.00128249
0.00134009
0.00132077
0.00137909
0.00135953
0.0014186
0.00139878
0.00145867
0.00143857
0.00149935
0.00147894
0.00154065
0.00151992
0.00158261
0.00156155
0.00162528
0.00160386
0.00166864
0.00164686
0.00171272
0.0016906
0.0017575
0.00173503
0.00180293
0.00178014
0.00184894
0.00182587
0.00189539
0.00187212
0.00194209
0.00191872
0.0019889
0.0019655
0.00203601
0.00201237
0.00208341
0.00205947
0.00211163
0.00210638
0.00207139
0.00207215
0.002093
0.0020937
0.00116729
0.00114836
0.00112943
0.0011299
0.00211299
0.00211521
0.00214222
0.00207544
0.00213353
0.00212889
0.00211119
0.00207211
0.00204919
0.00206439
0.00200772
0.00203035
0.00195956
0.00198357
0.00191314
0.00193633
0.0018669
0.00189
0.00182101
0.0018439
0.00177562
0.00179825
0.00173083
0.00175315
0.00168668
0.00170867
0.00164322
0.00166486
0.00160044
0.00162174
0.00155833
0.0015793
0.0015169
0.00153754
0.0014761
0.00149642
0.0014359
0.00145593
0.00139627
0.00141602
0.00135717
0.00137666
0.00131856
0.00133781
0.0012804
0.00129942
0.00124265
0.00126147
0.00120505
0.00122379
0.00118612
0.00112839
0.00112885
0.00112857
0.00112835
0.00112841
0.00112865
0.0011285
0.00112892
0.00118749
0.00114949
0.00116871
0.00122524
0.00120638
0.00126299
0.00124413
0.00130101
0.00128195
0.00133946
0.00132018
0.00137839
0.00135886
0.00141782
0.00139804
0.00145781
0.00143775
0.00149838
0.00147802
0.00153958
0.0015189
0.00158142
0.00156042
0.00162394
0.0016026
0.00166715
0.00164546
0.00171105
0.00168902
0.00175562
0.00173326
0.00180082
0.00177815
0.00184655
0.00182363
0.0018927
0.00186959
0.00193905
0.00191587
0.00198534
0.00196223
0.00203136
0.0020085
0.00207702
0.00205364
0.00212325
0.00210078
0.00215051
0.0021447
0.00209565
0.00209526
0.00112907
0.00113046
0.00211621
0.00209883
0.00212633
0.00211702
0.00213687
0.00213493
0.00215501
0.0021501
0.0021552
0.00217141
0.00216676
0.00209568
0.00208405
0.00213729
0.00211409
0.00204377
0.00206172
0.00200194
0.00202486
0.00195558
0.00197866
0.0019096
0.0019326
0.00186372
0.00188663
0.00181816
0.00184089
0.00177307
0.00179555
0.00172853
0.00175073
0.00168462
0.0017065
0.00164135
0.0016629
0.00159875
0.00161997
0.00155681
0.0015777
0.00151552
0.00153609
0.00147484
0.00149511
0.00143476
0.00145473
0.00139523
0.00141493
0.00135622
0.00137566
0.00131769
0.0013369
0.0012796
0.00129859
0.00124194
0.00126072
0.00120455
0.00122323
0.00116703
0.00118581
0.00112909
0.00114823
0.00110995
0.00111001
0.00110989
0.00110998
0.00110992
0.00111012
0.00111001
0.00111025
0.0011102
0.00111064
0.00111041
0.00111159
0.00111104
0.00114969
0.00111207
0.00113088
0.00118734
0.0011686
0.00122483
0.00120608
0.00126238
0.00124356
0.00130032
0.0012813
0.0013387
0.00131945
0.00137754
0.00135806
0.00141688
0.00139715
0.00145676
0.00143675
0.00149722
0.00147692
0.00153828
0.00151768
0.00157998
0.00155906
0.00162234
0.00160108
0.00166536
0.00164377
0.00170905
0.00168713
0.00175338
0.00173114
0.0017983
0.00177578
0.00184372
0.00182096
0.0018895
0.00186658
0.00193546
0.00191248
0.00198131
0.00195842
0.0020267
0.00200414
0.0020713
0.00204907
0.00211474
0.00209338
0.00215769
0.00213554
0.00218747
0.00217931
0.00211782
0.00215364
0.00213514
0.00112912
0.00111038
0.00109273
0.00109306
0.00211804
0.00213911
0.00215361
0.00215845
0.00217585
0.00219292
0.00220684
0.00219928
0.00211822
0.00213047
0.00217208
0.00216472
0.00214864
0.00208186
0.00210786
0.00203858
0.00205854
0.00199643
0.00201885
0.00195099
0.00197367
0.00190551
0.00192827
0.00186007
0.00188277
0.0018149
0.00183744
0.00177014
0.00179247
0.00172591
0.00174796
0.00168225
0.00170401
0.00163922
0.00166066
0.00159682
0.00161794
0.00155506
0.00157587
0.00151393
0.00153442
0.0014734
0.0014936
0.00143345
0.00145336
0.00139403
0.00141368
0.00135513
0.00137452
0.00131669
0.00133586
0.0012787
0.00129764
0.00124111
0.00125985
0.00120389
0.00122246
0.00116663
0.00118526
0.00114788
0.00109134
0.00109125
0.00109127
0.0010917
0.00109156
0.00109201
0.00109187
0.0010921
0.00109208
0.00109217
0.00109214
0.00109239
0.00114978
0.00111228
0.00113105
0.00118694
0.00116837
0.00122419
0.00120558
0.00126165
0.00124287
0.00129952
0.00128054
0.0013378
0.00131861
0.00137654
0.00135712
0.00141578
0.0013961
0.00145554
0.00143559
0.00149586
0.00147563
0.00153678
0.00151625
0.00157831
0.00155747
0.00162048
0.00159932
0.00166329
0.00164181
0.00170674
0.00168494
0.00175079
0.0017287
0.0017954
0.00177304
0.00184046
0.00181788
0.00188583
0.00186312
0.00193133
0.00190859
0.00197668
0.00195405
0.00202153
0.00199921
0.00206547
0.00204367
0.00210785
0.00208691
0.00214946
0.00212839
0.0021893
0.00216911
0.00217518
0.00217425
0.00221792
0.00220852
0.00213824
0.0010917
0.00109332
0.00218061
0.00214015
0.00219149
0.00215807
0.00216102
0.00217994
0.00218025
0.00219754
0.00221231
0.00222526
0.00223575
0.00222679
0.00213989
0.00215433
0.00220174
0.00219511
0.00217178
0.00212072
0.00214015
0.00207661
0.00209851
0.0020329
0.00205411
0.00199045
0.00201236
0.00194581
0.00196817
0.00190092
0.00192339
0.00185598
0.00187844
0.00181125
0.00183358
0.00176687
0.00178901
0.00172296
0.00174485
0.0016796
0.00170121
0.00163682
0.00165814
0.00159466
0.00161567
0.0015531
0.0015738
0.00151215
0.00153255
0.00147178
0.0014919
0.00143197
0.00145181
0.00139269
0.00141227
0.0013539
0.00137324
0.00131558
0.00133469
0.00127768
0.00129658
0.00124018
0.00125888
0.00120304
0.00122157
0.00116611
0.00118459
0.00112903
0.00114754
0.00109174
0.00111053
0.00107287
0.00107293
0.00107285
0.00107318
0.00107295
0.00107363
0.0010734
0.00107397
0.00107383
0.00107403
0.00107404
0.00107398
0.00107398
0.00107407
0.00107395
0.00107458
0.00107422
0.00111231
0.00107492
0.00109368
0.00114951
0.00113091
0.0011864
0.001168
0.00122344
0.00120488
0.00126082
0.00124208
0.00129859
0.00127966
0.00133678
0.00131763
0.00137541
0.00135604
0.00141452
0.0013949
0.00145415
0.00143427
0.00149432
0.00147417
0.00153507
0.00151462
0.00157641
0.00155567
0.00161837
0.00159732
0.00166094
0.00163958
0.00170412
0.00168246
0.00174787
0.00172593
0.00179212
0.00176994
0.00183679
0.00181442
0.00188172
0.00185924
0.00192671
0.00190423
0.00197149
0.00194915
0.00201572
0.00199371
0.002059
0.00203752
0.00210072
0.0020801
0.00214061
0.00212099
0.00217837
0.00215935
0.00221492
0.00219746
0.00219428
0.00219756
0.00224132
0.00222901
0.00216043
0.00216222
0.00221044
0.00221961
0.00220982
0.00218042
0.00218275
0.00109163
0.00107322
0.00105598
0.00105629
0.00220257
0.00220124
0.00221746
0.00223084
0.00224246
0.00225045
0.00222445
0.00221652
0.00222822
0.00225592
0.00224712
0.0022423
0.00216203
0.00218718
0.00219905
0.00214525
0.00216442
0.00211076
0.0021301
0.00206875
0.00208949
0.00202674
0.00204783
0.00198405
0.0020056
0.00194018
0.0019622
0.0018959
0.00191808
0.0018515
0.0018737
0.00180723
0.00182934
0.00176326
0.0017852
0.00171971
0.00174143
0.00167667
0.00169813
0.00163417
0.00165535
0.00159226
0.00161315
0.00155093
0.00157152
0.00151018
0.00153048
0.00146999
0.00149001
0.00143034
0.0014501
0.0013912
0.00141071
0.00135255
0.00137182
0.00131434
0.00133339
0.00127655
0.0012954
0.00123915
0.00125781
0.00120211
0.00122059
0.00116539
0.00118372
0.00112863
0.00114702
0.0011102
0.00105452
0.0010544
0.00105439
0.00105511
0.00105483
0.00105566
0.0010554
0.00105598
0.00105585
0.00105605
0.00105605
0.00105589
0.00105598
0.00105582
0.00105585
0.00105587
0.0011122
0.00107522
0.00109374
0.00114901
0.00113058
0.00118565
0.00116731
0.0012226
0.00120408
0.00125989
0.0012412
0.00129755
0.00127868
0.00133562
0.00131654
0.00137413
0.00135482
0.00141311
0.00139356
0.00145258
0.00143278
0.00149259
0.00147252
0.00153315
0.0015128
0.00157429
0.00155365
0.00161601
0.00159508
0.00165832
0.0016371
0.0017012
0.0016797
0.00174462
0.00172285
0.0017885
0.00176651
0.00183273
0.00181058
0.00187718
0.00185495
0.00192163
0.00189942
0.0019658
0.00194377
0.00200937
0.00198769
0.00205191
0.0020308
0.00209291
0.00207265
0.00213186
0.00211273
0.00216822
0.0021504
0.00220114
0.00218539
0.00223369
0.00221553
0.00223427
0.00225772
0.00227067
0.00226929
0.00225785
0.00224228
0.00221383
0.00222038
0.00218272
0.00218404
0.0010547
0.00105642
0.00223269
0.00220266
0.00220394
0.00222272
0.00222158
0.00223664
0.00224918
0.0022578
0.00226334
0.00224103
0.00222752
0.00223738
0.00224252
0.00225469
0.00226934
0.00225239
0.00225589
0.00225513
0.0022786
0.00227909
0.00218404
0.00220584
0.00221395
0.00217337
0.00218731
0.00213628
0.00215548
0.00210039
0.00211883
0.00206067
0.00208084
0.00201948
0.00204021
0.00197731
0.00199854
0.00193415
0.00195582
0.00189049
0.00191236
0.00184664
0.00186857
0.00180287
0.00182474
0.00175933
0.00178106
0.00171617
0.0017377
0.00167347
0.00169476
0.00163128
0.00165231
0.00158964
0.00161039
0.00154855
0.00156903
0.00150801
0.00152822
0.00146802
0.00148795
0.00142855
0.00144822
0.00138957
0.001409
0.00135106
0.00137026
0.00131299
0.00133197
0.00127532
0.00129411
0.00123803
0.00125663
0.00120109
0.00121952
0.00116447
0.00118274
0.00112802
0.00114626
0.0010916
0.00110977
0.00105474
0.00107314
0.00103616
0.00103626
0.00103616
0.00103653
0.00103622
0.00103718
0.00103684
0.00103774
0.00103749
0.00103805
0.00103792
0.00103812
0.00103812
0.00103796
0.00103807
0.00103771
0.00103787
0.00103763
0.00103762
0.00103782
0.00103771
0.00107504
0.001038
0.00105667
0.00111186
0.00109348
0.00114828
0.0011301
0.00118481
0.00116651
0.00122166
0.0012032
0.00125885
0.00124022
0.0012964
0.00127758
0.00133435
0.00131533
0.00137272
0.00135348
0.00141155
0.00139208
0.00145086
0.00143114
0.00149068
0.00147071
0.00153104
0.00151079
0.00157195
0.00155143
0.00161342
0.00159262
0.00165545
0.00163437
0.00169801
0.00167667
0.00174106
0.00171948
0.00178454
0.00176276
0.00182832
0.0018064
0.00187225
0.00185028
0.00191612
0.00189422
0.00195966
0.00193796
0.00200253
0.00198121
0.00204431
0.00202359
0.00208451
0.00206465
0.00212263
0.00210388
0.00215805
0.00214075
0.00218974
0.00217446
0.00221783
0.00220446
0.0022273
0.00223102
0.00224304
0.00227636
0.00226281
0.00220457
0.00220542
0.00224492
0.00222295
0.00222446
0.0010545
0.00103622
0.00101934
0.00101937
0.00224259
0.00224112
0.00225507
0.00226594
0.00227373
0.00227918
0.00224883
0.00223477
0.00224918
0.00226066
0.00226827
0.00226585
0.00226841
0.0022906
0.00228505
0.00226798
0.00228254
0.00220565
0.00221613
0.00221717
0.00219081
0.00220482
0.00215939
0.00217548
0.00212636
0.00214348
0.00209065
0.00210883
0.00205206
0.00207169
0.0020117
0.00203204
0.0019702
0.00199109
0.00192773
0.00194907
0.00188471
0.00190628
0.00184145
0.0018631
0.00179818
0.00181981
0.00175511
0.00177662
0.00171236
0.00173369
0.00167002
0.00169114
0.00162816
0.00164903
0.0015868
0.00160742
0.00154597
0.00156632
0.00150567
0.00152576
0.00146589
0.00148572
0.00142661
0.00144619
0.0013878
0.00140715
0.00134945
0.00136857
0.00131152
0.00133043
0.00127398
0.0012927
0.00123681
0.00125535
0.00119998
0.00121836
0.00116346
0.00118168
0.00112722
0.00114531
0.00109102
0.00110906
0.00107281
0.00101799
0.00101782
0.00101791
0.00101863
0.00101831
0.00101935
0.001019
0.00101987
0.00101964
0.00102017
0.00102005
0.00102025
0.00102024
0.0010201
0.00102021
0.00101976
0.00101995
0.00101941
0.00101959
0.00101928
0.00107477
0.00103809
0.00105658
0.00111127
0.001093
0.00114745
0.00112934
0.00118389
0.00116564
0.00122064
0.00120223
0.00125772
0.00123914
0.00129514
0.00127638
0.00133295
0.001314
0.00137118
0.00135201
0.00140984
0.00139045
0.00144897
0.00142935
0.0014886
0.00146872
0.00152874
0.0015086
0.0015694
0.00154901
0.0016106
0.00158994
0.00165232
0.0016314
0.00169455
0.00167338
0.00173722
0.00171583
0.00178026
0.0017587
0.00182356
0.00180189
0.00186696
0.00184526
0.00191023
0.00188863
0.00195311
0.00193175
0.00199526
0.00197431
0.00203625
0.00201594
0.00207562
0.00205618
0.00211285
0.00209455
0.00214733
0.00213048
0.00217824
0.0021633
0.00220483
0.00219229
0.00222632
0.002216
0.00224724
0.00223804
0.00227232
0.00225816
0.00224891
0.00224805
0.00225632
0.00222505
0.00222606
0.00101778
0.00101966
0.00226509
0.00224267
0.00224419
0.00226137
0.00225976
0.00227242
0.00228194
0.00228824
0.00229091
0.00225569
0.00223897
0.00224149
0.00224144
0.00224163
0.00226147
0.00225897
0.0022741
0.00227472
0.00228191
0.00227791
0.00229919
0.00229438
0.00228624
0.00227452
0.00222631
0.00222402
0.00223423
0.00220102
0.00220567
0.00217588
0.00219105
0.00214768
0.00216227
0.00211566
0.00213214
0.00208067
0.00209851
0.00204302
0.00206215
0.00200352
0.00202346
0.00196274
0.00198328
0.00192098
0.00194196
0.0018786
0.00189985
0.00183593
0.00185729
0.0017932
0.00181457
0.00175061
0.00177188
0.00170828
0.00172941
0.00166633
0.00168726
0.00162481
0.00164551
0.00158376
0.00160423
0.00154321
0.00156343
0.00150316
0.00152312
0.0014636
0.00148332
0.00142452
0.001444
0.0013859
0.00140516
0.00134771
0.00136676
0.00130994
0.00132878
0.00127254
0.0012912
0.0012355
0.00125398
0.00119879
0.00121711
0.00116238
0.00118055
0.00112624
0.00114428
0.00109034
0.00110826
0.0010541
0.0010722
0.00101748
0.00103599
0.000999564
0.000999071
0.000999255
0.00100011
0.000999784
0.00100084
0.00100044
0.00100156
0.00100123
0.00100206
0.00100184
0.00100235
0.00100223
0.00100243
0.00100242
0.0010023
0.0010024
0.00100197
0.00100216
0.00100149
0.00100173
0.00100122
0.00100132
0.0010014
0.00100122
0.00103798
0.00100163
0.00101987
0.00107433
0.00105624
0.00111048
0.00109242
0.00114655
0.00112849
0.0011829
0.00116469
0.00121953
0.00120118
0.00125648
0.00123797
0.00129377
0.00127508
0.00133144
0.00131256
0.0013695
0.00135042
0.00140799
0.00138869
0.00144693
0.00142741
0.00148635
0.00146658
0.00152625
0.00150624
0.00156666
0.00154639
0.00160757
0.00158705
0.00164897
0.00162821
0.00169083
0.00166985
0.0017331
0.00171192
0.00177569
0.00175437
0.00181849
0.00179708
0.00186133
0.00183992
0.00190399
0.0018827
0.00194619
0.00192518
0.0019876
0.00196703
0.00202781
0.00200789
0.00206633
0.00204732
0.00210265
0.00208482
0.00213618
0.00211982
0.0021662
0.00215169
0.00219204
0.00217974
0.00221316
0.00220316
0.00222938
0.00222245
0.00223231
0.00226571
0.00227545
0.00226295
0.00224913
0.00224477
0.0022459
0.00227931
0.00226149
0.00226303
0.00101738
0.000999278
0.000983176
0.000983246
0.00227919
0.0022774
0.00228869
0.00229671
0.00230124
0.00230216
0.00224263
0.00222597
0.00222605
0.00224472
0.00226203
0.00227715
0.0022883
0.00228803
0.00229281
0.00230726
0.00229946
0.00228747
0.00227529
0.00224096
0.00225421
0.00224616
0.00222343
0.00222213
0.00220612
0.00221808
0.0021854
0.00219544
0.00216302
0.00217529
0.00213573
0.00214986
0.00210454
0.00212058
0.00207038
0.00208781
0.00203365
0.0020523
0.001995
0.00201453
0.00195496
0.00197513
0.00191391
0.00193455
0.0018722
0.00189312
0.00183013
0.00185119
0.00178795
0.00180904
0.00174584
0.00176688
0.00170397
0.00172487
0.00166241
0.00168314
0.00162125
0.00164178
0.00158053
0.00160083
0.00154027
0.00156034
0.00150048
0.00152032
0.00146116
0.00148076
0.00142229
0.00144167
0.00138387
0.00140303
0.00134586
0.00136482
0.00130825
0.00132701
0.001271
0.00128958
0.0012341
0.00125251
0.00119752
0.00121577
0.00116122
0.00117934
0.0011252
0.00114318
0.00108942
0.00110728
0.00105352
0.00107148
0.00103544
0.000981494
0.000980955
0.000981203
0.000982319
0.000981932
0.000983144
0.000982732
0.000983825
0.000983511
0.000984302
0.000984088
0.000984583
0.000984467
0.000984667
0.00098465
0.000984554
0.000984635
0.000984248
0.000984426
0.000983765
0.000984021
0.000983258
0.000983524
0.000983099
0.00103779
0.00100162
0.00101989
0.00107375
0.00105579
0.00110961
0.00109171
0.00114559
0.00112757
0.00118182
0.00116367
0.00121833
0.00120004
0.00125515
0.0012367
0.0012923
0.00127368
0.00132981
0.00131101
0.0013677
0.00134871
0.00140601
0.0013868
0.00144474
0.00142532
0.00148393
0.00146428
0.00152359
0.0015037
0.00156372
0.0015436
0.00160433
0.00158397
0.00164539
0.00162481
0.00168687
0.00166609
0.00172872
0.00170776
0.00177085
0.00174976
0.00181313
0.00179199
0.0018554
0.00183428
0.00189743
0.00187646
0.00193895
0.00191828
0.00197961
0.00195942
0.00201902
0.00199951
0.00205671
0.00203812
0.00209215
0.00207476
0.00212476
0.00210886
0.00215389
0.00213981
0.00217891
0.00216698
0.00219938
0.00218971
0.00221432
0.00220777
0.00222335
0.00221938
0.0022309
0.00222491
0.0022396
0.00222402
0.00222379
0.00228206
0.00229085
0.00226366
0.00226487
0.000981117
0.000983408
0.00229168
0.00227936
0.00228089
0.00229577
0.00229397
0.00230382
0.00231015
0.00231286
0.00231183
0.00222722
0.00221033
0.00220427
0.00220911
0.00220036
0.00221682
0.00222447
0.00224684
0.00226254
0.00228067
0.00229177
0.00230131
0.00230278
0.00231315
0.00230252
0.00228801
0.00227178
0.00225171
0.00223217
0.00226515
0.00221581
0.00221578
0.00220629
0.00220163
0.00218933
0.00220189
0.00217188
0.00218086
0.00215004
0.00216167
0.00212346
0.00213725
0.00209318
0.00210876
0.00205986
0.00207687
0.002024
0.00204222
0.00198618
0.00200531
0.0019469
0.0019667
0.00190656
0.00192685
0.00186551
0.00188611
0.00182406
0.00184482
0.00178243
0.00180326
0.00174084
0.00176163
0.00169942
0.0017201
0.00165828
0.00167881
0.00161749
0.00163784
0.0015771
0.00159725
0.00153715
0.00155707
0.00149764
0.00151734
0.00145857
0.00147805
0.00141993
0.0014392
0.00138171
0.00140077
0.0013439
0.00136276
0.00130646
0.00132513
0.00126937
0.00128787
0.00123262
0.00125096
0.00119617
0.00121436
0.00116
0.00117805
0.00112408
0.00114201
0.00108841
0.00110622
0.00105283
0.00107064
0.00101711
0.00103492
0.000980984
0.000999168
0.000963115
0.000962729
0.000962879
0.00096381
0.000963387
0.000964677
0.000964235
0.000965494
0.000965103
0.000966133
0.000965837
0.00096659
0.000966384
0.000966861
0.000966748
0.000966948
0.000966928
0.00096685
0.000966922
0.000966571
0.000966733
0.000966106
0.000966363
0.000965516
0.000965812
0.000965173
0.000965295
0.000965413
0.000965202
0.0010015
0.000965467
0.000983563
0.00103738
0.00101953
0.00107305
0.00105518
0.00110869
0.00109085
0.00114456
0.0011266
0.00118067
0.00116258
0.00121705
0.00119883
0.00125373
0.00123535
0.00129073
0.00127219
0.00132807
0.00130936
0.00136578
0.00134688
0.00140389
0.00138479
0.00144241
0.0014231
0.00148136
0.00146183
0.00152076
0.00150101
0.0015606
0.00154063
0.00160089
0.0015807
0.0016416
0.0016212
0.00168269
0.0016621
0.00172411
0.00170337
0.00176575
0.00174491
0.00180751
0.00178663
0.00184919
0.00182837
0.00189058
0.00186994
0.00193141
0.00191109
0.00197133
0.00195152
0.00200996
0.00199084
0.00204682
0.00202865
0.0020814
0.00206444
0.00211315
0.00209768
0.00214144
0.00212778
0.00216567
0.00215412
0.00218537
0.00217612
0.00219978
0.00219335
0.00220823
0.00220483
0.00221113
0.00221048
0.00220756
0.00229726
0.00230482
0.00221334
0.00220023
0.00228163
0.00228285
0.00230452
0.00229611
0.00229768
0.000980745
0.000962826
0.000947397
0.000947538
0.00231112
0.00230937
0.00231762
0.0023222
0.00232297
0.00231997
0.0022038
0.0021893
0.00217637
0.0021909
0.00222568
0.00224276
0.0022658
0.00227666
0.00229547
0.00230576
0.00231237
0.00231706
0.00230384
0.00228754
0.00226595
0.00224747
0.00222467
0.00218736
0.00220045
0.00228317
0.0021964
0.00218233
0.002199
0.00220189
0.00218855
0.00218835
0.00217508
0.00218447
0.00215831
0.00216704
0.00213691
0.00214825
0.0021111
0.0021245
0.00208166
0.00209681
0.00204916
0.00206576
0.00201414
0.00203194
0.00197712
0.00199585
0.0019386
0.00195803
0.00189897
0.00191891
0.00185859
0.00187886
0.00181775
0.00183821
0.00177669
0.00179723
0.00173561
0.00175615
0.00169466
0.00171511
0.00165394
0.00167427
0.00161354
0.0016337
0.0015735
0.00159348
0.00153387
0.00155364
0.00149464
0.0015142
0.00145583
0.00147519
0.00141744
0.00143659
0.00137944
0.00139839
0.00134182
0.00136058
0.00130456
0.00132315
0.00126765
0.00128607
0.00123105
0.00124931
0.00119474
0.00121286
0.0011587
0.00117669
0.00112291
0.00114078
0.00108735
0.0011051
0.00105199
0.00106965
0.00101652
0.00103421
0.000998687
0.000945299
0.000944758
0.000945002
0.000946207
0.000945762
0.00094711
0.000946667
0.000947882
0.000947517
0.000948487
0.000948205
0.000948922
0.000948726
0.000949184
0.000949075
0.000949273
0.00094925
0.000949189
0.000949253
0.000948936
0.000949084
0.000948513
0.000948746
0.000947938
0.000948238
0.000947395
0.000947671
0.000947304
0.00100134
0.000965799
0.000983536
0.00103682
0.00101905
0.00107218
0.00105448
0.00110771
0.00108992
0.00114346
0.00112556
0.00117944
0.00116142
0.00121569
0.00119753
0.00125222
0.00123392
0.00128906
0.0012706
0.00132622
0.0013076
0.00136375
0.00134494
0.00140165
0.00138265
0.00143994
0.00142075
0.00147864
0.00145924
0.00151777
0.00149816
0.00155731
0.00153749
0.00159727
0.00157724
0.00163761
0.0016174
0.0016783
0.00165792
0.00171927
0.00169876
0.00176043
0.00173984
0.00180164
0.00178104
0.00184273
0.00182222
0.00188348
0.00186317
0.00192362
0.00190366
0.00196281
0.00194337
0.00200066
0.00198194
0.00203672
0.00201895
0.00207048
0.00205393
0.00210141
0.00208635
0.00212892
0.00211564
0.00215244
0.00214123
0.00217145
0.00216255
0.00218532
0.0021791
0.00219358
0.00219018
0.00219571
0.00219558
0.00219123
0.00219412
0.00218511
0.00218485
0.00217334
0.00216216
0.00217363
0.00231115
0.00231702
0.00229852
0.00229977
0.000944856
0.000947546
0.0023157
0.00231165
0.00231329
0.0023252
0.00232347
0.00233002
0.00233271
0.00233149
0.00232625
0.00216379
0.00215738
0.00214972
0.00217101
0.00219086
0.00221363
0.00224372
0.00225926
0.00228124
0.00229444
0.00230856
0.00231788
0.00231898
0.0023034
0.00228425
0.00226342
0.00223931
0.00221288
0.00218586
0.00215023
0.00215643
0.00214182
0.00230012
0.00217819
0.00215655
0.00217836
0.00217312
0.0021811
0.00218225
0.00217218
0.00217654
0.00216125
0.0021679
0.00214474
0.00215348
0.00212382
0.00213486
0.00209873
0.00211176
0.00207005
0.00208481
0.00203833
0.00205454
0.0020041
0.00202151
0.00196786
0.00198621
0.00193009
0.00194915
0.00189116
0.00191075
0.00185144
0.00187139
0.00181122
0.00183138
0.00177073
0.001791
0.00173017
0.00175045
0.0016897
0.00170992
0.00164942
0.00166953
0.00160941
0.00162938
0.00156974
0.00158953
0.00153043
0.00155004
0.0014915
0.00151092
0.00145297
0.00147219
0.00141482
0.00143385
0.00137705
0.00139589
0.00133964
0.0013583
0.00130257
0.00132107
0.00126583
0.00128417
0.0012294
0.00124758
0.00119324
0.00121129
0.00115734
0.00117526
0.00112168
0.00113948
0.00108624
0.00110393
0.00105099
0.00106859
0.00101577
0.00103335
0.000980492
0.000998185
0.000944683
0.000962668
0.000927067
0.000926657
0.000926815
0.000927781
0.000927354
0.0009287
0.000928225
0.000929582
0.00092916
0.000930309
0.000929964
0.000930881
0.000930614
0.000931296
0.000931109
0.000931549
0.000931443
0.00093164
0.000931615
0.00093157
0.000931625
0.000931341
0.000931475
0.000930956
0.000931168
0.00093041
0.000930704