/*--------------------------------*- C++ -*----------------------------------*\
  =========                 |
  \\      /  F ield         | OpenFOAM: The Open Source CFD Toolbox
   \\    /   O peration     | Website:  https://openfoam.org
    \\  /    A nd           | Version:  10
     \\/     M anipulation  |
\*---------------------------------------------------------------------------*/
FoamFile
{
    format      ascii;
    class       volVectorField;
    location    "39.5";
    object      U;
}
// * * * * * * * * * * * * * * * * * * * * * * * * * * * * * * * * * * * * * //

dimensions      [0 1 -1 0 0 0 0];

internalField   nonuniform List<vector> 
28942
(
(0.00448395 -0.00228455 -3.34709e-22)
(0.00606813 -0.00237157 -6.17942e-23)
(0.0180003 -0.012428 -8.45915e-22)
(0.103304 0.0182404 -5.33151e-21)
(0.102342 0.0222822 1.74496e-21)
(0.0180621 0.000599874 0)
(0.021494 0.000172485 1.50913e-23)
(0.0248379 0.00077371 -1.34465e-23)
(0.135241 -0.0178699 -2.66357e-22)
(0.133866 -0.0162336 7.57327e-22)
(0.00998919 0.00410123 -6.52816e-22)
(0.0163471 0.00575199 2.45122e-22)
(0.00727023 0.0032164 0)
(0.00480554 0.00211056 0)
(0.0548535 0.00229605 -1.99286e-23)
(0.0527811 0.00302553 -7.37556e-24)
(0.0893364 0.0158627 6.75285e-22)
(0.0870239 0.0138355 1.08637e-21)
(0.0121841 -0.0151349 2.96581e-21)
(0.0293799 -0.0305116 -7.80751e-22)
(0.0981811 0.0373269 9.64989e-22)
(0.0973506 0.0343673 0)
(0.0189477 0.00472168 1.15349e-21)
(0.00796299 0.00240875 5.42019e-22)
(0.0380979 0.00733487 9.28956e-22)
(0.0579167 0.0030246 -8.46869e-22)
(0.00765522 -0.0185083 8.57834e-21)
(0.00669924 -0.0165709 -3.15807e-21)
(0.0355975 -0.0253721 5.86567e-22)
(0.0193459 -0.0137099 2.02808e-22)
(0.0184987 -0.00172779 0)
(0.0231321 -0.00156137 -1.76666e-23)
(0.0292224 0.00507208 3.62774e-22)
(0.0417029 0.00214366 -6.19869e-23)
(0.0188513 0.0180289 1.33276e-21)
(0.0157395 0.019138 -1.33059e-21)
(0.0322094 0.0376486 -3.08514e-21)
(0.0186906 0.0305598 -1.07674e-21)
(0.00998891 6.86435e-05 -1.26203e-23)
(0.00865887 0.0162115 -2.63848e-21)
(0.0306472 -0.00620338 0)
(0.0513398 -0.01097 0)
(0.112388 -0.0163034 -3.23013e-23)
(0.111889 -0.0163658 9.64563e-23)
(0.11561 -0.0160597 8.28974e-23)
(0.0348267 0.000325697 1.54141e-23)
(0.0324497 -0.000580794 -2.51142e-23)
(0.0459399 -0.000527273 -1.1041e-22)
(0.0440749 -0.000591589 3.12841e-23)
(0.0360288 -0.00315098 -2.67952e-22)
(0.0270491 -0.00387405 1.72628e-22)
(0.128186 0.00196174 -4.22982e-22)
(0.127546 0.00146378 -3.93121e-22)
(0.134589 -0.020687 -3.82231e-24)
(0.133011 -0.0189609 1.4415e-22)
(0.0832504 0.00669141 7.03809e-22)
(0.102523 -0.000394998 2.40345e-22)
(0.00311874 0.00165324 -5.54334e-22)
(0.00909047 0.0037488 0)
(0.00838284 0.00334848 2.33797e-22)
(0.00293745 0.00151796 4.78087e-22)
(0.000374429 0.000233749 -3.98055e-22)
(0.000201723 0.00012775 -3.81408e-22)
(0.11017 -0.0425975 0)
(0.105388 -0.0255495 1.21387e-22)
(0.122245 -0.032966 -4.0511e-23)
(0.123801 -0.0436543 0)
(0.0901635 -0.0327703 -6.4572e-22)
(0.0936728 -0.0352275 -4.24609e-22)
(0.00191015 -0.0011433 1.10615e-21)
(0.00252269 -0.0020405 -3.48642e-22)
(0.00493313 -0.00319226 8.65001e-22)
(0.0849628 -0.0457394 0)
(0.0912786 -0.0395874 2.19288e-21)
(0.0806454 -0.0530212 5.92734e-22)
(0.114718 0.0121632 2.23785e-22)
(0.113391 0.00659824 -2.48709e-22)
(0.125718 0.0106251 -9.87887e-23)
(0.0047004 -0.00287195 -5.47532e-23)
(0.00636175 -0.00444135 4.63413e-22)
(0.0511878 -0.0312228 1.31613e-22)
(0.0332842 -0.020605 -2.61252e-22)
(0.00213665 -0.00060919 3.17898e-21)
(0.00520657 -0.00209982 -1.23915e-21)
(0.101269 0.0482585 1.74836e-23)
(0.0972599 0.0552333 -7.81506e-22)
(0.0808966 0.0540559 7.14473e-22)
(0.0473077 0.0345621 -2.73467e-21)
(0.0445363 0.0316608 1.93689e-21)
(0.0295566 0.0206331 -1.16432e-22)
(0.0327804 0.0232878 -6.52253e-22)
(0.0380293 0.0284009 8.84925e-22)
(0.004506 0.00279321 -5.55413e-23)
(0.00794446 0.00407884 -1.62042e-23)
(0.00326007 0.00205696 3.24715e-23)
(0.0019599 0.00167308 -4.32071e-22)
(0.00147341 0.00159841 5.28434e-22)
(0.0157721 0.0115629 -3.3129e-21)
(0.0175259 0.0136557 7.59856e-22)
(0.00887536 -0.00388541 0)
(0.101389 0.00516043 0)
(0.0984001 0.0156852 -4.00105e-21)
(0.0604365 0.0104758 1.97659e-21)
(0.0886752 0.0178824 0)
(0.13595 -0.00223373 0)
(0.135399 -0.00299675 0)
(0.133815 -0.0034516 -2.94815e-22)
(0.11501 0.0264213 -2.16512e-22)
(0.114107 0.0278369 2.13835e-21)
(0.1133 0.0253005 1.14745e-21)
(0.00234418 0.00132602 1.03088e-21)
(0.00154813 0.000793252 -1.15706e-21)
(0.0192586 -0.00561594 -5.3617e-22)
(0.0203847 -0.00515565 4.55199e-22)
(0.00922214 -0.00297217 8.98331e-22)
(0.00648179 0.011153 1.48947e-21)
(0.018983 0.0181661 3.48338e-21)
(0.0134782 0.0228135 2.72438e-22)
(0.00492534 0.0143141 -8.6877e-21)
(0.117297 0.0476886 5.74633e-23)
(0.108065 0.0581984 1.09528e-21)
(0.118558 0.0547947 -1.8891e-21)
(0.0391735 -0.0294668 7.42377e-22)
(0.0240588 -0.0172962 -4.76857e-22)
(0.00532498 -0.000746 -4.13257e-21)
(0.00454154 -0.00359801 0)
(0.0125045 -0.00167812 2.01902e-21)
(0.022006 -0.0161579 7.88502e-22)
(0.0343198 -0.0278274 -1.9843e-21)
(0.0435423 1.05173e-05 7.80744e-23)
(0.0462061 0.000177916 -5.49523e-23)
(0.0409642 0.000218301 -2.40485e-24)
(0.0280986 -0.0419992 0)
(0.0296465 -0.0428835 0)
(0.0896154 -0.018656 -4.72017e-22)
(0.0995829 -0.0220949 3.20224e-21)
(0.0870316 -0.0252796 0)
(0.0472044 -0.0402409 0)
(0.0582787 -0.0514347 -7.93932e-22)
(0.0413697 0.0393734 2.10746e-21)
(-5.21626e-06 0.000212011 4.94723e-22)
(-0.00020003 0.000128181 -3.23348e-22)
(0.022365 -0.0192704 -8.01935e-22)
(0.119214 -0.0156727 4.69469e-22)
(0.118573 -0.0157012 -9.00875e-23)
(0.116239 -0.00526724 -6.34631e-23)
(0.109251 0.00145001 8.45737e-23)
(0.118484 0.000278034 1.60985e-22)
(8.43654e-05 0.000260732 1.9214e-22)
(0.0438256 0.0344625 3.2512e-21)
(0.0619971 0.0463567 -8.00484e-22)
(0.0594531 0.0394246 -3.09971e-24)
(0.0286868 -0.00103745 7.16666e-24)
(0.0282708 -0.0010599 3.86685e-23)
(0.0306259 -0.000897238 1.84562e-24)
(0.0341373 -0.000803813 -1.90342e-23)
(0.0454938 0.0381299 1.34151e-22)
(0.0189911 0.0160788 0)
(0.000135581 -2.41796e-05 3.50706e-22)
(0.000422876 -0.000254069 -3.89127e-22)
(0.00188056 -0.0010176 2.69672e-22)
(0.036818 -0.00782873 -1.8215e-21)
(0.0652609 -0.00221627 -7.3977e-22)
(0.039504 -0.000386946 -2.31297e-24)
(0.0748619 -0.0075935 2.69464e-22)
(0.0710207 -0.0157369 5.01825e-23)
(0.0943711 0.0398618 2.17051e-21)
(0.0914831 0.0454057 9.91996e-23)
(0.0887884 0.0290491 1.22971e-21)
(0.0915161 0.0307602 -8.91159e-22)
(0.0987698 0.0410094 0)
(0.125788 -0.000850597 1.56036e-22)
(0.126524 -0.00131042 2.95822e-22)
(0.12799 -0.0118342 -3.06542e-22)
(0.129445 -0.0116032 5.25178e-22)
(0.117078 0.0239308 2.66138e-22)
(0.119141 0.0248095 -7.53963e-22)
(0.117134 0.0259508 0)
(0.115163 0.0247072 1.5652e-22)
(0.116716 0.0278848 0)
(0.117255 0.0359223 -5.62858e-22)
(0.115799 0.0379907 -3.06761e-22)
(0.111432 0.0418385 -5.50355e-22)
(0.113824 0.0399534 0)
(0.116534 0.0429214 1.82458e-21)
(0.113812 0.0448643 4.73937e-23)
(0.108429 0.0440667 -3.0862e-22)
(0.0997371 0.0502141 -1.30703e-21)
(0.0985061 0.0454258 -2.30162e-22)
(0.0255324 -0.00870862 4.73821e-23)
(0.0335572 -0.00963888 -1.89391e-23)
(0.00637622 -0.00252288 -6.71767e-22)
(0.0388534 -4.5163e-05 -5.1282e-23)
(0.0493391 -0.000303588 0)
(-5.89389e-06 -3.89765e-05 4.13281e-22)
(1.14138e-05 -4.6701e-05 2.11144e-22)
(0.0447712 -0.0021079 2.31571e-23)
(0.0525361 -0.00204695 9.03868e-24)
(0.0520036 -0.00138348 0)
(0.0433609 -0.000911032 1.01586e-23)
(0.103569 0.00357901 -1.34169e-22)
(0.103304 0.00320851 6.36489e-22)
(0.103916 0.00329185 2.99415e-22)
(0.00068932 0.000276817 3.8289e-22)
(-0.000159846 -0.000130795 -5.57743e-22)
(-0.000203369 -0.000172719 4.73169e-22)
(0.00153135 0.000634855 0)
(8.62892e-05 9.27133e-05 1.12859e-21)
(0.000180036 -3.52712e-05 -8.10203e-22)
(0.00753554 0.00371792 -9.82168e-22)
(0.00147758 0.000795375 -1.1772e-21)
(0.00174599 0.000873924 0)
(0.00157334 0.00754718 0)
(0.000577505 0.00328268 0)
(0.00031357 0.00197757 0)
(0.137015 -0.00231396 6.37378e-23)
(0.137918 -0.00219427 0)
(0.13641 -0.00315059 -7.40674e-23)
(0.0881336 -0.0148447 4.47207e-21)
(0.0901395 -0.0152515 -1.62345e-21)
(0.0890533 -0.012871 0)
(0.11267 9.91757e-05 -7.40261e-24)
(0.112883 9.09561e-05 1.48168e-23)
(0.112445 0.000108808 -5.02319e-24)
(0.113081 8.40769e-05 0)
(0.113268 7.98044e-05 -9.4107e-24)
(0.113441 7.40122e-05 0)
(0.113439 -0.000106144 0)
(0.113603 6.51251e-05 3.47838e-23)
(0.113598 -0.000106191 0)
(0.113267 -0.000110099 -9.47372e-24)
(0.113081 -0.000115867 0)
(0.112882 -0.000122169 4.95793e-24)
(0.112668 -0.000130154 -7.40605e-24)
(0.112443 -0.000137927 5.0169e-24)
(0.113752 5.65513e-05 -3.32852e-23)
(0.113748 -0.000104352 -1.16331e-24)
(0.112202 0.0001201 8.12732e-28)
(0.112199 -0.000144053 -7.69217e-24)
(0.111939 0.000131783 4.10129e-23)
(0.113891 5.06362e-05 3.10499e-26)
(0.11389 -9.99696e-05 -1.16079e-24)
(0.111938 -0.0001534 1.51875e-23)
(0.114023 4.47684e-05 3.12081e-23)
(0.114146 3.97803e-05 -3.11824e-23)
(0.114022 -9.60402e-05 2.3409e-24)
(0.114146 -9.20046e-05 4.61477e-24)
(0.111668 0.000149859 -3.99036e-23)
(0.111665 -0.000163677 -1.00035e-23)
(0.114261 3.47873e-05 0)
(0.114261 -8.84528e-05 -4.5517e-24)
(0.111373 0.000163695 4.95119e-27)
(0.11137 -0.000171826 -4.9636e-27)
(0.114369 3.05462e-05 0)
(0.114369 -8.48248e-05 0)
(0.111057 0.000176537 0)
(0.111054 -0.000182206 0)
(0.11447 2.62392e-05 0)
(0.11447 -8.1647e-05 2.1797e-24)
(0.110719 0.000190195 -2.08959e-23)
(0.110716 -0.000192546 -5.09351e-27)
(0.114564 2.26311e-05 1.14201e-25)
(0.114565 -7.83274e-05 -2.32786e-24)
(0.110359 0.000203563 2.09957e-23)
(0.110355 -0.000204391 0)
(0.114653 1.89689e-05 0)
(0.114653 -7.53242e-05 0)
(0.109976 0.00021789 -1.33367e-24)
(0.109972 -0.000215769 2.29162e-23)
(0.114736 1.58029e-05 1.40916e-23)
(0.114736 -7.21659e-05 0)
(0.109568 0.000231124 -1.45596e-25)
(0.109564 -0.000228416 -2.16914e-23)
(0.114813 1.24436e-05 -2.1073e-23)
(0.114814 -6.94066e-05 -6.11421e-24)
(0.109127 0.000239443 2.21761e-23)
(0.109124 -0.000241848 0)
(0.114886 9.58079e-06 6.93783e-24)
(0.114887 -6.61657e-05 4.07724e-24)
(0.10866 0.000252325 -1.12686e-23)
(0.108657 -0.00025845 2.28529e-23)
(0.114954 7.18379e-06 -2.76914e-23)
(0.114957 -6.18984e-05 3.12107e-23)
(0.108148 0.000254013 1.16542e-23)
(0.10815 -0.000278979 3.69405e-25)
(0.115019 5.1074e-06 0)
(0.115022 -5.836e-05 1.48712e-23)
(0.107603 0.000256357 -2.35132e-23)
(0.107609 -0.000306278 4.7042e-23)
(0.115083 2.68994e-06 0)
(0.115083 -5.62956e-05 0)
(0.108197 0.00078378 -1.15318e-23)
(0.107653 0.000818776 -4.68434e-23)
(0.107014 0.000253282 0)
(0.107029 -0.000344017 -2.40409e-23)
(0.109173 0.000709804 -7.20602e-24)
(0.108699 0.000747772 1.41631e-24)
(0.110016 0.000629732 0)
(0.109604 0.000669824 -2.31914e-23)
(0.110755 0.000552863 -4.4425e-26)
(0.110398 0.000590638 0)
(0.111404 0.000481576 0)
(0.11109 0.000516505 0)
(0.111975 0.000413135 0)
(0.111698 0.00044758 0)
(0.112467 0.000354506 9.91116e-24)
(0.112227 0.000382835 2.50574e-24)
(0.112901 0.000305796 -9.53853e-24)
(0.112693 0.000329007 -9.90758e-24)
(0.11328 0.000264468 1.68589e-23)
(0.113095 0.000282572 2.15958e-23)
(0.113614 0.000228976 0)
(0.113452 0.000247179 0)
(0.113903 0.000196507 -7.36611e-26)
(0.113764 0.000212204 0)
(0.114156 0.00016779 0)
(0.114034 0.000181661 0)
(0.114378 0.000142734 0)
(0.11427 0.000154811 0)
(0.114572 0.000120954 0)
(0.114478 0.000131464 0)
(0.114742 0.000101953 0)
(0.11466 0.000111113 0)
(0.114892 8.53567e-05 0)
(0.114819 9.33721e-05 0)
(0.115025 6.85948e-05 -1.13131e-23)
(0.11496 7.77658e-05 0)
(0.115086 6.09604e-05 -3.65402e-24)
(0.115141 -2.37063e-07 3.56438e-24)
(0.115142 -5.47213e-05 -3.53472e-24)
(0.114962 -0.000127872 0)
(0.115087 -0.000114406 -1.45098e-23)
(0.115026 -0.000120585 -7.47429e-24)
(0.11482 -0.000144042 2.0496e-24)
(0.114893 -0.000135831 -8.02022e-24)
(0.11466 -0.000160805 6.65113e-26)
(0.114742 -0.000152478 0)
(0.114477 -0.000178844 0)
(0.114571 -0.000169521 0)
(0.114269 -0.000199521 0)
(0.114377 -0.000188827 0)
(0.114031 -0.000223269 0)
(0.114154 -0.000210962 8.7998e-30)
(0.11376 -0.000250825 7.45456e-26)
(0.1139 -0.000236495 0)
(0.11345 -0.000281103 0)
(0.113609 -0.000265978 0)
(0.113095 -0.000314548 0)
(0.113278 -0.000297358 0)
(0.112687 -0.000355045 0)
(0.112898 -0.000333069 -5.00574e-24)
(0.112221 -0.000403779 1.3272e-24)
(0.112461 -0.000380308 -6.48235e-24)
(0.11169 -0.000461373 0)
(0.111966 -0.000430224 -5.29044e-24)
(0.111082 -0.000523738 0)
(0.111396 -0.000491743 0)
(0.110387 -0.000593729 0)
(0.110746 -0.000557694 0)
(0.109596 -0.000671485 0)
(0.110005 -0.000631677 0)
(0.108694 -0.000756951 -5.89514e-24)
(0.10916 -0.000712074 0)
(0.107669 -0.000861922 -2.40707e-23)
(0.108199 -0.00080437 -5.94618e-24)
(0.107097 -0.000926473 2.45773e-23)
(0.107071 0.000855396 4.65083e-23)
(0.115145 5.44295e-05 7.14657e-24)
(0.115145 -0.000108739 -1.39625e-23)
(0.106401 -0.000392466 0)
(0.106488 -0.00100507 0)
(0.10645 0.000892992 0)
(0.106385 0.000243545 0)
(0.108297 0.00130392 0)
(0.107202 0.00145388 1.16213e-23)
(0.107767 0.00137641 1.1706e-23)
(0.109258 0.00116014 1.48005e-23)
(0.108793 0.00123196 -2.96104e-24)
(0.11009 0.00102231 4.55049e-26)
(0.109688 0.00108989 0)
(0.110819 0.000896716 0)
(0.110466 0.000958008 0)
(0.111459 0.000783108 0)
(0.111149 0.000838434 0)
(0.11202 0.000681703 0)
(0.111748 0.000730708 0)
(0.112509 0.000591002 0)
(0.112272 0.000635505 0)
(0.112936 0.000513192 -3.9955e-26)
(0.112729 0.000551591 1.03232e-23)
(0.113308 0.000444245 -3.82256e-26)
(0.11313 0.000476595 -2.00869e-23)
(0.113637 0.000383146 0)
(0.113478 0.000412528 0)
(0.113923 0.000330711 3.67917e-26)
(0.113785 0.000355975 0)
(0.114174 0.000285182 0)
(0.114053 0.000307154 0)
(0.114393 0.000245577 0)
(0.114287 0.000264685 0)
(0.114585 0.00021115 0)
(0.114492 0.000227764 0)
(0.114753 0.000181182 0)
(0.114671 0.000195646 0)
(0.114901 0.000154888 0)
(0.114829 0.000167648 0)
(0.115033 0.000129835 7.72767e-24)
(0.114969 0.000142333 0)
(0.115196 -2.7317e-06 0)
(0.115199 4.86866e-05 6.9846e-24)
(0.115151 0.000107827 0)
(0.115093 0.000118331 7.52783e-24)
(0.115095 -0.000172456 1.49897e-23)
(0.115152 -0.000163051 3.68057e-24)
(0.115199 -0.000104138 2.87012e-23)
(0.115196 -5.2925e-05 0)
(0.11497 -0.000194372 0)
(0.115034 -0.000182894 -2.26297e-23)
(0.11483 -0.000218968 6.45646e-26)
(0.114902 -0.000206155 8.06901e-24)
(0.114671 -0.000245439 -6.65111e-26)
(0.114753 -0.00023186 0)
(0.114491 -0.000275337 0)
(0.114584 -0.000259883 0)
(0.114285 -0.000309675 0)
(0.114391 -0.000291912 0)
(0.11405 -0.00034919 0)
(0.114171 -0.000328733 -8.79978e-30)
(0.113781 -0.000394742 -1.49047e-25)
(0.11392 -0.000371161 0)
(0.113474 -0.000446929 0)
(0.113633 -0.000420007 0)
(0.113123 -0.000506728 2.52471e-24)
(0.113304 -0.000475754 0)
(0.112722 -0.000574412 0)
(0.112929 -0.00053857 -2.51417e-24)
(0.112262 -0.000654052 5.29737e-24)
(0.112498 -0.000613505 5.25178e-24)
(0.111736 -0.000744126 0)
(0.112008 -0.000697692 0)
(0.111135 -0.000846256 0)
(0.111445 -0.000793623 0)
(0.11045 -0.000961593 0)
(0.110803 -0.000902209 0)
(0.109669 -0.00109115 0)
(0.110072 -0.00102453 0)
(0.108782 -0.0012359 9.45436e-26)
(0.109239 -0.00116148 0)
(0.107776 -0.00139682 -9.64362e-26)
(0.108295 -0.00131432 0)
(0.10663 -0.00159644 -2.53372e-23)
(0.107221 -0.00149244 2.53256e-23)
(0.1066 0.00153369 2.37732e-23)
(0.10584 -0.00109566 0)
(0.105999 -0.00171603 -5.18557e-23)
(0.105742 -0.000447104 0)
(0.115204 9.93178e-05 0)
(0.115206 -0.000154233 -3.57055e-24)
(0.105793 0.000932777 6.05308e-23)
(0.105961 0.00161715 2.42438e-23)
(0.105149 -0.00119192 1.31288e-23)
(0.105329 -0.00184574 6.55506e-23)
(0.105715 0.000231601 0)
(0.11516 0.000162168 2.94466e-23)
(0.115213 0.000149281 -1.45438e-23)
(0.11525 -9.94906e-05 -7.0662e-24)
(0.115256 -0.000145885 3.51334e-23)
(0.106216 0.00227968 8.46808e-23)
(0.105275 0.00170527 -4.76781e-23)
(0.104838 0.00255123 -2.15147e-22)
(0.105547 0.0024071 -4.84101e-23)
(0.107405 0.00203603 2.34277e-23)
(0.106828 0.00215664 -7.19323e-23)
(0.108455 0.00180783 -2.38955e-23)
(0.107947 0.00192009 -1.8109e-23)
(0.109386 0.00159833 -5.91772e-24)
(0.108936 0.00170189 -5.93792e-24)
(0.110199 0.00140736 -4.55049e-26)
(0.109807 0.00150059 0)
(0.110912 0.00123439 0)
(0.110567 0.00131864 0)
(0.111538 0.00107907 0)
(0.111235 0.00115458 0)
(0.112086 0.00094073 0)
(0.111821 0.00100781 0)
(0.112566 0.000818695 0)
(0.112334 0.000877728 0)
(0.112984 0.00071129 0)
(0.112782 0.000763331 0)
(0.113351 0.000617367 2.67581e-29)
(0.113174 0.000662812 0)
(0.113672 0.00053477 0)
(0.113516 0.000574613 0)
(0.113953 0.000463194 3.67574e-26)
(0.113817 0.000497704 0)
(0.114199 0.000401091 0)
(0.11408 0.000431053 0)
(0.114414 0.00034714 0)
(0.11431 0.000373171 0)
(0.114603 0.000300259 0)
(0.114512 0.000322882 0)
(0.114769 0.000259475 0)
(0.114689 0.000279166 0)
(0.114915 0.000223735 0)
(0.114845 0.000241065 0)
(0.115045 0.000191075 3.93846e-24)
(0.114982 0.000207015 -1.98199e-24)
(0.115104 0.00017616 -1.50223e-23)
(0.115247 -4.26842e-06 -3.34599e-24)
(0.115255 9.09427e-05 1.39937e-23)
(0.115249 4.33184e-05 -1.06977e-23)
(0.115247 -5.17084e-05 0)
(0.115105 -0.000230409 -1.11581e-23)
(0.115214 -0.000204288 -3.2196e-23)
(0.115161 -0.000216987 2.59333e-23)
(0.114983 -0.000260549 0)
(0.115046 -0.000244893 0)
(0.114845 -0.000292659 -1.87313e-29)
(0.114916 -0.000275807 0)
(0.114689 -0.000329123 0)
(0.114769 -0.000310329 0)
(0.114511 -0.000370718 -6.84341e-26)
(0.114602 -0.000349214 0)
(0.114308 -0.000418495 0)
(0.114412 -0.00039378 0)
(0.114076 -0.000473448 0)
(0.114196 -0.000445014 0)
(0.113812 -0.000536667 7.45121e-26)
(0.113949 -0.000503963 0)
(0.11351 -0.000609205 7.65575e-26)
(0.113666 -0.000571704 0)
(0.113165 -0.000692589 0)
(0.113344 -0.000649435 0)
(0.112771 -0.000788052 0)
(0.112975 -0.000738696 0)
(0.11232 -0.000897527 0)
(0.112552 -0.00084103 0)
(0.111804 -0.001022 0)
(0.11207 -0.0009577 0)
(0.111215 -0.00116344 -8.74802e-26)
(0.111519 -0.00109054 0)
(0.110544 -0.00132313 0)
(0.11089 -0.00124094 0)
(0.10978 -0.00150237 0)
(0.110174 -0.00141025 0)
(0.108913 -0.00170213 -9.63917e-29)
(0.10936 -0.00159963 0)
(0.107933 -0.00192289 1.18336e-28)
(0.108438 -0.00180989 0)
(0.106826 -0.00217258 1.0031e-25)
(0.107395 -0.00204208 0)
(0.105572 -0.0024719 -5.31696e-23)
(0.106217 -0.00231517 1.30133e-23)
(0.104622 -0.00197906 1.33999e-23)
(0.104897 -0.00263909 2.65322e-23)
(0.105097 0.000969231 -2.36223e-23)
(0.105038 -0.000507917 -2.54375e-23)
(0.115263 0.000137779 3.56127e-24)
(0.115264 -0.000193164 2.53035e-23)
(0.104525 0.00178266 2.93734e-24)
(0.104418 -0.00129879 0)
(0.103943 0.00260347 3.30079e-22)
(0.104188 -0.00281156 4.11583e-23)
(0.103886 -0.00211942 5.4919e-23)
(0.104325 0.00364622 -5.50651e-22)
(0.103822 0.0038935 9.99501e-23)
(0.105021 0.000220908 0)
(0.105333 0.00326161 5.45581e-23)
(0.104776 0.00347398 2.82262e-23)
(0.106541 0.00290859 4.90673e-23)
(0.105929 0.00307613 -7.49999e-23)
(0.107669 0.00258923 -2.42785e-23)
(0.107122 0.00274778 -1.21509e-23)
(0.10867 0.00229447 1.21134e-23)
(0.108184 0.00243808 1.2327e-23)
(0.109559 0.0020248 0)
(0.109127 0.00215633 -3.27768e-26)
(0.110344 0.00178169 0)
(0.109964 0.00190013 0)
(0.111034 0.00156296 4.42641e-26)
(0.1107 0.00166937 0)
(0.11164 0.00136726 0)
(0.111347 0.00146233 0)
(0.112173 0.00119323 0)
(0.111915 0.00127762 0)
(0.112639 0.00103963 0)
(0.112413 0.001114 0)
(0.113047 0.000904605 3.98573e-26)
(0.11285 0.000969933 0)
(0.113404 0.000786347 2.93356e-29)
(0.113232 0.000843515 0)
(0.113717 0.000682907 0)
(0.113566 0.000732865 0)
(0.113992 0.000592875 -7.34906e-26)
(0.113859 0.000636319 0)
(0.114232 0.000514663 0)
(0.114116 0.000552399 0)
(0.114443 0.000446722 0)
(0.114341 0.000479505 0)
(0.114628 0.000387684 0)
(0.114538 0.000416175 0)
(0.114791 0.000336333 0)
(0.114712 0.000361124 0)
(0.114934 0.000291454 0)
(0.114864 0.00031318 0)
(0.11506 0.000251614 -1.96722e-24)
(0.114999 0.000270753 0)
(0.115173 0.00021613 0)
(0.115118 0.000233336 -3.81495e-24)
(0.115273 0.000184393 7.22774e-28)
(0.115225 0.00019972 0)
(0.115302 8.32075e-05 -1.41881e-23)
(0.115319 0.000170934 8.56725e-25)
(0.11531 0.000127574 6.94861e-24)
(0.115294 -5.8329e-06 5.10288e-24)
(0.115297 3.85799e-05 -3.5223e-24)
(0.115298 -9.52601e-05 -1.77316e-24)
(0.115295 -5.04905e-05 1.77017e-24)
(0.115311 -0.000183476 0)
(0.115303 -0.000139146 -1.6104e-23)
(0.115226 -0.000254949 -7.24079e-24)
(0.115321 -0.000228 -1.38476e-23)
(0.115275 -0.00024068 3.18483e-23)
(0.11512 -0.00028752 -3.80045e-24)
(0.115175 -0.000270682 0)
(0.115 -0.000324496 0)
(0.115062 -0.000305391 0)
(0.114865 -0.000365119 -2.50279e-29)
(0.114934 -0.000344194 0)
(0.114711 -0.000411414 0)
(0.11479 -0.000387502 0)
(0.114537 -0.000464439 6.84341e-26)
(0.114627 -0.00043702 0)
(0.114338 -0.000525356 0)
(0.114441 -0.000493846 0)
(0.114111 -0.000595387 0)
(0.114228 -0.00055916 0)
(0.113853 -0.000675888 0)
(0.113986 -0.00063425 0)
(0.113558 -0.000768325 -4.77613e-29)
(0.11371 -0.000720526 0)
(0.113221 -0.000874454 0)
(0.113395 -0.000819577 0)
(0.112836 -0.000996043 0)
(0.113035 -0.000933189 0)
(0.112396 -0.00113511 0)
(0.112623 -0.00106332 0)
(0.111894 -0.00129342 0)
(0.112153 -0.00121171 0)
(0.111321 -0.00147302 8.74802e-26)
(0.111617 -0.00138047 0)
(0.110669 -0.00167562 0)
(0.111005 -0.00157136 0)
(0.109928 -0.00190278 0)
(0.11031 -0.00178606 0)
(0.109088 -0.00215564 -9.44382e-26)
(0.109521 -0.00202595 0)
(0.10814 -0.00243471 9.68012e-26)
(0.108629 -0.00229191 0)
(0.107073 -0.00274116 -9.91761e-26)
(0.107622 -0.00258439 0)
(0.105879 -0.00308355 1.30981e-23)
(0.106492 -0.00290516 -2.58172e-23)
(0.104559 -0.00347562 -1.32569e-23)
(0.105233 -0.00327317 2.69839e-23)
(0.10344 -0.00298826 5.87462e-25)
(0.103847 -0.00368383 2.74194e-23)
(0.104356 0.000992065 -2.44378e-23)
(0.104303 -0.00056111 0)
(0.103752 0.00182063 -2.36786e-22)
(0.103657 -0.00139093 0)
(0.115287 0.000231954 -3.56139e-24)
(0.115332 0.000215261 2.60909e-24)
(0.115354 -0.000174275 -1.36093e-23)
(0.115364 -0.000215436 -1.54225e-23)
(0.103112 0.00259713 -2.32658e-22)
(0.10311 -0.00226351 -5.54563e-23)
(0.103151 0.00390136 0)
(0.104739 0.00431333 -6.40812e-23)
(0.102658 -0.00317112 -2.72082e-23)
(0.103098 -0.00389604 4.17149e-23)
(0.104091 0.00446177 1.28294e-22)
(0.104284 0.000208338 0)
(0.105809 0.00389391 0)
(0.105271 0.0041111 -5.6759e-23)
(0.106926 0.00348961 0)
(0.106367 0.0036901 0)
(0.107981 0.00310597 0)
(0.107466 0.00329375 1.25885e-23)
(0.108926 0.00275443 0)
(0.108466 0.00292642 0)
(0.10977 0.0024328 0)
(0.10936 0.00258978 0)
(0.11052 0.00214176 0)
(0.110157 0.00228358 0)
(0.111182 0.00187992 -4.42641e-26)
(0.110862 0.00200729 0)
(0.111766 0.00164578 0)
(0.111483 0.00175951 0)
(0.112278 0.00143767 0)
(0.11203 0.0015386 0)
(0.112729 0.00125384 0)
(0.112511 0.00134286 0)
(0.113123 0.00109223 -3.87714e-29)
(0.112933 0.00117041 0)
(0.11347 0.00095068 3.49067e-29)
(0.113302 0.00101909 0)
(0.113773 0.000826969 0)
(0.113626 0.00088673 0)
(0.114039 0.000719167 2.89698e-29)
(0.11391 0.000771206 0)
(0.114273 0.000625413 0)
(0.11416 0.000670658 0)
(0.114478 0.000543925 0)
(0.114379 0.000583249 0)
(0.114658 0.00047309 0)
(0.114571 0.000507276 0)
(0.114817 0.000411476 0)
(0.11474 0.00044122 0)
(0.114956 0.000357766 0)
(0.114889 0.000383719 0)
(0.11508 0.000310748 0)
(0.11502 0.000333506 0)
(0.115189 0.000268629 3.78433e-24)
(0.115136 0.000288779 3.87288e-24)
(0.11524 0.000249431 -7.26023e-24)
(0.115346 7.62423e-05 -6.95977e-24)
(0.115363 0.000158953 0)
(0.115353 0.000117844 -7.02971e-24)
(0.115339 -7.30292e-06 0)
(0.115341 3.4712e-05 7.1029e-24)
(0.115342 -9.16382e-05 1.06024e-23)
(0.115339 -4.95921e-05 -3.58331e-24)
(0.115347 -0.000132787 -2.08395e-23)
(0.115241 -0.000304944 3.65029e-24)
(0.115334 -0.000270505 1.35767e-23)
(0.115289 -0.000288095 0)
(0.115138 -0.000343525 -7.56542e-24)
(0.115191 -0.000323651 7.59041e-24)
(0.115021 -0.000387049 0)
(0.115081 -0.000364833 0)
(0.114889 -0.000435969 -3.10282e-29)
(0.114957 -0.000410717 0)
(0.114739 -0.000491897 0)
(0.114816 -0.000462992 0)
(0.114569 -0.00055604 0)
(0.114657 -0.000522871 0)
(0.114375 -0.000629719 0)
(0.114475 -0.000591611 0)
(0.114155 -0.000714384 0)
(0.114269 -0.000670592 0)
(0.113903 -0.000811656 7.43839e-26)
(0.114033 -0.000761348 0)
(0.113617 -0.000923346 -7.65097e-26)
(0.113765 -0.000865591 0)
(0.11329 -0.00105149 0)
(0.113458 -0.000985244 0)
(0.112916 -0.00119823 0)
(0.113109 -0.0011224 0)
(0.11249 -0.00136585 0)
(0.11271 -0.00127932 0)
(0.112005 -0.00155661 0)
(0.112255 -0.0014582 0)
(0.111452 -0.00177276 0)
(0.111737 -0.0016614 0)
(0.110824 -0.00201636 0)
(0.111148 -0.00189103 0)
(0.110111 -0.00228914 -9.18563e-26)
(0.110478 -0.00214903 0)
(0.109305 -0.00259237 9.4171e-26)
(0.10972 -0.00243691 0)
(0.108398 -0.00292665 -9.6496e-26)
(0.108865 -0.00275564 0)
(0.107379 -0.00329209 0)
(0.107903 -0.00310551 0)
(0.106244 -0.00368816 0)
(0.106826 -0.00348622 0)
(0.10499 -0.00411667 1.04686e-25)
(0.105634 -0.00389694 1.32502e-23)
(0.103609 -0.00458747 -6.97609e-23)
(0.104314 -0.00434641 0)
(0.102317 -0.00412371 -4.1334e-23)
(0.10287 -0.00483847 -5.6602e-25)
(0.103585 0.00100953 7.65629e-23)
(0.103531 -0.000611095 0)
(0.115374 0.000199573 -1.35499e-23)
(0.115376 -0.000255788 -2.61569e-23)
(0.102895 0.00182666 -4.081e-23)
(0.102615 0.00343298 5.9124e-25)
(0.102262 0.00261465 1.1766e-22)
(0.102868 -0.00147792 0)
(0.102298 -0.00239428 1.39817e-23)
(0.10325 0.00457608 -1.18239e-22)
(0.10248 0.00460455 1.02719e-22)
(0.101978 0.00369153 -1.00965e-22)
(0.101838 -0.00334914 -4.19859e-23)
(0.1015 -0.00434573 2.81325e-23)
(0.102101 -0.00510659 2.74303e-23)
(0.103507 0.000193453 0)
(0.105178 0.00492483 3.56608e-24)
(0.103746 0.00534799 -4.944e-25)
(0.104489 0.00512941 2.77381e-23)
(0.106291 0.00447454 2.72907e-23)
(0.105754 0.00470195 -2.74325e-23)
(0.107345 0.00402077 4.98572e-26)
(0.10682 0.00424686 0)
(0.108329 0.00358903 0)
(0.107849 0.00380113 0)
(0.109218 0.00318825 0)
(0.108785 0.0033847 0)
(0.110015 0.00281989 0)
(0.109627 0.00299992 0)
(0.110726 0.002485 4.52649e-26)
(0.110381 0.00264829 0)
(0.111355 0.00218309 0)
(0.11105 0.00233001 0)
(0.111912 0.00191286 0)
(0.111642 0.00204414 0)
(0.112402 0.00167255 0)
(0.112165 0.0017891 0)
(0.112834 0.00146009 0)
(0.112625 0.00156299 0)
(0.113213 0.0012732 -3.98186e-26)
(0.113029 0.00136362 0)
(0.113546 0.00110943 4.06752e-29)
(0.113385 0.00118859 0)
(0.113838 0.000966287 0)
(0.113697 0.00103544 0)
(0.114095 0.000841469 7.33749e-26)
(0.113971 0.000901737 0)
(0.114321 0.000732812 0)
(0.114212 0.00078526 0)
(0.114519 0.000638297 0)
(0.114423 0.000683915 0)
(0.114694 0.000556092 0)
(0.114609 0.000595771 0)
(0.114848 0.000484565 0)
(0.114773 0.000519096 0)
(0.114983 0.000422252 0)
(0.114917 0.000452349 0)
(0.115103 0.000367833 6.16786e-26)
(0.115045 0.000394141 0)
(0.115209 0.00031973 -3.80086e-24)
(0.115158 0.000343182 0)
(0.115304 0.000276497 3.61434e-24)
(0.115258 0.000297438 0)
(0.115389 0.000238691 3.44832e-24)
(0.115347 0.00025705 -3.5263e-24)
(0.115403 0.000147486 6.81489e-24)
(0.115427 0.0002216 0)
(0.115414 0.000185605 1.01447e-23)
(0.115387 7.02397e-05 0)
(0.115394 0.000108885 0)
(0.11538 -8.74253e-06 0)
(0.115382 3.09987e-05 0)
(0.115383 -8.8294e-05 0)
(0.11538 -4.86293e-05 0)
(0.115395 -0.00016601 1.38702e-23)
(0.115388 -0.000127266 3.44655e-24)
(0.115415 -0.000242263 3.4106e-24)
(0.115404 -0.000204345 2.7183e-23)
(0.115349 -0.000313525 1.7716e-23)
(0.115429 -0.000279866 3.3954e-24)
(0.11539 -0.000295876 -6.89837e-24)
(0.11526 -0.000353231 3.64192e-24)
(0.115306 -0.00033269 -2.18319e-23)
(0.115159 -0.000397992 -2.59746e-29)
(0.115211 -0.0003749 0)
(0.115046 -0.000447916 0)
(0.115104 -0.00042214 0)
(0.114918 -0.000504922 -3.69815e-29)
(0.114984 -0.000475471 0)
(0.114772 -0.000570202 0)
(0.114847 -0.000536457 0)
(0.114607 -0.000645094 0)
(0.114693 -0.000606367 0)
(0.11442 -0.00073109 0)
(0.114517 -0.000686615 0)
(0.114206 -0.000829857 0)
(0.114316 -0.000778777 0)
(0.113963 -0.000943274 -1.48705e-25)
(0.114089 -0.000884622 0)
(0.113686 -0.00107344 0)
(0.113829 -0.00100614 0)
(0.113371 -0.00122266 0)
(0.113533 -0.00114553 0)
(0.113011 -0.00139342 0)
(0.113197 -0.00130521 0)
(0.112602 -0.00158828 0)
(0.112813 -0.0014877 0)
(0.112136 -0.00180985 -8.49498e-26)
(0.112376 -0.00169559 0)
(0.111607 -0.00206064 0)
(0.11188 -0.00193146 0)
(0.111006 -0.00234293 0)
(0.111316 -0.00219774 0)
(0.110327 -0.00265861 9.18563e-26)
(0.110677 -0.00249653 0)
(0.109561 -0.00300897 -1.70875e-28)
(0.109955 -0.00282943 0)
(0.1087 -0.00339451 1.928e-25)
(0.109143 -0.00319737 0)
(0.107738 -0.00381477 0)
(0.108232 -0.00360041 0)
(0.106668 -0.00426785 0)
(0.107216 -0.00403735 0)
(0.105486 -0.00474923 -2.89172e-28)
(0.106091 -0.00450539 0)
(0.104189 -0.0052565 0)
(0.104851 -0.00499979 0)
(0.102779 -0.00581034 -4.16681e-23)
(0.103498 -0.00552675 0)
(0.1013 -0.00537125 -5.21826e-25)
(0.102031 -0.00610753 7.09744e-23)
(0.102747 0.00101224 0)
(0.103013 0.00548889 1.61343e-22)
(0.102027 0.00182863 2.79605e-23)
(0.115405 0.000277441 -3.44184e-24)
(0.115442 0.00025874 0)
(0.115453 -0.000230017 3.32287e-24)
(0.115465 -0.000264592 -6.58785e-24)
(0.102725 -0.000659978 0)
(0.102039 -0.00156353 0)
(0.101476 0.00276613 0)
(0.101451 -0.00252202 -1.37708e-23)
(0.10098 -0.00353299 -2.78387e-23)
(0.100646 -0.00457804 0)
(0.100465 -0.00563853 7.18989e-23)
(0.101252 -0.00640168 -5.72612e-23)
(0.102686 0.000175675 0)
(0.104372 0.00604151 -1.3339e-26)
(0.102199 0.00561716 5.10273e-23)
(0.102946 0.00647831 -1.82171e-22)
(0.103675 0.00627001 5.30121e-23)
(0.105686 0.0055179 -1.71901e-23)
(0.10504 0.00577107 -2.75018e-23)
(0.10679 0.00501677 0)
(0.106261 0.00526795 0)
(0.107789 0.00451742 -4.98527e-26)
(0.107295 0.00476552 0)
(0.108708 0.00404118 0)
(0.10826 0.00427578 0)
(0.10954 0.00359567 0)
(0.109135 0.00381431 0)
(0.110288 0.00318457 0)
(0.109924 0.00338569 0)
(0.110956 0.00280956 -4.52649e-26)
(0.110632 0.00299254 0)
(0.11155 0.0024707 0)
(0.111262 0.00263567 0)
(0.112077 0.00216695 0)
(0.111822 0.00231455 0)
(0.112542 0.00189654 0)
(0.112317 0.00202772 0)
(0.112953 0.00165726 0)
(0.112754 0.00177318 0)
(0.113314 0.00144657 3.97226e-26)
(0.113139 0.00154852 0)
(0.113633 0.00126179 4.61686e-29)
(0.113479 0.00135113 0)
(0.113913 0.00110021 0)
(0.113777 0.00117828 0)
(0.114159 0.000959204 -3.80737e-29)
(0.11404 0.0010273 0)