/*--------------------------------*- C++ -*----------------------------------*\
  =========                 |
  \\      /  F ield         | OpenFOAM: The Open Source CFD Toolbox
   \\    /   O peration     | Website:  https://openfoam.org
    \\  /    A nd           | Version:  10
     \\/     M anipulation  |
\*---------------------------------------------------------------------------*/
FoamFile
{
    format      ascii;
    class       volScalarField;
    location    "2.5";
    object      p;
}
// * * * * * * * * * * * * * * * * * * * * * * * * * * * * * * * * * * * * * //

dimensions      [0 2 -2 0 0 0 0];

internalField   nonuniform List<scalar> 
33313
(
-0.00775318
-0.00950629
0.00495144
-0.00315214
0.00265976
0.00474778
0.00700136
0.0135033
0.0110665
-0.0045999
-0.00246248
-0.490815
-0.494883
-0.495609
-0.0107144
-0.0279802
-0.00746799
-0.311134
-0.429853
-0.360321
-0.255544
0.794652
0.714495
0.86017
0.862529
0.23437
0.239527
0.241758
0.237559
0.228667
0.24024
0.257376
0.272119
-0.559065
-0.579581
-0.568455
-0.543795
0.0410605
0.037134
-0.258664
-0.236514
0.291986
0.278352
-0.552627
-0.482218
-0.510362
0.752231
0.831359
-0.0206659
-0.0198486
0.237143
0.265634
0.26056
0.307457
0.143503
0.170356
0.423918
0.548555
0.445943
0.351071
0.438897
0.85255
0.92007
0.949763
-0.0368739
-0.0678048
-0.081079
-0.135922
-0.133972
-0.32912
-0.223405
-0.220663
-0.496358
-0.296344
-0.466417
-0.53623
-0.618791
-0.597211
-0.152836
-0.20976
0.564905
0.553951
0.576148
-0.371402
-0.403299
-0.442171
-0.555704
-0.537542
-0.533415
0.938093
-0.585556
-0.644649
-0.544008
-0.511975
-0.510218
0.225188
0.214554
0.00131807
-0.00301906
-0.228988
-0.214449
-0.289156
-0.326118
-0.332109
-0.37187
-0.583295
-0.631574
-0.617192
-0.579055
-0.100917
0.099531
0.0380934
-0.106293
-0.80573
-0.930355
-0.739311
0.925763
0.884627
-0.314254
-0.296873
-0.516558
-0.531575
-0.526449
-0.035136
-0.028529
-0.0568592
0.340698
0.0325219
0.0353272
-0.634564
-0.595104
-0.484994
-0.495984
0.0995948
0.0806317
-0.0538974
0.0237203
-0.132538
-0.0410982
0.187559
0.0720103
0.307811
0.0329774
0.0311611
0.0295543
0.0734449
0.0701856
0.0691203
0.0664779
0.31793
0.298579
0.328346
0.312988
0.444011
0.448731
0.418903
0.42305
-0.55799
-0.385284
-0.44084
-0.505618
0.0908532
0.132483
0.263475
0.149948
-0.417923
-0.456517
-0.467834
-0.550489
-0.00657301
-0.00549968
0.0867677
0.0856922
0.0900277
0.0886399
0.23424
0.217794
-0.637874
-0.636408
0.0721038
0.0723073
0.0627066
0.0597627
0.162524
0.1638
-0.246718
-0.1937
-0.606818
-0.558029
-0.625831
-0.37122
0.552321
0.527327
-0.505097
-0.434538
0.430052
0.449165
0.451042
0.361407
0.380834
0.368137
0.574646
0.551115
0.189465
0.195262
-0.498617
-0.476051
-0.211025
-0.334068
0.208599
0.203693
-0.00190743
0.000826825
-0.00133614
-0.00317817
-0.0154329
-0.397436
-0.443411
0.35927
0.362818
0.342902
0.337623
-0.268064
-0.263211
-0.238614
0.187389
0.208731
0.18004
-0.506362
-0.506053
-0.506222
-0.14783
-0.106065
0.0885928
0.0917374
0.0902832
-0.596796
0.252456
0.051772
0.051044
0.0503326
0.0497074
0.0490419
0.0483971
0.0477404
0.0470853
0.0464389
0.0458004
0.0451696
0.0445445
0.0439257
0.0433124
0.042705
0.0421027
0.0415059
0.0409136
0.0403266
0.0397439
0.0391661
0.0385923
0.0380236
0.0374591
0.0369008
0.0363483
0.0358058
0.0352471
0.0347119
0.0341394
0.0335848
0.033038
0.051825
0.0525951
0.0525714
0.0525042
0.0319451
0.0324802
0.0336067
0.0325113
0.0330655
0.0346923
0.034141
0.0358192
0.0352585
0.0369336
0.0363757
0.0380606
0.0374949
0.0392048
0.0386304
0.0403666
0.0397834
0.041547
0.0409543
0.0427472
0.0421444
0.0439689
0.0433552
0.0452137
0.0445882
0.0464828
0.0458452
0.047776
0.0471258
0.0491256
0.0484396
0.0504352
0.0497697
0.0510925
0.0532711
0.0532885
0.031993
0.0532224
0.031469
0.0314327
0.0539598
0.0539749
0.0314912
0.0319643
0.0539384
0.0314248
0.0546989
0.0546566
0.0546621
0.0524199
0.0538948
0.053155
0.0510482
0.0517145
0.0496689
0.050368
0.048339
0.0489995
0.0470253
0.0476797
0.0457417
0.0463791
0.0444876
0.0451113
0.0432579
0.0438697
0.0420507
0.0426515
0.0408641
0.0414548
0.0396967
0.040278
0.0385469
0.0391196
0.0374131
0.0379781
0.0362891
0.0368508
0.0351897
0.0357236
0.0341147
0.0346472
0.0330265
0.0335706
0.0324951
0.0309692
0.0308941
0.0309341
0.0325745
0.0315105
0.0320547
0.0336204
0.0330858
0.0347092
0.0341699
0.0358236
0.0352629
0.0369427
0.0363824
0.0380721
0.0375057
0.0392171
0.0386425
0.0403793
0.0397959
0.0415599
0.0409672
0.0427605
0.0421577
0.0439824
0.0433687
0.0452275
0.0446019
0.0464972
0.0458594
0.0477897
0.0471403
0.0491312
0.0484513
0.0504985
0.0498167
0.0518271
0.0511615
0.0532831
0.0525526
0.0547322
0.0540179
0.0309813
0.0546371
0.0554282
0.055467
0.0303892
0.0308711
0.0303615
0.0553831
0.0315185
0.0309795
0.0309839
0.0553795
0.0553974
0.0538478
0.055339
0.0545931
0.0523805
0.0530993
0.0510228
0.0516973
0.0496327
0.0503337
0.0482897
0.0489519
0.0469846
0.0476347
0.0457052
0.0463413
0.0444534
0.0450762
0.0432257
0.0438367
0.0420201
0.0426203
0.040835
0.0414251
0.0396688
0.0402497
0.0385199
0.0390923
0.0373863
0.0379515
0.0362645
0.0368243
0.0351669
0.0357082
0.0340909
0.0346214
0.0330148
0.0335506
0.0319459
0.0324805
0.0314025
0.0304468
0.0304211
0.0304601
0.0304604
0.0325901
0.0320614
0.0336404
0.0331152
0.034727
0.0341799
0.0358304
0.0352757
0.0369485
0.0363881
0.0380787
0.0375119
0.0392239
0.0386493
0.040386
0.0398028
0.0415666
0.040974
0.0427668
0.0421642
0.0439884
0.0433749
0.045233
0.0446077
0.0465026
0.0458647
0.0477966
0.0471464
0.0491272
0.0484558
0.0505041
0.049812
0.0518783
0.0511939
0.0533001
0.0525761
0.0547688
0.0540335
0.0562067
0.0562474
0.0555033
0.0561283
0.0560937
0.0561358
0.056182
0.0304616
0.0570001
0.0569689
0.0298857
0.0298536
0.0308519
0.056885
0.0568576
0.0303358
0.0561512
0.0552788
0.0567985
0.0560291
0.0537875
0.0545319
0.0523464
0.0530616
0.0509667
0.0516539
0.0495772
0.0502727
0.0482399
0.0489009
0.0469396
0.0475871
0.0456632
0.046298
0.0444138
0.0450354
0.0431884
0.0437983
0.0419848
0.042584
0.0408016
0.0413908
0.0396371
0.0402172
0.0384897
0.0390614
0.0373579
0.037922
0.0362409
0.0367975
0.0351436
0.0356893
0.0340629
0.0346017
0.0329871
0.0335235
0.0319197
0.0324554
0.0313853
0.0299306
0.0299113
0.0299445
0.0299427
0.0315233
0.03047
0.0309906
0.0325898
0.0320577
0.0336549
0.0331222
0.0347354
0.03419
0.0358366
0.0352841
0.0369525
0.0363928
0.0380824
0.0375157
0.0392274
0.0386529
0.0403892
0.0398062
0.0415692
0.0409769
0.0427689
0.0421665
0.0439896
0.0433765
0.0452334
0.0446085
0.046502
0.0458645
0.047797
0.047146
0.0491236
0.0484558
0.0504907
0.0498021
0.0518863
0.0511864
0.0533103
0.0525929
0.0547842
0.0540451
0.0562775
0.0555281
0.0577796
0.0577941
0.0570247
0.0299462
0.0576174
0.0575706
0.0568966
0.0569468
0.0298235
0.0585873
0.0578182
0.0586033
0.0576469
0.0577411
0.0585694
0.0583899
0.0304723
0.0299493
0.0299516
0.05835
0.0569284
0.0567172
0.0583004
0.0574983
0.0552027
0.0559538
0.0537233
0.054458
0.0522874
0.0530015
0.0508903
0.0515852
0.0495157
0.0501997
0.0481839
0.0488441
0.046886
0.0475319
0.0456134
0.0462464
0.0443671
0.0449871
0.0431445
0.043753
0.0419436
0.0425415
0.0407627
0.0413508
0.0396003
0.0401793
0.0384549
0.0390256
0.0373254
0.0378882
0.0362115
0.0367664
0.0351139
0.0356605
0.0340309
0.0345711
0.0329577
0.0334931
0.0318949
0.0324244
0.0308371
0.0313627
0.0297965
0.0303148
0.0293797
0.0293195
0.0293507
0.0294249
0.0294048
0.0294359
0.0294341
0.0294312
0.0294356
0.0315279
0.0309973
0.032588
0.0320565
0.0336572
0.0331217
0.0347388
0.0341953
0.0358387
0.035287
0.0369532
0.0363942
0.0380823
0.0375159
0.0392268
0.0386526
0.0403879
0.0398052
0.041567
0.0409752
0.0427656
0.0421639
0.0439852
0.0433727
0.0452275
0.0446034
0.0464945
0.0458578
0.0477886
0.0471379
0.0491134
0.048447
0.0504723
0.0497884
0.0518678
0.0511653
0.0533021
0.0525801
0.0547746
0.0540353
0.0562796
0.0555243
0.0570483
0.0593958
0.0594097
0.0292857
0.0591543
0.0590847
0.0576793
0.057734
0.029434
0.0584287
0.0585458
0.0591968
0.0593821
0.0602348
0.0602202
0.0599536
0.0297725
0.0292583
0.0598844
0.0577132
0.0581937
0.0598116
0.0589934
0.0566278
0.0574048
0.0551149
0.0558648
0.0536423
0.0543759
0.0522045
0.0529184
0.0508083
0.0515015
0.0494465
0.0501235
0.0481196
0.0487785
0.046825
0.0474689
0.0455569
0.0461877
0.0443144
0.0449326
0.0430952
0.043702
0.0418973
0.0424937
0.0407191
0.0413058
0.0395591
0.040137
0.0384161
0.0389856
0.0372889
0.0378506
0.036177
0.0367311
0.0350802
0.0356267
0.0339974
0.0345372
0.0329257
0.0334604
0.0318644
0.0323938
0.030817
0.0313365
0.0302947
0.0288169
0.0287441
0.0287786
0.0288783
0.0288519
0.0289227
0.0289059
0.0289286
0.0289273
0.0289256
0.0289266
0.0289237
0.0304742
0.0294335
0.0299524
0.0315266
0.0310003
0.0325853
0.0320548
0.0336552
0.0331189
0.0347382
0.0341948
0.0358369
0.0352857
0.0369502
0.0363918
0.0380783
0.0375124
0.0392219
0.0386481
0.0403819
0.0397998
0.0415599
0.0409686
0.042757
0.042156
0.0439749
0.0433633
0.0452153
0.0445922
0.04648
0.0458445
0.0477718
0.0471223
0.0490939
0.0484289
0.0504479
0.0497669
0.0518373
0.0511377
0.0532695
0.0525478
0.0547436
0.0540022
0.0562534
0.0554917
0.0578146
0.0570299
0.0594138
0.0586078
0.0610795
0.0610774
0.0602402
0.0607105
0.0606071
0.0584779
0.0585444
0.061925
0.0619359
0.0592458
0.0593765
0.0600209
0.0602196
0.0282417
0.0287119
0.028207
0.0607856
0.0610608
0.0615446
0.0289174
0.061427
0.0585186
0.059682
0.061298
0.0604888
0.0580799
0.058881
0.0565203
0.0572919
0.0550113
0.0557617
0.0535393
0.0542708
0.0521087
0.0528185
0.0507207
0.0514098
0.0493678
0.0500404
0.0480468
0.0487032
0.0467571
0.0473984
0.0454941
0.0461224
0.0442559
0.044872
0.0430405
0.0436455
0.041846
0.0424408
0.040671
0.0412562
0.0395138
0.0400903
0.0383733
0.0389416
0.0372485
0.037809
0.0361387
0.0366918
0.0350433
0.0355892
0.0339615
0.0345009
0.0328914
0.0334252
0.0318323
0.0323605
0.0307882
0.0313071
0.02975
0.0302672
0.0292294
0.0283172
0.0282817
0.0283789
0.0283491
0.028416
0.028401
0.0284252
0.0284241
0.0284241
0.0284248
0.0294302
0.0289132
0.0284096
0.0284153
0.030474
0.0299509
0.0315216
0.0309959
0.0325802
0.0320497
0.0336501
0.0331137
0.0347335
0.0341901
0.0358313
0.0352806
0.0369435
0.0363856
0.0380704
0.0375051
0.0392128
0.0386397
0.0403715
0.03979
0.0415478
0.0409574
0.0427431
0.0421431
0.0439589
0.0433484
0.0451968
0.044575
0.0464588
0.0458247
0.0477473
0.0470996
0.0490654
0.0484025
0.050415
0.0497362
0.0517988
0.0511023
0.0532235
0.0525057
0.0546926
0.0539527
0.056204
0.0554426
0.057766
0.056977
0.0593777
0.0585662
0.0610332
0.0601935
0.0627842
0.0627355
0.061881
0.0622812
0.0621456
0.0628128
0.0636658
0.0636053
0.0593004
0.0593723
0.0600834
0.0602293
0.027747
0.0277097
0.060867
0.0610817
0.0616539
0.0619387
0.0624133
0.0284043
0.0630194
0.0631651
0.0637009
0.0645724
0.0644903
0.0639008
0.0628534
0.0286795
0.0281727
0.0637355
0.0593478
0.0611508
0.0619894
0.0595391
0.060341
0.0579448
0.058736
0.0563902
0.0571608
0.0548843
0.0556319
0.0534224
0.054148
0.0520037
0.0527078
0.0506248
0.0513096
0.04928
0.0499485
0.0479662
0.0486192
0.0466824
0.0473208
0.0454249
0.0460506
0.0441916
0.0448054
0.0429805
0.0435834
0.0417899
0.0423828
0.0406183
0.0412019
0.0394643
0.0400392
0.0383266
0.0388935
0.0372044
0.0377636
0.0360967
0.0366488
0.0350031
0.0355482
0.0339227
0.0344614
0.0328542
0.0333871
0.0317974
0.0323243
0.0307546
0.0312737
0.0297197
0.0302361
0.0292001
0.0278195
0.027783
0.0278762
0.0278518
0.0279088
0.0278944
0.0279261
0.0279198
0.0279218
0.0279276
0.0279065
0.0279167
0.0643957
0.0654011
0.0652991
0.0278951
0.0294259
0.0283948
0.0289091
0.0304663
0.0299464
0.0315136
0.0309887
0.032572
0.0320415
0.033642
0.0331055
0.0347251
0.0341819
0.035822
0.0352718
0.0369331
0.0363758
0.0380587
0.0374941
0.0391995
0.0386272
0.0403566
0.039776
0.041531
0.0409416
0.0427241
0.0421252
0.0439372
0.0433281
0.0451722
0.0445519
0.0464308
0.0457984
0.0477154
0.0470697
0.0490286
0.0483683
0.0503728
0.0496967
0.0517506
0.0510573
0.0531668
0.0524536
0.0546254
0.0538906
0.0561296
0.0553716
0.0576826
0.0568996
0.0592874
0.0584794
0.0609513
0.0601112
0.0626455
0.0617951
0.0635085
0.060149
0.0602224
0.0276726
0.0609506
0.0610982
0.0617486
0.0619704
0.0625387
0.0628395
0.0633034
0.0640626
0.0646226
0.064808
0.0646226
0.065508
0.0662188
0.0663372
0.0278864
0.065526
0.0644169
0.0283868
0.0278759
0.0653077
0.0601947
0.0626689
0.0635276
0.0609825
0.0618008
0.0593686
0.0601663
0.0577825
0.0585705
0.056237
0.0570031
0.0547436
0.0554842
0.0532959
0.0540144
0.0518893
0.0525877
0.0505199
0.0512002
0.0491838
0.049848
0.0478781
0.0485273
0.046601
0.0472362
0.0453496
0.0459723
0.0441216
0.0447328
0.0429153
0.0435159
0.0417291
0.0423198
0.0405612
0.0411429
0.0394106
0.0399839
0.038276
0.0388414
0.0371565
0.0377144
0.0360512
0.0366021
0.0349596
0.0355038
0.0338809
0.0344187
0.0328141
0.0333461
0.031759
0.0322851
0.0307158
0.031236
0.0296838
0.0301975
0.0286528
0.0291653
0.0276359
0.0281414
0.027258
0.0271777
0.0272171
0.0273255
0.0272945
0.0273741
0.0273535
0.0274048
0.0273906
0.0274246
0.0274164
0.027425
0.0274284
0.0274083
0.027419
0.027383
0.027397
0.0294194
0.0289027
0.0304555
0.0299352
0.0315027
0.0309778
0.0325609
0.0320304
0.0336307
0.0330943
0.0347132
0.0341703
0.0358091
0.0352595
0.0369189
0.0363623
0.0380431
0.0374792
0.0391822
0.0386107
0.0403374
0.0397578
0.0415095
0.0409213
0.0426999
0.0421024
0.0439101
0.0433025
0.0451416
0.0445231
0.0463962
0.0457659
0.0476762
0.0470329
0.0489838
0.0483264
0.0503217
0.0496489
0.0516925
0.0510028
0.0530998
0.0523914
0.0545472
0.0538183
0.0560388
0.0552872
0.0575784
0.0568024
0.0591695
0.0583673
0.0608216
0.0599879
0.0625227
0.0616648
0.0642778
0.0634002
0.066079
0.0651702
0.0671604
0.0670041
0.0271391
0.0610219
0.061093
0.0273717
0.061842
0.0619889
0.0626516
0.0628786
0.0634424
0.0637599
0.0642276
0.0649885
0.0657369
0.0662151
0.0664551
0.0655692
0.0664561
0.0673073
0.0681303
0.0679462
0.0671403
0.0659489
0.0276016
0.027101
0.0668642
0.0610668
0.0641592
0.0650473
0.0624545
0.0633097
0.0607783
0.0616211
0.0591711
0.0599691
0.0575987
0.0583819
0.0560696
0.0568273
0.0545927
0.0553253
0.0531595
0.0538711
0.0517651
0.0524577
0.0504063
0.0510815
0.0490798
0.0497393
0.0477828
0.0484278
0.0465131
0.0471447
0.0452683
0.0458877
0.0440462
0.0446545
0.0428451
0.0434432
0.0416635
0.042252
0.0404998
0.0410795
0.0393529
0.0399244
0.0382216
0.0387854
0.037105
0.0376615
0.0360023
0.036552
0.0349129
0.035456
0.033836
0.034373
0.032771
0.0333021
0.0317175
0.0322429
0.0306748
0.0311949
0.0296421
0.0301575
0.0286209
0.0291275
0.0281105
0.0266868
0.0265998
0.0266442
0.0267698
0.0267318
0.0268349
0.0268072
0.026875
0.0268568
0.026905
0.0268911
0.0269243
0.026916
0.0269305
0.02693
0.0269142
0.0269227
0.0268888
0.0269016
0.0677439
0.0689146
0.0686952
0.0268728
0.0283762
0.0273603
0.0278659
0.0294071
0.028892
0.0304421
0.0299227
0.0314889
0.0309642
0.0325467
0.0320165
0.0336161
0.03308
0.0346979
0.0341555
0.0357928
0.0352437
0.0369011
0.0363453
0.0380236
0.0374606
0.0391609
0.0385904
0.0403138
0.0397353
0.0414834
0.0408964
0.0426708
0.0420748
0.0438775
0.0432717
0.0451051
0.0444886
0.0463552
0.0457272
0.0476299
0.0469893
0.0489314
0.0482772
0.0502621
0.049593
0.0516248
0.0509393
0.0530226
0.0523191
0.0544586
0.0537357
0.0559366
0.0551921
0.0574607
0.0566928
0.0590348
0.0582411
0.0606684
0.0598438
0.0623569
0.061507
0.0641054
0.063227
0.0658953
0.0649956
0.0668084
0.0619147
0.0619852
0.0627505
0.0629
0.063575
0.0638071
0.02611
0.0265588
0.0260664
0.064376
0.0647051
0.0651723
0.0659506
0.0666927
0.0674132
0.0677925
0.0680965
0.0665722
0.0674565
0.0683152
0.0691326
0.0696657
0.0699162
0.0268546
0.0687347
0.0674585
0.0273433
0.0268398
0.0683866
0.0619603
0.0656412
0.0665427
0.0638955
0.0647566
0.0622048
0.0630498
0.060551
0.0613706
0.0589525
0.0597457
0.0573974
0.0581699
0.0558901
0.0566373
0.0544309
0.055155
0.0530127
0.053717
0.0516315
0.0523177
0.0502844
0.0509539
0.0489683
0.0496227
0.0476805
0.048321
0.0464188
0.0470466
0.0451811
0.0457972
0.0439654
0.0445707
0.04277
0.0433653
0.0415934
0.0421795
0.0404342
0.0410117
0.0392912
0.0398607
0.0381634
0.0387255
0.03705
0.037605
0.03595
0.0364984
0.034863
0.035405
0.0337882
0.0343241
0.0327251
0.0332552
0.031673
0.0321977
0.0306318
0.0311511
0.0296005
0.030115
0.0285818
0.0290883
0.0275683
0.0280733
0.0270635
0.0262024
0.0261517
0.0262821
0.0262459
0.0263398
0.0263148
0.026379
0.0263607
0.0264087
0.0263951
0.0264271
0.0264192
0.0264357
0.0264329
0.0264229
0.0264328
0.0263975
0.0264116
0.0263592
0.0263778
0.0283644
0.0278537
0.0293905
0.0288751
0.030426
0.0299071
0.0314724
0.0309479
0.0325297
0.0319997
0.0335985
0.0330626
0.0346794
0.0341374
0.035773
0.0352246
0.0368798
0.0363247
0.0380004
0.0374384
0.0391355
0.0385661
0.0402859
0.0397088
0.0414527
0.0408672
0.0426368
0.0420425
0.0438397
0.0432359
0.0450629
0.0444487
0.0463079
0.0456826
0.0475767
0.0469392
0.0488714
0.0482207
0.0501943
0.0495292
0.0515479
0.0508671
0.0529352
0.0522372
0.054359
0.0536424
0.0558228
0.0550857
0.0573302
0.0565709
0.0588854
0.0581015
0.0604957
0.0596832
0.0621655
0.0613234
0.0638918
0.0630233
0.0656699
0.0647778
0.0675038
0.0665786
0.0693916
0.0684432
0.0706634
0.0703543
0.062824
0.0628983
0.063678
0.0638329
0.0256253
0.0255803
0.064522
0.0647609
0.0653453
0.0656753
0.0661452
0.0669321
0.0676899
0.0684014
0.0690809
0.0263411
0.0693279
0.0697104
0.0675949
0.0684945
0.0693548
0.0701721
0.070957
0.0716935
0.0713446
0.0702797
0.0689158
0.0265171
0.0260216
0.0698473
0.0628732
0.0670808
0.0679913
0.0653115
0.0661862
0.0636004
0.0644538
0.0619251
0.0627571
0.0602913
0.0611015
0.0587125
0.0594952
0.0571828
0.057942
0.0556988
0.0564351
0.0542581
0.0549733
0.052856
0.0535525
0.0514891
0.0521684
0.0501545
0.050818
0.0488495
0.0494985
0.0475715
0.0482073
0.0463185
0.046942
0.0450884
0.0457007
0.0438795
0.0444815
0.0426901
0.0432825
0.0415188
0.0421023
0.0403644
0.0409396
0.0392256
0.0397931
0.0381016
0.0386619
0.0369915
0.0375449
0.0358945
0.0364414
0.03481
0.0353508
0.0337375
0.0342723
0.0326762
0.0332055
0.0316259
0.0321498
0.0305862
0.0311048
0.0295568
0.0300702
0.0285402
0.0290463
0.0275282
0.0280346
0.0270191
0.0257171
0.0256731
0.0257939
0.025758
0.0258457
0.0258222
0.0258857
0.0258669
0.0259152
0.0259019
0.0259331
0.0259256
0.0259415
0.0259384
0.0259359
0.0259413
0.0259082
0.0259236
0.0258683
0.0258894
0.070976
0.0723565
0.0719565
0.0258496
0.0273273
0.0263233
0.0268232
0.0283472
0.0278377
0.0293716
0.0288575
0.0304072
0.0298882
0.031453
0.0309288
0.0325097
0.03198
0.0335778
0.0330423
0.0346576
0.0341162
0.0357498
0.0352022
0.0368549
0.0363008
0.0379735
0.0374125
0.0391063
0.0385381
0.040254
0.0396782
0.0414175
0.0408337
0.0425981
0.0420057
0.0437968
0.0431951
0.0450151
0.0444034
0.0462545
0.0456321
0.0475169
0.0468828
0.0488042
0.0481574
0.0501185
0.0494579
0.0514623
0.0507866
0.0528381
0.0521461
0.0542488
0.053539
0.0556973
0.0549681
0.057187
0.0564368
0.0587219
0.0579486
0.060307
0.0595078
0.0619485
0.0611204
0.0636483
0.0627914
0.0654065
0.0645208
0.0672169
0.0663025
0.0690736
0.0681449
0.0700186
0.0637562
0.0638335
0.0255344
0.0646313
0.0647903
0.0654922
0.0657406
0.0663375
0.0666758
0.067158
0.0679442
0.0687086
0.0694334
0.0700974
0.0707153
0.0707895
0.071267
0.0686473
0.0695614
0.0704303
0.0712568
0.0720397
0.0727558
0.0729558
0.0734028
0.025825
0.0717456
0.0702842
0.0263032
0.0258014
0.0712127
0.063808
0.0684556
0.0693743
0.0666813
0.0675604
0.0649598
0.0658192
0.0632665
0.0641072
0.0616121
0.0624335
0.060009
0.0608038
0.0584595
0.0592278
0.0569569
0.0577028
0.0554962
0.0562215
0.054075
0.0547809
0.0526901
0.0533783
0.0513383
0.0520103
0.050017
0.050674
0.0487237
0.049367
0.0474561
0.0480868
0.0462123
0.0468314
0.0449904
0.0455987
0.0437886
0.0443871
0.0426056
0.0431949
0.04144
0.0420208
0.0402906
0.0408634
0.0391563
0.0397217
0.0380363
0.0385946
0.0369297
0.0374814
0.0358358
0.0363812
0.0347541
0.0352935
0.0336839
0.0342176
0.0326247
0.0331529
0.0315762
0.0320991
0.030538
0.0310558
0.0295102
0.0300228
0.0284928
0.0290003
0.0274848
0.0279867
0.0264744
0.0269771
0.0254859
0.0259771
0.0251487
0.0250496
0.0250995
0.025236
0.0251956
0.0253051
0.0252738
0.0253549
0.0253314
0.0253951
0.0253763
0.0254244
0.0254112
0.0254421
0.0254347
0.0254495
0.025447
0.0254465
0.0254495
0.025422
0.025438
0.0253845
0.0254076
0.0253337
0.0253586
0.0273107
0.0268065
0.0283259
0.0278158
0.0293505
0.028837
0.0303856
0.0298668
0.0314309
0.030907
0.032487
0.0319576
0.0335541
0.0330191
0.0346327
0.034092
0.0357234
0.0351766
0.0368267
0.0362735
0.037943
0.0373832
0.0390732
0.0385064
0.0402179
0.0396437
0.0413781
0.040796
0.0425547
0.0419643
0.0437488
0.0431495
0.0449619
0.044353
0.0461953
0.045576
0.0474508
0.0468203
0.0487301
0.0480874
0.0500352
0.0493793
0.0513684
0.0506982
0.052732
0.0520463
0.0541286
0.053426
0.0555608
0.0548401
0.0570318
0.0562913
0.0585449
0.0577829
0.0601043
0.0593186
0.0617141
0.0609026
0.0633782
0.0625392
0.0651013
0.064232
0.0668765
0.0659845
0.0687048
0.0677847
0.0705706
0.069631
0.0724892
0.0715247
0.0739788
0.0734664
0.0249982
0.0647131
0.064793
0.025308
0.0656099
0.0657744
0.0664925
0.066748
0.0673557
0.0677062
0.0681958
0.0690006
0.0697596
0.0704863
0.0711621
0.0717506
0.0722812
0.0721463
0.0727355
0.0697293
0.0706573
0.0715407
0.0723805
0.073156
0.073854
0.0744887
0.0750307
0.0744495
0.0730849
0.0715333
0.0254415
0.0249493
0.0724364
0.0647673
0.0697416
0.0706379
0.0679723
0.0688502
0.0662568
0.0671126
0.0645615
0.0654049
0.0628951
0.0637227
0.0612785
0.0620804
0.0597131
0.0604897
0.0581953
0.0589486
0.05672
0.0574527
0.055283
0.0559968
0.0538824
0.0545783
0.0525155
0.053195
0.0511796
0.0518439
0.0498723
0.0505225
0.0485913
0.0492287
0.0473347
0.0479601
0.0461005
0.0467149
0.0448871
0.0454913
0.043693
0.0442878
0.0425167
0.0431027
0.0413571
0.0419349
0.040213
0.0407832
0.0390834
0.0396465
0.0379676
0.0385239
0.0368647
0.0374146
0.0357741
0.0363179
0.0346952
0.0352332
0.0336275
0.03416
0.0325705
0.0330977
0.0315238
0.0320459
0.0304873
0.0310043
0.0294607
0.0299728
0.0284437
0.0289511
0.0274359
0.0279388
0.0264323
0.0269336
0.0259346
0.0245705
0.0244644
0.0245213
0.0246749
0.0246234
0.0247565
0.0247167
0.0248179
0.0247893
0.0248675
0.0248438
0.0249074
0.0248888
0.0249362
0.0249232
0.0249538
0.0249464
0.0249604
0.0249584
0.0249572
0.0249599
0.0249401
0.0249514
0.0249023
0.0249221
0.0248493
0.0248762
0.0738522
0.0754582
0.0748079
0.0248191
0.0262819
0.0252818
0.0257802
0.0272883
0.0267847
0.0283022
0.0277934
0.0293268
0.0288134
0.0303614
0.0298429
0.0314061
0.0308825
0.0324614
0.0319325
0.0335275
0.0329931
0.0346048
0.0340647
0.0356938
0.0351478
0.0367951
0.0362429
0.0379091
0.0373505
0.0390364
0.0384711
0.0401779
0.0396054
0.0413344
0.0407543
0.0425067
0.0419185
0.043696
0.0430992
0.0449035
0.0442975
0.0461305
0.0455145
0.0473786
0.0467519
0.0486494
0.0480111
0.0499447
0.0492939
0.0512666
0.0506023
0.0526173
0.0519383
0.0539989
0.0533041
0.055414
0.0547022
0.0568652
0.056135
0.0583555
0.0576053
0.0598883
0.0591165
0.0614665
0.0606716
0.0630932
0.0622736
0.0647735
0.0639262
0.0665101
0.0656354
0.068292
0.0673969
0.0701232
0.0692023
0.0719798
0.0710459
0.0729097
0.0656966
0.0657788
0.0666163
0.0667866
0.0675218
0.0677847
0.0239859
0.0244104
0.0239282
0.0684064
0.0687672
0.0692625
0.0700843
0.0708588
0.0715694
0.0722431
0.072831
0.0733292
0.0737451
0.0733363
0.0740549
0.0708436
0.0717884
0.0726895
0.0735402
0.0743135
0.0750036
0.0756116
0.0761096
0.0757731
0.0764916
0.0247899
0.074244
0.0726091
0.025258
0.0247615
0.0734614
0.0657529
0.0708927
0.0717532
0.0691716
0.0700209
0.067459
0.0683004
0.065787
0.0666166
0.064125
0.0649529
0.0625043
0.0633084
0.0609328
0.0617127
0.0594058
0.060164
0.05792
0.058658
0.0564724
0.0571917
0.05506
0.0557619
0.0536809
0.0543664
0.0523328
0.0530032
0.0510135
0.0516697
0.0497207
0.0503639
0.0484527
0.0490838
0.0472074
0.0478273
0.0459833
0.0465929
0.0447789
0.0453788
0.0435927
0.0441836
0.0424235
0.0430061
0.0412701
0.0418449
0.0401316
0.0406991
0.039007
0.0395677
0.0378956
0.0384497
0.0367966
0.0373446
0.0357094
0.0362516
0.0346335
0.0351701
0.0335684
0.0340996
0.0325136
0.0330397
0.0314689
0.03199
0.030434
0.0309502
0.0294086
0.0299201
0.0283927
0.0288995
0.0273856
0.0278882
0.0263867
0.0268847
0.0253969
0.0258909
0.0249035
0.0240976
0.0240408
0.0241968
0.0241489
0.0242742
0.0242382
0.0243333
0.0243051
0.024383
0.0243594
0.0244224
0.0244041
0.0244507
0.0244379
0.0244681
0.0244608
0.0244744
0.0244726
0.0244702
0.0244734
0.0244557
0.0244647
0.0244212
0.0244415
0.0243694
0.0243975
0.0243042
0.0243386
0.0262564
0.0257565
0.0272624
0.0267587
0.0282764
0.0277682
0.0293005
0.0287872
0.0303346
0.0298164
0.0313787
0.0308554
0.0324331
0.0319046
0.033498
0.0329642
0.0345739
0.0340346
0.0356612
0.0351161
0.0367602
0.0362092
0.0378717
0.0373144
0.0389961
0.0384323
0.0401342
0.0395634
0.0412866
0.0407086
0.0424544
0.0418686
0.0436385
0.0430444
0.0448401
0.0442371
0.0460603
0.0454478
0.0473005
0.0466778
0.0485623
0.0479286
0.0498473
0.0492018
0.0511574
0.0504992
0.0524945
0.0518225
0.0538605
0.0531738
0.0552576
0.0545551
0.0566882
0.0559686
0.0581546
0.0574168
0.0596596
0.0589022
0.0612055
0.0604274
0.0627944
0.0619945
0.0644293
0.0636059
0.066114
0.0652655
0.0678458
0.0669743
0.0696266
0.0687304
0.0714172
0.0705264
0.0732223
0.0723185
0.0750468
0.0741346
0.0767517
0.0759563
0.066708
0.066793
0.0676531
0.0678285
0.023516
0.0234553
0.0685821
0.0688531
0.0694889
0.0698609
0.0703646
0.0711997
0.071986
0.0727102
0.073357
0.0739354
0.0744168
0.074785
0.0750407
0.0242731
0.0743104
0.0751772
0.0719934
0.0729581
0.073876
0.0747306
0.0755032
0.0761905
0.0767681
0.0772239
0.0775588
0.0243575
0.0238725
0.0751737
0.073438
0.0777543
0.0768645
0.0742522
0.0667669
0.0718413
0.0726271
0.070214
0.0710334
0.0685552
0.0693929
0.0669051
0.0677279
0.0652798
0.0660932
0.0636696
0.0644702
0.0621023
0.0628805
0.060576
0.0613344
0.0590871
0.059827
0.0576341
0.0583562
0.0562151
0.0569205
0.0548281
0.0555178
0.0534712
0.054146
0.0521426
0.0528035
0.0508404
0.0514884
0.0495628
0.0501987
0.0483081
0.0489328
0.0470747
0.0476889
0.0458611
0.0464656
0.044666
0.0452614
0.0434881
0.044075
0.0423262
0.0429052
0.0411794
0.041751
0.0400467
0.0406114
0.0389273
0.0394854
0.0378204
0.0383724
0.0367255
0.0372715
0.0356419
0.0361823
0.0345691
0.0351042
0.0335067
0.0340366
0.0324542
0.0329792
0.0314115
0.0319317
0.0303783
0.0308937
0.0293543
0.0298651
0.0283394
0.0288458
0.0273335
0.0278354
0.0263372
0.0268341
0.0253497
0.025844
0.0248522
0.0236232
0.0235701
0.0237172
0.0236738
0.0237919
0.0237572
0.0238514
0.0238228
0.0239012
0.0238776
0.0239401
0.023922
0.023968
0.0239554
0.0239851
0.0239779
0.0239912
0.0239895
0.0239862
0.02399
0.0239715
0.0239801
0.0239437
0.0239597
0.0238915
0.0239204
0.0238275
0.0238608
0.0759656
0.0777701
0.0767936
0.0237926
0.0252303
0.0242444
0.0247368
0.0262287
0.0257293
0.0272338
0.0267299
0.0282479
0.0277397
0.0292717
0.0287586
0.0303053
0.0297873
0.0313487
0.0308258
0.0324021
0.0318742
0.0334658
0.0329327
0.0345401
0.0340017
0.0356255
0.0350815
0.0367223
0.0361725
0.037831
0.0372752
0.0389523
0.0383901
0.0400867
0.0395178
0.041235
0.0406591
0.042398
0.0418146
0.0435766
0.0429853
0.0447718
0.0441721
0.0459848
0.0453761
0.0472168
0.0465984
0.0484692
0.0478404
0.0497435
0.0491036
0.0510412
0.0503893
0.052364
0.0516994
0.0537138
0.0530355
0.0550923
0.0543994
0.0565014
0.055793
0.0579432
0.0572182
0.0594195
0.058677
0.0609322
0.0601713
0.0624826
0.0617027
0.0640721
0.0632724
0.0657019
0.064882
0.0673716
0.0665318
0.0690842
0.0682225
0.0708123
0.0699514
0.0725487
0.0716796
0.0742767
0.073423
0.0751229
0.0677497
0.0678373
0.0233948
0.0687216
0.0689024
0.0696764
0.0699553
0.0706059
0.070989
0.0715019
0.0723532
0.0731485
0.0738796
0.0745219
0.0750716
0.0755221
0.0758583
0.0760592
0.0761273
0.0750587
0.0760537
0.0731827
0.0741684
0.0751
0.0759592
0.0767333
0.0774131
0.077969
0.0783827
0.0786618
0.078764
0.0776175
0.0786915
0.0237537
0.0758429
0.0740418
0.0242132
0.0237216
0.0747463
0.0678111
0.0725524
0.0733139
0.0710402
0.071807
0.0695033
0.0702877
0.0679092
0.0687066
0.0663256
0.0671189
0.0647515
0.0655363
0.0632039
0.0639736
0.06169
0.0624428
0.0602083
0.0609453
0.058758
0.0594793
0.0573387
0.0580446
0.0559492
0.0566404
0.0545881
0.0552653
0.053254
0.0539178
0.0519455
0.0525967
0.050661
0.0513003
0.049399
0.0500273
0.0481581
0.048776
0.0469369
0.0475451
0.0457342
0.0463333
0.0445487
0.0451393
0.0433793
0.043962
0.0422251
0.0428004
0.041085
0.0416534
0.0399584
0.0405201
0.0388444
0.0393999
0.0377423
0.0382919
0.0366515
0.0371956
0.0355716
0.0361103
0.034502
0.0350356
0.0334424
0.033971
0.0323924
0.0329163
0.0313517
0.0318709
0.0303202
0.0308349
0.0292976
0.0298078
0.0282839
0.0287897
0.0272791
0.0277804
0.0262832
0.02678
0.0252949
0.0257881
0.02431
0.0248016
0.0233381
0.0238207
0.0230475
0.0229271
0.0229859
0.023153
0.0231038
0.0232425
0.0232017
0.0233125
0.0232789
0.0233724
0.0233436
0.0234219
0.0233985
0.0234604
0.0234425
0.0234881
0.0234756
0.0235048
0.0234978
0.0235106
0.0235091
0.0235054
0.0235094
0.0234896
0.0234987
0.0234642
0.0234782
0.023418
0.0234451
0.0233535
0.0233888
0.0232756
0.0233132
0.0252015
0.024708
0.0261981
0.0256989
0.0272028
0.0266994
0.0282169
0.0277087
0.0292405
0.0287275
0.0302735
0.0297558
0.0313161
0.0307937
0.0323685
0.0318411
0.0334309
0.0328985
0.0345036
0.033966
0.0355869
0.0350439
0.0366813
0.0361327
0.0377872
0.0372328
0.0389051
0.0383447
0.0400357
0.0394688
0.0411795
0.0406059
0.0423375
0.0417567
0.0435103
0.042922
0.0446989
0.0441026
0.0459044
0.0452996
0.0471279
0.0465139
0.0483705
0.0477467
0.0496335
0.0489994
0.0509184
0.0502731
0.0522266
0.0515695
0.0535595
0.0528899
0.0549188
0.0542358
0.0563059
0.0556088
0.0577222
0.0570103
0.0591693
0.0584419
0.0606481
0.0599047
0.0621593
0.0613997
0.0637034
0.0629273
0.0652797
0.0644877
0.0668866
0.0660794
0.0685243
0.0677017
0.0701826
0.0693526
0.0718367
0.0710129
0.0734701
0.0726646
0.0750397
0.074269
0.0765608
0.0758154
0.0784405
0.0772899
0.0228606
0.0688237
0.068914
0.0232342
0.0698245
0.0700105
0.0708063
0.0710934
0.0717606
0.0721543
0.072677
0.0735451
0.0743516
0.0750812
0.0757204
0.0762558
0.0766644
0.0769531
0.0771012
0.0770772
0.0769536
0.0754201
0.0765883
0.0744141
0.0754206
0.0763649
0.07723
0.0780039
0.0786661
0.0791904
0.0795689
0.0797793
0.079794
0.0796262