/*--------------------------------*- C++ -*----------------------------------*\
  =========                 |
  \\      /  F ield         | OpenFOAM: The Open Source CFD Toolbox
   \\    /   O peration     | Website:  https://openfoam.org
    \\  /    A nd           | Version:  10
     \\/     M anipulation  |
\*---------------------------------------------------------------------------*/
FoamFile
{
    format      ascii;
    class       surfaceScalarField;
    location    "2.5";
    object      phi;
}
// * * * * * * * * * * * * * * * * * * * * * * * * * * * * * * * * * * * * * //

dimensions      [0 3 -1 0 0 0 0];

internalField   nonuniform List<scalar> 
66213
(
0.0179916
-0.023304
-0.0127697
0.0180821
0.0564546
-0.00925191
-0.0292111
0.0171902
-0.0225174
0.0617818
-0.0343207
0.0515109
0.0315308
-0.021944
-0.0246441
0.0150573
0.0326903
-0.0318819
0.0307224
0.0616845
-0.0515115
-0.0620141
0.0518409
-0.0428711
-0.00192971
-0.0194532
-0.0301286
-0.0125403
-0.0212713
-0.000680648
0.000533732
0.00327776
-0.00313085
0.000459426
-0.00114007
0.000993158
-0.00255012
0.00131751
0.0115273
-0.0102947
0.00169098
-0.00424111
0.00300849
0.0858545
0.102605
-0.0964353
-0.0920239
0.058682
0.0610306
-0.0338581
-0.0569655
0.0258789
0.0897686
-0.0184266
0.0640658
0.0359314
0.0386259
-0.0450443
-0.029513
-0.0015453
0.00181563
0.0356611
-0.013818
0.0114867
0.000785924
0.0134497
0.0113583
0.0535539
0.0176371
-0.00994346
-0.0612476
-0.00607416
0.0522325
0.00739561
-0.0746193
0.00657674
0.0619683
-0.0217923
0.0291701
0.0238883
-0.0312662
-0.0618688
0.00667034
0.0334062
-0.0246413
-0.0695526
0.0323251
0.0301543
-0.0308084
0.0635835
-0.0882248
-0.000226107
-0.00524135
0.00161509
0.00385237
-0.00335335
0.00312724
-0.00184468
-0.00150867
-0.000922408
-0.00616362
0.0436261
-0.00887495
0.00584285
-0.040594
0.0328518
-0.011585
0.0223593
0.0217403
-0.0227422
0.0469711
-0.0459692
0.008923
0.0458557
-0.0330384
-0.000465016
0.0214874
-0.0298572
0.00883485
0.0293954
0.00229297
-0.0321533
-0.00169164
-0.000184608
0.000953836
0.00229408
-0.000868291
-0.00742083
0.00599504
0.00372715
-0.00205116
0.000618086
-0.0126555
0.0138255
0.000438707
-0.00160871
0.00225866
-0.00342739
-0.0186168
0.0469318
-0.0404324
0.0121174
-0.0311703
-0.00851692
0.0210703
-0.0374519
0.0608359
0.0124102
-0.0357941
-0.028746
-0.0782585
-0.0643915
-0.00276269
0.0382916
0.0288626
0.0780327
-0.135848
-0.0231271
-0.00497362
0.0281007
-0.00955998
-0.0135671
-0.0281377
0.0392171
-0.0206394
0.00436431
-0.0101403
-0.0223617
-0.00153298
-0.00588662
0.0074196
-0.0066885
-0.00822025
0.0133758
-0.00920282
0.0068136
-0.0114779
0.018114
0.00303166
-0.00190448
0.00568642
-0.00143924
0.00256648
0.00190442
0.012873
-0.00780305
-0.00506993
0.0217249
-0.00885188
0.0381284
-0.0487652
-0.0119102
0.022547
0.0734308
-0.0178241
-0.0740333
0.0631795
0.0268227
-0.0165715
0.0115996
-0.00564396
-0.0221512
0.0161956
-0.0175145
0.0141314
0.0149827
-0.0112881
0.0219925
-0.0282189
-0.00208612
0.0204463
-0.0136461
-0.00471406
0.0298404
0.0429953
-0.0955779
-0.0100668
-0.00569819
-1.22429e-05
0.0157772
-0.0149762
0.00100923
0.00390023
0.028424
0.00167139
-0.00802174
-0.0220736
0.0326978
-0.00128671
-0.00298709
0.0737794
0.0287655
-0.0157582
-0.0867867
0.0813076
0.0123769
-0.0199052
-0.0422852
0.0312502
-0.00496113
0.0159962
0.0130729
-0.0257946
-0.0295636
-0.025719
0.033908
0.0230613
-0.0536376
0.02847
0.055008
-0.023786
0.0551504
-0.085002
-0.00438976
0.0302355
-0.0496318
-0.00340085
-0.0118993
0.015498
-0.000197834
-0.00433268
0.000713107
0.000218722
0.000245209
-0.000850734
0.00130202
0.000657034
-0.000196207
-0.00176285
0.0135793
0.00858652
-0.000600613
-0.0215652
0.00818403
0.0143651
-0.0089699
-0.0198265
-0.00293743
0.0309479
-0.0141667
0.00292672
-0.0143876
-0.000379681
-0.0107959
0.0352424
0.0363893
0.0297638
-0.000976464
-0.0395832
0.0283545
-0.0518751
0.0704525
-0.0378791
0.001475
0.0647586
-0.038299
-0.00727251
-0.00361595
0.0491874
0.0391184
-0.0133516
0.0577248
-0.0351396
-0.0180719
0.0136552
0.0395563
0.00284926
-0.0114208
-0.026568
0.0472377
-0.0624604
-0.00853357
-0.0018841
0.0120269
-0.00160922
-0.00119684
-0.00478344
-0.00255329
-0.000593929
0.000326895
-0.000929802
-0.000862934
-0.0554093
-0.0421444
0.0293373
0.0682165
-0.0193411
0.0279584
-0.0640266
0.0286566
-0.0043992
-0.0435985
-0.0146531
0.00116522
0.00462744
0.0112006
-0.00605031
-0.00977771
0.00273231
0.00189512
0.000501549
0.0134313
0.00457704
0.00510534
0.00167591
0.000641859
0.0047211
0.0335645
0.00132226
-0.0463076
0.00499352
0.0422262
-0.000342265
-0.00520509
-0.0063019
0.0118493
-0.00144291
0.00149434
-0.000393688
-0.00547602
-0.00117199
0.0114556
0.0229367
-0.0222228
-0.0121694
-0.00312162
-0.0258552
0.0567789
0.0451992
-0.0109557
0.0428469
-0.0444485
-0.00207224
0.00367384
0.0458274
0.00278435
-0.00576491
-0.00772188
0.00195856
0.0061795
-0.000416178
-0.00324035
-0.000968735
-0.0035128
0.00881124
-0.0117487
0.00817474
0.000636501
0.0193208
0.0251453
-0.00518965
-0.0392765
0.0186538
0.0559891
-0.0553221
-0.0280015
0.0206707
0.0259845
-0.00671968
0.00386354
-0.0131714
-0.00289317
0.00141144
-0.0182637
0.000693173
0.0429207
-0.0401031
0.00289165
-0.00570931
0.00779068
-0.00846847
-0.0169834
-0.0310378
0.00791817
-0.044195
-0.00287994
0.0447985
0.00227643
-0.029213
-0.0203042
0.00532227
0.00261124
-0.0499397
0.0382543
0.0062058
-0.0266964
-0.0177637
-0.0146042
0.0484418
0.00441671
0.0388625
-0.00497998
-0.0484867
0.0277084
0.01854
-0.00738594
0.0211331
-0.0152155
-0.024181
0.0182634
0.0140938
-0.0179401
0.0249794
0.0275194
0.0199723
-0.0130732
-0.0344185
-0.0110799
0.0233838
0.0397244
0.00605071
-0.0258263
-0.0199488
-0.00240786
0.00145064
0.0406816
0.0384315
0.00160004
-0.0424394
0.0257588
-0.00669948
0.0193722
0.0133067
-0.0130542
-0.0152287
-0.016272
0.000311917
0.0102619
-0.0209067
0.00268571
0.00548903
-0.021304
0.0161144
-0.0266452
0.00534116
-0.00145554
0.0476464
-0.000991632
0.00803663
-0.00701452
-0.0016687
0.000646591
-0.00100324
-0.000169602
0.00920947
-0.00021317
0.0101372
-0.0109273
0.00586546
-0.0134921
-0.00427263
-0.00336464
-0.0319723
0.0298637
0.00547323
-0.0328417
-0.00216434
0.0316414
0.00559785
-0.0153129
0.041038
-0.031323
0.0388509
0.00351305
-0.0367661
0.000949292
0.0335167
-0.00018916
-0.0342768
0.033094
0.00159628
-0.0337409
0.0140304
0.0366821
-0.0534752
0.0114299
0.0396572
-0.0370567
0.0220398
0.00826639
-0.0144345
-0.0158717
0.0269491
0.00198025
-0.00688951
-0.0380479
0.00287314
0.0368285
-0.00165368
0.00359882
-0.0375579
-0.00408889
-0.000696226
0.0327958
-0.0327267
0.000627159
0.0321604
0.000590297
-0.0334469
-0.0115371
-0.0301325
0.0401451
0.0015245
0.0244832
-0.00567912
-0.0303411
0.0383344
-0.0113405
-0.0392697
0.0122758
0.0381383
-0.0114079
0.011604
0.0252122
0.00396091
-0.0022241
0.0243253
-0.00632865
0.00721557
0.0137328
-0.0130122
-0.00742996
-0.00365168
0.0110694
-0.0331942
-0.00865304
0.0363393
0.00550787
-0.0065495
-0.030834
0.00418933
0.00581603
-0.00730406
-0.00258032
0.00406835
-0.0068289
0.00621899
0.00642594
0.0352452
-0.0333103
0.0306237
-0.0325586
0.0562583
0.0256118
-0.046625
0.0256491
-0.0252816
0.0558908
0.0360288
-0.043287
0.0433548
-0.0360966
0.0670364
0.0310282
-0.0620359
0.0210099
0.0645338
-0.0185073
-0.0345944
0.0101166
0.0375507
-0.032244
-0.0110034
-0.03697
0.00662262
0.0386352
-0.00828789
-0.00761307
0.00712379
-0.0364807
0.0136144
-0.00206817
0.00155492
-0.0131012
0.00390482
0.0132083
-0.00349872
0.0830222
-0.059198
0.00714553
-0.0309697
0.0301928
0.0737005
-0.0208711
0.0371674
0.0047473
-0.0133469
-0.0285678
0.0409842
-0.000288961
-0.0341953
-0.0289928
0.00405978
-0.00125323
-0.0270166
-0.000723017
-0.0250951
-0.0103535
0.00105422
0.00200435
-0.00217396
0.000316128
0.00168823
-0.0316027
0.00418505
0.0297532
-0.00233554
0.00330615
-0.00292904
-0.0319798
0.0314943
0.0033614
-0.0315496
0.0301649
0.0055145
0.0345853
0.0143806
-0.0439724
-0.0195831
0.0557144
-0.00154597
0.0253744
-0.0305769
-0.0251089
-0.00440647
0.0245478
0.00496759
0.0214905
-0.0427976
-0.00380183
-0.00597286
0.0230569
-0.000305955
0.000429301
-0.00217451
0.000223918
-0.000529873
0.000653219
0.00186271
-0.00475588
0.00327415
0.0214918
-0.00542415
-0.0313805
-0.00024885
0.0333451
-0.0327486
-0.000347694
0.0340496
-0.00052608
-0.0337724
0.0498833
-0.00880096
-0.0405808
0.00420434
0.0320394
-0.00395002
-0.0322937
0.0394509
-0.0322738
0.00397384
-0.0111509
0.0384505
0.00118316
-0.000182799
0.0460575
-0.00394203
-0.00366496
0.0457434
0.000296898
1.7138e-05
0.0497986
-0.00406959
1.44676e-05
0.0498109
-3.01152e-05
1.78033e-05
0.0498211
-2.50064e-05
1.47626e-05
0.0498315
-2.82143e-05
1.78089e-05
0.0498404
-2.34157e-05
1.45792e-05
0.0498495
-2.68306e-05
1.76772e-05
0.0498572
-2.2005e-05
1.43706e-05
0.0498652
-2.5549e-05
1.75157e-05
0.0498718
-2.07161e-05
1.41196e-05
0.0498789
-2.43924e-05
1.73071e-05
0.0498846
-1.95219e-05
1.38252e-05
0.0498908
-2.32722e-05
1.70653e-05
0.0498956
-1.8307e-05
1.35211e-05
0.0499008
-2.21003e-05
1.68495e-05
0.0499046
-1.7048e-05
1.32967e-05
0.0499087
-2.09268e-05
1.67847e-05
0.0499112
-1.58516e-05
1.33213e-05
0.049914
-1.9878e-05
1.70739e-05
0.0499151
-1.48464e-05
1.37891e-05
0.0499164
-1.90613e-05
1.77964e-05
0.0499158
-1.40937e-05
1.46487e-05
0.0499155
-1.8408e-05
1.87279e-05
0.0459275
-1.30488e-05
0.004001
0.0459552
-1.76215e-05
-1.00344e-05
0.0394746
0.00293893
0.00354163
0.0379893
0.00207481
-0.000589457
0.0376543
0.0013168
-0.000981854
0.0377912
0.00097415
-0.00111103
-0.0303265
0.0386158
0.00310986
-0.0113992
0.00157925
0.00556517
-0.0296945
0.02255
-0.0296642
0.000916981
-0.0304273
0.00371871
-0.0396745
0.0296623
-0.00492903
0.0149412
0.00104488
-0.00292818
0.038227
-0.0385207
0.00161053
-0.037768
0.0398905
-0.00107763
0.00143315
0.0361434
-0.0339581
0.00075365
-0.000302483
0.0343436
-0.0343409
-1.57197e-05
0.000367849
0.0343384
-0.0343355
-1.70066e-05
-2.09732e-05
0.0343321
-0.0343282
-1.87555e-05
-2.23882e-05
0.0343239
-0.034319
-2.07365e-05
-2.42131e-05
0.0343138
-0.0343081
-2.27198e-05
-2.6133e-05
0.0343022
-0.0342959
-2.46421e-05
-2.80177e-05
0.0342893
-0.0342824
-2.64459e-05
-2.98084e-05
0.0342753
-0.0342678
-2.82226e-05
-3.15011e-05
0.0342601
-0.0342519
-3.01633e-05
-3.32677e-05
0.0342435
-0.0342346
-3.23381e-05
-3.52493e-05
0.0342253
-0.0342156
-3.47808e-05
-3.74724e-05
0.0342058
-0.0377976
-0.000477725
-3.98913e-05
0.0362109
-0.0388816
-0.00127127
-0.00128987
0.000917307
-0.00062884
0.0019926
-0.0310582
-0.0314938
0.00120073
0.0319795
-0.00403561
0.0119467
-0.0307285
0.00229372
-0.00184808
-0.00310914
0.0318451
-0.0268878
-0.00434397
0.0321582
-0.000954138
0.000934034
-0.0310381
-0.0300553
-0.00239267
-0.00317651
0.0320468
0.0336977
-0.0360275
-0.00259924
-0.031115
0.00132053
0.0314017
-0.00204803
0.00103023
0.000501163
-0.0315866
-0.000229144
0.000529031
-0.0314149
-0.030237
-0.032088
0.033899
0.00190773
0.0310891
-0.0305094
0.000740876
0.00129483
-0.0366094
0.0363172
0.000109396
0.00126343
-0.033677
0.0341945
-0.000500376
-0.00102482
-0.0342052
0.0342155
7.46066e-06
3.85137e-06
-0.0342252
0.0342346
8.46303e-06
5.02429e-06
-0.0342434
0.0342519
9.17639e-06
5.78162e-06
-0.0342599
0.0342677
9.74563e-06
6.34959e-06
-0.034275
0.0342821
1.0192e-05
6.78362e-06
-0.0342888
0.0342953
1.05957e-05
7.12354e-06
-0.0343013
0.0343071
1.10958e-05
7.48846e-06
-0.0343124
0.0343173
1.18152e-05
8.01093e-06
-0.0343218
0.034326
1.29201e-05
8.8311e-06
-0.0343297
0.0343331
1.43804e-05
1.00887e-05
-0.0343363
0.0343395
1.54657e-05
1.14666e-05
-0.0378449
0.0378282
6.62511e-06
0.000495671
-0.0399264
0.0392092
0.000127738
0.00144343
-0.038158
0.0376501
-0.000603135
6.93549e-05
-0.00130554
-4.0943e-05
-0.000850118
0.0327361
0.000570228
0.0324933
-0.00166182
0.0326875
0.036425
-0.0375646
6.19716e-05
-0.0338649
-0.00195701
0.0326454
-0.00147548
0.0356999
-0.0344795
0.000390156
-0.000431612
0.0355056
-0.034734
-1.79369e-05
0.000723605
0.0343434
-0.0343407
-1.83823e-05
-2.27887e-05
0.0343381
-0.0343351
-1.99568e-05
-2.36181e-05
0.0343318
-0.0343281
-2.25184e-05
-2.56688e-05
0.0343239
-0.0343193
-2.53867e-05
-2.8382e-05
0.0343143
-0.0343088
-2.81578e-05
-3.11347e-05
0.0343031
-0.0342969
-3.07899e-05
-3.37572e-05
0.0342905
-0.0342837
-3.32531e-05
-3.62263e-05
0.0342766
-0.0342692
-3.56712e-05
-3.85589e-05
0.0342615
-0.0342534
-3.82893e-05
-4.09751e-05
0.0342449
-0.0342361
-4.12205e-05
-4.36637e-05
0.0342269
-0.0342172
-4.44753e-05
-4.66853e-05
0.0342071
-0.034637
-4.78896e-05
-4.99272e-05
0.0358735
-0.0370932
-5.15819e-05
-5.33519e-05
0.0361182
-0.0331019
9.35008e-05
-5.76288e-05
0.0325446
-0.0316072
0.000263337
0.000359751
0.0337695
-0.0334016
0.000133258
-0.000230408
-0.00143283
0.0326296
-0.030695
0.000714612
-0.000582345
0.00109911
-0.0321034
-0.0341693
0.000185324
-0.00152349
0.000795102
0.0332217
0.032572
-0.032571
-0.00166277
0.032699
-0.00165053
0.000960412
-0.00159648
-0.0307788
0.0332046
-0.0340708
-0.00109085
-0.00164957
0.0328622
0.0328182
-0.00126317
0.00143535
-0.0311699
-0.0307344
-0.0320002
0.0316746
0.00106647
0.0317914
-0.0313304
0.000974322
0.000505825
-0.0329318
0.0343158
0.000523744
3.76668e-05
-0.0351379
0.0353611
-0.000113821
0.000441345
-0.0346911
0.0341956
-4.81857e-06
-0.000354859
-0.0342061
0.0342164
-2.78961e-06
-6.71106e-06
-0.0342261
0.0342354
-8.57942e-07
-4.70183e-06
-0.0342443
0.0342527
6.99847e-07
-3.05706e-06
-0.0342608
0.0342685
2.02874e-06
-1.697e-06
-0.0342758
0.0342828
3.20891e-06
-5.19083e-07
-0.0342894
0.0342956
4.36873e-06
5.57386e-07
-0.0343014
0.0343068
5.6846e-06
1.70379e-06
-0.0343117
0.0343163
7.22546e-06
3.05261e-06
-0.0343205
0.0343244
9.04501e-06
4.64954e-06
-0.034328
0.0343314
1.09888e-05
6.51105e-06
-0.0343347
0.0343379
1.22533e-05
8.16452e-06
-0.034825
0.0348195
1.21352e-05
8.5661e-06
-0.0362548
0.0363709
1.17145e-05
8.05052e-06
-0.0364324
0.0355755
0.000253791
7.83023e-06
-0.0348806
0.0332883
-0.00100692
-0.000610712
-0.00133075
-0.000160154
-0.000549071
0.0334453
0.0333225
0.00107223
-0.00146709
0.033257
0.0331527
0.0351771
-0.0350976
-1.7479e-05
-0.000369163
0.0355058
-0.0348528
-0.000262799
-2.34493e-05
0.0343474
-0.034345
-2.03636e-05
0.000218174
0.0343425
-0.0343398
-2.10742e-05
-2.52254e-05
0.0343371
-0.0343341
-2.29605e-05
-2.63854e-05
0.0343308
-0.0343273
-2.61098e-05
-2.89006e-05
0.0343234
-0.034319
-2.96943e-05
-3.22815e-05
0.0343144
-0.0343094
-3.32147e-05
-3.5766e-05
0.034304
-0.0342982
-3.66128e-05
-3.91412e-05
0.034292
-0.0342854
-3.98416e-05
-4.23734e-05
0.0342785
-0.0342712
-4.30099e-05
-4.54594e-05
0.0342635
-0.0342554
-4.63757e-05
-4.86167e-05
0.0342471
-0.0342382
-5.00832e-05
-5.20584e-05
0.034229
-0.0342193
-5.41708e-05
-5.58755e-05
0.0342092
-0.0341984
-5.86549e-05
-6.00428e-05
0.0341871
-0.034175
-6.3678e-05
-6.47007e-05
0.0341626
-0.0339997
-6.94456e-05
-6.99918e-05
0.0335639
-0.0335737
0.000273083
-7.59789e-05
0.0337729
-0.033863
0.000223401
-3.12087e-05
-0.000163112
-0.000422828
-0.0335833
0.0338092
-0.0338474
-0.000124944
0.000131524
0.00191808
-0.00178459
-0.0313034
-0.0311634
0.00175106
-0.00132512
-0.0312382
0.000670068
-0.0331963
-0.00179384
0.033145
0.000286281
-0.0340137
-0.000119942
0.000343398
-0.0336405
-0.000838068
0.000644498
0.0334153
-0.00161202
0.033473
0.0326599
-0.0324433
-0.00187933
0.00115099
-0.0012023
-0.0312521
0.00123337
-0.0312458
0.0327025
-0.00169311
-0.0313895
-0.0324332
0.0326705
0.000736956
0.0316815
-0.0316
0.00115188
0.000999387
-0.0327398
0.0335328
0.000273437
0.000436559
-0.0335997
0.034148
-2.45425e-05
-2.92371e-05
-0.0346141
0.0345201
-1.98329e-05
-2.47806e-05
-0.0341857
0.0341969
-1.60615e-05
-2.04027e-05
-0.0342075
0.0342177
-1.30025e-05
-1.72929e-05
-0.0342274
0.0342368
-1.01819e-05
-1.43989e-05
-0.0342456
0.034254
-7.76577e-06
-1.18748e-05
-0.034262
0.0342697
-5.60366e-06
-9.68165e-06
-0.0342768
0.0342836
-3.58639e-06
-7.68202e-06
-0.0342899
0.0342959
-1.55994e-06
-5.76233e-06
-0.0343013
0.0343064
6.35135e-07
-3.73999e-06
-0.0343109
0.0343152
2.97149e-06
-1.54266e-06
-0.0343191
0.0343228
5.35315e-06
7.44198e-07
-0.0343263
0.0343297
7.54818e-06
3.00676e-06
-0.0343331
0.0343365
8.87613e-06
4.77887e-06
-0.0343398
0.0343431
8.83382e-06
5.32086e-06
-0.0343462
0.0343496
8.38702e-06
4.86797e-06
-0.0343527
0.0345977
8.78101e-06
4.68118e-06
-0.0339814
0.0335359
-0.000561445
5.64548e-06
-0.000238179
-0.000334
-0.000405218
0.0341846
0.033633
0.000944312
-0.00157159
0.0338843
0.0336918
0.033466
-0.0340107
-0.000546182
-0.0332564
-0.00110994
0.0325725
-0.00105358
0.0343568
-0.0343545
-1.97744e-05
-2.30482e-05
0.0343522
-0.034593
-2.20085e-05
-2.57245e-05
0.0343474
-0.0343447
-2.30828e-05
-2.73957e-05
0.0343419
-0.034339
-2.39982e-05
-2.80229e-05
0.034336
-0.0343328
-2.61289e-05
-2.93921e-05
0.0343295
-0.0343261
-2.96052e-05
-3.21789e-05
0.0343224
-0.0343184
-3.36688e-05
-3.59561e-05
0.0343142
-0.0343096
-3.78246e-05
-3.99949e-05
0.0343046
-0.0342993
-4.19929e-05
-4.40717e-05
0.0342935
-0.0342873
-4.60826e-05
-4.81203e-05
0.0342806
-0.0342735
-5.01352e-05
-5.20817e-05
0.034266
-0.034258
-5.43569e-05
-5.61063e-05
0.0342497
-0.0342409
-5.89037e-05
-6.03866e-05
0.0342317
-0.034222
-6.38643e-05
-6.50428e-05
0.0342119
-0.0342012
-6.93495e-05
-7.01467e-05
0.0341901
-0.0341782
-7.55532e-05
-7.58808e-05
0.0341658
-0.0341528
-8.2444e-05
-8.23628e-05
0.0341394
-0.0337763
-9.00263e-05
-8.94109e-05
0.0337102
-0.03367
0.000183127
-9.72453e-05
0.0336548
-0.033916
0.000136325
0.000116339
-0.000147704
-6.27785e-06
-0.0338598
0.0340536
-0.0341497
-5.16392e-05
1.75963e-05
-0.00188963
0.033463
0.00141949
-0.00167728
-0.030988
-0.0311534
0.00097294
-0.00162488
-0.0308157
0.000247459
-0.0331004
-0.00208734
0.0331778
-0.000275015
5.17566e-05
-0.0339264
-0.0338758
0.0338536
-2.94485e-05
-0.0340192
-0.00013159
-0.00161122
-0.0313182
0.000134189
-0.0337809
-2.16534e-05
-0.0337863
0.00076526
-0.0012047
-0.0305486
0.0332628
-0.0334398
-0.000932899
-0.00179854
0.0324814
0.0330864
-0.00162217
-3.61361e-05
-0.030352
-0.0327669
-0.0317664
0.0324018
0.00051648
0.0312965
-0.0321513
0.000818644
0.000502987
-0.0329196
0.0333176
0.000338901
0.000481656
-0.0338047
0.0341227
-4.45545e-05
-5.05087e-05
-0.034137
0.0341504
-3.80228e-05
-4.35252e-05
-0.0341633
0.0341758
-3.23051e-05
-3.76223e-05
-0.0341876
0.0341989
-2.73047e-05
-3.22763e-05
-0.0342095
0.0342197
-2.31803e-05
-2.78862e-05
-0.0342293
0.0342386
-1.94519e-05
-2.40545e-05
-0.0342473
0.0342557
-1.61216e-05
-2.06218e-05
-0.0342635
0.034271
-1.30432e-05
-1.75206e-05
-0.0342779
0.0342844
-1.00952e-05
-1.46044e-05
-0.0342904
0.034296
-7.1387e-06
-1.17554e-05
-0.0343011
0.0343058
-4.08608e-06
-8.83391e-06
-0.0343101
0.0343141
-1.07195e-06
-5.85762e-06
-0.0343179
0.0343216
1.68398e-06
-3.03548e-06
-0.0343252
0.0343288
3.9422e-06
-5.67934e-07
-0.0343324
0.034336
5.22759e-06
1.18749e-06
-0.0343396
0.0343431
5.30727e-06
1.76395e-06
-0.0343465
0.0343498
5.09403e-06
1.4825e-06
-0.0343529
0.0343558
5.82006e-06
1.5878e-06
-0.0343586
0.0337893
7.81449e-06
2.87552e-06
-0.0335462
0.0329868
-0.00132
4.98055e-06
-0.0326762
0.0328438
-0.00225494
-0.0013825
-0.00115684
0.00071831
0.0338538
0.00176609
-0.00185567
0.0332674
0.0340822
1.26296e-05
-0.00039862
0.0345706
0.0343639
0.000602941
-0.000755337
0.0340367
0.0338961
0.000671974
-0.00162227
0.0334317
0.0333796
0.0338335
-0.0343608
-1.89211e-05
-0.00065985
0.0343585
-0.0343561
-2.21496e-05
-2.53643e-05
0.0343536
-0.034351
-2.46549e-05
-2.82127e-05
0.0343483
-0.0343453
-2.60756e-05
-3.00903e-05
0.0343421
-0.0343388
-2.73095e-05
-3.11749e-05
0.0343355
-0.034332
-2.95984e-05
-3.27611e-05
0.0343285
-0.0343249
-3.31705e-05
-3.56543e-05
0.0343213
-0.0343176
-3.74485e-05
-3.95652e-05
0.0343136
-0.0343094
-4.20465e-05
-4.39246e-05
0.0343049
-0.0343
-4.68956e-05
-4.85598e-05
0.0342947
-0.0342889
-5.18715e-05
-5.33939e-05
0.0342827
-0.0342759
-5.69146e-05
-5.83026e-05
0.0342687
-0.034261
-6.21158e-05
-6.33155e-05
0.0342528
-0.0342441
-6.75978e-05
-6.85464e-05
0.034235
-0.0342254
-7.34947e-05
-7.41222e-05
0.0342154
-0.0342047
-7.99796e-05
-8.01893e-05
0.0341937
-0.034182
-8.7267e-05
-8.69513e-05
0.0341698
-0.0341568
-9.53733e-05
-9.4566e-05
0.0341433
-0.034129
-0.000104299
-0.000102939
0.034114
-0.0338165
-0.000114343
-0.000112276
0.0339113
-0.0338193
4.43576e-05
0.000211129
5.18617e-05
-0.000169162
4.8013e-05
-0.0338052
-0.0339141
-0.000274312
-0.00206573
0.0330539
0.00212346
-0.00153768
-0.0309378
-0.0311593
0.00113151
-0.00102956
-0.0313973
0.000511503
-0.0334777
0.0331787
-0.00171455
-0.00124328
-0.0312796
-0.000133394
-0.0336692
-0.00146462
-0.0306216
2.03074e-05
-0.0337586
0.00024827
-0.0337937
-0.000368623
0.000151328
-0.0337083
0.000765588
-0.00146688
-0.0302365
0.0327922
-0.0327628
-0.0022843
0.0322745
-0.00154801
-0.000667486
-0.0297262
-0.0332849
-0.0320978
0.0326971
0.000219405
0.0313563
-0.0329128
0.000888942
0.000390028
-0.0328482
0.0331299
0.00023481
0.000351835
-0.0336877
0.0340955
-6.88846e-05
-7.61537e-05
-0.0341111
0.0341261
-5.94881e-05
-6.61686e-05
-0.0341402
0.0341537
-5.14997e-05
-5.76668e-05
-0.0341664
0.0341787
-4.45616e-05
-5.03631e-05
-0.0341903
0.0342015
-3.84712e-05
-4.39248e-05
-0.034212
0.0342221
-3.32746e-05
-3.84223e-05
-0.0342317
0.0342408
-2.8578e-05
-3.35973e-05
-0.0342494
0.0342575
-2.4258e-05
-2.91931e-05
-0.0342651
0.0342722
-2.01807e-05
-2.51005e-05
-0.0342788
0.034285
-1.62471e-05
-2.11935e-05
-0.0342906
0.0342959
-1.23849e-05
-1.73943e-05
-0.0343007
0.0343052
-8.59413e-06
-1.3645e-05
-0.0343094
0.0343134
-5.09209e-06
-1.00513e-05
-0.0343172
0.0343211
-2.14189e-06
-6.88704e-06
-0.0343249
0.0343287
7.85797e-08
-4.36108e-06
-0.0343326
0.0343365
1.33591e-06
-2.66996e-06
-0.0343402
0.0343439
1.65826e-06
-1.99467e-06
-0.0343473
0.0343505
1.87289e-06
-1.92956e-06
-0.0343535
0.0343563
3.01973e-06
-1.3999e-06
-0.0343589
0.0343614
5.27449e-06
2.82619e-07
-0.0343637
0.0336075
-0.000563814
2.73405e-06
-0.000537847
-0.000710067
0.000459959
0.0335175
0.0012708
0.0324552
-0.00145157
0.0336146
-0.000714225
-1.1514e-05
0.0345796
0.033828
1.23157e-05
-1.32669e-05
0.0345715
0.0343647
0.000480988
-0.000588876
0.0341446
0.0343639
0.00104668
-0.00138276
0.0337678
0.0338374
-0.00126845
0.0330644
0.0333888
-0.0337295
-0.000592149
-0.0330011
0.0327373
-0.00145077
-0.00123446
0.034365
-0.0343628
-2.11331e-05
-2.43325e-05
0.0343606
-0.0343582
-2.45347e-05
-2.75861e-05
0.0343557
-0.034353
-2.7398e-05
-3.07367e-05
0.03435
-0.0343468
-2.93062e-05
-3.30253e-05
0.0343434
-0.0343397
-3.09811e-05
-3.46147e-05
0.0343359
-0.0343321
-3.34371e-05
-3.65096e-05
0.0343283
-0.0343245
-3.69744e-05
-3.94449e-05
0.0343208
-0.034317
-4.12508e-05
-4.33092e-05
0.0343131
-0.0343091
-4.60608e-05
-4.77602e-05
0.0343049
-0.0343004
-5.14099e-05
-5.27435e-05
0.0342956
-0.0342903
-5.71866e-05
-5.82271e-05
0.0342845
-0.0342782
-6.3237e-05
-6.40515e-05
0.0342714
-0.034264
-6.95076e-05
-7.01108e-05
0.0342562
-0.0342477
-7.60358e-05
-7.63971e-05
0.0342388
-0.0342294
-8.29619e-05
-8.29999e-05
0.0342195
-0.034209
-9.04911e-05
-9.00956e-05
0.034198
-0.0341864
-9.8847e-05
-9.79064e-05
0.0341744
-0.0341616
-0.000108144
-0.000106622
0.0341482
-0.0341341
-0.000118445
-0.000116288
0.0341193
-0.0341037
-0.000129978
-0.000127066
0.0337533
-0.0335661
-0.000142908
-0.000139201
0.0336511
-0.033699
1.84626e-05
0.00013686
0.0336783
-0.0335812
-0.000371416
-0.000152235
9.13503e-05
-0.0338599
-2.51938e-05
0.0343464
-0.0336882
-0.000566878
0.000396592
0.00287708
-0.0018692
-0.0307341
-0.0319752
0.00193949
-0.000633565
-0.032007
0.00038389
-0.033995
0.000336179
-0.0338138
-0.000210603
-0.0336757
0.000152019
-0.000914517
-0.0318297
6.66994e-05
-0.0337156
-0.000961946
-0.0311265
-0.000166718
-0.0334406
-0.00107913
0.000468271
0.0330661
0.0325136
-0.0323291
-0.00163607
0.0328333
-0.00139887
-0.0016587
-0.030447
4.33038e-05
-0.0337768
0.00325899
-0.00300577
-0.0309873
-0.00166091
0.0331298
0.0027413
-0.0314575
-0.0335346
-0.0324675
0.0331715
0.000184991
0.0322394
-0.0313659
0.00186786
0.00171137
-0.0329448
0.033276
-0.000111872
0.000616728
-0.0337344
0.0340669
-9.773e-05
-0.000106537
-0.034084
0.0341003
-8.5163e-05
-9.3213e-05
-0.0341157
0.0341305
-7.42243e-05
-8.16164e-05
-0.0341444
0.0341577
-6.48012e-05
-7.15802e-05
-0.0341703
0.0341823
-5.6632e-05
-6.2933e-05
-0.0341938
0.0342048
-4.94735e-05
-5.53875e-05
-0.0342152
0.0342251
-4.31891e-05
-4.88028e-05
-0.0342344
0.0342433
-3.74449e-05
-4.29219e-05
-0.0342516
0.0342594
-3.20626e-05
-3.74701e-05
-0.0342666
0.0342733
-2.69405e-05
-3.2323e-05
-0.0342796
0.0342854
-2.20467e-05
-2.74102e-05
-0.0342907
0.0342957
-1.73946e-05
-2.27293e-05
-0.0343004
0.0343048
-1.30617e-05
-1.83121e-05
-0.0343091
0.0343133
-9.27593e-06
-1.43106e-05
-0.0343174
0.0343215
-6.25612e-06
-1.09782e-05
-0.0343256
0.0343297
-4.06515e-06
-8.45253e-06
-0.0343338
0.0343378
-2.70803e-06
-6.75603e-06
-0.0343417
0.0343453
-1.98528e-06
-5.83598e-06
-0.0343487
0.0343517
-1.20035e-06
-5.2584e-06
-0.0343545
0.0343571
4.35572e-07
-4.18451e-06
-0.0343595
0.0343618
3.01191e-06
-2.10664e-06
-0.0343639
0.0339624
-0.000162319
6.25085e-07
-0.0337058
0.0327476
-0.00132612
-0.000281243
-0.00112949
-0.000759039
0.000530802
0.0337457
0.0333239
1.03882e-05
-1.11579e-05
0.0345803
0.0343692
1.20435e-05
-1.30644e-05
0.0345725
0.0343656
1.41313e-05
-0.00043403
0.0345645
0.0343649
0.0009648
-0.000757431
0.0335604
0.0343682
0.0328669
-0.0332733
-0.00104435
0.0329282
-0.00172215
0.00148103
-0.0017135
0.0333622
0.033788
0.0337965
-0.0343689
-1.97712e-05
-0.0007113
0.034367
-0.034365
-2.31532e-05
-2.6234e-05
0.0343628
-0.0343606
-2.68227e-05
-2.97018e-05
0.0343581
-0.0343554
-3.01082e-05
-3.31798e-05
0.0343524
-0.0343491
-3.26282e-05
-3.5993e-05
0.0343455
-0.0343416
-3.48664e-05
-3.82e-05
0.0343376
-0.0343335
-3.75881e-05
-4.05265e-05
0.0343294
-0.0343252
-4.10985e-05
-4.3562e-05
0.0343212
-0.0343172
-4.52768e-05
-4.73354e-05
0.0343132
-0.0343092
-5.01139e-05
-5.17337e-05
0.034305
-0.0343007
-5.5743e-05
-5.68574e-05
0.0342962
-0.0342912
-6.21276e-05
-6.27782e-05
0.0342859
-0.0342801
-6.90766e-05
-6.93629e-05
0.0342738
-0.0342669
-7.64132e-05
-7.64133e-05
0.0342595
-0.0342514
-8.40693e-05
-8.37989e-05
0.0342429
-0.0342337
-9.21318e-05
-9.15303e-05
0.0342241
-0.0342138
-0.000100789
-9.97529e-05
0.034203
-0.0341916
-0.000110267
-0.000108681
0.0341797
-0.0341671
-0.000120744
-0.000118525
0.0341539
-0.03414
-0.000132378
-0.00012944
0.0341254
-0.0341101
-0.000145372
-0.000141605
0.034094
-0.0340771
-0.000159857
-0.000155207
0.0337698
-0.0335752
-0.000176143
-0.000170419
0.0335399
-0.0339197
8.35959e-06
-0.000187522
0.0335058
-0.0334648
-0.00060788
-1.73331e-05
-0.00011183
0.000389703
-0.0340917
0.0337254
-0.0339515
0.000114209
5.00574e-05
0.00233221
-0.00261831
-0.0311714
-0.0310827
0.00204901
-0.03339
0.000103981
-5.28818e-05
-2.54455e-05
-0.0340133
-0.0340894
8.50189e-05
-0.000481098
-0.0324405
4.44043e-05
-0.0339727
-0.000654933
-0.0321367
6.94695e-05
-0.0339518
-0.00127047
0.000952051
0.0333845
-0.00170316
0.033266
-0.00121552
-0.0315697
9.7219e-05
-0.0334945
-0.00159771
-0.0318551
-0.000107071
-0.0335177
-0.00193183
-0.0316738
0.032553
-0.00133833
-0.00131775
-0.0312751
0.00151014
-0.000860159
-0.031629
-0.0334661
5.06598e-05
-0.000200195
-2.46664e-05
-0.0337885
-0.00017695
-0.0341126
0.000976279
-0.00123634
-0.0310151
-0.0304628
0.0311253
0.0008477
0.0325488
-0.0322551
-0.00192978
0.0328065
-0.00165656
-0.0312564
0.00176983
-0.0339713
-0.0315061
0.0327633
0.00061064
0.00166815
-0.0334357
0.0335319
8.88058e-05
0.00103902
-0.0340173
0.0340371
-0.00013164
0.000131317
-0.0340556
0.0340734
-0.000115475
-0.0001251
-0.0340901
0.0341062
-0.000101173
-0.000109992
-0.0341213
0.0341357
-8.86754e-05
-9.67398e-05
-0.0341494
0.0341624
-7.78612e-05
-8.52269e-05
-0.0341748
0.0341866
-6.84767e-05
-7.52835e-05
-0.0341978
0.0342086
-6.02112e-05
-6.66043e-05
-0.0342187
0.0342283
-5.27979e-05
-5.89074e-05
-0.0342373
0.0342458
-4.59369e-05
-5.19073e-05
-0.0342537
0.0342611
-3.94586e-05
-4.53516e-05
-0.0342679
0.0342743
-3.33237e-05
-3.91458e-05
-0.0342801
0.0342857
-2.75844e-05
-3.32991e-05
-0.0342908
0.0342958
-2.23277e-05
-2.78896e-05
-0.0343005
0.0343051
-1.76628e-05
-2.3009e-05
-0.0343096
0.034314
-1.37502e-05
-1.87918e-05
-0.0343184
0.0343229
-1.06923e-05
-1.53915e-05
-0.0343273
0.0343316
-8.4219e-06
-1.28244e-05
-0.0343358
0.0343399
-6.78305e-06
-1.09668e-05
-0.0343437
0.0343472
-5.5078e-06
-9.6284e-06
-0.0343504
0.0343532
-4.06096e-06
-8.4152e-06
-0.0343558
0.0343581
-1.90825e-06
-6.73342e-06
-0.0343603
0.0343623
9.71218e-07
-4.25862e-06
-0.0343642
0.0341978
4.09261e-06
-1.283e-06
-0.033915
0.0332013
-0.000612429
1.55997e-06
-0.0001833
-0.000271133
-9.39457e-06
0.0340262
0.0340048
1.00714e-05
-1.08722e-05
0.0345811
0.0343698
1.17978e-05
-1.28799e-05
0.0345736
0.0343665
1.40369e-05
-1.52406e-05
0.0345657
0.0343661
1.62807e-05
-0.000618672
0.0341628
0.0343693
0.000613636
-0.000875194
0.0336238
0.0337829
-0.0337706
0.0337553
-0.000161649
-0.000459798
0.000109321
-0.0337621
-0.0338055
-0.000424803
-0.00149643
0.0331742
0.0332921
-0.0336854
-0.000650988
-0.0328115
0.0328071
-0.00133394
-0.00124156
0.034372
-0.0343704
-2.1424e-05
-2.47081e-05
0.0343687
-0.0343669
-2.49969e-05
-2.79179e-05
0.0343649
-0.0343628
-2.89393e-05
-3.16485e-05
0.0343605
-0.0343579
-3.26695e-05
-3.54605e-05
0.0343551
-0.0343519
-3.58534e-05
-3.88338e-05
0.0343484
-0.0343445
-3.87529e-05
-4.17323e-05
0.0343404
-0.0343361
-4.18825e-05
-4.46118e-05
0.0343318
-0.0343274
-4.54987e-05
-4.78924e-05
0.034323
-0.0343187
-4.9629e-05
-5.16734e-05
0.0343144
-0.0343101
-5.44274e-05
-5.60133e-05
0.0343058
-0.0343014
-6.01573e-05
-6.11521e-05
0.0342968
-0.0342921
-6.69035e-05
-6.72913e-05
0.034287
-0.0342816
-7.45264e-05
-7.43913e-05
0.0342758
-0.0342694
-8.28009e-05
-8.22509e-05
0.0342625
-0.034255
-9.15795e-05
-9.06709e-05
0.0342469
-0.0342382
-0.000100855
-9.95731e-05
0.034229
-0.034219
-0.000110744
-0.000109018
0.0342085
-0.0341974
-0.000121435
-0.000119163
0.0341857
-0.0341733
-0.000133136
-0.000130212
0.0341603
-0.0341466
-0.000146066
-0.000142375
0.0341324
-0.0341173
-0.000160448
-0.000155876
0.0341016
-0.034085
-0.000176446
-0.000170912
0.0340678
-0.0340495
-0.000194348
-0.000187674
0.0340306
-0.0338076
-0.000214573
-0.000206501
0.0335972
-0.0339678
-0.000237245
-0.000227813
0.0339274
-0.0338358
2.26039e-05
9.67898e-06
4.45959e-06
-2.21181e-05
-0.0330733
4.5811e-05