/*--------------------------------*- C++ -*----------------------------------*\
  =========                 |
  \\      /  F ield         | OpenFOAM: The Open Source CFD Toolbox
   \\    /   O peration     | Website:  https://openfoam.org
    \\  /    A nd           | Version:  10
     \\/     M anipulation  |
\*---------------------------------------------------------------------------*/
FoamFile
{
    format      ascii;
    class       surfaceScalarField;
    location    "4";
    object      phi;
}
// * * * * * * * * * * * * * * * * * * * * * * * * * * * * * * * * * * * * * //

dimensions      [0 3 -1 0 0 0 0];

internalField   nonuniform List<scalar> 
81299
(
0.0326766
0.0261912
-0.0398119
-0.0190559
0.0509472
-0.0305267
0.0122561
-0.0528286
-0.0246313
0.019943
0.0575169
-0.00889336
0.029332
-0.0732673
0.0753645
-0.0790085
-0.00524943
0.058497
-0.00776367
0.0830529
-0.00461301
-0.0436856
0.0345302
0.0666724
0.0440895
-0.0584431
-0.0574385
-0.0308729
0.0106828
0.0776286
0.00182442
-0.034978
-0.0242849
0.0366509
-0.00758883
-0.0272377
-0.0174849
0.023263
-0.0423823
-0.000612242
0.0536773
-0.0200459
0.00926253
-0.0315989
-0.0288327
-0.126293
0.0306687
0.110984
-0.0153598
-0.00871015
0.0184264
-0.0198063
0.0205078
0.0250287
-0.0200675
-0.025469
0.00151869
0.0528188
-0.0338297
-0.0378776
-0.033871
-0.0112956
0.00336416
0.0155122
-0.00758075
-0.0175303
-0.00135411
-0.000530671
-0.0379591
-0.078663
0.0264863
0.0828454
0.0357091
-0.0476997
0.0796309
0.013718
-0.0668626
0.0747284
-0.00624857
0.011151
-0.0599911
0.0331041
0.0468636
-0.0199767
-0.00929301
-0.0909045
0.0402064
0.0729958
-0.00756045
-0.0143077
-0.000178584
0.0194763
0.0042802
-0.0235779
0.0147543
0.000669035
-0.0156019
-0.00268356
0.00942832
0.00800952
0.0140605
0.00273219
0.0355608
-0.0345846
-0.0127176
0.0117414
0.00027623
0.0381714
-0.00288682
0.00426483
-0.0214277
-0.0174217
-0.0269985
0.0292043
0.00205899
0.000951551
-0.0283356
0.000385576
0.0038321
-0.0243083
-0.0287318
0.0151422
0.00204024
-0.0286865
-0.00168938
0.00654737
-0.0288154
-0.0265941
0.0044096
-0.0350687
-0.0350048
0.0222955
0.0477779
-0.0314453
0.0190001
-0.0226235
0.0207911
-0.0438046
-0.0084318
-0.0372144
0.0230007
-0.0427281
0.0265595
0.039162
-0.0229934
0.0224218
-0.0428543
0.0898581
0.0173872
-0.0537423
-0.053503
-0.00534113
0.028271
0.0669283
-0.063329
0.0569096
0.00107831
0.0100945
-0.0560363
0.0211334
-0.0417715
0.06496
-0.0715994
0.0927148
-0.0466717
0.0189169
0.0624324
0.0585534
-0.0443515
0.0370465
0.0393573
-0.0320524
0.0284397
-0.0462317
0.0499483
0.0237634
-0.0452719
0.0173421
0.0696527
0.000888182
-0.000432797
-0.00154432
0.00108893
-0.00106613
0.00195431
-0.00149892
-0.000407164
0.000229312
0.00146954
-0.00129169
0.000245441
-0.000652604
0.000474752
2.26259e-05
0.000563043
0.000553819
-0.00113949
0.000323649
-0.000301023
0.000886692
0.0585855
0.00130465
-0.0102667
-0.0496235
0.045797
-0.0311371
0.0439255
-0.0445937
-0.0231627
-0.0201263
0.0089384
-0.0162729
-0.00887251
0.016207
-0.0538137
0.0209159
0.033174
-0.0248411
-0.0200342
-0.0255567
0.0464727
0.00983148
-0.0244744
0.0305843
-0.0159414
-0.0290544
-0.00491873
-0.00106933
-0.0016894
-0.0262957
-0.00101158
-0.0245321
-0.0208445
-0.0234134
0.028697
0.0155609
-0.00727956
0.0183751
-0.03194
0.00487935
-0.0355723
0.0668512
0.0427855
-0.0201746
-0.0894621
0.0185642
-0.118113
0.105835
-0.00628549
0.0929922
-0.00757678
0.005261
-0.0631027
-0.0602718
0.0442831
-0.0799049
-0.00970437
0.0453262
0.0128901
0.0338949
-0.0206027
-0.0263497
0.0130575
-0.0317934
0.0625849
0.00310337
-0.0146214
-0.0274387
-0.00480656
-0.0304176
-0.0312919
0.00013563
0.117952
0.00173289
-0.047619
0.0455184
0.0716846
0.000748733
0.000200074
0.00108033
-0.00105556
-0.00022485
0.000245825
0.00263825
-0.002684
-0.00475408
0.00460024
-0.0023245
0.00247833
-0.00793441
0.00333027
-0.000149938
0.0281518
0.0222868
-0.0310917
-0.019347
0.0215217
0.01508
0.00142857
-0.0122683
-0.00424021
0.00290278
0.00572848
0.00644869
-0.00354306
-0.00866543
0.0114782
0.000730271
0.0151608
-0.0046433
-0.0146908
0.0374232
0.022786
0.0219598
0.010587
-0.00803154
-0.0245153
-0.0244524
-0.00321127
0.0287079
-0.0146598
0.0241232
0.0187018
0.0431801
-0.0249769
-0.00436368
0.0293405
-0.010787
-0.0141899
-0.0242347
0.0348692
-0.0214215
0.00481894
-0.0120379
-0.0170158
-0.000984348
-0.00424787
0.00523222
-0.00649403
-0.00723504
0.0127447
-0.00937094
0.00327131
-0.00314272
-0.028944
-0.0256181
0.00229532
-0.0224165
-0.0220077
0.00400084
0.0125083
-0.00666288
-0.00584546
-0.0106544
0.0340985
0.00248405
0.00281094
0.0381348
-0.0379727
0.00356942
0.0334765
0.000926739
-0.0282067
0.00290248
-0.0126685
0.0299868
0.0137903
-0.0259293
-0.0178478
0.0238271
0.0269628
-0.0324148
0.0153648
0.0371593
0.0523698
0.0173785
-0.00110761
0.0370452
0.00244417
-0.0383818
0.0416938
-0.0390202
-0.00378112
-0.000150508
-0.000242484
0.0420867
-0.00500859
0.0419033
0.0352542
-0.0259977
-0.00842646
-0.000830052
0.0405258
-0.0028274
-0.0101119
-0.00115202
0.00280844
0.00845544
-0.00965863
0.000785149
-0.00123838
-0.00544136
-0.00691183
0.00269456
-0.00349334
0.002792
0.00125516
-0.000654126
-0.000672836
0.000187474
-0.00124469
0.0167718
-0.017446
0.029991
0.0543833
0.0443399
-0.00487634
-0.000138844
0.00122485
0.00351423
-0.000969062
0.000934168
-0.00010395
-0.0028309
-0.000462663
0.000119289
0.00203973
-0.000964605
-0.0045451
-0.0024247
-0.00284125
-0.00095425
-0.00535027
-0.00203609
-0.00673947
0.00892732
-0.00120983
-0.000978015
-0.0124102
0.00744532
-0.0017746
-0.0135009
0.00174902
-0.000658275
-0.000770182
0.000954071
0.0187693
0.000202318
-0.03124
0.0233414
0.00115645
-0.0268646
-0.0017157
0.0519217
-0.0433018
0.0194918
0.0413811
0.0013967
-0.0338505
0.00700309
-0.0084111
-0.0003077
-0.000872163
0.00786965
5.60274e-06
0.0238118
-0.00782406
0.00056941
-0.0369427
-0.0185764
0.025954
0.0295652
-0.00549491
0.0266181
0.0196967
-0.00783355
-0.0384813
-0.0157297
0.00820499
0.0341428
0.0268743
-0.0229073
0.00104103
0.000904553
0.000532746
0.00348874
0.000882567
-0.0127147
0.00933479
0.00222788
-0.0121047
0.000175119
0.0656028
-0.0026026
-0.0501102
0.0262362
-0.00730507
0.0243216
0.0079589
-0.00260828
-0.0296722
-0.0151828
0.00260029
0.0369041
0.0215431
-0.0287669
-0.0182765
-0.0164305
0.022678
0.012029
0.00390402
0.00209326
-0.0242738
0.0152411
-0.0277675
0.0224239
-0.0422775
0.0179839
-0.0388619
0.00319278
0.00244476
0.00666822
-0.0123058
-0.00124438
0.00439857
3.86023e-05
-0.00261942
0.000604856
-0.00441487
0.0480863
0.0145938
-0.0281547
-0.0345254
0.0124619
0.0749818
-0.0284113
0.000598838
0.0402743
-0.0254425
0.0116251
-0.00439941
3.33604e-05
0.000957168
0.00340889
-7.88743e-05
-0.00407471
0.00189857
-0.00197744
0.00193193
-0.0268793
0.031392
-0.00191247
0.00104131
-0.0305289
-0.00366962
0.00067524
0.00162364
-0.0167875
-0.00496245
-0.00247405
-0.0203547
0.0382307
-0.00520895
-0.0477125
0.018305
0.0238858
-0.00396013
0.0495056
0.0354802
0.0381243
-0.0222367
-0.0513678
0.0296989
0.035819
-0.0300376
-0.0252345
0.0263316
0.0286018
-0.0202345
0.0331243
0.0590437
0.0237058
-0.011065
-0.00689265
0.0436996
0.0172477
-0.0177876
0.0233987
-0.02783
0.021679
-0.0298922
-0.00193695
0.00174585
-0.0297547
-0.0018834
-0.00302129
0.039575
0.0129519
-0.0263192
0.0167045
0.00961473
0.0218394
0.0226757
-0.0181835
-0.00601799
0.000441259
0.00624577
-0.0439239
0.0157896
-0.00173708
0.0298714
-0.0389028
0.00375195
-0.008773
0.00466308
-4.43268e-06
-0.00404485
-0.000613805
0.00381847
-0.000210936
0.0401302
-0.0236365
0.0134973
0.00678953
-0.00888794
-0.00462901
0.00672742
-0.0073271
0.00358387
0.0105328
0.000618311
0.0074586
-0.015404
0.00217003
-0.0104397
-0.0100102
0.00452011
0.00086111
0.00611346
-0.00613733
0.00338803
0.00414075
0.00167056
0.000227132
-0.0018977
0.000499518
0.00117104
0.0179831
0.0133026
-0.00838623
-0.0228995
0.0177456
-0.0279172
-0.0212059
0.013509
-0.0107008
0.00279751
0.0360631
-0.0070867
-0.0338951
-0.00472921
0.0323605
-0.0335871
0.00476661
0.0240913
-0.0114962
-0.0291775
0.0183899
0.0341754
-0.0118669
-0.0406984
0.0267429
-0.0407954
0.0324424
-0.0176886
0.0042546
0.0401769
0.0425255
-0.0260387
0.00178131
-0.0209495
1.93595e-05
0.0191488
-0.0169796
-0.00723677
-0.0221395
-0.00718076
-0.000659432
0.00244662
-0.00804824
-0.00157914
0.00277901
-0.000991826
0.00129002
-0.00143528
-0.00852017
-0.0031731
0.00446312
-0.00460838
0.00175642
0.000169131
0.00247301
-0.000980276
0.0027367
-0.000811145
-0.0149647
-0.0102279
0.0159353
0.0092573
0.0033753
0.00558374
-0.0239238
0.017913
-0.0247656
-0.0024397
-0.0172615
0.00957879
0.0101224
0.0152182
-0.0298119
0.0361367
-0.041484
0.00583727
0.0510968
-0.0154501
-0.0330401
0.000439195
0.0325691
3.17834e-05
0.00181899
0.0335485
-0.0329283
-0.0024391
0.00145687
0.0348555
-0.0344934
0.00186121
0.0348631
-0.0352674
0.00174794
0.0351533
-0.03504
0.000608482
0.0349145
-0.033775
0.00263841
0.0342075
-0.0362374
0.00475814
0.0331585
-0.0352782
0.00470267
0.0343944
-0.0343389
0.00606337
0.0329031
-0.0342638
0.00600114
0.0339784
-0.0339162
0.00718671
0.0326879
-0.0338735
0.00712581
0.0336219
-0.033561
0.00815328
0.0325184
-0.0335459
0.00809526
0.0333212
-0.0332632
0.00898137
0.0323867
-0.0332728
0.00892737
0.0330705
-0.0330165
0.0109033
0.0310718
-0.0330477
0.0102446
0.0334772
-0.0328185
0.0102943
0.0328222
-0.0328718
0.0102507
0.0327037
-0.0326601
0.0108116
0.0321733
-0.0327343
0.0107742
0.032582
-0.0325446
0.0112568
0.0321556
-0.0326381
0.0112259
0.0324988
-0.0324679
0.0116432
0.0321631
-0.0325805
0.0116191
0.0324536
-0.0324295
0.0119832
0.0321973
-0.0325614
0.0119665
0.0324467
-0.03243
0.0122881
0.0322604
-0.032582
0.0122795
0.0324796
-0.032471
0.0125684
0.0323558
-0.0326447
0.0125689
0.0325551
-0.0325556
0.0128313
0.0324896
-0.032752
0.00961832
0.0359008
-0.0326878
0.0111674
0.0313606
-0.0329097
0.0210965
0.0270575
-0.0369865
-0.0123997
0.00350418
0.029992
-0.038032
0.0292017
-0.0359478
-0.00339725
0.00427356
0.0350715
-0.00325915
0.00107407
-0.0337627
-0.00461139
0.0357921
-0.0344399
0.0359955
-0.00595215
-0.0346547
0.00420657
-0.00491893
0.0367079
0.0366015
-0.00515711
0.00255023
0.0361553
0.0349031
-0.0357867
-0.00214383
0.00147766
0.0355292
0.0352619
-0.00104669
0.000987255
0.0349739
0.0355843
-0.00117227
0.00126628
0.0330645
0.0340225
-0.00115132
0.00104232
0.0330121
0.0345094
-0.000933296
0.000831281
0.03279
0.0340874
-0.00073131
0.000637886
0.0326118
0.0337219
-0.000546487
0.000460296
0.0324729
0.0334126
-0.000948681
-0.000917722
0.0329382
0.0325821
0.000384945
0.000144504
0.0322927
0.0329444
-7.10223e-05
3.84312e-07
0.032244
0.0327772
6.86395e-05
-0.000135395
0.0322223
0.032651
0.000201207
-0.000265189
0.0322271
0.0325646
0.000328395
-0.000390158
0.0322591
0.0325168
0.000451325
-0.000511377
0.0323205
0.0325079
0.000571008
-0.000629784
0.0324146
0.0325392
0.000688205
-0.000510616
0.032312
0.0326136
-0.00312699
0.00180966
0.0326779
0.0322632
0.0323713
0.00249454
0.00161722
-0.0370401
-0.0346572
0.0382258
-0.00244782
0.00212846
-0.0349481
-0.035324
-0.00172354
0.00343724
-0.0354887
-0.0346351
-0.00330158
0.00215768
-0.0341343
-0.0361018
-0.00126248
0.00113433
-0.0341356
-0.0334437
-0.00101179
0.000898344
-0.0337601
-0.0337936
-0.000788542
0.000686056
-0.0334434
-0.0334512
-0.000586836
0.000493362
-0.0331793
-0.033164
-0.000402739
0.000317758
-0.0329627
-0.0329258
-0.00023253
0.00015213
-0.0327914
-0.0327333
-7.51327e-05
1.64324e-07
-0.0326593
-0.0325831
7.29701e-05
-0.000144249
-0.0325669
-0.0324715
0.000213888
-0.000282141
-0.0325122
-0.0323983
0.000348978
-0.000414886
-0.0324955
-0.0323627
0.000479576
-0.00054373
-0.0325178
-0.0323653
0.000606804
-0.000669481
-0.032582
-0.0324079
0.000730504
-0.000789122
-0.0326934
-0.0324946
0.000845896
0.000477496
-0.0342331
-0.032631
0.0025869
-0.00771225
-0.0329066
-0.0339221
-0.00595309
-0.0368831
0.0379173
-0.0378797
-0.00635359
0.0382802
0.0068334
-0.00805653
-0.0366565
-0.0360019
-0.03818
-0.00981824
0.0416446
-0.037205
-0.00903145
-0.0120309
-0.0385828
-0.00307469
0.00180064
0.031266
-0.0044564
0.0305834
-0.00108918
-0.0348298
0.00384669
-0.00525888
-0.0330277
0.00326438
-0.0331804
-0.00570725
-0.0342064
-0.00775797
0.00650798
-0.0354066
-0.0360032
-0.0089598
-0.0473857
-0.00596996
0.0414887
-0.00915153
-0.0435777
-0.00144526
0.0381423
-0.00349291
0.00387745
0.0378956
0.0367064
-0.0037788
0.00308339
0.0374033
0.0380159
-0.00297588
0.00146465
0.0365827
0.036709
-0.00105296
0.00116711
0.0360412
0.0353148
-0.00119961
0.00156446
0.0351644
0.0352294
-0.00141941
0.00161543
0.0347779
0.0357293
-0.00197687
0.00115073
0.0338906
0.033661
-0.00103558
0.000929883
0.0331178
0.0346245
-0.000829701
0.000733627
0.032886
0.0341876
-0.000641882
0.000553663
0.0327001
0.0338136
-0.000469422
0.00038825
0.0325541
0.0334969
-7.65793e-05
0.000233696
0.032781
0.0328937
-0.000161419
9.12393e-05
0.0323629
0.0330167
-2.2691e-05
-4.41586e-05
0.0323108
0.0328457
0.000109068
-0.000172654
0.0322859
0.0327159
0.000234592
-0.000295526
0.032288
0.0326266
0.000355164
-0.000414021
0.032318
0.0325765
0.000471881
-0.000529152
0.0323777
0.0325658
0.000585712
-0.00064181
0.0324707
0.0325958
0.000697121
-0.000986357
0.0326012
0.0326689
0.00089234
-0.00115372
0.0329393
0.0321692
0.0330182
-0.00306894
0.0320891
-0.0343781
-0.00423957
0.0375285
-0.034259
0.0362782
-0.00109243
-0.00649655
-0.02486
-0.00302887
0.00198086
-0.0359921
-0.0344216
-0.00191247
0.00192023
-0.0349558
-0.0352556
-0.00266048
0.0023681
-0.0351963
-0.0353754
-0.000894013
0.00079177
-0.0340321
-0.0346277
-0.00139923
0.00126375
-0.0340001
-0.0340512
-0.00113857
0.00101864
-0.0336401
-0.0336684
-0.000906117
0.000797611
-0.0333349
-0.0333387
-0.000695382
0.000596384
-0.0330803
-0.0330618
-0.00050285
0.000412115
-0.032872
-0.0328323
-0.000325724
0.000240601
-0.0327063
-0.0326469
-0.000159388
7.99965e-05
-0.0325799
-0.0325019
-3.69457e-06
-7.1471e-05
-0.0324917
-0.0323952
0.000143921
-0.000215717
-0.0324404
-0.0323258
0.000285227
-0.000354403
-0.0324263
-0.0322932
0.000421649
-0.000488833
-0.0324507
-0.0322981
0.000554395
-0.000620299
-0.0325161
-0.0323424
0.000685714
-0.000753052
-0.0326261
-0.0324292
0.000819154
-0.00166372
-0.0333885
-0.0325649
0.00266835
-0.00158709
-0.0339879
-0.0329175
0.00258356
-0.0342319
-0.00272974
-0.0338333
-0.0352012
0.00429842
-0.00468547
-0.0326406
0.00345793
-0.0323399
-0.00548967
-0.0334022
-0.0057817
0.00547072
-0.0350956
-0.00559983
-0.0361851
-0.00255975
0.00232198
-0.0339942
-0.0339037
0.0349075
-0.00373352
-0.00229875
-0.0341647
-0.0113795
-0.0451577
-0.0390376
-0.00857667
0.000348184
0.0328611
-0.0390037
-0.00899367
-0.0327698
7.78584e-05
-0.0066788
0.00703749
0.0421668
-0.0459064
-0.00154754
0.0456136
-0.0437955
0.00401913
-0.0026255
0.041903
0.00633613
0.0417925
-0.00598893
0.00492319
0.039208
0.0412254
-0.00297915
0.00255466
0.0383201
0.0386505
-0.00281734
0.00339118
0.0368294
0.0377533
-0.00183892
0.00287616
0.0355455
0.0382612
-0.000843503
0.00199991
0.0348848
0.0373475
-0.000673229
0.00149191
0.0343457
0.0365561
-0.00136022
0.00224481
0.0338933
0.035861
-0.000649709
0.0010187
0.0335216
0.0352561
-0.000914062
0.000813779
0.033218
0.0347292
-0.00072143
0.000631256
0.0329762
0.0342799
-0.000547374
0.000464797
0.0327826
0.0338975
-0.000387583
0.0003114
0.0326303
0.0335741
9.8995e-05
0.000168419
0.0325136
0.0333041
-0.000101106
3.44433e-05
0.0324296
0.033084
2.88583e-05
-9.19303e-05
0.0323739
0.032909
0.000152311
-0.000212451
0.0323461
0.0327763
0.000270343
-0.00032807
0.0323458
0.0326845
0.000384
-0.000439838
0.0323738
0.0326324
0.000494271
-0.000548671
0.0324321
0.0326202
0.000602019
-0.000655452
0.0325241
0.0326491
0.000708377
-0.000761262
0.0326541
0.0327218
0.00119489
-0.00132825
0.0330727
0.0326028
0.000986983
-0.0021297
0.0324087
0.032677
0.00287423
-0.00254332
0.0317582
0.031328
0.0307569
0.0316403
-0.0340395
-0.00409734
-0.00222193
-0.00337157
-0.00296176
0.00237201
-0.0354024
-0.0339255
-0.0025226
0.00270764
-0.0351409
-0.0354062
-0.00217168
0.00168411
-0.0347088
-0.0348394
-0.00139785
0.00162191
-0.0342561
-0.0343414
-0.00147506
0.00133202
-0.0338571
-0.0339043
-0.00119931
0.00107271
-0.0335135
-0.0335357
-0.000954529
0.000840593
-0.033221
-0.0332205
-0.000733678
0.000630067
-0.0329767
-0.0329548
-0.000532503
0.000437321
-0.0327768
-0.0327347
-0.000347167
0.00025879
-0.0326179
-0.0325567
-0.000174934
9.23221e-05
-0.0324973
-0.032418
-1.34445e-05
-6.48071e-05
-0.0324134
-0.0323163
0.000139784
-0.000214532
-0.0323657
-0.0322508
0.000286455
-0.000358528
-0.0323543
-0.0322213
0.000428147
-0.000498227
-0.0323806
-0.0322285
0.00056614
-0.000634705
-0.0324475
-0.0322744
0.000700985
-0.000767197
-0.0325599
-0.0323629
0.000831868
-0.00149507
-0.0327253
-0.0325002
0.00154214
-0.00200725
-0.0335228
-0.0328704
-0.0335185
-0.0352201
-0.00686867
-0.0377348
0.00428229
-0.00436269
-0.0325602
0.00447391
-0.0325315
-0.0348862
0.0338185
-0.00266581
-0.0346361
-0.00254884
-0.00393192
-0.0338329
-0.0514481
-0.00583783
0.00484438
0.00199515
0.0257296
-0.030398
0.0201084
0.0151341
0.00122521
-0.0465682
-0.0117746
-0.0403798
-0.0410387
-0.0158937
-0.00306978
0.00304161
0.0419312
-0.0388609
-0.00714381
0.0429349
0.0147014
-0.0472261
-0.0389838
-0.0103897
-0.00695507
-0.0388974
-0.00298312
0.00402233
0.0411276
0.041851
-0.00484381
0.0041298
0.0399221
0.0404039
-0.00276049
0.00357925
0.0375014
0.0400198
-0.00185434
0.00216365
0.0365201
0.0394782
-0.00200074
0.00183766
0.0357085
0.0384241
-0.00169245
0.00154501
0.0350322
0.0374927
-0.00142051
0.00129714
0.0344691
0.0366806
-0.00118735
0.0010749
0.0340058
0.0359708
-0.000976087
0.000873253
0.0336245
0.035355
-0.000783729
0.000690501
0.0333113
0.0348187
-0.000608943
0.000524247
0.0330609
0.0343615
-0.000449676
0.000372061
0.0328603
0.0339721
-0.000303056
0.000231221
0.0327021
0.0336431
-0.000166462
9.95003e-05
0.0325806
0.0333689
-3.87695e-05
-2.41473e-05
0.0324925
0.0331448
8.1886e-05
-0.00014148
0.0324335
0.0329668
0.000196808
-0.000253689
0.0324029
0.0328316
0.000307058
-0.000361727
0.0324004
0.0327378
0.000413565
-0.000466493
0.0324267
0.0326842
0.000517188
-0.000568806
0.0324838
0.0326709
0.000618723
-0.000669491
0.0325749
0.032699
0.00071911
-0.000769548
0.0327046
0.0327714
0.00105916
-0.000869593
0.0328831
0.0328924
0.00126692
-0.00136351
0.0325053
0.0330743
0.00255288
-0.00201364
0.0312189
0.0325173
0.0307384
0.031982
-0.0318068
-9.741e-05
0.00161579
0.032027
-0.0332643
-0.00286009
-0.00200168
-0.00281738
-0.00372601
0.00288209
-0.0345584
-0.0331776
-0.00265381
0.00244185
-0.0349289
-0.0351779
-0.00224382
0.00205346
-0.0345184
-0.0346414
-0.00187871
0.00171549
-0.0340929
-0.0341667
-0.00156466
0.00141905
-0.0337115
-0.0337535
-0.00128344
0.00115208
-0.0333822
-0.0334001
-0.00103022
0.000911694
-0.0331024
-0.0330987
-0.000801415
0.000693537
-0.0328689
-0.0328446
-0.000592877
0.000493774
-0.0326777
-0.0326341
-0.000401001
0.000308979
-0.0325259
-0.0324639
-0.000222489
0.000136274
-0.0324111
-0.0323315
-5.50281e-05
-2.65116e-05
-0.0323319
-0.0322351
0.000103653
-0.00018154
-0.0322878
-0.0321737
0.0002555
-0.00033061
-0.0322791
-0.0321473
0.000402195
-0.000475291
-0.0323075
-0.0321569
0.000545253
-0.000617149
-0.0323756
-0.0322045
0.000686377
-0.000758007
-0.0324882
-0.0322937
0.000827396
-0.000899853
-0.0326529
-0.0324308
0.00114703
-0.00179213
-0.0328777
-0.0326233
0.00176891
-0.00213588
-0.0336272
-0.0335418
0.0412983
0.0282281
-0.054825
-0.010051
0.0442055
-0.0385997
-0.0128287
0.00247283
-0.0456798
0.00210805
-0.0343283
-0.00241586
-0.0341925
0.00484377
-0.00555815
-0.0343812
-0.0343083
0.00497319
-0.00564849
-0.0370595
-0.03677
-0.0401729
-0.00538188
0.0412974
-0.0231203
0.000177171
-0.0525294
0.000921245
-0.0453759
0.00826124
-0.00894827
0.0419844
0.00675924
0.0457076
-0.00293481
0.00332517
-0.0329219
-0.00197028
-0.0335248
-0.0513958
-0.015946
0.04046
-0.0603714
-0.00320894
-0.00859986
0.0401116
-0.00652627
-0.0380196
-0.00238929
0.00214547
-0.0340844
-0.0347197
0.0349488
-0.00264496
-0.0022308
-0.0348782
-0.0529276
-0.0072667
6.90398e-05
-0.0524751
-0.010915
-0.0406931
-0.00473969
0.00369047
0.0429804
0.0449544
-0.00391946
0.00396269
0.0410844
0.041622
-0.00220651
0.00323005
0.0388985
0.0421601
-0.00238017
0.00218454
0.037697
0.0408697
-0.00202676
0.00185065
0.0366962
0.039636
-0.00172009
0.00156681
0.0358618
0.0385547
-0.00145256
0.00131696
0.0351678
0.0376069
-0.00121662
0.0010961
0.0345896
0.036781
-0.00100805
0.000900681
0.0341131
0.0360588
-0.000820375
0.00072287
0.033722
0.0354353
-0.000649339
0.00056087
0.0333997
0.0348922
-0.000493427
0.000412615
0.0331417
0.0344289
-0.000349966
0.000275688
0.0329345
0.0340347
-0.000216952
0.000148138
0.0327709
0.0337018
-9.26085e-05
2.8343e-05
0.0326449
0.0334244
2.45802e-05
-8.4717e-05
0.0325526
0.0331977
0.000135664
-0.000192627
0.0324905
0.0330177
0.000241955
-0.000296244
0.0324572
0.032881
0.000344294
-0.000396417
0.0324526
0.0327859
0.000443507
-0.000493923
0.0324771
0.0327313
0.000540344
-0.000589478
0.0325329
0.0327173
0.000635513
-0.00068379
0.0326231
0.0327451
0.000729798
-0.000777756
0.0327525
0.0328174
0.000824276
-0.000871871
0.0329307
0.0329389
0.000918085
-0.00120972
0.032797
0.0331205
0.00177515
-0.00292389
0.0323677
0.0330828
0.00640765
0.0394303
0.0342222
0.0327373
-0.0323816
-0.000453139
-0.0315171
0.0410491
0.00560201
0.00283599
0.0327857
-0.0338549
-0.00179085
-0.00159754
0.0346884
-0.0350473
-0.00230699
-0.00198388
-0.00264726
-0.00360874
0.00300208
-0.0339518
-0.0334611
-0.00276699
0.00254762
-0.0347095
-0.0349428
-0.00234204
0.0021447
-0.0343211
-0.0344358
-0.00196566
0.00179344
-0.0339207
-0.0339876
-0.00163658
0.00148341
-0.0335583
-0.0335967
-0.00134368
0.00120662
-0.0332451
-0.0332604
-0.00108162
0.000958116
-0.0329789
-0.0329737
-0.000845277
0.000732912
-0.0327565
-0.0327317
-0.00063008
0.000526838
-0.0325745
-0.0325312
-0.000432169
0.000336366
-0.0324301
-0.0323693
-0.000248372
0.000158602
-0.0323213
-0.0322435
-7.59587e-05
-9.03306e-06
-0.0322469
-0.0321524
8.74807e-05
-0.00016876
-0.0322065
-0.0320952
0.000243984
-0.000322469
-0.0322007
-0.0320721
0.000395323
-0.000471813
-0.032231
-0.032084
0.000543018
-0.000618146
-0.0323005
-0.0321333
0.000688205
-0.000762518
-0.0324139
-0.0322236
0.000832397
-0.000907012
-0.0325783
-0.032361
0.000976873
-0.00105173
-0.0328028
-0.0325534
0.00178218
-0.00165699
-0.0337524
-0.0328113
-0.0337041
-0.00303483
-0.0327684
0.00405868
-0.00437767
-0.0340622
-0.0332844
0.00515361
-0.00614502
-0.0360681
-0.0359941
-0.0240424
-0.040182
0.00325464
-0.0064623
0.0451921
0.0040301
0.0449321
-0.0369281
0.0365333
-0.0479706
-0.000516816
0.00291975
0.0370274
0.00316776
0.0373646
-0.0376116
-0.00908756
-0.00807593
-0.0360887
-0.0352225
0.0353423
-0.00276474
-0.0349104
-0.00254292
-0.026025
-0.0378176
0.0137017
-0.0590085
-0.0093538
0.0430031
-0.0505268
-0.0178943
-0.0334238
0.0162729
-0.028413
0.0455639
0.00241596
-0.00293833
-0.0330024
0.00286837
-0.0333743
-0.00438033
0.00396306
0.0433977
0.0446042
-0.00296624
0.00243389
0.0416167
0.0426188
-0.00229981
0.0020992
0.0390991
0.0422942
-0.00198901
0.00180168
0.0378843
0.0409798
-0.00169822
0.00152854
0.0368659
0.0397394
-0.00143887
0.00128829
0.0360124
0.0386444
-0.00121101
0.00107749
0.0353013
0.0376842
-0.00100992
0.000889619
0.0347099
0.0368485
-0.00082884
0.000720854
0.0342211
0.0361196
-0.000665516
0.000567682
0.0338198
0.0354906
-0.000515767
0.000426735
0.0334888
0.0349441
-0.0003781
0.000296927
0.0332229
0.0344776
-0.000250474
0.000175939
0.0330091
0.0340812
-0.000131113
6.22788e-05
0.0328397
0.0337467
-1.86179e-05
-4.51118e-05
0.0327086
0.0334681
8.77559e-05
-0.000147332
0.0326122
0.0332403
0.000189356
-0.000245447
0.0325465
0.0330597
0.000287052
-0.0003402
0.0325104
0.0329226
0.00038152
-0.000432261
0.0325033
0.0328272
0.00047345
-0.000522275
0.032526
0.0327725
0.000563483
-0.000610849
0.0325803
0.0327585
0.000652238
-0.000698581
0.0326695
0.0327865
0.000740368
-0.000786218
0.0327984
0.0328592
0.000828846
-0.000874366
0.0329762
0.0329816
0.000917344
-0.00132832
0.0332079
0.0331635
0.00165446
-0.00266801
0.0333812
0.0334089
0.0344739
0.0333232
-0.033355
-0.000421307
-0.0347955
0.0376565
0.00274102
0.00136363
0.0336361
-0.0340792
-0.00134772
-0.0013165
0.0346919
-0.0351976
-0.00180129
-0.00137116
-0.00250261
-0.00296654
0.00311752
-0.0341028
-0.0335593
-0.00286746
0.0026375
-0.0344796
-0.0346928
-0.00242725
0.00222384
-0.0341177
-0.0342255
-0.00204224
0.00186298
-0.0337414
-0.033806
-0.00170418
0.00154527
-0.0333994
-0.0334379
-0.00140448
0.00126192
-0.0331026
-0.0331196
-0.00113587
0.00100707
-0.0328501
-0.0328476
-0.000893407
0.000776027
-0.0326391
-0.0326181
-0.000672592
0.000564595
-0.0324665
-0.0324278
-0.000469551
0.000369195
-0.0323298
-0.0322742
-0.000280946
0.000186748
-0.0322271
-0.0321553
-0.000103962
1.46623e-05
-0.0321576
-0.0320696
6.38369e-05
-0.000149358
-0.032121
-0.0320167
0.000224598
-0.000307314
-0.0321179
-0.0319969
0.000380201
-0.000460978
-0.0321502
-0.0320111
0.000532332
-0.000611988
-0.0322208
-0.0320619
0.000682613
-0.000761985
-0.0323346
-0.032153
0.000832654
-0.00091243
-0.0324985
-0.0322903
0.000983635
-0.0010637
-0.0327227
-0.0324822
0.00113515
-0.00186932
-0.0330182
-0.0327399
0.00176989
-0.00199158
-0.0338628
-0.0338035
-0.0563835
0.00114616
0.00320149
0.0376228
-0.0372523
-0.00843519
-0.00229795
-0.0402134
0.00217799
-0.034616
-0.00247235
-0.0346918
-0.0530164
0.0117234
-0.0106115
0.033031
0.00736731
-0.00856247
-0.0348935
-0.00271467
-0.032992
-0.0032908
-0.0327083
-0.00397299
-0.03338
-0.00578603
-0.0341811
-0.0344869
-0.0582964
-0.0689078
-0.0252932
0.0160894
-0.00436838
0.00337673
0.0459237
-0.00401751
0.0448412
-0.00281745
0.00255303
-0.0331099
-0.00272564
-0.0330942
0.0370724
-0.0358926
0.00156121
0.0383338
0.00194009
-0.0345686
-0.0112462
0.0261708
-0.00990808
0.0135034
-0.0442144
-0.00211322
0.00223157
-0.0347344
-0.0352115
0.0352631
-0.00252391
-0.0347638
-0.00256089
-0.00236503
0.00229149
0.0434712
0.0456159
-0.00213912
0.00149575
0.0422601
0.0427712
-0.00246833
0.00165474
0.0399127
0.0413216
-0.00161196
0.00141133
0.038085
0.0410226
-0.00137685
0.00119455
0.0370482
0.0397739
-0.00116677
0.00100148
0.0361777
0.0386722
-0.000978598
0.000829856
0.0354501
0.0377071
-0.000810651
0.000676255
0.0348443
0.0368677
-0.000657864
0.000536321
0.0343426
0.036138
-0.000518246
0.000408325
0.0339297
0.0355087
-0.0003889
0.000289048
0.0335886
0.0349636
-0.000268424
0.000177942
0.0333134
0.0344982
-0.000155689
7.32843e-05
0.0330915
0.0341035
-4.91824e-05
-2.59623e-05
0.0329149
0.0337708
5.17494e-05
-0.000120733
0.0327776
0.0334939
0.000148293
-0.000211801
0.0326757
0.0332679
0.000240919
-0.000299847
0.0326055
0.0330889
0.000330444
-0.000385487
0.0325654
0.0329532
0.000417401
-0.000469218
0.0325551
0.0328591
0.000502338
-0.00055154
0.0325752
0.0328056
0.00058579
-0.000632945
0.0326274
0.0327928
0.000668289
-0.000713927
0.0327151
0.0328218
0.000750403
-0.000795146
0.0328431
0.0328957
0.000833047
-0.00087715
0.0330203
0.0330195
0.000916079
-0.00096092
0.0332528
0.0332024
0.00100127
-0.00116978
0.0335497
0.0334492
0.000871146
0.000608811
0.0355474
0.0341753
-0.00269324
0.00294459
0.0373715
0.0352801
0.0347559
-0.0342521
-0.0009251
0.00022685
0.0342287
-0.0342013
-0.00137517
-0.00133985
0.0341688
-0.03453
-0.00144005
-0.00140366
0.034917
-0.0353155
-0.00236624
-0.00211563
-0.00259535
-0.00328932
0.003209
-0.0340224
-0.0342956
-0.00294839
0.0027115
-0.0342427
-0.0344322
-0.0024991
0.00228734
-0.0339059
-0.0340131
-0.00210579
0.00191806
-0.0335537
-0.0336245
-0.00175978
0.00159264
-0.0332323
-0.0332796
-0.00145288
0.00130286
-0.0329525
-0.0329798
-0.00117834
0.00104255
-0.0327143
-0.0327231
-0.000930661
0.000806605
-0.0325151
-0.0325062
-0.000705138
0.000590698
-0.032352
-0.0323263
-0.000497767
0.000391147
-0.0322231
-0.0321813
-0.000305143
0.000204809
-0.0321268
-0.0320693
-0.000124329
2.89461e-05
-0.0320622
-0.0319892
4.72312e-05
-0.000138832
-0.0320294
-0.0319406
0.000211769
-0.000300604
-0.0320291
-0.0319239
0.000371246
-0.00045822
-0.0320632
-0.0319405
0.000527386
-0.000613285
-0.0321349
-0.0319928
0.0006817
-0.000767281
-0.032249
-0.0320846
0.000835693
-0.000921645
-0.0324125
-0.0322219
0.000990589
-0.00107747
-0.0326359
-0.0324132
0.00114714
-0.00123494
-0.0329304
-0.0326702
0.00158506
-0.00191918
-0.0335286
-0.0334534
-0.0343794
0.0253944
-0.0627295
0.0427376
-0.00310462
-0.0326131
-0.0034656
-0.0323473
-0.00439461
-0.032451
-0.00567026
-0.0329054
-0.00673131
-0.0334258
-0.00866582
-0.032959
0.00359165
0.0376868
0.00390893
0.0370916
-0.00735157
0.0316095
-0.032546
-0.0106884
0.00472408
-0.00697163
-0.0311783
0.00417405
-0.0323554
-0.0383252
-0.0103234
-0.00663627
0.0254555
0.0228221
-0.0203349
0.0204165
-0.00750255
-0.00273952
0.00221862
-0.0342135
-0.00218449
-0.0353189
-0.0354209
0.0356148
-0.0027179
-0.0353983
-0.00258343
-0.00266137
0.0021464
0.0464387
0.0460888
-0.00198428
0.0016892
0.0437663
0.045778
-0.00165162
0.00185756
0.0420542
0.0428088
-0.00190159
0.00120364
0.0406107
0.0412776
-0.00127255
0.00101609
0.0383414
0.0409537
-0.00108827
0.00085276
0.0372837
0.0397017
-0.000923477
0.000707506
0.0363937
0.0386014
-0.000773253
0.000576448
0.0356469
0.0376413
-0.000636141
0.000457551
0.0350229
0.036808
-0.000509284
0.000347588
0.0345043
0.0360863
-0.000391014
0.000245257
0.0340755
0.0354653
-0.000279552
0.000148181
0.03372
0.0349293
-0.000173966
5.61295e-05
0.0334312
0.0344724
-7.38566e-05
-3.17997e-05
0.0331971
0.0340857
2.1695e-05
-0.0001164
0.0330096
0.0337607
0.0001132
-0.000198299
0.0328627
0.0334907
0.000201282
-0.000277906
0.0327523
0.0332709
0.000286307
-0.00035566
0.0326748
0.0330973
0.000368826
-0.000431972
0.0326286
0.0329663
0.000449247
-0.000507176
0.032613
0.0328764
0.000528001
-0.000581628
0.0326288
0.0328265
0.000605531
-0.000655695
0.0326776
0.0328167
0.000682302
-0.000729775
0.0327626
0.0328484
0.000758823
-0.00080441
0.0328887
0.0329247
0.000835883
-0.000880018
0.0330645
0.0330509
0.00091329
-0.000956811
0.0332963
0.0332357
0.000991379
-0.00103194
0.0335903
0.0334838
0.000646268
0.00067144
0.0342297
0.0337896
-0.000489848
0.00268797
0.0351733
0.0354617
0.0377908
-0.0364931
0.002294
-0.00338726
0.00406195
0.0371161
0.0369875
0.0369128
-0.0353097
-4.18563e-05
0.0023598
0.0345648
-0.0341887
-0.00130119
-0.000518111
0.0341934
-0.034194