/*--------------------------------*- C++ -*----------------------------------*\
  =========                 |
  \\      /  F ield         | OpenFOAM: The Open Source CFD Toolbox
   \\    /   O peration     | Website:  https://openfoam.org
    \\  /    A nd           | Version:  10
     \\/     M anipulation  |
\*---------------------------------------------------------------------------*/
FoamFile
{
    format      ascii;
    class       volVectorField;
    location    "41";
    object      U;
}
// * * * * * * * * * * * * * * * * * * * * * * * * * * * * * * * * * * * * * //

dimensions      [0 1 -1 0 0 0 0];

internalField   nonuniform List<vector> 
28942
(
(0.00447768 -0.00228158 -3.35922e-22)
(0.0060596 -0.00236841 -6.20816e-23)
(0.0179931 -0.0124233 -8.42188e-22)
(0.103305 0.0182401 -5.32012e-21)
(0.102342 0.0222819 1.74133e-21)
(0.0178067 0.000588456 0)
(0.0211884 0.000160386 1.48112e-23)
(0.0244909 0.000759079 -1.31959e-23)
(0.135246 -0.0179382 -2.64507e-22)
(0.133875 -0.0163018 7.52207e-22)
(0.00996388 0.0040875 -6.56599e-22)
(0.0163116 0.00573418 2.4695e-22)
(0.00725283 0.00320696 0)
(0.00479227 0.00210379 0)
(0.0541914 0.00227885 -1.96022e-23)
(0.0521332 0.0029974 -7.28759e-24)
(0.0893335 0.015863 6.74051e-22)
(0.0870211 0.0138351 1.08445e-21)
(0.0121824 -0.0151332 2.95697e-21)
(0.0293754 -0.0305083 -7.78388e-22)
(0.098172 0.0373327 9.62914e-22)
(0.0973428 0.0343726 0)
(0.0189223 0.0047094 1.15609e-21)
(0.0079507 0.00240289 5.43573e-22)
(0.0380622 0.00731946 9.31824e-22)
(0.0578713 0.00301062 -8.49483e-22)
(0.00765445 -0.0185089 8.56645e-21)
(0.0066986 -0.0165715 -3.15394e-21)
(0.0355882 -0.0253672 5.83957e-22)
(0.0193411 -0.0137071 2.01847e-22)
(0.0182392 -0.00170157 0)
(0.0228074 -0.00153347 -1.74182e-23)
(0.028824 0.00501806 3.57312e-22)
(0.0411647 0.00212997 -6.077e-23)
(0.0188473 0.0180255 1.32976e-21)
(0.0157363 0.0191345 -1.3265e-21)
(0.0322032 0.0376418 -3.07985e-21)
(0.0186872 0.0305539 -1.07539e-21)
(0.00984187 6.26211e-05 -1.23931e-23)
(0.00865722 0.0162084 -2.63461e-21)
(0.0306473 -0.00620336 0)
(0.05134 -0.0109699 0)
(0.11254 -0.0158617 -3.15603e-23)
(0.112043 -0.015936 9.41531e-23)
(0.115862 -0.0156396 8.10077e-23)
(0.0343549 0.000315153 1.51562e-23)
(0.0320083 -0.000583902 -2.4673e-23)
(0.0453473 -0.000526601 -1.08744e-22)
(0.0435021 -0.000591313 3.08238e-23)
(0.0355446 -0.00312233 -2.63909e-22)
(0.0266676 -0.00383212 1.70106e-22)
(0.128251 0.00189327 -4.19465e-22)
(0.127605 0.00139712 -3.90115e-22)
(0.13459 -0.0207495 -3.81672e-24)
(0.133015 -0.019023 1.43243e-22)
(0.083164 0.00664736 7.06456e-22)
(0.102427 -0.00044067 2.42094e-22)
(0.00311069 0.00164851 -5.56393e-22)
(0.0090715 0.00373894 0)
(0.00836699 0.00334027 2.34478e-22)
(0.00293027 0.00151376 4.79907e-22)
(0.000372676 0.000232618 -3.99478e-22)
(0.000200356 0.000126903 -3.82964e-22)
(0.110125 -0.0426008 0)
(0.105332 -0.0255586 1.22384e-22)
(0.122192 -0.0329862 -4.10692e-23)
(0.123758 -0.0436707 0)
(0.0901582 -0.0327773 -6.44508e-22)
(0.0936669 -0.0352356 -4.23772e-22)
(0.0019074 -0.00114188 1.11024e-21)
(0.00251887 -0.00203791 -3.49914e-22)
(0.00492609 -0.0031882 8.68159e-22)
(0.0849546 -0.0457458 0)
(0.0912714 -0.0395951 2.18855e-21)
(0.0806357 -0.0530259 5.91497e-22)
(0.114642 0.0121939 2.26066e-22)
(0.113305 0.00663749 -2.51152e-22)
(0.125637 0.0106745 -1.01064e-22)
(0.00469854 -0.00287085 -5.45264e-23)
(0.0063592 -0.00443966 4.60473e-22)
(0.0511681 -0.031215 1.30543e-22)
(0.0332698 -0.0205976 -2.60572e-22)
(0.00213357 -0.000607693 3.18352e-21)
(0.00520046 -0.00209652 -1.24085e-21)
(0.101231 0.0482556 1.68008e-23)
(0.097229 0.0552289 -7.78745e-22)
(0.0808729 0.0540481 7.11726e-22)
(0.0472937 0.0345544 -2.72591e-21)
(0.0445224 0.031653 1.93065e-21)
(0.0295478 0.0206278 -1.15956e-22)
(0.032771 0.0232821 -6.50464e-22)
(0.0380188 0.0283945 8.8238e-22)
(0.00449224 0.0027777 -5.61508e-23)
(0.00792028 0.00405914 -1.63511e-23)
(0.00324963 0.00204894 3.27658e-23)
(0.00195345 0.00166519 -4.3632e-22)
(0.00146862 0.00158924 5.33871e-22)
(0.0157679 0.0115601 -3.3034e-21)
(0.0175216 0.0136526 7.57511e-22)
(0.00886652 -0.00388065 0)
(0.101389 0.00516036 0)
(0.0984001 0.015685 -3.9943e-21)
(0.0604368 0.0104758 1.97099e-21)
(0.0886755 0.0178824 0)
(0.135895 -0.00208456 0)
(0.135344 -0.00284125 0)
(0.133745 -0.00330008 -2.87616e-22)
(0.115005 0.0264425 -2.1578e-22)
(0.114102 0.0278565 2.13147e-21)
(0.113295 0.0253197 1.14376e-21)
(0.00233721 0.00132188 1.03521e-21)
(0.00154276 0.000790405 -1.16192e-21)
(0.0192322 -0.00560655 -5.38468e-22)
(0.0203521 -0.00514511 4.57582e-22)
(0.00920725 -0.00296779 9.03271e-22)
(0.00648094 0.0111499 1.48768e-21)
(0.0189808 0.0181614 3.47887e-21)
(0.0134761 0.0228085 2.72393e-22)
(0.00492459 0.0143109 -8.67673e-21)
(0.117256 0.0476948 5.71362e-23)
(0.108037 0.0582013 1.09086e-21)
(0.118526 0.054803 -1.88145e-21)
(0.0391648 -0.0294621 7.40272e-22)
(0.0240536 -0.0172931 -4.7508e-22)
(0.00532472 -0.000747876 -4.12749e-21)
(0.00454133 -0.00359956 0)
(0.0125036 -0.0016808 2.01627e-21)
(0.0220017 -0.0161552 7.86588e-22)
(0.0343132 -0.0278234 -1.97879e-21)
(0.0429736 6.90276e-06 7.68103e-23)
(0.0456098 0.000174047 -5.41761e-23)
(0.0404236 0.000213169 -2.36671e-24)
(0.0280945 -0.0419961 0)
(0.0296424 -0.0428819 0)
(0.0896159 -0.0186558 -4.70612e-22)
(0.0995834 -0.0220946 3.19342e-21)
(0.0870317 -0.0252795 0)
(0.0471954 -0.0402366 0)
(0.0582682 -0.0514317 -7.91867e-22)
(0.0413609 0.0393665 2.10377e-21)
(-5.57416e-06 0.000211312 4.98274e-22)
(-0.000199916 0.000127889 -3.26136e-22)
(0.0223613 -0.0192677 -7.99891e-22)
(0.119554 -0.0152766 4.5853e-22)
(0.118919 -0.0153074 -8.80832e-23)
(0.116144 -0.00532622 -6.41241e-23)
(0.109147 0.00138371 8.54546e-23)
(0.118385 0.000200076 1.64844e-22)
(8.35512e-05 0.00026009 1.93303e-22)
(0.043814 0.0344555 3.2434e-21)
(0.0619798 0.0463485 -7.98419e-22)
(0.0594334 0.0394158 -3.08643e-24)
(0.0282923 -0.00102406 7.07679e-24)
(0.0278813 -0.00104348 3.8125e-23)
(0.0302075 -0.000875284 1.8046e-24)
(0.0336755 -0.000789614 -1.87607e-23)
(0.0454828 0.0381229 1.34095e-22)
(0.0189867 0.0160756 0)
(0.000137449 -2.80509e-05 3.53767e-22)
(0.000424422 -0.000256482 -3.92515e-22)
(0.00187924 -0.00102055 2.72339e-22)
(0.0367841 -0.00781516 -1.8253e-21)
(0.0652095 -0.00220192 -7.41849e-22)
(0.0389835 -0.000373379 -2.31574e-24)
(0.0748171 -0.00760019 2.69913e-22)
(0.0709823 -0.0157366 5.24651e-23)
(0.0943615 0.0398657 2.166e-21)
(0.0914719 0.0454084 9.9212e-23)
(0.0887827 0.0290506 1.22736e-21)
(0.09151 0.0307624 -8.89455e-22)
(0.0987593 0.0410151 0)
(0.125835 -0.00079131 1.54975e-22)
(0.126575 -0.0012486 2.93647e-22)
(0.128007 -0.0118938 -3.0463e-22)
(0.129463 -0.0116673 5.21819e-22)
(0.117075 0.0239565 2.65141e-22)
(0.119137 0.0248381 -7.51087e-22)
(0.11713 0.0259755 0)
(0.115159 0.0247295 1.55991e-22)
(0.11671 0.027908 0)
(0.117244 0.0359433 -5.60958e-22)
(0.115787 0.0380094 -3.05809e-22)
(0.111419 0.0418526 -5.48758e-22)
(0.113811 0.0399698 0)
(0.116519 0.0429389 1.81863e-21)
(0.113796 0.0448791 4.73949e-23)
(0.108415 0.0440782 -3.0781e-22)
(0.0997222 0.0502196 -1.30373e-21)
(0.0984939 0.0454313 -2.29601e-22)
(0.0254496 -0.00867333 4.93409e-23)
(0.033452 -0.00959183 -1.97144e-23)
(0.00636532 -0.00251998 -6.7537e-22)
(0.0383349 -4.91701e-05 -5.03805e-23)
(0.0487139 -0.000303347 0)
(-4.95136e-06 -3.96455e-05 4.16591e-22)
(1.19892e-05 -4.70462e-05 2.12759e-22)
(0.0441935 -0.00209165 2.27817e-23)
(0.0518857 -0.00203169 8.92076e-24)
(0.0513579 -0.00137517 0)
(0.0427973 -0.000908191 1.00008e-23)
(0.102553 0.00380769 -1.33151e-22)
(0.102255 0.00341406 6.31282e-22)
(0.102918 0.00351117 2.96152e-22)
(0.000686209 0.000275439 3.84901e-22)
(-0.000160025 -0.000130776 -5.60155e-22)
(-0.000203303 -0.000172378 4.75641e-22)
(0.00152728 0.000632451 0)
(8.54242e-05 9.20303e-05 1.13116e-21)
(0.000178933 -3.58209e-05 -8.12715e-22)
(0.00752476 0.00371235 -9.84438e-22)
(0.00147433 0.000793603 -1.17906e-21)
(0.00174282 0.000872254 0)
(0.00157311 0.0075454 0)
(0.000577412 0.00328193 0)
(0.000313521 0.00197709 0)
(0.136976 -0.00215748 6.24797e-23)
(0.137894 -0.00203333 0)
(0.136369 -0.00298744 -7.26407e-23)
(0.0881314 -0.0148483 4.46413e-21)
(0.0901374 -0.0152551 -1.62055e-21)
(0.0890514 -0.0128742 0)
(0.112579 0.000115469 -7.34799e-24)
(0.112822 0.000106402 1.47074e-23)
(0.112322 0.000125975 -4.98735e-24)
(0.113049 9.87755e-05 0)
(0.113261 9.4047e-05 -9.33776e-24)
(0.113459 8.75519e-05 0)
(0.113457 -0.000118129 0)
(0.113644 7.75096e-05 3.45021e-23)
(0.113639 -0.000118012 0)
(0.113261 -0.000122782 -9.40055e-24)
(0.113048 -0.000129525 0)
(0.112821 -0.000136882 4.92139e-24)
(0.112577 -0.000146194 -7.35173e-24)
(0.112321 -0.000155274 4.98111e-24)
(0.113815 6.77478e-05 -3.30156e-23)
(0.11381 -0.000115778 -1.15369e-24)
(0.112045 0.000138322 7.97903e-28)
(0.112042 -0.000162509 -7.63854e-24)
(0.111747 0.000150974 4.07335e-23)
(0.113974 6.09618e-05 3.07909e-26)
(0.113972 -0.000110699 -1.15085e-24)
(0.111745 -0.000173462 1.50833e-23)
(0.114124 5.42373e-05 3.09413e-23)
(0.114264 4.8512e-05 -3.09158e-23)
(0.114123 -0.000106147 2.3212e-24)
(0.114264 -0.000101481 4.57461e-24)
(0.111439 0.000170688 -3.96318e-23)
(0.111435 -0.000185376 -9.93529e-24)
(0.114395 4.27726e-05 0)
(0.114395 -9.73779e-05 -4.51208e-24)
(0.111103 0.000185501 4.91835e-27)
(0.1111 -0.00019487 -4.93068e-27)
(0.114518 3.78818e-05 0)
(0.114518 -9.32022e-05 0)
(0.110745 0.000199016 0)
(0.110742 -0.00020688 0)
(0.114632 3.29147e-05 0)
(0.114633 -8.95512e-05 2.15982e-24)
(0.110364 0.000213232 -2.07618e-23)
(0.11036 -0.00021886 -5.06067e-27)
(0.11474 2.87261e-05 1.13151e-25)
(0.11474 -8.57648e-05 -2.30661e-24)
(0.109958 0.000226901 2.0861e-23)
(0.109954 -0.000232528 0)
(0.11484 2.44833e-05 0)
(0.114841 -8.23478e-05 0)
(0.109526 0.000241508 -1.32524e-24)
(0.109522 -0.000245539 2.2772e-23)
(0.114934 2.08207e-05 1.39575e-23)
(0.114935 -7.87632e-05 0)
(0.109069 0.000254688 -1.45229e-25)
(0.109064 -0.000259866 -2.15548e-23)
(0.115022 1.69625e-05 -2.08716e-23)
(0.115023 -7.56268e-05 -6.05537e-24)
(0.108576 0.000262212 2.20369e-23)
(0.108572 -0.000275002 0)
(0.115105 1.36919e-05 6.87095e-24)
(0.115106 -7.19394e-05 4.03792e-24)
(0.108055 0.000274644 -1.1198e-23)
(0.108052 -0.000293512 2.27095e-23)
(0.115181 1.09644e-05 -2.74194e-23)
(0.115184 -6.71328e-05 3.09041e-23)
(0.107486 0.000274503 1.15804e-23)
(0.107488 -0.000316318 3.67055e-25)
(0.115255 8.61491e-06 0)
(0.115257 -6.3112e-05 1.47233e-23)
(0.106883 0.000274904 -2.33628e-23)
(0.106889 -0.000346392 4.67406e-23)
(0.115326 5.8017e-06 0)
(0.115327 -6.06878e-05 0)
(0.107544 0.00086183 -1.14587e-23)
(0.106942 0.000895995 -4.65412e-23)
(0.106234 0.0002692 0)
(0.10625 -0.000387716 -2.38843e-23)
(0.108629 0.000787533 -7.16035e-24)
(0.108102 0.000825974 1.40737e-24)
(0.109574 0.000704349 0)
(0.109112 0.000746185 -2.30452e-23)
(0.110406 0.000622842 -4.41381e-26)
(0.110003 0.000663102 0)
(0.11114 0.000546023 0)
(0.110785 0.000583793 0)
(0.111789 0.000471129 0)
(0.111474 0.000508986 0)
(0.112348 0.000406116 9.83954e-24)
(0.112075 0.000437585 2.48818e-24)
(0.112843 0.000351668 -9.46832e-24)
(0.112606 0.000377674 -9.83644e-24)
(0.113276 0.00030506 1.67284e-23)
(0.113065 0.000325515 2.14311e-23)
(0.113658 0.000264699 0)
(0.113473 0.000285441 0)
(0.113988 0.000227574 -7.30456e-26)
(0.113829 0.00024554 0)
(0.114276 0.000194572 0)
(0.114137 0.000210532 0)
(0.114528 0.000165672 0)
(0.114406 0.000179611 0)
(0.114749 0.000140514 0)
(0.114642 0.000152652 0)
(0.114942 0.000118566 0)
(0.114848 0.000129147 0)
(0.115111 9.94093e-05 0)
(0.115029 0.000108658 0)
(0.115261 8.01763e-05 -1.12002e-23)
(0.115188 9.06573e-05 0)
(0.11533 7.14259e-05 -3.61691e-24)
(0.115392 2.4606e-06 3.5282e-24)
(0.115392 -5.88255e-05 -3.49884e-24)
(0.11519 -0.0001416 0)
(0.115331 -0.000126193 -1.43629e-23)
(0.115263 -0.000133289 -7.40007e-24)
(0.115029 -0.000160047 2.02995e-24)
(0.115112 -0.000150686 -7.94223e-24)
(0.114848 -0.000179257 6.58898e-26)
(0.114942 -0.000169691 0)
(0.114641 -0.000200029 0)
(0.114748 -0.000189289 0)
(0.114404 -0.000223847 0)
(0.114527 -0.000211524 0)
(0.114134 -0.000251236 0)
(0.114274 -0.00023704 8.72365e-30)
(0.113823 -0.000283016 7.39333e-26)
(0.113984 -0.000266491 0)
(0.11347 -0.000317825 0)
(0.113652 -0.000300437 0)
(0.113065 -0.000356311 0)
(0.113274 -0.000336533 0)
(0.112599 -0.000402701 0)
(0.11284 -0.000377567 -4.9685e-24)
(0.112068 -0.000458218 1.31823e-24)
(0.112341 -0.000431476 -6.43599e-24)
(0.111464 -0.000523341 0)
(0.111778 -0.000488214 -5.25365e-24)
(0.110775 -0.000593258 0)
(0.111131 -0.000557472 0)
(0.109992 -0.000670796 0)
(0.110396 -0.000630999 0)
(0.109103 -0.000755869 0)
(0.109561 -0.000712469 0)
(0.108096 -0.000848005 -5.85831e-24)
(0.108616 -0.000799775 0)
(0.10696 -0.000959977 -2.39162e-23)
(0.107547 -0.000898653 -5.90853e-24)
(0.10633 -0.0010283 2.44172e-23)
(0.1063 0.000931464 4.62063e-23)
(0.115396 6.38821e-05 7.07398e-24)
(0.115396 -0.000119657 -1.38172e-23)
(0.105562 -0.000440453 0)
(0.105661 -0.00111137 0)
(0.105619 0.000967507 0)
(0.105543 0.000256147 0)
(0.107661 0.00143831 0)
(0.106453 0.00158987 1.15452e-23)
(0.107075 0.00151179 1.16313e-23)
(0.10873 0.00129013 1.47061e-23)
(0.108212 0.00136457 -2.94216e-24)
(0.109661 0.00114515 4.52112e-26)
(0.109211 0.00121656 0)
(0.110482 0.00101089 0)
(0.110084 0.00107667 0)
(0.111205 0.00088772 0)
(0.110855 0.000947908 0)
(0.111842 0.000776362 0)
(0.111533 0.000830344 0)
(0.112399 0.000675656 0)
(0.112129 0.000725219 0)
(0.112885 0.000588386 -3.96567e-26)
(0.112649 0.000631545 1.02477e-23)
(0.11331 0.000510341 -3.79272e-26)
(0.113106 0.000547053 -1.99338e-23)
(0.113685 0.000440697 0)
(0.113503 0.000474243 0)
(0.114012 0.00038063 3.64837e-26)
(0.113854 0.000409601 0)
(0.114296 0.00032827 0)
(0.114159 0.000353561 0)
(0.114546 0.000282601 0)
(0.114425 0.000304646 0)
(0.114764 0.000242857 0)
(0.114658 0.000262038 0)
(0.114955 0.000208262 0)
(0.114862 0.000224958 0)
(0.115122 0.000177941 0)
(0.115041 0.000192648 0)
(0.115271 0.000149184 7.65065e-24)
(0.115198 0.000163513 0)
(0.115454 -3.37338e-07 0)
(0.115457 5.71501e-05 6.91213e-24)
(0.115403 0.000123953 0)
(0.115339 0.000136019 7.45194e-24)
(0.11534 -0.00019156 1.48394e-23)
(0.115404 -0.000180791 3.643e-24)
(0.115457 -0.000114293 2.84067e-23)
(0.115454 -5.6695e-05 0)
(0.1152 -0.000216593 0)
(0.115272 -0.000203496 -2.24032e-23)
(0.115041 -0.000244762 6.39434e-26)
(0.115123 -0.000230081 7.99054e-24)
(0.114862 -0.000275208 -6.58896e-26)
(0.114954 -0.000259581 0)
(0.114657 -0.000309657 0)
(0.114763 -0.000291847 0)
(0.114423 -0.000349234 0)
(0.114544 -0.000328758 0)
(0.114155 -0.000394776 0)
(0.114293 -0.000371202 -8.72363e-30)
(0.113849 -0.000447233 -1.4782e-25)
(0.114007 -0.000420085 0)
(0.113499 -0.00050717 0)
(0.113679 -0.000476281 0)
(0.113098 -0.000575636 2.50565e-24)
(0.113305 -0.000540207 0)
(0.11264 -0.000652766 0)
(0.112877 -0.000611975 -2.4952e-24)
(0.112117 -0.000742981 5.26008e-24)
(0.112385 -0.000697126 5.21412e-24)
(0.111519 -0.000844208 0)
(0.111828 -0.000792126 0)
(0.110839 -0.000957905 0)
(0.11119 -0.000899459 0)
(0.110066 -0.00108483 0)
(0.110464 -0.00101968 0)
(0.10919 -0.00122563 0)
(0.109641 -0.00115346 0)
(0.1082 -0.00138075 9.39347e-26)
(0.10871 -0.00130128 0)
(0.107086 -0.00155064 -9.5803e-26)
(0.10766 -0.00146389 0)
(0.105827 -0.00175918 -2.51673e-23)
(0.106474 -0.00165084 2.51557e-23)
(0.105791 0.00166958 2.36137e-23)
(0.104954 -0.00120669 0)
(0.105137 -0.00188323 -5.14886e-23)
(0.104841 -0.000499586 0)
(0.115463 0.00011405 0)
(0.115464 -0.000170736 -3.5337e-24)
(0.1049 0.00100545 6.01132e-23)
(0.105094 0.00175231 2.40731e-23)
(0.104202 -0.00130717 1.30361e-23)
(0.104409 -0.00201699 6.50856e-23)
(0.104811 0.000240565 0)
(0.115414 0.000185016 2.9145e-23)
(0.115473 0.000170357 -1.43939e-23)
(0.115514 -0.000108999 -6.9927e-24)
(0.115521 -0.000161153 3.47666e-23)
(0.105387 0.00247501 8.41011e-23)
(0.104347 0.00183908 -4.73467e-23)
(0.103892 0.00274406 -2.13431e-22)
(0.10466 0.0026012 -4.80761e-23)
(0.106688 0.00223003 2.32716e-23)
(0.106056 0.00235191 -7.14435e-23)
(0.107847 0.00199657 -2.37394e-23)
(0.107285 0.00211192 -1.79887e-23)
(0.108881 0.00177883 -5.87974e-24)
(0.10838 0.00188698 -5.89918e-24)
(0.109791 0.00157715 -4.52112e-26)
(0.109351 0.00167602 0)
(0.110592 0.00139168 0)
(0.110204 0.00148235 0)
(0.111299 0.00122285 0)
(0.110957 0.0013052 0)
(0.11192 0.0010706 0)
(0.11162 0.00114464 0)
(0.112466 0.00093484 0)
(0.112202 0.00100069 0)
(0.112943 0.000814199 0)
(0.112712 0.000872796 0)
(0.11336 0.000707833 2.89535e-29)
(0.113159 0.000759384 0)
(0.113726 0.000613629 0)
(0.113549 0.000659148 0)
(0.114046 0.000531598 3.64467e-26)
(0.113892 0.000571189 0)
(0.114326 0.000460176 0)
(0.114191 0.00049466 0)
(0.114571 0.000397986 0)
(0.114453 0.000428006 0)
(0.114786 0.00034389 0)
(0.114682 0.000369997 0)
(0.114973 0.000296835 0)
(0.114883 0.00031955 0)
(0.115138 0.000255646 0)
(0.115059 0.000275609 0)
(0.115284 0.00021812 3.89914e-24)
(0.115214 0.000236421 -1.96227e-24)
(0.115351 0.000201021 -1.48693e-23)
(0.115511 -2.14773e-06 -3.3113e-24)
(0.11552 0.000104526 1.38472e-23)
(0.115514 5.11385e-05 -1.05883e-23)
(0.115511 -5.54097e-05 0)
(0.115352 -0.000256697 -1.10446e-23)
(0.115475 -0.000226891 -3.1863e-23)
(0.115415 -0.000241376 2.56684e-23)
(0.115214 -0.000291164 0)
(0.115286 -0.000273241 0)
(0.115059 -0.000328057 -2.07133e-29)
(0.115139 -0.000308696 0)
(0.114882 -0.000370023 0)
(0.114973 -0.000348386 0)
(0.11468 -0.000417945 -6.78083e-26)
(0.114784 -0.000393165 0)
(0.11445 -0.000473006 0)
(0.114569 -0.000444524 0)
(0.114186 -0.000536302 0)
(0.114322 -0.00050356 0)
(0.113885 -0.000609021 7.38977e-26)
(0.114041 -0.000571417 0)
(0.113541 -0.000692259 7.59451e-26)
(0.113719 -0.000649261 0)
(0.113148 -0.000787585 0)
(0.113351 -0.000738304 0)
(0.112699 -0.000896134 0)
(0.112931 -0.000840088 0)
(0.112185 -0.00101982 0)
(0.11245 -0.000956113 0)
(0.1116 -0.00115929 0)
(0.111902 -0.00108739 0)
(0.110934 -0.00131623 -8.68919e-26)
(0.111278 -0.00123555 0)
(0.110178 -0.00149142 0)
(0.110568 -0.00140151 0)
(0.109321 -0.00168555 0)
(0.109763 -0.0015861 0)
(0.108355 -0.00189891 -1.06167e-28)
(0.108853 -0.00178982 0)
(0.10727 -0.00213116 1.30018e-28)
(0.107828 -0.00201273 0)
(0.106054 -0.00239004 9.96101e-26)
(0.106678 -0.00225511 0)
(0.104689 -0.00269671 -5.27727e-23)
(0.10539 -0.00253653 1.29198e-23)
(0.103644 -0.00215324 1.32986e-23)
(0.103959 -0.00286647 2.63385e-23)
(0.104142 0.00103908 -2.34657e-23)
(0.104075 -0.000564822 -2.52568e-23)
(0.115529 0.000157104 3.52402e-24)
(0.115531 -0.000214135 2.50412e-23)
(0.103535 0.00191314 2.92251e-24)
(0.103411 -0.00141811 0)
(0.102925 0.0027816 3.27381e-22)
(0.103196 -0.00304004 4.08222e-23)
(0.102851 -0.00229562 5.44781e-23)
(0.103372 0.00389553 -5.45603e-22)
(0.10284 0.00414342 9.91703e-23)
(0.104055 0.000226416 0)
(0.104451 0.00351241 5.41612e-23)
(0.103852 0.003726 2.79847e-23)
(0.10576 0.00316035 4.87232e-23)
(0.105096 0.00332729 -7.44595e-23)
(0.106994 0.00283791 -2.4115e-23)
(0.106396 0.00299883 -1.2066e-23)
(0.108097 0.00253538 1.2033e-23)
(0.107561 0.00268336 1.22439e-23)
(0.109085 0.00225412 0)
(0.108604 0.00239181 -3.20359e-26)
(0.109961 0.00199675 0)
(0.109536 0.00212261 0)
(0.110736 0.00176184 4.39648e-26)
(0.110361 0.00187653 0)
(0.111421 0.00154884 0)
(0.111089 0.00165265 0)
(0.112023 0.00135712 0)
(0.111732 0.00145036 0)
(0.112553 0.00118607 0)
(0.112297 0.0012691 0)
(0.113017 0.0010343 3.95523e-26)
(0.112792 0.0011079 0)
(0.113423 0.000900334 3.18381e-29)
(0.113227 0.00096521 0)
(0.11378 0.000782385 0)
(0.113607 0.000839437 0)
(0.114092 0.000679225 -7.28672e-26)
(0.113941 0.000729056 0)
(0.114365 0.000589302 0)
(0.114233 0.00063272 0)
(0.114605 0.000511017 0)
(0.114489 0.000548807 0)
(0.114814 0.000442926 0)
(0.114713 0.000475788 0)
(0.114998 0.00038371 0)
(0.114909 0.000412294 0)
(0.11516 0.00033201 0)
(0.115082 0.000357028 0)
(0.115302 0.000286209 -1.94751e-24)
(0.115233 0.000308207 0)
(0.115429 0.000245515 0)
(0.115367 0.000265225 -3.77614e-24)
(0.115541 0.000209276 6.25689e-28)
(0.115487 0.000226788 0)
(0.115572 9.57033e-05 -1.40395e-23)
(0.115593 0.000193904 8.47659e-25)
(0.115581 0.000145335 6.87507e-24)
(0.115564 -3.99766e-06 5.04937e-24)
(0.115567 4.57536e-05 -3.48536e-24)
(0.115568 -0.00010415 -1.75459e-24)
(0.115564 -5.40334e-05 1.75161e-24)
(0.115583 -0.000202961 0)
(0.115574 -0.00015339 -1.5937e-23)
(0.115488 -0.000283627 -7.16592e-24)
(0.115594 -0.000252722 -1.37031e-23)
(0.115543 -0.000267285 3.15139e-23)
(0.115369 -0.00032087 -3.76198e-24)
(0.115431 -0.000301616 0)
(0.115234 -0.000363205 0)
(0.115304 -0.00034131 0)
(0.115081 -0.000409896 -2.7533e-29)
(0.11516 -0.00038583 0)
(0.114908 -0.000463178 0)
(0.114998 -0.000435651 0)
(0.11471 -0.000524256 6.78083e-26)
(0.114813 -0.000492669 0)
(0.114485 -0.000594432 0)
(0.114601 -0.000558136 0)
(0.114228 -0.000675039 0)
(0.114361 -0.000633353 0)
(0.113934 -0.000767554 0)
(0.114085 -0.000719723 0)
(0.113598 -0.000873521 -5.25425e-29)
(0.113771 -0.000818769 0)
(0.113214 -0.00099471 0)
(0.113412 -0.000932116 0)
(0.112776 -0.00113279 0)
(0.113002 -0.00106152 0)
(0.112276 -0.00128964 0)
(0.112534 -0.00120883 0)
(0.111707 -0.00146669 0)
(0.112001 -0.00137551 0)
(0.11106 -0.00166556 8.68919e-26)
(0.111394 -0.00156335 0)
(0.110326 -0.00188736 0)
(0.110705 -0.00177356 0)
(0.109497 -0.00213288 0)
(0.109924 -0.00200715 0)
(0.108562 -0.00240239 -9.38196e-26)
(0.109043 -0.00226465 0)
(0.107514 -0.00269536 9.61531e-26)
(0.108053 -0.00254602 0)
(0.106343 -0.00301203 -9.84845e-26)
(0.106944 -0.00285067 0)
(0.105044 -0.00336044 1.30016e-23)
(0.105709 -0.00317943 -2.56293e-23)
(0.10362 -0.00375409 -1.31526e-23)
(0.104345 -0.00355144 2.67723e-23)
(0.102394 -0.00321603 5.58756e-25)
(0.102857 -0.00396051 2.71808e-23)
(0.10334 0.00105715 -2.42612e-23)
(0.103279 -0.000621192 0)
(0.102701 0.00194202 -2.34897e-22)
(0.102591 -0.00151224 0)
(0.115557 0.000262322 -3.52352e-24)
(0.115607 0.000243248 2.58142e-24)
(0.115631 -0.000192408 -1.34642e-23)
(0.115643 -0.000238337 -1.52576e-23)
(0.10203 0.00276245 -2.30721e-22)
(0.102019 -0.00244026 -5.50111e-23)
(0.102116 0.00413959 0)
(0.103845 0.00460909 -6.34799e-23)
(0.101561 -0.00339651 -2.69889e-23)
(0.102059 -0.00416866 4.13207e-23)
(0.103153 0.00474581 1.27123e-22)
(0.103256 0.000210196 0)
(0.104993 0.00419576 0)
(0.104413 0.0044112 -5.6256e-23)
(0.106204 0.0037931 0)
(0.105597 0.00399351 0)
(0.107356 0.00340517 0)
(0.106793 0.00359576 1.25005e-23)
(0.108396 0.00304399 0)
(0.10789 0.00322143 0)
(0.109333 0.00270823 0)
(0.108877 0.00287274 0)
(0.110169 0.00239985 0)
(0.109763 0.00255068 0)
(0.110912 0.00211844 -4.39648e-26)
(0.110552 0.00225581 0)
(0.111569 0.00186345 0)
(0.111251 0.00198771 0)
(0.112149 0.00163408 0)
(0.111868 0.00174564 0)
(0.112659 0.0014293 0)
(0.112412 0.00152872 0)
(0.113107 0.00124762 -4.21965e-29)
(0.11289 0.00133571 0)
(0.1135 0.00108727 3.79353e-29)
(0.11331 0.0011649 0)
(0.113845 0.00094626 0)
(0.113679 0.00101448 0)
(0.114148 0.000822795 3.14105e-29)
(0.114002 0.000882457 0)
(0.114413 0.00071505 0)
(0.114285 0.000767083 0)
(0.114646 0.000621203 0)
(0.114533 0.000666508 0)
(0.11485 0.000539553 0)
(0.114751 0.000578961 0)
(0.115029 0.000468544 0)
(0.114942 0.000502818 0)
(0.115186 0.000406694 0)
(0.11511 0.000436573 0)
(0.115325 0.000352621 0)
(0.115258 0.000378781 0)
(0.115448 0.000304348 3.74526e-24)
(0.115388 0.000327435 3.83348e-24)
(0.115504 0.000282356 -7.18436e-24)
(0.115622 8.77367e-05 -6.88603e-24)
(0.115641 0.000180125 0)
(0.11563 0.000134177 -6.95531e-24)
(0.115613 -5.69759e-06 0)
(0.115616 4.12905e-05 7.02764e-24)
(0.115617 -9.99644e-05 1.04902e-23)
(0.115613 -5.29633e-05 -3.54541e-24)
(0.115623 -0.000146042 -2.06194e-23)
(0.115506 -0.000339578 3.6123e-24)
(0.115609 -0.00030026 1.34316e-23)
(0.115559 -0.000320274 0)
(0.11539 -0.000383713 -7.48804e-24)
(0.115449 -0.00036098 7.51278e-24)
(0.115258 -0.000433616 0)
(0.115326 -0.000408114 0)
(0.11511 -0.000489835 -3.40581e-29)
(0.115186 -0.000460803 0)
(0.114941 -0.000554187 0)
(0.115028 -0.000520921 0)
(0.114748 -0.000628038 0)
(0.114848 -0.000589844 0)
(0.114529 -0.000712864 0)
(0.114642 -0.000668996 0)
(0.114278 -0.000810243 0)
(0.114408 -0.00075989 0)
(0.113993 -0.000921942 7.37567e-26)
(0.11414 -0.0008642 0)
(0.113667 -0.00104985 -7.58925e-26)
(0.113835 -0.000983764 0)
(0.113295 -0.00119602 0)
(0.113487 -0.00112055 0)
(0.112871 -0.00136248 0)
(0.11309 -0.00127659 0)
(0.112388 -0.00155129 0)
(0.112638 -0.00145401 0)
(0.111839 -0.0017643 0)
(0.112122 -0.00165466 0)
(0.111216 -0.00200329 0)
(0.111537 -0.00188048 0)
(0.11051 -0.00226955 0)
(0.110873 -0.00213297 0)
(0.109713 -0.00256391 -9.12323e-26)
(0.110123 -0.00241322 0)
(0.108818 -0.00288658 9.3526e-26)
(0.109278 -0.00272174 0)
(0.107816 -0.00323694 -9.58185e-26)
(0.108331 -0.00305839 0)
(0.1067 -0.00361386 0)
(0.107272 -0.0034222 0)
(0.105465 -0.00401559 0)
(0.106097 -0.00381161 0)
(0.104115 -0.00444287 1.03804e-25)
(0.104806 -0.00422466 1.31455e-23)
(0.10264 -0.00490492 -6.91115e-23)
(0.103391 -0.00466919 0)
(0.101233 -0.00439061 -4.09568e-23)
(0.101857 -0.00514821 -5.31518e-25)
(0.102508 0.00106965 7.59763e-23)
(0.102447 -0.000673512 0)
(0.115654 0.000225348 -1.34045e-23)
(0.115656 -0.000283433 -2.58788e-23)
(0.10178 0.00193786 -4.04686e-23)
(0.101524 0.00363807 6.00454e-25)
(0.101122 0.00276691 1.16509e-22)
(0.101744 -0.00159964 0)
(0.101153 -0.00256909 1.38568e-23)
(0.10225 0.00484395 -1.17162e-22)
(0.101425 0.00485378 1.01709e-22)
(0.100853 0.00389234 -9.99897e-23)
(0.100691 -0.00356971 -4.16016e-23)
(0.10037 -0.00460426 2.78534e-23)
(0.101047 -0.00540668 2.71783e-23)
(0.102418 0.000191864 0)
(0.104349 0.00526139 3.53285e-24)
(0.10282 0.00565796 -4.23809e-25)
(0.103614 0.00545283 2.74795e-23)
(0.105543 0.00482261 2.7059e-23)
(0.104966 0.00504591 -2.71996e-23)
(0.106686 0.00437115 4.94767e-26)
(0.106115 0.00459696 0)
(0.107759 0.00393479 0)
(0.107234 0.00415003 0)
(0.108737 0.00352304 0)
(0.10826 0.00372571 0)
(0.10962 0.00313848 0)
(0.10919 0.00332717 0)
(0.110411 0.00278353 4.49493e-26)
(0.110027 0.00295725 0)
(0.111116 0.00245895 0)
(0.110774 0.00261745 0)
(0.111742 0.00216461 0)
(0.111439 0.00230806 0)
(0.112295 0.00189972 0)
(0.112027 0.00202857 0)
(0.112783 0.00166307 0)
(0.112547 0.00177798 0)
(0.113213 0.00145301 -3.95101e-26)
(0.113005 0.00155486 0)
(0.113591 0.00126754 4.42221e-29)
(0.113408 0.00135734 0)
(0.113922 0.00110445 0)
(0.113762 0.00118335 0)
(0.114214 0.000961582 7.27417e-26)
(0.114073 0.00103064 0)
(0.114469 0.000836786 0)
(0.114346 0.000897067 0)
(0.114694 0.000728005 0)
(0.114585 0.000780528 0)
(0.114891 0.000633316 0)
(0.114796 0.000679022 0)
(0.115064 0.000550942 0)
(0.114981 0.000590704 0)
(0.115217 0.000479229 0)
(0.115143 0.000513857 0)
(0.115351 0.000416679 6.10519e-26)
(0.115286 0.000446905 0)
(0.11547 0.000361511 -3.76163e-24)
(0.115413 0.00038838 0)
(0.115576 0.000312073 3.5765e-24)
(0.115525 0.000336009 0)
(0.115671 0.000268898 3.41121e-24)
(0.115624 0.000289838 -3.48892e-24)
(0.115686 0.000166967 6.74153e-24)
(0.115714 0.000249449 0)
(0.115699 0.000209356 1.00358e-23)
(0.115667 8.08187e-05 0)
(0.115675 0.000123948 0)
(0.115659 -7.33207e-06 0)
(0.115662 3.70073e-05 0)
(0.115662 -9.60849e-05 0)
(0.115659 -5.18307e-05 0)
(0.115677 -0.000182898 1.37223e-23)
(0.115668 -0.000139647 3.40958e-24)
(0.1157 -0.000267949 3.37382e-24)
(0.115687 -0.000225665 2.68912e-23)
(0.115627 -0.000348267 1.75283e-23)
(0.115715 -0.000309803 3.35848e-24)
(0.115672 -0.000328107 -6.82428e-24)
(0.115527 -0.000393601 3.60349e-24)
(0.115578 -0.000370151 -2.16017e-23)
(0.115414 -0.000444779 -2.87953e-29)
(0.115472 -0.000418363 0)
(0.115287 -0.000502045 0)
(0.115353 -0.000472466 0)
(0.115143 -0.000567533 -4.05318e-29)
(0.115217 -0.000533687 0)
(0.114979 -0.000642606 0)
(0.115064 -0.000603791 0)
(0.114793 -0.000728779 0)
(0.114889 -0.000684215 0)
(0.114581 -0.000827711 0)
(0.11469 -0.000776554 0)
(0.114339 -0.000941221 0)
(0.114464 -0.000882535 0)
(0.114063 -0.00107135 -1.47445e-25)
(0.114205 -0.00100409 0)
(0.113749 -0.00122027 0)
(0.113911 -0.00114334 0)
(0.113391 -0.00139031 0)
(0.113576 -0.00130252 0)
(0.112984 -0.0015838 0)
(0.113194 -0.00148399 0)
(0.11252 -0.00180302 0)
(0.112759 -0.00169008 0)
(0.111995 -0.00205013 -8.43328e-26)
(0.112266 -0.00192298 0)
(0.111399 -0.00232704 0)
(0.111706 -0.00218478 0)
(0.110726 -0.00263518 0)
(0.111072 -0.00247716 0)
(0.109968 -0.00297537 9.12323e-26)
(0.110358 -0.00280127 0)
(0.109119 -0.00334767 -1.87249e-28)
(0.109555 -0.00315756 0)
(0.10817 -0.00375117 1.91427e-25)
(0.108657 -0.00354564 0)
(0.107117 -0.00418397 0)
(0.107657 -0.00396411 0)
(0.105955 -0.0046427 0)
(0.10655 -0.00441031 0)
(0.104683 -0.0051214 -3.1145e-28)
(0.105334 -0.00488005 0)
(0.1033 -0.00561672 0)
(0.104005 -0.00536718 0)
(0.101811 -0.00614895 -4.12375e-23)
(0.102568 -0.00587742 0)
(0.100207 -0.00565883 -4.83348e-25)
(0.101027 -0.00643154 7.01814e-23)
(0.101609 0.00106621 0)
(0.102038 0.00578255 1.59792e-22)
(0.100852 0.00192913 2.77222e-23)
(0.115689 0.000312026 -3.4048e-24)
(0.115731 0.000290692 0)
(0.115741 -0.000253909 3.28662e-24)
(0.115756 -0.000292353 -6.51623e-24)
(0.101581 -0.000724084 0)
(0.100859 -0.00168433 0)
(0.100289 0.00291379 0)
(0.100253 -0.00269308 -1.36477e-23)
(0.0997843 -0.00374702 -2.75626e-23)
(0.0994731 -0.00482616 0)
(0.0993351 -0.00591107 7.11045e-23)
(0.100215 -0.00670831 -5.66196e-23)
(0.101537 0.000170584 0)
(0.103535 0.00639145 -1.3211e-26)
(0.101175 0.0058902 5.04755e-23)
(0.102024 0.00679253 -1.80138e-22)
(0.102795 0.00660388 5.2472e-23)
(0.104934 0.00589416 -1.70287e-23)
(0.104245 0.00613428 -2.72454e-23)
(0.106117 0.00540733 0)
(0.105549 0.00565315 0)
(0.107198 0.00491104 -4.94722e-26)
(0.106663 0.00515861 0)
(0.1082 0.00442993 0)
(0.10771 0.00466793 0)
(0.109114 0.00397228 0)
(0.108668 0.00419783 0)
(0.10994 0.00354312 0)
(0.109538 0.00375392 0)
(0.110683 0.00314564 -4.49493e-26)
(0.110322 0.00334032 0)
(0.111347 0.00278133 0)
(0.111024 0.00295931 0)
(0.111937 0.0024505 0)
(0.111651 0.00261177 0)
(0.112461 0.0021525 0)
(0.112207 0.00229748 0)
(0.112924 0.00188604 0)
(0.1127 0.00201545 0)
(0.113333 0.00164933 3.94057e-26)
(0.113135 0.00176411 0)
(0.113693 0.00144017 5.01983e-29)
(0.113519 0.00154147 0)
(0.11401 0.00125618 0)
(0.113856 0.0013452 0)
(0.114288 0.0010949 -4.13147e-29)
(0.114154 0.00117287 0)