/*--------------------------------*- C++ -*----------------------------------*\
  =========                 |
  \\      /  F ield         | OpenFOAM: The Open Source CFD Toolbox
   \\    /   O peration     | Website:  https://openfoam.org
    \\  /    A nd           | Version:  10
     \\/     M anipulation  |
\*---------------------------------------------------------------------------*/
FoamFile
{
    format      ascii;
    class       volScalarField;
    location    "28.5";
    object      p;
}
// * * * * * * * * * * * * * * * * * * * * * * * * * * * * * * * * * * * * * //

dimensions      [0 2 -2 0 0 0 0];

internalField   nonuniform List<scalar> 
28942
(
-0.00356149
-0.00291393
0.00231529
0.00988018
0.0101806
0.000151122
0.00042698
5.5585e-05
0.00308725
0.00317552
-0.00206246
-0.00233432
-0.00272872
-0.00264539
0.000278684
0.000659176
0.0102204
0.0104903
0.00591265
0.00746964
0.00848859
0.00848227
-0.00504821
-0.00485939
-0.0033906
-0.00360322
0.0142282
0.0141767
0.00384151
0.00378985
3.92561e-05
8.23688e-05
0.00108465
0.00046249
0.0074631
0.00867232
0.0112185
0.0131846
2.4617e-05
0.0153874
0.00948058
0.0119783
0.00257932
0.00253719
0.0025566
0.00041308
0.000253741
0.000331031
0.000381938
0.00054421
0.000997083
0.00323036
0.00329602
0.00321285
0.00337248
-0.00212527
-0.000828547
-0.00314753
-0.00299135
-0.0032729
-0.00334348
-0.00334358
-0.00323882
0.000144454
-0.00158977
-8.92795e-05
0.00126458
0.00976466
0.00926802
-0.00314075
-0.00335694
-0.00308529
0.00932504
0.00917863
0.0094701
-0.0012408
-0.000845734
-0.000483733
0.00265965
0.00305997
0.00213613
0.00102568
-0.00615111
-0.00739936
0.00135604
0.00409888
0.00514699
0.00593961
0.00431265
0.00444518
0.00642322
0.00579362
-0.00106011
-0.0013764
-0.00167606
-0.00149954
-0.00130625
0.0056445
0.00694284
-0.00771165
0.0116777
0.0108788
0.00617275
0.00977051
0.00128157
0.00122369
0.00110224
0.00582246
0.00601487
0.00600778
-0.00298625
-0.00290471
-0.00290662
-0.00237446
-0.00248518
0.0161828
0.0141757
0.0136125
0.0152475
0.00192708
0.00503458
0.00372364
0.00539039
0.00506957
0.0158578
0.0161516
0.0148054
0.00623944
0.00732016
0.000287301
0.000410825
0.000180183
0.0108395
0.0113449
0.00805771
0.00771005
0.0131666
0.00702087
0.00831828
0.00937606
-0.0015943
-0.00213591
0.00768964
0.00251163
0.00256354
-0.00092638
-0.00117766
-0.000705774
-0.00224243
0.00690544
0.00602943
0.00399647
0.000362321
0.000292878
0.000138607
0.000298651
0.00784831
0.00711319
-0.00155764
-0.0016844
-0.00157212
-0.003955
-0.00348442
0.0001163
-0.00263745
-0.000267949
0.00872973
0.00883691
0.00993656
0.00947096
0.00804481
0.00350552
0.00342799
0.0036379
0.00351982
0.00539714
0.0051745
0.00550702
0.00572757
0.00566246
0.00572507
0.00593419
0.00648515
0.00618063
0.00577541
0.00610467
0.0068114
0.00756125
0.00785616
-0.000197782
-0.000191781
-0.00221285
0.000312737
0.000125813
-0.00170367
-0.00179807
0.000426025
0.00048207
0.000437826
0.000367137
0.00228123
0.00226646
0.0022446
-0.00267242
-0.00286763
-0.00251212
-0.0041356
-0.00463155
-0.00392155
-0.00452554
-0.00631277
-0.00499081
0.016377
0.0170894
0.0168556
0.0013572
0.00150565
0.00138014
0.0106922
0.010265
0.0103453
0.0017701
0.00174858
0.00179158
0.00172712
0.00170578
0.00168458
0.00168533
0.0016635
0.00166459
0.00170624
0.00172755
0.00174896
0.00177061
0.00179202
0.00164276
0.00164377
0.00181323
0.00181379
0.00183532
0.00162218
0.00162277
0.00183579
0.00160143
0.00158077
0.00160205
0.0015814
0.00185697
0.00185766
0.00156018
0.00156083
0.00187885
0.00187976
0.00153969
0.00154033
0.00190103
0.00190203
0.00151928
0.0015199
0.00192339
0.00192443
0.00149897
0.00149949
0.00194595
0.00194699
0.00147871
0.00147916
0.0019688
0.00196957
0.0014585
0.0014589
0.00199163
0.00199236
0.00143831
0.00143865
0.00201495
0.0020155
0.00141814
0.0014183
0.00203835
0.00203886
0.00139808
0.00139769
0.00206236
0.00206262
0.0013776
0.00137718
0.00208659
0.0020868
0.00135641
0.0013565
0.00206168
0.00208596
0.00211134
0.00211128
0.00201408
0.00203787
0.00196791
0.0019911
0.00192274
0.00194523
0.00187817
0.0019004
0.00183395
0.00185605
0.00179101
0.00181269
0.00174812
0.00176932
0.00170558
0.00172687
0.00166319
0.0016844
0.00162153
0.00164233
0.00158016
0.00160081
0.00153914
0.00155962
0.00149841
0.00151875
0.00145795
0.00147816
0.00141773
0.00143782
0.00137706
0.00139764
0.00135638
0.00133548
0.00133559
0.00139794
0.00135686
0.00137748
0.00143877
0.00141841
0.00147925
0.00145902
0.00151991
0.00149954
0.00156084
0.00154034
0.00160207
0.00158142
0.00164366
0.00162281
0.00168559
0.00166471
0.00172778
0.00170673
0.00177058
0.00174907
0.00181396
0.00179232
0.00185767
0.00183555
0.00190204
0.0018798
0.00194698
0.00192444
0.00199259
0.00196967
0.00203904
0.00201562
0.00208634
0.00206252
0.00211077
0.00211066
0.0013355
0.00133603
0.00213627
0.00213548
0.00213555
0.00213629
0.00206073
0.00210917
0.0020848
0.00201325
0.0020369
0.0019673
0.00199013
0.0019222
0.00194467
0.00187769
0.00189987
0.00183374
0.00185564
0.00179028
0.00181202
0.00174743
0.00176897
0.00170516
0.00172605
0.00166287
0.00168397
0.0016212
0.00164199
0.00157988
0.0016005
0.00153888
0.00155934
0.00149817
0.00151849
0.00145773
0.00147792
0.00141754
0.00143761
0.00137701
0.00139738
0.00131451
0.0013147
0.00133585
0.00135656
0.00135743
0.00133693
0.00131544
0.00131468
0.00139831
0.00137799
0.00143878
0.00141847
0.00147917
0.00145895
0.0015198
0.00149945
0.00156071
0.00154022
0.00160193
0.00158128
0.00164349
0.00162267
0.00168543
0.00166443
0.00172781
0.00170655
0.00177042
0.00174905
0.00181369
0.00179213
0.00185745
0.0018355
0.00190176
0.00187954
0.00194665
0.00192413
0.00199217
0.00196933
0.00203838
0.00201519
0.00208548
0.0020618
0.00213397
0.00210962
0.00213379
0.00216051
0.00215893
0.00216116
0.00131537
0.0013161
0.00216036
0.00215841
0.00218575
0.0021842
0.00216147
0.00133636
0.00131598
0.00129471
0.00129532
0.00215578
0.0021839
0.00220844
0.00218253
0.00210722
0.0021314
0.00205935
0.00208315
0.00201238
0.00203575
0.00196656
0.00198929
0.00192153
0.00194398
0.00187709
0.00189924
0.00183322
0.00185509
0.00178983
0.00181146
0.00174694
0.00176835
0.00170453
0.00172567
0.00166248
0.00168346
0.00162085
0.00164162
0.00157956
0.00160017
0.00153858
0.00155903
0.0014979
0.00151821
0.00145748
0.00147766
0.00141729
0.00143736
0.00137701
0.00139715
0.00135672
0.001294
0.00129466
0.0012942
0.0012942
0.00135788
0.00131687
0.00133747
0.00139848
0.00137822
0.00143866
0.0014185
0.00147902
0.00145881
0.00151963
0.0014993
0.00156052
0.00154004
0.00160172
0.00158108
0.00164325
0.00162244
0.00168514
0.00166415
0.00172744
0.00170624
0.00177016
0.00174875
0.00181334
0.0017917
0.00185703
0.00183513
0.00190127
0.00187908
0.0019461
0.00192361
0.00199154
0.00196874
0.00203764
0.00201451
0.0020845
0.00206095
0.00213238
0.00210829
0.00218205
0.00215692
0.00220938
0.00220719
0.00218543
0.00218647
0.0012954
0.0012962
0.0022097
0.00221107
0.00223137
0.00223253
0.00223467
0.00222264
0.00226749
0.00218646
0.00220015
0.00221733
0.00215339
0.00217809
0.00210492
0.002129
0.00205757
0.00208105
0.00201115
0.00203434
0.0019656
0.00198829
0.00192066
0.00194306
0.0018763
0.00189841
0.00183249
0.00185433
0.00178919
0.00181078
0.00174636
0.00176772
0.00170397
0.00172512
0.00166199
0.00168293
0.00162039
0.00164115
0.00157913
0.00159972
0.00153819
0.00155862
0.00149753
0.00151783
0.00145714
0.00147731
0.00141698
0.00143703
0.0013769
0.0013969
0.00133668
0.00135684
0.00129596
0.00131634
0.00127424
0.00127535
0.00127475
0.00127376
0.00127384
0.00127422
0.00127386
0.00127558
0.00127485
0.0013175
0.00127693
0.00129714
0.00135812
0.00133787
0.00139837
0.00137827
0.00143848
0.00141839
0.00147881
0.00145862
0.0015194
0.00149907
0.00156026
0.00153979
0.00160142
0.0015808
0.00164292
0.00162213
0.00168477
0.0016638
0.00172701
0.00170584
0.00176969
0.0017483
0.00181282
0.00179119
0.00185644
0.00183457
0.00190061
0.00187846
0.00194536
0.00192291
0.00199071
0.00196796
0.00203671
0.00201363
0.00208338
0.00205996
0.00213083
0.00210701
0.00217941
0.00215493
0.00222945
0.00220423
0.00225789
0.00225474
0.00221062
0.00221169
0.00223449
0.00223597
0.00129636
0.001276
0.00125522
0.00125595
0.00226064
0.00226009
0.00228656
0.00223633
0.00228312
0.00228037
0.00226604
0.00221135
0.00219657
0.00221714
0.00215084
0.00217447
0.00210267
0.00212665
0.00205593
0.0020792
0.00200986
0.00203283
0.00196444
0.00198707
0.0019196
0.00194195
0.00187534
0.0018974
0.00183162
0.00185341
0.00178839
0.00180995
0.00174564
0.00176696
0.00170331
0.00172442
0.00166138
0.0016823
0.00161983
0.00164056
0.00157862
0.00159919
0.00153772
0.00155813
0.0014971
0.00151737
0.00145674
0.00147689
0.00141661
0.00143664
0.00137668
0.00139662
0.00133673
0.00135667
0.00131653
0.00125399
0.00125486
0.00125432
0.00125374
0.00125392
0.00125413
0.00125392
0.00125453
0.00131794
0.00127727
0.00129783
0.00135814
0.00133808
0.00139816
0.00137818
0.00143823
0.00141817
0.00147854
0.00145836
0.00151909
0.00149878
0.00155991
0.00153946
0.00160103
0.00158043
0.00164248
0.00162172
0.00168429
0.00166334
0.00172647
0.00170533
0.00176908
0.00174773
0.00181215
0.00179056
0.0018557
0.00183386
0.00189978
0.00187767
0.00194442
0.00192203
0.00198966
0.00196697
0.00203554
0.00201252
0.00208207
0.00205872
0.00212926
0.00210558
0.0021772
0.00215317
0.00222617
0.00220128
0.00227699
0.00225164
0.00230587
0.00230263
0.00223589
0.00223658
0.00125533
0.00125678
0.0022609
0.00226923
0.00228223
0.00226113
0.00228507
0.00228945
0.00231325
0.00230655
0.00230853
0.00233133
0.00232871
0.00223642
0.00224166
0.00229404
0.0022696
0.00219464
0.00221698
0.00214825
0.00217218
0.00210082
0.0021244
0.00205429
0.00207748
0.00200837
0.00203125
0.00196307
0.00198565
0.00191837
0.00194065
0.00187422
0.00189623
0.0018306
0.00185235
0.00178746
0.00180897
0.00174479
0.00176607
0.00170254
0.00172361
0.00166068
0.00168156
0.00161918
0.00163989
0.00157802
0.00159856
0.00153717
0.00155756
0.00149659
0.00151685
0.00145627
0.0014764
0.00141618
0.0014362
0.00137631
0.00139622
0.00133652
0.00135642
0.00129643
0.00131653
0.00125567
0.00127625
0.00123448
0.00123504
0.00123465
0.00123415
0.00123424
0.00123414
0.00123408
0.00123432
0.00123423
0.00123499
0.00123459
0.00123644
0.00123562
0.00127776
0.00123723
0.00125752
0.00131809
0.00129805
0.00135803
0.00133808
0.00139789
0.00137795
0.00143793
0.00141788
0.00147819
0.00145803
0.0015187
0.00149842
0.00155948
0.00153906
0.00160055
0.00157998
0.00164195
0.00162121
0.00168369
0.00166278
0.00172582
0.00170471
0.00176835
0.00174703
0.00181133
0.00178979
0.0018548
0.001833
0.00189877
0.00187672
0.0019433
0.00192096
0.0019884
0.00196578
0.00203412
0.00201118
0.00208048
0.00205722
0.00212749
0.0021039
0.00217514
0.00215125
0.00222344
0.00219918
0.00227248
0.00224793
0.00232335
0.00229739
0.00235434
0.00234957
0.00226116
0.0023165
0.00228561
0.00125608
0.00123587
0.00121607
0.0012167
0.00226158
0.00228614
0.00230916
0.0023103
0.00233386
0.00235737
0.0023798
0.00237538
0.00226146
0.00229183
0.00234014
0.00233807
0.00231527
0.00224101
0.00226732
0.00219262
0.00221596
0.00214582
0.00216962
0.00209874
0.00212216
0.00205239
0.00207549
0.00200665
0.00202944
0.00196152
0.00198401
0.00191696
0.00193917
0.00187294
0.00189488
0.00182943
0.00185113
0.0017864
0.00180786
0.00174382
0.00176506
0.00170165
0.00172269
0.00165987
0.00168071
0.00161844
0.00163911
0.00157734
0.00159785
0.00153654
0.00155691
0.00149602
0.00151625
0.00145575
0.00147586
0.0014157
0.0014357
0.00137587
0.00139576
0.00133621
0.00135602
0.00129639
0.00131631
0.00127627
0.00121437
0.00121462
0.00121449
0.00121442
0.00121442
0.00121462
0.00121451
0.00121474
0.00121469
0.00121504
0.00121488
0.00121547
0.00127819
0.0012378
0.00125804
0.00131801
0.00129814
0.00135776
0.00133792
0.00139756
0.00137764
0.00143757
0.00141754
0.00147779
0.00145765
0.00151825
0.00149799
0.00155897
0.00153858
0.00159999
0.00157945
0.00164132
0.00162062
0.001683
0.00166212
0.00172504
0.00170397
0.0017675
0.00174622
0.00181038
0.00178888
0.00185374
0.001832
0.00189759
0.0018756
0.00194198
0.00191972
0.00198693
0.00196439
0.00203247
0.00200963
0.00207863
0.00205547
0.00212541
0.00210194
0.00217281
0.00214904
0.00222079
0.00219675
0.00226925
0.00224496
0.0023189
0.00229377
0.00236973
0.00234398
0.00233285
0.0023371
0.00240099
0.00239546
0.00228597
0.00121583
0.0012173
0.00236077
0.00228662
0.00236546
0.00231087
0.00231143
0.0023359
0.00233586
0.00235964
0.00238262
0.00240507
0.00242643
0.00242127
0.00228649
0.00233386
0.00238569
0.00238322
0.0023575
0.00228734
0.00231147
0.00223841
0.00226279
0.00218996
0.00221381
0.0021431
0.00216667
0.00209635
0.00211964
0.00205024
0.00207322
0.00200472
0.0020274
0.00195977
0.00198217
0.00191538
0.00193751
0.0018715
0.00189338
0.00182813
0.00184976
0.00178521
0.00180662
0.00174273
0.00176392
0.00170066
0.00172165
0.00165896
0.00167977
0.00161761
0.00163825
0.00157658
0.00159706
0.00153585
0.00155618
0.00149538
0.00151558
0.00145517
0.00147525
0.00141517
0.00143514
0.00137538
0.00139525
0.00133577
0.00135556
0.00129621
0.00131602
0.00125634
0.00127628
0.00121607
0.00123638
0.00119487
0.00119564
0.00119519
0.00119471
0.0011947
0.00119489
0.00119476
0.00119512
0.00119502
0.00119521
0.00119519
0.00119536
0.00119523
0.00119584
0.00119551
0.00119699
0.00119625
0.00123818
0.00119769
0.00121802
0.00127826
0.00125826
0.00131784
0.0012981
0.00135743
0.00133762
0.00139719
0.00137729
0.00143715
0.00141714
0.00147732
0.0014572
0.00151772
0.00149749
0.00155839
0.00153802
0.00159934
0.00157883
0.0016406
0.00161993
0.0016822
0.00166136
0.00172416
0.00170313
0.00176651
0.00174529
0.00180929
0.00178785
0.00185253
0.00183085
0.00189625
0.00187433
0.00194048
0.0019183
0.00198526
0.00196281
0.0020306
0.00200786
0.00207653
0.0020535
0.00212305
0.00209972
0.00217015
0.00214653
0.0022178
0.00219391
0.0022659
0.00224181
0.00231443
0.00229016
0.00236361
0.00233874
0.00241419
0.00238901
0.00235715
0.00236532
0.00244588
0.00243868
0.0023114
0.00231196
0.00240661
0.00241009
0.00239006
0.00233593
0.00233697
0.00121635
0.00119632
0.00117678
0.00117744
0.00236272
0.00236141
0.00238512
0.00240791
0.00243012
0.00245088
0.00242971
0.00242628
0.00244839
0.00247066
0.00246495
0.00245461
0.0023119
0.00238054
0.00240252
0.00232963
0.0023543
0.00228268
0.00230682
0.00223441
0.00225829
0.00218696
0.00221064
0.0021401
0.00216349
0.0020937
0.00211683
0.00204786
0.00207071
0.00200258
0.00202515
0.00195784
0.00198015
0.00191363
0.00193567
0.00186992
0.00189171
0.00182668
0.00184824
0.0017839
0.00180524
0.00174153
0.00176267
0.00169956
0.0017205
0.00165796
0.00167872
0.00161669
0.00163729
0.00157574
0.00159618
0.00153508
0.00155538
0.00149468
0.00151485
0.00145452
0.00147457
0.00141458
0.00143453
0.00137484
0.00139469
0.00133529
0.00135504
0.00129589
0.00131558
0.00125633
0.00127613
0.00123643
0.00117494
0.00117547
0.00117509
0.00117512
0.00117505
0.00117542
0.00117527
0.00117564
0.00117554
0.00117574
0.00117571
0.00117576
0.00117574
0.00117604
0.00117587
0.00117634
0.00123845
0.00119835
0.00121846
0.00127812
0.00125828
0.00131752
0.00129782
0.00135705
0.00133727
0.00139677
0.00137689
0.00143667
0.00141669
0.00147678
0.0014567
0.00151713
0.00149692
0.00155772
0.00153739
0.0015986
0.00157813
0.00163978
0.00161916
0.00168129
0.0016605
0.00172316
0.00170218
0.00176541
0.00174424
0.00180807
0.00178669
0.00185117
0.00182957
0.00189475
0.0018729
0.00193881
0.00191672
0.0019834
0.00196104
0.00202852
0.00200589
0.0020742
0.00205129
0.00212043
0.00209725
0.00216719
0.00214375
0.00221446
0.00219077
0.00226215
0.00223826
0.00231011
0.00228613
0.00235819
0.00233416
0.00240616
0.00238228
0.00245631
0.00243014
0.00243418
0.00248824
0.00249569
0.00251201
0.00250484
0.00247896
0.00238136
0.00239504
0.00233703
0.00233754
0.00117619
0.00117796
0.00241723
0.00236206
0.00236265
0.00238881
0.00238711
0.00241074
0.00243349
0.00245482
0.00247475
0.00247116
0.00246401
0.00248601
0.00249446
0.00251887
0.00252925
0.00249401
0.00247827
0.00246078
0.00251754
0.00253469
0.00233756
0.00242095
0.00244115
0.00237351
0.00239631
0.00232481
0.00234942
0.00227755
0.00230115
0.00223034
0.00225395
0.00218338
0.00220682
0.00213688
0.00216007
0.00209083
0.00211379
0.00204528
0.00206799
0.00200025
0.0020227
0.00195574
0.00197793
0.00191172
0.00193367
0.00186818
0.0018899
0.00182511
0.00184659
0.00178246
0.00180373
0.00174022
0.00176129
0.00169836
0.00171925
0.00165686
0.00167757
0.00161569
0.00163624
0.00157482
0.00159522
0.00153424
0.0015545
0.00149391
0.00151405
0.00145382
0.00147384
0.00141394
0.00143386
0.00137426
0.00139408
0.00133476
0.00135449
0.00129542
0.00131507
0.00125611
0.00127579
0.00121662
0.00123637
0.00117661
0.00119663
0.00115561
0.00115644
0.00115598
0.00115536
0.00115533
0.00115565
0.00115547
0.00115597
0.00115582
0.00115618
0.00115609
0.00115629
0.00115625
0.00115629
0.0011563
0.00115636
0.00115634
0.00115678
0.0011565
0.00115764
0.00115717
0.00119856
0.00115823
0.00117853
0.00123847
0.00121859
0.00127782
0.00125818
0.00131715
0.00129746
0.00135663
0.00133687
0.00139629
0.00137644
0.00143613
0.00141619
0.00147618
0.00145613
0.00151646
0.00149629
0.00155699
0.00153669
0.00159778
0.00157735
0.00163888
0.00161829
0.00168029
0.00165955
0.00172205
0.00170113
0.00176419
0.00174307
0.00180672
0.0017854
0.00184968
0.00182814
0.00189309
0.00187133
0.00193697
0.00191497
0.00198135
0.0019591
0.00202624
0.00200373
0.00207164
0.00204888
0.00211756
0.00209454
0.00216397
0.00214071
0.00221082
0.00218735
0.00225804
0.00223439
0.0023055
0.00228176
0.00235298
0.00232927
0.00240009
0.00237661
0.00244677
0.00242367
0.00246893
0.00240415
0.00242202
0.00255136
0.00254141
0.00236288
0.00236333
0.00244047
0.00238791
0.00238846
0.00117678
0.00115682
0.00113745
0.00113789
0.00241471
0.0024129
0.00243645
0.00245891
0.00248011
0.00250008
0.00250792
0.00250015
0.00252372
0.00253071
0.00251895
0.00250099
0.00248491
0.00254152
0.00255573
0.00256252
0.00257228
0.00236343
0.0024584
0.00247584
0.00241327
0.00243652
0.00236589
0.00238971
0.00231938
0.00234276
0.00227267
0.00229599
0.00222601
0.00224935
0.00217952
0.00220273
0.00213342
0.00215643
0.00208773
0.00211052
0.0020425
0.00206506
0.00199774
0.00202006
0.00195346
0.00197554
0.00190966
0.0019315
0.00186631
0.00188793
0.0018234
0.0018448
0.0017809
0.0018021
0.0017388
0.00175981
0.00169707
0.00171789
0.00165567
0.00167633
0.0016146
0.0016351
0.00157383
0.00159418
0.00153333
0.00155355
0.00149308
0.00151318
0.00145306
0.00147305
0.00141325
0.00143313
0.00137363
0.00139342
0.00133419
0.00135389
0.0012949
0.00131452
0.00125574
0.00127531
0.00121651
0.00123609
0.00119674
0.00113577
0.0011363
0.00113601
0.00113586
0.0011358
0.00113624
0.00113605
0.00113655
0.00113641
0.00113675
0.00113666
0.00113686
0.00113682
0.00113686
0.00113688
0.00113681
0.00113684
0.0011369
0.00113685
0.00113707
0.0011987
0.00115872
0.00117886
0.0012383
0.00121851
0.00127746
0.00125787
0.00131674
0.00129708
0.00135617
0.00133643
0.00139577
0.00137595
0.00143554
0.00141563
0.00147553
0.00145551
0.00151573
0.0014956
0.00155617
0.00153592
0.00159689
0.0015765
0.00163788
0.00161735
0.00167919
0.0016585
0.00172084
0.00169998
0.00176285
0.0017418
0.00180524
0.001784
0.00184804
0.00182659
0.00189128
0.00186961
0.00193496
0.00191306
0.00197912
0.00195698
0.00202375
0.00200138
0.00206887
0.00204626
0.00211446
0.00209161
0.00216049
0.00213743
0.00220691
0.00218366
0.00225363
0.00223024
0.00230052
0.00227707
0.00234737
0.00232397
0.00239387
0.00237069
0.0024395
0.00241692
0.00248387
0.00246186
0.00252969
0.00250716
0.00258242
0.0025716
0.00254884
0.0024283
0.00244646
0.00238866
0.00238921
0.00113664
0.00113853
0.00246706
0.00241385
0.00241436
0.00244065
0.00243875
0.00246215
0.00248436
0.00250512
0.00252419
0.00254374
0.00253432
0.00255212
0.00255798
0.00257583
0.00259143
0.00256288
0.00255501
0.00253991
0.00252634
0.00250783
0.00256437
0.00257865
0.00259181
0.00260102
0.00238931
0.00249496
0.00251581
0.00245016
0.00246964
0.00240475
0.00242857
0.00235943
0.00238216
0.00231364
0.00233661
0.00226755
0.0022906
0.00222142
0.00224448
0.00217543
0.0021984
0.00212975
0.00215255
0.00208443
0.00210704
0.00203952
0.00206193
0.00199505
0.00201723
0.00195103
0.00197299
0.00190745
0.00192918
0.0018643
0.00188582
0.00182157
0.00184288
0.00177923
0.00180035
0.00173727
0.00175821
0.00169567
0.00171643
0.0016544
0.001675
0.00161344
0.00163388
0.00157276
0.00159307
0.00153235
0.00155253
0.00149219
0.00151224
0.00145225
0.00147219
0.00141251
0.00143236
0.00137296
0.00139271
0.00133358
0.00135325
0.00129434
0.00131394
0.00125525
0.00127478
0.00121626
0.00123574
0.00117681
0.00119654
0.00113677
0.00115699
0.0011163
0.00111662
0.00111634
0.00111621
0.00111619
0.00111645
0.00111626
0.00111686
0.00111667
0.00111715
0.00111701
0.00111734
0.00111726
0.00111746
0.00111741
0.00111747
0.00111748
0.0011174
0.00111745
0.00111731
0.00111734
0.00111763
0.00111742
0.00111857
0.001118
0.00115905
0.00111923
0.00113925
0.0011987
0.00117897
0.00123797
0.00121835
0.00127706
0.0012575
0.00131629
0.00129666
0.00135566
0.00133596
0.00139519
0.00137541
0.0014349
0.00141502
0.00147481
0.00145483
0.00151493
0.00149484
0.00155529
0.00153508
0.00159591
0.00157557
0.0016368
0.00161632
0.001678
0.00165737
0.00171953
0.00169872
0.0017614
0.00174042
0.00180364
0.00178247
0.00184627
0.00182491
0.00188932
0.00186775
0.0019328
0.00191101
0.00197672
0.0019547
0.00202109
0.00199885
0.0020659
0.00204344
0.00211115
0.00208848
0.00215678
0.00213392
0.00220275
0.00217973
0.00224895
0.00222583
0.00229523
0.0022721
0.0023414
0.00231835
0.00238715
0.00236435
0.00243206
0.00240977
0.00247556
0.00245405
0.00251704
0.00249676
0.00253588
0.00245302
0.00247274
0.00260891
0.0025974
0.00241454
0.00241517
0.00249184
0.00243981
0.00244033
0.0011371
0.00111724
0.00109857
0.00109904
0.00246659
0.00246461
0.0024878
0.00250966
0.00252991
0.00254831
0.00256889
0.00255625
0.00257155
0.00258637
0.00258205
0.00257481
0.00256425
0.00254795
0.00253288
0.00258708
0.00259981
0.00261008
0.0026187
0.00261017
0.0026206
0.00241527
0.00252417
0.00253958
0.00248348
0.00250533
0.00244035
0.00246216
0.00239712
0.00241902
0.00235276
0.00237505
0.00230763
0.00233027
0.00226216
0.00228491
0.00221659
0.00223938
0.00217112
0.00219384
0.00212587
0.00214846
0.00208094
0.00210336
0.00203637
0.00205861
0.0019922
0.00201424
0.00194844
0.00197027
0.00190509
0.00192672
0.00186216
0.00188358
0.00181961
0.00184084
0.00177745
0.00179849
0.00173564
0.0017565
0.00169418
0.00171487
0.00165304
0.00167357
0.00161219
0.00163258
0.00157162
0.00159187
0.00153131
0.00155144
0.00149124
0.00151125
0.00145138
0.00147128
0.00141172
0.00143153
0.00137224
0.00139196
0.00133292
0.00135256
0.00129375
0.00131332
0.00125472
0.00127422
0.00121581
0.00123525
0.00117668
0.00119626
0.00115692
0.00109647
0.00109665
0.0010965
0.00109671
0.00109661
0.00109712
0.0010969
0.00109749
0.00109732
0.00109777
0.00109764
0.00109796
0.00109787
0.00109807
0.00109803
0.0010981
0.0010981
0.00109805
0.00109809
0.00109793
0.00109799
0.00109795
0.00109794
0.00109812
0.00115927
0.00111964
0.00113966
0.00119855
0.00117896
0.00123759
0.0012181
0.00127663
0.0012571
0.0013158
0.0012962
0.00135511
0.00133544
0.00139457
0.00137482
0.00143421
0.00141437
0.00147403
0.0014541
0.00151407
0.00149403
0.00155434
0.00153418
0.00159485
0.00157456
0.00163564
0.00161521
0.00167672
0.00165614
0.00171811
0.00169738
0.00175984
0.00173893
0.00180192
0.00178084
0.00184438
0.0018231
0.00188723
0.00186575
0.00193048
0.00190881
0.00197415
0.00195227
0.00201824
0.00199615
0.00206274
0.00204045
0.00210763
0.00208514
0.00215285
0.0021302
0.00219835
0.00217558
0.00224402
0.00222118
0.0022897
0.00226687
0.00233517
0.00231248
0.00238013
0.00235774
0.00242418
0.00240231
0.00246685
0.00244573
0.00250719
0.00248741
0.00254453
0.00252635
0.00258173
0.00256201
0.00262496
0.00261004
0.00259443
0.00247774
0.00249816
0.0024405
0.00244121
0.00109733
0.00109964
0.00251637
0.00246578
0.00246633
0.00249248
0.00249046
0.00251337
0.00253476
0.00255438
0.00257196
0.00258776
0.00257562
0.00258656
0.0025959
0.0026059
0.0026211
0.0026022
0.00260362
0.00259971
0.00259461
0.00258465
0.00257255
0.00255643
0.00260895
0.00262004
0.00262801
0.00263396
0.00263505
0.00263526
0.00244131
0.00254972
0.00256449
0.00251287
0.00252672
0.00247221
0.0024945
0.00243162
0.0024521
0.00238938
0.00241071
0.00234577
0.0023677
0.00230136
0.00232364
0.00225654
0.00227899
0.00221156
0.00223406
0.0021666
0.00218907
0.0021218
0.00214418
0.00207727
0.0020995
0.00203305
0.00205512
0.00198919
0.00201108
0.00194571
0.0019674
0.00190261
0.00192411
0.00185989
0.0018812
0.00181754
0.00183867
0.00177556
0.00179651
0.00173392
0.0017547
0.0016926
0.00171322
0.00165159
0.00167206
0.00161087
0.0016312
0.00157041
0.00159061
0.0015302
0.00155028
0.00149023
0.00151019
0.00145046
0.00147032
0.00141088
0.00143065
0.00137148
0.00139116
0.00133223
0.00135184
0.00129313
0.00131267
0.00125416
0.00127363
0.0012153
0.00123471
0.00117643
0.00119589
0.00113728
0.00115683
0.00109759
0.00111758
0.00107704
0.00107743
0.00107717
0.00107704
0.00107695
0.00107738
0.00107718
0.0010778
0.00107759
0.00107814
0.00107798
0.00107841
0.00107828
0.0010786
0.00107851
0.00107871
0.00107866
0.00107875
0.00107874
0.00107871
0.00107874
0.0010786
0.00107867
0.00107846
0.00107852
0.00107877
0.00107855
0.00107982
0.0010792
0.00111998
0.00108041
0.00110024
0.00115932
0.00113977
0.00119831
0.00117879
0.00123719
0.00121775
0.00127617
0.00125667
0.00131528
0.00129571
0.00135451
0.00133488
0.0013939
0.00137419
0.00143346
0.00141366
0.0014732
0.00145331
0.00151315
0.00149315
0.00155332
0.0015332
0.00159372
0.00157349
0.0016344
0.00161403
0.00167535
0.00165484
0.0017166
0.00169594
0.00175817
0.00173735
0.00180009
0.00177909
0.00184236
0.00182118
0.001885
0.00186364
0.00192803
0.00190647
0.00197144
0.00194969
0.00201524
0.00199329
0.00205941
0.00203728
0.00210392
0.00208163
0.00214872
0.00212629
0.00219374
0.00217122
0.00223887
0.00221631
0.00228393
0.00226142
0.0023287
0.00230637
0.00237288
0.0023509
0.00241606
0.00239464
0.00245777
0.00243714
0.00249725
0.00247786
0.00253353
0.00251593
0.00256588
0.0025504
0.00257962
0.00250247
0.00252334
0.00263287
0.00261949
0.00246651
0.00246728
0.00254101
0.00249174
0.00249231
0.00109779
0.00107808
0.00105994
0.00106054
0.00251831
0.00251623
0.00253876
0.00255959
0.00257845
0.00259504
0.00259899
0.00258557
0.00259122
0.00260508
0.00261768
0.00261761
0.00261809
0.00261022
0.0026047
0.00259342
0.00257963
0.00262993
0.00263924
0.0026455
0.00264708
0.00264812
0.00264447
0.00262454
0.0026379
0.00246738
0.00256452
0.00256945
0.00253723
0.0025537
0.00250055
0.0025164
0.00246235
0.00248264
0.00242284
0.00244277
0.0023814
0.00240234
0.00233858
0.00236012
0.00229491
0.00231683
0.00225074
0.00227287
0.00220634
0.00222856
0.0021619
0.00218412
0.00211756
0.00213971
0.00207343
0.00209547
0.00202957
0.00205147
0.00198603
0.00200776
0.00194284
0.00196439
0.00189999
0.00192137
0.0018575
0.00187871
0.00181537
0.00183639
0.00177357
0.00179443
0.00173209
0.00175279
0.00169093
0.00171148
0.00165006
0.00167046
0.00160947
0.00162974
0.00156913
0.00158927
0.00152904
0.00154906
0.00148916
0.00150907
0.00144948
0.0014693
0.00140999
0.00142972
0.00137067
0.00139031
0.0013315
0.00135107
0.00129247
0.00131197
0.00125356
0.00127301
0.00121477
0.00123415
0.00117606
0.00119541
0.00113716
0.00115657
0.00111756
0.00105739
0.00105761
0.00105744
0.00105768
0.00105754
0.0010581
0.00105788
0.00105849
0.0010583
0.00105881
0.00105866
0.00105907
0.00105895
0.00105925
0.00105917
0.00105937
0.00105932
0.00105941
0.0010594
0.00105939
0.00105941
0.0010593
0.00105936
0.00105916
0.00105923
0.00105919
0.00105917
0.00105946
0.00112024
0.00108096
0.00110062
0.0011592
0.0011397
0.00119795
0.00117857
0.00123676
0.00121735
0.00127568
0.00125621
0.00131471
0.00129518
0.00135388
0.00133428
0.00139319
0.00137352
0.00143266
0.00141291
0.00147231
0.00145247
0.00151216
0.00149221
0.00155223
0.00153217
0.00159252
0.00157235
0.00163307
0.00161277
0.00167389
0.00165345
0.001715
0.00169441
0.00175641
0.00173567
0.00179815
0.00177724
0.00184022
0.00181915
0.00188265
0.0018614
0.00192543
0.001904
0.00196858
0.00194696
0.00201207
0.00199029
0.00205591
0.00203395
0.00210004
0.00207794
0.00214441
0.0021222
0.00218895
0.00216667
0.00223352
0.00221124
0.00227797
0.00225578
0.00232205
0.00230007
0.00236545
0.00234386
0.00240778
0.00238679
0.00244852
0.00242839
0.00248701
0.00246811
0.00252242
0.00250517
0.00255362
0.00253872
0.00257954
0.00256737
0.00260351
0.00258987
0.00262745
0.00261375
0.00260948
0.00252704
0.00254807
0.00249252
0.00249334
0.00105821
0.00106093
0.00256522
0.00251762
0.00251823
0.002544
0.00254185
0.0025639
0.00258405
0.00260201
0.00261742
0.00259483
0.00258552
0.00258993
0.00261107
0.00261818
0.00262565
0.00263345
0.00263102
0.0026295
0.00262236
0.00261351
0.00260137
0.00264985
0.00265728
0.00266111
0.00266164
0.0026581
0.00265053
0.00264006
0.00259792
0.00261969
0.00260231
0.00249345
0.00257557
0.0025744
0.00255002
0.00256072
0.00252298
0.00253802
0.00248831
0.00250602
0.00245252
0.00247089
0.00241387
0.00243347
0.00237325
0.00239378
0.00233124
0.00235239
0.00228829
0.00230986
0.00224478
0.00226659
0.00220096
0.00222289
0.00215703
0.002179
0.00211316
0.00213508
0.00206944
0.00209128
0.00202595
0.00204766
0.00198274
0.00200431
0.00193983
0.00196125
0.00189726
0.00191851
0.001855
0.00187609
0.00181308
0.001834
0.00177148
0.00179224
0.00173018
0.00175079
0.00168918
0.00170965
0.00164846
0.00166879
0.001608
0.0016282
0.00156779
0.00158787
0.00152781
0.00154777
0.00148804
0.0015079
0.00144846
0.00146823
0.00140906
0.00142874
0.00136983
0.00138943
0.00133074
0.00135027
0.00129178
0.00131125
0.00125294
0.00127235
0.00121421
0.00123357
0.00117557
0.00119488
0.00113688
0.0011562
0.001098
0.0011175
0.0010584
0.00107832
0.00103807
0.00103835
0.00103818
0.00103806
0.00103798
0.00103841
0.0010382
0.00103884
0.00103863
0.0010392
0.00103902
0.0010395
0.00103936
0.00103974
0.00103963
0.00103992
0.00103984
0.00104004
0.00103999
0.00104009
0.00104007
0.00104009
0.0010401
0.00104002
0.00104006
0.00103989
0.00103997
0.00103983
0.00103982
0.00104016
0.0010399
0.0010411
0.00104051
0.0010811
0.00104161
0.00106138
0.0011202
0.00110071
0.00115891
0.00113958
0.00119756