/*--------------------------------*- C++ -*----------------------------------*\
  =========                 |
  \\      /  F ield         | OpenFOAM: The Open Source CFD Toolbox
   \\    /   O peration     | Website:  https://openfoam.org
    \\  /    A nd           | Version:  10
     \\/     M anipulation  |
\*---------------------------------------------------------------------------*/
FoamFile
{
    format      ascii;
    class       volVectorField;
    location    "66";
    object      U;
}
// * * * * * * * * * * * * * * * * * * * * * * * * * * * * * * * * * * * * * //

dimensions      [0 1 -1 0 0 0 0];

internalField   nonuniform List<vector> 
28942
(
(0.00443699 -0.00226118 -3.43854e-22)
(0.00600507 -0.00234571 -6.39389e-23)
(0.0179416 -0.0123901 -8.20184e-22)
(0.103305 0.0182364 -5.24727e-21)
(0.102343 0.0222788 1.71815e-21)
(0.0149615 0.000467943 0)
(0.0177863 4.43953e-05 1.16219e-23)
(0.0206131 0.000604319 -1.03075e-23)
(0.135248 -0.0183851 -2.53265e-22)
(0.133902 -0.0167499 7.2105e-22)
(0.0098079 0.00401631 -6.78107e-22)
(0.0160886 0.00563411 2.57438e-22)
(0.00714617 0.00315521 0)
(0.00471308 0.00207017 0)
(0.0465254 0.00204838 -1.59112e-23)
(0.044666 0.0026464 -6.24659e-24)
(0.0893168 0.0158803 6.66226e-22)
(0.0870048 0.0138488 1.07228e-21)
(0.0121669 -0.0151155 2.90451e-21)
(0.0293364 -0.0304736 -7.64374e-22)
(0.0981209 0.0373852 9.49633e-22)
(0.0972991 0.0344218 0)
(0.0187554 0.00463306 1.17009e-21)
(0.0078709 0.00236635 5.52085e-22)
(0.0378223 0.00722001 9.47501e-22)
(0.0575635 0.00292034 -8.63776e-22)
(0.00764839 -0.0184967 8.49244e-21)
(0.00669402 -0.0165608 -3.12823e-21)
(0.0355177 -0.0253275 5.68506e-22)
(0.0193045 -0.0136846 1.96168e-22)
(0.0153477 -0.00141422 0)
(0.019189 -0.00123568 -1.44018e-23)
(0.0243566 0.00437751 2.96664e-22)
(0.0350422 0.00194007 -4.72626e-23)
(0.0188261 0.0180093 1.30997e-21)
(0.0157202 0.0191187 -1.29936e-21)
(0.0321704 0.0376145 -3.04565e-21)
(0.0186697 0.0305323 -1.06677e-21)
(0.00821602 4.87119e-06 -9.73908e-24)
(0.00864894 0.0161959 -2.6095e-21)
(0.0306489 -0.00620321 0)
(0.0513421 -0.0109695 0)
(0.112113 -0.0121176 -2.69128e-23)
(0.111625 -0.0121341 7.94417e-23)
(0.116106 -0.0120238 6.91534e-23)
(0.0290405 0.000211638 1.21985e-23)
(0.0270429 -0.000596365 -1.9671e-23)
(0.0385857 -0.000498068 -8.91038e-23)
(0.036981 -0.000567056 2.53628e-23)
(0.0300817 -0.00277152 -2.18587e-22)
(0.0224115 -0.00333887 1.41728e-22)
(0.128628 0.00138556 -3.97608e-22)
(0.127946 0.000909744 -3.71505e-22)
(0.134568 -0.0211574 -3.77619e-24)
(0.133018 -0.0194303 1.37725e-22)
(0.0825542 0.00637791 7.19621e-22)
(0.101811 -0.000738535 2.51977e-22)
(0.00306202 0.00162207 -5.67836e-22)
(0.00895285 0.00368271 0)
(0.00826604 0.00329214 2.38213e-22)
(0.00288593 0.00148947 4.90042e-22)
(0.000362691 0.000226469 -4.0734e-22)
(0.000193058 0.000122695 -3.91608e-22)
(0.109807 -0.0426102 0)
(0.104944 -0.0256098 1.28044e-22)
(0.121816 -0.0331075 -4.42786e-23)
(0.123455 -0.0437646 0)
(0.0901138 -0.0328067 -6.36989e-22)
(0.0936184 -0.0352725 -4.18594e-22)
(0.00188894 -0.0011319 1.13693e-21)
(0.00249376 -0.00202079 -3.58236e-22)
(0.00488106 -0.00316131 8.88835e-22)
(0.0848873 -0.0457664 0)
(0.091212 -0.0396276 2.16181e-21)
(0.0805577 -0.0530339 5.83945e-22)
(0.114181 0.0123784 2.41029e-22)
(0.112786 0.00687016 -2.67215e-22)
(0.12515 0.0109681 -1.15847e-22)
(0.0046852 -0.00286294 -5.31829e-23)
(0.00634098 -0.00442754 4.4323e-22)
(0.0510273 -0.0311558 1.24278e-22)
(0.0331677 -0.0205441 -2.56488e-22)
(0.00211416 -0.000597929 3.21428e-21)
(0.00516265 -0.00207586 -1.25241e-21)
(0.101006 0.0482457 1.23031e-23)
(0.0970485 0.0552127 -7.60726e-22)
(0.0807348 0.0540118 6.93786e-22)
(0.0472126 0.034513 -2.66849e-21)
(0.0444413 0.0316098 1.88975e-21)
(0.0294968 0.020598 -1.12821e-22)
(0.0327174 0.0232507 -6.38756e-22)
(0.0379589 0.0283602 8.65718e-22)
(0.00441379 0.00271657 -5.97099e-23)
(0.00777322 0.00397153 -1.71995e-23)
(0.00319132 0.00201744 3.44659e-23)
(0.00192272 0.00163867 -4.6107e-22)
(0.00144871 0.00155999 5.65607e-22)
(0.0157443 0.0115448 -3.24092e-21)
(0.017497 0.0136365 7.42066e-22)
(0.00881217 -0.00385124 0)
(0.101389 0.0051596 0)
(0.0984003 0.0156836 -3.95108e-21)
(0.0604404 0.0104756 1.93518e-21)
(0.08868 0.0178814 0)
(0.135499 -0.00119033 0)
(0.134938 -0.00190791 0)
(0.133255 -0.00239882 -2.43291e-22)
(0.114976 0.0265876 -2.11091e-22)
(0.114068 0.0279914 2.08738e-21)
(0.113269 0.025452 1.12013e-21)
(0.00229651 0.00130002 1.05945e-21)
(0.00151276 0.000777121 -1.18913e-21)
(0.0190714 -0.00554678 -5.53477e-22)
(0.0201562 -0.00507853 4.73042e-22)
(0.00911489 -0.00293647 9.34983e-22)
(0.00647663 0.0111446 1.47627e-21)
(0.0189684 0.0181532 3.45047e-21)
(0.0134654 0.0227949 2.72184e-22)
(0.00492086 0.0143027 -8.60689e-21)
(0.117012 0.0477415 5.50154e-23)
(0.107878 0.0582309 1.06213e-21)
(0.118341 0.0548654 -1.83173e-21)
(0.039097 -0.0294217 7.27704e-22)
(0.0240128 -0.0172673 -4.64531e-22)
(0.00532176 -0.000746582 -4.09544e-21)
(0.00453875 -0.0035966 0)
(0.0124968 -0.00167889 1.99874e-21)
(0.0219673 -0.0161326 7.75112e-22)
(0.0342599 -0.027788 -1.94592e-21)
(0.036504 -1.86687e-05 6.20181e-23)
(0.0388017 0.000143261 -4.49163e-23)
(0.0342888 0.000167579 -1.91717e-24)
(0.0280587 -0.0419551 0)
(0.0296078 -0.0428473 0)
(0.0896219 -0.0186534 -4.614e-22)
(0.0995897 -0.0220913 3.13563e-21)
(0.087034 -0.0252787 0)
(0.0471237 -0.0401934 0)
(0.0581852 -0.0513908 -7.79454e-22)
(0.0413136 0.039336 2.07982e-21)
(-3.66996e-06 0.000212693 5.18338e-22)
(-0.00019562 0.0001299 -3.41998e-22)
(0.0223297 -0.0192432 -7.87664e-22)
(0.120443 -0.0118868 3.89907e-22)
(0.119823 -0.0118478 -7.54523e-23)
(0.115507 -0.00568783 -6.77236e-23)
(0.108442 0.00101627 9.02513e-23)
(0.117706 -0.000274016 1.86618e-22)
(8.1454e-05 0.000258685 1.99868e-22)
(0.0437486 0.0344196 3.19247e-21)
(0.0618807 0.0463081 -7.84955e-22)
(0.059318 0.0393673 -2.99926e-24)
(0.0238697 -0.00087599 5.97468e-24)
(0.0235199 -0.000865925 3.15226e-23)
(0.0255143 -0.000651468 1.31129e-24)
(0.0284795 -0.000640998 -1.55019e-23)
(0.0454221 0.0380893 1.33789e-22)
(0.0189626 0.0160591 0)
(0.000142505 -3.55391e-05 3.72758e-22)
(0.000426305 -0.000261332 -4.13547e-22)
(0.00186697 -0.001022 2.8885e-22)
(0.0365775 -0.00773189 -1.85075e-21)
(0.0648986 -0.00211392 -7.55744e-22)
(0.0330892 -0.000243012 -2.24858e-24)
(0.0745089 -0.00764098 2.72292e-22)
(0.0707161 -0.0157298 6.55266e-23)
(0.0943077 0.0399081 2.13707e-21)
(0.0914091 0.0454438 9.92822e-23)
(0.0887507 0.0290776 1.21238e-21)
(0.0914761 0.030794 -8.786e-22)
(0.0987002 0.0410682 0)
(0.126094 -0.000385607 1.48242e-22)
(0.126862 -0.000821948 2.79892e-22)
(0.128093 -0.0122933 -2.92916e-22)
(0.129557 -0.0120952 5.01262e-22)
(0.117055 0.0241285 2.58752e-22)
(0.119114 0.0250273 -7.32663e-22)
(0.117102 0.0261415 0)
(0.115136 0.0248807 1.52601e-22)
(0.116674 0.0280647 0)
(0.117178 0.0360866 -5.48767e-22)
(0.115716 0.0381395 -2.99702e-22)
(0.111343 0.0419545 -5.38506e-22)
(0.113737 0.0400856 0)
(0.116427 0.0430601 1.78041e-21)
(0.113705 0.0449841 4.73885e-23)
(0.108337 0.0441664 -3.02615e-22)
(0.0996351 0.0502718 -1.28259e-21)
(0.0984242 0.0454837 -2.26006e-22)
(0.0250013 -0.00851597 6.15434e-23)
(0.0328691 -0.0093768 -2.45566e-23)
(0.00629639 -0.00249649 -6.98538e-22)
(0.0324708 -7.91429e-05 -3.98488e-23)
(0.0415448 -0.00028247 0)
(-2.01321e-06 -4.13262e-05 4.38014e-22)
(1.3974e-05 -4.79907e-05 2.2303e-22)
(0.0376095 -0.00188256 1.85328e-23)
(0.0443929 -0.00183004 7.52528e-24)
(0.0439219 -0.00125405 0)
(0.036384 -0.000854147 8.16864e-24)
(0.0881203 0.0038559 -1.12315e-22)
(0.0874031 0.00348072 5.30944e-22)
(0.0883049 0.0035993 2.4555e-22)
(0.0006706 0.000271025 3.9633e-22)
(-0.000159858 -0.000129627 -5.73662e-22)
(-0.000201598 -0.000169373 4.8949e-22)
(0.00150197 0.000618199 0)
(8.01898e-05 8.79844e-05 1.14503e-21)
(0.00017228 -3.89151e-05 -8.26492e-22)
(0.00745418 0.00367639 -9.96719e-22)
(0.00145328 0.000782185 -1.18881e-21)
(0.00172222 0.000861467 0)
(0.00157198 0.00754146 0)
(0.000576952 0.00328021 0)
(0.000313296 0.00197614 0)
(0.136665 -0.00120803 5.48177e-23)
(0.137669 -0.00104687 0)
(0.13604 -0.0019962 -6.39636e-23)
(0.0881138 -0.0148573 4.41462e-21)
(0.0901204 -0.015266 -1.60248e-21)
(0.0890356 -0.0128818 0)
(0.102102 0.00021664 -6.71684e-24)
(0.1028 0.000210844 1.34431e-23)
(0.101397 0.000223515 -4.54209e-24)
(0.103489 0.000208315 0)
(0.10417 0.0002149 -8.57193e-24)
(0.104837 0.000215498 0)
(0.104835 -0.000492281 0)
(0.105491 0.000203273 3.18068e-23)
(0.105479 -0.000502792 0)
(0.104175 -0.000494663 -8.63367e-24)
(0.103494 -0.000502255 0)
(0.102805 -0.00050868 4.49452e-24)
(0.102103 -0.000518406 -6.71376e-24)
(0.101402 -0.00052519 4.53641e-24)
(0.106125 0.000189118 -3.04365e-23)
(0.106113 -0.000505228 -1.06412e-24)
(0.100678 0.000236114 2.20062e-28)
(0.100678 -0.000524011 -6.92952e-24)
(0.0999442 0.000247643 3.68393e-23)
(0.106742 0.000183112 2.84234e-26)
(0.106747 -0.000496932 -1.06385e-24)
(0.0999491 -0.000530679 1.36513e-23)
(0.107354 0.000176451 2.86025e-23)
(0.107954 0.000172709 -2.8579e-23)
(0.107362 -0.000488769 2.14333e-24)
(0.107963 -0.00047804 4.23078e-24)
(0.0992281 0.000273175 -3.58428e-23)
(0.0992254 -0.000535037 -8.9841e-24)
(0.10854 0.000167374 0)
(0.10855 -0.000467923 -4.17296e-24)
(0.098485 0.000287132 4.42925e-27)
(0.0984846 -0.000531441 -4.44035e-27)
(0.109113 0.000164409 0)
(0.109123 -0.000455665 0)
(0.0977335 0.000297378 0)
(0.0977335 -0.000530858 0)
(0.109671 0.000159535 0)
(0.109681 -0.000444283 1.99935e-24)
(0.0969746 0.000308313 -1.85447e-23)
(0.0969744 -0.000527848 -4.52742e-27)
(0.110216 0.000156795 1.04752e-25)
(0.110225 -0.000430901 -2.13525e-24)
(0.0962084 0.000317608 1.86334e-23)
(0.0962082 -0.000525697 0)
(0.110746 0.000152015 0)
(0.110755 -0.00041834 0)
(0.0954361 0.000328161 -1.17723e-24)
(0.0954356 -0.000519921 2.01929e-23)
(0.111261 0.000149181 1.29145e-23)
(0.11127 -0.000403581 0)
(0.094659 0.000336872 -9.47133e-26)
(0.0946571 -0.000513386 -1.91115e-23)
(0.11176 0.000144505 -1.93093e-23)
(0.11177 -0.000389582 -5.60047e-24)
(0.0938607 0.000338091 1.94684e-23)
(0.0938622 -0.000505955 0)
(0.112246 0.000142493 6.35502e-24)
(0.112257 -0.000370571 3.73433e-24)
(0.0930604 0.000347781 -9.83702e-24)
(0.0930621 -0.000501059 1.99437e-23)
(0.112713 0.000142446 -2.5332e-23)
(0.112733 -0.000344929 2.85515e-23)
(0.0922266 0.000340658 1.01297e-23)
(0.092238 -0.000501188 3.20345e-25)
(0.113172 0.000144262 0)
(0.113191 -0.000320879 1.35887e-23)
(0.0913858 0.000335015 -2.03499e-23)
(0.0914045 -0.000508761 4.0702e-23)
(0.113632 0.000138396 0)
(0.113638 -0.000303056 0)
(0.0924684 0.00117694 -1.00233e-23)
(0.0916246 0.00117739 -4.05013e-23)
(0.0905205 0.000322898 0)
(0.0905571 -0.000528594 -2.07074e-23)
(0.0941039 0.00116637 -6.30696e-24)
(0.0932891 0.00117281 1.23818e-24)
(0.0956696 0.0011372 0)
(0.0948843 0.00115164 -2.0395e-23)
(0.0971988 0.00110293 -3.94871e-26)
(0.0964382 0.00112056 0)
(0.0986962 0.00106517 0)
(0.0979515 0.00108444 0)
(0.100164 0.00101815 0)
(0.0994331 0.00104401 0)
(0.101571 0.000971234 8.96907e-24)
(0.100866 0.00099342 2.26017e-24)
(0.102958 0.000937032 -8.65171e-24)
(0.102275 0.000953568 -8.95392e-24)
(0.104303 0.000908257 1.53629e-23)
(0.10363 0.000915905 1.96282e-23)
(0.105621 0.000882925 0)
(0.104966 0.000899371 0)
(0.106874 0.000851715 -6.74067e-26)
(0.106255 0.000867387 0)
(0.108075 0.000816256 0)
(0.107481 0.000834297 0)
(0.109223 0.00077865 0)
(0.108655 0.000797555 0)
(0.110315 0.000739794 0)
(0.109776 0.000759287 0)
(0.11135 0.000699795 0)
(0.11084 0.00071987 0)
(0.112324 0.000658155 0)
(0.111844 0.000679121 0)
(0.113247 0.000600972 -1.0333e-23)
(0.112789 0.00063597 0)
(0.113692 0.000571814 -3.33112e-24)
(0.114071 0.000128595 3.25043e-24)
(0.114074 -0.000289317 -3.22338e-24)
(0.112804 -0.000804306 0)
(0.1137 -0.00073626 -1.32358e-23)
(0.113259 -0.00076891 -6.83308e-24)
(0.111849 -0.000875178 1.8777e-24)
(0.112332 -0.000841165 -7.33871e-24)
(0.110842 -0.000936786 6.0958e-26)
(0.111352 -0.000907552 0)
(0.109778 -0.000991869 0)
(0.110317 -0.000964657 0)
(0.108656 -0.00104399 0)
(0.109224 -0.00101822 0)
(0.107479 -0.00109326 0)
(0.108074 -0.00106889 8.06057e-30)
(0.106248 -0.00114052 6.81195e-26)
(0.10687 -0.00111693 0)
(0.104975 -0.00117652 0)
(0.105614 -0.00116093 0)
(0.10365 -0.00120582 0)
(0.104315 -0.00119129 0)
(0.102278 -0.00123691 0)
(0.102968 -0.00121888 -4.54309e-24)
(0.100867 -0.00126967 1.19375e-24)
(0.101575 -0.00125786 -5.85557e-24)
(0.0994302 -0.00130025 0)
(0.100158 -0.00128335 -4.7625e-24)
(0.0979506 -0.00131836 0)
(0.0986949 -0.00131032 0)
(0.096437 -0.00132969 0)
(0.0971978 -0.00132475 0)
(0.0948878 -0.00133329 0)
(0.0956678 -0.00133249 0)
(0.0933001 -0.00133108 -5.15617e-24)
(0.0941005 -0.00133123 0)
(0.091679 -0.0013447 -2.08217e-23)
(0.0924946 -0.0013324 -5.17465e-24)
(0.0908444 -0.00136122 2.11694e-23)
(0.0907671 0.00118011 4.01331e-23)
(0.114126 0.000545829 6.51228e-24)
(0.11413 -0.000704191 -1.27043e-23)
(0.089687 -0.000559738 0)
(0.0900013 -0.00139308 0)
(0.0898974 0.00118341 0)
(0.0896423 0.000303251 0)
(0.0929576 0.00199577 0)
(0.0913056 0.00203259 1.00536e-23)
(0.0921367 0.00201192 1.01679e-23)
(0.0945663 0.00195606 1.2949e-23)
(0.0937678 0.00197749 -2.58713e-24)
(0.0961043 0.00190513 4.01109e-26)
(0.0953409 0.00193097 0)
(0.097607 0.00185295 0)
(0.0968597 0.00187925 0)
(0.0990772 0.00179913 0)
(0.0983461 0.00182626 0)
(0.100516 0.00174557 0)
(0.0998003 0.00177163 0)
(0.101915 0.00168936 0)
(0.101219 0.00171871 0)
(0.103274 0.00163689 -3.6257e-26)
(0.102595 0.00166454 9.35071e-24)
(0.104586 0.00157991 -3.478e-26)
(0.10394 0.00160692 -1.82541e-23)
(0.105871 0.00151887 0)
(0.105233 0.00154882 0)
(0.107104 0.00145954 3.36561e-26)
(0.106495 0.00148923 0)
(0.108285 0.00139781 0)
(0.107701 0.00142904 0)
(0.109414 0.00133321 0)
(0.108856 0.00136581 0)
(0.110487 0.00126621 0)
(0.109957 0.00129997 0)
(0.111504 0.00119703 0)
(0.111003 0.00123187 0)
(0.112463 0.00112467 0)
(0.111991 0.00116143 0)
(0.11337 0.00103847 7.05888e-24)
(0.112922 0.00108405 0)
(0.114494 0.000122424 0)
(0.114542 0.000520488 6.34823e-24)
(0.11423 0.000952142 0)
(0.113805 0.000994939 6.86851e-24)
(0.113815 -0.00116283 1.36777e-23)
(0.114235 -0.00111508 3.35226e-24)
(0.114544 -0.000676504 2.61485e-23)
(0.114495 -0.000274073 0)
(0.112933 -0.00126184 0)
(0.11338 -0.00121185 -2.06552e-23)
(0.111996 -0.00135944 5.90854e-26)
(0.112472 -0.00130998 7.38334e-24)
(0.111007 -0.00144835 -6.09578e-26)
(0.111509 -0.00140471 0)
(0.109961 -0.00153224 0)
(0.110491 -0.00149077 0)
(0.108859 -0.00161236 0)
(0.109417 -0.00157276 0)
(0.107703 -0.00168853 0)
(0.108287 -0.00165093 -8.06055e-30)
(0.106496 -0.0017606 -1.36143e-25)
(0.107105 -0.0017251 0)
(0.105243 -0.00182535 0)
(0.105875 -0.00179424 0)
(0.103941 -0.00188381 2.29147e-24)
(0.104598 -0.00185505 0)
(0.1026 -0.00193437 0)
(0.103275 -0.00190731 -2.28191e-24)
(0.101218 -0.00198465 4.77299e-24)
(0.10191 -0.00196105 4.74483e-24)
(0.099799 -0.00202506 0)
(0.100514 -0.00200585 0)
(0.0983445 -0.00205977 0)
(0.099076 -0.00204322 0)
(0.0968563 -0.0020882 0)
(0.0976045 -0.00207471 0)
(0.0953343 -0.00211126 0)
(0.0960996 -0.00210023 0)
(0.093778 -0.00213129 8.23192e-26)
(0.0945607 -0.00212146 0)
(0.0921868 -0.00215137 -8.32688e-26)
(0.092988 -0.00214148 0)
(0.09056 -0.00220171 -2.17439e-23)
(0.0913764 -0.00217348 2.1734e-23)
(0.0904606 0.00205344 2.04102e-23)
(0.0891536 -0.00143631 0)
(0.0897351 -0.00224272 -4.41004e-23)
(0.0888181 -0.000597197 0)
(0.114637 0.000915571 0)
(0.114643 -0.00106783 -3.24746e-24)
(0.0890223 0.00118812 5.16227e-23)
(0.0896103 0.00207565 2.06338e-23)
(0.0882909 -0.00148096 1.11563e-23)
(0.0889012 -0.00229059 5.57267e-23)
(0.0887523 0.000280457 0)
(0.114382 0.00135539 2.68078e-23)
(0.114778 0.00130084 -1.32316e-23)
(0.114942 -0.000646632 -6.42286e-24)
(0.115035 -0.00101923 3.19131e-23)
(0.0905026 0.00293208 7.24293e-23)
(0.0887394 0.00209786 -4.06627e-23)
(0.0888032 0.00299902 -1.81027e-22)
(0.0896504 0.00296016 -4.13453e-23)
(0.0921227 0.00285975 2.02154e-23)
(0.0913184 0.0028974 -6.16705e-23)
(0.0936962 0.00278801 -2.0703e-23)
(0.0929159 0.002824 -1.55843e-23)
(0.0952436 0.00272132 -5.17745e-24)
(0.0944765 0.00275619 -5.17255e-24)
(0.0967422 0.0026548 -4.01109e-26)
(0.0959996 0.00268864 0)
(0.0982037 0.00258599 0)
(0.0974769 0.00262054 0)
(0.099633 0.00251597 0)
(0.0989223 0.00255116 0)
(0.101031 0.00244495 0)
(0.100336 0.00248045 0)
(0.102393 0.00237343 0)
(0.101716 0.00240912 0)
(0.103715 0.00229887 0)
(0.103058 0.00233658 0)
(0.104999 0.00222216 7.30275e-29)
(0.104363 0.0022614 0)
(0.106243 0.00213917 0)
(0.105625 0.00218087 0)
(0.107442 0.00205476 3.35576e-26)
(0.106849 0.00209721 0)
(0.108593 0.00196732 0)
(0.108024 0.00201149 0)
(0.109693 0.00187624 0)
(0.109149 0.00192223 0)
(0.11074 0.00178172 0)
(0.110223 0.00182939 0)
(0.111731 0.00168403 0)
(0.111242 0.00173327 0)
(0.112666 0.00158231 0)
(0.112206 0.00163389 0)
(0.113548 0.00146985 3.59401e-24)
(0.113114 0.00152728 -1.80949e-24)
(0.113972 0.00141279 -1.36852e-23)
(0.114894 0.000119676 -3.04319e-24)
(0.11503 0.000877764 1.27093e-23)
(0.114939 0.000500271 -9.73801e-24)
(0.114894 -0.000265864 0)
(0.113982 -0.00157985 -1.01654e-23)
(0.114786 -0.00145039 -2.92678e-23)
(0.11439 -0.00151554 2.36097e-23)
(0.113123 -0.00171184 0)
(0.113559 -0.00164468 0)
(0.112212 -0.00183239 -7.76577e-29)
(0.112675 -0.00177087 0)
(0.111248 -0.00194927 0)
(0.111737 -0.00189156 0)
(0.110228 -0.00206116 -6.26155e-26)
(0.110745 -0.00200578 0)
(0.109155 -0.00216837 0)
(0.109698 -0.00211538 0)
(0.108029 -0.00227031 0)
(0.108598 -0.00222005 0)
(0.106854 -0.00236623 6.80336e-26)
(0.107447 -0.00231909 0)
(0.105634 -0.00245443 6.96417e-26)
(0.10625 -0.0024114 0)
(0.104368 -0.00253562 0)
(0.105006 -0.00249579 0)
(0.103062 -0.00260888 0)
(0.103721 -0.00257324 0)
(0.101717 -0.00267565 0)
(0.102393 -0.00264311 0)
(0.100336 -0.00273345 0)
(0.101031 -0.00270529 0)
(0.09892 -0.00278505 -7.77468e-26)
(0.099632 -0.00276009 0)
(0.0974711 -0.00283024 0)
(0.0981996 -0.0028084 0)
(0.0959893 -0.00287022 0)
(0.0967343 -0.00285076 0)
(0.0944748 -0.00290702 -1.90318e-28)
(0.0952361 -0.00288888 0)
(0.092928 -0.0029428 2.1026e-28)
(0.0937057 -0.00292499 0)
(0.0913515 -0.00298927 8.5749e-26)
(0.0921406 -0.00296179 0)
(0.0897491 -0.00306793 -4.49703e-23)
(0.0905523 -0.00302359 1.10736e-23)
(0.088059 -0.00233713 1.13119e-23)
(0.0889514 -0.00311928 2.24956e-23)
(0.088138 0.00118624 -2.02355e-23)
(0.0879325 -0.000637342 -2.16046e-23)
(0.115161 0.00124694 3.23186e-24)
(0.115169 -0.0013899 2.29947e-23)
(0.0878297 0.00209869 2.52882e-24)
(0.0874204 -0.00153288 0)
(0.087709 0.00289554 2.77324e-22)
(0.0881498 -0.00317157 3.44686e-23)
(0.0872249 -0.00238761 4.60419e-23)
(0.089206 0.00402458 -4.5686e-22)
(0.0888433 0.00417553 8.37426e-23)
(0.0878724 0.00026141 0)
(0.0901847 0.00385434 4.64033e-23)
(0.0895864 0.00396483 2.36496e-23)
(0.0916518 0.00373927 4.19458e-23)
(0.0908786 0.0037847 -6.38852e-23)
(0.0931841 0.00364318 -2.09224e-23)
(0.0924276 0.00369353 -1.04213e-23)
(0.0946735 0.00355222 1.05052e-23)
(0.0939326 0.00359661 1.06224e-23)
(0.0961399 0.00346396 0)
(0.0954074 0.00350678 -1.55129e-26)
(0.0975744 0.00337955 0)
(0.096861 0.00342186 0)
(0.0989796 0.00329485 3.91918e-26)
(0.0982806 0.00333724 0)
(0.100355 0.00320922 0)
(0.0996712 0.00325225 0)
(0.101701 0.00312182 0)
(0.101032 0.00316575 0)
(0.103013 0.00303227 0)
(0.102361 0.00307736 0)
(0.104289 0.00293913 3.60323e-26)
(0.103655 0.00298619 0)
(0.105527 0.00284185 8.19762e-29)
(0.104913 0.00289123 0)
(0.106726 0.00273881 0)
(0.106131 0.0027909 0)
(0.107883 0.00263153 -6.7043e-26)
(0.10731 0.00268571 0)
(0.108994 0.00251969 0)
(0.108445 0.00257621 0)
(0.110057 0.00240312 0)
(0.109532 0.002462 0)
(0.111068 0.00228207 0)
(0.110569 0.00234314 0)
(0.112027 0.00215693 0)
(0.111554 0.00222 0)
(0.112931 0.00202729 0)
(0.112486 0.00209282 0)
(0.113784 0.00189145 -1.79432e-24)
(0.113364 0.00195904 0)
(0.114585 0.00174947 0)
(0.11419 0.00182059 -3.472e-24)
(0.115336 0.0016062 -2.3046e-27)
(0.114968 0.00167804 0)
(0.115403 0.000841019 -1.28858e-23)
(0.115694 0.00154037 7.75761e-25)
(0.115531 0.00119654 6.29787e-24)
(0.115273 0.000113655 4.63473e-24)
(0.115318 0.000478997 -3.19909e-24)
(0.115321 -0.00061748 -1.61122e-24)
(0.115275 -0.000253761 1.60774e-24)
(0.115535 -0.00133223 0)
(0.115408 -0.000978053 -1.4641e-23)
(0.114976 -0.00182862 -6.58025e-24)
(0.1157 -0.00168088 -1.25748e-23)
(0.115346 -0.00175291 2.88792e-23)
(0.114201 -0.00198665 -3.46258e-24)
(0.114595 -0.00190756 0)
(0.113372 -0.00214306 0)
(0.113793 -0.00206439 0)
(0.112493 -0.00229157 -9.8539e-29)
(0.11294 -0.0022179 0)
(0.111562 -0.00243548 0)
(0.112034 -0.00236416 0)
(0.110577 -0.00257431 6.26155e-26)
(0.111076 -0.00250555 0)
(0.10954 -0.00270755 0)
(0.110064 -0.0026417 0)
(0.108453 -0.00283424 0)
(0.109002 -0.00277179 0)
(0.10732 -0.0029534 0)
(0.107892 -0.00289484 0)
(0.106142 -0.00306398 -1.54342e-28)
(0.106736 -0.00300982 0)
(0.104922 -0.00316607 0)
(0.105537 -0.00311608 0)
(0.103662 -0.00325918 0)
(0.104297 -0.00321373 0)
(0.102365 -0.00334386 0)
(0.103018 -0.00330262 0)
(0.101034 -0.00341952 0)
(0.101704 -0.00338267 0)
(0.0996688 -0.00348769 7.77468e-26)
(0.100355 -0.00345453 0)
(0.0982723 -0.00354907 0)
(0.0989745 -0.00351917 0)
(0.0968445 -0.00360512 0)
(0.0975622 -0.00357765 0)
(0.0953861 -0.00365791 -8.21211e-26)
(0.0961191 -0.00363178 0)
(0.0938977 -0.00370942 8.34762e-26)
(0.0946457 -0.00368377 0)
(0.0923796 -0.003763 -8.47801e-26)
(0.0931419 -0.0037356 0)
(0.0908423 -0.00382918 1.1116e-23)
(0.0916092 -0.00379144 -2.19396e-23)
(0.0893123 -0.00392566 -1.11685e-23)
(0.0900735 -0.00387259 2.27104e-23)
(0.0873381 -0.00321961 2.61998e-25)
(0.0885397 -0.00397759 2.28531e-23)
(0.0872374 0.00116466 -2.06809e-23)
(0.0870488 -0.000664748 0)
(0.086915 0.00204429 -1.99497e-22)
(0.0865475 -0.00156512 0)
(0.115556 0.00196061 -3.22012e-24)
(0.115896 0.0018756 2.35867e-24)
(0.115885 -0.00127574 -1.23176e-23)
(0.116042 -0.001604 -1.39473e-23)
(0.0866629 0.00281625 -1.94167e-22)
(0.0863836 -0.0024333 -4.64923e-23)
(0.0879007 0.00413246 0)
(0.0905246 0.00477808 -5.28521e-23)
(0.0865284 -0.00326779 -2.28062e-23)
(0.0877601 -0.00402614 3.45063e-23)
(0.0898512 0.0047601 1.06213e-22)
(0.0869815 0.000240908 0)
(0.0916352 0.00461202 0)
(0.0910484 0.00470046 -4.71729e-23)
(0.0930129 0.00448526 0)
(0.0923046 0.00454603 0)
(0.0944404 0.00437374 0)
(0.0937279 0.00442711 1.07966e-23)
(0.0958393 0.00427039 0)
(0.0951416 0.00432181 0)
(0.0972229 0.00416962 0)
(0.096533 0.00421914 0)
(0.0985848 0.00407167 0)
(0.0979069 0.0041207 0)
(0.099922 0.00397322 -3.91918e-26)
(0.0992566 0.00402256 0)
(0.101233 0.00387321 0)
(0.100581 0.00392351 0)
(0.102515 0.00377051 0)
(0.101878 0.00382226 0)
(0.103767 0.00366426 0)
(0.103145 0.0037179 0)
(0.104986 0.0035534 -1.02344e-28)
(0.104381 0.00360949 0)
(0.106169 0.0034371 9.68114e-29)
(0.105582 0.00349602 0)
(0.107315 0.00331433 0)
(0.106747 0.0033765 0)
(0.108421 0.00318552 8.62433e-29)
(0.107873 0.00325068 0)
(0.109483 0.00305066 0)
(0.108958 0.00311886 0)
(0.1105 0.00290986 0)
(0.109997 0.00298099 0)
(0.111469 0.00276351 0)
(0.11099 0.00283735 0)
(0.112387 0.00261221 0)
(0.111934 0.00268845 0)
(0.113254 0.00245625 0)
(0.112827 0.00253484 0)
(0.114071 0.00229576 0)
(0.113669 0.00237655 0)
(0.114837 0.0021292 3.43592e-24)
(0.11446 0.00221135 3.52473e-24)
(0.115203 0.00204379 -6.58349e-24)
(0.115759 0.00080502 -6.30994e-24)
(0.116037 0.00147642 0)
(0.11588 0.00114342 -6.37137e-24)
(0.115634 0.000108882 0)
(0.115675 0.000459701 6.4397e-24)
(0.11568 -0.000591199 9.6143e-24)
(0.115635 -0.000242595 -3.25034e-24)
(0.115764 -0.000935468 -1.88997e-23)
(0.115212 -0.0021956 3.3102e-24)
(0.115904 -0.00201116 1.226e-23)
(0.115565 -0.00210765 0)
(0.11447 -0.00237814 -6.87823e-24)
(0.114848 -0.00228752 6.90095e-24)
(0.113678 -0.0025586 0)
(0.11408 -0.00246953 0)
(0.112837 -0.00273322 -1.1839e-28)
(0.113264 -0.00264646 0)
(0.111944 -0.00290321 0)
(0.112397 -0.00281886 0)
(0.111001 -0.00306772 0)
(0.111479 -0.00298622 0)
(0.110009 -0.0032257 0)
(0.110511 -0.00314762 0)
(0.10897 -0.00337596 0)
(0.109495 -0.00330188 0)
(0.107886 -0.00351742 6.76033e-26)
(0.108433 -0.00344787 0)
(0.10676 -0.00364922 -6.94874e-26)
(0.107328 -0.00358457 0)
(0.105594 -0.0037712 0)
(0.106182 -0.00371146 0)
(0.104391 -0.00388305 0)
(0.104997 -0.00382839 0)
(0.103153 -0.00398511 0)
(0.103777 -0.00393533 0)
(0.101882 -0.00407754 0)
(0.102522 -0.00403245 0)
(0.10058 -0.00416155 0)
(0.101235 -0.00412055 0)
(0.0992478 -0.00423826 0)
(0.0999176 -0.00420074 0)
(0.0978865 -0.00430928 -8.0226e-26)
(0.0985707 -0.00427437 0)
(0.0964971 -0.00437668 8.16164e-26)
(0.0971953 -0.0043433 0)
(0.0950807 -0.00444251 -8.29526e-26)
(0.0957922 -0.00440971 0)
(0.0936387 -0.00450885 0)
(0.0943626 -0.00447547 0)
(0.0921731 -0.00457755 0)
(0.0929082 -0.00454262 0)
(0.0907007 -0.00465471 8.76975e-26)
(0.0914392 -0.00461438 1.11587e-23)
(0.0892237 -0.00475225 -5.78408e-23)
(0.0899572 -0.00470019 0)
(0.0869952 -0.00408363 -3.4306e-23)
(0.0884913 -0.00480761 -2.56075e-25)
(0.0863394 0.00114018 6.45725e-23)
(0.0861591 -0.000685989 0)
(0.116227 0.00179431 -1.22369e-23)
(0.116233 -0.00192541 -2.36484e-23)
(0.0859159 0.00197553 -3.4049e-23)
(0.0867839 0.00362168 9.32316e-25)
(0.0857475 0.00274733 9.68396e-23)
(0.0856787 -0.00158617 0)
(0.0855303 -0.00245873 1.16017e-23)
(0.088748 0.00471687 -9.9107e-23)
(0.0877444 0.00460506 8.4693e-23)
(0.0862679 0.00373291 -8.34732e-23)
(0.085709 -0.00330467 -3.48008e-23)
(0.0862129 -0.00413368 2.31655e-23)
(0.0877707 -0.00487603 2.27552e-23)
(0.086084 0.000220696 0)
(0.0920053 0.00544412 2.95901e-24)
(0.0903703 0.00544941 4.70503e-25)
(0.091247 0.00543429 2.30758e-23)
(0.093217 0.0053125 2.28838e-23)
(0.092615 0.00538583 -2.30025e-23)
(0.0945254 0.00517335 4.24473e-26)
(0.0938531 0.00524004 0)
(0.0958573 0.00505602 0)
(0.0951937 0.00511262 0)
(0.097173 0.00494481 0)
(0.0965168 0.00500028 0)
(0.0984738 0.0048352 0)
(0.0978254 0.00488965 0)
(0.0997554 0.00472631 3.96664e-26)
(0.0991172 0.0047809 0)
(0.101015 0.00461589 0)
(0.100388 0.00467136 0)
(0.102252 0.00450286 0)
(0.101637 0.00455979 0)
(0.103462 0.00438608 0)
(0.10286 0.00444502 0)
(0.104645 0.00426452 0)
(0.104057 0.00432597 0)
(0.105797 0.00413715 -3.593e-26)
(0.105225 0.00420163 0)
(0.106916 0.00400313 1.11606e-28)
(0.106361 0.00407104 0)
(0.108 0.00386164 0)
(0.107463 0.00393333 0)
(0.109047 0.00371268 6.66991e-26)
(0.108529 0.00378811 0)
(0.110054 0.00355627 0)
(0.109556 0.0036354 0)
(0.111018 0.0033927 0)
(0.110541 0.00347536 0)
(0.111936 0.00322254 0)
(0.111483 0.00330841 0)
(0.112808 0.00304656 0)
(0.112378 0.00313523 0)
(0.113632 0.00286557 0)
(0.113226 0.00295666 0)
(0.114407 0.0026802 5.60228e-26)
(0.114025 0.00277338 0)
(0.115134 0.00249015 -3.45093e-24)
(0.114777 0.00258611 0)
(0.115814 0.00229436 3.2779e-24)
(0.11548 0.00239234 0)
(0.11645 0.00209883 3.10934e-24)
(0.116136 0.00219691 -3.18914e-24)
(0.11636 0.00141005 6.15471e-24)
(0.116751 0.00200388 0)
(0.116544 0.00171497 9.15824e-24)
(0.116094 0.000770241 0)
(0.11621 0.00109366 0)
(0.115976 0.000104362 0)
(0.116016 0.000439055 0)
(0.11602 -0.000564933 0)
(0.115978 -0.000231497 0)
(0.116216 -0.00122009 1.25536e-23)
(0.1161 -0.000896061 3.11822e-24)
(0.116544 -0.001841 3.07599e-24)
(0.116365 -0.00153467 2.45653e-23)
(0.116147 -0.00233665 1.60193e-23)
(0.116755 -0.0021369 3.05336e-24)
(0.116457 -0.00223483 -6.22102e-24)
(0.115491 -0.00254506 3.29423e-24)
(0.115823 -0.00244029 -1.97554e-23)
(0.114787 -0.00275203 -1.07232e-28)
(0.115145 -0.00264831 0)
(0.114036 -0.00295484 0)
(0.114417 -0.00285366 0)
(0.113238 -0.0031543 -1.37829e-28)
(0.113643 -0.00305509 0)
(0.112391 -0.00334904 0)
(0.11282 -0.00325235 0)
(0.111496 -0.00353775 0)
(0.111949 -0.00344425 0)
(0.110556 -0.00371902 0)
(0.111032 -0.00362942 0)
(0.109572 -0.00389146 0)
(0.110069 -0.00380643 0)
(0.108546 -0.00405395 -1.35008e-25)
(0.109064 -0.00397402 0)
(0.10748 -0.00420566 0)
(0.108018 -0.00413119 0)
(0.106378 -0.00434631 0)
(0.106934 -0.00427739 0)
(0.105241 -0.00447571 0)
(0.105813 -0.00441242 0)
(0.104071 -0.00459419 0)
(0.10466 -0.00453631 0)
(0.10287 -0.00470226 -7.55141e-26)
(0.103474 -0.00464947 0)
(0.10164 -0.0048011 0)
(0.102259 -0.00475277 0)
(0.100383 -0.00489203 0)
(0.101015 -0.00484747 0)
(0.0990986 -0.00497676 8.0226e-26)
(0.0997439 -0.00493506 0)
(0.0977892 -0.00505729 -3.10286e-28)
(0.098447 -0.00501744 0)
(0.0964557 -0.00513562 1.65586e-25)
(0.0971254 -0.00509664 0)
(0.0950998 -0.00521347 0)
(0.0957804 -0.00517453 0)
(0.0937232 -0.00529217 0)
(0.0944138 -0.00525248 0)
(0.092329 -0.00537159 -3.56241e-28)
(0.0930286 -0.0053326 0)
(0.090919 -0.00545702 0)
(0.0916247 -0.00541267 0)
(0.0895351 -0.0055686 -3.42922e-23)
(0.0902226 -0.00550898 0)
(0.0870354 -0.00493798 -2.47884e-25)
(0.0888527 -0.00563658 5.81097e-23)
(0.0854016 0.00109778 0)
(0.0894879 0.00543855 1.33753e-22)
(0.0849826 0.00191197 2.32588e-23)
(0.116706 0.00239303 -3.10349e-24)
(0.11699 0.00228857 0)
(0.116843 -0.00176 2.98872e-24)
(0.11704 -0.00203786 -5.93327e-24)
(0.0852696 -0.000703926 0)
(0.0848034 -0.00159817 0)
(0.0849776 0.00282204 0)
(0.0846734 -0.00247599 -1.14267e-23)
(0.0848844 -0.00334327 -2.29236e-23)
(0.0854271 -0.00418837 0)
(0.0862901 -0.00500181 5.88269e-23)
(0.0881542 -0.00570481 -4.68689e-23)
(0.0851768 0.000196983 0)
(0.0922782 0.00614138 -1.10935e-26)
(0.0885601 0.00538623 4.18918e-23)
(0.0906964 0.00619425 -1.49225e-22)
(0.0914858 0.00618442 4.37878e-23)
(0.0937193 0.00607711 -1.42873e-23)
(0.0930127 0.00609097 -2.28791e-23)
(0.0949447 0.00596382 0)
(0.0943454 0.00603157 0)
(0.0961835 0.00581963 -4.24434e-26)
(0.0955532 0.00588854 0)
(0.0974303 0.00569551 0)
(0.0968096 0.00575613 0)
(0.0986593 0.00557653 0)
(0.0980467 0.00563584 0)
(0.0998722 0.00545848 0)
(0.0992678 0.00551744 0)
(0.101067 0.00533981 -3.96664e-26)
(0.100472 0.00539938 0)
(0.102243 0.00521866 0)
(0.101658 0.00527963 0)
(0.103397 0.00509387 0)
(0.102822 0.00515681 0)
(0.104527 0.00496427 0)
(0.103965 0.00502975 0)
(0.105633 0.00482874 0)
(0.105083 0.00489732 0)
(0.10671 0.00468624 3.56808e-26)
(0.106175 0.00475843 0)
(0.107758 0.00453589 1.25078e-28)
(0.107238 0.00461211 0)
(0.108773 0.004377 0)
(0.10827 0.00445754 0)
(0.109754 0.00420934 -1.1148e-28)
(0.109268 0.00429427 0)
(0.110698 0.00403297 0)