/*--------------------------------*- C++ -*----------------------------------*\
  =========                 |
  \\      /  F ield         | OpenFOAM: The Open Source CFD Toolbox
   \\    /   O peration     | Website:  https://openfoam.org
    \\  /    A nd           | Version:  10
     \\/     M anipulation  |
\*---------------------------------------------------------------------------*/
FoamFile
{
    format      ascii;
    class       volVectorField;
    location    "11.5";
    object      U;
}
// * * * * * * * * * * * * * * * * * * * * * * * * * * * * * * * * * * * * * //

dimensions      [0 1 -1 0 0 0 0];

internalField   nonuniform List<vector> 
28942
(
(0.00615795 -0.00340401 -2.30629e-22)
(0.00823742 -0.0040551 -3.63321e-23)
(0.0185735 -0.0127836 -1.14102e-21)
(0.103308 0.0182162 -6.25661e-21)
(0.102349 0.0222596 2.03943e-21)
(0.0303025 0.00128386 0)
(0.0361227 0.00109858 2.78562e-23)
(0.0411407 0.00162642 -2.45803e-23)
(0.132647 -0.0115942 -4.24818e-22)
(0.13111 -0.0102961 1.195e-21)
(0.0156864 0.00974145 -2.73819e-22)
(0.0230938 0.0119188 5.6642e-23)
(0.0111108 0.0068963 0)
(0.00825507 0.00547883 0)
(0.0804063 0.00238208 -3.44279e-23)
(0.0783715 0.00362846 -1.03468e-23)
(0.089546 0.0159154 7.71521e-22)
(0.0872199 0.0139228 1.23655e-21)
(0.0122668 -0.01521 3.65206e-21)
(0.029609 -0.0306516 -9.64215e-22)
(0.0987353 0.0371112 1.12546e-21)
(0.0978376 0.0342071 0)
(0.0227934 0.00739174 9.47271e-22)
(0.00995113 0.00364755 4.03939e-22)
(0.0425166 0.0100188 7.22348e-22)
(0.0630823 0.00538296 -6.58512e-22)
(0.00768274 -0.018416 9.48325e-21)
(0.00672236 -0.0164816 -3.47095e-21)
(0.036219 -0.0256604 7.89989e-22)
(0.0196553 -0.01388 2.77983e-22)
(0.0310069 -0.0030954 0)
(0.0387035 -0.00318494 -2.65907e-23)
(0.0476216 0.00685564 6.26264e-22)
(0.0646257 0.0020584 -1.2165e-22)
(0.0190947 0.0182209 1.56314e-21)
(0.0159253 0.0193358 -1.64627e-21)
(0.0325716 0.0380081 -3.48622e-21)
(0.0188768 0.0308757 -1.17863e-21)
(0.0173285 0.000563224 -2.22363e-23)
(0.00875402 0.0163827 -2.93215e-21)
(0.0306541 -0.00620097 0)
(0.0513523 -0.0109649 0)
(0.104911 -0.00655994 -5.98069e-23)
(0.104933 -0.00614876 1.75782e-22)
(0.10538 -0.00664761 1.53378e-22)
(0.0559476 0.00108786 2.64698e-23)
(0.0523731 -3.78285e-05 -4.49671e-23)
(0.0706548 -0.000185179 -1.7667e-22)
(0.068247 -0.000217799 4.90964e-23)
(0.0574881 -0.00392027 -4.51082e-22)
(0.0449728 -0.00534208 2.84501e-22)
(0.120851 0.0039236 -7.08689e-22)
(0.120925 0.00343964 -6.38959e-22)
(0.132635 -0.0149376 -4.13896e-24)
(0.130907 -0.0135895 2.21227e-22)
(0.093797 0.015511 4.88937e-22)
(0.112648 0.00864105 9.54669e-23)
(0.00506864 0.00332758 -3.60025e-22)
(0.0128297 0.00701549 0)
(0.0113069 0.00568533 1.74757e-22)
(0.00451769 0.00279898 3.07632e-22)
(0.000928986 0.000674484 -2.54633e-22)
(0.000754999 0.000595521 -2.25495e-22)
(0.114033 -0.0414706 0)
(0.110746 -0.0235241 4.61821e-23)
(0.126843 -0.0294617 3.15121e-24)
(0.127049 -0.0410475 0)
(0.090466 -0.0324851 -7.40786e-22)
(0.0940106 -0.0348919 -4.90129e-22)
(0.00274099 -0.00164752 7.49894e-22)
(0.0035701 -0.00276363 -2.43914e-22)
(0.00661016 -0.00438372 6.13933e-22)
(0.0854015 -0.0453863 0)
(0.0916742 -0.0392344 2.53133e-21)
(0.0811613 -0.0526685 6.88202e-22)
(0.122442 0.00575487 4.00595e-23)
(0.122261 -0.00170659 -5.71453e-23)
(0.132553 0.00116114 9.52283e-23)
(0.00484313 -0.00295639 -7.27297e-23)
(0.00655615 -0.00456937 6.96839e-22)
(0.0527695 -0.0317126 2.14816e-22)
(0.0345 -0.0211696 -3.18761e-22)
(0.00264715 -0.000971824 2.88843e-21)
(0.00615467 -0.00270609 -1.13199e-21)
(0.104453 0.0478214 6.7344e-23)
(0.0996098 0.0551033 -9.88625e-22)
(0.0826199 0.0543633 9.20022e-22)
(0.0483094 0.0350309 -3.39591e-21)
(0.0455602 0.0321618 2.40768e-21)
(0.030184 0.0209866 -1.52879e-22)
(0.0334313 0.0236553 -7.87905e-22)
(0.0387535 0.028796 1.0775e-21)
(0.0108934 0.00782071 1.23357e-23)
(0.0156319 0.0107369 -2.28167e-25)
(0.00738015 0.00599668 4.57218e-25)
(0.00566008 0.00504726 2.98991e-23)
(0.00518663 0.00466666 -6.59871e-23)
(0.0160517 0.0117422 -4.04079e-21)
(0.0178136 0.0138428 9.39805e-22)
(0.0101543 -0.00463859 0)
(0.101389 0.00515611 0)
(0.0984003 0.0156761 -4.54869e-21)
(0.0604669 0.0104738 2.431e-21)
(0.088717 0.0178707 0)
(0.129384 -0.0177323 0)
(0.128402 -0.0185534 0)
(0.128408 -0.0195046 -1.09401e-21)
(0.115187 0.0254127 -2.74762e-22)
(0.114357 0.026909 2.6828e-21)
(0.113496 0.024469 1.44027e-21)
(0.00431967 0.00315641 6.16373e-22)
(0.00337395 0.00248915 -6.91821e-22)
(0.0243377 -0.00920271 -3.5607e-22)
(0.027093 -0.0104132 2.57326e-22)
(0.0132231 -0.00608621 4.41636e-22)
(0.00652053 0.0113316 1.62485e-21)
(0.019083 0.0184328 3.82518e-21)
(0.0135819 0.0230877 2.75128e-22)
(0.00496262 0.0144918 -9.51645e-21)
(0.1206 0.0461593 8.30498e-23)
(0.110034 0.0574481 1.43082e-21)
(0.120827 0.0533642 -2.47162e-21)
(0.0397155 -0.0297209 9.05701e-22)
(0.0243758 -0.0174734 -6.15558e-22)
(0.00532674 -0.000614832 -4.51721e-21)
(0.00454282 -0.00347925 0)
(0.0125301 -0.00149098 2.2279e-21)
(0.0222536 -0.0163008 9.36583e-22)
(0.0347043 -0.0280237 -2.41124e-21)
(0.0676785 0.000428773 1.32755e-22)
(0.0710376 0.000551731 -8.49416e-23)
(0.0642728 0.000650977 -4.03516e-24)
(0.0283071 -0.0420879 0)
(0.0298402 -0.0428671 0)
(0.0896882 -0.0186154 -5.84872e-22)
(0.0996606 -0.0220349 3.90863e-21)
(0.0870474 -0.0252712 0)
(0.0477264 -0.0404166 0)
(0.0588786 -0.051484 -9.53665e-22)
(0.0419025 0.0397418 2.38805e-21)
(0.00124975 0.00140954 1.18071e-22)
(0.000818225 0.00114147 -3.39699e-23)
(0.0225654 -0.0194 -9.60237e-22)
(0.105944 -0.00702352 8.94956e-22)
(0.105857 -0.00667194 -1.65475e-22)
(0.124727 0.00502664 4.72112e-24)
(0.118807 0.013624 -6.29178e-24)
(0.126306 0.0131495 -2.19716e-22)
(0.00108516 0.001184 7.04045e-23)
(0.044605 0.0348673 3.84466e-21)
(0.0631991 0.0467784 -9.57382e-22)
(0.06096 0.0399519 -4.098e-24)
(0.0469584 -0.00173659 1.03914e-23)
(0.0464018 -0.00199386 5.82014e-23)
(0.0499185 -0.00240322 3.66574e-24)
(0.0550382 -0.00172774 -2.97908e-23)
(0.0461966 0.0385111 1.3835e-22)
(0.0192688 0.0162687 0)
(0.00137335 -0.0011289 4.29984e-23)
(0.00191057 -0.00184201 -4.81264e-23)
(0.0053473 -0.00400769 -2.01594e-23)
(0.041514 -0.01038 -1.60154e-21)
(0.0716625 -0.00513719 -6.13158e-22)
(0.0622487 -0.00149709 -1.24423e-24)
(0.0793728 -0.00632621 2.37907e-22)
(0.0746803 -0.0153933 -1.22109e-22)
(0.0949528 0.0397213 2.51756e-21)
(0.0921507 0.0452666 9.76292e-23)
(0.0891446 0.0290915 1.41218e-21)
(0.0919017 0.0307658 -1.02339e-21)
(0.0993949 0.0407444 0)
(0.120453 -0.00232134 2.43193e-22)
(0.120528 -0.00281546 4.74454e-22)
(0.125442 -0.00778944 -4.67775e-22)
(0.126477 -0.00701368 8.08858e-22)
(0.117078 0.0226698 3.46116e-22)
(0.119089 0.0232353 -9.84658e-22)
(0.11722 0.0246808 0)
(0.115272 0.0236835 1.98631e-22)
(0.116902 0.0266635 0)
(0.117769 0.034526 -7.12501e-22)
(0.11641 0.0367307 -3.81281e-22)
(0.112181 0.0409028 -6.74275e-22)
(0.114512 0.0388568 0)
(0.117389 0.0415334 2.28738e-21)
(0.114728 0.0436949 4.68158e-23)
(0.109237 0.0432879 -3.71326e-22)
(0.100639 0.0497677 -1.56053e-21)
(0.0992331 0.045094 -2.73462e-22)
(0.0437136 -0.022273 -1.89289e-22)
(0.0525914 -0.0249953 7.29265e-23)
(0.0102402 -0.0060168 -3.41183e-22)
(0.0615597 0.000417788 -9.24178e-23)
(0.0747735 -9.15654e-06 0)
(0.000487352 -0.000460742 1.07381e-22)
(0.000460211 -0.000414263 4.58552e-23)
(0.0689796 -0.00238074 3.94834e-23)
(0.0782225 -0.00222547 1.31955e-23)
(0.077581 -0.00128715 0)
(0.0671869 -0.000644881 1.65157e-23)
(0.106563 0.000381931 -1.921e-22)
(0.10655 0.000333704 9.21992e-22)
(0.106612 0.00034386 4.5017e-22)
(0.00216793 0.00163979 1.88391e-22)
(0.000204893 0.000192738 -3.20654e-22)
(0.000211744 0.000164551 2.08984e-22)
(0.00238398 0.00128056 0)
(0.000284669 0.000271977 9.09913e-22)
(0.000439641 0.00013482 -5.68214e-22)
(0.00914133 0.00466188 -7.93502e-22)
(0.00196715 0.00108524 -1.02769e-21)
(0.00223659 0.00114404 0)
(0.00158453 0.0076489 0)
(0.00058236 0.00332579 0)
(0.00031592 0.00200547 0)
(0.128615 -0.0171858 1.95824e-22)
(0.128158 -0.0164845 0)
(0.127629 -0.0180211 -2.2312e-22)
(0.0882818 -0.0146732 5.09578e-21)
(0.0902871 -0.0150689 -1.85112e-21)
(0.0891912 -0.0127036 0)
(0.10759 7.40093e-06 -1.12925e-23)
(0.107617 7.44867e-06 2.26026e-23)
(0.107563 8.03815e-06 -7.63378e-24)
(0.107642 7.55374e-06 0)
(0.107666 7.99772e-06 -1.44312e-23)
(0.107688 7.83176e-06 0)
(0.107687 -1.66982e-05 0)
(0.10771 6.87473e-06 5.35887e-23)
(0.107708 -1.71662e-05 0)
(0.107665 -1.73884e-05 -1.45235e-23)
(0.107642 -1.83372e-05 0)
(0.107617 -1.94434e-05 7.56055e-24)
(0.10759 -2.0701e-05 -1.12892e-23)
(0.107563 -2.20051e-05 7.62424e-24)
(0.10773 6.13957e-06 -5.128e-23)
(0.107729 -1.72102e-05 -1.79569e-24)
(0.107534 8.41796e-06 9.07342e-28)
(0.107534 -2.29525e-05 -1.16542e-23)
(0.107503 8.87424e-06 6.19633e-23)
(0.107749 5.85818e-06 4.79748e-26)
(0.107749 -1.66014e-05 -1.7984e-24)
(0.107503 -2.38441e-05 2.29631e-23)
(0.107767 5.37724e-06 4.83407e-23)
(0.107785 4.85269e-06 -4.8301e-23)
(0.107767 -1.60386e-05 3.61998e-24)
(0.107785 -1.55037e-05 7.16059e-24)
(0.107471 1.08772e-05 -6.02873e-23)
(0.107471 -2.53183e-05 -1.51127e-23)
(0.107802 4.33691e-06 0)
(0.107802 -1.50046e-05 -7.06277e-24)
(0.107438 1.19241e-05 7.45232e-27)
(0.107438 -2.62927e-05 -7.471e-27)
(0.107817 3.83395e-06 0)
(0.107818 -1.44986e-05 0)
(0.107403 1.30136e-05 0)
(0.107403 -2.73162e-05 0)
(0.107832 3.31164e-06 0)
(0.107833 -1.40657e-05 3.39803e-24)
(0.107366 1.4403e-05 -3.12525e-23)
(0.107365 -2.80727e-05 -7.6276e-27)
(0.107847 2.77624e-06 1.7818e-25)
(0.107847 -1.35886e-05 -3.62917e-24)
(0.107327 1.60142e-05 3.14019e-23)
(0.107326 -2.87575e-05 0)
(0.107861 2.25769e-06 0)
(0.107861 -1.31854e-05 0)
(0.107286 1.81051e-05 -1.98667e-24)
(0.107285 -2.9154e-05 3.40919e-23)
(0.107874 1.67351e-06 2.20638e-23)
(0.107874 -1.26814e-05 0)
(0.107242 2.02017e-05 -1.65168e-25)
(0.107242 -2.98575e-05 -3.22671e-23)
(0.107886 9.23923e-07 -3.30089e-23)
(0.107886 -1.22941e-05 -9.58332e-24)
(0.107196 2.14732e-05 3.29023e-23)
(0.107196 -3.04382e-05 0)
(0.107897 6.83873e-08 1.08769e-23)
(0.107898 -1.18988e-05 6.39191e-24)
(0.107147 2.34589e-05 -1.66496e-23)
(0.107147 -3.15992e-05 3.37677e-23)
(0.107909 -8.06805e-07 -4.3496e-23)
(0.107909 -1.09475e-05 4.9024e-23)
(0.107094 2.37312e-05 1.71765e-23)
(0.107095 -3.2578e-05 5.43621e-25)
(0.10792 -1.71241e-06 0)
(0.10792 -1.04907e-05 2.33876e-23)
(0.107038 2.46303e-05 -3.45554e-23)
(0.107039 -3.43777e-05 6.91371e-23)
(0.107931 -1.81466e-06 0)
(0.107931 -1.08326e-05 0)
(0.107096 7.86421e-05 -1.69961e-23)
(0.10704 8.3039e-05 -6.88209e-23)
(0.106978 2.50882e-05 0)
(0.10698 -3.7219e-05 -3.52386e-23)
(0.107198 6.94413e-05 -1.06816e-23)
(0.107148 7.42277e-05 2.09648e-24)
(0.107288 6.0503e-05 0)
(0.107244 6.50912e-05 -3.44628e-23)
(0.107368 5.29228e-05 -6.6544e-26)
(0.107329 5.65483e-05 0)
(0.107441 4.64817e-05 0)
(0.107406 4.95894e-05 0)
(0.107507 4.07175e-05 0)
(0.107475 4.34883e-05 0)
(0.107565 3.71758e-05 1.50833e-23)
(0.107536 3.90534e-05 3.79975e-24)
(0.107618 3.40756e-05 -1.45478e-23)
(0.107593 3.56346e-05 -1.50655e-23)
(0.107667 3.10764e-05 2.58526e-23)
(0.107643 3.22334e-05 3.3057e-23)
(0.107711 2.81708e-05 0)
(0.10769 2.97426e-05 0)
(0.107751 2.48874e-05 -1.13831e-25)
(0.107732 2.65453e-05 0)
(0.107786 2.18735e-05 0)
(0.107769 2.33479e-05 0)
(0.107819 1.89683e-05 0)
(0.107803 2.04037e-05 0)
(0.107848 1.62509e-05 0)
(0.107834 1.75919e-05 0)
(0.107874 1.38266e-05 0)
(0.107862 1.50215e-05 0)
(0.107898 1.15741e-05 0)
(0.107887 1.26771e-05 0)
(0.107921 8.80851e-06 -1.7799e-23)
(0.10791 1.05089e-05 0)
(0.107931 7.49141e-06 -5.75876e-24)
(0.107941 -2.30867e-06 5.61865e-24)
(0.107941 -1.08488e-05 -5.57189e-24)
(0.10791 -2.18761e-05 0)
(0.107931 -2.00573e-05 -2.2858e-23)
(0.10792 -2.06711e-05 -1.17534e-23)
(0.107887 -2.45431e-05 3.21119e-24)
(0.107898 -2.30926e-05 -1.25836e-23)
(0.107861 -2.68476e-05 1.03936e-25)
(0.107874 -2.58572e-05 0)
(0.107833 -2.88059e-05 0)
(0.107848 -2.77983e-05 0)
(0.107802 -3.10067e-05 0)
(0.107818 -2.98608e-05 0)
(0.107768 -3.36254e-05 0)
(0.107786 -3.22332e-05 1.36453e-29)
(0.10773 -3.67691e-05 1.14981e-25)
(0.107749 -3.51182e-05 0)
(0.107688 -4.08194e-05 0)
(0.107709 -3.8843e-05 0)
(0.107642 -4.43243e-05 0)
(0.107666 -4.26522e-05 0)
(0.107592 -4.8569e-05 0)
(0.107618 -4.61648e-05 -7.64211e-24)
(0.107535 -5.38474e-05 2.004e-24)
(0.107564 -5.1708e-05 -9.85129e-24)
(0.107473 -5.99473e-05 0)
(0.107505 -5.64293e-05 -8.0128e-24)
(0.107405 -6.56356e-05 0)
(0.10744 -6.28281e-05 0)
(0.107329 -7.14489e-05 0)
(0.107368 -6.84974e-05 0)
(0.107244 -7.77922e-05 0)
(0.107287 -7.45974e-05 0)
(0.107149 -8.45311e-05 -8.72206e-24)
(0.107198 -8.08609e-05 0)
(0.107043 -9.2788e-05 -3.53789e-23)
(0.107098 -8.81809e-05 -8.77588e-24)
(0.106985 -9.82785e-05 3.60248e-23)
(0.10698 8.76892e-05 6.82308e-23)
(0.107942 6.53558e-06 1.12738e-23)
(0.107941 -1.96261e-05 -2.20429e-23)
(0.106916 -4.09129e-05 0)
(0.106922 -0.000105123 0)
(0.106917 9.23276e-05 0)
(0.106914 2.48023e-05 0)
(0.107102 0.000132499 0)
(0.106988 0.000148794 1.71143e-23)
(0.107046 0.000140354 1.72672e-23)
(0.107203 0.000116832 2.19489e-23)
(0.107154 0.000124516 -4.38604e-24)
(0.107293 0.000102777 6.78858e-26)
(0.107249 0.000109337 0)
(0.107373 9.10273e-05 0)
(0.107334 9.66996e-05 0)
(0.107445 8.09831e-05 0)
(0.10741 8.57888e-05 0)
(0.10751 7.28253e-05 0)
(0.107479 7.66157e-05 0)
(0.107569 6.52893e-05 0)
(0.10754 6.88965e-05 0)
(0.107622 5.9283e-05 -6.10219e-26)
(0.107596 6.24515e-05 1.57314e-23)
(0.10767 5.39757e-05 -5.86527e-26)
(0.107647 5.63227e-05 -3.07446e-23)
(0.107714 4.87123e-05 0)
(0.107693 5.12634e-05 0)
(0.107753 4.37067e-05 5.68643e-26)
(0.107734 4.6187e-05 0)
(0.107789 3.90075e-05 0)
(0.107771 4.13032e-05 0)
(0.107821 3.46188e-05 0)
(0.107805 3.67566e-05 0)
(0.10785 3.05722e-05 0)
(0.107836 3.25307e-05 0)
(0.107876 2.67483e-05 0)
(0.107863 2.86086e-05 0)
(0.1079 2.3135e-05 0)
(0.107888 2.49224e-05 0)
(0.107922 1.90601e-05 1.2156e-23)
(0.107911 2.11572e-05 0)
(0.107951 -3.12434e-06 0)
(0.107951 5.83531e-06 1.10418e-23)
(0.107942 1.51185e-05 0)
(0.107932 1.69061e-05 1.18556e-23)
(0.107931 -2.99567e-05 2.3592e-23)
(0.107942 -2.89393e-05 5.8034e-24)
(0.107951 -1.91562e-05 4.52618e-23)
(0.107951 -1.0613e-05 0)
(0.107911 -3.34279e-05 0)
(0.107921 -3.14492e-05 -3.56087e-23)
(0.107888 -3.69528e-05 1.0119e-25)
(0.1079 -3.5159e-05 1.26601e-23)
(0.107862 -4.00304e-05 -1.03935e-25)
(0.107875 -3.84758e-05 0)
(0.107834 -4.33625e-05 0)
(0.107849 -4.16516e-05 0)
(0.107804 -4.71248e-05 0)
(0.107819 -4.51792e-05 0)
(0.10777 -5.14591e-05 0)
(0.107787 -4.92044e-05 -1.36452e-29)
(0.107732 -5.64309e-05 -2.2993e-25)
(0.107751 -5.38619e-05 0)
(0.10769 -6.24368e-05 0)
(0.107712 -5.92345e-05 0)
(0.107645 -6.89183e-05 3.85968e-24)
(0.107668 -6.55872e-05 0)
(0.107594 -7.59424e-05 0)
(0.10762 -7.22291e-05 -3.84357e-24)
(0.107538 -8.39353e-05 8.03416e-24)
(0.107567 -7.99007e-05 7.98332e-24)
(0.107477 -9.24915e-05 0)
(0.107509 -8.82403e-05 0)
(0.107409 -0.000101548 0)
(0.107444 -9.69405e-05 0)
(0.107333 -0.000111324 0)
(0.107372 -0.000106334 0)
(0.107249 -0.000122032 0)
(0.107292 -0.000116573 0)
(0.107155 -0.000133846 1.39885e-25)
(0.107203 -0.000127781 0)
(0.10705 -0.000147744 -1.41938e-25)
(0.107104 -0.000140448 0)
(0.106931 -0.000165767 -3.7127e-23)
(0.106992 -0.000156347 3.71099e-23)
(0.106925 0.000157559 3.47923e-23)
(0.106856 -0.00011326 0)
(0.106866 -0.000177184 -7.5593e-23)
(0.106849 -4.48404e-05 0)
(0.107952 1.41263e-05 0)
(0.107952 -2.775e-05 -5.63574e-24)
(0.10685 9.67609e-05 8.8161e-23)
(0.106859 0.000166824 3.52544e-23)
(0.106785 -0.000121921 1.90885e-23)
(0.106796 -0.000189453 9.55247e-23)
(0.106846 2.49106e-05 0)
(0.107943 2.52168e-05 4.64423e-23)
(0.107953 2.29457e-05 -2.29504e-23)
(0.10796 -1.89996e-05 -1.1163e-23)
(0.107961 -2.65901e-05 5.5527e-23)
(0.106875 0.000235557 1.23582e-22)
(0.106789 0.000176954 -6.94478e-23)
(0.106729 0.000267471 -3.144e-22)
(0.106804 0.000250383 -7.05513e-23)
(0.106999 0.000209284 3.44743e-23)
(0.106939 0.000222076 -1.05228e-22)
(0.107111 0.00018537 -3.52339e-23)
(0.107057 0.000197125 -2.65659e-23)
(0.107211 0.000163867 -8.78188e-24)
(0.107163 0.000174385 -8.79741e-24)
(0.1073 0.000145068 -6.78858e-26)
(0.107257 0.000154021 0)
(0.10738 0.000128988 0)
(0.107341 0.00013674 0)
(0.107452 0.000115203 0)
(0.107417 0.000121816 0)
(0.107516 0.000103545 0)
(0.107485 0.000109122 0)
(0.107575 9.3415e-05 0)
(0.107546 9.82274e-05 0)
(0.107627 8.446e-05 0)
(0.107601 8.87327e-05 0)
(0.107674 7.63818e-05 4.46752e-30)
(0.107651 8.04888e-05 0)
(0.107718 6.91513e-05 0)
(0.107697 7.26228e-05 0)
(0.107756 6.22862e-05 5.68616e-26)
(0.107737 6.56858e-05 0)
(0.107791 5.58258e-05 0)
(0.107774 5.89935e-05 0)
(0.107823 4.98445e-05 0)
(0.107808 5.27711e-05 0)
(0.107852 4.43461e-05 0)
(0.107838 4.70318e-05 0)
(0.107878 3.92692e-05 0)
(0.107865 4.17533e-05 0)
(0.107902 3.45327e-05 0)
(0.10789 3.68754e-05 0)
(0.107924 2.97555e-05 6.19656e-24)
(0.107913 3.21232e-05 -3.11714e-24)
(0.107934 2.74271e-05 -2.36801e-23)
(0.10796 -3.31927e-06 -5.28577e-24)
(0.107961 1.31607e-05 2.21222e-23)
(0.107961 4.69264e-06 -1.68913e-23)
(0.10796 -1.03681e-05 0)
(0.107933 -4.05567e-05 -1.75874e-23)
(0.107952 -3.6472e-05 -5.08325e-23)
(0.107943 -3.83438e-05 4.08928e-23)
(0.107912 -4.51128e-05 0)
(0.107923 -4.29064e-05 0)
(0.107889 -4.89666e-05 2.44654e-30)
(0.107901 -4.69177e-05 0)
(0.107864 -5.31905e-05 0)
(0.107877 -5.10232e-05 0)
(0.107836 -5.79032e-05 -1.06694e-25)
(0.107851 -5.54802e-05 0)
(0.107806 -6.32163e-05 0)
(0.107822 -6.04772e-05 0)
(0.107772 -6.9252e-05 0)
(0.107789 -6.61354e-05 0)
(0.107735 -7.60999e-05 1.14965e-25)
(0.107754 -7.25711e-05 0)
(0.107694 -8.39375e-05 1.17727e-25)
(0.107715 -7.98641e-05 0)
(0.107648 -9.26537e-05 0)
(0.107672 -8.81717e-05 0)
(0.107598 -0.000102428 0)
(0.107624 -9.74674e-05 0)
(0.107543 -0.000113068 0)
(0.107571 -0.000107505 0)
(0.107482 -0.00012461 0)
(0.107514 -0.000118752 0)
(0.107415 -0.000137181 -1.31555e-25)
(0.107449 -0.000130759 0)
(0.10734 -0.00015093 0)
(0.107378 -0.000143895 0)
(0.107256 -0.000166116 0)
(0.107299 -0.000158331 0)
(0.107163 -0.000183057 -8.25627e-31)
(0.107211 -0.000174349 0)
(0.107059 -0.000202323 4.55205e-30)
(0.107113 -0.000192369 0)
(0.106943 -0.00022553 1.47084e-25)
(0.107003 -0.000213148 0)
(0.106811 -0.000254932 -7.74233e-23)
(0.106879 -0.000239325 1.90363e-23)
(0.106723 -0.000202103 1.94787e-23)
(0.106739 -0.000271818 3.86702e-23)
(0.106779 0.000101294 -3.44807e-23)
(0.106778 -4.9737e-05 -3.70023e-23)
(0.107962 2.1369e-05 5.62957e-24)
(0.107961 -3.5028e-05 3.99597e-23)
(0.106712 0.000185894 4.22995e-24)
(0.106711 -0.000131312 0)
(0.106639 0.000274364 4.7977e-22)
(0.106663 -0.000289493 5.96491e-23)
(0.106646 -0.000215981 7.95437e-23)
(0.106649 0.000375583 -8.09252e-22)
(0.106581 0.000409745 1.43747e-22)
(0.106776 2.50223e-05 0)
(0.106763 0.000338053 7.95353e-23)
(0.106703 0.000361057 4.1409e-23)
(0.106894 0.000301009 7.16996e-23)
(0.106828 0.000318651 -1.09407e-22)
(0.107016 0.000267135 -3.5723e-23)
(0.106957 0.000283911 -1.78459e-23)
(0.107125 0.000236758 1.7913e-23)
(0.107072 0.000251353 1.81392e-23)
(0.107222 0.000210093 0)
(0.107175 0.000223014 -4.31116e-26)
(0.10731 0.000186835 0)
(0.107267 0.00019809 0)
(0.107389 0.000166522 6.65027e-26)
(0.107351 0.000176319 0)
(0.10746 0.000148989 0)
(0.107425 0.000157426 0)
(0.107524 0.000133927 0)
(0.107493 0.000141174 0)
(0.107581 0.000120863 0)
(0.107553 0.00012716 0)
(0.107633 0.000109294 6.09891e-26)
(0.107608 0.000114877 0)
(0.10768 9.88378e-05 2.05752e-30)
(0.107657 0.000104009 0)
(0.107722 8.93685e-05 0)
(0.107702 9.39739e-05 0)
(0.107761 8.05469e-05 -1.13721e-25)
(0.107742 8.48899e-05 0)
(0.107795 7.23455e-05 0)
(0.107778 7.63638e-05 0)
(0.107827 6.47998e-05 0)
(0.107811 6.84911e-05 0)
(0.107855 5.78978e-05 0)
(0.107841 6.12699e-05 0)
(0.107881 5.15986e-05 0)
(0.107868 5.46762e-05 0)
(0.107904 4.58139e-05 0)
(0.107893 4.86562e-05 0)
(0.107926 4.03415e-05 -3.09632e-24)
(0.107915 4.29516e-05 0)
(0.107945 3.53421e-05 0)
(0.107936 3.78563e-05 -6.01378e-24)
(0.107963 2.9909e-05 2.98341e-27)
(0.107955 3.25725e-05 0)
(0.10797 1.20698e-05 -2.24295e-23)
(0.107972 2.7773e-05 1.35603e-24)
(0.107971 2.02575e-05 1.09979e-23)
(0.107969 -3.17316e-06 8.06915e-24)
(0.107969 4.14439e-06 -5.56978e-24)
(0.107969 -1.8945e-05 -2.80351e-24)
(0.107969 -1.06627e-05 2.799e-24)
(0.10797 -3.4288e-05 0)
(0.10797 -2.6014e-05 -2.5435e-23)
(0.107954 -4.62243e-05 -1.14314e-23)
(0.107971 -4.2964e-05 -2.18824e-23)
(0.107962 -4.43543e-05 5.03577e-23)
(0.107935 -5.08379e-05 -5.98701e-24)
(0.107944 -4.83896e-05 0)
(0.107914 -5.60713e-05 0)
(0.107925 -5.35086e-05 0)
(0.107891 -6.087e-05 2.02543e-30)
(0.107903 -5.84653e-05 0)
(0.107867 -6.62618e-05 0)
(0.107879 -6.34847e-05 0)
(0.107839 -7.23186e-05 1.06694e-25)
(0.107853 -6.92032e-05 0)
(0.107809 -7.91365e-05 0)
(0.107824 -7.56259e-05 0)
(0.107776 -8.68348e-05 0)
(0.107793 -8.28688e-05 0)
(0.107739 -9.55239e-05 0)
(0.107758 -9.10498e-05 0)
(0.107698 -0.000105326 1.25387e-30)
(0.107719 -0.000100279 0)
(0.107653 -0.000116239 0)
(0.107676 -0.000110637 0)
(0.107604 -0.000128388 0)
(0.107629 -0.00012218 0)
(0.10755 -0.000141745 0)
(0.107577 -0.000134868 0)
(0.107489 -0.000156389 0)
(0.10752 -0.000148906 0)
(0.107423 -0.000172454 1.31555e-25)
(0.107457 -0.000164234 0)
(0.107349 -0.00019016 0)
(0.107387 -0.000181085 0)
(0.107266 -0.000209837 0)
(0.107308 -0.000199732 0)
(0.107174 -0.000231891 -1.39871e-25)
(0.107221 -0.00022054 0)
(0.107072 -0.0002568 1.42645e-25)
(0.107124 -0.000243965 0)
(0.106957 -0.00028519 -1.45422e-25)
(0.107016 -0.000270495 0)
(0.106828 -0.000319111 1.91541e-23)
(0.106895 -0.000301087 -3.776e-23)
(0.106684 -0.000360594 -1.93431e-23)
(0.106758 -0.000338888 3.9242e-23)
(0.106583 -0.00030814 7.33543e-25)
(0.106606 -0.000383384 3.97777e-23)
(0.106704 0.000105396 -3.54454e-23)
(0.106704 -5.43303e-05 0)
(0.106634 0.000195276 -3.43892e-22)
(0.106632 -0.000138615 0)
(0.107965 3.99977e-05 -5.64004e-24)
(0.107974 3.7684e-05 4.13176e-24)
(0.107978 -3.3295e-05 -2.15548e-23)
(0.107979 -4.15845e-05 -2.44315e-23)
(0.106551 0.000274101 -3.37487e-22)
(0.106564 -0.000230455 -8.03219e-23)
(0.106516 0.000414053 0)
(0.106669 0.000453058 -9.3519e-23)
(0.106498 -0.000327986 -3.94437e-23)
(0.106522 -0.00040779 6.04264e-23)
(0.106594 0.000474698 1.87676e-22)
(0.106701 2.48877e-05 0)
(0.106793 0.000406536 0)
(0.106731 0.000430824 -8.32368e-23)
(0.106918 0.000363257 0)
(0.106856 0.000384393 0)
(0.107035 0.000322806 0)
(0.106978 0.00034251 1.84885e-23)
(0.107141 0.000287269 0)
(0.107089 0.000304494 0)
(0.107236 0.000255798 0)
(0.10719 0.000271022 0)
(0.107322 0.000227986 0)
(0.107281 0.00024147 0)
(0.1074 0.000203567 -6.65027e-26)
(0.107362 0.00021536 0)
(0.10747 0.000182345 0)
(0.107436 0.000192578 0)
(0.107533 0.000163952 0)
(0.107502 0.000172824 0)
(0.10759 0.000147896 0)
(0.107562 0.000155662 0)
(0.107641 0.00013368 -2.01918e-30)
(0.107616 0.000140579 0)
(0.107687 0.000120886 1.89525e-30)
(0.107664 0.000127143 0)
(0.107728 0.000109245 0)
(0.107708 0.00011493 0)
(0.107766 9.85179e-05 1.81911e-30)
(0.107747 0.000103779 0)
(0.1078 8.86256e-05 0)
(0.107783 9.34676e-05 0)
(0.107831 7.95613e-05 0)
(0.107816 8.39919e-05 0)
(0.107859 7.1299e-05 0)
(0.107845 7.53327e-05 0)
(0.107884 6.37948e-05 0)
(0.107872 6.74558e-05 0)
(0.107907 5.70033e-05 0)
(0.107896 6.03118e-05 0)
(0.107928 5.09711e-05 0)
(0.107918 5.39225e-05 0)
(0.107948 4.48185e-05 5.97468e-24)
(0.107938 4.77683e-05 6.10509e-24)
(0.107957 4.22125e-05 -1.14769e-23)
(0.107978 1.12015e-05 -1.10172e-23)
(0.10798 2.65154e-05 0)
(0.107979 1.92405e-05 -1.11263e-23)
(0.107978 -3.28829e-06 0)
(0.107978 4.06991e-06 1.12438e-23)
(0.107978 -1.89259e-05 1.67808e-23)
(0.107978 -1.11438e-05 -5.67113e-24)
(0.107978 -2.57399e-05 -3.29751e-23)
(0.107955 -5.599e-05 5.76676e-24)
(0.107972 -5.08292e-05 2.15092e-23)
(0.107964 -5.39609e-05 0)
(0.107937 -6.12728e-05 -1.19305e-23)
(0.107946 -5.8472e-05 1.19699e-23)
(0.107917 -6.67726e-05 0)
(0.107927 -6.41301e-05 0)
(0.107894 -7.26052e-05 2.02897e-30)
(0.107906 -6.96224e-05 0)
(0.10787 -7.91728e-05 0)
(0.107882 -7.57921e-05 0)
(0.107843 -8.65522e-05 0)
(0.107856 -8.27565e-05 0)
(0.107813 -9.48455e-05 0)
(0.107828 -9.05783e-05 0)
(0.10778 -0.000104173 0)
(0.107797 -9.93734e-05 0)
(0.107744 -0.000114654 1.14969e-25)
(0.107762 -0.000109263 0)
(0.107704 -0.00012641 -1.17728e-25)
(0.107724 -0.000120369 0)
(0.10766 -0.000139496 0)
(0.107682 -0.000132781 0)
(0.107611 -0.000154015 0)
(0.107636 -0.000146578 0)
(0.107557 -0.000170054 0)
(0.107585 -0.000161829 0)
(0.107498 -0.000187731 0)
(0.107529 -0.000178681 0)
(0.107432 -0.000207229 0)
(0.107466 -0.000197239 0)
(0.10736 -0.000228834 0)
(0.107397 -0.000217749 0)
(0.107278 -0.000252927 -1.37098e-25)
(0.10732 -0.000240545 0)
(0.107188 -0.00027998 1.39871e-25)
(0.107234 -0.000266052 0)
(0.107087 -0.000310537 -1.42645e-25)
(0.107139 -0.00029479 0)
(0.106974 -0.00034515 0)
(0.107032 -0.000327298 0)
(0.106849 -0.000384459 0)
(0.106913 -0.000364161 0)
(0.106708 -0.000430617 1.52859e-25)
(0.106781 -0.000406263 1.9338e-23)
(0.106551 -0.000486237 -1.01292e-22)
(0.106632 -0.000457345 0)
(0.106434 -0.000434892 -5.99192e-23)
(0.106465 -0.000517431 -7.37163e-25)
(0.106626 0.000109558 1.10879e-22)
(0.106625 -5.85191e-05 0)
(0.107982 3.4921e-05 -2.14796e-23)
(0.10798 -4.87967e-05 -4.14133e-23)
(0.106546 0.000196399 -5.9051e-23)
(0.10648 0.000354895 7.765e-25)
(0.106462 0.000275857 1.72116e-22)
(0.10655 -0.000146494 0)
(0.106478 -0.000243725 2.0197e-23)
(0.10651 0.000495694 -1.71854e-22)
(0.106426 0.000499899 1.48821e-22)
(0.106407 0.000393786 -1.47619e-22)
(0.106408 -0.000348297 -6.07354e-23)
(0.106341 -0.000462537 4.068e-23)
(0.106373 -0.000552 3.99133e-23)
(0.106623 2.43341e-05 0)
(0.106691 0.000528839 5.22542e-24)
(0.106528 0.000589516 -8.0278e-25)
(0.106612 0.000558192 4.04781e-23)
(0.106821 0.000473633 4.00339e-23)
(0.106758 0.000500492 -4.02418e-23)
(0.106944 0.000423027 7.34115e-26)
(0.106883 0.000447913 0)
(0.107057 0.00037749 0)
(0.107002 0.000399568 0)
(0.10716 0.000336843 0)
(0.10711 0.00035661 0)
(0.107253 0.000300568 0)
(0.107207 0.000318165 0)
(0.107337 0.000268365 6.78776e-26)
(0.107296 0.000283981 0)
(0.107413 0.000239983 0)
(0.107376 0.000253711 0)
(0.107482 0.000215154 0)
(0.107448 0.000227148 0)
(0.107544 0.000193486 0)
(0.107513 0.000203956 0)
(0.107599 0.000174475 0)
(0.107572 0.000183681 0)
(0.107649 0.000157621 -6.09871e-26)
(0.107625 0.000165807 0)
(0.107694 0.000142482 2.08042e-30)
(0.107672 0.000149866 0)
(0.107735 0.000128737 0)
(0.107715 0.000135449 0)
(0.107772 0.000116156 1.13714e-25)
(0.107754 0.000122314 0)
(0.107805 0.000104616 0)
(0.107789 0.000110259 0)
(0.107835 9.40738e-05 0)
(0.107821 9.92234e-05 0)
(0.107863 8.44861e-05 0)
(0.107849 8.91645e-05 0)
(0.107888 7.57993e-05 0)
(0.107876 8.00343e-05 0)
(0.107911 6.79651e-05 0)
(0.1079 7.17776e-05 0)
(0.107932 6.09933e-05 9.72261e-26)
(0.107921 6.43826e-05 0)
(0.10795 5.4498e-05 -6.00078e-24)
(0.107941 5.78051e-05 0)
(0.107967 4.79476e-05 5.71466e-24)
(0.107959 5.11757e-05 0)
(0.107984 4.23352e-05 5.46789e-24)
(0.107976 4.50819e-05 -5.58354e-24)
(0.107988 2.52934e-05 1.08058e-23)
(0.107991 3.93841e-05 0)
(0.10799 3.31288e-05 1.60833e-23)
(0.107987 1.09764e-05 0)
(0.107987 1.791e-05 0)
(0.107986 -3.64124e-06 0)
(0.107986 3.94415e-06 0)
(0.107986 -1.90401e-05 0)
(0.107986 -1.13431e-05 0)
(0.107986 -3.27534e-05 2.19679e-23)
(0.107986 -2.57189e-05 5.46232e-24)
(0.107988 -4.71938e-05 5.40801e-24)
(0.107987 -4.00237e-05 4.30812e-23)
(0.107974 -5.92334e-05 2.80382e-23)
(0.107989 -5.47556e-05 5.38824e-24)
(0.107982 -5.67838e-05 -1.09336e-23)
(0.107957 -6.50237e-05 5.76167e-24)
(0.107966 -6.19712e-05 -3.45363e-23)
(0.107939 -7.12828e-05 7.37358e-30)
(0.107949 -6.81354e-05 0)
(0.107919 -7.72925e-05 0)
(0.10793 -7.41949e-05 0)
(0.107897 -8.41588e-05 2.00858e-30)
(0.107909 -8.06265e-05 0)
(0.107873 -9.18879e-05 0)
(0.107886 -8.79112e-05 0)
(0.107847 -0.000100567 0)
(0.10786 -9.61035e-05 0)
(0.107817 -0.000110305 0)
(0.107832 -0.000105297 0)
(0.107785 -0.000121226 0)
(0.107802 -0.000115611 0)
(0.107749 -0.000133459 -2.29939e-25)
(0.107768 -0.000127172 0)
(0.10771 -0.000147129 0)
(0.10773 -0.000140109 0)
(0.107667 -0.000162339 0)
(0.107689 -0.000154536 0)
(0.107619 -0.000179209 0)
(0.107644 -0.000170562 0)
(0.107567 -0.000197883 0)
(0.107594 -0.000188309 0)
(0.107509 -0.000218533 -1.28787e-25)
(0.107538 -0.00020795 0)
(0.107444 -0.000241405 0)
(0.107477 -0.000229675 0)
(0.107373 -0.000266834 0)
(0.107409 -0.000253777 0)
(0.107293 -0.000295254 1.37098e-25)
(0.107334 -0.000280643 0)
(0.107204 -0.000327185 -8.5203e-31)
(0.10725 -0.000310747 0)
(0.107105 -0.000363223 2.85289e-25)
(0.107156 -0.000344655 0)
(0.106995 -0.000404002 0)
(0.107052 -0.000382983 0)
(0.106872 -0.000450148 0)
(0.106935 -0.000426357 0)
(0.106735 -0.00050243 -8.44588e-30)
(0.106806 -0.000475491 0)
(0.106582 -0.000562312 0)
(0.106661 -0.000531283 0)
(0.10641 -0.000635026 -6.05925e-23)
(0.106499 -0.000596728 0)
(0.106277 -0.000587803 -7.30568e-25)
(0.106316 -0.00067723 1.03203e-22)
(0.106541 0.000111874 0)
(0.106445 0.000610787 2.34334e-22)
(0.106455 0.000198334 4.04503e-23)
(0.107986 4.96185e-05 -5.4576e-24)
(0.107993 4.69878e-05 0)
(0.107996 -4.59385e-05 5.27494e-24)
(0.107997 -5.28081e-05 -1.04546e-23)
(0.106542 -6.20528e-05 0)
(0.106464 -0.000155147 0)
(0.106377 0.000298349 0)
(0.106387 -0.000257705 -1.98923e-23)
(0.106312 -0.000370254 -4.02553e-23)
(0.106241 -0.00049326 0)
(0.106175 -0.000626123 1.04154e-22)
(0.106217 -0.000721146 -8.32257e-23)
(0.106539 2.43916e-05 0)
(0.106557 0.000673776 -1.94797e-26)
(0.106354 0.000634537 7.4364e-23)
(0.106385 0.000740204 -2.66051e-22)
(0.106473 0.000707316 7.72258e-23)
(0.106716 0.000601546 -2.52302e-23)
(0.106638 0.000636295 -4.01336e-23)
(0.10685 0.000538388 0)
(0.106786 0.000569 0)
(0.10697 0.000481545 -7.34047e-26)
(0.106911 0.000509282 0)
(0.107081 0.000430673 0)
(0.107027 0.000455393 0)
(0.107181 0.000385045 0)
(0.107132 0.000407242 0)
(0.107272 0.000344216 0)
(0.107227 0.000364051 0)
(0.107354 0.000307847 -6.78776e-26)
(0.107314 0.000325497 0)
(0.107428 0.000275644 0)
(0.107392 0.000291244 0)
(0.107495 0.000247305 0)
(0.107462 0.000261016 0)
(0.107556 0.000222426 0)
(0.107526 0.000234464 0)
(0.10761 0.000200514 0)
(0.107583 0.000211133 0)