/*--------------------------------*- C++ -*----------------------------------*\
  =========                 |
  \\      /  F ield         | OpenFOAM: The Open Source CFD Toolbox
   \\    /   O peration     | Website:  https://openfoam.org
    \\  /    A nd           | Version:  10
     \\/     M anipulation  |
\*---------------------------------------------------------------------------*/
FoamFile
{
    format      ascii;
    class       volScalarField;
    location    "82";
    object      p;
}
// * * * * * * * * * * * * * * * * * * * * * * * * * * * * * * * * * * * * * //

dimensions      [0 2 -2 0 0 0 0];

internalField   nonuniform List<scalar> 
28942
(
-0.00376033
-0.00313495
0.00203847
0.00949469
0.00979459
7.84509e-05
0.000265533
1.83091e-05
0.0027187
0.00280656
-0.0023027
-0.00257135
-0.00295373
-0.00287128
0.000177732
0.000471347
0.00988554
0.0101555
0.00558939
0.00714927
0.00815735
0.008149
-0.00520667
-0.00503219
-0.00356105
-0.00378505
0.0138841
0.0138331
0.00354314
0.00348577
1.36581e-05
4.70912e-05
0.000716477
0.000289433
0.00714826
0.00835394
0.0108917
0.0128501
-1.19072e-05
0.0150448
0.00909489
0.0115928
0.00173908
0.00165
0.0017135
0.000268514
0.000138968
0.000213163
0.000246945
0.00034613
0.000668854
0.00278938
0.00286061
0.00285143
0.00300632
-0.00233248
-0.00103075
-0.00336024
-0.00320602
-0.00347654
-0.00354971
-0.00355038
-0.00344854
-9.78813e-05
-0.00179676
-0.000344619
0.000985273
0.0094297
0.00893336
-0.00335245
-0.00356203
-0.00329734
0.00899568
0.00884715
0.00913956
-0.00146558
-0.00107813
-0.000740191
0.0023719
0.00277118
0.00186301
0.000768992
-0.00629977
-0.00752735
0.00109056
0.00381545
0.00485672
0.00564385
0.00402867
0.00415126
0.00611785
0.00549718
-0.00138684
-0.00167595
-0.00195342
-0.00179292
-0.00161965
0.00533927
0.00663
-0.00783869
0.0112919
0.0104929
0.00578681
0.00938361
0.000906232
0.000811984
0.000723376
0.00547705
0.00566979
0.00566391
-0.00320398
-0.00312479
-0.00311763
-0.00260122
-0.00272443
0.0158373
0.0138327
0.0132739
0.0149048
0.00165043
0.00472916
0.00342784
0.00508169
0.0047586
0.0155104
0.0158054
0.0144641
0.00592299
0.00700174
0.000174395
0.000270108
9.7022e-05
0.0105066
0.0110093
0.00767225
0.00732433
0.0127815
0.00670755
0.00799748
0.00905668
-0.00189174
-0.00239917
0.00736701
0.00165627
0.00174539
-0.00115713
-0.00141935
-0.000962733
-0.00249863
0.00659929
0.00572672
0.00372104
0.000248095
0.000195557
7.39778e-05
0.000196981
0.00753561
0.00679908
-0.00185189
-0.00196904
-0.00186413
-0.00412545
-0.0036712
5.56989e-05
-0.00283542
-0.000483404
0.00839955
0.00850851
0.00960268
0.00913797
0.00771568
0.0030835
0.00300083
0.00325806
0.00313376
0.00504669
0.00482454
0.0051597
0.0053802
0.00531825
0.00538948
0.00560069
0.00615479
0.00584879
0.0054468
0.00577694
0.00648262
0.00723653
0.00752849
-0.000569425
-0.000550188
-0.00246007
0.000198324
5.07691e-05
-0.00198251
-0.00207079
0.00026969
0.000331644
0.000296153
0.000229536
0.00175798
0.00170913
0.00169138
-0.00290269
-0.00308917
-0.00275415
-0.00432001
-0.00480148
-0.00411393
-0.00470052
-0.00646473
-0.00516414
0.016031
0.0167412
0.0165086
0.000939378
0.00108417
0.000973081
0.0103575
0.00992958
0.0100098
0.00140713
0.00139155
0.00142289
0.00137553
0.00136037
0.00134463
0.00134485
0.00132871
0.00132891
0.00136068
0.001376
0.00139139
0.0014071
0.00142344
0.00131331
0.00131252
0.00143815
0.00143823
0.00145274
0.00129752
0.00129666
0.00145323
0.0012813
0.0012652
0.00128107
0.00126532
0.00146964
0.00146976
0.00124924
0.00124941
0.00148478
0.00148514
0.00123326
0.00123352
0.00150002
0.00150041
0.00121731
0.00121755
0.00151522
0.00151569
0.00120131
0.00120162
0.00153039
0.00153088
0.00118531
0.00118563
0.00154563
0.00154612
0.0011692
0.00116968
0.00156116
0.00156148
0.00115315
0.00115336
0.0015758
0.00157631
0.00113694
0.00113683
0.00159185
0.00159195
0.00112034
0.00112005
0.00160631
0.00160636
0.00110269
0.00110323
0.00162153
0.00162135
0.00108575
0.00108658
0.00160564
0.00162088
0.00163681
0.00163647
0.00157398
0.00159061
0.00154362
0.00155934
0.001514
0.00152893
0.00148358
0.00149886
0.0014522
0.00146818
0.00142163
0.00143833
0.0013912
0.00140687
0.00135953
0.00137423
0.00132712
0.00134352
0.00129575
0.00131154
0.00126409
0.00127998
0.00123229
0.00124823
0.0012004
0.00121638
0.0011684
0.00118445
0.00113631
0.00115239
0.00110281
0.00112011
0.00108588
0.00106887
0.00106928
0.00112003
0.00108614
0.00110287
0.00115303
0.00113632
0.00118508
0.00116921
0.00121696
0.00120105
0.00124879
0.00123292
0.00128056
0.00126472
0.00131203
0.00129641
0.00134382
0.00132818
0.00137579
0.00135993
0.00140613
0.00139077
0.00143791
0.00142321
0.00146908
0.00145308
0.00149972
0.00148447
0.00153007
0.00151499
0.00156026
0.00154511
0.00159056
0.00157506
0.00161988
0.00160542
0.00163503
0.00163675
0.00106859
0.00106923
0.00165097
0.00164918
0.0016523
0.00165166
0.00160395
0.0016354
0.00161937
0.00157237
0.00158856
0.00154236
0.00155702
0.0015125
0.00152754
0.00148207
0.00149735
0.00145124
0.00146671
0.00141987
0.00143595
0.00138908
0.00140541
0.00135859
0.00137284
0.00132598
0.00134232
0.00129446
0.00131024
0.00126283
0.00127868
0.00123106
0.00124697
0.00119922
0.00121516
0.00116731
0.00118328
0.00113543
0.00115136
0.0011023
0.00111902
0.00105167
0.00105184
0.00106789
0.00108508
0.00108541
0.00106887
0.00105195
0.00105198
0.00111971
0.00110217
0.00115212
0.00113555
0.0011839
0.00116802
0.00121574
0.00119984
0.00124753
0.00123165
0.00127929
0.00126343
0.00131097
0.00129518
0.00134251
0.00132679
0.00137425
0.00135826
0.0014051
0.00138959
0.00143627
0.00142145
0.00146749
0.00145198
0.00149822
0.00148292
0.00152863
0.00151349
0.00155872
0.00154374
0.00158842
0.00157363
0.00161772
0.00160306
0.00164614
0.00163237
0.00165107
0.00166379
0.00166094
0.00166488
0.00105112
0.00105147
0.00166611
0.00166497
0.00167817
0.00167586
0.00166601
0.0010675
0.00104985
0.0010347
0.00103421
0.00166362
0.00168083
0.00170433
0.0016856
0.00163279
0.00164861
0.00160119
0.00161668
0.00157015
0.00158618
0.00154021
0.00155471
0.00151038
0.00152543
0.00147998
0.00149524
0.00144923
0.00146466
0.00141822
0.00143376
0.00138715
0.00140281
0.00135596
0.00137144
0.00132436
0.00134028
0.00129274
0.00130855
0.00126109
0.00127694
0.00122936
0.00124524
0.00119756
0.00121348
0.00116572
0.00118165
0.00113394
0.00114982
0.00110113
0.00111756
0.00108418
0.00103495
0.00103415
0.00103457
0.00103504
0.00108454
0.00105056
0.00106799
0.00111856
0.0011015
0.00115043
0.00113422
0.00118219
0.00116632
0.00121396
0.00119809
0.0012457
0.00122985
0.00127738
0.00126156
0.00130902
0.00129322
0.00134056
0.00132481
0.00137195
0.00135631
0.00140323
0.00138759
0.00143429
0.00141889
0.00146529
0.00144984
0.001496
0.0014807
0.00152639
0.00151125
0.00155642
0.00154148
0.00158592
0.00157128
0.00161478
0.00160038
0.00164324
0.00162904
0.00167214
0.00165702
0.0016891
0.00168594
0.00168033
0.00167889
0.00103308
0.00103366
0.00169242
0.00169174
0.00169588
0.00169946
0.00170187
0.00162953
0.0017048
0.00168052
0.00168779
0.00168488
0.00166298
0.00168028
0.00162843
0.00164557
0.00159765
0.00161249
0.00156727
0.00158308
0.00153756
0.00155233
0.00150759
0.00152265
0.00147722
0.00149245
0.00144653
0.00146192
0.00141564
0.00143112
0.00138458
0.00140014
0.00135331
0.00136896
0.00132191
0.00133768
0.00129036
0.00130614
0.00125876
0.00127458
0.00122709
0.00124294
0.00119536
0.00121124
0.00116359
0.00117949
0.00113187
0.00114772
0.00109951
0.00111565
0.00106638
0.00108284
0.00103203
0.00104901
0.0010174
0.00101494
0.00101631
0.00101832
0.00101788
0.00101828
0.00101843
0.00101701
0.00101777
0.00104943
0.00101543
0.00103335
0.00108306
0.00106661
0.00111655
0.00110022
0.00114822
0.00113235
0.00117996
0.00116411
0.00121166
0.00119583
0.00124332
0.00122751
0.00127493
0.00125914
0.00130648
0.00129072
0.00133796
0.00132224
0.00136929
0.00135367
0.00140052
0.00138493
0.00143157
0.0014161
0.00146247
0.00144706
0.00149312
0.00147785
0.00152345
0.00150834
0.00155339
0.00153849
0.00158282
0.00156821
0.00161147
0.00159725
0.00163941
0.00162558
0.0016675
0.00165319
0.00169524
0.00168045
0.00171233
0.00170816
0.00169321
0.00169306
0.00170943
0.00170262
0.00103068
0.00101418
0.00100011
0.000999111
0.00170157
0.00171487
0.00174038
0.00165615
0.00172285
0.0017199
0.0016994
0.00169352
0.00167569
0.00167197
0.00165783
0.00167166
0.00162339
0.00164047
0.00159392
0.00160858
0.00156402
0.00157915
0.00153414
0.00154907
0.00150412
0.00151919
0.0014738
0.00148901
0.0014432
0.00145855
0.00141237
0.00142783
0.00138137
0.00139691
0.00135019
0.0013658
0.00131885
0.00133456
0.0012874
0.00130314
0.00125588
0.00127166
0.00122429
0.0012401
0.00119264
0.00120848
0.00116094
0.00117681
0.00112921
0.00114509
0.00109748
0.00111333
0.00106423
0.0010809
0.00104729
0.00100072
0.000998416
0.0010001
0.00100217
0.00100164
0.00100172
0.0010022
0.00100102
0.00104789
0.00101358
0.00103247
0.00108148
0.00106484
0.00111391
0.00109814
0.00114558
0.00112975
0.00117724
0.00116143
0.00120885
0.00119307
0.00124042
0.00122466
0.00127194
0.0012562
0.0013034
0.00128769
0.00133478
0.00131912
0.00136606
0.00135046
0.00139721
0.00138166
0.0014282
0.00141275
0.00145902
0.00144365
0.00148959
0.00147436
0.00151984
0.00150478
0.0015497
0.00153485
0.00157904
0.00156447
0.00160767
0.00159347
0.00163544
0.0016217
0.0016627
0.00164929
0.00168895
0.00167438
0.00171549
0.00170374
0.00173069
0.00172584
0.00170717
0.00170455
0.00099636
0.000997294
0.00171076
0.00167328
0.00169543
0.00171543
0.00172478
0.00174885
0.00173006
0.00173715
0.00173376
0.0017414
0.00173885
0.00170532
0.00167251
0.00173815
0.00170875
0.00166624
0.00166598
0.00164944
0.00166371
0.00161869
0.00163383
0.00158939
0.00160407
0.00155976
0.00157465
0.00152997
0.00154488
0.00150001
0.00151504
0.00146976
0.00148494
0.00143925
0.00145455
0.00140851
0.00142392
0.00137759
0.00139309
0.0013465
0.00136207
0.00131526
0.00133091
0.00128391
0.00129961
0.00125248
0.00126822
0.00122099
0.00123676
0.00118944
0.00120523
0.00115783
0.00117365
0.00112618
0.00114203
0.00109449
0.00111035
0.00106229
0.00107866
0.00102837
0.00104544
0.00099474
0.00101173
0.000981929
0.000977793
0.000980022
0.000984911
0.000983419
0.000986301
0.000985883
0.00098598
0.000986299
0.000983935
0.000985159
0.000980936
0.000982529
0.00101237
0.000979133
0.000995531
0.001046
0.00102975
0.00107931
0.00106293
0.00111089
0.00109513
0.00114251
0.00112672
0.00117406
0.00115831
0.00120556
0.00118983
0.00123703
0.00122132
0.00126844
0.00125276
0.0012998
0.00128415
0.00133108
0.00131547
0.00136227
0.00134671
0.00139333
0.00137783
0.00142424
0.00140883
0.00145497
0.00143965
0.00148545
0.00147026
0.00151561
0.0015006
0.00154537
0.00153057
0.00157461
0.00156009
0.00160318
0.00158901
0.00163094
0.00161719
0.00165778
0.00164459
0.00168377
0.00167057
0.0017084
0.00169692
0.00173254
0.00171851
0.00175117
0.00174608
0.00171422
0.0017298
0.0017135
0.000992295
0.000976066
0.000964284
0.000962208
0.00171557
0.0017263
0.00172245
0.00173531
0.00174366
0.00175455
0.00176166
0.00175742
0.00171516
0.00172557
0.00173748
0.00173105
0.00172986
0.00167827
0.00170321
0.00165943
0.00166479
0.00164156
0.00165478
0.00161285
0.00162713
0.00158403
0.00159853
0.00155473
0.00156945
0.00152513
0.00153997
0.00149527
0.00151025
0.00146513
0.00148026
0.00143472
0.00144998
0.00140409
0.00141945
0.00137326
0.00138872
0.00134228
0.0013578
0.00131115
0.00132675
0.00127992
0.00129556
0.0012486
0.00126428
0.00121722
0.00123293
0.00118578
0.00120152
0.00115428
0.00117005
0.00112274
0.00113853
0.00109114
0.00110696
0.00105969
0.00107541
0.00102615
0.00104315
0.00100897
0.000965999
0.000961112
0.000964102
0.000969221
0.000967756
0.000970351
0.000969979
0.000970002
0.000970359
0.00096781
0.000969112
0.000966151
0.00101063
0.000976881
0.000993564
0.0010438
0.00102749
0.001076
0.00106025
0.00110752
0.00109176
0.00113901
0.00112329
0.00117045
0.00115476
0.00120183
0.00118616
0.00123317
0.00121753
0.00126447
0.00124885
0.00129571
0.00128012
0.00132688
0.00131133
0.00135796
0.00134246
0.00138892
0.00137348
0.00141973
0.00140437
0.00145035
0.00143509
0.00148073
0.0014656
0.00151078
0.00149582
0.00154043
0.00152569
0.00156956
0.0015551
0.00159804
0.00158392
0.00162574
0.00161202
0.00165251
0.0016393
0.00167828
0.00166551
0.00170224
0.00169069
0.00172664
0.00171319
0.0017501
0.00173746
0.00175407
0.00174297
0.00176773
0.00176193
0.00172101
0.000958913
0.000960184
0.00173469
0.00172624
0.00174584
0.0017281
0.00173732
0.00174703
0.00174727
0.0017568
0.0017645
0.00177162
0.00177828
0.00177339
0.00172471
0.00172121
0.00175396
0.00175378
0.00172883
0.00171398
0.0017237
0.00167812
0.00169387
0.00165401
0.00166379
0.00163376
0.00164615
0.00160633
0.00162016
0.00157803
0.0015923
0.00154906
0.00156363
0.00151967
0.00153442
0.00148996
0.00150487
0.00145994
0.001475
0.00142965
0.00144485
0.00139914
0.00141444
0.00136843
0.00138383
0.00133757
0.00135303
0.00130656
0.0013221
0.00127545
0.00129104
0.00124426
0.00125988
0.001213
0.00122866
0.00118169
0.00119737
0.00115033
0.00116603
0.00111891
0.00113464
0.00108744
0.00110319
0.00105598
0.0010717
0.00102383
0.00104026
0.000989865
0.00100664
0.000956678
0.000973869
0.000945251
0.000940018
0.000942822
0.000950162
0.000947562
0.000953216
0.000952057
0.00095436
0.000953961
0.000954034
0.000954383
0.000952072
0.000953301
0.000948828
0.00095029
0.00094418
0.000946794
0.00097449
0.00094156
0.000958068
0.00100865
0.000990852
0.00104079
0.00102521
0.00107233
0.00105661
0.00110378
0.00108809
0.00113514
0.00111949
0.00116644
0.00115081
0.00119769
0.00118209
0.00122889
0.00121332
0.00126006
0.00124451
0.00129117
0.00127565
0.00132222
0.00130673
0.00135317
0.00133773
0.00138401
0.00136863
0.0014147
0.0013994
0.00144521
0.00143001
0.00147546
0.0014604
0.0015054
0.0014905
0.00153493
0.00152025
0.00156394
0.00154953
0.00159231
0.00157824
0.00161991
0.00160624
0.00164659
0.00163341
0.00167225
0.00165958
0.00169632
0.00168458
0.00171961
0.001708
0.0017419
0.00172995
0.00176528
0.00175459
0.00175652
0.00175658
0.00177922
0.00177036
0.00173302
0.00173758
0.00175971
0.00176581
0.00175573
0.0017442
0.00174879
0.000954409
0.000937288
0.000927501
0.000925249
0.00175818
0.00175867
0.00176739
0.00177389
0.00178078
0.00178459
0.00176387
0.00176281
0.00176655
0.00178752
0.00178548
0.00177874
0.0017363
0.00175051
0.00174901
0.00171416
0.0017269
0.0017028
0.00171326
0.00167266
0.00168622
0.00164902
0.00166029
0.00162603
0.00163826
0.00159937
0.00161292
0.00157148
0.00158557
0.00154282
0.00155725
0.00151365
0.00152831
0.0014841
0.00149894
0.00145423
0.00146922
0.00142408
0.0014392
0.0013937
0.00140893
0.00136312
0.00137845
0.00133239
0.00134779
0.00130153
0.00131699
0.00127056
0.00128607
0.0012395
0.00125506
0.00120838
0.00122397
0.00117721
0.00119282
0.00114599
0.00116162
0.00111471
0.00113037
0.00108338
0.00109907
0.00105199
0.00106771
0.00102068
0.00103635
0.000987183
0.00100417
0.000970931
0.00092997
0.00092424
0.000927474
0.000934488
0.000932203
0.000937162
0.000936047
0.000938351
0.000937938
0.000938046
0.000938384
0.000936335
0.000937361
0.00093272
0.000934758
0.00093034
0.000972044
0.000938933
0.000955458
0.00100591
0.000988807
0.00103706
0.0010215
0.00106842
0.00105276
0.0010997
0.00108409
0.00113091
0.00111534
0.00116206
0.00114651
0.00119316
0.00117764
0.00122422
0.00120872
0.00125524
0.00123976
0.00128621
0.00127076
0.00131712
0.0013017
0.00134794
0.00133257
0.00137864
0.00136333
0.00140921
0.00139397
0.00143958
0.00142445
0.0014697
0.0014547
0.0014995
0.00148468
0.0015289
0.00151429
0.00155778
0.00154344
0.00158603
0.00157202
0.00161352
0.00159991
0.0016401
0.00162697
0.00166565
0.00165304
0.00168986
0.00167798
0.00171287
0.00170156
0.00173485
0.00172389
0.00175469
0.00174563
0.00177776
0.00176162
0.00176908
0.00178922
0.00179841
0.0017965
0.00179147
0.00177703
0.00176242
0.00176329
0.00174638
0.00174917
0.000921342
0.000922694
0.00177739
0.00175747
0.00176003
0.00176629
0.00176947
0.00177735
0.00178414
0.00178735
0.00178958
0.00177372
0.00176606
0.00176972
0.00178198
0.00179245
0.00180052
0.00177883
0.00178554
0.0017891
0.00179893
0.00180372
0.00174844
0.0017593
0.00175616
0.00173697
0.00174188
0.00170983
0.00172347
0.00169219
0.00170222
0.00166649
0.00167936
0.00164246
0.00165427
0.00161836
0.00163074
0.00159203
0.00160541
0.00156446
0.00157839
0.00153607
0.00155037
0.00150711
0.00152167
0.00147774
0.0014925
0.00144803
0.00146295
0.00141804
0.00143309
0.0013878
0.00140297
0.00135738
0.00137263
0.00132679
0.00134212
0.00129608
0.00131147
0.00126526
0.0012807
0.00123435
0.00124983
0.00120339
0.0012189
0.00117237
0.0011879
0.0011413
0.00115686
0.00111018
0.00112576
0.00107901
0.00109462
0.00104777
0.00106341
0.0010165
0.00103214
0.000984425
0.00100085
0.000951888
0.000967839
0.000918555
0.00093457
0.000908141
0.000902718
0.000905253
0.000914266
0.000911093
0.000918558
0.000916771
0.000921134
0.000920007
0.00092232
0.000921911
0.000922025
0.000922358
0.000920296
0.000921333
0.000916539
0.000918745
0.000911751
0.000914149
0.00090661
0.000909269
0.000935929
0.000903154
0.000920669
0.000969854
0.000952427
0.0010019
0.000986285
0.00103303
0.00101746
0.00106422
0.00104866
0.00109532
0.0010798
0.00112636
0.00111087
0.00115734
0.00114188
0.00118828
0.00117284
0.00121919
0.00120377
0.00125005
0.00123465
0.00128087
0.00126549
0.00131162
0.00129628
0.00134229
0.001327
0.00137286
0.00135762
0.00140327
0.00138811
0.0014335
0.00141844
0.00146348
0.00144855
0.00149313
0.00147838
0.00152238
0.00150785
0.00155112
0.00153686
0.00157924
0.0015653
0.00160661
0.00159306
0.00163308
0.00162
0.00165853
0.00164597
0.00168273
0.00167083
0.00170572
0.00169442
0.00172743
0.00171678
0.00174674
0.00173759
0.00176512
0.001756
0.00176739
0.00177566
0.00178312
0.00180409
0.00179811
0.00175909
0.00176055
0.00177437
0.00176772
0.00177084
0.000915469
0.000900046
0.000890637
0.000887267
0.00177783
0.00177972
0.00178711
0.00179257
0.00179659
0.00180106
0.00177944
0.00177248
0.00178881
0.00178996
0.00179511
0.00178723
0.00179436
0.00180803
0.00180515
0.00180124
0.00180915
0.00176021
0.00176196
0.00175073
0.00174589
0.00175501
0.00172449
0.0017349
0.00170377
0.00171459
0.00168336
0.00169394
0.00165921
0.00167151
0.00163504
0.00164707
0.00161048
0.00162298
0.00158431
0.00159759
0.00155699
0.00157079
0.00152885
0.00154303
0.00150011
0.00151456
0.00147093
0.00148559
0.00144139
0.00145622
0.00141156
0.00142653
0.00138149
0.00139657
0.00135122
0.0013664
0.0013208
0.00133605
0.00129024
0.00130555
0.00125959
0.00127495
0.00122885
0.00124425
0.00119805
0.00121347
0.00116719
0.00118264
0.00113629
0.00115176
0.00110534
0.00112084
0.00107434
0.00108986
0.00104328
0.00105883
0.00101213
0.00102773
0.000981031
0.000996607
0.000948661
0.00096461
0.000931578
0.000892391
0.000886601
0.000889941
0.000898662
0.000895595
0.000902543
0.000900813
0.000905106
0.000903991
0.000906268
0.000905867
0.000905998
0.000906313
0.000904337
0.000905331
0.000901406
0.000903056
0.00089614
0.000898989
0.000893114
0.000932978
0.000900154
0.000917907
0.000966868
0.000949724
0.000997736
0.000982311
0.00102876
0.00101327
0.00105974
0.00104428
0.00109065
0.00107522
0.00112151
0.00110611
0.00115232
0.00113694
0.00118309
0.00116774
0.00121383
0.00119849
0.00124453
0.00122921
0.00127518
0.00125988
0.00130577
0.00129051
0.00133628
0.00132106
0.00136668
0.00135153
0.00139694
0.00138186
0.00142701
0.00141203
0.00145683
0.00144199
0.00148633
0.00147166
0.00151543
0.00150097
0.00154402
0.00152982
0.00157199
0.00155812
0.00159922
0.00158574
0.00162558
0.00161255
0.00165092
0.00163842
0.00167507
0.00166318
0.00169796
0.00168671
0.00171946
0.00170893
0.00173888
0.00172953
0.00175605
0.00174797
0.00177023
0.00176274
0.00178963
0.00178141
0.00180561
0.00179931
0.0017872
0.00178454
0.00178266
0.00176983
0.00177139
0.000883276
0.00088439
0.0017924
0.00177813
0.00178115
0.00178827
0.00178943
0.00179609
0.00180114
0.00180497
0.00180686
0.00179266
0.00178183
0.00178132
0.00178989
0.00178951
0.00180384
0.00179187
0.00180474
0.00179564
0.0018034
0.001794
0.0018132
0.00181404
0.00181199
0.00180847
0.00177109
0.00177021
0.0017805
0.00175039
0.0017461
0.00173359
0.00174605
0.00171594
0.00172501
0.00169575
0.00170613
0.00167464
0.00168546
0.00165117
0.00166312
0.00162706
0.00163916
0.00160228
0.00161484
0.00157623
0.00158943
0.00154912
0.00156281
0.00152121
0.00153527
0.00149269
0.00150704
0.0014637
0.00147827
0.00143435
0.00144909
0.00140469
0.00141957
0.00137479
0.00138979
0.0013447
0.00135979
0.00131445
0.00132961
0.00128406
0.00129929
0.00125358
0.00126885
0.00122302
0.00123833
0.00119239
0.00120773
0.00116172
0.00117708
0.00113099
0.00114638
0.00110022
0.00111563
0.0010694
0.00108483
0.00103853
0.00105399
0.00100758
0.00102308
0.000976578
0.000992096
0.000945702
0.000961028
0.000912091
0.000928604
0.000880436
0.000896466
0.000870606
0.000863357
0.000867294
0.000877466
0.000873825
0.000882873
0.000880616
0.000886561
0.000884842
0.000889063
0.00088798
0.0008902
0.000889805
0.000889952
0.000890249
0.000888353
0.000889315
0.000885563
0.000887099
0.000881474
0.000883719
0.00087469
0.000878198
0.000868491
0.000871592
0.00089733
0.000865523
0.000881939
0.000929844
0.000914303
0.000962813
0.000946657
0.000993417
0.000978061
0.00102424
0.00100885
0.00105501
0.00103965
0.00108573
0.0010704
0.0011164
0.00110109
0.00114703
0.00113174
0.00117762
0.00116235
0.00120817
0.00119292
0.00123869
0.00122346
0.00126917
0.00125396
0.00129959
0.00128441
0.00132993
0.0013148
0.00136016
0.00134509
0.00139025
0.00137526
0.00142015
0.00140526
0.0014498
0.00143504
0.00147914
0.00146455
0.00150807
0.00149369
0.0015365
0.00152239
0.00156432
0.00155053
0.00159141
0.001578
0.00161764
0.00160468
0.00164286
0.00163042
0.00166693
0.00165508
0.00168971
0.00167852
0.00171103
0.0017006
0.00173046
0.00172105
0.00174773
0.00173946
0.00176294
0.00175535
0.00177693
0.00177117
0.00177721
0.00179484
0.00179675
0.00180796
0.00180243
0.00178021
0.00178176
0.00179908
0.00178814
0.00179094
0.000877141
0.000860442
0.000852925
0.000850158
0.00179818
0.00179854
0.00180458
0.00180914
0.00181214
0.00181356
0.00178093
0.00177357
0.00177349
0.00178387
0.00179338
0.00180338
0.00181087
0.00180204
0.00180675
0.00181916
0.00181777
0.00181282
0.00181095
0.00179362
0.00179858
0.0017815
0.0017741
0.00176835
0.00175633
0.00177049
0.00173895
0.00174544
0.00172481
0.00173335
0.00170702
0.00171614
0.00168697
0.00169724
0.00166568
0.00167655
0.0016426
0.00165434
0.00161859
0.0016307
0.00159375
0.00160633
0.00156781
0.00158094
0.00154089
0.00155448
0.00151319
0.00152715
0.00148488
0.00149913
0.0014561
0.00147056
0.00142693
0.00144158
0.00139746
0.00141225
0.00136775
0.00138265
0.00133784
0.00135284
0.00130776
0.00132284
0.00127757
0.0012927
0.00124727
0.00126245
0.00121689
0.00123211
0.00118645
0.0012017
0.00115596
0.00117123
0.00112543
0.00114072
0.00109485
0.00111016
0.00106423
0.00107956
0.00103355
0.00104891
0.00100282
0.00101821
0.000972034
0.000987447
0.000941537
0.000956708
0.000908863
0.000925431
0.000892342
0.00085562
0.000847781
0.000852319
0.000862469
0.000859052
0.00086697
0.000864862
0.000870586
0.00086891
0.000873006
0.000871958
0.000874115
0.000873728
0.000873883
0.000874167
0.000872328
0.000873268
0.00086952
0.000871074
0.000865576
0.000867706
0.000859375
0.000862779
0.000855998
0.000894645
0.000862253
0.000879353
0.000926798
0.000910587
0.000958274
0.000942947
0.000988871
0.000973567
0.00101948
0.00100421
0.00105005
0.00103479
0.00108057
0.00106534
0.00111104
0.00109584
0.00114148
0.00112629
0.00117188
0.00115671
0.00120225
0.00118709
0.00123258
0.00121745
0.00126287
0.00124776
0.00129311
0.00127803
0.00132327
0.00130823
0.00135332
0.00133834
0.00138323
0.00136833
0.00141295
0.00139815
0.00144243
0.00142776
0.00147159
0.00145709
0.00150035
0.00148606
0.00152861
0.00151458
0.00155628
0.00154256
0.00158322
0.00156988
0.00160931
0.00159642
0.00163441
0.00162203
0.00165838
0.00164658
0.00168105
0.00166992
0.00170224
0.00169188
0.00172163
0.00171222
0.00173896
0.00173061
0.00175439
0.00174682
0.00176714
0.00176151
0.00177696
0.0017718
0.00179063
0.00177927
0.00179739
0.0017895
0.0017834
0.0018035
0.00180497
0.00179013
0.00179161
0.000844596
0.000846503
0.00180358
0.00179773
0.00180014
0.00180708
0.00180711
0.00181255
0.00181638
0.0018187
0.00181948
0.00177723
0.00176795
0.0017627
0.00178147
0.00177578
0.00178636
0.0017761
0.00178875
0.00179331
0.00180554
0.00180976
0.00181558
0.00181198
0.0018234
0.00182009
0.00181426
0.00180882
0.00180033
0.00179427
0.00179141
0.0017739
0.00177439
0.00176251
0.00175194
0.00174382
0.00175952
0.00173039
0.00173656
0.00171553
0.00172359
0.0016976
0.00170681
0.00167775
0.00168791
0.00165646
0.00166731
0.00163362
0.00164523
0.00160972
0.00162181
0.00158491
0.00159746
0.00155908
0.00157214
0.00153233
0.00154583
0.00150484
0.00151869
0.00147673
0.00149087
0.00144815
0.00146252
0.00141918
0.00143373
0.00138991
0.0014046
0.00136038
0.00137519
0.00133066
0.00134557
0.00130078
0.00131576
0.00127078
0.00128581
0.00124067
0.00125576
0.00121049
0.00122561
0.00118025
0.0011954
0.00114996
0.00116513
0.00111962
0.00113481
0.00108925
0.00110446
0.00105883
0.00107406
0.00102837
0.00104362
0.000997858
0.00101313
0.000967301
0.0009826
0.000936803
0.000952032
0.000905607
0.000921546
0.000873858
0.000888983
0.00084156
0.000857598
0.000832898
0.000825558
0.00082967
0.000840442
0.000836323
0.000846607
0.000843959
0.000851052
0.000848912
0.00085459
0.000852963
0.000856936
0.000855918
0.000858017
0.000857638
0.000857797
0.00085807
0.00085629
0.000857202
0.000853541
0.000855068
0.000849673
0.000851729
0.000844851
0.000847452
0.000837891
0.000841418
0.000831135
0.000834386
0.000859306
0.000828053
0.000843577
0.000891555
0.000875184
0.000923179
0.00090718
0.000953658
0.000938457
0.000984124
0.000968914
0.00101453
0.000999355
0.00104489
0.00102974
0.0010752
0.00106007
0.00110547
0.00109036
0.00113571
0.00112062
0.00116591
0.00115084
0.00119608
0.00118103
0.00122622
0.00121118
0.00125632
0.00124131
0.00128637
0.00127138
0.00131633
0.00130139
0.0013462
0.00133131
0.00137592
0.00136111
0.00140546
0.00139075
0.00143475
0.00142017
0.00146373
0.00144931
0.00149231
0.0014781
0.0015204
0.00150645
0.0015479
0.00153426
0.00157469
0.00156143
0.00160064
0.00158781
0.00162562
0.0016133
0.00164947
0.00163773
0.00167204
0.00166096
0.00169313
0.00168282
0.00171247
0.00170307
0.00172982
0.00172145
0.00174519
0.00173775
0.001758
0.00175211
0.00176768
0.00176324
0.00177543
0.00177179
0.00177361
0.0018112
0.0018123
0.00179016
0.00178436
0.00179955
0.00180089
0.00181137
0.00180658
0.00180877
0.000838368
0.000822102
0.00081558
0.000812076
0.00181512
0.0018151
0.00181982
0.00182297
0.00182455
0.00182471
0.00176805
0.00176232
0.00175063
0.00175624
0.00178298
0.00178598
0.00180006
0.00179798
0.00181166
0.00181606
0.00181853
0.00182638
0.00182173
0.00181584
0.00180526
0.00180131
0.00179249
0.00177639
0.00178241
0.00180076
0.00176278
0.00174639
0.00176304
0.00176847
0.00174877
0.00174602
0.00173469
0.00174565
0.00172122
0.00172769
0.00170582
0.00171397
0.00168793
0.00169713
0.00166821
0.0016783
0.00164697
0.00165779
0.0016243
0.00163582
0.00160051
0.00161255
0.00157576
0.00158828
0.00155005
0.00156304
0.00152348
0.00153689
0.00149617
0.00150993
0.00146827
0.00148231
0.00143989
0.00145416
0.00141113
0.00142557
0.00138205
0.00139665
0.00135273
0.00136744
0.00132321
0.00133801
0.00129353
0.00130841
0.00126373
0.00127866
0.00123382
0.0012488
0.00120385
0.00121886
0.00117381
0.00118886
0.00114373
0.00115879
0.0011136
0.00112869
0.00108344
0.00109854
0.00105324
0.00106836
0.00102299
0.00103813
0.000992705
0.00100787
0.000962379
0.000977561
0.00093203
0.000947214
0.000901724
0.000916903
0.000870039
0.000885568
0.000854227
0.000818232
0.000810103
0.000814775
0.0008252
0.000821577
0.00083067
0.000828124
0.000835137
0.000833015
0.000838575
0.000836997
0.000840855
0.000839865
0.000841907
0.000841538
0.000841699
0.000841962
0.000840243
0.000841125
0.000837586
0.000839062
0.000833808
0.000835827
0.000829092
0.00083159
0.000822469
0.00082601
0.000818879
0.000856224
0.000825218
0.000840466
0.000888231
0.000871962
0.000918577
0.000903335
0.000948934
0.00093378
0.000979202
0.000964098
0.0010094
0.000994327
0.00103954
0.0010245
0.00106964
0.00105462
0.0010997
0.0010847
0.00112973
0.00111474
0.00115973
0.00114476
0.0011897
0.00117474
0.00121963
0.0012047
0.00124953
0.00123462
0.00127938
0.00126449
0.00130915
0.0012943
0.00133882
0.00132403
0.00136834
0.00135363
0.00139769
0.00138307
0.00142679
0.0014123
0.00145558
0.00144126
0.00148398
0.00146986
0.00151189
0.00149803
0.00153923
0.00152567
0.00156586
0.00155267
0.00159167
0.00157891
0.00161652
0.00160426
0.00164026
0.00162858
0.00166273
0.0016517
0.00168374
0.00167347
0.00170305
0.00169366
0.00172043
0.00171203
0.00173576
0.00172838
0.00174861
0.00174261
0.00175863
0.00175398
0.0017655
0.00176269
0.0017686
0.00176712
0.00177487
0.00176605
0.00176845
0.00176364
0.00176838
0.00181809
0.00181813
0.00180832
0.00180957
0.000806786
0.000808805
0.00181845
0.00181467
0.00181678
0.00182246
0.0018224
0.0018264
0.00182879
0.00182964
0.00182885
0.00174156
0.00174541
0.00174431
0.00175987
0.00176457
0.00177256
0.00179258
0.0017935
0.00180619
0.00180856
0.00181604
0.00182026
0.00182829
0.00182269
0.00181516
0.00180789
0.00179804
0.00178614
0.00177398
0.00175687
0.00176788
0.00175709
0.00180948
0.00176034
0.00173629
0.00175022
0.00174662
0.00174955
0.00175304
0.00173662
0.00174192
0.00172577
0.00173261
0.00171169
0.00171875
0.00169595
0.00170415
0.00167807
0.00168726
0.00165842
0.00166847
0.00163724
0.00164803
0.00161469
0.00162614
0.00159101
0.001603
0.00156635
0.00157882
0.00154077
0.00155369
0.00151436
0.00152768
0.00148724
0.0015009
0.00145954
0.00147347
0.00143136
0.00144552
0.0014028
0.00141714
0.00137393
0.00138842
0.00134481
0.00135942
0.0013155
0.0013302
0.00128602
0.0013008
0.00125643
0.00127126
0.00122674
0.00124162
0.00119698
0.00121189
0.00116716
0.00118209
0.00113729
0.00115224
0.00110738
0.00112236
0.00107744
0.00109243
0.00104746
0.00106247
0.00101744
0.00103247
0.000987381
0.00100243
0.000957289
0.000972353
0.000927165
0.000942243
0.000897121
0.000912129
0.000866062
0.000881496
0.000835163
0.000850711
0.000803768
0.000819039
0.000795304
0.000787763
0.000792012