/*--------------------------------*- C++ -*----------------------------------*\
  =========                 |
  \\      /  F ield         | OpenFOAM: The Open Source CFD Toolbox
   \\    /   O peration     | Website:  https://openfoam.org
    \\  /    A nd           | Version:  10
     \\/     M anipulation  |
\*---------------------------------------------------------------------------*/
FoamFile
{
    format      ascii;
    class       volVectorField;
    location    "82";
    object      U;
}
// * * * * * * * * * * * * * * * * * * * * * * * * * * * * * * * * * * * * * //

dimensions      [0 1 -1 0 0 0 0];

internalField   nonuniform List<vector> 
28942
(
(0.00442968 -0.00225684 -3.41406e-22)
(0.0059957 -0.0023401 -6.34122e-23)
(0.0179346 -0.0123854 -8.25654e-22)
(0.103306 0.0182355 -5.25746e-21)
(0.102344 0.022278 1.72139e-21)
(0.0138719 0.000424336 0)
(0.0164853 8.62886e-06 1.03344e-23)
(0.0191245 0.000548332 -9.11653e-24)
(0.135237 -0.0184367 -2.5522e-22)
(0.133894 -0.0168026 7.26403e-22)
(0.00979497 0.0040153 -6.70905e-22)
(0.016068 0.00562914 2.54211e-22)
(0.00713745 0.00315304 0)
(0.00470753 0.00207015 0)
(0.0434749 0.00194373 -1.44429e-23)
(0.0417091 0.00249592 -5.81929e-24)
(0.0893157 0.0158882 6.67616e-22)
(0.0870036 0.0138567 1.07445e-21)
(0.0121636 -0.0151112 2.91628e-21)
(0.0293284 -0.0304647 -7.67523e-22)
(0.0981177 0.0373985 9.51976e-22)
(0.0972963 0.0344344 0)
(0.0187384 0.00462672 1.16319e-21)
(0.00786329 0.00236342 5.48359e-22)
(0.0377952 0.0072107 9.40176e-22)
(0.0575272 0.00291207 -8.57098e-22)
(0.00764732 -0.018489 8.50591e-21)
(0.00669335 -0.0165536 -3.13284e-21)
(0.0355067 -0.0253206 5.72312e-22)
(0.0192987 -0.0136808 1.97543e-22)
(0.0142403 -0.00130588 0)
(0.0178032 -0.00112678 -1.30714e-23)
(0.0226361 0.00411538 2.73527e-22)
(0.0326499 0.0018512 -4.20061e-23)
(0.0188252 0.0180095 1.31336e-21)
(0.0157198 0.0191196 -1.30411e-21)
(0.0321691 0.0376175 -3.05163e-21)
(0.0186689 0.030536 -1.06823e-21)
(0.00759787 -1.34787e-05 -8.62429e-24)
(0.00864877 0.0161972 -2.61372e-21)
(0.0306493 -0.00620318 0)
(0.0513426 -0.0109694 0)
(0.111832 -0.0117461 -2.70338e-23)
(0.111327 -0.0117452 7.9713e-23)
(0.115883 -0.0116424 6.94635e-23)
(0.0269857 0.000177457 1.10014e-23)
(0.0251253 -0.000591153 -1.76777e-23)
(0.0359376 -0.000479632 -8.08467e-23)
(0.0344329 -0.00054952 2.30523e-23)
(0.0279661 -0.00262315 -2.01088e-22)
(0.0207823 -0.00313857 1.30734e-22)
(0.128654 0.00130516 -4.00246e-22)
(0.127969 0.000833152 -3.73949e-22)
(0.134555 -0.0212036 -3.77066e-24)
(0.133008 -0.0194775 1.38695e-22)
(0.082483 0.00635372 7.1349e-22)
(0.101736 -0.000765599 2.48136e-22)
(0.00305843 0.00162074 -5.63363e-22)
(0.00894234 0.00367934 0)
(0.00825683 0.00328879 2.36578e-22)
(0.00288248 0.00148801 4.86123e-22)
(0.000362217 0.000226251 -4.04192e-22)
(0.000192886 0.000122684 -3.88325e-22)
(0.109763 -0.0426062 0)
(0.104894 -0.0256115 1.25942e-22)
(0.121765 -0.0331159 -4.31962e-23)
(0.123412 -0.0437695 0)
(0.0901055 -0.0328032 -6.38404e-22)
(0.0936093 -0.0352702 -4.19575e-22)
(0.00188529 -0.00112972 1.12875e-21)
(0.00248905 -0.0020176 -3.55671e-22)
(0.0048734 -0.00315622 8.8244e-22)
(0.0848748 -0.0457598 0)
(0.0912009 -0.0396237 2.16697e-21)
(0.0805435 -0.0530253 5.85467e-22)
(0.114131 0.0124035 2.36905e-22)
(0.112729 0.00690063 -2.62723e-22)
(0.125098 0.0110054 -1.12238e-22)
(0.00468337 -0.00286184 -5.3505e-23)
(0.00633848 -0.00442585 4.47778e-22)
(0.0510077 -0.0311465 1.26013e-22)
(0.033154 -0.0205365 -2.57275e-22)
(0.00211114 -0.000596119 3.20144e-21)
(0.00515725 -0.00207269 -1.24752e-21)
(0.100984 0.0482489 1.33938e-23)
(0.0970316 0.0552164 -7.64398e-22)
(0.0807226 0.0540131 6.97504e-22)
(0.0472055 0.0345109 -2.67989e-21)
(0.0444338 0.0316069 1.89788e-21)
(0.0294923 0.0205958 -1.13423e-22)
(0.0327129 0.0232486 -6.40965e-22)
(0.037954 0.0283584 8.68937e-22)
(0.00440842 0.00272785 -5.88326e-23)
(0.00776125 0.00397964 -1.69694e-23)
(0.00318863 0.00202171 3.40048e-23)
(0.00192328 0.0016457 -4.54724e-22)
(0.00145003 0.0015696 5.57627e-22)
(0.0157424 0.0115438 -3.25218e-21)
(0.0174952 0.0136356 7.44845e-22)
(0.00880481 -0.00384709 0)
(0.101389 0.00515942 0)
(0.0984003 0.0156833 -3.9571e-21)
(0.0604413 0.0104756 1.94017e-21)
(0.088681 0.0178812 0)
(0.135456 -0.00109766 0)
(0.134894 -0.00181187 0)
(0.133202 -0.002306 -2.50604e-22)
(0.114974 0.0266095 -2.11861e-22)
(0.114066 0.0280123 2.09469e-21)
(0.113268 0.0254721 1.12404e-21)
(0.002294 0.00129941 1.05044e-21)
(0.00151146 0.000777424 -1.17902e-21)
(0.0190489 -0.00553538 -5.48986e-22)
(0.0201291 -0.00506416 4.68666e-22)
(0.00909981 -0.0029278 9.26399e-22)
(0.00647662 0.01115 1.4782e-21)
(0.0189678 0.0181614 3.45546e-21)
(0.013465 0.0228008 2.72184e-22)
(0.00492084 0.0143068 -8.61877e-21)
(0.116988 0.0477524 5.54237e-23)
(0.107864 0.0582416 1.06771e-21)
(0.118324 0.0548795 -1.84137e-21)
(0.0390857 -0.0294139 7.30554e-22)
(0.0240059 -0.0172626 -4.66977e-22)
(0.0053209 -0.000741023 -4.10099e-21)
(0.00453797 -0.00359103 0)
(0.0124956 -0.00167082 2.00175e-21)
(0.0219612 -0.0161282 7.7765e-22)
(0.0342504 -0.0277805 -1.95332e-21)
(0.033978 -2.40727e-05 5.57912e-23)
(0.0361344 0.000134242 -4.09579e-23)
(0.0319 0.000153136 -1.72541e-24)
(0.0280514 -0.0419425 0)
(0.0296009 -0.0428338 0)
(0.0896233 -0.0186529 -4.62567e-22)
(0.0995911 -0.0220906 3.14295e-21)
(0.0870345 -0.0252785 0)
(0.0471109 -0.0401827 0)
(0.0581705 -0.0513776 -7.82232e-22)
(0.0413113 0.0393378 2.08398e-21)
(-2.3285e-06 0.000214458 5.123e-22)
(-0.000194222 0.00013099 -3.37571e-22)
(0.0223235 -0.0192378 -7.9036e-22)
(0.120295 -0.0115145 3.91715e-22)
(0.119662 -0.0114603 -7.58017e-23)
(0.115427 -0.0057214 -6.63441e-23)
(0.108355 0.000981575 8.84129e-23)
(0.117619 -0.000318666 1.79906e-22)
(8.22368e-05 0.000259123 1.97767e-22)
(0.0437436 0.0344186 3.20179e-21)
(0.0618725 0.046308 -7.8745e-22)
(0.0593071 0.0393644 -3.01758e-24)
(0.0221679 -0.00081839 5.48527e-24)
(0.0218424 -0.000799223 2.86108e-23)
(0.0237059 -0.000574146 1.08765e-24)
(0.0264719 -0.000586792 -1.41032e-23)
(0.0454181 0.0380896 1.33769e-22)
(0.0189611 0.0160587 0)
(0.000138666 -2.81925e-05 3.68279e-22)
(0.000421745 -0.0002557 -4.08589e-22)
(0.00185964 -0.00100946 2.85092e-22)
(0.0365513 -0.00772001 -1.84103e-21)
(0.0648611 -0.00210109 -7.50906e-22)
(0.0307969 -0.00020089 -2.16128e-24)
(0.0744707 -0.00764359 2.70987e-22)
(0.0706824 -0.0157269 6.10843e-23)
(0.0943043 0.0399209 2.14219e-21)
(0.091405 0.0454564 9.92837e-23)
(0.0887487 0.0290881 1.21503e-21)
(0.091474 0.0308049 -8.80516e-22)
(0.0986963 0.041082 0)
(0.126115 -0.000326498 1.49071e-22)
(0.126886 -0.000759873 2.81533e-22)
(0.128094 -0.0123439 -2.94805e-22)
(0.129557 -0.012149 5.04576e-22)
(0.117054 0.0241534 2.59785e-22)
(0.119112 0.0250544 -7.35653e-22)
(0.117101 0.0261658 0)
(0.115135 0.0249032 1.53158e-22)
(0.116672 0.0280881 0)
(0.117174 0.0361093 -5.50849e-22)
(0.115711 0.0381609 -3.00754e-22)
(0.111337 0.0419732 -5.40309e-22)
(0.113732 0.0401056 0)
(0.11642 0.043081 1.78717e-21)
(0.113698 0.0450034 4.73873e-23)
(0.108331 0.0441839 -3.0353e-22)
(0.0996289 0.0502862 -1.28643e-21)
(0.0984194 0.0454978 -2.26642e-22)
(0.0249555 -0.00847667 5.93928e-23)
(0.0328112 -0.009334 -2.3688e-23)
(0.00628332 -0.00248726 -6.92218e-22)
(0.0301942 -8.56726e-05 -3.53737e-23)
(0.0387234 -0.00026896 0)
(-3.01878e-06 -3.99897e-05 4.33156e-22)
(1.31632e-05 -4.72695e-05 2.20596e-22)
(0.0350334 -0.00179008 1.68586e-23)
(0.0414285 -0.00173914 6.9467e-24)
(0.0409813 -0.00119598 0)
(0.0338786 -0.000823908 7.41931e-24)
(0.0857619 0.003463 -1.0871e-22)
(0.0849952 0.00313712 5.13568e-22)
(0.0858607 0.00322325 2.37627e-22)
(0.000670646 0.000271936 3.92528e-22)
(-0.000159428 -0.000129271 -5.68672e-22)
(-0.000201079 -0.000169 4.84755e-22)
(0.00150007 0.000617357 0)
(7.99062e-05 8.77763e-05 1.13821e-21)
(0.000171907 -3.89951e-05 -8.20669e-22)
(0.0074473 0.00367304 -9.90845e-22)
(0.00145146 0.000781216 -1.18338e-21)
(0.00172036 0.000860531 0)
(0.00157199 0.00754403 0)
(0.000576948 0.00328125 0)
(0.000313307 0.00197688 0)
(0.136629 -0.00110976 5.59454e-23)
(0.137641 -0.000944677 0)
(0.136002 -0.00189457 -6.52323e-23)
(0.0881105 -0.0148529 4.42381e-21)
(0.0901173 -0.0152623 -1.60584e-21)
(0.0890327 -0.0128776 0)
(0.0968107 0.000321063 -6.41138e-24)
(0.0974081 0.000309876 1.28315e-23)
(0.0962117 0.000331913 -4.33499e-24)
(0.0980008 0.000300749 0)
(0.0985924 0.000300014 -8.18892e-24)
(0.0991777 0.000293855 0)
(0.099176 -0.00032816 0)
(0.0997554 0.000276204 3.04184e-23)
(0.0997465 -0.000350425 0)
(0.0985974 -0.000318034 -8.24633e-24)
(0.0980057 -0.000313216 0)
(0.0974119 -0.000307584 4.28923e-24)
(0.0968115 -0.000305913 -6.40757e-24)
(0.0962144 -0.000303105 4.32958e-24)
(0.10032 0.000256891 -2.91079e-23)
(0.100315 -0.000366288 -1.01796e-24)
(0.0956041 0.000348103 -7.73083e-29)
(0.0956013 -0.000293819 -6.61378e-24)
(0.0949864 0.000362426 3.51665e-23)
(0.100877 0.000244524 2.72077e-26)
(0.100889 -0.000373652 -1.01927e-24)
(0.0949869 -0.000292569 1.30311e-23)
(0.101436 0.000231363 2.74111e-23)
(0.101993 0.0002209 -2.73886e-23)
(0.101453 -0.000381485 2.05192e-24)
(0.102011 -0.000387235 4.05752e-24)
(0.094387 0.000387541 -3.42152e-23)
(0.0943798 -0.000289855 -8.57655e-24)
(0.102545 0.00020905 0)
(0.102564 -0.00039377 -4.00209e-24)
(0.0937652 0.000402535 4.23053e-27)
(0.093759 -0.0002816 -4.24114e-27)
(0.103093 0.000199613 0)
(0.103113 -0.00039841 0)
(0.093138 0.000413901 0)
(0.0931315 -0.000276961 0)
(0.103636 0.000188547 0)
(0.103657 -0.000403965 1.92371e-24)
(0.0925056 0.000425212 -1.77329e-23)
(0.0924982 -0.000271389 -4.32818e-27)
(0.104176 0.000179851 1.00854e-25)
(0.104196 -0.00040753 -2.05454e-24)
(0.0918676 0.000434487 1.78177e-23)
(0.0918596 -0.000267567 0)
(0.104711 0.000169444 0)
(0.104731 -0.000411816 0)
(0.0912248 0.000444174 -1.12677e-24)
(0.091216 -0.000261688 1.93348e-23)
(0.105241 0.000161452 1.24744e-23)
(0.105261 -0.000413658 0)
(0.0905776 0.00045184 -9.72968e-26)
(0.0905673 -0.00025612 -1.82998e-23)
(0.105767 0.000151982 -1.86594e-23)
(0.105787 -0.000416 -5.41522e-24)
(0.0899115 0.00045279 1.86543e-23)
(0.089904 -0.000251072 0)
(0.106289 0.000145983 6.14643e-24)
(0.106311 -0.000412404 3.61164e-24)
(0.0892431 0.00046025 -9.438e-24)
(0.0892355 -0.000249108 1.91359e-23)
(0.106804 0.000142589 -2.4548e-23)
(0.106834 -0.000401363 2.76679e-23)
(0.0885439 0.000452629 9.72683e-24)
(0.0885452 -0.000252993 3.07771e-25)
(0.107322 0.000142004 0)
(0.10735 -0.000390639 1.31846e-23)
(0.0878373 0.00044517 -1.95596e-23)
(0.0878456 -0.000264323 3.91243e-23)
(0.107855 0.000132754 0)
(0.107866 -0.000385715 0)
(0.0888349 0.00115294 -9.62463e-24)
(0.0881231 0.00115285 -3.89414e-23)
(0.0871071 0.00043111 0)
(0.0871324 -0.000287534 -1.99266e-23)
(0.0902093 0.00114333 -6.04632e-24)
(0.0895254 0.00114916 1.18737e-24)
(0.0915168 0.00111747 0)
(0.0908611 0.00113007 -1.95351e-23)
(0.0927906 0.0010869 -3.77501e-26)
(0.092157 0.00110278 0)
(0.0940397 0.00105221 0)
(0.093418 0.00107 0)
(0.0952671 0.00100977 0)
(0.0946562 0.00103276 0)
(0.0964505 0.000965613 8.56136e-24)
(0.0958551 0.000986649 2.15746e-24)
(0.0976332 0.000932589 -8.25939e-24)
(0.0970484 0.000948855 -8.54761e-24)
(0.0987958 0.000904084 1.46757e-23)
(0.0982105 0.000912386 1.87401e-23)
(0.09996 0.000879552 0)
(0.0993797 0.000894852 0)
(0.101087 0.000851989 -6.45243e-26)
(0.100527 0.000865599 0)
(0.102194 0.000822188 0)
(0.101642 0.000837189 0)
(0.103283 0.00079207 0)
(0.10274 0.000806994 0)
(0.104355 0.000762739 0)
(0.103821 0.000777205 0)
(0.10541 0.000734486 0)
(0.104885 0.000748395 0)
(0.106446 0.00070711 0)
(0.10593 0.000720641 0)
(0.107471 0.00066407 -1.00298e-23)
(0.106958 0.000692555 0)
(0.107985 0.00064154 -3.23885e-24)
(0.108376 0.000119458 3.16291e-24)
(0.108385 -0.000384825 -3.13659e-24)
(0.106983 -0.000913187 0)
(0.108005 -0.000893835 -1.28695e-23)
(0.107495 -0.000902394 -6.63129e-24)
(0.105945 -0.000932376 1.81476e-24)
(0.106465 -0.00092447 -7.10082e-24)
(0.104897 -0.000940585 5.87462e-26)
(0.105423 -0.000938197 0)
(0.103832 -0.000941929 0)
(0.104367 -0.000941544 0)
(0.102748 -0.000941182 0)
(0.103292 -0.000941669 0)
(0.101645 -0.000939512 0)
(0.102199 -0.000940311 7.72552e-30)
(0.100523 -0.000938605 6.51412e-26)
(0.101086 -0.000938745 0)
(0.0993871 -0.000931151 0)
(0.099954 -0.000936374 0)
(0.098227 -0.000922287 0)
(0.0988074 -0.000925976 0)
(0.0970468 -0.0009199 0)
(0.0976379 -0.000918297 -4.33615e-24)
(0.0958467 -0.0009243 1.13954e-24)
(0.0964483 -0.000925137 -5.58953e-24)
(0.0946385 -0.000932014 0)
(0.0952494 -0.000926469 -4.54594e-24)
(0.0933983 -0.000934994 0)
(0.0940215 -0.000933586 0)
(0.0921334 -0.000938278 0)
(0.092769 -0.000936516 0)
(0.0908388 -0.000940737 0)
(0.0914909 -0.000939656 0)
(0.0895083 -0.000944373 -4.94491e-24)
(0.0901794 -0.000941043 0)
(0.0881461 -0.000968181 -2.00159e-23)
(0.0888314 -0.000950826 -4.96802e-24)
(0.0874429 -0.000990837 2.03712e-23)
(0.0873974 0.00115416 3.86073e-23)
(0.108499 0.000622921 6.34144e-24)
(0.108515 -0.000884909 -1.23868e-23)
(0.0863975 -0.000322065 0)
(0.0867316 -0.00102848 0)
(0.0866589 0.00115501 0)
(0.086363 0.000409332 0)
(0.0894112 0.00183857 0)
(0.088013 0.00187254 9.66913e-24)
(0.0887172 0.00185365 9.76468e-24)
(0.0907652 0.00180256 1.2416e-23)
(0.0900945 0.00182172 -2.48156e-24)
(0.0920496 0.00175764 3.84063e-26)
(0.0914128 0.00178011 0)
(0.0933028 0.00171218 0)
(0.0926795 0.00173509 0)
(0.0945307 0.0016657 0)
(0.0939196 0.00168905 0)
(0.0957377 0.00162087 0)
(0.0951364 0.00164234 0)
(0.0969176 0.00157456 0)
(0.0963303 0.00159835 0)
(0.0980786 0.00153301 -3.46169e-26)
(0.0974967 0.00155458 8.92743e-24)
(0.0992116 0.00148965 -3.32317e-26)
(0.0986508 0.00151029 -1.74278e-23)
(0.100345 0.00144521 0)
(0.099779 0.00146641 0)
(0.101454 0.00140517 3.22173e-26)
(0.100902 0.00142486 0)
(0.102543 0.00136595 0)
(0.102001 0.00138552 0)
(0.103615 0.00132715 0)
(0.103081 0.00134646 0)
(0.104669 0.00128909 0)
(0.104144 0.00130799 0)
(0.105706 0.00125185 0)
(0.10519 0.00127036 0)
(0.106725 0.00121408 0)
(0.106218 0.00123329 0)
(0.107731 0.00116307 6.85032e-24)
(0.107228 0.00119105 0)
(0.108894 0.000111277 0)
(0.109007 0.000604962 6.19961e-24)
(0.108736 0.00111242 0)
(0.108233 0.00113724 6.67399e-24)
(0.108264 -0.00139299 1.32768e-23)
(0.108763 -0.00137871 3.26052e-24)
(0.109023 -0.000880018 2.54592e-23)
(0.108899 -0.000381021 0)
(0.107259 -0.00142237 0)
(0.107762 -0.00140769 -2.00455e-23)
(0.106241 -0.00144734 5.7083e-26)
(0.106752 -0.00143441 7.144e-24)
(0.10521 -0.00146286 -5.8746e-26)
(0.105728 -0.00145598 0)
(0.104162 -0.00147353 0)
(0.104688 -0.00146854 0)
(0.103095 -0.00148214 0)
(0.10363 -0.001478 0)
(0.10201 -0.00148991 0)
(0.102554 -0.00148605 -7.7255e-30)
(0.100906 -0.00149785 -1.30189e-25)
(0.10146 -0.00149383 0)
(0.099788 -0.00150426 0)
(0.100349 -0.00150141 0)
(0.098646 -0.00151065 2.18745e-24)
(0.0992201 -0.00150703 0)
(0.0974886 -0.00151723 0)
(0.0980681 -0.00151174 -2.17833e-24)
(0.0963102 -0.00153017 4.55583e-24)
(0.0968982 -0.00152363 4.52935e-24)
(0.0951107 -0.00154165 0)
(0.0957143 -0.00153599 0)
(0.0938877 -0.00155611 0)
(0.0945021 -0.0015486 0)
(0.0926401 -0.0015728 0)
(0.0932671 -0.00156414 0)
(0.0913644 -0.00159228 0)
(0.092006 -0.00158206 0)
(0.0900572 -0.00161658 7.90438e-26)
(0.0907151 -0.00160372 0)
(0.0887151 -0.00164876 -8.01047e-26)
(0.0893917 -0.00163181 0)
(0.0873406 -0.00171467 -2.09446e-23)
(0.0880311 -0.00167803 2.0935e-23)
(0.0872942 0.00189141 1.96673e-23)
(0.0860149 -0.00107792 0)
(0.0866426 -0.00176422 -4.25753e-23)
(0.0856611 -0.000363826 0)
(0.109233 0.00109421 0)
(0.109261 -0.00136391 -3.16238e-24)
(0.0859139 0.00115568 4.97898e-23)
(0.0865691 0.00191093 1.99149e-23)
(0.0852821 -0.00113029 1.07658e-23)
(0.0859343 -0.00182171 5.38034e-23)
(0.085606 0.000383095 0)
(0.109087 0.0015968 2.60758e-23)
(0.109569 0.00157051 -1.28776e-23)
(0.109522 -0.000871033 -6.26518e-24)
(0.109751 -0.00134597 3.11459e-23)
(0.0875578 0.00263828 6.98754e-23)
(0.0858238 0.00192967 -3.92301e-23)
(0.0861009 0.00269617 -1.75214e-22)
(0.086826 0.00266396 -3.9915e-23)
(0.0889389 0.00256941 1.9456e-23)
(0.0882547 0.00260518 -5.94556e-23)
(0.0902692 0.00250268 -1.99011e-23)
(0.089611 0.00253588 -1.5007e-23)
(0.0915718 0.00244229 -4.96467e-24)
(0.0909275 0.00247349 -4.96673e-24)
(0.092826 0.00238359 -3.84063e-26)
(0.0922053 0.00241326 0)
(0.0940474 0.0023243 0)
(0.09344 0.00235386 0)
(0.0952437 0.00226598 0)
(0.0946485 0.00229501 0)
(0.0964183 0.00220957 0)
(0.0958336 0.00223737 0)
(0.0975709 0.00215557 0)
(0.096997 0.00218199 0)
(0.0987022 0.00210195 0)
(0.0981385 0.00212844 0)
(0.0998141 0.0020502 6.54545e-29)
(0.0992614 0.00207683 0)
(0.100911 0.00199731 0)
(0.100364 0.00202325 0)
(0.101992 0.00194735 3.21289e-26)
(0.101454 0.00197206 0)
(0.103055 0.00189893 0)
(0.102525 0.00192301 0)
(0.1041 0.00185145 0)
(0.103579 0.00187509 0)
(0.105129 0.00180475 0)
(0.104616 0.00182801 0)
(0.10614 0.00175859 0)
(0.105637 0.00178164 0)
(0.107134 0.00171122 0)
(0.106639 0.00173535 0)
(0.108114 0.00165463 3.4862e-24)
(0.107626 0.00168397 -1.75474e-24)
(0.108602 0.00162597 -1.33041e-23)
(0.109398 0.000107741 -2.96954e-24)
(0.109726 0.00107507 1.24089e-23)
(0.109506 0.000593859 -9.49379e-24)
(0.109402 -0.000385107 0)
(0.10864 -0.00188068 -9.88002e-24)
(0.109605 -0.001836 -2.85035e-23)
(0.109124 -0.00185951 2.29541e-23)
(0.107664 -0.001923 0)
(0.108154 -0.00190133 0)
(0.106672 -0.00195089 -9.68682e-29)
(0.107169 -0.00193591 0)
(0.105665 -0.00197495 0)
(0.106171 -0.00196366 0)
(0.104642 -0.00199474 -6.0171e-26)
(0.105156 -0.0019852 0)
(0.1036 -0.00201243 0)
(0.104123 -0.00200377 0)
(0.10254 -0.00202909 0)
(0.103072 -0.00202084 0)
(0.101464 -0.00204545 6.5057e-26)
(0.102004 -0.00203729 0)
(0.10037 -0.00206139 6.65317e-26)
(0.100919 -0.00205347 0)
(0.099257 -0.00207833 0)
(0.0998157 -0.00206956 0)
(0.0981252 -0.00209659 0)
(0.0986939 -0.00208744 0)
(0.0969735 -0.00211772 0)
(0.097551 -0.00210646 0)
(0.0958006 -0.00213986 0)
(0.09639 -0.00212835 0)
(0.094605 -0.00216601 -7.43605e-26)
(0.0952057 -0.0021525 0)
(0.0933851 -0.00219582 0)
(0.0939983 -0.00218043 0)
(0.0921379 -0.00223012 0)
(0.0927651 -0.00221232 0)
(0.0908607 -0.00227053 -1.39622e-28)
(0.0915032 -0.00224947 0)
(0.0895514 -0.00231875 1.55708e-28)
(0.0902104 -0.00229367 0)
(0.0882123 -0.00238461 8.27099e-26)
(0.0888826 -0.00234696 0)
(0.086849 -0.00248636 -4.34888e-23)
(0.0875328 -0.0024301 1.06928e-23)
(0.0852149 -0.00187966 1.09424e-23)
(0.0861683 -0.00255053 2.17417e-23)
(0.0851578 0.00114963 -1.94988e-23)
(0.0849074 -0.000409345 -2.08567e-23)
(0.110048 0.00154469 3.15109e-24)
(0.110085 -0.00181712 2.23994e-23)
(0.0850424 0.00192805 2.45636e-24)
(0.0845394 -0.00119002 0)
(0.0851306 0.00260642 2.68588e-22)
(0.0854815 -0.00261757 3.3414e-23)
(0.0845009 -0.00194271 4.46015e-23)
(0.0867951 0.00359024 -4.42043e-22)
(0.0865387 0.00373463 8.10953e-23)
(0.0848549 0.000358997 0)
(0.087577 0.00342877 4.48668e-23)
(0.0870784 0.00353231 2.28974e-23)
(0.0888287 0.00332284 4.05036e-23)
(0.0881649 0.00336538 -6.1752e-23)
(0.0901378 0.0032303 -2.01445e-23)
(0.0894941 0.00327844 -1.00526e-23)
(0.0913975 0.00314496 1.00984e-23)
(0.0907717 0.00318638 1.02271e-23)
(0.092632 0.00306468 0)
(0.0920156 0.00310323 -1.8232e-26)
(0.0938349 0.00299013 0)
(0.093237 0.00302732 0)
(0.0950129 0.00291775 3.75161e-26)
(0.0944269 0.00295359 0)
(0.096168 0.00284803 0)
(0.0955932 0.00288259 0)
(0.0973023 0.00278094 0)
(0.0967377 0.00281413 0)
(0.0984163 0.00271646 0)
(0.0978617 0.00274836 0)
(0.0995108 0.00265361 3.44263e-26)
(0.0989657 0.00268473 0)
(0.100587 0.00259245 7.18297e-29)
(0.100051 0.00262318 0)
(0.101648 0.002532 0)
(0.101119 0.00256191 0)
(0.102692 0.00247358 -6.41914e-26)
(0.102172 0.00250258 0)
(0.10372 0.00241666 0)
(0.103208 0.00244497 0)
(0.104732 0.00236082 0)
(0.104228 0.00238864 0)
(0.105728 0.00230572 0)
(0.105232 0.0023332 0)
(0.106706 0.00225092 0)
(0.106219 0.00227834 0)
(0.107669 0.00219473 0)
(0.107189 0.00222324 0)
(0.108617 0.00213498 -1.74097e-24)
(0.108144 0.00216417 0)
(0.109551 0.00206917 0)
(0.109085 0.00210228 -3.37192e-24)
(0.110473 0.00200058 -3.69533e-27)
(0.110016 0.00203571 0)
(0.110209 0.00105692 -1.25812e-23)
(0.110937 0.00197291 7.57073e-25)
(0.110526 0.0015231 6.15578e-24)
(0.109888 0.000100352 4.52982e-24)
(0.109996 0.000581274 -3.12651e-24)
(0.110012 -0.000861381 -1.57502e-24)
(0.109895 -0.000383163 1.57104e-24)
(0.110559 -0.00179827 0)
(0.110235 -0.0013349 -1.42737e-23)
(0.110061 -0.0023025 -6.40436e-24)
(0.110981 -0.00225312 -1.22602e-23)
(0.110523 -0.00227747 2.81573e-23)
(0.109133 -0.00235666 -3.36112e-24)
(0.109598 -0.00233011 0)
(0.108189 -0.00240334 0)
(0.108662 -0.00237996 0)
(0.107231 -0.00244057 -1.20213e-28)
(0.107712 -0.00242282 0)
(0.106256 -0.00247293 0)
(0.106745 -0.00245733 0)
(0.105265 -0.00250157 6.0171e-26)
(0.105763 -0.00248761 0)
(0.104256 -0.00252807 0)
(0.104762 -0.00251503 0)
(0.10323 -0.00255343 0)
(0.103745 -0.00254086 0)
(0.102187 -0.00257835 0)
(0.102711 -0.00256592 0)
(0.101127 -0.0026034 -1.43504e-28)
(0.101659 -0.00259083 0)
(0.100048 -0.00262972 0)
(0.10059 -0.00261632 0)
(0.0989515 -0.00265776 0)
(0.0995024 -0.00264355 0)
(0.0978353 -0.0026886 0)
(0.0983956 -0.00267273 0)
(0.0966986 -0.00272204 0)
(0.0972696 -0.00270487 0)
(0.0955399 -0.00275976 7.43605e-26)
(0.096122 -0.00274035 0)
(0.0943576 -0.00280227 0)
(0.0949518 -0.00278039 0)
(0.0931495 -0.00285057 0)
(0.0937569 -0.00282562 0)
(0.0919135 -0.00290621 -7.88967e-26)
(0.0925351 -0.00287738 0)
(0.090648 -0.00297043 8.03509e-26)
(0.0912846 -0.00293725 0)
(0.0893517 -0.00304527 -8.17754e-26)
(0.0900034 -0.00300626 0)
(0.0880347 -0.00313908 1.07437e-23)
(0.0886912 -0.00308727 -2.1195e-23)
(0.0867222 -0.00326765 -1.08171e-23)
(0.0873753 -0.00319801 2.19951e-23)
(0.0847825 -0.0026818 3.052e-25)
(0.0860555 -0.00333797 2.21935e-23)
(0.0843837 0.00112524 -1.99816e-23)
(0.0841511 -0.000445016 0)
(0.0842447 0.0018766 -1.9319e-22)
(0.0837893 -0.00123413 0)
(0.111006 0.0024493 -3.14053e-24)
(0.111441 0.00240939 2.30024e-24)
(0.111025 -0.00177918 -1.20539e-23)
(0.111432 -0.00222136 -1.36361e-23)
(0.0841779 0.00254727 -1.87902e-22)
(0.0837774 -0.00200194 -4.50378e-23)
(0.0856396 0.00371829 0)
(0.088225 0.00425941 -5.12023e-23)
(0.0840835 -0.00274713 -2.21069e-23)
(0.0853801 -0.00340658 3.35733e-23)
(0.0876471 0.00425118 1.02811e-22)
(0.0840913 0.000332385 0)
(0.0891483 0.00408603 0)
(0.0886546 0.00417614 -4.56238e-23)
(0.0903336 0.00395855 0)
(0.0897234 0.00401913 0)
(0.0915553 0.00384953 0)
(0.0909469 0.00390138 1.04146e-23)
(0.0927416 0.00375112 0)
(0.0921507 0.00379981 0)
(0.0939104 0.00365827 0)
(0.0933281 0.00370334 0)
(0.0950576 0.0035714 0)
(0.0944867 0.00361451 0)
(0.0961835 0.00348783 -3.75161e-26)
(0.0956231 0.00352917 0)
(0.0972891 0.00340767 0)
(0.0967388 0.00344736 0)
(0.0983755 0.00333067 0)
(0.0978346 0.00336879 0)
(0.0994432 0.00325655 0)
(0.0989116 0.00329328 0)
(0.100493 0.00318478 -8.7015e-29)
(0.0999702 0.00322038 0)
(0.101526 0.00311508 8.47787e-29)
(0.101012 0.0031498 0)
(0.102543 0.00304681 0)
(0.102036 0.0030807 0)
(0.103545 0.00298042 8.02125e-29)
(0.103046 0.00301342 0)
(0.104531 0.0029155 0)
(0.10404 0.00294781 0)
(0.105502 0.00285167 0)
(0.105019 0.00288348 0)
(0.106457 0.0027885 0)
(0.105982 0.00282004 0)
(0.107397 0.00272546 0)
(0.106929 0.00275703 0)
(0.10832 0.00266131 0)
(0.107861 0.00269365 0)
(0.10923 0.00259536 0)
(0.108777 0.00262862 0)
(0.110124 0.00252423 3.33975e-24)
(0.109677 0.0025587 3.42313e-24)
(0.110566 0.00248602 -6.41053e-24)
(0.110682 0.00103921 -6.17513e-24)
(0.111394 0.00194585 0)
(0.11099 0.0014967 -6.22762e-24)
(0.11037 9.53312e-05 0)
(0.110472 0.000571033 6.30211e-24)
(0.110491 -0.00085368 9.40809e-24)
(0.110376 -0.000381068 -3.1813e-24)
(0.110709 -0.00132013 -1.84812e-23)
(0.110621 -0.00275446 3.21846e-24)
(0.111494 -0.00268417 1.19656e-23)
(0.111063 -0.00272532 0)
(0.109733 -0.00281426 -6.67788e-24)
(0.11018 -0.00278583 6.69989e-24)
(0.10883 -0.00286688 0)
(0.109284 -0.00284197 0)
(0.10791 -0.00291246 -1.41542e-28)
(0.108372 -0.00289043 0)
(0.106975 -0.00295315 0)
(0.107445 -0.00293334 0)
(0.106023 -0.00299037 0)
(0.106501 -0.00297212 0)
(0.105054 -0.0030254 0)
(0.10554 -0.00300811 0)
(0.104068 -0.00305922 0)
(0.104563 -0.00304242 0)
(0.103066 -0.00309264 6.46401e-26)
(0.103569 -0.00307595 0)
(0.102047 -0.00312649 -6.63882e-26)
(0.102559 -0.00310947 0)
(0.101011 -0.00316183 0)
(0.101531 -0.00314393 0)
(0.0999567 -0.00319927 0)
(0.100486 -0.00318027 0)
(0.0988839 -0.00323977 0)
(0.0994226 -0.0032191 0)
(0.0977916 -0.00328382 0)
(0.0983403 -0.00326128 0)
(0.0966783 -0.00333267 0)
(0.0972376 -0.00330761 0)
(0.0955428 -0.0033872 0)
(0.0961134 -0.00335919 0)
(0.0943834 -0.00344848 -7.70409e-26)
(0.0949662 -0.00341693 0)
(0.0931987 -0.00351788 7.85209e-26)
(0.0937943 -0.00348209 0)
(0.0919877 -0.00359654 -7.99673e-26)
(0.0925965 -0.00355604 0)
(0.0907501 -0.00368524 0)
(0.0913721 -0.00363958 0)
(0.0894862 -0.00378433 0)
(0.0901209 -0.00373335 0)
(0.0882118 -0.00389892 8.51128e-26)
(0.0888515 -0.00383912 1.08075e-23)
(0.0869286 -0.00403896 -5.62723e-23)
(0.0875656 -0.00396529 0)
(0.0847191 -0.00348407 -3.33525e-23)
(0.0862923 -0.00411722 -3.03785e-25)
(0.0836076 0.00109906 6.24592e-23)
(0.0833859 -0.000476207 0)
(0.11188 0.00237353 -1.19608e-23)
(0.111931 -0.00265332 -2.30679e-23)
(0.0833596 0.00181325 -3.29653e-23)
(0.0844904 0.00327015 1.08177e-24)
(0.0833762 0.00249188 9.38113e-23)
(0.0830395 -0.00126895 0)
(0.0830379 -0.00204363 1.1263e-23)
(0.0866099 0.00422561 -9.65023e-23)
(0.085659 0.00413216 8.2324e-23)
(0.0840772 0.00336501 -8.10135e-23)
(0.0833718 -0.0028031 -3.38204e-23)
(0.0840371 -0.00355635 2.25531e-23)
(0.0856674 -0.00420886 2.21361e-23)
(0.0833187 0.000305684 0)
(0.0898416 0.00484738 2.86819e-24)
(0.0883676 0.00486366 5.0823e-25)
(0.0891717 0.00484457 2.24166e-23)
(0.0908774 0.00469813 2.21512e-23)
(0.090362 0.00477933 -2.22661e-23)
(0.0920105 0.00455037 4.10368e-26)
(0.0914268 0.00462037 0)
(0.0931567 0.00443189 0)
(0.0925872 0.00448836 0)
(0.0942803 0.00432359 0)
(0.0937207 0.00437716 0)
(0.0953862 0.00422115 0)
(0.0948355 0.00427141 0)
(0.0964727 0.00412412 3.8064e-26)
(0.0959319 0.00417219 0)
(0.0975403 0.00403082 0)
(0.0970088 0.00407701 0)
(0.0985897 0.00394123 0)
(0.0980672 0.00398559 0)
(0.0996214 0.00385513 0)
(0.0991077 0.00389777 0)
(0.100636 0.00377222 0)
(0.100131 0.00381331 0)
(0.101634 0.00369207 -3.43392e-26)
(0.101137 0.00373183 0)
(0.102617 0.00361434 9.84025e-29)
(0.102128 0.00365297 0)
(0.103584 0.00353852 0)
(0.103102 0.00357618 0)
(0.104537 0.00346458 6.38714e-26)
(0.104063 0.00350136 0)
(0.105476 0.00339211 0)
(0.105008 0.0034282 0)
(0.106399 0.00332069 0)
(0.105939 0.00335631 0)
(0.107308 0.00324985 0)
(0.106856 0.00328524 0)
(0.108202 0.003179 0)
(0.107757 0.00321449 0)
(0.109081 0.00310718 0)
(0.108643 0.00314329 0)
(0.109945 0.00303353 5.4291e-26)
(0.109515 0.00307064 0)
(0.110794 0.00295675 -3.35434e-24)
(0.110372 0.00299608 0)
(0.111627 0.00287193 3.19426e-24)
(0.111212 0.00291498 0)
(0.11245 0.00278218 3.03425e-24)
(0.112039 0.00282759 -3.11069e-24)
(0.111835 0.00191407 6.02316e-24)
(0.11286 0.00273865 0)
(0.112314 0.00233843 8.94929e-24)
(0.111142 0.00102172 0)
(0.111443 0.00147329 0)
(0.110841 9.12808e-05 0)
(0.11094 0.00055894 0)
(0.110958 -0.000844027 0)
(0.110848 -0.000378047 0)
(0.11148 -0.00175828 1.22849e-23)
(0.11117 -0.00130667 3.05805e-24)
(0.112356 -0.00262008 3.00631e-24)
(0.111876 -0.00219568 2.40389e-23)
(0.112105 -0.00310732 1.56017e-23)
(0.112919 -0.00302812 2.97868e-24)
(0.112513 -0.00306699 -6.06629e-24)
(0.111278 -0.00318425 3.20649e-24)
(0.111691 -0.00314566 -1.92327e-23)
(0.110436 -0.00325119 -1.35706e-28)
(0.110858 -0.00321818 0)
(0.109576 -0.00330977 0)
(0.110008 -0.00328091 0)
(0.108702 -0.00336339 -1.62779e-28)
(0.109141 -0.00333728 0)
(0.107811 -0.0034123 0)
(0.108259 -0.00338836 0)
(0.106905 -0.0034578 0)
(0.10736 -0.00343541 0)
(0.105982 -0.00350105 0)
(0.106446 -0.00347966 0)
(0.105044 -0.00354306 0)
(0.105515 -0.00352217 0)
(0.104089 -0.00358474 -1.29089e-25)
(0.104568 -0.0035639 0)
(0.103118 -0.00362706 0)
(0.103606 -0.00360577 0)
(0.102131 -0.00367102 0)
(0.102627 -0.00364879 0)
(0.101126 -0.00371743 0)
(0.101631 -0.00369389 0)
(0.100104 -0.00376723 0)
(0.100617 -0.00374187 0)
(0.0990635 -0.00382122 -7.22544e-26)
(0.0995862 -0.00379365 0)
(0.0980034 -0.00388055 0)
(0.098536 -0.00385017 0)
(0.0969227 -0.00394619 0)
(0.0974657 -0.00391254 0)
(0.0958203 -0.00401924 7.70409e-26)
(0.0963743 -0.00398174 0)
(0.0946953 -0.00410088 -2.3597e-28)
(0.0952607 -0.00405894 0)
(0.0935472 -0.00419203 1.59695e-25)
(0.0941242 -0.00414525 0)
(0.0923761 -0.00429312 0)
(0.0929645 -0.00424134 0)
(0.0911818 -0.00440413 0)
(0.0917817 -0.00434724 0)
(0.0899663 -0.00452369 -2.67093e-28)
(0.0905771 -0.00446386 0)
(0.0887302 -0.00465571 0)
(0.0893497 -0.00458721 0)
(0.0875195 -0.00481823 -3.34538e-23)
(0.0881207 -0.00473287 0)
(0.0850239 -0.00429501 -2.96896e-25)
(0.0869227 -0.00491205 5.68031e-23)
(0.0827913 0.00105325 0)
(0.0875454 0.00486939 1.30062e-22)
(0.082543 0.00175608 2.25202e-23)
(0.113103 0.00317503 -3.02854e-24)
(0.11349 0.00312976 0)
(0.112779 -0.00258831 2.92178e-24)
(0.113318 -0.00298461 -5.80633e-24)
(0.0826178 -0.00050559 0)
(0.0822805 -0.00129541 0)
(0.0827105 0.00256367 0)
(0.0822919 -0.0020785 -1.10931e-23)
(0.082653 -0.0028613 -2.23175e-23)
(0.0833499 -0.00363309 0)
(0.084368 -0.0043839 5.7455e-23)
(0.0863061 -0.00500758 -4.58169e-23)
(0.0825344 0.000273835 0)
(0.0904226 0.00547369 -1.07912e-26)
(0.0866856 0.00483164 4.08105e-23)
(0.0889662 0.00555249 -1.45457e-22)
(0.089692 0.00553012 4.26293e-23)
(0.0917121 0.00540062 -1.38646e-23)
(0.0910853 0.00541909 -2.22256e-23)
(0.0927762 0.00526893 0)
(0.0922569 0.00534619 0)
(0.0938565 0.00511126 -4.10331e-26)
(0.0933057 0.00518573 0)
(0.0949384 0.00498209 0)
(0.0944011 0.00504438 0)
(0.0959969 0.00486389 0)
(0.0954701 0.00492215 0)
(0.0970368 0.0047522 0)
(0.0965192 0.00480723 0)
(0.0980584 0.00464592 -3.8064e-26)
(0.0975499 0.00469852 0)
(0.0990626 0.00454379 0)
(0.0985626 0.00459436 0)
(0.10005 0.00444563 0)
(0.0995584 0.00449424 0)
(0.101022 0.00435124 0)
(0.100538 0.00439799 0)
(0.101978 0.00426028 0)
(0.101502 0.00430536 0)
(0.102919 0.00417239 3.41244e-26)
(0.10245 0.00421599 0)
(0.103845 0.00408716 1.11144e-28)
(0.103384 0.00412949 0)