/*--------------------------------*- C++ -*----------------------------------*\
  =========                 |
  \\      /  F ield         | OpenFOAM: The Open Source CFD Toolbox
   \\    /   O peration     | Website:  https://openfoam.org
    \\  /    A nd           | Version:  10
     \\/     M anipulation  |
\*---------------------------------------------------------------------------*/
FoamFile
{
    format      ascii;
    class       volScalarField;
    location    "8.5";
    object      p;
}
// * * * * * * * * * * * * * * * * * * * * * * * * * * * * * * * * * * * * * //

dimensions      [0 2 -2 0 0 0 0];

internalField   nonuniform List<scalar> 
40874
(
0.614873
0.694559
0.155882
0.232851
0.142367
0.0562845
-0.0531431
0.12725
0.211092
0.346973
0.534258
0.482416
0.341935
0.453529
0.468965
0.531114
-0.129828
-0.106484
0.237376
0.329152
0.328465
0.297188
0.197405
0.392251
0.381015
0.0903346
0.113999
0.117559
0.0699753
-0.0952741
-0.0739448
0.022788
0.0100473
-0.346006
-0.35605
-0.345933
-0.337992
-0.0032746
-0.000870395
-0.00649307
-0.00362863
-0.00415655
-0.00373986
-0.00826977
-0.00554693
-0.00604299
-0.00882565
0.341653
0.449883
0.519237
0.423045
0.18294
0.275662
-0.145896
-0.184739
-0.0841618
-0.0555116
-0.0733537
-0.189625
-0.307403
-0.288601
0.00744113
0.130014
0.102884
-0.00119461
-0.41413
-0.450701
-0.412475
-0.346838
-0.343963
-0.347753
0.916923
0.921849
0.908096
-0.00794826
0.0278036
0.036878
-0.0369326
-0.00444523
0.00374184
-0.00429616
-0.00112114
0.492205
0.542855
0.548573
0.51181
-0.0239219
-0.0163543
-0.00416657
-0.0991336
-0.233603
-0.173452
-0.179557
-0.292626
-0.230029
-0.000327365
0.00251583
-0.00805136
-0.00568173
-0.00250981
0.202211
0.187417
-0.363978
-0.372918
-0.340033
-0.334264
0.421329
0.428985
0.901419
0.884657
-0.330005
-0.33308
0.175104
-0.0143923
-0.012962
0.0017758
0.0057991
0.164939
0.201665
0.465911
0.610732
0.552045
0.442832
0.482052
-0.00806362
-0.00901465
-0.00275172
-0.0100601
-0.0202116
-0.0332738
0.187075
-0.00374598
0.0149531
0.0156211
0.676156
-0.0413048
-0.0486238
-0.0912788
-0.334385
-0.321824
-0.324323
-0.337455
-0.336021
-0.339331
-0.342476
-0.338924
-0.333943
0.891703
0.923742
0.916045
-0.148433
-0.18599
-0.107276
-0.341022
-0.343706
-0.34116
-0.345697
-0.33578
-0.338631
-0.335609
-0.493669
-0.503102
-0.485411
0.896205
0.823876
0.721396
0.622336
0.658831
0.217421
-0.397265
0.754606
0.697669
0.570247
0.796198
0.00773572
0.0125768
-0.333525
-0.333056
-0.348806
-0.342293
-0.33208
-0.337301
-0.333903
-0.398252
-0.387772
7.6409e-05
7.75771e-05
1.3754e-05
0.447283
0.457513
0.435513
0.330892
0.268976
0.865863
0.887867
0.900787
0.857927
-0.0465162
-0.137455
-0.246835
-0.150741
-0.409448
-0.40292
-0.396394
-0.412519
0.000118757
0.000132878
-0.389364
-0.0138038
-0.0217395
0.166873
0.162708
0.345492
0.210274
0.209464
0.171837
0.1715
0.197363
0.188898
0.700001
0.795843
0.81344
-0.00690717
-0.00808742
0.233946
0.135665
0.172454
0.16404
-0.362781
-0.323924
-0.32534
-0.365373
-0.366532
-0.172651
-0.341699
-0.344862
-0.347769
-0.339144
-0.335419
0.114535
0.178715
-0.32079
-0.330069
0.0222924
0.00826247
-0.101263
-0.075513
0.62868
0.640052
0.754988
0.713803
-0.138272
-0.130139
-0.142601
-0.154315
-0.341935
-0.340578
-0.334724
-0.333624
-0.327021
-0.321403
-0.329239
-0.328062
-0.329352
0.865017
0.827729
0.879808
0.615789
0.593765
0.599015
-0.348416
-2.36614e-05
-0.182323
0.00912564
-0.043422
-0.0386019
-0.0339943
-0.0294468
-0.0246554
-0.0204957
-0.0175952
-0.0148066
-0.0116597
-0.00892325
-0.00633641
-0.00411005
-0.00195013
-5.92182e-05
0.0017768
0.00339306
0.00492824
0.00622404
0.00761647
0.00882831
0.00993142
0.0109026
0.0118308
0.0126405
0.0134004
0.0140523
0.0146527
0.0151545
0.0156034
0.0159589
0.0162557
0.0164558
0.0166127
0.0166778
0.0165805
0.0159503
0.0149451
0.0154175
-0.0612989
-0.0500996
-0.0568188
-0.0636383
-0.0750209
-0.0676986
-0.0504279
-0.0558547
-0.0405511
-0.0453143
-0.0307308
-0.0356901
-0.0223493
-0.0257743
-0.0159922
-0.0191711
-0.0104027
-0.013056
-0.0057473
-0.00798552
-0.00177076
-0.00368478
0.00148459
-6.77999e-06
0.0046057
0.00311392
0.00706727
0.00588887
0.00916072
0.00815461
0.0109139
0.0100774
0.0123406
0.0116658
0.0134614
0.0129371
0.0142904
0.0139104
0.0147796
0.0145888
0.0145781
0.0148399
0.0144958
-0.0361833
-0.0425706
-0.027208
-0.0314195
-0.0187574
-0.0230171
-0.0132858
-0.0156365
-0.00833922
-0.0109283
-0.00343524
-0.00581179
0.000706037
-0.00129014
0.00424123
0.00253113
0.00729001
0.00581458
0.00983268
0.00859511
0.012069
0.0109952
0.0139331
0.013039
0.015483
0.0147432
0.0167372
0.0161441
0.0177076
0.0172558
0.0183929
0.0180865
0.0187761
0.0186166
0.0189673
0.0189306
0.0181064
0.0184823
-0.0832095
-0.0924827
-0.0794924
-0.0710822
-0.103543
-0.0891086
-0.115431
0.0127531
0.0126698
0.0181743
-0.0456243
-0.0396841
-0.0517342
-0.066347
-0.0752274
-0.152281
-0.125217
-0.127641
-0.104626
-0.11552
-0.0858122
-0.0945856
-0.0709171
-0.0779491
-0.0582738
-0.0647444
-0.0470407
-0.0525329
-0.0371804
-0.0421077
-0.0289349
-0.0326143
-0.0224928
-0.0256716
-0.0166325
-0.0194511
-0.0115649
-0.0140011
-0.00719304
-0.00929133
-0.00342058
-0.00525072
-0.00011501
-0.00171486
0.00270936
0.00135886
0.00511416
0.00396131
0.00715069
0.0061777
0.00884383
0.00804086
0.0102213
0.00957196
0.0113048
0.0107977
0.0120523
0.0117377
0.0123963
0.0122425
0.0126122
0.0125246
0.0179633
0.0134995
0.0146892
-0.0288558
-0.0343269
-0.0199994
-0.0241133
-0.0128583
-0.0161049
-0.00713824
-0.010082
-0.00220542
-0.0044627
0.00210419
8.26273e-06
0.00581785
0.00404154
0.00898265
0.00746265
0.011691
0.0103944
0.0139881
0.012886
0.0159635
0.0150163
0.017619
0.0168303
0.018985
0.0183373
0.0200775
0.0195652
0.0209026
0.0205236
0.0214551
0.0212139
0.0217576
0.0216316
0.0217014
0.0218032
0.0213849
0.0214879
0.020792
0.0211549
-0.0585875
-0.0341688
-0.0293077
-0.0396887
-0.0526851
-0.060987
0.0236598
0.0203347
0.0231654
-0.140036
-0.0998493
0.0118822
-0.0855647
0.0109773
-0.16849
-0.172916
-0.202621
-0.210153
-0.189594
-0.135494
-0.151059
-0.115156
-0.125266
-0.0956008
-0.104962
-0.0792662
-0.0871983
-0.0660162
-0.0725246
-0.0538932
-0.0599431
-0.0439245
-0.0487539
-0.0352922
-0.039461
-0.0282376
-0.0316474
-0.0220073
-0.0250134
-0.0165707
-0.0191913
-0.0118489
-0.0141206
-0.0077546
-0.00974746
-0.00421314
-0.00592749
-0.00113776
-0.00261316
0.00148985
0.000229735
0.00372053
0.00265348
0.00558863
0.00470004
0.00712448
0.00639829
0.00835252
0.00777406
0.00928302
0.00886728
0.0098189
0.00954502
0.010166
0.0100747
0.00976281
0.0100746
0.00944984
0.0148922
0.0128275
0.0175687
-0.0203979
-0.0248424
-0.0122472
-0.0160735
-0.00604971
-0.008917
-0.000554504
-0.00331566
0.00395509
0.00186523
0.00768785
0.00587582
0.0109362
0.00937687
0.0137137
0.0123785
0.0160946
0.0149512
0.0181201
0.0171485
0.0198576
0.0190227
0.0213211
0.0206234
0.0225256
0.0219548
0.0234838
0.0230354
0.024197
0.0238714
0.0246562
0.0244593
0.0248451
0.0247872
0.0246835
0.024809
0.0243132
0.0245375
0.0240244
-0.0456852
-0.0712111
-0.022802
-0.0185983
0.0198002
0.0225426
-0.0275433
-0.160517
0.00679071
0.00575912
-0.192867
-0.11189
-0.125546
-0.213829
-0.233146
-0.230311
-0.0977091
-0.0830066
-0.178788
-0.195782
-0.147662
-0.16248
-0.124288
-0.135353
-0.104576
-0.114259
-0.0873986
-0.095648
-0.0732343
-0.079926
-0.0610161
-0.0669532
-0.0505183
-0.0555178
-0.0413582
-0.0457648
-0.0336344
-0.0373489
-0.026957
-0.0301699
-0.0211639
-0.0239565
-0.0161247
-0.0185532
-0.0117709
-0.0138667
-0.00798582
-0.00981163
-0.00471372
-0.00628623
-0.00190713
-0.00325409
0.000479405
-0.000662727
0.00248427
0.0015281
0.00413801
0.00335496
0.00546465
0.00483988
0.0064947
0.00602366
0.00712553
0.00682939
0.00755643
0.00737362
0.00722745
0.00752821
0.00687693
0.0101545
0.00797113
0.0146142
0.0123324
0.017107
-0.0109516
-0.0147788
-0.00389455
-0.00720078
0.00152844
-0.00105269
0.00632461
0.00399612
0.0102551
0.00840535
0.0134951
0.0119375
0.0162768
0.0149407
0.0186532
0.0175115
0.0206852
0.0197095
0.0224199
0.0215872
0.0238967
0.0231886
0.0251366
0.0245457
0.0261497
0.0256709
0.0269423
0.0265736
0.0275108
0.0272551
0.027845
0.0277078
0.0279277
0.0279203
0.0277207
0.0278579
0.0272978
0.0275401
0.026568
0.0269941
-0.255391
-0.253421
-0.110917
-0.218735
0.0253485
0.0260274
-0.0388287
-0.032896
-0.0551985
-0.0458809
-0.0979721
-0.28047
-0.246625
-0.210039
-0.284079
-0.258484
-0.00766877
-0.0113009
-0.14489
-0.301124
-0.30125
-0.0665064
0.0282207
0.0245641
0.0274001
-0.295822
-0.185269
-0.233306
-0.218256
-0.235988
-0.187758
-0.202263
-0.158664
-0.17301
-0.133518
-0.145421
-0.112896
-0.12274
-0.0952406
-0.10373
-0.0803371
-0.0874063
-0.0676844
-0.0737902
-0.0566821
-0.0619447
-0.0470948
-0.0517054
-0.0388973
-0.0428473
-0.0318021
-0.0352138
-0.0256616
-0.02862
-0.0203241
-0.0228971
-0.015704
-0.0179262
-0.0116895
-0.0136248
-0.00822067
-0.0098886
-0.00523847
-0.00667056
-0.00269627
-0.00391366
-0.000554125
-0.0015775
0.00122039
0.00037888
0.00264961
0.00197685
0.00377002
0.00325017
0.00451007
0.00417739
0.0050204
0.00480016
0.00493399
0.00509727
0.00446848
0.00462642
0.00941617
0.00456767
0.00723131
0.0140756
0.0117231
0.0191268
0.0165432
0.0218035
-0.00126454
-0.00438129
0.00468579
0.0018575
0.0093754
0.00715485
0.0133274
0.0114319
0.0165935
0.0150453
0.0192917
0.017999
0.0215949
0.020488
0.0235657
0.0226186
0.0252531
0.0244422
0.0266953
0.0260028
0.0279232
0.0273346
0.0289528
0.0284624
0.0297898
0.0293952
0.0304344
0.0301365
0.030879
0.0306826
0.0311084
0.0310219
0.0310958
0.0311349
0.0308187
0.0309891
0.0302906
0.0305885
0.0294944
0.0299199
0.0289172
-0.0155258
-0.0248303
-0.019964
-0.0386238
-0.030888
-0.131399
-0.287179
-0.265892
-0.317308
-0.318957
0.00222587
0.00220348
-0.0806542
-0.0478797
0.0236558
0.0264036
-0.276002
-0.208354
-0.304358
-0.173528
-0.120615
0.000275589
0.00338828
-0.226222
-0.244283
-0.195766
-0.210595
-0.167681
-0.181382
-0.142161
-0.154344
-0.120833
-0.130985
-0.102734
-0.111428
-0.0872605
-0.0946555
-0.074027
-0.0803927
-0.0625684
-0.0680681
-0.0526029
-0.0573947
-0.0440249
-0.0481605
-0.0365708
-0.0401587
-0.0301042
-0.0332197
-0.0244814
-0.0271917
-0.0196001
-0.0219502
-0.0153589
-0.0174028
-0.0116885
-0.0134541
-0.00852659
-0.0100457
-0.00582532
-0.00711928
-0.00353871
-0.00463172
-0.00163573
-0.0025398
-9.18725e-05
-0.000819555
0.00112587
0.000557426
0.0019919
0.00159771
0.00258559
0.00232614
0.00274656
0.0027513
0.00258704
0.00879199
0.00418856
0.00647543
0.0133891
0.0110753
0.0183355
0.0158158
0.0209557
0.0087498
0.00616088
0.013455
0.0111915
0.0172652
0.0154631
0.0204032
0.0189059
0.0230032
0.0217664
0.0251582
0.0241286
0.0269833
0.0261072
0.028543
0.0277937
0.0298792
0.0292371
0.0310235
0.0304741
0.0319968
0.0315308
0.0328101
0.0324233
0.0334651
0.0331577
0.0339569
0.0337321
0.0342732
0.0341381
0.0343952
0.0343601
0.0342964
0.0343754
0.0339529
0.0341561
0.0333467
0.0336852
0.0324361
0.0329316
0.0311285
0.0318635
-0.32482
0.00221811
-0.0582986
-0.0953537
0.0292309
0.0302606
-0.232246
-0.333014
-0.319675
-0.0291684
-0.00303497
-0.00670921
-0.0108271
-0.015897
-0.0218457
-0.152691
-0.309613
-0.203722
-0.27346
-0.292348
0.0145347
0.0121391
0.00397569
0.00204577
-0.0379541
-0.342868
-0.112291
0.0321566
0.0280812
0.030931
-0.235855
-0.253979
-0.203669
-0.219262
-0.175232
-0.188845
-0.149943
-0.162059
-0.12831
-0.138669
-0.109779
-0.118675
-0.0938471
-0.101488
-0.080108
-0.0867147
-0.068222
-0.0739309
-0.0578944
-0.0628621
-0.048963
-0.0532672
-0.041187
-0.0449323
-0.0344205
-0.0376812
-0.028528
-0.0313682
-0.0234008
-0.0258708
-0.0189413
-0.02109
-0.015075
-0.0169356
-0.0117371
-0.0133415
-0.00888113
-0.0102481
-0.00645096
-0.00761284
-0.00442003
-0.00538641
-0.00275917
-0.00354368
-0.00143947
-0.00205739
-0.000462189
-0.00091086
0.000215944
-8.43434e-05
0.000502209
0.000424236
0.000249527
0.000442998
0.000325581
0.000271882
0.00819376
0.00599723
0.0126728
0.0104269
0.0174416
0.014998
0.0226278
0.0199955
0.0253125
0.0188089
0.0168349
0.0223181
0.0206289
0.0251892
0.0238345
0.0275156
0.0264103
0.0294313
0.0285205
0.0310182
0.030261
0.0323588
0.0317159
0.0335062
0.032955
0.0344929
0.0340186
0.0353414
0.0349339
0.0360653
0.0357189
0.0366698
0.036383
0.0371515
0.0369269
0.0375006
0.037344
0.0377003
0.0376208
0.037727
0.0377374
0.0375499
0.0376663
0.0371382
0.0373755
0.0364578
0.0368344
0.0354662
0.0360039
0.0340936
0.0348395
0.0331957
-0.252325
-0.342372
-0.308785
0.00953241
0.00668567
0.00334696
-0.000533088
-0.00509798
-0.0108119
0.000176336
-0.311519
-0.330348
-0.0171383
0.0111455
0.0148456
-0.0708035
-0.338052
-0.362159
-0.349938
-0.142398
0.0351514
0.033924
0.0267877
0.0295768
-0.280276
-0.297949
-0.243841
-0.261606
-0.210952
-0.226965
-0.18224
-0.196023
-0.157037
-0.169089
-0.135244
-0.145719
-0.116362
-0.125432
-0.100039
-0.107875
-0.0858958
-0.0926972
-0.0736253
-0.0795206
-0.0629507
-0.0680862
-0.0536836
-0.0581469
-0.0456062
-0.0494963
-0.0385628
-0.0419565
-0.0324189
-0.0353796
-0.0270635
-0.0296434
-0.0223995
-0.0246461
-0.0183491
-0.0202983
-0.0148451
-0.0165296
-0.0118445
-0.0132757
-0.00927599
-0.0105031
-0.00712299
-0.00814864
-0.00534993
-0.00618906
-0.00392994
-0.00459621
-0.0028557
-0.00335103
-0.0021036
-0.00243787
-0.00172582
-0.00186014
-0.00169593
-0.0016797
-0.00157625
-0.00165504
-0.000161316
-0.00202015
-0.00170711
0.00357686
0.00173299
0.00762509
0.00556564
0.0119565
0.00977827
0.0165136
0.0141922
0.0214904
0.018967
0.0241004
0.0032683
0.0071048
0.022222
0.0177383
0.0201759
0.0259322
0.0241272
0.0288922
0.0274675
0.0312202
0.0301027
0.0331201
0.0322265
0.0346356
0.0339203
0.0358687
0.0352847
0.0368857
0.0364022
0.0377418
0.0373324
0.0384765
0.038124
0.0391133
0.0388074
0.0396665
0.039401
0.0401421
0.039915
0.0405394
0.0403519
0.0408502
0.0407073
0.04106
0.0409698
0.0411471
0.0411213
0.0410844
0.0411373
0.0408375
0.0409872
0.0403677
0.0406338
0.0396299
0.0400363
0.038568
0.0391444
0.0371277
0.0378914
0.0362056
-0.0225154
-0.0466402
-0.344342
5.11926e-05
-0.342589
-0.339572
-0.000360552
-0.00260569
0.0324461
0.0254147
0.0280724
-0.0820348
-0.346284
-0.34682
-0.342626
-0.343814
-0.317337
-0.324304
-0.286027
-0.30396
-0.250068
-0.267525
-0.217677
-0.233432
-0.188955
-0.202847
-0.16364
-0.175744
-0.141651
-0.152223
-0.122485
-0.131694
-0.10583
-0.113826
-0.0913471
-0.0983076
-0.0787395
-0.084796
-0.0677467
-0.0730326
-0.0581724
-0.0627793
-0.0498157
-0.0538373
-0.0425175
-0.0460314
-0.0361419
-0.0392121
-0.0305762
-0.033256
-0.0257229
-0.0280593
-0.0215017
-0.0235323
-0.0178449
-0.0196021
-0.0146979
-0.0162062
-0.012008
-0.0132944
-0.00974018
-0.0108214
-0.00786115
-0.00875173
-0.00634447
-0.00705748
-0.00517819
-0.00571809
-0.00434327
-0.00471843
-0.00385714
-0.00405321
-0.00366788
-0.00373509
-0.0035885
-0.00360017
-0.00371781
-0.00360541
0.0031265
0.00128381
0.0070229
0.00504095
0.0112146
0.00910879
0.0155938
0.0133768
0.0203124
0.017904
0.0227976
0.0132024
0.0232319
0.0202723
0.0282051
0.0258589
0.0323683
0.0304507
0.0352093
0.0338919
0.0372769
0.0362857
0.0389134
0.0381622
0.0401116
0.0395497
0.0410328
0.0406066
0.0417333
0.0414095
0.0422812
0.0420263
0.0427234
0.0425161
0.0430947
0.0429188
0.0434191
0.0432642
0.0437095
0.0435703
0.0439714
0.043846
0.044204
0.0440936
0.0444005
0.0443094
0.0445479
0.0444832
0.0446269
0.0445991
0.0446113
0.0446344
0.0444698
0.0445602
0.0441624
0.0443411
0.0436433
0.0439341
0.042858
0.0432892
0.0417384
0.0423465
0.0402152
0.0410311
0.0382221
0.0392941
-0.00415995
0.0308551
0.0354786
0.0369565
-0.00275324
-0.3522
-0.355277
-0.344403
-0.351806
-0.00603078
0.0337573
-0.348604
0.734735
0.17868
0.179811
-0.033115
0.671672
-0.360527
-0.349763
-0.35181
-0.348022
-0.329284
-0.2907
-0.307441
-0.255568
-0.272844
-0.2237
-0.239166
-0.195199
-0.209041
-0.169796
-0.181978
-0.147599
-0.158269
-0.128186
-0.137514
-0.111244
-0.119379
-0.0964623
-0.103564
-0.0835575
-0.0897567
-0.07228
-0.077701
-0.0624312
-0.0671677
-0.0538205
-0.0579624
-0.0462891
-0.0499133
-0.0397009
-0.0428719
-0.0339416
-0.0367135
-0.0289131
-0.031333
-0.0245335
-0.0266398
-0.0207335
-0.0225593
-0.0174535
-0.019027
-0.0146461
-0.0159895
-0.0122694
-0.0134033
-0.0102897
-0.0112293
-0.00867931
-0.00943801
-0.00742147
-0.00800644
-0.00649574
-0.00691675
-0.00589944
-0.00615452
-0.00561134
-0.0057202
-0.00551479
-0.00553537
-0.00562106
-0.00556295
-0.00699483
-0.00590274
0.00217357
0.00482455
0.00216301
0.00258129
0.00252275
0.00240647
0.00222326
0.00199511
0.00174494
0.00147225
0.00118155
0.0008738
0.000550595
0.00021381
-0.000135308
-0.000504669
-0.000888622
-0.00128622
-0.00169755
-0.00212301
-0.0025631
-0.00301839
-0.00348958
-0.00397738
-0.00448257
-0.00500587
-0.00554793
-0.00610929
-0.00669033
-0.00729122
-0.0079119
-0.00855205
-0.00921117
-0.00988852
-0.0105817
-0.0112871
-0.0120172
-0.0127666
-0.0135307
-0.0143062
-0.0150912
-0.0158843
-0.0166841
-0.0174888
-0.0182964
-0.0191049
-0.0199122
-0.020716
-0.0215144
-0.0223051
-0.023086
-0.0238549
-0.0246098
-0.0253488
-0.02607
-0.0267717
-0.0274521
-0.02811
-0.028744
-0.0293528
-0.0299356
-0.0304914
-0.0310196
-0.0315194
-0.0319906
-0.0324325
-0.0328447
-0.0332262
-0.0335776
-0.0339025
-0.0342019
-0.034453
-0.0346135
-0.034757
-0.03525
-0.0361029
-0.034846
-0.035418
-0.0353469
-0.0354333
-0.0353937
-0.0353533
-0.0352626
-0.0351441
-0.0349877
-0.0347978
-0.0345718
-0.0343103
-0.0340125
-0.0336779
-0.0333061
-0.0328966
-0.0324488
-0.0319622
-0.0314363
-0.0308706
-0.0302648
-0.0296181
-0.0289303
-0.0282009
-0.0274294
-0.0266154
-0.0257586
-0.0248584
-0.0239143
-0.0229258
-0.0218932
-0.0208171
-0.0196926
-0.0185016
-0.0172217
-0.015887
-0.0146705
-0.013637
-0.0113995
-0.00958866
-0.00790836
-0.00908626
-0.00460864
-0.00555886
-0.00078675
-0.00183948
0.00258694
0.000964036
0.00640542
0.00447798
0.0104515
0.00842065
0.0146708
0.0125393
0.0191481
0.0168692
0.0239438
0.0215132
0.0291248
0.0264945
0.0368053
0.0347862
0.0318872
0.163605
0.0378472
0.0410461
0.0442786
0.0476758
0.051271
0.0551626
0.0593455
0.0638666
0.0687199
0.0740747
0.0800202
0.0865832
0.0938071
0.101722
0.110097
0.118911
0.12919
0.143687
-0.352851
-0.450961
-0.375572
-0.405223
0.0385921
0.0400936
0.0413432
0.0424409
0.0434103
0.0442588
0.0449911
0.0456167
0.0461464
0.0465922
0.0469632
0.0472695
0.0475183
0.047718
0.0478747
0.0479956
0.0480858
0.0481507
0.0481952
0.048224
0.0482401
0.0482481
0.0482502
0.04825
0.0482491
0.0482504
0.0482547
0.0482644
0.0482796
0.0483021
0.0483314
0.0483689
0.0484131
0.048465
0.0485221
0.0485847
0.0486496
0.0487164
0.0487812
0.0488429
0.0488959
0.0489383
0.0489649
0.048971
0.0489415
0.0488368
0.048738
0.0485708
0.0483709
0.0479985
0.0473688
0.0465109
0.0454806
0.0446626
0.0433392
0.0411929
0.0344873
0.019522
-0.0125153
-0.0947204
0.0399603
0.0432512
0.0466255
0.0501449
0.0538695
0.0578455
0.0620884
0.066637
0.0715084
0.076689
0.0824292
0.0886193
0.0952711
0.102276
0.109432
0.116588
0.125403
0.137971
0.152655
0.162316
0.165706
0.00242662
0.165013
-0.351963
0.144824
0.131496
0.120466
0.109906
0.100091
0.0912301
0.0835
0.0766623
0.070598
0.0652154
0.0603828
0.0559686
0.0519321
0.0481869
0.0447646
0.0414689
0.0386392
0.0356307
0.0327489
0.0299894
0.027432
0.0249254
0.0225634
0.0202646
0.0180201
0.0158527
0.0137491
0.0117011
0.00969432
0.00774461
0.00581963
0.00398824
0.00214547
0.000602628
-0.000803011
-0.00258144
-0.00490545
-0.00657862
-0.0076843
-0.00938174
-0.0104046
-0.0119189
-0.0135039
-0.0148001
-0.0159854
-0.0172045
-0.0184146
-0.0195775
-0.0206902
-0.0217585
-0.0227847
-0.0237687
-0.0247101
-0.0256091
-0.0264661
-0.0272815
-0.0280556
-0.0287888
-0.0294814
-0.0301338
-0.0307464
-0.0313195
-0.0318536
-0.0323491
-0.0328065
-0.0332261
-0.0336084
-0.0339538
-0.0342629
-0.0345359
-0.0347735
-0.0349755
-0.0351437
-0.0352748
-0.035377
-0.0354311
-0.03548
-0.0354143
-0.0354852
-0.0350892
-0.0359971
-0.0350576
-0.0347596
-0.0347167
-0.034583
-0.0343468
-0.0340625
-0.0337497
-0.0334074
-0.0330335
-0.0326284
-0.0321931
-0.0317281
-0.0312339
-0.030711
-0.0301599
-0.0295815
-0.0289765
-0.028346
-0.0276911
-0.0270133
-0.0263139
-0.0255946
-0.0248572
-0.0241035
-0.0233356
-0.0225555
-0.0217653
-0.0209673
-0.0201637
-0.0193566
-0.0185483
-0.0177408
-0.0169362
-0.0161368
-0.0153451
-0.0145632
-0.0137917
-0.0130326
-0.012287
-0.0115531
-0.0108263
-0.01012
-0.00943342
-0.008766
-0.00811812
-0.00749013
-0.00688215
-0.0062941
-0.00572578
-0.0051768
-0.00464666
-0.00413476
-0.00364046
-0.00316308
-0.00270199
-0.0022566
-0.00182643
-0.00141118
-0.00101071
-0.000624984
-0.000253342
0.000110268
0.000457778
0.000788752
0.00110371
0.00140124
0.00168188
0.00193826
0.00218658
0.00237412
0.00267314
0.00238613
0.00224953
0.16512
-0.358712
-0.363175
-0.405715
-0.374887
-0.416195
-0.407438
-0.414783
-0.355023
-0.00825945
-0.0076933
-0.0075206
-0.00740389
-0.00734518
-0.00737896
-0.00748592
-0.00764259
-0.00787304
-0.00818075
-0.00856952
-0.00903726
-0.00958596
-0.010217
-0.0109335
-0.0117385
-0.0126341
-0.013623
-0.0147092
-0.0158961
-0.0171882
-0.0185894
-0.0201059
-0.0217431
-0.0235068
-0.0254025
-0.0274385
-0.0296221
-0.0319624
-0.0344678
-0.0371491
-0.0400159
-0.0430816
-0.0463574
-0.0498585
-0.0535984
-0.0575948
-0.0618636
-0.0664259
-0.0713001
-0.076509
-0.0820771
-0.088029
-0.094386
-0.101185
-0.10845
-0.116218
-0.124519
-0.133397
-0.142881
-0.153013
-0.163828
-0.175368
-0.187664
-0.20077
-0.214657
-0.229239
-0.24462
-0.260855
-0.277814
-0.294972
-0.310642
-0.34464
-0.346226
-0.347363
-0.350204
-0.352224
-0.352712
-0.352958
-0.354037
-0.354862
-0.354697
-0.354442
-0.354897
-0.356642
-0.352473
-0.349845
-0.361666
-0.359952
-0.00959272
-0.010298
-0.00921386
-0.0105321
-0.00910954
-0.0105703
-0.0090511
-0.0105734
-0.00904477
-0.0106587
-0.00913256
-0.0108145
-0.00928854
-0.0110239
-0.0094986
-0.0112864
-0.00977999
-0.0116167
-0.0101359
-0.0120183
-0.0105696
-0.0124948
-0.0110812
-0.013048
-0.011673
-0.0136809
-0.0123473
-0.0143961
-0.013107
-0.0151968
-0.0139553
-0.0160862
-0.0148948
-0.0170675
-0.0159288
-0.0181442
-0.0170611
-0.0193203
-0.018296
-0.0206002
-0.0196375
-0.0219883
-0.0210906
-0.0234899
-0.0226603
-0.02511
-0.024353
-0.0268548
-0.0261744
-0.0287306
-0.0281314
-0.0307447
-0.0302308
-0.032904
-0.0324815
-0.0352172
-0.0348911
-0.0376925
-0.0374701
-0.04034
-0.0402271
-0.0431693
-0.0431748
-0.0461922
-0.0463233
-0.0494202
-0.0496875
-0.0528668
-0.0532789
-0.0565452
-0.057115
-0.0604713
-0.0612093
-0.0646605
-0.0655821
-0.0691312
-0.0702494
-0.0739012
-0.0752347
-0.0789919
-0.0805554
-0.084423
-0.0862405
-0.09022
-0.0923083
-0.0964043
-0.0987884
-0.103003
-0.105707
-0.110043
-0.113097
-0.117554
-0.120984
-0.125565
-0.129408
-0.134109
-0.138396
-0.143216
-0.147991
-0.152922
-0.158217
-0.163255
-0.16912
-0.174249
-0.180719
-0.185923
-0.193055
-0.198303
-0.206141
-0.211389
-0.219957
-0.225177
-0.234497
-0.23969
-0.249809
-0.254941
-0.265907
-0.270872
-0.282543
-0.287256
-0.299049
-0.303446
-0.314292
-0.318337
-0.327504
-0.330807
-0.338453
-0.340895
-0.345062
-0.348206
-0.350635
-0.353555
-0.352863
-0.355558
-0.35518
-0.356829
-0.35727
-0.357578
-0.358016
-0.358339
-0.35539
-0.358783
-0.359566
-0.353339
-0.361687
-0.359799
-0.357377
-0.361664
0.00519527
0.00544924
0.00478683
0.004782
0.00460166
0.00499396
0.00490513
0.00510949
0.0049861
0.00501435
0.00516092
0.00509184
0.00505992
0.00504621
0.00501632
0.00496917
0.00490953
0.00483849
0.0047549
0.00465861
0.00455082
0.00443275
0.00430485
0.00416835
0.00402431
0.00388134
0.0037414
0.00362885
0.00343041
0.00327522
0.00293874
0.00300197
0.00274933
0.00239919
0.00212922
0.00191497
0.00179147
0.00141785
0.00114043
0.000916335
0.00080429
0.000454406
0.000148632
-0.000128276
-0.000332004
-0.000923415
-0.000964641
-0.00133648
-0.00168809
-0.00224033
-0.00230775
-0.00284503
-0.0031366
-0.00332445
-0.00384015
-0.00429728
-0.00467731
-0.00498693
-0.00545945
-0.00579588
-0.00636164
-0.00684334
-0.00703144
-0.00773035
-0.00801922
-0.00829917
-0.00882314
-0.00912782
-0.00925466
-0.00942952
-0.00929523
-0.00955898
-0.0090943
-0.0114388
-0.0139438
-0.0149764
-0.0160603
-0.0173399
-0.0186204
-0.0198203
-0.0209513
-0.0220335
-0.0230727
-0.024067
-0.0250154
-0.0259178
-0.0267751
-0.0275879
-0.0283566
-0.0290817
-0.0297638
-0.0304034
-0.031001
-0.0315572
-0.0320725
-0.0325477
-0.0329832
-0.0333797
-0.0337378
-0.0340579
-0.0343409
-0.0345871
-0.0347974
-0.0349715
-0.0351116
-0.0352143
-0.0352875
-0.0353151
-0.0353302
-0.0352637
-0.0352623
-0.0350938
-0.0352342
-0.0349959
-0.0346449
-0.0344222
-0.0342209
-0.0339617
-0.0336532
-0.0333151
-0.0329511
-0.0325586
-0.0321364
-0.0316851
-0.0312055
-0.030698
-0.0301632
-0.0296016
-0.0290139
-0.0284011
-0.0277641
-0.0271041
-0.0264224
-0.0257205
-0.0249998
-0.0242621
-0.0235092
-0.0227431
-0.0219658
-0.0211792
-0.0203856
-0.019587
-0.0187855
-0.0179834
-0.0171827
-0.0163853
-0.0155934
-0.0148087
-0.0140333
-0.0132688
-0.0125172
-0.0117804
-0.0110591
-0.0103533
-0.00966263
-0.00898996
-0.00833695
-0.00770395
-0.00709116
-0.00649869
-0.00592643
-0.00537408
-0.00484115
-0.00432703
-0.003831
-0.00335228
-0.00289004
-0.00244351
-0.00201199
-0.00159487
-0.00119172
-0.000802326
-0.00042687
-6.59483e-05
0.000280274
0.00061403
0.000934037
0.00123835
0.00152571
0.00179414
0.00204199
0.00226098
0.00245685
0.002583
0.00280895
0.00276719
0.00369224
0.00312379
0.00408793
0.00473614
0.00498288
0.00493392
0.00488855
0.00495157
0.00496763
0.00502242
0.00518282
0.00512449
0.00509842
0.00514054
0.00511072
0.00507215
0.00503257
0.00498202
0.00491873
0.00484435
0.00475869
0.00466178
0.00455466
0.00443849
0.00431399
0.00418209
0.0040435
0.00390073
0.00375188
0.00359839
0.00343213
0.00327941
0.00303214
0.00283702
0.00266282
0.00240107
0.00216504
0.00193192
0.00172392
0.00146506
0.00114032
0.000888504
0.000785719
0.000555372
0.000179832
-0.000173733
-0.000423475
-0.000763056
-0.00103841
-0.00132681
-0.00167719
-0.0020796
-0.00237792
-0.00268513
-0.0030324
-0.00334785
-0.00373154
-0.00416794
-0.004531
-0.00495469
-0.005166
-0.005732
-0.00614187
-0.00652115
-0.00684929
-0.00726935
-0.00762656
-0.0079251
-0.00826009
-0.00854867
-0.00864404
-0.00870331
-0.00865861
-0.00872824
-0.0118624
-0.0135672
-0.0149284
-0.0161712
-0.0174597
-0.0187442
-0.0199657
-0.0211197
-0.0222195
-0.0232718
-0.0242762
-0.025232
-0.0261394
-0.0269991
-0.027812
-0.0285787
-0.0292998
-0.0299759
-0.0306077
-0.0311958
-0.0317409
-0.0322438
-0.032705
-0.0331254
-0.0335055
-0.0338463
-0.0341482
-0.0344122
-0.0346386
-0.0348286
-0.0349821
-0.0351009
-0.035183
-0.035234
-0.0352449
-0.0352347
-0.0351744
-0.0351248
-0.0350013
-0.0348999
-0.0347522
-0.0344875
-0.0342236
-0.0339722
-0.0336919
-0.0333716
-0.0330197
-0.032641
-0.0322351
-0.0318012
-0.0313394
-0.0308503
-0.0303345
-0.0297925
-0.029225
-0.0286327
-0.0280165
-0.0273774
-0.0267165
-0.026035
-0.0253343
-0.0246161
-0.0238818
-0.0231332
-0.0223723
-0.0216009
-0.0208209
-0.0200345
-0.0192436
-0.0184503
-0.0176566
-0.0168646
-0.0160761
-0.0152931
-0.0145175
-0.0137509
-0.0129951
-0.0122515
-0.0115216
-0.0108064
-0.010107
-0.0094243
-0.00875973
-0.00811422
-0.00748834
-0.00688248
-0.0062969
-0.00573161
-0.0051864
-0.00466084
-0.00415431
-0.00366606
-0.00319525
-0.00274099
-0.00230243
-0.00187879
-0.0014694
-0.00107378
-0.000691658
-0.000322933
3.24409e-05
0.000374647
0.000703707
0.00101885
0.00131882
0.00160273
0.00186875
0.00211655
0.00234142
0.00255109
0.00273369
0.00293235
0.00312685
0.00337568
0.00358687
0.00401889
0.00463594
0.00490503
0.00496002
0.00494198
0.00496928
0.00502435
0.00506272
0.00515335
0.00513402
0.00509405
0.00512738
0.00512286
0.00508752
0.00504289
0.00499115
0.0049268
0.00485208
0.00476621
0.00466974
0.00456393
0.00444993
0.00432848
0.00420014
0.00406564
0.00392462
0.00377772
0.00362097
0.00346615
0.00328169
0.00308179
0.00282481
0.00260916
0.00240828
0.00217981
0.00194554
0.00170577
0.00148963
0.00118867
0.0009501
0.000800582
0.000631625
0.00024488
-0.000132635
-0.000406437
-0.0006908
-0.000985276
-0.00127979
-0.00159397
-0.00194314
-0.00226308
-0.00259514
-0.002919
-0.00323822
-0.00359999
-0.00398079
-0.00432608
-0.00471799
-0.00497626
-0.0055574
-0.00584112
-0.00616101
-0.00650089
-0.00684605
-0.00716675
-0.00744587
-0.00768295
-0.00788202
-0.00795403
-0.00798844
-0.00794941
-0.00777927
-0.00705732
-0.00616169
-0.00512324
-0.00422996
-0.0033256
-0.00331516
-0.0119549
-0.0134602
-0.0149422
-0.01631
-0.0176265
-0.0189128
-0.0201489
-0.0213242
-0.0224426
-0.0235087
-0.024524
-0.0254883
-0.0264018
-0.0272653
-0.0280795
-0.0288451
-0.0295629
-0.0302335
-0.0308578
-0.0314364
-0.0319703
-0.0324601
-0.0329066
-0.0333108
-0.0336735
-0.0339954
-0.0342775
-0.0345205
-0.0347252
-0.0348925
-0.0350229
-0.035118
-0.0351769
-0.0352033
-0.0351931
-0.0351567
-0.0350811
-0.0349901
-0.0348498
-0.0347019
-0.0345273
-0.034279
-0.0339972
-0.0337093
-0.0334024
-0.0330639
-0.0326947
-0.0322982
-0.0318757
-0.0314266
-0.0309512
-0.0304498
-0.0299231
-0.0293717
-0.0287963
-0.0281975
-0.0275763
-0.0269336
-0.0262705
-0.0255883
-0.0248882
-0.0241718
-0.0234405
-0.0226961
-0.0219403
-0.0211749
-0.0204018
-0.0196229
-0.0188402
-0.0180556
-0.017271
-0.0164883
-0.0157094
-0.0149361
-0.0141701
-0.013413
-0.0126665
-0.0119319
-0.0112107
-0.0105043
-0.00981383
-0.00914021
-0.00848433
-0.00784718
-0.00722951
-0.00663184
-0.00605449
-0.00549752
-0.00496077
-0.00444382
-0.00394605
-0.00346671
-0.00300489
-0.00255967
-0.00213012
-0.00171536
-0.00131466
-0.000927408
-0.000553195
-0.000191759
0.000156994
0.000492959
0.00081593
0.00112554
0.00142098
0.00170168
0.00196646
0.00221585
0.00244793
0.00266918
0.00287364
0.00308758
0.00328166
0.00355298
0.0038186
0.00414588
0.00454806
0.00480671
0.00489847
0.00493079
0.00497892
0.00504165
0.00509165
0.00513374
0.00514665
0.00514216
0.00514569
0.00513649
0.00510498
0.00505989
0.00500522
0.00494329
0.00486961
0.00478463
0.00468936
0.00458503
0.00447258
0.0043526
0.00422532
0.00409116
0.00394907
0.00380021
0.00364088
0.00348081
0.00329895
0.00310339
0.00285657
0.00264663
0.00244672
0.00222837
0.00200233
0.00176649
0.00154225
0.00126175
0.00103289
0.000849073
0.000649774
0.000289943
-4.0376e-05
-0.000317242
-0.000592986
-0.000881294
-0.00117849
-0.00148446
-0.0018078
-0.00212593
-0.00244483
-0.0027635
-0.00308449
-0.00342125
-0.00377209
-0.00411171
-0.00446437
-0.00480173
-0.00517182
-0.00549437
-0.00580479
-0.00611283