/*--------------------------------*- C++ -*----------------------------------*\
  =========                 |
  \\      /  F ield         | OpenFOAM: The Open Source CFD Toolbox
   \\    /   O peration     | Website:  https://openfoam.org
    \\  /    A nd           | Version:  10
     \\/     M anipulation  |
\*---------------------------------------------------------------------------*/
FoamFile
{
    format      ascii;
    class       volScalarField;
    location    "6";
    object      p;
}
// * * * * * * * * * * * * * * * * * * * * * * * * * * * * * * * * * * * * * //

dimensions      [0 2 -2 0 0 0 0];

internalField   nonuniform List<scalar> 
28942
(
-0.00178791
-0.000531566
0.00506494
0.0132404
0.013533
0.000344852
0.000866486
0.000113471
0.00644954
0.00649722
0.000934403
0.000778486
8.3188e-05
9.79861e-05
0.000515293
0.000877566
0.0131379
0.0134047
0.00890804
0.0103898
0.0113655
0.0113748
-0.00348726
-0.00290834
-0.00181124
-0.00191293
0.0171453
0.0170911
0.00670417
0.00672119
5.59587e-05
9.25317e-05
0.00212188
0.000930948
0.0103714
0.0115718
0.0140874
0.0160654
0.000138495
0.0183156
0.0128325
0.0153105
0.00501654
0.0049761
0.00502243
0.000679028
0.00057257
0.000557781
0.000624868
0.00105203
0.00181542
0.00656768
0.0066327
0.00653531
0.00668352
0.000399193
0.00162244
-0.000543457
-0.000410814
-0.000873021
-0.000828098
-0.00060456
-0.000569947
0.00251877
0.000384303
0.00267284
0.00416575
0.012678
0.0121866
-0.000549608
-0.00110265
-0.00089581
0.0122132
0.0120827
0.0123798
0.00127739
0.00188812
0.00246068
0.00555206
0.00600043
0.00481355
0.00355111
-0.00483631
-0.00645334
0.00387687
0.00669555
0.0078015
0.00866912
0.00694822
0.00722476
0.00928394
0.00852887
0.0030274
0.00235227
0.00174926
0.00195965
0.00251525
0.00851643
0.00986221
-0.0067527
0.0150357
0.0142317
0.00957609
0.0131053
0.00522238
0.00523932
0.0051061
0.0088338
0.00903038
0.00900185
-0.000377936
-0.000341627
-0.000749932
6.46944e-05
0.000235991
0.0190545
0.0170599
0.0164912
0.0181246
0.00456095
0.00785367
0.00646937
0.00830299
0.00802507
0.0187449
0.0190279
0.0176738
0.00921249
0.0102777
0.000563166
0.00066944
0.000429771
0.0137916
0.014292
0.0114316
0.0110276
0.0165107
0.0098946
0.0112149
0.0122338
0.00180766
0.000909357
0.0106657
0.0050444
0.00503307
0.0019787
0.00219963
0.00269011
0.000763013
0.00971921
0.00883003
0.00653018
0.000537727
0.000445506
0.00030897
0.000475878
0.0106972
0.0100327
0.0014387
0.00145032
0.00177133
-0.00275897
-0.00181597
0.000300208
-0.000777993
0.00170884
0.0115993
0.0116869
0.0128166
0.0123571
0.0109277
0.00681826
0.00674818
0.00692844
0.00685042
0.00845819
0.0082402
0.0085429
0.00875268
0.0086728
0.00869667
0.00888514
0.00940251
0.00911611
0.00870725
0.00902089
0.00971733
0.0104247
0.0107325
0.00424981
0.00423757
0.000557466
0.000557953
0.00040245
0.000792172
0.00112408
0.000783111
0.000703242
0.000663227
0.000657621
0.00405096
0.00404576
0.00402532
-6.81788e-05
-0.00027429
0.000521194
-0.00201943
-0.00277306
-0.00148701
-0.00262731
-0.00467916
-0.00285575
0.0192505
0.0199714
0.0197266
0.00532319
0.00539049
0.00532449
0.0136316
0.0132078
0.0132851
0.00328409
0.00324809
0.00331982
0.00321193
0.00317577
0.00313965
0.00314079
0.00310353
0.00310533
0.00317644
0.00321264
0.00324868
0.00328491
0.00332044
0.00306775
0.00306962
0.00335565
0.00335649
0.00339197
0.00303208
0.00303335
0.00339265
0.00299607
0.00296004
0.00299722
0.0029611
0.00342706
0.00342814
0.00292393
0.00292493
0.0034624
0.00346401
0.00288784
0.00288874
0.00349795
0.00349981
0.00285171
0.00285253
0.0035336
0.00353547
0.00281558
0.00281629
0.00356923
0.00357111
0.00277939
0.00278002
0.00360513
0.00360635
0.00274316
0.00274373
0.00364057
0.00364167
0.00270684
0.00270735
0.00367656
0.00367736
0.00267042
0.00267065
0.00371216
0.00371287
0.00263417
0.00263336
0.00374858
0.00374892
0.00259702
0.00259612
0.00378486
0.00378506
0.00255841
0.00255844
0.00374796
0.00378434
0.00382151
0.0038213
0.00367579
0.00371205
0.00360439
0.00364044
0.00353323
0.0035688
0.0034619
0.00349761
0.00339004
0.00342611
0.00331927
0.003355
0.0032476
0.0032831
0.00317578
0.00321187
0.00310332
0.0031397
0.00303125
0.00306732
0.00295902
0.00299519
0.00288685
0.002923
0.00281458
0.00285075
0.00274226
0.00277844
0.00266988
0.00270609
0.0025962
0.00263353
0.00255853
0.00252018
0.00252025
0.00263384
0.00255914
0.00259672
0.0027076
0.00267091
0.00278027
0.00274402
0.00285265
0.00281647
0.00292496
0.00288883
0.00299719
0.0029611
0.00306939
0.00303329
0.00314143
0.00310569
0.00321308
0.00317743
0.00328504
0.00324901
0.00335688
0.00332113
0.00342842
0.00339235
0.00349993
0.0034642
0.00357127
0.00353562
0.00364244
0.00360685
0.00371355
0.0036779
0.00378466
0.00374897
0.00382079
0.00382077
0.0025204
0.00252103
0.00385802
0.00385709
0.00385706
0.00385804
0.0037476
0.00381951
0.00378353
0.00367557
0.00371164
0.00360436
0.00363994
0.00353325
0.00356883
0.00346193
0.00349762
0.00339044
0.00342621
0.00331875
0.00335474
0.00324714
0.00328321
0.0031756
0.00321106
0.00310329
0.00313949
0.0030313
0.00306731
0.00295919
0.00299526
0.00288699
0.0029231
0.00281471
0.00285086
0.00274237
0.00277854
0.00266994
0.00270615
0.00259644
0.00263344
0.00248177
0.00248228
0.00252136
0.00255921
0.00256041
0.00252303
0.00248338
0.002482
0.0026347
0.00259784
0.00270783
0.00267121
0.00278032
0.0027441
0.00285271
0.00281653
0.00292502
0.00288888
0.00299726
0.00296116
0.00306941
0.00303334
0.00314149
0.0031055
0.00321354
0.00317751
0.00328514
0.00324931
0.00335693
0.00332128
0.00342857
0.00339276
0.00350003
0.00346432
0.00357134
0.0035357
0.00364247
0.00360694
0.0037134
0.00367795
0.00378425
0.0037488
0.00385585
0.00382005
0.00385549
0.00389333
0.00389204
0.00389422
0.00248382
0.00248479
0.00389309
0.00389121
0.00392956
0.00392824
0.0038945
0.0025227
0.00248538
0.00244537
0.0024466
0.00388934
0.00392715
0.0039607
0.00392562
0.0038183
0.00385386
0.00374706
0.00378267
0.00367563
0.00371132
0.0036045
0.00363999
0.00353336
0.00356895
0.00346204
0.00349772
0.00339056
0.00342632
0.00331891
0.00335476
0.00324717
0.0032831
0.00317537
0.00321124
0.00310335
0.00313937
0.00303135
0.00306737
0.00295924
0.00299531
0.00288703
0.00292314
0.00281474
0.00285089
0.00274238
0.00277857
0.00266994
0.00270617
0.00259686
0.00263346
0.00255991
0.0024441
0.00244576
0.00244465
0.00244438
0.00256146
0.00248645
0.00252418
0.00263529
0.0025985
0.00270793
0.00267153
0.0027804
0.00274417
0.0028528
0.00281661
0.00292512
0.00288897
0.00299736
0.00296125
0.00306952
0.00303345
0.00314157
0.00310556
0.00321355
0.00317757
0.00328536
0.00324947
0.0033571
0.00332128
0.0034287
0.00339293
0.00350016
0.00346445
0.00357147
0.00353584
0.00364259
0.00360706
0.0037135
0.00367807
0.00378423
0.00374888
0.00385499
0.00381959
0.00392678
0.00389078
0.00396424
0.00396255
0.0039289
0.00393051
0.00244756
0.00244849
0.00396351
0.00396564
0.00400362
0.00399825
0.00399984
0.00401608
0.00405181
0.00393004
0.0039567
0.00398719
0.00388843
0.0039236
0.00381758
0.00385302
0.00374662
0.00378205
0.00367563
0.00371121
0.00360465
0.00364014
0.00353348
0.00356909
0.00346214
0.00349783
0.00339065
0.00342641
0.00331902
0.00335485
0.00324727
0.00328316
0.0031754
0.00321135
0.00310343
0.00313943
0.00303139
0.00306742
0.00295926
0.00299534
0.00288704
0.00292316
0.00281475
0.00285091
0.00274238
0.00277858
0.00266994
0.00270617
0.00259719
0.00263356
0.00252378
0.00256064
0.00244904
0.00248651
0.00240818
0.00241107
0.00240947
0.00240685
0.00240718
0.00240762
0.00240697
0.00241063
0.00240892
0.00248791
0.00241316
0.00245047
0.00256225
0.00252524
0.00263548
0.00259895
0.00270802
0.00267175
0.0027805
0.00274427
0.0028529
0.00281671
0.00292523
0.00288908
0.00299748
0.00296137
0.00306964
0.00303357
0.0031417
0.00310568
0.00321366
0.00317769
0.00328551
0.0032496
0.00335725
0.0033214
0.00342886
0.00339307
0.00350033
0.00346462
0.00357165
0.00353602
0.00364279
0.00360725
0.00371373
0.00367829
0.00378444
0.00374912
0.00385495
0.00381972
0.0039256
0.0038902
0.00399677
0.00396121
0.00403397
0.00403239
0.0039646
0.00396598
0.00399913
0.00400107
0.00245028
0.00241275
0.00237291
0.00237446
0.00403889
0.00403535
0.00407332
0.00402141
0.00406952
0.00406808
0.0040566
0.00396537
0.00395689
0.00398957
0.00388824
0.00392312
0.00381735
0.00385286
0.00374668
0.00378202
0.00367584
0.0037113
0.00360484
0.00364036
0.00353364
0.00356926
0.00346228
0.00349798
0.00339077
0.00342654
0.00331913
0.00335497
0.00324736
0.00328326
0.00317549
0.00321144
0.00310351
0.00313951
0.00303145
0.00306749
0.00295931
0.00299539
0.00288709
0.00292321
0.00281479
0.00285095
0.00274241
0.00277861
0.00266997
0.0027062
0.00259743
0.0026337
0.00252447
0.00256092
0.00248741
0.0023708
0.00237318
0.00237173
0.00236988
0.00237041
0.00237057
0.00237021
0.00237141
0.00248912
0.00241427
0.00245212
0.00256271
0.00252606
0.00263559
0.00259926
0.00270814
0.00267187
0.00278062
0.00274439
0.00285303
0.00281683
0.00292536
0.0028892
0.00299761
0.00296149
0.00306977
0.0030337
0.00314185
0.00310583
0.00321382
0.00317785
0.00328568
0.00324976
0.00335743
0.00332157
0.00342905
0.00339326
0.00350054
0.00346482
0.00357188
0.00353623
0.00364304
0.00360748
0.00371401
0.00367855
0.00378476
0.00374941
0.00385525
0.00382004
0.00392555
0.00389042
0.00399588
0.00396056
0.00406673
0.0040313
0.00410384
0.00410241
0.00399948
0.00400106
0.00237457
0.00237641
0.0040357
0.004076
0.00407465
0.00403591
0.00407047
0.00408983
0.00412059
0.00411185
0.00410489
0.00413926
0.00413824
0.0040004
0.00402589
0.00409656
0.00406198
0.00395791
0.00399178
0.00388835
0.00392358
0.00381769
0.00385303
0.00374701
0.00378238
0.00367613
0.0037116
0.00360507
0.00364062
0.00353384
0.00356948
0.00346246
0.00349817
0.00339092
0.00342671
0.00331926
0.00335511
0.00324748
0.00328339
0.00317559
0.00321155
0.00310361
0.00313961
0.00303153
0.00306758
0.00295938
0.00299547
0.00288715
0.00292328
0.00281484
0.002851
0.00274246
0.00277866
0.00267001
0.00270624
0.00259749
0.00263376
0.00252474
0.00256117
0.00245107
0.00248805
0.00237575
0.00241383
0.00233544
0.00233752
0.00233621
0.0023341
0.0023346
0.00233368
0.00233371
0.00233388
0.00233378
0.00233544
0.00233454
0.00233875
0.00233686
0.00241563
0.00234063
0.00237823
0.00248991
0.00245305
0.00256307
0.00252657
0.00263571
0.00259942
0.00270827
0.002672
0.00278075
0.00274452
0.00285316
0.00281697
0.0029255
0.00288934
0.00299776
0.00296164
0.00306993
0.00303386
0.00314201
0.00310599
0.003214
0.00317802
0.00328587
0.00324995
0.00335764
0.00332177
0.00342928
0.00339347
0.00350078
0.00346505
0.00357214
0.00353648
0.00364332
0.00360776
0.00371432
0.00367885
0.00378511
0.00374975
0.00385567
0.00382042
0.00392597
0.00389086
0.00399603
0.003961
0.00406598
0.00403103
0.00413671
0.00410124
0.00417357
0.00417228
0.00403504
0.00412814
0.00407171
0.00237718
0.00233962
0.00230093
0.00230249
0.00403583
0.0040706
0.00410831
0.00410539
0.00414019
0.00417469
0.00420873
0.00420751
0.00403538
0.00409863
0.00416138
0.00416558
0.00413214
0.00402858
0.00406407
0.00395873
0.00399333
0.00388876
0.00392404
0.00381814
0.00385346
0.00374739
0.00378279
0.00367645
0.00371194
0.00360535
0.00364092
0.00353408
0.00356974
0.00346267
0.00349839
0.00339111
0.0034269
0.00331943
0.00335528
0.00324763
0.00328354
0.00317572
0.00321169
0.00310372
0.00313973
0.00303164
0.00306769
0.00295947
0.00299556
0.00288723
0.00292336
0.00281491
0.00285108
0.00274252
0.00277872
0.00267006
0.0027063
0.00259754
0.00263381
0.00252494
0.00256126
0.00245171
0.00248838
0.00241457
0.0022981
0.00229987
0.0022988
0.00229749
0.00229783
0.00229752
0.00229745
0.00229763
0.00229757
0.00229844
0.00229799
0.00229949
0.00241696
0.00234216
0.00237969
0.00249033
0.00245375
0.00256324
0.00252687
0.00263585
0.00259955
0.00270841
0.00267214
0.0027809
0.00274466
0.00285331
0.00281712
0.00292566
0.0028895
0.00299792
0.0029618
0.00307011
0.00303403
0.0031422
0.00310617
0.0032142
0.00317821
0.00328609
0.00325016
0.00335787
0.003322
0.00342953
0.00339372
0.00350106
0.00346532
0.00357244
0.00353677
0.00364365
0.00360807
0.00371469
0.0036792
0.00378552
0.00375013
0.00385613
0.00382085
0.0039265
0.00389135
0.00399658
0.00396158
0.00406636
0.00403151
0.00413619
0.00410118
0.0042065
0.00417134
0.0041475
0.00415464
0.00424274
0.0042415
0.00407044
0.00230217
0.00230407
0.0041985
0.0040705
0.00419589
0.00410633
0.00410524
0.00414084
0.00414001
0.00417474
0.00420928
0.00424353
0.00427763
0.00427663
0.00407034
0.0041681
0.00423174
0.00423527
0.00420186
0.00409939
0.00413397
0.00402957
0.00406451
0.00395938
0.00399437
0.00388922
0.00392446
0.00381858
0.00385392
0.00374778
0.00378321
0.0036768
0.00371231
0.00360566
0.00364125
0.00353436
0.00357003
0.00346291
0.00349865
0.00339132
0.00342713
0.00331961
0.00335548
0.00324779
0.00328372
0.00317587
0.00321184
0.00310385
0.00313987
0.00303175
0.00306782
0.00295957
0.00299567
0.00288732
0.00292346
0.00281499
0.00285116
0.00274259
0.0027788
0.00267013
0.00270637
0.0025976
0.00263387
0.00252502
0.00256131
0.00245215
0.00248867
0.00237843
0.00241534
0.00230354
0.0023414
0.00226285
0.00226548
0.00226394
0.00226153
0.00226197
0.00226122
0.00226127
0.0022613
0.00226125
0.00226139
0.00226135
0.00226187
0.0022615
0.00226327
0.0022624
0.00226623
0.0022644
0.00234344
0.00226808
0.00230594
0.00241766
0.0023807
0.00249069
0.00245431
0.00256338
0.00252706
0.00263601
0.0025997
0.00270857
0.0026723
0.00278106
0.00274482
0.00285348
0.00281728
0.00292583
0.00288967
0.00299811
0.00296198
0.0030703
0.00303422
0.00314241
0.00310637
0.00321442
0.00317843
0.00328633
0.00325039
0.00335813
0.00332225
0.00342982
0.00339399
0.00350137
0.00346561
0.00357278
0.00353709
0.00364403
0.00360842
0.0037151
0.00367959
0.00378597
0.00375056
0.00385663
0.00382133
0.00392705
0.00389187
0.00399722
0.00396217
0.00406707
0.00403219
0.00413662
0.00410188
0.00420604
0.00417127
0.00427557
0.00424082
0.00418392
0.00419136
0.00431165
0.00431068
0.00410541
0.00410509
0.00426844
0.00426512
0.00422944
0.00413994
0.00413976
0.00230484
0.0022675
0.00222854
0.00223026
0.00417441
0.00417443
0.00420906
0.00424368
0.00427812
0.00431229
0.00430125
0.00430461
0.00433757
0.00434643
0.00434569
0.00433441
0.00410504
0.00423862
0.00427218
0.00416911
0.00420362
0.00410008
0.00413492
0.00403009
0.00406499
0.00396006
0.0039951
0.00388972
0.00392495
0.00381906
0.00385441
0.00374821
0.00378366
0.00367719
0.00371273
0.003606
0.00364162
0.00353466
0.00357035
0.00346318
0.00349894
0.00339156
0.00342739
0.00331983
0.00335571
0.00324798
0.00328392
0.00317604
0.00321203
0.00310401
0.00314004
0.00303189
0.00306796
0.0029597
0.0029958
0.00288743
0.00292357
0.00281509
0.00285127
0.00274268
0.0027789
0.00267021
0.00270646
0.00259768
0.00263395
0.00252509
0.00256139
0.00245243
0.00248878
0.0023792
0.00241587
0.00234222
0.00222561
0.00222779
0.00222643
0.00222503
0.00222533
0.00222499
0.00222498
0.00222506
0.00222502
0.00222517
0.00222511
0.00222537
0.00222523
0.00222639
0.00222582
0.00222728
0.00234455
0.00226988
0.00230735
0.00241809
0.00238135
0.00249087
0.00245452
0.00256355
0.00252722
0.00263618
0.00259987
0.00270874
0.00267247
0.00278124
0.002745
0.00285367
0.00281746
0.00292602
0.00288986
0.00299831
0.00296218
0.00307051
0.00303442
0.00314263
0.00310659
0.00321466
0.00317866
0.0032866
0.00325064
0.00335842
0.00332252
0.00343013
0.00339429
0.00350171
0.00346594
0.00357315
0.00353745
0.00364444
0.00360882
0.00371555
0.00368002
0.00378647
0.00375104
0.00385718
0.00382186
0.00392766
0.00389245
0.00399789
0.00396281
0.00406782
0.0040329
0.00413741
0.00410267
0.00420666
0.00417207
0.00427558
0.00424117
0.00434489
0.00430993
0.00429841
0.00438061
0.00438132
0.00441533
0.00441483
0.00437972
0.00421806
0.00422895
0.00413991
0.00413961
0.00222986
0.00223176
0.00426407
0.00417395
0.00417417
0.00420869
0.00420873
0.00424329
0.00427783
0.0043124
0.00434696
0.00437029
0.00437377
0.00440669
0.00441427
0.00444911
0.00444984
0.00440304
0.00436714
0.00433189
0.00441543
0.00444994
0.0041396
0.00430787
0.00434078
0.00423976
0.00427364
0.00417013
0.00420502
0.00410065
0.00413547
0.00403079
0.00406574
0.00396069
0.00399578
0.00389027
0.00392552
0.00381958
0.00385496
0.00374869
0.00378416
0.00367762
0.00371318
0.00360638
0.00364202
0.003535
0.00357071
0.00346348
0.00349926
0.00339183
0.00342767
0.00332007
0.00335596
0.0032482
0.00328415
0.00317623
0.00321223
0.00310418
0.00314022
0.00303204
0.00306812
0.00295983
0.00299595
0.00288755
0.0029237
0.0028152
0.00285139
0.00274279
0.002779
0.00267031
0.00270656
0.00259777
0.00263405
0.00252517
0.00256148
0.00245253
0.00248886
0.00237963
0.00241616
0.00230611
0.00234294
0.00223136
0.00226882
0.00219064
0.00219357
0.00219198
0.00218903
0.00218948
0.00218871
0.00218877
0.00218874
0.00218873
0.0021888
0.00218877
0.00218892
0.00218886
0.0021891
0.00218899
0.00218966
0.00218938
0.00219116
0.00219024
0.00219371
0.00219234
0.00227087
0.00219541
0.00223339
0.00234525
0.00230826
0.00241831
0.00238188
0.00249104
0.00245468
0.00256373
0.00252739
0.00263636
0.00260005
0.00270892
0.00267265
0.00278143
0.00274518
0.00285386
0.00281765
0.00292623
0.00289006
0.00299853
0.00296239
0.00307074
0.00303465
0.00314288
0.00310683
0.00321493
0.00317892
0.00328688
0.00325092
0.00335873
0.00332282
0.00343047
0.00339462
0.00350209
0.0034663
0.00357356
0.00353784
0.00364489
0.00360925
0.00371605
0.00368049
0.00378702
0.00375156
0.00385779
0.00382243
0.00392833
0.00389309
0.00399862
0.00396351
0.00406864
0.00403367
0.00413833
0.00410353
0.00420766
0.00417305
0.00427656
0.00424217
0.00434515
0.00431089
0.00437914
0.00425149
0.00426284
0.00448418
0.00448351
0.00417418
0.00417403
0.00429765
0.00420818
0.00420848
0.00223246
0.00219497
0.00215584
0.00215722
0.00424296
0.00424292
0.00427738
0.00431186
0.00434639
0.00438088
0.00443917
0.00444311
0.00447538
0.00447139
0.00443613
0.00440022
0.00436542
0.00444914
0.00448364
0.00451788
0.00451804
0.00417404
0.00437737
0.00441063
0.00430956
0.00434345
0.00424039
0.00427504
0.00417109
0.00420579
0.00410151
0.00413634
0.00403159
0.00406659
0.00396138
0.00399652
0.00389089
0.00392617
0.00382015
0.00385555
0.00374921
0.0037847
0.00367808
0.00371367
0.0036068
0.00364246
0.00353537
0.0035711
0.00346381
0.00349961
0.00339213
0.00342798
0.00332033
0.00335624
0.00324843
0.00328439
0.00317644
0.00321245
0.00310437
0.00314042
0.00303221
0.0030683
0.00295999
0.00299611
0.00288769
0.00292385
0.00281533
0.00285152
0.0027429
0.00277912
0.00267042
0.00270667
0.00259787
0.00263415
0.00252527
0.00256158
0.00245262
0.00248895
0.0023799
0.00241628
0.00230678
0.00234331
0.00226984
0.00215345
0.00215572
0.00215449
0.00215252
0.00215293
0.00215245
0.00215246
0.00215247
0.00215246
0.00215253
0.00215249
0.00215266
0.00215259
0.00215282
0.00215273
0.0021531
0.00215294
0.00215394
0.00215348
0.00215469
0.00227182
0.00219693
0.00223466
0.00234567
0.0023088
0.00241849
0.00238211
0.00249123
0.00245487
0.00256392
0.00252759
0.00263655
0.00260025
0.00270912
0.00267285
0.00278163
0.00274538
0.00285407
0.00281786
0.00292645
0.00289027
0.00299876
0.00296262
0.00307099
0.00303489
0.00314315
0.00310708
0.00321522
0.00317919
0.00328719
0.00325122
0.00335907
0.00332315
0.00343084
0.00339497
0.00350249
0.00346668
0.00357401
0.00353827
0.00364538
0.00360971
0.00371659
0.003681
0.00378762
0.00375213
0.00385845
0.00382306
0.00392906
0.00389378
0.00399942
0.00396427
0.00406952
0.00403451
0.00413931
0.00410445
0.00420876
0.00417408
0.00427781
0.00424334
0.00434638
0.00431217
0.00441453
0.00438047
0.00448309
0.00444886
0.00455178
0.00455161
0.00451736
0.0042853
0.00429742
0.00420848
0.00420835
0.00215709
0.00215897
0.0043315
0.00424236
0.00424267
0.00427711
0.004277
0.00431135
0.00434573
0.00438016
0.0044146
0.00450748
0.00451191
0.00454385
0.00455167
0.00458573
0.00458575
0.00453972
0.00450418
0.00446867
0.00443389
0.0043992
0.00448257
0.00451694
0.00455148
0.00458554
0.00420837
0.0044471
0.00447991
0.00437942
0.00441271
0.00431056
0.00434527
0.00424151
0.00427608
0.00417216
0.00420688
0.00410247
0.00413736
0.00403245
0.0040675
0.00396214
0.00399733
0.00389157
0.00392689
0.00382077
0.0038562
0.00374976
0.00378529
0.00367859
0.0037142
0.00360725
0.00364294
0.00353577
0.00357153
0.00346417
0.00349999
0.00339245
0.00342832
0.00332062
0.00335654
0.00324869
0.00328467
0.00317667
0.00321269
0.00310457
0.00314063
0.0030324
0.0030685
0.00296016
0.00299629
0.00288784
0.00292401
0.00281547
0.00285166
0.00274303
0.00277926
0.00267054
0.00270679
0.00259799
0.00263427
0.00252538
0.00256169
0.00245272
0.00248906
0.00238002
0.00241638
0.00230723
0.00234362
0.00223336
0.00227034
0.00215811
0.00219614
0.0021181
0.00212015
0.00211884
0.00211672
0.00211727
0.00211617
0.00211626
0.00211617
0.00211618
0.00211618
0.00211617
0.00211625
0.00211621
0.00211637
0.0021163
0.00211655
0.00211646
0.00211678
0.00211666
0.00211717
0.00211693
0.00211865
0.00211781
0.00212147
0.00211985
0.00219824
0.00212334
0.00216109
0.00227257
0.00223561
0.0023459
0.00230929
0.00241869
0.0023823
0.00249143
0.00245507
0.00256412
0.00252779
0.00263676
0.00260045
0.00270933
0.00267305
0.00278185
0.0027456
0.0028543
0.00281808
0.00292669
0.0028905
0.00299901
0.00296286
0.00307126
0.00303514
0.00314343
0.00310736
0.00321552
0.00317949
0.00328753
0.00325154
0.00335943
0.00332349
0.00343124
0.00339535
0.00350292
0.0034671
0.00357448
0.00353872
0.0036459
0.00361021
0.00371717
0.00368156
0.00378825
0.00375273
0.00385915
0.00382373
0.00392984
0.00389453
0.00400029
0.0039651
0.00407047
0.00403542
0.00414036
0.00410545
0.00420991
0.00417518
0.00427909
0.00424455
0.00434784
0.00431353
0.00441605
0.00438202
0.00448384
0.00445003
0.00451738
0.00431899
0.00433132
0.00461976
0.00462026
0.00424265
0.00424254
0.00436533
0.0042764
0.00427675
0.00215956
0.00212213
0.00208381
0.00208522
0.00431113
0.00431097
0.0043452
0.00437947
0.00441378
0.00444813
0.00457565
0.00458028
0.00461158
0.00460775
0.00457225
0.0045367
0.00450204
0.00446748
0.00443279
0.00451579
0.00455009
0.00458453
0.00461878
0.00465377
0.00465288
0.00424256
0.00451592
0.00454846
0.00444914
0.00448285
0.00438065
0.00441497
0.0043119
0.00434635
0.0042428
0.0042774
0.00417332
0.00420811
0.00410349
0.00413845
0.00403336
0.00406846
0.00396296
0.00399819
0.00389231
0.00392767
0.00382143
0.0038569
0.00375036
0.00378592
0.00367912
0.00371476
0.00360773
0.00364345
0.0035362
0.00357198
0.00346455
0.00350039
0.00339279
0.00342868
0.00332092
0.00335687
0.00324896
0.00328496
0.00317692
0.00321295
0.0031048
0.00314087
0.0030326
0.00306871
0.00296034
0.00299648
0.00288801
0.00292418
0.00281562
0.00285182
0.00274317
0.00277941
0.00267067
0.00270693
0.00259811
0.0026344
0.0025255
0.00256181
0.00245284
0.00248918
0.00238013
0.00241649
0.00230738
0.00234376
0.00223404
0.00227075
0.00219689
0.00208074
0.00208239
0.00208142
0.00208004
0.00208043
0.00207989
0.00207991
0.00207987
0.00207988
0.00207988
0.00207987
0.00207995
0.00207991
0.00208008
0.00208001
0.00208026
0.00208016
0.0020805
0.00208038
0.00208082
0.00208064
0.00208163
0.0020812
0.00208243
0.00219934
0.00212474
0.00216242
0.00227306
0.00223634
0.0023461
0.00230966
0.0024189
0.00238251
0.00249165
0.00245528
0.00256434
0.002528
0.00263697
0.00260066
0.00270955
0.00267327
0.00278207
0.00274582
0.00285454
0.00281831
0.00292694
0.00289074
0.00299927
0.00296311
0.00307154
0.00303541
0.00314373
0.00310765
0.00321585
0.0031798
0.00328788
0.00325188
0.00335982
0.00332386
0.00343166
0.00339575
0.00350338
0.00346754
0.00357499
0.00353921
0.00364646
0.00361075
0.00371778
0.00368214
0.00378894
0.00375338
0.00385991
0.00382445
0.00393067
0.00389532
0.00400121
0.00396597
0.00407149
0.00403638
0.00414148
0.00410652
0.00421115
0.00417636
0.00428046
0.00424585
0.00434935
0.00431496
0.00441777
0.00438362
0.00448562
0.00445178
0.00455292
0.00451934
0.00462053
0.00458641
0.00468737
0.00468785
0.00465404
0.00435261
0.00436515
0.0042767
0.00427661
0.0020846
0.00208699
0.00439932
0.00431032
0.0043107
0.00434504
0.0043448
0.00437892
0.00441307
0.00444725
0.00448149
0.00464336
0.00464854
0.00468009
0.00468891
0.00472246
0.00472148
0.00467545
0.00463994
0.00460453
0.00456997
0.00453533
0.00450082
0.00446643
0.00454885
0.00458307
0.00461738
0.00465174
0.00468576
0.00472029
0.00427662
0.00458552
0.00461742
0.00451884
0.0045519
0.00445062
0.00448504
0.00438223
0.00441649
0.00431341
0.00434788
0.00424416
0.00427884
0.00417453
0.00420939
0.00410458
0.0041396
0.00403434
0.0040695
0.00396384
0.00399912
0.00389309
0.00392849
0.00382214
0.00385764
0.003751
0.00378659
0.00367969
0.00371537
0.00360824
0.00364399
0.00353666
0.00357247
0.00346496
0.00350083
0.00339316
0.00342907
0.00332125
0.00335722
0.00324926
0.00328527
0.00317719
0.00321323
0.00310504
0.00314112
0.00303282
0.00306894
0.00296053
0.00299668
0.00288819
0.00292437
0.00281579
0.002852
0.00274333
0.00277956
0.00267081
0.00270708
0.00259825
0.00263454
0.00252563
0.00256195
0.00245297
0.00248931
0.00238025
0.00241661
0.00230749
0.00234387
0.00223449
0.00227106
0.00216073
0.00219763
0.00208575
0.00212357
0.00204541
0.0020474
0.00204634
0.00204411
0.00204457
0.00204367
0.0020438
0.00204359
0.00204362
0.00204355
0.00204357
0.00204357
0.00204355
0.00204364
0.00204359
0.00204377
0.00204369
0.00204395
0.00204385
0.0020442
0.00204407
0.00204449
0.00204435
0.00204491
0.00204466
0.00204644
0.00204555
0.00204953
0.00204778
0.00212606
0.0020513
0.00208879
0.00220019
0.00216341
0.00227346
0.00223682
0.00234633
0.00230991
0.00241912
0.00238273
0.00249187
0.0024555
0.00256456
0.00252822
0.0026372
0.00260089
0.00270978
0.0026735
0.00278231
0.00274606
0.00285478
0.00281856
0.0029272
0.002891
0.00299955
0.00296338
0.00307183
0.0030357
0.00314405
0.00310795
0.00321619
0.00318013
0.00328825
0.00325223
0.00336022
0.00332425
0.0034321
0.00339618
0.00350387
0.003468
0.00357553
0.00353972
0.00364705
0.00361131
0.00371844
0.00368277
0.00378966
0.00375407
0.00386071
0.00382521
0.00393156
0.00389616
0.00400219
0.0039669
0.00407257
0.00403741
0.00414268
0.00410766
0.00421247
0.00417762
0.00428191
0.00424724
0.00435096
0.00431649
0.00441955
0.00438531
0.00448763
0.00445366
0.00455506
0.00452145
0.00462192
0.00458857
0.00465506
0.00438612
0.00439877
0.00475496
0.00475635
0.00431062
0.00431055
0.00443277
0.00434412
0.00434452
0.00208705
0.00204986
0.00201193
0.00201365
0.00437884
0.0043785
0.0044125
0.00444652
0.00448058
0.00451469
0.00471175
0.00471684
0.00474821
0.00474274
0.00470752
0.00467208
0.00463751
0.0046028
0.00456827
0.00453386
0.00449959
0.00458175
0.00461585
0.00465002
0.00468426
0.00471863
0.00475296
0.00478923
0.00478742
0.00431055
0.00465399
0.00468525
0.0045887
0.00462197
0.00452094
0.00455432
0.00445253
0.00448696
0.00438401
0.00441831
0.00431501
0.00434957
0.00424559
0.00428035
0.00417582
0.00421075
0.00410574
0.00414082
0.00403538
0.00407059
0.00396476
0.0040001
0.00389393
0.00392937
0.00382289
0.00385843
0.00375167
0.0037873
0.0036803
0.003716
0.00360878
0.00364456
0.00353715
0.00357298
0.0034654
0.00350129
0.00339354
0.00342948
0.0033216
0.00335758
0.00324957
0.0032856
0.00317747
0.00321353
0.00310529
0.00314139
0.00303305
0.00306918
0.00296074
0.0029969
0.00288838
0.00292457
0.00281596
0.00285218
0.00274349
0.00277973
0.00267097
0.00270724
0.00259839
0.00263469
0.00252577
0.00256209
0.0024531
0.00248944
0.00238038
0.00241675
0.00230762
0.00234401
0.0022348
0.00227123
0.00216144
0.00219808
0.0021244
0.00200825
0.00200983
0.00200895
0.00200756
0.00200791
0.00200736
0.00200743
0.00200727
0.00200731
0.00200722
0.00200724
0.00200724
0.00200722
0.00200731
0.00200727
0.00200744
0.00200737
0.00200763
0.00200753
0.00200788
0.00200775
0.00200819
0.00200803
0.00200855
0.00200835
0.00200947
0.00200897
0.00201049
0.00212728
0.00205293
0.00209017
0.00220078
0.00216402
0.00227372
0.00223726
0.00234656
0.00231015
0.00241936
0.00238297
0.0024921
0.00245574
0.00256479
0.00252846
0.00263744
0.00260112
0.00271003
0.00267374
0.00278256
0.0027463
0.00285504
0.00281881
0.00292747
0.00289127
0.00299984
0.00296366
0.00307214
0.003036
0.00314438
0.00310827
0.00321655
0.00318048
0.00328864
0.00325261
0.00336065
0.00332466
0.00343257
0.00339662
0.00350439
0.00346849
0.00357609
0.00354026
0.00364768
0.0036119
0.00371913
0.00368342
0.00379042
0.0037548
0.00386155
0.00382601
0.00393249
0.00389705
0.00400322
0.00396789
0.00407372
0.0040385
0.00414394
0.00410887
0.00421387
0.00417895
0.00428346
0.00424871
0.00435266
0.00431812
0.00442143
0.00438711
0.00448971
0.00445564
0.0045574
0.00452364
0.00462441
0.00459101
0.00469074
0.00465766
0.00475744
0.00472365
0.00482187
0.00482369
0.00479058
0.0044195
0.00443243
0.00434442
0.00434437
0.00201215
0.00201497
0.00446616
0.00437781
0.00437821
0.0044125
0.00441206
0.00444593
0.00447982
0.00451375
0.00454772
0.00477934
0.00478531
0.00481639
0.00481108
0.00477528
0.00473973
0.00470488
0.00467
0.00463553
0.00460121
0.00456689
0.00453274
0.00461446
0.00464841
0.00468244
0.00471658
0.00475078
0.00478507
0.00481954
0.00482505
0.00485678
0.00485822
0.00434436
0.00472346
0.00475416
0.00465775
0.00469013
0.00459101
0.00462468
0.00452286
0.00455699
0.0044546
0.0044888
0.00438587
0.00442029
0.00431668
0.00435133
0.0042471
0.00428194
0.00417718
0.00421218
0.00410696
0.00414211
0.00403647
0.00407175
0.00396575
0.00400114
0.00389481
0.0039303
0.00382368
0.00385926
0.00375238
0.00378805
0.00368093
0.00371667
0.00360935
0.00364516
0.00353766
0.00357352
0.00346585
0.00350177
0.00339395
0.00342992
0.00332197
0.00335797
0.0032499
0.00328595
0.00317776
0.00321384
0.00310556
0.00314167
0.00303329
0.00306943
0.00296096
0.00299714
0.00288858
0.00292478
0.00281615
0.00285237
0.00274366
0.00277991
0.00267113
0.0027074
0.00259855
0.00263485
0.00252592
0.00256224
0.00245325
0.00248959
0.00238053
0.0024169
0.00230776
0.00234415
0.00223495
0.00227137
0.00216186
0.00219839
0.00208821
0.00212519
0.00201309
0.00205093
0.00197294
0.00197506
0.00197389
0.00197163
0.00197214
0.00197117
0.00197131
0.00197103
0.0019711
0.00197092
0.00197097
0.00197088
0.00197089
0.00197089
0.00197088
0.00197097
0.00197092
0.0019711
0.00197102
0.00197129
0.00197119
0.00197154
0.00197141
0.00197186
0.00197169
0.0019722
0.00197203
0.00197287
0.00197243
0.00197444
0.00197346
0.00197733
0.00197563
0.00205389
0.00197891
0.00201648
0.00212794
0.00209106
0.00220109
0.00216459
0.00227396
0.00223753
0.00234681