/*--------------------------------*- C++ -*----------------------------------*\
  =========                 |
  \\      /  F ield         | OpenFOAM: The Open Source CFD Toolbox
   \\    /   O peration     | Website:  https://openfoam.org
    \\  /    A nd           | Version:  10
     \\/     M anipulation  |
\*---------------------------------------------------------------------------*/
FoamFile
{
    format      ascii;
    class       surfaceScalarField;
    location    "6";
    object      phi;
}
// * * * * * * * * * * * * * * * * * * * * * * * * * * * * * * * * * * * * * //

dimensions      [0 3 -1 0 0 0 0];

internalField   nonuniform List<scalar> 
57492
(
0.000542739
-1.679e-05
-0.00010373
-0.000422219
-0.000508923
0.000637744
0.000413918
-3.12623e-05
8.91518e-05
0.000353015
-0.000410905
0.00316601
0.00338282
-0.000274503
-0.00627433
-0.00862829
0.00403815
0.00775615
0.001859
-0.00177564
-0.000929711
0.000846349
-0.00341058
0.000805181
-0.00037108
0.00297648
0.000614805
-0.00216638
0.000956365
-0.0043821
0.00417237
-0.00074663
0.000868847
0.00403465
-0.00394713
-0.00193262
-0.000581637
0.00186986
0.000644402
-0.00010621
-0.0018824
5.59885e-05
0.000869423
-0.000965297
-1.03355e-05
-0.000167902
0.000455689
0.00347778
-0.00325302
-0.00123078
0.00100601
0.000399158
0.00278194
0.000296683
-0.000342124
0.000806465
0.00332278
-0.00378712
-0.000672868
0.00324647
-0.00291573
0.00013495
-0.000290725
0.000155775
-0.00169317
0.00123664
0.000591482
-0.0046614
0.000231608
0.00335056
0.00107923
0.00119235
-0.00472842
-0.00112533
-9.99501e-05
-0.000626265
-0.00108866
0.00181488
-0.000513989
0.000443798
-2.97591e-05
-0.00356922
0.00280942
0.00119103
-0.000431232
-0.00373601
0.000619116
-0.000452327
-0.00110507
0.000580795
0.000451089
7.31826e-05
-0.000764891
-0.000353494
1.33185e-05
-0.000379634
-0.00118028
0.00136324
0.000196678
-0.000432843
0.000122854
-6.96445e-05
0.0019757
-0.0013281
-0.00124173
0.000594128
-0.00169656
0.00122113
0.00245113
-0.00216229
-0.00425264
0.00360406
0.00281087
-0.00445402
-0.00116452
0.00345625
-0.000718019
-0.000160564
0.000878583
-0.000277444
-0.000440575
-0.0013847
0.001916
-0.000808746
0.000205981
-0.000771689
-0.000818992
-0.00163734
0.00244252
-0.000234595
-0.00190614
0.00115358
0.00075256
-0.00433699
0.00243085
0.00449
-0.000474661
5.63597e-05
-0.0040717
0.00329959
-0.00035302
0.00154343
-0.00038449
0.00438581
-0.00447598
0.00344654
0.000633118
-0.00346485
0.00338222
-0.000306756
0.00382674
-0.00141897
-0.0027986
0.000390826
0.00430506
0.000154804
0.00232181
-0.00134325
0.00240366
0.00183368
0.0034646
-0.00423117
-0.000644995
0.000613748
0.00426242
-0.00436948
-0.000360237
0.000498551
0.000637744
0.00428248
-0.00423216
-0.000688064
0.000333835
-0.00407819
-0.00483783
0.00300207
0.00383345
-0.00199769
-0.00173201
0.00375697
-0.00686278
-5.50649e-05
-0.000385247
1.84919e-05
0.00042182
-0.000780565
-0.000239797
0.00024654
-0.000282034
-0.00074507
-0.000179098
4.03904e-05
0.000101277
-8.27855e-05
2.92317e-05
7.20457e-05
0.00815763
0.00358621
-0.00636516
-0.00537867
0.00194764
-0.000452939
0.00666293
-0.0083979
0.00253531
0.00781023
0.00183523
-0.00664693
0.0015827
-0.00286565
0.00214878
-0.000865829
0.0023823
-0.00292009
0.0021205
-7.62714e-05
6.688e-05
-7.39868e-06
-0.000163749
-1.62519e-05
-0.00051
-7.59687e-05
-0.00298926
0.00544524
0.00330012
-0.0057561
0.00428301
-0.00488997
0.00285911
0.0048695
-0.00228337
0.0112423
-0.00267516
-0.000918214
-0.0076489
0.000932078
0.00626051
0.00404969
0.000792388
-0.00593601
0.0060757
5.13317e-05
-8.25941e-05
0.000140484
0.000915443
0.00185712
-0.000661991
-0.00211057
0.00115483
0.000113632
-0.000173691
5.72599e-05
0.000116431
-0.000457939
0.000284248
-0.00696085
0.00321586
-0.00200308
0.00574807
-0.00588626
-0.00291136
0.00183677
-0.00267222
0.00224134
-0.00545538
0.00205361
-2.13616e-05
-0.000980535
-0.00105172
-0.000745453
0.00233415
0.000464912
-0.000878205
-8.83184e-05
0.00022107
-0.000807991
-9.1575e-05
-0.000279842
-0.00150869
-0.00123951
-0.000375211
7.57236e-05
0.001539
-0.000918731
-0.00205795
0.00173717
0.000869984
0.000139522
-0.00192824
0.000555512
-6.07392e-05
0.00071369
-8.24537e-05
-0.00066526
0.000385418
8.18208e-05
-0.000747081
0.000211171
-0.00066911
0.00427396
0.00333138
-0.000178618
0.00212756
-0.00648189
-2.36946e-05
0.00227806
-0.00179989
-0.000454476
0.000263701
0.00318522
-0.00347261
0.0028288
0.00197641
-0.000833537
-0.00397168
-0.000628901
0.000105597
0.00335211
0.00380297
-0.00245546
-0.0015651
-0.00302734
0.00111747
0.00347497
-0.00126711
0.00350783
-0.00380582
0.000325897
-0.00462035
0.000440717
0.000288644
-1.58295e-05
0.00205544
-0.00107728
-0.00148708
0.000591925
-0.00128839
0.0027519
0.00116478
6.48872e-05
-0.000185383
0.000333358
6.81009e-05
-0.000216076
0.000996774
-0.00122193
3.97701e-05
-0.000359564
0.000836428
0.00051991
-0.000125825
9.96193e-05
-0.00660754
0.00332285
0.00650055
0.00767968
-0.00229816
-0.00829288
-0.00317313
0.00424527
-9.52941e-05
-0.000898333
-0.000186656
-0.000538612
1.04747e-05
4.40173e-05
-0.000131004
4.2242e-05
4.47445e-05
-0.000127258
0.000138072
3.32032e-05
-0.000287673
2.94121e-05
-0.000276282
-0.000320438
5.81076e-05
-0.000833367
-0.000341248
-0.00180859
-0.0019659
0.00230224
0.00147224
9.18016e-05
0.000893352
-0.00279374
-0.00260737
0.000733274
-0.00296697
0.0013285
-5.46958e-05
-0.00350747
0.000775915
-0.000235424
0.000825348
-0.0033548
0.00259748
-6.80257e-05
0.000632479
-0.00278536
0.00297823
0.00250828
-0.0102001
-0.00183105
0.00223433
0.00304325
-0.00354581
0.00210358
-0.000348142
-0.00019814
0.000337663
-0.000217151
1.90105e-05
0.000291719
-4.14854e-05
0.00478918
-0.00293849
-0.00231369
0.000463005
0.00418644
0.000218245
0.00567224
-0.001318
-0.00608626
0.000372607
0.00400057
0.00129906
-0.000143528
-0.0038841
0.00440024
9.46638e-06
-0.000226617
0.000765842
-0.00219271
-0.0029581
0.00132594
0.00324955
0.00215635
-0.000129751
-0.00226344
0.00023684
0.000660758
-0.000200962
-0.00270356
0.000449556
0.00347513
0.000409128
-0.00245193
-0.000131502
4.23766e-05
-0.000180903
0.000151247
3.84862e-05
-8.83039e-06
6.3061e-05
3.1179e-06
-0.000247082
8.1416e-05
-0.000729932
0.000711577
-0.00264508
0.00388616
-0.00102991
0.00315739
-0.00485429
-0.00094818
-6.9354e-05
-0.00344302
0.00396193
-0.00456844
0.000379489
-0.00307349
-0.00220225
0.000707305
0.00276252
0.00286499
-0.00539591
0.00251745
0.00437781
-0.00413274
0.00222859
-0.00307713
0.00160713
-0.000758597
0.00243797
-0.00301841
0.00280904
0.00441352
0.00180202
0.00453608
-0.000285685
-0.00453821
0.000287819
0.00498241
-0.000666599
0.000220267
0.00530049
-0.000565508
-0.000237181
-0.0044978
0.00380733
-0.00101013
0.00250329
0.00429183
-0.00123365
0.000972438
-0.00403062
0.00105888
0.00437391
-0.00114097
-0.00388084
-0.00150598
0.00415316
0.000929624
-0.00369299
-0.00165494
0.00362394
-0.0021519
-0.00327406
0.00190945
0.00351651
-0.00220171
-0.00331244
0.00336226
0.0020661
0.00310967
-0.00133535
-0.00384042
0.00308886
-0.00322447
-0.00238752
0.00236822
0.00310816
-0.00189942
0.00262157
-0.00409186
0.00364672
-0.000890217
-0.00512123
0.000906399
0.00541966
-0.00120483
0.00180974
-0.00109648
0.00254885
-0.00268967
0.0012373
-0.00069093
0.00279591
-0.00320147
-9.4855e-05
0.000712862
0.000546776
-0.00258158
-0.00359404
0.00226768
-3.51609e-05
3.82788e-05
1.44434e-06
-3.66053e-05
-0.000287388
-0.00416656
0.00311069
-0.00345937
-0.000211286
0.00338327
0.000168262
-0.00362979
2.16233e-06
-0.00040687
0.00184945
0.000434891
-0.00187747
0.00198628
0.000411346
-0.00280449
0.00183452
0.00200121
-2.09078e-05
3.87386e-05
0.000270813
3.53084e-05
-5.62162e-05
7.40471e-05
-1.5571e-05
3.01893e-05
-0.000193717
1.22058e-05
-2.77768e-05
4.23951e-05
-7.89398e-05
4.19662e-05
-0.000477015
4.75223e-05
-0.000126462
8.94884e-05
5.33036e-05
-5.40364e-06
-0.000173725
-1.69329e-05
7.02364e-05
-2.23365e-05
0.00098048
0.00287889
-0.00375378
0.00145972
-0.00409045
0.00361121
0.00399826
0.000340353
-0.00117196
-0.00243454
0.00114857
0.00245793
-0.000713463
0.00271616
-0.00317465
0.000150352
-0.00329836
0.00391611
-0.003954
-1.2151e-05
5.00387e-05
0.00391359
3.56025e-05
-3.30822e-05
-2.42747e-05
-0.00394898
1.92555e-05
0.00394208
-1.02893e-06
-2.74559e-05
0.00401135
5.74427e-05
-0.000126721
2.82692e-05
0.00411047
-0.000127386
0.00406106
-0.00403783
5.03434e-06
-0.000191012
0.00430162
-1.34744e-07
0.00394733
-7.72803e-05
-0.00391499
-6.54017e-05
-0.00390232
-1.36906e-05
-0.00389774
3.10198e-05
-0.00398226
7.23665e-05
-0.00391807
-8.84618e-05
-0.000185189
0.00448722
-4.1744e-07
0.00376225
-1.02038e-07
-1.93446e-05
-0.00391671
-1.29234e-05
-0.00395092
1.3501e-05
-2.75755e-05
-0.00414378
0.00025464
6.08209e-08
0.00448722
-5.93564e-08
0.00376285
-5.44803e-07
-0.0040969
0.000118404
0.00448734
2.31025e-07
-3.51819e-07
1.15752e-07
0.00448723
-1.80088e-09
0.00376314
-5.89393e-08
0.00376377
-5.10926e-07
-2.32879e-05
-0.0041197
-7.86378e-07
-0.00411975
-4.36094e-07
3.46382e-07
0.00448718
-3.00068e-07
0.00376413
-1.90677e-08
-6.25191e-08
-0.00411908
-5.55886e-07
-0.00411889
-9.2106e-07
3.41321e-07
0.00448678
6.07421e-08
0.00376496
-4.80932e-07
3.50233e-08
-0.00411823
-8.83044e-07
-0.0041183
-5.58618e-07
8.08108e-07
0.00448623
-2.56322e-07
0.00376575
1.8581e-08
-1.04539e-07
-0.0041175
-6.29989e-07
-0.00411735
-1.04884e-06
1.26034e-06
0.00448486
1.13411e-07
0.00376746
-4.54988e-07
1.59195e-08
-0.00411659
-9.28913e-07
-0.00411662
-7.13187e-07
2.65601e-06
0.00448242
-2.16446e-07
0.00377006
5.39048e-08
9.40699e-06
-0.00412533
-6.66815e-07
-0.00410599
-1.22304e-06
4.94825e-06
0.0044773
1.63017e-07
0.00377544
-4.25717e-07
2.67295e-05
-0.00400879
-0.000143265
-0.00403579
-4.34761e-05
1.00285e-05
0.00446745
-1.75389e-07
0.0037679
1.75638e-05
2.6471e-05
-0.00402802
-7.24545e-06
-0.00400576
-3.55468e-06
1.96117e-05
0.00444762
2.15714e-07
0.00374141
4.61019e-05
5.71006e-05
-0.00388647
-0.000198648
-0.00389048
-5.81823e-05
0.000190713
0.00425704
-1.24702e-07
0.00385515
7.69705e-05
6.5842e-05
-0.0038695
-8.28145e-05
-0.00384839
2.37552e-05
0.000168387
0.0039431
0.000145547
0.00391864
0.000104897
0.000105193
-0.000147721
-0.00382697
-0.00383389
9.06955e-05
1.17895e-05
3.81231e-05
0.00389319
0.00389308
3.73544e-05
-0.00388345
0.00394396
-0.000143316
-0.00390599
-0.000125189
0.000179944
-0.000155715
-0.0038512
9.15762e-05
-0.00374553
-0.00385911
0.0038925
-4.06307e-05
-0.000113807
-0.00375117
0.00375214
-1.63426e-06
-1.93634e-06
-0.00375306
0.00375395
-1.51827e-06
-1.85485e-06
-0.0037548
0.0037556
-1.36458e-06
-1.72688e-06
-0.00375639
0.00401223
-1.20356e-06
-1.56842e-06
-0.0040007
0.00394559
7.43597e-05
-1.39129e-06
-0.00407225
0.00404002
-8.51393e-07
-7.66146e-05
-0.00391038
0.00385296
-6.92994e-05
0.000102176
-0.0037612
0.00376166
-5.93991e-07
-3.56275e-05
-0.00376211
0.00376253
-4.78213e-07
-8.61349e-07
-0.00376293
0.00376331
-3.76552e-07
-7.59444e-07
-0.00376368
0.00376402
-2.83868e-07
-6.70757e-07
-0.00376436
0.00376467
-2.00256e-07
-5.90992e-07
-0.00376497
0.00376526
-1.22884e-07
-5.1888e-07
-0.00376554
0.0037658
-4.82146e-08
-4.50565e-07
-0.00374377
0.00383182
5.74898e-05
2.19076e-05
0.00382219
4.77601e-05
-2.33343e-05
7.53643e-05
0.00384116
-3.05014e-06
0.00387279
0.00384672
-0.00378337
1.36191e-05
-0.00388409
0.00387574
4.57097e-05
6.7528e-05
0.00378303
-0.00376527
-1.90634e-07
4.57572e-05
0.00376498
-0.00376468
-2.52479e-07
-7.1529e-07
0.00376436
-0.00376403
-3.16827e-07
-7.71561e-07
0.00376368
-0.00376331
-3.87489e-07
-8.31323e-07
0.00376292
-0.00376251
-4.65381e-07
-8.98163e-07
0.00376209
-0.00376164
-5.51207e-07
-9.7259e-07
0.00383786
-0.00383217
-6.58729e-07
-1.0529e-06
0.00389641
-0.00385417
-5.5927e-05
-1.16128e-06
0.00382891
-0.00380378
4.72307e-05
5.75907e-06
0.00385136
-0.00387632
3.84575e-05
-4.0877e-05
0.00375636
-0.00375559
-1.20759e-06
-1.553e-06
0.00375479
-0.00375393
-1.41179e-06
-1.72567e-06
0.00375304
-0.00375211
-1.65075e-06
-1.93802e-06
0.00375114
-0.0037927
-1.92189e-06
-2.18732e-06
0.00379379
-0.00384977
-2.20145e-06
-2.45796e-06
0.00382329
-0.00376848
3.58845e-05
-2.72732e-06
-0.00372813
5.12274e-05
-0.00393685
-0.000124851
0.00383391
6.36376e-05
6.95047e-07
0.00387199
0.000143259
-0.000128258
-0.00376053
0.000115186
-0.00370006
0.000130839
-0.000121135
-0.00394655
-0.00384862
-0.00386083
0.0037978
-8.02806e-05
0.00390553
-0.00393902
-9.1356e-05
-8.04957e-05
-0.00374942
0.0037503
-4.15151e-05
-6.54267e-05
-0.00375132
0.00375228
-2.59704e-06
-2.95457e-06
-0.0037532
0.00375408
-2.39593e-06
-2.77061e-06
-0.00375491
0.00375571
-2.16088e-06
-2.55932e-06
-0.00375646
0.00375717
-1.91027e-06
-2.32083e-06
-0.00375785
0.00383388
-1.66598e-06
-2.07591e-06
-0.0037591
0.00375968
-1.4322e-06
-1.83727e-06
-0.0038635
0.00379542
-1.22014e-06
-1.64498e-06
-0.00376124
0.00376171
-1.05767e-06
-1.44872e-06
-0.00376215
0.00376257
-9.00448e-07
-1.30198e-06
-0.00376297
0.00376335
-7.591e-07
-1.15917e-06
-0.00376371
0.00376406
-6.3176e-07
-1.03278e-06
-0.00376439
0.00376471
-5.16604e-07
-9.18967e-07
-0.003765
0.00376529
-4.11615e-07
-8.16365e-07
-0.00376556
0.00376583
-3.12296e-07
-7.22307e-07
-0.00376579
0.00379628
2.69951e-05
2.19462e-05
8.96105e-06
-1.69523e-05
0.00384915
2.21302e-06
0.00384066
-0.00378491
0.00382234
2.62014e-05
5.91367e-05
0.0038247
-0.00382565
4.66667e-05
0.00379388
3.15171e-05
-2.3193e-06
4.53719e-05
0.00382894
0.00385352
0.0038263
-0.00379837
-1.43105e-05
6.81766e-05
0.00376558
-0.0037653
-4.70788e-07
1.29631e-05
0.00376501
-0.0037647
-5.57166e-07
-1.00506e-06
0.00376439
-0.00376405
-6.51025e-07
-1.08736e-06
0.00376371
-0.00376334
-7.55685e-07
-1.17928e-06
0.00376295
-0.00376255
-8.71893e-07
-1.28231e-06
0.00376212
-0.00376167
-1.00023e-06
-1.39715e-06
0.0037612
-0.00376071
-1.15121e-06
-1.5273e-06
0.00376019
-0.00381481
-1.31108e-06
-1.67724e-06
0.0038072
-0.00375846
-1.50521e-06
-1.84719e-06
0.00379731
-0.00375713
-1.72059e-06
-2.03046e-06
0.00375642
-0.00375567
-1.9668e-06
-2.26219e-06
0.00375487
-0.00375403
-2.25038e-06
-2.51854e-06
0.00375316
-0.00375224
-2.57112e-06
-2.81223e-06
0.00375128
-0.00375028
-2.92453e-06
-3.14195e-06
0.00374924
-0.00374815
-3.29566e-06
-3.49664e-06
0.00374701
-0.00370745
-3.67366e-06
-3.86607e-06
0.00368547
-0.00363432
6.40355e-05
2.92464e-05
-0.00396745
-9.27032e-05
0.000102326
-0.000158789
-0.0036436
-0.00361108
7.90855e-05
-0.000213459
-0.00370586
2.50496e-05
0.00379951
0.00379954
3.97058e-05
-5.81266e-05
8.30913e-05
-0.00397152
-5.41907e-05
-0.00397139
7.77781e-05
-0.000157531
-0.00356384
5.44346e-05
-0.00358774
-0.00397899
0.00383206
-0.00382083
1.49638e-05
0.00379277
6.43466e-05
6.80796e-05
-2.93589e-05
0.00379022
4.47493e-05
0.00382287
-0.00392508
0.00396699
-9.60965e-05
-0.00010705
8.88444e-05
-0.00395318
0.0040128
-8.71762e-05
0.000320656
-0.00424628
-1.93336e-05
-0.00396169
0.00392986
-5.95221e-05
-8.74062e-05
-0.00387863
0.00381677
-1.84226e-05
-2.92666e-05
-0.00378826
0.00375057
-3.83088e-06
-3.69117e-05
-0.00375156
0.00375251
-3.54526e-06
-3.9446e-06
-0.00375341
0.00375427
-3.25415e-06
-3.66797e-06
-0.00375508
0.00375586
-2.93826e-06
-3.37227e-06
-0.00375659
0.00375729
-2.61197e-06
-3.05616e-06
-0.00375796
0.00375859
-2.29428e-06
-2.73977e-06
-0.00375919
0.00375976
-2.00286e-06
-2.44131e-06
-0.00376029
0.00376082
-1.74362e-06
-2.17742e-06
-0.00376131
0.00376177
-1.52106e-06
-1.94026e-06
-0.00376221
0.00376263
-1.32091e-06
-1.74042e-06
-0.00376303
0.00376341
-1.13985e-06
-1.55665e-06
-0.00376377
0.00376411
-9.76809e-07
-1.39251e-06
-0.00376444
0.00376475
-8.29803e-07
-1.245e-06
-0.00376505
0.00376533
-6.97055e-07
-1.11257e-06
-0.0037656
0.00376587
-5.74683e-07
-9.9308e-07
-0.0037765
0.00378303
2.04687e-05
1.13108e-05
2.13404e-05
2.49349e-05
-8.91793e-06
0.00383313
-4.04817e-05
1.14052e-05
0.00382858
0.00382511
0.00381525
0.00381402
-0.00380995
4.25983e-05
-0.00380854
0.00378779
6.04506e-05
3.69942e-05
0.00376612
-0.00377977
-6.52928e-07
2.43465e-05
0.00376561
-0.00376533
-7.49122e-07
-1.20056e-06
0.00376505
-0.00376474
-8.59054e-07
-1.29101e-06
0.00376443
-0.0037641
-9.82933e-07
-1.40074e-06
0.00376375
-0.00376339
-1.12179e-06
-1.52468e-06
0.00376301
-0.0037626
-1.27635e-06
-1.66377e-06
0.00376218
-0.00376173
-1.44818e-06
-1.81908e-06
0.00376126
-0.00376077
-1.64389e-06
-1.99406e-06
0.00376026
-0.00375971
-1.86068e-06
-2.19237e-06
0.00375914
-0.00375853
-2.10841e-06
-2.41687e-06
0.0037579
-0.00375723
-2.39072e-06
-2.66985e-06
0.00375652
-0.00375578
-2.71172e-06
-2.96519e-06
0.003755
-0.00375418
-3.07268e-06
-3.29684e-06
0.00375332
-0.00375242
-3.47332e-06
-3.66897e-06
0.00375148
-0.0037505
-3.90965e-06
-4.07931e-06
0.00374947
-0.00374839
-4.37405e-06
-4.52122e-06
0.00374727
-0.00374608
-4.86313e-06
-4.98916e-06
0.00371135
-0.00364195
-5.37256e-06
-5.479e-06
0.00360144
-0.0036085
6.14868e-05
3.8583e-05
6.9443e-05
-6.81107e-05
-0.00358907
-0.0035909
5.18441e-05
0.000116383
-0.00399906
-9.42692e-05
-0.00376912
3.77991e-05
0.00376637
0.00380079
3.17566e-05
0.0001381
-0.00417846
2.07733e-06
-0.00363403
0.00081581
-0.00335602
0.00437472
-6.6037e-05
4.40965e-05
-0.00356896
-0.000100349
-0.00355476
-0.00265087
0.0040327
0.000619381
-0.00207195
-0.000144031
-0.00395687
-0.00382169
0.00398133
0.000161012
0.000339456
-0.000128443
-0.00394158
0.00390466
-5.91772e-05
2.04197e-05
-0.00387159
0.003818
-5.93148e-06
-5.43417e-05
-0.00379458
0.00378148
-5.32154e-06
-5.841e-06
-0.00374988
0.00375091
-4.86094e-06
-5.31788e-06
-0.00375188
0.00375281
-4.46964e-06
-4.91416e-06
-0.00375368
0.00375451
-4.08743e-06
-4.54085e-06
-0.0037553
0.00375606
-3.69286e-06
-4.16104e-06
-0.00375677
0.00375746
-3.29582e-06
-3.77115e-06
-0.0037581
0.00375872
-2.91469e-06
-3.38792e-06
-0.00375931
0.00375988
-2.56565e-06
-3.02961e-06
-0.00376041
0.00376092
-2.25433e-06
-2.70911e-06
-0.0037614
0.00376186
-1.98131e-06
-2.42346e-06
-0.0037623
0.00376271
-1.73718e-06
-2.17499e-06
-0.00376311
0.00376348
-1.51684e-06
-1.95035e-06
-0.00376384
0.00376418
-1.31822e-06
-1.74882e-06
-0.0037645
0.00376481
-1.13944e-06
-1.56781e-06
-0.00376511
0.00376539
-9.78757e-07
-1.40561e-06
-0.00376566
0.00376592
-8.34216e-07
-1.26058e-06
-0.00377836
0.00379954
-7.11438e-07
-1.13559e-06
-0.00379049
0.0037883
1.7161e-05
3.03883e-05
-0.00380323
0.003799
4.20297e-05
4.9417e-05
5.31483e-05
-2.96227e-05
0.00380506
-3.30167e-05
7.68829e-06
0.00382432
0.0037865
3.71457e-05
1.53115e-05
0.00378068
0.00383264
-2.61521e-05
1.80615e-05
0.00379831
0.00380441
-2.2496e-05
3.5292e-06
0.00381975
0.00381844
0.00382274
-0.00380927
4.69816e-05
-0.00388179
0.00377819
0.000107129
-2.72912e-05
0.00379982
-0.00379185
3.46332e-05
2.75364e-05
0.00376615
-0.0037659
-9.02274e-07
-1.35137e-06
0.00376565
-0.00376538
-1.02165e-06
-1.45423e-06
0.0037651
-0.0037648
-1.15732e-06
-1.57294e-06
0.00376449
-0.00376416
-1.31157e-06
-1.71073e-06
0.00376382
-0.00376345
-1.48448e-06
-1.86675e-06
0.00376308
-0.00376267
-1.67727e-06
-2.04179e-06
0.00376226
-0.00376181
-1.89196e-06
-2.23731e-06
0.00376135
-0.00376086
-2.13339e-06
-2.45669e-06
0.00376035
-0.00375981
-2.40304e-06
-2.70369e-06
0.00375924
-0.00375864
-2.7081e-06
-2.98248e-06
0.00375801
-0.00375735
-3.05368e-06
-3.29715e-06
0.00375666
-0.00375593
-3.44324e-06
-3.65687e-06
0.00375517
-0.00375436
-3.87749e-06
-4.05955e-06
0.00375352
-0.00375264
-4.3556e-06
-4.50678e-06
0.00375172
-0.00375076
-4.87543e-06
-4.99682e-06
0.00374975
-0.00374869
-5.43517e-06
-5.52729e-06
0.00374758
-0.00374641
-6.03627e-06
-6.09807e-06
0.00374518
-0.00374386
-6.68472e-06
-6.71122e-06
0.0036979
-0.00362903
-7.39075e-06
-7.37802e-06
0.00363163
-0.00361809
3.05561e-05
5.44468e-05
5.30621e-05
-4.99211e-05
-0.0035721
-0.00359335
2.83227e-05
0.000112688
-0.00397365
-2.89549e-05
-0.00373809
0.000290815
-0.00365347
2.14429e-06
-0.00373653
0.0038003
-0.00380591
4.76366e-05
0.00378702
2.09637e-05
4.77401e-05
-3.24974e-05
0.00380451
1.26402e-05
0.00381329
0.000278895
-0.00322356
4.02399e-06
-0.0036087
-0.00194499
-0.00200443
-0.00314404
0.00361103
0.000152389
8.21416e-05
-5.65311e-05
-0.00359771
5.75975e-05
-0.0035688
-0.00292697
-0.000361101
-0.00387314
-0.00376539
0.00381396
0.000112445
0.000185097
-0.00384323
0.00379216
-8.10504e-06
-8.85277e-06
-0.00374566
0.00374692
-7.19144e-06
-7.84421e-06
-0.00374811
0.00374924
-6.45361e-06
-7.03157e-06
-0.00375031
0.00375132
-5.86803e-06
-6.38507e-06
-0.00375226
0.00375316
-5.36726e-06
-5.86044e-06
-0.00375401
0.00375481
-4.893e-06
-5.38622e-06
-0.00375557
0.0037563
-4.42214e-06
-4.92302e-06
-0.003757
0.00375766
-3.9596e-06
-4.46319e-06
-0.00375829
0.0037589
-3.52025e-06
-4.01874e-06
-0.00375947
0.00376002
-3.11752e-06
-3.60489e-06
-0.00376055
0.00376105
-2.7561e-06
-3.23183e-06
-0.00376152
0.00376198
-2.43527e-06
-2.89856e-06
-0.00376241
0.00376282
-2.14796e-06
-2.60392e-06
-0.0037632
0.00376358
-1.8888e-06
-2.33881e-06
-0.00376393
0.00376427
-1.65521e-06
-2.10048e-06
-0.00376458
0.00376489
-1.44477e-06
-1.88632e-06
-0.00376518
0.00376546
-1.25609e-06
-1.6944e-06
-0.00376572
0.00376597
-1.08784e-06
-1.52326e-06
-0.00376621
0.00376644
-9.39549e-07
-1.37296e-06
-0.00379807
0.003785
3.02327e-05
-1.24422e-06
2.851e-05
4.07675e-05
-6.49619e-05
0.00382925
-1.70443e-05
2.93545e-05
0.00381201
0.00381023
-2.24852e-08
-1.48157e-07
0.00378085
0.00376765
-3.65943e-05
5.45098e-05
0.00378039
0.00376766
0.00384045
0.00382486
-0.00381353
3.56537e-05
-0.00377731
0.00381568
6.87588e-05
2.02573e-05
0.00380208
-0.00376642
-1.02295e-06
1.60827e-05
0.0037662
-0.00376595
-1.14571e-06
-1.57847e-06
0.0037657
-0.00376543
-1.28822e-06
-1.70527e-06
0.00376516
-0.00376486
-1.45119e-06
-1.85014e-06
0.00376456
-0.00376423
-1.63586e-06
-2.01651e-06
0.0037639
-0.00376354
-1.84286e-06
-2.20456e-06
0.00376316
-0.00376277
-2.0734e-06
-2.41527e-06
0.00376235
-0.00376192
-2.33028e-06
-2.65054e-06
0.00376146
-0.00376097
-2.61757e-06
-2.91385e-06
0.00376047
-0.00375993
-2.93866e-06
-3.20909e-06
0.00375938
-0.00375878
-3.29963e-06
-3.54103e-06
0.00375817
-0.00375751
-3.70574e-06
-3.91455e-06
0.00375683
-0.00375612
-4.16034e-06
-4.33612e-06
0.00375537
-0.00375458
-4.66435e-06
-4.80608e-06
0.00375377
-0.0037529
-5.21754e-06
-5.32534e-06
0.00375201
-0.00375106
-5.8207e-06
-5.89387e-06
0.00375008
-0.00374903
-6.47666e-06
-6.51322e-06
0.00374794
-0.00374679
-7.19166e-06
-7.18817e-06
0.00374557
-0.00374428
-7.97533e-06
-7.926e-06
0.00374292
-0.00374147
-8.8445e-06
-8.7392e-06
0.00367736
-0.00363698
-9.82869e-06
-9.65681e-06
0.00359796
-0.00356912
2.87541e-05
-1.06932e-05
9.93742e-05
-6.36635e-05
-0.00360451
-0.00354789
7.81453e-05
8.33003e-05
-0.00376613
4.10832e-07
-0.00373635
4.67486e-05
0.00376963
0.00380136
2.69594e-05
0.000165272
-0.00353984
-0.000478971
-0.00427051
-7.56422e-05
-0.00362689
2.212e-06
-0.00373471
4.22911e-06
-0.00366946
-0.00421257
-0.000718827
0.000139111
-0.000429332
-0.00392235
-0.000314353
-0.00381705
-5.71543e-05
-0.00360422
6.13911e-05
-0.000118345
-0.00354756
0.000102342
-0.00358884
-0.00378943
-0.00342882
0.00358098
2.3761e-07
0.00360608
-0.00397296
-0.000351947
-0.000183845
-0.00369073
0.00374212
6.10538e-05
7.53409e-05
-0.00374354
0.00374491
-9.4738e-06
-1.02684e-05
-0.00374621
0.00374745
-8.43111e-06
-9.14557e-06
-0.00374862
0.00374973
-7.56618e-06
-8.20384e-06
-0.00375078
0.00375176
-6.85297e-06
-7.42885e-06
-0.00375268
0.00375355
-6.23827e-06
-6.78174e-06
-0.00375437
0.00375515
-5.67092e-06
-6.20423e-06
-0.00375589
0.00375659
-5.1261e-06
-5.65831e-06
-0.00375726
0.0037579
-4.60233e-06
-5.13188e-06
-0.00375851
0.0037591
-4.10921e-06
-4.63077e-06
-0.00375966
0.0037602
-3.65641e-06
-4.16556e-06
-0.00376071
0.0037612
-3.24754e-06
-3.74344e-06
-0.00376167
0.00376212
-2.88116e-06
-3.36431e-06
-0.00376254
0.00376294
-2.55195e-06
-3.02561e-06
-0.00376332
0.00376369
-2.25478e-06
-2.72085e-06
-0.00376404
0.00376437
-1.98669e-06
-2.44649e-06
-0.00376468
0.00376498
-1.74518e-06
-2.19968e-06
-0.00376526
0.00376554
-1.52829e-06
-1.97826e-06
-0.00376579
0.00376604
-1.33464e-06
-1.78055e-06
-0.00376627
0.0037665
-1.1638e-06
-1.60575e-06
-0.00376671
0.00379795
-1.01033e-06
-1.45148e-06
-0.00380086
0.00380975
3.87481e-05
2.55981e-05
-0.0037589
0.00377499
3.06567e-05
7.18159e-05
6.40584e-05
-4.73222e-05
0.00379528
-1.4299e-05
-7.44773e-06
0.00379674
0.00381939
4.74915e-05
1.65684e-07
0.0037816
0.0038104
-1.09028e-08
-1.50867e-07
0.00378101
0.00376781
3.07792e-07
-4.70686e-07
0.00378056
0.00376782
-2.76936e-05
2.22106e-05
0.00380999
0.00381229
-1.59618e-05
2.09594e-05
0.00379637
0.00381954
0.00382833
-0.00378513
2.5553e-05
-0.00381065
0.00378828
4.33281e-05
4.464e-05
0.00379269
-0.00378443
2.7395e-05
2.78208e-05
0.00376668
-0.00376647
-1.23302e-06
-1.66757e-06
0.00376625
-0.00376601
-1.38159e-06
-1.80084e-06
0.00376577
-0.00376551
-1.54932e-06
-1.95082e-06
0.00376523
-0.00376494
-1.74001e-06
-2.12217e-06
0.00376464
-0.00376432
-1.9551e-06
-2.31732e-06
0.00376399
-0.00376364
-2.19575e-06
-2.53718e-06
0.00376327
-0.00376288
-2.46365e-06
-2.78312e-06
0.00376247
-0.00376204
-2.7618e-06
-3.05749e-06
0.00376159
-0.00376112
-3.0945e-06
-3.36396e-06
0.00376062
-0.00376009
-3.46576e-06
-3.70668e-06
0.00375954
-0.00375896
-3.88098e-06
-4.09051e-06
0.00375835
-0.00375771
-4.34532e-06
-4.52052e-06
0.00375705
-0.00375635
-4.86228e-06
-5.00177e-06
0.00375562
-0.00375485
-5.43315e-06
-5.53607e-06
0.00375405
-0.00375321
-6.0597e-06
-6.12496e-06
0.00375233
-0.0037514
-6.74528e-06
-6.77066e-06
0.00375044
-0.00374942
-7.49703e-06
-7.47839e-06
0.00374835
-0.00374722
-8.32523e-06
-8.25705e-06
0.00374602
-0.00374476
-9.24273e-06
-9.118e-06
0.00374342
-0.003742
-1.02672e-05
-1.00758e-05
0.0037405
-0.00373891
-1.14232e-05
-1.11529e-05
0.00373722
-0.00369573
-1.27425e-05
-1.23759e-05
0.00365514
-0.00358769
3.48892e-05
3.7556e-05
4.99925e-05
-8.27993e-05
-0.00355604
-0.00358614
4.84432e-05
5.45965e-05
-0.00365546
-0.00402887
-0.000373423
1.88434e-05
-0.00363433
0.00382365
-0.00383311
4.0124e-05
0.0038203
-4.09726e-06
4.1347e-05
-3.53089e-05
0.00379033
5.14533e-05
0.00377818
3.79758e-07
-0.00373452
2.30435e-06
-0.00373279
-0.000113367
-0.00382788
4.45633e-06
-0.00373107
6.82952e-06
-0.00372939
9.42823e-06
-0.00363979
6.95738e-05
-3.57186e-05
-0.00358989
2.62351e-05
-0.0035428
-0.00373445
-0.00388426
0.00369881
-0.000166501
-0.000305663
0.000421578
-0.00414478
0.00405124
-0.00421603
-0.000140874
-0.00020644
-0.00356718
0.00362969
-6.22796e-05
-5.2208e-05
-0.0037018
0.00374274
2.01192e-05
3.23123e-06
-0.00374414
0.00374549
-1.08217e-05
-1.16735e-05
-0.00374677
0.00374799
-9.65377e-06
-1.04269e-05
-0.00374915
0.00375024
-8.65821e-06
-9.3568e-06
-0.00375126
0.00375222
-7.8153e-06
-8.45092e-06
-0.00375312
0.00375397
-7.08491e-06
-7.6796e-06
-0.00375476
0.00375551
-6.42394e-06
-6.99744e-06
-0.00375622
0.0037569
-5.80644e-06
-6.36923e-06
-0.00375755
0.00375817
-5.22441e-06
-5.77846e-06
-0.00375877
0.00375934
-4.68095e-06
-5.22393e-06
-0.00375988
0.00376041
-4.18123e-06
-4.71057e-06
-0.00376091
0.00376139
-3.72721e-06
-4.24245e-06
-0.00376184
0.00376228
-3.31746e-06
-3.81936e-06
-0.00376269
0.00376309
-2.9478e-06
-3.43865e-06
-0.00376346
0.00376382
-2.61367e-06
-3.09538e-06
-0.00376416
0.00376449
-2.31193e-06
-2.78587e-06
-0.00376479
0.00376509
-2.0398e-06
-2.50711e-06
-0.00376537
0.00376563
-1.79499e-06
-2.2566e-06
-0.00376588
0.00376613
-1.57573e-06
-2.0323e-06
-0.00376635
0.00376657
-1.38065e-06
-1.83285e-06
-0.00376677
0.00376697
-1.20467e-06
-1.65589e-06
-0.00379406
0.00380776
2.50489e-05
-1.4974e-06
4.64641e-05
1.86711e-05
-4.21662e-05
0.00381877
-2.94667e-05
2.97034e-06
0.00382323
0.00380859
-2.80989e-07
1.35112e-07
0.00378174
0.00376795
8.88198e-09
-1.54749e-07
0.00378116
0.00376795
3.00424e-07
-4.50883e-07
0.00378071
0.00376797
-4.38564e-05
3.27171e-05
0.00382113
0.00376798
0.00381695
0.00382278
-0.00382516
2.79246e-05
-0.00381451
0.00379787
5.99659e-05
5.29114e-05
0.00379562
-0.00376693
-1.28899e-06
-1.71849e-06
0.00376674
-0.00376653
-1.44082e-06
-1.86151e-06
0.00376631
-0.00376609
-1.61148e-06
-2.01643e-06
0.00376585
-0.00376559
-1.80479e-06
-2.19071e-06
0.00376532
-0.00376504
-2.02319e-06
-2.38862e-06
0.00376474
-0.00376443
-2.26842e-06
-2.61245e-06
0.00376411
-0.00376376
-2.54218e-06
-2.86369e-06
0.0037634
-0.00376301
-2.84666e-06
-3.14422e-06
0.00376262
-0.00376219
-3.18529e-06
-3.45687e-06
0.00376175
-0.00376128
-3.5623e-06
-3.80553e-06
0.00376079
-0.00376028
-3.98235e-06
-4.19461e-06
0.00375974
-0.00375917
-4.45028e-06
-4.62894e-06
0.00375858
-0.00375795
-4.97106e-06
-5.11344e-06
0.0037573
-0.00375661
-5.54812e-06
-5.6526e-06
0.0037559
-0.00375515
-6.18407e-06
-6.24917e-06
0.00375437
-0.00375355
-6.88239e-06
-6.90595e-06
0.00375269
-0.00375179
-7.64935e-06
-7.6276e-06
0.00375084
-0.00374984
-8.49555e-06
-8.42258e-06
0.0037488
-0.00374769
-9.43465e-06
-9.30322e-06
0.00374652
-0.00374528
-1.04819e-05
-1.0284e-05
0.00374398
-0.00374259
-1.16555e-05
-1.13812e-05
0.00374113
-0.00373957
-1.29777e-05
-1.26157e-05
0.00373794
-0.0037362
-1.44765e-05
-1.4011e-05
0.00368305
-0.00363199
-1.61682e-05
-1.55944e-05
0.00360806
-0.00361179
2.99618e-05
2.4512e-05
-0.00020437
3.14749e-05
-0.00364415
-0.00370514
7.10002e-05
-3.75446e-05
-0.00357625
-0.00355214
1.13471e-05
1.57504e-06
-0.00363819
4.4988e-05
0.00377828
0.00382978
1.95525e-05
9.71191e-05
-0.00418371
-0.000129444
3.71251e-07
-0.00373259
0.000209181
-0.00425685
-3.53899e-05
-0.00371231
2.42236e-06
-0.00373075
-4.39419e-05
-0.00375246
4.70222e-06
-0.00372894
7.21877e-06
-0.00372718
9.98431e-06
-0.00368549
-2.69757e-05
-0.00360046
3.99116e-05
-4.10553e-05
-0.00357511
4.20195e-05
-0.00355424
-0.0037325
-0.00414306
0.00397371
2.84779e-05
-0.000226821
-0.00412393
0.000167042
0.00426242
-0.004163
-0.000326242
-1.00822e-05
-0.00386062
0.00377476
-8.06454e-05
-9.33443e-05
-0.00373884
0.00369179
-1.52371e-05
-1.62845e-05
-0.00370963
0.00374337
-1.36279e-05
-1.46024e-05
-0.00374476
0.00374609
-1.21491e-05
-1.3059e-05
-0.00374735
0.00374855
-1.08545e-05
-1.16867e-05
-0.00374968
0.00375075
-9.72779e-06
-1.04876e-05
-0.00375175
0.00375269
-8.75581e-06
-9.45081e-06
-0.00375357
0.00375439
-7.90991e-06
-8.55594e-06
-0.00375516
0.00375589
-7.15567e-06
-7.76929e-06
-0.00375658
0.00375724
-6.46619e-06
-7.05919e-06
-0.00375787
0.00375847
-5.82746e-06
-6.40521e-06
-0.00375905
0.0037596
-5.23561e-06
-5.79905e-06
-0.00376013
0.00376064
-4.6911e-06
-5.23965e-06
-0.00376113
0.00376159
-4.19405e-06